Water Slab for Clausius-Clapeyron Phase 1 in water
12165
    1SOL     OW    1   0.261   0.637   5.084
    1SOL    HW1    2   0.172   0.627   5.118
    1SOL    HW2    3   0.259   0.595   4.998
    2SOL     OW    4   0.253   0.282   5.964
    2SOL    HW1    5   0.287   0.261   6.052
    2SOL    HW2    6   0.171   0.233   5.958
    3SOL     OW    7   0.048   0.379   5.614
    3SOL    HW1    8  -0.033   0.410   5.654
    3SOL    HW2    9   0.021   0.304   5.561
    4SOL     OW   10   0.600   1.280   6.136
    4SOL    HW1   11   0.511   1.277   6.102
    4SOL    HW2   12   0.608   1.366   6.177
    5SOL     OW   13   1.586   1.517   5.674
    5SOL    HW1   14   1.530   1.502   5.750
    5SOL    HW2   15   1.524   1.525   5.601
    6SOL     OW   16   1.165   0.708   5.686
    6SOL    HW1   17   1.218   0.785   5.667
    6SOL    HW2   18   1.111   0.734   5.761
    7SOL     OW   19   1.787   0.613   5.201
    7SOL    HW1   20   1.772   0.595   5.108
    7SOL    HW2   21   1.757   0.534   5.246
    8SOL     OW   22   0.799   1.149   5.996
    8SOL    HW1   23   0.724   1.171   6.052
    8SOL    HW2   24   0.828   1.233   5.961
    9SOL     OW   25   0.882   0.802   6.793
    9SOL    HW1   26   0.878   0.876   6.853
    9SOL    HW2   27   0.903   0.841   6.709
   10SOL     OW   28   0.717   1.019   5.633
   10SOL    HW1   29   0.779   1.002   5.704
   10SOL    HW2   30   0.647   1.070   5.675
   11SOL     OW   31   0.720   1.165   6.774
   11SOL    HW1   32   0.773   1.243   6.787
   11SOL    HW2   33   0.638   1.197   6.736
   12SOL     OW   34   0.364   1.441   6.035
   12SOL    HW1   35   0.293   1.410   5.979
   12SOL    HW2   36   0.419   1.493   5.976
   13SOL     OW   37   1.491   1.509   6.310
   13SOL    HW1   38   1.515   1.598   6.337
   13SOL    HW2   39   1.474   1.463   6.393
   14SOL     OW   40   0.470   0.399   6.468
   14SOL    HW1   41   0.546   0.341   6.478
   14SOL    HW2   42   0.395   0.340   6.477
   15SOL     OW   43   1.636   0.453   5.708
   15SOL    HW1   44   1.565   0.498   5.662
   15SOL    HW2   45   1.679   0.521   5.757
   16SOL     OW   46   0.265   1.713   5.453
   16SOL    HW1   47   0.293   1.792   5.501
   16SOL    HW2   48   0.307   1.721   5.368
   17SOL     OW   49   1.160   1.346   6.660
   17SOL    HW1   50   1.202   1.343   6.746
   17SOL    HW2   51   1.112   1.263   6.654
   18SOL     OW   52   0.262   1.440   5.509
   18SOL    HW1   53   0.234   1.532   5.512
   18SOL    HW2   54   0.191   1.392   5.553
   19SOL     OW   55   0.270   1.095   5.857
   19SOL    HW1   56   0.281   1.016   5.909
   19SOL    HW2   57   0.220   1.154   5.912
   20SOL     OW   58   0.651   1.792   6.409
   20SOL    HW1   59   0.564   1.778   6.446
   20SOL    HW2   60   0.675   1.880   6.435
   21SOL     OW   61   0.636   0.970   5.095
   21SOL    HW1   62   0.646   1.050   5.045
   21SOL    HW2   63   0.681   0.987   5.178
   22SOL     OW   64   1.623   0.131   6.465
   22SOL    HW1   65   1.607   0.195   6.395
   22SOL    HW2   66   1.617   0.182   6.546
   23SOL     OW   67   0.154   0.648   5.534
   23SOL    HW1   68   0.111   0.565   5.553
   23SOL    HW2   69   0.147   0.697   5.616
   24SOL     OW   70   1.873   1.772   5.328
   24SOL    HW1   71   1.926   1.746   5.403
   24SOL    HW2   72   1.905   1.858   5.303
   25SOL     OW   73   0.052   1.602   5.085
   25SOL    HW1   74   0.043   1.511   5.111
   25SOL    HW2   75   0.030   1.652   5.165
   26SOL     OW   76   1.720   0.927   5.588
   26SOL    HW1   77   1.812   0.899   5.588
   26SOL    HW2   78   1.713   0.985   5.512
   27SOL     OW   79   1.673   1.113   5.403
   27SOL    HW1   80   1.756   1.118   5.356
   27SOL    HW2   81   1.687   1.162   5.484
   28SOL     OW   82   0.144   0.742   6.568
   28SOL    HW1   83   0.231   0.737   6.608
   28SOL    HW2   84   0.133   0.835   6.548
   29SOL     OW   85   0.645   1.372   5.698
   29SOL    HW1   86   0.596   1.290   5.704
   29SOL    HW2   87   0.620   1.408   5.613
   30SOL     OW   88   1.324   1.236   6.395
   30SOL    HW1   89   1.360   1.166   6.341
   30SOL    HW2   90   1.375   1.234   6.475
   31SOL     OW   91   0.842   0.013   5.515
   31SOL    HW1   92   0.879   0.091   5.475
   31SOL    HW2   93   0.750   0.012   5.486
   32SOL     OW   94   0.229   0.980   6.242
   32SOL    HW1   95   0.311   0.935   6.220
   32SOL    HW2   96   0.161   0.921   6.210
   33SOL     OW   97   1.559   1.001   5.161
   33SOL    HW1   98   1.496   0.931   5.180
   33SOL    HW2   99   1.599   1.019   5.246
   34SOL     OW  100   1.217   1.799   6.587
   34SOL    HW1  101   1.242   1.853   6.512
   34SOL    HW2  102   1.227   1.709   6.556
   35SOL     OW  103   0.348   0.274   6.729
   35SOL    HW1  104   0.420   0.319   6.773
   35SOL    HW2  105   0.276   0.278   6.792
   36SOL     OW  106   1.496   1.423   5.924
   36SOL    HW1  107   1.437   1.427   5.999
   36SOL    HW2  108   1.481   1.337   5.886
   37SOL     OW  109   1.697   1.721   5.544
   37SOL    HW1  110   1.660   1.695   5.460
   37SOL    HW2  111   1.678   1.648   5.603
   38SOL     OW  112   0.627   0.733   5.239
   38SOL    HW1  113   0.648   0.803   5.178
   38SOL    HW2  114   0.555   0.767   5.292
   39SOL     OW  115   1.313   0.350   5.911
   39SOL    HW1  116   1.230   0.302   5.905
   39SOL    HW2  117   1.367   0.297   5.969
   40SOL     OW  118   1.607   1.669   5.278
   40SOL    HW1  119   1.694   1.710   5.277
   40SOL    HW2  120   1.591   1.645   5.187
   41SOL     OW  121   0.836   0.612   6.433
   41SOL    HW1  122   0.793   0.604   6.518
   41SOL    HW2  123   0.785   0.556   6.375
   42SOL     OW  124   1.424   0.474   6.645
   42SOL    HW1  125   1.411   0.515   6.731
   42SOL    HW2  126   1.499   0.416   6.658
   43SOL     OW  127   1.001   0.896   6.545
   43SOL    HW1  128   1.047   0.818   6.514
   43SOL    HW2  129   0.951   0.926   6.470
   44SOL     OW  130   1.023   0.415   6.213
   44SOL    HW1  131   0.946   0.446   6.261
   44SOL    HW2  132   0.987   0.368   6.138
   45SOL     OW  133   1.074   0.706   5.400
   45SOL    HW1  134   1.093   0.700   5.493
   45SOL    HW2  135   0.992   0.658   5.388
   46SOL     OW  136   0.112   0.820   5.751
   46SOL    HW1  137   0.204   0.809   5.774
   46SOL    HW2  138   0.091   0.909   5.781
   47SOL     OW  139   0.163   1.831   6.543
   47SOL    HW1  140   0.148   1.811   6.636
   47SOL    HW2  141   0.077   1.858   6.511
   48SOL     OW  142   0.899   0.354   5.169
   48SOL    HW1  143   0.955   0.409   5.114
   48SOL    HW2  144   0.913   0.265   5.136
   49SOL     OW  145   1.748   0.589   6.802
   49SOL    HW1  146   1.724   0.673   6.764
   49SOL    HW2  147   1.749   0.528   6.728
   50SOL     OW  148   1.395   1.150   5.516
   50SOL    HW1  149   1.473   1.125   5.466
   50SOL    HW2  150   1.349   1.212   5.460
   51SOL     OW  151   0.581   0.201   5.855
   51SOL    HW1  152   0.577   0.203   5.951
   51SOL    HW2  153   0.583   0.293   5.830
   52SOL     OW  154   1.039   1.459   5.447
   52SOL    HW1  155   0.995   1.531   5.402
   52SOL    HW2  156   1.034   1.483   5.540
   53SOL     OW  157   0.382   1.806   5.823
   53SOL    HW1  158   0.433   1.726   5.831
   53SOL    HW2  159   0.447   1.876   5.823
   54SOL     OW  160   1.827   1.072   5.842
   54SOL    HW1  161   1.764   1.056   5.772
   54SOL    HW2  162   1.774   1.079   5.922
   55SOL     OW  163   1.259   1.555   6.477
   55SOL    HW1  164   1.260   1.479   6.536
   55SOL    HW2  165   1.206   1.526   6.403
   56SOL     OW  166   0.351   0.950   5.212
   56SOL    HW1  167   0.431   0.981   5.170
   56SOL    HW2  168   0.330   0.869   5.166
   57SOL     OW  169   1.491   0.739   5.698
   57SOL    HW1  170   1.487   0.681   5.774
   57SOL    HW2  171   1.567   0.795   5.715
   58SOL     OW  172   0.493   1.268   6.702
   58SOL    HW1  173   0.446   1.273   6.618
   58SOL    HW2  174   0.425   1.256   6.767
   59SOL     OW  175   1.141   1.783   5.205
   59SOL    HW1  176   1.085   1.722   5.254
   59SOL    HW2  177   1.170   1.732   5.129
   60SOL     OW  178   0.230   0.285   6.465
   60SOL    HW1  179   0.156   0.346   6.460
   60SOL    HW2  180   0.221   0.246   6.552
   61SOL     OW  181   1.664   1.381   5.055
   61SOL    HW1  182   1.628   1.469   5.042
   61SOL    HW2  183   1.590   1.323   5.039
   62SOL     OW  184   0.496   1.746   5.294
   62SOL    HW1  185   0.530   1.788   5.373
   62SOL    HW2  186   0.571   1.742   5.235
   63SOL     OW  187   1.431   0.114   5.396
   63SOL    HW1  188   1.413   0.080   5.308
   63SOL    HW2  189   1.526   0.126   5.398
   64SOL     OW  190   0.284   1.793   6.211
   64SOL    HW1  191   0.334   1.726   6.258
   64SOL    HW2  192   0.268   1.755   6.124
   65SOL     OW  193   0.971   1.703   5.875
   65SOL    HW1  194   1.046   1.646   5.892
   65SOL    HW2  195   0.925   1.662   5.803
   66SOL     OW  196   0.414   0.705   5.452
   66SOL    HW1  197   0.452   0.617   5.450
   66SOL    HW2  198   0.324   0.691   5.480
   67SOL     OW  199   1.576   0.230   6.699
   67SOL    HW1  200   1.572   0.258   6.790
   67SOL    HW2  201   1.508   0.163   6.691
   68SOL     OW  202   0.638   0.130   5.081
   68SOL    HW1  203   0.730   0.108   5.094
   68SOL    HW2  204   0.621   0.108   4.989
   69SOL     OW  205   0.810   0.268   6.719
   69SOL    HW1  206   0.874   0.212   6.762
   69SOL    HW2  207   0.744   0.286   6.787
   70SOL     OW  208   0.919   1.521   6.165
   70SOL    HW1  209   0.898   1.491   6.077
   70SOL    HW2  210   0.976   1.453   6.201
   71SOL     OW  211   1.379   0.595   6.404
   71SOL    HW1  212   1.410   0.558   6.487
   71SOL    HW2  213   1.408   0.686   6.406
   72SOL     OW  214   0.835   1.409   5.897
   72SOL    HW1  215   0.919   1.417   5.852
   72SOL    HW2  216   0.770   1.406   5.826
   73SOL     OW  217   0.954   0.510   5.871
   73SOL    HW1  218   0.930   0.497   5.780
   73SOL    HW2  219   0.997   0.428   5.897
   74SOL     OW  220   0.575   0.069   5.483
   74SOL    HW1  221   0.495   0.071   5.535
   74SOL    HW2  222   0.571   0.148   5.429
   75SOL     OW  223   1.464   1.196   5.011
   75SOL    HW1  224   1.493   1.123   5.065
   75SOL    HW2  225   1.376   1.217   5.044
   76SOL     OW  226   0.330   0.039   5.141
   76SOL    HW1  227   0.378   0.120   5.125
   76SOL    HW2  228   0.392  -0.018   5.186
   77SOL     OW  229   0.966   0.241   5.449
   77SOL    HW1  230   0.925   0.282   5.373
   77SOL    HW2  231   1.060   0.244   5.430
   78SOL     OW  232   1.108   0.686   6.435
   78SOL    HW1  233   1.034   0.626   6.437
   78SOL    HW2  234   1.183   0.632   6.413
   79SOL     OW  235   1.257   1.575   5.764
   79SOL    HW1  236   1.281   1.646   5.704
   79SOL    HW2  237   1.324   1.578   5.832
   80SOL     OW  238   0.492   1.154   5.713
   80SOL    HW1  239   0.419   1.131   5.771
   80SOL    HW2  240   0.461   1.130   5.625
   81SOL     OW  241   1.303   1.802   5.563
   81SOL    HW1  242   1.342   1.866   5.504
   81SOL    HW2  243   1.253   1.855   5.626
   82SOL     OW  244   1.062   0.553   4.988
   82SOL    HW1  245   1.026   0.634   4.953
   82SOL    HW2  246   1.123   0.581   5.056
   83SOL     OW  247   0.109   0.560   6.361
   83SOL    HW1  248   0.196   0.563   6.320
   83SOL    HW2  249   0.108   0.634   6.421
   84SOL     OW  250   0.595   0.229   6.122
   84SOL    HW1  251   0.626   0.146   6.158
   84SOL    HW2  252   0.508   0.241   6.160
   85SOL     OW  253   0.900   0.461   5.613
   85SOL    HW1  254   0.865   0.524   5.551
   85SOL    HW2  255   0.918   0.383   5.561
   86SOL     OW  256   1.029   0.067   5.739
   86SOL    HW1  257   0.984   0.051   5.656
   86SOL    HW2  258   1.032  -0.019   5.781
   87SOL     OW  259   1.462   1.176   5.837
   87SOL    HW1  260   1.406   1.098   5.828
   87SOL    HW2  261   1.483   1.201   5.747
   88SOL     OW  262   1.499   0.596   5.962
   88SOL    HW1  263   1.468   0.506   5.971
   88SOL    HW2  264   1.567   0.606   6.028
   89SOL     OW  265   1.885   0.838   5.349
   89SOL    HW1  266   1.930   0.775   5.406
   89SOL    HW2  267   1.854   0.785   5.276
   90SOL     OW  268   0.521   1.394   5.144
   90SOL    HW1  269   0.437   1.375   5.187
   90SOL    HW2  270   0.497   1.413   5.053
   91SOL     OW  271   1.695   1.281   5.629
   91SOL    HW1  272   1.790   1.294   5.641
   91SOL    HW2  273   1.657   1.365   5.656
   92SOL     OW  274   1.423   0.585   5.050
   92SOL    HW1  275   1.370   0.557   5.125
   92SOL    HW2  276   1.505   0.537   5.060
   93SOL     OW  277   0.556   0.263   5.299
   93SOL    HW1  278   0.587   0.208   5.227
   93SOL    HW2  279   0.558   0.352   5.264
   94SOL     OW  280   1.785   1.229   6.557
   94SOL    HW1  281   1.873   1.195   6.548
   94SOL    HW2  282   1.796   1.320   6.582
   95SOL     OW  283   1.097   1.356   6.310
   95SOL    HW1  284   1.021   1.329   6.362
   95SOL    HW2  285   1.173   1.322   6.359
   96SOL     OW  286   1.623   1.634   6.601
   96SOL    HW1  287   1.648   1.664   6.514
   96SOL    HW2  288   1.704   1.596   6.637
   97SOL     OW  289   1.144   1.200   6.073
   97SOL    HW1  290   1.100   1.244   6.146
   97SOL    HW2  291   1.102   1.237   5.995
   98SOL     OW  292   1.669   1.105   6.049
   98SOL    HW1  293   1.669   1.180   6.108
   98SOL    HW2  294   1.585   1.110   6.004
   99SOL     OW  295   0.945   0.096   6.373
   99SOL    HW1  296   0.973   0.078   6.283
   99SOL    HW2  297   1.018   0.145   6.411
  100SOL     OW  298   1.012   1.120   6.690
  100SOL    HW1  299   0.917   1.125   6.699
  100SOL    HW2  300   1.028   1.043   6.635
  101SOL     OW  301   0.737   1.059   5.340
  101SOL    HW1  302   0.725   1.057   5.435
  101SOL    HW2  303   0.815   1.006   5.325
  102SOL     OW  304   0.443   0.817   6.220
  102SOL    HW1  305   0.521   0.827   6.274
  102SOL    HW2  306   0.404   0.734   6.248
  103SOL     OW  307   1.305   0.389   6.234
  103SOL    HW1  308   1.324   0.464   6.292
  103SOL    HW2  309   1.220   0.410   6.196
  104SOL     OW  310   0.108   1.569   6.271
  104SOL    HW1  311   0.058   1.650   6.273
  104SOL    HW2  312   0.191   1.591   6.313
  105SOL     OW  313   0.398   1.105   5.471
  105SOL    HW1  314   0.390   1.182   5.414
  105SOL    HW2  315   0.400   1.031   5.411
  106SOL     OW  316   0.595   0.542   5.836
  106SOL    HW1  317   0.610   0.606   5.766
  106SOL    HW2  318   0.643   0.577   5.912
  107SOL     OW  319   1.282   1.353   5.358
  107SOL    HW1  320   1.328   1.427   5.398
  107SOL    HW2  321   1.193   1.360   5.393
  108SOL     OW  322   1.302   1.452   6.113
  108SOL    HW1  323   1.348   1.460   6.197
  108SOL    HW2  324   1.242   1.378   6.125
  109SOL     OW  325   1.613   0.642   5.443
  109SOL    HW1  326   1.584   0.704   5.510
  109SOL    HW2  327   1.660   0.696   5.380
  110SOL     OW  328   0.384   1.518   6.299
  110SOL    HW1  329   0.369   1.474   6.215
  110SOL    HW2  330   0.478   1.537   6.299
  111SOL     OW  331   0.433   0.754   6.568
  111SOL    HW1  332   0.501   0.804   6.522
  111SOL    HW2  333   0.476   0.672   6.592
  112SOL     OW  334   1.618   0.781   6.641
  112SOL    HW1  335   1.532   0.822   6.634
  112SOL    HW2  336   1.672   0.829   6.579
  113SOL     OW  337   1.043   0.113   6.742
  113SOL    HW1  338   1.054   0.191   6.687
  113SOL    HW2  339   1.073   0.040   6.687
  114SOL     OW  340   0.532   0.056   6.711
  114SOL    HW1  341   0.490   0.006   6.641
  114SOL    HW2  342   0.466   0.120   6.738
  115SOL     OW  343   0.606   0.874   6.001
  115SOL    HW1  344   0.643   0.962   5.994
  115SOL    HW2  345   0.546   0.879   6.075
  116SOL     OW  346   1.392   0.867   6.015
  116SOL    HW1  347   1.319   0.863   5.953
  116SOL    HW2  348   1.424   0.777   6.021
  117SOL     OW  349   1.243   0.531   5.246
  117SOL    HW1  350   1.249   0.452   5.299
  117SOL    HW2  351   1.210   0.598   5.305
  118SOL     OW  352   0.340   0.217   6.205
  118SOL    HW1  353   0.312   0.249   6.291
  118SOL    HW2  354   0.308   0.127   6.202
  119SOL     OW  355   0.076   1.312   6.250
  119SOL    HW1  356   0.122   1.270   6.323
  119SOL    HW2  357   0.090   1.406   6.263
  120SOL     OW  358   0.764   0.640   6.036
  120SOL    HW1  359   0.820   0.617   5.962
  120SOL    HW2  360   0.737   0.730   6.019
  121SOL     OW  361   1.762   0.945   6.825
  121SOL    HW1  362   1.712   0.932   6.744
  121SOL    HW2  363   1.697   0.980   6.886
  122SOL     OW  364   0.341   0.073   5.589
  122SOL    HW1  365   0.325   0.161   5.625
  122SOL    HW2  366   0.336   0.015   5.664
  123SOL     OW  367   1.648   0.371   5.342
  123SOL    HW1  368   1.657   0.304   5.409
  123SOL    HW2  369   1.609   0.446   5.388
  124SOL     OW  370   1.054   0.771   5.937
  124SOL    HW1  371   1.067   0.787   6.030
  124SOL    HW2  372   1.026   0.679   5.932
  125SOL     OW  373   1.013   1.577   6.673
  125SOL    HW1  374   0.993   1.616   6.589
  125SOL    HW2  375   1.049   1.491   6.652
  126SOL     OW  376   1.890   1.522   6.577
  126SOL    HW1  377   1.906   1.549   6.486
  126SOL    HW2  378   1.970   1.545   6.623
  127SOL     OW  379   0.380   0.908   6.776
  127SOL    HW1  380   0.458   0.943   6.819
  127SOL    HW2  381   0.414   0.859   6.701
  128SOL     OW  382   1.571   0.280   5.096
  128SOL    HW1  383   1.512   0.209   5.121
  128SOL    HW2  384   1.591   0.324   5.178
  129SOL     OW  385   1.332   0.841   5.011
  129SOL    HW1  386   1.368   0.753   5.022
  129SOL    HW2  387   1.355   0.865   4.922
  130SOL     OW  388   1.098   1.338   5.820
  130SOL    HW1  389   1.107   1.261   5.765
  130SOL    HW2  390   1.160   1.401   5.784
  131SOL     OW  391   0.353   0.813   5.916
  131SOL    HW1  392   0.443   0.845   5.926
  131SOL    HW2  393   0.349   0.733   5.969
  132SOL     OW  394   0.370   0.516   5.978
  132SOL    HW1  395   0.324   0.434   5.958
  132SOL    HW2  396   0.442   0.518   5.915
  133SOL     OW  397   1.168   0.386   6.648
  133SOL    HW1  398   1.128   0.446   6.711
  133SOL    HW2  399   1.257   0.418   6.637
  134SOL     OW  400   1.187   0.213   6.447
  134SOL    HW1  401   1.191   0.276   6.519
  134SOL    HW2  402   1.219   0.261   6.371
  135SOL     OW  403   0.039   1.320   5.127
  135SOL    HW1  404  -0.051   1.348   5.142
  135SOL    HW2  405   0.049   1.242   5.183
  136SOL     OW  406   0.123   1.811   5.891
  136SOL    HW1  407   0.084   1.727   5.866
  136SOL    HW2  408   0.213   1.805   5.861
  137SOL     OW  409   0.534   1.575   5.877
  137SOL    HW1  410   0.602   1.641   5.891
  137SOL    HW2  411   0.580   1.500   5.840
  138SOL     OW  412   1.032   0.801   6.207
  138SOL    HW1  413   1.069   0.770   6.290
  138SOL    HW2  414   0.941   0.773   6.210
  139SOL     OW  415   0.071   0.551   6.083
  139SOL    HW1  416   0.155   0.518   6.050
  139SOL    HW2  417   0.085   0.561   6.177
  140SOL     OW  418   0.215   0.522   6.692
  140SOL    HW1  419   0.276   0.490   6.626
  140SOL    HW2  420   0.168   0.593   6.649
  141SOL     OW  421   1.403   0.952   6.631
  141SOL    HW1  422   1.435   1.041   6.645
  141SOL    HW2  423   1.409   0.938   6.537
  142SOL     OW  424   0.846   0.576   5.301
  142SOL    HW1  425   0.849   0.493   5.252
  142SOL    HW2  426   0.758   0.609   5.287
  143SOL     OW  427   1.683   0.608   6.173
  143SOL    HW1  428   1.656   0.542   6.236
  143SOL    HW2  429   1.765   0.575   6.137
  144SOL     OW  430   0.289   1.568   6.715
  144SOL    HW1  431   0.252   1.621   6.786
  144SOL    HW2  432   0.273   1.477   6.742
  145SOL     OW  433   0.706   0.468   6.240
  145SOL    HW1  434   0.670   0.386   6.207
  145SOL    HW2  435   0.724   0.519   6.162
  146SOL     OW  436   0.962   1.682   6.436
  146SOL    HW1  437   0.938   1.668   6.344
  146SOL    HW2  438   0.986   1.774   6.441
  147SOL     OW  439   0.504   0.504   5.161
  147SOL    HW1  440   0.559   0.582   5.169
  147SOL    HW2  441   0.415   0.537   5.168
  148SOL     OW  442   0.190   1.144   6.437
  148SOL    HW1  443   0.208   1.083   6.508
  148SOL    HW2  444   0.200   1.091   6.357
  149SOL     OW  445   1.377   1.061   6.204
  149SOL    HW1  446   1.397   1.003   6.131
  149SOL    HW2  447   1.292   1.100   6.182
  150SOL     OW  448   1.334   0.858   5.281
  150SOL    HW1  449   1.250   0.830   5.318
  150SOL    HW2  450   1.324   0.847   5.187
  151SOL     OW  451   1.789   1.754   6.124
  151SOL    HW1  452   1.849   1.777   6.053
  151SOL    HW2  453   1.759   1.666   6.101
  152SOL     OW  454   1.281   1.736   6.098
  152SOL    HW1  455   1.362   1.739   6.047
  152SOL    HW2  456   1.265   1.643   6.114
  153SOL     OW  457   0.116   1.262   5.992
  153SOL    HW1  458   0.107   1.264   6.087
  153SOL    HW2  459   0.033   1.225   5.961
  154SOL     OW  460   0.717   1.666   6.687
  154SOL    HW1  461   0.666   1.747   6.692
  154SOL    HW2  462   0.767   1.674   6.606
  155SOL     OW  463   0.951   0.103   5.085
  155SOL    HW1  464   1.005   0.084   5.009
  155SOL    HW2  465   0.990   0.052   5.156
  156SOL     OW  466   1.751   0.141   5.487
  156SOL    HW1  467   1.829   0.124   5.434
  156SOL    HW2  468   1.734   0.058   5.532
  157SOL     OW  469   1.419   1.577   5.448
  157SOL    HW1  470   1.482   1.594   5.378
  157SOL    HW2  471   1.382   1.662   5.469
  158SOL     OW  472   0.161   1.803   6.820
  158SOL    HW1  473   0.123   1.731   6.871
  158SOL    HW2  474   0.222   1.845   6.881
  159SOL     OW  475   1.309   0.930   5.642
  159SOL    HW1  476   1.373   0.858   5.643
  159SOL    HW2  477   1.349   0.997   5.587
  160SOL     OW  478   0.859   1.275   6.396
  160SOL    HW1  479   0.850   1.312   6.484
  160SOL    HW2  480   0.777   1.298   6.352
  161SOL     OW  481   0.704   1.620   5.126
  161SOL    HW1  482   0.709   1.627   5.031
  161SOL    HW2  483   0.662   1.535   5.142
  162SOL     OW  484   1.681   1.726   6.365
  162SOL    HW1  485   1.729   1.739   6.283
  162SOL    HW2  486   1.657   1.814   6.394
  163SOL     OW  487   1.868   0.189   5.932
  163SOL    HW1  488   1.905   0.107   5.899
  163SOL    HW2  489   1.775   0.184   5.908
  164SOL     OW  490   0.299   0.333   5.692
  164SOL    HW1  491   0.218   0.374   5.661
  164SOL    HW2  492   0.283   0.317   5.785
  165SOL     OW  493   1.224   1.618   5.004
  165SOL    HW1  494   1.231   1.527   5.034
  165SOL    HW2  495   1.170   1.613   4.925
  166SOL     OW  496   0.854   1.007   6.343
  166SOL    HW1  497   0.892   1.010   6.256
  166SOL    HW2  498   0.863   1.097   6.376
  167SOL     OW  499   0.948   0.916   5.263
  167SOL    HW1  500   1.009   0.948   5.197
  167SOL    HW2  501   0.988   0.837   5.298
  168SOL     OW  502   1.536   1.616   5.017
  168SOL    HW1  503   1.445   1.646   5.016
  168SOL    HW2  504   1.568   1.633   4.928
  169SOL     OW  505   0.403   1.294   6.460
  169SOL    HW1  506   0.387   1.381   6.425
  169SOL    HW2  507   0.321   1.247   6.446
  170SOL     OW  508   1.644   1.295   6.259
  170SOL    HW1  509   1.701   1.301   6.336
  170SOL    HW2  510   1.576   1.360   6.275
  171SOL     OW  511   1.070   1.104   5.668
  171SOL    HW1  512   1.004   1.055   5.717
  171SOL    HW2  513   1.126   1.037   5.628
  172SOL     OW  514   1.046   0.242   5.941
  172SOL    HW1  515   1.037   0.203   5.854
  172SOL    HW2  516   1.042   0.169   6.002
  173SOL     OW  517   0.625   1.494   5.461
  173SOL    HW1  518   0.659   1.439   5.391
  173SOL    HW2  519   0.578   1.564   5.416
  174SOL     OW  520   1.741   0.389   6.353
  174SOL    HW1  521   1.811   0.455   6.352
  174SOL    HW2  522   1.772   0.321   6.293
  175SOL     OW  523   0.288   1.355   5.259
  175SOL    HW1  524   0.195   1.353   5.237
  175SOL    HW2  525   0.292   1.401   5.343
  176SOL     OW  526   0.137   1.018   6.696
  176SOL    HW1  527   0.066   0.985   6.751
  176SOL    HW2  528   0.217   0.986   6.740
  177SOL     OW  529   0.702   0.210   6.460
  177SOL    HW1  530   0.789   0.191   6.424
  177SOL    HW2  531   0.715   0.213   6.555
  178SOL     OW  532   0.106   0.350   5.005
  178SOL    HW1  533   0.018   0.326   4.974
  178SOL    HW2  534   0.132   0.423   4.948
  179SOL     OW  535   1.470   0.862   6.371
  179SOL    HW1  536   1.419   0.913   6.308
  179SOL    HW2  537   1.561   0.873   6.343
  180SOL     OW  538   0.129   0.207   5.313
  180SOL    HW1  539   0.088   0.251   5.238
  180SOL    HW2  540   0.182   0.138   5.275
  181SOL     OW  541   1.213   1.346   5.089
  181SOL    HW1  542   1.120   1.327   5.096
  181SOL    HW2  543   1.244   1.350   5.180
  182SOL     OW  544   0.644   0.846   6.402
  182SOL    HW1  545   0.700   0.922   6.386
  182SOL    HW2  546   0.704   0.772   6.405
  183SOL     OW  547   1.522   1.773   5.931
  183SOL    HW1  548   1.558   1.833   5.866
  183SOL    HW2  549   1.590   1.768   5.999
  184SOL     OW  550   0.746   0.570   6.680
  184SOL    HW1  551   0.769   0.630   6.750
  184SOL    HW2  552   0.804   0.495   6.692
  185SOL     OW  553   1.482   1.222   6.604
  185SOL    HW1  554   1.477   1.218   6.699
  185SOL    HW2  555   1.576   1.219   6.585
  186SOL     OW  556   0.420   1.746   6.531
  186SOL    HW1  557   0.331   1.782   6.529
  186SOL    HW2  558   0.409   1.657   6.563
  187SOL     OW  559   1.706   0.888   6.226
  187SOL    HW1  560   1.682   0.804   6.187
  187SOL    HW2  561   1.704   0.951   6.153
  188SOL     OW  562   1.256   0.330   5.420
  188SOL    HW1  563   1.320   0.258   5.414
  188SOL    HW2  564   1.277   0.375   5.502
  189SOL     OW  565   0.625   0.750   5.625
  189SOL    HW1  566   0.669   0.832   5.604
  189SOL    HW2  567   0.544   0.753   5.575
  190SOL     OW  568   1.808   0.349   6.613
  190SOL    HW1  569   1.787   0.375   6.524
  190SOL    HW2  570   1.727   0.311   6.647
  191SOL     OW  571   1.762   0.939   6.487
  191SOL    HW1  572   1.796   1.028   6.498
  191SOL    HW2  573   1.755   0.927   6.393
  192SOL     OW  574   0.891   1.378   4.987
  192SOL    HW1  575   0.848   1.395   5.071
  192SOL    HW2  576   0.930   1.463   4.963
  193SOL     OW  577   0.691   1.795   5.924
  193SOL    HW1  578   0.653   1.882   5.909
  193SOL    HW2  579   0.785   1.808   5.916
  194SOL     OW  580   0.891   0.962   5.831
  194SOL    HW1  581   0.942   0.897   5.879
  194SOL    HW2  582   0.862   1.024   5.898
  195SOL     OW  583   1.112   0.989   5.058
  195SOL    HW1  584   1.095   1.039   4.978
  195SOL    HW2  585   1.191   0.938   5.038
  196SOL     OW  586   1.892   1.573   5.821
  196SOL    HW1  587   1.822   1.559   5.757
  196SOL    HW2  588   1.889   1.497   5.878
  197SOL     OW  589   0.255   1.316   6.816
  197SOL    HW1  590   0.188   1.250   6.798
  197SOL    HW2  591   0.250   1.330   6.911
  198SOL     OW  592   0.113   1.247   5.628
  198SOL    HW1  593   0.114   1.197   5.709
  198SOL    HW2  594   0.187   1.214   5.578
  199SOL     OW  595   0.705   1.397   6.594
  199SOL    HW1  596   0.628   1.353   6.630
  199SOL    HW2  597   0.698   1.486   6.627
  200SOL     OW  598   1.858   0.198   6.201
  200SOL    HW1  599   1.849   0.109   6.235
  200SOL    HW2  600   1.858   0.187   6.105
  201SOL     OW  601   0.460   0.431   5.491
  201SOL    HW1  602   0.486   0.359   5.435
  201SOL    HW2  603   0.421   0.389   5.568
  202SOL     OW  604   1.735   1.495   6.076
  202SOL    HW1  605   1.648   1.466   6.050
  202SOL    HW2  606   1.757   1.441   6.152
  203SOL     OW  607   0.349   0.552   6.253
  203SOL    HW1  608   0.391   0.494   6.317
  203SOL    HW2  609   0.387   0.526   6.169
  204SOL     OW  610   0.845   1.589   5.659
  204SOL    HW1  611   0.869   1.601   5.567
  204SOL    HW2  612   0.768   1.532   5.656
  205SOL     OW  613   1.456   0.220   6.083
  205SOL    HW1  614   1.503   0.157   6.138
  205SOL    HW2  615   1.409   0.276   6.145
  206SOL     OW  616   1.031   0.038   6.123
  206SOL    HW1  617   0.976  -0.035   6.095
  206SOL    HW2  618   1.120   0.002   6.124
  207SOL     OW  619   0.801   1.336   5.273
  207SOL    HW1  620   0.760   1.251   5.289
  207SOL    HW2  621   0.887   1.329   5.314
  208SOL     OW  622   0.648   1.572   6.254
  208SOL    HW1  623   0.649   1.650   6.309
  208SOL    HW2  624   0.735   1.570   6.214
  209SOL     OW  625   1.384   0.057   5.139
  209SOL    HW1  626   1.414   0.015   5.059
  209SOL    HW2  627   1.297   0.018   5.154
  210SOL     OW  628   1.332   0.459   5.661
  210SOL    HW1  629   1.274   0.535   5.669
  210SOL    HW2  630   1.341   0.426   5.751
  211SOL     OW  631   1.623   0.224   5.853
  211SOL    HW1  632   1.542   0.228   5.904
  211SOL    HW2  633   1.623   0.304   5.800
  212SOL     OW  634   0.071   1.080   5.266
  212SOL    HW1  635   0.165   1.067   5.265
  212SOL    HW2  636   0.036   0.999   5.303
  213SOL     OW  637   0.906   1.649   5.311
  213SOL    HW1  638   0.832   1.623   5.257
  213SOL    HW2  639   0.873   1.721   5.365
  214SOL     OW  640   0.261   0.636   6.946
  214SOL    HW1  641   0.172   0.627   6.980
  214SOL    HW2  642   0.259   0.594   6.860
  215SOL     OW  643   0.253   0.282   7.826
  215SOL    HW1  644   0.287   0.261   7.914
  215SOL    HW2  645   0.171   0.233   7.820
  216SOL     OW  646   0.048   0.379   7.476
  216SOL    HW1  647  -0.033   0.410   7.516
  216SOL    HW2  648   0.021   0.303   7.424
  217SOL     OW  649   0.600   1.279   7.998
  217SOL    HW1  650   0.511   1.277   7.964
  217SOL    HW2  651   0.608   1.366   8.039
  218SOL     OW  652   1.586   1.517   7.536
  218SOL    HW1  653   1.530   1.502   7.612
  218SOL    HW2  654   1.524   1.525   7.463
  219SOL     OW  655   1.165   0.708   7.548
  219SOL    HW1  656   1.218   0.785   7.529
  219SOL    HW2  657   1.111   0.734   7.623
  220SOL     OW  658   1.786   0.614   7.065
  220SOL    HW1  659   1.774   0.598   6.972
  220SOL    HW2  660   1.758   0.533   7.107
  221SOL     OW  661   0.799   1.149   7.858
  221SOL    HW1  662   0.724   1.171   7.914
  221SOL    HW2  663   0.828   1.233   7.823
  222SOL     OW  664   0.882   0.802   8.655
  222SOL    HW1  665   0.878   0.876   8.715
  222SOL    HW2  666   0.903   0.841   8.571
  223SOL     OW  667   0.717   1.019   7.495
  223SOL    HW1  668   0.779   1.002   7.566
  223SOL    HW2  669   0.647   1.070   7.537
  224SOL     OW  670   0.720   1.165   8.636
  224SOL    HW1  671   0.773   1.243   8.649
  224SOL    HW2  672   0.638   1.197   8.598
  225SOL     OW  673   0.364   1.441   7.897
  225SOL    HW1  674   0.293   1.410   7.841
  225SOL    HW2  675   0.419   1.493   7.838
  226SOL     OW  676   1.491   1.509   8.172
  226SOL    HW1  677   1.515   1.598   8.199
  226SOL    HW2  678   1.474   1.463   8.255
  227SOL     OW  679   0.470   0.399   8.329
  227SOL    HW1  680   0.546   0.341   8.340
  227SOL    HW2  681   0.395   0.340   8.339
  228SOL     OW  682   1.635   0.453   7.570
  228SOL    HW1  683   1.565   0.498   7.523
  228SOL    HW2  684   1.680   0.521   7.619
  229SOL     OW  685   0.265   1.714   7.315
  229SOL    HW1  686   0.294   1.791   7.363
  229SOL    HW2  687   0.308   1.721   7.230
  230SOL     OW  688   1.160   1.346   8.522
  230SOL    HW1  689   1.202   1.343   8.608
  230SOL    HW2  690   1.112   1.263   8.516
  231SOL     OW  691   0.262   1.440   7.371
  231SOL    HW1  692   0.234   1.532   7.374
  231SOL    HW2  693   0.192   1.392   7.415
  232SOL     OW  694   0.270   1.095   7.719
  232SOL    HW1  695   0.281   1.016   7.771
  232SOL    HW2  696   0.220   1.154   7.774
  233SOL     OW  697   0.651   1.792   8.271
  233SOL    HW1  698   0.564   1.778   8.308
  233SOL    HW2  699   0.675   1.880   8.297
  234SOL     OW  700   0.633   0.971   6.958
  234SOL    HW1  701   0.649   1.049   6.905
  234SOL    HW2  702   0.681   0.987   7.039
  235SOL     OW  703   1.623   0.131   8.327
  235SOL    HW1  704   1.607   0.195   8.257
  235SOL    HW2  705   1.617   0.182   8.408
  236SOL     OW  706   0.154   0.647   7.396
  236SOL    HW1  707   0.110   0.565   7.415
  236SOL    HW2  708   0.148   0.697   7.478
  237SOL     OW  709   1.874   1.771   7.188
  237SOL    HW1  710   1.925   1.747   7.265
  237SOL    HW2  711   1.904   1.859   7.166
  238SOL     OW  712   0.057   1.601   6.951
  238SOL    HW1  713   0.041   1.510   6.974
  238SOL    HW2  714   0.026   1.651   7.027
  239SOL     OW  715   1.720   0.927   7.450
  239SOL    HW1  716   1.812   0.899   7.450
  239SOL    HW2  717   1.713   0.985   7.374
  240SOL     OW  718   1.673   1.112   7.265
  240SOL    HW1  719   1.756   1.119   7.218
  240SOL    HW2  720   1.687   1.162   7.345
  241SOL     OW  721   0.144   0.742   8.430
  241SOL    HW1  722   0.231   0.737   8.470
  241SOL    HW2  723   0.133   0.835   8.410
  242SOL     OW  724   0.644   1.373   7.561
  242SOL    HW1  725   0.596   1.290   7.566
  242SOL    HW2  726   0.620   1.408   7.475
  243SOL     OW  727   1.324   1.236   8.257
  243SOL    HW1  728   1.360   1.166   8.203
  243SOL    HW2  729   1.375   1.234   8.337
  244SOL     OW  730   0.841   0.010   7.366
  244SOL    HW1  731   0.877   0.094   7.335
  244SOL    HW2  732   0.748   0.016   7.346
  245SOL     OW  733   0.229   0.980   8.104
  245SOL    HW1  734   0.311   0.935   8.082
  245SOL    HW2  735   0.161   0.921   8.072
  246SOL     OW  736   1.560   1.001   7.023
  246SOL    HW1  737   1.496   0.932   7.041
  246SOL    HW2  738   1.599   1.020   7.108
  247SOL     OW  739   1.216   1.799   8.449
  247SOL    HW1  740   1.242   1.853   8.374
  247SOL    HW2  741   1.227   1.709   8.418
  248SOL     OW  742   0.348   0.274   8.591
  248SOL    HW1  743   0.420   0.319   8.635
  248SOL    HW2  744   0.276   0.278   8.654
  249SOL     OW  745   1.496   1.423   7.786
  249SOL    HW1  746   1.437   1.427   7.861
  249SOL    HW2  747   1.481   1.337   7.748
  250SOL     OW  748   1.697   1.721   7.406
  250SOL    HW1  749   1.659   1.695   7.322
  250SOL    HW2  750   1.678   1.648   7.465
  251SOL     OW  751   0.627   0.732   7.101
  251SOL    HW1  752   0.648   0.803   7.040
  251SOL    HW2  753   0.556   0.768   7.154
  252SOL     OW  754   1.313   0.350   7.773
  252SOL    HW1  755   1.230   0.302   7.767
  252SOL    HW2  756   1.367   0.297   7.831
  253SOL     OW  757   1.608   1.668   7.140
  253SOL    HW1  758   1.693   1.710   7.139
  253SOL    HW2  759   1.590   1.646   7.049
  254SOL     OW  760   0.836   0.612   8.295
  254SOL    HW1  761   0.793   0.604   8.380
  254SOL    HW2  762   0.785   0.556   8.237
  255SOL     OW  763   1.424   0.474   8.507
  255SOL    HW1  764   1.411   0.515   8.593
  255SOL    HW2  765   1.499   0.416   8.520
  256SOL     OW  766   1.001   0.896   8.407
  256SOL    HW1  767   1.047   0.818   8.376
  256SOL    HW2  768   0.951   0.926   8.332
  257SOL     OW  769   1.023   0.415   8.075
  257SOL    HW1  770   0.946   0.446   8.123
  257SOL    HW2  771   0.987   0.368   8.000
  258SOL     OW  772   1.074   0.705   7.262
  258SOL    HW1  773   1.093   0.700   7.355
  258SOL    HW2  774   0.992   0.658   7.250
  259SOL     OW  775   0.112   0.820   7.613
  259SOL    HW1  776   0.204   0.809   7.636
  259SOL    HW2  777   0.091   0.909   7.643
  260SOL     OW  778   0.163   1.831   8.405
  260SOL    HW1  779   0.148   1.811   8.498
  260SOL    HW2  780   0.077   1.858   8.373
  261SOL     OW  781   0.897   0.353   7.028
  261SOL    HW1  782   0.955   0.410   6.978
  261SOL    HW2  783   0.917   0.264   6.998
  262SOL     OW  784   1.748   0.589   8.664
  262SOL    HW1  785   1.724   0.673   8.626
  262SOL    HW2  786   1.749   0.528   8.590
  263SOL     OW  787   1.395   1.150   7.378
  263SOL    HW1  788   1.473   1.125   7.328
  263SOL    HW2  789   1.349   1.212   7.322
  264SOL     OW  790   0.581   0.201   7.717
  264SOL    HW1  791   0.577   0.202   7.813
  264SOL    HW2  792   0.583   0.293   7.692
  265SOL     OW  793   1.039   1.459   7.309
  265SOL    HW1  794   0.996   1.530   7.263
  265SOL    HW2  795   1.034   1.483   7.402
  266SOL     OW  796   0.382   1.806   7.685
  266SOL    HW1  797   0.433   1.726   7.693
  266SOL    HW2  798   0.447   1.876   7.685
  267SOL     OW  799   1.827   1.072   7.704
  267SOL    HW1  800   1.764   1.056   7.634
  267SOL    HW2  801   1.774   1.079   7.784
  268SOL     OW  802   1.259   1.555   8.339
  268SOL    HW1  803   1.260   1.479   8.398
  268SOL    HW2  804   1.206   1.526   8.265
  269SOL     OW  805   0.351   0.950   7.074
  269SOL    HW1  806   0.431   0.981   7.033
  269SOL    HW2  807   0.329   0.870   7.027
  270SOL     OW  808   1.491   0.739   7.560
  270SOL    HW1  809   1.487   0.681   7.636
  270SOL    HW2  810   1.567   0.795   7.577
  271SOL     OW  811   0.493   1.268   8.564
  271SOL    HW1  812   0.446   1.273   8.480
  271SOL    HW2  813   0.425   1.256   8.629
  272SOL     OW  814   1.146   1.781   7.070
  272SOL    HW1  815   1.084   1.723   7.114
  272SOL    HW2  816   1.168   1.735   6.989
  273SOL     OW  817   0.230   0.285   8.327
  273SOL    HW1  818   0.156   0.346   8.322
  273SOL    HW2  819   0.221   0.246   8.414
  274SOL     OW  820   1.664   1.382   6.916
  274SOL    HW1  821   1.628   1.470   6.904
  274SOL    HW2  822   1.590   1.323   6.902
  275SOL     OW  823   0.495   1.747   7.156
  275SOL    HW1  824   0.530   1.788   7.235
  275SOL    HW2  825   0.571   1.741   7.097
  276SOL     OW  826   1.431   0.115   7.258
  276SOL    HW1  827   1.413   0.079   7.171
  276SOL    HW2  828   1.526   0.126   7.260
  277SOL     OW  829   0.284   1.793   8.073
  277SOL    HW1  830   0.334   1.726   8.120
  277SOL    HW2  831   0.268   1.755   7.986
  278SOL     OW  832   0.971   1.703   7.738
  278SOL    HW1  833   1.046   1.646   7.754
  278SOL    HW2  834   0.925   1.662   7.664
  279SOL     OW  835   0.414   0.705   7.313
  279SOL    HW1  836   0.452   0.617   7.312
  279SOL    HW2  837   0.324   0.691   7.342
  280SOL     OW  838   1.576   0.230   8.561
  280SOL    HW1  839   1.572   0.258   8.652
  280SOL    HW2  840   1.508   0.163   8.553
  281SOL     OW  841   0.640   0.137   6.941
  281SOL    HW1  842   0.728   0.104   6.958
  281SOL    HW2  843   0.618   0.105   6.854
  282SOL     OW  844   0.810   0.268   8.581
  282SOL    HW1  845   0.874   0.212   8.624
  282SOL    HW2  846   0.744   0.286   8.649
  283SOL     OW  847   0.918   1.521   8.027
  283SOL    HW1  848   0.898   1.491   7.939
  283SOL    HW2  849   0.976   1.453   8.063
  284SOL     OW  850   1.379   0.595   8.266
  284SOL    HW1  851   1.410   0.558   8.349
  284SOL    HW2  852   1.408   0.686   8.268
  285SOL     OW  853   0.835   1.409   7.759
  285SOL    HW1  854   0.919   1.417   7.714
  285SOL    HW2  855   0.770   1.406   7.688
  286SOL     OW  856   0.954   0.510   7.733
  286SOL    HW1  857   0.930   0.497   7.641
  286SOL    HW2  858   0.997   0.428   7.759
  287SOL     OW  859   0.575   0.069   7.344
  287SOL    HW1  860   0.495   0.070   7.397
  287SOL    HW2  861   0.570   0.149   7.291
  288SOL     OW  862   1.463   1.194   6.872
  288SOL    HW1  863   1.493   1.123   6.928
  288SOL    HW2  864   1.376   1.217   6.906
  289SOL     OW  865   0.334   0.037   7.022
  289SOL    HW1  866   0.379   0.115   6.988
  289SOL    HW2  867   0.404  -0.022   7.050
  290SOL     OW  868   0.966   0.241   7.311
  290SOL    HW1  869   0.925   0.282   7.235
  290SOL    HW2  870   1.060   0.244   7.292
  291SOL     OW  871   1.108   0.686   8.297
  291SOL    HW1  872   1.034   0.626   8.299
  291SOL    HW2  873   1.183   0.632   8.275
  292SOL     OW  874   1.257   1.575   7.626
  292SOL    HW1  875   1.280   1.645   7.566
  292SOL    HW2  876   1.325   1.578   7.694
  293SOL     OW  877   0.492   1.154   7.575
  293SOL    HW1  878   0.419   1.131   7.633
  293SOL    HW2  879   0.461   1.130   7.487
  294SOL     OW  880   1.303   1.802   7.426
  294SOL    HW1  881   1.342   1.866   7.366
  294SOL    HW2  882   1.253   1.855   7.488
  295SOL     OW  883   1.064   0.554   6.847
  295SOL    HW1  884   1.024   0.635   6.816
  295SOL    HW2  885   1.122   0.581   6.919
  296SOL     OW  886   0.109   0.560   8.223
  296SOL    HW1  887   0.196   0.563   8.182
  296SOL    HW2  888   0.108   0.634   8.283
  297SOL     OW  889   0.595   0.229   7.984
  297SOL    HW1  890   0.626   0.146   8.020
  297SOL    HW2  891   0.508   0.241   8.022
  298SOL     OW  892   0.900   0.461   7.475
  298SOL    HW1  893   0.865   0.524   7.413
  298SOL    HW2  894   0.918   0.383   7.422
  299SOL     OW  895   1.028   0.067   7.602
  299SOL    HW1  896   0.984   0.051   7.518
  299SOL    HW2  897   1.033  -0.020   7.643
  300SOL     OW  898   1.462   1.175   7.699
  300SOL    HW1  899   1.406   1.098   7.690
  300SOL    HW2  900   1.483   1.201   7.609
  301SOL     OW  901   1.499   0.596   7.824
  301SOL    HW1  902   1.469   0.506   7.833
  301SOL    HW2  903   1.567   0.606   7.890
  302SOL     OW  904   1.884   0.836   7.212
  302SOL    HW1  905   1.929   0.773   7.268
  302SOL    HW2  906   1.854   0.784   7.137
  303SOL     OW  907   0.521   1.393   7.006
  303SOL    HW1  908   0.437   1.376   7.049
  303SOL    HW2  909   0.498   1.414   6.916
  304SOL     OW  910   1.695   1.281   7.492
  304SOL    HW1  911   1.790   1.294   7.503
  304SOL    HW2  912   1.657   1.365   7.517
  305SOL     OW  913   1.421   0.579   6.909
  305SOL    HW1  914   1.371   0.559   6.988
  305SOL    HW2  915   1.507   0.541   6.924
  306SOL     OW  916   0.557   0.263   7.162
  306SOL    HW1  917   0.586   0.208   7.089
  306SOL    HW2  918   0.558   0.352   7.126
  307SOL     OW  919   1.785   1.229   8.419
  307SOL    HW1  920   1.873   1.195   8.410
  307SOL    HW2  921   1.796   1.320   8.444
  308SOL     OW  922   1.097   1.356   8.172
  308SOL    HW1  923   1.021   1.329   8.224
  308SOL    HW2  924   1.173   1.322   8.221
  309SOL     OW  925   1.623   1.634   8.463
  309SOL    HW1  926   1.648   1.664   8.376
  309SOL    HW2  927   1.704   1.596   8.499
  310SOL     OW  928   1.143   1.200   7.935
  310SOL    HW1  929   1.100   1.244   8.008
  310SOL    HW2  930   1.103   1.237   7.857
  311SOL     OW  931   1.669   1.105   7.911
  311SOL    HW1  932   1.669   1.180   7.970
  311SOL    HW2  933   1.585   1.110   7.866
  312SOL     OW  934   0.945   0.096   8.235
  312SOL    HW1  935   0.973   0.078   8.145
  312SOL    HW2  936   1.018   0.145   8.273
  313SOL     OW  937   1.012   1.120   8.552
  313SOL    HW1  938   0.917   1.125   8.561
  313SOL    HW2  939   1.028   1.043   8.497
  314SOL     OW  940   0.736   1.058   7.202
  314SOL    HW1  941   0.725   1.058   7.297
  314SOL    HW2  942   0.815   1.006   7.187
  315SOL     OW  943   0.443   0.817   8.082
  315SOL    HW1  944   0.521   0.827   8.136
  315SOL    HW2  945   0.404   0.734   8.111
  316SOL     OW  946   1.305   0.389   8.096
  316SOL    HW1  947   1.324   0.464   8.154
  316SOL    HW2  948   1.220   0.410   8.057
  317SOL     OW  949   0.108   1.569   8.133
  317SOL    HW1  950   0.058   1.650   8.135
  317SOL    HW2  951   0.191   1.591   8.175
  318SOL     OW  952   0.397   1.105   7.333
  318SOL    HW1  953   0.391   1.182   7.276
  318SOL    HW2  954   0.401   1.031   7.273
  319SOL     OW  955   0.595   0.542   7.698
  319SOL    HW1  956   0.610   0.606   7.628
  319SOL    HW2  957   0.643   0.577   7.774
  320SOL     OW  958   1.282   1.353   7.221
  320SOL    HW1  959   1.328   1.427   7.260
  320SOL    HW2  960   1.193   1.360   7.254
  321SOL     OW  961   1.302   1.452   7.975
  321SOL    HW1  962   1.348   1.459   8.059
  321SOL    HW2  963   1.242   1.378   7.987
  322SOL     OW  964   1.613   0.642   7.305
  322SOL    HW1  965   1.584   0.705   7.372
  322SOL    HW2  966   1.660   0.696   7.242
  323SOL     OW  967   0.384   1.518   8.161
  323SOL    HW1  968   0.369   1.474   8.077
  323SOL    HW2  969   0.478   1.537   8.161
  324SOL     OW  970   0.433   0.754   8.430
  324SOL    HW1  971   0.501   0.804   8.384
  324SOL    HW2  972   0.476   0.672   8.454
  325SOL     OW  973   1.618   0.781   8.503
  325SOL    HW1  974   1.532   0.822   8.496
  325SOL    HW2  975   1.672   0.829   8.441
  326SOL     OW  976   1.043   0.113   8.604
  326SOL    HW1  977   1.054   0.191   8.549
  326SOL    HW2  978   1.073   0.040   8.549
  327SOL     OW  979   0.532   0.056   8.573
  327SOL    HW1  980   0.490   0.006   8.503
  327SOL    HW2  981   0.466   0.120   8.600
  328SOL     OW  982   0.606   0.874   7.863
  328SOL    HW1  983   0.643   0.962   7.856
  328SOL    HW2  984   0.546   0.879   7.937
  329SOL     OW  985   1.392   0.867   7.877
  329SOL    HW1  986   1.319   0.863   7.815
  329SOL    HW2  987   1.424   0.777   7.883
  330SOL     OW  988   1.243   0.531   7.108
  330SOL    HW1  989   1.249   0.452   7.162
  330SOL    HW2  990   1.210   0.598   7.167
  331SOL     OW  991   0.339   0.217   8.067
  331SOL    HW1  992   0.312   0.249   8.153
  331SOL    HW2  993   0.308   0.127   8.064
  332SOL     OW  994   0.076   1.312   8.112
  332SOL    HW1  995   0.122   1.270   8.185
  332SOL    HW2  996   0.090   1.406   8.125
  333SOL     OW  997   0.764   0.640   7.898
  333SOL    HW1  998   0.820   0.617   7.824
  333SOL    HW2  999   0.737   0.730   7.881
  334SOL     OW 1000   1.762   0.945   8.687
  334SOL    HW1 1001   1.712   0.932   8.606
  334SOL    HW2 1002   1.697   0.980   8.748
  335SOL     OW 1003   0.341   0.074   7.451
  335SOL    HW1 1004   0.325   0.161   7.488
  335SOL    HW2 1005   0.336   0.015   7.526
  336SOL     OW 1006   1.647   0.371   7.204
  336SOL    HW1 1007   1.658   0.304   7.271
  336SOL    HW2 1008   1.609   0.446   7.250
  337SOL     OW 1009   1.054   0.771   7.799
  337SOL    HW1 1010   1.067   0.787   7.892
  337SOL    HW2 1011   1.026   0.679   7.794
  338SOL     OW 1012   1.013   1.577   8.535
  338SOL    HW1 1013   0.993   1.616   8.451
  338SOL    HW2 1014   1.049   1.491   8.514
  339SOL     OW 1015   1.890   1.522   8.439
  339SOL    HW1 1016   1.906   1.549   8.348
  339SOL    HW2 1017   1.970   1.545   8.485
  340SOL     OW 1018   0.380   0.908   8.638
  340SOL    HW1 1019   0.458   0.943   8.681
  340SOL    HW2 1020   0.414   0.859   8.563
  341SOL     OW 1021   1.569   0.280   6.958
  341SOL    HW1 1022   1.511   0.209   6.985
  341SOL    HW2 1023   1.593   0.325   7.039
  342SOL     OW 1024   1.333   0.841   6.874
  342SOL    HW1 1025   1.369   0.753   6.883
  342SOL    HW2 1026   1.354   0.867   6.785
  343SOL     OW 1027   1.098   1.338   7.682
  343SOL    HW1 1028   1.107   1.261   7.627
  343SOL    HW2 1029   1.160   1.401   7.646
  344SOL     OW 1030   0.353   0.813   7.777
  344SOL    HW1 1031   0.443   0.845   7.788
  344SOL    HW2 1032   0.349   0.734   7.831
  345SOL     OW 1033   0.370   0.516   7.840
  345SOL    HW1 1034   0.324   0.434   7.820
  345SOL    HW2 1035   0.443   0.518   7.777
  346SOL     OW 1036   1.168   0.386   8.510
  346SOL    HW1 1037   1.128   0.446   8.573
  346SOL    HW2 1038   1.257   0.418   8.499
  347SOL     OW 1039   1.187   0.213   8.309
  347SOL    HW1 1040   1.191   0.276   8.381
  347SOL    HW2 1041   1.219   0.261   8.233
  348SOL     OW 1042   0.039   1.319   6.989
  348SOL    HW1 1043  -0.051   1.348   7.004
  348SOL    HW2 1044   0.048   1.242   7.046
  349SOL     OW 1045   0.123   1.811   7.753
  349SOL    HW1 1046   0.084   1.727   7.728
  349SOL    HW2 1047   0.214   1.805   7.723
  350SOL     OW 1048   0.534   1.575   7.739
  350SOL    HW1 1049   0.602   1.641   7.753
  350SOL    HW2 1050   0.580   1.500   7.702
  351SOL     OW 1051   1.032   0.801   8.069
  351SOL    HW1 1052   1.069   0.770   8.152
  351SOL    HW2 1053   0.941   0.773   8.072
  352SOL     OW 1054   0.071   0.551   7.945
  352SOL    HW1 1055   0.155   0.518   7.912
  352SOL    HW2 1056   0.085   0.561   8.039
  353SOL     OW 1057   0.215   0.522   8.554
  353SOL    HW1 1058   0.276   0.490   8.488
  353SOL    HW2 1059   0.168   0.593   8.511
  354SOL     OW 1060   1.403   0.952   8.493
  354SOL    HW1 1061   1.435   1.041   8.507
  354SOL    HW2 1062   1.409   0.938   8.399
  355SOL     OW 1063   0.846   0.576   7.163
  355SOL    HW1 1064   0.849   0.494   7.114
  355SOL    HW2 1065   0.758   0.610   7.148
  356SOL     OW 1066   1.683   0.608   8.035
  356SOL    HW1 1067   1.656   0.542   8.098
  356SOL    HW2 1068   1.765   0.575   7.999
  357SOL     OW 1069   0.289   1.568   8.577
  357SOL    HW1 1070   0.252   1.621   8.648
  357SOL    HW2 1071   0.273   1.477   8.604
  358SOL     OW 1072   0.705   0.468   8.102
  358SOL    HW1 1073   0.670   0.386   8.069
  358SOL    HW2 1074   0.724   0.519   8.024
  359SOL     OW 1075   0.962   1.682   8.298
  359SOL    HW1 1076   0.938   1.668   8.206
  359SOL    HW2 1077   0.986   1.774   8.303
  360SOL     OW 1078   0.505   0.505   7.024
  360SOL    HW1 1079   0.559   0.583   7.030
  360SOL    HW2 1080   0.415   0.538   7.029
  361SOL     OW 1081   0.190   1.144   8.299
  361SOL    HW1 1082   0.208   1.083   8.370
  361SOL    HW2 1083   0.200   1.091   8.219
  362SOL     OW 1084   1.377   1.061   8.066
  362SOL    HW1 1085   1.397   1.003   7.993
  362SOL    HW2 1086   1.292   1.100   8.044
  363SOL     OW 1087   1.334   0.858   7.143
  363SOL    HW1 1088   1.250   0.830   7.179
  363SOL    HW2 1089   1.324   0.847   7.049
  364SOL     OW 1090   1.789   1.754   7.986
  364SOL    HW1 1091   1.849   1.777   7.915
  364SOL    HW2 1092   1.759   1.666   7.963
  365SOL     OW 1093   1.281   1.736   7.960
  365SOL    HW1 1094   1.362   1.739   7.909
  365SOL    HW2 1095   1.265   1.643   7.976
  366SOL     OW 1096   0.116   1.262   7.854
  366SOL    HW1 1097   0.107   1.264   7.949
  366SOL    HW2 1098   0.033   1.225   7.823
  367SOL     OW 1099   0.717   1.666   8.549
  367SOL    HW1 1100   0.666   1.747   8.554
  367SOL    HW2 1101   0.767   1.674   8.468
  368SOL     OW 1102   1.751   0.140   7.349
  368SOL    HW1 1103   1.829   0.124   7.296
  368SOL    HW2 1104   1.734   0.058   7.394
  369SOL     OW 1105   1.420   1.577   7.311
  369SOL    HW1 1106   1.482   1.594   7.240
  369SOL    HW2 1107   1.381   1.662   7.331
  370SOL     OW 1108   0.161   1.803   8.682
  370SOL    HW1 1109   0.123   1.731   8.733
  370SOL    HW2 1110   0.222   1.845   8.743
  371SOL     OW 1111   1.309   0.929   7.504
  371SOL    HW1 1112   1.373   0.858   7.505
  371SOL    HW2 1113   1.349   0.997   7.449
  372SOL     OW 1114   0.859   1.275   8.258
  372SOL    HW1 1115   0.850   1.312   8.346
  372SOL    HW2 1116   0.777   1.298   8.214
  373SOL     OW 1117   0.702   1.621   6.988
  373SOL    HW1 1118   0.711   1.627   6.893
  373SOL    HW2 1119   0.663   1.535   7.002
  374SOL     OW 1120   1.681   1.726   8.227
  374SOL    HW1 1121   1.729   1.739   8.145
  374SOL    HW2 1122   1.657   1.814   8.256
  375SOL     OW 1123   1.868   0.189   7.794
  375SOL    HW1 1124   1.905   0.107   7.761
  375SOL    HW2 1125   1.775   0.184   7.770
  376SOL     OW 1126   0.299   0.333   7.554
  376SOL    HW1 1127   0.218   0.374   7.523
  376SOL    HW2 1128   0.283   0.317   7.647
  377SOL     OW 1129   1.226   1.617   6.865
  377SOL    HW1 1130   1.229   1.526   6.896
  377SOL    HW2 1131   1.168   1.615   6.789
  378SOL     OW 1132   0.854   1.007   8.205
  378SOL    HW1 1133   0.893   1.010   8.118
  378SOL    HW2 1134   0.863   1.097   8.238
  379SOL     OW 1135   0.947   0.916   7.124
  379SOL    HW1 1136   1.010   0.948   7.059
  379SOL    HW2 1137   0.988   0.837   7.160
  380SOL     OW 1138   1.537   1.617   6.878
  380SOL    HW1 1139   1.445   1.645   6.878
  380SOL    HW2 1140   1.566   1.632   6.788
  381SOL     OW 1141   0.403   1.294   8.322
  381SOL    HW1 1142   0.387   1.381   8.287
  381SOL    HW2 1143   0.321   1.247   8.308
  382SOL     OW 1144   1.644   1.295   8.121
  382SOL    HW1 1145   1.701   1.301   8.198
  382SOL    HW2 1146   1.576   1.360   8.137
  383SOL     OW 1147   1.070   1.104   7.530
  383SOL    HW1 1148   1.004   1.055   7.579
  383SOL    HW2 1149   1.126   1.037   7.490
  384SOL     OW 1150   1.046   0.242   7.803
  384SOL    HW1 1151   1.037   0.202   7.716
  384SOL    HW2 1152   1.042   0.169   7.864
  385SOL     OW 1153   0.624   1.494   7.323
  385SOL    HW1 1154   0.659   1.439   7.253
  385SOL    HW2 1155   0.578   1.564   7.278
  386SOL     OW 1156   1.741   0.389   8.215
  386SOL    HW1 1157   1.811   0.455   8.214
  386SOL    HW2 1158   1.772   0.321   8.155
  387SOL     OW 1159   0.287   1.356   7.119
  387SOL    HW1 1160   0.193   1.353   7.101
  387SOL    HW2 1161   0.294   1.400   7.204
  388SOL     OW 1162   0.137   1.018   8.558
  388SOL    HW1 1163   0.066   0.985   8.613
  388SOL    HW2 1164   0.217   0.986   8.602
  389SOL     OW 1165   0.702   0.210   8.322
  389SOL    HW1 1166   0.789   0.191   8.286
  389SOL    HW2 1167   0.715   0.213   8.417
  390SOL     OW 1168   0.091   0.356   6.867
  390SOL    HW1 1169   0.009   0.329   6.825
  390SOL    HW2 1170   0.127   0.422   6.807
  391SOL     OW 1171   1.470   0.862   8.233
  391SOL    HW1 1172   1.419   0.913   8.170
  391SOL    HW2 1173   1.561   0.873   8.205
  392SOL     OW 1174   0.130   0.209   7.177
  392SOL    HW1 1175   0.086   0.249   7.102
  392SOL    HW2 1176   0.180   0.136   7.139
  393SOL     OW 1177   1.214   1.344   6.951
  393SOL    HW1 1178   1.120   1.328   6.957
  393SOL    HW2 1179   1.243   1.351   7.042
  394SOL     OW 1180   0.644   0.846   8.264
  394SOL    HW1 1181   0.700   0.922   8.248
  394SOL    HW2 1182   0.704   0.772   8.267
  395SOL     OW 1183   1.522   1.773   7.793
  395SOL    HW1 1184   1.558   1.833   7.728
  395SOL    HW2 1185   1.590   1.768   7.861
  396SOL     OW 1186   0.746   0.570   8.542
  396SOL    HW1 1187   0.769   0.630   8.612
  396SOL    HW2 1188   0.804   0.495   8.554
  397SOL     OW 1189   1.482   1.222   8.466
  397SOL    HW1 1190   1.477   1.218   8.561
  397SOL    HW2 1191   1.576   1.219   8.447
  398SOL     OW 1192   0.420   1.746   8.393
  398SOL    HW1 1193   0.331   1.782   8.391
  398SOL    HW2 1194   0.409   1.657   8.425
  399SOL     OW 1195   1.706   0.888   8.088
  399SOL    HW1 1196   1.682   0.804   8.049
  399SOL    HW2 1197   1.704   0.951   8.015
  400SOL     OW 1198   1.256   0.330   7.282
  400SOL    HW1 1199   1.319   0.258   7.276
  400SOL    HW2 1200   1.278   0.374   7.364
  401SOL     OW 1201   0.625   0.750   7.487
  401SOL    HW1 1202   0.669   0.832   7.467
  401SOL    HW2 1203   0.543   0.753   7.437
  402SOL     OW 1204   1.808   0.349   8.475
  402SOL    HW1 1205   1.787   0.375   8.386
  402SOL    HW2 1206   1.727   0.311   8.509
  403SOL     OW 1207   1.762   0.939   8.349
  403SOL    HW1 1208   1.796   1.028   8.360
  403SOL    HW2 1209   1.755   0.927   8.255
  404SOL     OW 1210   0.891   1.378   6.850
  404SOL    HW1 1211   0.848   1.397   6.934
  404SOL    HW2 1212   0.928   1.462   6.822
  405SOL     OW 1213   0.691   1.795   7.786
  405SOL    HW1 1214   0.653   1.882   7.771
  405SOL    HW2 1215   0.785   1.808   7.778
  406SOL     OW 1216   0.891   0.962   7.693
  406SOL    HW1 1217   0.942   0.897   7.741
  406SOL    HW2 1218   0.862   1.025   7.760
  407SOL     OW 1219   1.113   0.989   6.920
  407SOL    HW1 1220   1.094   1.039   6.841
  407SOL    HW2 1221   1.191   0.938   6.899
  408SOL     OW 1222   1.893   1.573   7.683
  408SOL    HW1 1223   1.822   1.559   7.619
  408SOL    HW2 1224   1.889   1.497   7.740
  409SOL     OW 1225   0.255   1.316   8.678
  409SOL    HW1 1226   0.188   1.250   8.660
  409SOL    HW2 1227   0.250   1.330   8.773
  410SOL     OW 1228   0.113   1.247   7.489
  410SOL    HW1 1229   0.114   1.197   7.571
  410SOL    HW2 1230   0.188   1.214   7.440
  411SOL     OW 1231   0.704   1.397   8.456
  411SOL    HW1 1232   0.628   1.353   8.492
  411SOL    HW2 1233   0.698   1.486   8.489
  412SOL     OW 1234   1.858   0.198   8.063
  412SOL    HW1 1235   1.849   0.109   8.097
  412SOL    HW2 1236   1.858   0.187   7.967
  413SOL     OW 1237   0.459   0.431   7.353
  413SOL    HW1 1238   0.487   0.358   7.297
  413SOL    HW2 1239   0.421   0.389   7.430
  414SOL     OW 1240   1.735   1.495   7.938
  414SOL    HW1 1241   1.648   1.466   7.912
  414SOL    HW2 1242   1.757   1.441   8.014
  415SOL     OW 1243   0.349   0.552   8.115
  415SOL    HW1 1244   0.391   0.495   8.179
  415SOL    HW2 1245   0.387   0.526   8.031
  416SOL     OW 1246   0.845   1.589   7.521
  416SOL    HW1 1247   0.869   1.601   7.429
  416SOL    HW2 1248   0.768   1.532   7.518
  417SOL     OW 1249   1.456   0.220   7.945
  417SOL    HW1 1250   1.503   0.157   8.000
  417SOL    HW2 1251   1.409   0.276   8.007
  418SOL     OW 1252   1.031   0.038   7.985
  418SOL    HW1 1253   0.976  -0.035   7.957
  418SOL    HW2 1254   1.120   0.002   7.986
  419SOL     OW 1255   0.801   1.336   7.136
  419SOL    HW1 1256   0.760   1.251   7.150
  419SOL    HW2 1257   0.888   1.329   7.175
  420SOL     OW 1258   0.648   1.572   8.116
  420SOL    HW1 1259   0.649   1.650   8.171
  420SOL    HW2 1260   0.735   1.570   8.076
  421SOL     OW 1261   1.383   0.057   7.001
  421SOL    HW1 1262   1.413   0.014   6.921
  421SOL    HW2 1263   1.297   0.020   7.017
  422SOL     OW 1264   1.332   0.459   7.523
  422SOL    HW1 1265   1.274   0.535   7.531
  422SOL    HW2 1266   1.341   0.426   7.613
  423SOL     OW 1267   1.623   0.224   7.715
  423SOL    HW1 1268   1.542   0.228   7.766
  423SOL    HW2 1269   1.623   0.304   7.662
  424SOL     OW 1270   0.071   1.080   7.127
  424SOL    HW1 1271   0.166   1.066   7.127
  424SOL    HW2 1272   0.035   1.000   7.165
  425SOL     OW 1273   0.906   1.648   7.175
  425SOL    HW1 1274   0.832   1.623   7.118
  425SOL    HW2 1275   0.873   1.721   7.226
  426SOL     OW 1276   0.261   0.636   8.808
  426SOL    HW1 1277   0.172   0.627   8.842
  426SOL    HW2 1278   0.259   0.594   8.722
  427SOL     OW 1279   0.253   0.282   9.688
  427SOL    HW1 1280   0.287   0.261   9.775
  427SOL    HW2 1281   0.171   0.233   9.682
  428SOL     OW 1282   0.048   0.379   9.338
  428SOL    HW1 1283  -0.033   0.410   9.378
  428SOL    HW2 1284   0.021   0.303   9.286
  429SOL     OW 1285   0.599   1.279   9.861
  429SOL    HW1 1286   0.510   1.277   9.825
  429SOL    HW2 1287   0.608   1.365   9.900
  430SOL     OW 1288   1.586   1.517   9.398
  430SOL    HW1 1289   1.530   1.502   9.474
  430SOL    HW2 1290   1.524   1.525   9.325
  431SOL     OW 1291   1.165   0.708   9.410
  431SOL    HW1 1292   1.218   0.785   9.391
  431SOL    HW2 1293   1.111   0.734   9.485
  432SOL     OW 1294   1.786   0.614   8.927
  432SOL    HW1 1295   1.774   0.598   8.834
  432SOL    HW2 1296   1.758   0.533   8.969
  433SOL     OW 1297   0.799   1.149   9.720
  433SOL    HW1 1298   0.724   1.171   9.776
  433SOL    HW2 1299   0.828   1.233   9.685
  434SOL     OW 1300   0.717   1.019   9.357
  434SOL    HW1 1301   0.779   1.002   9.428
  434SOL    HW2 1302   0.647   1.070   9.399
  435SOL     OW 1303   0.366   1.440   9.758
  435SOL    HW1 1304   0.293   1.410   9.703
  435SOL    HW2 1305   0.419   1.493   9.699
  436SOL     OW 1306   1.635   0.452   9.432
  436SOL    HW1 1307   1.565   0.498   9.385
  436SOL    HW2 1308   1.680   0.522   9.481
  437SOL     OW 1309   0.265   1.714   9.177
  437SOL    HW1 1310   0.294   1.791   9.225
  437SOL    HW2 1311   0.308   1.721   9.092
  438SOL     OW 1312   0.262   1.440   9.233
  438SOL    HW1 1313   0.234   1.532   9.236
  438SOL    HW2 1314   0.192   1.392   9.277
  439SOL     OW 1315   0.270   1.095   9.581
  439SOL    HW1 1316   0.281   1.016   9.634
  439SOL    HW2 1317   0.220   1.154   9.636
  440SOL     OW 1318   0.633   0.971   8.820
  440SOL    HW1 1319   0.649   1.049   8.767
  440SOL    HW2 1320   0.681   0.987   8.901
  441SOL     OW 1321   0.154   0.647   9.258
  441SOL    HW1 1322   0.110   0.565   9.277
  441SOL    HW2 1323   0.148   0.697   9.340
  442SOL     OW 1324   1.874   1.771   9.050
  442SOL    HW1 1325   1.925   1.747   9.127
  442SOL    HW2 1326   1.904   1.859   9.028
  443SOL     OW 1327   0.057   1.601   8.813
  443SOL    HW1 1328   0.041   1.510   8.836
  443SOL    HW2 1329   0.026   1.651   8.889
  444SOL     OW 1330   1.720   0.927   9.312
  444SOL    HW1 1331   1.812   0.899   9.312
  444SOL    HW2 1332   1.713   0.985   9.236
  445SOL     OW 1333   1.673   1.112   9.127
  445SOL    HW1 1334   1.756   1.119   9.080
  445SOL    HW2 1335   1.687   1.163   9.207
  446SOL     OW 1336   0.644   1.373   9.422
  446SOL    HW1 1337   0.596   1.290   9.428
  446SOL    HW2 1338   0.620   1.408   9.337
  447SOL     OW 1339   0.841   0.010   9.228
  447SOL    HW1 1340   0.877   0.094   9.197
  447SOL    HW2 1341   0.748   0.016   9.208
  448SOL     OW 1342   0.229   0.981   9.967
  448SOL    HW1 1343   0.311   0.936   9.945
  448SOL    HW2 1344   0.160   0.922   9.935
  449SOL     OW 1345   1.560   1.001   8.885
  449SOL    HW1 1346   1.496   0.932   8.903
  449SOL    HW2 1347   1.599   1.020   8.970
  450SOL     OW 1348   1.498   1.422   9.649
  450SOL    HW1 1349   1.436   1.427   9.722
  450SOL    HW2 1350   1.481   1.337   9.609
  451SOL     OW 1351   1.697   1.721   9.268
  451SOL    HW1 1352   1.659   1.695   9.184
  451SOL    HW2 1353   1.678   1.648   9.327
  452SOL     OW 1354   0.627   0.732   8.963
  452SOL    HW1 1355   0.648   0.803   8.902
  452SOL    HW2 1356   0.556   0.768   9.016
  453SOL     OW 1357   1.312   0.351   9.637
  453SOL    HW1 1358   1.230   0.303   9.629
  453SOL    HW2 1359   1.367   0.295   9.692
  454SOL     OW 1360   1.608   1.668   9.002
  454SOL    HW1 1361   1.693   1.710   9.001
  454SOL    HW2 1362   1.590   1.646   8.911
  455SOL     OW 1363   1.074   0.705   9.124
  455SOL    HW1 1364   1.093   0.700   9.217
  455SOL    HW2 1365   0.992   0.658   9.112
  456SOL     OW 1366   0.112   0.820   9.476
  456SOL    HW1 1367   0.204   0.809   9.498
  456SOL    HW2 1368   0.091   0.909   9.505
  457SOL     OW 1369   0.161   1.825  10.266
  457SOL    HW1 1370   0.148   1.813  10.360
  457SOL    HW2 1371   0.078   1.861  10.234
  458SOL     OW 1372   0.897   0.353   8.890
  458SOL    HW1 1373   0.955   0.410   8.840
  458SOL    HW2 1374   0.917   0.264   8.860
  459SOL     OW 1375   1.395   1.150   9.240
  459SOL    HW1 1376   1.473   1.125   9.190
  459SOL    HW2 1377   1.349   1.212   9.184
  460SOL     OW 1378   0.582   0.201   9.580
  460SOL    HW1 1379   0.575   0.202   9.676
  460SOL    HW2 1380   0.583   0.293   9.555
  461SOL     OW 1381   1.039   1.459   9.171
  461SOL    HW1 1382   0.996   1.530   9.125
  461SOL    HW2 1383   1.034   1.483   9.264
  462SOL     OW 1384   0.382   1.806   9.547
  462SOL    HW1 1385   0.433   1.726   9.555
  462SOL    HW2 1386   0.447   1.876   9.547
  463SOL     OW 1387   1.827   1.072   9.566
  463SOL    HW1 1388   1.764   1.056   9.496
  463SOL    HW2 1389   1.774   1.078   9.646
  464SOL     OW 1390   0.351   0.950   8.936
  464SOL    HW1 1391   0.431   0.982   8.895
  464SOL    HW2 1392   0.329   0.870   8.889
  465SOL     OW 1393   1.491   0.739   9.422
  465SOL    HW1 1394   1.487   0.681   9.498
  465SOL    HW2 1395   1.567   0.795   9.439
  466SOL     OW 1396   1.146   1.781   8.932
  466SOL    HW1 1397   1.084   1.723   8.976
  466SOL    HW2 1398   1.168   1.735   8.851
  467SOL     OW 1399   1.664   1.382   8.778
  467SOL    HW1 1400   1.628   1.470   8.766
  467SOL    HW2 1401   1.590   1.323   8.764
  468SOL     OW 1402   0.495   1.747   9.018
  468SOL    HW1 1403   0.530   1.788   9.097
  468SOL    HW2 1404   0.571   1.741   8.959
  469SOL     OW 1405   1.431   0.115   9.120
  469SOL    HW1 1406   1.413   0.079   9.033
  469SOL    HW2 1407   1.526   0.126   9.122
  470SOL     OW 1408   0.283   1.793   9.935
  470SOL    HW1 1409   0.336   1.727   9.980
  470SOL    HW2 1410   0.267   1.756   9.848
  471SOL     OW 1411   0.972   1.703   9.599
  471SOL    HW1 1412   1.046   1.646   9.616
  471SOL    HW2 1413   0.925   1.662   9.527
  472SOL     OW 1414   0.414   0.705   9.175
  472SOL    HW1 1415   0.452   0.617   9.174
  472SOL    HW2 1416   0.324   0.691   9.204
  473SOL     OW 1417   0.640   0.137   8.803
  473SOL    HW1 1418   0.728   0.104   8.820
  473SOL    HW2 1419   0.618   0.105   8.716
  474SOL     OW 1420   0.834   1.407   9.620
  474SOL    HW1 1421   0.918   1.418   9.577
  474SOL    HW2 1422   0.770   1.407   9.549
  475SOL     OW 1423   0.955   0.510   9.595
  475SOL    HW1 1424   0.930   0.496   9.503
  475SOL    HW2 1425   0.997   0.428   9.621
  476SOL     OW 1426   0.575   0.069   9.206
  476SOL    HW1 1427   0.495   0.070   9.258
  476SOL    HW2 1428   0.570   0.149   9.153
  477SOL     OW 1429   1.463   1.194   8.734
  477SOL    HW1 1430   1.493   1.123   8.790
  477SOL    HW2 1431   1.376   1.217   8.768
  478SOL     OW 1432   0.334   0.037   8.884
  478SOL    HW1 1433   0.379   0.115   8.850
  478SOL    HW2 1434   0.404  -0.022   8.912
  479SOL     OW 1435   0.966   0.241   9.173
  479SOL    HW1 1436   0.925   0.282   9.097
  479SOL    HW2 1437   1.060   0.244   9.154
  480SOL     OW 1438   1.257   1.575   9.488
  480SOL    HW1 1439   1.281   1.645   9.428
  480SOL    HW2 1440   1.324   1.579   9.556
  481SOL     OW 1441   0.492   1.154   9.437
  481SOL    HW1 1442   0.419   1.131   9.495
  481SOL    HW2 1443   0.461   1.130   9.349
  482SOL     OW 1444   1.303   1.802   9.288
  482SOL    HW1 1445   1.342   1.866   9.228
  482SOL    HW2 1446   1.253   1.855   9.350
  483SOL     OW 1447   1.064   0.554   8.709
  483SOL    HW1 1448   1.024   0.635   8.678
  483SOL    HW2 1449   1.122   0.581   8.781
  484SOL     OW 1450   0.899   0.461   9.337
  484SOL    HW1 1451   0.865   0.524   9.274
  484SOL    HW2 1452   0.918   0.383   9.284
  485SOL     OW 1453   1.029   0.067   9.464
  485SOL    HW1 1454   0.984   0.051   9.380
  485SOL    HW2 1455   1.033  -0.019   9.505
  486SOL     OW 1456   1.462   1.176   9.561
  486SOL    HW1 1457   1.406   1.098   9.552
  486SOL    HW2 1458   1.483   1.201   9.471
  487SOL     OW 1459   1.498   0.597   9.686
  487SOL    HW1 1460   1.469   0.506   9.695
  487SOL    HW2 1461   1.567   0.607   9.752
  488SOL     OW 1462   1.884   0.836   9.074
  488SOL    HW1 1463   1.929   0.773   9.130
  488SOL    HW2 1464   1.854   0.784   8.999
  489SOL     OW 1465   0.521   1.393   8.868
  489SOL    HW1 1466   0.437   1.376   8.911
  489SOL    HW2 1467   0.498   1.414   8.778
  490SOL     OW 1468   1.695   1.281   9.354
  490SOL    HW1 1469   1.790   1.294   9.365
  490SOL    HW2 1470   1.657   1.365   9.379
  491SOL     OW 1471   1.421   0.579   8.771
  491SOL    HW1 1472   1.371   0.559   8.850
  491SOL    HW2 1473   1.507   0.541   8.786
  492SOL     OW 1474   0.557   0.263   9.024
  492SOL    HW1 1475   0.586   0.208   8.951
  492SOL    HW2 1476   0.558   0.352   8.988
  493SOL     OW 1477   1.144   1.202   9.797
  493SOL    HW1 1478   1.097   1.243   9.869
  493SOL    HW2 1479   1.103   1.237   9.718
  494SOL     OW 1480   1.669   1.105   9.772
  494SOL    HW1 1481   1.669   1.181   9.831
  494SOL    HW2 1482   1.585   1.109   9.728
  495SOL     OW 1483   0.736   1.058   9.064
  495SOL    HW1 1484   0.725   1.058   9.159
  495SOL    HW2 1485   0.815   1.006   9.049
  496SOL     OW 1486   0.443   0.818   9.946
  496SOL    HW1 1487   0.523   0.826   9.997
  496SOL    HW2 1488   0.405   0.734   9.973
  497SOL     OW 1489   0.397   1.105   9.195
  497SOL    HW1 1490   0.391   1.182   9.138
  497SOL    HW2 1491   0.401   1.031   9.135
  498SOL     OW 1492   0.595   0.542   9.560
  498SOL    HW1 1493   0.610   0.606   9.491
  498SOL    HW2 1494   0.643   0.577   9.636
  499SOL     OW 1495   1.282   1.353   9.083
  499SOL    HW1 1496   1.328   1.427   9.122
  499SOL    HW2 1497   1.193   1.360   9.116
  500SOL     OW 1498   1.305   1.450   9.837
  500SOL    HW1 1499   1.345   1.460   9.923
  500SOL    HW2 1500   1.243   1.378   9.847
  501SOL     OW 1501   1.613   0.642   9.167
  501SOL    HW1 1502   1.584   0.705   9.234
  501SOL    HW2 1503   1.660   0.696   9.104
  502SOL     OW 1504   0.606   0.874   9.724
  502SOL    HW1 1505   0.644   0.962   9.718
  502SOL    HW2 1506   0.546   0.879   9.799
  503SOL     OW 1507   1.392   0.868   9.738
  503SOL    HW1 1508   1.319   0.863   9.677
  503SOL    HW2 1509   1.424   0.778   9.745
  504SOL     OW 1510   1.243   0.531   8.970
  504SOL    HW1 1511   1.249   0.452   9.024
  504SOL    HW2 1512   1.210   0.598   9.029
  505SOL     OW 1513   0.338   0.218   9.927
  505SOL    HW1 1514   0.316   0.249  10.015
  505SOL    HW2 1515   0.309   0.126   9.926
  506SOL     OW 1516   0.062   1.314   9.981
  506SOL    HW1 1517   0.120   1.267  10.040
  506SOL    HW2 1518   0.094   1.404   9.981
  507SOL     OW 1519   0.763   0.639   9.760
  507SOL    HW1 1520   0.820   0.617   9.686
  507SOL    HW2 1521   0.737   0.730   9.743
  508SOL     OW 1522   0.341   0.074   9.313
  508SOL    HW1 1523   0.325   0.161   9.350
  508SOL    HW2 1524   0.336   0.015   9.388
  509SOL     OW 1525   1.647   0.371   9.066
  509SOL    HW1 1526   1.658   0.304   9.133
  509SOL    HW2 1527   1.609   0.446   9.112
  510SOL     OW 1528   1.054   0.771   9.661
  510SOL    HW1 1529   1.067   0.787   9.754
  510SOL    HW2 1530   1.026   0.679   9.656
  511SOL     OW 1531   1.569   0.280   8.820
  511SOL    HW1 1532   1.511   0.209   8.847
  511SOL    HW2 1533   1.593   0.325   8.901
  512SOL     OW 1534   1.333   0.841   8.736
  512SOL    HW1 1535   1.369   0.753   8.745
  512SOL    HW2 1536   1.354   0.867   8.647
  513SOL     OW 1537   1.098   1.338   9.545
  513SOL    HW1 1538   1.107   1.261   9.489
  513SOL    HW2 1539   1.160   1.401   9.507
  514SOL     OW 1540   0.353   0.813   9.640
  514SOL    HW1 1541   0.443   0.845   9.649
  514SOL    HW2 1542   0.350   0.733   9.692
  515SOL     OW 1543   0.368   0.517   9.700
  515SOL    HW1 1544   0.324   0.434   9.684
  515SOL    HW2 1545   0.442   0.518   9.640
  516SOL     OW 1546   1.193   0.211  10.172
  516SOL    HW1 1547   1.191   0.275  10.243
  516SOL    HW2 1548   1.216   0.262  10.095
  517SOL     OW 1549   0.039   1.319   8.851
  517SOL    HW1 1550  -0.051   1.348   8.866
  517SOL    HW2 1551   0.048   1.242   8.908
  518SOL     OW 1552   0.123   1.811   9.615
  518SOL    HW1 1553   0.084   1.727   9.590
  518SOL    HW2 1554   0.214   1.805   9.585
  519SOL     OW 1555   0.534   1.575   9.601
  519SOL    HW1 1556   0.602   1.641   9.614
  519SOL    HW2 1557   0.580   1.500   9.564
  520SOL     OW 1558   1.033   0.799   9.931
  520SOL    HW1 1559   1.069   0.771  10.016
  520SOL    HW2 1560   0.941   0.774   9.935
  521SOL     OW 1561   0.071   0.550   9.808
  521SOL    HW1 1562   0.154   0.518   9.773
  521SOL    HW2 1563   0.088   0.562   9.902
  522SOL     OW 1564   0.846   0.576   9.025
  522SOL    HW1 1565   0.849   0.494   8.976
  522SOL    HW2 1566   0.758   0.610   9.010
  523SOL     OW 1567   1.683   0.607   9.897
  523SOL    HW1 1568   1.657   0.541   9.961
  523SOL    HW2 1569   1.765   0.574   9.860
  524SOL     OW 1570   0.702   0.469   9.965
  524SOL    HW1 1571   0.670   0.385   9.931
  524SOL    HW2 1572   0.726   0.519   9.887
  525SOL     OW 1573   0.505   0.505   8.886
  525SOL    HW1 1574   0.559   0.583   8.892
  525SOL    HW2 1575   0.415   0.538   8.891
  526SOL     OW 1576   1.379   1.067   9.928
  526SOL    HW1 1577   1.397   1.003   9.860
  526SOL    HW2 1578   1.291   1.100   9.907
  527SOL     OW 1579   1.334   0.858   9.005
  527SOL    HW1 1580   1.250   0.830   9.041
  527SOL    HW2 1581   1.324   0.847   8.911
  528SOL     OW 1582   1.787   1.755   9.846
  528SOL    HW1 1583   1.850   1.777   9.777
  528SOL    HW2 1584   1.759   1.666   9.825
  529SOL     OW 1585   0.115   1.262   9.716
  529SOL    HW1 1586   0.108   1.263   9.811
  529SOL    HW2 1587   0.033   1.225   9.685
  530SOL     OW 1588   1.751   0.141   9.211
  530SOL    HW1 1589   1.829   0.124   9.158
  530SOL    HW2 1590   1.734   0.058   9.256
  531SOL     OW 1591   1.420   1.577   9.173
  531SOL    HW1 1592   1.482   1.594   9.102
  531SOL    HW2 1593   1.381   1.662   9.193
  532SOL     OW 1594   1.309   0.929   9.366
  532SOL    HW1 1595   1.373   0.858   9.367
  532SOL    HW2 1596   1.349   0.997   9.311
  533SOL     OW 1597   0.702   1.621   8.850
  533SOL    HW1 1598   0.711   1.627   8.755
  533SOL    HW2 1599   0.663   1.535   8.864
  534SOL     OW 1600   1.681   1.724  10.090
  534SOL    HW1 1601   1.730   1.738  10.010
  534SOL    HW2 1602   1.657   1.812  10.119
  535SOL     OW 1603   1.868   0.189   9.656
  535SOL    HW1 1604   1.905   0.107   9.624
  535SOL    HW2 1605   1.775   0.184   9.632
  536SOL     OW 1606   0.299   0.333   9.416
  536SOL    HW1 1607   0.218   0.374   9.385
  536SOL    HW2 1608   0.283   0.317   9.509
  537SOL     OW 1609   1.226   1.617   8.727
  537SOL    HW1 1610   1.229   1.526   8.758
  537SOL    HW2 1611   1.168   1.615   8.651
  538SOL     OW 1612   0.852   1.007  10.067
  538SOL    HW1 1613   0.893   1.010   9.980
  538SOL    HW2 1614   0.864   1.095  10.102
  539SOL     OW 1615   0.947   0.916   8.986
  539SOL    HW1 1616   1.010   0.948   8.921
  539SOL    HW2 1617   0.988   0.837   9.022
  540SOL     OW 1618   1.537   1.617   8.740
  540SOL    HW1 1619   1.445   1.645   8.740
  540SOL    HW2 1620   1.566   1.632   8.650
  541SOL     OW 1621   1.070   1.104   9.392
  541SOL    HW1 1622   1.004   1.055   9.441
  541SOL    HW2 1623   1.126   1.037   9.352
  542SOL     OW 1624   1.048   0.242   9.664
  542SOL    HW1 1625   1.037   0.202   9.578
  542SOL    HW2 1626   1.041   0.170   9.726
  543SOL     OW 1627   0.624   1.493   9.185
  543SOL    HW1 1628   0.659   1.439   9.115
  543SOL    HW2 1629   0.578   1.564   9.140
  544SOL     OW 1630   1.738   0.391  10.074
  544SOL    HW1 1631   1.811   0.453  10.080
  544SOL    HW2 1632   1.772   0.320  10.019
  545SOL     OW 1633   0.287   1.356   8.981
  545SOL    HW1 1634   0.193   1.353   8.963
  545SOL    HW2 1635   0.294   1.400   9.066
  546SOL     OW 1636   0.091   0.356   8.729
  546SOL    HW1 1637   0.009   0.329   8.687
  546SOL    HW2 1638   0.127   0.422   8.669
  547SOL     OW 1639   0.130   0.209   9.039
  547SOL    HW1 1640   0.086   0.249   8.964
  547SOL    HW2 1641   0.180   0.136   9.001
  548SOL     OW 1642   1.214   1.344   8.813
  548SOL    HW1 1643   1.120   1.328   8.819
  548SOL    HW2 1644   1.243   1.351   8.904
  549SOL     OW 1645   1.523   1.772   9.654
  549SOL    HW1 1646   1.559   1.834   9.590
  549SOL    HW2 1647   1.589   1.768   9.723
  550SOL     OW 1648   1.710   0.888   9.949
  550SOL    HW1 1649   1.679   0.805   9.912
  550SOL    HW2 1650   1.702   0.951   9.877
  551SOL     OW 1651   1.256   0.330   9.144
  551SOL    HW1 1652   1.319   0.258   9.138
  551SOL    HW2 1653   1.278   0.374   9.226
  552SOL     OW 1654   0.625   0.750   9.349
  552SOL    HW1 1655   0.669   0.832   9.329
  552SOL    HW2 1656   0.543   0.753   9.299
  553SOL     OW 1657   1.764   0.938  10.213
  553SOL    HW1 1658   1.797   1.027  10.221
  553SOL    HW2 1659   1.751   0.926  10.119
  554SOL     OW 1660   0.891   1.378   8.712
  554SOL    HW1 1661   0.848   1.397   8.796
  554SOL    HW2 1662   0.928   1.462   8.684
  555SOL     OW 1663   0.691   1.795   9.648
  555SOL    HW1 1664   0.653   1.882   9.633
  555SOL    HW2 1665   0.785   1.808   9.640
  556SOL     OW 1666   0.891   0.962   9.555
  556SOL    HW1 1667   0.942   0.897   9.603
  556SOL    HW2 1668   0.862   1.025   9.622
  557SOL     OW 1669   1.113   0.989   8.782
  557SOL    HW1 1670   1.094   1.039   8.703
  557SOL    HW2 1671   1.191   0.938   8.761
  558SOL     OW 1672   1.893   1.573   9.545
  558SOL    HW1 1673   1.822   1.559   9.481
  558SOL    HW2 1674   1.889   1.497   9.602
  559SOL     OW 1675   0.113   1.247   9.351
  559SOL    HW1 1676   0.114   1.197   9.433
  559SOL    HW2 1677   0.188   1.214   9.302
  560SOL     OW 1678   1.858   0.198   9.924
  560SOL    HW1 1679   1.850   0.109   9.959
  560SOL    HW2 1680   1.858   0.187   9.829
  561SOL     OW 1681   0.459   0.431   9.215
  561SOL    HW1 1682   0.487   0.358   9.159
  561SOL    HW2 1683   0.421   0.389   9.292
  562SOL     OW 1684   1.736   1.494   9.800
  562SOL    HW1 1685   1.648   1.466   9.774
  562SOL    HW2 1686   1.757   1.441   9.877
  563SOL     OW 1687   0.845   1.589   9.383
  563SOL    HW1 1688   0.869   1.601   9.291
  563SOL    HW2 1689   0.768   1.532   9.380
  564SOL     OW 1690   1.456   0.220   9.808
  564SOL    HW1 1691   1.504   0.157   9.861
  564SOL    HW2 1692   1.411   0.276   9.871
  565SOL     OW 1693   1.032   0.039   9.846
  565SOL    HW1 1694   0.975  -0.034   9.820
  565SOL    HW2 1695   1.120   0.001   9.849
  566SOL     OW 1696   0.801   1.336   8.998
  566SOL    HW1 1697   0.760   1.251   9.012
  566SOL    HW2 1698   0.887   1.329   9.037
  567SOL     OW 1699   1.383   0.057   8.863
  567SOL    HW1 1700   1.413   0.014   8.783
  567SOL    HW2 1701   1.297   0.020   8.879
  568SOL     OW 1702   1.332   0.459   9.385
  568SOL    HW1 1703   1.274   0.535   9.393
  568SOL    HW2 1704   1.341   0.426   9.475
  569SOL     OW 1705   1.624   0.224   9.577
  569SOL    HW1 1706   1.542   0.228   9.627
  569SOL    HW2 1707   1.622   0.304   9.524
  570SOL     OW 1708   0.071   1.080   8.989
  570SOL    HW1 1709   0.166   1.066   8.989
  570SOL    HW2 1710   0.035   1.000   9.027
  571SOL     OW 1711   0.906   1.648   9.037
  571SOL    HW1 1712   0.832   1.623   8.980
  571SOL    HW2 1713   0.873   1.721   9.088
  572SOL     OW 1714   0.261   2.498   5.084
  572SOL    HW1 1715   0.172   2.490   5.117
  572SOL    HW2 1716   0.258   2.457   4.998
  573SOL     OW 1717   0.254   2.142   5.964
  573SOL    HW1 1718   0.286   2.124   6.052
  573SOL    HW2 1719   0.170   2.096   5.959
  574SOL     OW 1720   0.048   2.240   5.614
  574SOL    HW1 1721  -0.032   2.273   5.655
  574SOL    HW2 1722   0.019   2.166   5.560
  575SOL     OW 1723   0.600   3.142   6.136
  575SOL    HW1 1724   0.511   3.139   6.102
  575SOL    HW2 1725   0.608   3.228   6.177
  576SOL     OW 1726   1.586   3.379   5.674
  576SOL    HW1 1727   1.530   3.364   5.750
  576SOL    HW2 1728   1.524   3.387   5.601
  577SOL     OW 1729   1.164   2.570   5.686
  577SOL    HW1 1730   1.218   2.647   5.667
  577SOL    HW2 1731   1.111   2.596   5.761
  578SOL     OW 1732   1.788   2.474   5.201
  578SOL    HW1 1733   1.772   2.457   5.109
  578SOL    HW2 1734   1.757   2.396   5.246
  579SOL     OW 1735   0.799   3.011   5.996
  579SOL    HW1 1736   0.724   3.033   6.052
  579SOL    HW2 1737   0.828   3.095   5.961
  580SOL     OW 1738   0.882   2.664   6.793
  580SOL    HW1 1739   0.878   2.738   6.853
  580SOL    HW2 1740   0.903   2.702   6.709
  581SOL     OW 1741   0.717   2.881   5.633
  581SOL    HW1 1742   0.779   2.864   5.704
  581SOL    HW2 1743   0.647   2.932   5.675
  582SOL     OW 1744   0.720   3.027   6.774
  582SOL    HW1 1745   0.773   3.105   6.787
  582SOL    HW2 1746   0.638   3.059   6.736
  583SOL     OW 1747   0.364   3.303   6.035
  583SOL    HW1 1748   0.293   3.272   5.979
  583SOL    HW2 1749   0.419   3.355   5.976
  584SOL     OW 1750   1.491   3.371   6.310
  584SOL    HW1 1751   1.515   3.460   6.337
  584SOL    HW2 1752   1.474   3.325   6.393
  585SOL     OW 1753   0.470   2.261   6.469
  585SOL    HW1 1754   0.546   2.203   6.477
  585SOL    HW2 1755   0.395   2.202   6.475
  586SOL     OW 1756   1.636   2.315   5.707
  586SOL    HW1 1757   1.565   2.360   5.662
  586SOL    HW2 1758   1.679   2.383   5.758
  587SOL     OW 1759   0.265   3.575   5.453
  587SOL    HW1 1760   0.293   3.654   5.501
  587SOL    HW2 1761   0.307   3.583   5.368
  588SOL     OW 1762   1.160   3.208   6.660
  588SOL    HW1 1763   1.202   3.205   6.746
  588SOL    HW2 1764   1.112   3.125   6.654
  589SOL     OW 1765   0.262   3.302   5.509
  589SOL    HW1 1766   0.234   3.393   5.512
  589SOL    HW2 1767   0.191   3.254   5.553
  590SOL     OW 1768   0.270   2.957   5.857
  590SOL    HW1 1769   0.281   2.878   5.910
  590SOL    HW2 1770   0.220   3.016   5.912
  591SOL     OW 1771   0.651   3.654   6.409
  591SOL    HW1 1772   0.564   3.640   6.446
  591SOL    HW2 1773   0.675   3.742   6.435
  592SOL     OW 1774   0.636   2.832   5.095
  592SOL    HW1 1775   0.646   2.912   5.045
  592SOL    HW2 1776   0.681   2.849   5.178
  593SOL     OW 1777   1.626   1.981   6.449
  593SOL    HW1 1778   1.608   2.049   6.385
  593SOL    HW2 1779   1.621   2.025   6.534
  594SOL     OW 1780   0.155   2.509   5.535
  594SOL    HW1 1781   0.110   2.427   5.554
  594SOL    HW2 1782   0.148   2.560   5.616
  595SOL     OW 1783   1.872   3.634   5.328
  595SOL    HW1 1784   1.926   3.608   5.403
  595SOL    HW2 1785   1.905   3.720   5.303
  596SOL     OW 1786   0.052   3.464   5.085
  596SOL    HW1 1787   0.043   3.373   5.111
  596SOL    HW2 1788   0.030   3.514   5.164
  597SOL     OW 1789   1.720   2.789   5.588
  597SOL    HW1 1790   1.812   2.761   5.588
  597SOL    HW2 1791   1.713   2.847   5.512
  598SOL     OW 1792   1.673   2.975   5.403
  598SOL    HW1 1793   1.756   2.980   5.356
  598SOL    HW2 1794   1.687   3.024   5.484
  599SOL     OW 1795   0.144   2.605   6.568
  599SOL    HW1 1796   0.231   2.599   6.608
  599SOL    HW2 1797   0.133   2.697   6.548
  600SOL     OW 1798   0.645   3.234   5.698
  600SOL    HW1 1799   0.596   3.152   5.704
  600SOL    HW2 1800   0.620   3.270   5.613
  601SOL     OW 1801   1.324   3.098   6.395
  601SOL    HW1 1802   1.360   3.028   6.341
  601SOL    HW2 1803   1.375   3.096   6.475
  602SOL     OW 1804   0.839   1.869   5.471
  602SOL    HW1 1805   0.876   1.957   5.466
  602SOL    HW2 1806   0.745   1.883   5.480
  603SOL     OW 1807   0.229   2.842   6.242
  603SOL    HW1 1808   0.311   2.797   6.220
  603SOL    HW2 1809   0.161   2.783   6.210
  604SOL     OW 1810   1.559   2.863   5.161
  604SOL    HW1 1811   1.496   2.793   5.180
  604SOL    HW2 1812   1.599   2.882   5.246
  605SOL     OW 1813   1.216   3.661   6.587
  605SOL    HW1 1814   1.242   3.715   6.512
  605SOL    HW2 1815   1.227   3.571   6.556
  606SOL     OW 1816   0.348   2.134   6.730
  606SOL    HW1 1817   0.420   2.181   6.773
  606SOL    HW2 1818   0.275   2.141   6.792
  607SOL     OW 1819   1.496   3.285   5.924
  607SOL    HW1 1820   1.437   3.289   5.999
  607SOL    HW2 1821   1.482   3.199   5.886
  608SOL     OW 1822   1.697   3.583   5.545
  608SOL    HW1 1823   1.660   3.557   5.460
  608SOL    HW2 1824   1.678   3.510   5.603
  609SOL     OW 1825   0.627   2.594   5.239
  609SOL    HW1 1826   0.648   2.665   5.178
  609SOL    HW2 1827   0.556   2.630   5.292
  610SOL     OW 1828   1.313   2.211   5.910
  610SOL    HW1 1829   1.230   2.164   5.906
  610SOL    HW2 1830   1.367   2.159   5.970
  611SOL     OW 1831   1.607   3.531   5.278
  611SOL    HW1 1832   1.694   3.572   5.277
  611SOL    HW2 1833   1.591   3.507   5.187
  612SOL     OW 1834   0.836   2.474   6.433
  612SOL    HW1 1835   0.793   2.466   6.518
  612SOL    HW2 1836   0.785   2.418   6.375
  613SOL     OW 1837   1.424   2.336   6.645
  613SOL    HW1 1838   1.411   2.376   6.731
  613SOL    HW2 1839   1.499   2.277   6.657
  614SOL     OW 1840   1.001   2.758   6.545
  614SOL    HW1 1841   1.047   2.680   6.514
  614SOL    HW2 1842   0.951   2.788   6.470
  615SOL     OW 1843   1.023   2.277   6.213
  615SOL    HW1 1844   0.946   2.307   6.261
  615SOL    HW2 1845   0.987   2.229   6.139
  616SOL     OW 1846   1.074   2.568   5.400
  616SOL    HW1 1847   1.093   2.562   5.493
  616SOL    HW2 1848   0.992   2.520   5.388
  617SOL     OW 1849   0.112   2.683   5.751
  617SOL    HW1 1850   0.204   2.671   5.774
  617SOL    HW2 1851   0.091   2.771   5.781
  618SOL     OW 1852   0.163   3.693   6.543
  618SOL    HW1 1853   0.148   3.673   6.636
  618SOL    HW2 1854   0.077   3.720   6.511
  619SOL     OW 1855   0.898   2.215   5.168
  619SOL    HW1 1856   0.954   2.272   5.115
  619SOL    HW2 1857   0.915   2.127   5.136
  620SOL     OW 1858   1.749   2.451   6.802
  620SOL    HW1 1859   1.724   2.535   6.764
  620SOL    HW2 1860   1.749   2.390   6.728
  621SOL     OW 1861   1.395   3.012   5.516
  621SOL    HW1 1862   1.473   2.987   5.466
  621SOL    HW2 1863   1.349   3.074   5.460
  622SOL     OW 1864   0.579   2.062   5.856
  622SOL    HW1 1865   0.577   2.064   5.952
  622SOL    HW2 1866   0.583   2.153   5.829
  623SOL     OW 1867   1.039   3.321   5.447
  623SOL    HW1 1868   0.995   3.393   5.402
  623SOL    HW2 1869   1.034   3.345   5.540
  624SOL     OW 1870   0.382   3.668   5.823
  624SOL    HW1 1871   0.433   3.588   5.831
  624SOL    HW2 1872   0.447   3.738   5.823
  625SOL     OW 1873   1.827   2.934   5.842
  625SOL    HW1 1874   1.764   2.918   5.772
  625SOL    HW2 1875   1.774   2.941   5.922
  626SOL     OW 1876   1.259   3.417   6.477
  626SOL    HW1 1877   1.260   3.341   6.536
  626SOL    HW2 1878   1.206   3.388   6.403
  627SOL     OW 1879   0.351   2.812   5.212
  627SOL    HW1 1880   0.431   2.844   5.170
  627SOL    HW2 1881   0.330   2.731   5.166
  628SOL     OW 1882   1.492   2.601   5.698
  628SOL    HW1 1883   1.487   2.543   5.774
  628SOL    HW2 1884   1.567   2.657   5.715
  629SOL     OW 1885   0.493   3.130   6.702
  629SOL    HW1 1886   0.446   3.135   6.618
  629SOL    HW2 1887   0.425   3.118   6.767
  630SOL     OW 1888   1.141   3.645   5.205
  630SOL    HW1 1889   1.085   3.584   5.254
  630SOL    HW2 1890   1.170   3.594   5.129
  631SOL     OW 1891   0.232   2.151   6.467
  631SOL    HW1 1892   0.154   2.207   6.459
  631SOL    HW2 1893   0.221   2.106   6.550
  632SOL     OW 1894   1.664   3.243   5.055
  632SOL    HW1 1895   1.628   3.331   5.042
  632SOL    HW2 1896   1.590   3.185   5.039
  633SOL     OW 1897   0.496   3.608   5.294
  633SOL    HW1 1898   0.530   3.650   5.373
  633SOL    HW2 1899   0.571   3.604   5.235
  634SOL     OW 1900   1.431   1.975   5.397
  634SOL    HW1 1901   1.412   1.941   5.310
  634SOL    HW2 1902   1.526   1.987   5.399
  635SOL     OW 1903   0.284   3.655   6.211
  635SOL    HW1 1904   0.334   3.588   6.258
  635SOL    HW2 1905   0.268   3.617   6.124
  636SOL     OW 1906   0.971   3.565   5.875
  636SOL    HW1 1907   1.046   3.508   5.892
  636SOL    HW2 1908   0.925   3.524   5.803
  637SOL     OW 1909   0.414   2.567   5.451
  637SOL    HW1 1910   0.452   2.479   5.450
  637SOL    HW2 1911   0.324   2.554   5.480
  638SOL     OW 1912   1.575   2.093   6.698
  638SOL    HW1 1913   1.573   2.120   6.790
  638SOL    HW2 1914   1.509   2.024   6.692
  639SOL     OW 1915   0.644   1.986   5.089
  639SOL    HW1 1916   0.739   1.968   5.091
  639SOL    HW2 1917   0.620   1.972   4.997
  640SOL     OW 1918   0.811   2.132   6.719
  640SOL    HW1 1919   0.874   2.073   6.761
  640SOL    HW2 1920   0.744   2.147   6.786
  641SOL     OW 1921   0.918   3.383   6.165
  641SOL    HW1 1922   0.898   3.353   6.077
  641SOL    HW2 1923   0.976   3.315   6.201
  642SOL     OW 1924   1.379   2.457   6.404
  642SOL    HW1 1925   1.410   2.419   6.486
  642SOL    HW2 1926   1.408   2.548   6.406
  643SOL     OW 1927   0.835   3.271   5.897
  643SOL    HW1 1928   0.919   3.279   5.852
  643SOL    HW2 1929   0.770   3.268   5.826
  644SOL     OW 1930   0.954   2.372   5.871
  644SOL    HW1 1931   0.930   2.359   5.779
  644SOL    HW2 1932   0.997   2.290   5.897
  645SOL     OW 1933   0.575   1.931   5.484
  645SOL    HW1 1934   0.493   1.933   5.535
  645SOL    HW2 1935   0.571   2.010   5.430
  646SOL     OW 1936   1.464   3.058   5.011
  646SOL    HW1 1937   1.493   2.985   5.065
  646SOL    HW2 1938   1.376   3.079   5.044
  647SOL     OW 1939   0.327   1.903   5.143
  647SOL    HW1 1940   0.379   1.981   5.124
  647SOL    HW2 1941   0.388   1.843   5.185
  648SOL     OW 1942   0.966   2.104   5.450
  648SOL    HW1 1943   0.925   2.144   5.373
  648SOL    HW2 1944   1.059   2.105   5.430
  649SOL     OW 1945   1.108   2.548   6.435
  649SOL    HW1 1946   1.034   2.488   6.437
  649SOL    HW2 1947   1.183   2.494   6.413
  650SOL     OW 1948   1.257   3.437   5.764
  650SOL    HW1 1949   1.281   3.508   5.704
  650SOL    HW2 1950   1.324   3.440   5.832
  651SOL     OW 1951   0.492   3.016   5.713
  651SOL    HW1 1952   0.419   2.993   5.771
  651SOL    HW2 1953   0.461   2.992   5.625
  652SOL     OW 1954   1.303   3.664   5.563
  652SOL    HW1 1955   1.342   3.728   5.504
  652SOL    HW2 1956   1.253   3.717   5.626
  653SOL     OW 1957   1.061   2.415   4.989
  653SOL    HW1 1958   1.026   2.496   4.953
  653SOL    HW2 1959   1.124   2.443   5.056
  654SOL     OW 1960   0.108   2.422   6.361
  654SOL    HW1 1961   0.195   2.424   6.321
  654SOL    HW2 1962   0.108   2.497   6.421
  655SOL     OW 1963   0.594   2.091   6.121
  655SOL    HW1 1964   0.626   2.008   6.157
  655SOL    HW2 1965   0.508   2.102   6.160
  656SOL     OW 1966   0.899   2.322   5.613
  656SOL    HW1 1967   0.865   2.386   5.551
  656SOL    HW2 1968   0.918   2.245   5.560
  657SOL     OW 1969   1.048   1.909   5.725
  657SOL    HW1 1970   0.979   1.908   5.659
  657SOL    HW2 1971   1.023   1.839   5.786
  658SOL     OW 1972   1.462   3.038   5.837
  658SOL    HW1 1973   1.406   2.960   5.828
  658SOL    HW2 1974   1.483   3.063   5.747
  659SOL     OW 1975   1.499   2.458   5.961
  659SOL    HW1 1976   1.468   2.368   5.972
  659SOL    HW2 1977   1.566   2.468   6.028
  660SOL     OW 1978   1.885   2.700   5.349
  660SOL    HW1 1979   1.929   2.637   5.406
  660SOL    HW2 1980   1.854   2.647   5.276
  661SOL     OW 1981   0.521   3.256   5.144
  661SOL    HW1 1982   0.437   3.237   5.187
  661SOL    HW2 1983   0.497   3.275   5.053
  662SOL     OW 1984   1.695   3.143   5.629
  662SOL    HW1 1985   1.790   3.156   5.641
  662SOL    HW2 1986   1.657   3.227   5.656
  663SOL     OW 1987   1.423   2.447   5.051
  663SOL    HW1 1988   1.370   2.419   5.125
  663SOL    HW2 1989   1.505   2.399   5.060
  664SOL     OW 1990   0.558   2.125   5.299
  664SOL    HW1 1991   0.585   2.070   5.226
  664SOL    HW2 1992   0.557   2.214   5.265
  665SOL     OW 1993   1.785   3.091   6.557
  665SOL    HW1 1994   1.873   3.057   6.548
  665SOL    HW2 1995   1.796   3.182   6.582
  666SOL     OW 1996   1.097   3.218   6.310
  666SOL    HW1 1997   1.021   3.190   6.362
  666SOL    HW2 1998   1.173   3.184   6.359
  667SOL     OW 1999   1.623   3.496   6.601
  667SOL    HW1 2000   1.648   3.526   6.514
  667SOL    HW2 2001   1.704   3.458   6.637
  668SOL     OW 2002   1.144   3.062   6.073
  668SOL    HW1 2003   1.100   3.106   6.146
  668SOL    HW2 2004   1.102   3.099   5.995
  669SOL     OW 2005   1.669   2.967   6.049
  669SOL    HW1 2006   1.669   3.042   6.108
  669SOL    HW2 2007   1.585   2.972   6.004
  670SOL     OW 2008   0.946   1.959   6.374
  670SOL    HW1 2009   0.972   1.940   6.284
  670SOL    HW2 2010   1.019   2.009   6.410
  671SOL     OW 2011   1.012   2.982   6.690
  671SOL    HW1 2012   0.917   2.987   6.699
  671SOL    HW2 2013   1.028   2.905   6.635
  672SOL     OW 2014   0.737   2.920   5.340
  672SOL    HW1 2015   0.725   2.920   5.435
  672SOL    HW2 2016   0.815   2.868   5.325
  673SOL     OW 2017   0.443   2.679   6.220
  673SOL    HW1 2018   0.521   2.689   6.275
  673SOL    HW2 2019   0.404   2.596   6.248
  674SOL     OW 2020   1.305   2.251   6.234
  674SOL    HW1 2021   1.324   2.326   6.292
  674SOL    HW2 2022   1.220   2.272   6.196
  675SOL     OW 2023   0.108   3.431   6.271
  675SOL    HW1 2024   0.058   3.512   6.273
  675SOL    HW2 2025   0.191   3.453   6.313
  676SOL     OW 2026   0.398   2.967   5.471
  676SOL    HW1 2027   0.390   3.044   5.414
  676SOL    HW2 2028   0.400   2.893   5.411
  677SOL     OW 2029   0.596   2.404   5.836
  677SOL    HW1 2030   0.610   2.468   5.767
  677SOL    HW2 2031   0.642   2.439   5.912
  678SOL     OW 2032   1.282   3.215   5.359
  678SOL    HW1 2033   1.328   3.289   5.398
  678SOL    HW2 2034   1.193   3.222   5.393
  679SOL     OW 2035   1.302   3.314   6.113
  679SOL    HW1 2036   1.348   3.322   6.197
  679SOL    HW2 2037   1.242   3.240   6.125
  680SOL     OW 2038   1.613   2.504   5.443
  680SOL    HW1 2039   1.584   2.566   5.510
  680SOL    HW2 2040   1.660   2.558   5.380
  681SOL     OW 2041   0.384   3.380   6.299
  681SOL    HW1 2042   0.369   3.336   6.215
  681SOL    HW2 2043   0.478   3.399   6.299
  682SOL     OW 2044   0.434   2.617   6.569
  682SOL    HW1 2045   0.501   2.666   6.522
  682SOL    HW2 2046   0.476   2.534   6.592
  683SOL     OW 2047   1.618   2.643   6.641
  683SOL    HW1 2048   1.531   2.684   6.634
  683SOL    HW2 2049   1.672   2.691   6.579
  684SOL     OW 2050   1.040   1.972   6.740
  684SOL    HW1 2051   1.054   2.052   6.688
  684SOL    HW2 2052   1.077   1.902   6.687
  685SOL     OW 2053   0.535   1.918   6.712
  685SOL    HW1 2054   0.493   1.863   6.645
  685SOL    HW2 2055   0.468   1.981   6.737
  686SOL     OW 2056   0.606   2.736   6.000
  686SOL    HW1 2057   0.643   2.824   5.995
  686SOL    HW2 2058   0.546   2.741   6.075
  687SOL     OW 2059   1.392   2.729   6.015
  687SOL    HW1 2060   1.319   2.725   5.953
  687SOL    HW2 2061   1.424   2.639   6.021
  688SOL     OW 2062   1.243   2.393   5.246
  688SOL    HW1 2063   1.249   2.314   5.299
  688SOL    HW2 2064   1.210   2.460   5.306
  689SOL     OW 2065   0.338   2.079   6.205
  689SOL    HW1 2066   0.312   2.111   6.291
  689SOL    HW2 2067   0.308   1.988   6.203
  690SOL     OW 2068   0.076   3.174   6.250
  690SOL    HW1 2069   0.122   3.132   6.323
  690SOL    HW2 2070   0.090   3.268   6.263
  691SOL     OW 2071   0.763   2.501   6.036
  691SOL    HW1 2072   0.820   2.479   5.962
  691SOL    HW2 2073   0.737   2.592   6.019
  692SOL     OW 2074   1.762   2.807   6.825
  692SOL    HW1 2075   1.712   2.794   6.744
  692SOL    HW2 2076   1.697   2.842   6.886
  693SOL     OW 2077   0.336   1.932   5.590
  693SOL    HW1 2078   0.325   2.020   5.625
  693SOL    HW2 2079   0.332   1.875   5.667
  694SOL     OW 2080   1.650   2.234   5.342
  694SOL    HW1 2081   1.657   2.165   5.409
  694SOL    HW2 2082   1.608   2.307   5.388
  695SOL     OW 2083   1.054   2.633   5.937
  695SOL    HW1 2084   1.067   2.649   6.030
  695SOL    HW2 2085   1.026   2.541   5.932
  696SOL     OW 2086   1.013   3.439   6.673
  696SOL    HW1 2087   0.993   3.478   6.589
  696SOL    HW2 2088   1.049   3.353   6.652
  697SOL     OW 2089   1.890   3.384   6.577
  697SOL    HW1 2090   1.906   3.411   6.486
  697SOL    HW2 2091   1.970   3.407   6.623
  698SOL     OW 2092   0.380   2.770   6.776
  698SOL    HW1 2093   0.458   2.805   6.819
  698SOL    HW2 2094   0.414   2.721   6.701
  699SOL     OW 2095   1.570   2.143   5.096
  699SOL    HW1 2096   1.512   2.071   5.121
  699SOL    HW2 2097   1.592   2.186   5.178
  700SOL     OW 2098   1.332   2.703   5.011
  700SOL    HW1 2099   1.368   2.615   5.022
  700SOL    HW2 2100   1.355   2.727   4.922
  701SOL     OW 2101   1.098   3.200   5.820
  701SOL    HW1 2102   1.107   3.123   5.765
  701SOL    HW2 2103   1.160   3.263   5.784
  702SOL     OW 2104   0.353   2.675   5.915
  702SOL    HW1 2105   0.443   2.707   5.926
  702SOL    HW2 2106   0.349   2.596   5.969
  703SOL     OW 2107   0.369   2.378   5.977
  703SOL    HW1 2108   0.324   2.296   5.959
  703SOL    HW2 2109   0.443   2.379   5.915
  704SOL     OW 2110   1.168   2.248   6.648
  704SOL    HW1 2111   1.129   2.308   6.711
  704SOL    HW2 2112   1.257   2.280   6.637
  705SOL     OW 2113   1.190   2.073   6.447
  705SOL    HW1 2114   1.190   2.136   6.518
  705SOL    HW2 2115   1.219   2.123   6.370
  706SOL     OW 2116   0.039   3.182   5.127
  706SOL    HW1 2117  -0.051   3.210   5.142
  706SOL    HW2 2118   0.049   3.104   5.183
  707SOL     OW 2119   0.123   3.673   5.891
  707SOL    HW1 2120   0.084   3.589   5.866
  707SOL    HW2 2121   0.213   3.667   5.861
  708SOL     OW 2122   0.534   3.437   5.877
  708SOL    HW1 2123   0.602   3.503   5.891
  708SOL    HW2 2124   0.580   3.362   5.840
  709SOL     OW 2125   1.032   2.663   6.207
  709SOL    HW1 2126   1.069   2.632   6.290
  709SOL    HW2 2127   0.941   2.635   6.210
  710SOL     OW 2128   0.072   2.414   6.083
  710SOL    HW1 2129   0.155   2.379   6.050
  710SOL    HW2 2130   0.085   2.422   6.177
  711SOL     OW 2131   0.216   2.384   6.693
  711SOL    HW1 2132   0.276   2.351   6.626
  711SOL    HW2 2133   0.168   2.455   6.649
  712SOL     OW 2134   1.402   2.814   6.631
  712SOL    HW1 2135   1.435   2.903   6.645
  712SOL    HW2 2136   1.409   2.800   6.537
  713SOL     OW 2137   0.846   2.437   5.301
  713SOL    HW1 2138   0.849   2.356   5.252
  713SOL    HW2 2139   0.758   2.472   5.286
  714SOL     OW 2140   1.683   2.470   6.173
  714SOL    HW1 2141   1.656   2.404   6.236
  714SOL    HW2 2142   1.766   2.437   6.137
  715SOL     OW 2143   0.289   3.430   6.715
  715SOL    HW1 2144   0.252   3.483   6.786
  715SOL    HW2 2145   0.273   3.339   6.742
  716SOL     OW 2146   0.706   2.330   6.240
  716SOL    HW1 2147   0.670   2.248   6.208
  716SOL    HW2 2148   0.724   2.381   6.161
  717SOL     OW 2149   0.962   3.544   6.436
  717SOL    HW1 2150   0.938   3.530   6.344
  717SOL    HW2 2151   0.986   3.636   6.441
  718SOL     OW 2152   0.504   2.366   5.162
  718SOL    HW1 2153   0.559   2.444   5.168
  718SOL    HW2 2154   0.415   2.399   5.168
  719SOL     OW 2155   0.190   3.006   6.437
  719SOL    HW1 2156   0.208   2.945   6.508
  719SOL    HW2 2157   0.200   2.953   6.357
  720SOL     OW 2158   1.377   2.923   6.204
  720SOL    HW1 2159   1.397   2.865   6.131
  720SOL    HW2 2160   1.292   2.962   6.182
  721SOL     OW 2161   1.334   2.720   5.281
  721SOL    HW1 2162   1.250   2.692   5.317
  721SOL    HW2 2163   1.324   2.709   5.187
  722SOL     OW 2164   1.789   3.616   6.124
  722SOL    HW1 2165   1.849   3.639   6.053
  722SOL    HW2 2166   1.759   3.528   6.101
  723SOL     OW 2167   1.281   3.598   6.098
  723SOL    HW1 2168   1.362   3.601   6.047
  723SOL    HW2 2169   1.265   3.505   6.114
  724SOL     OW 2170   0.116   3.124   5.992
  724SOL    HW1 2171   0.107   3.126   6.087
  724SOL    HW2 2172   0.033   3.087   5.961
  725SOL     OW 2173   0.717   3.528   6.687
  725SOL    HW1 2174   0.666   3.609   6.692
  725SOL    HW2 2175   0.767   3.536   6.606
  726SOL     OW 2176   0.934   1.953   5.103
  726SOL    HW1 2177   0.986   1.952   5.023
  726SOL    HW2 2178   0.989   1.911   5.169
  727SOL     OW 2179   1.755   2.002   5.492
  727SOL    HW1 2180   1.826   1.984   5.431
  727SOL    HW2 2181   1.731   1.917   5.529
  728SOL     OW 2182   1.419   3.439   5.448
  728SOL    HW1 2183   1.482   3.456   5.378
  728SOL    HW2 2184   1.382   3.524   5.469
  729SOL     OW 2185   0.161   3.665   6.820
  729SOL    HW1 2186   0.123   3.593   6.871
  729SOL    HW2 2187   0.222   3.707   6.881
  730SOL     OW 2188   1.309   2.791   5.642
  730SOL    HW1 2189   1.373   2.720   5.643
  730SOL    HW2 2190   1.349   2.859   5.587
  731SOL     OW 2191   0.859   3.137   6.396
  731SOL    HW1 2192   0.850   3.174   6.484
  731SOL    HW2 2193   0.777   3.160   6.352
  732SOL     OW 2194   0.704   3.482   5.126
  732SOL    HW1 2195   0.709   3.489   5.031
  732SOL    HW2 2196   0.662   3.397   5.142
  733SOL     OW 2197   1.681   3.588   6.365
  733SOL    HW1 2198   1.729   3.601   6.283
  733SOL    HW2 2199   1.657   3.676   6.394
  734SOL     OW 2200   1.872   2.041   5.937
  734SOL    HW1 2201   1.905   1.959   5.899
  734SOL    HW2 2202   1.780   2.044   5.910
  735SOL     OW 2203   0.298   2.193   5.692
  735SOL    HW1 2204   0.219   2.237   5.662
  735SOL    HW2 2205   0.284   2.179   5.786
  736SOL     OW 2206   1.224   3.480   5.004
  736SOL    HW1 2207   1.231   3.389   5.034
  736SOL    HW2 2208   1.170   3.475   4.925
  737SOL     OW 2209   0.854   2.869   6.343
  737SOL    HW1 2210   0.893   2.872   6.256
  737SOL    HW2 2211   0.863   2.959   6.376
  738SOL     OW 2212   0.947   2.778   5.263
  738SOL    HW1 2213   1.009   2.810   5.197
  738SOL    HW2 2214   0.988   2.699   5.298
  739SOL     OW 2215   1.536   3.478   5.017
  739SOL    HW1 2216   1.445   3.508   5.016
  739SOL    HW2 2217   1.568   3.495   4.928
  740SOL     OW 2218   0.403   3.156   6.460
  740SOL    HW1 2219   0.387   3.243   6.425
  740SOL    HW2 2220   0.321   3.109   6.446
  741SOL     OW 2221   1.644   3.157   6.259
  741SOL    HW1 2222   1.701   3.163   6.336
  741SOL    HW2 2223   1.576   3.222   6.275
  742SOL     OW 2224   1.070   2.966   5.668
  742SOL    HW1 2225   1.004   2.917   5.717
  742SOL    HW2 2226   1.126   2.899   5.629
  743SOL     OW 2227   1.046   2.104   5.941
  743SOL    HW1 2228   1.037   2.064   5.854
  743SOL    HW2 2229   1.042   2.031   6.002
  744SOL     OW 2230   0.625   3.356   5.461
  744SOL    HW1 2231   0.659   3.301   5.391
  744SOL    HW2 2232   0.578   3.426   5.416
  745SOL     OW 2233   1.741   2.252   6.353
  745SOL    HW1 2234   1.812   2.317   6.352
  745SOL    HW2 2235   1.771   2.183   6.294
  746SOL     OW 2236   0.288   3.217   5.259
  746SOL    HW1 2237   0.195   3.215   5.237
  746SOL    HW2 2238   0.292   3.263   5.343
  747SOL     OW 2239   0.137   2.880   6.696
  747SOL    HW1 2240   0.066   2.847   6.751
  747SOL    HW2 2241   0.217   2.848   6.740
  748SOL     OW 2242   0.702   2.069   6.461
  748SOL    HW1 2243   0.789   2.053   6.425
  748SOL    HW2 2244   0.716   2.076   6.555
  749SOL     OW 2245   0.106   2.212   5.005
  749SOL    HW1 2246   0.018   2.188   4.974
  749SOL    HW2 2247   0.132   2.284   4.948
  750SOL     OW 2248   1.470   2.724   6.371
  750SOL    HW1 2249   1.419   2.775   6.308
  750SOL    HW2 2250   1.561   2.735   6.343
  751SOL     OW 2251   0.104   2.037   5.293
  751SOL    HW1 2252   0.091   2.111   5.233
  751SOL    HW2 2253   0.187   1.998   5.265
  752SOL     OW 2254   1.214   3.208   5.089
  752SOL    HW1 2255   1.120   3.189   5.096
  752SOL    HW2 2256   1.244   3.213   5.180
  753SOL     OW 2257   0.644   2.708   6.402
  753SOL    HW1 2258   0.700   2.784   6.386
  753SOL    HW2 2259   0.704   2.634   6.405
  754SOL     OW 2260   1.522   3.635   5.931
  754SOL    HW1 2261   1.558   3.695   5.866
  754SOL    HW2 2262   1.590   3.630   5.999
  755SOL     OW 2263   0.745   2.432   6.680
  755SOL    HW1 2264   0.769   2.492   6.750
  755SOL    HW2 2265   0.804   2.357   6.692
  756SOL     OW 2266   1.482   3.084   6.604
  756SOL    HW1 2267   1.477   3.080   6.699
  756SOL    HW2 2268   1.576   3.081   6.585
  757SOL     OW 2269   0.420   3.608   6.531
  757SOL    HW1 2270   0.331   3.644   6.529
  757SOL    HW2 2271   0.409   3.519   6.563
  758SOL     OW 2272   1.705   2.750   6.226
  758SOL    HW1 2273   1.682   2.666   6.187
  758SOL    HW2 2274   1.704   2.812   6.153
  759SOL     OW 2275   1.255   2.191   5.421
  759SOL    HW1 2276   1.320   2.121   5.414
  759SOL    HW2 2277   1.278   2.237   5.502
  760SOL     OW 2278   0.625   2.612   5.625
  760SOL    HW1 2279   0.669   2.694   5.605
  760SOL    HW2 2280   0.543   2.615   5.575
  761SOL     OW 2281   1.807   2.213   6.614
  761SOL    HW1 2282   1.787   2.236   6.523
  761SOL    HW2 2283   1.727   2.172   6.647
  762SOL     OW 2284   1.762   2.801   6.487
  762SOL    HW1 2285   1.796   2.890   6.498
  762SOL    HW2 2286   1.755   2.789   6.393
  763SOL     OW 2287   0.891   3.240   4.987
  763SOL    HW1 2288   0.848   3.257   5.071
  763SOL    HW2 2289   0.930   3.325   4.963
  764SOL     OW 2290   0.691   3.657   5.924
  764SOL    HW1 2291   0.653   3.744   5.909
  764SOL    HW2 2292   0.785   3.670   5.916
  765SOL     OW 2293   0.891   2.824   5.831
  765SOL    HW1 2294   0.942   2.759   5.880
  765SOL    HW2 2295   0.862   2.887   5.898
  766SOL     OW 2296   1.112   2.850   5.058
  766SOL    HW1 2297   1.095   2.901   4.978
  766SOL    HW2 2298   1.191   2.800   5.038
  767SOL     OW 2299   1.892   3.435   5.821
  767SOL    HW1 2300   1.822   3.421   5.757
  767SOL    HW2 2301   1.889   3.359   5.878
  768SOL     OW 2302   0.255   3.178   6.816
  768SOL    HW1 2303   0.188   3.112   6.798
  768SOL    HW2 2304   0.250   3.192   6.911
  769SOL     OW 2305   0.113   3.109   5.628
  769SOL    HW1 2306   0.114   3.059   5.709
  769SOL    HW2 2307   0.188   3.076   5.578
  770SOL     OW 2308   0.704   3.259   6.594
  770SOL    HW1 2309   0.628   3.215   6.630
  770SOL    HW2 2310   0.698   3.348   6.627
  771SOL     OW 2311   1.852   2.059   6.201
  771SOL    HW1 2312   1.852   1.970   6.235
  771SOL    HW2 2313   1.859   2.048   6.106
  772SOL     OW 2314   0.460   2.293   5.491
  772SOL    HW1 2315   0.486   2.220   5.435
  772SOL    HW2 2316   0.422   2.251   5.568
  773SOL     OW 2317   1.735   3.357   6.076
  773SOL    HW1 2318   1.648   3.327   6.050
  773SOL    HW2 2319   1.757   3.303   6.152
  774SOL     OW 2320   0.350   2.415   6.253
  774SOL    HW1 2321   0.390   2.356   6.317
  774SOL    HW2 2322   0.386   2.388   6.169
  775SOL     OW 2323   0.845   3.450   5.659
  775SOL    HW1 2324   0.869   3.463   5.567
  775SOL    HW2 2325   0.768   3.394   5.656
  776SOL     OW 2326   1.457   2.082   6.084
  776SOL    HW1 2327   1.503   2.019   6.140
  776SOL    HW2 2328   1.409   2.138   6.145
  777SOL     OW 2329   1.033   1.900   6.124
  777SOL    HW1 2330   0.976   1.829   6.094
  777SOL    HW2 2331   1.120   1.862   6.124
  778SOL     OW 2332   0.801   3.198   5.273
  778SOL    HW1 2333   0.760   3.113   5.289
  778SOL    HW2 2334   0.887   3.191   5.314
  779SOL     OW 2335   0.648   3.434   6.254
  779SOL    HW1 2336   0.649   3.512   6.309
  779SOL    HW2 2337   0.735   3.432   6.214
  780SOL     OW 2338   1.384   1.919   5.139
  780SOL    HW1 2339   1.413   1.878   5.058
  780SOL    HW2 2340   1.297   1.881   5.156
  781SOL     OW 2341   1.331   2.321   5.661
  781SOL    HW1 2342   1.274   2.397   5.669
  781SOL    HW2 2343   1.341   2.288   5.751
  782SOL     OW 2344   1.623   2.086   5.853
  782SOL    HW1 2345   1.543   2.091   5.904
  782SOL    HW2 2346   1.623   2.166   5.800
  783SOL     OW 2347   0.071   2.942   5.266
  783SOL    HW1 2348   0.165   2.929   5.265
  783SOL    HW2 2349   0.036   2.861   5.303
  784SOL     OW 2350   0.906   3.511   5.311
  784SOL    HW1 2351   0.832   3.485   5.257
  784SOL    HW2 2352   0.873   3.583   5.365
  785SOL     OW 2353   0.261   2.497   6.947
  785SOL    HW1 2354   0.171   2.490   6.979
  785SOL    HW2 2355   0.259   2.457   6.860
  786SOL     OW 2356   0.254   2.142   7.826
  786SOL    HW1 2357   0.286   2.124   7.914
  786SOL    HW2 2358   0.170   2.096   7.821
  787SOL     OW 2359   0.048   2.240   7.476
  787SOL    HW1 2360  -0.032   2.273   7.517
  787SOL    HW2 2361   0.019   2.166   7.423
  788SOL     OW 2362   0.600   3.141   7.998
  788SOL    HW1 2363   0.511   3.139   7.964
  788SOL    HW2 2364   0.608   3.228   8.039
  789SOL     OW 2365   1.586   3.379   7.536
  789SOL    HW1 2366   1.530   3.364   7.612
  789SOL    HW2 2367   1.524   3.387   7.463
  790SOL     OW 2368   1.164   2.570   7.548
  790SOL    HW1 2369   1.218   2.647   7.529
  790SOL    HW2 2370   1.111   2.596   7.623
  791SOL     OW 2371   1.787   2.475   7.065
  791SOL    HW1 2372   1.774   2.460   6.972
  791SOL    HW2 2373   1.757   2.395   7.107
  792SOL     OW 2374   0.799   3.011   7.858
  792SOL    HW1 2375   0.724   3.033   7.914
  792SOL    HW2 2376   0.828   3.095   7.823
  793SOL     OW 2377   0.882   2.664   8.655
  793SOL    HW1 2378   0.878   2.738   8.715
  793SOL    HW2 2379   0.903   2.702   8.571
  794SOL     OW 2380   0.717   2.881   7.495
  794SOL    HW1 2381   0.779   2.864   7.566
  794SOL    HW2 2382   0.648   2.932   7.537
  795SOL     OW 2383   0.720   3.027   8.636
  795SOL    HW1 2384   0.773   3.105   8.649
  795SOL    HW2 2385   0.638   3.059   8.598
  796SOL     OW 2386   0.364   3.303   7.897
  796SOL    HW1 2387   0.293   3.272   7.841
  796SOL    HW2 2388   0.419   3.355   7.838
  797SOL     OW 2389   1.491   3.371   8.172
  797SOL    HW1 2390   1.515   3.460   8.199
  797SOL    HW2 2391   1.474   3.325   8.255
  798SOL     OW 2392   0.470   2.261   8.331
  798SOL    HW1 2393   0.546   2.203   8.339
  798SOL    HW2 2394   0.395   2.202   8.337
  799SOL     OW 2395   1.636   2.315   7.569
  799SOL    HW1 2396   1.565   2.360   7.524
  799SOL    HW2 2397   1.679   2.383   7.620
  800SOL     OW 2398   0.265   3.576   7.315
  800SOL    HW1 2399   0.294   3.653   7.363
  800SOL    HW2 2400   0.308   3.583   7.230
  801SOL     OW 2401   1.160   3.208   8.522
  801SOL    HW1 2402   1.202   3.205   8.608
  801SOL    HW2 2403   1.112   3.125   8.516
  802SOL     OW 2404   0.262   3.302   7.371
  802SOL    HW1 2405   0.234   3.394   7.374
  802SOL    HW2 2406   0.191   3.254   7.415
  803SOL     OW 2407   0.270   2.957   7.719
  803SOL    HW1 2408   0.281   2.878   7.772
  803SOL    HW2 2409   0.220   3.016   7.774
  804SOL     OW 2410   0.651   3.654   8.271
  804SOL    HW1 2411   0.564   3.640   8.308
  804SOL    HW2 2412   0.675   3.742   8.297
  805SOL     OW 2413   0.633   2.833   6.958
  805SOL    HW1 2414   0.649   2.911   6.905
  805SOL    HW2 2415   0.681   2.849   7.039
  806SOL     OW 2416   1.626   1.981   8.311
  806SOL    HW1 2417   1.608   2.049   8.247
  806SOL    HW2 2418   1.621   2.025   8.396
  807SOL     OW 2419   0.155   2.509   7.397
  807SOL    HW1 2420   0.110   2.427   7.416
  807SOL    HW2 2421   0.148   2.560   7.477
  808SOL     OW 2422   1.874   3.633   7.188
  808SOL    HW1 2423   1.925   3.609   7.265
  808SOL    HW2 2424   1.904   3.721   7.166
  809SOL     OW 2425   0.057   3.463   6.951
  809SOL    HW1 2426   0.041   3.372   6.974
  809SOL    HW2 2427   0.026   3.513   7.027
  810SOL     OW 2428   1.720   2.789   7.449
  810SOL    HW1 2429   1.812   2.761   7.450
  810SOL    HW2 2430   1.713   2.847   7.374
  811SOL     OW 2431   1.673   2.974   7.265
  811SOL    HW1 2432   1.756   2.982   7.218
  811SOL    HW2 2433   1.687   3.024   7.345
  812SOL     OW 2434   0.144   2.605   8.430
  812SOL    HW1 2435   0.231   2.599   8.470
  812SOL    HW2 2436   0.133   2.697   8.410
  813SOL     OW 2437   0.644   3.235   7.561
  813SOL    HW1 2438   0.596   3.152   7.566
  813SOL    HW2 2439   0.620   3.270   7.475
  814SOL     OW 2440   1.324   3.098   8.257
  814SOL    HW1 2441   1.360   3.028   8.203
  814SOL    HW2 2442   1.375   3.096   8.337
  815SOL     OW 2443   0.839   1.869   7.334
  815SOL    HW1 2444   0.876   1.956   7.328
  815SOL    HW2 2445   0.744   1.883   7.342
  816SOL     OW 2446   0.229   2.842   8.104
  816SOL    HW1 2447   0.311   2.797   8.082
  816SOL    HW2 2448   0.161   2.782   8.072
  817SOL     OW 2449   1.560   2.863   7.023
  817SOL    HW1 2450   1.496   2.794   7.041
  817SOL    HW2 2451   1.599   2.882   7.108
  818SOL     OW 2452   1.216   3.661   8.449
  818SOL    HW1 2453   1.242   3.715   8.374
  818SOL    HW2 2454   1.227   3.571   8.418
  819SOL     OW 2455   0.348   2.134   8.592
  819SOL    HW1 2456   0.420   2.181   8.635
  819SOL    HW2 2457   0.275   2.141   8.654
  820SOL     OW 2458   1.496   3.285   7.786
  820SOL    HW1 2459   1.437   3.289   7.861
  820SOL    HW2 2460   1.481   3.199   7.748
  821SOL     OW 2461   1.697   3.583   7.406
  821SOL    HW1 2462   1.659   3.557   7.322
  821SOL    HW2 2463   1.678   3.510   7.465
  822SOL     OW 2464   0.627   2.594   7.101
  822SOL    HW1 2465   0.649   2.665   7.040
  822SOL    HW2 2466   0.556   2.630   7.154
  823SOL     OW 2467   1.313   2.211   7.772
  823SOL    HW1 2468   1.230   2.164   7.768
  823SOL    HW2 2469   1.367   2.159   7.832
  824SOL     OW 2470   1.608   3.530   7.140
  824SOL    HW1 2471   1.693   3.572   7.139
  824SOL    HW2 2472   1.590   3.508   7.049
  825SOL     OW 2473   0.836   2.474   8.295
  825SOL    HW1 2474   0.793   2.466   8.380
  825SOL    HW2 2475   0.785   2.418   8.237
  826SOL     OW 2476   1.424   2.336   8.507
  826SOL    HW1 2477   1.411   2.376   8.593
  826SOL    HW2 2478   1.499   2.277   8.519
  827SOL     OW 2479   1.001   2.758   8.407
  827SOL    HW1 2480   1.047   2.680   8.376
  827SOL    HW2 2481   0.951   2.788   8.331
  828SOL     OW 2482   1.023   2.277   8.075
  828SOL    HW1 2483   0.946   2.307   8.123
  828SOL    HW2 2484   0.987   2.229   8.001
  829SOL     OW 2485   1.074   2.568   7.262
  829SOL    HW1 2486   1.093   2.562   7.355
  829SOL    HW2 2487   0.992   2.520   7.250
  830SOL     OW 2488   0.112   2.683   7.613
  830SOL    HW1 2489   0.204   2.671   7.636
  830SOL    HW2 2490   0.091   2.771   7.643
  831SOL     OW 2491   0.163   3.693   8.405
  831SOL    HW1 2492   0.148   3.673   8.498
  831SOL    HW2 2493   0.077   3.720   8.373
  832SOL     OW 2494   0.896   2.214   7.028
  832SOL    HW1 2495   0.954   2.272   6.979
  832SOL    HW2 2496   0.919   2.126   6.997
  833SOL     OW 2497   1.749   2.451   8.664
  833SOL    HW1 2498   1.724   2.535   8.626
  833SOL    HW2 2499   1.749   2.390   8.590
  834SOL     OW 2500   1.395   3.012   7.378
  834SOL    HW1 2501   1.473   2.987   7.328
  834SOL    HW2 2502   1.349   3.074   7.322
  835SOL     OW 2503   0.579   2.062   7.718
  835SOL    HW1 2504   0.577   2.064   7.814
  835SOL    HW2 2505   0.584   2.153   7.691
  836SOL     OW 2506   1.039   3.321   7.309
  836SOL    HW1 2507   0.996   3.393   7.263
  836SOL    HW2 2508   1.034   3.345   7.402
  837SOL     OW 2509   0.382   3.668   7.685
  837SOL    HW1 2510   0.433   3.588   7.693
  837SOL    HW2 2511   0.447   3.738   7.685
  838SOL     OW 2512   1.827   2.934   7.704
  838SOL    HW1 2513   1.764   2.918   7.634
  838SOL    HW2 2514   1.774   2.941   7.784
  839SOL     OW 2515   1.259   3.417   8.339
  839SOL    HW1 2516   1.260   3.341   8.398
  839SOL    HW2 2517   1.206   3.388   8.265
  840SOL     OW 2518   0.351   2.812   7.075
  840SOL    HW1 2519   0.431   2.844   7.033
  840SOL    HW2 2520   0.329   2.732   7.027
  841SOL     OW 2521   1.491   2.601   7.560
  841SOL    HW1 2522   1.487   2.543   7.636
  841SOL    HW2 2523   1.567   2.657   7.577
  842SOL     OW 2524   0.493   3.130   8.564
  842SOL    HW1 2525   0.446   3.135   8.480
  842SOL    HW2 2526   0.425   3.118   8.629
  843SOL     OW 2527   1.145   3.643   7.070
  843SOL    HW1 2528   1.084   3.585   7.114
  843SOL    HW2 2529   1.168   3.597   6.989
  844SOL     OW 2530   0.232   2.151   8.329
  844SOL    HW1 2531   0.154   2.207   8.321
  844SOL    HW2 2532   0.221   2.106   8.412
  845SOL     OW 2533   1.664   3.244   6.916
  845SOL    HW1 2534   1.628   3.332   6.904
  845SOL    HW2 2535   1.590   3.185   6.902
  846SOL     OW 2536   0.496   3.608   7.156
  846SOL    HW1 2537   0.530   3.650   7.235
  846SOL    HW2 2538   0.571   3.603   7.097
  847SOL     OW 2539   1.431   1.975   7.259
  847SOL    HW1 2540   1.412   1.941   7.172
  847SOL    HW2 2541   1.526   1.987   7.260
  848SOL     OW 2542   0.284   3.655   8.073
  848SOL    HW1 2543   0.334   3.588   8.120
  848SOL    HW2 2544   0.268   3.617   7.986
  849SOL     OW 2545   0.971   3.565   7.738
  849SOL    HW1 2546   1.046   3.508   7.754
  849SOL    HW2 2547   0.925   3.524   7.664
  850SOL     OW 2548   0.414   2.567   7.313
  850SOL    HW1 2549   0.452   2.479   7.312
  850SOL    HW2 2550   0.324   2.554   7.343
  851SOL     OW 2551   1.575   2.093   8.560
  851SOL    HW1 2552   1.573   2.120   8.652
  851SOL    HW2 2553   1.509   2.024   8.554
  852SOL     OW 2554   0.646   1.991   6.949
  852SOL    HW1 2555   0.738   1.964   6.953
  852SOL    HW2 2556   0.618   1.968   6.861
  853SOL     OW 2557   0.811   2.132   8.581
  853SOL    HW1 2558   0.874   2.073   8.623
  853SOL    HW2 2559   0.744   2.147   8.648
  854SOL     OW 2560   0.918   3.383   8.027
  854SOL    HW1 2561   0.898   3.353   7.939
  854SOL    HW2 2562   0.976   3.315   8.063
  855SOL     OW 2563   1.379   2.457   8.266
  855SOL    HW1 2564   1.410   2.419   8.348
  855SOL    HW2 2565   1.408   2.548   8.268
  856SOL     OW 2566   0.835   3.271   7.759
  856SOL    HW1 2567   0.919   3.279   7.714
  856SOL    HW2 2568   0.770   3.268   7.688
  857SOL     OW 2569   0.954   2.372   7.733
  857SOL    HW1 2570   0.930   2.359   7.641
  857SOL    HW2 2571   0.997   2.290   7.759
  858SOL     OW 2572   0.574   1.931   7.346
  858SOL    HW1 2573   0.493   1.933   7.397
  858SOL    HW2 2574   0.571   2.010   7.292
  859SOL     OW 2575   1.463   3.056   6.872
  859SOL    HW1 2576   1.493   2.985   6.928
  859SOL    HW2 2577   1.376   3.079   6.906
  860SOL     OW 2578   0.329   1.893   7.005
  860SOL    HW1 2579   0.375   1.975   6.986
  860SOL    HW2 2580   0.393   1.839   7.050
  861SOL     OW 2581   0.966   2.105   7.312
  861SOL    HW1 2582   0.925   2.144   7.235
  861SOL    HW2 2583   1.059   2.104   7.292
  862SOL     OW 2584   1.108   2.548   8.297
  862SOL    HW1 2585   1.034   2.488   8.299
  862SOL    HW2 2586   1.183   2.494   8.275
  863SOL     OW 2587   1.257   3.437   7.626
  863SOL    HW1 2588   1.280   3.507   7.566
  863SOL    HW2 2589   1.325   3.440   7.694
  864SOL     OW 2590   0.492   3.016   7.575
  864SOL    HW1 2591   0.419   2.993   7.633
  864SOL    HW2 2592   0.461   2.992   7.487
  865SOL     OW 2593   1.303   3.664   7.426
  865SOL    HW1 2594   1.342   3.728   7.366
  865SOL    HW2 2595   1.253   3.717   7.488
  866SOL     OW 2596   1.064   2.416   6.848
  866SOL    HW1 2597   1.025   2.497   6.816
  866SOL    HW2 2598   1.122   2.443   6.918
  867SOL     OW 2599   0.108   2.422   8.223
  867SOL    HW1 2600   0.195   2.424   8.183
  867SOL    HW2 2601   0.108   2.497   8.283
  868SOL     OW 2602   0.594   2.090   7.983
  868SOL    HW1 2603   0.626   2.008   8.019
  868SOL    HW2 2604   0.508   2.102   8.022
  869SOL     OW 2605   0.898   2.322   7.475
  869SOL    HW1 2606   0.865   2.386   7.413
  869SOL    HW2 2607   0.919   2.245   7.422
  870SOL     OW 2608   1.047   1.909   7.587
  870SOL    HW1 2609   0.979   1.908   7.521
  870SOL    HW2 2610   1.023   1.839   7.648
  871SOL     OW 2611   1.462   3.038   7.699
  871SOL    HW1 2612   1.406   2.960   7.690
  871SOL    HW2 2613   1.483   3.063   7.609
  872SOL     OW 2614   1.499   2.458   7.823
  872SOL    HW1 2615   1.468   2.368   7.834
  872SOL    HW2 2616   1.566   2.468   7.890
  873SOL     OW 2617   1.884   2.698   7.211
  873SOL    HW1 2618   1.929   2.635   7.268
  873SOL    HW2 2619   1.854   2.646   7.137
  874SOL     OW 2620   0.521   3.255   7.006
  874SOL    HW1 2621   0.437   3.238   7.049
  874SOL    HW2 2622   0.498   3.276   6.916
  875SOL     OW 2623   1.695   3.143   7.492
  875SOL    HW1 2624   1.790   3.156   7.503
  875SOL    HW2 2625   1.657   3.227   7.517
  876SOL     OW 2626   1.421   2.442   6.909
  876SOL    HW1 2627   1.371   2.420   6.988
  876SOL    HW2 2628   1.507   2.402   6.924
  877SOL     OW 2629   0.558   2.125   7.161
  877SOL    HW1 2630   0.584   2.070   7.088
  877SOL    HW2 2631   0.558   2.214   7.126
  878SOL     OW 2632   1.785   3.091   8.419
  878SOL    HW1 2633   1.873   3.057   8.410
  878SOL    HW2 2634   1.796   3.182   8.444
  879SOL     OW 2635   1.097   3.218   8.172
  879SOL    HW1 2636   1.021   3.190   8.224
  879SOL    HW2 2637   1.173   3.184   8.221
  880SOL     OW 2638   1.623   3.496   8.463
  880SOL    HW1 2639   1.648   3.526   8.376
  880SOL    HW2 2640   1.704   3.458   8.499
  881SOL     OW 2641   1.143   3.062   7.935
  881SOL    HW1 2642   1.100   3.106   8.008
  881SOL    HW2 2643   1.103   3.099   7.857
  882SOL     OW 2644   1.669   2.967   7.911
  882SOL    HW1 2645   1.669   3.042   7.970
  882SOL    HW2 2646   1.585   2.972   7.866
  883SOL     OW 2647   0.946   1.959   8.236
  883SOL    HW1 2648   0.972   1.940   8.146
  883SOL    HW2 2649   1.019   2.009   8.272
  884SOL     OW 2650   1.012   2.982   8.552
  884SOL    HW1 2651   0.917   2.987   8.561
  884SOL    HW2 2652   1.028   2.905   8.497
  885SOL     OW 2653   0.736   2.920   7.202
  885SOL    HW1 2654   0.725   2.920   7.297
  885SOL    HW2 2655   0.815   2.868   7.187
  886SOL     OW 2656   0.443   2.679   8.082
  886SOL    HW1 2657   0.521   2.689   8.136
  886SOL    HW2 2658   0.404   2.596   8.110
  887SOL     OW 2659   1.305   2.251   8.096
  887SOL    HW1 2660   1.324   2.326   8.154
  887SOL    HW2 2661   1.220   2.272   8.058
  888SOL     OW 2662   0.108   3.431   8.133
  888SOL    HW1 2663   0.058   3.512   8.135
  888SOL    HW2 2664   0.191   3.453   8.175
  889SOL     OW 2665   0.397   2.967   7.333
  889SOL    HW1 2666   0.391   3.044   7.276
  889SOL    HW2 2667   0.401   2.893   7.273
  890SOL     OW 2668   0.595   2.404   7.698
  890SOL    HW1 2669   0.611   2.468   7.629
  890SOL    HW2 2670   0.642   2.439   7.774
  891SOL     OW 2671   1.282   3.215   7.221
  891SOL    HW1 2672   1.328   3.289   7.260
  891SOL    HW2 2673   1.193   3.222   7.254
  892SOL     OW 2674   1.302   3.314   7.975
  892SOL    HW1 2675   1.348   3.321   8.059
  892SOL    HW2 2676   1.242   3.240   7.987
  893SOL     OW 2677   1.613   2.504   7.306
  893SOL    HW1 2678   1.584   2.567   7.372
  893SOL    HW2 2679   1.660   2.558   7.242
  894SOL     OW 2680   0.384   3.380   8.161
  894SOL    HW1 2681   0.369   3.336   8.077
  894SOL    HW2 2682   0.478   3.399   8.161
  895SOL     OW 2683   0.434   2.617   8.431
  895SOL    HW1 2684   0.501   2.666   8.384
  895SOL    HW2 2685   0.476   2.534   8.454
  896SOL     OW 2686   1.618   2.643   8.503
  896SOL    HW1 2687   1.531   2.684   8.496
  896SOL    HW2 2688   1.672   2.691   8.441
  897SOL     OW 2689   1.040   1.972   8.602
  897SOL    HW1 2690   1.054   2.052   8.550
  897SOL    HW2 2691   1.077   1.902   8.549
  898SOL     OW 2692   0.535   1.918   8.574
  898SOL    HW1 2693   0.493   1.863   8.507
  898SOL    HW2 2694   0.468   1.981   8.599
  899SOL     OW 2695   0.606   2.736   7.862
  899SOL    HW1 2696   0.644   2.824   7.857
  899SOL    HW2 2697   0.546   2.741   7.937
  900SOL     OW 2698   1.392   2.729   7.877
  900SOL    HW1 2699   1.319   2.725   7.815
  900SOL    HW2 2700   1.424   2.639   7.883
  901SOL     OW 2701   1.243   2.393   7.107
  901SOL    HW1 2702   1.249   2.314   7.161
  901SOL    HW2 2703   1.210   2.460   7.167
  902SOL     OW 2704   0.338   2.079   8.067
  902SOL    HW1 2705   0.312   2.111   8.153
  902SOL    HW2 2706   0.308   1.988   8.065
  903SOL     OW 2707   0.076   3.174   8.112
  903SOL    HW1 2708   0.122   3.132   8.185
  903SOL    HW2 2709   0.090   3.268   8.125
  904SOL     OW 2710   0.763   2.501   7.898
  904SOL    HW1 2711   0.820   2.479   7.824
  904SOL    HW2 2712   0.737   2.592   7.881
  905SOL     OW 2713   1.762   2.807   8.687
  905SOL    HW1 2714   1.712   2.794   8.606
  905SOL    HW2 2715   1.697   2.842   8.748
  906SOL     OW 2716   0.336   1.932   7.452
  906SOL    HW1 2717   0.325   2.020   7.487
  906SOL    HW2 2718   0.332   1.875   7.529
  907SOL     OW 2719   1.649   2.233   7.204
  907SOL    HW1 2720   1.657   2.165   7.271
  907SOL    HW2 2721   1.609   2.307   7.250
  908SOL     OW 2722   1.054   2.633   7.799
  908SOL    HW1 2723   1.067   2.649   7.892
  908SOL    HW2 2724   1.026   2.541   7.794
  909SOL     OW 2725   1.013   3.439   8.535
  909SOL    HW1 2726   0.993   3.478   8.451
  909SOL    HW2 2727   1.049   3.353   8.514
  910SOL     OW 2728   1.890   3.384   8.439
  910SOL    HW1 2729   1.906   3.411   8.348
  910SOL    HW2 2730   1.970   3.407   8.485
  911SOL     OW 2731   0.380   2.770   8.638
  911SOL    HW1 2732   0.458   2.805   8.681
  911SOL    HW2 2733   0.414   2.721   8.563
  912SOL     OW 2734   1.568   2.143   6.958
  912SOL    HW1 2735   1.512   2.071   6.985
  912SOL    HW2 2736   1.593   2.186   7.040
  913SOL     OW 2737   1.333   2.703   6.874
  913SOL    HW1 2738   1.369   2.615   6.883
  913SOL    HW2 2739   1.354   2.729   6.785
  914SOL     OW 2740   1.098   3.200   7.682
  914SOL    HW1 2741   1.107   3.123   7.627
  914SOL    HW2 2742   1.160   3.263   7.646
  915SOL     OW 2743   0.353   2.675   7.777
  915SOL    HW1 2744   0.442   2.707   7.788
  915SOL    HW2 2745   0.349   2.596   7.831
  916SOL     OW 2746   0.369   2.379   7.839
  916SOL    HW1 2747   0.324   2.296   7.821
  916SOL    HW2 2748   0.443   2.379   7.777
  917SOL     OW 2749   1.168   2.248   8.510
  917SOL    HW1 2750   1.129   2.308   8.573
  917SOL    HW2 2751   1.257   2.280   8.499
  918SOL     OW 2752   1.190   2.073   8.309
  918SOL    HW1 2753   1.190   2.136   8.380
  918SOL    HW2 2754   1.219   2.123   8.232
  919SOL     OW 2755   0.039   3.181   6.989
  919SOL    HW1 2756  -0.051   3.211   7.004
  919SOL    HW2 2757   0.048   3.104   7.046
  920SOL     OW 2758   0.123   3.673   7.753
  920SOL    HW1 2759   0.084   3.589   7.728
  920SOL    HW2 2760   0.214   3.667   7.723
  921SOL     OW 2761   0.534   3.437   7.739
  921SOL    HW1 2762   0.602   3.503   7.753
  921SOL    HW2 2763   0.580   3.362   7.702
  922SOL     OW 2764   1.032   2.664   8.069
  922SOL    HW1 2765   1.069   2.632   8.152
  922SOL    HW2 2766   0.941   2.635   8.072
  923SOL     OW 2767   0.072   2.414   7.945
  923SOL    HW1 2768   0.155   2.379   7.912
  923SOL    HW2 2769   0.085   2.422   8.039
  924SOL     OW 2770   0.216   2.384   8.555
  924SOL    HW1 2771   0.276   2.351   8.488
  924SOL    HW2 2772   0.168   2.455   8.511
  925SOL     OW 2773   1.402   2.814   8.493
  925SOL    HW1 2774   1.435   2.903   8.507
  925SOL    HW2 2775   1.409   2.800   8.399
  926SOL     OW 2776   0.846   2.437   7.164
  926SOL    HW1 2777   0.849   2.356   7.113
  926SOL    HW2 2778   0.758   2.472   7.148
  927SOL     OW 2779   1.683   2.470   8.035
  927SOL    HW1 2780   1.656   2.404   8.098
  927SOL    HW2 2781   1.766   2.437   7.999
  928SOL     OW 2782   0.289   3.430   8.577
  928SOL    HW1 2783   0.252   3.483   8.648
  928SOL    HW2 2784   0.273   3.339   8.604
  929SOL     OW 2785   0.705   2.330   8.102
  929SOL    HW1 2786   0.670   2.248   8.070
  929SOL    HW2 2787   0.724   2.381   8.023
  930SOL     OW 2788   0.962   3.544   8.298
  930SOL    HW1 2789   0.938   3.530   8.206
  930SOL    HW2 2790   0.986   3.636   8.303
  931SOL     OW 2791   0.504   2.366   7.025
  931SOL    HW1 2792   0.559   2.444   7.030
  931SOL    HW2 2793   0.415   2.400   7.028
  932SOL     OW 2794   0.190   3.006   8.299
  932SOL    HW1 2795   0.208   2.945   8.370
  932SOL    HW2 2796   0.200   2.953   8.219
  933SOL     OW 2797   1.377   2.923   8.066
  933SOL    HW1 2798   1.397   2.865   7.993
  933SOL    HW2 2799   1.292   2.962   8.044
  934SOL     OW 2800   1.334   2.720   7.143
  934SOL    HW1 2801   1.250   2.692   7.179
  934SOL    HW2 2802   1.324   2.709   7.049
  935SOL     OW 2803   1.789   3.616   7.986
  935SOL    HW1 2804   1.849   3.639   7.915
  935SOL    HW2 2805   1.759   3.528   7.963
  936SOL     OW 2806   1.281   3.598   7.960
  936SOL    HW1 2807   1.362   3.601   7.909
  936SOL    HW2 2808   1.265   3.505   7.976
  937SOL     OW 2809   0.116   3.124   7.854
  937SOL    HW1 2810   0.107   3.126   7.949
  937SOL    HW2 2811   0.033   3.087   7.823
  938SOL     OW 2812   0.717   3.528   8.549
  938SOL    HW1 2813   0.666   3.609   8.554
  938SOL    HW2 2814   0.767   3.536   8.468
  939SOL     OW 2815   1.755   2.002   7.355
  939SOL    HW1 2816   1.826   1.984   7.293
  939SOL    HW2 2817   1.731   1.917   7.391
  940SOL     OW 2818   1.420   3.439   7.311
  940SOL    HW1 2819   1.482   3.456   7.240
  940SOL    HW2 2820   1.381   3.524   7.331
  941SOL     OW 2821   0.161   3.665   8.682
  941SOL    HW1 2822   0.123   3.593   8.733
  941SOL    HW2 2823   0.222   3.707   8.743
  942SOL     OW 2824   1.309   2.791   7.504
  942SOL    HW1 2825   1.373   2.720   7.505
  942SOL    HW2 2826   1.349   2.859   7.449
  943SOL     OW 2827   0.859   3.137   8.258
  943SOL    HW1 2828   0.850   3.174   8.346
  943SOL    HW2 2829   0.777   3.160   8.214
  944SOL     OW 2830   0.702   3.483   6.988
  944SOL    HW1 2831   0.711   3.489   6.893
  944SOL    HW2 2832   0.663   3.397   7.002
  945SOL     OW 2833   1.681   3.588   8.227
  945SOL    HW1 2834   1.729   3.601   8.145
  945SOL    HW2 2835   1.657   3.676   8.256
  946SOL     OW 2836   1.872   2.041   7.799
  946SOL    HW1 2837   1.905   1.959   7.761
  946SOL    HW2 2838   1.780   2.044   7.772
  947SOL     OW 2839   0.298   2.193   7.554
  947SOL    HW1 2840   0.218   2.237   7.524
  947SOL    HW2 2841   0.284   2.179   7.648
  948SOL     OW 2842   1.226   3.479   6.865
  948SOL    HW1 2843   1.229   3.388   6.896
  948SOL    HW2 2844   1.168   3.477   6.789
  949SOL     OW 2845   0.854   2.869   8.205
  949SOL    HW1 2846   0.893   2.872   8.118
  949SOL    HW2 2847   0.863   2.959   8.238
  950SOL     OW 2848   0.947   2.778   7.124
  950SOL    HW1 2849   1.010   2.810   7.059
  950SOL    HW2 2850   0.988   2.699   7.160
  951SOL     OW 2851   1.537   3.479   6.878
  951SOL    HW1 2852   1.445   3.507   6.878
  951SOL    HW2 2853   1.566   3.494   6.788
  952SOL     OW 2854   0.403   3.156   8.322
  952SOL    HW1 2855   0.387   3.243   8.287
  952SOL    HW2 2856   0.321   3.109   8.308
  953SOL     OW 2857   1.644   3.157   8.121
  953SOL    HW1 2858   1.701   3.163   8.198
  953SOL    HW2 2859   1.576   3.222   8.137
  954SOL     OW 2860   1.070   2.966   7.530
  954SOL    HW1 2861   1.004   2.917   7.579
  954SOL    HW2 2862   1.126   2.899   7.490
  955SOL     OW 2863   1.046   2.104   7.803
  955SOL    HW1 2864   1.037   2.064   7.716
  955SOL    HW2 2865   1.042   2.030   7.864
  956SOL     OW 2866   0.624   3.355   7.323
  956SOL    HW1 2867   0.659   3.301   7.253
  956SOL    HW2 2868   0.578   3.426   7.278
  957SOL     OW 2869   1.741   2.252   8.215
  957SOL    HW1 2870   1.812   2.317   8.214
  957SOL    HW2 2871   1.771   2.183   8.156
  958SOL     OW 2872   0.287   3.218   7.119
  958SOL    HW1 2873   0.193   3.215   7.101
  958SOL    HW2 2874   0.294   3.262   7.204
  959SOL     OW 2875   0.137   2.880   8.558
  959SOL    HW1 2876   0.066   2.847   8.613
  959SOL    HW2 2877   0.217   2.848   8.602
  960SOL     OW 2878   0.702   2.069   8.323
  960SOL    HW1 2879   0.789   2.053   8.287
  960SOL    HW2 2880   0.716   2.076   8.417
  961SOL     OW 2881   0.091   2.218   6.867
  961SOL    HW1 2882   0.009   2.191   6.826
  961SOL    HW2 2883   0.127   2.284   6.808
  962SOL     OW 2884   1.470   2.724   8.233
  962SOL    HW1 2885   1.419   2.775   8.170
  962SOL    HW2 2886   1.561   2.735   8.205
  963SOL     OW 2887   0.103   2.037   7.156
  963SOL    HW1 2888   0.090   2.110   7.095
  963SOL    HW2 2889   0.186   1.997   7.129
  964SOL     OW 2890   1.214   3.206   6.951
  964SOL    HW1 2891   1.120   3.190   6.957
  964SOL    HW2 2892   1.243   3.213   7.042
  965SOL     OW 2893   0.644   2.708   8.264
  965SOL    HW1 2894   0.700   2.784   8.248
  965SOL    HW2 2895   0.704   2.634   8.267
  966SOL     OW 2896   1.522   3.635   7.793
  966SOL    HW1 2897   1.558   3.695   7.728
  966SOL    HW2 2898   1.590   3.630   7.861
  967SOL     OW 2899   0.745   2.432   8.542
  967SOL    HW1 2900   0.769   2.492   8.612
  967SOL    HW2 2901   0.805   2.357   8.554
  968SOL     OW 2902   1.482   3.084   8.466
  968SOL    HW1 2903   1.477   3.080   8.561
  968SOL    HW2 2904   1.576   3.081   8.447
  969SOL     OW 2905   0.420   3.608   8.393
  969SOL    HW1 2906   0.331   3.644   8.391
  969SOL    HW2 2907   0.409   3.519   8.425
  970SOL     OW 2908   1.705   2.750   8.088
  970SOL    HW1 2909   1.682   2.666   8.049
  970SOL    HW2 2910   1.704   2.812   8.015
  971SOL     OW 2911   1.256   2.192   7.283
  971SOL    HW1 2912   1.319   2.121   7.276
  971SOL    HW2 2913   1.278   2.237   7.364
  972SOL     OW 2914   0.625   2.612   7.487
  972SOL    HW1 2915   0.669   2.694   7.467
  972SOL    HW2 2916   0.543   2.616   7.437
  973SOL     OW 2917   1.807   2.213   8.476
  973SOL    HW1 2918   1.787   2.236   8.385
  973SOL    HW2 2919   1.727   2.172   8.509
  974SOL     OW 2920   1.762   2.801   8.349
  974SOL    HW1 2921   1.796   2.890   8.360
  974SOL    HW2 2922   1.755   2.789   8.255
  975SOL     OW 2923   0.891   3.240   6.850
  975SOL    HW1 2924   0.848   3.259   6.934
  975SOL    HW2 2925   0.928   3.324   6.822
  976SOL     OW 2926   0.691   3.657   7.786
  976SOL    HW1 2927   0.653   3.744   7.771
  976SOL    HW2 2928   0.785   3.670   7.778
  977SOL     OW 2929   0.891   2.824   7.693
  977SOL    HW1 2930   0.942   2.759   7.741
  977SOL    HW2 2931   0.862   2.887   7.760
  978SOL     OW 2932   1.113   2.851   6.920
  978SOL    HW1 2933   1.094   2.901   6.841
  978SOL    HW2 2934   1.191   2.800   6.899
  979SOL     OW 2935   1.893   3.435   7.683
  979SOL    HW1 2936   1.822   3.421   7.619
  979SOL    HW2 2937   1.889   3.359   7.740
  980SOL     OW 2938   0.255   3.178   8.678
  980SOL    HW1 2939   0.188   3.112   8.660
  980SOL    HW2 2940   0.250   3.192   8.773
  981SOL     OW 2941   0.113   3.109   7.489
  981SOL    HW1 2942   0.114   3.059   7.571
  981SOL    HW2 2943   0.188   3.076   7.440
  982SOL     OW 2944   0.704   3.259   8.456
  982SOL    HW1 2945   0.628   3.215   8.492
  982SOL    HW2 2946   0.698   3.348   8.489
  983SOL     OW 2947   1.852   2.059   8.063
  983SOL    HW1 2948   1.852   1.970   8.097
  983SOL    HW2 2949   1.859   2.048   7.968
  984SOL     OW 2950   0.458   2.293   7.352
  984SOL    HW1 2951   0.487   2.220   7.297
  984SOL    HW2 2952   0.422   2.251   7.430
  985SOL     OW 2953   1.735   3.357   7.938
  985SOL    HW1 2954   1.648   3.328   7.912
  985SOL    HW2 2955   1.757   3.303   8.014
  986SOL     OW 2956   0.350   2.415   8.115
  986SOL    HW1 2957   0.390   2.356   8.179
  986SOL    HW2 2958   0.386   2.388   8.031
  987SOL     OW 2959   0.845   3.451   7.521
  987SOL    HW1 2960   0.869   3.463   7.429
  987SOL    HW2 2961   0.768   3.394   7.518
  988SOL     OW 2962   1.457   2.082   7.946
  988SOL    HW1 2963   1.503   2.019   8.002
  988SOL    HW2 2964   1.409   2.138   8.007
  989SOL     OW 2965   1.032   1.900   7.986
  989SOL    HW1 2966   0.976   1.829   7.956
  989SOL    HW2 2967   1.120   1.862   7.985
  990SOL     OW 2968   0.801   3.198   7.136
  990SOL    HW1 2969   0.760   3.113   7.150
  990SOL    HW2 2970   0.888   3.191   7.175
  991SOL     OW 2971   0.648   3.434   8.116
  991SOL    HW1 2972   0.649   3.512   8.171
  991SOL    HW2 2973   0.735   3.432   8.076
  992SOL     OW 2974   1.384   1.919   7.001
  992SOL    HW1 2975   1.412   1.877   6.919
  992SOL    HW2 2976   1.297   1.882   7.018
  993SOL     OW 2977   1.331   2.321   7.523
  993SOL    HW1 2978   1.274   2.397   7.531
  993SOL    HW2 2979   1.341   2.288   7.613
  994SOL     OW 2980   1.623   2.086   7.715
  994SOL    HW1 2981   1.543   2.091   7.766
  994SOL    HW2 2982   1.623   2.166   7.662
  995SOL     OW 2983   0.071   2.942   7.127
  995SOL    HW1 2984   0.166   2.928   7.127
  995SOL    HW2 2985   0.035   2.862   7.165
  996SOL     OW 2986   0.906   3.510   7.175
  996SOL    HW1 2987   0.832   3.485   7.118
  996SOL    HW2 2988   0.873   3.583   7.226
  997SOL     OW 2989   0.261   2.497   8.809
  997SOL    HW1 2990   0.171   2.490   8.841
  997SOL    HW2 2991   0.259   2.457   8.722
  998SOL     OW 2992   0.254   2.142   9.688
  998SOL    HW1 2993   0.287   2.124   9.776
  998SOL    HW2 2994   0.170   2.096   9.683
  999SOL     OW 2995   0.048   2.240   9.338
  999SOL    HW1 2996  -0.032   2.273   9.379
  999SOL    HW2 2997   0.019   2.166   9.285
 1000SOL     OW 2998   0.599   3.141   9.861
 1000SOL    HW1 2999   0.510   3.139   9.825
 1000SOL    HW2 3000   0.608   3.227   9.900
 1001SOL     OW 3001   1.586   3.379   9.398
 1001SOL    HW1 3002   1.530   3.364   9.474
 1001SOL    HW2 3003   1.524   3.387   9.325
 1002SOL     OW 3004   1.164   2.570   9.410
 1002SOL    HW1 3005   1.218   2.647   9.391
 1002SOL    HW2 3006   1.111   2.596   9.485
 1003SOL     OW 3007   1.787   2.475   8.927
 1003SOL    HW1 3008   1.774   2.460   8.834
 1003SOL    HW2 3009   1.757   2.395   8.969
 1004SOL     OW 3010   0.799   3.011   9.720
 1004SOL    HW1 3011   0.724   3.033   9.776
 1004SOL    HW2 3012   0.828   3.095   9.685
 1005SOL     OW 3013   0.717   2.881   9.357
 1005SOL    HW1 3014   0.779   2.864   9.427
 1005SOL    HW2 3015   0.648   2.932   9.399
 1006SOL     OW 3016   0.366   3.302   9.758
 1006SOL    HW1 3017   0.293   3.272   9.703
 1006SOL    HW2 3018   0.419   3.355   9.699
 1007SOL     OW 3019   1.636   2.315   9.432
 1007SOL    HW1 3020   1.565   2.360   9.385
 1007SOL    HW2 3021   1.679   2.384   9.482
 1008SOL     OW 3022   0.265   3.576   9.177
 1008SOL    HW1 3023   0.294   3.653   9.225
 1008SOL    HW2 3024   0.308   3.583   9.092
 1009SOL     OW 3025   0.262   3.302   9.233
 1009SOL    HW1 3026   0.234   3.394   9.236
 1009SOL    HW2 3027   0.192   3.254   9.277
 1010SOL     OW 3028   0.270   2.957   9.580
 1010SOL    HW1 3029   0.281   2.878   9.634
 1010SOL    HW2 3030   0.220   3.016   9.636
 1011SOL     OW 3031   0.633   2.833   8.820
 1011SOL    HW1 3032   0.649   2.911   8.767
 1011SOL    HW2 3033   0.681   2.849   8.901
 1012SOL     OW 3034   0.155   2.509   9.259
 1012SOL    HW1 3035   0.110   2.427   9.278
 1012SOL    HW2 3036   0.148   2.560   9.339
 1013SOL     OW 3037   1.874   3.633   9.050
 1013SOL    HW1 3038   1.925   3.609   9.127
 1013SOL    HW2 3039   1.904   3.721   9.028
 1014SOL     OW 3040   0.057   3.463   8.813
 1014SOL    HW1 3041   0.041   3.372   8.836
 1014SOL    HW2 3042   0.026   3.513   8.889
 1015SOL     OW 3043   1.720   2.789   9.311
 1015SOL    HW1 3044   1.812   2.761   9.312
 1015SOL    HW2 3045   1.713   2.847   9.236
 1016SOL     OW 3046   1.673   2.974   9.127
 1016SOL    HW1 3047   1.756   2.982   9.080
 1016SOL    HW2 3048   1.687   3.025   9.207
 1017SOL     OW 3049   0.644   3.235   9.422
 1017SOL    HW1 3050   0.596   3.152   9.428
 1017SOL    HW2 3051   0.620   3.270   9.337
 1018SOL     OW 3052   0.839   1.869   9.196
 1018SOL    HW1 3053   0.876   1.956   9.190
 1018SOL    HW2 3054   0.744   1.883   9.204
 1019SOL     OW 3055   0.229   2.843   9.966
 1019SOL    HW1 3056   0.311   2.798   9.945
 1019SOL    HW2 3057   0.160   2.784   9.936
 1020SOL     OW 3058   1.560   2.863   8.885
 1020SOL    HW1 3059   1.496   2.794   8.903
 1020SOL    HW2 3060   1.599   2.882   8.970
 1021SOL     OW 3061   1.498   3.284   9.649
 1021SOL    HW1 3062   1.436   3.289   9.722
 1021SOL    HW2 3063   1.481   3.199   9.609
 1022SOL     OW 3064   1.697   3.583   9.268
 1022SOL    HW1 3065   1.659   3.557   9.184
 1022SOL    HW2 3066   1.678   3.510   9.327
 1023SOL     OW 3067   0.627   2.594   8.963
 1023SOL    HW1 3068   0.649   2.665   8.902
 1023SOL    HW2 3069   0.556   2.630   9.016
 1024SOL     OW 3070   1.313   2.212   9.636
 1024SOL    HW1 3071   1.230   2.165   9.630
 1024SOL    HW2 3072   1.367   2.158   9.692
 1025SOL     OW 3073   1.608   3.530   9.002
 1025SOL    HW1 3074   1.693   3.572   9.001
 1025SOL    HW2 3075   1.590   3.508   8.911
 1026SOL     OW 3076   1.074   2.567   9.124
 1026SOL    HW1 3077   1.093   2.562   9.217
 1026SOL    HW2 3078   0.992   2.520   9.112
 1027SOL     OW 3079   0.112   2.682   9.475
 1027SOL    HW1 3080   0.204   2.671   9.498
 1027SOL    HW2 3081   0.091   2.771   9.505
 1028SOL     OW 3082   0.161   3.687  10.266
 1028SOL    HW1 3083   0.148   3.675  10.360
 1028SOL    HW2 3084   0.078   3.723  10.234
 1029SOL     OW 3085   0.896   2.214   8.890
 1029SOL    HW1 3086   0.954   2.272   8.841
 1029SOL    HW2 3087   0.919   2.126   8.859
 1030SOL     OW 3088   1.395   3.012   9.240
 1030SOL    HW1 3089   1.473   2.987   9.190
 1030SOL    HW2 3090   1.349   3.074   9.184
 1031SOL     OW 3091   0.580   2.061   9.581
 1031SOL    HW1 3092   0.575   2.064   9.677
 1031SOL    HW2 3093   0.583   2.153   9.555
 1032SOL     OW 3094   1.039   3.321   9.171
 1032SOL    HW1 3095   0.996   3.393   9.125
 1032SOL    HW2 3096   1.034   3.345   9.264
 1033SOL     OW 3097   0.382   3.668   9.547
 1033SOL    HW1 3098   0.433   3.588   9.555
 1033SOL    HW2 3099   0.447   3.738   9.547
 1034SOL     OW 3100   1.827   2.934   9.566
 1034SOL    HW1 3101   1.764   2.918   9.496
 1034SOL    HW2 3102   1.774   2.940   9.646
 1035SOL     OW 3103   0.351   2.812   8.937
 1035SOL    HW1 3104   0.431   2.844   8.895
 1035SOL    HW2 3105   0.329   2.732   8.889
 1036SOL     OW 3106   1.492   2.601   9.422
 1036SOL    HW1 3107   1.487   2.543   9.498
 1036SOL    HW2 3108   1.567   2.657   9.439
 1037SOL     OW 3109   1.145   3.643   8.932
 1037SOL    HW1 3110   1.084   3.585   8.976
 1037SOL    HW2 3111   1.168   3.597   8.851
 1038SOL     OW 3112   1.664   3.244   8.778
 1038SOL    HW1 3113   1.628   3.332   8.766
 1038SOL    HW2 3114   1.590   3.185   8.764
 1039SOL     OW 3115   0.495   3.608   9.018
 1039SOL    HW1 3116   0.530   3.650   9.097
 1039SOL    HW2 3117   0.571   3.603   8.959
 1040SOL     OW 3118   1.431   1.975   9.121
 1040SOL    HW1 3119   1.412   1.941   9.034
 1040SOL    HW2 3120   1.526   1.987   9.122
 1041SOL     OW 3121   0.283   3.655   9.935
 1041SOL    HW1 3122   0.336   3.589   9.980
 1041SOL    HW2 3123   0.267   3.618   9.848
 1042SOL     OW 3124   0.972   3.565   9.599
 1042SOL    HW1 3125   1.046   3.508   9.616
 1042SOL    HW2 3126   0.925   3.524   9.527
 1043SOL     OW 3127   0.414   2.567   9.175
 1043SOL    HW1 3128   0.452   2.479   9.174
 1043SOL    HW2 3129   0.324   2.554   9.205
 1044SOL     OW 3130   0.646   1.991   8.811
 1044SOL    HW1 3131   0.738   1.964   8.815
 1044SOL    HW2 3132   0.618   1.968   8.723
 1045SOL     OW 3133   0.834   3.269   9.620
 1045SOL    HW1 3134   0.918   3.280   9.577
 1045SOL    HW2 3135   0.770   3.269   9.549
 1046SOL     OW 3136   0.954   2.372   9.595
 1046SOL    HW1 3137   0.931   2.358   9.503
 1046SOL    HW2 3138   0.997   2.291   9.621
 1047SOL     OW 3139   0.574   1.931   9.208
 1047SOL    HW1 3140   0.493   1.933   9.259
 1047SOL    HW2 3141   0.571   2.010   9.154
 1048SOL     OW 3142   1.463   3.056   8.734
 1048SOL    HW1 3143   1.493   2.985   8.790
 1048SOL    HW2 3144   1.376   3.079   8.768
 1049SOL     OW 3145   0.329   1.893   8.867
 1049SOL    HW1 3146   0.375   1.975   8.848
 1049SOL    HW2 3147   0.393   1.839   8.912
 1050SOL     OW 3148   0.966   2.105   9.174
 1050SOL    HW1 3149   0.925   2.144   9.097
 1050SOL    HW2 3150   1.059   2.104   9.154
 1051SOL     OW 3151   1.257   3.437   9.488
 1051SOL    HW1 3152   1.281   3.507   9.428
 1051SOL    HW2 3153   1.324   3.441   9.556
 1052SOL     OW 3154   0.492   3.016   9.437
 1052SOL    HW1 3155   0.419   2.993   9.495
 1052SOL    HW2 3156   0.461   2.992   9.349
 1053SOL     OW 3157   1.303   3.664   9.288
 1053SOL    HW1 3158   1.342   3.728   9.228
 1053SOL    HW2 3159   1.253   3.717   9.350
 1054SOL     OW 3160   1.064   2.416   8.710
 1054SOL    HW1 3161   1.025   2.497   8.678
 1054SOL    HW2 3162   1.122   2.443   8.780
 1055SOL     OW 3163   0.898   2.322   9.337
 1055SOL    HW1 3164   0.865   2.386   9.275
 1055SOL    HW2 3165   0.919   2.245   9.284
 1056SOL     OW 3166   1.047   1.909   9.449
 1056SOL    HW1 3167   0.979   1.908   9.382
 1056SOL    HW2 3168   1.023   1.839   9.510
 1057SOL     OW 3169   1.462   3.038   9.561
 1057SOL    HW1 3170   1.406   2.960   9.552
 1057SOL    HW2 3171   1.483   3.063   9.471
 1058SOL     OW 3172   1.499   2.458   9.686
 1058SOL    HW1 3173   1.469   2.368   9.695
 1058SOL    HW2 3174   1.567   2.469   9.752
 1059SOL     OW 3175   1.884   2.698   9.073
 1059SOL    HW1 3176   1.929   2.635   9.130
 1059SOL    HW2 3177   1.854   2.646   8.999
 1060SOL     OW 3178   0.521   3.255   8.868
 1060SOL    HW1 3179   0.437   3.238   8.911
 1060SOL    HW2 3180   0.498   3.276   8.778
 1061SOL     OW 3181   1.695   3.143   9.354
 1061SOL    HW1 3182   1.790   3.156   9.365
 1061SOL    HW2 3183   1.657   3.227   9.379
 1062SOL     OW 3184   1.421   2.442   8.771
 1062SOL    HW1 3185   1.371   2.420   8.850
 1062SOL    HW2 3186   1.507   2.402   8.786
 1063SOL     OW 3187   0.558   2.125   9.023
 1063SOL    HW1 3188   0.584   2.070   8.950
 1063SOL    HW2 3189   0.558   2.214   8.988
 1064SOL     OW 3190   1.144   3.064   9.797
 1064SOL    HW1 3191   1.097   3.105   9.869
 1064SOL    HW2 3192   1.103   3.099   9.718
 1065SOL     OW 3193   1.669   2.967   9.772
 1065SOL    HW1 3194   1.669   3.043   9.831
 1065SOL    HW2 3195   1.585   2.971   9.728
 1066SOL     OW 3196   0.736   2.920   9.064
 1066SOL    HW1 3197   0.725   2.920   9.159
 1066SOL    HW2 3198   0.815   2.868   9.049
 1067SOL     OW 3199   0.443   2.679   9.945
 1067SOL    HW1 3200   0.523   2.688   9.997
 1067SOL    HW2 3201   0.405   2.596   9.973
 1068SOL     OW 3202   0.397   2.967   9.195
 1068SOL    HW1 3203   0.391   3.044   9.138
 1068SOL    HW2 3204   0.401   2.893   9.135
 1069SOL     OW 3205   0.596   2.404   9.560
 1069SOL    HW1 3206   0.610   2.468   9.491
 1069SOL    HW2 3207   0.642   2.439   9.636
 1070SOL     OW 3208   1.282   3.215   9.083
 1070SOL    HW1 3209   1.328   3.289   9.122
 1070SOL    HW2 3210   1.193   3.222   9.116
 1071SOL     OW 3211   1.304   3.313   9.837
 1071SOL    HW1 3212   1.345   3.322   9.923
 1071SOL    HW2 3213   1.243   3.240   9.847
 1072SOL     OW 3214   1.613   2.504   9.168
 1072SOL    HW1 3215   1.584   2.567   9.234
 1072SOL    HW2 3216   1.660   2.558   9.104
 1073SOL     OW 3217   0.606   2.736   9.724
 1073SOL    HW1 3218   0.644   2.824   9.718
 1073SOL    HW2 3219   0.546   2.741   9.799
 1074SOL     OW 3220   1.392   2.730   9.738
 1074SOL    HW1 3221   1.319   2.725   9.677
 1074SOL    HW2 3222   1.424   2.640   9.745
 1075SOL     OW 3223   1.243   2.393   8.969
 1075SOL    HW1 3224   1.249   2.314   9.023
 1075SOL    HW2 3225   1.210   2.460   9.029
 1076SOL     OW 3226   0.337   2.079   9.927
 1076SOL    HW1 3227   0.315   2.111  10.014
 1076SOL    HW2 3228   0.309   1.987   9.927
 1077SOL     OW 3229   0.062   3.176   9.980
 1077SOL    HW1 3230   0.120   3.129  10.040
 1077SOL    HW2 3231   0.094   3.266   9.981
 1078SOL     OW 3232   0.763   2.501   9.759
 1078SOL    HW1 3233   0.821   2.479   9.686
 1078SOL    HW2 3234   0.737   2.592   9.743
 1079SOL     OW 3235   0.336   1.932   9.314
 1079SOL    HW1 3236   0.325   2.020   9.349
 1079SOL    HW2 3237   0.332   1.875   9.391
 1080SOL     OW 3238   1.649   2.233   9.066
 1080SOL    HW1 3239   1.657   2.165   9.133
 1080SOL    HW2 3240   1.609   2.307   9.112
 1081SOL     OW 3241   1.054   2.633   9.661
 1081SOL    HW1 3242   1.067   2.649   9.754
 1081SOL    HW2 3243   1.026   2.541   9.656
 1082SOL     OW 3244   1.568   2.143   8.820
 1082SOL    HW1 3245   1.512   2.071   8.847
 1082SOL    HW2 3246   1.593   2.186   8.902
 1083SOL     OW 3247   1.333   2.703   8.736
 1083SOL    HW1 3248   1.369   2.615   8.745
 1083SOL    HW2 3249   1.354   2.729   8.647
 1084SOL     OW 3250   1.098   3.200   9.545
 1084SOL    HW1 3251   1.107   3.123   9.489
 1084SOL    HW2 3252   1.160   3.263   9.507
 1085SOL     OW 3253   0.353   2.675   9.639
 1085SOL    HW1 3254   0.442   2.707   9.650
 1085SOL    HW2 3255   0.350   2.595   9.692
 1086SOL     OW 3256   0.367   2.380   9.700
 1086SOL    HW1 3257   0.324   2.296   9.684
 1086SOL    HW2 3258   0.443   2.380   9.640
 1087SOL     OW 3259   1.193   2.073  10.172
 1087SOL    HW1 3260   1.192   2.138  10.243
 1087SOL    HW2 3261   1.217   2.123  10.095
 1088SOL     OW 3262   0.039   3.181   8.851
 1088SOL    HW1 3263  -0.051   3.211   8.866
 1088SOL    HW2 3264   0.048   3.104   8.908
 1089SOL     OW 3265   0.123   3.673   9.615
 1089SOL    HW1 3266   0.084   3.589   9.591
 1089SOL    HW2 3267   0.214   3.667   9.585
 1090SOL     OW 3268   0.534   3.437   9.601
 1090SOL    HW1 3269   0.602   3.503   9.614
 1090SOL    HW2 3270   0.580   3.362   9.564
 1091SOL     OW 3271   1.033   2.661   9.931
 1091SOL    HW1 3272   1.069   2.633  10.015
 1091SOL    HW2 3273   0.941   2.635   9.935
 1092SOL     OW 3274   0.071   2.413   9.808
 1092SOL    HW1 3275   0.154   2.380   9.773
 1092SOL    HW2 3276   0.087   2.424   9.902
 1093SOL     OW 3277   0.846   2.437   9.026
 1093SOL    HW1 3278   0.849   2.356   8.975
 1093SOL    HW2 3279   0.758   2.472   9.010
 1094SOL     OW 3280   1.683   2.469   9.896
 1094SOL    HW1 3281   1.657   2.403   9.961
 1094SOL    HW2 3282   1.765   2.436   9.860
 1095SOL     OW 3283   0.701   2.331   9.965
 1095SOL    HW1 3284   0.670   2.247   9.931
 1095SOL    HW2 3285   0.726   2.381   9.887
 1096SOL     OW 3286   0.504   2.366   8.887
 1096SOL    HW1 3287   0.559   2.444   8.892
 1096SOL    HW2 3288   0.415   2.400   8.890
 1097SOL     OW 3289   1.379   2.930   9.927
 1097SOL    HW1 3290   1.397   2.865   9.860
 1097SOL    HW2 3291   1.291   2.962   9.907
 1098SOL     OW 3292   1.334   2.720   9.005
 1098SOL    HW1 3293   1.250   2.692   9.041
 1098SOL    HW2 3294   1.324   2.709   8.911
 1099SOL     OW 3295   1.787   3.617   9.846
 1099SOL    HW1 3296   1.850   3.639   9.777
 1099SOL    HW2 3297   1.759   3.528   9.826
 1100SOL     OW 3298   0.115   3.124   9.716
 1100SOL    HW1 3299   0.108   3.125   9.811
 1100SOL    HW2 3300   0.033   3.087   9.685
 1101SOL     OW 3301   1.755   2.002   9.217
 1101SOL    HW1 3302   1.826   1.984   9.155
 1101SOL    HW2 3303   1.731   1.917   9.253
 1102SOL     OW 3304   1.420   3.439   9.173
 1102SOL    HW1 3305   1.482   3.456   9.102
 1102SOL    HW2 3306   1.381   3.524   9.193
 1103SOL     OW 3307   1.309   2.791   9.366
 1103SOL    HW1 3308   1.373   2.720   9.367
 1103SOL    HW2 3309   1.349   2.859   9.311
 1104SOL     OW 3310   0.702   3.483   8.850
 1104SOL    HW1 3311   0.711   3.489   8.755
 1104SOL    HW2 3312   0.663   3.397   8.864
 1105SOL     OW 3313   1.681   3.586  10.090
 1105SOL    HW1 3314   1.730   3.600  10.010
 1105SOL    HW2 3315   1.657   3.674  10.119
 1106SOL     OW 3316   1.872   2.041   9.661
 1106SOL    HW1 3317   1.905   1.959   9.623
 1106SOL    HW2 3318   1.780   2.044   9.634
 1107SOL     OW 3319   0.298   2.193   9.416
 1107SOL    HW1 3320   0.218   2.237   9.386
 1107SOL    HW2 3321   0.284   2.179   9.510
 1108SOL     OW 3322   1.226   3.479   8.727
 1108SOL    HW1 3323   1.229   3.388   8.758
 1108SOL    HW2 3324   1.168   3.477   8.651
 1109SOL     OW 3325   0.852   2.869  10.067
 1109SOL    HW1 3326   0.893   2.872   9.980
 1109SOL    HW2 3327   0.864   2.957  10.102
 1110SOL     OW 3328   0.947   2.778   8.986
 1110SOL    HW1 3329   1.010   2.810   8.921
 1110SOL    HW2 3330   0.988   2.699   9.022
 1111SOL     OW 3331   1.537   3.479   8.740
 1111SOL    HW1 3332   1.445   3.507   8.740
 1111SOL    HW2 3333   1.566   3.494   8.650
 1112SOL     OW 3334   1.070   2.966   9.392
 1112SOL    HW1 3335   1.004   2.917   9.441
 1112SOL    HW2 3336   1.126   2.899   9.352
 1113SOL     OW 3337   1.048   2.104   9.664
 1113SOL    HW1 3338   1.037   2.063   9.578
 1113SOL    HW2 3339   1.041   2.032   9.726
 1114SOL     OW 3340   0.624   3.355   9.185
 1114SOL    HW1 3341   0.659   3.301   9.115
 1114SOL    HW2 3342   0.578   3.426   9.140
 1115SOL     OW 3343   1.738   2.254  10.073
 1115SOL    HW1 3344   1.811   2.314  10.080
 1115SOL    HW2 3345   1.771   2.181  10.020
 1116SOL     OW 3346   0.287   3.218   8.981
 1116SOL    HW1 3347   0.193   3.215   8.963
 1116SOL    HW2 3348   0.294   3.262   9.066
 1117SOL     OW 3349   0.091   2.218   8.729
 1117SOL    HW1 3350   0.009   2.191   8.688
 1117SOL    HW2 3351   0.127   2.284   8.670
 1118SOL     OW 3352   0.103   2.037   9.018
 1118SOL    HW1 3353   0.090   2.110   8.957
 1118SOL    HW2 3354   0.186   1.997   8.991
 1119SOL     OW 3355   1.214   3.206   8.813
 1119SOL    HW1 3356   1.120   3.190   8.819
 1119SOL    HW2 3357   1.243   3.213   8.904
 1120SOL     OW 3358   1.523   3.634   9.654
 1120SOL    HW1 3359   1.559   3.696   9.590
 1120SOL    HW2 3360   1.589   3.630   9.723
 1121SOL     OW 3361   1.710   2.750   9.949
 1121SOL    HW1 3362   1.679   2.667   9.912
 1121SOL    HW2 3363   1.702   2.813   9.877
 1122SOL     OW 3364   1.255   2.192   9.145
 1122SOL    HW1 3365   1.319   2.121   9.137
 1122SOL    HW2 3366   1.278   2.237   9.226
 1123SOL     OW 3367   0.625   2.612   9.349
 1123SOL    HW1 3368   0.669   2.694   9.329
 1123SOL    HW2 3369   0.543   2.616   9.299
 1124SOL     OW 3370   1.764   2.800  10.213
 1124SOL    HW1 3371   1.797   2.889  10.221
 1124SOL    HW2 3372   1.751   2.788  10.119
 1125SOL     OW 3373   0.891   3.240   8.712
 1125SOL    HW1 3374   0.848   3.259   8.796
 1125SOL    HW2 3375   0.928   3.324   8.684
 1126SOL     OW 3376   0.691   3.657   9.648
 1126SOL    HW1 3377   0.653   3.744   9.633
 1126SOL    HW2 3378   0.785   3.670   9.640
 1127SOL     OW 3379   0.891   2.824   9.555
 1127SOL    HW1 3380   0.942   2.759   9.604
 1127SOL    HW2 3381   0.862   2.887   9.622
 1128SOL     OW 3382   1.113   2.851   8.782
 1128SOL    HW1 3383   1.094   2.901   8.703
 1128SOL    HW2 3384   1.191   2.800   8.761
 1129SOL     OW 3385   1.893   3.435   9.545
 1129SOL    HW1 3386   1.822   3.421   9.481
 1129SOL    HW2 3387   1.889   3.359   9.602
 1130SOL     OW 3388   0.112   3.109   9.351
 1130SOL    HW1 3389   0.114   3.059   9.433
 1130SOL    HW2 3390   0.188   3.076   9.302
 1131SOL     OW 3391   1.853   2.059   9.924
 1131SOL    HW1 3392   1.853   1.970   9.959
 1131SOL    HW2 3393   1.859   2.048   9.830
 1132SOL     OW 3394   0.458   2.293   9.214
 1132SOL    HW1 3395   0.487   2.220   9.159
 1132SOL    HW2 3396   0.422   2.251   9.292
 1133SOL     OW 3397   1.736   3.356   9.800
 1133SOL    HW1 3398   1.648   3.327   9.774
 1133SOL    HW2 3399   1.757   3.303   9.877
 1134SOL     OW 3400   0.845   3.451   9.383
 1134SOL    HW1 3401   0.869   3.463   9.291
 1134SOL    HW2 3402   0.768   3.394   9.380
 1135SOL     OW 3403   1.456   2.082   9.808
 1135SOL    HW1 3404   1.504   2.019   9.863
 1135SOL    HW2 3405   1.410   2.138   9.870
 1136SOL     OW 3406   1.032   1.901   9.845
 1136SOL    HW1 3407   0.975   1.829   9.820
 1136SOL    HW2 3408   1.120   1.862   9.849
 1137SOL     OW 3409   0.801   3.198   8.997
 1137SOL    HW1 3410   0.760   3.113   9.012
 1137SOL    HW2 3411   0.887   3.191   9.037
 1138SOL     OW 3412   1.384   1.919   8.863
 1138SOL    HW1 3413   1.412   1.877   8.781
 1138SOL    HW2 3414   1.297   1.882   8.880
 1139SOL     OW 3415   1.331   2.321   9.385
 1139SOL    HW1 3416   1.274   2.397   9.393
 1139SOL    HW2 3417   1.341   2.288   9.475
 1140SOL     OW 3418   1.623   2.086   9.577
 1140SOL    HW1 3419   1.543   2.090   9.628
 1140SOL    HW2 3420   1.623   2.166   9.524
 1141SOL     OW 3421   0.071   2.942   8.989
 1141SOL    HW1 3422   0.166   2.928   8.989
 1141SOL    HW2 3423   0.035   2.862   9.027
 1142SOL     OW 3424   0.906   3.510   9.037
 1142SOL    HW1 3425   0.832   3.485   8.980
 1142SOL    HW2 3426   0.873   3.583   9.088
 1143SOL     OW 3427   0.261   4.360   5.084
 1143SOL    HW1 3428   0.172   4.352   5.117
 1143SOL    HW2 3429   0.258   4.319   4.998
 1144SOL     OW 3430   0.254   4.004   5.964
 1144SOL    HW1 3431   0.286   3.985   6.052
 1144SOL    HW2 3432   0.170   3.958   5.959
 1145SOL     OW 3433   0.048   4.102   5.614
 1145SOL    HW1 3434  -0.032   4.135   5.654
 1145SOL    HW2 3435   0.019   4.028   5.560
 1146SOL     OW 3436   1.165   4.431   5.686
 1146SOL    HW1 3437   1.218   4.509   5.667
 1146SOL    HW2 3438   1.111   4.458   5.760
 1147SOL     OW 3439   1.788   4.337   5.201
 1147SOL    HW1 3440   1.772   4.319   5.109
 1147SOL    HW2 3441   1.757   4.258   5.246
 1148SOL     OW 3442   0.803   4.875   6.001
 1148SOL    HW1 3443   0.723   4.894   6.049
 1148SOL    HW2 3444   0.825   4.958   5.958
 1149SOL     OW 3445   0.882   4.526   6.793
 1149SOL    HW1 3446   0.878   4.600   6.854
 1149SOL    HW2 3447   0.903   4.565   6.709
 1150SOL     OW 3448   0.715   4.739   5.634
 1150SOL    HW1 3449   0.780   4.727   5.704
 1150SOL    HW2 3450   0.649   4.797   5.672
 1151SOL     OW 3451   0.720   4.888   6.772
 1151SOL    HW1 3452   0.775   4.965   6.787
 1151SOL    HW2 3453   0.638   4.922   6.737
 1152SOL     OW 3454   0.470   4.123   6.469
 1152SOL    HW1 3455   0.546   4.065   6.477
 1152SOL    HW2 3456   0.395   4.064   6.475
 1153SOL     OW 3457   1.636   4.177   5.707
 1153SOL    HW1 3458   1.565   4.222   5.662
 1153SOL    HW2 3459   1.679   4.245   5.758
 1154SOL     OW 3460   0.270   4.819   5.856
 1154SOL    HW1 3461   0.281   4.740   5.910
 1154SOL    HW2 3462   0.221   4.879   5.912
 1155SOL     OW 3463   0.636   4.693   5.095
 1155SOL    HW1 3464   0.646   4.774   5.045
 1155SOL    HW2 3465   0.681   4.711   5.178
 1156SOL     OW 3466   1.626   3.843   6.449
 1156SOL    HW1 3467   1.608   3.911   6.385
 1156SOL    HW2 3468   1.622   3.887   6.534
 1157SOL     OW 3469   0.155   4.371   5.535
 1157SOL    HW1 3470   0.110   4.289   5.554
 1157SOL    HW2 3471   0.148   4.422   5.615
 1158SOL     OW 3472   1.721   4.652   5.588
 1158SOL    HW1 3473   1.812   4.623   5.588
 1158SOL    HW2 3474   1.713   4.708   5.511
 1159SOL     OW 3475   1.672   4.839   5.402
 1159SOL    HW1 3476   1.756   4.840   5.356
 1159SOL    HW2 3477   1.690   4.883   5.485
 1160SOL     OW 3478   0.145   4.466   6.567
 1160SOL    HW1 3479   0.231   4.461   6.608
 1160SOL    HW2 3480   0.132   4.560   6.550
 1161SOL     OW 3481   1.322   4.957   6.393
 1161SOL    HW1 3482   1.363   4.888   6.341
 1161SOL    HW2 3483   1.375   4.960   6.473
 1162SOL     OW 3484   0.839   3.731   5.471
 1162SOL    HW1 3485   0.876   3.819   5.466
 1162SOL    HW2 3486   0.745   3.745   5.480
 1163SOL     OW 3487   0.229   4.704   6.240
 1163SOL    HW1 3488   0.311   4.659   6.220
 1163SOL    HW2 3489   0.161   4.644   6.211
 1164SOL     OW 3490   1.558   4.727   5.160
 1164SOL    HW1 3491   1.495   4.657   5.178
 1164SOL    HW2 3492   1.599   4.744   5.245
 1165SOL     OW 3493   0.348   3.996   6.730
 1165SOL    HW1 3494   0.420   4.043   6.773
 1165SOL    HW2 3495   0.275   4.003   6.792
 1166SOL     OW 3496   0.626   4.456   5.239
 1166SOL    HW1 3497   0.649   4.527   5.178
 1166SOL    HW2 3498   0.556   4.492   5.292
 1167SOL     OW 3499   1.313   4.074   5.910
 1167SOL    HW1 3500   1.230   4.026   5.906
 1167SOL    HW2 3501   1.367   4.021   5.970
 1168SOL     OW 3502   0.836   4.336   6.433
 1168SOL    HW1 3503   0.794   4.327   6.518
 1168SOL    HW2 3504   0.786   4.279   6.375
 1169SOL     OW 3505   1.424   4.198   6.645
 1169SOL    HW1 3506   1.411   4.238   6.731
 1169SOL    HW2 3507   1.499   4.139   6.657
 1170SOL     OW 3508   1.001   4.620   6.545
 1170SOL    HW1 3509   1.047   4.542   6.514
 1170SOL    HW2 3510   0.951   4.650   6.469
 1171SOL     OW 3511   1.023   4.140   6.213
 1171SOL    HW1 3512   0.946   4.169   6.262
 1171SOL    HW2 3513   0.987   4.091   6.139
 1172SOL     OW 3514   1.075   4.429   5.399
 1172SOL    HW1 3515   1.093   4.424   5.493
 1172SOL    HW2 3516   0.992   4.382   5.388
 1173SOL     OW 3517   0.112   4.544   5.753
 1173SOL    HW1 3518   0.205   4.533   5.773
 1173SOL    HW2 3519   0.091   4.633   5.780
 1174SOL     OW 3520   0.898   4.077   5.168
 1174SOL    HW1 3521   0.954   4.134   5.115
 1174SOL    HW2 3522   0.915   3.989   5.136
 1175SOL     OW 3523   1.748   4.313   6.802
 1175SOL    HW1 3524   1.724   4.397   6.764
 1175SOL    HW2 3525   1.749   4.252   6.728
 1176SOL     OW 3526   1.395   4.869   5.516
 1176SOL    HW1 3527   1.473   4.848   5.465
 1176SOL    HW2 3528   1.351   4.937   5.465
 1177SOL     OW 3529   0.579   3.924   5.856
 1177SOL    HW1 3530   0.577   3.927   5.952
 1177SOL    HW2 3531   0.583   4.015   5.829
 1178SOL     OW 3532   1.827   4.796   5.843
 1178SOL    HW1 3533   1.764   4.779   5.773
 1178SOL    HW2 3534   1.773   4.802   5.922
 1179SOL     OW 3535   0.351   4.674   5.212
 1179SOL    HW1 3536   0.431   4.705   5.170
 1179SOL    HW2 3537   0.329   4.593   5.166
 1180SOL     OW 3538   1.491   4.463   5.698
 1180SOL    HW1 3539   1.487   4.405   5.774
 1180SOL    HW2 3540   1.567   4.519   5.715
 1181SOL     OW 3541   0.232   4.013   6.467
 1181SOL    HW1 3542   0.154   4.069   6.459
 1181SOL    HW2 3543   0.221   3.968   6.550
 1182SOL     OW 3544   1.431   3.837   5.397
 1182SOL    HW1 3545   1.412   3.803   5.310
 1182SOL    HW2 3546   1.526   3.849   5.399
 1183SOL     OW 3547   0.414   4.429   5.451
 1183SOL    HW1 3548   0.452   4.341   5.450
 1183SOL    HW2 3549   0.324   4.416   5.480
 1184SOL     OW 3550   1.575   3.955   6.698
 1184SOL    HW1 3551   1.573   3.982   6.790
 1184SOL    HW2 3552   1.509   3.886   6.692
 1185SOL     OW 3553   0.644   3.848   5.089
 1185SOL    HW1 3554   0.739   3.830   5.091
 1185SOL    HW2 3555   0.620   3.834   4.997
 1186SOL     OW 3556   0.811   3.994   6.719
 1186SOL    HW1 3557   0.874   3.935   6.761
 1186SOL    HW2 3558   0.744   4.009   6.786
 1187SOL     OW 3559   1.379   4.319   6.404
 1187SOL    HW1 3560   1.410   4.281   6.486
 1187SOL    HW2 3561   1.409   4.410   6.406
 1188SOL     OW 3562   0.954   4.234   5.871
 1188SOL    HW1 3563   0.930   4.221   5.779
 1188SOL    HW2 3564   0.997   4.152   5.897
 1189SOL     OW 3565   0.575   3.793   5.484
 1189SOL    HW1 3566   0.493   3.795   5.535
 1189SOL    HW2 3567   0.571   3.872   5.430
 1190SOL     OW 3568   0.327   3.765   5.143
 1190SOL    HW1 3569   0.379   3.843   5.124
 1190SOL    HW2 3570   0.388   3.705   5.185
 1191SOL     OW 3571   0.966   3.966   5.450
 1191SOL    HW1 3572   0.925   4.006   5.373
 1191SOL    HW2 3573   1.059   3.967   5.430
 1192SOL     OW 3574   1.108   4.410   6.434
 1192SOL    HW1 3575   1.034   4.350   6.437
 1192SOL    HW2 3576   1.183   4.356   6.413
 1193SOL     OW 3577   0.494   4.873   5.716
 1193SOL    HW1 3578   0.418   4.854   5.771
 1193SOL    HW2 3579   0.464   4.857   5.627
 1194SOL     OW 3580   1.062   4.277   4.989
 1194SOL    HW1 3581   1.026   4.358   4.953
 1194SOL    HW2 3582   1.124   4.305   5.056
 1195SOL     OW 3583   0.108   4.285   6.360
 1195SOL    HW1 3584   0.196   4.286   6.321
 1195SOL    HW2 3585   0.108   4.358   6.421
 1196SOL     OW 3586   0.594   3.953   6.121
 1196SOL    HW1 3587   0.626   3.870   6.157
 1196SOL    HW2 3588   0.508   3.964   6.160
 1197SOL     OW 3589   0.899   4.184   5.613
 1197SOL    HW1 3590   0.865   4.248   5.551
 1197SOL    HW2 3591   0.918   4.107   5.560
 1198SOL     OW 3592   1.048   3.771   5.725
 1198SOL    HW1 3593   0.979   3.770   5.659
 1198SOL    HW2 3594   1.023   3.701   5.786
 1199SOL     OW 3595   1.465   4.897   5.839
 1199SOL    HW1 3596   1.405   4.823   5.827
 1199SOL    HW2 3597   1.480   4.930   5.750
 1200SOL     OW 3598   1.499   4.320   5.962
 1200SOL    HW1 3599   1.468   4.230   5.971
 1200SOL    HW2 3600   1.567   4.330   6.028
 1201SOL     OW 3601   1.884   4.562   5.350
 1201SOL    HW1 3602   1.930   4.499   5.406
 1201SOL    HW2 3603   1.854   4.509   5.275
 1202SOL     OW 3604   1.423   4.309   5.051
 1202SOL    HW1 3605   1.370   4.281   5.125
 1202SOL    HW2 3606   1.505   4.261   5.060
 1203SOL     OW 3607   0.558   3.986   5.299
 1203SOL    HW1 3608   0.585   3.932   5.226
 1203SOL    HW2 3609   0.557   4.076   5.265
 1204SOL     OW 3610   1.788   4.946   6.563
 1204SOL    HW1 3611   1.879   4.918   6.549
 1204SOL    HW2 3612   1.795   5.040   6.581
 1205SOL     OW 3613   1.669   4.830   6.049
 1205SOL    HW1 3614   1.668   4.905   6.108
 1205SOL    HW2 3615   1.585   4.834   6.003
 1206SOL     OW 3616   0.946   3.821   6.374
 1206SOL    HW1 3617   0.972   3.802   6.284
 1206SOL    HW2 3618   1.019   3.871   6.410
 1207SOL     OW 3619   1.012   4.843   6.691
 1207SOL    HW1 3620   0.917   4.848   6.698
 1207SOL    HW2 3621   1.028   4.767   6.635
 1208SOL     OW 3622   0.735   4.778   5.338
 1208SOL    HW1 3623   0.725   4.785   5.433
 1208SOL    HW2 3624   0.816   4.730   5.326
 1209SOL     OW 3625   0.443   4.541   6.221
 1209SOL    HW1 3626   0.521   4.550   6.275
 1209SOL    HW2 3627   0.404   4.458   6.248
 1210SOL     OW 3628   1.305   4.113   6.234
 1210SOL    HW1 3629   1.324   4.188   6.292
 1210SOL    HW2 3630   1.220   4.134   6.196
 1211SOL     OW 3631   0.395   4.825   5.472
 1211SOL    HW1 3632   0.393   4.904   5.419
 1211SOL    HW2 3633   0.401   4.754   5.407
 1212SOL     OW 3634   0.596   4.266   5.836
 1212SOL    HW1 3635   0.610   4.330   5.767
 1212SOL    HW2 3636   0.642   4.301   5.912
 1213SOL     OW 3637   1.613   4.366   5.443
 1213SOL    HW1 3638   1.584   4.428   5.510
 1213SOL    HW2 3639   1.660   4.420   5.380
 1214SOL     OW 3640   0.433   4.478   6.568
 1214SOL    HW1 3641   0.501   4.528   6.522
 1214SOL    HW2 3642   0.476   4.396   6.592
 1215SOL     OW 3643   1.618   4.505   6.641
 1215SOL    HW1 3644   1.532   4.546   6.634
 1215SOL    HW2 3645   1.672   4.553   6.579
 1216SOL     OW 3646   1.040   3.834   6.740
 1216SOL    HW1 3647   1.054   3.914   6.688
 1216SOL    HW2 3648   1.077   3.764   6.687
 1217SOL     OW 3649   0.535   3.780   6.711
 1217SOL    HW1 3650   0.493   3.725   6.645
 1217SOL    HW2 3651   0.468   3.843   6.737
 1218SOL     OW 3652   0.607   4.597   6.001
 1218SOL    HW1 3653   0.642   4.686   5.993
 1218SOL    HW2 3654   0.545   4.603   6.074
 1219SOL     OW 3655   1.391   4.591   6.016
 1219SOL    HW1 3656   1.320   4.587   5.952
 1219SOL    HW2 3657   1.424   4.502   6.021
 1220SOL     OW 3658   1.243   4.255   5.246
 1220SOL    HW1 3659   1.249   4.176   5.299
 1220SOL    HW2 3660   1.210   4.322   5.306
 1221SOL     OW 3661   0.338   3.941   6.205
 1221SOL    HW1 3662   0.312   3.973   6.291
 1221SOL    HW2 3663   0.308   3.850   6.203
 1222SOL     OW 3664   0.073   0.038   6.248
 1222SOL    HW1 3665   0.115  -0.006   6.322
 1222SOL    HW2 3666   0.089   0.131   6.263
 1223SOL     OW 3667   0.764   4.364   6.036
 1223SOL    HW1 3668   0.820   4.341   5.962
 1223SOL    HW2 3669   0.736   4.454   6.019
 1224SOL     OW 3670   1.761   4.668   6.825
 1224SOL    HW1 3671   1.712   4.656   6.744
 1224SOL    HW2 3672   1.697   4.704   6.886
 1225SOL     OW 3673   0.336   3.794   5.590
 1225SOL    HW1 3674   0.325   3.882   5.625
 1225SOL    HW2 3675   0.332   3.737   5.667
 1226SOL     OW 3676   1.650   4.096   5.342
 1226SOL    HW1 3677   1.657   4.027   5.409
 1226SOL    HW2 3678   1.608   4.169   5.388
 1227SOL     OW 3679   1.053   4.495   5.937
 1227SOL    HW1 3680   1.067   4.510   6.031
 1227SOL    HW2 3681   1.026   4.403   5.931
 1228SOL     OW 3682   0.380   4.630   6.777
 1228SOL    HW1 3683   0.458   4.667   6.819
 1228SOL    HW2 3684   0.414   4.583   6.701
 1229SOL     OW 3685   1.570   4.005   5.096
 1229SOL    HW1 3686   1.512   3.933   5.121
 1229SOL    HW2 3687   1.592   4.048   5.178
 1230SOL     OW 3688   1.332   4.565   5.011
 1230SOL    HW1 3689   1.368   4.477   5.022
 1230SOL    HW2 3690   1.355   4.589   4.921
 1231SOL     OW 3691   0.352   4.537   5.916
 1231SOL    HW1 3692   0.442   4.569   5.925
 1231SOL    HW2 3693   0.350   4.457   5.969
 1232SOL     OW 3694   0.369   4.240   5.977
 1232SOL    HW1 3695   0.324   4.158   5.959
 1232SOL    HW2 3696   0.443   4.241   5.915
 1233SOL     OW 3697   1.168   4.110   6.647
 1233SOL    HW1 3698   1.129   4.170   6.711
 1233SOL    HW2 3699   1.257   4.142   6.637
 1234SOL     OW 3700   1.190   3.935   6.447
 1234SOL    HW1 3701   1.190   3.998   6.519
 1234SOL    HW2 3702   1.219   3.985   6.370
 1235SOL     OW 3703   0.031   0.032   5.127
 1235SOL    HW1 3704  -0.058   0.065   5.145
 1235SOL    HW2 3705   0.040  -0.044   5.185
 1236SOL     OW 3706   1.032   4.527   6.208
 1236SOL    HW1 3707   1.070   4.494   6.289
 1236SOL    HW2 3708   0.941   4.496   6.210
 1237SOL     OW 3709   0.072   4.277   6.083
 1237SOL    HW1 3710   0.154   4.241   6.050
 1237SOL    HW2 3711   0.085   4.284   6.177
 1238SOL     OW 3712   0.216   4.246   6.692
 1238SOL    HW1 3713   0.276   4.214   6.626
 1238SOL    HW2 3714   0.168   4.317   6.649
 1239SOL     OW 3715   1.403   4.676   6.631
 1239SOL    HW1 3716   1.436   4.765   6.644
 1239SOL    HW2 3717   1.409   4.662   6.537
 1240SOL     OW 3718   0.846   4.299   5.301
 1240SOL    HW1 3719   0.849   4.218   5.251
 1240SOL    HW2 3720   0.758   4.334   5.286
 1241SOL     OW 3721   1.683   4.332   6.173
 1241SOL    HW1 3722   1.656   4.266   6.236
 1241SOL    HW2 3723   1.766   4.299   6.137
 1242SOL     OW 3724   0.706   4.192   6.240
 1242SOL    HW1 3725   0.670   4.110   6.208
 1242SOL    HW2 3726   0.724   4.243   6.161
 1243SOL     OW 3727   0.504   4.228   5.162
 1243SOL    HW1 3728   0.559   4.306   5.168
 1243SOL    HW2 3729   0.415   4.262   5.168
 1244SOL     OW 3730   0.192   4.868   6.435
 1244SOL    HW1 3731   0.207   4.809   6.509
 1244SOL    HW2 3732   0.200   4.813   6.358
 1245SOL     OW 3733   1.378   4.785   6.204
 1245SOL    HW1 3734   1.397   4.727   6.130
 1245SOL    HW2 3735   1.293   4.823   6.184
 1246SOL     OW 3736   1.334   4.582   5.281
 1246SOL    HW1 3737   1.250   4.554   5.318
 1246SOL    HW2 3738   1.325   4.571   5.187
 1247SOL     OW 3739   0.115   4.985   5.993
 1247SOL    HW1 3740   0.104   4.986   6.088
 1247SOL    HW2 3741   0.033   4.949   5.960
 1248SOL     OW 3742   0.934   3.815   5.103
 1248SOL    HW1 3743   0.986   3.814   5.023
 1248SOL    HW2 3744   0.990   3.773   5.169
 1249SOL     OW 3745   1.755   3.864   5.492
 1249SOL    HW1 3746   1.826   3.846   5.431
 1249SOL    HW2 3747   1.731   3.779   5.529
 1250SOL     OW 3748   1.309   4.653   5.643
 1250SOL    HW1 3749   1.374   4.582   5.643
 1250SOL    HW2 3750   1.348   4.721   5.588
 1251SOL     OW 3751   1.872   3.903   5.937
 1251SOL    HW1 3752   1.905   3.821   5.899
 1251SOL    HW2 3753   1.780   3.906   5.910
 1252SOL     OW 3754   0.298   4.055   5.692
 1252SOL    HW1 3755   0.219   4.099   5.662
 1252SOL    HW2 3756   0.283   4.041   5.786
 1253SOL     OW 3757   0.852   4.733   6.343
 1253SOL    HW1 3758   0.893   4.734   6.257
 1253SOL    HW2 3759   0.865   4.821   6.377
 1254SOL     OW 3760   0.947   4.640   5.262
 1254SOL    HW1 3761   1.010   4.671   5.197
 1254SOL    HW2 3762   0.988   4.561   5.298
 1255SOL     OW 3763   0.406   0.017   6.460
 1255SOL    HW1 3764   0.387   0.105   6.429
 1255SOL    HW2 3765   0.323  -0.030   6.450
 1256SOL     OW 3766   1.651   0.018   6.242
 1256SOL    HW1 3767   1.699   0.013   6.325
 1256SOL    HW2 3768   1.573   0.069   6.262
 1257SOL     OW 3769   1.070   4.817   5.664
 1257SOL    HW1 3770   1.004   4.769   5.715
 1257SOL    HW2 3771   1.127   4.749   5.628
 1258SOL     OW 3772   1.046   3.966   5.941
 1258SOL    HW1 3773   1.037   3.926   5.854
 1258SOL    HW2 3774   1.042   3.892   6.002
 1259SOL     OW 3775   1.741   4.114   6.353
 1259SOL    HW1 3776   1.812   4.179   6.352
 1259SOL    HW2 3777   1.772   4.045   6.294
 1260SOL     OW 3778   0.135   4.715   6.683
 1260SOL    HW1 3779   0.064   4.714   6.748
 1260SOL    HW2 3780   0.215   4.717   6.735
 1261SOL     OW 3781   0.702   3.931   6.461
 1261SOL    HW1 3782   0.789   3.915   6.425
 1261SOL    HW2 3783   0.716   3.938   6.555
 1262SOL     OW 3784   0.106   4.074   5.005
 1262SOL    HW1 3785   0.018   4.050   4.974
 1262SOL    HW2 3786   0.132   4.146   4.948
 1263SOL     OW 3787   1.470   4.586   6.371
 1263SOL    HW1 3788   1.419   4.637   6.308
 1263SOL    HW2 3789   1.561   4.597   6.344
 1264SOL     OW 3790   0.104   3.899   5.293
 1264SOL    HW1 3791   0.091   3.973   5.233
 1264SOL    HW2 3792   0.187   3.860   5.265
 1265SOL     OW 3793   0.644   4.570   6.401
 1265SOL    HW1 3794   0.701   4.646   6.387
 1265SOL    HW2 3795   0.704   4.495   6.405
 1266SOL     OW 3796   0.746   4.294   6.680
 1266SOL    HW1 3797   0.769   4.354   6.750
 1266SOL    HW2 3798   0.804   4.219   6.692
 1267SOL     OW 3799   1.480   4.943   6.607
 1267SOL    HW1 3800   1.480   4.939   6.703
 1267SOL    HW2 3801   1.573   4.944   6.583
 1268SOL     OW 3802   1.705   4.613   6.226
 1268SOL    HW1 3803   1.682   4.528   6.187
 1268SOL    HW2 3804   1.704   4.674   6.153
 1269SOL     OW 3805   1.255   4.053   5.421
 1269SOL    HW1 3806   1.320   3.983   5.414
 1269SOL    HW2 3807   1.278   4.099   5.502
 1270SOL     OW 3808   0.625   4.474   5.625
 1270SOL    HW1 3809   0.669   4.556   5.605
 1270SOL    HW2 3810   0.543   4.478   5.575
 1271SOL     OW 3811   1.807   4.075   6.614
 1271SOL    HW1 3812   1.787   4.098   6.523
 1271SOL    HW2 3813   1.727   4.034   6.647
 1272SOL     OW 3814   1.762   4.663   6.487
 1272SOL    HW1 3815   1.796   4.751   6.498
 1272SOL    HW2 3816   1.755   4.651   6.393
 1273SOL     OW 3817   0.892   4.686   5.831
 1273SOL    HW1 3818   0.941   4.621   5.880
 1273SOL    HW2 3819   0.861   4.748   5.898
 1274SOL     OW 3820   1.113   4.714   5.058
 1274SOL    HW1 3821   1.095   4.761   4.977
 1274SOL    HW2 3822   1.191   4.662   5.038
 1275SOL     OW 3823   0.102   4.960   5.623
 1275SOL    HW1 3824   0.114   4.922   5.709
 1275SOL    HW2 3825   0.185   4.946   5.578
 1276SOL     OW 3826   1.852   3.921   6.201
 1276SOL    HW1 3827   1.852   3.832   6.235
 1276SOL    HW2 3828   1.859   3.910   6.106
 1277SOL     OW 3829   0.460   4.155   5.491
 1277SOL    HW1 3830   0.486   4.082   5.435
 1277SOL    HW2 3831   0.421   4.113   5.568
 1278SOL     OW 3832   0.350   4.277   6.253
 1278SOL    HW1 3833   0.390   4.218   6.317
 1278SOL    HW2 3834   0.386   4.249   6.169
 1279SOL     OW 3835   1.457   3.944   6.084
 1279SOL    HW1 3836   1.503   3.881   6.140
 1279SOL    HW2 3837   1.409   4.000   6.145
 1280SOL     OW 3838   1.033   3.762   6.124
 1280SOL    HW1 3839   0.976   3.691   6.094
 1280SOL    HW2 3840   1.120   3.724   6.124
 1281SOL     OW 3841   0.786   0.056   5.274
 1281SOL    HW1 3842   0.752  -0.031   5.292
 1281SOL    HW2 3843   0.875   0.056   5.310
 1282SOL     OW 3844   1.384   3.781   5.139
 1282SOL    HW1 3845   1.413   3.740   5.058
 1282SOL    HW2 3846   1.297   3.743   5.156
 1283SOL     OW 3847   1.331   4.183   5.661
 1283SOL    HW1 3848   1.274   4.259   5.669
 1283SOL    HW2 3849   1.341   4.150   5.751
 1284SOL     OW 3850   1.623   3.948   5.853
 1284SOL    HW1 3851   1.543   3.953   5.904
 1284SOL    HW2 3852   1.623   4.028   5.800
 1285SOL     OW 3853   0.070   4.804   5.267
 1285SOL    HW1 3854   0.164   4.792   5.265
 1285SOL    HW2 3855   0.036   4.722   5.304
 1286SOL     OW 3856   0.261   4.358   6.947
 1286SOL    HW1 3857   0.171   4.352   6.979
 1286SOL    HW2 3858   0.258   4.319   6.860
 1287SOL     OW 3859   0.254   4.004   7.826
 1287SOL    HW1 3860   0.286   3.986   7.914
 1287SOL    HW2 3861   0.170   3.958   7.821
 1288SOL     OW 3862   0.048   4.102   7.476
 1288SOL    HW1 3863  -0.032   4.135   7.517
 1288SOL    HW2 3864   0.019   4.028   7.422
 1289SOL     OW 3865   1.165   4.431   7.548
 1289SOL    HW1 3866   1.218   4.509   7.528
 1289SOL    HW2 3867   1.111   4.458   7.623
 1290SOL     OW 3868   1.787   4.337   7.065
 1290SOL    HW1 3869   1.774   4.322   6.972
 1290SOL    HW2 3870   1.757   4.256   7.107
 1291SOL     OW 3871   0.803   4.875   7.863
 1291SOL    HW1 3872   0.723   4.894   7.911
 1291SOL    HW2 3873   0.825   4.958   7.820
 1292SOL     OW 3874   0.881   4.526   8.655
 1292SOL    HW1 3875   0.878   4.600   8.716
 1292SOL    HW2 3876   0.903   4.565   8.571
 1293SOL     OW 3877   0.714   4.739   7.496
 1293SOL    HW1 3878   0.780   4.727   7.565
 1293SOL    HW2 3879   0.649   4.797   7.535
 1294SOL     OW 3880   0.720   4.888   8.634
 1294SOL    HW1 3881   0.775   4.965   8.649
 1294SOL    HW2 3882   0.638   4.922   8.599
 1295SOL     OW 3883   0.470   4.123   8.331
 1295SOL    HW1 3884   0.546   4.065   8.339
 1295SOL    HW2 3885   0.395   4.064   8.337
 1296SOL     OW 3886   1.636   4.177   7.570
 1296SOL    HW1 3887   1.565   4.222   7.523
 1296SOL    HW2 3888   1.679   4.245   7.620
 1297SOL     OW 3889   0.270   4.819   7.718
 1297SOL    HW1 3890   0.281   4.740   7.772
 1297SOL    HW2 3891   0.221   4.879   7.774
 1298SOL     OW 3892   0.633   4.695   6.958
 1298SOL    HW1 3893   0.649   4.773   6.905
 1298SOL    HW2 3894   0.681   4.711   7.039
 1299SOL     OW 3895   1.626   3.843   8.311
 1299SOL    HW1 3896   1.608   3.911   8.247
 1299SOL    HW2 3897   1.622   3.887   8.396
 1300SOL     OW 3898   0.155   4.371   7.397
 1300SOL    HW1 3899   0.110   4.289   7.416
 1300SOL    HW2 3900   0.148   4.422   7.477
 1301SOL     OW 3901   1.721   4.652   7.450
 1301SOL    HW1 3902   1.812   4.623   7.450
 1301SOL    HW2 3903   1.713   4.708   7.373
 1302SOL     OW 3904   1.673   4.839   7.264
 1302SOL    HW1 3905   1.756   4.842   7.217
 1302SOL    HW2 3906   1.690   4.883   7.347
 1303SOL     OW 3907   0.145   4.466   8.429
 1303SOL    HW1 3908   0.231   4.461   8.470
 1303SOL    HW2 3909   0.132   4.560   8.412
 1304SOL     OW 3910   1.322   4.957   8.255
 1304SOL    HW1 3911   1.363   4.888   8.203
 1304SOL    HW2 3912   1.375   4.960   8.335
 1305SOL     OW 3913   0.839   3.731   7.334
 1305SOL    HW1 3914   0.876   3.818   7.328
 1305SOL    HW2 3915   0.744   3.745   7.342
 1306SOL     OW 3916   0.229   4.704   8.102
 1306SOL    HW1 3917   0.311   4.659   8.083
 1306SOL    HW2 3918   0.161   4.644   8.073
 1307SOL     OW 3919   1.559   4.727   7.022
 1307SOL    HW1 3920   1.496   4.657   7.039
 1307SOL    HW2 3921   1.599   4.745   7.107
 1308SOL     OW 3922   0.348   3.996   8.592
 1308SOL    HW1 3923   0.420   4.043   8.635
 1308SOL    HW2 3924   0.275   4.003   8.654
 1309SOL     OW 3925   0.626   4.456   7.100
 1309SOL    HW1 3926   0.649   4.527   7.040
 1309SOL    HW2 3927   0.556   4.492   7.154
 1310SOL     OW 3928   1.313   4.074   7.773
 1310SOL    HW1 3929   1.230   4.026   7.768
 1310SOL    HW2 3930   1.367   4.021   7.831
 1311SOL     OW 3931   0.836   4.337   8.295
 1311SOL    HW1 3932   0.794   4.327   8.381
 1311SOL    HW2 3933   0.786   4.279   8.237
 1312SOL     OW 3934   1.424   4.198   8.507
 1312SOL    HW1 3935   1.411   4.238   8.593
 1312SOL    HW2 3936   1.499   4.139   8.519
 1313SOL     OW 3937   1.001   4.620   8.407
 1313SOL    HW1 3938   1.047   4.542   8.376
 1313SOL    HW2 3939   0.951   4.650   8.331
 1314SOL     OW 3940   1.023   4.140   8.075
 1314SOL    HW1 3941   0.946   4.169   8.124
 1314SOL    HW2 3942   0.987   4.091   8.001
 1315SOL     OW 3943   1.075   4.429   7.261
 1315SOL    HW1 3944   1.093   4.424   7.355
 1315SOL    HW2 3945   0.992   4.382   7.250
 1316SOL     OW 3946   0.112   4.544   7.614
 1316SOL    HW1 3947   0.205   4.533   7.636
 1316SOL    HW2 3948   0.091   4.633   7.642
 1317SOL     OW 3949   0.896   4.076   7.028
 1317SOL    HW1 3950   0.954   4.134   6.979
 1317SOL    HW2 3951   0.919   3.988   6.997
 1318SOL     OW 3952   1.748   4.313   8.664
 1318SOL    HW1 3953   1.724   4.397   8.626
 1318SOL    HW2 3954   1.749   4.252   8.590
 1319SOL     OW 3955   1.395   4.869   7.378
 1319SOL    HW1 3956   1.473   4.848   7.327
 1319SOL    HW2 3957   1.350   4.937   7.327
 1320SOL     OW 3958   0.579   3.924   7.718
 1320SOL    HW1 3959   0.577   3.926   7.814
 1320SOL    HW2 3960   0.584   4.015   7.691
 1321SOL     OW 3961   1.827   4.796   7.705
 1321SOL    HW1 3962   1.764   4.780   7.634
 1321SOL    HW2 3963   1.773   4.802   7.784
 1322SOL     OW 3964   0.350   4.675   7.073
 1322SOL    HW1 3965   0.432   4.705   7.033
 1322SOL    HW2 3966   0.329   4.594   7.027
 1323SOL     OW 3967   1.491   4.463   7.560
 1323SOL    HW1 3968   1.487   4.405   7.636
 1323SOL    HW2 3969   1.567   4.519   7.577
 1324SOL     OW 3970   0.232   4.013   8.329
 1324SOL    HW1 3971   0.154   4.069   8.321
 1324SOL    HW2 3972   0.221   3.968   8.412
 1325SOL     OW 3973   1.431   3.837   7.259
 1325SOL    HW1 3974   1.412   3.803   7.172
 1325SOL    HW2 3975   1.526   3.849   7.260
 1326SOL     OW 3976   0.414   4.429   7.313
 1326SOL    HW1 3977   0.452   4.341   7.312
 1326SOL    HW2 3978   0.324   4.416   7.343
 1327SOL     OW 3979   1.575   3.955   8.560
 1327SOL    HW1 3980   1.573   3.982   8.652
 1327SOL    HW2 3981   1.509   3.886   8.554
 1328SOL     OW 3982   0.646   3.853   6.949
 1328SOL    HW1 3983   0.738   3.826   6.953
 1328SOL    HW2 3984   0.618   3.830   6.861
 1329SOL     OW 3985   0.811   3.994   8.581
 1329SOL    HW1 3986   0.874   3.935   8.623
 1329SOL    HW2 3987   0.744   4.009   8.648
 1330SOL     OW 3988   1.379   4.319   8.266
 1330SOL    HW1 3989   1.410   4.281   8.348
 1330SOL    HW2 3990   1.409   4.410   8.268
 1331SOL     OW 3991   0.954   4.234   7.733
 1331SOL    HW1 3992   0.930   4.221   7.641
 1331SOL    HW2 3993   0.997   4.152   7.759
 1332SOL     OW 3994   0.574   3.793   7.346
 1332SOL    HW1 3995   0.493   3.795   7.397
 1332SOL    HW2 3996   0.571   3.872   7.292
 1333SOL     OW 3997   0.329   3.755   7.004
 1333SOL    HW1 3998   0.375   3.837   6.986
 1333SOL    HW2 3999   0.393   3.701   7.050
 1334SOL     OW 4000   0.966   3.967   7.312
 1334SOL    HW1 4001   0.925   4.006   7.235
 1334SOL    HW2 4002   1.059   3.966   7.292
 1335SOL     OW 4003   1.108   4.410   8.296
 1335SOL    HW1 4004   1.034   4.350   8.299
 1335SOL    HW2 4005   1.183   4.356   8.275
 1336SOL     OW 4006   0.494   4.873   7.578
 1336SOL    HW1 4007   0.418   4.854   7.633
 1336SOL    HW2 4008   0.464   4.857   7.489
 1337SOL     OW 4009   1.064   4.278   6.848
 1337SOL    HW1 4010   1.024   4.359   6.816
 1337SOL    HW2 4011   1.122   4.305   6.918
 1338SOL     OW 4012   0.108   4.285   8.222
 1338SOL    HW1 4013   0.196   4.286   8.183
 1338SOL    HW2 4014   0.108   4.358   8.283
 1339SOL     OW 4015   0.594   3.953   7.983
 1339SOL    HW1 4016   0.626   3.870   8.019
 1339SOL    HW2 4017   0.508   3.964   8.022
 1340SOL     OW 4018   0.898   4.184   7.475
 1340SOL    HW1 4019   0.865   4.249   7.413
 1340SOL    HW2 4020   0.919   4.107   7.422
 1341SOL     OW 4021   1.047   3.771   7.587
 1341SOL    HW1 4022   0.979   3.770   7.521
 1341SOL    HW2 4023   1.023   3.701   7.648
 1342SOL     OW 4024   1.464   4.897   7.701
 1342SOL    HW1 4025   1.405   4.823   7.689
 1342SOL    HW2 4026   1.480   4.930   7.612
 1343SOL     OW 4027   1.499   4.320   7.824
 1343SOL    HW1 4028   1.469   4.230   7.833
 1343SOL    HW2 4029   1.567   4.330   7.890
 1344SOL     OW 4030   1.883   4.560   7.212
 1344SOL    HW1 4031   1.929   4.497   7.268
 1344SOL    HW2 4032   1.854   4.508   7.137
 1345SOL     OW 4033   1.421   4.304   6.909
 1345SOL    HW1 4034   1.371   4.282   6.988
 1345SOL    HW2 4035   1.507   4.265   6.924
 1346SOL     OW 4036   0.558   3.987   7.161
 1346SOL    HW1 4037   0.584   3.932   7.088
 1346SOL    HW2 4038   0.558   4.076   7.127
 1347SOL     OW 4039   1.788   4.946   8.425
 1347SOL    HW1 4040   1.879   4.918   8.411
 1347SOL    HW2 4041   1.795   5.040   8.443
 1348SOL     OW 4042   1.669   4.830   7.911
 1348SOL    HW1 4043   1.668   4.905   7.970
 1348SOL    HW2 4044   1.585   4.834   7.865
 1349SOL     OW 4045   0.946   3.821   8.236
 1349SOL    HW1 4046   0.972   3.802   8.146
 1349SOL    HW2 4047   1.019   3.871   8.272
 1350SOL     OW 4048   1.012   4.843   8.553
 1350SOL    HW1 4049   0.917   4.847   8.560
 1350SOL    HW2 4050   1.028   4.767   8.497
 1351SOL     OW 4051   0.734   4.777   7.201
 1351SOL    HW1 4052   0.726   4.785   7.296
 1351SOL    HW2 4053   0.816   4.731   7.187
 1352SOL     OW 4054   0.443   4.541   8.083
 1352SOL    HW1 4055   0.521   4.551   8.137
 1352SOL    HW2 4056   0.404   4.458   8.110
 1353SOL     OW 4057   1.305   4.113   8.096
 1353SOL    HW1 4058   1.324   4.188   8.154
 1353SOL    HW2 4059   1.220   4.134   8.058
 1354SOL     OW 4060   0.394   4.825   7.334
 1354SOL    HW1 4061   0.393   4.904   7.281
 1354SOL    HW2 4062   0.401   4.754   7.270
 1355SOL     OW 4063   0.595   4.266   7.698
 1355SOL    HW1 4064   0.610   4.330   7.628
 1355SOL    HW2 4065   0.642   4.301   7.774
 1356SOL     OW 4066   1.613   4.366   7.306
 1356SOL    HW1 4067   1.584   4.429   7.372
 1356SOL    HW2 4068   1.660   4.420   7.242
 1357SOL     OW 4069   0.433   4.478   8.430
 1357SOL    HW1 4070   0.501   4.528   8.384
 1357SOL    HW2 4071   0.476   4.396   8.454
 1358SOL     OW 4072   1.618   4.505   8.503
 1358SOL    HW1 4073   1.531   4.546   8.496
 1358SOL    HW2 4074   1.672   4.553   8.441
 1359SOL     OW 4075   1.040   3.834   8.602
 1359SOL    HW1 4076   1.054   3.914   8.550
 1359SOL    HW2 4077   1.077   3.764   8.549
 1360SOL     OW 4078   0.535   3.780   8.573
 1360SOL    HW1 4079   0.493   3.725   8.508
 1360SOL    HW2 4080   0.468   3.843   8.599
 1361SOL     OW 4081   0.607   4.597   7.863
 1361SOL    HW1 4082   0.643   4.686   7.855
 1361SOL    HW2 4083   0.545   4.603   7.937
 1362SOL     OW 4084   1.391   4.591   7.878
 1362SOL    HW1 4085   1.320   4.587   7.814
 1362SOL    HW2 4086   1.424   4.502   7.883
 1363SOL     OW 4087   1.243   4.255   7.107
 1363SOL    HW1 4088   1.249   4.176   7.161
 1363SOL    HW2 4089   1.210   4.322   7.167
 1364SOL     OW 4090   0.338   3.941   8.067
 1364SOL    HW1 4091   0.312   3.973   8.153
 1364SOL    HW2 4092   0.308   3.850   8.065
 1365SOL     OW 4093   0.073   0.038   8.110
 1365SOL    HW1 4094   0.115  -0.006   8.184
 1365SOL    HW2 4095   0.089   0.131   8.125
 1366SOL     OW 4096   0.764   4.364   7.898
 1366SOL    HW1 4097   0.820   4.341   7.824
 1366SOL    HW2 4098   0.737   4.454   7.881
 1367SOL     OW 4099   1.761   4.668   8.687
 1367SOL    HW1 4100   1.712   4.656   8.606
 1367SOL    HW2 4101   1.697   4.704   8.748
 1368SOL     OW 4102   0.336   3.794   7.452
 1368SOL    HW1 4103   0.325   3.882   7.487
 1368SOL    HW2 4104   0.332   3.737   7.529
 1369SOL     OW 4105   1.649   4.095   7.204
 1369SOL    HW1 4106   1.657   4.027   7.271
 1369SOL    HW2 4107   1.609   4.169   7.250
 1370SOL     OW 4108   1.053   4.495   7.799
 1370SOL    HW1 4109   1.067   4.510   7.893
 1370SOL    HW2 4110   1.027   4.403   7.793
 1371SOL     OW 4111   0.380   4.630   8.639
 1371SOL    HW1 4112   0.458   4.667   8.681
 1371SOL    HW2 4113   0.414   4.583   8.563
 1372SOL     OW 4114   1.568   4.005   6.958
 1372SOL    HW1 4115   1.512   3.932   6.985
 1372SOL    HW2 4116   1.593   4.048   7.040
 1373SOL     OW 4117   1.333   4.565   6.874
 1373SOL    HW1 4118   1.369   4.477   6.883
 1373SOL    HW2 4119   1.354   4.590   6.784
 1374SOL     OW 4120   0.352   4.537   7.778
 1374SOL    HW1 4121   0.442   4.569   7.787
 1374SOL    HW2 4122   0.350   4.457   7.831
 1375SOL     OW 4123   0.369   4.241   7.839
 1375SOL    HW1 4124   0.324   4.158   7.821
 1375SOL    HW2 4125   0.443   4.241   7.777
 1376SOL     OW 4126   1.168   4.110   8.509
 1376SOL    HW1 4127   1.129   4.170   8.574
 1376SOL    HW2 4128   1.257   4.142   8.499
 1377SOL     OW 4129   1.190   3.935   8.309
 1377SOL    HW1 4130   1.190   3.998   8.381
 1377SOL    HW2 4131   1.219   3.985   8.232
 1378SOL     OW 4132   5.027   0.039   7.000
 1378SOL    HW1 4133   4.935   0.064   7.006
 1378SOL    HW2 4134   5.035  -0.042   7.050
 1379SOL     OW 4135   1.032   4.527   8.070
 1379SOL    HW1 4136   1.070   4.494   8.151
 1379SOL    HW2 4137   0.941   4.496   8.072
 1380SOL     OW 4138   0.072   4.277   7.945
 1380SOL    HW1 4139   0.155   4.241   7.912
 1380SOL    HW2 4140   0.085   4.284   8.039
 1381SOL     OW 4141   0.216   4.246   8.554
 1381SOL    HW1 4142   0.276   4.214   8.488
 1381SOL    HW2 4143   0.168   4.317   8.511
 1382SOL     OW 4144   1.403   4.676   8.493
 1382SOL    HW1 4145   1.436   4.765   8.506
 1382SOL    HW2 4146   1.409   4.662   8.399
 1383SOL     OW 4147   0.846   4.299   7.164
 1383SOL    HW1 4148   0.849   4.218   7.113
 1383SOL    HW2 4149   0.758   4.334   7.148
 1384SOL     OW 4150   1.683   4.332   8.035
 1384SOL    HW1 4151   1.656   4.266   8.098
 1384SOL    HW2 4152   1.766   4.299   7.999
 1385SOL     OW 4153   0.705   4.192   8.102
 1385SOL    HW1 4154   0.670   4.110   8.070
 1385SOL    HW2 4155   0.724   4.243   8.023
 1386SOL     OW 4156   0.504   4.228   7.025
 1386SOL    HW1 4157   0.559   4.306   7.030
 1386SOL    HW2 4158   0.415   4.262   7.028
 1387SOL     OW 4159   0.192   4.868   8.297
 1387SOL    HW1 4160   0.207   4.809   8.371
 1387SOL    HW2 4161   0.200   4.813   8.220
 1388SOL     OW 4162   1.378   4.785   8.066
 1388SOL    HW1 4163   1.397   4.727   7.992
 1388SOL    HW2 4164   1.293   4.823   8.046
 1389SOL     OW 4165   1.334   4.582   7.143
 1389SOL    HW1 4166   1.250   4.555   7.179
 1389SOL    HW2 4167   1.324   4.571   7.049
 1390SOL     OW 4168   0.115   4.985   7.855
 1390SOL    HW1 4169   0.104   4.986   7.950
 1390SOL    HW2 4170   0.033   4.949   7.822
 1391SOL     OW 4171   1.755   3.864   7.355
 1391SOL    HW1 4172   1.826   3.846   7.293
 1391SOL    HW2 4173   1.731   3.779   7.391
 1392SOL     OW 4174   1.309   4.653   7.505
 1392SOL    HW1 4175   1.374   4.582   7.505
 1392SOL    HW2 4176   1.348   4.721   7.450
 1393SOL     OW 4177   1.872   3.903   7.799
 1393SOL    HW1 4178   1.905   3.821   7.761
 1393SOL    HW2 4179   1.780   3.906   7.772
 1394SOL     OW 4180   0.298   4.055   7.554
 1394SOL    HW1 4181   0.218   4.099   7.524
 1394SOL    HW2 4182   0.284   4.041   7.648
 1395SOL     OW 4183   0.852   4.733   8.205
 1395SOL    HW1 4184   0.893   4.734   8.119
 1395SOL    HW2 4185   0.865   4.821   8.239
 1396SOL     OW 4186   0.947   4.639   7.123
 1396SOL    HW1 4187   1.010   4.672   7.059
 1396SOL    HW2 4188   0.988   4.561   7.160
 1397SOL     OW 4189   0.406   0.017   8.322
 1397SOL    HW1 4190   0.387   0.105   8.291
 1397SOL    HW2 4191   0.323  -0.030   8.312
 1398SOL     OW 4192   1.651   0.018   8.104
 1398SOL    HW1 4193   1.699   0.013   8.187
 1398SOL    HW2 4194   1.573   0.069   8.124
 1399SOL     OW 4195   1.070   4.817   7.527
 1399SOL    HW1 4196   1.004   4.769   7.577
 1399SOL    HW2 4197   1.127   4.750   7.489
 1400SOL     OW 4198   1.046   3.966   7.803
 1400SOL    HW1 4199   1.037   3.926   7.716
 1400SOL    HW2 4200   1.042   3.892   7.864
 1401SOL     OW 4201   1.741   4.114   8.215
 1401SOL    HW1 4202   1.812   4.179   8.214
 1401SOL    HW2 4203   1.771   4.045   8.156
 1402SOL     OW 4204   0.135   4.715   8.545
 1402SOL    HW1 4205   0.064   4.714   8.610
 1402SOL    HW2 4206   0.215   4.717   8.597
 1403SOL     OW 4207   0.702   3.931   8.323
 1403SOL    HW1 4208   0.789   3.915   8.287
 1403SOL    HW2 4209   0.716   3.938   8.417
 1404SOL     OW 4210   0.091   4.080   6.867
 1404SOL    HW1 4211   0.009   4.053   6.826
 1404SOL    HW2 4212   0.127   4.146   6.808
 1405SOL     OW 4213   1.470   4.586   8.233
 1405SOL    HW1 4214   1.419   4.637   8.170
 1405SOL    HW2 4215   1.561   4.597   8.206
 1406SOL     OW 4216   0.103   3.899   7.156
 1406SOL    HW1 4217   0.090   3.972   7.095
 1406SOL    HW2 4218   0.186   3.860   7.129
 1407SOL     OW 4219   0.644   4.570   8.263
 1407SOL    HW1 4220   0.701   4.646   8.249
 1407SOL    HW2 4221   0.704   4.495   8.267
 1408SOL     OW 4222   0.746   4.294   8.542
 1408SOL    HW1 4223   0.769   4.354   8.612
 1408SOL    HW2 4224   0.804   4.219   8.554
 1409SOL     OW 4225   1.480   4.943   8.469
 1409SOL    HW1 4226   1.480   4.939   8.565
 1409SOL    HW2 4227   1.573   4.944   8.445
 1410SOL     OW 4228   1.705   4.613   8.088
 1410SOL    HW1 4229   1.682   4.528   8.049
 1410SOL    HW2 4230   1.704   4.674   8.015
 1411SOL     OW 4231   1.255   4.054   7.283
 1411SOL    HW1 4232   1.319   3.983   7.275
 1411SOL    HW2 4233   1.278   4.099   7.364
 1412SOL     OW 4234   0.625   4.474   7.487
 1412SOL    HW1 4235   0.669   4.556   7.467
 1412SOL    HW2 4236   0.543   4.478   7.437
 1413SOL     OW 4237   1.807   4.075   8.476
 1413SOL    HW1 4238   1.787   4.098   8.385
 1413SOL    HW2 4239   1.727   4.034   8.509
 1414SOL     OW 4240   1.762   4.663   8.349
 1414SOL    HW1 4241   1.796   4.751   8.360
 1414SOL    HW2 4242   1.755   4.651   8.255
 1415SOL     OW 4243   0.892   4.686   7.693
 1415SOL    HW1 4244   0.942   4.621   7.742
 1415SOL    HW2 4245   0.861   4.748   7.760
 1416SOL     OW 4246   1.113   4.713   6.920
 1416SOL    HW1 4247   1.095   4.763   6.841
 1416SOL    HW2 4248   1.191   4.662   6.899
 1417SOL     OW 4249   0.102   4.961   7.484
 1417SOL    HW1 4250   0.113   4.922   7.571
 1417SOL    HW2 4251   0.186   4.945   7.440
 1418SOL     OW 4252   1.852   3.921   8.063
 1418SOL    HW1 4253   1.852   3.832   8.097
 1418SOL    HW2 4254   1.859   3.910   7.968
 1419SOL     OW 4255   0.458   4.155   7.352
 1419SOL    HW1 4256   0.487   4.082   7.297
 1419SOL    HW2 4257   0.422   4.113   7.430
 1420SOL     OW 4258   0.350   4.277   8.115
 1420SOL    HW1 4259   0.390   4.218   8.179
 1420SOL    HW2 4260   0.386   4.249   8.031
 1421SOL     OW 4261   1.457   3.944   7.946
 1421SOL    HW1 4262   1.503   3.881   8.002
 1421SOL    HW2 4263   1.409   4.000   8.007
 1422SOL     OW 4264   1.032   3.762   7.986
 1422SOL    HW1 4265   0.976   3.691   7.956
 1422SOL    HW2 4266   1.120   3.724   7.985
 1423SOL     OW 4267   0.814   0.049   7.111
 1423SOL    HW1 4268   0.757  -0.019   7.148
 1423SOL    HW2 4269   0.886   0.056   7.173
 1424SOL     OW 4270   1.384   3.781   7.001
 1424SOL    HW1 4271   1.412   3.739   6.919
 1424SOL    HW2 4272   1.297   3.744   7.018
 1425SOL     OW 4273   1.331   4.183   7.523
 1425SOL    HW1 4274   1.274   4.259   7.531
 1425SOL    HW2 4275   1.341   4.150   7.613
 1426SOL     OW 4276   1.623   3.948   7.715
 1426SOL    HW1 4277   1.543   3.953   7.766
 1426SOL    HW2 4278   1.623   4.028   7.662
 1427SOL     OW 4279   0.070   4.804   7.128
 1427SOL    HW1 4280   0.165   4.791   7.129
 1427SOL    HW2 4281   0.035   4.723   7.165
 1428SOL     OW 4282   0.261   4.358   8.809
 1428SOL    HW1 4283   0.171   4.352   8.841
 1428SOL    HW2 4284   0.258   4.319   8.722
 1429SOL     OW 4285   0.254   4.005   9.688
 1429SOL    HW1 4286   0.287   3.986   9.776
 1429SOL    HW2 4287   0.170   3.958   9.683
 1430SOL     OW 4288   0.048   4.102   9.338
 1430SOL    HW1 4289  -0.032   4.135   9.379
 1430SOL    HW2 4290   0.019   4.028   9.285
 1431SOL     OW 4291   1.165   4.431   9.410
 1431SOL    HW1 4292   1.218   4.509   9.391
 1431SOL    HW2 4293   1.111   4.458   9.485
 1432SOL     OW 4294   1.787   4.337   8.927
 1432SOL    HW1 4295   1.774   4.322   8.834
 1432SOL    HW2 4296   1.757   4.256   8.969
 1433SOL     OW 4297   0.803   4.875   9.724
 1433SOL    HW1 4298   0.723   4.894   9.774
 1433SOL    HW2 4299   0.826   4.958   9.682
 1434SOL     OW 4300   0.714   4.739   9.358
 1434SOL    HW1 4301   0.780   4.727   9.427
 1434SOL    HW2 4302   0.649   4.797   9.397
 1435SOL     OW 4303   1.635   4.177   9.432
 1435SOL    HW1 4304   1.565   4.222   9.385
 1435SOL    HW2 4305   1.679   4.246   9.481
 1436SOL     OW 4306   0.270   4.819   9.580
 1436SOL    HW1 4307   0.281   4.740   9.634
 1436SOL    HW2 4308   0.221   4.879   9.636
 1437SOL     OW 4309   0.633   4.695   8.820
 1437SOL    HW1 4310   0.649   4.773   8.767
 1437SOL    HW2 4311   0.681   4.711   8.901
 1438SOL     OW 4312   0.155   4.371   9.259
 1438SOL    HW1 4313   0.110   4.289   9.278
 1438SOL    HW2 4314   0.148   4.422   9.339
 1439SOL     OW 4315   1.721   4.652   9.312
 1439SOL    HW1 4316   1.812   4.623   9.312
 1439SOL    HW2 4317   1.713   4.708   9.235
 1440SOL     OW 4318   1.673   4.839   9.126
 1440SOL    HW1 4319   1.756   4.842   9.079
 1440SOL    HW2 4320   1.690   4.883   9.209
 1441SOL     OW 4321   0.839   3.731   9.196
 1441SOL    HW1 4322   0.876   3.818   9.190
 1441SOL    HW2 4323   0.744   3.745   9.204
 1442SOL     OW 4324   0.229   4.706   9.965
 1442SOL    HW1 4325   0.311   4.661   9.945
 1442SOL    HW2 4326   0.161   4.645   9.936
 1443SOL     OW 4327   1.559   4.727   8.884
 1443SOL    HW1 4328   1.496   4.657   8.901
 1443SOL    HW2 4329   1.599   4.745   8.969
 1444SOL     OW 4330   0.626   4.456   8.962
 1444SOL    HW1 4331   0.649   4.527   8.902
 1444SOL    HW2 4332   0.556   4.492   9.016
 1445SOL     OW 4333   1.313   4.074   9.636
 1445SOL    HW1 4334   1.230   4.027   9.629
 1445SOL    HW2 4335   1.367   4.020   9.692
 1446SOL     OW 4336   1.075   4.429   9.123
 1446SOL    HW1 4337   1.093   4.424   9.217
 1446SOL    HW2 4338   0.992   4.382   9.112
 1447SOL     OW 4339   0.112   4.544   9.477
 1447SOL    HW1 4340   0.205   4.533   9.497
 1447SOL    HW2 4341   0.091   4.633   9.504
 1448SOL     OW 4342   0.896   4.076   8.890
 1448SOL    HW1 4343   0.954   4.134   8.841
 1448SOL    HW2 4344   0.919   3.988   8.859
 1449SOL     OW 4345   1.395   4.869   9.240
 1449SOL    HW1 4346   1.473   4.848   9.189
 1449SOL    HW2 4347   1.350   4.937   9.189
 1450SOL     OW 4348   0.580   3.923   9.581
 1450SOL    HW1 4349   0.575   3.926   9.677
 1450SOL    HW2 4350   0.583   4.015   9.555
 1451SOL     OW 4351   1.827   4.796   9.567
 1451SOL    HW1 4352   1.764   4.779   9.497
 1451SOL    HW2 4353   1.773   4.802   9.646
 1452SOL     OW 4354   0.350   4.675   8.935
 1452SOL    HW1 4355   0.432   4.705   8.895
 1452SOL    HW2 4356   0.329   4.594   8.889
 1453SOL     OW 4357   1.492   4.463   9.422
 1453SOL    HW1 4358   1.487   4.405   9.498
 1453SOL    HW2 4359   1.567   4.519   9.439
 1454SOL     OW 4360   1.431   3.837   9.121
 1454SOL    HW1 4361   1.412   3.803   9.034
 1454SOL    HW2 4362   1.526   3.849   9.122
 1455SOL     OW 4363   0.414   4.429   9.175
 1455SOL    HW1 4364   0.452   4.341   9.174
 1455SOL    HW2 4365   0.324   4.416   9.205
 1456SOL     OW 4366   0.646   3.853   8.811
 1456SOL    HW1 4367   0.738   3.826   8.815
 1456SOL    HW2 4368   0.618   3.830   8.723
 1457SOL     OW 4369   0.955   4.234   9.595
 1457SOL    HW1 4370   0.931   4.220   9.503
 1457SOL    HW2 4371   0.997   4.152   9.621
 1458SOL     OW 4372   0.574   3.793   9.208
 1458SOL    HW1 4373   0.493   3.795   9.259
 1458SOL    HW2 4374   0.571   3.872   9.154
 1459SOL     OW 4375   0.329   3.755   8.866
 1459SOL    HW1 4376   0.375   3.837   8.848
 1459SOL    HW2 4377   0.393   3.701   8.912
 1460SOL     OW 4378   0.966   3.967   9.174
 1460SOL    HW1 4379   0.925   4.006   9.097
 1460SOL    HW2 4380   1.059   3.966   9.154
 1461SOL     OW 4381   0.494   4.874   9.440
 1461SOL    HW1 4382   0.418   4.854   9.495
 1461SOL    HW2 4383   0.464   4.857   9.351
 1462SOL     OW 4384   1.064   4.278   8.710
 1462SOL    HW1 4385   1.025   4.359   8.678
 1462SOL    HW2 4386   1.122   4.305   8.780
 1463SOL     OW 4387   0.898   4.184   9.337
 1463SOL    HW1 4388   0.865   4.249   9.275
 1463SOL    HW2 4389   0.919   4.107   9.284
 1464SOL     OW 4390   1.047   3.771   9.449
 1464SOL    HW1 4391   0.979   3.770   9.382
 1464SOL    HW2 4392   1.023   3.701   9.510
 1465SOL     OW 4393   1.464   4.898   9.563
 1465SOL    HW1 4394   1.406   4.823   9.551
 1465SOL    HW2 4395   1.480   4.929   9.474
 1466SOL     OW 4396   1.498   4.320   9.686
 1466SOL    HW1 4397   1.469   4.230   9.695
 1466SOL    HW2 4398   1.567   4.331   9.752
 1467SOL     OW 4399   1.883   4.560   9.074
 1467SOL    HW1 4400   1.930   4.497   9.130
 1467SOL    HW2 4401   1.854   4.508   8.999
 1468SOL     OW 4402   1.421   4.304   8.771
 1468SOL    HW1 4403   1.371   4.282   8.850
 1468SOL    HW2 4404   1.507   4.265   8.786
 1469SOL     OW 4405   0.558   3.987   9.023
 1469SOL    HW1 4406   0.585   3.932   8.950
 1469SOL    HW2 4407   0.558   4.076   8.989
 1470SOL     OW 4408   1.670   4.831   9.772
 1470SOL    HW1 4409   1.667   4.904   9.833
 1470SOL    HW2 4410   1.585   4.833   9.728
 1471SOL     OW 4411   0.734   4.778   9.063
 1471SOL    HW1 4412   0.726   4.785   9.158
 1471SOL    HW2 4413   0.816   4.731   9.049
 1472SOL     OW 4414   0.443   4.542   9.946
 1472SOL    HW1 4415   0.523   4.549   9.997
 1472SOL    HW2 4416   0.405   4.458   9.973
 1473SOL     OW 4417   0.394   4.825   9.196
 1473SOL    HW1 4418   0.393   4.904   9.143
 1473SOL    HW2 4419   0.401   4.754   9.132
 1474SOL     OW 4420   0.596   4.266   9.560
 1474SOL    HW1 4421   0.610   4.330   9.491
 1474SOL    HW2 4422   0.642   4.301   9.636
 1475SOL     OW 4423   1.613   4.366   9.168
 1475SOL    HW1 4424   1.584   4.429   9.234
 1475SOL    HW2 4425   1.660   4.420   9.104
 1476SOL     OW 4426   0.606   4.598   9.725
 1476SOL    HW1 4427   0.643   4.686   9.718
 1476SOL    HW2 4428   0.545   4.603   9.798
 1477SOL     OW 4429   1.391   4.592   9.739
 1477SOL    HW1 4430   1.319   4.587   9.676
 1477SOL    HW2 4431   1.424   4.502   9.745
 1478SOL     OW 4432   1.243   4.255   8.969
 1478SOL    HW1 4433   1.249   4.176   9.023
 1478SOL    HW2 4434   1.210   4.322   9.029
 1479SOL     OW 4435   0.337   3.941   9.927
 1479SOL    HW1 4436   0.315   3.973  10.014
 1479SOL    HW2 4437   0.309   3.849   9.927
 1480SOL     OW 4438   0.070   0.038   9.975
 1480SOL    HW1 4439   0.119  -0.005  10.044
 1480SOL    HW2 4440   0.089   0.131   9.986
 1481SOL     OW 4441   0.763   4.363   9.759
 1481SOL    HW1 4442   0.820   4.341   9.686
 1481SOL    HW2 4443   0.737   4.454   9.743
 1482SOL     OW 4444   0.336   3.794   9.314
 1482SOL    HW1 4445   0.325   3.882   9.349
 1482SOL    HW2 4446   0.332   3.737   9.391
 1483SOL     OW 4447   1.649   4.095   9.066
 1483SOL    HW1 4448   1.657   4.027   9.133
 1483SOL    HW2 4449   1.609   4.169   9.112
 1484SOL     OW 4450   1.053   4.495   9.661
 1484SOL    HW1 4451   1.067   4.510   9.755
 1484SOL    HW2 4452   1.026   4.403   9.655
 1485SOL     OW 4453   1.568   4.005   8.820
 1485SOL    HW1 4454   1.512   3.932   8.847
 1485SOL    HW2 4455   1.593   4.048   8.902
 1486SOL     OW 4456   1.332   4.565   8.736
 1486SOL    HW1 4457   1.369   4.477   8.745
 1486SOL    HW2 4458   1.354   4.590   8.646
 1487SOL     OW 4459   0.352   4.537   9.641
 1487SOL    HW1 4460   0.442   4.569   9.649
 1487SOL    HW2 4461   0.350   4.457   9.692
 1488SOL     OW 4462   0.367   4.242   9.700
 1488SOL    HW1 4463   0.324   4.158   9.684
 1488SOL    HW2 4464   0.443   4.242   9.640
 1489SOL     OW 4465   1.193   3.935  10.172
 1489SOL    HW1 4466   1.192   3.999  10.243
 1489SOL    HW2 4467   1.217   3.985  10.095
 1490SOL     OW 4468   5.027   0.039   8.862
 1490SOL    HW1 4469   4.935   0.064   8.868
 1490SOL    HW2 4470   5.035  -0.042   8.912
 1491SOL     OW 4471   1.033   4.524   9.932
 1491SOL    HW1 4472   1.069   4.495  10.015
 1491SOL    HW2 4473   0.941   4.497   9.935
 1492SOL     OW 4474   0.072   4.275   9.808
 1492SOL    HW1 4475   0.154   4.241   9.773
 1492SOL    HW2 4476   0.088   4.285   9.902
 1493SOL     OW 4477   0.846   4.299   9.026
 1493SOL    HW1 4478   0.849   4.218   8.975
 1493SOL    HW2 4479   0.758   4.334   9.010
 1494SOL     OW 4480   1.683   4.331   9.896
 1494SOL    HW1 4481   1.657   4.265   9.961
 1494SOL    HW2 4482   1.765   4.298   9.860
 1495SOL     OW 4483   0.701   4.193   9.965
 1495SOL    HW1 4484   0.671   4.109   9.932
 1495SOL    HW2 4485   0.726   4.243   9.887
 1496SOL     OW 4486   0.504   4.228   8.887
 1496SOL    HW1 4487   0.559   4.306   8.892
 1496SOL    HW2 4488   0.415   4.262   8.890
 1497SOL     OW 4489   1.380   4.791   9.928
 1497SOL    HW1 4490   1.397   4.727   9.859
 1497SOL    HW2 4491   1.291   4.823   9.909
 1498SOL     OW 4492   1.334   4.582   9.005
 1498SOL    HW1 4493   1.250   4.555   9.041
 1498SOL    HW2 4494   1.324   4.571   8.911
 1499SOL     OW 4495   0.115   4.985   9.717
 1499SOL    HW1 4496   0.104   4.986   9.812
 1499SOL    HW2 4497   0.033   4.949   9.684
 1500SOL     OW 4498   1.755   3.864   9.216
 1500SOL    HW1 4499   1.826   3.846   9.155
 1500SOL    HW2 4500   1.731   3.779   9.253
 1501SOL     OW 4501   1.309   4.653   9.367
 1501SOL    HW1 4502   1.374   4.582   9.367
 1501SOL    HW2 4503   1.348   4.721   9.312
 1502SOL     OW 4504   1.872   3.903   9.661
 1502SOL    HW1 4505   1.905   3.821   9.623
 1502SOL    HW2 4506   1.780   3.906   9.634
 1503SOL     OW 4507   0.298   4.055   9.416
 1503SOL    HW1 4508   0.219   4.099   9.386
 1503SOL    HW2 4509   0.284   4.041   9.510
 1504SOL     OW 4510   0.850   4.732  10.066
 1504SOL    HW1 4511   0.894   4.733   9.981
 1504SOL    HW2 4512   0.865   4.819  10.102
 1505SOL     OW 4513   0.947   4.639   8.985
 1505SOL    HW1 4514   1.010   4.672   8.921
 1505SOL    HW2 4515   0.988   4.561   9.022
 1506SOL     OW 4516   1.648   0.024   9.983
 1506SOL    HW1 4517   1.699   0.023  10.063
 1506SOL    HW2 4518   1.573   0.081  10.002
 1507SOL     OW 4519   1.070   4.817   9.388
 1507SOL    HW1 4520   1.005   4.769   9.439
 1507SOL    HW2 4521   1.127   4.750   9.352
 1508SOL     OW 4522   1.048   3.966   9.664
 1508SOL    HW1 4523   1.037   3.925   9.578
 1508SOL    HW2 4524   1.041   3.894   9.726
 1509SOL     OW 4525   1.738   4.116  10.073
 1509SOL    HW1 4526   1.811   4.176  10.080
 1509SOL    HW2 4527   1.771   4.043  10.020
 1510SOL     OW 4528   0.091   4.080   8.729
 1510SOL    HW1 4529   0.009   4.053   8.688
 1510SOL    HW2 4530   0.127   4.146   8.670
 1511SOL     OW 4531   0.103   3.899   9.018
 1511SOL    HW1 4532   0.090   3.972   8.957
 1511SOL    HW2 4533   0.186   3.860   8.991
 1512SOL     OW 4534   1.710   4.612   9.949
 1512SOL    HW1 4535   1.679   4.529   9.912
 1512SOL    HW2 4536   1.702   4.675   9.877
 1513SOL     OW 4537   1.255   4.054   9.145
 1513SOL    HW1 4538   1.319   3.983   9.137
 1513SOL    HW2 4539   1.278   4.099   9.226
 1514SOL     OW 4540   0.625   4.474   9.349
 1514SOL    HW1 4541   0.669   4.556   9.329
 1514SOL    HW2 4542   0.543   4.478   9.299
 1515SOL     OW 4543   1.764   4.662  10.213
 1515SOL    HW1 4544   1.797   4.751  10.221
 1515SOL    HW2 4545   1.751   4.650  10.119
 1516SOL     OW 4546   0.892   4.686   9.555
 1516SOL    HW1 4547   0.942   4.621   9.604
 1516SOL    HW2 4548   0.861   4.748   9.622
 1517SOL     OW 4549   1.113   4.713   8.782
 1517SOL    HW1 4550   1.095   4.763   8.703
 1517SOL    HW2 4551   1.191   4.662   8.761
 1518SOL     OW 4552   0.102   4.961   9.346
 1518SOL    HW1 4553   0.113   4.922   9.433
 1518SOL    HW2 4554   0.186   4.945   9.302
 1519SOL     OW 4555   1.853   3.921   9.924
 1519SOL    HW1 4556   1.853   3.832   9.959
 1519SOL    HW2 4557   1.859   3.910   9.830
 1520SOL     OW 4558   0.458   4.155   9.214
 1520SOL    HW1 4559   0.487   4.082   9.159
 1520SOL    HW2 4560   0.422   4.113   9.292
 1521SOL     OW 4561   1.456   3.944   9.808
 1521SOL    HW1 4562   1.504   3.881   9.863
 1521SOL    HW2 4563   1.410   4.000   9.871
 1522SOL     OW 4564   1.032   3.763   9.845
 1522SOL    HW1 4565   0.975   3.691   9.820
 1522SOL    HW2 4566   1.120   3.724   9.850
 1523SOL     OW 4567   0.814   0.049   8.973
 1523SOL    HW1 4568   0.757  -0.019   9.010
 1523SOL    HW2 4569   0.886   0.056   9.035
 1524SOL     OW 4570   1.384   3.781   8.863
 1524SOL    HW1 4571   1.412   3.739   8.781
 1524SOL    HW2 4572   1.297   3.744   8.880
 1525SOL     OW 4573   1.331   4.183   9.385
 1525SOL    HW1 4574   1.274   4.259   9.393
 1525SOL    HW2 4575   1.341   4.150   9.475
 1526SOL     OW 4576   1.623   3.948   9.577
 1526SOL    HW1 4577   1.543   3.952   9.628
 1526SOL    HW2 4578   1.623   4.028   9.524
 1527SOL     OW 4579   0.070   4.804   8.990
 1527SOL    HW1 4580   0.165   4.791   8.991
 1527SOL    HW2 4581   0.035   4.723   9.027
 1528SOL     OW 4582   2.124   0.634   5.084
 1528SOL    HW1 4583   2.034   0.629   5.117
 1528SOL    HW2 4584   2.120   0.595   4.997
 1529SOL     OW 4585   2.118   0.281   5.964
 1529SOL    HW1 4586   2.148   0.262   6.053
 1529SOL    HW2 4587   2.033   0.238   5.958
 1530SOL     OW 4588   1.909   0.378   5.614
 1530SOL    HW1 4589   1.828   0.409   5.654
 1530SOL    HW2 4590   1.883   0.304   5.560
 1531SOL     OW 4591   2.462   1.279   6.137
 1531SOL    HW1 4592   2.373   1.278   6.101
 1531SOL    HW2 4593   2.470   1.366   6.177
 1532SOL     OW 4594   3.448   1.517   5.674
 1532SOL    HW1 4595   3.392   1.502   5.750
 1532SOL    HW2 4596   3.386   1.525   5.601
 1533SOL     OW 4597   3.027   0.708   5.686
 1533SOL    HW1 4598   3.080   0.785   5.667
 1533SOL    HW2 4599   2.973   0.734   5.761
 1534SOL     OW 4600   3.649   0.613   5.201
 1534SOL    HW1 4601   3.634   0.595   5.108
 1534SOL    HW2 4602   3.619   0.534   5.246
 1535SOL     OW 4603   2.661   1.149   5.996
 1535SOL    HW1 4604   2.586   1.171   6.052
 1535SOL    HW2 4605   2.690   1.233   5.961
 1536SOL     OW 4606   2.744   0.802   6.793
 1536SOL    HW1 4607   2.740   0.876   6.854
 1536SOL    HW2 4608   2.765   0.841   6.709
 1537SOL     OW 4609   2.579   1.019   5.633
 1537SOL    HW1 4610   2.641   1.002   5.704
 1537SOL    HW2 4611   2.509   1.070   5.675
 1538SOL     OW 4612   2.582   1.165   6.774
 1538SOL    HW1 4613   2.635   1.243   6.787
 1538SOL    HW2 4614   2.500   1.197   6.736
 1539SOL     OW 4615   2.226   1.440   6.035
 1539SOL    HW1 4616   2.154   1.411   5.979
 1539SOL    HW2 4617   2.281   1.493   5.976
 1540SOL     OW 4618   3.353   1.509   6.310
 1540SOL    HW1 4619   3.377   1.598   6.337
 1540SOL    HW2 4620   3.336   1.463   6.393
 1541SOL     OW 4621   2.332   0.399   6.469
 1541SOL    HW1 4622   2.408   0.341   6.478
 1541SOL    HW2 4623   2.257   0.340   6.475
 1542SOL     OW 4624   3.498   0.453   5.708
 1542SOL    HW1 4625   3.427   0.498   5.661
 1542SOL    HW2 4626   3.541   0.521   5.757
 1543SOL     OW 4627   2.122   1.717   5.453
 1543SOL    HW1 4628   2.156   1.792   5.502
 1543SOL    HW2 4629   2.169   1.719   5.370
 1544SOL     OW 4630   3.022   1.346   6.660
 1544SOL    HW1 4631   3.064   1.343   6.746
 1544SOL    HW2 4632   2.974   1.263   6.654
 1545SOL     OW 4633   2.123   1.440   5.509
 1545SOL    HW1 4634   2.096   1.531   5.511
 1545SOL    HW2 4635   2.053   1.392   5.554
 1546SOL     OW 4636   2.135   1.096   5.857
 1546SOL    HW1 4637   2.144   1.016   5.909
 1546SOL    HW2 4638   2.081   1.154   5.911
 1547SOL     OW 4639   2.513   1.792   6.409
 1547SOL    HW1 4640   2.426   1.778   6.446
 1547SOL    HW2 4641   2.537   1.880   6.435
 1548SOL     OW 4642   2.498   0.969   5.095
 1548SOL    HW1 4643   2.508   1.050   5.045
 1548SOL    HW2 4644   2.543   0.987   5.178
 1549SOL     OW 4645   3.485   0.131   6.465
 1549SOL    HW1 4646   3.469   0.195   6.395
 1549SOL    HW2 4647   3.479   0.182   6.546
 1550SOL     OW 4648   2.013   0.649   5.533
 1550SOL    HW1 4649   1.974   0.564   5.553
 1550SOL    HW2 4650   2.010   0.697   5.617
 1551SOL     OW 4651   3.734   1.772   5.328
 1551SOL    HW1 4652   3.788   1.746   5.403
 1551SOL    HW2 4653   3.767   1.858   5.303
 1552SOL     OW 4654   1.917   1.602   5.086
 1552SOL    HW1 4655   1.903   1.511   5.112
 1552SOL    HW2 4656   1.890   1.653   5.163
 1553SOL     OW 4657   3.582   0.927   5.588
 1553SOL    HW1 4658   3.674   0.899   5.588
 1553SOL    HW2 4659   3.575   0.985   5.512
 1554SOL     OW 4660   3.535   1.113   5.403
 1554SOL    HW1 4661   3.618   1.118   5.356
 1554SOL    HW2 4662   3.549   1.162   5.484
 1555SOL     OW 4663   2.008   0.742   6.565
 1555SOL    HW1 4664   2.092   0.737   6.609
 1555SOL    HW2 4665   1.993   0.835   6.550
 1556SOL     OW 4666   2.507   1.372   5.698
 1556SOL    HW1 4667   2.458   1.290   5.704
 1556SOL    HW2 4668   2.482   1.408   5.613
 1557SOL     OW 4669   3.185   1.236   6.395
 1557SOL    HW1 4670   3.222   1.166   6.341
 1557SOL    HW2 4671   3.237   1.234   6.475
 1558SOL     OW 4672   2.704   0.013   5.516
 1558SOL    HW1 4673   2.741   0.091   5.475
 1558SOL    HW2 4674   2.612   0.012   5.486
 1559SOL     OW 4675   2.090   0.981   6.235
 1559SOL    HW1 4676   2.172   0.935   6.221
 1559SOL    HW2 4677   2.022   0.916   6.214
 1560SOL     OW 4678   3.421   1.001   5.161
 1560SOL    HW1 4679   3.358   0.931   5.180
 1560SOL    HW2 4680   3.461   1.019   5.246
 1561SOL     OW 4681   3.078   1.799   6.587
 1561SOL    HW1 4682   3.104   1.853   6.512
 1561SOL    HW2 4683   3.089   1.709   6.556
 1562SOL     OW 4684   2.211   0.258   6.767
 1562SOL    HW1 4685   2.275   0.327   6.782
 1562SOL    HW2 4686   2.129   0.292   6.803
 1563SOL     OW 4687   3.358   1.423   5.924
 1563SOL    HW1 4688   3.299   1.427   5.999
 1563SOL    HW2 4689   3.344   1.337   5.886
 1564SOL     OW 4690   3.558   1.721   5.545
 1564SOL    HW1 4691   3.522   1.695   5.460
 1564SOL    HW2 4692   3.540   1.648   5.603
 1565SOL     OW 4693   2.489   0.733   5.239
 1565SOL    HW1 4694   2.510   0.803   5.178
 1565SOL    HW2 4695   2.417   0.768   5.292
 1566SOL     OW 4696   3.175   0.350   5.911
 1566SOL    HW1 4697   3.092   0.302   5.905
 1566SOL    HW2 4698   3.229   0.297   5.969
 1567SOL     OW 4699   3.469   1.669   5.278
 1567SOL    HW1 4700   3.556   1.710   5.277
 1567SOL    HW2 4701   3.453   1.645   5.187
 1568SOL     OW 4702   2.698   0.612   6.433
 1568SOL    HW1 4703   2.655   0.604   6.518
 1568SOL    HW2 4704   2.647   0.556   6.375
 1569SOL     OW 4705   3.286   0.474   6.645
 1569SOL    HW1 4706   3.273   0.515   6.731
 1569SOL    HW2 4707   3.361   0.416   6.658
 1570SOL     OW 4708   2.863   0.896   6.545
 1570SOL    HW1 4709   2.909   0.818   6.514
 1570SOL    HW2 4710   2.813   0.926   6.469
 1571SOL     OW 4711   2.885   0.415   6.213
 1571SOL    HW1 4712   2.808   0.446   6.261
 1571SOL    HW2 4713   2.849   0.368   6.138
 1572SOL     OW 4714   2.936   0.706   5.400
 1572SOL    HW1 4715   2.955   0.700   5.493
 1572SOL    HW2 4716   2.854   0.658   5.388
 1573SOL     OW 4717   1.970   0.817   5.755
 1573SOL    HW1 4718   2.064   0.808   5.774
 1573SOL    HW2 4719   1.949   0.906   5.783
 1574SOL     OW 4720   2.023   1.826   6.543
 1574SOL    HW1 4721   2.011   1.813   6.637
 1574SOL    HW2 4722   1.939   1.860   6.512
 1575SOL     OW 4723   2.761   0.354   5.169
 1575SOL    HW1 4724   2.817   0.409   5.115
 1575SOL    HW2 4725   2.775   0.265   5.136
 1576SOL     OW 4726   3.610   0.589   6.802
 1576SOL    HW1 4727   3.586   0.673   6.764
 1576SOL    HW2 4728   3.611   0.528   6.728
 1577SOL     OW 4729   3.257   1.150   5.516
 1577SOL    HW1 4730   3.335   1.125   5.466
 1577SOL    HW2 4731   3.211   1.212   5.460
 1578SOL     OW 4732   2.443   0.201   5.855
 1578SOL    HW1 4733   2.439   0.203   5.951
 1578SOL    HW2 4734   2.445   0.293   5.830
 1579SOL     OW 4735   2.901   1.459   5.447
 1579SOL    HW1 4736   2.857   1.531   5.402
 1579SOL    HW2 4737   2.896   1.483   5.540
 1580SOL     OW 4738   2.244   1.807   5.823
 1580SOL    HW1 4739   2.295   1.726   5.831
 1580SOL    HW2 4740   2.309   1.876   5.823
 1581SOL     OW 4741   3.689   1.072   5.842
 1581SOL    HW1 4742   3.626   1.056   5.772
 1581SOL    HW2 4743   3.636   1.079   5.922
 1582SOL     OW 4744   3.121   1.555   6.477
 1582SOL    HW1 4745   3.122   1.479   6.536
 1582SOL    HW2 4746   3.069   1.526   6.403
 1583SOL     OW 4747   2.215   0.949   5.214
 1583SOL    HW1 4748   2.294   0.981   5.169
 1583SOL    HW2 4749   2.191   0.870   5.166
 1584SOL     OW 4750   3.353   0.739   5.698
 1584SOL    HW1 4751   3.349   0.681   5.774
 1584SOL    HW2 4752   3.429   0.795   5.715
 1585SOL     OW 4753   2.355   1.269   6.702
 1585SOL    HW1 4754   2.308   1.272   6.618
 1585SOL    HW2 4755   2.287   1.255   6.767
 1586SOL     OW 4756   3.003   1.783   5.205
 1586SOL    HW1 4757   2.947   1.722   5.254
 1586SOL    HW2 4758   3.032   1.732   5.129
 1587SOL     OW 4759   2.093   0.286   6.467
 1587SOL    HW1 4760   2.018   0.346   6.460
 1587SOL    HW2 4761   2.082   0.245   6.553
 1588SOL     OW 4762   3.526   1.381   5.055
 1588SOL    HW1 4763   3.490   1.469   5.042
 1588SOL    HW2 4764   3.452   1.323   5.039
 1589SOL     OW 4765   2.358   1.746   5.294
 1589SOL    HW1 4766   2.392   1.788   5.373
 1589SOL    HW2 4767   2.433   1.742   5.235
 1590SOL     OW 4768   3.293   0.114   5.396
 1590SOL    HW1 4769   3.275   0.080   5.308
 1590SOL    HW2 4770   3.388   0.126   5.398
 1591SOL     OW 4771   2.142   1.791   6.212
 1591SOL    HW1 4772   2.197   1.727   6.256
 1591SOL    HW2 4773   2.129   1.756   6.124
 1592SOL     OW 4774   2.833   1.703   5.875
 1592SOL    HW1 4775   2.908   1.646   5.892
 1592SOL    HW2 4776   2.787   1.662   5.802
 1593SOL     OW 4777   2.276   0.705   5.452
 1593SOL    HW1 4778   2.314   0.617   5.450
 1593SOL    HW2 4779   2.186   0.691   5.480
 1594SOL     OW 4780   3.438   0.230   6.699
 1594SOL    HW1 4781   3.434   0.258   6.790
 1594SOL    HW2 4782   3.370   0.163   6.691
 1595SOL     OW 4783   2.500   0.130   5.080
 1595SOL    HW1 4784   2.592   0.108   5.094
 1595SOL    HW2 4785   2.483   0.108   4.989
 1596SOL     OW 4786   2.672   0.268   6.719
 1596SOL    HW1 4787   2.736   0.212   6.762
 1596SOL    HW2 4788   2.606   0.286   6.787
 1597SOL     OW 4789   2.780   1.521   6.165
 1597SOL    HW1 4790   2.760   1.491   6.077
 1597SOL    HW2 4791   2.838   1.453   6.201
 1598SOL     OW 4792   3.241   0.595   6.404
 1598SOL    HW1 4793   3.272   0.558   6.487
 1598SOL    HW2 4794   3.270   0.686   6.406
 1599SOL     OW 4795   2.697   1.409   5.897
 1599SOL    HW1 4796   2.781   1.417   5.852
 1599SOL    HW2 4797   2.632   1.406   5.826
 1600SOL     OW 4798   2.816   0.510   5.871
 1600SOL    HW1 4799   2.792   0.497   5.780
 1600SOL    HW2 4800   2.859   0.428   5.897
 1601SOL     OW 4801   2.437   0.069   5.483
 1601SOL    HW1 4802   2.357   0.071   5.535
 1601SOL    HW2 4803   2.433   0.148   5.429
 1602SOL     OW 4804   3.326   1.196   5.011
 1602SOL    HW1 4805   3.355   1.123   5.065
 1602SOL    HW2 4806   3.238   1.217   5.044
 1603SOL     OW 4807   2.191   0.040   5.142
 1603SOL    HW1 4808   2.241   0.119   5.125
 1603SOL    HW2 4809   2.253  -0.019   5.185
 1604SOL     OW 4810   2.828   0.241   5.449
 1604SOL    HW1 4811   2.787   0.282   5.373
 1604SOL    HW2 4812   2.922   0.244   5.430
 1605SOL     OW 4813   2.970   0.686   6.435
 1605SOL    HW1 4814   2.896   0.626   6.437
 1605SOL    HW2 4815   3.045   0.632   6.413
 1606SOL     OW 4816   3.119   1.575   5.764
 1606SOL    HW1 4817   3.143   1.646   5.704
 1606SOL    HW2 4818   3.186   1.578   5.832
 1607SOL     OW 4819   2.354   1.154   5.713
 1607SOL    HW1 4820   2.281   1.131   5.771
 1607SOL    HW2 4821   2.323   1.130   5.625
 1608SOL     OW 4822   3.165   1.802   5.563
 1608SOL    HW1 4823   3.204   1.866   5.504
 1608SOL    HW2 4824   3.116   1.855   5.626
 1609SOL     OW 4825   2.924   0.553   4.988
 1609SOL    HW1 4826   2.888   0.634   4.953
 1609SOL    HW2 4827   2.985   0.581   5.056
 1610SOL     OW 4828   1.970   0.560   6.358
 1610SOL    HW1 4829   2.058   0.563   6.321
 1610SOL    HW2 4830   1.968   0.632   6.421
 1611SOL     OW 4831   2.457   0.229   6.122
 1611SOL    HW1 4832   2.488   0.146   6.158
 1611SOL    HW2 4833   2.370   0.241   6.160
 1612SOL     OW 4834   2.762   0.461   5.613
 1612SOL    HW1 4835   2.727   0.524   5.551
 1612SOL    HW2 4836   2.780   0.383   5.561
 1613SOL     OW 4837   2.891   0.067   5.740
 1613SOL    HW1 4838   2.846   0.051   5.656
 1613SOL    HW2 4839   2.894  -0.020   5.781
 1614SOL     OW 4840   3.324   1.176   5.837
 1614SOL    HW1 4841   3.268   1.098   5.828
 1614SOL    HW2 4842   3.345   1.201   5.747
 1615SOL     OW 4843   3.361   0.596   5.962
 1615SOL    HW1 4844   3.331   0.506   5.971
 1615SOL    HW2 4845   3.429   0.606   6.028
 1616SOL     OW 4846   3.747   0.838   5.349
 1616SOL    HW1 4847   3.792   0.775   5.406
 1616SOL    HW2 4848   3.716   0.785   5.275
 1617SOL     OW 4849   2.383   1.394   5.144
 1617SOL    HW1 4850   2.299   1.375   5.187
 1617SOL    HW2 4851   2.359   1.413   5.053
 1618SOL     OW 4852   3.557   1.281   5.629
 1618SOL    HW1 4853   3.652   1.294   5.641
 1618SOL    HW2 4854   3.519   1.365   5.656
 1619SOL     OW 4855   3.285   0.585   5.050
 1619SOL    HW1 4856   3.232   0.557   5.125
 1619SOL    HW2 4857   3.367   0.537   5.060
 1620SOL     OW 4858   2.417   0.263   5.299
 1620SOL    HW1 4859   2.449   0.208   5.228
 1620SOL    HW2 4860   2.420   0.352   5.264
 1621SOL     OW 4861   3.647   1.229   6.557
 1621SOL    HW1 4862   3.735   1.195   6.548
 1621SOL    HW2 4863   3.658   1.320   6.582
 1622SOL     OW 4864   2.959   1.356   6.310
 1622SOL    HW1 4865   2.883   1.328   6.362
 1622SOL    HW2 4866   3.035   1.322   6.359
 1623SOL     OW 4867   3.485   1.634   6.601
 1623SOL    HW1 4868   3.510   1.664   6.514
 1623SOL    HW2 4869   3.566   1.596   6.637
 1624SOL     OW 4870   3.005   1.200   6.073
 1624SOL    HW1 4871   2.962   1.244   6.146
 1624SOL    HW2 4872   2.965   1.237   5.995
 1625SOL     OW 4873   3.531   1.105   6.049
 1625SOL    HW1 4874   3.531   1.180   6.108
 1625SOL    HW2 4875   3.447   1.110   6.004
 1626SOL     OW 4876   2.807   0.096   6.373
 1626SOL    HW1 4877   2.835   0.078   6.283
 1626SOL    HW2 4878   2.880   0.145   6.411
 1627SOL     OW 4879   2.874   1.120   6.690
 1627SOL    HW1 4880   2.779   1.125   6.699
 1627SOL    HW2 4881   2.890   1.043   6.635
 1628SOL     OW 4882   2.599   1.059   5.340
 1628SOL    HW1 4883   2.587   1.057   5.435
 1628SOL    HW2 4884   2.677   1.006   5.325
 1629SOL     OW 4885   2.304   0.818   6.221
 1629SOL    HW1 4886   2.383   0.827   6.274
 1629SOL    HW2 4887   2.266   0.734   6.248
 1630SOL     OW 4888   3.167   0.389   6.234
 1630SOL    HW1 4889   3.186   0.464   6.292
 1630SOL    HW2 4890   3.082   0.410   6.195
 1631SOL     OW 4891   1.957   1.571   6.305
 1631SOL    HW1 4892   1.917   1.649   6.268
 1631SOL    HW2 4893   2.051   1.591   6.309
 1632SOL     OW 4894   2.260   1.105   5.471
 1632SOL    HW1 4895   2.253   1.182   5.414
 1632SOL    HW2 4896   2.262   1.031   5.411
 1633SOL     OW 4897   2.457   0.542   5.836
 1633SOL    HW1 4898   2.473   0.606   5.766
 1633SOL    HW2 4899   2.505   0.577   5.912
 1634SOL     OW 4900   3.144   1.353   5.358
 1634SOL    HW1 4901   3.190   1.427   5.398
 1634SOL    HW2 4902   3.055   1.360   5.393
 1635SOL     OW 4903   3.164   1.452   6.113
 1635SOL    HW1 4904   3.210   1.459   6.197
 1635SOL    HW2 4905   3.104   1.378   6.125
 1636SOL     OW 4906   3.475   0.642   5.443
 1636SOL    HW1 4907   3.446   0.704   5.510
 1636SOL    HW2 4908   3.522   0.696   5.380
 1637SOL     OW 4909   2.246   1.517   6.299
 1637SOL    HW1 4910   2.231   1.474   6.215
 1637SOL    HW2 4911   2.339   1.537   6.299
 1638SOL     OW 4912   2.296   0.755   6.568
 1638SOL    HW1 4913   2.363   0.804   6.522
 1638SOL    HW2 4914   2.338   0.672   6.592
 1639SOL     OW 4915   3.480   0.781   6.641
 1639SOL    HW1 4916   3.394   0.822   6.634
 1639SOL    HW2 4917   3.534   0.829   6.579
 1640SOL     OW 4918   2.905   0.113   6.742
 1640SOL    HW1 4919   2.916   0.191   6.687
 1640SOL    HW2 4920   2.935   0.040   6.687
 1641SOL     OW 4921   2.394   0.057   6.711
 1641SOL    HW1 4922   2.352   0.006   6.641
 1641SOL    HW2 4923   2.328   0.120   6.738
 1642SOL     OW 4924   2.468   0.874   6.000
 1642SOL    HW1 4925   2.506   0.962   5.994
 1642SOL    HW2 4926   2.408   0.879   6.075
 1643SOL     OW 4927   3.254   0.867   6.015
 1643SOL    HW1 4928   3.181   0.863   5.953
 1643SOL    HW2 4929   3.286   0.777   6.021
 1644SOL     OW 4930   3.105   0.531   5.246
 1644SOL    HW1 4931   3.111   0.452   5.299
 1644SOL    HW2 4932   3.072   0.598   5.305
 1645SOL     OW 4933   2.203   0.217   6.206
 1645SOL    HW1 4934   2.172   0.250   6.290
 1645SOL    HW2 4935   2.169   0.128   6.202
 1646SOL     OW 4936   1.933   1.313   6.251
 1646SOL    HW1 4937   1.981   1.270   6.321
 1646SOL    HW2 4938   1.951   1.407   6.263
 1647SOL     OW 4939   2.626   0.640   6.036
 1647SOL    HW1 4940   2.682   0.617   5.962
 1647SOL    HW2 4941   2.599   0.730   6.019
 1648SOL     OW 4942   3.624   0.945   6.825
 1648SOL    HW1 4943   3.574   0.932   6.744
 1648SOL    HW2 4944   3.559   0.980   6.886
 1649SOL     OW 4945   2.201   0.073   5.589
 1649SOL    HW1 4946   2.188   0.161   5.626
 1649SOL    HW2 4947   2.199   0.015   5.665
 1650SOL     OW 4948   3.510   0.371   5.342
 1650SOL    HW1 4949   3.519   0.304   5.409
 1650SOL    HW2 4950   3.471   0.446   5.388
 1651SOL     OW 4951   2.916   0.771   5.937
 1651SOL    HW1 4952   2.929   0.787   6.030
 1651SOL    HW2 4953   2.888   0.679   5.932
 1652SOL     OW 4954   2.874   1.577   6.673
 1652SOL    HW1 4955   2.855   1.616   6.589
 1652SOL    HW2 4956   2.911   1.491   6.652
 1653SOL     OW 4957   3.752   1.522   6.577
 1653SOL    HW1 4958   3.768   1.549   6.486
 1653SOL    HW2 4959   3.832   1.545   6.623
 1654SOL     OW 4960   2.242   0.909   6.775
 1654SOL    HW1 4961   2.320   0.942   6.819
 1654SOL    HW2 4962   2.276   0.859   6.701
 1655SOL     OW 4963   3.433   0.280   5.096
 1655SOL    HW1 4964   3.374   0.209   5.121
 1655SOL    HW2 4965   3.453   0.324   5.178
 1656SOL     OW 4966   3.194   0.841   5.011
 1656SOL    HW1 4967   3.230   0.753   5.022
 1656SOL    HW2 4968   3.217   0.865   4.922
 1657SOL     OW 4969   2.960   1.338   5.820
 1657SOL    HW1 4970   2.969   1.261   5.765
 1657SOL    HW2 4971   3.022   1.401   5.784
 1658SOL     OW 4972   2.211   0.817   5.921
 1658SOL    HW1 4973   2.302   0.844   5.925
 1658SOL    HW2 4974   2.209   0.733   5.968
 1659SOL     OW 4975   2.232   0.516   5.978
 1659SOL    HW1 4976   2.186   0.434   5.959
 1659SOL    HW2 4977   2.305   0.518   5.915
 1660SOL     OW 4978   3.030   0.386   6.648
 1660SOL    HW1 4979   2.990   0.446   6.711
 1660SOL    HW2 4980   3.119   0.418   6.637
 1661SOL     OW 4981   3.049   0.213   6.447
 1661SOL    HW1 4982   3.053   0.276   6.519
 1661SOL    HW2 4983   3.081   0.261   6.371
 1662SOL     OW 4984   1.899   1.332   5.175
 1662SOL    HW1 4985   1.811   1.346   5.139
 1662SOL    HW2 4986   1.907   1.236   5.180
 1663SOL     OW 4987   1.981   1.805   5.900
 1663SOL    HW1 4988   1.945   1.722   5.869
 1663SOL    HW2 4989   2.071   1.806   5.865
 1664SOL     OW 4990   2.396   1.575   5.878
 1664SOL    HW1 4991   2.464   1.641   5.890
 1664SOL    HW2 4992   2.442   1.500   5.840
 1665SOL     OW 4993   2.894   0.802   6.207
 1665SOL    HW1 4994   2.931   0.770   6.290
 1665SOL    HW2 4995   2.803   0.773   6.210
 1666SOL     OW 4996   1.932   0.547   6.085
 1666SOL    HW1 4997   2.016   0.519   6.048
 1666SOL    HW2 4998   1.950   0.562   6.178
 1667SOL     OW 4999   2.082   0.523   6.694
 1667SOL    HW1 5000   2.138   0.490   6.623
 1667SOL    HW2 5001   2.028   0.590   6.652
 1668SOL     OW 5002   3.265   0.952   6.631
 1668SOL    HW1 5003   3.297   1.041   6.645
 1668SOL    HW2 5004   3.271   0.938   6.537
 1669SOL     OW 5005   2.708   0.576   5.301
 1669SOL    HW1 5006   2.711   0.494   5.252
 1669SOL    HW2 5007   2.620   0.609   5.286
 1670SOL     OW 5008   3.545   0.608   6.173
 1670SOL    HW1 5009   3.518   0.542   6.236
 1670SOL    HW2 5010   3.627   0.575   6.137
 1671SOL     OW 5011   2.146   1.567   6.713
 1671SOL    HW1 5012   2.115   1.621   6.787
 1671SOL    HW2 5013   2.137   1.477   6.744
 1672SOL     OW 5014   2.567   0.468   6.240
 1672SOL    HW1 5015   2.532   0.386   6.207
 1672SOL    HW2 5016   2.586   0.519   6.162
 1673SOL     OW 5017   2.824   1.682   6.436
 1673SOL    HW1 5018   2.800   1.668   6.344
 1673SOL    HW2 5019   2.848   1.774   6.441
 1674SOL     OW 5020   2.366   0.504   5.161
 1674SOL    HW1 5021   2.421   0.582   5.168
 1674SOL    HW2 5022   2.277   0.538   5.168
 1675SOL     OW 5023   2.050   1.143   6.437
 1675SOL    HW1 5024   2.071   1.082   6.508
 1675SOL    HW2 5025   2.063   1.091   6.358
 1676SOL     OW 5026   3.239   1.061   6.204
 1676SOL    HW1 5027   3.259   1.003   6.131
 1676SOL    HW2 5028   3.154   1.100   6.182
 1677SOL     OW 5029   3.196   0.858   5.281
 1677SOL    HW1 5030   3.112   0.830   5.318
 1677SOL    HW2 5031   3.186   0.847   5.187
 1678SOL     OW 5032   3.651   1.754   6.123
 1678SOL    HW1 5033   3.711   1.777   6.053
 1678SOL    HW2 5034   3.621   1.666   6.101
 1679SOL     OW 5035   3.143   1.736   6.098
 1679SOL    HW1 5036   3.224   1.739   6.047
 1679SOL    HW2 5037   3.128   1.643   6.114
 1680SOL     OW 5038   1.977   1.264   5.992
 1680SOL    HW1 5039   1.967   1.263   6.088
 1680SOL    HW2 5040   1.897   1.223   5.960
 1681SOL     OW 5041   2.579   1.666   6.687
 1681SOL    HW1 5042   2.528   1.747   6.692
 1681SOL    HW2 5043   2.630   1.674   6.606
 1682SOL     OW 5044   2.813   0.103   5.085
 1682SOL    HW1 5045   2.867   0.084   5.009
 1682SOL    HW2 5046   2.852   0.052   5.156
 1683SOL     OW 5047   3.613   0.141   5.487
 1683SOL    HW1 5048   3.691   0.124   5.434
 1683SOL    HW2 5049   3.596   0.058   5.532
 1684SOL     OW 5050   3.281   1.577   5.448
 1684SOL    HW1 5051   3.344   1.594   5.378
 1684SOL    HW2 5052   3.244   1.662   5.469
 1685SOL     OW 5053   2.024   1.801   6.820
 1685SOL    HW1 5054   1.984   1.731   6.872
 1685SOL    HW2 5055   2.083   1.846   6.880
 1686SOL     OW 5056   3.171   0.930   5.642
 1686SOL    HW1 5057   3.235   0.858   5.643
 1686SOL    HW2 5058   3.211   0.997   5.587
 1687SOL     OW 5059   2.721   1.275   6.396
 1687SOL    HW1 5060   2.712   1.312   6.484
 1687SOL    HW2 5061   2.639   1.298   6.352
 1688SOL     OW 5062   2.566   1.620   5.126
 1688SOL    HW1 5063   2.571   1.627   5.031
 1688SOL    HW2 5064   2.524   1.535   5.142
 1689SOL     OW 5065   3.543   1.726   6.365
 1689SOL    HW1 5066   3.591   1.739   6.283
 1689SOL    HW2 5067   3.519   1.814   6.394
 1690SOL     OW 5068   3.730   0.189   5.932
 1690SOL    HW1 5069   3.767   0.107   5.899
 1690SOL    HW2 5070   3.637   0.184   5.908
 1691SOL     OW 5071   2.160   0.333   5.692
 1691SOL    HW1 5072   2.080   0.374   5.661
 1691SOL    HW2 5073   2.145   0.317   5.785
 1692SOL     OW 5074   3.086   1.618   5.004
 1692SOL    HW1 5075   3.093   1.527   5.034
 1692SOL    HW2 5076   3.032   1.613   4.925
 1693SOL     OW 5077   2.716   1.007   6.343
 1693SOL    HW1 5078   2.755   1.010   6.256
 1693SOL    HW2 5079   2.725   1.097   6.376
 1694SOL     OW 5080   2.810   0.916   5.263
 1694SOL    HW1 5081   2.871   0.948   5.197
 1694SOL    HW2 5082   2.850   0.837   5.298
 1695SOL     OW 5083   3.398   1.616   5.017
 1695SOL    HW1 5084   3.307   1.646   5.016
 1695SOL    HW2 5085   3.430   1.633   4.928
 1696SOL     OW 5086   2.265   1.294   6.461
 1696SOL    HW1 5087   2.249   1.381   6.425
 1696SOL    HW2 5088   2.183   1.247   6.446
 1697SOL     OW 5089   3.506   1.295   6.259
 1697SOL    HW1 5090   3.563   1.301   6.336
 1697SOL    HW2 5091   3.438   1.360   6.275
 1698SOL     OW 5092   2.932   1.104   5.668
 1698SOL    HW1 5093   2.866   1.055   5.717
 1698SOL    HW2 5094   2.988   1.037   5.628
 1699SOL     OW 5095   2.908   0.242   5.941
 1699SOL    HW1 5096   2.899   0.202   5.854
 1699SOL    HW2 5097   2.904   0.169   6.002
 1700SOL     OW 5098   2.487   1.494   5.461
 1700SOL    HW1 5099   2.521   1.439   5.391
 1700SOL    HW2 5100   2.440   1.564   5.416
 1701SOL     OW 5101   3.603   0.389   6.353
 1701SOL    HW1 5102   3.673   0.455   6.352
 1701SOL    HW2 5103   3.634   0.321   6.293
 1702SOL     OW 5104   2.150   1.354   5.260
 1702SOL    HW1 5105   2.058   1.355   5.236
 1702SOL    HW2 5106   2.154   1.402   5.343
 1703SOL     OW 5107   1.999   1.019   6.697
 1703SOL    HW1 5108   1.927   0.986   6.750
 1703SOL    HW2 5109   2.078   0.986   6.740
 1704SOL     OW 5110   2.564   0.210   6.460
 1704SOL    HW1 5111   2.651   0.191   6.424
 1704SOL    HW2 5112   2.577   0.213   6.555
 1705SOL     OW 5113   3.332   0.862   6.371
 1705SOL    HW1 5114   3.281   0.913   6.308
 1705SOL    HW2 5115   3.423   0.873   6.343
 1706SOL     OW 5116   1.990   0.204   5.315
 1706SOL    HW1 5117   1.949   0.250   5.242
 1706SOL    HW2 5118   2.046   0.138   5.273
 1707SOL     OW 5119   3.075   1.346   5.089
 1707SOL    HW1 5120   2.982   1.327   5.096
 1707SOL    HW2 5121   3.106   1.350   5.180
 1708SOL     OW 5122   2.506   0.846   6.402
 1708SOL    HW1 5123   2.562   0.922   6.386
 1708SOL    HW2 5124   2.566   0.772   6.405
 1709SOL     OW 5125   3.384   1.773   5.931
 1709SOL    HW1 5126   3.420   1.833   5.866
 1709SOL    HW2 5127   3.452   1.768   5.999
 1710SOL     OW 5128   2.608   0.570   6.680
 1710SOL    HW1 5129   2.631   0.630   6.750
 1710SOL    HW2 5130   2.667   0.495   6.692
 1711SOL     OW 5131   3.344   1.222   6.604
 1711SOL    HW1 5132   3.339   1.218   6.699
 1711SOL    HW2 5133   3.438   1.219   6.585
 1712SOL     OW 5134   2.282   1.746   6.531
 1712SOL    HW1 5135   2.193   1.782   6.529
 1712SOL    HW2 5136   2.272   1.657   6.563
 1713SOL     OW 5137   3.567   0.888   6.226
 1713SOL    HW1 5138   3.544   0.804   6.187
 1713SOL    HW2 5139   3.566   0.951   6.153
 1714SOL     OW 5140   3.118   0.330   5.420
 1714SOL    HW1 5141   3.182   0.258   5.414
 1714SOL    HW2 5142   3.139   0.375   5.502
 1715SOL     OW 5143   2.487   0.750   5.625
 1715SOL    HW1 5144   2.531   0.832   5.604
 1715SOL    HW2 5145   2.406   0.753   5.575
 1716SOL     OW 5146   3.670   0.349   6.613
 1716SOL    HW1 5147   3.649   0.375   6.524
 1716SOL    HW2 5148   3.589   0.311   6.647
 1717SOL     OW 5149   3.624   0.939   6.487
 1717SOL    HW1 5150   3.658   1.028   6.498
 1717SOL    HW2 5151   3.617   0.927   6.393
 1718SOL     OW 5152   2.753   1.378   4.987
 1718SOL    HW1 5153   2.710   1.395   5.071
 1718SOL    HW2 5154   2.792   1.463   4.963
 1719SOL     OW 5155   2.553   1.795   5.924
 1719SOL    HW1 5156   2.515   1.882   5.909
 1719SOL    HW2 5157   2.647   1.808   5.916
 1720SOL     OW 5158   2.753   0.962   5.831
 1720SOL    HW1 5159   2.804   0.897   5.879
 1720SOL    HW2 5160   2.724   1.025   5.898
 1721SOL     OW 5161   2.974   0.989   5.058
 1721SOL    HW1 5162   2.957   1.039   4.978
 1721SOL    HW2 5163   3.053   0.938   5.038
 1722SOL     OW 5164   3.754   1.573   5.821
 1722SOL    HW1 5165   3.684   1.559   5.757
 1722SOL    HW2 5166   3.751   1.497   5.878
 1723SOL     OW 5167   2.115   1.318   6.816
 1723SOL    HW1 5168   2.050   1.249   6.799
 1723SOL    HW2 5169   2.113   1.329   6.911
 1724SOL     OW 5170   1.973   1.245   5.625
 1724SOL    HW1 5171   1.974   1.197   5.708
 1724SOL    HW2 5172   2.051   1.215   5.578
 1725SOL     OW 5173   2.566   1.397   6.594
 1725SOL    HW1 5174   2.490   1.353   6.631
 1725SOL    HW2 5175   2.561   1.486   6.627
 1726SOL     OW 5176   3.720   0.198   6.201
 1726SOL    HW1 5177   3.711   0.109   6.235
 1726SOL    HW2 5178   3.720   0.187   6.105
 1727SOL     OW 5179   2.322   0.431   5.491
 1727SOL    HW1 5180   2.348   0.359   5.435
 1727SOL    HW2 5181   2.283   0.388   5.568
 1728SOL     OW 5182   3.597   1.495   6.076
 1728SOL    HW1 5183   3.510   1.465   6.050
 1728SOL    HW2 5184   3.619   1.441   6.152
 1729SOL     OW 5185   2.211   0.552   6.253
 1729SOL    HW1 5186   2.253   0.494   6.317
 1729SOL    HW2 5187   2.249   0.526   6.169
 1730SOL     OW 5188   2.707   1.589   5.659
 1730SOL    HW1 5189   2.731   1.601   5.567
 1730SOL    HW2 5190   2.630   1.532   5.656
 1731SOL     OW 5191   3.318   0.220   6.083
 1731SOL    HW1 5192   3.365   0.157   6.138
 1731SOL    HW2 5193   3.271   0.276   6.145
 1732SOL     OW 5194   2.893   0.038   6.123
 1732SOL    HW1 5195   2.838  -0.035   6.095
 1732SOL    HW2 5196   2.982   0.002   6.124
 1733SOL     OW 5197   2.663   1.336   5.273
 1733SOL    HW1 5198   2.622   1.251   5.288
 1733SOL    HW2 5199   2.749   1.329   5.314
 1734SOL     OW 5200   2.510   1.572   6.254
 1734SOL    HW1 5201   2.511   1.651   6.309
 1734SOL    HW2 5202   2.597   1.570   6.214
 1735SOL     OW 5203   3.246   0.057   5.139
 1735SOL    HW1 5204   3.276   0.015   5.059
 1735SOL    HW2 5205   3.159   0.018   5.154
 1736SOL     OW 5206   3.194   0.459   5.661
 1736SOL    HW1 5207   3.136   0.535   5.669
 1736SOL    HW2 5208   3.203   0.426   5.751
 1737SOL     OW 5209   3.485   0.224   5.853
 1737SOL    HW1 5210   3.404   0.228   5.904
 1737SOL    HW2 5211   3.485   0.304   5.800
 1738SOL     OW 5212   2.768   1.649   5.311
 1738SOL    HW1 5213   2.694   1.623   5.257
 1738SOL    HW2 5214   2.735   1.721   5.365
 1739SOL     OW 5215   2.124   0.634   6.947
 1739SOL    HW1 5216   2.033   0.629   6.979
 1739SOL    HW2 5217   2.120   0.596   6.859
 1740SOL     OW 5218   2.118   0.281   7.826
 1740SOL    HW1 5219   2.148   0.261   7.915
 1740SOL    HW2 5220   2.033   0.238   7.820
 1741SOL     OW 5221   1.909   0.378   7.477
 1741SOL    HW1 5222   1.827   0.409   7.516
 1741SOL    HW2 5223   1.883   0.304   7.422
 1742SOL     OW 5224   2.462   1.279   7.999
 1742SOL    HW1 5225   2.373   1.278   7.963
 1742SOL    HW2 5226   2.470   1.366   8.039
 1743SOL     OW 5227   3.448   1.517   7.536
 1743SOL    HW1 5228   3.392   1.502   7.612
 1743SOL    HW2 5229   3.386   1.525   7.463
 1744SOL     OW 5230   3.027   0.708   7.548
 1744SOL    HW1 5231   3.080   0.785   7.529
 1744SOL    HW2 5232   2.973   0.734   7.623
 1745SOL     OW 5233   3.648   0.614   7.065
 1745SOL    HW1 5234   3.636   0.598   6.972
 1745SOL    HW2 5235   3.620   0.533   7.107
 1746SOL     OW 5236   2.661   1.149   7.858
 1746SOL    HW1 5237   2.586   1.171   7.914
 1746SOL    HW2 5238   2.690   1.233   7.823
 1747SOL     OW 5239   2.744   0.802   8.655
 1747SOL    HW1 5240   2.740   0.876   8.715
 1747SOL    HW2 5241   2.765   0.841   8.571
 1748SOL     OW 5242   2.579   1.019   7.495
 1748SOL    HW1 5243   2.641   1.002   7.565
 1748SOL    HW2 5244   2.509   1.070   7.537
 1749SOL     OW 5245   2.582   1.165   8.636
 1749SOL    HW1 5246   2.635   1.243   8.649
 1749SOL    HW2 5247   2.500   1.197   8.598
 1750SOL     OW 5248   2.226   1.440   7.897
 1750SOL    HW1 5249   2.154   1.411   7.841
 1750SOL    HW2 5250   2.281   1.493   7.838
 1751SOL     OW 5251   3.353   1.509   8.172
 1751SOL    HW1 5252   3.377   1.598   8.199
 1751SOL    HW2 5253   3.336   1.463   8.255
 1752SOL     OW 5254   2.332   0.399   8.331
 1752SOL    HW1 5255   2.408   0.341   8.340
 1752SOL    HW2 5256   2.257   0.340   8.337
 1753SOL     OW 5257   3.497   0.453   7.570
 1753SOL    HW1 5258   3.427   0.498   7.523
 1753SOL    HW2 5259   3.542   0.521   7.619
 1754SOL     OW 5260   2.122   1.717   7.315
 1754SOL    HW1 5261   2.156   1.792   7.364
 1754SOL    HW2 5262   2.169   1.719   7.232
 1755SOL     OW 5263   3.022   1.346   8.522
 1755SOL    HW1 5264   3.064   1.343   8.608
 1755SOL    HW2 5265   2.974   1.263   8.516
 1756SOL     OW 5266   2.123   1.439   7.370
 1756SOL    HW1 5267   2.096   1.531   7.374
 1756SOL    HW2 5268   2.054   1.392   7.416
 1757SOL     OW 5269   2.135   1.096   7.719
 1757SOL    HW1 5270   2.144   1.016   7.771
 1757SOL    HW2 5271   2.081   1.154   7.773
 1758SOL     OW 5272   2.513   1.791   8.271
 1758SOL    HW1 5273   2.426   1.778   8.308
 1758SOL    HW2 5274   2.537   1.880   8.297
 1759SOL     OW 5275   2.495   0.971   6.958
 1759SOL    HW1 5276   2.511   1.049   6.905
 1759SOL    HW2 5277   2.543   0.987   7.039
 1760SOL     OW 5278   3.485   0.131   8.327
 1760SOL    HW1 5279   3.469   0.195   8.257
 1760SOL    HW2 5280   3.479   0.182   8.408
 1761SOL     OW 5281   2.013   0.650   7.396
 1761SOL    HW1 5282   1.974   0.565   7.415
 1761SOL    HW2 5283   2.010   0.697   7.479
 1762SOL     OW 5284   3.736   1.771   7.188
 1762SOL    HW1 5285   3.787   1.747   7.265
 1762SOL    HW2 5286   3.766   1.859   7.166
 1763SOL     OW 5287   1.920   1.601   6.951
 1763SOL    HW1 5288   1.901   1.510   6.974
 1763SOL    HW2 5289   1.888   1.652   7.026
 1764SOL     OW 5290   3.582   0.927   7.449
 1764SOL    HW1 5291   3.674   0.899   7.450
 1764SOL    HW2 5292   3.575   0.985   7.374
 1765SOL     OW 5293   3.535   1.112   7.265
 1765SOL    HW1 5294   3.618   1.119   7.218
 1765SOL    HW2 5295   3.549   1.162   7.345
 1766SOL     OW 5296   2.008   0.742   8.427
 1766SOL    HW1 5297   2.092   0.737   8.471
 1766SOL    HW2 5298   1.993   0.835   8.412
 1767SOL     OW 5299   2.507   1.372   7.560
 1767SOL    HW1 5300   2.458   1.290   7.566
 1767SOL    HW2 5301   2.482   1.408   7.475
 1768SOL     OW 5302   3.185   1.236   8.257
 1768SOL    HW1 5303   3.222   1.166   8.203
 1768SOL    HW2 5304   3.237   1.234   8.337
 1769SOL     OW 5305   2.703   0.010   7.366
 1769SOL    HW1 5306   2.739   0.094   7.335
 1769SOL    HW2 5307   2.610   0.016   7.346
 1770SOL     OW 5308   2.090   0.981   8.097
 1770SOL    HW1 5309   2.172   0.935   8.083
 1770SOL    HW2 5310   2.022   0.916   8.076
 1771SOL     OW 5311   3.422   1.001   7.023
 1771SOL    HW1 5312   3.358   0.932   7.041
 1771SOL    HW2 5313   3.461   1.020   7.108
 1772SOL     OW 5314   3.078   1.799   8.449
 1772SOL    HW1 5315   3.104   1.853   8.374
 1772SOL    HW2 5316   3.089   1.709   8.418
 1773SOL     OW 5317   2.211   0.258   8.629
 1773SOL    HW1 5318   2.275   0.327   8.644
 1773SOL    HW2 5319   2.129   0.292   8.665
 1774SOL     OW 5320   3.358   1.423   7.786
 1774SOL    HW1 5321   3.299   1.427   7.861
 1774SOL    HW2 5322   3.343   1.337   7.748
 1775SOL     OW 5323   3.559   1.721   7.406
 1775SOL    HW1 5324   3.521   1.695   7.322
 1775SOL    HW2 5325   3.540   1.648   7.465
 1776SOL     OW 5326   2.489   0.732   7.101
 1776SOL    HW1 5327   2.510   0.803   7.040
 1776SOL    HW2 5328   2.417   0.767   7.154
 1777SOL     OW 5329   3.175   0.350   7.773
 1777SOL    HW1 5330   3.092   0.302   7.767
 1777SOL    HW2 5331   3.229   0.297   7.831
 1778SOL     OW 5332   3.470   1.668   7.140
 1778SOL    HW1 5333   3.555   1.710   7.139
 1778SOL    HW2 5334   3.452   1.646   7.049
 1779SOL     OW 5335   2.698   0.612   8.295
 1779SOL    HW1 5336   2.655   0.604   8.380
 1779SOL    HW2 5337   2.647   0.556   8.237
 1780SOL     OW 5338   3.286   0.474   8.507
 1780SOL    HW1 5339   3.273   0.515   8.593
 1780SOL    HW2 5340   3.361   0.416   8.520
 1781SOL     OW 5341   2.863   0.896   8.407
 1781SOL    HW1 5342   2.909   0.818   8.376
 1781SOL    HW2 5343   2.813   0.926   8.331
 1782SOL     OW 5344   2.885   0.415   8.075
 1782SOL    HW1 5345   2.808   0.446   8.123
 1782SOL    HW2 5346   2.849   0.368   8.000
 1783SOL     OW 5347   2.936   0.705   7.262
 1783SOL    HW1 5348   2.955   0.700   7.355
 1783SOL    HW2 5349   2.854   0.658   7.250
 1784SOL     OW 5350   1.971   0.818   7.616
 1784SOL    HW1 5351   2.064   0.808   7.636
 1784SOL    HW2 5352   1.948   0.906   7.645
 1785SOL     OW 5353   2.023   1.826   8.405
 1785SOL    HW1 5354   2.011   1.813   8.499
 1785SOL    HW2 5355   1.939   1.860   8.374
 1786SOL     OW 5356   2.759   0.353   7.028
 1786SOL    HW1 5357   2.817   0.410   6.978
 1786SOL    HW2 5358   2.779   0.264   6.998
 1787SOL     OW 5359   3.610   0.589   8.664
 1787SOL    HW1 5360   3.586   0.673   8.626
 1787SOL    HW2 5361   3.611   0.528   8.590
 1788SOL     OW 5362   3.257   1.150   7.378
 1788SOL    HW1 5363   3.335   1.125   7.328
 1788SOL    HW2 5364   3.211   1.212   7.322
 1789SOL     OW 5365   2.443   0.201   7.717
 1789SOL    HW1 5366   2.439   0.203   7.813
 1789SOL    HW2 5367   2.445   0.293   7.692
 1790SOL     OW 5368   2.901   1.459   7.309
 1790SOL    HW1 5369   2.858   1.531   7.263
 1790SOL    HW2 5370   2.896   1.483   7.402
 1791SOL     OW 5371   2.244   1.807   7.685
 1791SOL    HW1 5372   2.295   1.726   7.693
 1791SOL    HW2 5373   2.309   1.876   7.685
 1792SOL     OW 5374   3.689   1.072   7.704
 1792SOL    HW1 5375   3.626   1.056   7.634
 1792SOL    HW2 5376   3.636   1.079   7.784
 1793SOL     OW 5377   3.121   1.555   8.339
 1793SOL    HW1 5378   3.122   1.479   8.398
 1793SOL    HW2 5379   3.069   1.526   8.265
 1794SOL     OW 5380   2.213   0.950   7.075
 1794SOL    HW1 5381   2.293   0.981   7.033
 1794SOL    HW2 5382   2.191   0.870   7.028
 1795SOL     OW 5383   3.353   0.739   7.560
 1795SOL    HW1 5384   3.349   0.681   7.636
 1795SOL    HW2 5385   3.429   0.795   7.577
 1796SOL     OW 5386   2.355   1.269   8.564
 1796SOL    HW1 5387   2.308   1.272   8.480
 1796SOL    HW2 5388   2.287   1.255   8.629
 1797SOL     OW 5389   3.007   1.781   7.070
 1797SOL    HW1 5390   2.946   1.723   7.114
 1797SOL    HW2 5391   3.030   1.735   6.989
 1798SOL     OW 5392   2.093   0.286   8.329
 1798SOL    HW1 5393   2.018   0.346   8.322
 1798SOL    HW2 5394   2.082   0.245   8.415
 1799SOL     OW 5395   3.526   1.382   6.916
 1799SOL    HW1 5396   3.490   1.470   6.904
 1799SOL    HW2 5397   3.452   1.323   6.902
 1800SOL     OW 5398   2.357   1.746   7.156
 1800SOL    HW1 5399   2.392   1.788   7.235
 1800SOL    HW2 5400   2.433   1.741   7.097
 1801SOL     OW 5401   3.293   0.115   7.258
 1801SOL    HW1 5402   3.275   0.079   7.171
 1801SOL    HW2 5403   3.388   0.126   7.260
 1802SOL     OW 5404   2.142   1.791   8.074
 1802SOL    HW1 5405   2.197   1.727   8.118
 1802SOL    HW2 5406   2.129   1.756   7.986
 1803SOL     OW 5407   2.833   1.703   7.738
 1803SOL    HW1 5408   2.909   1.646   7.754
 1803SOL    HW2 5409   2.787   1.662   7.664
 1804SOL     OW 5410   2.276   0.705   7.314
 1804SOL    HW1 5411   2.314   0.617   7.312
 1804SOL    HW2 5412   2.186   0.691   7.342
 1805SOL     OW 5413   3.438   0.230   8.561
 1805SOL    HW1 5414   3.434   0.258   8.652
 1805SOL    HW2 5415   3.370   0.163   8.553
 1806SOL     OW 5416   2.502   0.138   6.941
 1806SOL    HW1 5417   2.590   0.104   6.958
 1806SOL    HW2 5418   2.480   0.105   6.854
 1807SOL     OW 5419   2.672   0.268   8.581
 1807SOL    HW1 5420   2.736   0.212   8.624
 1807SOL    HW2 5421   2.606   0.286   8.649
 1808SOL     OW 5422   2.780   1.521   8.027
 1808SOL    HW1 5423   2.760   1.491   7.939
 1808SOL    HW2 5424   2.838   1.453   8.063
 1809SOL     OW 5425   3.241   0.595   8.266
 1809SOL    HW1 5426   3.272   0.558   8.349
 1809SOL    HW2 5427   3.270   0.686   8.268
 1810SOL     OW 5428   2.697   1.409   7.759
 1810SOL    HW1 5429   2.781   1.417   7.714
 1810SOL    HW2 5430   2.632   1.407   7.688
 1811SOL     OW 5431   2.816   0.510   7.733
 1811SOL    HW1 5432   2.792   0.497   7.642
 1811SOL    HW2 5433   2.859   0.428   7.759
 1812SOL     OW 5434   2.437   0.069   7.344
 1812SOL    HW1 5435   2.357   0.070   7.397
 1812SOL    HW2 5436   2.432   0.149   7.291
 1813SOL     OW 5437   3.325   1.194   6.872
 1813SOL    HW1 5438   3.355   1.123   6.928
 1813SOL    HW2 5439   3.238   1.217   6.906
 1814SOL     OW 5440   2.191   0.039   7.005
 1814SOL    HW1 5441   2.240   0.119   6.986
 1814SOL    HW2 5442   2.254  -0.019   7.047
 1815SOL     OW 5443   2.828   0.241   7.311
 1815SOL    HW1 5444   2.787   0.282   7.235
 1815SOL    HW2 5445   2.922   0.244   7.292
 1816SOL     OW 5446   2.970   0.686   8.297
 1816SOL    HW1 5447   2.896   0.626   8.299
 1816SOL    HW2 5448   3.045   0.632   8.275
 1817SOL     OW 5449   3.119   1.575   7.626
 1817SOL    HW1 5450   3.142   1.645   7.566
 1817SOL    HW2 5451   3.187   1.578   7.694
 1818SOL     OW 5452   2.354   1.154   7.575
 1818SOL    HW1 5453   2.281   1.131   7.633
 1818SOL    HW2 5454   2.323   1.130   7.487
 1819SOL     OW 5455   3.165   1.802   7.426
 1819SOL    HW1 5456   3.204   1.866   7.366
 1819SOL    HW2 5457   3.115   1.855   7.488
 1820SOL     OW 5458   2.926   0.554   6.847
 1820SOL    HW1 5459   2.886   0.635   6.816
 1820SOL    HW2 5460   2.984   0.581   6.919
 1821SOL     OW 5461   1.970   0.560   8.220
 1821SOL    HW1 5462   2.058   0.563   8.183
 1821SOL    HW2 5463   1.968   0.632   8.283
 1822SOL     OW 5464   2.457   0.229   7.984
 1822SOL    HW1 5465   2.488   0.146   8.020
 1822SOL    HW2 5466   2.370   0.241   8.022
 1823SOL     OW 5467   2.762   0.461   7.475
 1823SOL    HW1 5468   2.727   0.524   7.413
 1823SOL    HW2 5469   2.780   0.383   7.423
 1824SOL     OW 5470   2.890   0.067   7.602
 1824SOL    HW1 5471   2.846   0.051   7.518
 1824SOL    HW2 5472   2.895  -0.020   7.643
 1825SOL     OW 5473   3.324   1.176   7.699
 1825SOL    HW1 5474   3.268   1.098   7.690
 1825SOL    HW2 5475   3.345   1.201   7.609
 1826SOL     OW 5476   3.361   0.596   7.824
 1826SOL    HW1 5477   3.331   0.506   7.833
 1826SOL    HW2 5478   3.429   0.606   7.890
 1827SOL     OW 5479   3.746   0.836   7.212
 1827SOL    HW1 5480   3.791   0.773   7.268
 1827SOL    HW2 5481   3.716   0.784   7.137
 1828SOL     OW 5482   2.383   1.393   7.006
 1828SOL    HW1 5483   2.299   1.376   7.049
 1828SOL    HW2 5484   2.360   1.414   6.916
 1829SOL     OW 5485   3.557   1.281   7.492
 1829SOL    HW1 5486   3.652   1.294   7.503
 1829SOL    HW2 5487   3.519   1.365   7.517
 1830SOL     OW 5488   3.283   0.579   6.909
 1830SOL    HW1 5489   3.233   0.559   6.988
 1830SOL    HW2 5490   3.369   0.541   6.924
 1831SOL     OW 5491   2.419   0.263   7.161
 1831SOL    HW1 5492   2.448   0.208   7.089
 1831SOL    HW2 5493   2.419   0.352   7.126
 1832SOL     OW 5494   3.647   1.229   8.419
 1832SOL    HW1 5495   3.735   1.195   8.410
 1832SOL    HW2 5496   3.658   1.320   8.444
 1833SOL     OW 5497   2.959   1.356   8.172
 1833SOL    HW1 5498   2.883   1.328   8.224
 1833SOL    HW2 5499   3.035   1.322   8.221
 1834SOL     OW 5500   3.485   1.634   8.463
 1834SOL    HW1 5501   3.510   1.664   8.376
 1834SOL    HW2 5502   3.566   1.596   8.499
 1835SOL     OW 5503   3.005   1.200   7.935
 1835SOL    HW1 5504   2.962   1.244   8.008
 1835SOL    HW2 5505   2.965   1.237   7.857
 1836SOL     OW 5506   3.531   1.105   7.911
 1836SOL    HW1 5507   3.531   1.180   7.970
 1836SOL    HW2 5508   3.447   1.110   7.866
 1837SOL     OW 5509   2.807   0.096   8.235
 1837SOL    HW1 5510   2.835   0.078   8.145
 1837SOL    HW2 5511   2.880   0.145   8.273
 1838SOL     OW 5512   2.874   1.120   8.552
 1838SOL    HW1 5513   2.779   1.125   8.561
 1838SOL    HW2 5514   2.890   1.043   8.497
 1839SOL     OW 5515   2.599   1.058   7.202
 1839SOL    HW1 5516   2.587   1.058   7.297
 1839SOL    HW2 5517   2.677   1.006   7.187
 1840SOL     OW 5518   2.304   0.818   8.083
 1840SOL    HW1 5519   2.383   0.827   8.136
 1840SOL    HW2 5520   2.266   0.734   8.110
 1841SOL     OW 5521   3.167   0.389   8.096
 1841SOL    HW1 5522   3.186   0.464   8.154
 1841SOL    HW2 5523   3.082   0.410   8.057
 1842SOL     OW 5524   1.957   1.571   8.167
 1842SOL    HW1 5525   1.917   1.649   8.130
 1842SOL    HW2 5526   2.051   1.591   8.171
 1843SOL     OW 5527   2.259   1.105   7.333
 1843SOL    HW1 5528   2.253   1.182   7.276
 1843SOL    HW2 5529   2.262   1.031   7.273
 1844SOL     OW 5530   2.457   0.542   7.698
 1844SOL    HW1 5531   2.473   0.606   7.628
 1844SOL    HW2 5532   2.505   0.577   7.774
 1845SOL     OW 5533   3.144   1.353   7.221
 1845SOL    HW1 5534   3.190   1.427   7.260
 1845SOL    HW2 5535   3.055   1.360   7.254
 1846SOL     OW 5536   3.164   1.452   7.975
 1846SOL    HW1 5537   3.210   1.459   8.059
 1846SOL    HW2 5538   3.104   1.378   7.987
 1847SOL     OW 5539   3.475   0.642   7.305
 1847SOL    HW1 5540   3.446   0.705   7.372
 1847SOL    HW2 5541   3.522   0.696   7.242
 1848SOL     OW 5542   2.246   1.517   8.161
 1848SOL    HW1 5543   2.231   1.474   8.077
 1848SOL    HW2 5544   2.339   1.537   8.161
 1849SOL     OW 5545   2.296   0.755   8.430
 1849SOL    HW1 5546   2.363   0.804   8.384
 1849SOL    HW2 5547   2.338   0.672   8.454
 1850SOL     OW 5548   3.480   0.781   8.503
 1850SOL    HW1 5549   3.394   0.822   8.496
 1850SOL    HW2 5550   3.534   0.829   8.441
 1851SOL     OW 5551   2.905   0.113   8.604
 1851SOL    HW1 5552   2.916   0.191   8.549
 1851SOL    HW2 5553   2.935   0.040   8.549
 1852SOL     OW 5554   2.394   0.057   8.573
 1852SOL    HW1 5555   2.352   0.006   8.503
 1852SOL    HW2 5556   2.328   0.120   8.600
 1853SOL     OW 5557   2.468   0.874   7.862
 1853SOL    HW1 5558   2.506   0.962   7.856
 1853SOL    HW2 5559   2.408   0.879   7.937
 1854SOL     OW 5560   3.254   0.867   7.877
 1854SOL    HW1 5561   3.181   0.863   7.815
 1854SOL    HW2 5562   3.286   0.777   7.883
 1855SOL     OW 5563   3.105   0.531   7.107
 1855SOL    HW1 5564   3.111   0.452   7.162
 1855SOL    HW2 5565   3.072   0.598   7.167
 1856SOL     OW 5566   2.203   0.217   8.068
 1856SOL    HW1 5567   2.172   0.250   8.152
 1856SOL    HW2 5568   2.169   0.128   8.064
 1857SOL     OW 5569   1.933   1.313   8.113
 1857SOL    HW1 5570   1.981   1.270   8.183
 1857SOL    HW2 5571   1.951   1.407   8.124
 1858SOL     OW 5572   2.626   0.640   7.898
 1858SOL    HW1 5573   2.682   0.617   7.824
 1858SOL    HW2 5574   2.599   0.730   7.881
 1859SOL     OW 5575   3.624   0.945   8.687
 1859SOL    HW1 5576   3.574   0.932   8.606
 1859SOL    HW2 5577   3.559   0.980   8.748
 1860SOL     OW 5578   2.201   0.073   7.451
 1860SOL    HW1 5579   2.187   0.161   7.487
 1860SOL    HW2 5580   2.198   0.015   7.527
 1861SOL     OW 5581   3.509   0.371   7.204
 1861SOL    HW1 5582   3.520   0.304   7.271
 1861SOL    HW2 5583   3.471   0.446   7.250
 1862SOL     OW 5584   2.916   0.771   7.799
 1862SOL    HW1 5585   2.929   0.787   7.892
 1862SOL    HW2 5586   2.888   0.679   7.794
 1863SOL     OW 5587   2.874   1.577   8.535
 1863SOL    HW1 5588   2.855   1.616   8.451
 1863SOL    HW2 5589   2.911   1.491   8.514
 1864SOL     OW 5590   3.752   1.522   8.439
 1864SOL    HW1 5591   3.768   1.549   8.348
 1864SOL    HW2 5592   3.832   1.545   8.485
 1865SOL     OW 5593   2.242   0.909   8.637
 1865SOL    HW1 5594   2.320   0.942   8.681
 1865SOL    HW2 5595   2.276   0.859   8.563
 1866SOL     OW 5596   3.431   0.280   6.958
 1866SOL    HW1 5597   3.373   0.209   6.985
 1866SOL    HW2 5598   3.455   0.325   7.039
 1867SOL     OW 5599   3.195   0.841   6.874
 1867SOL    HW1 5600   3.231   0.753   6.883
 1867SOL    HW2 5601   3.216   0.867   6.785
 1868SOL     OW 5602   2.960   1.338   7.682
 1868SOL    HW1 5603   2.969   1.261   7.627
 1868SOL    HW2 5604   3.022   1.401   7.646
 1869SOL     OW 5605   2.211   0.817   7.783
 1869SOL    HW1 5606   2.302   0.844   7.787
 1869SOL    HW2 5607   2.209   0.733   7.830
 1870SOL     OW 5608   2.232   0.516   7.840
 1870SOL    HW1 5609   2.186   0.434   7.821
 1870SOL    HW2 5610   2.305   0.518   7.777
 1871SOL     OW 5611   3.030   0.386   8.510
 1871SOL    HW1 5612   2.990   0.446   8.573
 1871SOL    HW2 5613   3.119   0.418   8.499
 1872SOL     OW 5614   3.049   0.213   8.309
 1872SOL    HW1 5615   3.053   0.276   8.381
 1872SOL    HW2 5616   3.081   0.261   8.233
 1873SOL     OW 5617   1.900   1.332   7.031
 1873SOL    HW1 5618   1.810   1.346   7.002
 1873SOL    HW2 5619   1.906   1.238   7.047
 1874SOL     OW 5620   1.981   1.805   7.762
 1874SOL    HW1 5621   1.945   1.722   7.731
 1874SOL    HW2 5622   2.071   1.806   7.727
 1875SOL     OW 5623   2.396   1.575   7.740
 1875SOL    HW1 5624   2.464   1.641   7.752
 1875SOL    HW2 5625   2.442   1.500   7.702
 1876SOL     OW 5626   2.894   0.801   8.069
 1876SOL    HW1 5627   2.931   0.770   8.152
 1876SOL    HW2 5628   2.803   0.773   8.072
 1877SOL     OW 5629   1.932   0.547   7.947
 1877SOL    HW1 5630   2.016   0.519   7.910
 1877SOL    HW2 5631   1.950   0.562   8.040
 1878SOL     OW 5632   2.082   0.523   8.556
 1878SOL    HW1 5633   2.138   0.490   8.485
 1878SOL    HW2 5634   2.028   0.590   8.514
 1879SOL     OW 5635   3.265   0.952   8.493
 1879SOL    HW1 5636   3.297   1.041   8.507
 1879SOL    HW2 5637   3.271   0.938   8.399
 1880SOL     OW 5638   2.708   0.576   7.163
 1880SOL    HW1 5639   2.711   0.493   7.114
 1880SOL    HW2 5640   2.620   0.610   7.149
 1881SOL     OW 5641   3.545   0.608   8.035
 1881SOL    HW1 5642   3.518   0.542   8.098
 1881SOL    HW2 5643   3.627   0.575   7.999
 1882SOL     OW 5644   2.146   1.567   8.575
 1882SOL    HW1 5645   2.115   1.621   8.649
 1882SOL    HW2 5646   2.137   1.477   8.606
 1883SOL     OW 5647   2.567   0.468   8.102
 1883SOL    HW1 5648   2.532   0.386   8.069
 1883SOL    HW2 5649   2.586   0.519   8.024
 1884SOL     OW 5650   2.824   1.682   8.298
 1884SOL    HW1 5651   2.800   1.668   8.206
 1884SOL    HW2 5652   2.848   1.774   8.303
 1885SOL     OW 5653   2.366   0.504   7.022
 1885SOL    HW1 5654   2.421   0.582   7.031
 1885SOL    HW2 5655   2.277   0.537   7.030
 1886SOL     OW 5656   2.050   1.143   8.299
 1886SOL    HW1 5657   2.071   1.082   8.370
 1886SOL    HW2 5658   2.063   1.091   8.220
 1887SOL     OW 5659   3.239   1.061   8.066
 1887SOL    HW1 5660   3.259   1.003   7.993
 1887SOL    HW2 5661   3.154   1.100   8.044
 1888SOL     OW 5662   3.196   0.858   7.143
 1888SOL    HW1 5663   3.112   0.830   7.179
 1888SOL    HW2 5664   3.186   0.847   7.049
 1889SOL     OW 5665   3.651   1.754   7.986
 1889SOL    HW1 5666   3.711   1.777   7.915
 1889SOL    HW2 5667   3.621   1.666   7.963
 1890SOL     OW 5668   3.143   1.736   7.960
 1890SOL    HW1 5669   3.224   1.739   7.909
 1890SOL    HW2 5670   3.127   1.643   7.976
 1891SOL     OW 5671   1.977   1.264   7.854
 1891SOL    HW1 5672   1.967   1.263   7.950
 1891SOL    HW2 5673   1.897   1.223   7.822
 1892SOL     OW 5674   2.579   1.666   8.549
 1892SOL    HW1 5675   2.528   1.747   8.554
 1892SOL    HW2 5676   2.630   1.674   8.468
 1893SOL     OW 5677   3.613   0.140   7.349
 1893SOL    HW1 5678   3.691   0.124   7.296
 1893SOL    HW2 5679   3.596   0.058   7.394
 1894SOL     OW 5680   3.282   1.577   7.311
 1894SOL    HW1 5681   3.344   1.594   7.240
 1894SOL    HW2 5682   3.243   1.662   7.331
 1895SOL     OW 5683   2.024   1.801   8.682
 1895SOL    HW1 5684   1.984   1.731   8.734
 1895SOL    HW2 5685   2.083   1.846   8.742
 1896SOL     OW 5686   3.171   0.929   7.504
 1896SOL    HW1 5687   3.235   0.858   7.505
 1896SOL    HW2 5688   3.211   0.997   7.449
 1897SOL     OW 5689   2.721   1.275   8.258
 1897SOL    HW1 5690   2.712   1.312   8.346
 1897SOL    HW2 5691   2.640   1.298   8.214
 1898SOL     OW 5692   2.564   1.621   6.988
 1898SOL    HW1 5693   2.573   1.627   6.893
 1898SOL    HW2 5694   2.525   1.535   7.002
 1899SOL     OW 5695   3.543   1.726   8.227
 1899SOL    HW1 5696   3.591   1.739   8.145
 1899SOL    HW2 5697   3.519   1.814   8.256
 1900SOL     OW 5698   3.730   0.189   7.794
 1900SOL    HW1 5699   3.767   0.107   7.761
 1900SOL    HW2 5700   3.637   0.184   7.770
 1901SOL     OW 5701   2.161   0.333   7.554
 1901SOL    HW1 5702   2.080   0.374   7.523
 1901SOL    HW2 5703   2.145   0.317   7.647
 1902SOL     OW 5704   3.088   1.617   6.865
 1902SOL    HW1 5705   3.091   1.526   6.896
 1902SOL    HW2 5706   3.030   1.615   6.789
 1903SOL     OW 5707   2.716   1.007   8.205
 1903SOL    HW1 5708   2.755   1.010   8.118
 1903SOL    HW2 5709   2.725   1.097   8.238
 1904SOL     OW 5710   2.809   0.916   7.124
 1904SOL    HW1 5711   2.872   0.948   7.059
 1904SOL    HW2 5712   2.850   0.837   7.160
 1905SOL     OW 5713   3.399   1.617   6.878
 1905SOL    HW1 5714   3.307   1.645   6.878
 1905SOL    HW2 5715   3.428   1.632   6.788
 1906SOL     OW 5716   2.265   1.294   8.323
 1906SOL    HW1 5717   2.249   1.381   8.287
 1906SOL    HW2 5718   2.183   1.247   8.308
 1907SOL     OW 5719   3.506   1.295   8.121
 1907SOL    HW1 5720   3.563   1.301   8.198
 1907SOL    HW2 5721   3.438   1.360   8.137
 1908SOL     OW 5722   2.932   1.104   7.530
 1908SOL    HW1 5723   2.866   1.055   7.579
 1908SOL    HW2 5724   2.988   1.037   7.490
 1909SOL     OW 5725   2.908   0.242   7.803
 1909SOL    HW1 5726   2.899   0.202   7.716
 1909SOL    HW2 5727   2.904   0.169   7.864
 1910SOL     OW 5728   2.486   1.493   7.323
 1910SOL    HW1 5729   2.521   1.439   7.253
 1910SOL    HW2 5730   2.440   1.564   7.278
 1911SOL     OW 5731   3.603   0.389   8.215
 1911SOL    HW1 5732   3.673   0.455   8.214
 1911SOL    HW2 5733   3.634   0.321   8.155
 1912SOL     OW 5734   2.149   1.356   7.120
 1912SOL    HW1 5735   2.055   1.354   7.101
 1912SOL    HW2 5736   2.156   1.401   7.204
 1913SOL     OW 5737   1.999   1.019   8.559
 1913SOL    HW1 5738   1.927   0.986   8.612
 1913SOL    HW2 5739   2.078   0.986   8.602
 1914SOL     OW 5740   2.564   0.210   8.322
 1914SOL    HW1 5741   2.651   0.191   8.286
 1914SOL    HW2 5742   2.577   0.213   8.417
 1915SOL     OW 5743   1.968   0.350   6.867
 1915SOL    HW1 5744   1.881   0.326   6.836
 1915SOL    HW2 5745   1.994   0.424   6.811
 1916SOL     OW 5746   3.332   0.862   8.233
 1916SOL    HW1 5747   3.281   0.913   8.170
 1916SOL    HW2 5748   3.423   0.873   8.205
 1917SOL     OW 5749   1.990   0.204   7.176
 1917SOL    HW1 5750   1.950   0.251   7.103
 1917SOL    HW2 5751   2.045   0.138   7.135
 1918SOL     OW 5752   3.076   1.344   6.951
 1918SOL    HW1 5753   2.982   1.328   6.957
 1918SOL    HW2 5754   3.105   1.351   7.042
 1919SOL     OW 5755   2.506   0.846   8.264
 1919SOL    HW1 5756   2.562   0.922   8.248
 1919SOL    HW2 5757   2.566   0.772   8.267
 1920SOL     OW 5758   3.384   1.773   7.793
 1920SOL    HW1 5759   3.420   1.833   7.728
 1920SOL    HW2 5760   3.452   1.768   7.861
 1921SOL     OW 5761   2.608   0.570   8.542
 1921SOL    HW1 5762   2.631   0.630   8.612
 1921SOL    HW2 5763   2.667   0.495   8.554
 1922SOL     OW 5764   3.344   1.222   8.466
 1922SOL    HW1 5765   3.339   1.218   8.561
 1922SOL    HW2 5766   3.438   1.219   8.447
 1923SOL     OW 5767   2.282   1.746   8.393
 1923SOL    HW1 5768   2.193   1.782   8.391
 1923SOL    HW2 5769   2.272   1.657   8.425
 1924SOL     OW 5770   3.567   0.888   8.088
 1924SOL    HW1 5771   3.544   0.804   8.049
 1924SOL    HW2 5772   3.566   0.951   8.015
 1925SOL     OW 5773   3.118   0.330   7.282
 1925SOL    HW1 5774   3.181   0.258   7.276
 1925SOL    HW2 5775   3.140   0.374   7.364
 1926SOL     OW 5776   2.487   0.750   7.487
 1926SOL    HW1 5777   2.531   0.832   7.466
 1926SOL    HW2 5778   2.406   0.753   7.437
 1927SOL     OW 5779   3.670   0.349   8.475
 1927SOL    HW1 5780   3.649   0.375   8.386
 1927SOL    HW2 5781   3.589   0.311   8.509
 1928SOL     OW 5782   3.624   0.939   8.349
 1928SOL    HW1 5783   3.658   1.028   8.360
 1928SOL    HW2 5784   3.617   0.927   8.255
 1929SOL     OW 5785   2.753   1.378   6.850
 1929SOL    HW1 5786   2.710   1.397   6.934
 1929SOL    HW2 5787   2.790   1.462   6.823
 1930SOL     OW 5788   2.553   1.795   7.786
 1930SOL    HW1 5789   2.515   1.882   7.771
 1930SOL    HW2 5790   2.647   1.808   7.778
 1931SOL     OW 5791   2.753   0.962   7.693
 1931SOL    HW1 5792   2.804   0.897   7.741
 1931SOL    HW2 5793   2.724   1.025   7.760
 1932SOL     OW 5794   2.975   0.989   6.920
 1932SOL    HW1 5795   2.956   1.039   6.841
 1932SOL    HW2 5796   3.053   0.938   6.899
 1933SOL     OW 5797   3.755   1.573   7.683
 1933SOL    HW1 5798   3.684   1.559   7.619
 1933SOL    HW2 5799   3.751   1.497   7.740
 1934SOL     OW 5800   2.115   1.318   8.678
 1934SOL    HW1 5801   2.050   1.249   8.661
 1934SOL    HW2 5802   2.113   1.329   8.773
 1935SOL     OW 5803   1.973   1.245   7.487
 1935SOL    HW1 5804   1.974   1.197   7.570
 1935SOL    HW2 5805   2.050   1.215   7.440
 1936SOL     OW 5806   2.566   1.397   8.456
 1936SOL    HW1 5807   2.490   1.353   8.493
 1936SOL    HW2 5808   2.561   1.486   8.489
 1937SOL     OW 5809   3.720   0.198   8.063
 1937SOL    HW1 5810   3.711   0.109   8.097
 1937SOL    HW2 5811   3.720   0.187   7.967
 1938SOL     OW 5812   2.322   0.431   7.354
 1938SOL    HW1 5813   2.348   0.358   7.297
 1938SOL    HW2 5814   2.283   0.389   7.430
 1939SOL     OW 5815   3.597   1.495   7.938
 1939SOL    HW1 5816   3.510   1.466   7.912
 1939SOL    HW2 5817   3.619   1.441   8.014
 1940SOL     OW 5818   2.211   0.552   8.115
 1940SOL    HW1 5819   2.253   0.494   8.179
 1940SOL    HW2 5820   2.248   0.526   8.031
 1941SOL     OW 5821   2.707   1.589   7.521
 1941SOL    HW1 5822   2.731   1.601   7.429
 1941SOL    HW2 5823   2.630   1.532   7.518
 1942SOL     OW 5824   3.318   0.220   7.945
 1942SOL    HW1 5825   3.365   0.157   8.000
 1942SOL    HW2 5826   3.271   0.276   8.007
 1943SOL     OW 5827   2.893   0.038   7.985
 1943SOL    HW1 5828   2.838  -0.035   7.957
 1943SOL    HW2 5829   2.982   0.002   7.986
 1944SOL     OW 5830   2.663   1.336   7.135
 1944SOL    HW1 5831   2.622   1.251   7.150
 1944SOL    HW2 5832   2.749   1.329   7.175
 1945SOL     OW 5833   2.510   1.572   8.116
 1945SOL    HW1 5834   2.511   1.651   8.171
 1945SOL    HW2 5835   2.597   1.570   8.076
 1946SOL     OW 5836   3.245   0.057   7.001
 1946SOL    HW1 5837   3.275   0.014   6.921
 1946SOL    HW2 5838   3.159   0.020   7.017
 1947SOL     OW 5839   3.194   0.459   7.523
 1947SOL    HW1 5840   3.136   0.535   7.531
 1947SOL    HW2 5841   3.203   0.426   7.613
 1948SOL     OW 5842   3.485   0.224   7.715
 1948SOL    HW1 5843   3.404   0.228   7.766
 1948SOL    HW2 5844   3.485   0.304   7.662
 1949SOL     OW 5845   1.932   1.082   7.134
 1949SOL    HW1 5846   2.027   1.069   7.125
 1949SOL    HW2 5847   1.899   0.998   7.162
 1950SOL     OW 5848   2.768   1.648   7.175
 1950SOL    HW1 5849   2.694   1.623   7.118
 1950SOL    HW2 5850   2.735   1.721   7.226
 1951SOL     OW 5851   2.124   0.634   8.809
 1951SOL    HW1 5852   2.033   0.629   8.841
 1951SOL    HW2 5853   2.120   0.596   8.721
 1952SOL     OW 5854   2.118   0.281   9.688
 1952SOL    HW1 5855   2.149   0.262   9.776
 1952SOL    HW2 5856   2.033   0.238   9.682
 1953SOL     OW 5857   1.909   0.378   9.339
 1953SOL    HW1 5858   1.827   0.409   9.378
 1953SOL    HW2 5859   1.883   0.304   9.284
 1954SOL     OW 5860   2.461   1.278   9.861
 1954SOL    HW1 5861   2.372   1.278   9.825
 1954SOL    HW2 5862   2.470   1.365   9.900
 1955SOL     OW 5863   3.448   1.517   9.398
 1955SOL    HW1 5864   3.392   1.502   9.474
 1955SOL    HW2 5865   3.386   1.525   9.325
 1956SOL     OW 5866   3.027   0.708   9.410
 1956SOL    HW1 5867   3.080   0.785   9.391
 1956SOL    HW2 5868   2.973   0.734   9.485
 1957SOL     OW 5869   3.648   0.614   8.927
 1957SOL    HW1 5870   3.636   0.598   8.834
 1957SOL    HW2 5871   3.620   0.533   8.969
 1958SOL     OW 5872   2.661   1.149   9.720
 1958SOL    HW1 5873   2.586   1.171   9.776
 1958SOL    HW2 5874   2.690   1.233   9.685
 1959SOL     OW 5875   2.579   1.019   9.357
 1959SOL    HW1 5876   2.641   1.002   9.427
 1959SOL    HW2 5877   2.510   1.070   9.399
 1960SOL     OW 5878   2.227   1.440   9.758
 1960SOL    HW1 5879   2.154   1.411   9.703
 1960SOL    HW2 5880   2.281   1.493   9.700
 1961SOL     OW 5881   3.497   0.453   9.432
 1961SOL    HW1 5882   3.427   0.498   9.385
 1961SOL    HW2 5883   3.542   0.522   9.481
 1962SOL     OW 5884   2.122   1.717   9.177
 1962SOL    HW1 5885   2.156   1.792   9.226
 1962SOL    HW2 5886   2.169   1.719   9.094
 1963SOL     OW 5887   2.123   1.439   9.232
 1963SOL    HW1 5888   2.097   1.531   9.236
 1963SOL    HW2 5889   2.054   1.392   9.278
 1964SOL     OW 5890   2.135   1.096   9.581
 1964SOL    HW1 5891   2.144   1.016   9.633
 1964SOL    HW2 5892   2.081   1.154   9.635
 1965SOL     OW 5893   2.495   0.971   8.820
 1965SOL    HW1 5894   2.511   1.049   8.767
 1965SOL    HW2 5895   2.543   0.987   8.901
 1966SOL     OW 5896   2.013   0.650   9.258
 1966SOL    HW1 5897   1.974   0.564   9.277
 1966SOL    HW2 5898   2.010   0.697   9.341
 1967SOL     OW 5899   3.736   1.771   9.050
 1967SOL    HW1 5900   3.787   1.747   9.127
 1967SOL    HW2 5901   3.766   1.859   9.028
 1968SOL     OW 5902   1.920   1.601   8.813
 1968SOL    HW1 5903   1.901   1.510   8.836
 1968SOL    HW2 5904   1.888   1.652   8.888
 1969SOL     OW 5905   3.582   0.927   9.312
 1969SOL    HW1 5906   3.674   0.899   9.312
 1969SOL    HW2 5907   3.575   0.985   9.236
 1970SOL     OW 5908   3.535   1.112   9.127
 1970SOL    HW1 5909   3.618   1.119   9.080
 1970SOL    HW2 5910   3.549   1.163   9.207
 1971SOL     OW 5911   2.507   1.372   9.422
 1971SOL    HW1 5912   2.458   1.290   9.428
 1971SOL    HW2 5913   2.482   1.408   9.337
 1972SOL     OW 5914   2.703   0.010   9.228
 1972SOL    HW1 5915   2.739   0.094   9.197
 1972SOL    HW2 5916   2.610   0.016   9.208
 1973SOL     OW 5917   2.090   0.981   9.958
 1973SOL    HW1 5918   2.172   0.935   9.944
 1973SOL    HW2 5919   2.022   0.916   9.939
 1974SOL     OW 5920   3.422   1.001   8.885
 1974SOL    HW1 5921   3.358   0.932   8.903
 1974SOL    HW2 5922   3.461   1.020   8.970
 1975SOL     OW 5923   3.360   1.422   9.649
 1975SOL    HW1 5924   3.298   1.427   9.722
 1975SOL    HW2 5925   3.343   1.337   9.609
 1976SOL     OW 5926   3.559   1.721   9.268
 1976SOL    HW1 5927   3.521   1.695   9.184
 1976SOL    HW2 5928   3.540   1.648   9.327
 1977SOL     OW 5929   2.489   0.732   8.963
 1977SOL    HW1 5930   2.510   0.803   8.902
 1977SOL    HW2 5931   2.417   0.767   9.016
 1978SOL     OW 5932   3.174   0.351   9.637
 1978SOL    HW1 5933   3.092   0.303   9.629
 1978SOL    HW2 5934   3.229   0.295   9.692
 1979SOL     OW 5935   3.470   1.668   9.002
 1979SOL    HW1 5936   3.555   1.710   9.001
 1979SOL    HW2 5937   3.452   1.646   8.911
 1980SOL     OW 5938   2.936   0.705   9.124
 1980SOL    HW1 5939   2.955   0.700   9.217
 1980SOL    HW2 5940   2.854   0.658   9.112
 1981SOL     OW 5941   1.970   0.817   9.478
 1981SOL    HW1 5942   2.064   0.808   9.498
 1981SOL    HW2 5943   1.949   0.906   9.507
 1982SOL     OW 5944   2.759   0.353   8.890
 1982SOL    HW1 5945   2.817   0.409   8.840
 1982SOL    HW2 5946   2.779   0.264   8.860
 1983SOL     OW 5947   3.257   1.150   9.240
 1983SOL    HW1 5948   3.335   1.125   9.190
 1983SOL    HW2 5949   3.211   1.212   9.184
 1984SOL     OW 5950   2.445   0.201   9.580
 1984SOL    HW1 5951   2.437   0.202   9.676
 1984SOL    HW2 5952   2.445   0.293   9.555
 1985SOL     OW 5953   2.901   1.459   9.171
 1985SOL    HW1 5954   2.858   1.531   9.125
 1985SOL    HW2 5955   2.896   1.483   9.264
 1986SOL     OW 5956   2.244   1.807   9.546
 1986SOL    HW1 5957   2.294   1.726   9.555
 1986SOL    HW2 5958   2.309   1.876   9.547
 1987SOL     OW 5959   3.689   1.072   9.566
 1987SOL    HW1 5960   3.626   1.056   9.496
 1987SOL    HW2 5961   3.636   1.078   9.646
 1988SOL     OW 5962   2.213   0.950   8.937
 1988SOL    HW1 5963   2.293   0.981   8.895
 1988SOL    HW2 5964   2.191   0.870   8.890
 1989SOL     OW 5965   3.353   0.739   9.422
 1989SOL    HW1 5966   3.349   0.681   9.498
 1989SOL    HW2 5967   3.429   0.795   9.439
 1990SOL     OW 5968   3.007   1.781   8.932
 1990SOL    HW1 5969   2.946   1.723   8.976
 1990SOL    HW2 5970   3.030   1.735   8.851
 1991SOL     OW 5971   3.526   1.382   8.778
 1991SOL    HW1 5972   3.490   1.470   8.766
 1991SOL    HW2 5973   3.452   1.323   8.764
 1992SOL     OW 5974   2.357   1.746   9.018
 1992SOL    HW1 5975   2.392   1.788   9.097
 1992SOL    HW2 5976   2.433   1.741   8.959
 1993SOL     OW 5977   3.293   0.115   9.120
 1993SOL    HW1 5978   3.275   0.079   9.033
 1993SOL    HW2 5979   3.388   0.126   9.122
 1994SOL     OW 5980   2.143   1.792   9.935
 1994SOL    HW1 5981   2.196   1.726   9.980
 1994SOL    HW2 5982   2.128   1.756   9.848
 1995SOL     OW 5983   2.834   1.703   9.599
 1995SOL    HW1 5984   2.908   1.646   9.616
 1995SOL    HW2 5985   2.787   1.662   9.527
 1996SOL     OW 5986   2.276   0.705   9.176
 1996SOL    HW1 5987   2.314   0.617   9.174
 1996SOL    HW2 5988   2.186   0.691   9.204
 1997SOL     OW 5989   2.502   0.138   8.803
 1997SOL    HW1 5990   2.590   0.104   8.820
 1997SOL    HW2 5991   2.480   0.105   8.716
 1998SOL     OW 5992   2.696   1.407   9.620
 1998SOL    HW1 5993   2.780   1.418   9.577
 1998SOL    HW2 5994   2.632   1.407   9.549
 1999SOL     OW 5995   2.817   0.510   9.595
 1999SOL    HW1 5996   2.792   0.496   9.503
 1999SOL    HW2 5997   2.859   0.428   9.621
 2000SOL     OW 5998   2.437   0.069   9.206
 2000SOL    HW1 5999   2.357   0.070   9.259
 2000SOL    HW2 6000   2.432   0.149   9.153
 2001SOL     OW 6001   3.325   1.194   8.734
 2001SOL    HW1 6002   3.355   1.123   8.790
 2001SOL    HW2 6003   3.238   1.217   8.768
 2002SOL     OW 6004   2.191   0.039   8.867
 2002SOL    HW1 6005   2.240   0.119   8.848
 2002SOL    HW2 6006   2.254  -0.019   8.909
 2003SOL     OW 6007   2.828   0.241   9.173
 2003SOL    HW1 6008   2.787   0.282   9.097
 2003SOL    HW2 6009   2.922   0.244   9.154
 2004SOL     OW 6010   3.119   1.575   9.488
 2004SOL    HW1 6011   3.143   1.645   9.428
 2004SOL    HW2 6012   3.186   1.579   9.556
 2005SOL     OW 6013   2.354   1.154   9.437
 2005SOL    HW1 6014   2.281   1.131   9.495
 2005SOL    HW2 6015   2.323   1.130   9.349
 2006SOL     OW 6016   3.165   1.802   9.288
 2006SOL    HW1 6017   3.204   1.866   9.228
 2006SOL    HW2 6018   3.115   1.855   9.350
 2007SOL     OW 6019   2.926   0.554   8.709
 2007SOL    HW1 6020   2.886   0.635   8.678
 2007SOL    HW2 6021   2.984   0.581   8.781
 2008SOL     OW 6022   2.762   0.461   9.337
 2008SOL    HW1 6023   2.727   0.524   9.274
 2008SOL    HW2 6024   2.780   0.383   9.285
 2009SOL     OW 6025   2.891   0.067   9.464
 2009SOL    HW1 6026   2.846   0.051   9.380
 2009SOL    HW2 6027   2.895  -0.019   9.505
 2010SOL     OW 6028   3.324   1.176   9.561
 2010SOL    HW1 6029   3.268   1.098   9.552
 2010SOL    HW2 6030   3.345   1.201   9.471
 2011SOL     OW 6031   3.360   0.597   9.686
 2011SOL    HW1 6032   3.331   0.506   9.695
 2011SOL    HW2 6033   3.429   0.607   9.752
 2012SOL     OW 6034   3.746   0.836   9.074
 2012SOL    HW1 6035   3.791   0.773   9.130
 2012SOL    HW2 6036   3.716   0.784   8.999
 2013SOL     OW 6037   2.383   1.393   8.868
 2013SOL    HW1 6038   2.299   1.376   8.911
 2013SOL    HW2 6039   2.360   1.414   8.778
 2014SOL     OW 6040   3.557   1.281   9.354
 2014SOL    HW1 6041   3.652   1.294   9.365
 2014SOL    HW2 6042   3.519   1.365   9.379
 2015SOL     OW 6043   3.283   0.579   8.771
 2015SOL    HW1 6044   3.233   0.559   8.850
 2015SOL    HW2 6045   3.369   0.541   8.786
 2016SOL     OW 6046   2.419   0.263   9.024
 2016SOL    HW1 6047   2.448   0.208   8.951
 2016SOL    HW2 6048   2.419   0.352   8.988
 2017SOL     OW 6049   3.006   1.202   9.797
 2017SOL    HW1 6050   2.959   1.243   9.869
 2017SOL    HW2 6051   2.965   1.237   9.718
 2018SOL     OW 6052   3.531   1.105   9.772
 2018SOL    HW1 6053   3.531   1.181   9.831
 2018SOL    HW2 6054   3.447   1.109   9.728
 2019SOL     OW 6055   2.598   1.058   9.064
 2019SOL    HW1 6056   2.587   1.058   9.159
 2019SOL    HW2 6057   2.677   1.006   9.049
 2020SOL     OW 6058   2.304   0.818   9.947
 2020SOL    HW1 6059   2.385   0.826   9.996
 2020SOL    HW2 6060   2.267   0.734   9.973
 2021SOL     OW 6061   2.258   1.105   9.195
 2021SOL    HW1 6062   2.253   1.182   9.138
 2021SOL    HW2 6063   2.263   1.031   9.135
 2022SOL     OW 6064   2.457   0.542   9.560
 2022SOL    HW1 6065   2.473   0.606   9.490
 2022SOL    HW2 6066   2.505   0.577   9.636
 2023SOL     OW 6067   3.144   1.353   9.083
 2023SOL    HW1 6068   3.190   1.427   9.122
 2023SOL    HW2 6069   3.055   1.360   9.116
 2024SOL     OW 6070   3.167   1.450   9.837
 2024SOL    HW1 6071   3.207   1.460   9.923
 2024SOL    HW2 6072   3.105   1.378   9.847
 2025SOL     OW 6073   3.475   0.642   9.167
 2025SOL    HW1 6074   3.446   0.705   9.234
 2025SOL    HW2 6075   3.522   0.696   9.104
 2026SOL     OW 6076   2.468   0.874   9.724
 2026SOL    HW1 6077   2.506   0.962   9.718
 2026SOL    HW2 6078   2.408   0.879   9.799
 2027SOL     OW 6079   3.254   0.868   9.738
 2027SOL    HW1 6080   3.181   0.863   9.677
 2027SOL    HW2 6081   3.286   0.778   9.745
 2028SOL     OW 6082   3.105   0.531   8.970
 2028SOL    HW1 6083   3.111   0.452   9.024
 2028SOL    HW2 6084   3.072   0.598   9.029
 2029SOL     OW 6085   2.201   0.217   9.927
 2029SOL    HW1 6086   2.177   0.249  10.014
 2029SOL    HW2 6087   2.171   0.127   9.926
 2030SOL     OW 6088   1.929   1.316   9.977
 2030SOL    HW1 6089   1.980   1.270  10.044
 2030SOL    HW2 6090   1.955   1.408   9.986
 2031SOL     OW 6091   2.625   0.639   9.760
 2031SOL    HW1 6092   2.682   0.617   9.686
 2031SOL    HW2 6093   2.599   0.730   9.743
 2032SOL     OW 6094   2.201   0.073   9.313
 2032SOL    HW1 6095   2.187   0.161   9.349
 2032SOL    HW2 6096   2.198   0.015   9.389
 2033SOL     OW 6097   3.509   0.371   9.066
 2033SOL    HW1 6098   3.520   0.304   9.133
 2033SOL    HW2 6099   3.471   0.446   9.112
 2034SOL     OW 6100   2.916   0.771   9.661
 2034SOL    HW1 6101   2.929   0.787   9.754
 2034SOL    HW2 6102   2.888   0.679   9.656
 2035SOL     OW 6103   3.431   0.280   8.820
 2035SOL    HW1 6104   3.373   0.209   8.847
 2035SOL    HW2 6105   3.455   0.325   8.901
 2036SOL     OW 6106   3.195   0.841   8.736
 2036SOL    HW1 6107   3.231   0.753   8.745
 2036SOL    HW2 6108   3.216   0.867   8.647
 2037SOL     OW 6109   2.960   1.338   9.545
 2037SOL    HW1 6110   2.969   1.261   9.489
 2037SOL    HW2 6111   3.022   1.401   9.507
 2038SOL     OW 6112   2.210   0.817   9.646
 2038SOL    HW1 6113   2.302   0.844   9.648
 2038SOL    HW2 6114   2.209   0.733   9.691
 2039SOL     OW 6115   2.230   0.517   9.700
 2039SOL    HW1 6116   2.186   0.434   9.684
 2039SOL    HW2 6117   2.304   0.518   9.640
 2040SOL     OW 6118   3.055   0.211  10.172
 2040SOL    HW1 6119   3.053   0.275  10.243
 2040SOL    HW2 6120   3.078   0.262  10.095
 2041SOL     OW 6121   1.900   1.332   8.893
 2041SOL    HW1 6122   1.810   1.346   8.864
 2041SOL    HW2 6123   1.906   1.238   8.909
 2042SOL     OW 6124   1.981   1.805   9.623
 2042SOL    HW1 6125   1.945   1.722   9.593
 2042SOL    HW2 6126   2.071   1.806   9.589
 2043SOL     OW 6127   2.396   1.575   9.602
 2043SOL    HW1 6128   2.464   1.641   9.614
 2043SOL    HW2 6129   2.442   1.500   9.564
 2044SOL     OW 6130   2.895   0.799   9.931
 2044SOL    HW1 6131   2.931   0.771  10.016
 2044SOL    HW2 6132   2.803   0.773   9.935
 2045SOL     OW 6133   1.932   0.546   9.810
 2045SOL    HW1 6134   2.015   0.519   9.772
 2045SOL    HW2 6135   1.953   0.563   9.902
 2046SOL     OW 6136   2.708   0.576   9.025
 2046SOL    HW1 6137   2.711   0.493   8.976
 2046SOL    HW2 6138   2.620   0.610   9.011
 2047SOL     OW 6139   3.545   0.607   9.897
 2047SOL    HW1 6140   3.519   0.541   9.961
 2047SOL    HW2 6141   3.627   0.574   9.860
 2048SOL     OW 6142   2.564   0.469   9.965
 2048SOL    HW1 6143   2.532   0.385   9.931
 2048SOL    HW2 6144   2.588   0.519   9.887
 2049SOL     OW 6145   2.366   0.504   8.884
 2049SOL    HW1 6146   2.421   0.582   8.893
 2049SOL    HW2 6147   2.277   0.537   8.892
 2050SOL     OW 6148   2.051   1.143  10.161
 2050SOL    HW1 6149   2.073   1.083  10.232
 2050SOL    HW2 6150   2.063   1.093  10.081
 2051SOL     OW 6151   3.241   1.067   9.928
 2051SOL    HW1 6152   3.259   1.003   9.860
 2051SOL    HW2 6153   3.153   1.100   9.907
 2052SOL     OW 6154   3.196   0.858   9.005
 2052SOL    HW1 6155   3.112   0.830   9.041
 2052SOL    HW2 6156   3.186   0.847   8.911
 2053SOL     OW 6157   3.649   1.755   9.846
 2053SOL    HW1 6158   3.712   1.777   9.777
 2053SOL    HW2 6159   3.621   1.666   9.826
 2054SOL     OW 6160   1.976   1.264   9.716
 2054SOL    HW1 6161   1.967   1.263   9.812
 2054SOL    HW2 6162   1.897   1.222   9.684
 2055SOL     OW 6163   3.613   0.141   9.211
 2055SOL    HW1 6164   3.691   0.124   9.158
 2055SOL    HW2 6165   3.596   0.058   9.256
 2056SOL     OW 6166   3.282   1.577   9.173
 2056SOL    HW1 6167   3.344   1.594   9.102
 2056SOL    HW2 6168   3.243   1.662   9.193
 2057SOL     OW 6169   3.171   0.929   9.366
 2057SOL    HW1 6170   3.235   0.858   9.367
 2057SOL    HW2 6171   3.211   0.997   9.311
 2058SOL     OW 6172   2.564   1.621   8.850
 2058SOL    HW1 6173   2.573   1.627   8.755
 2058SOL    HW2 6174   2.525   1.534   8.864
 2059SOL     OW 6175   3.543   1.724  10.090
 2059SOL    HW1 6176   3.592   1.738  10.010
 2059SOL    HW2 6177   3.519   1.812  10.119
 2060SOL     OW 6178   3.730   0.189   9.656
 2060SOL    HW1 6179   3.767   0.107   9.624
 2060SOL    HW2 6180   3.637   0.184   9.632
 2061SOL     OW 6181   2.161   0.333   9.416
 2061SOL    HW1 6182   2.080   0.374   9.385
 2061SOL    HW2 6183   2.145   0.317   9.509
 2062SOL     OW 6184   3.088   1.617   8.727
 2062SOL    HW1 6185   3.091   1.526   8.758
 2062SOL    HW2 6186   3.030   1.615   8.651
 2063SOL     OW 6187   2.714   1.007  10.067
 2063SOL    HW1 6188   2.755   1.010   9.980
 2063SOL    HW2 6189   2.726   1.095  10.102
 2064SOL     OW 6190   2.809   0.916   8.986
 2064SOL    HW1 6191   2.872   0.948   8.921
 2064SOL    HW2 6192   2.850   0.837   9.022
 2065SOL     OW 6193   3.399   1.617   8.740
 2065SOL    HW1 6194   3.307   1.645   8.740
 2065SOL    HW2 6195   3.428   1.632   8.650
 2066SOL     OW 6196   2.932   1.104   9.392
 2066SOL    HW1 6197   2.866   1.055   9.441
 2066SOL    HW2 6198   2.988   1.037   9.352
 2067SOL     OW 6199   2.910   0.242   9.664
 2067SOL    HW1 6200   2.899   0.202   9.578
 2067SOL    HW2 6201   2.903   0.170   9.726
 2068SOL     OW 6202   2.486   1.493   9.185
 2068SOL    HW1 6203   2.521   1.439   9.115
 2068SOL    HW2 6204   2.440   1.564   9.140
 2069SOL     OW 6205   3.600   0.391  10.074
 2069SOL    HW1 6206   3.673   0.453  10.080
 2069SOL    HW2 6207   3.634   0.320  10.019
 2070SOL     OW 6208   2.149   1.355   8.982
 2070SOL    HW1 6209   2.055   1.355   8.963
 2070SOL    HW2 6210   2.156   1.401   9.066
 2071SOL     OW 6211   1.968   0.350   8.729
 2071SOL    HW1 6212   1.881   0.326   8.698
 2071SOL    HW2 6213   1.994   0.424   8.673
 2072SOL     OW 6214   1.990   0.204   9.038
 2072SOL    HW1 6215   1.950   0.251   8.965
 2072SOL    HW2 6216   2.045   0.138   8.997
 2073SOL     OW 6217   3.076   1.344   8.813
 2073SOL    HW1 6218   2.982   1.328   8.819
 2073SOL    HW2 6219   3.105   1.351   8.904
 2074SOL     OW 6220   3.385   1.772   9.654
 2074SOL    HW1 6221   3.421   1.834   9.590
 2074SOL    HW2 6222   3.451   1.768   9.723
 2075SOL     OW 6223   3.572   0.888   9.949
 2075SOL    HW1 6224   3.541   0.805   9.912
 2075SOL    HW2 6225   3.564   0.951   9.877
 2076SOL     OW 6226   3.118   0.330   9.144
 2076SOL    HW1 6227   3.181   0.258   9.138
 2076SOL    HW2 6228   3.139   0.374   9.226
 2077SOL     OW 6229   2.487   0.750   9.349
 2077SOL    HW1 6230   2.531   0.832   9.328
 2077SOL    HW2 6231   2.406   0.753   9.299
 2078SOL     OW 6232   3.626   0.938  10.213
 2078SOL    HW1 6233   3.659   1.027  10.221
 2078SOL    HW2 6234   3.613   0.926  10.119
 2079SOL     OW 6235   2.753   1.378   8.712
 2079SOL    HW1 6236   2.710   1.397   8.796
 2079SOL    HW2 6237   2.790   1.462   8.684
 2080SOL     OW 6238   2.553   1.795   9.648
 2080SOL    HW1 6239   2.515   1.882   9.633
 2080SOL    HW2 6240   2.647   1.808   9.640
 2081SOL     OW 6241   2.753   0.962   9.555
 2081SOL    HW1 6242   2.804   0.897   9.603
 2081SOL    HW2 6243   2.724   1.025   9.622
 2082SOL     OW 6244   2.975   0.989   8.782
 2082SOL    HW1 6245   2.956   1.039   8.703
 2082SOL    HW2 6246   3.053   0.938   8.761
 2083SOL     OW 6247   3.755   1.573   9.545
 2083SOL    HW1 6248   3.684   1.559   9.481
 2083SOL    HW2 6249   3.751   1.497   9.602
 2084SOL     OW 6250   1.973   1.245   9.349
 2084SOL    HW1 6251   1.974   1.197   9.432
 2084SOL    HW2 6252   2.050   1.215   9.302
 2085SOL     OW 6253   3.720   0.198   9.924
 2085SOL    HW1 6254   3.712   0.109   9.959
 2085SOL    HW2 6255   3.720   0.187   9.829
 2086SOL     OW 6256   2.322   0.431   9.216
 2086SOL    HW1 6257   2.348   0.359   9.159
 2086SOL    HW2 6258   2.283   0.389   9.292
 2087SOL     OW 6259   3.598   1.494   9.800
 2087SOL    HW1 6260   3.510   1.465   9.774
 2087SOL    HW2 6261   3.619   1.441   9.877
 2088SOL     OW 6262   2.707   1.589   9.383
 2088SOL    HW1 6263   2.731   1.601   9.291
 2088SOL    HW2 6264   2.630   1.532   9.380
 2089SOL     OW 6265   3.318   0.220   9.808
 2089SOL    HW1 6266   3.366   0.157   9.861
 2089SOL    HW2 6267   3.273   0.276   9.871
 2090SOL     OW 6268   2.894   0.039   9.846
 2090SOL    HW1 6269   2.837  -0.034   9.820
 2090SOL    HW2 6270   2.982   0.001   9.849
 2091SOL     OW 6271   2.663   1.336   8.997
 2091SOL    HW1 6272   2.622   1.251   9.012
 2091SOL    HW2 6273   2.749   1.329   9.037
 2092SOL     OW 6274   3.245   0.057   8.863
 2092SOL    HW1 6275   3.275   0.014   8.783
 2092SOL    HW2 6276   3.159   0.020   8.879
 2093SOL     OW 6277   3.194   0.459   9.385
 2093SOL    HW1 6278   3.136   0.535   9.393
 2093SOL    HW2 6279   3.203   0.426   9.475
 2094SOL     OW 6280   3.486   0.224   9.577
 2094SOL    HW1 6281   3.404   0.228   9.627
 2094SOL    HW2 6282   3.484   0.304   9.524
 2095SOL     OW 6283   1.932   1.082   8.996
 2095SOL    HW1 6284   2.027   1.069   8.987
 2095SOL    HW2 6285   1.899   0.998   9.024
 2096SOL     OW 6286   2.768   1.648   9.037
 2096SOL    HW1 6287   2.694   1.623   8.980
 2096SOL    HW2 6288   2.735   1.721   9.088
 2097SOL     OW 6289   2.124   2.495   5.085
 2097SOL    HW1 6290   2.033   2.492   5.117
 2097SOL    HW2 6291   2.120   2.458   4.997
 2098SOL     OW 6292   2.118   2.142   5.964
 2098SOL    HW1 6293   2.148   2.123   6.053
 2098SOL    HW2 6294   2.032   2.100   5.958
 2099SOL     OW 6295   1.909   2.240   5.613
 2099SOL    HW1 6296   1.828   2.272   5.654
 2099SOL    HW2 6297   1.882   2.165   5.560
 2100SOL     OW 6298   2.462   3.141   6.137
 2100SOL    HW1 6299   2.373   3.140   6.102
 2100SOL    HW2 6300   2.470   3.228   6.177
 2101SOL     OW 6301   3.448   3.379   5.674
 2101SOL    HW1 6302   3.392   3.364   5.750
 2101SOL    HW2 6303   3.386   3.387   5.601
 2102SOL     OW 6304   3.026   2.570   5.686
 2102SOL    HW1 6305   3.080   2.647   5.667
 2102SOL    HW2 6306   2.973   2.596   5.761
 2103SOL     OW 6307   3.650   2.474   5.201
 2103SOL    HW1 6308   3.634   2.457   5.109
 2103SOL    HW2 6309   3.619   2.396   5.246
 2104SOL     OW 6310   2.661   3.011   5.996
 2104SOL    HW1 6311   2.586   3.033   6.052
 2104SOL    HW2 6312   2.690   3.095   5.961
 2105SOL     OW 6313   2.744   2.664   6.793
 2105SOL    HW1 6314   2.740   2.738   6.853
 2105SOL    HW2 6315   2.765   2.703   6.709
 2106SOL     OW 6316   2.579   2.881   5.633
 2106SOL    HW1 6317   2.641   2.864   5.704
 2106SOL    HW2 6318   2.509   2.932   5.675
 2107SOL     OW 6319   2.582   3.027   6.774
 2107SOL    HW1 6320   2.635   3.105   6.787
 2107SOL    HW2 6321   2.500   3.059   6.736
 2108SOL     OW 6322   2.226   3.302   6.035
 2108SOL    HW1 6323   2.154   3.273   5.979
 2108SOL    HW2 6324   2.281   3.355   5.976
 2109SOL     OW 6325   3.353   3.371   6.310
 2109SOL    HW1 6326   3.377   3.460   6.337
 2109SOL    HW2 6327   3.336   3.325   6.393
 2110SOL     OW 6328   2.332   2.261   6.470
 2110SOL    HW1 6329   2.408   2.203   6.477
 2110SOL    HW2 6330   2.257   2.202   6.474
 2111SOL     OW 6331   3.498   2.315   5.707
 2111SOL    HW1 6332   3.427   2.360   5.662
 2111SOL    HW2 6333   3.541   2.383   5.758
 2112SOL     OW 6334   2.122   3.579   5.453
 2112SOL    HW1 6335   2.156   3.654   5.502
 2112SOL    HW2 6336   2.169   3.581   5.370
 2113SOL     OW 6337   3.022   3.208   6.660
 2113SOL    HW1 6338   3.064   3.205   6.746
 2113SOL    HW2 6339   2.974   3.125   6.654
 2114SOL     OW 6340   2.123   3.302   5.509
 2114SOL    HW1 6341   2.096   3.393   5.511
 2114SOL    HW2 6342   2.053   3.254   5.554
 2115SOL     OW 6343   2.135   2.958   5.857
 2115SOL    HW1 6344   2.144   2.878   5.909
 2115SOL    HW2 6345   2.081   3.016   5.911
 2116SOL     OW 6346   2.513   3.654   6.409
 2116SOL    HW1 6347   2.426   3.640   6.446
 2116SOL    HW2 6348   2.537   3.742   6.435
 2117SOL     OW 6349   2.498   2.831   5.095
 2117SOL    HW1 6350   2.508   2.912   5.045
 2117SOL    HW2 6351   2.543   2.849   5.178
 2118SOL     OW 6352   3.488   1.981   6.449
 2118SOL    HW1 6353   3.470   2.049   6.385
 2118SOL    HW2 6354   3.484   2.025   6.534
 2119SOL     OW 6355   2.014   2.511   5.534
 2119SOL    HW1 6356   1.973   2.426   5.553
 2119SOL    HW2 6357   2.010   2.559   5.616
 2120SOL     OW 6358   3.734   3.634   5.328
 2120SOL    HW1 6359   3.788   3.608   5.403
 2120SOL    HW2 6360   3.767   3.720   5.303
 2121SOL     OW 6361   1.917   3.464   5.086
 2121SOL    HW1 6362   1.903   3.373   5.112
 2121SOL    HW2 6363   1.890   3.515   5.163
 2122SOL     OW 6364   3.582   2.789   5.588
 2122SOL    HW1 6365   3.674   2.761   5.588
 2122SOL    HW2 6366   3.575   2.847   5.512
 2123SOL     OW 6367   3.535   2.975   5.403
 2123SOL    HW1 6368   3.618   2.980   5.356
 2123SOL    HW2 6369   3.549   3.024   5.484
 2124SOL     OW 6370   2.007   2.604   6.565
 2124SOL    HW1 6371   2.092   2.599   6.609
 2124SOL    HW2 6372   1.993   2.697   6.550
 2125SOL     OW 6373   2.507   3.234   5.698
 2125SOL    HW1 6374   2.458   3.152   5.704
 2125SOL    HW2 6375   2.482   3.271   5.613
 2126SOL     OW 6376   3.186   3.098   6.395
 2126SOL    HW1 6377   3.222   3.028   6.341
 2126SOL    HW2 6378   3.237   3.096   6.475
 2127SOL     OW 6379   2.701   1.869   5.471
 2127SOL    HW1 6380   2.738   1.957   5.466
 2127SOL    HW2 6381   2.607   1.883   5.480
 2128SOL     OW 6382   2.090   2.843   6.235
 2128SOL    HW1 6383   2.172   2.797   6.221
 2128SOL    HW2 6384   2.022   2.778   6.214
 2129SOL     OW 6385   3.421   2.863   5.161
 2129SOL    HW1 6386   3.358   2.793   5.180
 2129SOL    HW2 6387   3.461   2.881   5.246
 2130SOL     OW 6388   3.078   3.661   6.587
 2130SOL    HW1 6389   3.104   3.715   6.512
 2130SOL    HW2 6390   3.089   3.571   6.556
 2131SOL     OW 6391   2.212   2.118   6.770
 2131SOL    HW1 6392   2.275   2.190   6.780
 2131SOL    HW2 6393   2.129   2.155   6.801
 2132SOL     OW 6394   3.358   3.285   5.924
 2132SOL    HW1 6395   3.299   3.289   5.999
 2132SOL    HW2 6396   3.344   3.199   5.886
 2133SOL     OW 6397   3.558   3.583   5.545
 2133SOL    HW1 6398   3.522   3.557   5.460
 2133SOL    HW2 6399   3.540   3.510   5.603
 2134SOL     OW 6400   2.489   2.595   5.239
 2134SOL    HW1 6401   2.510   2.665   5.178
 2134SOL    HW2 6402   2.417   2.630   5.292
 2135SOL     OW 6403   3.175   2.211   5.910
 2135SOL    HW1 6404   3.092   2.164   5.906
 2135SOL    HW2 6405   3.229   2.159   5.970
 2136SOL     OW 6406   3.469   3.531   5.278
 2136SOL    HW1 6407   3.556   3.572   5.277
 2136SOL    HW2 6408   3.453   3.507   5.187
 2137SOL     OW 6409   2.698   2.474   6.433
 2137SOL    HW1 6410   2.655   2.466   6.518
 2137SOL    HW2 6411   2.647   2.418   6.375
 2138SOL     OW 6412   3.286   2.336   6.645
 2138SOL    HW1 6413   3.273   2.376   6.731
 2138SOL    HW2 6414   3.361   2.277   6.657
 2139SOL     OW 6415   2.863   2.758   6.545
 2139SOL    HW1 6416   2.909   2.680   6.514
 2139SOL    HW2 6417   2.813   2.788   6.469
 2140SOL     OW 6418   2.885   2.277   6.213
 2140SOL    HW1 6419   2.808   2.307   6.261
 2140SOL    HW2 6420   2.849   2.229   6.139
 2141SOL     OW 6421   2.936   2.568   5.400
 2141SOL    HW1 6422   2.955   2.562   5.493
 2141SOL    HW2 6423   2.854   2.520   5.388
 2142SOL     OW 6424   1.971   2.680   5.754
 2142SOL    HW1 6425   2.064   2.670   5.774
 2142SOL    HW2 6426   1.948   2.768   5.783
 2143SOL     OW 6427   2.023   3.688   6.543
 2143SOL    HW1 6428   2.011   3.675   6.637
 2143SOL    HW2 6429   1.939   3.722   6.512
 2144SOL     OW 6430   2.760   2.215   5.168
 2144SOL    HW1 6431   2.816   2.272   5.115
 2144SOL    HW2 6432   2.777   2.127   5.136
 2145SOL     OW 6433   3.611   2.451   6.802
 2145SOL    HW1 6434   3.586   2.535   6.764
 2145SOL    HW2 6435   3.611   2.390   6.728
 2146SOL     OW 6436   3.257   3.012   5.516
 2146SOL    HW1 6437   3.335   2.987   5.466
 2146SOL    HW2 6438   3.211   3.074   5.460
 2147SOL     OW 6439   2.442   2.062   5.856
 2147SOL    HW1 6440   2.439   2.064   5.952
 2147SOL    HW2 6441   2.445   2.153   5.829
 2148SOL     OW 6442   2.901   3.321   5.447
 2148SOL    HW1 6443   2.857   3.393   5.402
 2148SOL    HW2 6444   2.896   3.345   5.540
 2149SOL     OW 6445   2.244   3.669   5.823
 2149SOL    HW1 6446   2.295   3.588   5.831
 2149SOL    HW2 6447   2.309   3.738   5.823
 2150SOL     OW 6448   3.689   2.934   5.842
 2150SOL    HW1 6449   3.626   2.918   5.772
 2150SOL    HW2 6450   3.636   2.941   5.922
 2151SOL     OW 6451   3.121   3.417   6.477
 2151SOL    HW1 6452   3.122   3.341   6.536
 2151SOL    HW2 6453   3.069   3.388   6.403
 2152SOL     OW 6454   2.215   2.811   5.214
 2152SOL    HW1 6455   2.293   2.843   5.169
 2152SOL    HW2 6456   2.191   2.732   5.165
 2153SOL     OW 6457   3.353   2.601   5.698
 2153SOL    HW1 6458   3.349   2.543   5.774
 2153SOL    HW2 6459   3.429   2.657   5.715
 2154SOL     OW 6460   2.355   3.131   6.702
 2154SOL    HW1 6461   2.308   3.134   6.618
 2154SOL    HW2 6462   2.287   3.117   6.767
 2155SOL     OW 6463   3.003   3.645   5.205
 2155SOL    HW1 6464   2.947   3.584   5.254
 2155SOL    HW2 6465   3.032   3.594   5.129
 2156SOL     OW 6466   2.094   2.151   6.469
 2156SOL    HW1 6467   2.017   2.207   6.460
 2156SOL    HW2 6468   2.081   2.105   6.552
 2157SOL     OW 6469   3.526   3.243   5.055
 2157SOL    HW1 6470   3.490   3.331   5.042
 2157SOL    HW2 6471   3.452   3.185   5.039
 2158SOL     OW 6472   2.358   3.608   5.294
 2158SOL    HW1 6473   2.392   3.650   5.373
 2158SOL    HW2 6474   2.433   3.604   5.235
 2159SOL     OW 6475   3.293   1.975   5.397
 2159SOL    HW1 6476   3.274   1.941   5.310
 2159SOL    HW2 6477   3.388   1.987   5.399
 2160SOL     OW 6478   2.142   3.653   6.212
 2160SOL    HW1 6479   2.197   3.589   6.256
 2160SOL    HW2 6480   2.129   3.618   6.124
 2161SOL     OW 6481   2.833   3.565   5.875
 2161SOL    HW1 6482   2.908   3.508   5.892
 2161SOL    HW2 6483   2.787   3.524   5.802
 2162SOL     OW 6484   2.276   2.567   5.452
 2162SOL    HW1 6485   2.314   2.479   5.450
 2162SOL    HW2 6486   2.186   2.554   5.481
 2163SOL     OW 6487   3.437   2.093   6.698
 2163SOL    HW1 6488   3.435   2.120   6.790
 2163SOL    HW2 6489   3.371   2.024   6.692
 2164SOL     OW 6490   2.506   1.986   5.089
 2164SOL    HW1 6491   2.600   1.968   5.091
 2164SOL    HW2 6492   2.482   1.972   4.997
 2165SOL     OW 6493   2.673   2.131   6.719
 2165SOL    HW1 6494   2.736   2.073   6.761
 2165SOL    HW2 6495   2.606   2.147   6.787
 2166SOL     OW 6496   2.780   3.383   6.165
 2166SOL    HW1 6497   2.760   3.353   6.077
 2166SOL    HW2 6498   2.838   3.315   6.201
 2167SOL     OW 6499   3.241   2.457   6.404
 2167SOL    HW1 6500   3.272   2.419   6.486
 2167SOL    HW2 6501   3.270   2.548   6.406
 2168SOL     OW 6502   2.697   3.271   5.897
 2168SOL    HW1 6503   2.781   3.279   5.852
 2168SOL    HW2 6504   2.632   3.268   5.826
 2169SOL     OW 6505   2.816   2.372   5.871
 2169SOL    HW1 6506   2.792   2.359   5.779
 2169SOL    HW2 6507   2.859   2.290   5.897
 2170SOL     OW 6508   2.436   1.931   5.484
 2170SOL    HW1 6509   2.355   1.933   5.535
 2170SOL    HW2 6510   2.433   2.010   5.430
 2171SOL     OW 6511   3.326   3.058   5.011
 2171SOL    HW1 6512   3.355   2.985   5.065
 2171SOL    HW2 6513   3.238   3.079   5.044
 2172SOL     OW 6514   2.189   1.904   5.144
 2172SOL    HW1 6515   2.242   1.981   5.123
 2172SOL    HW2 6516   2.250   1.843   5.185
 2173SOL     OW 6517   2.828   2.104   5.450
 2173SOL    HW1 6518   2.787   2.144   5.373
 2173SOL    HW2 6519   2.921   2.105   5.430
 2174SOL     OW 6520   2.970   2.548   6.435
 2174SOL    HW1 6521   2.896   2.488   6.437
 2174SOL    HW2 6522   3.045   2.494   6.413
 2175SOL     OW 6523   3.119   3.437   5.764
 2175SOL    HW1 6524   3.143   3.508   5.704
 2175SOL    HW2 6525   3.186   3.440   5.832
 2176SOL     OW 6526   2.354   3.016   5.713
 2176SOL    HW1 6527   2.281   2.993   5.771
 2176SOL    HW2 6528   2.323   2.992   5.625
 2177SOL     OW 6529   3.165   3.664   5.563
 2177SOL    HW1 6530   3.204   3.728   5.504
 2177SOL    HW2 6531   3.115   3.717   5.626
 2178SOL     OW 6532   2.923   2.415   4.989
 2178SOL    HW1 6533   2.888   2.496   4.953
 2178SOL    HW2 6534   2.986   2.443   5.056
 2179SOL     OW 6535   1.970   2.422   6.358
 2179SOL    HW1 6536   2.058   2.424   6.321
 2179SOL    HW2 6537   1.968   2.494   6.421
 2180SOL     OW 6538   2.456   2.091   6.121
 2180SOL    HW1 6539   2.488   2.008   6.157
 2180SOL    HW2 6540   2.370   2.102   6.160
 2181SOL     OW 6541   2.761   2.322   5.613
 2181SOL    HW1 6542   2.727   2.386   5.551
 2181SOL    HW2 6543   2.781   2.245   5.560
 2182SOL     OW 6544   2.910   1.909   5.725
 2182SOL    HW1 6545   2.841   1.908   5.659
 2182SOL    HW2 6546   2.885   1.839   5.786
 2183SOL     OW 6547   3.324   3.038   5.837
 2183SOL    HW1 6548   3.268   2.960   5.828
 2183SOL    HW2 6549   3.345   3.063   5.747
 2184SOL     OW 6550   3.361   2.458   5.961
 2184SOL    HW1 6551   3.330   2.368   5.972
 2184SOL    HW2 6552   3.428   2.468   6.028
 2185SOL     OW 6553   3.747   2.700   5.349
 2185SOL    HW1 6554   3.791   2.637   5.406
 2185SOL    HW2 6555   3.716   2.647   5.276
 2186SOL     OW 6556   2.383   3.256   5.144
 2186SOL    HW1 6557   2.299   3.237   5.187
 2186SOL    HW2 6558   2.359   3.275   5.053
 2187SOL     OW 6559   3.557   3.143   5.629
 2187SOL    HW1 6560   3.652   3.156   5.641
 2187SOL    HW2 6561   3.519   3.227   5.656
 2188SOL     OW 6562   3.285   2.447   5.051
 2188SOL    HW1 6563   3.232   2.419   5.125
 2188SOL    HW2 6564   3.367   2.399   5.060
 2189SOL     OW 6565   2.419   2.124   5.299
 2189SOL    HW1 6566   2.448   2.070   5.226
 2189SOL    HW2 6567   2.420   2.214   5.265
 2190SOL     OW 6568   3.647   3.091   6.557
 2190SOL    HW1 6569   3.735   3.057   6.548
 2190SOL    HW2 6570   3.658   3.182   6.582
 2191SOL     OW 6571   2.959   3.218   6.310
 2191SOL    HW1 6572   2.883   3.190   6.362
 2191SOL    HW2 6573   3.035   3.184   6.359
 2192SOL     OW 6574   3.485   3.496   6.601
 2192SOL    HW1 6575   3.510   3.526   6.514
 2192SOL    HW2 6576   3.566   3.458   6.637
 2193SOL     OW 6577   3.005   3.062   6.073
 2193SOL    HW1 6578   2.962   3.106   6.146
 2193SOL    HW2 6579   2.965   3.099   5.995
 2194SOL     OW 6580   3.531   2.967   6.049
 2194SOL    HW1 6581   3.531   3.042   6.108
 2194SOL    HW2 6582   3.447   2.972   6.004
 2195SOL     OW 6583   2.808   1.959   6.374
 2195SOL    HW1 6584   2.834   1.940   6.284
 2195SOL    HW2 6585   2.881   2.009   6.410
 2196SOL     OW 6586   2.874   2.982   6.690
 2196SOL    HW1 6587   2.779   2.987   6.699
 2196SOL    HW2 6588   2.890   2.905   6.635
 2197SOL     OW 6589   2.599   2.921   5.340
 2197SOL    HW1 6590   2.587   2.920   5.435
 2197SOL    HW2 6591   2.677   2.868   5.325
 2198SOL     OW 6592   2.304   2.680   6.221
 2198SOL    HW1 6593   2.383   2.689   6.274
 2198SOL    HW2 6594   2.266   2.596   6.248
 2199SOL     OW 6595   3.167   2.251   6.234
 2199SOL    HW1 6596   3.186   2.326   6.292
 2199SOL    HW2 6597   3.082   2.272   6.196
 2200SOL     OW 6598   1.957   3.433   6.305
 2200SOL    HW1 6599   1.917   3.511   6.268
 2200SOL    HW2 6600   2.051   3.453   6.309
 2201SOL     OW 6601   2.260   2.967   5.471
 2201SOL    HW1 6602   2.253   3.044   5.414
 2201SOL    HW2 6603   2.261   2.893   5.411
 2202SOL     OW 6604   2.458   2.404   5.836
 2202SOL    HW1 6605   2.472   2.468   5.767
 2202SOL    HW2 6606   2.504   2.439   5.912
 2203SOL     OW 6607   3.144   3.215   5.359
 2203SOL    HW1 6608   3.190   3.289   5.398
 2203SOL    HW2 6609   3.055   3.222   5.393
 2204SOL     OW 6610   3.164   3.314   6.113
 2204SOL    HW1 6611   3.210   3.321   6.197
 2204SOL    HW2 6612   3.104   3.240   6.125
 2205SOL     OW 6613   3.475   2.504   5.443
 2205SOL    HW1 6614   3.446   2.566   5.510
 2205SOL    HW2 6615   3.522   2.558   5.380
 2206SOL     OW 6616   2.246   3.380   6.299
 2206SOL    HW1 6617   2.231   3.336   6.215
 2206SOL    HW2 6618   2.339   3.399   6.299
 2207SOL     OW 6619   2.296   2.617   6.568
 2207SOL    HW1 6620   2.363   2.666   6.522
 2207SOL    HW2 6621   2.338   2.534   6.592
 2208SOL     OW 6622   3.480   2.643   6.641
 2208SOL    HW1 6623   3.394   2.684   6.634
 2208SOL    HW2 6624   3.534   2.691   6.579
 2209SOL     OW 6625   2.901   1.972   6.740
 2209SOL    HW1 6626   2.917   2.052   6.688
 2209SOL    HW2 6627   2.940   1.902   6.687
 2210SOL     OW 6628   2.397   1.919   6.711
 2210SOL    HW1 6629   2.355   1.864   6.645
 2210SOL    HW2 6630   2.330   1.981   6.738
 2211SOL     OW 6631   2.468   2.736   6.000
 2211SOL    HW1 6632   2.506   2.824   5.995
 2211SOL    HW2 6633   2.408   2.741   6.075
 2212SOL     OW 6634   3.254   2.729   6.015
 2212SOL    HW1 6635   3.181   2.725   5.953
 2212SOL    HW2 6636   3.286   2.639   6.021
 2213SOL     OW 6637   3.105   2.393   5.246
 2213SOL    HW1 6638   3.112   2.314   5.299
 2213SOL    HW2 6639   3.072   2.460   5.306
 2214SOL     OW 6640   2.201   2.079   6.205
 2214SOL    HW1 6641   2.174   2.111   6.291
 2214SOL    HW2 6642   2.170   1.988   6.202
 2215SOL     OW 6643   1.933   3.175   6.251
 2215SOL    HW1 6644   1.981   3.132   6.321
 2215SOL    HW2 6645   1.951   3.269   6.263
 2216SOL     OW 6646   2.625   2.501   6.036
 2216SOL    HW1 6647   2.682   2.479   5.962
 2216SOL    HW2 6648   2.599   2.592   6.019
 2217SOL     OW 6649   3.624   2.807   6.825
 2217SOL    HW1 6650   3.574   2.794   6.744
 2217SOL    HW2 6651   3.559   2.842   6.886
 2218SOL     OW 6652   2.198   1.931   5.590
 2218SOL    HW1 6653   2.187   2.020   5.625
 2218SOL    HW2 6654   2.194   1.875   5.667
 2219SOL     OW 6655   3.511   2.234   5.342
 2219SOL    HW1 6656   3.519   2.165   5.409
 2219SOL    HW2 6657   3.470   2.307   5.388
 2220SOL     OW 6658   2.916   2.633   5.937
 2220SOL    HW1 6659   2.929   2.649   6.030
 2220SOL    HW2 6660   2.888   2.541   5.932
 2221SOL     OW 6661   2.874   3.439   6.673
 2221SOL    HW1 6662   2.855   3.478   6.588
 2221SOL    HW2 6663   2.911   3.353   6.652
 2222SOL     OW 6664   3.752   3.384   6.577
 2222SOL    HW1 6665   3.768   3.411   6.486
 2222SOL    HW2 6666   3.832   3.407   6.623
 2223SOL     OW 6667   2.242   2.771   6.775
 2223SOL    HW1 6668   2.320   2.804   6.819
 2223SOL    HW2 6669   2.276   2.721   6.701
 2224SOL     OW 6670   3.432   2.143   5.096
 2224SOL    HW1 6671   3.374   2.071   5.121
 2224SOL    HW2 6672   3.454   2.186   5.178
 2225SOL     OW 6673   3.194   2.703   5.011
 2225SOL    HW1 6674   3.230   2.615   5.022
 2225SOL    HW2 6675   3.217   2.727   4.922
 2226SOL     OW 6676   2.960   3.200   5.820
 2226SOL    HW1 6677   2.969   3.123   5.765
 2226SOL    HW2 6678   3.022   3.263   5.784
 2227SOL     OW 6679   2.211   2.679   5.921
 2227SOL    HW1 6680   2.302   2.707   5.925
 2227SOL    HW2 6681   2.209   2.596   5.968
 2228SOL     OW 6682   2.232   2.378   5.977
 2228SOL    HW1 6683   2.186   2.296   5.959
 2228SOL    HW2 6684   2.305   2.379   5.915
 2229SOL     OW 6685   3.030   2.248   6.648
 2229SOL    HW1 6686   2.991   2.308   6.711
 2229SOL    HW2 6687   3.119   2.280   6.637
 2230SOL     OW 6688   3.052   2.073   6.447
 2230SOL    HW1 6689   3.052   2.136   6.519
 2230SOL    HW2 6690   3.081   2.123   6.370
 2231SOL     OW 6691   1.899   3.194   5.175
 2231SOL    HW1 6692   1.811   3.208   5.139
 2231SOL    HW2 6693   1.907   3.098   5.180
 2232SOL     OW 6694   1.981   3.667   5.900
 2232SOL    HW1 6695   1.945   3.584   5.869
 2232SOL    HW2 6696   2.071   3.668   5.865
 2233SOL     OW 6697   2.396   3.437   5.878
 2233SOL    HW1 6698   2.464   3.503   5.890
 2233SOL    HW2 6699   2.442   3.362   5.840
 2234SOL     OW 6700   2.894   2.664   6.207
 2234SOL    HW1 6701   2.932   2.632   6.290
 2234SOL    HW2 6702   2.803   2.635   6.210
 2235SOL     OW 6703   1.932   2.410   6.085
 2235SOL    HW1 6704   2.016   2.381   6.048
 2235SOL    HW2 6705   1.950   2.424   6.178
 2236SOL     OW 6706   2.083   2.386   6.694
 2236SOL    HW1 6707   2.137   2.351   6.623
 2236SOL    HW2 6708   2.028   2.452   6.652
 2237SOL     OW 6709   3.264   2.814   6.631
 2237SOL    HW1 6710   3.297   2.903   6.645
 2237SOL    HW2 6711   3.272   2.800   6.537
 2238SOL     OW 6712   2.708   2.437   5.302
 2238SOL    HW1 6713   2.711   2.356   5.251
 2238SOL    HW2 6714   2.620   2.472   5.286
 2239SOL     OW 6715   3.545   2.470   6.173
 2239SOL    HW1 6716   3.518   2.404   6.236
 2239SOL    HW2 6717   3.628   2.437   6.137
 2240SOL     OW 6718   2.146   3.429   6.713
 2240SOL    HW1 6719   2.115   3.483   6.787
 2240SOL    HW2 6720   2.137   3.339   6.744
 2241SOL     OW 6721   2.568   2.330   6.240
 2241SOL    HW1 6722   2.532   2.248   6.208
 2241SOL    HW2 6723   2.586   2.381   6.162
 2242SOL     OW 6724   2.824   3.544   6.436
 2242SOL    HW1 6725   2.800   3.530   6.344
 2242SOL    HW2 6726   2.848   3.636   6.441
 2243SOL     OW 6727   2.366   2.366   5.162
 2243SOL    HW1 6728   2.421   2.444   5.168
 2243SOL    HW2 6729   2.277   2.400   5.168
 2244SOL     OW 6730   2.050   3.005   6.437
 2244SOL    HW1 6731   2.071   2.944   6.508
 2244SOL    HW2 6732   2.063   2.953   6.358
 2245SOL     OW 6733   3.239   2.923   6.204
 2245SOL    HW1 6734   3.259   2.865   6.131
 2245SOL    HW2 6735   3.154   2.962   6.182
 2246SOL     OW 6736   3.196   2.720   5.281
 2246SOL    HW1 6737   3.112   2.692   5.317
 2246SOL    HW2 6738   3.186   2.709   5.187
 2247SOL     OW 6739   3.651   3.616   6.123
 2247SOL    HW1 6740   3.711   3.639   6.053
 2247SOL    HW2 6741   3.621   3.528   6.101
 2248SOL     OW 6742   3.143   3.598   6.098
 2248SOL    HW1 6743   3.224   3.601   6.047
 2248SOL    HW2 6744   3.128   3.505   6.114
 2249SOL     OW 6745   1.977   3.126   5.992
 2249SOL    HW1 6746   1.967   3.125   6.088
 2249SOL    HW2 6747   1.897   3.085   5.960
 2250SOL     OW 6748   2.579   3.527   6.687
 2250SOL    HW1 6749   2.528   3.609   6.692
 2250SOL    HW2 6750   2.630   3.536   6.606
 2251SOL     OW 6751   2.796   1.953   5.103
 2251SOL    HW1 6752   2.848   1.952   5.023
 2251SOL    HW2 6753   2.852   1.911   5.169
 2252SOL     OW 6754   3.617   2.002   5.492
 2252SOL    HW1 6755   3.688   1.984   5.431
 2252SOL    HW2 6756   3.593   1.917   5.529
 2253SOL     OW 6757   3.281   3.439   5.448
 2253SOL    HW1 6758   3.344   3.456   5.378
 2253SOL    HW2 6759   3.244   3.524   5.469
 2254SOL     OW 6760   2.024   3.663   6.820
 2254SOL    HW1 6761   1.984   3.593   6.872
 2254SOL    HW2 6762   2.083   3.708   6.880
 2255SOL     OW 6763   3.171   2.791   5.642
 2255SOL    HW1 6764   3.235   2.720   5.643
 2255SOL    HW2 6765   3.211   2.859   5.587
 2256SOL     OW 6766   2.721   3.137   6.396
 2256SOL    HW1 6767   2.712   3.174   6.484
 2256SOL    HW2 6768   2.639   3.160   6.352
 2257SOL     OW 6769   2.566   3.482   5.126
 2257SOL    HW1 6770   2.571   3.489   5.031
 2257SOL    HW2 6771   2.524   3.397   5.142
 2258SOL     OW 6772   3.543   3.588   6.365
 2258SOL    HW1 6773   3.591   3.601   6.283
 2258SOL    HW2 6774   3.519   3.676   6.394
 2259SOL     OW 6775   3.734   2.041   5.937
 2259SOL    HW1 6776   3.767   1.959   5.899
 2259SOL    HW2 6777   3.642   2.044   5.910
 2260SOL     OW 6778   2.160   2.194   5.692
 2260SOL    HW1 6779   2.080   2.236   5.661
 2260SOL    HW2 6780   2.145   2.179   5.786
 2261SOL     OW 6781   3.086   3.480   5.004
 2261SOL    HW1 6782   3.093   3.389   5.034
 2261SOL    HW2 6783   3.032   3.475   4.925
 2262SOL     OW 6784   2.716   2.869   6.343
 2262SOL    HW1 6785   2.755   2.872   6.256
 2262SOL    HW2 6786   2.725   2.959   6.376
 2263SOL     OW 6787   2.809   2.778   5.263
 2263SOL    HW1 6788   2.871   2.810   5.197
 2263SOL    HW2 6789   2.850   2.699   5.298
 2264SOL     OW 6790   3.398   3.478   5.017
 2264SOL    HW1 6791   3.307   3.508   5.016
 2264SOL    HW2 6792   3.430   3.495   4.928
 2265SOL     OW 6793   2.265   3.156   6.461
 2265SOL    HW1 6794   2.249   3.243   6.425
 2265SOL    HW2 6795   2.183   3.109   6.446
 2266SOL     OW 6796   3.506   3.157   6.259
 2266SOL    HW1 6797   3.563   3.163   6.336
 2266SOL    HW2 6798   3.438   3.222   6.275
 2267SOL     OW 6799   2.932   2.966   5.668
 2267SOL    HW1 6800   2.866   2.917   5.717
 2267SOL    HW2 6801   2.988   2.899   5.629
 2268SOL     OW 6802   2.908   2.104   5.941
 2268SOL    HW1 6803   2.899   2.064   5.854
 2268SOL    HW2 6804   2.904   2.030   6.002
 2269SOL     OW 6805   2.487   3.356   5.461
 2269SOL    HW1 6806   2.521   3.301   5.391
 2269SOL    HW2 6807   2.440   3.426   5.416
 2270SOL     OW 6808   3.603   2.252   6.353
 2270SOL    HW1 6809   3.674   2.317   6.352
 2270SOL    HW2 6810   3.633   2.183   6.294
 2271SOL     OW 6811   2.150   3.216   5.260
 2271SOL    HW1 6812   2.058   3.218   5.236
 2271SOL    HW2 6813   2.154   3.264   5.343
 2272SOL     OW 6814   1.999   2.881   6.697
 2272SOL    HW1 6815   1.927   2.848   6.750
 2272SOL    HW2 6816   2.078   2.848   6.740
 2273SOL     OW 6817   2.564   2.069   6.461
 2273SOL    HW1 6818   2.651   2.054   6.424
 2273SOL    HW2 6819   2.578   2.076   6.555
 2274SOL     OW 6820   3.332   2.724   6.371
 2274SOL    HW1 6821   3.281   2.775   6.308
 2274SOL    HW2 6822   3.423   2.735   6.343
 2275SOL     OW 6823   1.965   2.032   5.290
 2275SOL    HW1 6824   1.952   2.111   5.237
 2275SOL    HW2 6825   2.051   2.000   5.264
 2276SOL     OW 6826   3.076   3.208   5.089
 2276SOL    HW1 6827   2.982   3.189   5.096
 2276SOL    HW2 6828   3.106   3.213   5.180
 2277SOL     OW 6829   2.506   2.708   6.402
 2277SOL    HW1 6830   2.562   2.784   6.386
 2277SOL    HW2 6831   2.566   2.634   6.405
 2278SOL     OW 6832   3.384   3.635   5.931
 2278SOL    HW1 6833   3.420   3.695   5.866
 2278SOL    HW2 6834   3.452   3.630   5.999
 2279SOL     OW 6835   2.607   2.431   6.680
 2279SOL    HW1 6836   2.631   2.492   6.750
 2279SOL    HW2 6837   2.667   2.357   6.692
 2280SOL     OW 6838   3.344   3.084   6.604
 2280SOL    HW1 6839   3.339   3.080   6.699
 2280SOL    HW2 6840   3.438   3.081   6.585
 2281SOL     OW 6841   2.282   3.608   6.531
 2281SOL    HW1 6842   2.193   3.644   6.529
 2281SOL    HW2 6843   2.272   3.519   6.563
 2282SOL     OW 6844   3.567   2.750   6.226
 2282SOL    HW1 6845   3.544   2.666   6.187
 2282SOL    HW2 6846   3.566   2.812   6.153
 2283SOL     OW 6847   3.117   2.191   5.421
 2283SOL    HW1 6848   3.182   2.121   5.414
 2283SOL    HW2 6849   3.140   2.237   5.502
 2284SOL     OW 6850   2.487   2.612   5.625
 2284SOL    HW1 6851   2.531   2.694   5.605
 2284SOL    HW2 6852   2.405   2.615   5.575
 2285SOL     OW 6853   3.669   2.213   6.614
 2285SOL    HW1 6854   3.649   2.236   6.523
 2285SOL    HW2 6855   3.589   2.172   6.647
 2286SOL     OW 6856   3.624   2.801   6.487
 2286SOL    HW1 6857   3.658   2.890   6.498
 2286SOL    HW2 6858   3.617   2.789   6.393
 2287SOL     OW 6859   2.753   3.240   4.987
 2287SOL    HW1 6860   2.710   3.257   5.071
 2287SOL    HW2 6861   2.792   3.325   4.963
 2288SOL     OW 6862   2.553   3.657   5.924
 2288SOL    HW1 6863   2.515   3.744   5.909
 2288SOL    HW2 6864   2.647   3.670   5.916
 2289SOL     OW 6865   2.753   2.824   5.831
 2289SOL    HW1 6866   2.804   2.759   5.879
 2289SOL    HW2 6867   2.724   2.887   5.898
 2290SOL     OW 6868   2.974   2.850   5.058
 2290SOL    HW1 6869   2.957   2.901   4.978
 2290SOL    HW2 6870   3.053   2.800   5.038
 2291SOL     OW 6871   3.754   3.435   5.821
 2291SOL    HW1 6872   3.684   3.421   5.757
 2291SOL    HW2 6873   3.751   3.359   5.878
 2292SOL     OW 6874   2.115   3.180   6.816
 2292SOL    HW1 6875   2.050   3.111   6.798
 2292SOL    HW2 6876   2.113   3.191   6.911
 2293SOL     OW 6877   1.973   3.107   5.625
 2293SOL    HW1 6878   1.974   3.060   5.708
 2293SOL    HW2 6879   2.051   3.077   5.578
 2294SOL     OW 6880   2.566   3.259   6.594
 2294SOL    HW1 6881   2.490   3.215   6.631
 2294SOL    HW2 6882   2.561   3.348   6.627
 2295SOL     OW 6883   3.714   2.059   6.201
 2295SOL    HW1 6884   3.715   1.970   6.235
 2295SOL    HW2 6885   3.721   2.048   6.106
 2296SOL     OW 6886   2.321   2.293   5.491
 2296SOL    HW1 6887   2.348   2.220   5.435
 2296SOL    HW2 6888   2.283   2.251   5.568
 2297SOL     OW 6889   3.597   3.357   6.076
 2297SOL    HW1 6890   3.510   3.327   6.050
 2297SOL    HW2 6891   3.619   3.303   6.152
 2298SOL     OW 6892   2.212   2.415   6.253
 2298SOL    HW1 6893   2.252   2.356   6.317
 2298SOL    HW2 6894   2.248   2.387   6.169
 2299SOL     OW 6895   2.707   3.451   5.659
 2299SOL    HW1 6896   2.731   3.463   5.567
 2299SOL    HW2 6897   2.630   3.394   5.656
 2300SOL     OW 6898   3.319   2.082   6.084
 2300SOL    HW1 6899   3.365   2.019   6.140
 2300SOL    HW2 6900   3.271   2.138   6.145
 2301SOL     OW 6901   2.894   1.900   6.124
 2301SOL    HW1 6902   2.838   1.829   6.094
 2301SOL    HW2 6903   2.982   1.862   6.123
 2302SOL     OW 6904   2.663   3.198   5.273
 2302SOL    HW1 6905   2.622   3.113   5.288
 2302SOL    HW2 6906   2.749   3.191   5.314
 2303SOL     OW 6907   2.510   3.434   6.254
 2303SOL    HW1 6908   2.511   3.513   6.309
 2303SOL    HW2 6909   2.597   3.432   6.214
 2304SOL     OW 6910   3.246   1.919   5.139
 2304SOL    HW1 6911   3.275   1.878   5.058
 2304SOL    HW2 6912   3.159   1.881   5.156
 2305SOL     OW 6913   3.193   2.321   5.661
 2305SOL    HW1 6914   3.136   2.397   5.669
 2305SOL    HW2 6915   3.203   2.288   5.751
 2306SOL     OW 6916   3.485   2.086   5.853
 2306SOL    HW1 6917   3.405   2.091   5.904
 2306SOL    HW2 6918   3.485   2.166   5.800
 2307SOL     OW 6919   2.768   3.511   5.311
 2307SOL    HW1 6920   2.694   3.485   5.257
 2307SOL    HW2 6921   2.735   3.583   5.365
 2308SOL     OW 6922   2.124   2.495   6.947
 2308SOL    HW1 6923   2.033   2.492   6.979
 2308SOL    HW2 6924   2.120   2.458   6.859
 2309SOL     OW 6925   2.118   2.142   7.826
 2309SOL    HW1 6926   2.148   2.123   7.915
 2309SOL    HW2 6927   2.032   2.100   7.820
 2310SOL     OW 6928   1.909   2.240   7.476
 2310SOL    HW1 6929   1.828   2.272   7.516
 2310SOL    HW2 6930   1.882   2.166   7.422
 2311SOL     OW 6931   2.462   3.141   7.999
 2311SOL    HW1 6932   2.373   3.140   7.964
 2311SOL    HW2 6933   2.470   3.228   8.039
 2312SOL     OW 6934   3.448   3.379   7.536
 2312SOL    HW1 6935   3.392   3.364   7.612
 2312SOL    HW2 6936   3.386   3.387   7.463
 2313SOL     OW 6937   3.026   2.570   7.548
 2313SOL    HW1 6938   3.080   2.647   7.529
 2313SOL    HW2 6939   2.973   2.596   7.623
 2314SOL     OW 6940   3.649   2.475   7.065
 2314SOL    HW1 6941   3.636   2.460   6.972
 2314SOL    HW2 6942   3.619   2.395   7.107
 2315SOL     OW 6943   2.661   3.011   7.858
 2315SOL    HW1 6944   2.586   3.033   7.914
 2315SOL    HW2 6945   2.690   3.095   7.823
 2316SOL     OW 6946   2.744   2.664   8.655
 2316SOL    HW1 6947   2.740   2.738   8.715
 2316SOL    HW2 6948   2.765   2.703   8.571
 2317SOL     OW 6949   2.579   2.881   7.495
 2317SOL    HW1 6950   2.641   2.864   7.565
 2317SOL    HW2 6951   2.510   2.932   7.537
 2318SOL     OW 6952   2.582   3.027   8.636
 2318SOL    HW1 6953   2.635   3.105   8.649
 2318SOL    HW2 6954   2.500   3.059   8.598
 2319SOL     OW 6955   2.226   3.302   7.897
 2319SOL    HW1 6956   2.154   3.273   7.841
 2319SOL    HW2 6957   2.281   3.355   7.838
 2320SOL     OW 6958   3.353   3.371   8.172
 2320SOL    HW1 6959   3.377   3.460   8.199
 2320SOL    HW2 6960   3.336   3.325   8.255
 2321SOL     OW 6961   2.332   2.261   8.332
 2321SOL    HW1 6962   2.408   2.203   8.339
 2321SOL    HW2 6963   2.257   2.202   8.336
 2322SOL     OW 6964   3.498   2.315   7.569
 2322SOL    HW1 6965   3.427   2.360   7.524
 2322SOL    HW2 6966   3.541   2.383   7.620
 2323SOL     OW 6967   2.122   3.579   7.315
 2323SOL    HW1 6968   2.156   3.654   7.364
 2323SOL    HW2 6969   2.169   3.581   7.232
 2324SOL     OW 6970   3.022   3.208   8.522
 2324SOL    HW1 6971   3.064   3.205   8.608
 2324SOL    HW2 6972   2.974   3.125   8.516
 2325SOL     OW 6973   2.123   3.301   7.370
 2325SOL    HW1 6974   2.097   3.393   7.374
 2325SOL    HW2 6975   2.054   3.254   7.416
 2326SOL     OW 6976   2.135   2.958   7.719
 2326SOL    HW1 6977   2.144   2.878   7.771
 2326SOL    HW2 6978   2.081   3.016   7.773
 2327SOL     OW 6979   2.513   3.654   8.271
 2327SOL    HW1 6980   2.426   3.640   8.308
 2327SOL    HW2 6981   2.537   3.742   8.297
 2328SOL     OW 6982   2.495   2.833   6.958
 2328SOL    HW1 6983   2.511   2.911   6.905
 2328SOL    HW2 6984   2.543   2.849   7.039
 2329SOL     OW 6985   3.488   1.981   8.311
 2329SOL    HW1 6986   3.470   2.049   8.247
 2329SOL    HW2 6987   3.484   2.025   8.396
 2330SOL     OW 6988   2.014   2.511   7.396
 2330SOL    HW1 6989   1.973   2.427   7.415
 2330SOL    HW2 6990   2.010   2.559   7.479
 2331SOL     OW 6991   3.736   3.633   7.188
 2331SOL    HW1 6992   3.787   3.609   7.265
 2331SOL    HW2 6993   3.766   3.721   7.166
 2332SOL     OW 6994   1.920   3.463   6.951
 2332SOL    HW1 6995   1.901   3.372   6.974
 2332SOL    HW2 6996   1.888   3.514   7.026
 2333SOL     OW 6997   3.582   2.789   7.449
 2333SOL    HW1 6998   3.674   2.761   7.450
 2333SOL    HW2 6999   3.575   2.847   7.374
 2334SOL     OW 7000   3.535   2.974   7.265
 2334SOL    HW1 7001   3.618   2.982   7.218
 2334SOL    HW2 7002   3.549   3.024   7.345
 2335SOL     OW 7003   2.007   2.604   8.427
 2335SOL    HW1 7004   2.092   2.599   8.471
 2335SOL    HW2 7005   1.993   2.697   8.412
 2336SOL     OW 7006   2.507   3.234   7.560
 2336SOL    HW1 7007   2.458   3.152   7.566
 2336SOL    HW2 7008   2.482   3.270   7.475
 2337SOL     OW 7009   3.186   3.098   8.257
 2337SOL    HW1 7010   3.222   3.028   8.203
 2337SOL    HW2 7011   3.237   3.096   8.337
 2338SOL     OW 7012   2.701   1.869   7.334
 2338SOL    HW1 7013   2.738   1.956   7.328
 2338SOL    HW2 7014   2.606   1.883   7.342
 2339SOL     OW 7015   2.090   2.843   8.097
 2339SOL    HW1 7016   2.172   2.797   8.083
 2339SOL    HW2 7017   2.022   2.778   8.076
 2340SOL     OW 7018   3.422   2.863   7.023
 2340SOL    HW1 7019   3.358   2.794   7.041
 2340SOL    HW2 7020   3.461   2.882   7.108
 2341SOL     OW 7021   3.078   3.661   8.449
 2341SOL    HW1 7022   3.104   3.715   8.374
 2341SOL    HW2 7023   3.089   3.571   8.418
 2342SOL     OW 7024   2.212   2.118   8.632
 2342SOL    HW1 7025   2.275   2.190   8.642
 2342SOL    HW2 7026   2.129   2.155   8.663
 2343SOL     OW 7027   3.358   3.285   7.786
 2343SOL    HW1 7028   3.299   3.289   7.861
 2343SOL    HW2 7029   3.343   3.199   7.748
 2344SOL     OW 7030   3.559   3.583   7.406
 2344SOL    HW1 7031   3.521   3.557   7.322
 2344SOL    HW2 7032   3.540   3.510   7.465
 2345SOL     OW 7033   2.489   2.594   7.101
 2345SOL    HW1 7034   2.510   2.665   7.040
 2345SOL    HW2 7035   2.417   2.630   7.154
 2346SOL     OW 7036   3.175   2.212   7.772
 2346SOL    HW1 7037   3.092   2.164   7.768
 2346SOL    HW2 7038   3.229   2.159   7.832
 2347SOL     OW 7039   3.470   3.530   7.140
 2347SOL    HW1 7040   3.555   3.572   7.139
 2347SOL    HW2 7041   3.452   3.508   7.049
 2348SOL     OW 7042   2.698   2.474   8.295
 2348SOL    HW1 7043   2.655   2.466   8.380
 2348SOL    HW2 7044   2.647   2.418   8.237
 2349SOL     OW 7045   3.286   2.336   8.507
 2349SOL    HW1 7046   3.273   2.376   8.593
 2349SOL    HW2 7047   3.361   2.277   8.519
 2350SOL     OW 7048   2.863   2.758   8.407
 2350SOL    HW1 7049   2.909   2.680   8.376
 2350SOL    HW2 7050   2.813   2.788   8.331
 2351SOL     OW 7051   2.885   2.277   8.075
 2351SOL    HW1 7052   2.808   2.307   8.123
 2351SOL    HW2 7053   2.849   2.229   8.001
 2352SOL     OW 7054   2.936   2.568   7.262
 2352SOL    HW1 7055   2.955   2.562   7.355
 2352SOL    HW2 7056   2.854   2.520   7.250
 2353SOL     OW 7057   1.971   2.680   7.616
 2353SOL    HW1 7058   2.064   2.670   7.636
 2353SOL    HW2 7059   1.948   2.768   7.645
 2354SOL     OW 7060   2.023   3.688   8.405
 2354SOL    HW1 7061   2.011   3.675   8.499
 2354SOL    HW2 7062   1.939   3.722   8.374
 2355SOL     OW 7063   2.758   2.214   7.028
 2355SOL    HW1 7064   2.816   2.272   6.979
 2355SOL    HW2 7065   2.781   2.126   6.997
 2356SOL     OW 7066   3.611   2.451   8.664
 2356SOL    HW1 7067   3.586   2.535   8.626
 2356SOL    HW2 7068   3.611   2.390   8.590
 2357SOL     OW 7069   3.257   3.012   7.378
 2357SOL    HW1 7070   3.335   2.987   7.328
 2357SOL    HW2 7071   3.211   3.074   7.322
 2358SOL     OW 7072   2.442   2.062   7.718
 2358SOL    HW1 7073   2.439   2.064   7.814
 2358SOL    HW2 7074   2.445   2.153   7.691
 2359SOL     OW 7075   2.901   3.321   7.309
 2359SOL    HW1 7076   2.858   3.393   7.263
 2359SOL    HW2 7077   2.896   3.345   7.402
 2360SOL     OW 7078   2.244   3.669   7.685
 2360SOL    HW1 7079   2.295   3.588   7.693
 2360SOL    HW2 7080   2.309   3.738   7.685
 2361SOL     OW 7081   3.689   2.934   7.704
 2361SOL    HW1 7082   3.626   2.918   7.634
 2361SOL    HW2 7083   3.636   2.941   7.784
 2362SOL     OW 7084   3.121   3.417   8.339
 2362SOL    HW1 7085   3.122   3.341   8.398
 2362SOL    HW2 7086   3.069   3.388   8.265
 2363SOL     OW 7087   2.213   2.812   7.075
 2363SOL    HW1 7088   2.293   2.843   7.033
 2363SOL    HW2 7089   2.190   2.732   7.027
 2364SOL     OW 7090   3.353   2.601   7.560
 2364SOL    HW1 7091   3.349   2.543   7.636
 2364SOL    HW2 7092   3.429   2.657   7.577
 2365SOL     OW 7093   2.355   3.131   8.564
 2365SOL    HW1 7094   2.308   3.134   8.480
 2365SOL    HW2 7095   2.287   3.117   8.629
 2366SOL     OW 7096   3.007   3.643   7.070
 2366SOL    HW1 7097   2.946   3.585   7.114
 2366SOL    HW2 7098   3.030   3.597   6.989
 2367SOL     OW 7099   2.094   2.151   8.331
 2367SOL    HW1 7100   2.017   2.207   8.322
 2367SOL    HW2 7101   2.081   2.105   8.414
 2368SOL     OW 7102   3.526   3.244   6.916
 2368SOL    HW1 7103   3.490   3.332   6.904
 2368SOL    HW2 7104   3.452   3.185   6.902
 2369SOL     OW 7105   2.357   3.608   7.156
 2369SOL    HW1 7106   2.392   3.650   7.235
 2369SOL    HW2 7107   2.433   3.603   7.097
 2370SOL     OW 7108   3.293   1.975   7.259
 2370SOL    HW1 7109   3.274   1.941   7.172
 2370SOL    HW2 7110   3.388   1.987   7.260
 2371SOL     OW 7111   2.142   3.653   8.074
 2371SOL    HW1 7112   2.197   3.589   8.118
 2371SOL    HW2 7113   2.129   3.618   7.986
 2372SOL     OW 7114   2.833   3.565   7.738
 2372SOL    HW1 7115   2.909   3.508   7.754
 2372SOL    HW2 7116   2.787   3.524   7.664
 2373SOL     OW 7117   2.276   2.567   7.314
 2373SOL    HW1 7118   2.314   2.479   7.312
 2373SOL    HW2 7119   2.186   2.553   7.342
 2374SOL     OW 7120   3.437   2.093   8.560
 2374SOL    HW1 7121   3.435   2.120   8.652
 2374SOL    HW2 7122   3.371   2.024   8.554
 2375SOL     OW 7123   2.508   1.991   6.949
 2375SOL    HW1 7124   2.600   1.964   6.953
 2375SOL    HW2 7125   2.480   1.968   6.861
 2376SOL     OW 7126   2.673   2.131   8.581
 2376SOL    HW1 7127   2.736   2.073   8.623
 2376SOL    HW2 7128   2.606   2.147   8.649
 2377SOL     OW 7129   2.780   3.383   8.027
 2377SOL    HW1 7130   2.760   3.353   7.939
 2377SOL    HW2 7131   2.838   3.315   8.063
 2378SOL     OW 7132   3.241   2.457   8.266
 2378SOL    HW1 7133   3.272   2.419   8.348
 2378SOL    HW2 7134   3.270   2.548   8.268
 2379SOL     OW 7135   2.697   3.271   7.759
 2379SOL    HW1 7136   2.781   3.279   7.714
 2379SOL    HW2 7137   2.632   3.269   7.688
 2380SOL     OW 7138   2.816   2.372   7.733
 2380SOL    HW1 7139   2.792   2.359   7.641
 2380SOL    HW2 7140   2.859   2.290   7.759
 2381SOL     OW 7141   2.436   1.931   7.346
 2381SOL    HW1 7142   2.355   1.933   7.397
 2381SOL    HW2 7143   2.433   2.010   7.292
 2382SOL     OW 7144   3.325   3.056   6.872
 2382SOL    HW1 7145   3.355   2.985   6.928
 2382SOL    HW2 7146   3.238   3.079   6.906
 2383SOL     OW 7147   2.189   1.903   7.006
 2383SOL    HW1 7148   2.241   1.981   6.985
 2383SOL    HW2 7149   2.251   1.843   7.047
 2384SOL     OW 7150   2.828   2.105   7.312
 2384SOL    HW1 7151   2.787   2.144   7.235
 2384SOL    HW2 7152   2.921   2.104   7.292
 2385SOL     OW 7153   2.970   2.548   8.297
 2385SOL    HW1 7154   2.896   2.488   8.299
 2385SOL    HW2 7155   3.045   2.494   8.275
 2386SOL     OW 7156   3.119   3.437   7.626
 2386SOL    HW1 7157   3.142   3.507   7.566
 2386SOL    HW2 7158   3.187   3.440   7.694
 2387SOL     OW 7159   2.354   3.016   7.575
 2387SOL    HW1 7160   2.281   2.993   7.633
 2387SOL    HW2 7161   2.323   2.992   7.487
 2388SOL     OW 7162   3.165   3.664   7.426
 2388SOL    HW1 7163   3.204   3.728   7.366
 2388SOL    HW2 7164   3.115   3.717   7.488
 2389SOL     OW 7165   2.926   2.416   6.848
 2389SOL    HW1 7166   2.887   2.497   6.816
 2389SOL    HW2 7167   2.984   2.443   6.918
 2390SOL     OW 7168   1.970   2.422   8.220
 2390SOL    HW1 7169   2.058   2.424   8.183
 2390SOL    HW2 7170   1.968   2.494   8.283
 2391SOL     OW 7171   2.456   2.091   7.983
 2391SOL    HW1 7172   2.488   2.008   8.019
 2391SOL    HW2 7173   2.370   2.102   8.022
 2392SOL     OW 7174   2.761   2.322   7.475
 2392SOL    HW1 7175   2.727   2.386   7.413
 2392SOL    HW2 7176   2.781   2.245   7.422
 2393SOL     OW 7177   2.909   1.909   7.587
 2393SOL    HW1 7178   2.841   1.908   7.521
 2393SOL    HW2 7179   2.885   1.839   7.648
 2394SOL     OW 7180   3.324   3.038   7.699
 2394SOL    HW1 7181   3.268   2.960   7.690
 2394SOL    HW2 7182   3.345   3.063   7.609
 2395SOL     OW 7183   3.361   2.458   7.824
 2395SOL    HW1 7184   3.330   2.368   7.834
 2395SOL    HW2 7185   3.428   2.468   7.890
 2396SOL     OW 7186   3.746   2.698   7.211
 2396SOL    HW1 7187   3.791   2.635   7.268
 2396SOL    HW2 7188   3.716   2.646   7.137
 2397SOL     OW 7189   2.383   3.255   7.006
 2397SOL    HW1 7190   2.299   3.238   7.049
 2397SOL    HW2 7191   2.360   3.276   6.916
 2398SOL     OW 7192   3.557   3.143   7.492
 2398SOL    HW1 7193   3.652   3.156   7.503
 2398SOL    HW2 7194   3.519   3.227   7.517
 2399SOL     OW 7195   3.283   2.442   6.909
 2399SOL    HW1 7196   3.233   2.420   6.988
 2399SOL    HW2 7197   3.369   2.402   6.924
 2400SOL     OW 7198   2.420   2.124   7.161
 2400SOL    HW1 7199   2.447   2.070   7.087
 2400SOL    HW2 7200   2.419   2.214   7.127
 2401SOL     OW 7201   3.647   3.091   8.419
 2401SOL    HW1 7202   3.735   3.057   8.410
 2401SOL    HW2 7203   3.658   3.182   8.444
 2402SOL     OW 7204   2.959   3.218   8.172
 2402SOL    HW1 7205   2.883   3.190   8.224
 2402SOL    HW2 7206   3.035   3.184   8.221
 2403SOL     OW 7207   3.485   3.496   8.463
 2403SOL    HW1 7208   3.510   3.526   8.376
 2403SOL    HW2 7209   3.566   3.458   8.499
 2404SOL     OW 7210   3.005   3.062   7.935
 2404SOL    HW1 7211   2.962   3.106   8.008
 2404SOL    HW2 7212   2.965   3.099   7.857
 2405SOL     OW 7213   3.531   2.967   7.911
 2405SOL    HW1 7214   3.531   3.042   7.970
 2405SOL    HW2 7215   3.447   2.972   7.866
 2406SOL     OW 7216   2.808   1.959   8.236
 2406SOL    HW1 7217   2.834   1.940   8.146
 2406SOL    HW2 7218   2.881   2.009   8.272
 2407SOL     OW 7219   2.874   2.982   8.552
 2407SOL    HW1 7220   2.779   2.987   8.561
 2407SOL    HW2 7221   2.890   2.905   8.497
 2408SOL     OW 7222   2.598   2.920   7.202
 2408SOL    HW1 7223   2.587   2.920   7.297
 2408SOL    HW2 7224   2.677   2.868   7.187
 2409SOL     OW 7225   2.304   2.680   8.083
 2409SOL    HW1 7226   2.383   2.689   8.136
 2409SOL    HW2 7227   2.266   2.596   8.110
 2410SOL     OW 7228   3.167   2.251   8.096
 2410SOL    HW1 7229   3.186   2.326   8.154
 2410SOL    HW2 7230   3.082   2.272   8.058
 2411SOL     OW 7231   1.957   3.433   8.167
 2411SOL    HW1 7232   1.917   3.511   8.130
 2411SOL    HW2 7233   2.051   3.453   8.171
 2412SOL     OW 7234   2.259   2.967   7.333
 2412SOL    HW1 7235   2.253   3.044   7.276
 2412SOL    HW2 7236   2.262   2.893   7.273
 2413SOL     OW 7237   2.458   2.404   7.698
 2413SOL    HW1 7238   2.473   2.468   7.629
 2413SOL    HW2 7239   2.504   2.439   7.774
 2414SOL     OW 7240   3.144   3.215   7.221
 2414SOL    HW1 7241   3.190   3.289   7.260
 2414SOL    HW2 7242   3.055   3.222   7.254
 2415SOL     OW 7243   3.164   3.314   7.975
 2415SOL    HW1 7244   3.210   3.321   8.059
 2415SOL    HW2 7245   3.104   3.240   7.987
 2416SOL     OW 7246   3.475   2.504   7.306
 2416SOL    HW1 7247   3.446   2.567   7.372
 2416SOL    HW2 7248   3.522   2.558   7.242
 2417SOL     OW 7249   2.246   3.379   8.161
 2417SOL    HW1 7250   2.231   3.336   8.077
 2417SOL    HW2 7251   2.339   3.399   8.161
 2418SOL     OW 7252   2.296   2.617   8.430
 2418SOL    HW1 7253   2.363   2.666   8.384
 2418SOL    HW2 7254   2.338   2.534   8.454
 2419SOL     OW 7255   3.480   2.643   8.503
 2419SOL    HW1 7256   3.394   2.684   8.496
 2419SOL    HW2 7257   3.534   2.691   8.441
 2420SOL     OW 7258   2.901   1.972   8.602
 2420SOL    HW1 7259   2.917   2.052   8.550
 2420SOL    HW2 7260   2.940   1.902   8.549
 2421SOL     OW 7261   2.397   1.919   8.573
 2421SOL    HW1 7262   2.355   1.864   8.507
 2421SOL    HW2 7263   2.330   1.981   8.600
 2422SOL     OW 7264   2.468   2.736   7.862
 2422SOL    HW1 7265   2.506   2.824   7.857
 2422SOL    HW2 7266   2.408   2.741   7.937
 2423SOL     OW 7267   3.254   2.729   7.877
 2423SOL    HW1 7268   3.181   2.725   7.815
 2423SOL    HW2 7269   3.286   2.639   7.883
 2424SOL     OW 7270   3.105   2.393   7.107
 2424SOL    HW1 7271   3.111   2.314   7.161
 2424SOL    HW2 7272   3.072   2.460   7.167
 2425SOL     OW 7273   2.201   2.079   8.067
 2425SOL    HW1 7274   2.174   2.111   8.153
 2425SOL    HW2 7275   2.170   1.988   8.064
 2426SOL     OW 7276   1.933   3.175   8.113
 2426SOL    HW1 7277   1.981   3.132   8.183
 2426SOL    HW2 7278   1.951   3.269   8.125
 2427SOL     OW 7279   2.625   2.501   7.898
 2427SOL    HW1 7280   2.682   2.479   7.824
 2427SOL    HW2 7281   2.599   2.592   7.881
 2428SOL     OW 7282   3.624   2.807   8.687
 2428SOL    HW1 7283   3.574   2.794   8.606
 2428SOL    HW2 7284   3.559   2.842   8.748
 2429SOL     OW 7285   2.198   1.931   7.452
 2429SOL    HW1 7286   2.187   2.020   7.487
 2429SOL    HW2 7287   2.194   1.875   7.529
 2430SOL     OW 7288   3.511   2.233   7.204
 2430SOL    HW1 7289   3.519   2.165   7.271
 2430SOL    HW2 7290   3.471   2.307   7.250
 2431SOL     OW 7291   2.916   2.633   7.799
 2431SOL    HW1 7292   2.929   2.649   7.892
 2431SOL    HW2 7293   2.888   2.541   7.794
 2432SOL     OW 7294   2.874   3.439   8.535
 2432SOL    HW1 7295   2.855   3.478   8.450
 2432SOL    HW2 7296   2.911   3.353   8.514
 2433SOL     OW 7297   3.752   3.384   8.439
 2433SOL    HW1 7298   3.768   3.411   8.348
 2433SOL    HW2 7299   3.832   3.407   8.485
 2434SOL     OW 7300   2.242   2.771   8.637
 2434SOL    HW1 7301   2.320   2.804   8.681
 2434SOL    HW2 7302   2.276   2.721   8.563
 2435SOL     OW 7303   3.430   2.143   6.958
 2435SOL    HW1 7304   3.374   2.070   6.985
 2435SOL    HW2 7305   3.455   2.186   7.040
 2436SOL     OW 7306   3.195   2.703   6.874
 2436SOL    HW1 7307   3.231   2.615   6.883
 2436SOL    HW2 7308   3.216   2.729   6.785
 2437SOL     OW 7309   2.960   3.200   7.682
 2437SOL    HW1 7310   2.969   3.123   7.627
 2437SOL    HW2 7311   3.022   3.263   7.646
 2438SOL     OW 7312   2.211   2.679   7.783
 2438SOL    HW1 7313   2.302   2.707   7.787
 2438SOL    HW2 7314   2.209   2.596   7.830
 2439SOL     OW 7315   2.232   2.378   7.839
 2439SOL    HW1 7316   2.186   2.296   7.821
 2439SOL    HW2 7317   2.305   2.379   7.777
 2440SOL     OW 7318   3.030   2.248   8.510
 2440SOL    HW1 7319   2.991   2.308   8.573
 2440SOL    HW2 7320   3.119   2.280   8.499
 2441SOL     OW 7321   3.052   2.073   8.309
 2441SOL    HW1 7322   3.052   2.136   8.380
 2441SOL    HW2 7323   3.081   2.123   8.232
 2442SOL     OW 7324   1.900   3.194   7.031
 2442SOL    HW1 7325   1.810   3.208   7.002
 2442SOL    HW2 7326   1.906   3.100   7.047
 2443SOL     OW 7327   1.981   3.667   7.762
 2443SOL    HW1 7328   1.945   3.584   7.731
 2443SOL    HW2 7329   2.071   3.668   7.727
 2444SOL     OW 7330   2.396   3.437   7.740
 2444SOL    HW1 7331   2.464   3.503   7.752
 2444SOL    HW2 7332   2.442   3.362   7.702
 2445SOL     OW 7333   2.894   2.664   8.069
 2445SOL    HW1 7334   2.932   2.632   8.152
 2445SOL    HW2 7335   2.803   2.635   8.072
 2446SOL     OW 7336   1.932   2.410   7.947
 2446SOL    HW1 7337   2.016   2.381   7.910
 2446SOL    HW2 7338   1.950   2.424   8.040
 2447SOL     OW 7339   2.083   2.386   8.556
 2447SOL    HW1 7340   2.137   2.351   8.485
 2447SOL    HW2 7341   2.028   2.452   8.514
 2448SOL     OW 7342   3.264   2.814   8.493
 2448SOL    HW1 7343   3.297   2.903   8.507
 2448SOL    HW2 7344   3.272   2.800   8.399
 2449SOL     OW 7345   2.708   2.437   7.164
 2449SOL    HW1 7346   2.711   2.356   7.114
 2449SOL    HW2 7347   2.620   2.472   7.148
 2450SOL     OW 7348   3.545   2.470   8.035
 2450SOL    HW1 7349   3.518   2.404   8.098
 2450SOL    HW2 7350   3.628   2.437   7.999
 2451SOL     OW 7351   2.146   3.429   8.575
 2451SOL    HW1 7352   2.116   3.483   8.649
 2451SOL    HW2 7353   2.137   3.339   8.606
 2452SOL     OW 7354   2.568   2.330   8.102
 2452SOL    HW1 7355   2.532   2.248   8.070
 2452SOL    HW2 7356   2.586   2.381   8.024
 2453SOL     OW 7357   2.824   3.544   8.298
 2453SOL    HW1 7358   2.800   3.530   8.206
 2453SOL    HW2 7359   2.848   3.636   8.303
 2454SOL     OW 7360   2.366   2.366   7.023
 2454SOL    HW1 7361   2.421   2.444   7.030
 2454SOL    HW2 7362   2.277   2.399   7.029
 2455SOL     OW 7363   2.050   3.005   8.299
 2455SOL    HW1 7364   2.071   2.944   8.370
 2455SOL    HW2 7365   2.063   2.953   8.220
 2456SOL     OW 7366   3.239   2.923   8.066
 2456SOL    HW1 7367   3.259   2.865   7.993
 2456SOL    HW2 7368   3.154   2.962   8.044
 2457SOL     OW 7369   3.196   2.720   7.143
 2457SOL    HW1 7370   3.112   2.692   7.179
 2457SOL    HW2 7371   3.186   2.709   7.049
 2458SOL     OW 7372   3.651   3.616   7.986
 2458SOL    HW1 7373   3.711   3.639   7.915
 2458SOL    HW2 7374   3.621   3.528   7.963
 2459SOL     OW 7375   3.143   3.598   7.960
 2459SOL    HW1 7376   3.224   3.601   7.909
 2459SOL    HW2 7377   3.127   3.505   7.976
 2460SOL     OW 7378   1.977   3.126   7.854
 2460SOL    HW1 7379   1.967   3.125   7.950
 2460SOL    HW2 7380   1.897   3.085   7.822
 2461SOL     OW 7381   2.579   3.527   8.549
 2461SOL    HW1 7382   2.528   3.609   8.554
 2461SOL    HW2 7383   2.630   3.536   8.468
 2462SOL     OW 7384   3.617   2.002   7.354
 2462SOL    HW1 7385   3.688   1.984   7.293
 2462SOL    HW2 7386   3.593   1.917   7.391
 2463SOL     OW 7387   3.282   3.439   7.311
 2463SOL    HW1 7388   3.344   3.456   7.240
 2463SOL    HW2 7389   3.243   3.524   7.331
 2464SOL     OW 7390   2.024   3.663   8.682
 2464SOL    HW1 7391   1.984   3.593   8.734
 2464SOL    HW2 7392   2.083   3.708   8.742
 2465SOL     OW 7393   3.171   2.791   7.504
 2465SOL    HW1 7394   3.235   2.720   7.505
 2465SOL    HW2 7395   3.211   2.859   7.449
 2466SOL     OW 7396   2.721   3.137   8.258
 2466SOL    HW1 7397   2.712   3.174   8.346
 2466SOL    HW2 7398   2.639   3.160   8.214
 2467SOL     OW 7399   2.564   3.483   6.988
 2467SOL    HW1 7400   2.573   3.489   6.893
 2467SOL    HW2 7401   2.525   3.397   7.002
 2468SOL     OW 7402   3.543   3.588   8.227
 2468SOL    HW1 7403   3.591   3.601   8.145
 2468SOL    HW2 7404   3.519   3.676   8.256
 2469SOL     OW 7405   3.734   2.041   7.799
 2469SOL    HW1 7406   3.767   1.959   7.761
 2469SOL    HW2 7407   3.642   2.044   7.772
 2470SOL     OW 7408   2.160   2.194   7.554
 2470SOL    HW1 7409   2.080   2.236   7.523
 2470SOL    HW2 7410   2.145   2.179   7.648
 2471SOL     OW 7411   3.088   3.479   6.865
 2471SOL    HW1 7412   3.091   3.388   6.896
 2471SOL    HW2 7413   3.030   3.477   6.789
 2472SOL     OW 7414   2.716   2.869   8.205
 2472SOL    HW1 7415   2.755   2.872   8.118
 2472SOL    HW2 7416   2.725   2.959   8.238
 2473SOL     OW 7417   2.809   2.778   7.124
 2473SOL    HW1 7418   2.872   2.810   7.059
 2473SOL    HW2 7419   2.850   2.699   7.160
 2474SOL     OW 7420   3.399   3.479   6.878
 2474SOL    HW1 7421   3.307   3.507   6.878
 2474SOL    HW2 7422   3.428   3.494   6.788
 2475SOL     OW 7423   2.265   3.156   8.323
 2475SOL    HW1 7424   2.249   3.243   8.287
 2475SOL    HW2 7425   2.183   3.109   8.308
 2476SOL     OW 7426   3.506   3.157   8.121
 2476SOL    HW1 7427   3.563   3.163   8.198
 2476SOL    HW2 7428   3.438   3.222   8.137
 2477SOL     OW 7429   2.932   2.966   7.530
 2477SOL    HW1 7430   2.866   2.917   7.579
 2477SOL    HW2 7431   2.988   2.899   7.490
 2478SOL     OW 7432   2.908   2.104   7.803
 2478SOL    HW1 7433   2.899   2.064   7.716
 2478SOL    HW2 7434   2.904   2.030   7.864
 2479SOL     OW 7435   2.486   3.355   7.323
 2479SOL    HW1 7436   2.521   3.301   7.253
 2479SOL    HW2 7437   2.440   3.426   7.278
 2480SOL     OW 7438   3.603   2.252   8.215
 2480SOL    HW1 7439   3.674   2.317   8.214
 2480SOL    HW2 7440   3.633   2.183   8.156
 2481SOL     OW 7441   2.149   3.217   7.120
 2481SOL    HW1 7442   2.055   3.217   7.101
 2481SOL    HW2 7443   2.156   3.263   7.204
 2482SOL     OW 7444   1.999   2.881   8.559
 2482SOL    HW1 7445   1.927   2.848   8.612
 2482SOL    HW2 7446   2.078   2.848   8.602
 2483SOL     OW 7447   2.564   2.069   8.323
 2483SOL    HW1 7448   2.651   2.054   8.286
 2483SOL    HW2 7449   2.578   2.076   8.417
 2484SOL     OW 7450   1.968   2.212   6.867
 2484SOL    HW1 7451   1.881   2.187   6.836
 2484SOL    HW2 7452   1.994   2.285   6.811
 2485SOL     OW 7453   3.332   2.724   8.233
 2485SOL    HW1 7454   3.281   2.775   8.170
 2485SOL    HW2 7455   3.423   2.735   8.205
 2486SOL     OW 7456   1.964   2.031   7.151
 2486SOL    HW1 7457   1.952   2.111   7.098
 2486SOL    HW2 7458   2.052   2.000   7.127
 2487SOL     OW 7459   3.076   3.206   6.951
 2487SOL    HW1 7460   2.982   3.190   6.957
 2487SOL    HW2 7461   3.105   3.213   7.042
 2488SOL     OW 7462   2.506   2.708   8.264
 2488SOL    HW1 7463   2.562   2.784   8.248
 2488SOL    HW2 7464   2.566   2.634   8.267
 2489SOL     OW 7465   3.384   3.635   7.793
 2489SOL    HW1 7466   3.420   3.695   7.728
 2489SOL    HW2 7467   3.452   3.630   7.861
 2490SOL     OW 7468   2.607   2.431   8.542
 2490SOL    HW1 7469   2.631   2.492   8.612
 2490SOL    HW2 7470   2.667   2.357   8.554
 2491SOL     OW 7471   3.344   3.084   8.466
 2491SOL    HW1 7472   3.339   3.080   8.561
 2491SOL    HW2 7473   3.438   3.081   8.447
 2492SOL     OW 7474   2.282   3.608   8.393
 2492SOL    HW1 7475   2.193   3.644   8.391
 2492SOL    HW2 7476   2.272   3.519   8.425
 2493SOL     OW 7477   3.567   2.750   8.088
 2493SOL    HW1 7478   3.544   2.666   8.049
 2493SOL    HW2 7479   3.566   2.812   8.015
 2494SOL     OW 7480   3.118   2.192   7.283
 2494SOL    HW1 7481   3.181   2.121   7.276
 2494SOL    HW2 7482   3.140   2.237   7.364
 2495SOL     OW 7483   2.487   2.612   7.487
 2495SOL    HW1 7484   2.531   2.694   7.467
 2495SOL    HW2 7485   2.405   2.615   7.437
 2496SOL     OW 7486   3.669   2.213   8.476
 2496SOL    HW1 7487   3.649   2.236   8.385
 2496SOL    HW2 7488   3.589   2.172   8.509
 2497SOL     OW 7489   3.624   2.801   8.349
 2497SOL    HW1 7490   3.658   2.890   8.360
 2497SOL    HW2 7491   3.617   2.789   8.255
 2498SOL     OW 7492   2.753   3.240   6.850
 2498SOL    HW1 7493   2.710   3.259   6.934
 2498SOL    HW2 7494   2.790   3.324   6.823
 2499SOL     OW 7495   2.553   3.657   7.786
 2499SOL    HW1 7496   2.515   3.744   7.771
 2499SOL    HW2 7497   2.647   3.670   7.778
 2500SOL     OW 7498   2.753   2.824   7.693
 2500SOL    HW1 7499   2.804   2.759   7.741
 2500SOL    HW2 7500   2.724   2.887   7.760
 2501SOL     OW 7501   2.975   2.851   6.920
 2501SOL    HW1 7502   2.956   2.901   6.841
 2501SOL    HW2 7503   3.053   2.800   6.899
 2502SOL     OW 7504   3.755   3.435   7.683
 2502SOL    HW1 7505   3.684   3.421   7.619
 2502SOL    HW2 7506   3.751   3.359   7.740
 2503SOL     OW 7507   2.115   3.180   8.678
 2503SOL    HW1 7508   2.050   3.111   8.660
 2503SOL    HW2 7509   2.113   3.191   8.773
 2504SOL     OW 7510   1.973   3.107   7.487
 2504SOL    HW1 7511   1.974   3.059   7.570
 2504SOL    HW2 7512   2.050   3.077   7.440
 2505SOL     OW 7513   2.566   3.259   8.456
 2505SOL    HW1 7514   2.490   3.215   8.493
 2505SOL    HW2 7515   2.561   3.348   8.489
 2506SOL     OW 7516   3.714   2.059   8.063
 2506SOL    HW1 7517   3.714   1.970   8.097
 2506SOL    HW2 7518   3.721   2.048   7.968
 2507SOL     OW 7519   2.322   2.293   7.353
 2507SOL    HW1 7520   2.348   2.220   7.297
 2507SOL    HW2 7521   2.283   2.251   7.430
 2508SOL     OW 7522   3.597   3.357   7.938
 2508SOL    HW1 7523   3.510   3.327   7.912
 2508SOL    HW2 7524   3.619   3.303   8.014
 2509SOL     OW 7525   2.212   2.415   8.115
 2509SOL    HW1 7526   2.252   2.356   8.179
 2509SOL    HW2 7527   2.248   2.387   8.031
 2510SOL     OW 7528   2.707   3.451   7.521
 2510SOL    HW1 7529   2.731   3.463   7.429
 2510SOL    HW2 7530   2.630   3.394   7.518
 2511SOL     OW 7531   3.319   2.082   7.946
 2511SOL    HW1 7532   3.365   2.019   8.002
 2511SOL    HW2 7533   3.271   2.138   8.007
 2512SOL     OW 7534   2.894   1.900   7.986
 2512SOL    HW1 7535   2.838   1.829   7.956
 2512SOL    HW2 7536   2.982   1.862   7.985
 2513SOL     OW 7537   2.663   3.198   7.135
 2513SOL    HW1 7538   2.622   3.113   7.150
 2513SOL    HW2 7539   2.749   3.191   7.175
 2514SOL     OW 7540   2.510   3.434   8.116
 2514SOL    HW1 7541   2.511   3.513   8.171
 2514SOL    HW2 7542   2.597   3.432   8.076
 2515SOL     OW 7543   3.246   1.919   7.001
 2515SOL    HW1 7544   3.274   1.877   6.919
 2515SOL    HW2 7545   3.159   1.882   7.018
 2516SOL     OW 7546   3.193   2.321   7.523
 2516SOL    HW1 7547   3.136   2.397   7.531
 2516SOL    HW2 7548   3.203   2.288   7.613
 2517SOL     OW 7549   3.485   2.086   7.715
 2517SOL    HW1 7550   3.405   2.091   7.766
 2517SOL    HW2 7551   3.485   2.166   7.662
 2518SOL     OW 7552   1.932   2.944   7.134
 2518SOL    HW1 7553   2.027   2.931   7.125
 2518SOL    HW2 7554   1.899   2.860   7.162
 2519SOL     OW 7555   2.768   3.510   7.175
 2519SOL    HW1 7556   2.694   3.485   7.118
 2519SOL    HW2 7557   2.735   3.583   7.226
 2520SOL     OW 7558   2.124   2.495   8.809
 2520SOL    HW1 7559   2.033   2.492   8.841
 2520SOL    HW2 7560   2.120   2.458   8.721
 2521SOL     OW 7561   2.118   2.142   9.688
 2521SOL    HW1 7562   2.149   2.124   9.776
 2521SOL    HW2 7563   2.033   2.099   9.682
 2522SOL     OW 7564   1.909   2.240   9.338
 2522SOL    HW1 7565   1.828   2.272   9.378
 2522SOL    HW2 7566   1.882   2.166   9.284
 2523SOL     OW 7567   2.461   3.140   9.861
 2523SOL    HW1 7568   2.372   3.140   9.825
 2523SOL    HW2 7569   2.470   3.227   9.900
 2524SOL     OW 7570   3.448   3.379   9.398
 2524SOL    HW1 7571   3.392   3.364   9.474
 2524SOL    HW2 7572   3.386   3.387   9.325
 2525SOL     OW 7573   3.027   2.570   9.410
 2525SOL    HW1 7574   3.080   2.647   9.391
 2525SOL    HW2 7575   2.973   2.596   9.485
 2526SOL     OW 7576   3.649   2.475   8.927
 2526SOL    HW1 7577   3.636   2.460   8.834
 2526SOL    HW2 7578   3.619   2.395   8.969
 2527SOL     OW 7579   2.661   3.011   9.720
 2527SOL    HW1 7580   2.586   3.033   9.776
 2527SOL    HW2 7581   2.690   3.095   9.685
 2528SOL     OW 7582   2.579   2.881   9.357
 2528SOL    HW1 7583   2.641   2.864   9.427
 2528SOL    HW2 7584   2.510   2.932   9.399
 2529SOL     OW 7585   2.227   3.302   9.758
 2529SOL    HW1 7586   2.154   3.273   9.703
 2529SOL    HW2 7587   2.281   3.355   9.700
 2530SOL     OW 7588   3.498   2.315   9.432
 2530SOL    HW1 7589   3.427   2.360   9.385
 2530SOL    HW2 7590   3.541   2.384   9.482
 2531SOL     OW 7591   2.122   3.579   9.177
 2531SOL    HW1 7592   2.156   3.654   9.226
 2531SOL    HW2 7593   2.169   3.581   9.094
 2532SOL     OW 7594   2.123   3.301   9.232
 2532SOL    HW1 7595   2.097   3.393   9.236
 2532SOL    HW2 7596   2.054   3.254   9.278
 2533SOL     OW 7597   2.135   2.958   9.581
 2533SOL    HW1 7598   2.144   2.878   9.633
 2533SOL    HW2 7599   2.081   3.016   9.635
 2534SOL     OW 7600   2.495   2.833   8.820
 2534SOL    HW1 7601   2.511   2.911   8.767
 2534SOL    HW2 7602   2.543   2.849   8.901
 2535SOL     OW 7603   2.014   2.511   9.258
 2535SOL    HW1 7604   1.973   2.427   9.277
 2535SOL    HW2 7605   2.010   2.559   9.341
 2536SOL     OW 7606   3.736   3.633   9.050
 2536SOL    HW1 7607   3.787   3.609   9.127
 2536SOL    HW2 7608   3.766   3.721   9.028
 2537SOL     OW 7609   1.920   3.463   8.813
 2537SOL    HW1 7610   1.901   3.372   8.836
 2537SOL    HW2 7611   1.888   3.514   8.888
 2538SOL     OW 7612   3.582   2.789   9.311
 2538SOL    HW1 7613   3.674   2.761   9.312
 2538SOL    HW2 7614   3.575   2.847   9.236
 2539SOL     OW 7615   3.535   2.974   9.127
 2539SOL    HW1 7616   3.618   2.982   9.080
 2539SOL    HW2 7617   3.549   3.025   9.207
 2540SOL     OW 7618   2.507   3.234   9.422
 2540SOL    HW1 7619   2.458   3.152   9.428
 2540SOL    HW2 7620   2.482   3.270   9.337
 2541SOL     OW 7621   2.701   1.869   9.196
 2541SOL    HW1 7622   2.738   1.956   9.190
 2541SOL    HW2 7623   2.606   1.883   9.204
 2542SOL     OW 7624   2.090   2.843   9.958
 2542SOL    HW1 7625   2.172   2.797   9.944
 2542SOL    HW2 7626   2.022   2.778   9.939
 2543SOL     OW 7627   3.422   2.863   8.885
 2543SOL    HW1 7628   3.358   2.794   8.903
 2543SOL    HW2 7629   3.461   2.882   8.970
 2544SOL     OW 7630   3.360   3.284   9.649
 2544SOL    HW1 7631   3.298   3.289   9.722
 2544SOL    HW2 7632   3.343   3.199   9.609
 2545SOL     OW 7633   3.559   3.583   9.268
 2545SOL    HW1 7634   3.521   3.557   9.184
 2545SOL    HW2 7635   3.540   3.510   9.327
 2546SOL     OW 7636   2.489   2.594   8.963
 2546SOL    HW1 7637   2.510   2.665   8.902
 2546SOL    HW2 7638   2.417   2.630   9.016
 2547SOL     OW 7639   3.175   2.212   9.636
 2547SOL    HW1 7640   3.092   2.165   9.630
 2547SOL    HW2 7641   3.229   2.158   9.692
 2548SOL     OW 7642   3.470   3.530   9.002
 2548SOL    HW1 7643   3.555   3.572   9.001
 2548SOL    HW2 7644   3.452   3.508   8.911
 2549SOL     OW 7645   2.936   2.567   9.124
 2549SOL    HW1 7646   2.955   2.562   9.217
 2549SOL    HW2 7647   2.854   2.520   9.112
 2550SOL     OW 7648   1.971   2.680   9.478
 2550SOL    HW1 7649   2.064   2.670   9.498
 2550SOL    HW2 7650   1.948   2.768   9.507
 2551SOL     OW 7651   2.758   2.214   8.890
 2551SOL    HW1 7652   2.816   2.272   8.841
 2551SOL    HW2 7653   2.781   2.126   8.859
 2552SOL     OW 7654   3.257   3.012   9.240
 2552SOL    HW1 7655   3.335   2.987   9.190
 2552SOL    HW2 7656   3.211   3.074   9.184
 2553SOL     OW 7657   2.443   2.061   9.581
 2553SOL    HW1 7658   2.437   2.064   9.677
 2553SOL    HW2 7659   2.445   2.153   9.554
 2554SOL     OW 7660   2.901   3.321   9.171
 2554SOL    HW1 7661   2.858   3.393   9.125
 2554SOL    HW2 7662   2.896   3.345   9.264
 2555SOL     OW 7663   2.244   3.669   9.546
 2555SOL    HW1 7664   2.294   3.588   9.555
 2555SOL    HW2 7665   2.309   3.738   9.547
 2556SOL     OW 7666   3.689   2.934   9.566
 2556SOL    HW1 7667   3.626   2.918   9.496
 2556SOL    HW2 7668   3.636   2.940   9.646
 2557SOL     OW 7669   2.213   2.812   8.937
 2557SOL    HW1 7670   2.293   2.843   8.895
 2557SOL    HW2 7671   2.190   2.732   8.889
 2558SOL     OW 7672   3.354   2.601   9.422
 2558SOL    HW1 7673   3.349   2.543   9.498
 2558SOL    HW2 7674   3.429   2.657   9.439
 2559SOL     OW 7675   3.007   3.643   8.932
 2559SOL    HW1 7676   2.946   3.585   8.976
 2559SOL    HW2 7677   3.030   3.597   8.851
 2560SOL     OW 7678   3.526   3.244   8.778
 2560SOL    HW1 7679   3.490   3.332   8.766
 2560SOL    HW2 7680   3.452   3.185   8.764
 2561SOL     OW 7681   2.357   3.608   9.018
 2561SOL    HW1 7682   2.392   3.650   9.097
 2561SOL    HW2 7683   2.433   3.603   8.959
 2562SOL     OW 7684   3.293   1.975   9.121
 2562SOL    HW1 7685   3.274   1.941   9.034
 2562SOL    HW2 7686   3.388   1.987   9.122
 2563SOL     OW 7687   2.143   3.654   9.935
 2563SOL    HW1 7688   2.196   3.588   9.980
 2563SOL    HW2 7689   2.128   3.618   9.848
 2564SOL     OW 7690   2.834   3.565   9.599
 2564SOL    HW1 7691   2.908   3.508   9.616
 2564SOL    HW2 7692   2.787   3.524   9.527
 2565SOL     OW 7693   2.276   2.567   9.176
 2565SOL    HW1 7694   2.314   2.479   9.174
 2565SOL    HW2 7695   2.186   2.553   9.204
 2566SOL     OW 7696   2.508   1.991   8.811
 2566SOL    HW1 7697   2.600   1.964   8.815
 2566SOL    HW2 7698   2.480   1.968   8.723
 2567SOL     OW 7699   2.696   3.269   9.620
 2567SOL    HW1 7700   2.780   3.280   9.577
 2567SOL    HW2 7701   2.632   3.269   9.549
 2568SOL     OW 7702   2.817   2.372   9.595
 2568SOL    HW1 7703   2.793   2.358   9.503
 2568SOL    HW2 7704   2.859   2.290   9.621
 2569SOL     OW 7705   2.436   1.931   9.208
 2569SOL    HW1 7706   2.355   1.933   9.259
 2569SOL    HW2 7707   2.433   2.010   9.154
 2570SOL     OW 7708   3.325   3.056   8.734
 2570SOL    HW1 7709   3.355   2.985   8.790
 2570SOL    HW2 7710   3.238   3.079   8.768
 2571SOL     OW 7711   2.189   1.903   8.868
 2571SOL    HW1 7712   2.241   1.981   8.847
 2571SOL    HW2 7713   2.251   1.843   8.909
 2572SOL     OW 7714   2.828   2.105   9.174
 2572SOL    HW1 7715   2.787   2.144   9.097
 2572SOL    HW2 7716   2.921   2.104   9.154
 2573SOL     OW 7717   3.119   3.437   9.488
 2573SOL    HW1 7718   3.143   3.508   9.428
 2573SOL    HW2 7719   3.186   3.441   9.556
 2574SOL     OW 7720   2.354   3.016   9.437
 2574SOL    HW1 7721   2.281   2.993   9.495
 2574SOL    HW2 7722   2.323   2.992   9.349
 2575SOL     OW 7723   3.165   3.664   9.288
 2575SOL    HW1 7724   3.204   3.728   9.228
 2575SOL    HW2 7725   3.115   3.717   9.350
 2576SOL     OW 7726   2.926   2.416   8.710
 2576SOL    HW1 7727   2.887   2.497   8.678
 2576SOL    HW2 7728   2.984   2.443   8.780
 2577SOL     OW 7729   2.761   2.322   9.337
 2577SOL    HW1 7730   2.727   2.386   9.275
 2577SOL    HW2 7731   2.781   2.245   9.284
 2578SOL     OW 7732   2.909   1.909   9.449
 2578SOL    HW1 7733   2.841   1.908   9.383
 2578SOL    HW2 7734   2.885   1.839   9.510
 2579SOL     OW 7735   3.324   3.038   9.561
 2579SOL    HW1 7736   3.268   2.960   9.552
 2579SOL    HW2 7737   3.345   3.063   9.471
 2580SOL     OW 7738   3.361   2.458   9.686
 2580SOL    HW1 7739   3.331   2.368   9.695
 2580SOL    HW2 7740   3.429   2.469   9.752
 2581SOL     OW 7741   3.746   2.698   9.073
 2581SOL    HW1 7742   3.791   2.635   9.130
 2581SOL    HW2 7743   3.716   2.646   8.999
 2582SOL     OW 7744   2.383   3.255   8.868
 2582SOL    HW1 7745   2.299   3.238   8.911
 2582SOL    HW2 7746   2.360   3.276   8.778
 2583SOL     OW 7747   3.557   3.143   9.354
 2583SOL    HW1 7748   3.652   3.156   9.365
 2583SOL    HW2 7749   3.519   3.227   9.379
 2584SOL     OW 7750   3.283   2.442   8.771
 2584SOL    HW1 7751   3.233   2.420   8.850
 2584SOL    HW2 7752   3.369   2.402   8.786
 2585SOL     OW 7753   2.420   2.124   9.023
 2585SOL    HW1 7754   2.447   2.070   8.949
 2585SOL    HW2 7755   2.419   2.214   8.989
 2586SOL     OW 7756   3.006   3.064   9.797
 2586SOL    HW1 7757   2.959   3.105   9.869
 2586SOL    HW2 7758   2.965   3.099   9.718
 2587SOL     OW 7759   3.531   2.968   9.772
 2587SOL    HW1 7760   3.531   3.043   9.831
 2587SOL    HW2 7761   3.447   2.971   9.728
 2588SOL     OW 7762   2.598   2.920   9.064
 2588SOL    HW1 7763   2.587   2.920   9.159
 2588SOL    HW2 7764   2.677   2.868   9.049
 2589SOL     OW 7765   2.304   2.680   9.947
 2589SOL    HW1 7766   2.385   2.688   9.997
 2589SOL    HW2 7767   2.267   2.596   9.973
 2590SOL     OW 7768   2.258   2.967   9.195
 2590SOL    HW1 7769   2.253   3.044   9.138
 2590SOL    HW2 7770   2.263   2.893   9.135
 2591SOL     OW 7771   2.458   2.404   9.560
 2591SOL    HW1 7772   2.472   2.468   9.491
 2591SOL    HW2 7773   2.504   2.439   9.636
 2592SOL     OW 7774   3.144   3.215   9.083
 2592SOL    HW1 7775   3.190   3.289   9.122
 2592SOL    HW2 7776   3.055   3.222   9.116
 2593SOL     OW 7777   3.167   3.312   9.837
 2593SOL    HW1 7778   3.207   3.322   9.923
 2593SOL    HW2 7779   3.105   3.240   9.847
 2594SOL     OW 7780   3.475   2.504   9.168
 2594SOL    HW1 7781   3.446   2.567   9.234
 2594SOL    HW2 7782   3.522   2.558   9.104
 2595SOL     OW 7783   2.468   2.736   9.724
 2595SOL    HW1 7784   2.506   2.824   9.718
 2595SOL    HW2 7785   2.408   2.741   9.799
 2596SOL     OW 7786   3.254   2.730   9.738
 2596SOL    HW1 7787   3.181   2.725   9.677
 2596SOL    HW2 7788   3.286   2.640   9.745
 2597SOL     OW 7789   3.105   2.393   8.969
 2597SOL    HW1 7790   3.111   2.314   9.023
 2597SOL    HW2 7791   3.072   2.460   9.029
 2598SOL     OW 7792   2.200   2.079   9.927
 2598SOL    HW1 7793   2.177   2.111  10.014
 2598SOL    HW2 7794   2.171   1.988   9.926
 2599SOL     OW 7795   1.929   3.178   9.977
 2599SOL    HW1 7796   1.980   3.132  10.044
 2599SOL    HW2 7797   1.955   3.270   9.986
 2600SOL     OW 7798   2.625   2.501   9.759
 2600SOL    HW1 7799   2.683   2.479   9.686
 2600SOL    HW2 7800   2.599   2.592   9.743
 2601SOL     OW 7801   2.198   1.931   9.314
 2601SOL    HW1 7802   2.187   2.020   9.349
 2601SOL    HW2 7803   2.194   1.875   9.391
 2602SOL     OW 7804   3.511   2.233   9.066
 2602SOL    HW1 7805   3.519   2.165   9.133
 2602SOL    HW2 7806   3.471   2.307   9.112
 2603SOL     OW 7807   2.916   2.633   9.661
 2603SOL    HW1 7808   2.929   2.649   9.754
 2603SOL    HW2 7809   2.888   2.541   9.656
 2604SOL     OW 7810   3.430   2.143   8.820
 2604SOL    HW1 7811   3.374   2.071   8.847
 2604SOL    HW2 7812   3.454   2.186   8.902
 2605SOL     OW 7813   3.195   2.703   8.736
 2605SOL    HW1 7814   3.231   2.615   8.745
 2605SOL    HW2 7815   3.216   2.729   8.647
 2606SOL     OW 7816   2.960   3.200   9.545
 2606SOL    HW1 7817   2.969   3.123   9.489
 2606SOL    HW2 7818   3.022   3.263   9.507
 2607SOL     OW 7819   2.211   2.679   9.645
 2607SOL    HW1 7820   2.302   2.706   9.649
 2607SOL    HW2 7821   2.209   2.595   9.692
 2608SOL     OW 7822   2.230   2.380   9.700
 2608SOL    HW1 7823   2.186   2.296   9.684
 2608SOL    HW2 7824   2.305   2.380   9.640
 2609SOL     OW 7825   3.055   2.073  10.172
 2609SOL    HW1 7826   3.053   2.138  10.243
 2609SOL    HW2 7827   3.079   2.123  10.095
 2610SOL     OW 7828   1.900   3.194   8.893
 2610SOL    HW1 7829   1.810   3.208   8.864
 2610SOL    HW2 7830   1.906   3.100   8.909
 2611SOL     OW 7831   1.981   3.667   9.623
 2611SOL    HW1 7832   1.945   3.584   9.593
 2611SOL    HW2 7833   2.071   3.668   9.590
 2612SOL     OW 7834   2.396   3.437   9.602
 2612SOL    HW1 7835   2.464   3.503   9.614
 2612SOL    HW2 7836   2.442   3.362   9.564
 2613SOL     OW 7837   2.895   2.661   9.931
 2613SOL    HW1 7838   2.931   2.633  10.015
 2613SOL    HW2 7839   2.803   2.635   9.935
 2614SOL     OW 7840   1.932   2.409   9.810
 2614SOL    HW1 7841   2.015   2.381   9.772
 2614SOL    HW2 7842   1.952   2.425   9.902
 2615SOL     OW 7843   2.708   2.437   9.026
 2615SOL    HW1 7844   2.711   2.356   8.976
 2615SOL    HW2 7845   2.620   2.472   9.010
 2616SOL     OW 7846   3.545   2.469   9.896
 2616SOL    HW1 7847   3.519   2.403   9.961
 2616SOL    HW2 7848   3.627   2.436   9.860
 2617SOL     OW 7849   2.563   2.331   9.965
 2617SOL    HW1 7850   2.532   2.247   9.931
 2617SOL    HW2 7851   2.588   2.381   9.887
 2618SOL     OW 7852   2.366   2.366   8.885
 2618SOL    HW1 7853   2.421   2.444   8.892
 2618SOL    HW2 7854   2.277   2.399   8.891
 2619SOL     OW 7855   2.051   3.005  10.161
 2619SOL    HW1 7856   2.073   2.945  10.232
 2619SOL    HW2 7857   2.063   2.954  10.081
 2620SOL     OW 7858   3.241   2.930   9.927
 2620SOL    HW1 7859   3.259   2.865   9.860
 2620SOL    HW2 7860   3.153   2.962   9.907
 2621SOL     OW 7861   3.196   2.720   9.005
 2621SOL    HW1 7862   3.112   2.692   9.041
 2621SOL    HW2 7863   3.186   2.709   8.911
 2622SOL     OW 7864   3.649   3.617   9.846
 2622SOL    HW1 7865   3.712   3.639   9.777
 2622SOL    HW2 7866   3.621   3.528   9.826
 2623SOL     OW 7867   1.976   3.126   9.716
 2623SOL    HW1 7868   1.967   3.125   9.812
 2623SOL    HW2 7869   1.897   3.084   9.684
 2624SOL     OW 7870   3.617   2.002   9.217
 2624SOL    HW1 7871   3.688   1.984   9.155
 2624SOL    HW2 7872   3.593   1.917   9.253
 2625SOL     OW 7873   3.282   3.439   9.173
 2625SOL    HW1 7874   3.344   3.456   9.102
 2625SOL    HW2 7875   3.243   3.524   9.193
 2626SOL     OW 7876   3.171   2.791   9.366
 2626SOL    HW1 7877   3.235   2.720   9.367
 2626SOL    HW2 7878   3.211   2.859   9.311
 2627SOL     OW 7879   2.564   3.483   8.850
 2627SOL    HW1 7880   2.573   3.489   8.755
 2627SOL    HW2 7881   2.525   3.397   8.864
 2628SOL     OW 7882   3.543   3.586  10.090
 2628SOL    HW1 7883   3.592   3.600  10.010
 2628SOL    HW2 7884   3.519   3.674  10.119
 2629SOL     OW 7885   3.734   2.041   9.661
 2629SOL    HW1 7886   3.767   1.959   9.623
 2629SOL    HW2 7887   3.642   2.044   9.634
 2630SOL     OW 7888   2.160   2.193   9.416
 2630SOL    HW1 7889   2.080   2.236   9.385
 2630SOL    HW2 7890   2.145   2.179   9.510
 2631SOL     OW 7891   3.088   3.479   8.727
 2631SOL    HW1 7892   3.091   3.388   8.758
 2631SOL    HW2 7893   3.030   3.477   8.651
 2632SOL     OW 7894   2.714   2.869  10.066
 2632SOL    HW1 7895   2.755   2.872   9.980
 2632SOL    HW2 7896   2.726   2.957  10.102
 2633SOL     OW 7897   2.809   2.778   8.986
 2633SOL    HW1 7898   2.872   2.810   8.921
 2633SOL    HW2 7899   2.850   2.699   9.022
 2634SOL     OW 7900   3.399   3.479   8.740
 2634SOL    HW1 7901   3.307   3.507   8.740
 2634SOL    HW2 7902   3.428   3.494   8.650
 2635SOL     OW 7903   2.932   2.966   9.392
 2635SOL    HW1 7904   2.866   2.917   9.441
 2635SOL    HW2 7905   2.988   2.899   9.352
 2636SOL     OW 7906   2.911   2.104   9.664
 2636SOL    HW1 7907   2.899   2.063   9.578
 2636SOL    HW2 7908   2.903   2.032   9.726
 2637SOL     OW 7909   2.486   3.355   9.185
 2637SOL    HW1 7910   2.521   3.301   9.115
 2637SOL    HW2 7911   2.440   3.426   9.140
 2638SOL     OW 7912   3.600   2.254  10.073
 2638SOL    HW1 7913   3.673   2.314  10.080
 2638SOL    HW2 7914   3.633   2.181  10.020
 2639SOL     OW 7915   2.149   3.217   8.982
 2639SOL    HW1 7916   2.055   3.217   8.963
 2639SOL    HW2 7917   2.156   3.263   9.066
 2640SOL     OW 7918   1.968   2.212   8.729
 2640SOL    HW1 7919   1.881   2.187   8.698
 2640SOL    HW2 7920   1.994   2.285   8.673
 2641SOL     OW 7921   1.964   2.032   9.013
 2641SOL    HW1 7922   1.952   2.111   8.960
 2641SOL    HW2 7923   2.052   2.000   8.989
 2642SOL     OW 7924   3.076   3.206   8.813
 2642SOL    HW1 7925   2.982   3.190   8.819
 2642SOL    HW2 7926   3.105   3.213   8.904
 2643SOL     OW 7927   3.385   3.634   9.654
 2643SOL    HW1 7928   3.421   3.696   9.590
 2643SOL    HW2 7929   3.451   3.630   9.723
 2644SOL     OW 7930   3.572   2.750   9.949
 2644SOL    HW1 7931   3.541   2.667   9.912
 2644SOL    HW2 7932   3.564   2.813   9.877
 2645SOL     OW 7933   3.118   2.192   9.145
 2645SOL    HW1 7934   3.181   2.121   9.138
 2645SOL    HW2 7935   3.140   2.237   9.226
 2646SOL     OW 7936   2.487   2.612   9.349
 2646SOL    HW1 7937   2.531   2.694   9.329
 2646SOL    HW2 7938   2.405   2.615   9.299
 2647SOL     OW 7939   3.626   2.800  10.213
 2647SOL    HW1 7940   3.659   2.889  10.221
 2647SOL    HW2 7941   3.613   2.788  10.119
 2648SOL     OW 7942   2.753   3.240   8.712
 2648SOL    HW1 7943   2.710   3.259   8.796
 2648SOL    HW2 7944   2.790   3.324   8.685
 2649SOL     OW 7945   2.553   3.657   9.648
 2649SOL    HW1 7946   2.515   3.744   9.633
 2649SOL    HW2 7947   2.647   3.670   9.640
 2650SOL     OW 7948   2.753   2.824   9.555
 2650SOL    HW1 7949   2.804   2.759   9.604
 2650SOL    HW2 7950   2.724   2.887   9.622
 2651SOL     OW 7951   2.975   2.851   8.782
 2651SOL    HW1 7952   2.956   2.901   8.703
 2651SOL    HW2 7953   3.053   2.800   8.761
 2652SOL     OW 7954   3.755   3.435   9.545
 2652SOL    HW1 7955   3.684   3.421   9.481
 2652SOL    HW2 7956   3.751   3.359   9.602
 2653SOL     OW 7957   1.973   3.107   9.349
 2653SOL    HW1 7958   1.974   3.059   9.432
 2653SOL    HW2 7959   2.050   3.077   9.302
 2654SOL     OW 7960   3.715   2.059   9.924
 2654SOL    HW1 7961   3.715   1.970   9.959
 2654SOL    HW2 7962   3.721   2.048   9.830
 2655SOL     OW 7963   2.322   2.293   9.215
 2655SOL    HW1 7964   2.348   2.220   9.159
 2655SOL    HW2 7965   2.283   2.251   9.292
 2656SOL     OW 7966   3.598   3.356   9.800
 2656SOL    HW1 7967   3.510   3.327   9.774
 2656SOL    HW2 7968   3.619   3.303   9.877
 2657SOL     OW 7969   2.707   3.451   9.383
 2657SOL    HW1 7970   2.731   3.463   9.291
 2657SOL    HW2 7971   2.630   3.394   9.380
 2658SOL     OW 7972   3.318   2.082   9.808
 2658SOL    HW1 7973   3.366   2.019   9.863
 2658SOL    HW2 7974   3.272   2.138   9.870
 2659SOL     OW 7975   2.894   1.901   9.845
 2659SOL    HW1 7976   2.837   1.829   9.820
 2659SOL    HW2 7977   2.982   1.862   9.849
 2660SOL     OW 7978   2.663   3.198   8.997
 2660SOL    HW1 7979   2.622   3.113   9.012
 2660SOL    HW2 7980   2.749   3.191   9.037
 2661SOL     OW 7981   3.246   1.919   8.863
 2661SOL    HW1 7982   3.274   1.877   8.781
 2661SOL    HW2 7983   3.159   1.882   8.880
 2662SOL     OW 7984   3.193   2.321   9.385
 2662SOL    HW1 7985   3.136   2.397   9.393
 2662SOL    HW2 7986   3.203   2.288   9.475
 2663SOL     OW 7987   3.485   2.086   9.577
 2663SOL    HW1 7988   3.405   2.090   9.628
 2663SOL    HW2 7989   3.485   2.166   9.524
 2664SOL     OW 7990   1.932   2.944   8.996
 2664SOL    HW1 7991   2.027   2.931   8.987
 2664SOL    HW2 7992   1.899   2.860   9.024
 2665SOL     OW 7993   2.768   3.510   9.037
 2665SOL    HW1 7994   2.694   3.485   8.980
 2665SOL    HW2 7995   2.735   3.583   9.088
 2666SOL     OW 7996   2.124   4.357   5.085
 2666SOL    HW1 7997   2.033   4.354   5.116
 2666SOL    HW2 7998   2.120   4.320   4.997
 2667SOL     OW 7999   2.118   4.004   5.964
 2667SOL    HW1 8000   2.148   3.985   6.053
 2667SOL    HW2 8001   2.032   3.962   5.958
 2668SOL     OW 8002   1.909   4.102   5.613
 2668SOL    HW1 8003   1.828   4.133   5.654
 2668SOL    HW2 8004   1.882   4.027   5.560
 2669SOL     OW 8005   3.027   4.431   5.686
 2669SOL    HW1 8006   3.080   4.509   5.667
 2669SOL    HW2 8007   2.973   4.458   5.761
 2670SOL     OW 8008   3.649   4.337   5.201
 2670SOL    HW1 8009   3.634   4.319   5.109
 2670SOL    HW2 8010   3.619   4.258   5.246
 2671SOL     OW 8011   2.665   4.875   6.001
 2671SOL    HW1 8012   2.585   4.894   6.049
 2671SOL    HW2 8013   2.687   4.958   5.958
 2672SOL     OW 8014   2.744   4.526   6.793
 2672SOL    HW1 8015   2.740   4.600   6.854
 2672SOL    HW2 8016   2.765   4.565   6.709
 2673SOL     OW 8017   2.577   4.739   5.634
 2673SOL    HW1 8018   2.642   4.727   5.704
 2673SOL    HW2 8019   2.511   4.797   5.673
 2674SOL     OW 8020   2.583   4.888   6.772
 2674SOL    HW1 8021   2.637   4.965   6.787
 2674SOL    HW2 8022   2.500   4.922   6.737
 2675SOL     OW 8023   2.332   4.123   6.470
 2675SOL    HW1 8024   2.408   4.065   6.477
 2675SOL    HW2 8025   2.257   4.064   6.474
 2676SOL     OW 8026   3.498   4.177   5.707
 2676SOL    HW1 8027   3.427   4.222   5.662
 2676SOL    HW2 8028   3.541   4.245   5.758
 2677SOL     OW 8029   2.135   4.819   5.856
 2677SOL    HW1 8030   2.144   4.739   5.908
 2677SOL    HW2 8031   2.082   4.877   5.910
 2678SOL     OW 8032   2.498   4.693   5.095
 2678SOL    HW1 8033   2.508   4.774   5.045
 2678SOL    HW2 8034   2.543   4.711   5.178
 2679SOL     OW 8035   3.488   3.843   6.449
 2679SOL    HW1 8036   3.470   3.911   6.385
 2679SOL    HW2 8037   3.484   3.887   6.534
 2680SOL     OW 8038   2.013   4.373   5.534
 2680SOL    HW1 8039   1.973   4.288   5.553
 2680SOL    HW2 8040   2.010   4.421   5.616
 2681SOL     OW 8041   3.583   4.652   5.588
 2681SOL    HW1 8042   3.674   4.623   5.588
 2681SOL    HW2 8043   3.575   4.708   5.511
 2682SOL     OW 8044   3.534   4.839   5.402
 2682SOL    HW1 8045   3.618   4.840   5.356
 2682SOL    HW2 8046   3.552   4.883   5.485
 2683SOL     OW 8047   2.008   4.466   6.564
 2683SOL    HW1 8048   2.092   4.461   6.609
 2683SOL    HW2 8049   1.993   4.559   6.551
 2684SOL     OW 8050   3.184   4.957   6.393
 2684SOL    HW1 8051   3.225   4.888   6.341
 2684SOL    HW2 8052   3.237   4.960   6.473
 2685SOL     OW 8053   2.701   3.731   5.471
 2685SOL    HW1 8054   2.738   3.819   5.466
 2685SOL    HW2 8055   2.607   3.745   5.480
 2686SOL     OW 8056   2.090   4.705   6.233
 2686SOL    HW1 8057   2.172   4.659   6.221
 2686SOL    HW2 8058   2.022   4.640   6.215
 2687SOL     OW 8059   3.420   4.727   5.160
 2687SOL    HW1 8060   3.357   4.657   5.178
 2687SOL    HW2 8061   3.461   4.744   5.245
 2688SOL     OW 8062   2.212   3.980   6.770
 2688SOL    HW1 8063   2.275   4.052   6.780
 2688SOL    HW2 8064   2.129   4.017   6.801
 2689SOL     OW 8065   2.489   4.456   5.239
 2689SOL    HW1 8066   2.511   4.527   5.178
 2689SOL    HW2 8067   2.418   4.492   5.292
 2690SOL     OW 8068   3.175   4.074   5.910
 2690SOL    HW1 8069   3.092   4.026   5.906
 2690SOL    HW2 8070   3.229   4.021   5.969
 2691SOL     OW 8071   2.698   4.336   6.433
 2691SOL    HW1 8072   2.656   4.327   6.518
 2691SOL    HW2 8073   2.648   4.279   6.375
 2692SOL     OW 8074   3.286   4.198   6.645
 2692SOL    HW1 8075   3.273   4.238   6.731
 2692SOL    HW2 8076   3.361   4.139   6.657
 2693SOL     OW 8077   2.863   4.620   6.545
 2693SOL    HW1 8078   2.909   4.542   6.514
 2693SOL    HW2 8079   2.813   4.650   6.469
 2694SOL     OW 8080   2.885   4.140   6.213
 2694SOL    HW1 8081   2.808   4.169   6.262
 2694SOL    HW2 8082   2.849   4.091   6.139
 2695SOL     OW 8083   2.937   4.429   5.399
 2695SOL    HW1 8084   2.955   4.424   5.493
 2695SOL    HW2 8085   2.854   4.382   5.388
 2696SOL     OW 8086   1.970   4.541   5.755
 2696SOL    HW1 8087   2.064   4.532   5.774
 2696SOL    HW2 8088   1.949   4.630   5.782
 2697SOL     OW 8089   2.760   4.077   5.168
 2697SOL    HW1 8090   2.816   4.134   5.115
 2697SOL    HW2 8091   2.777   3.989   5.136
 2698SOL     OW 8092   3.610   4.313   6.802
 2698SOL    HW1 8093   3.586   4.397   6.764
 2698SOL    HW2 8094   3.611   4.252   6.728
 2699SOL     OW 8095   3.257   4.869   5.516
 2699SOL    HW1 8096   3.335   4.848   5.465
 2699SOL    HW2 8097   3.213   4.937   5.465
 2700SOL     OW 8098   2.442   3.924   5.856
 2700SOL    HW1 8099   2.439   3.927   5.952
 2700SOL    HW2 8100   2.445   4.015   5.829
 2701SOL     OW 8101   3.689   4.796   5.843
 2701SOL    HW1 8102   3.626   4.779   5.773
 2701SOL    HW2 8103   3.635   4.802   5.922
 2702SOL     OW 8104   2.215   4.673   5.214
 2702SOL    HW1 8105   2.294   4.705   5.169
 2702SOL    HW2 8106   2.191   4.594   5.165
 2703SOL     OW 8107   3.353   4.463   5.698
 2703SOL    HW1 8108   3.349   4.405   5.774
 2703SOL    HW2 8109   3.429   4.519   5.715
 2704SOL     OW 8110   2.094   4.013   6.469
 2704SOL    HW1 8111   2.017   4.069   6.460
 2704SOL    HW2 8112   2.081   3.967   6.552
 2705SOL     OW 8113   3.293   3.837   5.397
 2705SOL    HW1 8114   3.274   3.803   5.310
 2705SOL    HW2 8115   3.388   3.849   5.399
 2706SOL     OW 8116   2.276   4.429   5.451
 2706SOL    HW1 8117   2.314   4.341   5.450
 2706SOL    HW2 8118   2.186   4.416   5.481
 2707SOL     OW 8119   3.437   3.955   6.698
 2707SOL    HW1 8120   3.435   3.982   6.790
 2707SOL    HW2 8121   3.371   3.886   6.692
 2708SOL     OW 8122   2.506   3.848   5.089
 2708SOL    HW1 8123   2.600   3.830   5.091
 2708SOL    HW2 8124   2.482   3.834   4.997
 2709SOL     OW 8125   2.673   3.993   6.719
 2709SOL    HW1 8126   2.736   3.935   6.761
 2709SOL    HW2 8127   2.606   4.009   6.787
 2710SOL     OW 8128   3.241   4.319   6.404
 2710SOL    HW1 8129   3.272   4.281   6.486
 2710SOL    HW2 8130   3.271   4.410   6.406
 2711SOL     OW 8131   2.816   4.234   5.871
 2711SOL    HW1 8132   2.792   4.221   5.779
 2711SOL    HW2 8133   2.859   4.152   5.897
 2712SOL     OW 8134   2.436   3.793   5.484
 2712SOL    HW1 8135   2.355   3.795   5.535
 2712SOL    HW2 8136   2.433   3.872   5.430
 2713SOL     OW 8137   2.189   3.766   5.144
 2713SOL    HW1 8138   2.242   3.843   5.123
 2713SOL    HW2 8139   2.250   3.705   5.185
 2714SOL     OW 8140   2.828   3.966   5.450
 2714SOL    HW1 8141   2.787   4.006   5.373
 2714SOL    HW2 8142   2.921   3.967   5.430
 2715SOL     OW 8143   2.970   4.410   6.434
 2715SOL    HW1 8144   2.896   4.350   6.437
 2715SOL    HW2 8145   3.045   4.356   6.413
 2716SOL     OW 8146   2.356   4.874   5.716
 2716SOL    HW1 8147   2.280   4.854   5.771
 2716SOL    HW2 8148   2.326   4.856   5.626
 2717SOL     OW 8149   2.924   4.277   4.989
 2717SOL    HW1 8150   2.888   4.358   4.953
 2717SOL    HW2 8151   2.986   4.305   5.056
 2718SOL     OW 8152   1.970   4.285   6.358
 2718SOL    HW1 8153   2.058   4.286   6.322
 2718SOL    HW2 8154   1.968   4.356   6.421
 2719SOL     OW 8155   2.456   3.953   6.121
 2719SOL    HW1 8156   2.488   3.870   6.157
 2719SOL    HW2 8157   2.370   3.964   6.160
 2720SOL     OW 8158   2.761   4.184   5.613
 2720SOL    HW1 8159   2.727   4.248   5.551
 2720SOL    HW2 8160   2.780   4.107   5.560
 2721SOL     OW 8161   2.910   3.771   5.725
 2721SOL    HW1 8162   2.841   3.770   5.659
 2721SOL    HW2 8163   2.885   3.701   5.786
 2722SOL     OW 8164   3.326   4.897   5.839
 2722SOL    HW1 8165   3.267   4.823   5.827
 2722SOL    HW2 8166   3.342   4.930   5.750
 2723SOL     OW 8167   3.361   4.320   5.962
 2723SOL    HW1 8168   3.331   4.230   5.971
 2723SOL    HW2 8169   3.429   4.330   6.028
 2724SOL     OW 8170   3.746   4.562   5.350
 2724SOL    HW1 8171   3.792   4.499   5.406
 2724SOL    HW2 8172   3.716   4.509   5.275
 2725SOL     OW 8173   3.285   4.309   5.051
 2725SOL    HW1 8174   3.232   4.281   5.125
 2725SOL    HW2 8175   3.367   4.261   5.060
 2726SOL     OW 8176   2.419   3.986   5.299
 2726SOL    HW1 8177   2.448   3.932   5.226
 2726SOL    HW2 8178   2.420   4.076   5.265
 2727SOL     OW 8179   3.650   4.946   6.563
 2727SOL    HW1 8180   3.741   4.918   6.549
 2727SOL    HW2 8181   3.657   5.040   6.581
 2728SOL     OW 8182   3.531   4.830   6.049
 2728SOL    HW1 8183   3.530   4.905   6.108
 2728SOL    HW2 8184   3.447   4.834   6.003
 2729SOL     OW 8185   2.808   3.821   6.374
 2729SOL    HW1 8186   2.834   3.802   6.284
 2729SOL    HW2 8187   2.881   3.871   6.410
 2730SOL     OW 8188   2.874   4.843   6.691
 2730SOL    HW1 8189   2.779   4.847   6.698
 2730SOL    HW2 8190   2.890   4.767   6.635
 2731SOL     OW 8191   2.597   4.779   5.338
 2731SOL    HW1 8192   2.587   4.785   5.434
 2731SOL    HW2 8193   2.678   4.730   5.325
 2732SOL     OW 8194   2.304   4.542   6.221
 2732SOL    HW1 8195   2.383   4.550   6.275
 2732SOL    HW2 8196   2.266   4.458   6.248
 2733SOL     OW 8197   3.167   4.113   6.234
 2733SOL    HW1 8198   3.186   4.188   6.292
 2733SOL    HW2 8199   3.082   4.134   6.196
 2734SOL     OW 8200   2.257   4.825   5.472
 2734SOL    HW1 8201   2.255   4.904   5.418
 2734SOL    HW2 8202   2.262   4.754   5.408
 2735SOL     OW 8203   2.458   4.266   5.836
 2735SOL    HW1 8204   2.472   4.330   5.766
 2735SOL    HW2 8205   2.504   4.301   5.912
 2736SOL     OW 8206   3.475   4.366   5.443
 2736SOL    HW1 8207   3.446   4.428   5.510
 2736SOL    HW2 8208   3.522   4.420   5.380
 2737SOL     OW 8209   2.296   4.479   6.568
 2737SOL    HW1 8210   2.364   4.528   6.522
 2737SOL    HW2 8211   2.338   4.396   6.592
 2738SOL     OW 8212   3.480   4.505   6.641
 2738SOL    HW1 8213   3.394   4.546   6.634
 2738SOL    HW2 8214   3.534   4.553   6.579
 2739SOL     OW 8215   2.901   3.834   6.740
 2739SOL    HW1 8216   2.917   3.914   6.688
 2739SOL    HW2 8217   2.940   3.764   6.687
 2740SOL     OW 8218   2.397   3.781   6.711
 2740SOL    HW1 8219   2.355   3.726   6.646
 2740SOL    HW2 8220   2.330   3.843   6.738
 2741SOL     OW 8221   2.469   4.597   6.001
 2741SOL    HW1 8222   2.505   4.686   5.993
 2741SOL    HW2 8223   2.407   4.603   6.075
 2742SOL     OW 8224   3.253   4.591   6.016
 2742SOL    HW1 8225   3.182   4.587   5.952
 2742SOL    HW2 8226   3.286   4.502   6.021
 2743SOL     OW 8227   3.105   4.255   5.246
 2743SOL    HW1 8228   3.111   4.176   5.299
 2743SOL    HW2 8229   3.072   4.322   5.306
 2744SOL     OW 8230   2.201   3.941   6.205
 2744SOL    HW1 8231   2.174   3.973   6.291
 2744SOL    HW2 8232   2.170   3.850   6.202
 2745SOL     OW 8233   2.626   4.364   6.036
 2745SOL    HW1 8234   2.682   4.341   5.962
 2745SOL    HW2 8235   2.599   4.454   6.019
 2746SOL     OW 8236   3.623   4.668   6.825
 2746SOL    HW1 8237   3.574   4.656   6.744
 2746SOL    HW2 8238   3.559   4.704   6.886
 2747SOL     OW 8239   2.198   3.793   5.590
 2747SOL    HW1 8240   2.187   3.882   5.625
 2747SOL    HW2 8241   2.194   3.737   5.667
 2748SOL     OW 8242   3.511   4.096   5.342
 2748SOL    HW1 8243   3.519   4.027   5.409
 2748SOL    HW2 8244   3.470   4.169   5.388
 2749SOL     OW 8245   2.915   4.495   5.937
 2749SOL    HW1 8246   2.929   4.510   6.031
 2749SOL    HW2 8247   2.889   4.403   5.931
 2750SOL     OW 8248   2.242   4.632   6.776
 2750SOL    HW1 8249   2.320   4.667   6.819
 2750SOL    HW2 8250   2.276   4.583   6.701
 2751SOL     OW 8251   3.432   4.005   5.096
 2751SOL    HW1 8252   3.374   3.933   5.121
 2751SOL    HW2 8253   3.454   4.048   5.178
 2752SOL     OW 8254   3.194   4.565   5.011
 2752SOL    HW1 8255   3.230   4.477   5.022
 2752SOL    HW2 8256   3.217   4.589   4.921
 2753SOL     OW 8257   2.210   4.541   5.922
 2753SOL    HW1 8258   2.302   4.568   5.924
 2753SOL    HW2 8259   2.209   4.457   5.968
 2754SOL     OW 8260   2.232   4.240   5.977
 2754SOL    HW1 8261   2.186   4.158   5.959
 2754SOL    HW2 8262   2.305   4.241   5.915
 2755SOL     OW 8263   3.030   4.110   6.647
 2755SOL    HW1 8264   2.991   4.170   6.712
 2755SOL    HW2 8265   3.119   4.142   6.637
 2756SOL     OW 8266   3.052   3.935   6.446
 2756SOL    HW1 8267   3.052   3.998   6.519
 2756SOL    HW2 8268   3.081   3.985   6.370
 2757SOL     OW 8269   1.894   0.035   5.131
 2757SOL    HW1 8270   1.804   0.064   5.142
 2757SOL    HW2 8271   1.900  -0.046   5.181
 2758SOL     OW 8272   2.894   4.527   6.208
 2758SOL    HW1 8273   2.932   4.494   6.289
 2758SOL    HW2 8274   2.803   4.496   6.210
 2759SOL     OW 8275   1.932   4.272   6.085
 2759SOL    HW1 8276   2.015   4.243   6.048
 2759SOL    HW2 8277   1.950   4.286   6.178
 2760SOL     OW 8278   2.082   4.247   6.694
 2760SOL    HW1 8279   2.137   4.213   6.623
 2760SOL    HW2 8280   2.028   4.314   6.652
 2761SOL     OW 8281   3.265   4.676   6.631
 2761SOL    HW1 8282   3.298   4.765   6.644
 2761SOL    HW2 8283   3.271   4.662   6.537
 2762SOL     OW 8284   2.708   4.299   5.302
 2762SOL    HW1 8285   2.711   4.218   5.251
 2762SOL    HW2 8286   2.620   4.334   5.286
 2763SOL     OW 8287   3.545   4.332   6.173
 2763SOL    HW1 8288   3.518   4.266   6.236
 2763SOL    HW2 8289   3.628   4.299   6.137
 2764SOL     OW 8290   2.568   4.192   6.240
 2764SOL    HW1 8291   2.532   4.110   6.208
 2764SOL    HW2 8292   2.586   4.243   6.161
 2765SOL     OW 8293   2.366   4.228   5.162
 2765SOL    HW1 8294   2.421   4.306   5.168
 2765SOL    HW2 8295   2.277   4.262   5.168
 2766SOL     OW 8296   2.049   4.867   6.437
 2766SOL    HW1 8297   2.071   4.807   6.509
 2766SOL    HW2 8298   2.063   4.815   6.358
 2767SOL     OW 8299   3.240   4.785   6.204
 2767SOL    HW1 8300   3.259   4.727   6.130
 2767SOL    HW2 8301   3.155   4.823   6.184
 2768SOL     OW 8302   3.196   4.583   5.281
 2768SOL    HW1 8303   3.112   4.554   5.318
 2768SOL    HW2 8304   3.187   4.571   5.187
 2769SOL     OW 8305   1.983   4.969   5.998
 2769SOL    HW1 8306   1.967   4.982   6.091
 2769SOL    HW2 8307   1.899   4.943   5.962
 2770SOL     OW 8308   2.796   3.815   5.103
 2770SOL    HW1 8309   2.848   3.814   5.023
 2770SOL    HW2 8310   2.852   3.773   5.169
 2771SOL     OW 8311   3.617   3.864   5.492
 2771SOL    HW1 8312   3.688   3.846   5.431
 2771SOL    HW2 8313   3.593   3.779   5.529
 2772SOL     OW 8314   3.171   4.653   5.643
 2772SOL    HW1 8315   3.236   4.582   5.643
 2772SOL    HW2 8316   3.210   4.721   5.588
 2773SOL     OW 8317   3.734   3.903   5.937
 2773SOL    HW1 8318   3.767   3.821   5.899
 2773SOL    HW2 8319   3.642   3.906   5.910
 2774SOL     OW 8320   2.160   4.055   5.692
 2774SOL    HW1 8321   2.080   4.098   5.661
 2774SOL    HW2 8322   2.145   4.041   5.786
 2775SOL     OW 8323   2.714   4.733   6.343
 2775SOL    HW1 8324   2.755   4.734   6.257
 2775SOL    HW2 8325   2.727   4.821   6.377
 2776SOL     OW 8326   2.809   4.640   5.262
 2776SOL    HW1 8327   2.872   4.671   5.197
 2776SOL    HW2 8328   2.850   4.561   5.298
 2777SOL     OW 8329   2.267   0.017   6.461
 2777SOL    HW1 8330   2.249   0.105   6.429
 2777SOL    HW2 8331   2.184  -0.030   6.449
 2778SOL     OW 8332   3.513   0.018   6.242
 2778SOL    HW1 8333   3.561   0.013   6.325
 2778SOL    HW2 8334   3.435   0.069   6.262
 2779SOL     OW 8335   2.932   4.817   5.664
 2779SOL    HW1 8336   2.866   4.769   5.715
 2779SOL    HW2 8337   2.989   4.749   5.628
 2780SOL     OW 8338   2.908   3.966   5.941
 2780SOL    HW1 8339   2.899   3.926   5.854
 2780SOL    HW2 8340   2.904   3.892   6.002
 2781SOL     OW 8341   3.603   4.114   6.353
 2781SOL    HW1 8342   3.674   4.179   6.352
 2781SOL    HW2 8343   3.634   4.045   6.294
 2782SOL     OW 8344   1.999   4.739   6.694
 2782SOL    HW1 8345   1.927   4.711   6.751
 2782SOL    HW2 8346   2.078   4.712   6.741
 2783SOL     OW 8347   2.564   3.931   6.461
 2783SOL    HW1 8348   2.651   3.916   6.424
 2783SOL    HW2 8349   2.578   3.938   6.555
 2784SOL     OW 8350   3.332   4.586   6.371
 2784SOL    HW1 8351   3.281   4.637   6.308
 2784SOL    HW2 8352   3.423   4.597   6.344
 2785SOL     OW 8353   1.965   3.894   5.290
 2785SOL    HW1 8354   1.952   3.973   5.237
 2785SOL    HW2 8355   2.051   3.862   5.264
 2786SOL     OW 8356   2.506   4.570   6.401
 2786SOL    HW1 8357   2.563   4.646   6.387
 2786SOL    HW2 8358   2.566   4.495   6.406
 2787SOL     OW 8359   2.608   4.294   6.680
 2787SOL    HW1 8360   2.631   4.354   6.750
 2787SOL    HW2 8361   2.667   4.219   6.692
 2788SOL     OW 8362   3.342   4.943   6.607
 2788SOL    HW1 8363   3.342   4.939   6.703
 2788SOL    HW2 8364   3.435   4.944   6.583
 2789SOL     OW 8365   3.567   4.613   6.226
 2789SOL    HW1 8366   3.544   4.528   6.187
 2789SOL    HW2 8367   3.566   4.674   6.153
 2790SOL     OW 8368   3.117   4.053   5.421
 2790SOL    HW1 8369   3.182   3.983   5.414
 2790SOL    HW2 8370   3.140   4.099   5.502
 2791SOL     OW 8371   2.487   4.474   5.625
 2791SOL    HW1 8372   2.531   4.556   5.605
 2791SOL    HW2 8373   2.405   4.478   5.575
 2792SOL     OW 8374   3.669   4.075   6.614
 2792SOL    HW1 8375   3.649   4.098   6.523
 2792SOL    HW2 8376   3.589   4.034   6.647
 2793SOL     OW 8377   3.624   4.663   6.487
 2793SOL    HW1 8378   3.658   4.751   6.498
 2793SOL    HW2 8379   3.617   4.651   6.393
 2794SOL     OW 8380   2.754   4.686   5.831
 2794SOL    HW1 8381   2.804   4.621   5.880
 2794SOL    HW2 8382   2.723   4.748   5.898
 2795SOL     OW 8383   2.975   4.714   5.058
 2795SOL    HW1 8384   2.957   4.761   4.977
 2795SOL    HW2 8385   3.053   4.662   5.038
 2796SOL     OW 8386   1.962   4.957   5.622
 2796SOL    HW1 8387   1.975   4.921   5.709
 2796SOL    HW2 8388   2.047   4.947   5.579
 2797SOL     OW 8389   3.714   3.921   6.201
 2797SOL    HW1 8390   3.715   3.832   6.235
 2797SOL    HW2 8391   3.721   3.910   6.106
 2798SOL     OW 8392   2.321   4.155   5.491
 2798SOL    HW1 8393   2.348   4.082   5.435
 2798SOL    HW2 8394   2.283   4.113   5.568
 2799SOL     OW 8395   2.212   4.277   6.253
 2799SOL    HW1 8396   2.252   4.218   6.317
 2799SOL    HW2 8397   2.248   4.249   6.169
 2800SOL     OW 8398   3.319   3.944   6.084
 2800SOL    HW1 8399   3.365   3.881   6.140
 2800SOL    HW2 8400   3.271   4.000   6.145
 2801SOL     OW 8401   2.894   3.762   6.124
 2801SOL    HW1 8402   2.838   3.691   6.094
 2801SOL    HW2 8403   2.982   3.724   6.124
 2802SOL     OW 8404   2.648   0.057   5.274
 2802SOL    HW1 8405   2.614  -0.031   5.292
 2802SOL    HW2 8406   2.737   0.056   5.310
 2803SOL     OW 8407   3.246   3.781   5.139
 2803SOL    HW1 8408   3.275   3.740   5.058
 2803SOL    HW2 8409   3.159   3.743   5.156
 2804SOL     OW 8410   3.193   4.183   5.661
 2804SOL    HW1 8411   3.136   4.259   5.669
 2804SOL    HW2 8412   3.203   4.150   5.751
 2805SOL     OW 8413   3.485   3.948   5.853
 2805SOL    HW1 8414   3.405   3.953   5.904
 2805SOL    HW2 8415   3.485   4.028   5.800
 2806SOL     OW 8416   2.124   4.356   6.948
 2806SOL    HW1 8417   2.033   4.354   6.978
 2806SOL    HW2 8418   2.120   4.320   6.859
 2807SOL     OW 8419   2.118   4.004   7.826
 2807SOL    HW1 8420   2.148   3.985   7.915
 2807SOL    HW2 8421   2.032   3.962   7.820
 2808SOL     OW 8422   1.909   4.102   7.476
 2808SOL    HW1 8423   1.828   4.134   7.516
 2808SOL    HW2 8424   1.882   4.028   7.422
 2809SOL     OW 8425   3.027   4.431   7.548
 2809SOL    HW1 8426   3.080   4.509   7.528
 2809SOL    HW2 8427   2.973   4.458   7.623
 2810SOL     OW 8428   3.649   4.337   7.065
 2810SOL    HW1 8429   3.636   4.322   6.972
 2810SOL    HW2 8430   3.619   4.256   7.107
 2811SOL     OW 8431   2.665   4.875   7.863
 2811SOL    HW1 8432   2.585   4.894   7.911
 2811SOL    HW2 8433   2.687   4.958   7.820
 2812SOL     OW 8434   2.744   4.526   8.655
 2812SOL    HW1 8435   2.740   4.600   8.716
 2812SOL    HW2 8436   2.765   4.565   8.571
 2813SOL     OW 8437   2.577   4.739   7.496
 2813SOL    HW1 8438   2.642   4.727   7.566
 2813SOL    HW2 8439   2.511   4.797   7.535
 2814SOL     OW 8440   2.583   4.888   8.634
 2814SOL    HW1 8441   2.637   4.965   8.649
 2814SOL    HW2 8442   2.500   4.922   8.599
 2815SOL     OW 8443   2.332   4.123   8.332
 2815SOL    HW1 8444   2.408   4.065   8.339
 2815SOL    HW2 8445   2.257   4.064   8.336
 2816SOL     OW 8446   3.498   4.177   7.570
 2816SOL    HW1 8447   3.427   4.222   7.523
 2816SOL    HW2 8448   3.541   4.245   7.620
 2817SOL     OW 8449   2.135   4.819   7.718
 2817SOL    HW1 8450   2.144   4.739   7.770
 2817SOL    HW2 8451   2.082   4.877   7.772
 2818SOL     OW 8452   2.496   4.694   6.957
 2818SOL    HW1 8453   2.511   4.773   6.905
 2818SOL    HW2 8454   2.543   4.711   7.039
 2819SOL     OW 8455   3.488   3.843   8.311
 2819SOL    HW1 8456   3.470   3.911   8.247
 2819SOL    HW2 8457   3.484   3.887   8.396
 2820SOL     OW 8458   2.013   4.373   7.396
 2820SOL    HW1 8459   1.973   4.289   7.415
 2820SOL    HW2 8460   2.010   4.421   7.479
 2821SOL     OW 8461   3.583   4.652   7.450
 2821SOL    HW1 8462   3.674   4.623   7.450
 2821SOL    HW2 8463   3.575   4.708   7.373
 2822SOL     OW 8464   3.535   4.839   7.264
 2822SOL    HW1 8465   3.618   4.842   7.217
 2822SOL    HW2 8466   3.552   4.883   7.347
 2823SOL     OW 8467   2.008   4.466   8.426
 2823SOL    HW1 8468   2.092   4.461   8.471
 2823SOL    HW2 8469   1.993   4.559   8.413
 2824SOL     OW 8470   3.184   4.957   8.255
 2824SOL    HW1 8471   3.225   4.888   8.203
 2824SOL    HW2 8472   3.237   4.960   8.335
 2825SOL     OW 8473   2.701   3.731   7.334
 2825SOL    HW1 8474   2.738   3.818   7.328
 2825SOL    HW2 8475   2.606   3.745   7.342
 2826SOL     OW 8476   2.090   4.705   8.096
 2826SOL    HW1 8477   2.172   4.659   8.083
 2826SOL    HW2 8478   2.022   4.640   8.077
 2827SOL     OW 8479   3.421   4.727   7.022
 2827SOL    HW1 8480   3.358   4.657   7.039
 2827SOL    HW2 8481   3.461   4.745   7.107
 2828SOL     OW 8482   2.212   3.980   8.632
 2828SOL    HW1 8483   2.275   4.052   8.642
 2828SOL    HW2 8484   2.129   4.017   8.663
 2829SOL     OW 8485   2.488   4.456   7.101
 2829SOL    HW1 8486   2.511   4.527   7.040
 2829SOL    HW2 8487   2.418   4.492   7.154
 2830SOL     OW 8488   3.175   4.074   7.773
 2830SOL    HW1 8489   3.092   4.026   7.768
 2830SOL    HW2 8490   3.229   4.021   7.831
 2831SOL     OW 8491   2.698   4.336   8.295
 2831SOL    HW1 8492   2.656   4.327   8.380
 2831SOL    HW2 8493   2.648   4.279   8.237
 2832SOL     OW 8494   3.286   4.198   8.507
 2832SOL    HW1 8495   3.273   4.238   8.593
 2832SOL    HW2 8496   3.361   4.139   8.519
 2833SOL     OW 8497   2.863   4.620   8.407
 2833SOL    HW1 8498   2.909   4.542   8.376
 2833SOL    HW2 8499   2.813   4.650   8.331
 2834SOL     OW 8500   2.885   4.140   8.075
 2834SOL    HW1 8501   2.808   4.169   8.124
 2834SOL    HW2 8502   2.849   4.091   8.001
 2835SOL     OW 8503   2.937   4.429   7.261
 2835SOL    HW1 8504   2.955   4.424   7.355
 2835SOL    HW2 8505   2.854   4.382   7.250
 2836SOL     OW 8506   1.970   4.541   7.617
 2836SOL    HW1 8507   2.064   4.532   7.636
 2836SOL    HW2 8508   1.949   4.630   7.644
 2837SOL     OW 8509   2.758   4.076   7.028
 2837SOL    HW1 8510   2.816   4.134   6.979
 2837SOL    HW2 8511   2.781   3.988   6.997
 2838SOL     OW 8512   3.610   4.313   8.664
 2838SOL    HW1 8513   3.586   4.397   8.626
 2838SOL    HW2 8514   3.611   4.252   8.590
 2839SOL     OW 8515   3.257   4.869   7.378
 2839SOL    HW1 8516   3.335   4.848   7.327
 2839SOL    HW2 8517   3.212   4.937   7.327
 2840SOL     OW 8518   2.442   3.923   7.718
 2840SOL    HW1 8519   2.439   3.927   7.814
 2840SOL    HW2 8520   2.445   4.015   7.691
 2841SOL     OW 8521   3.689   4.796   7.705
 2841SOL    HW1 8522   3.626   4.780   7.634
 2841SOL    HW2 8523   3.635   4.802   7.784
 2842SOL     OW 8524   2.214   4.673   7.076
 2842SOL    HW1 8525   2.293   4.706   7.032
 2842SOL    HW2 8526   2.190   4.595   7.027
 2843SOL     OW 8527   3.353   4.463   7.560
 2843SOL    HW1 8528   3.349   4.405   7.636
 2843SOL    HW2 8529   3.429   4.519   7.577
 2844SOL     OW 8530   2.094   4.013   8.331
 2844SOL    HW1 8531   2.017   4.069   8.322
 2844SOL    HW2 8532   2.081   3.967   8.414
 2845SOL     OW 8533   3.293   3.837   7.259
 2845SOL    HW1 8534   3.274   3.803   7.172
 2845SOL    HW2 8535   3.388   3.849   7.260
 2846SOL     OW 8536   2.276   4.429   7.314
 2846SOL    HW1 8537   2.314   4.341   7.312
 2846SOL    HW2 8538   2.186   4.415   7.342
 2847SOL     OW 8539   3.437   3.955   8.560
 2847SOL    HW1 8540   3.435   3.982   8.652
 2847SOL    HW2 8541   3.371   3.886   8.554
 2848SOL     OW 8542   2.508   3.853   6.949
 2848SOL    HW1 8543   2.600   3.826   6.953
 2848SOL    HW2 8544   2.480   3.830   6.861
 2849SOL     OW 8545   2.673   3.993   8.581
 2849SOL    HW1 8546   2.736   3.935   8.623
 2849SOL    HW2 8547   2.606   4.009   8.649
 2850SOL     OW 8548   3.241   4.319   8.266
 2850SOL    HW1 8549   3.272   4.281   8.348
 2850SOL    HW2 8550   3.271   4.410   8.268
 2851SOL     OW 8551   2.816   4.234   7.733
 2851SOL    HW1 8552   2.792   4.221   7.641
 2851SOL    HW2 8553   2.859   4.152   7.759
 2852SOL     OW 8554   2.436   3.793   7.346
 2852SOL    HW1 8555   2.355   3.795   7.397
 2852SOL    HW2 8556   2.433   3.872   7.292
 2853SOL     OW 8557   2.189   3.765   7.006
 2853SOL    HW1 8558   2.241   3.843   6.985
 2853SOL    HW2 8559   2.251   3.705   7.047
 2854SOL     OW 8560   2.828   3.967   7.312
 2854SOL    HW1 8561   2.787   4.006   7.235
 2854SOL    HW2 8562   2.921   3.966   7.292
 2855SOL     OW 8563   2.970   4.410   8.296
 2855SOL    HW1 8564   2.896   4.350   8.299
 2855SOL    HW2 8565   3.045   4.356   8.275
 2856SOL     OW 8566   2.356   4.874   7.578
 2856SOL    HW1 8567   2.280   4.854   7.633
 2856SOL    HW2 8568   2.326   4.856   7.488
 2857SOL     OW 8569   2.926   4.278   6.848
 2857SOL    HW1 8570   2.886   4.359   6.816
 2857SOL    HW2 8571   2.984   4.305   6.918
 2858SOL     OW 8572   1.970   4.285   8.220
 2858SOL    HW1 8573   2.058   4.286   8.184
 2858SOL    HW2 8574   1.968   4.356   8.283
 2859SOL     OW 8575   2.456   3.953   7.983
 2859SOL    HW1 8576   2.488   3.870   8.019
 2859SOL    HW2 8577   2.370   3.964   8.022
 2860SOL     OW 8578   2.761   4.184   7.475
 2860SOL    HW1 8579   2.727   4.248   7.413
 2860SOL    HW2 8580   2.781   4.107   7.422
 2861SOL     OW 8581   2.909   3.771   7.587
 2861SOL    HW1 8582   2.841   3.770   7.521
 2861SOL    HW2 8583   2.885   3.701   7.648
 2862SOL     OW 8584   3.326   4.897   7.701
 2862SOL    HW1 8585   3.267   4.823   7.689
 2862SOL    HW2 8586   3.342   4.930   7.612
 2863SOL     OW 8587   3.361   4.320   7.824
 2863SOL    HW1 8588   3.331   4.230   7.833
 2863SOL    HW2 8589   3.429   4.330   7.890
 2864SOL     OW 8590   3.745   4.560   7.212
 2864SOL    HW1 8591   3.791   4.497   7.268
 2864SOL    HW2 8592   3.716   4.508   7.137
 2865SOL     OW 8593   3.283   4.304   6.909
 2865SOL    HW1 8594   3.233   4.282   6.988
 2865SOL    HW2 8595   3.369   4.265   6.924
 2866SOL     OW 8596   2.420   3.986   7.161
 2866SOL    HW1 8597   2.447   3.932   7.087
 2866SOL    HW2 8598   2.419   4.076   7.127
 2867SOL     OW 8599   3.650   4.946   8.425
 2867SOL    HW1 8600   3.741   4.918   8.411
 2867SOL    HW2 8601   3.657   5.040   8.443
 2868SOL     OW 8602   3.531   4.830   7.911
 2868SOL    HW1 8603   3.530   4.905   7.970
 2868SOL    HW2 8604   3.447   4.834   7.865
 2869SOL     OW 8605   2.808   3.821   8.236
 2869SOL    HW1 8606   2.834   3.802   8.146
 2869SOL    HW2 8607   2.881   3.871   8.272
 2870SOL     OW 8608   2.874   4.843   8.553
 2870SOL    HW1 8609   2.779   4.847   8.560
 2870SOL    HW2 8610   2.890   4.767   8.497
 2871SOL     OW 8611   2.596   4.778   7.201
 2871SOL    HW1 8612   2.588   4.785   7.296
 2871SOL    HW2 8613   2.678   4.731   7.187
 2872SOL     OW 8614   2.304   4.542   8.083
 2872SOL    HW1 8615   2.383   4.550   8.137
 2872SOL    HW2 8616   2.266   4.458   8.110
 2873SOL     OW 8617   3.167   4.113   8.096
 2873SOL    HW1 8618   3.186   4.188   8.154
 2873SOL    HW2 8619   3.082   4.134   8.058
 2874SOL     OW 8620   2.256   4.825   7.333
 2874SOL    HW1 8621   2.255   4.904   7.281
 2874SOL    HW2 8622   2.263   4.754   7.270
 2875SOL     OW 8623   2.458   4.266   7.698
 2875SOL    HW1 8624   2.472   4.330   7.628
 2875SOL    HW2 8625   2.504   4.301   7.774
 2876SOL     OW 8626   3.475   4.366   7.306
 2876SOL    HW1 8627   3.446   4.429   7.372
 2876SOL    HW2 8628   3.522   4.420   7.242
 2877SOL     OW 8629   2.296   4.479   8.430
 2877SOL    HW1 8630   2.364   4.528   8.384
 2877SOL    HW2 8631   2.338   4.396   8.454
 2878SOL     OW 8632   3.480   4.505   8.503
 2878SOL    HW1 8633   3.394   4.546   8.496
 2878SOL    HW2 8634   3.534   4.553   8.441
 2879SOL     OW 8635   2.901   3.834   8.602
 2879SOL    HW1 8636   2.917   3.914   8.550
 2879SOL    HW2 8637   2.940   3.764   8.549
 2880SOL     OW 8638   2.397   3.781   8.573
 2880SOL    HW1 8639   2.355   3.726   8.507
 2880SOL    HW2 8640   2.330   3.843   8.600
 2881SOL     OW 8641   2.469   4.597   7.863
 2881SOL    HW1 8642   2.505   4.686   7.855
 2881SOL    HW2 8643   2.407   4.603   7.936
 2882SOL     OW 8644   3.253   4.591   7.878
 2882SOL    HW1 8645   3.182   4.587   7.814
 2882SOL    HW2 8646   3.286   4.502   7.883
 2883SOL     OW 8647   3.105   4.255   7.107
 2883SOL    HW1 8648   3.111   4.176   7.161
 2883SOL    HW2 8649   3.072   4.322   7.167
 2884SOL     OW 8650   2.201   3.941   8.067
 2884SOL    HW1 8651   2.174   3.973   8.153
 2884SOL    HW2 8652   2.170   3.850   8.064
 2885SOL     OW 8653   2.626   4.364   7.898
 2885SOL    HW1 8654   2.682   4.341   7.824
 2885SOL    HW2 8655   2.599   4.454   7.881
 2886SOL     OW 8656   3.623   4.668   8.687
 2886SOL    HW1 8657   3.574   4.656   8.606
 2886SOL    HW2 8658   3.559   4.704   8.748
 2887SOL     OW 8659   2.198   3.793   7.452
 2887SOL    HW1 8660   2.187   3.882   7.487
 2887SOL    HW2 8661   2.194   3.737   7.529
 2888SOL     OW 8662   3.511   4.095   7.204
 2888SOL    HW1 8663   3.519   4.027   7.271
 2888SOL    HW2 8664   3.471   4.169   7.250
 2889SOL     OW 8665   2.915   4.495   7.799
 2889SOL    HW1 8666   2.929   4.510   7.893
 2889SOL    HW2 8667   2.889   4.403   7.793
 2890SOL     OW 8668   2.242   4.632   8.637
 2890SOL    HW1 8669   2.320   4.666   8.681
 2890SOL    HW2 8670   2.276   4.583   8.563
 2891SOL     OW 8671   3.430   4.005   6.958
 2891SOL    HW1 8672   3.374   3.932   6.985
 2891SOL    HW2 8673   3.455   4.048   7.040
 2892SOL     OW 8674   3.195   4.565   6.874
 2892SOL    HW1 8675   3.231   4.477   6.883
 2892SOL    HW2 8676   3.216   4.590   6.784
 2893SOL     OW 8677   2.210   4.541   7.784
 2893SOL    HW1 8678   2.302   4.568   7.786
 2893SOL    HW2 8679   2.209   4.457   7.830
 2894SOL     OW 8680   2.232   4.240   7.839
 2894SOL    HW1 8681   2.186   4.158   7.821
 2894SOL    HW2 8682   2.305   4.241   7.777
 2895SOL     OW 8683   3.030   4.110   8.509
 2895SOL    HW1 8684   2.991   4.170   8.574
 2895SOL    HW2 8685   3.119   4.142   8.499
 2896SOL     OW 8686   3.052   3.935   8.309
 2896SOL    HW1 8687   3.052   3.998   8.381
 2896SOL    HW2 8688   3.081   3.985   8.232
 2897SOL     OW 8689   1.894   0.035   6.992
 2897SOL    HW1 8690   1.803   0.064   7.005
 2897SOL    HW2 8691   1.901  -0.045   7.044
 2898SOL     OW 8692   2.894   4.527   8.070
 2898SOL    HW1 8693   2.932   4.494   8.151
 2898SOL    HW2 8694   2.803   4.496   8.072
 2899SOL     OW 8695   1.932   4.272   7.947
 2899SOL    HW1 8696   2.015   4.243   7.910
 2899SOL    HW2 8697   1.950   4.286   8.040
 2900SOL     OW 8698   2.082   4.247   8.556
 2900SOL    HW1 8699   2.137   4.213   8.485
 2900SOL    HW2 8700   2.028   4.314   8.514
 2901SOL     OW 8701   3.265   4.676   8.493
 2901SOL    HW1 8702   3.298   4.765   8.506
 2901SOL    HW2 8703   3.271   4.662   8.399
 2902SOL     OW 8704   2.708   4.299   7.164
 2902SOL    HW1 8705   2.711   4.218   7.113
 2902SOL    HW2 8706   2.620   4.334   7.148
 2903SOL     OW 8707   3.545   4.332   8.035
 2903SOL    HW1 8708   3.518   4.266   8.098
 2903SOL    HW2 8709   3.628   4.299   7.999
 2904SOL     OW 8710   2.568   4.192   8.102
 2904SOL    HW1 8711   2.532   4.110   8.070
 2904SOL    HW2 8712   2.586   4.243   8.023
 2905SOL     OW 8713   2.366   4.228   7.023
 2905SOL    HW1 8714   2.421   4.306   7.030
 2905SOL    HW2 8715   2.277   4.261   7.029
 2906SOL     OW 8716   2.049   4.867   8.299
 2906SOL    HW1 8717   2.071   4.807   8.371
 2906SOL    HW2 8718   2.063   4.815   8.220
 2907SOL     OW 8719   3.240   4.785   8.066
 2907SOL    HW1 8720   3.259   4.727   7.992
 2907SOL    HW2 8721   3.155   4.823   8.046
 2908SOL     OW 8722   3.196   4.582   7.143
 2908SOL    HW1 8723   3.112   4.555   7.179
 2908SOL    HW2 8724   3.186   4.571   7.049
 2909SOL     OW 8725   1.983   4.969   7.860
 2909SOL    HW1 8726   1.967   4.982   7.953
 2909SOL    HW2 8727   1.899   4.943   7.824
 2910SOL     OW 8728   3.617   3.864   7.355
 2910SOL    HW1 8729   3.688   3.846   7.293
 2910SOL    HW2 8730   3.593   3.779   7.391
 2911SOL     OW 8731   3.171   4.653   7.505
 2911SOL    HW1 8732   3.236   4.582   7.505
 2911SOL    HW2 8733   3.210   4.721   7.450
 2912SOL     OW 8734   3.734   3.903   7.799
 2912SOL    HW1 8735   3.767   3.821   7.761
 2912SOL    HW2 8736   3.642   3.906   7.772
 2913SOL     OW 8737   2.160   4.055   7.554
 2913SOL    HW1 8738   2.080   4.098   7.523
 2913SOL    HW2 8739   2.145   4.041   7.648
 2914SOL     OW 8740   2.714   4.733   8.205
 2914SOL    HW1 8741   2.755   4.734   8.119
 2914SOL    HW2 8742   2.727   4.821   8.239
 2915SOL     OW 8743   2.809   4.639   7.123
 2915SOL    HW1 8744   2.872   4.672   7.059
 2915SOL    HW2 8745   2.850   4.561   7.160
 2916SOL     OW 8746   2.267   0.017   8.323
 2916SOL    HW1 8747   2.249   0.105   8.291
 2916SOL    HW2 8748   2.184  -0.030   8.311
 2917SOL     OW 8749   3.513   0.018   8.104
 2917SOL    HW1 8750   3.561   0.013   8.187
 2917SOL    HW2 8751   3.435   0.069   8.124
 2918SOL     OW 8752   2.932   4.817   7.527
 2918SOL    HW1 8753   2.866   4.769   7.577
 2918SOL    HW2 8754   2.989   4.750   7.489
 2919SOL     OW 8755   2.908   3.966   7.803
 2919SOL    HW1 8756   2.899   3.926   7.716
 2919SOL    HW2 8757   2.904   3.892   7.864
 2920SOL     OW 8758   3.603   4.114   8.215
 2920SOL    HW1 8759   3.674   4.179   8.214
 2920SOL    HW2 8760   3.633   4.045   8.156
 2921SOL     OW 8761   1.999   4.739   8.556
 2921SOL    HW1 8762   1.927   4.711   8.613
 2921SOL    HW2 8763   2.078   4.712   8.603
 2922SOL     OW 8764   2.564   3.931   8.323
 2922SOL    HW1 8765   2.651   3.916   8.286
 2922SOL    HW2 8766   2.578   3.938   8.417
 2923SOL     OW 8767   1.968   4.074   6.867
 2923SOL    HW1 8768   1.881   4.049   6.836
 2923SOL    HW2 8769   1.994   4.147   6.811
 2924SOL     OW 8770   3.332   4.586   8.233
 2924SOL    HW1 8771   3.281   4.637   8.170
 2924SOL    HW2 8772   3.423   4.597   8.206
 2925SOL     OW 8773   1.964   3.893   7.151
 2925SOL    HW1 8774   1.952   3.973   7.098
 2925SOL    HW2 8775   2.052   3.863   7.127
 2926SOL     OW 8776   2.506   4.570   8.263
 2926SOL    HW1 8777   2.563   4.646   8.249
 2926SOL    HW2 8778   2.566   4.495   8.268
 2927SOL     OW 8779   2.608   4.294   8.542
 2927SOL    HW1 8780   2.631   4.354   8.612
 2927SOL    HW2 8781   2.667   4.219   8.554
 2928SOL     OW 8782   3.342   4.943   8.469
 2928SOL    HW1 8783   3.342   4.939   8.565
 2928SOL    HW2 8784   3.435   4.944   8.445
 2929SOL     OW 8785   3.567   4.613   8.088
 2929SOL    HW1 8786   3.544   4.528   8.049
 2929SOL    HW2 8787   3.566   4.674   8.015
 2930SOL     OW 8788   3.118   4.054   7.283
 2930SOL    HW1 8789   3.181   3.983   7.276
 2930SOL    HW2 8790   3.140   4.099   7.364
 2931SOL     OW 8791   2.487   4.474   7.487
 2931SOL    HW1 8792   2.531   4.556   7.467
 2931SOL    HW2 8793   2.405   4.478   7.437
 2932SOL     OW 8794   3.669   4.075   8.476
 2932SOL    HW1 8795   3.649   4.098   8.385
 2932SOL    HW2 8796   3.589   4.034   8.509
 2933SOL     OW 8797   3.624   4.663   8.349
 2933SOL    HW1 8798   3.658   4.751   8.360
 2933SOL    HW2 8799   3.617   4.651   8.255
 2934SOL     OW 8800   2.754   4.686   7.693
 2934SOL    HW1 8801   2.804   4.621   7.742
 2934SOL    HW2 8802   2.723   4.748   7.760
 2935SOL     OW 8803   2.975   4.713   6.920
 2935SOL    HW1 8804   2.957   4.763   6.841
 2935SOL    HW2 8805   3.053   4.662   6.899
 2936SOL     OW 8806   1.962   4.958   7.484
 2936SOL    HW1 8807   1.975   4.921   7.571
 2936SOL    HW2 8808   2.047   4.946   7.441
 2937SOL     OW 8809   3.714   3.921   8.063
 2937SOL    HW1 8810   3.714   3.832   8.097
 2937SOL    HW2 8811   3.721   3.910   7.968
 2938SOL     OW 8812   2.322   4.155   7.353
 2938SOL    HW1 8813   2.348   4.082   7.297
 2938SOL    HW2 8814   2.283   4.113   7.430
 2939SOL     OW 8815   2.212   4.277   8.115
 2939SOL    HW1 8816   2.252   4.218   8.179
 2939SOL    HW2 8817   2.248   4.249   8.031
 2940SOL     OW 8818   3.319   3.944   7.946
 2940SOL    HW1 8819   3.365   3.881   8.002
 2940SOL    HW2 8820   3.271   4.000   8.007
 2941SOL     OW 8821   2.894   3.762   7.986
 2941SOL    HW1 8822   2.838   3.691   7.956
 2941SOL    HW2 8823   2.982   3.724   7.985
 2942SOL     OW 8824   2.676   0.049   7.111
 2942SOL    HW1 8825   2.619  -0.019   7.147
 2942SOL    HW2 8826   2.748   0.056   7.173
 2943SOL     OW 8827   3.246   3.781   7.001
 2943SOL    HW1 8828   3.274   3.739   6.919
 2943SOL    HW2 8829   3.159   3.744   7.018
 2944SOL     OW 8830   3.193   4.183   7.523
 2944SOL    HW1 8831   3.136   4.259   7.531
 2944SOL    HW2 8832   3.203   4.150   7.613
 2945SOL     OW 8833   3.485   3.948   7.715
 2945SOL    HW1 8834   3.405   3.953   7.766
 2945SOL    HW2 8835   3.485   4.028   7.662
 2946SOL     OW 8836   1.931   4.807   7.136
 2946SOL    HW1 8837   2.025   4.795   7.124
 2946SOL    HW2 8838   1.899   4.720   7.162
 2947SOL     OW 8839   2.124   4.356   8.810
 2947SOL    HW1 8840   2.033   4.354   8.840
 2947SOL    HW2 8841   2.120   4.320   8.721
 2948SOL     OW 8842   2.118   4.004   9.688
 2948SOL    HW1 8843   2.149   3.986   9.776
 2948SOL    HW2 8844   2.033   3.961   9.682
 2949SOL     OW 8845   1.909   4.102   9.338
 2949SOL    HW1 8846   1.828   4.134   9.378
 2949SOL    HW2 8847   1.882   4.028   9.284
 2950SOL     OW 8848   3.027   4.431   9.410
 2950SOL    HW1 8849   3.080   4.509   9.391
 2950SOL    HW2 8850   2.973   4.458   9.485
 2951SOL     OW 8851   3.649   4.337   8.927
 2951SOL    HW1 8852   3.636   4.322   8.834
 2951SOL    HW2 8853   3.619   4.256   8.969
 2952SOL     OW 8854   2.665   4.875   9.724
 2952SOL    HW1 8855   2.585   4.894   9.774
 2952SOL    HW2 8856   2.688   4.958   9.682
 2953SOL     OW 8857   2.577   4.739   9.358
 2953SOL    HW1 8858   2.642   4.727   9.428
 2953SOL    HW2 8859   2.511   4.797   9.397
 2954SOL     OW 8860   3.497   4.177   9.432
 2954SOL    HW1 8861   3.427   4.222   9.385
 2954SOL    HW2 8862   3.541   4.246   9.481
 2955SOL     OW 8863   2.135   4.819   9.580
 2955SOL    HW1 8864   2.144   4.739   9.632
 2955SOL    HW2 8865   2.082   4.877   9.634
 2956SOL     OW 8866   2.496   4.694   8.820
 2956SOL    HW1 8867   2.511   4.773   8.767
 2956SOL    HW2 8868   2.543   4.711   8.901
 2957SOL     OW 8869   2.013   4.373   9.258
 2957SOL    HW1 8870   1.973   4.289   9.277
 2957SOL    HW2 8871   2.010   4.421   9.341
 2958SOL     OW 8872   3.583   4.652   9.312
 2958SOL    HW1 8873   3.674   4.623   9.312
 2958SOL    HW2 8874   3.575   4.708   9.235
 2959SOL     OW 8875   3.535   4.839   9.126
 2959SOL    HW1 8876   3.618   4.842   9.079
 2959SOL    HW2 8877   3.552   4.883   9.209
 2960SOL     OW 8878   2.701   3.731   9.196
 2960SOL    HW1 8879   2.738   3.818   9.190
 2960SOL    HW2 8880   2.606   3.745   9.204
 2961SOL     OW 8881   2.090   4.705   9.957
 2961SOL    HW1 8882   2.172   4.659   9.945
 2961SOL    HW2 8883   2.022   4.640   9.939
 2962SOL     OW 8884   3.421   4.727   8.884
 2962SOL    HW1 8885   3.358   4.657   8.901
 2962SOL    HW2 8886   3.461   4.745   8.969
 2963SOL     OW 8887   2.488   4.456   8.963
 2963SOL    HW1 8888   2.511   4.527   8.902
 2963SOL    HW2 8889   2.418   4.492   9.016
 2964SOL     OW 8890   3.175   4.074   9.636
 2964SOL    HW1 8891   3.092   4.027   9.629
 2964SOL    HW2 8892   3.229   4.020   9.692
 2965SOL     OW 8893   2.937   4.429   9.123
 2965SOL    HW1 8894   2.955   4.424   9.217
 2965SOL    HW2 8895   2.854   4.382   9.112
 2966SOL     OW 8896   1.970   4.541   9.479
 2966SOL    HW1 8897   2.064   4.532   9.498
 2966SOL    HW2 8898   1.949   4.630   9.506
 2967SOL     OW 8899   2.758   4.076   8.890
 2967SOL    HW1 8900   2.816   4.134   8.841
 2967SOL    HW2 8901   2.781   3.988   8.859
 2968SOL     OW 8902   3.257   4.869   9.240
 2968SOL    HW1 8903   3.335   4.848   9.189
 2968SOL    HW2 8904   3.212   4.937   9.189
 2969SOL     OW 8905   2.443   3.923   9.581
 2969SOL    HW1 8906   2.437   3.926   9.677
 2969SOL    HW2 8907   2.445   4.015   9.554
 2970SOL     OW 8908   3.689   4.796   9.567
 2970SOL    HW1 8909   3.626   4.779   9.497
 2970SOL    HW2 8910   3.635   4.802   9.646
 2971SOL     OW 8911   2.214   4.673   8.938
 2971SOL    HW1 8912   2.293   4.706   8.894
 2971SOL    HW2 8913   2.190   4.595   8.889
 2972SOL     OW 8914   3.354   4.463   9.422
 2972SOL    HW1 8915   3.349   4.405   9.498
 2972SOL    HW2 8916   3.429   4.519   9.439
 2973SOL     OW 8917   3.293   3.837   9.121
 2973SOL    HW1 8918   3.274   3.803   9.034
 2973SOL    HW2 8919   3.388   3.849   9.122
 2974SOL     OW 8920   2.276   4.429   9.176
 2974SOL    HW1 8921   2.314   4.341   9.174
 2974SOL    HW2 8922   2.186   4.415   9.204
 2975SOL     OW 8923   2.508   3.853   8.811
 2975SOL    HW1 8924   2.600   3.826   8.815
 2975SOL    HW2 8925   2.480   3.830   8.723
 2976SOL     OW 8926   2.817   4.234   9.595
 2976SOL    HW1 8927   2.792   4.220   9.503
 2976SOL    HW2 8928   2.859   4.152   9.621
 2977SOL     OW 8929   2.436   3.793   9.208
 2977SOL    HW1 8930   2.355   3.795   9.259
 2977SOL    HW2 8931   2.433   3.872   9.154
 2978SOL     OW 8932   2.189   3.765   8.868
 2978SOL    HW1 8933   2.241   3.843   8.847
 2978SOL    HW2 8934   2.251   3.705   8.909
 2979SOL     OW 8935   2.828   3.967   9.174
 2979SOL    HW1 8936   2.787   4.006   9.097
 2979SOL    HW2 8937   2.921   3.966   9.154
 2980SOL     OW 8938   2.356   4.874   9.440
 2980SOL    HW1 8939   2.280   4.854   9.495
 2980SOL    HW2 8940   2.326   4.856   9.351
 2981SOL     OW 8941   2.926   4.278   8.710
 2981SOL    HW1 8942   2.886   4.359   8.678
 2981SOL    HW2 8943   2.984   4.305   8.780
 2982SOL     OW 8944   2.761   4.184   9.337
 2982SOL    HW1 8945   2.727   4.248   9.275
 2982SOL    HW2 8946   2.781   4.107   9.284
 2983SOL     OW 8947   2.909   3.771   9.449
 2983SOL    HW1 8948   2.841   3.770   9.383
 2983SOL    HW2 8949   2.885   3.701   9.510
 2984SOL     OW 8950   3.326   4.898   9.563
 2984SOL    HW1 8951   3.268   4.823   9.551
 2984SOL    HW2 8952   3.342   4.929   9.474
 2985SOL     OW 8953   3.360   4.320   9.686
 2985SOL    HW1 8954   3.331   4.230   9.695
 2985SOL    HW2 8955   3.429   4.331   9.752
 2986SOL     OW 8956   3.745   4.560   9.074
 2986SOL    HW1 8957   3.791   4.497   9.130
 2986SOL    HW2 8958   3.716   4.508   8.999
 2987SOL     OW 8959   3.283   4.304   8.771
 2987SOL    HW1 8960   3.233   4.282   8.850
 2987SOL    HW2 8961   3.369   4.265   8.786
 2988SOL     OW 8962   2.420   3.986   9.023
 2988SOL    HW1 8963   2.447   3.932   8.949
 2988SOL    HW2 8964   2.419   4.076   8.989
 2989SOL     OW 8965   3.532   4.831   9.772
 2989SOL    HW1 8966   3.529   4.904   9.833
 2989SOL    HW2 8967   3.447   4.833   9.728
 2990SOL     OW 8968   2.596   4.778   9.063
 2990SOL    HW1 8969   2.588   4.785   9.158
 2990SOL    HW2 8970   2.678   4.731   9.049
 2991SOL     OW 8971   2.304   4.543   9.947
 2991SOL    HW1 8972   2.385   4.549   9.997
 2991SOL    HW2 8973   2.267   4.458   9.973
 2992SOL     OW 8974   2.256   4.825   9.195
 2992SOL    HW1 8975   2.255   4.904   9.142
 2992SOL    HW2 8976   2.263   4.754   9.132
 2993SOL     OW 8977   2.458   4.266   9.560
 2993SOL    HW1 8978   2.472   4.330   9.491
 2993SOL    HW2 8979   2.504   4.301   9.636
 2994SOL     OW 8980   3.475   4.366   9.168
 2994SOL    HW1 8981   3.446   4.429   9.234
 2994SOL    HW2 8982   3.522   4.420   9.104
 2995SOL     OW 8983   2.468   4.598   9.725
 2995SOL    HW1 8984   2.505   4.686   9.718
 2995SOL    HW2 8985   2.408   4.603   9.798
 2996SOL     OW 8986   3.253   4.592   9.739
 2996SOL    HW1 8987   3.181   4.587   9.676
 2996SOL    HW2 8988   3.286   4.502   9.745
 2997SOL     OW 8989   3.105   4.255   8.969
 2997SOL    HW1 8990   3.111   4.176   9.023
 2997SOL    HW2 8991   3.072   4.322   9.029
 2998SOL     OW 8992   2.200   3.941   9.927
 2998SOL    HW1 8993   2.177   3.973  10.014
 2998SOL    HW2 8994   2.171   3.850   9.926
 2999SOL     OW 8995   2.625   4.364   9.760
 2999SOL    HW1 8996   2.682   4.341   9.686
 2999SOL    HW2 8997   2.599   4.454   9.743
 3000SOL     OW 8998   2.198   3.793   9.314
 3000SOL    HW1 8999   2.187   3.882   9.349
 3000SOL    HW2 9000   2.194   3.737   9.391
 3001SOL     OW 9001   3.511   4.095   9.066
 3001SOL    HW1 9002   3.519   4.027   9.133
 3001SOL    HW2 9003   3.471   4.169   9.112
 3002SOL     OW 9004   2.916   4.495   9.661
 3002SOL    HW1 9005   2.929   4.510   9.755
 3002SOL    HW2 9006   2.888   4.403   9.655
 3003SOL     OW 9007   3.430   4.005   8.820
 3003SOL    HW1 9008   3.374   3.933   8.847
 3003SOL    HW2 9009   3.455   4.048   8.902
 3004SOL     OW 9010   3.195   4.565   8.736
 3004SOL    HW1 9011   3.231   4.477   8.745
 3004SOL    HW2 9012   3.216   4.590   8.646
 3005SOL     OW 9013   2.210   4.541   9.646
 3005SOL    HW1 9014   2.302   4.568   9.648
 3005SOL    HW2 9015   2.209   4.457   9.692
 3006SOL     OW 9016   2.230   4.242   9.700
 3006SOL    HW1 9017   2.186   4.158   9.684
 3006SOL    HW2 9018   2.304   4.242   9.640
 3007SOL     OW 9019   3.055   3.935  10.172
 3007SOL    HW1 9020   3.054   3.999  10.243
 3007SOL    HW2 9021   3.079   3.985  10.095
 3008SOL     OW 9022   1.894   0.035   8.854
 3008SOL    HW1 9023   1.803   0.064   8.867
 3008SOL    HW2 9024   1.901  -0.045   8.906
 3009SOL     OW 9025   2.895   4.524   9.932
 3009SOL    HW1 9026   2.931   4.494  10.015
 3009SOL    HW2 9027   2.803   4.497   9.935
 3010SOL     OW 9028   1.932   4.271   9.810
 3010SOL    HW1 9029   2.015   4.243   9.772
 3010SOL    HW2 9030   1.952   4.287   9.902
 3011SOL     OW 9031   2.708   4.299   9.026
 3011SOL    HW1 9032   2.711   4.218   8.975
 3011SOL    HW2 9033   2.620   4.334   9.010
 3012SOL     OW 9034   3.545   4.331   9.896
 3012SOL    HW1 9035   3.519   4.265   9.961
 3012SOL    HW2 9036   3.627   4.298   9.860
 3013SOL     OW 9037   2.563   4.193   9.965
 3013SOL    HW1 9038   2.532   4.109   9.932
 3013SOL    HW2 9039   2.588   4.243   9.887
 3014SOL     OW 9040   2.366   4.228   8.885
 3014SOL    HW1 9041   2.421   4.306   8.892
 3014SOL    HW2 9042   2.277   4.261   8.891
 3015SOL     OW 9043   2.050   4.867  10.162
 3015SOL    HW1 9044   2.074   4.806  10.232
 3015SOL    HW2 9045   2.063   4.817  10.081
 3016SOL     OW 9046   3.242   4.791   9.928
 3016SOL    HW1 9047   3.259   4.727   9.859
 3016SOL    HW2 9048   3.153   4.823   9.909
 3017SOL     OW 9049   3.196   4.582   9.005
 3017SOL    HW1 9050   3.112   4.555   9.041
 3017SOL    HW2 9051   3.186   4.571   8.911
 3018SOL     OW 9052   1.983   4.969   9.722
 3018SOL    HW1 9053   1.967   4.982   9.815
 3018SOL    HW2 9054   1.898   4.943   9.686
 3019SOL     OW 9055   3.617   3.864   9.217
 3019SOL    HW1 9056   3.688   3.846   9.155
 3019SOL    HW2 9057   3.593   3.779   9.253
 3020SOL     OW 9058   3.171   4.653   9.367
 3020SOL    HW1 9059   3.236   4.582   9.367
 3020SOL    HW2 9060   3.210   4.721   9.312
 3021SOL     OW 9061   3.734   3.903   9.661
 3021SOL    HW1 9062   3.767   3.821   9.623
 3021SOL    HW2 9063   3.642   3.906   9.634
 3022SOL     OW 9064   2.160   4.055   9.416
 3022SOL    HW1 9065   2.080   4.098   9.385
 3022SOL    HW2 9066   2.145   4.041   9.510
 3023SOL     OW 9067   2.712   4.732  10.066
 3023SOL    HW1 9068   2.756   4.733   9.981
 3023SOL    HW2 9069   2.727   4.819  10.102
 3024SOL     OW 9070   2.809   4.639   8.985
 3024SOL    HW1 9071   2.872   4.672   8.921
 3024SOL    HW2 9072   2.850   4.561   9.022
 3025SOL     OW 9073   3.510   0.024   9.982
 3025SOL    HW1 9074   3.561   0.023  10.063
 3025SOL    HW2 9075   3.435   0.081  10.002
 3026SOL     OW 9076   2.932   4.817   9.388
 3026SOL    HW1 9077   2.866   4.769   9.439
 3026SOL    HW2 9078   2.989   4.750   9.352
 3027SOL     OW 9079   2.911   3.966   9.664
 3027SOL    HW1 9080   2.899   3.925   9.578
 3027SOL    HW2 9081   2.903   3.894   9.726
 3028SOL     OW 9082   3.600   4.116  10.073
 3028SOL    HW1 9083   3.673   4.176  10.080
 3028SOL    HW2 9084   3.633   4.043  10.020
 3029SOL     OW 9085   1.968   4.074   8.729
 3029SOL    HW1 9086   1.881   4.049   8.698
 3029SOL    HW2 9087   1.994   4.147   8.673
 3030SOL     OW 9088   1.964   3.893   9.013
 3030SOL    HW1 9089   1.952   3.973   8.960
 3030SOL    HW2 9090   2.052   3.863   8.989
 3031SOL     OW 9091   3.572   4.612   9.949
 3031SOL    HW1 9092   3.541   4.529   9.912
 3031SOL    HW2 9093   3.564   4.675   9.877
 3032SOL     OW 9094   3.118   4.054   9.145
 3032SOL    HW1 9095   3.181   3.983   9.138
 3032SOL    HW2 9096   3.140   4.099   9.226
 3033SOL     OW 9097   2.487   4.474   9.349
 3033SOL    HW1 9098   2.531   4.556   9.329
 3033SOL    HW2 9099   2.405   4.478   9.299
 3034SOL     OW 9100   3.626   4.662  10.213
 3034SOL    HW1 9101   3.659   4.751  10.221
 3034SOL    HW2 9102   3.613   4.650  10.119
 3035SOL     OW 9103   2.754   4.686   9.555
 3035SOL    HW1 9104   2.804   4.621   9.604
 3035SOL    HW2 9105   2.723   4.748   9.622
 3036SOL     OW 9106   2.975   4.713   8.782
 3036SOL    HW1 9107   2.957   4.763   8.703
 3036SOL    HW2 9108   3.053   4.662   8.761
 3037SOL     OW 9109   1.962   4.958   9.346
 3037SOL    HW1 9110   1.975   4.921   9.433
 3037SOL    HW2 9111   2.047   4.946   9.303
 3038SOL     OW 9112   3.715   3.921   9.924
 3038SOL    HW1 9113   3.715   3.832   9.959
 3038SOL    HW2 9114   3.721   3.910   9.830
 3039SOL     OW 9115   2.322   4.155   9.215
 3039SOL    HW1 9116   2.348   4.082   9.159
 3039SOL    HW2 9117   2.283   4.113   9.292
 3040SOL     OW 9118   3.318   3.944   9.808
 3040SOL    HW1 9119   3.366   3.881   9.863
 3040SOL    HW2 9120   3.272   4.000   9.871
 3041SOL     OW 9121   2.894   3.763   9.845
 3041SOL    HW1 9122   2.837   3.691   9.820
 3041SOL    HW2 9123   2.982   3.724   9.849
 3042SOL     OW 9124   2.676   0.049   8.973
 3042SOL    HW1 9125   2.619  -0.019   9.009
 3042SOL    HW2 9126   2.748   0.056   9.035
 3043SOL     OW 9127   3.246   3.781   8.863
 3043SOL    HW1 9128   3.274   3.739   8.781
 3043SOL    HW2 9129   3.159   3.744   8.880
 3044SOL     OW 9130   3.193   4.183   9.385
 3044SOL    HW1 9131   3.136   4.259   9.393
 3044SOL    HW2 9132   3.203   4.150   9.475
 3045SOL     OW 9133   3.485   3.948   9.577
 3045SOL    HW1 9134   3.405   3.952   9.628
 3045SOL    HW2 9135   3.485   4.028   9.524
 3046SOL     OW 9136   1.931   4.807   8.998
 3046SOL    HW1 9137   2.025   4.795   8.986
 3046SOL    HW2 9138   1.899   4.720   9.024
 3047SOL     OW 9139   3.986   0.634   5.084
 3047SOL    HW1 9140   3.896   0.629   5.117
 3047SOL    HW2 9141   3.982   0.595   4.997
 3048SOL     OW 9142   3.980   0.281   5.964
 3048SOL    HW1 9143   4.010   0.262   6.053
 3048SOL    HW2 9144   3.895   0.238   5.958
 3049SOL     OW 9145   3.771   0.378   5.614
 3049SOL    HW1 9146   3.690   0.409   5.654
 3049SOL    HW2 9147   3.745   0.304   5.560
 3050SOL     OW 9148   4.323   1.279   6.137
 3050SOL    HW1 9149   4.235   1.278   6.101
 3050SOL    HW2 9150   4.332   1.366   6.177
 3051SOL     OW 9151   4.877   0.711   5.679
 3051SOL    HW1 9152   4.946   0.777   5.670
 3051SOL    HW2 9153   4.835   0.732   5.762
 3052SOL     OW 9154   4.522   1.149   5.996
 3052SOL    HW1 9155   4.448   1.172   6.052
 3052SOL    HW2 9156   4.552   1.233   5.961
 3053SOL     OW 9157   4.607   0.802   6.793
 3053SOL    HW1 9158   4.601   0.876   6.853
 3053SOL    HW2 9159   4.627   0.841   6.708
 3054SOL     OW 9160   4.441   1.019   5.633
 3054SOL    HW1 9161   4.503   1.002   5.704
 3054SOL    HW2 9162   4.371   1.070   5.675
 3055SOL     OW 9163   4.444   1.165   6.774
 3055SOL    HW1 9164   4.497   1.243   6.787
 3055SOL    HW2 9165   4.362   1.197   6.736
 3056SOL     OW 9166   4.088   1.441   6.035
 3056SOL    HW1 9167   4.016   1.411   5.979
 3056SOL    HW2 9168   4.143   1.493   5.976
 3057SOL     OW 9169   4.194   0.399   6.469
 3057SOL    HW1 9170   4.270   0.341   6.477
 3057SOL    HW2 9171   4.119   0.340   6.475
 3058SOL     OW 9172   3.984   1.717   5.453
 3058SOL    HW1 9173   4.018   1.792   5.502
 3058SOL    HW2 9174   4.031   1.719   5.370
 3059SOL     OW 9175   4.885   1.344   6.659
 3059SOL    HW1 9176   4.926   1.344   6.745
 3059SOL    HW2 9177   4.835   1.262   6.655
 3060SOL     OW 9178   3.985   1.440   5.508
 3060SOL    HW1 9179   3.958   1.531   5.511
 3060SOL    HW2 9180   3.915   1.392   5.554
 3061SOL     OW 9181   3.997   1.096   5.857
 3061SOL    HW1 9182   4.006   1.016   5.909
 3061SOL    HW2 9183   3.943   1.154   5.911
 3062SOL     OW 9184   4.375   1.792   6.409
 3062SOL    HW1 9185   4.288   1.778   6.446
 3062SOL    HW2 9186   4.399   1.880   6.435
 3063SOL     OW 9187   4.360   0.969   5.095
 3063SOL    HW1 9188   4.370   1.050   5.045
 3063SOL    HW2 9189   4.405   0.987   5.178
 3064SOL     OW 9190   3.875   0.649   5.533
 3064SOL    HW1 9191   3.836   0.564   5.553
 3064SOL    HW2 9192   3.872   0.697   5.617
 3065SOL     OW 9193   3.779   1.602   5.086
 3065SOL    HW1 9194   3.765   1.511   5.112
 3065SOL    HW2 9195   3.752   1.653   5.163
 3066SOL     OW 9196   3.870   0.742   6.565
 3066SOL    HW1 9197   3.954   0.737   6.609
 3066SOL    HW2 9198   3.855   0.835   6.550
 3067SOL     OW 9199   4.368   1.373   5.698
 3067SOL    HW1 9200   4.320   1.290   5.704
 3067SOL    HW2 9201   4.344   1.408   5.613
 3068SOL     OW 9202   4.565   0.013   5.516
 3068SOL    HW1 9203   4.603   0.090   5.475
 3068SOL    HW2 9204   4.474   0.012   5.486
 3069SOL     OW 9205   3.952   0.981   6.235
 3069SOL    HW1 9206   4.034   0.935   6.221
 3069SOL    HW2 9207   3.884   0.916   6.214
 3070SOL     OW 9208   4.073   0.258   6.767
 3070SOL    HW1 9209   4.137   0.328   6.782
 3070SOL    HW2 9210   3.991   0.292   6.803
 3071SOL     OW 9211   4.351   0.733   5.239
 3071SOL    HW1 9212   4.372   0.803   5.178
 3071SOL    HW2 9213   4.279   0.768   5.292
 3072SOL     OW 9214   4.561   0.612   6.434
 3072SOL    HW1 9215   4.517   0.604   6.518
 3072SOL    HW2 9216   4.510   0.556   6.375
 3073SOL     OW 9217   4.725   0.896   6.545
 3073SOL    HW1 9218   4.771   0.818   6.514
 3073SOL    HW2 9219   4.675   0.926   6.470
 3074SOL     OW 9220   4.746   0.412   6.217
 3074SOL    HW1 9221   4.669   0.446   6.261
 3074SOL    HW2 9222   4.712   0.369   6.138
 3075SOL     OW 9223   4.798   0.705   5.400
 3075SOL    HW1 9224   4.817   0.700   5.493
 3075SOL    HW2 9225   4.715   0.657   5.389
 3076SOL     OW 9226   3.832   0.817   5.755
 3076SOL    HW1 9227   3.926   0.808   5.774
 3076SOL    HW2 9228   3.811   0.906   5.783
 3077SOL     OW 9229   3.885   1.826   6.543
 3077SOL    HW1 9230   3.873   1.813   6.637
 3077SOL    HW2 9231   3.801   1.860   6.512
 3078SOL     OW 9232   4.623   0.354   5.169
 3078SOL    HW1 9233   4.678   0.409   5.114
 3078SOL    HW2 9234   4.637   0.265   5.135
 3079SOL     OW 9235   4.304   0.201   5.855
 3079SOL    HW1 9236   4.301   0.203   5.951
 3079SOL    HW2 9237   4.307   0.293   5.830
 3080SOL     OW 9238   4.763   1.459   5.447
 3080SOL    HW1 9239   4.719   1.531   5.402
 3080SOL    HW2 9240   4.758   1.483   5.540
 3081SOL     OW 9241   4.106   1.807   5.823
 3081SOL    HW1 9242   4.156   1.726   5.831
 3081SOL    HW2 9243   4.171   1.876   5.823
 3082SOL     OW 9244   4.962   1.557   6.495
 3082SOL    HW1 9245   4.985   1.476   6.541
 3082SOL    HW2 9246   4.936   1.529   6.407
 3083SOL     OW 9247   4.077   0.949   5.214
 3083SOL    HW1 9248   4.156   0.981   5.169
 3083SOL    HW2 9249   4.053   0.870   5.166
 3084SOL     OW 9250   4.217   1.269   6.702
 3084SOL    HW1 9251   4.170   1.272   6.618
 3084SOL    HW2 9252   4.149   1.255   6.767
 3085SOL     OW 9253   4.863   1.783   5.206
 3085SOL    HW1 9254   4.809   1.719   5.253
 3085SOL    HW2 9255   4.893   1.736   5.128
 3086SOL     OW 9256   3.955   0.286   6.467
 3086SOL    HW1 9257   3.880   0.346   6.460
 3086SOL    HW2 9258   3.944   0.245   6.553
 3087SOL     OW 9259   4.220   1.746   5.294
 3087SOL    HW1 9260   4.254   1.788   5.373
 3087SOL    HW2 9261   4.295   1.741   5.235
 3088SOL     OW 9262   4.004   1.791   6.212
 3088SOL    HW1 9263   4.059   1.727   6.256
 3088SOL    HW2 9264   3.992   1.756   6.124
 3089SOL     OW 9265   4.695   1.703   5.875
 3089SOL    HW1 9266   4.770   1.646   5.892
 3089SOL    HW2 9267   4.649   1.662   5.802
 3090SOL     OW 9268   4.138   0.705   5.452
 3090SOL    HW1 9269   4.176   0.617   5.450
 3090SOL    HW2 9270   4.048   0.691   5.480
 3091SOL     OW 9271   4.362   0.131   5.080
 3091SOL    HW1 9272   4.454   0.108   5.094
 3091SOL    HW2 9273   4.345   0.108   4.989
 3092SOL     OW 9274   4.534   0.269   6.719
 3092SOL    HW1 9275   4.598   0.212   6.762
 3092SOL    HW2 9276   4.468   0.286   6.787
 3093SOL     OW 9277   4.643   1.521   6.165
 3093SOL    HW1 9278   4.622   1.491   6.077
 3093SOL    HW2 9279   4.700   1.454   6.201
 3094SOL     OW 9280   4.559   1.410   5.897
 3094SOL    HW1 9281   4.643   1.417   5.852
 3094SOL    HW2 9282   4.494   1.406   5.826
 3095SOL     OW 9283   4.677   0.510   5.871
 3095SOL    HW1 9284   4.654   0.496   5.779
 3095SOL    HW2 9285   4.722   0.429   5.897
 3096SOL     OW 9286   4.299   0.069   5.482
 3096SOL    HW1 9287   4.219   0.071   5.535
 3096SOL    HW2 9288   4.295   0.148   5.430
 3097SOL     OW 9289   4.053   0.040   5.142
 3097SOL    HW1 9290   4.103   0.119   5.125
 3097SOL    HW2 9291   4.115  -0.019   5.185
 3098SOL     OW 9292   4.690   0.243   5.450
 3098SOL    HW1 9293   4.648   0.281   5.373
 3098SOL    HW2 9294   4.783   0.241   5.428
 3099SOL     OW 9295   4.833   0.685   6.438
 3099SOL    HW1 9296   4.757   0.627   6.436
 3099SOL    HW2 9297   4.906   0.630   6.409
 3100SOL     OW 9298  -0.022   1.577   5.765
 3100SOL    HW1 9299   0.005   1.644   5.702
 3100SOL    HW2 9300   0.050   1.574   5.829
 3101SOL     OW 9301   4.216   1.154   5.713
 3101SOL    HW1 9302   4.143   1.131   5.771
 3101SOL    HW2 9303   4.185   1.130   5.625
 3102SOL     OW 9304   0.023   1.802   5.566
 3102SOL    HW1 9305   0.065   1.862   5.504
 3102SOL    HW2 9306  -0.023   1.858   5.627
 3103SOL     OW 9307   4.788   0.553   4.987
 3103SOL    HW1 9308   4.749   0.634   4.954
 3103SOL    HW2 9309   4.846   0.581   5.058
 3104SOL     OW 9310   3.832   0.560   6.359
 3104SOL    HW1 9311   3.920   0.563   6.321
 3104SOL    HW2 9312   3.830   0.632   6.421
 3105SOL     OW 9313   4.319   0.229   6.122
 3105SOL    HW1 9314   4.350   0.146   6.158
 3105SOL    HW2 9315   4.232   0.241   6.160
 3106SOL     OW 9316   4.625   0.461   5.613
 3106SOL    HW1 9317   4.589   0.524   5.551
 3106SOL    HW2 9318   4.641   0.382   5.560
 3107SOL     OW 9319   4.752   0.067   5.740
 3107SOL    HW1 9320   4.708   0.051   5.656
 3107SOL    HW2 9321   4.756  -0.019   5.781
 3108SOL     OW 9322   4.245   1.394   5.144
 3108SOL    HW1 9323   4.161   1.375   5.187
 3108SOL    HW2 9324   4.221   1.413   5.053
 3109SOL     OW 9325   4.279   0.263   5.299
 3109SOL    HW1 9326   4.311   0.208   5.227
 3109SOL    HW2 9327   4.282   0.352   5.264
 3110SOL     OW 9328   4.816   1.357   6.311
 3110SOL    HW1 9329   4.743   1.327   6.365
 3110SOL    HW2 9330   4.894   1.325   6.356
 3111SOL     OW 9331   4.861   1.195   6.070
 3111SOL    HW1 9332   4.829   1.245   6.145
 3111SOL    HW2 9333   4.823   1.240   5.994
 3112SOL     OW 9334   4.669   0.095   6.373
 3112SOL    HW1 9335   4.697   0.078   6.283
 3112SOL    HW2 9336   4.742   0.145   6.411
 3113SOL     OW 9337   4.737   1.119   6.691
 3113SOL    HW1 9338   4.641   1.125   6.699
 3113SOL    HW2 9339   4.751   1.043   6.634
 3114SOL     OW 9340   4.461   1.058   5.340
 3114SOL    HW1 9341   4.449   1.058   5.435
 3114SOL    HW2 9342   4.539   1.006   5.325
 3115SOL     OW 9343   4.166   0.818   6.221
 3115SOL    HW1 9344   4.245   0.827   6.274
 3115SOL    HW2 9345   4.128   0.734   6.248
 3116SOL     OW 9346   3.819   1.571   6.305
 3116SOL    HW1 9347   3.779   1.649   6.268
 3116SOL    HW2 9348   3.913   1.591   6.309
 3117SOL     OW 9349   4.121   1.105   5.471
 3117SOL    HW1 9350   4.115   1.182   5.414
 3117SOL    HW2 9351   4.124   1.031   5.411
 3118SOL     OW 9352   4.319   0.542   5.836
 3118SOL    HW1 9353   4.335   0.606   5.766
 3118SOL    HW2 9354   4.367   0.577   5.912
 3119SOL     OW 9355   5.006   1.349   5.388
 3119SOL    HW1 9356   5.047   1.433   5.404
 3119SOL    HW2 9357   4.912   1.365   5.399
 3120SOL     OW 9358   4.108   1.518   6.299
 3120SOL    HW1 9359   4.093   1.474   6.215
 3120SOL    HW2 9360   4.201   1.537   6.299
 3121SOL     OW 9361   4.158   0.755   6.568
 3121SOL    HW1 9362   4.225   0.804   6.522
 3121SOL    HW2 9363   4.200   0.672   6.592
 3122SOL     OW 9364   4.766   0.113   6.742
 3122SOL    HW1 9365   4.778   0.190   6.686
 3122SOL    HW2 9366   4.797   0.040   6.689
 3123SOL     OW 9367   4.256   0.057   6.711
 3123SOL    HW1 9368   4.214   0.006   6.641
 3123SOL    HW2 9369   4.190   0.120   6.738
 3124SOL     OW 9370   4.330   0.874   6.000
 3124SOL    HW1 9371   4.368   0.962   5.995
 3124SOL    HW2 9372   4.270   0.879   6.075
 3125SOL     OW 9373   0.106   0.865   6.024
 3125SOL    HW1 9374   0.042   0.863   5.953
 3125SOL    HW2 9375   0.148   0.780   6.022
 3126SOL     OW 9376   4.963   0.530   5.244
 3126SOL    HW1 9377   4.978   0.454   5.300
 3126SOL    HW2 9378   4.936   0.599   5.306
 3127SOL     OW 9379   4.065   0.217   6.206
 3127SOL    HW1 9380   4.034   0.250   6.290
 3127SOL    HW2 9381   4.031   0.128   6.202
 3128SOL     OW 9382   3.795   1.313   6.251
 3128SOL    HW1 9383   3.843   1.270   6.321
 3128SOL    HW2 9384   3.813   1.407   6.262
 3129SOL     OW 9385   4.487   0.639   6.036
 3129SOL    HW1 9386   4.544   0.617   5.963
 3129SOL    HW2 9387   4.461   0.730   6.019
 3130SOL     OW 9388   4.062   0.073   5.589
 3130SOL    HW1 9389   4.050   0.161   5.626
 3130SOL    HW2 9390   4.061   0.015   5.665
 3131SOL     OW 9391   4.776   0.771   5.937
 3131SOL    HW1 9392   4.792   0.787   6.030
 3131SOL    HW2 9393   4.752   0.679   5.932
 3132SOL     OW 9394   4.732   1.576   6.673
 3132SOL    HW1 9395   4.718   1.617   6.588
 3132SOL    HW2 9396   4.775   1.493   6.654
 3133SOL     OW 9397   4.104   0.909   6.775
 3133SOL    HW1 9398   4.182   0.942   6.819
 3133SOL    HW2 9399   4.138   0.859   6.701
 3134SOL     OW 9400   4.823   1.338   5.820
 3134SOL    HW1 9401   4.830   1.261   5.764
 3134SOL    HW2 9402   4.884   1.401   5.783
 3135SOL     OW 9403   4.073   0.817   5.921
 3135SOL    HW1 9404   4.164   0.844   5.925
 3135SOL    HW2 9405   4.071   0.733   5.968
 3136SOL     OW 9406   4.094   0.516   5.977
 3136SOL    HW1 9407   4.048   0.434   5.959
 3136SOL    HW2 9408   4.167   0.518   5.915
 3137SOL     OW 9409   4.894   0.385   6.650
 3137SOL    HW1 9410   4.852   0.446   6.710
 3137SOL    HW2 9411   4.982   0.421   6.636
 3138SOL     OW 9412   4.916   0.211   6.448
 3138SOL    HW1 9413   4.913   0.275   6.519
 3138SOL    HW2 9414   4.939   0.263   6.370
 3139SOL     OW 9415   3.760   1.332   5.175
 3139SOL    HW1 9416   3.673   1.346   5.139
 3139SOL    HW2 9417   3.769   1.236   5.180
 3140SOL     OW 9418   3.843   1.805   5.900
 3140SOL    HW1 9419   3.807   1.722   5.869
 3140SOL    HW2 9420   3.933   1.806   5.865
 3141SOL     OW 9421   4.258   1.575   5.878
 3141SOL    HW1 9422   4.326   1.641   5.891
 3141SOL    HW2 9423   4.304   1.500   5.840
 3142SOL     OW 9424   4.756   0.802   6.208
 3142SOL    HW1 9425   4.793   0.770   6.289
 3142SOL    HW2 9426   4.665   0.772   6.210
 3143SOL     OW 9427   3.794   0.547   6.085
 3143SOL    HW1 9428   3.878   0.519   6.048
 3143SOL    HW2 9429   3.812   0.562   6.178
 3144SOL     OW 9430   3.944   0.523   6.694
 3144SOL    HW1 9431   4.000   0.490   6.623
 3144SOL    HW2 9432   3.890   0.591   6.652
 3145SOL     OW 9433   4.570   0.576   5.301
 3145SOL    HW1 9434   4.573   0.493   5.252
 3145SOL    HW2 9435   4.482   0.610   5.287
 3146SOL     OW 9436   4.008   1.567   6.713
 3146SOL    HW1 9437   3.978   1.621   6.787
 3146SOL    HW2 9438   3.999   1.477   6.744
 3147SOL     OW 9439   4.429   0.468   6.240
 3147SOL    HW1 9440   4.394   0.386   6.207
 3147SOL    HW2 9441   4.449   0.519   6.162
 3148SOL     OW 9442   4.684   1.683   6.436
 3148SOL    HW1 9443   4.663   1.667   6.344
 3148SOL    HW2 9444   4.711   1.774   6.440
 3149SOL     OW 9445   4.228   0.504   5.161
 3149SOL    HW1 9446   4.283   0.582   5.168
 3149SOL    HW2 9447   4.139   0.538   5.168
 3150SOL     OW 9448   3.911   1.143   6.438
 3150SOL    HW1 9449   3.934   1.082   6.508
 3150SOL    HW2 9450   3.925   1.092   6.358
 3151SOL     OW 9451  -0.001   1.734   6.107
 3151SOL    HW1 9452   0.077   1.744   6.051
 3151SOL    HW2 9453  -0.012   1.639   6.115
 3152SOL     OW 9454   3.839   1.264   5.992
 3152SOL    HW1 9455   3.829   1.263   6.088
 3152SOL    HW2 9456   3.759   1.223   5.960
 3153SOL     OW 9457   4.440   1.666   6.687
 3153SOL    HW1 9458   4.390   1.747   6.692
 3153SOL    HW2 9459   4.492   1.674   6.607
 3154SOL     OW 9460   4.676   0.104   5.086
 3154SOL    HW1 9461   4.729   0.083   5.009
 3154SOL    HW2 9462   4.713   0.051   5.156
 3155SOL     OW 9463   3.886   1.801   6.820
 3155SOL    HW1 9464   3.846   1.731   6.872
 3155SOL    HW2 9465   3.945   1.846   6.880
 3156SOL     OW 9466   4.582   1.274   6.397
 3156SOL    HW1 9467   4.574   1.312   6.484
 3156SOL    HW2 9468   4.502   1.299   6.352
 3157SOL     OW 9469   4.427   1.620   5.126
 3157SOL    HW1 9470   4.433   1.627   5.031
 3157SOL    HW2 9471   4.387   1.535   5.142
 3158SOL     OW 9472   4.022   0.332   5.692
 3158SOL    HW1 9473   3.942   0.374   5.661
 3158SOL    HW2 9474   4.007   0.317   5.785
 3159SOL     OW 9475   4.578   1.007   6.343
 3159SOL    HW1 9476   4.617   1.010   6.256
 3159SOL    HW2 9477   4.587   1.097   6.376
 3160SOL     OW 9478   4.671   0.916   5.262
 3160SOL    HW1 9479   4.733   0.948   5.197
 3160SOL    HW2 9480   4.712   0.837   5.298
 3161SOL     OW 9481   4.127   1.294   6.461
 3161SOL    HW1 9482   4.111   1.381   6.424
 3161SOL    HW2 9483   4.045   1.247   6.446
 3162SOL     OW 9484   4.796   1.104   5.671
 3162SOL    HW1 9485   4.728   1.055   5.717
 3162SOL    HW2 9486   4.847   1.037   5.626
 3163SOL     OW 9487   4.767   0.243   5.941
 3163SOL    HW1 9488   4.763   0.203   5.854
 3163SOL    HW2 9489   4.767   0.169   6.002
 3164SOL     OW 9490   4.348   1.494   5.461
 3164SOL    HW1 9491   4.383   1.439   5.391
 3164SOL    HW2 9492   4.302   1.564   5.416
 3165SOL     OW 9493   4.012   1.354   5.260
 3165SOL    HW1 9494   3.920   1.356   5.236
 3165SOL    HW2 9495   4.016   1.402   5.343
 3166SOL     OW 9496   3.861   1.019   6.697
 3166SOL    HW1 9497   3.789   0.986   6.750
 3166SOL    HW2 9498   3.940   0.986   6.740
 3167SOL     OW 9499   4.426   0.210   6.460
 3167SOL    HW1 9500   4.513   0.191   6.424
 3167SOL    HW2 9501   4.439   0.213   6.555
 3168SOL     OW 9502   3.852   0.204   5.315
 3168SOL    HW1 9503   3.811   0.250   5.242
 3168SOL    HW2 9504   3.908   0.138   5.273
 3169SOL     OW 9505   4.368   0.846   6.402
 3169SOL    HW1 9506   4.424   0.922   6.386
 3169SOL    HW2 9507   4.428   0.772   6.405
 3170SOL     OW 9508   4.470   0.570   6.680
 3170SOL    HW1 9509   4.493   0.630   6.750
 3170SOL    HW2 9510   4.528   0.495   6.692
 3171SOL     OW 9511   4.144   1.747   6.531
 3171SOL    HW1 9512   4.055   1.782   6.529
 3171SOL    HW2 9513   4.134   1.657   6.563
 3172SOL     OW 9514   4.349   0.750   5.625
 3172SOL    HW1 9515   4.393   0.832   5.604
 3172SOL    HW2 9516   4.268   0.753   5.575
 3173SOL     OW 9517   4.612   1.379   4.986
 3173SOL    HW1 9518   4.573   1.395   5.071
 3173SOL    HW2 9519   4.655   1.462   4.963
 3174SOL     OW 9520   4.415   1.795   5.924
 3174SOL    HW1 9521   4.377   1.882   5.909
 3174SOL    HW2 9522   4.509   1.808   5.916
 3175SOL     OW 9523   4.615   0.962   5.831
 3175SOL    HW1 9524   4.666   0.897   5.880
 3175SOL    HW2 9525   4.586   1.025   5.898
 3176SOL     OW 9526   4.836   0.987   5.057
 3176SOL    HW1 9527   4.819   1.039   4.979
 3176SOL    HW2 9528   4.917   0.939   5.037
 3177SOL     OW 9529   3.977   1.318   6.816
 3177SOL    HW1 9530   3.912   1.249   6.799
 3177SOL    HW2 9531   3.975   1.329   6.911
 3178SOL     OW 9532   3.835   1.245   5.625
 3178SOL    HW1 9533   3.836   1.197   5.708
 3178SOL    HW2 9534   3.913   1.215   5.578
 3179SOL     OW 9535   4.428   1.397   6.593
 3179SOL    HW1 9536   4.352   1.353   6.631
 3179SOL    HW2 9537   4.423   1.486   6.627
 3180SOL     OW 9538   4.184   0.431   5.491
 3180SOL    HW1 9539   4.210   0.359   5.435
 3180SOL    HW2 9540   4.145   0.388   5.568
 3181SOL     OW 9541   4.073   0.552   6.253
 3181SOL    HW1 9542   4.115   0.494   6.317
 3181SOL    HW2 9543   4.111   0.526   6.169
 3182SOL     OW 9544   4.569   1.589   5.659
 3182SOL    HW1 9545   4.593   1.600   5.567
 3182SOL    HW2 9546   4.492   1.532   5.656
 3183SOL     OW 9547   4.755   0.038   6.123
 3183SOL    HW1 9548   4.700  -0.035   6.094
 3183SOL    HW2 9549   4.844   0.002   6.126
 3184SOL     OW 9550   4.525   1.336   5.273
 3184SOL    HW1 9551   4.484   1.251   5.288
 3184SOL    HW2 9552   4.612   1.329   5.313
 3185SOL     OW 9553   4.372   1.572   6.254
 3185SOL    HW1 9554   4.373   1.651   6.309
 3185SOL    HW2 9555   4.459   1.570   6.214
 3186SOL     OW 9556   4.631   1.649   5.311
 3186SOL    HW1 9557   4.556   1.623   5.257
 3186SOL    HW2 9558   4.597   1.721   5.365
 3187SOL     OW 9559   3.986   0.634   6.947
 3187SOL    HW1 9560   3.895   0.629   6.979
 3187SOL    HW2 9561   3.982   0.596   6.859
 3188SOL     OW 9562   3.980   0.281   7.826
 3188SOL    HW1 9563   4.010   0.261   7.915
 3188SOL    HW2 9564   3.895   0.238   7.820
 3189SOL     OW 9565   3.771   0.378   7.477
 3189SOL    HW1 9566   3.690   0.409   7.516
 3189SOL    HW2 9567   3.745   0.304   7.422
 3190SOL     OW 9568   4.323   1.279   7.999
 3190SOL    HW1 9569   4.235   1.278   7.963
 3190SOL    HW2 9570   4.332   1.366   8.039
 3191SOL     OW 9571   4.877   0.711   7.541
 3191SOL    HW1 9572   4.946   0.777   7.532
 3191SOL    HW2 9573   4.835   0.732   7.624
 3192SOL     OW 9574   4.522   1.149   7.857
 3192SOL    HW1 9575   4.448   1.171   7.914
 3192SOL    HW2 9576   4.552   1.233   7.823
 3193SOL     OW 9577   4.607   0.802   8.655
 3193SOL    HW1 9578   4.601   0.876   8.715
 3193SOL    HW2 9579   4.627   0.841   8.570
 3194SOL     OW 9580   4.441   1.019   7.495
 3194SOL    HW1 9581   4.503   1.002   7.566
 3194SOL    HW2 9582   4.371   1.070   7.537
 3195SOL     OW 9583   4.444   1.165   8.636
 3195SOL    HW1 9584   4.497   1.243   8.649
 3195SOL    HW2 9585   4.362   1.197   8.598
 3196SOL     OW 9586   4.088   1.441   7.897
 3196SOL    HW1 9587   4.016   1.411   7.841
 3196SOL    HW2 9588   4.143   1.493   7.838
 3197SOL     OW 9589   4.194   0.399   8.331
 3197SOL    HW1 9590   4.270   0.341   8.339
 3197SOL    HW2 9591   4.119   0.340   8.337
 3198SOL     OW 9592   3.984   1.717   7.315
 3198SOL    HW1 9593   4.018   1.792   7.364
 3198SOL    HW2 9594   4.031   1.719   7.232
 3199SOL     OW 9595   4.885   1.344   8.521
 3199SOL    HW1 9596   4.926   1.344   8.607
 3199SOL    HW2 9597   4.835   1.262   8.517
 3200SOL     OW 9598   3.985   1.439   7.370
 3200SOL    HW1 9599   3.958   1.531   7.374
 3200SOL    HW2 9600   3.916   1.392   7.416
 3201SOL     OW 9601   3.997   1.096   7.719
 3201SOL    HW1 9602   4.006   1.016   7.771
 3201SOL    HW2 9603   3.943   1.154   7.773
 3202SOL     OW 9604   4.375   1.792   8.271
 3202SOL    HW1 9605   4.288   1.778   8.308
 3202SOL    HW2 9606   4.399   1.880   8.297
 3203SOL     OW 9607   4.357   0.971   6.958
 3203SOL    HW1 9608   4.373   1.049   6.905
 3203SOL    HW2 9609   4.405   0.987   7.039
 3204SOL     OW 9610   3.875   0.650   7.396
 3204SOL    HW1 9611   3.836   0.565   7.415
 3204SOL    HW2 9612   3.872   0.697   7.479
 3205SOL     OW 9613   3.782   1.601   6.951
 3205SOL    HW1 9614   3.763   1.510   6.974
 3205SOL    HW2 9615   3.750   1.652   7.026
 3206SOL     OW 9616   3.870   0.742   8.427
 3206SOL    HW1 9617   3.954   0.737   8.471
 3206SOL    HW2 9618   3.855   0.835   8.412
 3207SOL     OW 9619   4.368   1.373   7.560
 3207SOL    HW1 9620   4.320   1.290   7.566
 3207SOL    HW2 9621   4.344   1.408   7.475
 3208SOL     OW 9622   4.565   0.010   7.366
 3208SOL    HW1 9623   4.601   0.093   7.335
 3208SOL    HW2 9624   4.472   0.016   7.346
 3209SOL     OW 9625   3.952   0.981   8.097
 3209SOL    HW1 9626   4.034   0.935   8.083
 3209SOL    HW2 9627   3.884   0.916   8.076
 3210SOL     OW 9628   4.073   0.258   8.629
 3210SOL    HW1 9629   4.137   0.328   8.644
 3210SOL    HW2 9630   3.991   0.292   8.665
 3211SOL     OW 9631   4.351   0.732   7.101
 3211SOL    HW1 9632   4.372   0.803   7.040
 3211SOL    HW2 9633   4.279   0.767   7.154
 3212SOL     OW 9634   4.561   0.612   8.296
 3212SOL    HW1 9635   4.517   0.604   8.380
 3212SOL    HW2 9636   4.510   0.556   8.237
 3213SOL     OW 9637   4.725   0.896   8.407
 3213SOL    HW1 9638   4.771   0.818   8.376
 3213SOL    HW2 9639   4.675   0.926   8.332
 3214SOL     OW 9640   4.746   0.412   8.078
 3214SOL    HW1 9641   4.669   0.446   8.123
 3214SOL    HW2 9642   4.712   0.369   8.000
 3215SOL     OW 9643   4.798   0.705   7.262
 3215SOL    HW1 9644   4.817   0.700   7.355
 3215SOL    HW2 9645   4.715   0.658   7.251
 3216SOL     OW 9646   3.833   0.818   7.616
 3216SOL    HW1 9647   3.926   0.808   7.636
 3216SOL    HW2 9648   3.811   0.906   7.645
 3217SOL     OW 9649   3.885   1.826   8.405
 3217SOL    HW1 9650   3.873   1.813   8.499
 3217SOL    HW2 9651   3.801   1.860   8.374
 3218SOL     OW 9652   4.622   0.352   7.029
 3218SOL    HW1 9653   4.679   0.410   6.978
 3218SOL    HW2 9654   4.641   0.264   6.997
 3219SOL     OW 9655   4.305   0.201   7.717
 3219SOL    HW1 9656   4.301   0.202   7.813
 3219SOL    HW2 9657   4.307   0.293   7.692
 3220SOL     OW 9658   4.763   1.459   7.309
 3220SOL    HW1 9659   4.719   1.531   7.263
 3220SOL    HW2 9660   4.758   1.483   7.402
 3221SOL     OW 9661   4.106   1.807   7.685
 3221SOL    HW1 9662   4.157   1.726   7.693
 3221SOL    HW2 9663   4.171   1.876   7.685
 3222SOL     OW 9664   4.962   1.557   8.357
 3222SOL    HW1 9665   4.985   1.476   8.403
 3222SOL    HW2 9666   4.936   1.529   8.269
 3223SOL     OW 9667   4.075   0.950   7.075
 3223SOL    HW1 9668   4.155   0.981   7.033
 3223SOL    HW2 9669   4.053   0.870   7.028
 3224SOL     OW 9670   4.217   1.269   8.564
 3224SOL    HW1 9671   4.170   1.272   8.480
 3224SOL    HW2 9672   4.149   1.256   8.629
 3225SOL     OW 9673   4.869   1.780   7.071
 3225SOL    HW1 9674   4.807   1.721   7.113
 3225SOL    HW2 9675   4.889   1.738   6.988
 3226SOL     OW 9676   3.955   0.286   8.329
 3226SOL    HW1 9677   3.880   0.346   8.322
 3226SOL    HW2 9678   3.944   0.245   8.415
 3227SOL     OW 9679   4.219   1.747   7.156
 3227SOL    HW1 9680   4.254   1.788   7.235
 3227SOL    HW2 9681   4.295   1.741   7.097
 3228SOL     OW 9682   4.004   1.791   8.074
 3228SOL    HW1 9683   4.059   1.727   8.118
 3228SOL    HW2 9684   3.992   1.756   7.986
 3229SOL     OW 9685   4.695   1.703   7.737
 3229SOL    HW1 9686   4.770   1.646   7.754
 3229SOL    HW2 9687   4.649   1.662   7.664
 3230SOL     OW 9688   4.138   0.705   7.314
 3230SOL    HW1 9689   4.176   0.617   7.312
 3230SOL    HW2 9690   4.048   0.691   7.342
 3231SOL     OW 9691   4.364   0.138   6.941
 3231SOL    HW1 9692   4.452   0.104   6.958
 3231SOL    HW2 9693   4.342   0.105   6.854
 3232SOL     OW 9694   4.535   0.269   8.581
 3232SOL    HW1 9695   4.598   0.212   8.624
 3232SOL    HW2 9696   4.468   0.285   8.649
 3233SOL     OW 9697   4.643   1.521   8.027
 3233SOL    HW1 9698   4.622   1.491   7.939
 3233SOL    HW2 9699   4.700   1.454   8.063
 3234SOL     OW 9700   4.559   1.410   7.759
 3234SOL    HW1 9701   4.643   1.417   7.714
 3234SOL    HW2 9702   4.494   1.406   7.688
 3235SOL     OW 9703   4.677   0.510   7.733
 3235SOL    HW1 9704   4.654   0.496   7.641
 3235SOL    HW2 9705   4.722   0.429   7.759
 3236SOL     OW 9706   4.299   0.069   7.344
 3236SOL    HW1 9707   4.219   0.070   7.397
 3236SOL    HW2 9708   4.294   0.149   7.291
 3237SOL     OW 9709   4.053   0.039   7.005
 3237SOL    HW1 9710   4.102   0.119   6.986
 3237SOL    HW2 9711   4.116  -0.019   7.047
 3238SOL     OW 9712   4.690   0.243   7.312
 3238SOL    HW1 9713   4.649   0.282   7.235
 3238SOL    HW2 9714   4.783   0.240   7.291
 3239SOL     OW 9715   4.833   0.685   8.300
 3239SOL    HW1 9716   4.757   0.627   8.298
 3239SOL    HW2 9717   4.906   0.630   8.271
 3240SOL     OW 9718  -0.022   1.577   7.627
 3240SOL    HW1 9719   0.005   1.644   7.564
 3240SOL    HW2 9720   0.050   1.574   7.691
 3241SOL     OW 9721   4.216   1.154   7.575
 3241SOL    HW1 9722   4.143   1.131   7.633
 3241SOL    HW2 9723   4.185   1.130   7.487
 3242SOL     OW 9724   0.024   1.802   7.428
 3242SOL    HW1 9725   0.065   1.862   7.366
 3242SOL    HW2 9726  -0.023   1.858   7.489
 3243SOL     OW 9727   4.790   0.554   6.846
 3243SOL    HW1 9728   4.748   0.635   6.817
 3243SOL    HW2 9729   4.845   0.581   6.919
 3244SOL     OW 9730   3.832   0.560   8.221
 3244SOL    HW1 9731   3.920   0.563   8.183
 3244SOL    HW2 9732   3.830   0.632   8.283
 3245SOL     OW 9733   4.319   0.229   7.984
 3245SOL    HW1 9734   4.350   0.146   8.020
 3245SOL    HW2 9735   4.232   0.241   8.022
 3246SOL     OW 9736   4.625   0.461   7.475
 3246SOL    HW1 9737   4.589   0.524   7.413
 3246SOL    HW2 9738   4.641   0.382   7.422
 3247SOL     OW 9739   4.752   0.067   7.602
 3247SOL    HW1 9740   4.708   0.051   7.518
 3247SOL    HW2 9741   4.756  -0.019   7.643
 3248SOL     OW 9742   4.245   1.393   7.006
 3248SOL    HW1 9743   4.161   1.376   7.049
 3248SOL    HW2 9744   4.222   1.413   6.916
 3249SOL     OW 9745   4.281   0.263   7.162
 3249SOL    HW1 9746   4.310   0.208   7.089
 3249SOL    HW2 9747   4.281   0.352   7.126
 3250SOL     OW 9748   4.816   1.357   8.173
 3250SOL    HW1 9749   4.743   1.327   8.227
 3250SOL    HW2 9750   4.894   1.325   8.218
 3251SOL     OW 9751   4.861   1.195   7.932
 3251SOL    HW1 9752   4.829   1.245   8.007
 3251SOL    HW2 9753   4.823   1.240   7.856
 3252SOL     OW 9754   4.669   0.095   8.235
 3252SOL    HW1 9755   4.697   0.078   8.145
 3252SOL    HW2 9756   4.742   0.145   8.273
 3253SOL     OW 9757   4.737   1.119   8.553
 3253SOL    HW1 9758   4.641   1.125   8.561
 3253SOL    HW2 9759   4.751   1.043   8.496
 3254SOL     OW 9760   4.460   1.058   7.202
 3254SOL    HW1 9761   4.449   1.058   7.297
 3254SOL    HW2 9762   4.539   1.006   7.187
 3255SOL     OW 9763   4.166   0.818   8.083
 3255SOL    HW1 9764   4.245   0.827   8.136
 3255SOL    HW2 9765   4.128   0.734   8.110
 3256SOL     OW 9766   3.819   1.571   8.167
 3256SOL    HW1 9767   3.779   1.649   8.130
 3256SOL    HW2 9768   3.913   1.591   8.171
 3257SOL     OW 9769   4.120   1.105   7.333
 3257SOL    HW1 9770   4.115   1.182   7.276
 3257SOL    HW2 9771   4.125   1.031   7.273
 3258SOL     OW 9772   4.319   0.542   7.698
 3258SOL    HW1 9773   4.335   0.606   7.628
 3258SOL    HW2 9774   4.367   0.577   7.774
 3259SOL     OW 9775   5.006   1.349   7.249
 3259SOL    HW1 9776   5.047   1.434   7.267
 3259SOL    HW2 9777   4.913   1.364   7.261
 3260SOL     OW 9778   4.108   1.518   8.161
 3260SOL    HW1 9779   4.093   1.474   8.077
 3260SOL    HW2 9780   4.201   1.537   8.161
 3261SOL     OW 9781   4.158   0.755   8.430
 3261SOL    HW1 9782   4.225   0.804   8.384
 3261SOL    HW2 9783   4.200   0.672   8.454
 3262SOL     OW 9784   4.766   0.113   8.604
 3262SOL    HW1 9785   4.778   0.190   8.548
 3262SOL    HW2 9786   4.797   0.040   8.551
 3263SOL     OW 9787   4.256   0.057   8.573
 3263SOL    HW1 9788   4.214   0.006   8.503
 3263SOL    HW2 9789   4.190   0.120   8.600
 3264SOL     OW 9790   4.330   0.874   7.862
 3264SOL    HW1 9791   4.368   0.962   7.857
 3264SOL    HW2 9792   4.270   0.879   7.937
 3265SOL     OW 9793   0.106   0.865   7.886
 3265SOL    HW1 9794   0.042   0.863   7.815
 3265SOL    HW2 9795   0.148   0.780   7.884
 3266SOL     OW 9796   4.962   0.530   7.107
 3266SOL    HW1 9797   4.977   0.454   7.162
 3266SOL    HW2 9798   4.936   0.599   7.168
 3267SOL     OW 9799   4.065   0.217   8.068
 3267SOL    HW1 9800   4.034   0.250   8.152
 3267SOL    HW2 9801   4.031   0.128   8.064
 3268SOL     OW 9802   3.795   1.313   8.113
 3268SOL    HW1 9803   3.843   1.270   8.183
 3268SOL    HW2 9804   3.813   1.407   8.124
 3269SOL     OW 9805   4.487   0.639   7.898
 3269SOL    HW1 9806   4.544   0.617   7.825
 3269SOL    HW2 9807   4.461   0.730   7.881
 3270SOL     OW 9808   4.063   0.073   7.451
 3270SOL    HW1 9809   4.049   0.161   7.487
 3270SOL    HW2 9810   4.060   0.015   7.527
 3271SOL     OW 9811   4.776   0.771   7.799
 3271SOL    HW1 9812   4.792   0.787   7.892
 3271SOL    HW2 9813   4.751   0.679   7.794
 3272SOL     OW 9814   4.732   1.576   8.535
 3272SOL    HW1 9815   4.718   1.617   8.450
 3272SOL    HW2 9816   4.775   1.493   8.516
 3273SOL     OW 9817   4.104   0.909   8.637
 3273SOL    HW1 9818   4.182   0.942   8.681
 3273SOL    HW2 9819   4.138   0.859   8.563
 3274SOL     OW 9820   0.311   0.285   6.984
 3274SOL    HW1 9821   0.243   0.218   6.992
 3274SOL    HW2 9822   0.309   0.331   7.068
 3275SOL     OW 9823   4.823   1.338   7.682
 3275SOL    HW1 9824   4.830   1.261   7.626
 3275SOL    HW2 9825   4.884   1.401   7.645
 3276SOL     OW 9826   4.073   0.817   7.783
 3276SOL    HW1 9827   4.164   0.844   7.787
 3276SOL    HW2 9828   4.071   0.733   7.830
 3277SOL     OW 9829   4.094   0.516   7.839
 3277SOL    HW1 9830   4.048   0.434   7.821
 3277SOL    HW2 9831   4.167   0.518   7.777
 3278SOL     OW 9832   4.894   0.385   8.512
 3278SOL    HW1 9833   4.852   0.446   8.572
 3278SOL    HW2 9834   4.982   0.421   8.498
 3279SOL     OW 9835   4.916   0.211   8.310
 3279SOL    HW1 9836   4.913   0.275   8.381
 3279SOL    HW2 9837   4.939   0.263   8.232
 3280SOL     OW 9838   3.762   1.332   7.031
 3280SOL    HW1 9839   3.672   1.346   7.002
 3280SOL    HW2 9840   3.768   1.238   7.047
 3281SOL     OW 9841   3.843   1.805   7.762
 3281SOL    HW1 9842   3.807   1.722   7.731
 3281SOL    HW2 9843   3.933   1.806   7.727
 3282SOL     OW 9844   4.258   1.575   7.740
 3282SOL    HW1 9845   4.326   1.641   7.753
 3282SOL    HW2 9846   4.304   1.500   7.702
 3283SOL     OW 9847   4.756   0.802   8.070
 3283SOL    HW1 9848   4.793   0.770   8.151
 3283SOL    HW2 9849   4.665   0.772   8.072
 3284SOL     OW 9850   3.794   0.547   7.947
 3284SOL    HW1 9851   3.878   0.519   7.910
 3284SOL    HW2 9852   3.812   0.562   8.040
 3285SOL     OW 9853   3.944   0.523   8.556
 3285SOL    HW1 9854   4.000   0.490   8.485
 3285SOL    HW2 9855   3.890   0.590   8.514
 3286SOL     OW 9856   4.570   0.575   7.163
 3286SOL    HW1 9857   4.572   0.493   7.114
 3286SOL    HW2 9858   4.482   0.610   7.149
 3287SOL     OW 9859   4.008   1.567   8.575
 3287SOL    HW1 9860   3.978   1.621   8.649
 3287SOL    HW2 9861   3.999   1.477   8.606
 3288SOL     OW 9862   4.429   0.468   8.102
 3288SOL    HW1 9863   4.394   0.386   8.069
 3288SOL    HW2 9864   4.448   0.519   8.024
 3289SOL     OW 9865   4.684   1.683   8.298
 3289SOL    HW1 9866   4.663   1.667   8.206
 3289SOL    HW2 9867   4.711   1.774   8.302
 3290SOL     OW 9868   4.228   0.504   7.022
 3290SOL    HW1 9869   4.283   0.583   7.031
 3290SOL    HW2 9870   4.139   0.537   7.030
 3291SOL     OW 9871   3.911   1.143   8.300
 3291SOL    HW1 9872   3.934   1.082   8.370
 3291SOL    HW2 9873   3.925   1.092   8.220
 3292SOL     OW 9874  -0.001   1.734   7.969
 3292SOL    HW1 9875   0.077   1.744   7.913
 3292SOL    HW2 9876  -0.012   1.639   7.977
 3293SOL     OW 9877   3.839   1.264   7.854
 3293SOL    HW1 9878   3.829   1.263   7.950
 3293SOL    HW2 9879   3.759   1.223   7.822
 3294SOL     OW 9880   4.440   1.666   8.549
 3294SOL    HW1 9881   4.390   1.747   8.554
 3294SOL    HW2 9882   4.492   1.674   8.469
 3295SOL     OW 9883   3.886   1.801   8.682
 3295SOL    HW1 9884   3.846   1.731   8.734
 3295SOL    HW2 9885   3.945   1.846   8.742
 3296SOL     OW 9886   4.582   1.274   8.259
 3296SOL    HW1 9887   4.574   1.312   8.346
 3296SOL    HW2 9888   4.502   1.299   8.214
 3297SOL     OW 9889   4.426   1.621   6.988
 3297SOL    HW1 9890   4.435   1.627   6.893
 3297SOL    HW2 9891   4.388   1.534   7.003
 3298SOL     OW 9892   4.023   0.333   7.554
 3298SOL    HW1 9893   3.942   0.374   7.523
 3298SOL    HW2 9894   4.007   0.317   7.647
 3299SOL     OW 9895   4.578   1.007   8.205
 3299SOL    HW1 9896   4.617   1.010   8.118
 3299SOL    HW2 9897   4.587   1.097   8.238
 3300SOL     OW 9898   4.671   0.915   7.124
 3300SOL    HW1 9899   4.734   0.948   7.060
 3300SOL    HW2 9900   4.712   0.837   7.160
 3301SOL     OW 9901   4.127   1.294   8.323
 3301SOL    HW1 9902   4.111   1.381   8.286
 3301SOL    HW2 9903   4.045   1.247   8.308
 3302SOL     OW 9904   4.796   1.104   7.533
 3302SOL    HW1 9905   4.728   1.055   7.579
 3302SOL    HW2 9906   4.847   1.037   7.488
 3303SOL     OW 9907   4.767   0.243   7.803
 3303SOL    HW1 9908   4.763   0.203   7.716
 3303SOL    HW2 9909   4.767   0.169   7.864
 3304SOL     OW 9910   4.348   1.493   7.323
 3304SOL    HW1 9911   4.383   1.439   7.253
 3304SOL    HW2 9912   4.302   1.564   7.278
 3305SOL     OW 9913   4.011   1.356   7.120
 3305SOL    HW1 9914   3.917   1.354   7.101
 3305SOL    HW2 9915   4.018   1.401   7.204
 3306SOL     OW 9916   3.861   1.019   8.559
 3306SOL    HW1 9917   3.789   0.986   8.612
 3306SOL    HW2 9918   3.940   0.986   8.602
 3307SOL     OW 9919   4.426   0.210   8.322
 3307SOL    HW1 9920   4.513   0.191   8.286
 3307SOL    HW2 9921   4.439   0.213   8.417
 3308SOL     OW 9922   3.830   0.350   6.867
 3308SOL    HW1 9923   3.743   0.326   6.836
 3308SOL    HW2 9924   3.856   0.424   6.811
 3309SOL     OW 9925   3.852   0.204   7.176
 3309SOL    HW1 9926   3.812   0.251   7.103
 3309SOL    HW2 9927   3.907   0.138   7.135
 3310SOL     OW 9928   4.368   0.846   8.264
 3310SOL    HW1 9929   4.424   0.922   8.248
 3310SOL    HW2 9930   4.428   0.772   8.267
 3311SOL     OW 9931   4.470   0.570   8.542
 3311SOL    HW1 9932   4.493   0.630   8.612
 3311SOL    HW2 9933   4.528   0.495   8.554
 3312SOL     OW 9934   4.144   1.747   8.393
 3312SOL    HW1 9935   4.055   1.782   8.391
 3312SOL    HW2 9936   4.134   1.657   8.425
 3313SOL     OW 9937   4.349   0.750   7.487
 3313SOL    HW1 9938   4.393   0.832   7.467
 3313SOL    HW2 9939   4.268   0.753   7.437
 3314SOL     OW 9940   4.613   1.378   6.849
 3314SOL    HW1 9941   4.573   1.397   6.934
 3314SOL    HW2 9942   4.653   1.461   6.822
 3315SOL     OW 9943   4.415   1.795   7.786
 3315SOL    HW1 9944   4.377   1.882   7.771
 3315SOL    HW2 9945   4.509   1.808   7.778
 3316SOL     OW 9946   4.615   0.962   7.693
 3316SOL    HW1 9947   4.666   0.897   7.742
 3316SOL    HW2 9948   4.586   1.025   7.760
 3317SOL     OW 9949   4.837   0.988   6.920
 3317SOL    HW1 9950   4.818   1.039   6.841
 3317SOL    HW2 9951   4.915   0.938   6.898
 3318SOL     OW 9952   3.977   1.318   8.678
 3318SOL    HW1 9953   3.912   1.249   8.661
 3318SOL    HW2 9954   3.975   1.329   8.773
 3319SOL     OW 9955   3.835   1.245   7.487
 3319SOL    HW1 9956   3.836   1.197   7.570
 3319SOL    HW2 9957   3.912   1.215   7.440
 3320SOL     OW 9958   4.428   1.397   8.455
 3320SOL    HW1 9959   4.352   1.353   8.493
 3320SOL    HW2 9960   4.423   1.486   8.489
 3321SOL     OW 9961   4.184   0.431   7.354
 3321SOL    HW1 9962   4.210   0.358   7.297
 3321SOL    HW2 9963   4.145   0.389   7.430
 3322SOL     OW 9964   4.073   0.552   8.115
 3322SOL    HW1 9965   4.115   0.494   8.179
 3322SOL    HW2 9966   4.111   0.526   8.031
 3323SOL     OW 9967   4.569   1.589   7.521
 3323SOL    HW1 9968   4.593   1.601   7.429
 3323SOL    HW2 9969   4.492   1.532   7.518
 3324SOL     OW 9970   4.755   0.038   7.985
 3324SOL    HW1 9971   4.700  -0.035   7.957
 3324SOL    HW2 9972   4.844   0.002   7.988
 3325SOL     OW 9973   4.524   1.336   7.136
 3325SOL    HW1 9974   4.484   1.251   7.150
 3325SOL    HW2 9975   4.612   1.329   7.175
 3326SOL     OW 9976   4.372   1.572   8.116
 3326SOL    HW1 9977   4.373   1.651   8.171
 3326SOL    HW2 9978   4.459   1.570   8.076
 3327SOL     OW 9979   3.794   1.082   7.134
 3327SOL    HW1 9980   3.889   1.069   7.125
 3327SOL    HW2 9981   3.761   0.998   7.162
 3328SOL     OW 9982   4.630   1.648   7.174
 3328SOL    HW1 9983   4.556   1.623   7.119
 3328SOL    HW2 9984   4.597   1.721   7.226
 3329SOL     OW 9985   3.986   0.634   8.809
 3329SOL    HW1 9986   3.895   0.629   8.841
 3329SOL    HW2 9987   3.982   0.596   8.721
 3330SOL     OW 9988   3.980   0.281   9.688
 3330SOL    HW1 9989   4.011   0.262   9.776
 3330SOL    HW2 9990   3.895   0.238   9.682
 3331SOL     OW 9991   3.771   0.378   9.339
 3331SOL    HW1 9992   3.689   0.409   9.378
 3331SOL    HW2 9993   3.745   0.304   9.284
 3332SOL     OW 9994   4.323   1.278   9.861
 3332SOL    HW1 9995   4.234   1.278   9.825
 3332SOL    HW2 9996   4.332   1.365   9.900
 3333SOL     OW 9997   4.877   0.711   9.403
 3333SOL    HW1 9998   4.946   0.777   9.394
 3333SOL    HW2 9999   4.835   0.732   9.486
 3334SOL     OW10000   4.522   1.149   9.720
 3334SOL    HW110001   4.448   1.171   9.776
 3334SOL    HW210002   4.552   1.233   9.685
 3335SOL     OW10003   4.441   1.019   9.357
 3335SOL    HW110004   4.503   1.002   9.428
 3335SOL    HW210005   4.372   1.070   9.399
 3336SOL     OW10006   4.089   1.440   9.758
 3336SOL    HW110007   4.016   1.411   9.703
 3336SOL    HW210008   4.143   1.493   9.700
 3337SOL     OW10009   0.216   1.514  10.036
 3337SOL    HW110010   0.236   1.603  10.065
 3337SOL    HW210011   0.203   1.464  10.116
 3338SOL     OW10012   3.984   1.717   9.177
 3338SOL    HW110013   4.018   1.792   9.226
 3338SOL    HW210014   4.031   1.719   9.094
 3339SOL     OW10015   3.985   1.439   9.232
 3339SOL    HW110016   3.959   1.531   9.236
 3339SOL    HW210017   3.916   1.392   9.278
 3340SOL     OW10018   3.997   1.096   9.581
 3340SOL    HW110019   4.006   1.016   9.633
 3340SOL    HW210020   3.943   1.154   9.635
 3341SOL     OW10021   4.357   0.971   8.820
 3341SOL    HW110022   4.373   1.049   8.767
 3341SOL    HW210023   4.405   0.987   8.901
 3342SOL     OW10024   3.875   0.650   9.258
 3342SOL    HW110025   3.836   0.565   9.277
 3342SOL    HW210026   3.872   0.697   9.341
 3343SOL     OW10027   3.782   1.601   8.813
 3343SOL    HW110028   3.763   1.510   8.836
 3343SOL    HW210029   3.750   1.652   8.888
 3344SOL     OW10030   4.368   1.373   9.422
 3344SOL    HW110031   4.320   1.290   9.428
 3344SOL    HW210032   4.344   1.408   9.337
 3345SOL     OW10033   4.565   0.010   9.228
 3345SOL    HW110034   4.601   0.093   9.197
 3345SOL    HW210035   4.472   0.016   9.208
 3346SOL     OW10036   3.952   0.981   9.958
 3346SOL    HW110037   4.034   0.935   9.944
 3346SOL    HW210038   3.884   0.916   9.939
 3347SOL     OW10039   4.351   0.732   8.963
 3347SOL    HW110040   4.372   0.803   8.902
 3347SOL    HW210041   4.279   0.767   9.016
 3348SOL     OW10042   4.798   0.705   9.124
 3348SOL    HW110043   4.817   0.700   9.217
 3348SOL    HW210044   4.715   0.658   9.113
 3349SOL     OW10045   3.832   0.817   9.478
 3349SOL    HW110046   3.926   0.808   9.498
 3349SOL    HW210047   3.811   0.906   9.507
 3350SOL     OW10048   4.622   0.352   8.891
 3350SOL    HW110049   4.679   0.409   8.840
 3350SOL    HW210050   4.641   0.264   8.860
 3351SOL     OW10051   4.306   0.201   9.580
 3351SOL    HW110052   4.299   0.202   9.676
 3351SOL    HW210053   4.307   0.293   9.555
 3352SOL     OW10054   4.763   1.459   9.171
 3352SOL    HW110055   4.719   1.531   9.125
 3352SOL    HW210056   4.758   1.483   9.264
 3353SOL     OW10057   4.106   1.807   9.546
 3353SOL    HW110058   4.156   1.726   9.555
 3353SOL    HW210059   4.171   1.876   9.547
 3354SOL     OW10060   4.075   0.950   8.937
 3354SOL    HW110061   4.155   0.981   8.895
 3354SOL    HW210062   4.052   0.870   8.890
 3355SOL     OW10063   4.869   1.780   8.933
 3355SOL    HW110064   4.807   1.721   8.975
 3355SOL    HW210065   4.889   1.738   8.850
 3356SOL     OW10066   4.219   1.747   9.018
 3356SOL    HW110067   4.254   1.788   9.097
 3356SOL    HW210068   4.295   1.741   8.959
 3357SOL     OW10069   4.005   1.792   9.935
 3357SOL    HW110070   4.058   1.726   9.980
 3357SOL    HW210071   3.990   1.756   9.848
 3358SOL     OW10072   4.696   1.704   9.599
 3358SOL    HW110073   4.770   1.646   9.616
 3358SOL    HW210074   4.649   1.662   9.527
 3359SOL     OW10075   4.138   0.705   9.176
 3359SOL    HW110076   4.176   0.617   9.174
 3359SOL    HW210077   4.048   0.691   9.204
 3360SOL     OW10078   4.364   0.138   8.803
 3360SOL    HW110079   4.452   0.104   8.820
 3360SOL    HW210080   4.342   0.105   8.716
 3361SOL     OW10081   4.558   1.407   9.620
 3361SOL    HW110082   4.642   1.418   9.577
 3361SOL    HW210083   4.494   1.407   9.549
 3362SOL     OW10084   4.678   0.510   9.595
 3362SOL    HW110085   4.654   0.496   9.503
 3362SOL    HW210086   4.721   0.429   9.622
 3363SOL     OW10087   4.299   0.069   9.206
 3363SOL    HW110088   4.219   0.070   9.259
 3363SOL    HW210089   4.294   0.149   9.153
 3364SOL     OW10090   4.053   0.039   8.867
 3364SOL    HW110091   4.102   0.119   8.848
 3364SOL    HW210092   4.116  -0.019   8.909
 3365SOL     OW10093   4.690   0.243   9.174
 3365SOL    HW110094   4.649   0.282   9.097
 3365SOL    HW210095   4.783   0.240   9.153
 3366SOL     OW10096  -0.021   1.577   9.489
 3366SOL    HW110097   0.005   1.644   9.427
 3366SOL    HW210098   0.050   1.574   9.553
 3367SOL     OW10099   4.216   1.154   9.437
 3367SOL    HW110100   4.143   1.131   9.495
 3367SOL    HW210101   4.185   1.130   9.349
 3368SOL     OW10102   0.024   1.802   9.290
 3368SOL    HW110103   0.065   1.862   9.228
 3368SOL    HW210104  -0.023   1.858   9.351
 3369SOL     OW10105   4.790   0.554   8.708
 3369SOL    HW110106   4.748   0.635   8.679
 3369SOL    HW210107   4.845   0.581   8.781
 3370SOL     OW10108   4.624   0.461   9.337
 3370SOL    HW110109   4.589   0.524   9.275
 3370SOL    HW210110   4.641   0.382   9.284
 3371SOL     OW10111   4.752   0.067   9.464
 3371SOL    HW110112   4.708   0.051   9.380
 3371SOL    HW210113   4.756  -0.019   9.506
 3372SOL     OW10114   4.245   1.393   8.868
 3372SOL    HW110115   4.161   1.376   8.911
 3372SOL    HW210116   4.222   1.413   8.778
 3373SOL     OW10117   4.281   0.263   9.024
 3373SOL    HW110118   4.310   0.208   8.951
 3373SOL    HW210119   4.281   0.352   8.988
 3374SOL     OW10120   4.861   1.196   9.793
 3374SOL    HW110121   4.827   1.244   9.869
 3374SOL    HW210122   4.823   1.240   9.717
 3375SOL     OW10123   4.460   1.058   9.064
 3375SOL    HW110124   4.449   1.058   9.159
 3375SOL    HW210125   4.539   1.006   9.049
 3376SOL     OW10126   4.166   0.818   9.947
 3376SOL    HW110127   4.247   0.826   9.996
 3376SOL    HW210128   4.129   0.734   9.973
 3377SOL     OW10129   4.120   1.105   9.195
 3377SOL    HW110130   4.115   1.182   9.138
 3377SOL    HW210131   4.125   1.031   9.135
 3378SOL     OW10132   4.319   0.542   9.560
 3378SOL    HW110133   4.335   0.606   9.491
 3378SOL    HW210134   4.367   0.577   9.636
 3379SOL     OW10135   5.006   1.349   9.111
 3379SOL    HW110136   5.047   1.434   9.129
 3379SOL    HW210137   4.913   1.364   9.123
 3380SOL     OW10138   4.330   0.874   9.724
 3380SOL    HW110139   4.368   0.962   9.718
 3380SOL    HW210140   4.270   0.879   9.799
 3381SOL     OW10141   0.105   0.865   9.749
 3381SOL    HW110142   0.042   0.863   9.677
 3381SOL    HW210143   0.148   0.780   9.745
 3382SOL     OW10144   4.962   0.530   8.969
 3382SOL    HW110145   4.977   0.454   9.024
 3382SOL    HW210146   4.936   0.599   9.030
 3383SOL     OW10147   4.063   0.217   9.927
 3383SOL    HW110148   4.039   0.249  10.014
 3383SOL    HW210149   4.033   0.127   9.926
 3384SOL     OW10150   3.791   1.316   9.977
 3384SOL    HW110151   3.842   1.270  10.044
 3384SOL    HW210152   3.817   1.408   9.986
 3385SOL     OW10153   4.487   0.639   9.759
 3385SOL    HW110154   4.545   0.617   9.687
 3385SOL    HW210155   4.461   0.730   9.743
 3386SOL     OW10156   4.063   0.073   9.313
 3386SOL    HW110157   4.049   0.161   9.349
 3386SOL    HW210158   4.060   0.015   9.389
 3387SOL     OW10159   4.777   0.771   9.660
 3387SOL    HW110160   4.792   0.787   9.754
 3387SOL    HW210161   4.751   0.679   9.656
 3388SOL     OW10162   0.311   0.285   8.846
 3388SOL    HW110163   0.243   0.218   8.854
 3388SOL    HW210164   0.309   0.331   8.930
 3389SOL     OW10165   4.824   1.338   9.545
 3389SOL    HW110166   4.830   1.261   9.488
 3389SOL    HW210167   4.884   1.401   9.506
 3390SOL     OW10168   4.072   0.817   9.646
 3390SOL    HW110169   4.164   0.844   9.648
 3390SOL    HW210170   4.071   0.733   9.691
 3391SOL     OW10171   4.092   0.517   9.700
 3391SOL    HW110172   4.048   0.434   9.684
 3391SOL    HW210173   4.166   0.518   9.640
 3392SOL     OW10174   3.762   1.332   8.893
 3392SOL    HW110175   3.672   1.346   8.864
 3392SOL    HW210176   3.768   1.238   8.909
 3393SOL     OW10177   3.843   1.805   9.623
 3393SOL    HW110178   3.807   1.722   9.593
 3393SOL    HW210179   3.933   1.806   9.590
 3394SOL     OW10180   4.258   1.575   9.602
 3394SOL    HW110181   4.326   1.641   9.614
 3394SOL    HW210182   4.304   1.500   9.564
 3395SOL     OW10183   4.757   0.800   9.932
 3395SOL    HW110184   4.793   0.770  10.016
 3395SOL    HW210185   4.665   0.773   9.934
 3396SOL     OW10186   3.794   0.546   9.810
 3396SOL    HW110187   3.877   0.519   9.772
 3396SOL    HW210188   3.815   0.563   9.902
 3397SOL     OW10189   4.570   0.575   9.025
 3397SOL    HW110190   4.572   0.493   8.976
 3397SOL    HW210191   4.482   0.610   9.011
 3398SOL     OW10192   4.425   0.469   9.965
 3398SOL    HW110193   4.394   0.385   9.931
 3398SOL    HW210194   4.450   0.519   9.887
 3399SOL     OW10195   4.228   0.504   8.884
 3399SOL    HW110196   4.283   0.583   8.893
 3399SOL    HW210197   4.139   0.537   8.892
 3400SOL     OW10198   3.913   1.143  10.161
 3400SOL    HW110199   3.935   1.083  10.232
 3400SOL    HW210200   3.925   1.093  10.081
 3401SOL     OW10201   0.001   1.733   9.833
 3401SOL    HW110202   0.077   1.743   9.776
 3401SOL    HW210203  -0.011   1.638   9.840
 3402SOL     OW10204   3.838   1.264   9.716
 3402SOL    HW110205   3.829   1.263   9.812
 3402SOL    HW210206   3.759   1.222   9.684
 3403SOL     OW10207   4.426   1.621   8.850
 3403SOL    HW110208   4.435   1.627   8.755
 3403SOL    HW210209   4.388   1.534   8.865
 3404SOL     OW10210   4.023   0.333   9.416
 3404SOL    HW110211   3.942   0.374   9.385
 3404SOL    HW210212   4.007   0.317   9.509
 3405SOL     OW10213   4.576   1.007  10.067
 3405SOL    HW110214   4.617   1.009   9.980
 3405SOL    HW210215   4.588   1.095  10.102
 3406SOL     OW10216   4.671   0.915   8.986
 3406SOL    HW110217   4.734   0.948   8.922
 3406SOL    HW210218   4.712   0.837   9.022
 3407SOL     OW10219   4.796   1.104   9.395
 3407SOL    HW110220   4.728   1.055   9.441
 3407SOL    HW210221   4.847   1.036   9.350
 3408SOL     OW10222   4.768   0.243   9.664
 3408SOL    HW110223   4.763   0.202   9.578
 3408SOL    HW210224   4.766   0.170   9.726
 3409SOL     OW10225   4.348   1.493   9.185
 3409SOL    HW110226   4.383   1.439   9.115
 3409SOL    HW210227   4.302   1.564   9.140
 3410SOL     OW10228   4.011   1.355   8.982
 3410SOL    HW110229   3.917   1.355   8.963
 3410SOL    HW210230   4.018   1.401   9.066
 3411SOL     OW10231   3.830   0.350   8.729
 3411SOL    HW110232   3.743   0.326   8.698
 3411SOL    HW210233   3.856   0.424   8.673
 3412SOL     OW10234   3.852   0.204   9.038
 3412SOL    HW110235   3.812   0.251   8.965
 3412SOL    HW210236   3.907   0.138   8.997
 3413SOL     OW10237   4.349   0.750   9.349
 3413SOL    HW110238   4.393   0.832   9.329
 3413SOL    HW210239   4.268   0.753   9.299
 3414SOL     OW10240   4.613   1.378   8.711
 3414SOL    HW110241   4.573   1.397   8.796
 3414SOL    HW210242   4.653   1.461   8.684
 3415SOL     OW10243   4.415   1.795   9.647
 3415SOL    HW110244   4.377   1.882   9.633
 3415SOL    HW210245   4.509   1.808   9.641
 3416SOL     OW10246   4.615   0.962   9.555
 3416SOL    HW110247   4.666   0.897   9.604
 3416SOL    HW210248   4.586   1.025   9.622
 3417SOL     OW10249   4.837   0.988   8.782
 3417SOL    HW110250   4.818   1.039   8.703
 3417SOL    HW210251   4.915   0.938   8.760
 3418SOL     OW10252   3.835   1.245   9.349
 3418SOL    HW110253   3.836   1.197   9.432
 3418SOL    HW210254   3.912   1.215   9.302
 3419SOL     OW10255   4.184   0.431   9.216
 3419SOL    HW110256   4.210   0.358   9.159
 3419SOL    HW210257   4.145   0.389   9.292
 3420SOL     OW10258   4.569   1.589   9.383
 3420SOL    HW110259   4.593   1.600   9.291
 3420SOL    HW210260   4.492   1.532   9.380
 3421SOL     OW10261   4.755   0.039   9.847
 3421SOL    HW110262   4.700  -0.034   9.820
 3421SOL    HW210263   4.844   0.002   9.850
 3422SOL     OW10264   4.524   1.336   8.998
 3422SOL    HW110265   4.484   1.251   9.012
 3422SOL    HW210266   4.612   1.329   9.037
 3423SOL     OW10267   3.794   1.082   8.996
 3423SOL    HW110268   3.889   1.069   8.987
 3423SOL    HW210269   3.761   0.998   9.024
 3424SOL     OW10270   4.630   1.648   9.036
 3424SOL    HW110271   4.556   1.623   8.981
 3424SOL    HW210272   4.597   1.721   9.088
 3425SOL     OW10273   3.986   2.495   5.085
 3425SOL    HW110274   3.895   2.492   5.117
 3425SOL    HW210275   3.982   2.458   4.997
 3426SOL     OW10276   3.980   2.142   5.964
 3426SOL    HW110277   4.010   2.123   6.053
 3426SOL    HW210278   3.894   2.100   5.958
 3427SOL     OW10279   3.771   2.240   5.613
 3427SOL    HW110280   3.690   2.271   5.654
 3427SOL    HW210281   3.744   2.165   5.560
 3428SOL     OW10282   4.324   3.141   6.137
 3428SOL    HW110283   4.235   3.140   6.101
 3428SOL    HW210284   4.332   3.228   6.177
 3429SOL     OW10285   4.877   2.573   5.679
 3429SOL    HW110286   4.946   2.639   5.670
 3429SOL    HW210287   4.835   2.594   5.762
 3430SOL     OW10288   4.522   3.011   5.995
 3430SOL    HW110289   4.448   3.033   6.052
 3430SOL    HW210290   4.552   3.095   5.961
 3431SOL     OW10291   4.607   2.664   6.794
 3431SOL    HW110292   4.601   2.738   6.853
 3431SOL    HW210293   4.626   2.703   6.708
 3432SOL     OW10294   4.441   2.881   5.633
 3432SOL    HW110295   4.503   2.864   5.704
 3432SOL    HW210296   4.371   2.932   5.675
 3433SOL     OW10297   4.444   3.027   6.774
 3433SOL    HW110298   4.497   3.105   6.787
 3433SOL    HW210299   4.362   3.059   6.736
 3434SOL     OW10300   4.088   3.303   6.035
 3434SOL    HW110301   4.016   3.273   5.979
 3434SOL    HW210302   4.143   3.355   5.976
 3435SOL     OW10303   4.194   2.261   6.471
 3435SOL    HW110304   4.270   2.203   6.477
 3435SOL    HW210305   4.119   2.202   6.474
 3436SOL     OW10306   3.984   3.579   5.453
 3436SOL    HW110307   4.018   3.654   5.502
 3436SOL    HW210308   4.031   3.581   5.370
 3437SOL     OW10309   4.885   3.206   6.659
 3437SOL    HW110310   4.926   3.206   6.745
 3437SOL    HW210311   4.835   3.124   6.655
 3438SOL     OW10312   3.985   3.302   5.509
 3438SOL    HW110313   3.958   3.393   5.511
 3438SOL    HW210314   3.915   3.254   5.554
 3439SOL     OW10315   3.997   2.958   5.857
 3439SOL    HW110316   4.006   2.878   5.909
 3439SOL    HW210317   3.943   3.016   5.911
 3440SOL     OW10318   4.375   3.654   6.409
 3440SOL    HW110319   4.288   3.640   6.446
 3440SOL    HW210320   4.399   3.742   6.435
 3441SOL     OW10321   4.360   2.831   5.095
 3441SOL    HW110322   4.370   2.912   5.045
 3441SOL    HW210323   4.405   2.849   5.178
 3442SOL     OW10324   3.876   2.511   5.534
 3442SOL    HW110325   3.835   2.426   5.553
 3442SOL    HW210326   3.872   2.559   5.616
 3443SOL     OW10327   3.779   3.464   5.086
 3443SOL    HW110328   3.765   3.373   5.112
 3443SOL    HW210329   3.752   3.515   5.163
 3444SOL     OW10330   3.869   2.604   6.565
 3444SOL    HW110331   3.954   2.599   6.609
 3444SOL    HW210332   3.855   2.697   6.550
 3445SOL     OW10333   4.369   3.234   5.698
 3445SOL    HW110334   4.320   3.152   5.704
 3445SOL    HW210335   4.344   3.270   5.613
 3446SOL     OW10336   4.563   1.869   5.471
 3446SOL    HW110337   4.600   1.957   5.466
 3446SOL    HW210338   4.469   1.883   5.480
 3447SOL     OW10339   3.952   2.843   6.235
 3447SOL    HW110340   4.034   2.797   6.221
 3447SOL    HW210341   3.884   2.778   6.214
 3448SOL     OW10342   4.074   2.118   6.770
 3448SOL    HW110343   4.137   2.190   6.780
 3448SOL    HW210344   3.991   2.155   6.801
 3449SOL     OW10345   4.351   2.594   5.239
 3449SOL    HW110346   4.372   2.665   5.178
 3449SOL    HW210347   4.279   2.630   5.292
 3450SOL     OW10348   4.561   2.474   6.434
 3450SOL    HW110349   4.517   2.465   6.518
 3450SOL    HW210350   4.510   2.418   6.375
 3451SOL     OW10351   4.725   2.758   6.545
 3451SOL    HW110352   4.771   2.680   6.514
 3451SOL    HW210353   4.675   2.788   6.470
 3452SOL     OW10354   4.746   2.275   6.216
 3452SOL    HW110355   4.668   2.308   6.261
 3452SOL    HW210356   4.713   2.230   6.139
 3453SOL     OW10357   4.798   2.566   5.400
 3453SOL    HW110358   4.817   2.562   5.493
 3453SOL    HW210359   4.715   2.520   5.389
 3454SOL     OW10360   3.833   2.680   5.754
 3454SOL    HW110361   3.926   2.670   5.774
 3454SOL    HW210362   3.810   2.768   5.783
 3455SOL     OW10363   3.885   3.688   6.543
 3455SOL    HW110364   3.873   3.675   6.637
 3455SOL    HW210365   3.801   3.722   6.512
 3456SOL     OW10366   4.623   2.215   5.169
 3456SOL    HW110367   4.678   2.271   5.115
 3456SOL    HW210368   4.639   2.127   5.136
 3457SOL     OW10369   4.303   2.062   5.856
 3457SOL    HW110370   4.301   2.064   5.952
 3457SOL    HW210371   4.307   2.153   5.829
 3458SOL     OW10372   4.763   3.321   5.447
 3458SOL    HW110373   4.719   3.393   5.402
 3458SOL    HW210374   4.758   3.345   5.540
 3459SOL     OW10375   4.106   3.669   5.823
 3459SOL    HW110376   4.157   3.588   5.831
 3459SOL    HW210377   4.171   3.738   5.823
 3460SOL     OW10378   4.962   3.419   6.495
 3460SOL    HW110379   4.985   3.338   6.541
 3460SOL    HW210380   4.936   3.391   6.407
 3461SOL     OW10381   4.077   2.811   5.214
 3461SOL    HW110382   4.155   2.844   5.169
 3461SOL    HW210383   4.053   2.732   5.165
 3462SOL     OW10384   4.217   3.131   6.702
 3462SOL    HW110385   4.170   3.134   6.618
 3462SOL    HW210386   4.149   3.118   6.767
 3463SOL     OW10387   4.863   3.645   5.206
 3463SOL    HW110388   4.808   3.581   5.253
 3463SOL    HW210389   4.893   3.598   5.128
 3464SOL     OW10390   3.956   2.151   6.469
 3464SOL    HW110391   3.879   2.207   6.460
 3464SOL    HW210392   3.943   2.105   6.552
 3465SOL     OW10393   4.220   3.608   5.294
 3465SOL    HW110394   4.254   3.650   5.373
 3465SOL    HW210395   4.295   3.603   5.235
 3466SOL     OW10396   4.004   3.653   6.212
 3466SOL    HW110397   4.059   3.589   6.256
 3466SOL    HW210398   3.992   3.618   6.124
 3467SOL     OW10399   4.695   3.565   5.875
 3467SOL    HW110400   4.770   3.508   5.892
 3467SOL    HW210401   4.649   3.524   5.802
 3468SOL     OW10402   4.138   2.567   5.451
 3468SOL    HW110403   4.176   2.479   5.450
 3468SOL    HW210404   4.048   2.554   5.481
 3469SOL     OW10405   4.369   1.986   5.089
 3469SOL    HW110406   4.462   1.968   5.091
 3469SOL    HW210407   4.344   1.972   4.997
 3470SOL     OW10408   4.535   2.132   6.720
 3470SOL    HW110409   4.597   2.072   6.761
 3470SOL    HW210410   4.468   2.147   6.786
 3471SOL     OW10411   4.643   3.383   6.165
 3471SOL    HW110412   4.622   3.353   6.077
 3471SOL    HW210413   4.700   3.316   6.201
 3472SOL     OW10414   4.559   3.272   5.897
 3472SOL    HW110415   4.643   3.279   5.852
 3472SOL    HW210416   4.494   3.268   5.826
 3473SOL     OW10417   4.677   2.372   5.871
 3473SOL    HW110418   4.654   2.358   5.779
 3473SOL    HW210419   4.722   2.291   5.897
 3474SOL     OW10420   4.299   1.931   5.484
 3474SOL    HW110421   4.217   1.933   5.535
 3474SOL    HW210422   4.295   2.010   5.430
 3475SOL     OW10423   4.051   1.904   5.144
 3475SOL    HW110424   4.104   1.981   5.123
 3475SOL    HW210425   4.112   1.843   5.185
 3476SOL     OW10426   4.690   2.107   5.451
 3476SOL    HW110427   4.648   2.143   5.373
 3476SOL    HW210428   4.783   2.101   5.428
 3477SOL     OW10429   4.833   2.547   6.438
 3477SOL    HW110430   4.757   2.489   6.436
 3477SOL    HW210431   4.906   2.492   6.409
 3478SOL     OW10432  -0.022   3.439   5.765
 3478SOL    HW110433   0.005   3.506   5.702
 3478SOL    HW210434   0.050   3.436   5.829
 3479SOL     OW10435   4.216   3.016   5.713
 3479SOL    HW110436   4.143   2.993   5.771
 3479SOL    HW210437   4.185   2.992   5.625
 3480SOL     OW10438   0.023   3.664   5.566
 3480SOL    HW110439   0.065   3.724   5.504
 3480SOL    HW210440  -0.023   3.720   5.627
 3481SOL     OW10441   4.788   2.415   4.987
 3481SOL    HW110442   4.750   2.496   4.954
 3481SOL    HW210443   4.847   2.443   5.057
 3482SOL     OW10444   3.832   2.422   6.358
 3482SOL    HW110445   3.920   2.424   6.321
 3482SOL    HW210446   3.830   2.494   6.421
 3483SOL     OW10447   4.318   2.091   6.121
 3483SOL    HW110448   4.350   2.008   6.157
 3483SOL    HW210449   4.232   2.102   6.160
 3484SOL     OW10450   4.624   2.322   5.613
 3484SOL    HW110451   4.589   2.386   5.551
 3484SOL    HW210452   4.641   2.245   5.560
 3485SOL     OW10453   4.772   1.909   5.724
 3485SOL    HW110454   4.702   1.908   5.659
 3485SOL    HW210455   4.748   1.840   5.786
 3486SOL     OW10456   4.245   3.256   5.144
 3486SOL    HW110457   4.161   3.237   5.187
 3486SOL    HW210458   4.221   3.275   5.053
 3487SOL     OW10459   4.282   2.124   5.299
 3487SOL    HW110460   4.309   2.070   5.226
 3487SOL    HW210461   4.282   2.214   5.265
 3488SOL     OW10462   4.816   3.219   6.311
 3488SOL    HW110463   4.743   3.189   6.365
 3488SOL    HW210464   4.894   3.187   6.356
 3489SOL     OW10465   4.861   3.057   6.070
 3489SOL    HW110466   4.829   3.107   6.145
 3489SOL    HW210467   4.823   3.102   5.994
 3490SOL     OW10468   4.670   1.959   6.374
 3490SOL    HW110469   4.696   1.940   6.284
 3490SOL    HW210470   4.743   2.009   6.410
 3491SOL     OW10471   4.737   2.981   6.691
 3491SOL    HW110472   4.641   2.987   6.699
 3491SOL    HW210473   4.751   2.905   6.634
 3492SOL     OW10474   4.461   2.920   5.340
 3492SOL    HW110475   4.449   2.920   5.435
 3492SOL    HW210476   4.539   2.868   5.325
 3493SOL     OW10477   4.166   2.680   6.221
 3493SOL    HW110478   4.245   2.689   6.274
 3493SOL    HW210479   4.128   2.596   6.248
 3494SOL     OW10480   3.819   3.433   6.305
 3494SOL    HW110481   3.779   3.511   6.268
 3494SOL    HW210482   3.913   3.453   6.309
 3495SOL     OW10483   4.121   2.967   5.471
 3495SOL    HW110484   4.115   3.044   5.414
 3495SOL    HW210485   4.124   2.893   5.411
 3496SOL     OW10486   4.319   2.404   5.836
 3496SOL    HW110487   4.335   2.468   5.767
 3496SOL    HW210488   4.366   2.439   5.912
 3497SOL     OW10489   5.006   3.211   5.388
 3497SOL    HW110490   5.047   3.295   5.404
 3497SOL    HW210491   4.912   3.227   5.399
 3498SOL     OW10492   4.108   3.380   6.299
 3498SOL    HW110493   4.093   3.336   6.215
 3498SOL    HW210494   4.201   3.399   6.299
 3499SOL     OW10495   4.158   2.617   6.568
 3499SOL    HW110496   4.225   2.666   6.522
 3499SOL    HW210497   4.200   2.534   6.592
 3500SOL     OW10498   4.765   1.973   6.741
 3500SOL    HW110499   4.778   2.052   6.687
 3500SOL    HW210500   4.799   1.902   6.687
 3501SOL     OW10501   4.259   1.919   6.711
 3501SOL    HW110502   4.217   1.864   6.646
 3501SOL    HW210503   4.192   1.981   6.738
 3502SOL     OW10504   4.330   2.736   6.000
 3502SOL    HW110505   4.368   2.824   5.995
 3502SOL    HW210506   4.270   2.741   6.075
 3503SOL     OW10507   0.106   2.728   6.024
 3503SOL    HW110508   0.041   2.725   5.953
 3503SOL    HW210509   0.148   2.642   6.022
 3504SOL     OW10510   4.963   2.393   5.245
 3504SOL    HW110511   4.977   2.315   5.300
 3504SOL    HW210512   4.935   2.461   5.305
 3505SOL     OW10513   4.063   2.079   6.205
 3505SOL    HW110514   4.036   2.111   6.291
 3505SOL    HW210515   4.032   1.988   6.202
 3506SOL     OW10516   3.795   3.175   6.251
 3506SOL    HW110517   3.843   3.132   6.321
 3506SOL    HW210518   3.813   3.269   6.262
 3507SOL     OW10519   4.487   2.501   6.036
 3507SOL    HW110520   4.545   2.479   5.963
 3507SOL    HW210521   4.461   2.592   6.019
 3508SOL     OW10522   4.060   1.931   5.590
 3508SOL    HW110523   4.049   2.020   5.625
 3508SOL    HW210524   4.056   1.875   5.667
 3509SOL     OW10525   4.776   2.633   5.937
 3509SOL    HW110526   4.792   2.649   6.030
 3509SOL    HW210527   4.751   2.541   5.932
 3510SOL     OW10528   4.732   3.438   6.673
 3510SOL    HW110529   4.718   3.479   6.588
 3510SOL    HW210530   4.775   3.355   6.654
 3511SOL     OW10531   4.104   2.771   6.776
 3511SOL    HW110532   4.182   2.804   6.819
 3511SOL    HW210533   4.138   2.721   6.701
 3512SOL     OW10534   4.823   3.200   5.820
 3512SOL    HW110535   4.830   3.123   5.764
 3512SOL    HW210536   4.884   3.263   5.783
 3513SOL     OW10537   4.073   2.679   5.921
 3513SOL    HW110538   4.164   2.707   5.925
 3513SOL    HW210539   4.071   2.596   5.968
 3514SOL     OW10540   4.093   2.378   5.977
 3514SOL    HW110541   4.048   2.296   5.959
 3514SOL    HW210542   4.167   2.379   5.915
 3515SOL     OW10543   4.894   2.247   6.651
 3515SOL    HW110544   4.852   2.309   6.710
 3515SOL    HW210545   4.981   2.283   6.636
 3516SOL     OW10546   4.916   2.073   6.448
 3516SOL    HW110547   4.913   2.137   6.518
 3516SOL    HW210548   4.940   2.123   6.370
 3517SOL     OW10549   3.760   3.194   5.175
 3517SOL    HW110550   3.673   3.208   5.139
 3517SOL    HW210551   3.769   3.098   5.180
 3518SOL     OW10552   3.843   3.667   5.900
 3518SOL    HW110553   3.807   3.584   5.869
 3518SOL    HW210554   3.933   3.668   5.865
 3519SOL     OW10555   4.258   3.437   5.878
 3519SOL    HW110556   4.326   3.503   5.891
 3519SOL    HW210557   4.304   3.362   5.840
 3520SOL     OW10558   4.756   2.664   6.208
 3520SOL    HW110559   4.794   2.632   6.289
 3520SOL    HW210560   4.665   2.634   6.210
 3521SOL     OW10561   3.794   2.410   6.085
 3521SOL    HW110562   3.878   2.381   6.048
 3521SOL    HW210563   3.812   2.424   6.178
 3522SOL     OW10564   3.945   2.386   6.694
 3522SOL    HW110565   3.999   2.351   6.623
 3522SOL    HW210566   3.890   2.452   6.652
 3523SOL     OW10567   4.570   2.437   5.301
 3523SOL    HW110568   4.573   2.356   5.251
 3523SOL    HW210569   4.482   2.472   5.286
 3524SOL     OW10570   4.008   3.429   6.713
 3524SOL    HW110571   3.978   3.483   6.787
 3524SOL    HW210572   3.999   3.339   6.744
 3525SOL     OW10573   4.429   2.330   6.240
 3525SOL    HW110574   4.394   2.247   6.208
 3525SOL    HW210575   4.449   2.381   6.162
 3526SOL     OW10576   4.684   3.545   6.436
 3526SOL    HW110577   4.663   3.529   6.344
 3526SOL    HW210578   4.711   3.636   6.440
 3527SOL     OW10579   4.228   2.366   5.162
 3527SOL    HW110580   4.283   2.444   5.168
 3527SOL    HW210581   4.139   2.400   5.168
 3528SOL     OW10582   3.911   3.005   6.437
 3528SOL    HW110583   3.933   2.944   6.508
 3528SOL    HW210584   3.925   2.953   6.358
 3529SOL     OW10585  -0.001   3.596   6.107
 3529SOL    HW110586   0.077   3.606   6.051
 3529SOL    HW210587  -0.012   3.501   6.115
 3530SOL     OW10588   3.839   3.126   5.992
 3530SOL    HW110589   3.829   3.125   6.088
 3530SOL    HW210590   3.759   3.085   5.960
 3531SOL     OW10591   4.440   3.528   6.687
 3531SOL    HW110592   4.390   3.609   6.692
 3531SOL    HW210593   4.492   3.536   6.607
 3532SOL     OW10594   4.659   1.954   5.104
 3532SOL    HW110595   4.710   1.951   5.023
 3532SOL    HW210596   4.714   1.911   5.169
 3533SOL     OW10597   3.886   3.663   6.820
 3533SOL    HW110598   3.846   3.593   6.872
 3533SOL    HW210599   3.945   3.708   6.880
 3534SOL     OW10600   4.582   3.136   6.397
 3534SOL    HW110601   4.574   3.174   6.484
 3534SOL    HW210602   4.502   3.161   6.352
 3535SOL     OW10603   4.427   3.482   5.126
 3535SOL    HW110604   4.433   3.489   5.031
 3535SOL    HW210605   4.387   3.397   5.142
 3536SOL     OW10606   4.022   2.193   5.692
 3536SOL    HW110607   3.942   2.236   5.661
 3536SOL    HW210608   4.007   2.179   5.786
 3537SOL     OW10609   4.578   2.869   6.343
 3537SOL    HW110610   4.617   2.872   6.256
 3537SOL    HW210611   4.587   2.959   6.376
 3538SOL     OW10612   4.671   2.777   5.262
 3538SOL    HW110613   4.733   2.810   5.197
 3538SOL    HW210614   4.713   2.699   5.298
 3539SOL     OW10615   4.127   3.156   6.461
 3539SOL    HW110616   4.111   3.243   6.424
 3539SOL    HW210617   4.045   3.109   6.446
 3540SOL     OW10618   4.796   2.966   5.670
 3540SOL    HW110619   4.728   2.917   5.717
 3540SOL    HW210620   4.847   2.899   5.626
 3541SOL     OW10621   4.766   2.104   5.941
 3541SOL    HW110622   4.763   2.064   5.854
 3541SOL    HW210623   4.768   2.031   6.002
 3542SOL     OW10624   4.348   3.356   5.461
 3542SOL    HW110625   4.383   3.301   5.391
 3542SOL    HW210626   4.302   3.426   5.416
 3543SOL     OW10627   4.012   3.216   5.260
 3543SOL    HW110628   3.920   3.218   5.236
 3543SOL    HW210629   4.016   3.264   5.343
 3544SOL     OW10630   3.861   2.881   6.697
 3544SOL    HW110631   3.789   2.848   6.750
 3544SOL    HW210632   3.940   2.848   6.740
 3545SOL     OW10633   4.426   2.069   6.461
 3545SOL    HW110634   4.513   2.054   6.424
 3545SOL    HW210635   4.440   2.076   6.555
 3546SOL     OW10636   3.827   2.032   5.290
 3546SOL    HW110637   3.814   2.111   5.237
 3546SOL    HW210638   3.913   2.000   5.264
 3547SOL     OW10639   4.368   2.708   6.402
 3547SOL    HW110640   4.424   2.784   6.386
 3547SOL    HW210641   4.428   2.634   6.405
 3548SOL     OW10642   4.469   2.432   6.680
 3548SOL    HW110643   4.493   2.492   6.750
 3548SOL    HW210644   4.528   2.357   6.692
 3549SOL     OW10645   4.144   3.609   6.531
 3549SOL    HW110646   4.055   3.644   6.529
 3549SOL    HW210647   4.134   3.519   6.563
 3550SOL     OW10648   4.349   2.612   5.625
 3550SOL    HW110649   4.393   2.694   5.605
 3550SOL    HW210650   4.267   2.616   5.575
 3551SOL     OW10651   4.613   3.241   4.986
 3551SOL    HW110652   4.573   3.257   5.071
 3551SOL    HW210653   4.655   3.324   4.963
 3552SOL     OW10654   4.415   3.657   5.924
 3552SOL    HW110655   4.377   3.744   5.909
 3552SOL    HW210656   4.509   3.670   5.916
 3553SOL     OW10657   4.615   2.824   5.831
 3553SOL    HW110658   4.666   2.759   5.880
 3553SOL    HW210659   4.586   2.887   5.898
 3554SOL     OW10660   4.836   2.848   5.057
 3554SOL    HW110661   4.819   2.901   4.979
 3554SOL    HW210662   4.917   2.801   5.037
 3555SOL     OW10663   3.977   3.180   6.816
 3555SOL    HW110664   3.912   3.111   6.798
 3555SOL    HW210665   3.975   3.191   6.911
 3556SOL     OW10666   3.835   3.107   5.625
 3556SOL    HW110667   3.836   3.060   5.708
 3556SOL    HW210668   3.913   3.077   5.578
 3557SOL     OW10669   4.428   3.259   6.593
 3557SOL    HW110670   4.352   3.215   6.631
 3557SOL    HW210671   4.423   3.348   6.627
 3558SOL     OW10672   4.183   2.293   5.491
 3558SOL    HW110673   4.210   2.220   5.435
 3558SOL    HW210674   4.145   2.251   5.568
 3559SOL     OW10675   4.074   2.415   6.253
 3559SOL    HW110676   4.114   2.356   6.317
 3559SOL    HW210677   4.110   2.388   6.169
 3560SOL     OW10678   4.569   3.451   5.659
 3560SOL    HW110679   4.593   3.463   5.567
 3560SOL    HW210680   4.492   3.394   5.656
 3561SOL     OW10681   4.756   1.899   6.125
 3561SOL    HW110682   4.700   1.828   6.094
 3561SOL    HW210683   4.844   1.862   6.123
 3562SOL     OW10684   4.525   3.198   5.273
 3562SOL    HW110685   4.484   3.113   5.288
 3562SOL    HW210686   4.612   3.191   5.313
 3563SOL     OW10687   4.372   3.434   6.254
 3563SOL    HW110688   4.373   3.513   6.309
 3563SOL    HW210689   4.459   3.432   6.214
 3564SOL     OW10690   4.630   3.511   5.311
 3564SOL    HW110691   4.556   3.485   5.257
 3564SOL    HW210692   4.597   3.583   5.365
 3565SOL     OW10693   3.986   2.495   6.947
 3565SOL    HW110694   3.895   2.492   6.979
 3565SOL    HW210695   3.982   2.458   6.859
 3566SOL     OW10696   3.980   2.142   7.826
 3566SOL    HW110697   4.010   2.123   7.915
 3566SOL    HW210698   3.894   2.100   7.820
 3567SOL     OW10699   3.771   2.240   7.476
 3567SOL    HW110700   3.690   2.272   7.516
 3567SOL    HW210701   3.744   2.166   7.422
 3568SOL     OW10702   4.324   3.141   7.999
 3568SOL    HW110703   4.235   3.140   7.964
 3568SOL    HW210704   4.332   3.228   8.039
 3569SOL     OW10705   4.877   2.573   7.541
 3569SOL    HW110706   4.946   2.639   7.532
 3569SOL    HW210707   4.835   2.594   7.624
 3570SOL     OW10708   4.522   3.011   7.857
 3570SOL    HW110709   4.448   3.033   7.914
 3570SOL    HW210710   4.552   3.095   7.823
 3571SOL     OW10711   4.607   2.664   8.656
 3571SOL    HW110712   4.601   2.738   8.715
 3571SOL    HW210713   4.626   2.703   8.570
 3572SOL     OW10714   4.441   2.881   7.495
 3572SOL    HW110715   4.503   2.864   7.566
 3572SOL    HW210716   4.372   2.932   7.537
 3573SOL     OW10717   4.444   3.027   8.636
 3573SOL    HW110718   4.497   3.105   8.649
 3573SOL    HW210719   4.362   3.059   8.598
 3574SOL     OW10720   4.088   3.302   7.897
 3574SOL    HW110721   4.016   3.273   7.841
 3574SOL    HW210722   4.143   3.355   7.838
 3575SOL     OW10723   4.194   2.261   8.333
 3575SOL    HW110724   4.270   2.203   8.339
 3575SOL    HW210725   4.119   2.202   8.336
 3576SOL     OW10726   3.984   3.579   7.315
 3576SOL    HW110727   4.018   3.654   7.364
 3576SOL    HW210728   4.031   3.581   7.232
 3577SOL     OW10729   4.885   3.206   8.521
 3577SOL    HW110730   4.926   3.206   8.607
 3577SOL    HW210731   4.835   3.124   8.517
 3578SOL     OW10732   3.985   3.301   7.370
 3578SOL    HW110733   3.959   3.393   7.374
 3578SOL    HW210734   3.916   3.254   7.416
 3579SOL     OW10735   3.997   2.958   7.719
 3579SOL    HW110736   4.006   2.878   7.771
 3579SOL    HW210737   3.943   3.016   7.773
 3580SOL     OW10738   4.375   3.654   8.271
 3580SOL    HW110739   4.288   3.640   8.308
 3580SOL    HW210740   4.399   3.742   8.297
 3581SOL     OW10741   4.357   2.833   6.958
 3581SOL    HW110742   4.373   2.911   6.905
 3581SOL    HW210743   4.405   2.849   7.039
 3582SOL     OW10744   3.876   2.511   7.396
 3582SOL    HW110745   3.835   2.427   7.415
 3582SOL    HW210746   3.872   2.559   7.479
 3583SOL     OW10747   3.782   3.463   6.951
 3583SOL    HW110748   3.763   3.372   6.974
 3583SOL    HW210749   3.750   3.514   7.026
 3584SOL     OW10750   3.869   2.604   8.427
 3584SOL    HW110751   3.954   2.599   8.471
 3584SOL    HW210752   3.855   2.697   8.412
 3585SOL     OW10753   4.369   3.234   7.560
 3585SOL    HW110754   4.320   3.152   7.566
 3585SOL    HW210755   4.344   3.270   7.475
 3586SOL     OW10756   4.563   1.869   7.333
 3586SOL    HW110757   4.600   1.957   7.328
 3586SOL    HW210758   4.468   1.883   7.343
 3587SOL     OW10759   3.952   2.843   8.097
 3587SOL    HW110760   4.034   2.797   8.083
 3587SOL    HW210761   3.884   2.778   8.076
 3588SOL     OW10762   4.074   2.118   8.632
 3588SOL    HW110763   4.137   2.190   8.642
 3588SOL    HW210764   3.991   2.155   8.663
 3589SOL     OW10765   4.351   2.594   7.101
 3589SOL    HW110766   4.372   2.665   7.040
 3589SOL    HW210767   4.279   2.629   7.154
 3590SOL     OW10768   4.561   2.474   8.296
 3590SOL    HW110769   4.517   2.465   8.380
 3590SOL    HW210770   4.510   2.418   8.237
 3591SOL     OW10771   4.725   2.758   8.407
 3591SOL    HW110772   4.771   2.680   8.376
 3591SOL    HW210773   4.675   2.788   8.332
 3592SOL     OW10774   4.746   2.275   8.078
 3592SOL    HW110775   4.668   2.308   8.123
 3592SOL    HW210776   4.713   2.230   8.001
 3593SOL     OW10777   4.798   2.566   7.262
 3593SOL    HW110778   4.817   2.562   7.355
 3593SOL    HW210779   4.715   2.520   7.251
 3594SOL     OW10780   3.833   2.680   7.616
 3594SOL    HW110781   3.926   2.670   7.636
 3594SOL    HW210782   3.810   2.768   7.645
 3595SOL     OW10783   3.885   3.688   8.405
 3595SOL    HW110784   3.873   3.675   8.499
 3595SOL    HW210785   3.801   3.722   8.374
 3596SOL     OW10786   4.621   2.214   7.029
 3596SOL    HW110787   4.678   2.272   6.978
 3596SOL    HW210788   4.643   2.126   6.997
 3597SOL     OW10789   4.304   2.062   7.718
 3597SOL    HW110790   4.301   2.064   7.814
 3597SOL    HW210791   4.307   2.153   7.691
 3598SOL     OW10792   4.763   3.321   7.309
 3598SOL    HW110793   4.719   3.393   7.263
 3598SOL    HW210794   4.758   3.345   7.402
 3599SOL     OW10795   4.106   3.669   7.685
 3599SOL    HW110796   4.157   3.588   7.693
 3599SOL    HW210797   4.171   3.738   7.685
 3600SOL     OW10798   4.962   3.419   8.357
 3600SOL    HW110799   4.985   3.338   8.403
 3600SOL    HW210800   4.936   3.391   8.269
 3601SOL     OW10801   4.075   2.812   7.075
 3601SOL    HW110802   4.155   2.843   7.033
 3601SOL    HW210803   4.052   2.733   7.027
 3602SOL     OW10804   4.217   3.131   8.564
 3602SOL    HW110805   4.170   3.134   8.480
 3602SOL    HW210806   4.149   3.118   8.629
 3603SOL     OW10807   4.869   3.642   7.072
 3603SOL    HW110808   4.807   3.583   7.113
 3603SOL    HW210809   4.889   3.600   6.988
 3604SOL     OW10810   3.956   2.151   8.331
 3604SOL    HW110811   3.879   2.207   8.322
 3604SOL    HW210812   3.943   2.105   8.414
 3605SOL     OW10813   4.219   3.608   7.156
 3605SOL    HW110814   4.254   3.650   7.235
 3605SOL    HW210815   4.295   3.603   7.097
 3606SOL     OW10816   4.004   3.653   8.074
 3606SOL    HW110817   4.059   3.589   8.118
 3606SOL    HW210818   3.991   3.618   7.986
 3607SOL     OW10819   4.695   3.565   7.737
 3607SOL    HW110820   4.770   3.508   7.754
 3607SOL    HW210821   4.649   3.524   7.664
 3608SOL     OW10822   4.138   2.567   7.314
 3608SOL    HW110823   4.176   2.479   7.312
 3608SOL    HW210824   4.048   2.553   7.342
 3609SOL     OW10825   4.370   1.992   6.949
 3609SOL    HW110826   4.462   1.964   6.953
 3609SOL    HW210827   4.342   1.968   6.861
 3610SOL     OW10828   4.535   2.132   8.582
 3610SOL    HW110829   4.597   2.072   8.623
 3610SOL    HW210830   4.468   2.147   8.648
 3611SOL     OW10831   4.643   3.383   8.027
 3611SOL    HW110832   4.622   3.353   7.939
 3611SOL    HW210833   4.700   3.316   8.063
 3612SOL     OW10834   4.559   3.271   7.759
 3612SOL    HW110835   4.643   3.279   7.714
 3612SOL    HW210836   4.494   3.268   7.688
 3613SOL     OW10837   4.678   2.372   7.733
 3613SOL    HW110838   4.654   2.358   7.641
 3613SOL    HW210839   4.722   2.291   7.759
 3614SOL     OW10840   4.298   1.931   7.346
 3614SOL    HW110841   4.218   1.933   7.397
 3614SOL    HW210842   4.295   2.010   7.292
 3615SOL     OW10843   4.051   1.903   7.006
 3615SOL    HW110844   4.103   1.981   6.985
 3615SOL    HW210845   4.113   1.843   7.047
 3616SOL     OW10846   4.690   2.107   7.313
 3616SOL    HW110847   4.648   2.143   7.235
 3616SOL    HW210848   4.783   2.101   7.290
 3617SOL     OW10849   4.833   2.547   8.300
 3617SOL    HW110850   4.757   2.489   8.298
 3617SOL    HW210851   4.906   2.492   8.271
 3618SOL     OW10852  -0.022   3.439   7.627
 3618SOL    HW110853   0.005   3.506   7.564
 3618SOL    HW210854   0.050   3.436   7.691
 3619SOL     OW10855   4.216   3.016   7.575
 3619SOL    HW110856   4.143   2.993   7.633
 3619SOL    HW210857   4.185   2.992   7.487
 3620SOL     OW10858   0.024   3.664   7.428
 3620SOL    HW110859   0.065   3.724   7.366
 3620SOL    HW210860  -0.023   3.720   7.489
 3621SOL     OW10861   4.789   2.416   6.847
 3621SOL    HW110862   4.748   2.496   6.817
 3621SOL    HW210863   4.846   2.443   6.919
 3622SOL     OW10864   3.832   2.422   8.220
 3622SOL    HW110865   3.920   2.424   8.183
 3622SOL    HW210866   3.830   2.494   8.283
 3623SOL     OW10867   4.318   2.091   7.983
 3623SOL    HW110868   4.350   2.008   8.019
 3623SOL    HW210869   4.232   2.102   8.022
 3624SOL     OW10870   4.624   2.322   7.475
 3624SOL    HW110871   4.589   2.386   7.413
 3624SOL    HW210872   4.641   2.245   7.422
 3625SOL     OW10873   4.772   1.909   7.586
 3625SOL    HW110874   4.702   1.908   7.521
 3625SOL    HW210875   4.748   1.840   7.648
 3626SOL     OW10876   4.245   3.255   7.006
 3626SOL    HW110877   4.161   3.238   7.049
 3626SOL    HW210878   4.222   3.276   6.916
 3627SOL     OW10879   4.282   2.125   7.162
 3627SOL    HW110880   4.309   2.070   7.087
 3627SOL    HW210881   4.281   2.214   7.127
 3628SOL     OW10882   4.816   3.219   8.173
 3628SOL    HW110883   4.743   3.189   8.227
 3628SOL    HW210884   4.894   3.187   8.218
 3629SOL     OW10885   4.861   3.057   7.931
 3629SOL    HW110886   4.829   3.107   8.007
 3629SOL    HW210887   4.823   3.102   7.856
 3630SOL     OW10888   4.670   1.959   8.236
 3630SOL    HW110889   4.696   1.940   8.146
 3630SOL    HW210890   4.743   2.009   8.272
 3631SOL     OW10891   4.737   2.981   8.553
 3631SOL    HW110892   4.641   2.987   8.561
 3631SOL    HW210893   4.751   2.905   8.496
 3632SOL     OW10894   4.460   2.920   7.202
 3632SOL    HW110895   4.449   2.920   7.297
 3632SOL    HW210896   4.539   2.868   7.187
 3633SOL     OW10897   4.166   2.680   8.083
 3633SOL    HW110898   4.245   2.689   8.136
 3633SOL    HW210899   4.128   2.596   8.110
 3634SOL     OW10900   3.819   3.433   8.167
 3634SOL    HW110901   3.779   3.511   8.130
 3634SOL    HW210902   3.913   3.453   8.171
 3635SOL     OW10903   4.121   2.967   7.333
 3635SOL    HW110904   4.115   3.044   7.276
 3635SOL    HW210905   4.124   2.893   7.273
 3636SOL     OW10906   4.320   2.404   7.698
 3636SOL    HW110907   4.335   2.468   7.629
 3636SOL    HW210908   4.366   2.439   7.774
 3637SOL     OW10909   5.006   3.211   7.249
 3637SOL    HW110910   5.047   3.296   7.267
 3637SOL    HW210911   4.912   3.226   7.261
 3638SOL     OW10912   4.108   3.380   8.161
 3638SOL    HW110913   4.093   3.336   8.077
 3638SOL    HW210914   4.201   3.399   8.161
 3639SOL     OW10915   4.158   2.617   8.430
 3639SOL    HW110916   4.225   2.666   8.384
 3639SOL    HW210917   4.200   2.534   8.454
 3640SOL     OW10918   4.765   1.973   8.603
 3640SOL    HW110919   4.778   2.052   8.549
 3640SOL    HW210920   4.799   1.902   8.549
 3641SOL     OW10921   4.259   1.919   8.573
 3641SOL    HW110922   4.217   1.864   8.508
 3641SOL    HW210923   4.192   1.981   8.600
 3642SOL     OW10924   4.329   2.736   7.862
 3642SOL    HW110925   4.368   2.824   7.857
 3642SOL    HW210926   4.270   2.741   7.937
 3643SOL     OW10927   0.106   2.728   7.886
 3643SOL    HW110928   0.041   2.725   7.815
 3643SOL    HW210929   0.148   2.642   7.884
 3644SOL     OW10930   4.963   2.393   7.107
 3644SOL    HW110931   4.976   2.315   7.162
 3644SOL    HW210932   4.935   2.461   7.167
 3645SOL     OW10933   4.063   2.079   8.067
 3645SOL    HW110934   4.036   2.111   8.153
 3645SOL    HW210935   4.032   1.988   8.064
 3646SOL     OW10936   3.795   3.175   8.113
 3646SOL    HW110937   3.843   3.132   8.183
 3646SOL    HW210938   3.813   3.269   8.125
 3647SOL     OW10939   4.487   2.501   7.898
 3647SOL    HW110940   4.545   2.479   7.825
 3647SOL    HW210941   4.461   2.592   7.881
 3648SOL     OW10942   4.060   1.931   7.452
 3648SOL    HW110943   4.049   2.020   7.487
 3648SOL    HW210944   4.056   1.875   7.529
 3649SOL     OW10945   4.776   2.633   7.799
 3649SOL    HW110946   4.792   2.649   7.892
 3649SOL    HW210947   4.751   2.541   7.794
 3650SOL     OW10948   4.732   3.438   8.535
 3650SOL    HW110949   4.718   3.479   8.450
 3650SOL    HW210950   4.775   3.355   8.516
 3651SOL     OW10951   4.104   2.771   8.638
 3651SOL    HW110952   4.182   2.804   8.681
 3651SOL    HW210953   4.138   2.721   8.563
 3652SOL     OW10954   0.313   2.143   6.986
 3652SOL    HW110955   0.241   2.081   6.993
 3652SOL    HW210956   0.309   2.193   7.068
 3653SOL     OW10957   4.823   3.200   7.682
 3653SOL    HW110958   4.830   3.123   7.626
 3653SOL    HW210959   4.884   3.263   7.645
 3654SOL     OW10960   4.073   2.679   7.783
 3654SOL    HW110961   4.164   2.707   7.787
 3654SOL    HW210962   4.071   2.596   7.830
 3655SOL     OW10963   4.093   2.378   7.839
 3655SOL    HW110964   4.048   2.296   7.821
 3655SOL    HW210965   4.167   2.379   7.777
 3656SOL     OW10966   4.894   2.247   8.513
 3656SOL    HW110967   4.852   2.309   8.572
 3656SOL    HW210968   4.981   2.283   8.498
 3657SOL     OW10969   4.916   2.073   8.310
 3657SOL    HW110970   4.913   2.137   8.380
 3657SOL    HW210971   4.940   2.123   8.232
 3658SOL     OW10972   3.762   3.194   7.031
 3658SOL    HW110973   3.672   3.208   7.002
 3658SOL    HW210974   3.768   3.100   7.047
 3659SOL     OW10975   3.843   3.667   7.762
 3659SOL    HW110976   3.807   3.584   7.731
 3659SOL    HW210977   3.933   3.668   7.727
 3660SOL     OW10978   4.258   3.437   7.740
 3660SOL    HW110979   4.326   3.503   7.753
 3660SOL    HW210980   4.304   3.362   7.702
 3661SOL     OW10981   4.756   2.664   8.070
 3661SOL    HW110982   4.794   2.632   8.151
 3661SOL    HW210983   4.665   2.634   8.072
 3662SOL     OW10984   3.794   2.410   7.947
 3662SOL    HW110985   3.878   2.381   7.910
 3662SOL    HW210986   3.812   2.424   8.040
 3663SOL     OW10987   3.945   2.386   8.556
 3663SOL    HW110988   3.999   2.351   8.485
 3663SOL    HW210989   3.890   2.452   8.514
 3664SOL     OW10990   4.570   2.437   7.164
 3664SOL    HW110991   4.572   2.356   7.113
 3664SOL    HW210992   4.482   2.472   7.148
 3665SOL     OW10993   4.008   3.429   8.575
 3665SOL    HW110994   3.977   3.483   8.649
 3665SOL    HW210995   3.999   3.339   8.606
 3666SOL     OW10996   4.429   2.330   8.102
 3666SOL    HW110997   4.394   2.247   8.070
 3666SOL    HW210998   4.448   2.381   8.024
 3667SOL     OW10999   4.684   3.545   8.298
 3667SOL    HW111000   4.663   3.529   8.206
 3667SOL    HW211001   4.711   3.636   8.302
 3668SOL     OW11002   4.228   2.366   7.023
 3668SOL    HW111003   4.283   2.444   7.030
 3668SOL    HW211004   4.139   2.399   7.029
 3669SOL     OW11005   3.911   3.005   8.299
 3669SOL    HW111006   3.933   2.944   8.370
 3669SOL    HW211007   3.925   2.953   8.220
 3670SOL     OW11008  -0.001   3.596   7.969
 3670SOL    HW111009   0.077   3.606   7.913
 3670SOL    HW211010  -0.012   3.501   7.977
 3671SOL     OW11011   3.839   3.126   7.854
 3671SOL    HW111012   3.829   3.125   7.950
 3671SOL    HW211013   3.759   3.085   7.822
 3672SOL     OW11014   4.440   3.528   8.549
 3672SOL    HW111015   4.390   3.609   8.554
 3672SOL    HW211016   4.492   3.536   8.469
 3673SOL     OW11017   3.886   3.663   8.682
 3673SOL    HW111018   3.846   3.593   8.734
 3673SOL    HW211019   3.945   3.708   8.742
 3674SOL     OW11020   4.582   3.136   8.259
 3674SOL    HW111021   4.574   3.174   8.346
 3674SOL    HW211022   4.502   3.161   8.214
 3675SOL     OW11023   4.426   3.483   6.988
 3675SOL    HW111024   4.435   3.489   6.893
 3675SOL    HW211025   4.388   3.396   7.003
 3676SOL     OW11026   4.022   2.194   7.554
 3676SOL    HW111027   3.942   2.236   7.523
 3676SOL    HW211028   4.007   2.179   7.648
 3677SOL     OW11029   4.578   2.869   8.205
 3677SOL    HW111030   4.617   2.872   8.118
 3677SOL    HW211031   4.587   2.959   8.238
 3678SOL     OW11032   4.671   2.777   7.124
 3678SOL    HW111033   4.734   2.810   7.060
 3678SOL    HW211034   4.713   2.699   7.160
 3679SOL     OW11035   4.127   3.156   8.323
 3679SOL    HW111036   4.111   3.243   8.286
 3679SOL    HW211037   4.045   3.109   8.308
 3680SOL     OW11038   4.796   2.966   7.532
 3680SOL    HW111039   4.728   2.917   7.579
 3680SOL    HW211040   4.847   2.899   7.488
 3681SOL     OW11041   4.766   2.104   7.803
 3681SOL    HW111042   4.763   2.064   7.716
 3681SOL    HW211043   4.768   2.031   7.864
 3682SOL     OW11044   4.348   3.355   7.323
 3682SOL    HW111045   4.383   3.301   7.253
 3682SOL    HW211046   4.302   3.426   7.278
 3683SOL     OW11047   4.011   3.217   7.120
 3683SOL    HW111048   3.917   3.217   7.101
 3683SOL    HW211049   4.018   3.263   7.204
 3684SOL     OW11050   3.861   2.881   8.559
 3684SOL    HW111051   3.789   2.848   8.612
 3684SOL    HW211052   3.940   2.848   8.602
 3685SOL     OW11053   4.426   2.069   8.323
 3685SOL    HW111054   4.513   2.054   8.286
 3685SOL    HW211055   4.440   2.076   8.417
 3686SOL     OW11056   3.830   2.212   6.867
 3686SOL    HW111057   3.743   2.187   6.836
 3686SOL    HW211058   3.856   2.285   6.811
 3687SOL     OW11059   3.826   2.032   7.151
 3687SOL    HW111060   3.814   2.111   7.098
 3687SOL    HW211061   3.914   2.000   7.127
 3688SOL     OW11062   4.368   2.708   8.264
 3688SOL    HW111063   4.424   2.784   8.248
 3688SOL    HW211064   4.428   2.634   8.267
 3689SOL     OW11065   4.469   2.432   8.542
 3689SOL    HW111066   4.493   2.492   8.612
 3689SOL    HW211067   4.528   2.357   8.554
 3690SOL     OW11068   4.144   3.609   8.393
 3690SOL    HW111069   4.055   3.644   8.391
 3690SOL    HW211070   4.134   3.519   8.425
 3691SOL     OW11071   4.349   2.612   7.487
 3691SOL    HW111072   4.393   2.694   7.467
 3691SOL    HW211073   4.267   2.616   7.437
 3692SOL     OW11074   4.613   3.240   6.849
 3692SOL    HW111075   4.573   3.259   6.934
 3692SOL    HW211076   4.653   3.323   6.822
 3693SOL     OW11077   4.415   3.657   7.786
 3693SOL    HW111078   4.377   3.744   7.771
 3693SOL    HW211079   4.509   3.670   7.778
 3694SOL     OW11080   4.615   2.824   7.693
 3694SOL    HW111081   4.666   2.759   7.742
 3694SOL    HW211082   4.586   2.887   7.760
 3695SOL     OW11083   4.837   2.850   6.920
 3695SOL    HW111084   4.818   2.901   6.841
 3695SOL    HW211085   4.915   2.800   6.898
 3696SOL     OW11086   3.977   3.180   8.678
 3696SOL    HW111087   3.912   3.111   8.660
 3696SOL    HW211088   3.975   3.191   8.773
 3697SOL     OW11089   3.835   3.107   7.487
 3697SOL    HW111090   3.836   3.059   7.570
 3697SOL    HW211091   3.912   3.077   7.440
 3698SOL     OW11092   4.428   3.259   8.455
 3698SOL    HW111093   4.352   3.215   8.493
 3698SOL    HW211094   4.423   3.348   8.489
 3699SOL     OW11095   4.184   2.293   7.353
 3699SOL    HW111096   4.210   2.220   7.297
 3699SOL    HW211097   4.145   2.251   7.430
 3700SOL     OW11098   4.074   2.415   8.115
 3700SOL    HW111099   4.114   2.356   8.179
 3700SOL    HW211100   4.110   2.388   8.031
 3701SOL     OW11101   4.569   3.451   7.521
 3701SOL    HW111102   4.593   3.463   7.429
 3701SOL    HW211103   4.492   3.394   7.518
 3702SOL     OW11104   4.756   1.899   7.987
 3702SOL    HW111105   4.700   1.828   7.956
 3702SOL    HW211106   4.844   1.862   7.985
 3703SOL     OW11107   4.524   3.198   7.136
 3703SOL    HW111108   4.484   3.113   7.150
 3703SOL    HW211109   4.612   3.191   7.175
 3704SOL     OW11110   4.372   3.434   8.116
 3704SOL    HW111111   4.373   3.512   8.171
 3704SOL    HW211112   4.459   3.432   8.076
 3705SOL     OW11113   3.794   2.944   7.134
 3705SOL    HW111114   3.889   2.931   7.125
 3705SOL    HW211115   3.761   2.860   7.162
 3706SOL     OW11116   4.630   3.510   7.174
 3706SOL    HW111117   4.556   3.485   7.118
 3706SOL    HW211118   4.597   3.583   7.226
 3707SOL     OW11119   3.986   2.495   8.809
 3707SOL    HW111120   3.895   2.492   8.841
 3707SOL    HW211121   3.982   2.458   8.721
 3708SOL     OW11122   3.980   2.142   9.688
 3708SOL    HW111123   4.011   2.124   9.776
 3708SOL    HW211124   3.895   2.099   9.682
 3709SOL     OW11125   3.771   2.240   9.338
 3709SOL    HW111126   3.690   2.272   9.378
 3709SOL    HW211127   3.744   2.166   9.284
 3710SOL     OW11128   4.323   3.140   9.861
 3710SOL    HW111129   4.234   3.140   9.825
 3710SOL    HW211130   4.332   3.227   9.900
 3711SOL     OW11131   4.877   2.573   9.403
 3711SOL    HW111132   4.946   2.639   9.394
 3711SOL    HW211133   4.835   2.594   9.486
 3712SOL     OW11134   4.522   3.011   9.720
 3712SOL    HW111135   4.448   3.033   9.776
 3712SOL    HW211136   4.552   3.095   9.685
 3713SOL     OW11137   4.441   2.881   9.357
 3713SOL    HW111138   4.503   2.864   9.428
 3713SOL    HW211139   4.372   2.932   9.399
 3714SOL     OW11140   4.089   3.302   9.758
 3714SOL    HW111141   4.016   3.273   9.703
 3714SOL    HW211142   4.143   3.355   9.700
 3715SOL     OW11143   0.216   3.376  10.036
 3715SOL    HW111144   0.236   3.465  10.065
 3715SOL    HW211145   0.203   3.326  10.116
 3716SOL     OW11146   3.984   3.579   9.177
 3716SOL    HW111147   4.018   3.654   9.226
 3716SOL    HW211148   4.031   3.581   9.094
 3717SOL     OW11149   3.985   3.301   9.232
 3717SOL    HW111150   3.959   3.393   9.236
 3717SOL    HW211151   3.916   3.254   9.278
 3718SOL     OW11152   3.997   2.958   9.581
 3718SOL    HW111153   4.006   2.878   9.633
 3718SOL    HW211154   3.943   3.016   9.635
 3719SOL     OW11155   4.357   2.833   8.820
 3719SOL    HW111156   4.373   2.911   8.767
 3719SOL    HW211157   4.405   2.849   8.901
 3720SOL     OW11158   3.876   2.511   9.258
 3720SOL    HW111159   3.835   2.427   9.277
 3720SOL    HW211160   3.872   2.559   9.341
 3721SOL     OW11161   3.782   3.463   8.813
 3721SOL    HW111162   3.763   3.372   8.836
 3721SOL    HW211163   3.750   3.514   8.888
 3722SOL     OW11164   4.369   3.234   9.422
 3722SOL    HW111165   4.320   3.152   9.428
 3722SOL    HW211166   4.344   3.270   9.337
 3723SOL     OW11167   4.563   1.869   9.195
 3723SOL    HW111168   4.600   1.957   9.190
 3723SOL    HW211169   4.468   1.883   9.205
 3724SOL     OW11170   3.952   2.843   9.958
 3724SOL    HW111171   4.034   2.797   9.944
 3724SOL    HW211172   3.884   2.778   9.939
 3725SOL     OW11173   4.351   2.594   8.963
 3725SOL    HW111174   4.372   2.665   8.902
 3725SOL    HW211175   4.279   2.629   9.016
 3726SOL     OW11176   4.798   2.566   9.124
 3726SOL    HW111177   4.817   2.562   9.217
 3726SOL    HW211178   4.715   2.520   9.113
 3727SOL     OW11179   3.833   2.680   9.478
 3727SOL    HW111180   3.926   2.670   9.498
 3727SOL    HW211181   3.810   2.768   9.507
 3728SOL     OW11182   4.621   2.214   8.891
 3728SOL    HW111183   4.678   2.272   8.840
 3728SOL    HW211184   4.643   2.126   8.859
 3729SOL     OW11185   4.305   2.061   9.581
 3729SOL    HW111186   4.299   2.064   9.677
 3729SOL    HW211187   4.307   2.153   9.555
 3730SOL     OW11188   4.763   3.321   9.171
 3730SOL    HW111189   4.719   3.393   9.125
 3730SOL    HW211190   4.758   3.345   9.264
 3731SOL     OW11191   4.106   3.669   9.546
 3731SOL    HW111192   4.156   3.588   9.555
 3731SOL    HW211193   4.171   3.738   9.547
 3732SOL     OW11194   4.075   2.812   8.937
 3732SOL    HW111195   4.155   2.843   8.895
 3732SOL    HW211196   4.052   2.733   8.889
 3733SOL     OW11197   4.869   3.642   8.933
 3733SOL    HW111198   4.807   3.583   8.975
 3733SOL    HW211199   4.889   3.600   8.850
 3734SOL     OW11200   4.219   3.608   9.018
 3734SOL    HW111201   4.254   3.650   9.097
 3734SOL    HW211202   4.295   3.603   8.959
 3735SOL     OW11203   4.005   3.654   9.935
 3735SOL    HW111204   4.058   3.588   9.980
 3735SOL    HW211205   3.990   3.618   9.848
 3736SOL     OW11206   4.696   3.566   9.599
 3736SOL    HW111207   4.770   3.508   9.616
 3736SOL    HW211208   4.649   3.524   9.527
 3737SOL     OW11209   4.138   2.567   9.176
 3737SOL    HW111210   4.176   2.479   9.174
 3737SOL    HW211211   4.048   2.553   9.204
 3738SOL     OW11212   4.370   1.992   8.811
 3738SOL    HW111213   4.462   1.964   8.815
 3738SOL    HW211214   4.342   1.968   8.723
 3739SOL     OW11215   4.558   3.269   9.620
 3739SOL    HW111216   4.642   3.280   9.576
 3739SOL    HW211217   4.494   3.269   9.549
 3740SOL     OW11218   4.678   2.372   9.595
 3740SOL    HW111219   4.654   2.358   9.503
 3740SOL    HW211220   4.721   2.291   9.622
 3741SOL     OW11221   4.298   1.931   9.208
 3741SOL    HW111222   4.217   1.933   9.259
 3741SOL    HW211223   4.295   2.010   9.154
 3742SOL     OW11224   4.051   1.903   8.868
 3742SOL    HW111225   4.103   1.981   8.847
 3742SOL    HW211226   4.113   1.843   8.909
 3743SOL     OW11227   4.690   2.107   9.175
 3743SOL    HW111228   4.648   2.143   9.097
 3743SOL    HW211229   4.783   2.101   9.152
 3744SOL     OW11230  -0.021   3.439   9.489
 3744SOL    HW111231   0.005   3.506   9.427
 3744SOL    HW211232   0.050   3.436   9.553
 3745SOL     OW11233   4.216   3.016   9.437
 3745SOL    HW111234   4.143   2.993   9.495
 3745SOL    HW211235   4.185   2.992   9.349
 3746SOL     OW11236   0.024   3.664   9.290
 3746SOL    HW111237   0.065   3.724   9.228
 3746SOL    HW211238  -0.023   3.720   9.351
 3747SOL     OW11239   4.789   2.416   8.709
 3747SOL    HW111240   4.748   2.496   8.679
 3747SOL    HW211241   4.846   2.443   8.781
 3748SOL     OW11242   4.624   2.322   9.337
 3748SOL    HW111243   4.589   2.386   9.275
 3748SOL    HW211244   4.641   2.245   9.284
 3749SOL     OW11245   4.772   1.909   9.448
 3749SOL    HW111246   4.702   1.908   9.383
 3749SOL    HW211247   4.748   1.840   9.510
 3750SOL     OW11248   4.245   3.255   8.868
 3750SOL    HW111249   4.161   3.238   8.911
 3750SOL    HW211250   4.222   3.276   8.778
 3751SOL     OW11251   4.282   2.125   9.024
 3751SOL    HW111252   4.309   2.070   8.949
 3751SOL    HW211253   4.281   2.214   8.989
 3752SOL     OW11254   4.861   3.058   9.793
 3752SOL    HW111255   4.827   3.106   9.869
 3752SOL    HW211256   4.823   3.102   9.717
 3753SOL     OW11257   4.460   2.920   9.064
 3753SOL    HW111258   4.449   2.920   9.159
 3753SOL    HW211259   4.539   2.868   9.049
 3754SOL     OW11260   4.166   2.680   9.947
 3754SOL    HW111261   4.247   2.688   9.996
 3754SOL    HW211262   4.129   2.596   9.973
 3755SOL     OW11263   4.120   2.967   9.195
 3755SOL    HW111264   4.115   3.044   9.138
 3755SOL    HW211265   4.124   2.893   9.135
 3756SOL     OW11266   4.320   2.404   9.560
 3756SOL    HW111267   4.334   2.468   9.491
 3756SOL    HW211268   4.366   2.439   9.636
 3757SOL     OW11269   5.006   3.211   9.111
 3757SOL    HW111270   5.047   3.296   9.129
 3757SOL    HW211271   4.912   3.226   9.123
 3758SOL     OW11272   4.329   2.736   9.724
 3758SOL    HW111273   4.368   2.824   9.719
 3758SOL    HW211274   4.270   2.741   9.799
 3759SOL     OW11275   0.105   2.727   9.748
 3759SOL    HW111276   0.042   2.725   9.677
 3759SOL    HW211277   0.148   2.642   9.745
 3760SOL     OW11278   4.963   2.393   8.969
 3760SOL    HW111279   4.976   2.315   9.024
 3760SOL    HW211280   4.935   2.461   9.029
 3761SOL     OW11281   4.062   2.079   9.927
 3761SOL    HW111282   4.039   2.111  10.014
 3761SOL    HW211283   4.033   1.988   9.926
 3762SOL     OW11284   3.791   3.178   9.977
 3762SOL    HW111285   3.842   3.132  10.044
 3762SOL    HW211286   3.817   3.270   9.986
 3763SOL     OW11287   4.486   2.501   9.759
 3763SOL    HW111288   4.545   2.479   9.687
 3763SOL    HW211289   4.461   2.592   9.743
 3764SOL     OW11290   4.060   1.931   9.314
 3764SOL    HW111291   4.049   2.020   9.349
 3764SOL    HW211292   4.056   1.875   9.391
 3765SOL     OW11293   4.777   2.633   9.660
 3765SOL    HW111294   4.792   2.649   9.754
 3765SOL    HW211295   4.751   2.541   9.656
 3766SOL     OW11296   0.313   2.143   8.848
 3766SOL    HW111297   0.241   2.081   8.855
 3766SOL    HW211298   0.309   2.193   8.930
 3767SOL     OW11299   4.824   3.200   9.545
 3767SOL    HW111300   4.830   3.123   9.488
 3767SOL    HW211301   4.884   3.263   9.506
 3768SOL     OW11302   4.073   2.679   9.645
 3768SOL    HW111303   4.164   2.706   9.649
 3768SOL    HW211304   4.071   2.595   9.692
 3769SOL     OW11305   4.092   2.380   9.700
 3769SOL    HW111306   4.048   2.296   9.684
 3769SOL    HW211307   4.167   2.380   9.640
 3770SOL     OW11308   4.918   2.073  10.173
 3770SOL    HW111309   4.915   2.138  10.243
 3770SOL    HW211310   4.940   2.122  10.094
 3771SOL     OW11311   3.762   3.194   8.893
 3771SOL    HW111312   3.672   3.208   8.864
 3771SOL    HW211313   3.768   3.100   8.909
 3772SOL     OW11314   3.843   3.667   9.623
 3772SOL    HW111315   3.807   3.584   9.593
 3772SOL    HW211316   3.933   3.668   9.590
 3773SOL     OW11317   4.258   3.437   9.602
 3773SOL    HW111318   4.326   3.503   9.614
 3773SOL    HW211319   4.304   3.362   9.564
 3774SOL     OW11320   4.757   2.662   9.932
 3774SOL    HW111321   4.793   2.632  10.016
 3774SOL    HW211322   4.665   2.635   9.934
 3775SOL     OW11323   3.794   2.409   9.810
 3775SOL    HW111324   3.877   2.381   9.772
 3775SOL    HW211325   3.814   2.425   9.902
 3776SOL     OW11326   4.570   2.437   9.026
 3776SOL    HW111327   4.572   2.356   8.975
 3776SOL    HW211328   4.482   2.472   9.010
 3777SOL     OW11329   4.425   2.331   9.965
 3777SOL    HW111330   4.395   2.247   9.932
 3777SOL    HW211331   4.450   2.381   9.887
 3778SOL     OW11332   4.228   2.366   8.885
 3778SOL    HW111333   4.283   2.444   8.892
 3778SOL    HW211334   4.139   2.399   8.891
 3779SOL     OW11335   3.913   3.005  10.161
 3779SOL    HW111336   3.935   2.945  10.232
 3779SOL    HW211337   3.925   2.954  10.081
 3780SOL     OW11338   0.001   3.595   9.833
 3780SOL    HW111339   0.077   3.605   9.776
 3780SOL    HW211340  -0.011   3.500   9.840
 3781SOL     OW11341   3.838   3.126   9.716
 3781SOL    HW111342   3.829   3.125   9.812
 3781SOL    HW211343   3.759   3.084   9.684
 3782SOL     OW11344   4.426   3.483   8.850
 3782SOL    HW111345   4.435   3.489   8.755
 3782SOL    HW211346   4.388   3.396   8.865
 3783SOL     OW11347   4.022   2.194   9.416
 3783SOL    HW111348   3.942   2.236   9.385
 3783SOL    HW211349   4.007   2.179   9.510
 3784SOL     OW11350   4.576   2.869  10.066
 3784SOL    HW111351   4.617   2.871   9.980
 3784SOL    HW211352   4.588   2.957  10.102
 3785SOL     OW11353   4.671   2.777   8.986
 3785SOL    HW111354   4.734   2.810   8.922
 3785SOL    HW211355   4.713   2.699   9.022
 3786SOL     OW11356   4.796   2.966   9.395
 3786SOL    HW111357   4.728   2.917   9.441
 3786SOL    HW211358   4.847   2.898   9.350
 3787SOL     OW11359   4.768   2.105   9.664
 3787SOL    HW111360   4.763   2.063   9.578
 3787SOL    HW211361   4.767   2.032   9.726
 3788SOL     OW11362   4.348   3.355   9.185
 3788SOL    HW111363   4.383   3.301   9.115
 3788SOL    HW211364   4.302   3.426   9.140
 3789SOL     OW11365   4.011   3.217   8.982
 3789SOL    HW111366   3.917   3.217   8.963
 3789SOL    HW211367   4.018   3.263   9.066
 3790SOL     OW11368   3.830   2.212   8.729
 3790SOL    HW111369   3.743   2.187   8.698
 3790SOL    HW211370   3.856   2.285   8.673
 3791SOL     OW11371   3.826   2.032   9.013
 3791SOL    HW111372   3.814   2.111   8.960
 3791SOL    HW211373   3.914   2.000   8.989
 3792SOL     OW11374   4.349   2.612   9.349
 3792SOL    HW111375   4.393   2.694   9.329
 3792SOL    HW211376   4.267   2.616   9.299
 3793SOL     OW11377   4.613   3.240   8.711
 3793SOL    HW111378   4.573   3.259   8.796
 3793SOL    HW211379   4.653   3.323   8.684
 3794SOL     OW11380   4.415   3.657   9.647
 3794SOL    HW111381   4.377   3.744   9.633
 3794SOL    HW211382   4.509   3.670   9.641
 3795SOL     OW11383   4.615   2.824   9.555
 3795SOL    HW111384   4.666   2.759   9.604
 3795SOL    HW211385   4.586   2.887   9.622
 3796SOL     OW11386   4.837   2.850   8.782
 3796SOL    HW111387   4.818   2.901   8.703
 3796SOL    HW211388   4.915   2.800   8.760
 3797SOL     OW11389   3.835   3.107   9.349
 3797SOL    HW111390   3.836   3.059   9.432
 3797SOL    HW211391   3.912   3.077   9.302
 3798SOL     OW11392   4.184   2.293   9.215
 3798SOL    HW111393   4.210   2.220   9.159
 3798SOL    HW211394   4.145   2.251   9.292
 3799SOL     OW11395   4.569   3.451   9.383
 3799SOL    HW111396   4.593   3.463   9.291
 3799SOL    HW211397   4.492   3.394   9.380
 3800SOL     OW11398   4.757   1.901   9.846
 3800SOL    HW111399   4.699   1.829   9.819
 3800SOL    HW211400   4.844   1.862   9.849
 3801SOL     OW11401   4.524   3.198   8.998
 3801SOL    HW111402   4.484   3.113   9.012
 3801SOL    HW211403   4.612   3.191   9.037
 3802SOL     OW11404   3.794   2.944   8.996
 3802SOL    HW111405   3.889   2.931   8.987
 3802SOL    HW211406   3.761   2.860   9.024
 3803SOL     OW11407   4.630   3.510   9.036
 3803SOL    HW111408   4.556   3.485   8.981
 3803SOL    HW211409   4.597   3.583   9.088
 3804SOL     OW11410   3.986   4.357   5.085
 3804SOL    HW111411   3.895   4.354   5.117
 3804SOL    HW211412   3.982   4.320   4.997
 3805SOL     OW11413   3.980   4.004   5.964
 3805SOL    HW111414   4.010   3.985   6.053
 3805SOL    HW211415   3.894   3.962   5.958
 3806SOL     OW11416   3.771   4.102   5.613
 3806SOL    HW111417   3.690   4.133   5.654
 3806SOL    HW211418   3.744   4.027   5.560
 3807SOL     OW11419   4.878   4.435   5.679
 3807SOL    HW111420   4.946   4.501   5.669
 3807SOL    HW211421   4.835   4.456   5.762
 3808SOL     OW11422   4.527   4.875   6.001
 3808SOL    HW111423   4.447   4.894   6.049
 3808SOL    HW211424   4.549   4.958   5.958
 3809SOL     OW11425   4.607   4.525   6.793
 3809SOL    HW111426   4.601   4.600   6.854
 3809SOL    HW211427   4.627   4.565   6.709
 3810SOL     OW11428   4.439   4.739   5.634
 3810SOL    HW111429   4.504   4.727   5.704
 3810SOL    HW211430   4.373   4.797   5.673
 3811SOL     OW11431   4.445   4.888   6.772
 3811SOL    HW111432   4.499   4.965   6.787
 3811SOL    HW211433   4.362   4.922   6.737
 3812SOL     OW11434   4.194   4.123   6.470
 3812SOL    HW111435   4.270   4.065   6.477
 3812SOL    HW211436   4.119   4.064   6.474
 3813SOL     OW11437   3.997   4.819   5.856
 3813SOL    HW111438   4.006   4.739   5.908
 3813SOL    HW211439   3.944   4.877   5.910
 3814SOL     OW11440   4.360   4.693   5.095
 3814SOL    HW111441   4.370   4.774   5.045
 3814SOL    HW211442   4.405   4.711   5.178
 3815SOL     OW11443   3.875   4.373   5.534
 3815SOL    HW111444   3.835   4.288   5.553
 3815SOL    HW211445   3.872   4.421   5.616
 3816SOL     OW11446   3.870   4.466   6.564
 3816SOL    HW111447   3.954   4.461   6.609
 3816SOL    HW211448   3.855   4.559   6.551
 3817SOL     OW11449   4.563   3.731   5.471
 3817SOL    HW111450   4.600   3.819   5.466
 3817SOL    HW211451   4.469   3.745   5.480
 3818SOL     OW11452   3.952   4.705   6.234
 3818SOL    HW111453   4.034   4.659   6.221
 3818SOL    HW211454   3.884   4.640   6.215
 3819SOL     OW11455   4.074   3.980   6.770
 3819SOL    HW111456   4.137   4.052   6.780
 3819SOL    HW211457   3.991   4.017   6.801
 3820SOL     OW11458   4.350   4.456   5.239
 3820SOL    HW111459   4.373   4.527   5.178
 3820SOL    HW211460   4.280   4.492   5.292
 3821SOL     OW11461   4.560   4.336   6.433
 3821SOL    HW111462   4.517   4.327   6.518
 3821SOL    HW211463   4.510   4.280   6.375
 3822SOL     OW11464   4.725   4.620   6.545
 3822SOL    HW111465   4.771   4.542   6.514
 3822SOL    HW211466   4.675   4.650   6.470
 3823SOL     OW11467   4.746   4.138   6.216
 3823SOL    HW111468   4.668   4.170   6.261
 3823SOL    HW211469   4.713   4.092   6.139
 3824SOL     OW11470   4.798   4.428   5.399
 3824SOL    HW111471   4.816   4.424   5.493
 3824SOL    HW211472   4.715   4.382   5.389
 3825SOL     OW11473   3.832   4.541   5.755
 3825SOL    HW111474   3.926   4.532   5.774
 3825SOL    HW211475   3.811   4.630   5.782
 3826SOL     OW11476   4.623   4.077   5.169
 3826SOL    HW111477   4.678   4.134   5.115
 3826SOL    HW211478   4.639   3.989   5.136
 3827SOL     OW11479   4.304   3.924   5.856
 3827SOL    HW111480   4.301   3.926   5.952
 3827SOL    HW211481   4.307   4.015   5.829
 3828SOL     OW11482   4.077   4.673   5.214
 3828SOL    HW111483   4.156   4.705   5.169
 3828SOL    HW211484   4.053   4.594   5.165
 3829SOL     OW11485   3.956   4.013   6.469
 3829SOL    HW111486   3.879   4.069   6.460
 3829SOL    HW211487   3.943   3.967   6.552
 3830SOL     OW11488   4.138   4.429   5.451
 3830SOL    HW111489   4.176   4.341   5.450
 3830SOL    HW211490   4.048   4.416   5.481
 3831SOL     OW11491   4.368   3.848   5.089
 3831SOL    HW111492   4.462   3.830   5.091
 3831SOL    HW211493   4.344   3.834   4.997
 3832SOL     OW11494   4.535   3.994   6.720
 3832SOL    HW111495   4.598   3.934   6.761
 3832SOL    HW211496   4.468   4.009   6.786
 3833SOL     OW11497   4.678   4.234   5.871
 3833SOL    HW111498   4.654   4.220   5.779
 3833SOL    HW211499   4.722   4.153   5.897
 3834SOL     OW11500   4.299   3.793   5.484
 3834SOL    HW111501   4.217   3.795   5.535
 3834SOL    HW211502   4.295   3.872   5.430
 3835SOL     OW11503   4.051   3.766   5.144
 3835SOL    HW111504   4.104   3.843   5.123
 3835SOL    HW211505   4.112   3.705   5.185
 3836SOL     OW11506   4.690   3.969   5.451
 3836SOL    HW111507   4.648   4.005   5.373
 3836SOL    HW211508   4.783   3.963   5.428
 3837SOL     OW11509   4.833   4.409   6.437
 3837SOL    HW111510   4.757   4.350   6.436
 3837SOL    HW211511   4.906   4.354   6.410
 3838SOL     OW11512   4.218   4.874   5.716
 3838SOL    HW111513   4.142   4.854   5.771
 3838SOL    HW211514   4.188   4.856   5.626
 3839SOL     OW11515   4.788   4.277   4.987
 3839SOL    HW111516   4.750   4.357   4.954
 3839SOL    HW211517   4.847   4.305   5.057
 3840SOL     OW11518   3.832   4.285   6.358
 3840SOL    HW111519   3.920   4.286   6.322
 3840SOL    HW211520   3.830   4.356   6.421
 3841SOL     OW11521   4.318   3.953   6.121
 3841SOL    HW111522   4.350   3.870   6.157
 3841SOL    HW211523   4.232   3.964   6.160
 3842SOL     OW11524   4.624   4.184   5.613
 3842SOL    HW111525   4.589   4.248   5.551
 3842SOL    HW211526   4.641   4.107   5.560
 3843SOL     OW11527   4.772   3.771   5.724
 3843SOL    HW111528   4.702   3.770   5.659
 3843SOL    HW211529   4.748   3.702   5.786
 3844SOL     OW11530   4.281   3.986   5.299
 3844SOL    HW111531   4.309   3.932   5.226
 3844SOL    HW211532   4.282   4.076   5.265
 3845SOL     OW11533   4.670   3.821   6.374
 3845SOL    HW111534   4.696   3.802   6.284
 3845SOL    HW211535   4.743   3.871   6.410
 3846SOL     OW11536   4.736   4.842   6.691
 3846SOL    HW111537   4.641   4.847   6.698
 3846SOL    HW211538   4.752   4.767   6.634
 3847SOL     OW11539   4.459   4.778   5.338
 3847SOL    HW111540   4.449   4.785   5.434
 3847SOL    HW211541   4.540   4.730   5.325
 3848SOL     OW11542   4.166   4.542   6.221
 3848SOL    HW111543   4.245   4.550   6.275
 3848SOL    HW211544   4.128   4.458   6.248
 3849SOL     OW11545   4.119   4.825   5.472
 3849SOL    HW111546   4.117   4.904   5.419
 3849SOL    HW211547   4.124   4.754   5.408
 3850SOL     OW11548   4.319   4.266   5.836
 3850SOL    HW111549   4.334   4.330   5.767
 3850SOL    HW211550   4.367   4.301   5.912
 3851SOL     OW11551   4.158   4.479   6.568
 3851SOL    HW111552   4.225   4.528   6.522
 3851SOL    HW211553   4.200   4.396   6.592
 3852SOL     OW11554   4.765   3.835   6.741
 3852SOL    HW111555   4.778   3.914   6.687
 3852SOL    HW211556   4.799   3.764   6.687
 3853SOL     OW11557   4.260   3.781   6.711
 3853SOL    HW111558   4.217   3.726   6.646
 3853SOL    HW211559   4.192   3.843   6.738
 3854SOL     OW11560   4.331   4.598   6.001
 3854SOL    HW111561   4.367   4.686   5.994
 3854SOL    HW211562   4.270   4.603   6.075
 3855SOL     OW11563   0.104   4.589   6.025
 3855SOL    HW111564   0.042   4.586   5.952
 3855SOL    HW211565   0.148   4.504   6.022
 3856SOL     OW11566   4.963   4.255   5.245
 3856SOL    HW111567   4.977   4.177   5.300
 3856SOL    HW211568   4.935   4.323   5.305
 3857SOL     OW11569   4.063   3.941   6.205
 3857SOL    HW111570   4.036   3.973   6.291
 3857SOL    HW211571   4.032   3.850   6.202
 3858SOL     OW11572   4.487   4.364   6.036
 3858SOL    HW111573   4.544   4.341   5.963
 3858SOL    HW211574   4.461   4.454   6.019
 3859SOL     OW11575   4.060   3.793   5.590
 3859SOL    HW111576   4.049   3.882   5.625
 3859SOL    HW211577   4.056   3.737   5.667
 3860SOL     OW11578   4.776   4.496   5.937
 3860SOL    HW111579   4.792   4.510   6.030
 3860SOL    HW211580   4.752   4.403   5.931
 3861SOL     OW11581   4.104   4.632   6.776
 3861SOL    HW111582   4.182   4.667   6.819
 3861SOL    HW211583   4.138   4.583   6.701
 3862SOL     OW11584   4.072   4.541   5.922
 3862SOL    HW111585   4.164   4.568   5.924
 3862SOL    HW211586   4.071   4.457   5.968
 3863SOL     OW11587   4.094   4.240   5.977
 3863SOL    HW111588   4.048   4.158   5.959
 3863SOL    HW211589   4.167   4.241   5.915
 3864SOL     OW11590   4.894   4.109   6.650
 3864SOL    HW111591   4.852   4.170   6.710
 3864SOL    HW211592   4.981   4.145   6.636
 3865SOL     OW11593   4.915   3.935   6.448
 3865SOL    HW111594   4.913   3.999   6.518
 3865SOL    HW211595   4.940   3.985   6.370
 3866SOL     OW11596   3.756   0.035   5.131
 3866SOL    HW111597   3.666   0.064   5.142
 3866SOL    HW211598   3.762  -0.046   5.181
 3867SOL     OW11599   4.755   4.528   6.208
 3867SOL    HW111600   4.794   4.494   6.289
 3867SOL    HW211601   4.665   4.496   6.209
 3868SOL     OW11602   3.794   4.272   6.085
 3868SOL    HW111603   3.877   4.243   6.048
 3868SOL    HW211604   3.812   4.286   6.178
 3869SOL     OW11605   3.944   4.248   6.694
 3869SOL    HW111606   3.999   4.213   6.623
 3869SOL    HW211607   3.890   4.314   6.652
 3870SOL     OW11608   4.570   4.299   5.302
 3870SOL    HW111609   4.573   4.218   5.251
 3870SOL    HW211610   4.482   4.334   5.286
 3871SOL     OW11611   4.429   4.192   6.240
 3871SOL    HW111612   4.394   4.109   6.208
 3871SOL    HW211613   4.449   4.243   6.161
 3872SOL     OW11614   4.228   4.228   5.162
 3872SOL    HW111615   4.283   4.306   5.168
 3872SOL    HW211616   4.139   4.262   5.168
 3873SOL     OW11617   3.911   4.867   6.437
 3873SOL    HW111618   3.933   4.807   6.509
 3873SOL    HW211619   3.925   4.815   6.358
 3874SOL     OW11620   3.845   4.969   5.998
 3874SOL    HW111621   3.829   4.982   6.091
 3874SOL    HW211622   3.761   4.943   5.962
 3875SOL     OW11623   4.659   3.816   5.104
 3875SOL    HW111624   4.710   3.813   5.023
 3875SOL    HW211625   4.714   3.773   5.169
 3876SOL     OW11626   4.022   4.055   5.692
 3876SOL    HW111627   3.942   4.098   5.661
 3876SOL    HW211628   4.007   4.041   5.786
 3877SOL     OW11629   4.576   4.733   6.343
 3877SOL    HW111630   4.617   4.734   6.257
 3877SOL    HW211631   4.589   4.821   6.377
 3878SOL     OW11632   4.671   4.639   5.261
 3878SOL    HW111633   4.734   4.672   5.197
 3878SOL    HW211634   4.713   4.561   5.298
 3879SOL     OW11635   4.129   0.017   6.461
 3879SOL    HW111636   4.111   0.105   6.429
 3879SOL    HW211637   4.046  -0.030   6.449
 3880SOL     OW11638   4.796   4.817   5.668
 3880SOL    HW111639   4.728   4.769   5.714
 3880SOL    HW211640   4.848   4.749   5.625
 3881SOL     OW11641   4.766   3.966   5.941
 3881SOL    HW111642   4.763   3.926   5.854
 3881SOL    HW211643   4.768   3.893   6.002
 3882SOL     OW11644   3.861   4.739   6.694
 3882SOL    HW111645   3.789   4.711   6.751
 3882SOL    HW211646   3.940   4.712   6.741
 3883SOL     OW11647   4.426   3.931   6.461
 3883SOL    HW111648   4.513   3.915   6.424
 3883SOL    HW211649   4.440   3.938   6.555
 3884SOL     OW11650   3.827   3.894   5.290
 3884SOL    HW111651   3.814   3.973   5.237
 3884SOL    HW211652   3.913   3.862   5.264
 3885SOL     OW11653   4.368   4.570   6.401
 3885SOL    HW111654   4.425   4.646   6.387
 3885SOL    HW211655   4.428   4.495   6.405
 3886SOL     OW11656   4.470   4.294   6.680
 3886SOL    HW111657   4.493   4.354   6.750
 3886SOL    HW211658   4.528   4.219   6.692
 3887SOL     OW11659   4.349   4.474   5.625
 3887SOL    HW111660   4.393   4.556   5.605
 3887SOL    HW211661   4.267   4.478   5.575
 3888SOL     OW11662   4.616   4.687   5.831
 3888SOL    HW111663   4.665   4.620   5.880
 3888SOL    HW211664   4.585   4.748   5.898
 3889SOL     OW11665   4.836   4.711   5.057
 3889SOL    HW111666   4.819   4.763   4.978
 3889SOL    HW211667   4.917   4.663   5.037
 3890SOL     OW11668   3.824   4.957   5.622
 3890SOL    HW111669   3.837   4.921   5.709
 3890SOL    HW211670   3.909   4.947   5.579
 3891SOL     OW11671   4.183   4.155   5.491
 3891SOL    HW111672   4.210   4.082   5.435
 3891SOL    HW211673   4.145   4.113   5.568
 3892SOL     OW11674   4.074   4.277   6.253
 3892SOL    HW111675   4.114   4.218   6.317
 3892SOL    HW211676   4.110   4.249   6.169
 3893SOL     OW11677   4.756   3.761   6.125
 3893SOL    HW111678   4.700   3.690   6.094
 3893SOL    HW211679   4.844   3.724   6.123
 3894SOL     OW11680   4.510   0.057   5.274
 3894SOL    HW111681   4.476  -0.031   5.292
 3894SOL    HW211682   4.599   0.055   5.310
 3895SOL     OW11683   3.986   4.356   6.948
 3895SOL    HW111684   3.895   4.354   6.978
 3895SOL    HW211685   3.982   4.320   6.859
 3896SOL     OW11686   3.980   4.004   7.826
 3896SOL    HW111687   4.010   3.985   7.915
 3896SOL    HW211688   3.894   3.962   7.820
 3897SOL     OW11689   3.771   4.102   7.476
 3897SOL    HW111690   3.690   4.134   7.516
 3897SOL    HW211691   3.744   4.028   7.422
 3898SOL     OW11692   4.878   4.435   7.541
 3898SOL    HW111693   4.946   4.501   7.531
 3898SOL    HW211694   4.835   4.456   7.624
 3899SOL     OW11695   4.527   4.875   7.862
 3899SOL    HW111696   4.447   4.894   7.911
 3899SOL    HW211697   4.549   4.958   7.820
 3900SOL     OW11698   4.607   4.525   8.655
 3900SOL    HW111699   4.601   4.600   8.716
 3900SOL    HW211700   4.627   4.565   8.571
 3901SOL     OW11701   4.439   4.739   7.496
 3901SOL    HW111702   4.504   4.727   7.566
 3901SOL    HW211703   4.373   4.797   7.535
 3902SOL     OW11704   4.445   4.888   8.634
 3902SOL    HW111705   4.499   4.965   8.649
 3902SOL    HW211706   4.362   4.922   8.599
 3903SOL     OW11707   4.194   4.123   8.332
 3903SOL    HW111708   4.270   4.065   8.339
 3903SOL    HW211709   4.119   4.064   8.336
 3904SOL     OW11710   3.997   4.819   7.718
 3904SOL    HW111711   4.006   4.739   7.770
 3904SOL    HW211712   3.944   4.877   7.772
 3905SOL     OW11713   4.358   4.694   6.957
 3905SOL    HW111714   4.373   4.773   6.905
 3905SOL    HW211715   4.405   4.711   7.039
 3906SOL     OW11716   3.876   4.373   7.396
 3906SOL    HW111717   3.835   4.289   7.415
 3906SOL    HW211718   3.872   4.421   7.479
 3907SOL     OW11719   3.870   4.466   8.426
 3907SOL    HW111720   3.954   4.461   8.471
 3907SOL    HW211721   3.855   4.559   8.413
 3908SOL     OW11722   4.563   3.731   7.334
 3908SOL    HW111723   4.600   3.819   7.328
 3908SOL    HW211724   4.468   3.745   7.343
 3909SOL     OW11725   3.952   4.705   8.096
 3909SOL    HW111726   4.034   4.659   8.083
 3909SOL    HW211727   3.884   4.640   8.077
 3910SOL     OW11728   4.074   3.980   8.632
 3910SOL    HW111729   4.137   4.052   8.642
 3910SOL    HW211730   3.991   4.017   8.663
 3911SOL     OW11731   4.351   4.456   7.101
 3911SOL    HW111732   4.373   4.527   7.040
 3911SOL    HW211733   4.280   4.492   7.154
 3912SOL     OW11734   4.560   4.336   8.295
 3912SOL    HW111735   4.517   4.327   8.380
 3912SOL    HW211736   4.510   4.280   8.237
 3913SOL     OW11737   4.725   4.620   8.407
 3913SOL    HW111738   4.771   4.542   8.376
 3913SOL    HW211739   4.675   4.650   8.332
 3914SOL     OW11740   4.746   4.138   8.078
 3914SOL    HW111741   4.668   4.170   8.123
 3914SOL    HW211742   4.713   4.092   8.001
 3915SOL     OW11743   4.799   4.428   7.261
 3915SOL    HW111744   4.816   4.424   7.355
 3915SOL    HW211745   4.715   4.382   7.251
 3916SOL     OW11746   3.832   4.541   7.617
 3916SOL    HW111747   3.926   4.532   7.636
 3916SOL    HW211748   3.811   4.630   7.644
 3917SOL     OW11749   4.621   4.075   7.029
 3917SOL    HW111750   4.678   4.134   6.978
 3917SOL    HW211751   4.643   3.988   6.997
 3918SOL     OW11752   4.304   3.924   7.718
 3918SOL    HW111753   4.301   3.926   7.814
 3918SOL    HW211754   4.307   4.015   7.691
 3919SOL     OW11755   4.076   4.673   7.076
 3919SOL    HW111756   4.155   4.706   7.032
 3919SOL    HW211757   4.052   4.595   7.027
 3920SOL     OW11758   3.956   4.013   8.331
 3920SOL    HW111759   3.879   4.069   8.322
 3920SOL    HW211760   3.943   3.967   8.414
 3921SOL     OW11761   4.138   4.429   7.314
 3921SOL    HW111762   4.176   4.341   7.312
 3921SOL    HW211763   4.048   4.416   7.342
 3922SOL     OW11764   4.370   3.854   6.949
 3922SOL    HW111765   4.462   3.826   6.953
 3922SOL    HW211766   4.342   3.830   6.861
 3923SOL     OW11767   4.535   3.994   8.582
 3923SOL    HW111768   4.598   3.934   8.623
 3923SOL    HW211769   4.468   4.009   8.648
 3924SOL     OW11770   4.678   4.234   7.733
 3924SOL    HW111771   4.654   4.220   7.641
 3924SOL    HW211772   4.722   4.153   7.759
 3925SOL     OW11773   4.298   3.793   7.346
 3925SOL    HW111774   4.217   3.795   7.397
 3925SOL    HW211775   4.295   3.872   7.292
 3926SOL     OW11776   0.181   4.898   6.860
 3926SOL    HW111777   0.220   4.848   6.931
 3926SOL    HW211778   0.110   4.948   6.902
 3927SOL     OW11779   4.051   3.765   7.006
 3927SOL    HW111780   4.103   3.843   6.985
 3927SOL    HW211781   4.113   3.705   7.047
 3928SOL     OW11782   4.690   3.969   7.313
 3928SOL    HW111783   4.648   4.005   7.235
 3928SOL    HW211784   4.783   3.963   7.290
 3929SOL     OW11785   4.833   4.409   8.299
 3929SOL    HW111786   4.757   4.350   8.298
 3929SOL    HW211787   4.906   4.354   8.272
 3930SOL     OW11788   4.218   4.873   7.578
 3930SOL    HW111789   4.142   4.854   7.633
 3930SOL    HW211790   4.188   4.856   7.488
 3931SOL     OW11791   4.789   4.278   6.847
 3931SOL    HW111792   4.748   4.359   6.817
 3931SOL    HW211793   4.846   4.305   6.919
 3932SOL     OW11794   3.832   4.285   8.220
 3932SOL    HW111795   3.920   4.286   8.184
 3932SOL    HW211796   3.830   4.356   8.283
 3933SOL     OW11797   4.318   3.953   7.983
 3933SOL    HW111798   4.350   3.870   8.019
 3933SOL    HW211799   4.232   3.964   8.022
 3934SOL     OW11800   4.624   4.184   7.475
 3934SOL    HW111801   4.589   4.248   7.413
 3934SOL    HW211802   4.641   4.107   7.422
 3935SOL     OW11803   4.772   3.771   7.586
 3935SOL    HW111804   4.702   3.770   7.521
 3935SOL    HW211805   4.748   3.702   7.648
 3936SOL     OW11806   4.282   3.987   7.162
 3936SOL    HW111807   4.309   3.932   7.087
 3936SOL    HW211808   4.281   4.076   7.127
 3937SOL     OW11809   4.670   3.821   8.236
 3937SOL    HW111810   4.696   3.802   8.146
 3937SOL    HW211811   4.743   3.871   8.272
 3938SOL     OW11812   4.736   4.842   8.553
 3938SOL    HW111813   4.641   4.847   8.560
 3938SOL    HW211814   4.752   4.767   8.496
 3939SOL     OW11815   4.458   4.778   7.201
 3939SOL    HW111816   4.450   4.785   7.296
 3939SOL    HW211817   4.540   4.731   7.187
 3940SOL     OW11818   4.166   4.542   8.083
 3940SOL    HW111819   4.245   4.550   8.137
 3940SOL    HW211820   4.128   4.458   8.110
 3941SOL     OW11821   4.118   4.825   7.333
 3941SOL    HW111822   4.117   4.904   7.281
 3941SOL    HW211823   4.125   4.754   7.270
 3942SOL     OW11824   4.320   4.266   7.698
 3942SOL    HW111825   4.334   4.330   7.629
 3942SOL    HW211826   4.366   4.301   7.774
 3943SOL     OW11827   4.158   4.479   8.430
 3943SOL    HW111828   4.225   4.528   8.384
 3943SOL    HW211829   4.200   4.396   8.454
 3944SOL     OW11830   4.765   3.835   8.603
 3944SOL    HW111831   4.778   3.914   8.549
 3944SOL    HW211832   4.799   3.764   8.549
 3945SOL     OW11833   4.260   3.781   8.573
 3945SOL    HW111834   4.217   3.726   8.508
 3945SOL    HW211835   4.192   3.843   8.600
 3946SOL     OW11836   4.331   4.598   7.863
 3946SOL    HW111837   4.367   4.686   7.856
 3946SOL    HW211838   4.270   4.603   7.937
 3947SOL     OW11839   0.104   4.589   7.887
 3947SOL    HW111840   0.042   4.586   7.814
 3947SOL    HW211841   0.148   4.504   7.884
 3948SOL     OW11842   4.963   4.255   7.107
 3948SOL    HW111843   4.976   4.177   7.162
 3948SOL    HW211844   4.935   4.323   7.167
 3949SOL     OW11845   4.063   3.941   8.067
 3949SOL    HW111846   4.036   3.973   8.153
 3949SOL    HW211847   4.032   3.850   8.064
 3950SOL     OW11848   4.487   4.364   7.898
 3950SOL    HW111849   4.544   4.341   7.825
 3950SOL    HW211850   4.461   4.454   7.881
 3951SOL     OW11851   4.060   3.793   7.452
 3951SOL    HW111852   4.049   3.882   7.487
 3951SOL    HW211853   4.056   3.737   7.529
 3952SOL     OW11854   4.776   4.496   7.799
 3952SOL    HW111855   4.792   4.510   7.892
 3952SOL    HW211856   4.752   4.403   7.793
 3953SOL     OW11857   4.104   4.632   8.638
 3953SOL    HW111858   4.182   4.667   8.681
 3953SOL    HW211859   4.138   4.583   8.563
 3954SOL     OW11860   0.313   4.005   6.986
 3954SOL    HW111861   0.241   3.943   6.993
 3954SOL    HW211862   0.309   4.056   7.067
 3955SOL     OW11863   4.072   4.541   7.784
 3955SOL    HW111864   4.164   4.568   7.786
 3955SOL    HW211865   4.071   4.457   7.830
 3956SOL     OW11866   4.094   4.240   7.839
 3956SOL    HW111867   4.048   4.158   7.821
 3956SOL    HW211868   4.167   4.241   7.777
 3957SOL     OW11869   4.894   4.109   8.512
 3957SOL    HW111870   4.852   4.170   8.572
 3957SOL    HW211871   4.981   4.145   8.498
 3958SOL     OW11872   4.915   3.935   8.310
 3958SOL    HW111873   4.913   3.999   8.380
 3958SOL    HW211874   4.940   3.985   8.232
 3959SOL     OW11875   3.756   0.035   6.992
 3959SOL    HW111876   3.665   0.064   7.005
 3959SOL    HW211877   3.763  -0.045   7.044
 3960SOL     OW11878   4.755   4.528   8.070
 3960SOL    HW111879   4.794   4.494   8.151
 3960SOL    HW211880   4.665   4.496   8.071
 3961SOL     OW11881   3.794   4.272   7.947
 3961SOL    HW111882   3.877   4.243   7.910
 3961SOL    HW211883   3.812   4.286   8.040
 3962SOL     OW11884   3.945   4.248   8.556
 3962SOL    HW111885   3.999   4.213   8.485
 3962SOL    HW211886   3.890   4.314   8.514
 3963SOL     OW11887   4.570   4.299   7.164
 3963SOL    HW111888   4.572   4.218   7.113
 3963SOL    HW211889   4.482   4.334   7.148
 3964SOL     OW11890   4.429   4.192   8.102
 3964SOL    HW111891   4.394   4.110   8.070
 3964SOL    HW211892   4.448   4.243   8.023
 3965SOL     OW11893   4.228   4.228   7.023
 3965SOL    HW111894   4.283   4.306   7.030
 3965SOL    HW211895   4.139   4.261   7.029
 3966SOL     OW11896   3.911   4.867   8.299
 3966SOL    HW111897   3.933   4.807   8.371
 3966SOL    HW211898   3.925   4.815   8.220
 3967SOL     OW11899   3.845   4.969   7.860
 3967SOL    HW111900   3.829   4.982   7.953
 3967SOL    HW211901   3.761   4.943   7.824
 3968SOL     OW11902   4.022   4.055   7.554
 3968SOL    HW111903   3.942   4.098   7.523
 3968SOL    HW211904   4.007   4.041   7.648
 3969SOL     OW11905   4.576   4.733   8.205
 3969SOL    HW111906   4.617   4.734   8.119
 3969SOL    HW211907   4.589   4.821   8.239
 3970SOL     OW11908   4.671   4.638   7.123
 3970SOL    HW111909   4.734   4.673   7.060
 3970SOL    HW211910   4.713   4.561   7.160
 3971SOL     OW11911   4.129   0.017   8.323
 3971SOL    HW111912   4.111   0.105   8.291
 3971SOL    HW211913   4.046  -0.030   8.311
 3972SOL     OW11914   4.796   4.817   7.530
 3972SOL    HW111915   4.728   4.769   7.576
 3972SOL    HW211916   4.848   4.749   7.486
 3973SOL     OW11917   4.766   3.966   7.803
 3973SOL    HW111918   4.763   3.926   7.716
 3973SOL    HW211919   4.768   3.893   7.864
 3974SOL     OW11920   3.861   4.739   8.556
 3974SOL    HW111921   3.789   4.711   8.613
 3974SOL    HW211922   3.940   4.712   8.603
 3975SOL     OW11923   4.426   3.931   8.323
 3975SOL    HW111924   4.513   3.915   8.286
 3975SOL    HW211925   4.440   3.938   8.417
 3976SOL     OW11926   3.830   4.074   6.867
 3976SOL    HW111927   3.743   4.049   6.836
 3976SOL    HW211928   3.856   4.147   6.811
 3977SOL     OW11929   3.826   3.893   7.151
 3977SOL    HW111930   3.814   3.973   7.098
 3977SOL    HW211931   3.914   3.862   7.127
 3978SOL     OW11932   4.368   4.570   8.263
 3978SOL    HW111933   4.425   4.646   8.249
 3978SOL    HW211934   4.428   4.495   8.267
 3979SOL     OW11935   4.470   4.294   8.542
 3979SOL    HW111936   4.493   4.354   8.612
 3979SOL    HW211937   4.528   4.219   8.554
 3980SOL     OW11938   4.349   4.474   7.487
 3980SOL    HW111939   4.393   4.556   7.467
 3980SOL    HW211940   4.267   4.478   7.437
 3981SOL     OW11941   4.616   4.687   7.693
 3981SOL    HW111942   4.665   4.620   7.742
 3981SOL    HW211943   4.585   4.748   7.760
 3982SOL     OW11944   4.836   4.711   6.919
 3982SOL    HW111945   4.819   4.764   6.841
 3982SOL    HW211946   4.916   4.662   6.898
 3983SOL     OW11947   3.824   4.958   7.484
 3983SOL    HW111948   3.837   4.921   7.571
 3983SOL    HW211949   3.909   4.946   7.441
 3984SOL     OW11950   4.184   4.155   7.353
 3984SOL    HW111951   4.210   4.082   7.297
 3984SOL    HW211952   4.145   4.113   7.430
 3985SOL     OW11953   4.074   4.277   8.115
 3985SOL    HW111954   4.114   4.218   8.179
 3985SOL    HW211955   4.110   4.249   8.031
 3986SOL     OW11956   4.756   3.762   7.987
 3986SOL    HW111957   4.700   3.690   7.956
 3986SOL    HW211958   4.844   3.724   7.985
 3987SOL     OW11959   4.538   0.049   7.111
 3987SOL    HW111960   4.481  -0.019   7.147
 3987SOL    HW211961   4.610   0.056   7.173
 3988SOL     OW11962   3.793   4.807   7.136
 3988SOL    HW111963   3.887   4.795   7.124
 3988SOL    HW211964   3.761   4.720   7.162
 3989SOL     OW11965   3.986   4.356   8.810
 3989SOL    HW111966   3.895   4.354   8.841
 3989SOL    HW211967   3.982   4.320   8.721
 3990SOL     OW11968   3.980   4.004   9.688
 3990SOL    HW111969   4.011   3.986   9.776
 3990SOL    HW211970   3.895   3.961   9.682
 3991SOL     OW11971   3.771   4.102   9.338
 3991SOL    HW111972   3.690   4.134   9.378
 3991SOL    HW211973   3.744   4.028   9.284
 3992SOL     OW11974   4.878   4.435   9.403
 3992SOL    HW111975   4.946   4.501   9.393
 3992SOL    HW211976   4.835   4.456   9.486
 3993SOL     OW11977   4.527   4.875   9.724
 3993SOL    HW111978   4.447   4.894   9.774
 3993SOL    HW211979   4.550   4.958   9.682
 3994SOL     OW11980   4.439   4.739   9.358
 3994SOL    HW111981   4.504   4.727   9.428
 3994SOL    HW211982   4.373   4.797   9.397
 3995SOL     OW11983   3.997   4.819   9.580
 3995SOL    HW111984   4.006   4.739   9.632
 3995SOL    HW211985   3.944   4.877   9.634
 3996SOL     OW11986   4.358   4.694   8.819
 3996SOL    HW111987   4.373   4.773   8.767
 3996SOL    HW211988   4.405   4.711   8.901
 3997SOL     OW11989   3.876   4.373   9.258
 3997SOL    HW111990   3.835   4.289   9.277
 3997SOL    HW211991   3.872   4.421   9.341
 3998SOL     OW11992   4.563   3.731   9.195
 3998SOL    HW111993   4.600   3.819   9.190
 3998SOL    HW211994   4.468   3.745   9.205
 3999SOL     OW11995   3.952   4.705   9.957
 3999SOL    HW111996   4.034   4.659   9.945
 3999SOL    HW211997   3.884   4.640   9.939
 4000SOL     OW11998   4.351   4.456   8.963
 4000SOL    HW111999   4.373   4.527   8.902
 4000SOL    HW212000   4.280   4.492   9.016
 4001SOL     OW12001   4.799   4.428   9.123
 4001SOL    HW112002   4.816   4.424   9.217
 4001SOL    HW212003   4.715   4.382   9.113
 4002SOL     OW12004   3.832   4.541   9.479
 4002SOL    HW112005   3.926   4.532   9.498
 4002SOL    HW212006   3.811   4.630   9.506
 4003SOL     OW12007   4.621   4.075   8.891
 4003SOL    HW112008   4.678   4.134   8.840
 4003SOL    HW212009   4.643   3.988   8.859
 4004SOL     OW12010   4.305   3.923   9.581
 4004SOL    HW112011   4.299   3.926   9.677
 4004SOL    HW212012   4.307   4.015   9.555
 4005SOL     OW12013   4.076   4.673   8.938
 4005SOL    HW112014   4.155   4.706   8.894
 4005SOL    HW212015   4.052   4.595   8.889
 4006SOL     OW12016   4.138   4.429   9.176
 4006SOL    HW112017   4.176   4.341   9.174
 4006SOL    HW212018   4.048   4.416   9.204
 4007SOL     OW12019   4.370   3.854   8.811
 4007SOL    HW112020   4.462   3.826   8.815
 4007SOL    HW212021   4.342   3.830   8.723
 4008SOL     OW12022   4.679   4.234   9.595
 4008SOL    HW112023   4.654   4.220   9.503
 4008SOL    HW212024   4.721   4.153   9.622
 4009SOL     OW12025   4.298   3.793   9.208
 4009SOL    HW112026   4.217   3.795   9.259
 4009SOL    HW212027   4.295   3.872   9.154
 4010SOL     OW12028   0.181   4.898   8.722
 4010SOL    HW112029   0.220   4.848   8.793
 4010SOL    HW212030   0.110   4.948   8.764
 4011SOL     OW12031   4.051   3.765   8.868
 4011SOL    HW112032   4.103   3.843   8.847
 4011SOL    HW212033   4.113   3.705   8.909
 4012SOL     OW12034   4.690   3.969   9.175
 4012SOL    HW112035   4.648   4.005   9.097
 4012SOL    HW212036   4.783   3.963   9.152
 4013SOL     OW12037   4.218   4.874   9.440
 4013SOL    HW112038   4.142   4.854   9.495
 4013SOL    HW212039   4.188   4.856   9.350
 4014SOL     OW12040   4.789   4.278   8.709
 4014SOL    HW112041   4.748   4.359   8.679
 4014SOL    HW212042   4.846   4.305   8.781
 4015SOL     OW12043   4.624   4.184   9.337
 4015SOL    HW112044   4.589   4.248   9.275
 4015SOL    HW212045   4.641   4.107   9.284
 4016SOL     OW12046   4.772   3.771   9.448
 4016SOL    HW112047   4.702   3.770   9.383
 4016SOL    HW212048   4.748   3.702   9.510
 4017SOL     OW12049   4.282   3.987   9.024
 4017SOL    HW112050   4.309   3.932   8.949
 4017SOL    HW212051   4.281   4.076   8.989
 4018SOL     OW12052   4.458   4.778   9.063
 4018SOL    HW112053   4.450   4.785   9.158
 4018SOL    HW212054   4.540   4.731   9.049
 4019SOL     OW12055   4.166   4.543   9.947
 4019SOL    HW112056   4.247   4.549   9.997
 4019SOL    HW212057   4.129   4.458   9.973
 4020SOL     OW12058   4.119   4.825   9.195
 4020SOL    HW112059   4.117   4.904   9.142
 4020SOL    HW212060   4.125   4.754   9.132
 4021SOL     OW12061   4.320   4.266   9.560
 4021SOL    HW112062   4.334   4.330   9.491
 4021SOL    HW212063   4.366   4.301   9.636
 4022SOL     OW12064   4.330   4.598   9.725
 4022SOL    HW112065   4.367   4.686   9.718
 4022SOL    HW212066   4.269   4.603   9.798
 4023SOL     OW12067   0.104   4.589   9.749
 4023SOL    HW112068   0.042   4.587   9.676
 4023SOL    HW212069   0.149   4.504   9.745
 4024SOL     OW12070   4.963   4.255   8.969
 4024SOL    HW112071   4.976   4.177   9.024
 4024SOL    HW212072   4.935   4.323   9.029
 4025SOL     OW12073   4.062   3.941   9.927
 4025SOL    HW112074   4.039   3.973  10.014
 4025SOL    HW212075   4.033   3.850   9.926
 4026SOL     OW12076   4.487   4.364   9.760
 4026SOL    HW112077   4.544   4.341   9.686
 4026SOL    HW212078   4.461   4.454   9.743
 4027SOL     OW12079   4.060   3.793   9.314
 4027SOL    HW112080   4.049   3.882   9.349
 4027SOL    HW212081   4.056   3.737   9.391
 4028SOL     OW12082   4.776   4.496   9.661
 4028SOL    HW112083   4.792   4.510   9.754
 4028SOL    HW212084   4.751   4.403   9.655
 4029SOL     OW12085   0.313   4.005   8.848
 4029SOL    HW112086   0.241   3.943   8.855
 4029SOL    HW212087   0.309   4.056   8.929
 4030SOL     OW12088   4.072   4.541   9.646
 4030SOL    HW112089   4.164   4.568   9.648
 4030SOL    HW212090   4.071   4.457   9.692
 4031SOL     OW12091   4.092   4.242   9.700
 4031SOL    HW112092   4.048   4.158   9.684
 4031SOL    HW212093   4.166   4.242   9.640
 4032SOL     OW12094   4.918   3.935  10.173
 4032SOL    HW112095   4.915   4.000  10.243
 4032SOL    HW212096   4.940   3.984  10.094
 4033SOL     OW12097   3.756   0.035   8.854
 4033SOL    HW112098   3.665   0.064   8.867
 4033SOL    HW212099   3.763  -0.045   8.906
 4034SOL     OW12100   4.757   4.525   9.932
 4034SOL    HW112101   4.793   4.494  10.015
 4034SOL    HW212102   4.665   4.497   9.934
 4035SOL     OW12103   3.794   4.271   9.810
 4035SOL    HW112104   3.877   4.242   9.772
 4035SOL    HW212105   3.814   4.287   9.902
 4036SOL     OW12106   4.570   4.299   9.026
 4036SOL    HW112107   4.572   4.218   8.975
 4036SOL    HW212108   4.482   4.334   9.010
 4037SOL     OW12109   4.425   4.194   9.965
 4037SOL    HW112110   4.395   4.109   9.932
 4037SOL    HW212111   4.450   4.243   9.887
 4038SOL     OW12112   4.228   4.228   8.885
 4038SOL    HW112113   4.283   4.306   8.892
 4038SOL    HW212114   4.139   4.261   8.891
 4039SOL     OW12115   3.912   4.867  10.162
 4039SOL    HW112116   3.935   4.806  10.232
 4039SOL    HW212117   3.925   4.817  10.081
 4040SOL     OW12118   3.845   4.969   9.722
 4040SOL    HW112119   3.829   4.982   9.815
 4040SOL    HW212120   3.760   4.943   9.686
 4041SOL     OW12121   4.022   4.055   9.416
 4041SOL    HW112122   3.942   4.098   9.385
 4041SOL    HW212123   4.007   4.041   9.510
 4042SOL     OW12124   4.574   4.732  10.066
 4042SOL    HW112125   4.618   4.733   9.981
 4042SOL    HW212126   4.589   4.819  10.102
 4043SOL     OW12127   4.671   4.638   8.985
 4043SOL    HW112128   4.734   4.673   8.922
 4043SOL    HW212129   4.713   4.561   9.022
 4044SOL     OW12130   4.796   4.817   9.392
 4044SOL    HW112131   4.728   4.769   9.438
 4044SOL    HW212132   4.848   4.749   9.348
 4045SOL     OW12133   4.768   3.967   9.664
 4045SOL    HW112134   4.763   3.925   9.578
 4045SOL    HW212135   4.767   3.894   9.726
 4046SOL     OW12136   3.830   4.074   8.729
 4046SOL    HW112137   3.743   4.049   8.698
 4046SOL    HW212138   3.856   4.147   8.673
 4047SOL     OW12139   3.826   3.893   9.013
 4047SOL    HW112140   3.814   3.973   8.960
 4047SOL    HW212141   3.914   3.862   8.989
 4048SOL     OW12142   4.349   4.474   9.349
 4048SOL    HW112143   4.393   4.556   9.329
 4048SOL    HW212144   4.267   4.478   9.299
 4049SOL     OW12145   4.616   4.687   9.555
 4049SOL    HW112146   4.665   4.620   9.604
 4049SOL    HW212147   4.585   4.748   9.622
 4050SOL     OW12148   4.836   4.711   8.781
 4050SOL    HW112149   4.819   4.764   8.703
 4050SOL    HW212150   4.916   4.662   8.760
 4051SOL     OW12151   3.824   4.958   9.346
 4051SOL    HW112152   3.837   4.921   9.433
 4051SOL    HW212153   3.909   4.946   9.303
 4052SOL     OW12154   4.184   4.155   9.215
 4052SOL    HW112155   4.210   4.082   9.159
 4052SOL    HW212156   4.145   4.113   9.292
 4053SOL     OW12157   4.757   3.763   9.846
 4053SOL    HW112158   4.699   3.691   9.819
 4053SOL    HW212159   4.844   3.724   9.849
 4054SOL     OW12160   4.538   0.049   8.973
 4054SOL    HW112161   4.481  -0.019   9.009
 4054SOL    HW212162   4.610   0.056   9.035
 4055SOL     OW12163   3.793   4.807   8.998
 4055SOL    HW112164   3.887   4.795   8.986
 4055SOL    HW212165   3.761   4.720   9.024
   5.00000   5.00000  15.00000
