Generated by gmx solvate
12165
    1SOL     OW    1   0.261   0.633   5.084
    1SOL    HW1    2   0.168   0.631   5.121
    1SOL    HW2    3   0.262   0.594   4.992
    2SOL     OW    4   0.256   0.280   5.967
    2SOL    HW1    5   0.291   0.263   6.059
    2SOL    HW2    6   0.168   0.235   5.955
    3SOL     OW    7   0.050   0.373   5.618
    3SOL    HW1    8  -0.032   0.416   5.657
    3SOL    HW2    9   0.022   0.300   5.555
    4SOL     OW   10   0.600   1.280   6.136
    4SOL    HW1   11   0.507   1.273   6.099
    4SOL    HW2   12   0.611   1.369   6.180
    5SOL     OW   13   1.586   1.516   5.674
    5SOL    HW1   14   1.529   1.500   5.755
    5SOL    HW2   15   1.527   1.526   5.594
    6SOL     OW   16   1.166   0.708   5.688
    6SOL    HW1   17   1.223   0.786   5.663
    6SOL    HW2   18   1.106   0.734   5.764
    7SOL     OW   19   1.786   0.612   5.202
    7SOL    HW1   20   1.774   0.599   5.103
    7SOL    HW2   21   1.756   0.531   5.251
    8SOL     OW   22   0.799   1.149   5.994
    8SOL    HW1   23   0.721   1.166   6.054
    8SOL    HW2   24   0.833   1.236   5.958
    9SOL     OW   25   0.881   0.803   6.794
    9SOL    HW1   26   0.877   0.879   6.859
    9SOL    HW2   27   0.903   0.839   6.703
   10SOL     OW   28   0.716   1.017   5.636
   10SOL    HW1   29   0.785   1.001   5.706
   10SOL    HW2   30   0.643   1.074   5.674
   11SOL     OW   31   0.717   1.166   6.774
   11SOL    HW1   32   0.777   1.245   6.788
   11SOL    HW2   33   0.631   1.197   6.733
   12SOL     OW   34   0.366   1.440   6.032
   12SOL    HW1   35   0.288   1.409   5.979
   12SOL    HW2   36   0.424   1.498   5.975
   13SOL     OW   37   1.491   1.510   6.310
   13SOL    HW1   38   1.515   1.604   6.336
   13SOL    HW2   39   1.475   1.456   6.392
   14SOL     OW   40   0.469   0.397   6.470
   14SOL    HW1   41   0.551   0.341   6.479
   14SOL    HW2   42   0.388   0.339   6.474
   15SOL     OW   43   1.634   0.452   5.708
   15SOL    HW1   44   1.560   0.498   5.658
   15SOL    HW2   45   1.685   0.520   5.761
   16SOL     OW   46   0.262   1.718   5.454
   16SOL    HW1   47   0.296   1.795   5.508
   16SOL    HW2   48   0.306   1.718   5.364
   17SOL     OW   49   1.158   1.346   6.661
   17SOL    HW1   50   1.205   1.346   6.749
   17SOL    HW2   51   1.110   1.259   6.650
   18SOL     OW   52   0.261   1.439   5.509
   18SOL    HW1   53   0.235   1.535   5.509
   18SOL    HW2   54   0.190   1.385   5.554
   19SOL     OW   55   0.271   1.096   5.857
   19SOL    HW1   56   0.285   1.012   5.909
   19SOL    HW2   57   0.216   1.160   5.912
   20SOL     OW   58   0.651   1.791   6.410
   20SOL    HW1   59   0.559   1.774   6.445
   20SOL    HW2   60   0.679   1.883   6.436
   21SOL     OW   61   0.637   0.969   5.094
   21SOL    HW1   62   0.644   1.053   5.040
   21SOL    HW2   63   0.683   0.982   5.182
   22SOL     OW   64   1.625   0.119   6.451
   22SOL    HW1   65   1.607   0.186   6.379
   22SOL    HW2   66   1.622   0.165   6.540
   23SOL     OW   67   0.153   0.648   5.534
   23SOL    HW1   68   0.108   0.560   5.551
   23SOL    HW2   69   0.152   0.702   5.618
   24SOL     OW   70   1.873   1.772   5.330
   24SOL    HW1   71   1.927   1.743   5.410
   24SOL    HW2   72   1.903   1.862   5.301
   25SOL     OW   73   0.058   1.601   5.088
   25SOL    HW1   74   0.039   1.505   5.109
   25SOL    HW2   75   0.025   1.659   5.163
   26SOL     OW   76   1.720   0.927   5.583
   26SOL    HW1   77   1.815   0.898   5.591
   26SOL    HW2   78   1.712   0.992   5.508
   27SOL     OW   79   1.672   1.113   5.403
   27SOL    HW1   80   1.758   1.115   5.351
   27SOL    HW2   81   1.686   1.160   5.491
   28SOL     OW   82   0.144   0.742   6.568
   28SOL    HW1   83   0.232   0.729   6.613
   28SOL    HW2   84   0.131   0.839   6.546
   29SOL     OW   85   0.644   1.370   5.697
   29SOL    HW1   86   0.595   1.283   5.706
   29SOL    HW2   87   0.621   1.413   5.610
   30SOL     OW   88   1.324   1.233   6.394
   30SOL    HW1   89   1.361   1.160   6.336
   30SOL    HW2   90   1.376   1.238   6.479
   31SOL     OW   91   0.840   0.009   5.473
   31SOL    HW1   92   0.880   0.100   5.464
   31SOL    HW2   93   0.740   0.017   5.479
   32SOL     OW   94   0.228   0.981   6.235
   32SOL    HW1   95   0.317   0.936   6.221
   32SOL    HW2   96   0.155   0.916   6.216
   33SOL     OW   97   1.556   1.004   5.161
   33SOL    HW1   98   1.493   0.928   5.174
   33SOL    HW2   99   1.604   1.022   5.247
   34SOL     OW  100   1.218   1.797   6.587
   34SOL    HW1  101   1.242   1.857   6.511
   34SOL    HW2  102   1.225   1.702   6.557
   35SOL     OW  103   0.348   0.256   6.772
   35SOL    HW1  104   0.419   0.327   6.778
   35SOL    HW2  105   0.260   0.295   6.800
   36SOL     OW  106   1.497   1.422   5.924
   36SOL    HW1  107   1.438   1.428   6.004
   36SOL    HW2  108   1.482   1.334   5.878
   37SOL     OW  109   1.698   1.719   5.543
   37SOL    HW1  110   1.657   1.696   5.455
   37SOL    HW2  111   1.680   1.645   5.608
   38SOL     OW  112   0.629   0.734   5.241
   38SOL    HW1  113   0.653   0.803   5.173
   38SOL    HW2  114   0.551   0.767   5.295
   39SOL     OW  115   1.312   0.350   5.915
   39SOL    HW1  116   1.226   0.300   5.902
   39SOL    HW2  117   1.374   0.296   5.971
   40SOL     OW  118   1.607   1.667   5.278
   40SOL    HW1  119   1.696   1.713   5.281
   40SOL    HW2  120   1.586   1.643   5.183
   41SOL     OW  121   0.838   0.610   6.436
   41SOL    HW1  122   0.791   0.607   6.525
   41SOL    HW2  123   0.787   0.555   6.370
   42SOL     OW  124   1.425   0.474   6.645
   42SOL    HW1  125   1.405   0.517   6.733
   42SOL    HW2  126   1.503   0.412   6.654
   43SOL     OW  127   1.004   0.895   6.543
   43SOL    HW1  128   1.050   0.811   6.514
   43SOL    HW2  129   0.948   0.929   6.468
   44SOL     OW  130   1.022   0.415   6.213
   44SOL    HW1  131   0.945   0.449   6.267
   44SOL    HW2  132   0.988   0.364   6.134
   45SOL     OW  133   1.072   0.706   5.400
   45SOL    HW1  134   1.098   0.702   5.496
   45SOL    HW2  135   0.987   0.655   5.386
   46SOL     OW  136   0.107   0.816   5.760
   46SOL    HW1  137   0.206   0.804   5.769
   46SOL    HW2  138   0.083   0.911   5.781
   47SOL     OW  139   0.161   1.826   6.542
   47SOL    HW1  140   0.151   1.811   6.641
   47SOL    HW2  141   0.075   1.862   6.506
   48SOL     OW  142   0.896   0.353   5.166
   48SOL    HW1  143   0.955   0.416   5.117
   48SOL    HW2  144   0.915   0.259   5.137
   49SOL     OW  145   1.750   0.590   6.802
   49SOL    HW1  146   1.724   0.679   6.766
   49SOL    HW2  147   1.748   0.522   6.729
   50SOL     OW  148   1.393   1.149   5.516
   50SOL    HW1  149   1.476   1.120   5.468
   50SOL    HW2  150   1.344   1.216   5.460
   51SOL     OW  151   0.581   0.201   5.856
   51SOL    HW1  152   0.576   0.196   5.956
   51SOL    HW2  153   0.583   0.297   5.827
   52SOL     OW  154   1.039   1.461   5.448
   52SOL    HW1  155   0.993   1.533   5.396
   52SOL    HW2  156   1.035   1.481   5.546
   53SOL     OW  157   0.382   1.806   5.824
   53SOL    HW1  158   0.432   1.720   5.830
   53SOL    HW2  159   0.447   1.883   5.821
   54SOL     OW  160   1.826   1.071   5.844
   54SOL    HW1  161   1.764   1.056   5.768
   54SOL    HW2  162   1.774   1.082   5.929
   55SOL     OW  163   1.258   1.555   6.477
   55SOL    HW1  164   1.264   1.478   6.541
   55SOL    HW2  165   1.206   1.529   6.397
   56SOL     OW  166   0.352   0.948   5.213
   56SOL    HW1  167   0.434   0.987   5.171
   56SOL    HW2  168   0.325   0.866   5.164
   57SOL     OW  169   1.489   0.740   5.699
   57SOL    HW1  170   1.484   0.675   5.774
   57SOL    HW2  171   1.569   0.799   5.712
   58SOL     OW  172   0.492   1.271   6.698
   58SOL    HW1  173   0.442   1.272   6.612
   58SOL    HW2  174   0.429   1.253   6.774
   59SOL     OW  175   1.142   1.781   5.208
   59SOL    HW1  176   1.082   1.719   5.258
   59SOL    HW2  177   1.173   1.737   5.123
   60SOL     OW  178   0.233   0.290   6.469
   60SOL    HW1  179   0.153   0.350   6.456
   60SOL    HW2  180   0.223   0.241   6.555
   61SOL     OW  181   1.663   1.382   5.052
   61SOL    HW1  182   1.631   1.476   5.042
   61SOL    HW2  183   1.587   1.319   5.040
   62SOL     OW  184   0.495   1.748   5.294
   62SOL    HW1  185   0.528   1.787   5.380
   62SOL    HW2  186   0.571   1.741   5.229
   63SOL     OW  187   1.431   0.112   5.397
   63SOL    HW1  188   1.407   0.075   5.307
   63SOL    HW2  189   1.530   0.128   5.401
   64SOL     OW  190   0.280   1.790   6.212
   64SOL    HW1  191   0.337   1.725   6.262
   64SOL    HW2  192   0.264   1.757   6.119
   65SOL     OW  193   0.971   1.703   5.875
   65SOL    HW1  194   1.051   1.646   5.896
   65SOL    HW2  195   0.922   1.663   5.798
   66SOL     OW  196   0.413   0.705   5.451
   66SOL    HW1  197   0.458   0.615   5.448
   66SOL    HW2  198   0.319   0.694   5.484
   67SOL     OW  199   1.578   0.227   6.700
   67SOL    HW1  200   1.573   0.264   6.792
   67SOL    HW2  201   1.506   0.158   6.688
   68SOL     OW  202   0.645   0.127   5.088
   68SOL    HW1  203   0.743   0.105   5.095
   68SOL    HW2  204   0.614   0.110   4.995
   69SOL     OW  205   0.812   0.269   6.720
   69SOL    HW1  206   0.879   0.208   6.763
   69SOL    HW2  207   0.739   0.288   6.785
   70SOL     OW  208   0.919   1.519   6.166
   70SOL    HW1  209   0.896   1.494   6.072
   70SOL    HW2  210   0.980   1.450   6.205
   71SOL     OW  211   1.382   0.595   6.404
   71SOL    HW1  212   1.410   0.552   6.489
   71SOL    HW2  213   1.407   0.691   6.405
   72SOL     OW  214   0.834   1.407   5.895
   72SOL    HW1  215   0.924   1.421   5.853
   72SOL    HW2  216   0.763   1.409   5.824
   73SOL     OW  217   0.953   0.508   5.870
   73SOL    HW1  218   0.928   0.499   5.774
   73SOL    HW2  219   1.001   0.426   5.901
   74SOL     OW  220   0.570   0.069   5.483
   74SOL    HW1  221   0.489   0.070   5.541
   74SOL    HW2  222   0.573   0.152   5.428
   75SOL     OW  223   1.465   1.193   5.012
   75SOL    HW1  224   1.497   1.117   5.069
   75SOL    HW2  225   1.373   1.220   5.042
   76SOL     OW  226   0.328   0.040   5.142
   76SOL    HW1  227   0.377   0.124   5.121
   76SOL    HW2  228   0.390  -0.025   5.187
   77SOL     OW  229   0.966   0.241   5.451
   77SOL    HW1  230   0.918   0.282   5.373
   77SOL    HW2  231   1.065   0.239   5.432
   78SOL     OW  232   1.107   0.688   6.435
   78SOL    HW1  233   1.027   0.627   6.438
   78SOL    HW2  234   1.188   0.635   6.411
   79SOL     OW  235   1.258   1.575   5.764
   79SOL    HW1  236   1.279   1.649   5.699
   79SOL    HW2  237   1.326   1.575   5.837
   80SOL     OW  238   0.490   1.157   5.712
   80SOL    HW1  239   0.419   1.130   5.777
   80SOL    HW2  240   0.464   1.129   5.619
   81SOL     OW  241   1.302   1.802   5.562
   81SOL    HW1  242   1.346   1.866   5.498
   81SOL    HW2  243   1.252   1.854   5.632
   82SOL     OW  244   1.063   0.554   4.987
   82SOL    HW1  245   1.022   0.636   4.948
   82SOL    HW2  246   1.127   0.580   5.060
   83SOL     OW  247   0.109   0.561   6.357
   83SOL    HW1  248   0.201   0.560   6.316
   83SOL    HW2  249   0.103   0.635   6.424
   84SOL     OW  250   0.592   0.227   6.118
   84SOL    HW1  251   0.630   0.143   6.155
   84SOL    HW2  252   0.504   0.246   6.162
   85SOL     OW  253   0.897   0.459   5.613
   85SOL    HW1  254   0.865   0.531   5.551
   85SOL    HW2  255   0.921   0.378   5.560
   86SOL     OW  256   1.048   0.044   5.724
   86SOL    HW1  257   0.976   0.049   5.655
   86SOL    HW2  258   1.024  -0.025   5.793
   87SOL     OW  259   1.460   1.178   5.838
   87SOL    HW1  260   1.405   1.094   5.831
   87SOL    HW2  261   1.486   1.207   5.746
   88SOL     OW  262   1.497   0.595   5.963
   88SOL    HW1  263   1.467   0.500   5.970
   88SOL    HW2  264   1.570   0.611   6.029
   89SOL     OW  265   1.888   0.838   5.348
   89SOL    HW1  266   1.930   0.774   5.412
   89SOL    HW2  267   1.850   0.787   5.270
   90SOL     OW  268   0.519   1.390   5.145
   90SOL    HW1  269   0.432   1.375   5.192
   90SOL    HW2  270   0.502   1.416   5.050
   91SOL     OW  271   1.695   1.285   5.628
   91SOL    HW1  272   1.794   1.293   5.642
   91SOL    HW2  273   1.650   1.369   5.659
   92SOL     OW  274   1.421   0.580   5.049
   92SOL    HW1  275   1.367   0.559   5.130
   92SOL    HW2  276   1.512   0.539   5.058
   93SOL     OW  277   0.558   0.261   5.299
   93SOL    HW1  278   0.585   0.202   5.224
   93SOL    HW2  279   0.558   0.356   5.268
   94SOL     OW  280   1.785   1.228   6.559
   94SOL    HW1  281   1.876   1.189   6.546
   94SOL    HW2  282   1.793   1.324   6.583
   95SOL     OW  283   1.095   1.352   6.311
   95SOL    HW1  284   1.015   1.329   6.366
   95SOL    HW2  285   1.178   1.326   6.360
   96SOL     OW  286   1.623   1.634   6.596
   96SOL    HW1  287   1.650   1.668   6.506
   96SOL    HW2  288   1.702   1.596   6.642
   97SOL     OW  289   1.142   1.200   6.071
   97SOL    HW1  290   1.102   1.244   6.152
   97SOL    HW2  291   1.101   1.237   5.988
   98SOL     OW  292   1.669   1.104   6.050
   98SOL    HW1  293   1.674   1.185   6.109
   98SOL    HW2  294   1.583   1.106   5.999
   99SOL     OW  295   0.946   0.094   6.373
   99SOL    HW1  296   0.971   0.074   6.278
   99SOL    HW2  297   1.018   0.150   6.415
  100SOL     OW  298   1.011   1.121   6.690
  100SOL    HW1  299   0.912   1.127   6.700
  100SOL    HW2  300   1.034   1.041   6.634
  101SOL     OW  301   0.736   1.055   5.339
  101SOL    HW1  302   0.722   1.062   5.438
  101SOL    HW2  303   0.820   1.004   5.321
  102SOL     OW  304   0.441   0.818   6.222
  102SOL    HW1  305   0.527   0.830   6.272
  102SOL    HW2  306   0.399   0.731   6.249
  103SOL     OW  307   1.305   0.391   6.233
  103SOL    HW1  308   1.326   0.465   6.297
  103SOL    HW2  309   1.216   0.408   6.190
  104SOL     OW  310   0.095   1.569   6.302
  104SOL    HW1  311   0.049   1.651   6.268
  104SOL    HW2  312   0.193   1.588   6.311
  105SOL     OW  313   0.398   1.105   5.472
  105SOL    HW1  314   0.391   1.188   5.416
  105SOL    HW2  315   0.402   1.025   5.412
  106SOL     OW  316   0.597   0.542   5.836
  106SOL    HW1  317   0.609   0.608   5.762
  106SOL    HW2  318   0.643   0.576   5.919
  107SOL     OW  319   1.283   1.353   5.359
  107SOL    HW1  320   1.333   1.430   5.399
  107SOL    HW2  321   1.188   1.355   5.391
  108SOL     OW  322   1.303   1.450   6.113
  108SOL    HW1  323   1.350   1.463   6.200
  108SOL    HW2  324   1.237   1.376   6.122
  109SOL     OW  325   1.613   0.644   5.443
  109SOL    HW1  326   1.582   0.705   5.516
  109SOL    HW2  327   1.663   0.696   5.374
  110SOL     OW  328   0.385   1.515   6.300
  110SOL    HW1  329   0.364   1.471   6.213
  110SOL    HW2  330   0.482   1.541   6.303
  111SOL     OW  331   0.433   0.756   6.569
  111SOL    HW1  332   0.501   0.811   6.522
  111SOL    HW2  333   0.473   0.668   6.596
  112SOL     OW  334   1.618   0.784   6.641
  112SOL    HW1  335   1.526   0.822   6.636
  112SOL    HW2  336   1.678   0.831   6.576
  113SOL     OW  337   1.044   0.110   6.741
  113SOL    HW1  338   1.050   0.195   6.689
  113SOL    HW2  339   1.076   0.034   6.684
  114SOL     OW  340   0.535   0.055   6.711
  114SOL    HW1  341   0.493  -0.002   6.641
  114SOL    HW2  342   0.469   0.124   6.743
  115SOL     OW  343   0.604   0.875   6.000
  115SOL    HW1  344   0.648   0.964   5.991
  115SOL    HW2  345   0.541   0.875   6.077
  116SOL     OW  346   1.391   0.867   6.016
  116SOL    HW1  347   1.316   0.867   5.950
  116SOL    HW2  348   1.428   0.775   6.025
  117SOL     OW  349   1.240   0.530   5.246
  117SOL    HW1  350   1.253   0.446   5.300
  117SOL    HW2  351   1.211   0.604   5.306
  118SOL     OW  352   0.338   0.218   6.202
  118SOL    HW1  353   0.315   0.255   6.292
  118SOL    HW2  354   0.308   0.123   6.196
  119SOL     OW  355   0.068   1.315   6.253
  119SOL    HW1  356   0.121   1.266   6.321
  119SOL    HW2  357   0.090   1.413   6.258
  120SOL     OW  358   0.763   0.639   6.035
  120SOL    HW1  359   0.822   0.613   5.959
  120SOL    HW2  360   0.735   0.735   6.024
  121SOL     OW  361   1.759   0.940   6.825
  121SOL    HW1  362   1.713   0.933   6.736
  121SOL    HW2  363   1.697   0.984   6.891
  122SOL     OW  364   0.338   0.068   5.589
  122SOL    HW1  365   0.327   0.162   5.622
  122SOL    HW2  366   0.333   0.005   5.666
  123SOL     OW  367   1.653   0.372   5.345
  123SOL    HW1  368   1.655   0.296   5.409
  123SOL    HW2  369   1.605   0.449   5.385
  124SOL     OW  370   1.054   0.771   5.937
  124SOL    HW1  371   1.069   0.792   6.033
  124SOL    HW2  372   1.024   0.676   5.928
  125SOL     OW  373   1.011   1.578   6.671
  125SOL    HW1  374   0.991   1.622   6.583
  125SOL    HW2  375   1.050   1.487   6.655
  126SOL     OW  376   1.890   1.523   6.576
  126SOL    HW1  377   1.904   1.550   6.481
  126SOL    HW2  378   1.973   1.545   6.629
  127SOL     OW  379   0.381   0.903   6.775
  127SOL    HW1  380   0.457   0.947   6.823
  127SOL    HW2  381   0.416   0.856   6.693
  128SOL     OW  382   1.571   0.279   5.096
  128SOL    HW1  383   1.510   0.204   5.119
  128SOL    HW2  384   1.593   0.331   5.179
  129SOL     OW  385   1.334   0.843   5.013
  129SOL    HW1  386   1.368   0.750   5.028
  129SOL    HW2  387   1.352   0.870   4.918
  130SOL     OW  388   1.099   1.338   5.820
  130SOL    HW1  389   1.106   1.254   5.765
  130SOL    HW2  390   1.161   1.407   5.784
  131SOL     OW  391   0.350   0.815   5.920
  131SOL    HW1  392   0.443   0.851   5.925
  131SOL    HW2  393   0.344   0.730   5.972
  132SOL     OW  394   0.370   0.514   5.977
  132SOL    HW1  395   0.318   0.431   5.960
  132SOL    HW2  396   0.447   0.519   5.913
  133SOL     OW  397   1.169   0.385   6.649
  133SOL    HW1  398   1.124   0.448   6.713
  133SOL    HW2  399   1.262   0.416   6.632
  134SOL     OW  400   1.191   0.212   6.448
  134SOL    HW1  401   1.191   0.276   6.525
  134SOL    HW2  402   1.219   0.260   6.365
  135SOL     OW  403   0.039   1.331   5.171
  135SOL    HW1  404  -0.054   1.352   5.140
  135SOL    HW2  405   0.049   1.232   5.184
  136SOL     OW  406   0.119   1.806   5.898
  136SOL    HW1  407   0.077   1.720   5.871
  136SOL    HW2  408   0.213   1.809   5.864
  137SOL     OW  409   0.535   1.573   5.881
  137SOL    HW1  410   0.601   1.647   5.890
  137SOL    HW2  411   0.579   1.494   5.839
  138SOL     OW  412   1.033   0.801   6.209
  138SOL    HW1  413   1.074   0.769   6.295
  138SOL    HW2  414   0.937   0.774   6.206
  139SOL     OW  415   0.071   0.549   6.085
  139SOL    HW1  416   0.156   0.516   6.044
  139SOL    HW2  417   0.084   0.564   6.183
  140SOL     OW  418   0.220   0.525   6.693
  140SOL    HW1  419   0.279   0.485   6.623
  140SOL    HW2  420   0.162   0.596   6.652
  141SOL     OW  421   1.400   0.955   6.631
  141SOL    HW1  422   1.439   1.044   6.651
  141SOL    HW2  423   1.410   0.935   6.534
  142SOL     OW  424   0.846   0.577   5.296
  142SOL    HW1  425   0.853   0.488   5.250
  142SOL    HW2  426   0.752   0.611   5.288
  143SOL     OW  427   1.688   0.609   6.177
  143SOL    HW1  428   1.650   0.540   6.239
  143SOL    HW2  429   1.770   0.573   6.133
  144SOL     OW  430   0.283   1.569   6.715
  144SOL    HW1  431   0.253   1.626   6.791
  144SOL    HW2  432   0.276   1.472   6.741
  145SOL     OW  433   0.702   0.469   6.240
  145SOL    HW1  434   0.668   0.380   6.210
  145SOL    HW2  435   0.728   0.523   6.160
  146SOL     OW  436   0.961   1.683   6.436
  146SOL    HW1  437   0.937   1.665   6.341
  146SOL    HW2  438   0.991   1.777   6.446
  147SOL     OW  439   0.504   0.505   5.162
  147SOL    HW1  440   0.565   0.585   5.166
  147SOL    HW2  441   0.409   0.536   5.169
  148SOL     OW  442   0.190   1.142   6.437
  148SOL    HW1  443   0.212   1.081   6.513
  148SOL    HW2  444   0.200   1.093   6.351
  149SOL     OW  445   1.378   1.064   6.205
  149SOL    HW1  446   1.402   1.001   6.131
  149SOL    HW2  447   1.288   1.104   6.187
  150SOL     OW  448   1.333   0.860   5.280
  150SOL    HW1  449   1.247   0.829   5.322
  150SOL    HW2  450   1.329   0.846   5.181
  151SOL     OW  451   1.790   1.752   6.125
  151SOL    HW1  452   1.851   1.782   6.052
  151SOL    HW2  453   1.752   1.663   6.103
  152SOL     OW  454   1.283   1.736   6.099
  152SOL    HW1  455   1.367   1.741   6.045
  152SOL    HW2  456   1.260   1.640   6.117
  153SOL     OW  457   0.114   1.263   5.993
  153SOL    HW1  458   0.109   1.262   6.093
  153SOL    HW2  459   0.031   1.222   5.955
  154SOL     OW  460   0.719   1.667   6.687
  154SOL    HW1  461   0.663   1.748   6.696
  154SOL    HW2  462   0.771   1.671   6.601
  155SOL     OW  463   0.934   0.091   5.104
  155SOL    HW1  464   0.985   0.092   5.018
  155SOL    HW2  465   0.990   0.049   5.175
  156SOL     OW  466   1.757   0.140   5.494
  156SOL    HW1  467   1.830   0.123   5.427
  156SOL    HW2  468   1.726   0.053   5.532
  157SOL     OW  469   1.419   1.578   5.448
  157SOL    HW1  470   1.486   1.590   5.374
  157SOL    HW2  471   1.379   1.667   5.471
  158SOL     OW  472   0.161   1.799   6.822
  158SOL    HW1  473   0.120   1.725   6.875
  158SOL    HW2  474   0.225   1.850   6.880
  159SOL     OW  475   1.311   0.932   5.643
  159SOL    HW1  476   1.371   0.851   5.645
  159SOL    HW2  477   1.351   1.001   5.583
  160SOL     OW  478   0.861   1.278   6.393
  160SOL    HW1  479   0.856   1.311   6.488
  160SOL    HW2  480   0.775   1.297   6.347
  161SOL     OW  481   0.703   1.621   5.125
  161SOL    HW1  482   0.712   1.631   5.026
  161SOL    HW2  483   0.663   1.532   5.146
  162SOL     OW  484   1.681   1.725   6.365
  162SOL    HW1  485   1.734   1.735   6.281
  162SOL    HW2  486   1.654   1.815   6.399
  163SOL     OW  487   1.872   0.180   5.934
  163SOL    HW1  488   1.911   0.095   5.898
  163SOL    HW2  489   1.774   0.182   5.915
  164SOL     OW  490   0.294   0.331   5.691
  164SOL    HW1  491   0.215   0.382   5.657
  164SOL    HW2  492   0.285   0.316   5.789
  165SOL     OW  493   1.225   1.617   5.002
  165SOL    HW1  494   1.231   1.524   5.039
  165SOL    HW2  495   1.166   1.617   4.922
  166SOL     OW  496   0.853   1.007   6.343
  166SOL    HW1  497   0.893   1.006   6.251
  166SOL    HW2  498   0.863   1.099   6.383
  167SOL     OW  499   0.947   0.915   5.262
  167SOL    HW1  500   1.010   0.953   5.194
  167SOL    HW2  501   0.987   0.832   5.301
  168SOL     OW  502   1.535   1.612   5.015
  168SOL    HW1  503   1.443   1.649   5.022
  168SOL    HW2  504   1.573   1.632   4.925
  169SOL     OW  505   0.403   1.293   6.461
  169SOL    HW1  506   0.390   1.386   6.427
  169SOL    HW2  507   0.319   1.241   6.448
  170SOL     OW  508   1.645   1.297   6.260
  170SOL    HW1  509   1.705   1.300   6.340
  170SOL    HW2  510   1.570   1.361   6.273
  171SOL     OW  511   1.070   1.103   5.667
  171SOL    HW1  512   1.000   1.056   5.721
  171SOL    HW2  513   1.129   1.035   5.624
  172SOL     OW  514   1.045   0.241   5.942
  172SOL    HW1  515   1.037   0.205   5.849
  172SOL    HW2  516   1.043   0.165   6.007
  173SOL     OW  517   0.621   1.492   5.462
  173SOL    HW1  518   0.663   1.434   5.392
  173SOL    HW2  519   0.577   1.571   5.418
  174SOL     OW  520   1.740   0.390   6.352
  174SOL    HW1  521   1.813   0.459   6.356
  174SOL    HW2  522   1.768   0.315   6.293
  175SOL     OW  523   0.286   1.353   5.261
  175SOL    HW1  524   0.190   1.354   5.234
  175SOL    HW2  525   0.298   1.406   5.345
  176SOL     OW  526   0.136   1.018   6.697
  176SOL    HW1  527   0.059   0.985   6.751
  176SOL    HW2  528   0.221   0.988   6.739
  177SOL     OW  529   0.703   0.208   6.460
  177SOL    HW1  530   0.793   0.192   6.420
  177SOL    HW2  531   0.711   0.213   6.559
  178SOL     OW  532   0.106   0.350   5.004
  178SOL    HW1  533   0.014   0.322   4.975
  178SOL    HW2  534   0.137   0.427   4.948
  179SOL     OW  535   1.471   0.861   6.369
  179SOL    HW1  536   1.414   0.913   6.306
  179SOL    HW2  537   1.567   0.873   6.345
  180SOL     OW  538   0.103   0.171   5.289
  180SOL    HW1  539   0.086   0.254   5.235
  180SOL    HW2  540   0.193   0.134   5.267
  181SOL     OW  541   1.214   1.340   5.090
  181SOL    HW1  542   1.115   1.329   5.092
  181SOL    HW2  543   1.248   1.355   5.183
  182SOL     OW  544   0.644   0.847   6.402
  182SOL    HW1  545   0.700   0.928   6.385
  182SOL    HW2  546   0.703   0.767   6.405
  183SOL     OW  547   1.524   1.772   5.930
  183SOL    HW1  548   1.557   1.836   5.861
  183SOL    HW2  549   1.590   1.766   6.005
  184SOL     OW  550   0.747   0.570   6.679
  184SOL    HW1  551   0.766   0.635   6.753
  184SOL    HW2  552   0.807   0.490   6.688
  185SOL     OW  553   1.481   1.225   6.604
  185SOL    HW1  554   1.472   1.215   6.703
  185SOL    HW2  555   1.577   1.218   6.578
  186SOL     OW  556   0.421   1.746   6.531
  186SOL    HW1  557   0.330   1.787   6.529
  186SOL    HW2  558   0.414   1.652   6.563
  187SOL     OW  559   1.705   0.888   6.225
  187SOL    HW1  560   1.678   0.799   6.188
  187SOL    HW2  561   1.706   0.956   6.152
  188SOL     OW  562   1.256   0.330   5.420
  188SOL    HW1  563   1.321   0.256   5.409
  188SOL    HW2  564   1.276   0.380   5.504
  189SOL     OW  565   0.625   0.750   5.623
  189SOL    HW1  566   0.675   0.835   5.604
  189SOL    HW2  567   0.537   0.752   5.575
  190SOL     OW  568   1.808   0.347   6.613
  190SOL    HW1  569   1.791   0.378   6.519
  190SOL    HW2  570   1.724   0.310   6.651
  191SOL     OW  571   1.761   0.939   6.488
  191SOL    HW1  572   1.799   1.030   6.503
  191SOL    HW2  573   1.753   0.922   6.389
  192SOL     OW  574   0.890   1.379   4.987
  192SOL    HW1  575   0.844   1.394   5.075
  192SOL    HW2  576   0.934   1.464   4.957
  193SOL     OW  577   0.692   1.795   5.924
  193SOL    HW1  578   0.646   1.883   5.911
  193SOL    HW2  579   0.791   1.807   5.917
  194SOL     OW  580   0.890   0.961   5.832
  194SOL    HW1  581   0.944   0.892   5.880
  194SOL    HW2  582   0.858   1.030   5.898
  195SOL     OW  583   1.114   0.989   5.058
  195SOL    HW1  584   1.091   1.042   4.976
  195SOL    HW2  585   1.195   0.933   5.039
  196SOL     OW  586   1.892   1.574   5.822
  196SOL    HW1  587   1.821   1.562   5.752
  196SOL    HW2  588   1.893   1.495   5.882
  197SOL     OW  589   0.252   1.319   6.815
  197SOL    HW1  590   0.187   1.246   6.794
  197SOL    HW2  591   0.256   1.333   6.913
  198SOL     OW  592   0.110   1.245   5.624
  198SOL    HW1  593   0.109   1.198   5.712
  198SOL    HW2  594   0.192   1.217   5.573
  199SOL     OW  595   0.703   1.396   6.595
  199SOL    HW1  596   0.625   1.346   6.633
  199SOL    HW2  597   0.700   1.491   6.626
  200SOL     OW  598   1.855   0.197   6.198
  200SOL    HW1  599   1.851   0.107   6.242
  200SOL    HW2  600   1.858   0.186   6.099
  201SOL     OW  601   0.459   0.429   5.491
  201SOL    HW1  602   0.489   0.357   5.429
  201SOL    HW2  603   0.420   0.389   5.574
  202SOL     OW  604   1.736   1.492   6.075
  202SOL    HW1  605   1.643   1.467   6.048
  202SOL    HW2  606   1.762   1.442   6.157
  203SOL     OW  607   0.348   0.552   6.251
  203SOL    HW1  608   0.386   0.493   6.323
  203SOL    HW2  609   0.388   0.526   6.163
  204SOL     OW  610   0.843   1.591   5.658
  204SOL    HW1  611   0.875   1.601   5.564
  204SOL    HW2  612   0.764   1.529   5.660
  205SOL     OW  613   1.455   0.219   6.083
  205SOL    HW1  614   1.507   0.154   6.138
  205SOL    HW2  615   1.406   0.282   6.144
  206SOL     OW  616   1.032   0.039   6.125
  206SOL    HW1  617   0.969  -0.033   6.094
  206SOL    HW2  618   1.125   0.003   6.125
  207SOL     OW  619   0.801   1.335   5.272
  207SOL    HW1  620   0.755   1.248   5.289
  207SOL    HW2  621   0.892   1.332   5.313
  208SOL     OW  622   0.649   1.572   6.255
  208SOL    HW1  623   0.644   1.654   6.312
  208SOL    HW2  624   0.738   1.569   6.210
  209SOL     OW  625   1.383   0.057   5.139
  209SOL    HW1  626   1.418   0.016   5.055
  209SOL    HW2  627   1.293   0.019   5.159
  210SOL     OW  628   1.331   0.458   5.662
  210SOL    HW1  629   1.272   0.538   5.666
  210SOL    HW2  630   1.346   0.423   5.755
  211SOL     OW  631   1.624   0.226   5.853
  211SOL    HW1  632   1.540   0.225   5.907
  211SOL    HW2  633   1.626   0.309   5.797
  212SOL     OW  634   0.070   1.082   5.271
  212SOL    HW1  635   0.169   1.071   5.262
  212SOL    HW2  636   0.030   0.996   5.303
  213SOL     OW  637   0.906   1.651   5.308
  213SOL    HW1  638   0.829   1.616   5.254
  213SOL    HW2  639   0.874   1.722   5.370
  214SOL     OW  640   0.261   0.633   6.946
  214SOL    HW1  641   0.168   0.631   6.983
  214SOL    HW2  642   0.262   0.594   6.854
  215SOL     OW  643   0.256   0.280   7.829
  215SOL    HW1  644   0.291   0.263   7.921
  215SOL    HW2  645   0.168   0.235   7.817
  216SOL     OW  646   0.050   0.373   7.480
  216SOL    HW1  647  -0.032   0.416   7.519
  216SOL    HW2  648   0.022   0.300   7.417
  217SOL     OW  649   0.600   1.280   7.998
  217SOL    HW1  650   0.507   1.273   7.961
  217SOL    HW2  651   0.611   1.369   8.042
  218SOL     OW  652   1.586   1.516   7.536
  218SOL    HW1  653   1.529   1.500   7.617
  218SOL    HW2  654   1.527   1.526   7.456
  219SOL     OW  655   1.166   0.708   7.550
  219SOL    HW1  656   1.223   0.786   7.525
  219SOL    HW2  657   1.106   0.734   7.626
  220SOL     OW  658   1.786   0.612   7.064
  220SOL    HW1  659   1.774   0.599   6.965
  220SOL    HW2  660   1.756   0.531   7.113
  221SOL     OW  661   0.799   1.149   7.856
  221SOL    HW1  662   0.721   1.166   7.916
  221SOL    HW2  663   0.833   1.236   7.820
  222SOL     OW  664   0.881   0.803   8.656
  222SOL    HW1  665   0.877   0.879   8.721
  222SOL    HW2  666   0.903   0.839   8.565
  223SOL     OW  667   0.716   1.017   7.498
  223SOL    HW1  668   0.785   1.001   7.568
  223SOL    HW2  669   0.643   1.074   7.536
  224SOL     OW  670   0.717   1.166   8.636
  224SOL    HW1  671   0.777   1.245   8.650
  224SOL    HW2  672   0.631   1.197   8.595
  225SOL     OW  673   0.366   1.440   7.894
  225SOL    HW1  674   0.288   1.409   7.841
  225SOL    HW2  675   0.424   1.498   7.837
  226SOL     OW  676   1.491   1.510   8.172
  226SOL    HW1  677   1.515   1.604   8.198
  226SOL    HW2  678   1.475   1.456   8.254
  227SOL     OW  679   0.469   0.397   8.332
  227SOL    HW1  680   0.551   0.341   8.341
  227SOL    HW2  681   0.388   0.339   8.336
  228SOL     OW  682   1.634   0.452   7.570
  228SOL    HW1  683   1.560   0.498   7.520
  228SOL    HW2  684   1.685   0.520   7.623
  229SOL     OW  685   0.262   1.718   7.316
  229SOL    HW1  686   0.296   1.795   7.370
  229SOL    HW2  687   0.306   1.718   7.226
  230SOL     OW  688   1.158   1.346   8.523
  230SOL    HW1  689   1.205   1.346   8.611
  230SOL    HW2  690   1.110   1.259   8.512
  231SOL     OW  691   0.261   1.439   7.371
  231SOL    HW1  692   0.235   1.535   7.371
  231SOL    HW2  693   0.190   1.385   7.416
  232SOL     OW  694   0.271   1.096   7.719
  232SOL    HW1  695   0.285   1.012   7.771
  232SOL    HW2  696   0.216   1.160   7.774
  233SOL     OW  697   0.651   1.791   8.272
  233SOL    HW1  698   0.559   1.774   8.307
  233SOL    HW2  699   0.679   1.883   8.298
  234SOL     OW  700   0.637   0.969   6.956
  234SOL    HW1  701   0.644   1.053   6.902
  234SOL    HW2  702   0.683   0.982   7.044
  235SOL     OW  703   1.625   0.119   8.313
  235SOL    HW1  704   1.607   0.186   8.241
  235SOL    HW2  705   1.622   0.165   8.402
  236SOL     OW  706   0.153   0.648   7.396
  236SOL    HW1  707   0.108   0.560   7.413
  236SOL    HW2  708   0.152   0.702   7.480
  237SOL     OW  709   1.873   1.772   7.192
  237SOL    HW1  710   1.927   1.743   7.272
  237SOL    HW2  711   1.903   1.862   7.163
  238SOL     OW  712   0.058   1.601   6.950
  238SOL    HW1  713   0.039   1.505   6.971
  238SOL    HW2  714   0.025   1.659   7.025
  239SOL     OW  715   1.720   0.927   7.445
  239SOL    HW1  716   1.815   0.898   7.453
  239SOL    HW2  717   1.712   0.992   7.370
  240SOL     OW  718   1.672   1.113   7.265
  240SOL    HW1  719   1.758   1.115   7.213
  240SOL    HW2  720   1.686   1.160   7.353
  241SOL     OW  721   0.144   0.742   8.430
  241SOL    HW1  722   0.232   0.729   8.475
  241SOL    HW2  723   0.131   0.839   8.408
  242SOL     OW  724   0.644   1.370   7.559
  242SOL    HW1  725   0.595   1.283   7.568
  242SOL    HW2  726   0.621   1.413   7.472
  243SOL     OW  727   1.324   1.233   8.256
  243SOL    HW1  728   1.361   1.160   8.198
  243SOL    HW2  729   1.376   1.238   8.341
  244SOL     OW  730   0.840   0.009   7.335
  244SOL    HW1  731   0.880   0.100   7.326
  244SOL    HW2  732   0.740   0.017   7.341
  245SOL     OW  733   0.228   0.981   8.097
  245SOL    HW1  734   0.317   0.936   8.083
  245SOL    HW2  735   0.155   0.916   8.078
  246SOL     OW  736   1.556   1.004   7.023
  246SOL    HW1  737   1.493   0.928   7.036
  246SOL    HW2  738   1.604   1.022   7.109
  247SOL     OW  739   1.218   1.797   8.449
  247SOL    HW1  740   1.242   1.857   8.373
  247SOL    HW2  741   1.225   1.702   8.419
  248SOL     OW  742   0.348   0.256   8.634
  248SOL    HW1  743   0.419   0.327   8.640
  248SOL    HW2  744   0.260   0.295   8.662
  249SOL     OW  745   1.497   1.422   7.786
  249SOL    HW1  746   1.438   1.428   7.866
  249SOL    HW2  747   1.482   1.334   7.740
  250SOL     OW  748   1.698   1.719   7.405
  250SOL    HW1  749   1.657   1.696   7.317
  250SOL    HW2  750   1.680   1.645   7.470
  251SOL     OW  751   0.629   0.734   7.103
  251SOL    HW1  752   0.653   0.803   7.035
  251SOL    HW2  753   0.551   0.767   7.157
  252SOL     OW  754   1.312   0.350   7.777
  252SOL    HW1  755   1.226   0.300   7.764
  252SOL    HW2  756   1.374   0.296   7.833
  253SOL     OW  757   1.607   1.667   7.140
  253SOL    HW1  758   1.696   1.713   7.143
  253SOL    HW2  759   1.586   1.643   7.045
  254SOL     OW  760   0.838   0.610   8.298
  254SOL    HW1  761   0.791   0.607   8.387
  254SOL    HW2  762   0.787   0.555   8.232
  255SOL     OW  763   1.425   0.474   8.507
  255SOL    HW1  764   1.405   0.517   8.595
  255SOL    HW2  765   1.503   0.412   8.516
  256SOL     OW  766   1.004   0.895   8.405
  256SOL    HW1  767   1.050   0.811   8.376
  256SOL    HW2  768   0.948   0.929   8.330
  257SOL     OW  769   1.022   0.415   8.075
  257SOL    HW1  770   0.945   0.449   8.129
  257SOL    HW2  771   0.988   0.364   7.996
  258SOL     OW  772   1.072   0.706   7.262
  258SOL    HW1  773   1.098   0.702   7.358
  258SOL    HW2  774   0.987   0.655   7.248
  259SOL     OW  775   0.107   0.816   7.622
  259SOL    HW1  776   0.206   0.804   7.631
  259SOL    HW2  777   0.083   0.911   7.643
  260SOL     OW  778   0.161   1.826   8.404
  260SOL    HW1  779   0.151   1.811   8.503
  260SOL    HW2  780   0.075   1.862   8.368
  261SOL     OW  781   0.896   0.353   7.028
  261SOL    HW1  782   0.955   0.416   6.979
  261SOL    HW2  783   0.915   0.259   6.999
  262SOL     OW  784   1.750   0.590   8.664
  262SOL    HW1  785   1.724   0.679   8.628
  262SOL    HW2  786   1.748   0.522   8.591
  263SOL     OW  787   1.393   1.149   7.378
  263SOL    HW1  788   1.476   1.120   7.330
  263SOL    HW2  789   1.344   1.216   7.322
  264SOL     OW  790   0.581   0.201   7.718
  264SOL    HW1  791   0.576   0.196   7.818
  264SOL    HW2  792   0.583   0.297   7.689
  265SOL     OW  793   1.039   1.461   7.310
  265SOL    HW1  794   0.993   1.533   7.258
  265SOL    HW2  795   1.035   1.481   7.408
  266SOL     OW  796   0.382   1.806   7.686
  266SOL    HW1  797   0.432   1.720   7.692
  266SOL    HW2  798   0.447   1.883   7.683
  267SOL     OW  799   1.826   1.071   7.706
  267SOL    HW1  800   1.764   1.056   7.630
  267SOL    HW2  801   1.774   1.082   7.791
  268SOL     OW  802   1.258   1.555   8.339
  268SOL    HW1  803   1.264   1.478   8.403
  268SOL    HW2  804   1.206   1.529   8.259
  269SOL     OW  805   0.352   0.948   7.075
  269SOL    HW1  806   0.434   0.987   7.033
  269SOL    HW2  807   0.325   0.866   7.026
  270SOL     OW  808   1.489   0.740   7.561
  270SOL    HW1  809   1.484   0.675   7.636
  270SOL    HW2  810   1.569   0.799   7.574
  271SOL     OW  811   0.492   1.271   8.560
  271SOL    HW1  812   0.442   1.272   8.474
  271SOL    HW2  813   0.429   1.253   8.636
  272SOL     OW  814   1.142   1.781   7.070
  272SOL    HW1  815   1.082   1.719   7.120
  272SOL    HW2  816   1.173   1.737   6.985
  273SOL     OW  817   0.233   0.290   8.331
  273SOL    HW1  818   0.153   0.350   8.318
  273SOL    HW2  819   0.223   0.241   8.417
  274SOL     OW  820   1.663   1.382   6.914
  274SOL    HW1  821   1.631   1.476   6.904
  274SOL    HW2  822   1.587   1.319   6.902
  275SOL     OW  823   0.495   1.748   7.156
  275SOL    HW1  824   0.528   1.787   7.242
  275SOL    HW2  825   0.571   1.741   7.091
  276SOL     OW  826   1.431   0.112   7.259
  276SOL    HW1  827   1.407   0.075   7.169
  276SOL    HW2  828   1.530   0.128   7.263
  277SOL     OW  829   0.280   1.790   8.074
  277SOL    HW1  830   0.337   1.725   8.124
  277SOL    HW2  831   0.264   1.757   7.981
  278SOL     OW  832   0.971   1.703   7.737
  278SOL    HW1  833   1.051   1.646   7.758
  278SOL    HW2  834   0.922   1.663   7.660
  279SOL     OW  835   0.413   0.705   7.313
  279SOL    HW1  836   0.458   0.615   7.310
  279SOL    HW2  837   0.319   0.694   7.346
  280SOL     OW  838   1.578   0.227   8.562
  280SOL    HW1  839   1.573   0.264   8.654
  280SOL    HW2  840   1.506   0.158   8.550
  281SOL     OW  841   0.645   0.127   6.950
  281SOL    HW1  842   0.743   0.105   6.957
  281SOL    HW2  843   0.614   0.110   6.857
  282SOL     OW  844   0.812   0.269   8.582
  282SOL    HW1  845   0.879   0.208   8.625
  282SOL    HW2  846   0.739   0.288   8.647
  283SOL     OW  847   0.919   1.519   8.028
  283SOL    HW1  848   0.896   1.494   7.934
  283SOL    HW2  849   0.980   1.450   8.067
  284SOL     OW  850   1.382   0.595   8.266
  284SOL    HW1  851   1.410   0.552   8.351
  284SOL    HW2  852   1.407   0.691   8.267
  285SOL     OW  853   0.834   1.407   7.757
  285SOL    HW1  854   0.924   1.421   7.715
  285SOL    HW2  855   0.763   1.409   7.686
  286SOL     OW  856   0.953   0.508   7.732
  286SOL    HW1  857   0.928   0.499   7.636
  286SOL    HW2  858   1.001   0.426   7.763
  287SOL     OW  859   0.570   0.069   7.345
  287SOL    HW1  860   0.489   0.070   7.403
  287SOL    HW2  861   0.573   0.152   7.290
  288SOL     OW  862   1.465   1.193   6.874
  288SOL    HW1  863   1.497   1.117   6.931
  288SOL    HW2  864   1.373   1.220   6.904
  289SOL     OW  865   0.328   0.040   7.004
  289SOL    HW1  866   0.377   0.124   6.983
  289SOL    HW2  867   0.390  -0.025   7.049
  290SOL     OW  868   0.966   0.241   7.313
  290SOL    HW1  869   0.918   0.282   7.235
  290SOL    HW2  870   1.065   0.239   7.294
  291SOL     OW  871   1.107   0.688   8.297
  291SOL    HW1  872   1.027   0.627   8.300
  291SOL    HW2  873   1.188   0.635   8.273
  292SOL     OW  874   1.258   1.575   7.626
  292SOL    HW1  875   1.279   1.649   7.561
  292SOL    HW2  876   1.326   1.575   7.699
  293SOL     OW  877   0.490   1.157   7.574
  293SOL    HW1  878   0.419   1.130   7.639
  293SOL    HW2  879   0.464   1.129   7.481
  294SOL     OW  880   1.302   1.802   7.424
  294SOL    HW1  881   1.346   1.866   7.360
  294SOL    HW2  882   1.252   1.854   7.494
  295SOL     OW  883   1.063   0.554   6.849
  295SOL    HW1  884   1.022   0.636   6.810
  295SOL    HW2  885   1.127   0.580   6.922
  296SOL     OW  886   0.109   0.561   8.219
  296SOL    HW1  887   0.201   0.560   8.178
  296SOL    HW2  888   0.103   0.635   8.286
  297SOL     OW  889   0.592   0.227   7.980
  297SOL    HW1  890   0.630   0.143   8.017
  297SOL    HW2  891   0.504   0.246   8.024
  298SOL     OW  892   0.897   0.459   7.475
  298SOL    HW1  893   0.865   0.531   7.413
  298SOL    HW2  894   0.921   0.378   7.422
  299SOL     OW  895   1.048   0.044   7.586
  299SOL    HW1  896   0.976   0.049   7.517
  299SOL    HW2  897   1.024  -0.025   7.655
  300SOL     OW  898   1.460   1.178   7.700
  300SOL    HW1  899   1.405   1.094   7.693
  300SOL    HW2  900   1.486   1.207   7.608
  301SOL     OW  901   1.497   0.595   7.825
  301SOL    HW1  902   1.467   0.500   7.832
  301SOL    HW2  903   1.570   0.611   7.891
  302SOL     OW  904   1.888   0.838   7.210
  302SOL    HW1  905   1.930   0.774   7.274
  302SOL    HW2  906   1.850   0.787   7.132
  303SOL     OW  907   0.519   1.390   7.007
  303SOL    HW1  908   0.432   1.375   7.054
  303SOL    HW2  909   0.502   1.416   6.912
  304SOL     OW  910   1.695   1.285   7.490
  304SOL    HW1  911   1.794   1.293   7.504
  304SOL    HW2  912   1.650   1.369   7.521
  305SOL     OW  913   1.421   0.580   6.911
  305SOL    HW1  914   1.367   0.559   6.992
  305SOL    HW2  915   1.512   0.539   6.920
  306SOL     OW  916   0.558   0.261   7.161
  306SOL    HW1  917   0.585   0.202   7.086
  306SOL    HW2  918   0.558   0.356   7.130
  307SOL     OW  919   1.785   1.228   8.421
  307SOL    HW1  920   1.876   1.189   8.408
  307SOL    HW2  921   1.793   1.324   8.445
  308SOL     OW  922   1.095   1.352   8.173
  308SOL    HW1  923   1.015   1.329   8.228
  308SOL    HW2  924   1.178   1.326   8.222
  309SOL     OW  925   1.623   1.634   8.458
  309SOL    HW1  926   1.650   1.668   8.368
  309SOL    HW2  927   1.702   1.596   8.504
  310SOL     OW  928   1.142   1.200   7.933
  310SOL    HW1  929   1.102   1.244   8.014
  310SOL    HW2  930   1.101   1.237   7.850
  311SOL     OW  931   1.669   1.104   7.912
  311SOL    HW1  932   1.674   1.185   7.971
  311SOL    HW2  933   1.583   1.106   7.861
  312SOL     OW  934   0.946   0.094   8.235
  312SOL    HW1  935   0.971   0.074   8.140
  312SOL    HW2  936   1.018   0.150   8.277
  313SOL     OW  937   1.011   1.121   8.552
  313SOL    HW1  938   0.912   1.127   8.562
  313SOL    HW2  939   1.034   1.041   8.496
  314SOL     OW  940   0.736   1.055   7.201
  314SOL    HW1  941   0.722   1.062   7.300
  314SOL    HW2  942   0.820   1.004   7.183
  315SOL     OW  943   0.441   0.818   8.084
  315SOL    HW1  944   0.527   0.830   8.134
  315SOL    HW2  945   0.399   0.731   8.111
  316SOL     OW  946   1.305   0.391   8.095
  316SOL    HW1  947   1.326   0.465   8.159
  316SOL    HW2  948   1.216   0.408   8.052
  317SOL     OW  949   0.095   1.569   8.164
  317SOL    HW1  950   0.049   1.651   8.130
  317SOL    HW2  951   0.193   1.588   8.173
  318SOL     OW  952   0.398   1.105   7.334
  318SOL    HW1  953   0.391   1.188   7.278
  318SOL    HW2  954   0.402   1.025   7.274
  319SOL     OW  955   0.597   0.542   7.698
  319SOL    HW1  956   0.609   0.608   7.624
  319SOL    HW2  957   0.643   0.576   7.781
  320SOL     OW  958   1.283   1.353   7.221
  320SOL    HW1  959   1.333   1.430   7.261
  320SOL    HW2  960   1.188   1.355   7.253
  321SOL     OW  961   1.303   1.450   7.975
  321SOL    HW1  962   1.350   1.463   8.062
  321SOL    HW2  963   1.237   1.376   7.984
  322SOL     OW  964   1.613   0.644   7.305
  322SOL    HW1  965   1.582   0.705   7.378
  322SOL    HW2  966   1.663   0.696   7.236
  323SOL     OW  967   0.385   1.515   8.162
  323SOL    HW1  968   0.364   1.471   8.075
  323SOL    HW2  969   0.482   1.541   8.165
  324SOL     OW  970   0.433   0.756   8.431
  324SOL    HW1  971   0.501   0.811   8.384
  324SOL    HW2  972   0.473   0.668   8.458
  325SOL     OW  973   1.618   0.784   8.503
  325SOL    HW1  974   1.526   0.822   8.498
  325SOL    HW2  975   1.678   0.831   8.438
  326SOL     OW  976   1.044   0.110   8.603
  326SOL    HW1  977   1.050   0.195   8.551
  326SOL    HW2  978   1.076   0.034   8.546
  327SOL     OW  979   0.535   0.055   8.573
  327SOL    HW1  980   0.493  -0.002   8.503
  327SOL    HW2  981   0.469   0.124   8.605
  328SOL     OW  982   0.604   0.875   7.862
  328SOL    HW1  983   0.648   0.964   7.853
  328SOL    HW2  984   0.541   0.875   7.939
  329SOL     OW  985   1.391   0.867   7.878
  329SOL    HW1  986   1.316   0.867   7.812
  329SOL    HW2  987   1.428   0.775   7.887
  330SOL     OW  988   1.240   0.530   7.108
  330SOL    HW1  989   1.253   0.446   7.162
  330SOL    HW2  990   1.211   0.604   7.168
  331SOL     OW  991   0.338   0.218   8.064
  331SOL    HW1  992   0.315   0.255   8.154
  331SOL    HW2  993   0.308   0.123   8.058
  332SOL     OW  994   0.068   1.315   8.115
  332SOL    HW1  995   0.121   1.266   8.183
  332SOL    HW2  996   0.090   1.413   8.120
  333SOL     OW  997   0.763   0.639   7.897
  333SOL    HW1  998   0.822   0.613   7.821
  333SOL    HW2  999   0.735   0.735   7.886
  334SOL     OW 1000   1.759   0.940   8.687
  334SOL    HW1 1001   1.713   0.933   8.598
  334SOL    HW2 1002   1.697   0.984   8.753
  335SOL     OW 1003   0.338   0.068   7.451
  335SOL    HW1 1004   0.327   0.162   7.484
  335SOL    HW2 1005   0.333   0.005   7.528
  336SOL     OW 1006   1.653   0.372   7.207
  336SOL    HW1 1007   1.655   0.296   7.271
  336SOL    HW2 1008   1.605   0.449   7.247
  337SOL     OW 1009   1.054   0.771   7.799
  337SOL    HW1 1010   1.069   0.792   7.895
  337SOL    HW2 1011   1.024   0.676   7.790
  338SOL     OW 1012   1.011   1.578   8.533
  338SOL    HW1 1013   0.991   1.622   8.445
  338SOL    HW2 1014   1.050   1.487   8.517
  339SOL     OW 1015   1.890   1.523   8.438
  339SOL    HW1 1016   1.904   1.550   8.343
  339SOL    HW2 1017   1.973   1.545   8.491
  340SOL     OW 1018   0.381   0.903   8.637
  340SOL    HW1 1019   0.457   0.947   8.685
  340SOL    HW2 1020   0.416   0.856   8.555
  341SOL     OW 1021   1.571   0.279   6.958
  341SOL    HW1 1022   1.510   0.204   6.981
  341SOL    HW2 1023   1.593   0.331   7.041
  342SOL     OW 1024   1.334   0.843   6.875
  342SOL    HW1 1025   1.368   0.750   6.890
  342SOL    HW2 1026   1.352   0.870   6.780
  343SOL     OW 1027   1.099   1.338   7.682
  343SOL    HW1 1028   1.106   1.254   7.627
  343SOL    HW2 1029   1.161   1.407   7.646
  344SOL     OW 1030   0.350   0.815   7.782
  344SOL    HW1 1031   0.443   0.851   7.787
  344SOL    HW2 1032   0.344   0.730   7.834
  345SOL     OW 1033   0.370   0.514   7.839
  345SOL    HW1 1034   0.318   0.431   7.822
  345SOL    HW2 1035   0.447   0.519   7.775
  346SOL     OW 1036   1.169   0.385   8.511
  346SOL    HW1 1037   1.124   0.448   8.575
  346SOL    HW2 1038   1.262   0.416   8.494
  347SOL     OW 1039   1.191   0.212   8.310
  347SOL    HW1 1040   1.191   0.276   8.387
  347SOL    HW2 1041   1.219   0.260   8.227
  348SOL     OW 1042   0.039   1.331   7.033
  348SOL    HW1 1043  -0.054   1.352   7.002
  348SOL    HW2 1044   0.049   1.232   7.046
  349SOL     OW 1045   0.119   1.806   7.760
  349SOL    HW1 1046   0.077   1.720   7.733
  349SOL    HW2 1047   0.213   1.809   7.726
  350SOL     OW 1048   0.535   1.573   7.743
  350SOL    HW1 1049   0.601   1.647   7.752
  350SOL    HW2 1050   0.579   1.494   7.701
  351SOL     OW 1051   1.033   0.801   8.071
  351SOL    HW1 1052   1.074   0.769   8.157
  351SOL    HW2 1053   0.937   0.774   8.068
  352SOL     OW 1054   0.071   0.549   7.947
  352SOL    HW1 1055   0.156   0.516   7.906
  352SOL    HW2 1056   0.084   0.564   8.045
  353SOL     OW 1057   0.220   0.525   8.555
  353SOL    HW1 1058   0.279   0.485   8.485
  353SOL    HW2 1059   0.162   0.596   8.514
  354SOL     OW 1060   1.400   0.955   8.493
  354SOL    HW1 1061   1.439   1.044   8.513
  354SOL    HW2 1062   1.410   0.935   8.396
  355SOL     OW 1063   0.846   0.577   7.158
  355SOL    HW1 1064   0.853   0.488   7.112
  355SOL    HW2 1065   0.752   0.611   7.150
  356SOL     OW 1066   1.688   0.609   8.039
  356SOL    HW1 1067   1.650   0.540   8.101
  356SOL    HW2 1068   1.770   0.573   7.995
  357SOL     OW 1069   0.283   1.569   8.577
  357SOL    HW1 1070   0.253   1.626   8.653
  357SOL    HW2 1071   0.276   1.472   8.603
  358SOL     OW 1072   0.702   0.469   8.102
  358SOL    HW1 1073   0.668   0.380   8.072
  358SOL    HW2 1074   0.728   0.523   8.022
  359SOL     OW 1075   0.961   1.683   8.298
  359SOL    HW1 1076   0.937   1.665   8.203
  359SOL    HW2 1077   0.991   1.777   8.308
  360SOL     OW 1078   0.504   0.505   7.024
  360SOL    HW1 1079   0.565   0.585   7.028
  360SOL    HW2 1080   0.409   0.536   7.031
  361SOL     OW 1081   0.190   1.142   8.299
  361SOL    HW1 1082   0.212   1.081   8.375
  361SOL    HW2 1083   0.200   1.093   8.213
  362SOL     OW 1084   1.378   1.064   8.067
  362SOL    HW1 1085   1.402   1.001   7.993
  362SOL    HW2 1086   1.288   1.104   8.049
  363SOL     OW 1087   1.333   0.860   7.142
  363SOL    HW1 1088   1.247   0.829   7.184
  363SOL    HW2 1089   1.329   0.846   7.043
  364SOL     OW 1090   1.790   1.752   7.987
  364SOL    HW1 1091   1.851   1.782   7.914
  364SOL    HW2 1092   1.752   1.663   7.965
  365SOL     OW 1093   1.283   1.736   7.961
  365SOL    HW1 1094   1.367   1.741   7.907
  365SOL    HW2 1095   1.260   1.640   7.979
  366SOL     OW 1096   0.114   1.263   7.855
  366SOL    HW1 1097   0.109   1.262   7.955
  366SOL    HW2 1098   0.031   1.222   7.817
  367SOL     OW 1099   0.719   1.667   8.549
  367SOL    HW1 1100   0.663   1.748   8.558
  367SOL    HW2 1101   0.771   1.671   8.463
  368SOL     OW 1102   1.757   0.140   7.356
  368SOL    HW1 1103   1.830   0.123   7.289
  368SOL    HW2 1104   1.726   0.053   7.394
  369SOL     OW 1105   1.419   1.578   7.310
  369SOL    HW1 1106   1.486   1.590   7.236
  369SOL    HW2 1107   1.379   1.667   7.333
  370SOL     OW 1108   0.161   1.799   8.684
  370SOL    HW1 1109   0.120   1.725   8.737
  370SOL    HW2 1110   0.225   1.850   8.742
  371SOL     OW 1111   1.311   0.932   7.505
  371SOL    HW1 1112   1.371   0.851   7.507
  371SOL    HW2 1113   1.351   1.001   7.445
  372SOL     OW 1114   0.861   1.278   8.255
  372SOL    HW1 1115   0.856   1.311   8.350
  372SOL    HW2 1116   0.775   1.297   8.209
  373SOL     OW 1117   0.703   1.621   6.987
  373SOL    HW1 1118   0.712   1.631   6.888
  373SOL    HW2 1119   0.663   1.532   7.008
  374SOL     OW 1120   1.681   1.725   8.227
  374SOL    HW1 1121   1.734   1.735   8.143
  374SOL    HW2 1122   1.654   1.815   8.261
  375SOL     OW 1123   1.872   0.180   7.796
  375SOL    HW1 1124   1.911   0.095   7.760
  375SOL    HW2 1125   1.774   0.182   7.777
  376SOL     OW 1126   0.294   0.331   7.553
  376SOL    HW1 1127   0.215   0.382   7.519
  376SOL    HW2 1128   0.285   0.316   7.651
  377SOL     OW 1129   1.225   1.617   6.864
  377SOL    HW1 1130   1.231   1.524   6.901
  377SOL    HW2 1131   1.166   1.617   6.784
  378SOL     OW 1132   0.853   1.007   8.205
  378SOL    HW1 1133   0.893   1.006   8.113
  378SOL    HW2 1134   0.863   1.099   8.245
  379SOL     OW 1135   0.947   0.915   7.124
  379SOL    HW1 1136   1.010   0.953   7.056
  379SOL    HW2 1137   0.987   0.832   7.163
  380SOL     OW 1138   1.535   1.612   6.877
  380SOL    HW1 1139   1.443   1.649   6.884
  380SOL    HW2 1140   1.573   1.632   6.787
  381SOL     OW 1141   0.403   1.293   8.323
  381SOL    HW1 1142   0.390   1.386   8.289
  381SOL    HW2 1143   0.319   1.241   8.310
  382SOL     OW 1144   1.645   1.297   8.122
  382SOL    HW1 1145   1.705   1.300   8.202
  382SOL    HW2 1146   1.570   1.361   8.135
  383SOL     OW 1147   1.070   1.103   7.529
  383SOL    HW1 1148   1.000   1.056   7.583
  383SOL    HW2 1149   1.129   1.035   7.486
  384SOL     OW 1150   1.045   0.241   7.804
  384SOL    HW1 1151   1.037   0.205   7.711
  384SOL    HW2 1152   1.043   0.165   7.869
  385SOL     OW 1153   0.621   1.492   7.324
  385SOL    HW1 1154   0.663   1.434   7.254
  385SOL    HW2 1155   0.577   1.571   7.280
  386SOL     OW 1156   1.740   0.390   8.214
  386SOL    HW1 1157   1.813   0.459   8.218
  386SOL    HW2 1158   1.768   0.315   8.155
  387SOL     OW 1159   0.286   1.353   7.123
  387SOL    HW1 1160   0.190   1.354   7.096
  387SOL    HW2 1161   0.298   1.406   7.207
  388SOL     OW 1162   0.136   1.018   8.559
  388SOL    HW1 1163   0.059   0.985   8.613
  388SOL    HW2 1164   0.221   0.988   8.601
  389SOL     OW 1165   0.703   0.208   8.322
  389SOL    HW1 1166   0.793   0.192   8.282
  389SOL    HW2 1167   0.711   0.213   8.421
  390SOL     OW 1168   0.106   0.350   6.866
  390SOL    HW1 1169   0.014   0.322   6.837
  390SOL    HW2 1170   0.137   0.427   6.810
  391SOL     OW 1171   1.471   0.861   8.231
  391SOL    HW1 1172   1.414   0.913   8.168
  391SOL    HW2 1173   1.567   0.873   8.207
  392SOL     OW 1174   0.103   0.171   7.151
  392SOL    HW1 1175   0.086   0.254   7.097
  392SOL    HW2 1176   0.193   0.134   7.129
  393SOL     OW 1177   1.214   1.340   6.952
  393SOL    HW1 1178   1.115   1.329   6.954
  393SOL    HW2 1179   1.248   1.355   7.045
  394SOL     OW 1180   0.644   0.847   8.264
  394SOL    HW1 1181   0.700   0.928   8.247
  394SOL    HW2 1182   0.703   0.767   8.267
  395SOL     OW 1183   1.524   1.772   7.792
  395SOL    HW1 1184   1.557   1.836   7.723
  395SOL    HW2 1185   1.590   1.766   7.867
  396SOL     OW 1186   0.747   0.570   8.541
  396SOL    HW1 1187   0.766   0.635   8.615
  396SOL    HW2 1188   0.807   0.490   8.550
  397SOL     OW 1189   1.481   1.225   8.466
  397SOL    HW1 1190   1.472   1.215   8.565
  397SOL    HW2 1191   1.577   1.218   8.440
  398SOL     OW 1192   0.421   1.746   8.393
  398SOL    HW1 1193   0.330   1.787   8.391
  398SOL    HW2 1194   0.414   1.652   8.425
  399SOL     OW 1195   1.705   0.888   8.087
  399SOL    HW1 1196   1.678   0.799   8.050
  399SOL    HW2 1197   1.706   0.956   8.014
  400SOL     OW 1198   1.256   0.330   7.282
  400SOL    HW1 1199   1.321   0.256   7.271
  400SOL    HW2 1200   1.276   0.380   7.366
  401SOL     OW 1201   0.625   0.750   7.485
  401SOL    HW1 1202   0.675   0.835   7.466
  401SOL    HW2 1203   0.537   0.752   7.437
  402SOL     OW 1204   1.808   0.347   8.475
  402SOL    HW1 1205   1.791   0.378   8.381
  402SOL    HW2 1206   1.724   0.310   8.513
  403SOL     OW 1207   1.761   0.939   8.350
  403SOL    HW1 1208   1.799   1.030   8.365
  403SOL    HW2 1209   1.753   0.922   8.251
  404SOL     OW 1210   0.890   1.379   6.849
  404SOL    HW1 1211   0.844   1.394   6.937
  404SOL    HW2 1212   0.934   1.464   6.819
  405SOL     OW 1213   0.692   1.795   7.786
  405SOL    HW1 1214   0.646   1.883   7.773
  405SOL    HW2 1215   0.791   1.807   7.779
  406SOL     OW 1216   0.890   0.961   7.694
  406SOL    HW1 1217   0.944   0.892   7.742
  406SOL    HW2 1218   0.858   1.030   7.760
  407SOL     OW 1219   1.114   0.989   6.920
  407SOL    HW1 1220   1.091   1.042   6.838
  407SOL    HW2 1221   1.195   0.933   6.901
  408SOL     OW 1222   1.892   1.574   7.684
  408SOL    HW1 1223   1.821   1.562   7.614
  408SOL    HW2 1224   1.893   1.495   7.744
  409SOL     OW 1225   0.252   1.319   8.677
  409SOL    HW1 1226   0.187   1.246   8.656
  409SOL    HW2 1227   0.256   1.333   8.775
  410SOL     OW 1228   0.110   1.245   7.486
  410SOL    HW1 1229   0.109   1.198   7.574
  410SOL    HW2 1230   0.192   1.217   7.435
  411SOL     OW 1231   0.703   1.396   8.457
  411SOL    HW1 1232   0.625   1.346   8.495
  411SOL    HW2 1233   0.700   1.491   8.488
  412SOL     OW 1234   1.855   0.197   8.060
  412SOL    HW1 1235   1.851   0.107   8.104
  412SOL    HW2 1236   1.858   0.186   7.961
  413SOL     OW 1237   0.459   0.429   7.353
  413SOL    HW1 1238   0.489   0.357   7.291
  413SOL    HW2 1239   0.420   0.389   7.436
  414SOL     OW 1240   1.736   1.492   7.937
  414SOL    HW1 1241   1.643   1.467   7.910
  414SOL    HW2 1242   1.762   1.442   8.019
  415SOL     OW 1243   0.348   0.552   8.113
  415SOL    HW1 1244   0.386   0.493   8.185
  415SOL    HW2 1245   0.388   0.526   8.025
  416SOL     OW 1246   0.843   1.591   7.520
  416SOL    HW1 1247   0.875   1.601   7.426
  416SOL    HW2 1248   0.764   1.529   7.522
  417SOL     OW 1249   1.455   0.219   7.945
  417SOL    HW1 1250   1.507   0.154   8.000
  417SOL    HW2 1251   1.406   0.282   8.006
  418SOL     OW 1252   1.032   0.039   7.987
  418SOL    HW1 1253   0.969  -0.033   7.956
  418SOL    HW2 1254   1.125   0.003   7.987
  419SOL     OW 1255   0.801   1.335   7.134
  419SOL    HW1 1256   0.755   1.248   7.151
  419SOL    HW2 1257   0.892   1.332   7.175
  420SOL     OW 1258   0.649   1.572   8.117
  420SOL    HW1 1259   0.644   1.654   8.174
  420SOL    HW2 1260   0.738   1.569   8.072
  421SOL     OW 1261   1.383   0.057   7.001
  421SOL    HW1 1262   1.418   0.016   6.917
  421SOL    HW2 1263   1.293   0.019   7.021
  422SOL     OW 1264   1.331   0.458   7.524
  422SOL    HW1 1265   1.272   0.538   7.528
  422SOL    HW2 1266   1.346   0.423   7.617
  423SOL     OW 1267   1.624   0.226   7.715
  423SOL    HW1 1268   1.540   0.225   7.769
  423SOL    HW2 1269   1.626   0.309   7.659
  424SOL     OW 1270   0.070   1.082   7.133
  424SOL    HW1 1271   0.169   1.071   7.124
  424SOL    HW2 1272   0.030   0.996   7.165
  425SOL     OW 1273   0.906   1.651   7.170
  425SOL    HW1 1274   0.829   1.616   7.116
  425SOL    HW2 1275   0.874   1.722   7.232
  426SOL     OW 1276   0.261   0.633   8.808
  426SOL    HW1 1277   0.168   0.631   8.845
  426SOL    HW2 1278   0.262   0.594   8.716
  427SOL     OW 1279   0.256   0.280   9.691
  427SOL    HW1 1280   0.291   0.263   9.783
  427SOL    HW2 1281   0.168   0.235   9.679
  428SOL     OW 1282   0.050   0.373   9.342
  428SOL    HW1 1283  -0.032   0.416   9.381
  428SOL    HW2 1284   0.022   0.300   9.279
  429SOL     OW 1285   0.600   1.280   9.860
  429SOL    HW1 1286   0.507   1.273   9.823
  429SOL    HW2 1287   0.611   1.369   9.904
  430SOL     OW 1288   1.586   1.516   9.398
  430SOL    HW1 1289   1.529   1.500   9.479
  430SOL    HW2 1290   1.527   1.526   9.318
  431SOL     OW 1291   1.166   0.708   9.412
  431SOL    HW1 1292   1.223   0.786   9.387
  431SOL    HW2 1293   1.106   0.734   9.488
  432SOL     OW 1294   1.786   0.612   8.926
  432SOL    HW1 1295   1.774   0.599   8.827
  432SOL    HW2 1296   1.756   0.531   8.975
  433SOL     OW 1297   0.799   1.149   9.718
  433SOL    HW1 1298   0.721   1.166   9.778
  433SOL    HW2 1299   0.833   1.236   9.682
  434SOL     OW 1300   0.716   1.017   9.360
  434SOL    HW1 1301   0.785   1.001   9.430
  434SOL    HW2 1302   0.643   1.074   9.398
  435SOL     OW 1303   0.366   1.440   9.756
  435SOL    HW1 1304   0.288   1.409   9.703
  435SOL    HW2 1305   0.424   1.498   9.699
  436SOL     OW 1306   1.634   0.452   9.432
  436SOL    HW1 1307   1.560   0.498   9.382
  436SOL    HW2 1308   1.685   0.520   9.485
  437SOL     OW 1309   0.262   1.718   9.178
  437SOL    HW1 1310   0.296   1.795   9.232
  437SOL    HW2 1311   0.306   1.718   9.088
  438SOL     OW 1312   0.261   1.439   9.233
  438SOL    HW1 1313   0.235   1.535   9.233
  438SOL    HW2 1314   0.190   1.385   9.278
  439SOL     OW 1315   0.271   1.096   9.581
  439SOL    HW1 1316   0.285   1.012   9.633
  439SOL    HW2 1317   0.216   1.160   9.636
  440SOL     OW 1318   0.637   0.969   8.818
  440SOL    HW1 1319   0.644   1.053   8.764
  440SOL    HW2 1320   0.683   0.982   8.906
  441SOL     OW 1321   0.153   0.648   9.258
  441SOL    HW1 1322   0.108   0.560   9.275
  441SOL    HW2 1323   0.152   0.702   9.342
  442SOL     OW 1324   1.873   1.772   9.054
  442SOL    HW1 1325   1.927   1.743   9.134
  442SOL    HW2 1326   1.903   1.862   9.025
  443SOL     OW 1327   0.058   1.601   8.812
  443SOL    HW1 1328   0.039   1.505   8.833
  443SOL    HW2 1329   0.025   1.659   8.887
  444SOL     OW 1330   1.720   0.927   9.307
  444SOL    HW1 1331   1.815   0.898   9.315
  444SOL    HW2 1332   1.712   0.992   9.232
  445SOL     OW 1333   1.672   1.113   9.127
  445SOL    HW1 1334   1.758   1.115   9.075
  445SOL    HW2 1335   1.686   1.160   9.215
  446SOL     OW 1336   0.644   1.370   9.421
  446SOL    HW1 1337   0.595   1.283   9.430
  446SOL    HW2 1338   0.621   1.413   9.334
  447SOL     OW 1339   0.840   0.009   9.197
  447SOL    HW1 1340   0.880   0.100   9.188
  447SOL    HW2 1341   0.740   0.017   9.203
  448SOL     OW 1342   0.228   0.981   9.959
  448SOL    HW1 1343   0.317   0.936   9.945
  448SOL    HW2 1344   0.155   0.916   9.940
  449SOL     OW 1345   1.556   1.004   8.885
  449SOL    HW1 1346   1.493   0.928   8.898
  449SOL    HW2 1347   1.604   1.022   8.971
  450SOL     OW 1348   1.497   1.422   9.648
  450SOL    HW1 1349   1.438   1.428   9.728
  450SOL    HW2 1350   1.482   1.334   9.602
  451SOL     OW 1351   1.698   1.719   9.267
  451SOL    HW1 1352   1.657   1.696   9.179
  451SOL    HW2 1353   1.680   1.645   9.332
  452SOL     OW 1354   0.629   0.734   8.965
  452SOL    HW1 1355   0.653   0.803   8.897
  452SOL    HW2 1356   0.551   0.767   9.019
  453SOL     OW 1357   1.312   0.350   9.639
  453SOL    HW1 1358   1.226   0.300   9.626
  453SOL    HW2 1359   1.374   0.296   9.695
  454SOL     OW 1360   1.607   1.667   9.002
  454SOL    HW1 1361   1.696   1.713   9.005
  454SOL    HW2 1362   1.586   1.643   8.907
  455SOL     OW 1363   1.072   0.706   9.124
  455SOL    HW1 1364   1.098   0.702   9.220
  455SOL    HW2 1365   0.987   0.655   9.110
  456SOL     OW 1366   0.107   0.816   9.484
  456SOL    HW1 1367   0.206   0.804   9.493
  456SOL    HW2 1368   0.083   0.911   9.505
  457SOL     OW 1369   0.161   1.826  10.266
  457SOL    HW1 1370   0.151   1.811  10.365
  457SOL    HW2 1371   0.075   1.862  10.230
  458SOL     OW 1372   0.896   0.353   8.890
  458SOL    HW1 1373   0.955   0.416   8.841
  458SOL    HW2 1374   0.915   0.259   8.861
  459SOL     OW 1375   1.393   1.149   9.240
  459SOL    HW1 1376   1.476   1.120   9.192
  459SOL    HW2 1377   1.344   1.216   9.184
  460SOL     OW 1378   0.581   0.201   9.580
  460SOL    HW1 1379   0.576   0.196   9.680
  460SOL    HW2 1380   0.583   0.297   9.551
  461SOL     OW 1381   1.039   1.461   9.172
  461SOL    HW1 1382   0.993   1.533   9.120
  461SOL    HW2 1383   1.035   1.481   9.270
  462SOL     OW 1384   0.382   1.806   9.548
  462SOL    HW1 1385   0.432   1.720   9.554
  462SOL    HW2 1386   0.447   1.883   9.545
  463SOL     OW 1387   1.826   1.071   9.568
  463SOL    HW1 1388   1.764   1.056   9.492
  463SOL    HW2 1389   1.774   1.082   9.653
  464SOL     OW 1390   0.352   0.948   8.937
  464SOL    HW1 1391   0.434   0.987   8.895
  464SOL    HW2 1392   0.325   0.866   8.888
  465SOL     OW 1393   1.489   0.740   9.423
  465SOL    HW1 1394   1.484   0.675   9.498
  465SOL    HW2 1395   1.569   0.799   9.436
  466SOL     OW 1396   1.142   1.781   8.932
  466SOL    HW1 1397   1.082   1.719   8.982
  466SOL    HW2 1398   1.173   1.737   8.847
  467SOL     OW 1399   1.663   1.382   8.776
  467SOL    HW1 1400   1.631   1.476   8.766
  467SOL    HW2 1401   1.587   1.319   8.764
  468SOL     OW 1402   0.495   1.748   9.018
  468SOL    HW1 1403   0.528   1.787   9.104
  468SOL    HW2 1404   0.571   1.741   8.953
  469SOL     OW 1405   1.431   0.112   9.121
  469SOL    HW1 1406   1.407   0.075   9.031
  469SOL    HW2 1407   1.530   0.128   9.125
  470SOL     OW 1408   0.280   1.790   9.936
  470SOL    HW1 1409   0.337   1.725   9.986
  470SOL    HW2 1410   0.264   1.757   9.843
  471SOL     OW 1411   0.971   1.703   9.599
  471SOL    HW1 1412   1.051   1.646   9.620
  471SOL    HW2 1413   0.922   1.663   9.522
  472SOL     OW 1414   0.413   0.705   9.175
  472SOL    HW1 1415   0.458   0.615   9.172
  472SOL    HW2 1416   0.319   0.694   9.208
  473SOL     OW 1417   0.645   0.127   8.812
  473SOL    HW1 1418   0.743   0.105   8.819
  473SOL    HW2 1419   0.614   0.110   8.719
  474SOL     OW 1420   0.834   1.407   9.619
  474SOL    HW1 1421   0.924   1.421   9.577
  474SOL    HW2 1422   0.763   1.409   9.548
  475SOL     OW 1423   0.953   0.508   9.594
  475SOL    HW1 1424   0.928   0.499   9.498
  475SOL    HW2 1425   1.001   0.426   9.625
  476SOL     OW 1426   0.570   0.069   9.207
  476SOL    HW1 1427   0.489   0.070   9.265
  476SOL    HW2 1428   0.573   0.152   9.152
  477SOL     OW 1429   1.465   1.193   8.736
  477SOL    HW1 1430   1.497   1.117   8.793
  477SOL    HW2 1431   1.373   1.220   8.766
  478SOL     OW 1432   0.328   0.040   8.866
  478SOL    HW1 1433   0.377   0.124   8.845
  478SOL    HW2 1434   0.390  -0.025   8.911
  479SOL     OW 1435   0.966   0.241   9.175
  479SOL    HW1 1436   0.918   0.282   9.097
  479SOL    HW2 1437   1.065   0.239   9.156
  480SOL     OW 1438   1.258   1.575   9.488
  480SOL    HW1 1439   1.279   1.649   9.423
  480SOL    HW2 1440   1.326   1.575   9.561
  481SOL     OW 1441   0.490   1.157   9.436
  481SOL    HW1 1442   0.419   1.130   9.501
  481SOL    HW2 1443   0.464   1.129   9.343
  482SOL     OW 1444   1.302   1.802   9.286
  482SOL    HW1 1445   1.346   1.866   9.222
  482SOL    HW2 1446   1.252   1.854   9.356
  483SOL     OW 1447   1.063   0.554   8.711
  483SOL    HW1 1448   1.022   0.636   8.672
  483SOL    HW2 1449   1.127   0.580   8.784
  484SOL     OW 1450   0.897   0.459   9.337
  484SOL    HW1 1451   0.865   0.531   9.275
  484SOL    HW2 1452   0.921   0.378   9.284
  485SOL     OW 1453   1.048   0.044   9.448
  485SOL    HW1 1454   0.976   0.049   9.379
  485SOL    HW2 1455   1.024  -0.025   9.517
  486SOL     OW 1456   1.460   1.178   9.562
  486SOL    HW1 1457   1.405   1.094   9.555
  486SOL    HW2 1458   1.486   1.207   9.470
  487SOL     OW 1459   1.497   0.595   9.687
  487SOL    HW1 1460   1.467   0.500   9.694
  487SOL    HW2 1461   1.570   0.611   9.753
  488SOL     OW 1462   1.888   0.838   9.072
  488SOL    HW1 1463   1.930   0.774   9.136
  488SOL    HW2 1464   1.850   0.787   8.994
  489SOL     OW 1465   0.519   1.390   8.869
  489SOL    HW1 1466   0.432   1.375   8.916
  489SOL    HW2 1467   0.502   1.416   8.774
  490SOL     OW 1468   1.695   1.285   9.352
  490SOL    HW1 1469   1.794   1.293   9.366
  490SOL    HW2 1470   1.650   1.369   9.383
  491SOL     OW 1471   1.421   0.580   8.773
  491SOL    HW1 1472   1.367   0.559   8.854
  491SOL    HW2 1473   1.512   0.539   8.782
  492SOL     OW 1474   0.558   0.261   9.023
  492SOL    HW1 1475   0.585   0.202   8.948
  492SOL    HW2 1476   0.558   0.356   8.992
  493SOL     OW 1477   1.142   1.200   9.795
  493SOL    HW1 1478   1.102   1.244   9.876
  493SOL    HW2 1479   1.101   1.237   9.712
  494SOL     OW 1480   1.669   1.104   9.774
  494SOL    HW1 1481   1.674   1.185   9.833
  494SOL    HW2 1482   1.583   1.106   9.723
  495SOL     OW 1483   0.736   1.055   9.063
  495SOL    HW1 1484   0.722   1.062   9.162
  495SOL    HW2 1485   0.820   1.004   9.045
  496SOL     OW 1486   0.441   0.818   9.946
  496SOL    HW1 1487   0.527   0.830   9.996
  496SOL    HW2 1488   0.399   0.731   9.973
  497SOL     OW 1489   0.398   1.105   9.196
  497SOL    HW1 1490   0.391   1.188   9.140
  497SOL    HW2 1491   0.402   1.025   9.136
  498SOL     OW 1492   0.597   0.542   9.560
  498SOL    HW1 1493   0.609   0.608   9.486
  498SOL    HW2 1494   0.643   0.576   9.643
  499SOL     OW 1495   1.283   1.353   9.083
  499SOL    HW1 1496   1.333   1.430   9.123
  499SOL    HW2 1497   1.188   1.355   9.115
  500SOL     OW 1498   1.303   1.450   9.837
  500SOL    HW1 1499   1.350   1.463   9.924
  500SOL    HW2 1500   1.237   1.376   9.846
  501SOL     OW 1501   1.613   0.644   9.167
  501SOL    HW1 1502   1.582   0.705   9.240
  501SOL    HW2 1503   1.663   0.696   9.098
  502SOL     OW 1504   0.604   0.875   9.724
  502SOL    HW1 1505   0.648   0.964   9.715
  502SOL    HW2 1506   0.541   0.875   9.801
  503SOL     OW 1507   1.391   0.867   9.740
  503SOL    HW1 1508   1.316   0.867   9.674
  503SOL    HW2 1509   1.428   0.775   9.749
  504SOL     OW 1510   1.240   0.530   8.970
  504SOL    HW1 1511   1.253   0.446   9.024
  504SOL    HW2 1512   1.211   0.604   9.030
  505SOL     OW 1513   0.338   0.218   9.926
  505SOL    HW1 1514   0.315   0.255  10.016
  505SOL    HW2 1515   0.308   0.123   9.920
  506SOL     OW 1516   0.068   1.315   9.977
  506SOL    HW1 1517   0.121   1.266  10.045
  506SOL    HW2 1518   0.090   1.413   9.982
  507SOL     OW 1519   0.763   0.639   9.759
  507SOL    HW1 1520   0.822   0.613   9.683
  507SOL    HW2 1521   0.735   0.735   9.748
  508SOL     OW 1522   0.338   0.068   9.313
  508SOL    HW1 1523   0.327   0.162   9.346
  508SOL    HW2 1524   0.333   0.005   9.390
  509SOL     OW 1525   1.653   0.372   9.069
  509SOL    HW1 1526   1.655   0.296   9.133
  509SOL    HW2 1527   1.605   0.449   9.109
  510SOL     OW 1528   1.054   0.771   9.661
  510SOL    HW1 1529   1.069   0.792   9.757
  510SOL    HW2 1530   1.024   0.676   9.652
  511SOL     OW 1531   1.571   0.279   8.820
  511SOL    HW1 1532   1.510   0.204   8.843
  511SOL    HW2 1533   1.593   0.331   8.903
  512SOL     OW 1534   1.334   0.843   8.737
  512SOL    HW1 1535   1.368   0.750   8.752
  512SOL    HW2 1536   1.352   0.870   8.642
  513SOL     OW 1537   1.099   1.338   9.544
  513SOL    HW1 1538   1.106   1.254   9.489
  513SOL    HW2 1539   1.161   1.407   9.508
  514SOL     OW 1540   0.350   0.815   9.644
  514SOL    HW1 1541   0.443   0.851   9.649
  514SOL    HW2 1542   0.344   0.730   9.696
  515SOL     OW 1543   0.370   0.514   9.701
  515SOL    HW1 1544   0.318   0.431   9.684
  515SOL    HW2 1545   0.447   0.519   9.637
  516SOL     OW 1546   1.191   0.212  10.172
  516SOL    HW1 1547   1.191   0.276  10.249
  516SOL    HW2 1548   1.219   0.260  10.089
  517SOL     OW 1549   0.039   1.331   8.895
  517SOL    HW1 1550  -0.054   1.352   8.864
  517SOL    HW2 1551   0.049   1.232   8.908
  518SOL     OW 1552   0.119   1.806   9.622
  518SOL    HW1 1553   0.077   1.720   9.595
  518SOL    HW2 1554   0.213   1.809   9.588
  519SOL     OW 1555   0.535   1.573   9.605
  519SOL    HW1 1556   0.601   1.647   9.614
  519SOL    HW2 1557   0.579   1.494   9.563
  520SOL     OW 1558   1.033   0.801   9.933
  520SOL    HW1 1559   1.074   0.769  10.019
  520SOL    HW2 1560   0.937   0.774   9.930
  521SOL     OW 1561   0.071   0.549   9.809
  521SOL    HW1 1562   0.156   0.516   9.768
  521SOL    HW2 1563   0.084   0.564   9.907
  522SOL     OW 1564   0.846   0.577   9.020
  522SOL    HW1 1565   0.853   0.488   8.974
  522SOL    HW2 1566   0.752   0.611   9.012
  523SOL     OW 1567   1.688   0.609   9.901
  523SOL    HW1 1568   1.650   0.540   9.963
  523SOL    HW2 1569   1.770   0.573   9.857
  524SOL     OW 1570   0.702   0.469   9.964
  524SOL    HW1 1571   0.668   0.380   9.934
  524SOL    HW2 1572   0.728   0.523   9.884
  525SOL     OW 1573   0.504   0.505   8.886
  525SOL    HW1 1574   0.565   0.585   8.890
  525SOL    HW2 1575   0.409   0.536   8.893
  526SOL     OW 1576   1.378   1.064   9.929
  526SOL    HW1 1577   1.402   1.001   9.855
  526SOL    HW2 1578   1.288   1.104   9.911
  527SOL     OW 1579   1.333   0.860   9.004
  527SOL    HW1 1580   1.247   0.829   9.046
  527SOL    HW2 1581   1.329   0.846   8.905
  528SOL     OW 1582   1.790   1.752   9.849
  528SOL    HW1 1583   1.851   1.782   9.776
  528SOL    HW2 1584   1.752   1.663   9.827
  529SOL     OW 1585   0.114   1.263   9.717
  529SOL    HW1 1586   0.109   1.262   9.817
  529SOL    HW2 1587   0.031   1.222   9.679
  530SOL     OW 1588   1.757   0.140   9.218
  530SOL    HW1 1589   1.830   0.123   9.151
  530SOL    HW2 1590   1.726   0.053   9.256
  531SOL     OW 1591   1.419   1.578   9.172
  531SOL    HW1 1592   1.486   1.590   9.098
  531SOL    HW2 1593   1.379   1.667   9.195
  532SOL     OW 1594   1.311   0.932   9.367
  532SOL    HW1 1595   1.371   0.851   9.369
  532SOL    HW2 1596   1.351   1.001   9.307
  533SOL     OW 1597   0.703   1.621   8.849
  533SOL    HW1 1598   0.712   1.631   8.750
  533SOL    HW2 1599   0.663   1.532   8.870
  534SOL     OW 1600   1.681   1.725  10.089
  534SOL    HW1 1601   1.734   1.735  10.005
  534SOL    HW2 1602   1.654   1.815  10.123
  535SOL     OW 1603   1.872   0.180   9.658
  535SOL    HW1 1604   1.911   0.095   9.622
  535SOL    HW2 1605   1.774   0.182   9.639
  536SOL     OW 1606   0.294   0.331   9.415
  536SOL    HW1 1607   0.215   0.382   9.381
  536SOL    HW2 1608   0.285   0.316   9.513
  537SOL     OW 1609   1.225   1.617   8.726
  537SOL    HW1 1610   1.231   1.524   8.763
  537SOL    HW2 1611   1.166   1.617   8.646
  538SOL     OW 1612   0.853   1.007  10.067
  538SOL    HW1 1613   0.893   1.006   9.975
  538SOL    HW2 1614   0.863   1.099  10.107
  539SOL     OW 1615   0.947   0.915   8.986
  539SOL    HW1 1616   1.010   0.953   8.918
  539SOL    HW2 1617   0.987   0.832   9.025
  540SOL     OW 1618   1.535   1.612   8.739
  540SOL    HW1 1619   1.443   1.649   8.746
  540SOL    HW2 1620   1.573   1.632   8.649
  541SOL     OW 1621   1.070   1.103   9.391
  541SOL    HW1 1622   1.000   1.056   9.445
  541SOL    HW2 1623   1.129   1.035   9.348
  542SOL     OW 1624   1.045   0.241   9.666
  542SOL    HW1 1625   1.037   0.205   9.573
  542SOL    HW2 1626   1.043   0.165   9.731
  543SOL     OW 1627   0.621   1.492   9.186
  543SOL    HW1 1628   0.663   1.434   9.116
  543SOL    HW2 1629   0.577   1.571   9.142
  544SOL     OW 1630   1.740   0.390  10.076
  544SOL    HW1 1631   1.813   0.459  10.080
  544SOL    HW2 1632   1.768   0.315  10.017
  545SOL     OW 1633   0.286   1.353   8.985
  545SOL    HW1 1634   0.190   1.354   8.958
  545SOL    HW2 1635   0.298   1.406   9.069
  546SOL     OW 1636   0.106   0.350   8.728
  546SOL    HW1 1637   0.014   0.322   8.699
  546SOL    HW2 1638   0.137   0.427   8.672
  547SOL     OW 1639   0.103   0.171   9.013
  547SOL    HW1 1640   0.086   0.254   8.959
  547SOL    HW2 1641   0.193   0.134   8.991
  548SOL     OW 1642   1.214   1.340   8.814
  548SOL    HW1 1643   1.115   1.329   8.816
  548SOL    HW2 1644   1.248   1.355   8.907
  549SOL     OW 1645   1.524   1.772   9.654
  549SOL    HW1 1646   1.557   1.836   9.585
  549SOL    HW2 1647   1.590   1.766   9.729
  550SOL     OW 1648   1.705   0.888   9.949
  550SOL    HW1 1649   1.678   0.799   9.912
  550SOL    HW2 1650   1.706   0.956   9.876
  551SOL     OW 1651   1.256   0.330   9.144
  551SOL    HW1 1652   1.321   0.256   9.133
  551SOL    HW2 1653   1.276   0.380   9.228
  552SOL     OW 1654   0.625   0.750   9.347
  552SOL    HW1 1655   0.675   0.835   9.328
  552SOL    HW2 1656   0.537   0.752   9.299
  553SOL     OW 1657   1.761   0.939  10.212
  553SOL    HW1 1658   1.799   1.030  10.227
  553SOL    HW2 1659   1.753   0.922  10.113
  554SOL     OW 1660   0.890   1.379   8.711
  554SOL    HW1 1661   0.844   1.394   8.799
  554SOL    HW2 1662   0.934   1.464   8.681
  555SOL     OW 1663   0.692   1.795   9.648
  555SOL    HW1 1664   0.646   1.883   9.635
  555SOL    HW2 1665   0.791   1.807   9.641
  556SOL     OW 1666   0.890   0.961   9.556
  556SOL    HW1 1667   0.944   0.892   9.604
  556SOL    HW2 1668   0.858   1.030   9.622
  557SOL     OW 1669   1.114   0.989   8.782
  557SOL    HW1 1670   1.091   1.042   8.700
  557SOL    HW2 1671   1.195   0.933   8.763
  558SOL     OW 1672   1.892   1.574   9.546
  558SOL    HW1 1673   1.821   1.562   9.476
  558SOL    HW2 1674   1.893   1.495   9.606
  559SOL     OW 1675   0.110   1.245   9.348
  559SOL    HW1 1676   0.109   1.198   9.436
  559SOL    HW2 1677   0.192   1.217   9.297
  560SOL     OW 1678   1.855   0.197   9.922
  560SOL    HW1 1679   1.851   0.107   9.966
  560SOL    HW2 1680   1.858   0.186   9.823
  561SOL     OW 1681   0.459   0.429   9.215
  561SOL    HW1 1682   0.489   0.357   9.153
  561SOL    HW2 1683   0.420   0.389   9.298
  562SOL     OW 1684   1.736   1.492   9.799
  562SOL    HW1 1685   1.643   1.467   9.772
  562SOL    HW2 1686   1.762   1.442   9.881
  563SOL     OW 1687   0.843   1.591   9.382
  563SOL    HW1 1688   0.875   1.601   9.288
  563SOL    HW2 1689   0.764   1.529   9.384
  564SOL     OW 1690   1.455   0.219   9.807
  564SOL    HW1 1691   1.507   0.154   9.862
  564SOL    HW2 1692   1.406   0.282   9.868
  565SOL     OW 1693   1.032   0.039   9.849
  565SOL    HW1 1694   0.969  -0.033   9.818
  565SOL    HW2 1695   1.125   0.003   9.849
  566SOL     OW 1696   0.801   1.335   8.996
  566SOL    HW1 1697   0.755   1.248   9.013
  566SOL    HW2 1698   0.892   1.332   9.037
  567SOL     OW 1699   1.383   0.057   8.863
  567SOL    HW1 1700   1.418   0.016   8.779
  567SOL    HW2 1701   1.293   0.019   8.883
  568SOL     OW 1702   1.331   0.458   9.386
  568SOL    HW1 1703   1.272   0.538   9.390
  568SOL    HW2 1704   1.346   0.423   9.479
  569SOL     OW 1705   1.624   0.226   9.577
  569SOL    HW1 1706   1.540   0.225   9.631
  569SOL    HW2 1707   1.626   0.309   9.521
  570SOL     OW 1708   0.070   1.082   8.995
  570SOL    HW1 1709   0.169   1.071   8.986
  570SOL    HW2 1710   0.030   0.996   9.027
  571SOL     OW 1711   0.906   1.651   9.032
  571SOL    HW1 1712   0.829   1.616   8.978
  571SOL    HW2 1713   0.874   1.722   9.094
  572SOL     OW 1714   0.261   2.495   5.084
  572SOL    HW1 1715   0.168   2.493   5.121
  572SOL    HW2 1716   0.262   2.456   4.992
  573SOL     OW 1717   0.256   2.142   5.967
  573SOL    HW1 1718   0.291   2.125   6.059
  573SOL    HW2 1719   0.168   2.097   5.955
  574SOL     OW 1720   0.050   2.235   5.618
  574SOL    HW1 1721  -0.032   2.278   5.657
  574SOL    HW2 1722   0.022   2.162   5.555
  575SOL     OW 1723   0.600   3.142   6.136
  575SOL    HW1 1724   0.507   3.135   6.099
  575SOL    HW2 1725   0.611   3.231   6.180
  576SOL     OW 1726   1.586   3.378   5.674
  576SOL    HW1 1727   1.529   3.362   5.755
  576SOL    HW2 1728   1.527   3.388   5.594
  577SOL     OW 1729   1.166   2.570   5.688
  577SOL    HW1 1730   1.223   2.648   5.663
  577SOL    HW2 1731   1.106   2.596   5.764
  578SOL     OW 1732   1.786   2.474   5.202
  578SOL    HW1 1733   1.774   2.461   5.103
  578SOL    HW2 1734   1.756   2.393   5.251
  579SOL     OW 1735   0.799   3.011   5.994
  579SOL    HW1 1736   0.721   3.028   6.054
  579SOL    HW2 1737   0.833   3.098   5.958
  580SOL     OW 1738   0.881   2.665   6.794
  580SOL    HW1 1739   0.877   2.741   6.859
  580SOL    HW2 1740   0.903   2.701   6.703
  581SOL     OW 1741   0.716   2.879   5.636
  581SOL    HW1 1742   0.785   2.863   5.706
  581SOL    HW2 1743   0.643   2.936   5.674
  582SOL     OW 1744   0.717   3.028   6.774
  582SOL    HW1 1745   0.777   3.107   6.788
  582SOL    HW2 1746   0.631   3.059   6.733
  583SOL     OW 1747   0.366   3.302   6.032
  583SOL    HW1 1748   0.288   3.271   5.979
  583SOL    HW2 1749   0.424   3.360   5.975
  584SOL     OW 1750   1.491   3.372   6.310
  584SOL    HW1 1751   1.515   3.466   6.336
  584SOL    HW2 1752   1.475   3.318   6.392
  585SOL     OW 1753   0.469   2.259   6.470
  585SOL    HW1 1754   0.551   2.203   6.479
  585SOL    HW2 1755   0.388   2.201   6.474
  586SOL     OW 1756   1.634   2.314   5.708
  586SOL    HW1 1757   1.560   2.360   5.658
  586SOL    HW2 1758   1.685   2.382   5.761
  587SOL     OW 1759   0.262   3.580   5.454
  587SOL    HW1 1760   0.296   3.657   5.508
  587SOL    HW2 1761   0.306   3.580   5.364
  588SOL     OW 1762   1.158   3.208   6.661
  588SOL    HW1 1763   1.205   3.208   6.749
  588SOL    HW2 1764   1.110   3.121   6.650
  589SOL     OW 1765   0.261   3.301   5.509
  589SOL    HW1 1766   0.235   3.397   5.509
  589SOL    HW2 1767   0.190   3.247   5.554
  590SOL     OW 1768   0.271   2.958   5.857
  590SOL    HW1 1769   0.285   2.874   5.909
  590SOL    HW2 1770   0.216   3.022   5.912
  591SOL     OW 1771   0.651   3.653   6.410
  591SOL    HW1 1772   0.559   3.636   6.445
  591SOL    HW2 1773   0.679   3.745   6.436
  592SOL     OW 1774   0.637   2.831   5.094
  592SOL    HW1 1775   0.644   2.915   5.040
  592SOL    HW2 1776   0.683   2.844   5.182
  593SOL     OW 1777   1.625   1.981   6.451
  593SOL    HW1 1778   1.607   2.048   6.379
  593SOL    HW2 1779   1.622   2.027   6.540
  594SOL     OW 1780   0.153   2.510   5.534
  594SOL    HW1 1781   0.108   2.422   5.551
  594SOL    HW2 1782   0.152   2.564   5.618
  595SOL     OW 1783   1.873   3.634   5.330
  595SOL    HW1 1784   1.927   3.605   5.410
  595SOL    HW2 1785   1.903   3.724   5.301
  596SOL     OW 1786   0.058   3.463   5.088
  596SOL    HW1 1787   0.039   3.367   5.109
  596SOL    HW2 1788   0.025   3.521   5.163
  597SOL     OW 1789   1.720   2.789   5.583
  597SOL    HW1 1790   1.815   2.760   5.591
  597SOL    HW2 1791   1.712   2.854   5.508
  598SOL     OW 1792   1.672   2.975   5.403
  598SOL    HW1 1793   1.758   2.977   5.351
  598SOL    HW2 1794   1.686   3.022   5.491
  599SOL     OW 1795   0.144   2.604   6.568
  599SOL    HW1 1796   0.232   2.591   6.613
  599SOL    HW2 1797   0.131   2.701   6.546
  600SOL     OW 1798   0.644   3.232   5.697
  600SOL    HW1 1799   0.595   3.145   5.706
  600SOL    HW2 1800   0.621   3.275   5.610
  601SOL     OW 1801   1.324   3.095   6.394
  601SOL    HW1 1802   1.361   3.022   6.336
  601SOL    HW2 1803   1.376   3.100   6.479
  602SOL     OW 1804   0.840   1.871   5.473
  602SOL    HW1 1805   0.880   1.962   5.464
  602SOL    HW2 1806   0.740   1.879   5.479
  603SOL     OW 1807   0.228   2.843   6.235
  603SOL    HW1 1808   0.317   2.798   6.221
  603SOL    HW2 1809   0.155   2.778   6.216
  604SOL     OW 1810   1.556   2.866   5.161
  604SOL    HW1 1811   1.493   2.790   5.174
  604SOL    HW2 1812   1.604   2.884   5.247
  605SOL     OW 1813   1.218   3.659   6.587
  605SOL    HW1 1814   1.242   3.719   6.511
  605SOL    HW2 1815   1.225   3.564   6.557
  606SOL     OW 1816   0.348   2.118   6.772
  606SOL    HW1 1817   0.419   2.189   6.778
  606SOL    HW2 1818   0.260   2.157   6.800
  607SOL     OW 1819   1.497   3.284   5.924
  607SOL    HW1 1820   1.438   3.290   6.004
  607SOL    HW2 1821   1.482   3.196   5.878
  608SOL     OW 1822   1.698   3.581   5.543
  608SOL    HW1 1823   1.657   3.558   5.455
  608SOL    HW2 1824   1.680   3.507   5.608
  609SOL     OW 1825   0.629   2.596   5.241
  609SOL    HW1 1826   0.653   2.665   5.173
  609SOL    HW2 1827   0.551   2.629   5.295
  610SOL     OW 1828   1.312   2.212   5.915
  610SOL    HW1 1829   1.226   2.162   5.902
  610SOL    HW2 1830   1.374   2.158   5.971
  611SOL     OW 1831   1.607   3.529   5.278
  611SOL    HW1 1832   1.696   3.575   5.281
  611SOL    HW2 1833   1.586   3.505   5.183
  612SOL     OW 1834   0.838   2.472   6.436
  612SOL    HW1 1835   0.791   2.469   6.525
  612SOL    HW2 1836   0.787   2.417   6.370
  613SOL     OW 1837   1.425   2.336   6.645
  613SOL    HW1 1838   1.405   2.379   6.733
  613SOL    HW2 1839   1.503   2.274   6.654
  614SOL     OW 1840   1.004   2.757   6.543
  614SOL    HW1 1841   1.050   2.673   6.514
  614SOL    HW2 1842   0.948   2.791   6.468
  615SOL     OW 1843   1.022   2.277   6.213
  615SOL    HW1 1844   0.945   2.311   6.267
  615SOL    HW2 1845   0.988   2.226   6.134
  616SOL     OW 1846   1.072   2.568   5.400
  616SOL    HW1 1847   1.098   2.564   5.496
  616SOL    HW2 1848   0.987   2.517   5.386
  617SOL     OW 1849   0.107   2.678   5.760
  617SOL    HW1 1850   0.206   2.666   5.769
  617SOL    HW2 1851   0.083   2.773   5.781
  618SOL     OW 1852   0.161   3.688   6.542
  618SOL    HW1 1853   0.151   3.673   6.641
  618SOL    HW2 1854   0.075   3.724   6.506
  619SOL     OW 1855   0.896   2.215   5.166
  619SOL    HW1 1856   0.955   2.278   5.117
  619SOL    HW2 1857   0.915   2.121   5.137
  620SOL     OW 1858   1.750   2.452   6.802
  620SOL    HW1 1859   1.724   2.541   6.766
  620SOL    HW2 1860   1.748   2.384   6.729
  621SOL     OW 1861   1.393   3.011   5.516
  621SOL    HW1 1862   1.476   2.982   5.468
  621SOL    HW2 1863   1.344   3.078   5.460
  622SOL     OW 1864   0.581   2.063   5.856
  622SOL    HW1 1865   0.576   2.058   5.956
  622SOL    HW2 1866   0.583   2.159   5.827
  623SOL     OW 1867   1.039   3.323   5.448
  623SOL    HW1 1868   0.993   3.395   5.396
  623SOL    HW2 1869   1.035   3.343   5.546
  624SOL     OW 1870   0.382   3.668   5.824
  624SOL    HW1 1871   0.432   3.582   5.830
  624SOL    HW2 1872   0.447   3.745   5.821
  625SOL     OW 1873   1.826   2.933   5.844
  625SOL    HW1 1874   1.764   2.918   5.768
  625SOL    HW2 1875   1.774   2.944   5.929
  626SOL     OW 1876   1.258   3.417   6.477
  626SOL    HW1 1877   1.264   3.340   6.541
  626SOL    HW2 1878   1.206   3.391   6.397
  627SOL     OW 1879   0.352   2.810   5.213
  627SOL    HW1 1880   0.434   2.849   5.171
  627SOL    HW2 1881   0.325   2.728   5.164
  628SOL     OW 1882   1.489   2.602   5.699
  628SOL    HW1 1883   1.484   2.537   5.774
  628SOL    HW2 1884   1.569   2.661   5.712
  629SOL     OW 1885   0.492   3.133   6.698
  629SOL    HW1 1886   0.442   3.134   6.612
  629SOL    HW2 1887   0.429   3.115   6.774
  630SOL     OW 1888   1.142   3.643   5.208
  630SOL    HW1 1889   1.082   3.581   5.258
  630SOL    HW2 1890   1.173   3.599   5.123
  631SOL     OW 1891   0.233   2.152   6.469
  631SOL    HW1 1892   0.153   2.212   6.456
  631SOL    HW2 1893   0.223   2.103   6.555
  632SOL     OW 1894   1.663   3.244   5.052
  632SOL    HW1 1895   1.631   3.338   5.042
  632SOL    HW2 1896   1.587   3.181   5.040
  633SOL     OW 1897   0.495   3.610   5.294
  633SOL    HW1 1898   0.528   3.649   5.380
  633SOL    HW2 1899   0.571   3.603   5.229
  634SOL     OW 1900   1.431   1.974   5.397
  634SOL    HW1 1901   1.407   1.937   5.307
  634SOL    HW2 1902   1.530   1.990   5.401
  635SOL     OW 1903   0.280   3.652   6.212
  635SOL    HW1 1904   0.337   3.587   6.262
  635SOL    HW2 1905   0.264   3.619   6.119
  636SOL     OW 1906   0.971   3.565   5.875
  636SOL    HW1 1907   1.051   3.508   5.896
  636SOL    HW2 1908   0.922   3.525   5.798
  637SOL     OW 1909   0.413   2.567   5.451
  637SOL    HW1 1910   0.458   2.477   5.448
  637SOL    HW2 1911   0.319   2.556   5.484
  638SOL     OW 1912   1.578   2.089   6.700
  638SOL    HW1 1913   1.573   2.126   6.792
  638SOL    HW2 1914   1.506   2.020   6.688
  639SOL     OW 1915   0.645   1.989   5.088
  639SOL    HW1 1916   0.743   1.967   5.095
  639SOL    HW2 1917   0.614   1.972   4.995
  640SOL     OW 1918   0.812   2.131   6.720
  640SOL    HW1 1919   0.879   2.070   6.763
  640SOL    HW2 1920   0.739   2.150   6.785
  641SOL     OW 1921   0.919   3.381   6.166
  641SOL    HW1 1922   0.896   3.356   6.072
  641SOL    HW2 1923   0.980   3.312   6.205
  642SOL     OW 1924   1.382   2.457   6.404
  642SOL    HW1 1925   1.410   2.414   6.489
  642SOL    HW2 1926   1.407   2.553   6.405
  643SOL     OW 1927   0.834   3.269   5.895
  643SOL    HW1 1928   0.924   3.283   5.853
  643SOL    HW2 1929   0.763   3.271   5.824
  644SOL     OW 1930   0.953   2.370   5.870
  644SOL    HW1 1931   0.928   2.361   5.774
  644SOL    HW2 1932   1.001   2.288   5.901
  645SOL     OW 1933   0.570   1.931   5.483
  645SOL    HW1 1934   0.489   1.932   5.541
  645SOL    HW2 1935   0.573   2.014   5.428
  646SOL     OW 1936   1.465   3.055   5.012
  646SOL    HW1 1937   1.497   2.979   5.069
  646SOL    HW2 1938   1.373   3.082   5.042
  647SOL     OW 1939   0.328   1.902   5.142
  647SOL    HW1 1940   0.377   1.986   5.121
  647SOL    HW2 1941   0.390   1.837   5.187
  648SOL     OW 1942   0.966   2.103   5.451
  648SOL    HW1 1943   0.918   2.144   5.373
  648SOL    HW2 1944   1.065   2.101   5.432
  649SOL     OW 1945   1.107   2.550   6.435
  649SOL    HW1 1946   1.027   2.489   6.438
  649SOL    HW2 1947   1.188   2.497   6.411
  650SOL     OW 1948   1.258   3.437   5.764
  650SOL    HW1 1949   1.279   3.511   5.699
  650SOL    HW2 1950   1.326   3.437   5.837
  651SOL     OW 1951   0.490   3.019   5.712
  651SOL    HW1 1952   0.419   2.992   5.777
  651SOL    HW2 1953   0.464   2.991   5.619
  652SOL     OW 1954   1.302   3.664   5.562
  652SOL    HW1 1955   1.346   3.728   5.498
  652SOL    HW2 1956   1.252   3.716   5.632
  653SOL     OW 1957   1.063   2.416   4.987
  653SOL    HW1 1958   1.022   2.498   4.948
  653SOL    HW2 1959   1.127   2.442   5.060
  654SOL     OW 1960   0.109   2.423   6.357
  654SOL    HW1 1961   0.201   2.422   6.316
  654SOL    HW2 1962   0.103   2.497   6.424
  655SOL     OW 1963   0.592   2.089   6.118
  655SOL    HW1 1964   0.630   2.005   6.155
  655SOL    HW2 1965   0.504   2.108   6.162
  656SOL     OW 1966   0.897   2.321   5.613
  656SOL    HW1 1967   0.865   2.393   5.551
  656SOL    HW2 1968   0.921   2.240   5.560
  657SOL     OW 1969   1.048   1.906   5.724
  657SOL    HW1 1970   0.976   1.911   5.655
  657SOL    HW2 1971   1.024   1.837   5.793
  658SOL     OW 1972   1.460   3.040   5.838
  658SOL    HW1 1973   1.405   2.956   5.831
  658SOL    HW2 1974   1.486   3.069   5.746
  659SOL     OW 1975   1.497   2.457   5.963
  659SOL    HW1 1976   1.467   2.362   5.970
  659SOL    HW2 1977   1.570   2.473   6.029
  660SOL     OW 1978   1.888   2.700   5.348
  660SOL    HW1 1979   1.930   2.636   5.412
  660SOL    HW2 1980   1.850   2.649   5.270
  661SOL     OW 1981   0.519   3.252   5.145
  661SOL    HW1 1982   0.432   3.237   5.192
  661SOL    HW2 1983   0.502   3.278   5.050
  662SOL     OW 1984   1.695   3.147   5.628
  662SOL    HW1 1985   1.794   3.155   5.642
  662SOL    HW2 1986   1.650   3.231   5.659
  663SOL     OW 1987   1.421   2.442   5.049
  663SOL    HW1 1988   1.367   2.421   5.130
  663SOL    HW2 1989   1.512   2.401   5.058
  664SOL     OW 1990   0.558   2.123   5.299
  664SOL    HW1 1991   0.585   2.064   5.224
  664SOL    HW2 1992   0.558   2.218   5.268
  665SOL     OW 1993   1.785   3.090   6.559
  665SOL    HW1 1994   1.876   3.051   6.546
  665SOL    HW2 1995   1.793   3.186   6.583
  666SOL     OW 1996   1.095   3.214   6.311
  666SOL    HW1 1997   1.015   3.191   6.366
  666SOL    HW2 1998   1.178   3.188   6.360
  667SOL     OW 1999   1.623   3.496   6.596
  667SOL    HW1 2000   1.650   3.530   6.506
  667SOL    HW2 2001   1.702   3.458   6.642
  668SOL     OW 2002   1.142   3.062   6.071
  668SOL    HW1 2003   1.102   3.106   6.152
  668SOL    HW2 2004   1.101   3.099   5.988
  669SOL     OW 2005   1.669   2.966   6.050
  669SOL    HW1 2006   1.674   3.047   6.109
  669SOL    HW2 2007   1.583   2.968   5.999
  670SOL     OW 2008   0.946   1.956   6.373
  670SOL    HW1 2009   0.971   1.936   6.278
  670SOL    HW2 2010   1.018   2.012   6.415
  671SOL     OW 2011   1.011   2.983   6.690
  671SOL    HW1 2012   0.912   2.989   6.700
  671SOL    HW2 2013   1.034   2.903   6.634
  672SOL     OW 2014   0.736   2.917   5.339
  672SOL    HW1 2015   0.722   2.924   5.438
  672SOL    HW2 2016   0.820   2.866   5.321
  673SOL     OW 2017   0.441   2.680   6.222
  673SOL    HW1 2018   0.527   2.692   6.272
  673SOL    HW2 2019   0.399   2.593   6.249
  674SOL     OW 2020   1.305   2.253   6.233
  674SOL    HW1 2021   1.326   2.327   6.297
  674SOL    HW2 2022   1.216   2.270   6.190
  675SOL     OW 2023   0.095   3.431   6.302
  675SOL    HW1 2024   0.049   3.513   6.268
  675SOL    HW2 2025   0.193   3.450   6.311
  676SOL     OW 2026   0.398   2.967   5.472
  676SOL    HW1 2027   0.391   3.050   5.416
  676SOL    HW2 2028   0.402   2.887   5.412
  677SOL     OW 2029   0.597   2.404   5.836
  677SOL    HW1 2030   0.609   2.470   5.762
  677SOL    HW2 2031   0.643   2.438   5.919
  678SOL     OW 2032   1.283   3.215   5.359
  678SOL    HW1 2033   1.333   3.292   5.399
  678SOL    HW2 2034   1.188   3.217   5.391
  679SOL     OW 2035   1.303   3.312   6.113
  679SOL    HW1 2036   1.350   3.325   6.200
  679SOL    HW2 2037   1.237   3.238   6.122
  680SOL     OW 2038   1.613   2.506   5.443
  680SOL    HW1 2039   1.582   2.567   5.516
  680SOL    HW2 2040   1.663   2.558   5.374
  681SOL     OW 2041   0.385   3.377   6.300
  681SOL    HW1 2042   0.364   3.333   6.213
  681SOL    HW2 2043   0.482   3.403   6.303
  682SOL     OW 2044   0.433   2.618   6.569
  682SOL    HW1 2045   0.501   2.673   6.522
  682SOL    HW2 2046   0.473   2.530   6.596
  683SOL     OW 2047   1.618   2.646   6.641
  683SOL    HW1 2048   1.526   2.684   6.636
  683SOL    HW2 2049   1.678   2.693   6.576
  684SOL     OW 2050   1.044   1.972   6.741
  684SOL    HW1 2051   1.050   2.057   6.689
  684SOL    HW2 2052   1.076   1.896   6.684
  685SOL     OW 2053   0.535   1.917   6.711
  685SOL    HW1 2054   0.493   1.860   6.641
  685SOL    HW2 2055   0.469   1.986   6.743
  686SOL     OW 2056   0.604   2.737   6.000
  686SOL    HW1 2057   0.648   2.826   5.991
  686SOL    HW2 2058   0.541   2.737   6.077
  687SOL     OW 2059   1.391   2.729   6.016
  687SOL    HW1 2060   1.316   2.729   5.950
  687SOL    HW2 2061   1.428   2.637   6.025
  688SOL     OW 2062   1.240   2.392   5.246
  688SOL    HW1 2063   1.253   2.308   5.300
  688SOL    HW2 2064   1.211   2.466   5.306
  689SOL     OW 2065   0.338   2.080   6.202
  689SOL    HW1 2066   0.315   2.117   6.292
  689SOL    HW2 2067   0.308   1.985   6.196
  690SOL     OW 2068   0.068   3.177   6.253
  690SOL    HW1 2069   0.121   3.128   6.321
  690SOL    HW2 2070   0.090   3.275   6.258
  691SOL     OW 2071   0.763   2.501   6.035
  691SOL    HW1 2072   0.822   2.475   5.959
  691SOL    HW2 2073   0.735   2.597   6.024
  692SOL     OW 2074   1.759   2.802   6.825
  692SOL    HW1 2075   1.713   2.795   6.736
  692SOL    HW2 2076   1.697   2.846   6.891
  693SOL     OW 2077   0.338   1.930   5.589
  693SOL    HW1 2078   0.327   2.024   5.622
  693SOL    HW2 2079   0.333   1.867   5.666
  694SOL     OW 2080   1.653   2.234   5.345
  694SOL    HW1 2081   1.655   2.158   5.409
  694SOL    HW2 2082   1.605   2.311   5.385
  695SOL     OW 2083   1.054   2.633   5.937
  695SOL    HW1 2084   1.069   2.654   6.033
  695SOL    HW2 2085   1.024   2.538   5.928
  696SOL     OW 2086   1.011   3.440   6.671
  696SOL    HW1 2087   0.991   3.484   6.583
  696SOL    HW2 2088   1.050   3.349   6.655
  697SOL     OW 2089   1.890   3.385   6.576
  697SOL    HW1 2090   1.904   3.412   6.481
  697SOL    HW2 2091   1.973   3.407   6.629
  698SOL     OW 2092   0.381   2.765   6.775
  698SOL    HW1 2093   0.457   2.809   6.823
  698SOL    HW2 2094   0.416   2.718   6.693
  699SOL     OW 2095   1.571   2.141   5.096
  699SOL    HW1 2096   1.510   2.066   5.119
  699SOL    HW2 2097   1.593   2.193   5.179
  700SOL     OW 2098   1.334   2.705   5.013
  700SOL    HW1 2099   1.368   2.612   5.028
  700SOL    HW2 2100   1.352   2.732   4.918
  701SOL     OW 2101   1.099   3.200   5.820
  701SOL    HW1 2102   1.106   3.116   5.765
  701SOL    HW2 2103   1.161   3.269   5.784
  702SOL     OW 2104   0.350   2.677   5.920
  702SOL    HW1 2105   0.443   2.713   5.925
  702SOL    HW2 2106   0.344   2.592   5.972
  703SOL     OW 2107   0.370   2.376   5.977
  703SOL    HW1 2108   0.318   2.293   5.960
  703SOL    HW2 2109   0.447   2.381   5.913
  704SOL     OW 2110   1.169   2.247   6.649
  704SOL    HW1 2111   1.124   2.310   6.713
  704SOL    HW2 2112   1.262   2.278   6.632
  705SOL     OW 2113   1.191   2.074   6.448
  705SOL    HW1 2114   1.191   2.138   6.525
  705SOL    HW2 2115   1.219   2.122   6.365
  706SOL     OW 2116   0.039   3.193   5.171
  706SOL    HW1 2117  -0.054   3.214   5.140
  706SOL    HW2 2118   0.049   3.094   5.184
  707SOL     OW 2119   0.119   3.668   5.898
  707SOL    HW1 2120   0.077   3.582   5.871
  707SOL    HW2 2121   0.213   3.671   5.864
  708SOL     OW 2122   0.535   3.435   5.881
  708SOL    HW1 2123   0.601   3.509   5.890
  708SOL    HW2 2124   0.579   3.356   5.839
  709SOL     OW 2125   1.033   2.663   6.209
  709SOL    HW1 2126   1.074   2.631   6.295
  709SOL    HW2 2127   0.937   2.636   6.206
  710SOL     OW 2128   0.071   2.411   6.085
  710SOL    HW1 2129   0.156   2.378   6.044
  710SOL    HW2 2130   0.084   2.426   6.183
  711SOL     OW 2131   0.220   2.387   6.693
  711SOL    HW1 2132   0.279   2.347   6.623
  711SOL    HW2 2133   0.162   2.458   6.652
  712SOL     OW 2134   1.400   2.817   6.631
  712SOL    HW1 2135   1.439   2.906   6.651
  712SOL    HW2 2136   1.410   2.797   6.534
  713SOL     OW 2137   0.846   2.439   5.296
  713SOL    HW1 2138   0.853   2.350   5.250
  713SOL    HW2 2139   0.752   2.473   5.288
  714SOL     OW 2140   1.688   2.471   6.177
  714SOL    HW1 2141   1.650   2.402   6.239
  714SOL    HW2 2142   1.770   2.435   6.133
  715SOL     OW 2143   0.283   3.431   6.715
  715SOL    HW1 2144   0.253   3.488   6.791
  715SOL    HW2 2145   0.276   3.334   6.741
  716SOL     OW 2146   0.702   2.331   6.240
  716SOL    HW1 2147   0.668   2.242   6.210
  716SOL    HW2 2148   0.728   2.385   6.160
  717SOL     OW 2149   0.961   3.545   6.436
  717SOL    HW1 2150   0.937   3.527   6.341
  717SOL    HW2 2151   0.991   3.639   6.446
  718SOL     OW 2152   0.504   2.367   5.162
  718SOL    HW1 2153   0.565   2.447   5.166
  718SOL    HW2 2154   0.409   2.398   5.169
  719SOL     OW 2155   0.190   3.004   6.437
  719SOL    HW1 2156   0.212   2.943   6.513
  719SOL    HW2 2157   0.200   2.955   6.351
  720SOL     OW 2158   1.378   2.926   6.205
  720SOL    HW1 2159   1.402   2.863   6.131
  720SOL    HW2 2160   1.288   2.966   6.187
  721SOL     OW 2161   1.333   2.722   5.280
  721SOL    HW1 2162   1.247   2.691   5.322
  721SOL    HW2 2163   1.329   2.708   5.181
  722SOL     OW 2164   1.790   3.614   6.125
  722SOL    HW1 2165   1.851   3.644   6.052
  722SOL    HW2 2166   1.752   3.525   6.103
  723SOL     OW 2167   1.283   3.598   6.099
  723SOL    HW1 2168   1.367   3.603   6.045
  723SOL    HW2 2169   1.260   3.502   6.117
  724SOL     OW 2170   0.114   3.125   5.993
  724SOL    HW1 2171   0.109   3.124   6.093
  724SOL    HW2 2172   0.031   3.084   5.955
  725SOL     OW 2173   0.719   3.529   6.687
  725SOL    HW1 2174   0.663   3.610   6.696
  725SOL    HW2 2175   0.771   3.533   6.601
  726SOL     OW 2176   0.934   1.953   5.104
  726SOL    HW1 2177   0.985   1.954   5.018
  726SOL    HW2 2178   0.990   1.911   5.175
  727SOL     OW 2179   1.757   2.002   5.494
  727SOL    HW1 2180   1.830   1.985   5.427
  727SOL    HW2 2181   1.726   1.915   5.532
  728SOL     OW 2182   1.419   3.440   5.448
  728SOL    HW1 2183   1.486   3.452   5.374
  728SOL    HW2 2184   1.379   3.529   5.471
  729SOL     OW 2185   0.161   3.661   6.822
  729SOL    HW1 2186   0.120   3.587   6.875
  729SOL    HW2 2187   0.225   3.712   6.880
  730SOL     OW 2188   1.311   2.794   5.643
  730SOL    HW1 2189   1.371   2.713   5.645
  730SOL    HW2 2190   1.351   2.863   5.583
  731SOL     OW 2191   0.861   3.140   6.393
  731SOL    HW1 2192   0.856   3.173   6.488
  731SOL    HW2 2193   0.775   3.159   6.347
  732SOL     OW 2194   0.703   3.483   5.125
  732SOL    HW1 2195   0.712   3.493   5.026
  732SOL    HW2 2196   0.663   3.394   5.146
  733SOL     OW 2197   1.681   3.587   6.365
  733SOL    HW1 2198   1.734   3.597   6.281
  733SOL    HW2 2199   1.654   3.677   6.399
  734SOL     OW 2200   1.872   2.042   5.934
  734SOL    HW1 2201   1.911   1.957   5.898
  734SOL    HW2 2202   1.774   2.044   5.915
  735SOL     OW 2203   0.294   2.193   5.691
  735SOL    HW1 2204   0.215   2.244   5.657
  735SOL    HW2 2205   0.285   2.178   5.789
  736SOL     OW 2206   1.225   3.479   5.002
  736SOL    HW1 2207   1.231   3.386   5.039
  736SOL    HW2 2208   1.166   3.479   4.922
  737SOL     OW 2209   0.853   2.869   6.343
  737SOL    HW1 2210   0.893   2.868   6.251
  737SOL    HW2 2211   0.863   2.961   6.383
  738SOL     OW 2212   0.947   2.777   5.262
  738SOL    HW1 2213   1.010   2.815   5.194
  738SOL    HW2 2214   0.987   2.694   5.301
  739SOL     OW 2215   1.535   3.474   5.015
  739SOL    HW1 2216   1.443   3.511   5.022
  739SOL    HW2 2217   1.573   3.494   4.925
  740SOL     OW 2218   0.403   3.155   6.461
  740SOL    HW1 2219   0.390   3.248   6.427
  740SOL    HW2 2220   0.319   3.103   6.448
  741SOL     OW 2221   1.645   3.159   6.260
  741SOL    HW1 2222   1.705   3.162   6.340
  741SOL    HW2 2223   1.570   3.223   6.273
  742SOL     OW 2224   1.070   2.965   5.667
  742SOL    HW1 2225   1.000   2.918   5.721
  742SOL    HW2 2226   1.129   2.897   5.624
  743SOL     OW 2227   1.045   2.103   5.942
  743SOL    HW1 2228   1.037   2.067   5.849
  743SOL    HW2 2229   1.043   2.027   6.007
  744SOL     OW 2230   0.621   3.354   5.462
  744SOL    HW1 2231   0.663   3.296   5.392
  744SOL    HW2 2232   0.577   3.433   5.418
  745SOL     OW 2233   1.740   2.252   6.352
  745SOL    HW1 2234   1.813   2.321   6.356
  745SOL    HW2 2235   1.768   2.177   6.293
  746SOL     OW 2236   0.286   3.215   5.261
  746SOL    HW1 2237   0.190   3.216   5.234
  746SOL    HW2 2238   0.298   3.268   5.345
  747SOL     OW 2239   0.136   2.880   6.697
  747SOL    HW1 2240   0.059   2.847   6.751
  747SOL    HW2 2241   0.221   2.850   6.739
  748SOL     OW 2242   0.703   2.070   6.460
  748SOL    HW1 2243   0.793   2.054   6.420
  748SOL    HW2 2244   0.711   2.075   6.559
  749SOL     OW 2245   0.106   2.212   5.004
  749SOL    HW1 2246   0.014   2.184   4.975
  749SOL    HW2 2247   0.137   2.289   4.948
  750SOL     OW 2248   1.471   2.723   6.369
  750SOL    HW1 2249   1.414   2.775   6.306
  750SOL    HW2 2250   1.567   2.735   6.345
  751SOL     OW 2251   0.103   2.033   5.289
  751SOL    HW1 2252   0.086   2.116   5.235
  751SOL    HW2 2253   0.193   1.996   5.267
  752SOL     OW 2254   1.214   3.202   5.090
  752SOL    HW1 2255   1.115   3.191   5.092
  752SOL    HW2 2256   1.248   3.217   5.183
  753SOL     OW 2257   0.644   2.709   6.402
  753SOL    HW1 2258   0.700   2.790   6.385
  753SOL    HW2 2259   0.703   2.629   6.405
  754SOL     OW 2260   1.524   3.634   5.930
  754SOL    HW1 2261   1.557   3.698   5.861
  754SOL    HW2 2262   1.590   3.628   6.005
  755SOL     OW 2263   0.747   2.432   6.679
  755SOL    HW1 2264   0.766   2.497   6.753
  755SOL    HW2 2265   0.807   2.352   6.688
  756SOL     OW 2266   1.481   3.087   6.604
  756SOL    HW1 2267   1.472   3.077   6.703
  756SOL    HW2 2268   1.577   3.080   6.578
  757SOL     OW 2269   0.421   3.608   6.531
  757SOL    HW1 2270   0.330   3.649   6.529
  757SOL    HW2 2271   0.414   3.514   6.563
  758SOL     OW 2272   1.705   2.750   6.225
  758SOL    HW1 2273   1.678   2.661   6.188
  758SOL    HW2 2274   1.706   2.818   6.152
  759SOL     OW 2275   1.256   2.192   5.420
  759SOL    HW1 2276   1.321   2.118   5.409
  759SOL    HW2 2277   1.276   2.242   5.504
  760SOL     OW 2278   0.625   2.612   5.623
  760SOL    HW1 2279   0.675   2.697   5.604
  760SOL    HW2 2280   0.537   2.614   5.575
  761SOL     OW 2281   1.808   2.209   6.613
  761SOL    HW1 2282   1.791   2.240   6.519
  761SOL    HW2 2283   1.724   2.172   6.651
  762SOL     OW 2284   1.761   2.801   6.488
  762SOL    HW1 2285   1.799   2.892   6.503
  762SOL    HW2 2286   1.753   2.784   6.389
  763SOL     OW 2287   0.890   3.241   4.987
  763SOL    HW1 2288   0.844   3.256   5.075
  763SOL    HW2 2289   0.934   3.326   4.957
  764SOL     OW 2290   0.692   3.657   5.924
  764SOL    HW1 2291   0.646   3.745   5.911
  764SOL    HW2 2292   0.791   3.669   5.917
  765SOL     OW 2293   0.890   2.823   5.832
  765SOL    HW1 2294   0.944   2.754   5.880
  765SOL    HW2 2295   0.858   2.892   5.898
  766SOL     OW 2296   1.114   2.851   5.058
  766SOL    HW1 2297   1.091   2.904   4.976
  766SOL    HW2 2298   1.195   2.795   5.039
  767SOL     OW 2299   1.892   3.436   5.822
  767SOL    HW1 2300   1.821   3.424   5.752
  767SOL    HW2 2301   1.893   3.357   5.882
  768SOL     OW 2302   0.252   3.181   6.815
  768SOL    HW1 2303   0.187   3.108   6.794
  768SOL    HW2 2304   0.256   3.195   6.913
  769SOL     OW 2305   0.110   3.107   5.624
  769SOL    HW1 2306   0.109   3.060   5.712
  769SOL    HW2 2307   0.192   3.079   5.573
  770SOL     OW 2308   0.703   3.258   6.595
  770SOL    HW1 2309   0.625   3.208   6.633
  770SOL    HW2 2310   0.700   3.353   6.626
  771SOL     OW 2311   1.855   2.059   6.198
  771SOL    HW1 2312   1.851   1.969   6.242
  771SOL    HW2 2313   1.858   2.048   6.099
  772SOL     OW 2314   0.459   2.291   5.491
  772SOL    HW1 2315   0.489   2.219   5.429
  772SOL    HW2 2316   0.420   2.251   5.574
  773SOL     OW 2317   1.736   3.354   6.075
  773SOL    HW1 2318   1.643   3.329   6.048
  773SOL    HW2 2319   1.762   3.304   6.157
  774SOL     OW 2320   0.348   2.414   6.251
  774SOL    HW1 2321   0.386   2.355   6.323
  774SOL    HW2 2322   0.388   2.388   6.163
  775SOL     OW 2323   0.843   3.453   5.658
  775SOL    HW1 2324   0.875   3.463   5.564
  775SOL    HW2 2325   0.764   3.391   5.660
  776SOL     OW 2326   1.455   2.081   6.083
  776SOL    HW1 2327   1.507   2.016   6.138
  776SOL    HW2 2328   1.406   2.144   6.144
  777SOL     OW 2329   1.032   1.901   6.125
  777SOL    HW1 2330   0.969   1.829   6.094
  777SOL    HW2 2331   1.125   1.865   6.125
  778SOL     OW 2332   0.801   3.197   5.272
  778SOL    HW1 2333   0.755   3.110   5.289
  778SOL    HW2 2334   0.892   3.194   5.313
  779SOL     OW 2335   0.649   3.434   6.255
  779SOL    HW1 2336   0.644   3.516   6.312
  779SOL    HW2 2337   0.738   3.431   6.210
  780SOL     OW 2338   1.383   1.919   5.139
  780SOL    HW1 2339   1.418   1.878   5.055
  780SOL    HW2 2340   1.293   1.881   5.159
  781SOL     OW 2341   1.331   2.320   5.662
  781SOL    HW1 2342   1.272   2.400   5.666
  781SOL    HW2 2343   1.346   2.285   5.755
  782SOL     OW 2344   1.624   2.088   5.853
  782SOL    HW1 2345   1.540   2.087   5.907
  782SOL    HW2 2346   1.626   2.171   5.797
  783SOL     OW 2347   0.070   2.944   5.271
  783SOL    HW1 2348   0.169   2.933   5.262
  783SOL    HW2 2349   0.030   2.858   5.303
  784SOL     OW 2350   0.906   3.513   5.308
  784SOL    HW1 2351   0.829   3.478   5.254
  784SOL    HW2 2352   0.874   3.584   5.370
  785SOL     OW 2353   0.261   2.495   6.946
  785SOL    HW1 2354   0.168   2.493   6.983
  785SOL    HW2 2355   0.262   2.456   6.854
  786SOL     OW 2356   0.256   2.142   7.829
  786SOL    HW1 2357   0.291   2.125   7.921
  786SOL    HW2 2358   0.168   2.097   7.817
  787SOL     OW 2359   0.050   2.235   7.480
  787SOL    HW1 2360  -0.032   2.278   7.519
  787SOL    HW2 2361   0.022   2.162   7.417
  788SOL     OW 2362   0.600   3.142   7.998
  788SOL    HW1 2363   0.507   3.135   7.961
  788SOL    HW2 2364   0.611   3.231   8.042
  789SOL     OW 2365   1.586   3.378   7.536
  789SOL    HW1 2366   1.529   3.362   7.617
  789SOL    HW2 2367   1.527   3.388   7.456
  790SOL     OW 2368   1.166   2.570   7.550
  790SOL    HW1 2369   1.223   2.648   7.525
  790SOL    HW2 2370   1.106   2.596   7.626
  791SOL     OW 2371   1.786   2.474   7.064
  791SOL    HW1 2372   1.774   2.461   6.965
  791SOL    HW2 2373   1.756   2.393   7.113
  792SOL     OW 2374   0.799   3.011   7.856
  792SOL    HW1 2375   0.721   3.028   7.916
  792SOL    HW2 2376   0.833   3.098   7.820
  793SOL     OW 2377   0.881   2.665   8.656
  793SOL    HW1 2378   0.877   2.741   8.721
  793SOL    HW2 2379   0.903   2.701   8.565
  794SOL     OW 2380   0.716   2.879   7.498
  794SOL    HW1 2381   0.785   2.863   7.568
  794SOL    HW2 2382   0.643   2.936   7.536
  795SOL     OW 2383   0.717   3.028   8.636
  795SOL    HW1 2384   0.777   3.107   8.650
  795SOL    HW2 2385   0.631   3.059   8.595
  796SOL     OW 2386   0.366   3.302   7.894
  796SOL    HW1 2387   0.288   3.271   7.841
  796SOL    HW2 2388   0.424   3.360   7.837
  797SOL     OW 2389   1.491   3.372   8.172
  797SOL    HW1 2390   1.515   3.466   8.198
  797SOL    HW2 2391   1.475   3.318   8.254
  798SOL     OW 2392   0.469   2.259   8.332
  798SOL    HW1 2393   0.551   2.203   8.341
  798SOL    HW2 2394   0.388   2.201   8.336
  799SOL     OW 2395   1.634   2.314   7.570
  799SOL    HW1 2396   1.560   2.360   7.520
  799SOL    HW2 2397   1.685   2.382   7.623
  800SOL     OW 2398   0.262   3.580   7.316
  800SOL    HW1 2399   0.296   3.657   7.370
  800SOL    HW2 2400   0.306   3.580   7.226
  801SOL     OW 2401   1.158   3.208   8.523
  801SOL    HW1 2402   1.205   3.208   8.611
  801SOL    HW2 2403   1.110   3.121   8.512
  802SOL     OW 2404   0.261   3.301   7.371
  802SOL    HW1 2405   0.235   3.397   7.371
  802SOL    HW2 2406   0.190   3.247   7.416
  803SOL     OW 2407   0.271   2.958   7.719
  803SOL    HW1 2408   0.285   2.874   7.771
  803SOL    HW2 2409   0.216   3.022   7.774
  804SOL     OW 2410   0.651   3.653   8.272
  804SOL    HW1 2411   0.559   3.636   8.307
  804SOL    HW2 2412   0.679   3.745   8.298
  805SOL     OW 2413   0.637   2.831   6.956
  805SOL    HW1 2414   0.644   2.915   6.902
  805SOL    HW2 2415   0.683   2.844   7.044
  806SOL     OW 2416   1.625   1.981   8.313
  806SOL    HW1 2417   1.607   2.048   8.241
  806SOL    HW2 2418   1.622   2.027   8.402
  807SOL     OW 2419   0.153   2.510   7.396
  807SOL    HW1 2420   0.108   2.422   7.413
  807SOL    HW2 2421   0.152   2.564   7.480
  808SOL     OW 2422   1.873   3.634   7.192
  808SOL    HW1 2423   1.927   3.605   7.272
  808SOL    HW2 2424   1.903   3.724   7.163
  809SOL     OW 2425   0.058   3.463   6.950
  809SOL    HW1 2426   0.039   3.367   6.971
  809SOL    HW2 2427   0.025   3.521   7.025
  810SOL     OW 2428   1.720   2.789   7.445
  810SOL    HW1 2429   1.815   2.760   7.453
  810SOL    HW2 2430   1.712   2.854   7.370
  811SOL     OW 2431   1.672   2.975   7.265
  811SOL    HW1 2432   1.758   2.977   7.213
  811SOL    HW2 2433   1.686   3.022   7.353
  812SOL     OW 2434   0.144   2.604   8.430
  812SOL    HW1 2435   0.232   2.591   8.475
  812SOL    HW2 2436   0.131   2.701   8.408
  813SOL     OW 2437   0.644   3.232   7.559
  813SOL    HW1 2438   0.595   3.145   7.568
  813SOL    HW2 2439   0.621   3.275   7.472
  814SOL     OW 2440   1.324   3.095   8.256
  814SOL    HW1 2441   1.361   3.022   8.198
  814SOL    HW2 2442   1.376   3.100   8.341
  815SOL     OW 2443   0.840   1.871   7.335
  815SOL    HW1 2444   0.880   1.962   7.326
  815SOL    HW2 2445   0.740   1.879   7.341
  816SOL     OW 2446   0.228   2.843   8.097
  816SOL    HW1 2447   0.317   2.798   8.083
  816SOL    HW2 2448   0.155   2.778   8.078
  817SOL     OW 2449   1.556   2.866   7.023
  817SOL    HW1 2450   1.493   2.790   7.036
  817SOL    HW2 2451   1.604   2.884   7.109
  818SOL     OW 2452   1.218   3.659   8.449
  818SOL    HW1 2453   1.242   3.719   8.373
  818SOL    HW2 2454   1.225   3.564   8.419
  819SOL     OW 2455   0.348   2.118   8.634
  819SOL    HW1 2456   0.419   2.189   8.640
  819SOL    HW2 2457   0.260   2.157   8.662
  820SOL     OW 2458   1.497   3.284   7.786
  820SOL    HW1 2459   1.438   3.290   7.866
  820SOL    HW2 2460   1.482   3.196   7.740
  821SOL     OW 2461   1.698   3.581   7.405
  821SOL    HW1 2462   1.657   3.558   7.317
  821SOL    HW2 2463   1.680   3.507   7.470
  822SOL     OW 2464   0.629   2.596   7.103
  822SOL    HW1 2465   0.653   2.665   7.035
  822SOL    HW2 2466   0.551   2.629   7.157
  823SOL     OW 2467   1.312   2.212   7.777
  823SOL    HW1 2468   1.226   2.162   7.764
  823SOL    HW2 2469   1.374   2.158   7.833
  824SOL     OW 2470   1.607   3.529   7.140
  824SOL    HW1 2471   1.696   3.575   7.143
  824SOL    HW2 2472   1.586   3.505   7.045
  825SOL     OW 2473   0.838   2.472   8.298
  825SOL    HW1 2474   0.791   2.469   8.387
  825SOL    HW2 2475   0.787   2.417   8.232
  826SOL     OW 2476   1.425   2.336   8.507
  826SOL    HW1 2477   1.405   2.379   8.595
  826SOL    HW2 2478   1.503   2.274   8.516
  827SOL     OW 2479   1.004   2.757   8.405
  827SOL    HW1 2480   1.050   2.673   8.376
  827SOL    HW2 2481   0.948   2.791   8.330
  828SOL     OW 2482   1.022   2.277   8.075
  828SOL    HW1 2483   0.945   2.311   8.129
  828SOL    HW2 2484   0.988   2.226   7.996
  829SOL     OW 2485   1.072   2.568   7.262
  829SOL    HW1 2486   1.098   2.564   7.358
  829SOL    HW2 2487   0.987   2.517   7.248
  830SOL     OW 2488   0.107   2.678   7.622
  830SOL    HW1 2489   0.206   2.666   7.631
  830SOL    HW2 2490   0.083   2.773   7.643
  831SOL     OW 2491   0.161   3.688   8.404
  831SOL    HW1 2492   0.151   3.673   8.503
  831SOL    HW2 2493   0.075   3.724   8.368
  832SOL     OW 2494   0.896   2.215   7.028
  832SOL    HW1 2495   0.955   2.278   6.979
  832SOL    HW2 2496   0.915   2.121   6.999
  833SOL     OW 2497   1.750   2.452   8.664
  833SOL    HW1 2498   1.724   2.541   8.628
  833SOL    HW2 2499   1.748   2.384   8.591
  834SOL     OW 2500   1.393   3.011   7.378
  834SOL    HW1 2501   1.476   2.982   7.330
  834SOL    HW2 2502   1.344   3.078   7.322
  835SOL     OW 2503   0.581   2.063   7.718
  835SOL    HW1 2504   0.576   2.058   7.818
  835SOL    HW2 2505   0.583   2.159   7.689
  836SOL     OW 2506   1.039   3.323   7.310
  836SOL    HW1 2507   0.993   3.395   7.258
  836SOL    HW2 2508   1.035   3.343   7.408
  837SOL     OW 2509   0.382   3.668   7.686
  837SOL    HW1 2510   0.432   3.582   7.692
  837SOL    HW2 2511   0.447   3.745   7.683
  838SOL     OW 2512   1.826   2.933   7.706
  838SOL    HW1 2513   1.764   2.918   7.630
  838SOL    HW2 2514   1.774   2.944   7.791
  839SOL     OW 2515   1.258   3.417   8.339
  839SOL    HW1 2516   1.264   3.340   8.403
  839SOL    HW2 2517   1.206   3.391   8.259
  840SOL     OW 2518   0.352   2.810   7.075
  840SOL    HW1 2519   0.434   2.849   7.033
  840SOL    HW2 2520   0.325   2.728   7.026
  841SOL     OW 2521   1.489   2.602   7.561
  841SOL    HW1 2522   1.484   2.537   7.636
  841SOL    HW2 2523   1.569   2.661   7.574
  842SOL     OW 2524   0.492   3.133   8.560
  842SOL    HW1 2525   0.442   3.134   8.474
  842SOL    HW2 2526   0.429   3.115   8.636
  843SOL     OW 2527   1.142   3.643   7.070
  843SOL    HW1 2528   1.082   3.581   7.120
  843SOL    HW2 2529   1.173   3.599   6.985
  844SOL     OW 2530   0.233   2.152   8.331
  844SOL    HW1 2531   0.153   2.212   8.318
  844SOL    HW2 2532   0.223   2.103   8.417
  845SOL     OW 2533   1.663   3.244   6.914
  845SOL    HW1 2534   1.631   3.338   6.904
  845SOL    HW2 2535   1.587   3.181   6.902
  846SOL     OW 2536   0.495   3.610   7.156
  846SOL    HW1 2537   0.528   3.649   7.242
  846SOL    HW2 2538   0.571   3.603   7.091
  847SOL     OW 2539   1.431   1.974   7.259
  847SOL    HW1 2540   1.407   1.937   7.169
  847SOL    HW2 2541   1.530   1.990   7.263
  848SOL     OW 2542   0.280   3.652   8.074
  848SOL    HW1 2543   0.337   3.587   8.124
  848SOL    HW2 2544   0.264   3.619   7.981
  849SOL     OW 2545   0.971   3.565   7.737
  849SOL    HW1 2546   1.051   3.508   7.758
  849SOL    HW2 2547   0.922   3.525   7.660
  850SOL     OW 2548   0.413   2.567   7.313
  850SOL    HW1 2549   0.458   2.477   7.310
  850SOL    HW2 2550   0.319   2.556   7.346
  851SOL     OW 2551   1.578   2.089   8.562
  851SOL    HW1 2552   1.573   2.126   8.654
  851SOL    HW2 2553   1.506   2.020   8.550
  852SOL     OW 2554   0.645   1.989   6.950
  852SOL    HW1 2555   0.743   1.967   6.957
  852SOL    HW2 2556   0.614   1.972   6.857
  853SOL     OW 2557   0.812   2.131   8.582
  853SOL    HW1 2558   0.879   2.070   8.625
  853SOL    HW2 2559   0.739   2.150   8.647
  854SOL     OW 2560   0.919   3.381   8.028
  854SOL    HW1 2561   0.896   3.356   7.934
  854SOL    HW2 2562   0.980   3.312   8.067
  855SOL     OW 2563   1.382   2.457   8.266
  855SOL    HW1 2564   1.410   2.414   8.351
  855SOL    HW2 2565   1.407   2.553   8.267
  856SOL     OW 2566   0.834   3.269   7.757
  856SOL    HW1 2567   0.924   3.283   7.715
  856SOL    HW2 2568   0.763   3.271   7.686
  857SOL     OW 2569   0.953   2.370   7.732
  857SOL    HW1 2570   0.928   2.361   7.636
  857SOL    HW2 2571   1.001   2.288   7.763
  858SOL     OW 2572   0.570   1.931   7.345
  858SOL    HW1 2573   0.489   1.932   7.403
  858SOL    HW2 2574   0.573   2.014   7.290
  859SOL     OW 2575   1.465   3.055   6.874
  859SOL    HW1 2576   1.497   2.979   6.931
  859SOL    HW2 2577   1.373   3.082   6.904
  860SOL     OW 2578   0.328   1.902   7.004
  860SOL    HW1 2579   0.377   1.986   6.983
  860SOL    HW2 2580   0.390   1.837   7.049
  861SOL     OW 2581   0.966   2.103   7.313
  861SOL    HW1 2582   0.918   2.144   7.235
  861SOL    HW2 2583   1.065   2.101   7.294
  862SOL     OW 2584   1.107   2.550   8.297
  862SOL    HW1 2585   1.027   2.489   8.300
  862SOL    HW2 2586   1.188   2.497   8.273
  863SOL     OW 2587   1.258   3.437   7.626
  863SOL    HW1 2588   1.279   3.511   7.561
  863SOL    HW2 2589   1.326   3.437   7.699
  864SOL     OW 2590   0.490   3.019   7.574
  864SOL    HW1 2591   0.419   2.992   7.639
  864SOL    HW2 2592   0.464   2.991   7.481
  865SOL     OW 2593   1.302   3.664   7.424
  865SOL    HW1 2594   1.346   3.728   7.360
  865SOL    HW2 2595   1.252   3.716   7.494
  866SOL     OW 2596   1.063   2.416   6.849
  866SOL    HW1 2597   1.022   2.498   6.810
  866SOL    HW2 2598   1.127   2.442   6.922
  867SOL     OW 2599   0.109   2.423   8.219
  867SOL    HW1 2600   0.201   2.422   8.178
  867SOL    HW2 2601   0.103   2.497   8.286
  868SOL     OW 2602   0.592   2.089   7.980
  868SOL    HW1 2603   0.630   2.005   8.017
  868SOL    HW2 2604   0.504   2.108   8.024
  869SOL     OW 2605   0.897   2.321   7.475
  869SOL    HW1 2606   0.865   2.393   7.413
  869SOL    HW2 2607   0.921   2.240   7.422
  870SOL     OW 2608   1.048   1.906   7.586
  870SOL    HW1 2609   0.976   1.911   7.517
  870SOL    HW2 2610   1.024   1.837   7.655
  871SOL     OW 2611   1.460   3.040   7.700
  871SOL    HW1 2612   1.405   2.956   7.693
  871SOL    HW2 2613   1.486   3.069   7.608
  872SOL     OW 2614   1.497   2.457   7.825
  872SOL    HW1 2615   1.467   2.362   7.832
  872SOL    HW2 2616   1.570   2.473   7.891
  873SOL     OW 2617   1.888   2.700   7.210
  873SOL    HW1 2618   1.930   2.636   7.274
  873SOL    HW2 2619   1.850   2.649   7.132
  874SOL     OW 2620   0.519   3.252   7.007
  874SOL    HW1 2621   0.432   3.237   7.054
  874SOL    HW2 2622   0.502   3.278   6.912
  875SOL     OW 2623   1.695   3.147   7.490
  875SOL    HW1 2624   1.794   3.155   7.504
  875SOL    HW2 2625   1.650   3.231   7.521
  876SOL     OW 2626   1.421   2.442   6.911
  876SOL    HW1 2627   1.367   2.421   6.992
  876SOL    HW2 2628   1.512   2.401   6.920
  877SOL     OW 2629   0.558   2.123   7.161
  877SOL    HW1 2630   0.585   2.064   7.086
  877SOL    HW2 2631   0.558   2.218   7.130
  878SOL     OW 2632   1.785   3.090   8.421
  878SOL    HW1 2633   1.876   3.051   8.408
  878SOL    HW2 2634   1.793   3.186   8.445
  879SOL     OW 2635   1.095   3.214   8.173
  879SOL    HW1 2636   1.015   3.191   8.228
  879SOL    HW2 2637   1.178   3.188   8.222
  880SOL     OW 2638   1.623   3.496   8.458
  880SOL    HW1 2639   1.650   3.530   8.368
  880SOL    HW2 2640   1.702   3.458   8.504
  881SOL     OW 2641   1.142   3.062   7.933
  881SOL    HW1 2642   1.102   3.106   8.014
  881SOL    HW2 2643   1.101   3.099   7.850
  882SOL     OW 2644   1.669   2.966   7.912
  882SOL    HW1 2645   1.674   3.047   7.971
  882SOL    HW2 2646   1.583   2.968   7.861
  883SOL     OW 2647   0.946   1.956   8.235
  883SOL    HW1 2648   0.971   1.936   8.140
  883SOL    HW2 2649   1.018   2.012   8.277
  884SOL     OW 2650   1.011   2.983   8.552
  884SOL    HW1 2651   0.912   2.989   8.562
  884SOL    HW2 2652   1.034   2.903   8.496
  885SOL     OW 2653   0.736   2.917   7.201
  885SOL    HW1 2654   0.722   2.924   7.300
  885SOL    HW2 2655   0.820   2.866   7.183
  886SOL     OW 2656   0.441   2.680   8.084
  886SOL    HW1 2657   0.527   2.692   8.134
  886SOL    HW2 2658   0.399   2.593   8.111
  887SOL     OW 2659   1.305   2.253   8.095
  887SOL    HW1 2660   1.326   2.327   8.159
  887SOL    HW2 2661   1.216   2.270   8.052
  888SOL     OW 2662   0.095   3.431   8.164
  888SOL    HW1 2663   0.049   3.513   8.130
  888SOL    HW2 2664   0.193   3.450   8.173
  889SOL     OW 2665   0.398   2.967   7.334
  889SOL    HW1 2666   0.391   3.050   7.278
  889SOL    HW2 2667   0.402   2.887   7.274
  890SOL     OW 2668   0.597   2.404   7.698
  890SOL    HW1 2669   0.609   2.470   7.624
  890SOL    HW2 2670   0.643   2.438   7.781
  891SOL     OW 2671   1.283   3.215   7.221
  891SOL    HW1 2672   1.333   3.292   7.261
  891SOL    HW2 2673   1.188   3.217   7.253
  892SOL     OW 2674   1.303   3.312   7.975
  892SOL    HW1 2675   1.350   3.325   8.062
  892SOL    HW2 2676   1.237   3.238   7.984
  893SOL     OW 2677   1.613   2.506   7.305
  893SOL    HW1 2678   1.582   2.567   7.378
  893SOL    HW2 2679   1.663   2.558   7.236
  894SOL     OW 2680   0.385   3.377   8.162
  894SOL    HW1 2681   0.364   3.333   8.075
  894SOL    HW2 2682   0.482   3.403   8.165
  895SOL     OW 2683   0.433   2.618   8.431
  895SOL    HW1 2684   0.501   2.673   8.384
  895SOL    HW2 2685   0.473   2.530   8.458
  896SOL     OW 2686   1.618   2.646   8.503
  896SOL    HW1 2687   1.526   2.684   8.498
  896SOL    HW2 2688   1.678   2.693   8.438
  897SOL     OW 2689   1.044   1.972   8.603
  897SOL    HW1 2690   1.050   2.057   8.551
  897SOL    HW2 2691   1.076   1.896   8.546
  898SOL     OW 2692   0.535   1.917   8.573
  898SOL    HW1 2693   0.493   1.860   8.503
  898SOL    HW2 2694   0.469   1.986   8.605
  899SOL     OW 2695   0.604   2.737   7.862
  899SOL    HW1 2696   0.648   2.826   7.853
  899SOL    HW2 2697   0.541   2.737   7.939
  900SOL     OW 2698   1.391   2.729   7.878
  900SOL    HW1 2699   1.316   2.729   7.812
  900SOL    HW2 2700   1.428   2.637   7.887
  901SOL     OW 2701   1.240   2.392   7.108
  901SOL    HW1 2702   1.253   2.308   7.162
  901SOL    HW2 2703   1.211   2.466   7.168
  902SOL     OW 2704   0.338   2.080   8.064
  902SOL    HW1 2705   0.315   2.117   8.154
  902SOL    HW2 2706   0.308   1.985   8.058
  903SOL     OW 2707   0.068   3.177   8.115
  903SOL    HW1 2708   0.121   3.128   8.183
  903SOL    HW2 2709   0.090   3.275   8.120
  904SOL     OW 2710   0.763   2.501   7.897
  904SOL    HW1 2711   0.822   2.475   7.821
  904SOL    HW2 2712   0.735   2.597   7.886
  905SOL     OW 2713   1.759   2.802   8.687
  905SOL    HW1 2714   1.713   2.795   8.598
  905SOL    HW2 2715   1.697   2.846   8.753
  906SOL     OW 2716   0.338   1.930   7.451
  906SOL    HW1 2717   0.327   2.024   7.484
  906SOL    HW2 2718   0.333   1.867   7.528
  907SOL     OW 2719   1.653   2.234   7.207
  907SOL    HW1 2720   1.655   2.158   7.271
  907SOL    HW2 2721   1.605   2.311   7.247
  908SOL     OW 2722   1.054   2.633   7.799
  908SOL    HW1 2723   1.069   2.654   7.895
  908SOL    HW2 2724   1.024   2.538   7.790
  909SOL     OW 2725   1.011   3.440   8.533
  909SOL    HW1 2726   0.991   3.484   8.445
  909SOL    HW2 2727   1.050   3.349   8.517
  910SOL     OW 2728   1.890   3.385   8.438
  910SOL    HW1 2729   1.904   3.412   8.343
  910SOL    HW2 2730   1.973   3.407   8.491
  911SOL     OW 2731   0.381   2.765   8.637
  911SOL    HW1 2732   0.457   2.809   8.685
  911SOL    HW2 2733   0.416   2.718   8.555
  912SOL     OW 2734   1.571   2.141   6.958
  912SOL    HW1 2735   1.510   2.066   6.981
  912SOL    HW2 2736   1.593   2.193   7.041
  913SOL     OW 2737   1.334   2.705   6.875
  913SOL    HW1 2738   1.368   2.612   6.890
  913SOL    HW2 2739   1.352   2.732   6.780
  914SOL     OW 2740   1.099   3.200   7.682
  914SOL    HW1 2741   1.106   3.116   7.627
  914SOL    HW2 2742   1.161   3.269   7.646
  915SOL     OW 2743   0.350   2.677   7.782
  915SOL    HW1 2744   0.443   2.713   7.787
  915SOL    HW2 2745   0.344   2.592   7.834
  916SOL     OW 2746   0.370   2.376   7.839
  916SOL    HW1 2747   0.318   2.293   7.822
  916SOL    HW2 2748   0.447   2.381   7.775
  917SOL     OW 2749   1.169   2.247   8.511
  917SOL    HW1 2750   1.124   2.310   8.575
  917SOL    HW2 2751   1.262   2.278   8.494
  918SOL     OW 2752   1.191   2.074   8.310
  918SOL    HW1 2753   1.191   2.138   8.387
  918SOL    HW2 2754   1.219   2.122   8.227
  919SOL     OW 2755   0.039   3.193   7.033
  919SOL    HW1 2756  -0.054   3.214   7.002
  919SOL    HW2 2757   0.049   3.094   7.046
  920SOL     OW 2758   0.119   3.668   7.760
  920SOL    HW1 2759   0.077   3.582   7.733
  920SOL    HW2 2760   0.213   3.671   7.726
  921SOL     OW 2761   0.535   3.435   7.743
  921SOL    HW1 2762   0.601   3.509   7.752
  921SOL    HW2 2763   0.579   3.356   7.701
  922SOL     OW 2764   1.033   2.663   8.071
  922SOL    HW1 2765   1.074   2.631   8.157
  922SOL    HW2 2766   0.937   2.636   8.068
  923SOL     OW 2767   0.071   2.411   7.947
  923SOL    HW1 2768   0.156   2.378   7.906
  923SOL    HW2 2769   0.084   2.426   8.045
  924SOL     OW 2770   0.220   2.387   8.555
  924SOL    HW1 2771   0.279   2.347   8.485
  924SOL    HW2 2772   0.162   2.458   8.514
  925SOL     OW 2773   1.400   2.817   8.493
  925SOL    HW1 2774   1.439   2.906   8.513
  925SOL    HW2 2775   1.410   2.797   8.396
  926SOL     OW 2776   0.846   2.439   7.158
  926SOL    HW1 2777   0.853   2.350   7.112
  926SOL    HW2 2778   0.752   2.473   7.150
  927SOL     OW 2779   1.688   2.471   8.039
  927SOL    HW1 2780   1.650   2.402   8.101
  927SOL    HW2 2781   1.770   2.435   7.995
  928SOL     OW 2782   0.283   3.431   8.577
  928SOL    HW1 2783   0.253   3.488   8.653
  928SOL    HW2 2784   0.276   3.334   8.603
  929SOL     OW 2785   0.702   2.331   8.102
  929SOL    HW1 2786   0.668   2.242   8.072
  929SOL    HW2 2787   0.728   2.385   8.022
  930SOL     OW 2788   0.961   3.545   8.298
  930SOL    HW1 2789   0.937   3.527   8.203
  930SOL    HW2 2790   0.991   3.639   8.308
  931SOL     OW 2791   0.504   2.367   7.024
  931SOL    HW1 2792   0.565   2.447   7.028
  931SOL    HW2 2793   0.409   2.398   7.031
  932SOL     OW 2794   0.190   3.004   8.299
  932SOL    HW1 2795   0.212   2.943   8.375
  932SOL    HW2 2796   0.200   2.955   8.213
  933SOL     OW 2797   1.378   2.926   8.067
  933SOL    HW1 2798   1.402   2.863   7.993
  933SOL    HW2 2799   1.288   2.966   8.049
  934SOL     OW 2800   1.333   2.722   7.142
  934SOL    HW1 2801   1.247   2.691   7.184
  934SOL    HW2 2802   1.329   2.708   7.043
  935SOL     OW 2803   1.790   3.614   7.987
  935SOL    HW1 2804   1.851   3.644   7.914
  935SOL    HW2 2805   1.752   3.525   7.965
  936SOL     OW 2806   1.283   3.598   7.961
  936SOL    HW1 2807   1.367   3.603   7.907
  936SOL    HW2 2808   1.260   3.502   7.979
  937SOL     OW 2809   0.114   3.125   7.855
  937SOL    HW1 2810   0.109   3.124   7.955
  937SOL    HW2 2811   0.031   3.084   7.817
  938SOL     OW 2812   0.719   3.529   8.549
  938SOL    HW1 2813   0.663   3.610   8.558
  938SOL    HW2 2814   0.771   3.533   8.463
  939SOL     OW 2815   1.757   2.002   7.356
  939SOL    HW1 2816   1.830   1.985   7.289
  939SOL    HW2 2817   1.726   1.915   7.394
  940SOL     OW 2818   1.419   3.440   7.310
  940SOL    HW1 2819   1.486   3.452   7.236
  940SOL    HW2 2820   1.379   3.529   7.333
  941SOL     OW 2821   0.161   3.661   8.684
  941SOL    HW1 2822   0.120   3.587   8.737
  941SOL    HW2 2823   0.225   3.712   8.742
  942SOL     OW 2824   1.311   2.794   7.505
  942SOL    HW1 2825   1.371   2.713   7.507
  942SOL    HW2 2826   1.351   2.863   7.445
  943SOL     OW 2827   0.861   3.140   8.255
  943SOL    HW1 2828   0.856   3.173   8.350
  943SOL    HW2 2829   0.775   3.159   8.209
  944SOL     OW 2830   0.703   3.483   6.987
  944SOL    HW1 2831   0.712   3.493   6.888
  944SOL    HW2 2832   0.663   3.394   7.008
  945SOL     OW 2833   1.681   3.587   8.227
  945SOL    HW1 2834   1.734   3.597   8.143
  945SOL    HW2 2835   1.654   3.677   8.261
  946SOL     OW 2836   1.872   2.042   7.796
  946SOL    HW1 2837   1.911   1.957   7.760
  946SOL    HW2 2838   1.774   2.044   7.777
  947SOL     OW 2839   0.294   2.193   7.553
  947SOL    HW1 2840   0.215   2.244   7.519
  947SOL    HW2 2841   0.285   2.178   7.651
  948SOL     OW 2842   1.225   3.479   6.864
  948SOL    HW1 2843   1.231   3.386   6.901
  948SOL    HW2 2844   1.166   3.479   6.784
  949SOL     OW 2845   0.853   2.869   8.205
  949SOL    HW1 2846   0.893   2.868   8.113
  949SOL    HW2 2847   0.863   2.961   8.245
  950SOL     OW 2848   0.947   2.777   7.124
  950SOL    HW1 2849   1.010   2.815   7.056
  950SOL    HW2 2850   0.987   2.694   7.163
  951SOL     OW 2851   1.535   3.474   6.877
  951SOL    HW1 2852   1.443   3.511   6.884
  951SOL    HW2 2853   1.573   3.494   6.787
  952SOL     OW 2854   0.403   3.155   8.323
  952SOL    HW1 2855   0.390   3.248   8.289
  952SOL    HW2 2856   0.319   3.103   8.310
  953SOL     OW 2857   1.645   3.159   8.122
  953SOL    HW1 2858   1.705   3.162   8.202
  953SOL    HW2 2859   1.570   3.223   8.135
  954SOL     OW 2860   1.070   2.965   7.529
  954SOL    HW1 2861   1.000   2.918   7.583
  954SOL    HW2 2862   1.129   2.897   7.486
  955SOL     OW 2863   1.045   2.103   7.804
  955SOL    HW1 2864   1.037   2.067   7.711
  955SOL    HW2 2865   1.043   2.027   7.869
  956SOL     OW 2866   0.621   3.354   7.324
  956SOL    HW1 2867   0.663   3.296   7.254
  956SOL    HW2 2868   0.577   3.433   7.280
  957SOL     OW 2869   1.740   2.252   8.214
  957SOL    HW1 2870   1.813   2.321   8.218
  957SOL    HW2 2871   1.768   2.177   8.155
  958SOL     OW 2872   0.286   3.215   7.123
  958SOL    HW1 2873   0.190   3.216   7.096
  958SOL    HW2 2874   0.298   3.268   7.207
  959SOL     OW 2875   0.136   2.880   8.559
  959SOL    HW1 2876   0.059   2.847   8.613
  959SOL    HW2 2877   0.221   2.850   8.601
  960SOL     OW 2878   0.703   2.070   8.322
  960SOL    HW1 2879   0.793   2.054   8.282
  960SOL    HW2 2880   0.711   2.075   8.421
  961SOL     OW 2881   0.106   2.212   6.866
  961SOL    HW1 2882   0.014   2.184   6.837
  961SOL    HW2 2883   0.137   2.289   6.810
  962SOL     OW 2884   1.471   2.723   8.231
  962SOL    HW1 2885   1.414   2.775   8.168
  962SOL    HW2 2886   1.567   2.735   8.207
  963SOL     OW 2887   0.103   2.033   7.151
  963SOL    HW1 2888   0.086   2.116   7.097
  963SOL    HW2 2889   0.193   1.996   7.129
  964SOL     OW 2890   1.214   3.202   6.952
  964SOL    HW1 2891   1.115   3.191   6.954
  964SOL    HW2 2892   1.248   3.217   7.045
  965SOL     OW 2893   0.644   2.709   8.264
  965SOL    HW1 2894   0.700   2.790   8.247
  965SOL    HW2 2895   0.703   2.629   8.267
  966SOL     OW 2896   1.524   3.634   7.792
  966SOL    HW1 2897   1.557   3.698   7.723
  966SOL    HW2 2898   1.590   3.628   7.867
  967SOL     OW 2899   0.747   2.432   8.541
  967SOL    HW1 2900   0.766   2.497   8.615
  967SOL    HW2 2901   0.807   2.352   8.550
  968SOL     OW 2902   1.481   3.087   8.466
  968SOL    HW1 2903   1.472   3.077   8.565
  968SOL    HW2 2904   1.577   3.080   8.440
  969SOL     OW 2905   0.421   3.608   8.393
  969SOL    HW1 2906   0.330   3.649   8.391
  969SOL    HW2 2907   0.414   3.514   8.425
  970SOL     OW 2908   1.705   2.750   8.087
  970SOL    HW1 2909   1.678   2.661   8.050
  970SOL    HW2 2910   1.706   2.818   8.014
  971SOL     OW 2911   1.256   2.192   7.282
  971SOL    HW1 2912   1.321   2.118   7.271
  971SOL    HW2 2913   1.276   2.242   7.366
  972SOL     OW 2914   0.625   2.612   7.485
  972SOL    HW1 2915   0.675   2.697   7.466
  972SOL    HW2 2916   0.537   2.614   7.437
  973SOL     OW 2917   1.808   2.209   8.475
  973SOL    HW1 2918   1.791   2.240   8.381
  973SOL    HW2 2919   1.724   2.172   8.513
  974SOL     OW 2920   1.761   2.801   8.350
  974SOL    HW1 2921   1.799   2.892   8.365
  974SOL    HW2 2922   1.753   2.784   8.251
  975SOL     OW 2923   0.890   3.241   6.849
  975SOL    HW1 2924   0.844   3.256   6.937
  975SOL    HW2 2925   0.934   3.326   6.819
  976SOL     OW 2926   0.692   3.657   7.786
  976SOL    HW1 2927   0.646   3.745   7.773
  976SOL    HW2 2928   0.791   3.669   7.779
  977SOL     OW 2929   0.890   2.823   7.694
  977SOL    HW1 2930   0.944   2.754   7.742
  977SOL    HW2 2931   0.858   2.892   7.760
  978SOL     OW 2932   1.114   2.851   6.920
  978SOL    HW1 2933   1.091   2.904   6.838
  978SOL    HW2 2934   1.195   2.795   6.901
  979SOL     OW 2935   1.892   3.436   7.684
  979SOL    HW1 2936   1.821   3.424   7.614
  979SOL    HW2 2937   1.893   3.357   7.744
  980SOL     OW 2938   0.252   3.181   8.677
  980SOL    HW1 2939   0.187   3.108   8.656
  980SOL    HW2 2940   0.256   3.195   8.775
  981SOL     OW 2941   0.110   3.107   7.486
  981SOL    HW1 2942   0.109   3.060   7.574
  981SOL    HW2 2943   0.192   3.079   7.435
  982SOL     OW 2944   0.703   3.258   8.457
  982SOL    HW1 2945   0.625   3.208   8.495
  982SOL    HW2 2946   0.700   3.353   8.488
  983SOL     OW 2947   1.855   2.059   8.060
  983SOL    HW1 2948   1.851   1.969   8.104
  983SOL    HW2 2949   1.858   2.048   7.961
  984SOL     OW 2950   0.459   2.291   7.353
  984SOL    HW1 2951   0.489   2.219   7.291
  984SOL    HW2 2952   0.420   2.251   7.436
  985SOL     OW 2953   1.736   3.354   7.937
  985SOL    HW1 2954   1.643   3.329   7.910
  985SOL    HW2 2955   1.762   3.304   8.019
  986SOL     OW 2956   0.348   2.414   8.113
  986SOL    HW1 2957   0.386   2.355   8.185
  986SOL    HW2 2958   0.388   2.388   8.025
  987SOL     OW 2959   0.843   3.453   7.520
  987SOL    HW1 2960   0.875   3.463   7.426
  987SOL    HW2 2961   0.764   3.391   7.522
  988SOL     OW 2962   1.455   2.081   7.945
  988SOL    HW1 2963   1.507   2.016   8.000
  988SOL    HW2 2964   1.406   2.144   8.006
  989SOL     OW 2965   1.032   1.901   7.987
  989SOL    HW1 2966   0.969   1.829   7.956
  989SOL    HW2 2967   1.125   1.865   7.987
  990SOL     OW 2968   0.801   3.197   7.134
  990SOL    HW1 2969   0.755   3.110   7.151
  990SOL    HW2 2970   0.892   3.194   7.175
  991SOL     OW 2971   0.649   3.434   8.117
  991SOL    HW1 2972   0.644   3.516   8.174
  991SOL    HW2 2973   0.738   3.431   8.072
  992SOL     OW 2974   1.383   1.919   7.001
  992SOL    HW1 2975   1.418   1.878   6.917
  992SOL    HW2 2976   1.293   1.881   7.021
  993SOL     OW 2977   1.331   2.320   7.524
  993SOL    HW1 2978   1.272   2.400   7.528
  993SOL    HW2 2979   1.346   2.285   7.617
  994SOL     OW 2980   1.624   2.088   7.715
  994SOL    HW1 2981   1.540   2.087   7.769
  994SOL    HW2 2982   1.626   2.171   7.659
  995SOL     OW 2983   0.070   2.944   7.133
  995SOL    HW1 2984   0.169   2.933   7.124
  995SOL    HW2 2985   0.030   2.858   7.165
  996SOL     OW 2986   0.906   3.513   7.170
  996SOL    HW1 2987   0.829   3.478   7.116
  996SOL    HW2 2988   0.874   3.584   7.232
  997SOL     OW 2989   0.261   2.495   8.808
  997SOL    HW1 2990   0.168   2.493   8.845
  997SOL    HW2 2991   0.262   2.456   8.716
  998SOL     OW 2992   0.256   2.142   9.691
  998SOL    HW1 2993   0.291   2.125   9.783
  998SOL    HW2 2994   0.168   2.097   9.679
  999SOL     OW 2995   0.050   2.235   9.342
  999SOL    HW1 2996  -0.032   2.278   9.381
  999SOL    HW2 2997   0.022   2.162   9.279
 1000SOL     OW 2998   0.600   3.142   9.860
 1000SOL    HW1 2999   0.507   3.135   9.823
 1000SOL    HW2 3000   0.611   3.231   9.904
 1001SOL     OW 3001   1.586   3.378   9.398
 1001SOL    HW1 3002   1.529   3.362   9.479
 1001SOL    HW2 3003   1.527   3.388   9.318
 1002SOL     OW 3004   1.166   2.570   9.412
 1002SOL    HW1 3005   1.223   2.648   9.387
 1002SOL    HW2 3006   1.106   2.596   9.488
 1003SOL     OW 3007   1.786   2.474   8.926
 1003SOL    HW1 3008   1.774   2.461   8.827
 1003SOL    HW2 3009   1.756   2.393   8.975
 1004SOL     OW 3010   0.799   3.011   9.718
 1004SOL    HW1 3011   0.721   3.028   9.778
 1004SOL    HW2 3012   0.833   3.098   9.682
 1005SOL     OW 3013   0.716   2.879   9.360
 1005SOL    HW1 3014   0.785   2.863   9.430
 1005SOL    HW2 3015   0.643   2.936   9.398
 1006SOL     OW 3016   0.366   3.302   9.756
 1006SOL    HW1 3017   0.288   3.271   9.703
 1006SOL    HW2 3018   0.424   3.360   9.699
 1007SOL     OW 3019   1.634   2.314   9.432
 1007SOL    HW1 3020   1.560   2.360   9.382
 1007SOL    HW2 3021   1.685   2.382   9.485
 1008SOL     OW 3022   0.262   3.580   9.178
 1008SOL    HW1 3023   0.296   3.657   9.232
 1008SOL    HW2 3024   0.306   3.580   9.088
 1009SOL     OW 3025   0.261   3.301   9.233
 1009SOL    HW1 3026   0.235   3.397   9.233
 1009SOL    HW2 3027   0.190   3.247   9.278
 1010SOL     OW 3028   0.271   2.958   9.581
 1010SOL    HW1 3029   0.285   2.874   9.633
 1010SOL    HW2 3030   0.216   3.022   9.636
 1011SOL     OW 3031   0.637   2.831   8.818
 1011SOL    HW1 3032   0.644   2.915   8.764
 1011SOL    HW2 3033   0.683   2.844   8.906
 1012SOL     OW 3034   0.153   2.510   9.258
 1012SOL    HW1 3035   0.108   2.422   9.275
 1012SOL    HW2 3036   0.152   2.564   9.342
 1013SOL     OW 3037   1.873   3.634   9.054
 1013SOL    HW1 3038   1.927   3.605   9.134
 1013SOL    HW2 3039   1.903   3.724   9.025
 1014SOL     OW 3040   0.058   3.463   8.812
 1014SOL    HW1 3041   0.039   3.367   8.833
 1014SOL    HW2 3042   0.025   3.521   8.887
 1015SOL     OW 3043   1.720   2.789   9.307
 1015SOL    HW1 3044   1.815   2.760   9.315
 1015SOL    HW2 3045   1.712   2.854   9.232
 1016SOL     OW 3046   1.672   2.975   9.127
 1016SOL    HW1 3047   1.758   2.977   9.075
 1016SOL    HW2 3048   1.686   3.022   9.215
 1017SOL     OW 3049   0.644   3.232   9.421
 1017SOL    HW1 3050   0.595   3.145   9.430
 1017SOL    HW2 3051   0.621   3.275   9.334
 1018SOL     OW 3052   0.840   1.871   9.197
 1018SOL    HW1 3053   0.880   1.962   9.188
 1018SOL    HW2 3054   0.740   1.879   9.203
 1019SOL     OW 3055   0.228   2.843   9.959
 1019SOL    HW1 3056   0.317   2.798   9.945
 1019SOL    HW2 3057   0.155   2.778   9.940
 1020SOL     OW 3058   1.556   2.866   8.885
 1020SOL    HW1 3059   1.493   2.790   8.898
 1020SOL    HW2 3060   1.604   2.884   8.971
 1021SOL     OW 3061   1.497   3.284   9.648
 1021SOL    HW1 3062   1.438   3.290   9.728
 1021SOL    HW2 3063   1.482   3.196   9.602
 1022SOL     OW 3064   1.698   3.581   9.267
 1022SOL    HW1 3065   1.657   3.558   9.179
 1022SOL    HW2 3066   1.680   3.507   9.332
 1023SOL     OW 3067   0.629   2.596   8.965
 1023SOL    HW1 3068   0.653   2.665   8.897
 1023SOL    HW2 3069   0.551   2.629   9.019
 1024SOL     OW 3070   1.312   2.212   9.639
 1024SOL    HW1 3071   1.226   2.162   9.626
 1024SOL    HW2 3072   1.374   2.158   9.695
 1025SOL     OW 3073   1.607   3.529   9.002
 1025SOL    HW1 3074   1.696   3.575   9.005
 1025SOL    HW2 3075   1.586   3.505   8.907
 1026SOL     OW 3076   1.072   2.568   9.124
 1026SOL    HW1 3077   1.098   2.564   9.220
 1026SOL    HW2 3078   0.987   2.517   9.110
 1027SOL     OW 3079   0.107   2.678   9.484
 1027SOL    HW1 3080   0.206   2.666   9.493
 1027SOL    HW2 3081   0.083   2.773   9.505
 1028SOL     OW 3082   0.161   3.688  10.266
 1028SOL    HW1 3083   0.151   3.673  10.365
 1028SOL    HW2 3084   0.075   3.724  10.230
 1029SOL     OW 3085   0.896   2.215   8.890
 1029SOL    HW1 3086   0.955   2.278   8.841
 1029SOL    HW2 3087   0.915   2.121   8.861
 1030SOL     OW 3088   1.393   3.011   9.240
 1030SOL    HW1 3089   1.476   2.982   9.192
 1030SOL    HW2 3090   1.344   3.078   9.184
 1031SOL     OW 3091   0.581   2.063   9.580
 1031SOL    HW1 3092   0.576   2.058   9.680
 1031SOL    HW2 3093   0.583   2.159   9.551
 1032SOL     OW 3094   1.039   3.323   9.172
 1032SOL    HW1 3095   0.993   3.395   9.120
 1032SOL    HW2 3096   1.035   3.343   9.270
 1033SOL     OW 3097   0.382   3.668   9.548
 1033SOL    HW1 3098   0.432   3.582   9.554
 1033SOL    HW2 3099   0.447   3.745   9.545
 1034SOL     OW 3100   1.826   2.933   9.568
 1034SOL    HW1 3101   1.764   2.918   9.492
 1034SOL    HW2 3102   1.774   2.944   9.653
 1035SOL     OW 3103   0.352   2.810   8.937
 1035SOL    HW1 3104   0.434   2.849   8.895
 1035SOL    HW2 3105   0.325   2.728   8.888
 1036SOL     OW 3106   1.489   2.602   9.423
 1036SOL    HW1 3107   1.484   2.537   9.498
 1036SOL    HW2 3108   1.569   2.661   9.436
 1037SOL     OW 3109   1.142   3.643   8.932
 1037SOL    HW1 3110   1.082   3.581   8.982
 1037SOL    HW2 3111   1.173   3.599   8.847
 1038SOL     OW 3112   1.663   3.244   8.776
 1038SOL    HW1 3113   1.631   3.338   8.766
 1038SOL    HW2 3114   1.587   3.181   8.764
 1039SOL     OW 3115   0.495   3.610   9.018
 1039SOL    HW1 3116   0.528   3.649   9.104
 1039SOL    HW2 3117   0.571   3.603   8.953
 1040SOL     OW 3118   1.431   1.974   9.121
 1040SOL    HW1 3119   1.407   1.937   9.031
 1040SOL    HW2 3120   1.530   1.990   9.125
 1041SOL     OW 3121   0.280   3.652   9.936
 1041SOL    HW1 3122   0.337   3.587   9.986
 1041SOL    HW2 3123   0.264   3.619   9.843
 1042SOL     OW 3124   0.971   3.565   9.599
 1042SOL    HW1 3125   1.051   3.508   9.620
 1042SOL    HW2 3126   0.922   3.525   9.522
 1043SOL     OW 3127   0.413   2.567   9.175
 1043SOL    HW1 3128   0.458   2.477   9.172
 1043SOL    HW2 3129   0.319   2.556   9.208
 1044SOL     OW 3130   0.645   1.989   8.812
 1044SOL    HW1 3131   0.743   1.967   8.819
 1044SOL    HW2 3132   0.614   1.972   8.719
 1045SOL     OW 3133   0.834   3.269   9.619
 1045SOL    HW1 3134   0.924   3.283   9.577
 1045SOL    HW2 3135   0.763   3.271   9.548
 1046SOL     OW 3136   0.953   2.370   9.594
 1046SOL    HW1 3137   0.928   2.361   9.498
 1046SOL    HW2 3138   1.001   2.288   9.625
 1047SOL     OW 3139   0.570   1.931   9.207
 1047SOL    HW1 3140   0.489   1.932   9.265
 1047SOL    HW2 3141   0.573   2.014   9.152
 1048SOL     OW 3142   1.465   3.055   8.736
 1048SOL    HW1 3143   1.497   2.979   8.793
 1048SOL    HW2 3144   1.373   3.082   8.766
 1049SOL     OW 3145   0.328   1.902   8.866
 1049SOL    HW1 3146   0.377   1.986   8.845
 1049SOL    HW2 3147   0.390   1.837   8.911
 1050SOL     OW 3148   0.966   2.103   9.175
 1050SOL    HW1 3149   0.918   2.144   9.097
 1050SOL    HW2 3150   1.065   2.101   9.156
 1051SOL     OW 3151   1.258   3.437   9.488
 1051SOL    HW1 3152   1.279   3.511   9.423
 1051SOL    HW2 3153   1.326   3.437   9.561
 1052SOL     OW 3154   0.490   3.019   9.436
 1052SOL    HW1 3155   0.419   2.992   9.501
 1052SOL    HW2 3156   0.464   2.991   9.343
 1053SOL     OW 3157   1.302   3.664   9.286
 1053SOL    HW1 3158   1.346   3.728   9.222
 1053SOL    HW2 3159   1.252   3.716   9.356
 1054SOL     OW 3160   1.063   2.416   8.711
 1054SOL    HW1 3161   1.022   2.498   8.672
 1054SOL    HW2 3162   1.127   2.442   8.784
 1055SOL     OW 3163   0.897   2.321   9.337
 1055SOL    HW1 3164   0.865   2.393   9.275
 1055SOL    HW2 3165   0.921   2.240   9.284
 1056SOL     OW 3166   1.048   1.906   9.448
 1056SOL    HW1 3167   0.976   1.911   9.379
 1056SOL    HW2 3168   1.024   1.837   9.517
 1057SOL     OW 3169   1.460   3.040   9.562
 1057SOL    HW1 3170   1.405   2.956   9.555
 1057SOL    HW2 3171   1.486   3.069   9.470
 1058SOL     OW 3172   1.497   2.457   9.687
 1058SOL    HW1 3173   1.467   2.362   9.694
 1058SOL    HW2 3174   1.570   2.473   9.753
 1059SOL     OW 3175   1.888   2.700   9.072
 1059SOL    HW1 3176   1.930   2.636   9.136
 1059SOL    HW2 3177   1.850   2.649   8.994
 1060SOL     OW 3178   0.519   3.252   8.869
 1060SOL    HW1 3179   0.432   3.237   8.916
 1060SOL    HW2 3180   0.502   3.278   8.774
 1061SOL     OW 3181   1.695   3.147   9.352
 1061SOL    HW1 3182   1.794   3.155   9.366
 1061SOL    HW2 3183   1.650   3.231   9.383
 1062SOL     OW 3184   1.421   2.442   8.773
 1062SOL    HW1 3185   1.367   2.421   8.854
 1062SOL    HW2 3186   1.512   2.401   8.782
 1063SOL     OW 3187   0.558   2.123   9.023
 1063SOL    HW1 3188   0.585   2.064   8.948
 1063SOL    HW2 3189   0.558   2.218   8.992
 1064SOL     OW 3190   1.142   3.062   9.795
 1064SOL    HW1 3191   1.102   3.106   9.876
 1064SOL    HW2 3192   1.101   3.099   9.712
 1065SOL     OW 3193   1.669   2.966   9.774
 1065SOL    HW1 3194   1.674   3.047   9.833
 1065SOL    HW2 3195   1.583   2.968   9.723
 1066SOL     OW 3196   0.736   2.917   9.063
 1066SOL    HW1 3197   0.722   2.924   9.162
 1066SOL    HW2 3198   0.820   2.866   9.045
 1067SOL     OW 3199   0.441   2.680   9.946
 1067SOL    HW1 3200   0.527   2.692   9.996
 1067SOL    HW2 3201   0.399   2.593   9.973
 1068SOL     OW 3202   0.398   2.967   9.196
 1068SOL    HW1 3203   0.391   3.050   9.140
 1068SOL    HW2 3204   0.402   2.887   9.136
 1069SOL     OW 3205   0.597   2.404   9.560
 1069SOL    HW1 3206   0.609   2.470   9.486
 1069SOL    HW2 3207   0.643   2.438   9.643
 1070SOL     OW 3208   1.283   3.215   9.083
 1070SOL    HW1 3209   1.333   3.292   9.123
 1070SOL    HW2 3210   1.188   3.217   9.115
 1071SOL     OW 3211   1.303   3.312   9.837
 1071SOL    HW1 3212   1.350   3.325   9.924
 1071SOL    HW2 3213   1.237   3.238   9.846
 1072SOL     OW 3214   1.613   2.506   9.167
 1072SOL    HW1 3215   1.582   2.567   9.240
 1072SOL    HW2 3216   1.663   2.558   9.098
 1073SOL     OW 3217   0.604   2.737   9.724
 1073SOL    HW1 3218   0.648   2.826   9.715
 1073SOL    HW2 3219   0.541   2.737   9.801
 1074SOL     OW 3220   1.391   2.729   9.740
 1074SOL    HW1 3221   1.316   2.729   9.674
 1074SOL    HW2 3222   1.428   2.637   9.749
 1075SOL     OW 3223   1.240   2.392   8.970
 1075SOL    HW1 3224   1.253   2.308   9.024
 1075SOL    HW2 3225   1.211   2.466   9.030
 1076SOL     OW 3226   0.338   2.080   9.926
 1076SOL    HW1 3227   0.315   2.117  10.016
 1076SOL    HW2 3228   0.308   1.985   9.920
 1077SOL     OW 3229   0.068   3.177   9.977
 1077SOL    HW1 3230   0.121   3.128  10.045
 1077SOL    HW2 3231   0.090   3.275   9.982
 1078SOL     OW 3232   0.763   2.501   9.759
 1078SOL    HW1 3233   0.822   2.475   9.683
 1078SOL    HW2 3234   0.735   2.597   9.748
 1079SOL     OW 3235   0.338   1.930   9.313
 1079SOL    HW1 3236   0.327   2.024   9.346
 1079SOL    HW2 3237   0.333   1.867   9.390
 1080SOL     OW 3238   1.653   2.234   9.069
 1080SOL    HW1 3239   1.655   2.158   9.133
 1080SOL    HW2 3240   1.605   2.311   9.109
 1081SOL     OW 3241   1.054   2.633   9.661
 1081SOL    HW1 3242   1.069   2.654   9.757
 1081SOL    HW2 3243   1.024   2.538   9.652
 1082SOL     OW 3244   1.571   2.141   8.820
 1082SOL    HW1 3245   1.510   2.066   8.843
 1082SOL    HW2 3246   1.593   2.193   8.903
 1083SOL     OW 3247   1.334   2.705   8.737
 1083SOL    HW1 3248   1.368   2.612   8.752
 1083SOL    HW2 3249   1.352   2.732   8.642
 1084SOL     OW 3250   1.099   3.200   9.544
 1084SOL    HW1 3251   1.106   3.116   9.489
 1084SOL    HW2 3252   1.161   3.269   9.508
 1085SOL     OW 3253   0.350   2.677   9.644
 1085SOL    HW1 3254   0.443   2.713   9.649
 1085SOL    HW2 3255   0.344   2.592   9.696
 1086SOL     OW 3256   0.370   2.376   9.701
 1086SOL    HW1 3257   0.318   2.293   9.684
 1086SOL    HW2 3258   0.447   2.381   9.637
 1087SOL     OW 3259   1.191   2.074  10.172
 1087SOL    HW1 3260   1.191   2.138  10.249
 1087SOL    HW2 3261   1.219   2.122  10.089
 1088SOL     OW 3262   0.039   3.193   8.895
 1088SOL    HW1 3263  -0.054   3.214   8.864
 1088SOL    HW2 3264   0.049   3.094   8.908
 1089SOL     OW 3265   0.119   3.668   9.622
 1089SOL    HW1 3266   0.077   3.582   9.595
 1089SOL    HW2 3267   0.213   3.671   9.588
 1090SOL     OW 3268   0.535   3.435   9.605
 1090SOL    HW1 3269   0.601   3.509   9.614
 1090SOL    HW2 3270   0.579   3.356   9.563
 1091SOL     OW 3271   1.033   2.663   9.933
 1091SOL    HW1 3272   1.074   2.631  10.019
 1091SOL    HW2 3273   0.937   2.636   9.930
 1092SOL     OW 3274   0.071   2.411   9.809
 1092SOL    HW1 3275   0.156   2.378   9.768
 1092SOL    HW2 3276   0.084   2.426   9.907
 1093SOL     OW 3277   0.846   2.439   9.020
 1093SOL    HW1 3278   0.853   2.350   8.974
 1093SOL    HW2 3279   0.752   2.473   9.012
 1094SOL     OW 3280   1.688   2.471   9.901
 1094SOL    HW1 3281   1.650   2.402   9.963
 1094SOL    HW2 3282   1.770   2.435   9.857
 1095SOL     OW 3283   0.702   2.331   9.964
 1095SOL    HW1 3284   0.668   2.242   9.934
 1095SOL    HW2 3285   0.728   2.385   9.884
 1096SOL     OW 3286   0.504   2.367   8.886
 1096SOL    HW1 3287   0.565   2.447   8.890
 1096SOL    HW2 3288   0.409   2.398   8.893
 1097SOL     OW 3289   1.378   2.926   9.929
 1097SOL    HW1 3290   1.402   2.863   9.855
 1097SOL    HW2 3291   1.288   2.966   9.911
 1098SOL     OW 3292   1.333   2.722   9.004
 1098SOL    HW1 3293   1.247   2.691   9.046
 1098SOL    HW2 3294   1.329   2.708   8.905
 1099SOL     OW 3295   1.790   3.614   9.849
 1099SOL    HW1 3296   1.851   3.644   9.776
 1099SOL    HW2 3297   1.752   3.525   9.827
 1100SOL     OW 3298   0.114   3.125   9.717
 1100SOL    HW1 3299   0.109   3.124   9.817
 1100SOL    HW2 3300   0.031   3.084   9.679
 1101SOL     OW 3301   1.757   2.002   9.218
 1101SOL    HW1 3302   1.830   1.985   9.151
 1101SOL    HW2 3303   1.726   1.915   9.256
 1102SOL     OW 3304   1.419   3.440   9.172
 1102SOL    HW1 3305   1.486   3.452   9.098
 1102SOL    HW2 3306   1.379   3.529   9.195
 1103SOL     OW 3307   1.311   2.794   9.367
 1103SOL    HW1 3308   1.371   2.713   9.369
 1103SOL    HW2 3309   1.351   2.863   9.307
 1104SOL     OW 3310   0.703   3.483   8.849
 1104SOL    HW1 3311   0.712   3.493   8.750
 1104SOL    HW2 3312   0.663   3.394   8.870
 1105SOL     OW 3313   1.681   3.587  10.089
 1105SOL    HW1 3314   1.734   3.597  10.005
 1105SOL    HW2 3315   1.654   3.677  10.123
 1106SOL     OW 3316   1.872   2.042   9.658
 1106SOL    HW1 3317   1.911   1.957   9.622
 1106SOL    HW2 3318   1.774   2.044   9.639
 1107SOL     OW 3319   0.294   2.193   9.415
 1107SOL    HW1 3320   0.215   2.244   9.381
 1107SOL    HW2 3321   0.285   2.178   9.513
 1108SOL     OW 3322   1.225   3.479   8.726
 1108SOL    HW1 3323   1.231   3.386   8.763
 1108SOL    HW2 3324   1.166   3.479   8.646
 1109SOL     OW 3325   0.853   2.869  10.067
 1109SOL    HW1 3326   0.893   2.868   9.975
 1109SOL    HW2 3327   0.863   2.961  10.107
 1110SOL     OW 3328   0.947   2.777   8.986
 1110SOL    HW1 3329   1.010   2.815   8.918
 1110SOL    HW2 3330   0.987   2.694   9.025
 1111SOL     OW 3331   1.535   3.474   8.739
 1111SOL    HW1 3332   1.443   3.511   8.746
 1111SOL    HW2 3333   1.573   3.494   8.649
 1112SOL     OW 3334   1.070   2.965   9.391
 1112SOL    HW1 3335   1.000   2.918   9.445
 1112SOL    HW2 3336   1.129   2.897   9.348
 1113SOL     OW 3337   1.045   2.103   9.666
 1113SOL    HW1 3338   1.037   2.067   9.573
 1113SOL    HW2 3339   1.043   2.027   9.731
 1114SOL     OW 3340   0.621   3.354   9.186
 1114SOL    HW1 3341   0.663   3.296   9.116
 1114SOL    HW2 3342   0.577   3.433   9.142
 1115SOL     OW 3343   1.740   2.252  10.076
 1115SOL    HW1 3344   1.813   2.321  10.080
 1115SOL    HW2 3345   1.768   2.177  10.017
 1116SOL     OW 3346   0.286   3.215   8.985
 1116SOL    HW1 3347   0.190   3.216   8.958
 1116SOL    HW2 3348   0.298   3.268   9.069
 1117SOL     OW 3349   0.106   2.212   8.728
 1117SOL    HW1 3350   0.014   2.184   8.699
 1117SOL    HW2 3351   0.137   2.289   8.672
 1118SOL     OW 3352   0.103   2.033   9.013
 1118SOL    HW1 3353   0.086   2.116   8.959
 1118SOL    HW2 3354   0.193   1.996   8.991
 1119SOL     OW 3355   1.214   3.202   8.814
 1119SOL    HW1 3356   1.115   3.191   8.816
 1119SOL    HW2 3357   1.248   3.217   8.907
 1120SOL     OW 3358   1.524   3.634   9.654
 1120SOL    HW1 3359   1.557   3.698   9.585
 1120SOL    HW2 3360   1.590   3.628   9.729
 1121SOL     OW 3361   1.705   2.750   9.949
 1121SOL    HW1 3362   1.678   2.661   9.912
 1121SOL    HW2 3363   1.706   2.818   9.876
 1122SOL     OW 3364   1.256   2.192   9.144
 1122SOL    HW1 3365   1.321   2.118   9.133
 1122SOL    HW2 3366   1.276   2.242   9.228
 1123SOL     OW 3367   0.625   2.612   9.347
 1123SOL    HW1 3368   0.675   2.697   9.328
 1123SOL    HW2 3369   0.537   2.614   9.299
 1124SOL     OW 3370   1.761   2.801  10.212
 1124SOL    HW1 3371   1.799   2.892  10.227
 1124SOL    HW2 3372   1.753   2.784  10.113
 1125SOL     OW 3373   0.890   3.241   8.711
 1125SOL    HW1 3374   0.844   3.256   8.799
 1125SOL    HW2 3375   0.934   3.326   8.681
 1126SOL     OW 3376   0.692   3.657   9.648
 1126SOL    HW1 3377   0.646   3.745   9.635
 1126SOL    HW2 3378   0.791   3.669   9.641
 1127SOL     OW 3379   0.890   2.823   9.556
 1127SOL    HW1 3380   0.944   2.754   9.604
 1127SOL    HW2 3381   0.858   2.892   9.622
 1128SOL     OW 3382   1.114   2.851   8.782
 1128SOL    HW1 3383   1.091   2.904   8.700
 1128SOL    HW2 3384   1.195   2.795   8.763
 1129SOL     OW 3385   1.892   3.436   9.546
 1129SOL    HW1 3386   1.821   3.424   9.476
 1129SOL    HW2 3387   1.893   3.357   9.606
 1130SOL     OW 3388   0.110   3.107   9.348
 1130SOL    HW1 3389   0.109   3.060   9.436
 1130SOL    HW2 3390   0.192   3.079   9.297
 1131SOL     OW 3391   1.855   2.059   9.922
 1131SOL    HW1 3392   1.851   1.969   9.966
 1131SOL    HW2 3393   1.858   2.048   9.823
 1132SOL     OW 3394   0.459   2.291   9.215
 1132SOL    HW1 3395   0.489   2.219   9.153
 1132SOL    HW2 3396   0.420   2.251   9.298
 1133SOL     OW 3397   1.736   3.354   9.799
 1133SOL    HW1 3398   1.643   3.329   9.772
 1133SOL    HW2 3399   1.762   3.304   9.881
 1134SOL     OW 3400   0.843   3.453   9.382
 1134SOL    HW1 3401   0.875   3.463   9.288
 1134SOL    HW2 3402   0.764   3.391   9.384
 1135SOL     OW 3403   1.455   2.081   9.807
 1135SOL    HW1 3404   1.507   2.016   9.862
 1135SOL    HW2 3405   1.406   2.144   9.868
 1136SOL     OW 3406   1.032   1.901   9.849
 1136SOL    HW1 3407   0.969   1.829   9.818
 1136SOL    HW2 3408   1.125   1.865   9.849
 1137SOL     OW 3409   0.801   3.197   8.996
 1137SOL    HW1 3410   0.755   3.110   9.013
 1137SOL    HW2 3411   0.892   3.194   9.037
 1138SOL     OW 3412   1.383   1.919   8.863
 1138SOL    HW1 3413   1.418   1.878   8.779
 1138SOL    HW2 3414   1.293   1.881   8.883
 1139SOL     OW 3415   1.331   2.320   9.386
 1139SOL    HW1 3416   1.272   2.400   9.390
 1139SOL    HW2 3417   1.346   2.285   9.479
 1140SOL     OW 3418   1.624   2.088   9.577
 1140SOL    HW1 3419   1.540   2.087   9.631
 1140SOL    HW2 3420   1.626   2.171   9.521
 1141SOL     OW 3421   0.070   2.944   8.995
 1141SOL    HW1 3422   0.169   2.933   8.986
 1141SOL    HW2 3423   0.030   2.858   9.027
 1142SOL     OW 3424   0.906   3.513   9.032
 1142SOL    HW1 3425   0.829   3.478   8.978
 1142SOL    HW2 3426   0.874   3.584   9.094
 1143SOL     OW 3427   0.261   4.357   5.084
 1143SOL    HW1 3428   0.168   4.355   5.121
 1143SOL    HW2 3429   0.262   4.318   4.992
 1144SOL     OW 3430   0.256   4.004   5.967
 1144SOL    HW1 3431   0.291   3.987   6.059
 1144SOL    HW2 3432   0.168   3.959   5.955
 1145SOL     OW 3433   0.050   4.097   5.618
 1145SOL    HW1 3434  -0.032   4.140   5.657
 1145SOL    HW2 3435   0.022   4.024   5.555
 1146SOL     OW 3436   1.166   4.432   5.688
 1146SOL    HW1 3437   1.223   4.510   5.663
 1146SOL    HW2 3438   1.106   4.458   5.764
 1147SOL     OW 3439   1.786   4.336   5.202
 1147SOL    HW1 3440   1.774   4.323   5.103
 1147SOL    HW2 3441   1.756   4.255   5.251
 1148SOL     OW 3442   0.799   4.873   5.994
 1148SOL    HW1 3443   0.721   4.890   6.054
 1148SOL    HW2 3444   0.833   4.960   5.958
 1149SOL     OW 3445   0.881   4.527   6.794
 1149SOL    HW1 3446   0.877   4.603   6.859
 1149SOL    HW2 3447   0.903   4.563   6.703
 1150SOL     OW 3448   0.716   4.741   5.636
 1150SOL    HW1 3449   0.785   4.725   5.706
 1150SOL    HW2 3450   0.643   4.798   5.674
 1151SOL     OW 3451   0.717   4.890   6.774
 1151SOL    HW1 3452   0.777   4.969   6.788
 1151SOL    HW2 3453   0.631   4.921   6.733
 1152SOL     OW 3454   0.469   4.121   6.470
 1152SOL    HW1 3455   0.551   4.065   6.479
 1152SOL    HW2 3456   0.388   4.063   6.474
 1153SOL     OW 3457   1.634   4.176   5.708
 1153SOL    HW1 3458   1.560   4.222   5.658
 1153SOL    HW2 3459   1.685   4.244   5.761
 1154SOL     OW 3460   0.271   4.820   5.857
 1154SOL    HW1 3461   0.285   4.736   5.909
 1154SOL    HW2 3462   0.216   4.884   5.912
 1155SOL     OW 3463   0.637   4.693   5.094
 1155SOL    HW1 3464   0.644   4.777   5.040
 1155SOL    HW2 3465   0.683   4.706   5.182
 1156SOL     OW 3466   1.625   3.843   6.451
 1156SOL    HW1 3467   1.607   3.910   6.379
 1156SOL    HW2 3468   1.622   3.889   6.540
 1157SOL     OW 3469   0.153   4.372   5.534
 1157SOL    HW1 3470   0.108   4.284   5.551
 1157SOL    HW2 3471   0.152   4.426   5.618
 1158SOL     OW 3472   1.720   4.651   5.583
 1158SOL    HW1 3473   1.815   4.622   5.591
 1158SOL    HW2 3474   1.712   4.716   5.508
 1159SOL     OW 3475   1.672   4.837   5.403
 1159SOL    HW1 3476   1.758   4.839   5.351
 1159SOL    HW2 3477   1.686   4.884   5.491
 1160SOL     OW 3478   0.144   4.466   6.568
 1160SOL    HW1 3479   0.232   4.453   6.613
 1160SOL    HW2 3480   0.131   4.563   6.546
 1161SOL     OW 3481   1.324   4.957   6.394
 1161SOL    HW1 3482   1.361   4.884   6.336
 1161SOL    HW2 3483   1.376   4.962   6.479
 1162SOL     OW 3484   0.840   3.733   5.473
 1162SOL    HW1 3485   0.880   3.824   5.464
 1162SOL    HW2 3486   0.740   3.741   5.479
 1163SOL     OW 3487   0.228   4.705   6.235
 1163SOL    HW1 3488   0.317   4.660   6.221
 1163SOL    HW2 3489   0.155   4.640   6.216
 1164SOL     OW 3490   1.556   4.728   5.161
 1164SOL    HW1 3491   1.493   4.652   5.174
 1164SOL    HW2 3492   1.604   4.746   5.247
 1165SOL     OW 3493   0.348   3.980   6.772
 1165SOL    HW1 3494   0.419   4.051   6.778
 1165SOL    HW2 3495   0.260   4.019   6.800
 1166SOL     OW 3496   0.629   4.458   5.241
 1166SOL    HW1 3497   0.653   4.527   5.173
 1166SOL    HW2 3498   0.551   4.491   5.295
 1167SOL     OW 3499   1.312   4.074   5.915
 1167SOL    HW1 3500   1.226   4.024   5.902
 1167SOL    HW2 3501   1.374   4.020   5.971
 1168SOL     OW 3502   0.838   4.334   6.436
 1168SOL    HW1 3503   0.791   4.331   6.525
 1168SOL    HW2 3504   0.787   4.279   6.370
 1169SOL     OW 3505   1.425   4.198   6.645
 1169SOL    HW1 3506   1.405   4.241   6.733
 1169SOL    HW2 3507   1.503   4.136   6.654
 1170SOL     OW 3508   1.004   4.619   6.543
 1170SOL    HW1 3509   1.050   4.535   6.514
 1170SOL    HW2 3510   0.948   4.653   6.468
 1171SOL     OW 3511   1.022   4.139   6.213
 1171SOL    HW1 3512   0.945   4.173   6.267
 1171SOL    HW2 3513   0.988   4.088   6.134
 1172SOL     OW 3514   1.072   4.430   5.400
 1172SOL    HW1 3515   1.098   4.426   5.496
 1172SOL    HW2 3516   0.987   4.379   5.386
 1173SOL     OW 3517   0.107   4.540   5.760
 1173SOL    HW1 3518   0.206   4.528   5.769
 1173SOL    HW2 3519   0.083   4.635   5.781
 1174SOL     OW 3520   0.896   4.077   5.166
 1174SOL    HW1 3521   0.955   4.140   5.117
 1174SOL    HW2 3522   0.915   3.983   5.137
 1175SOL     OW 3523   1.750   4.314   6.802
 1175SOL    HW1 3524   1.724   4.403   6.766
 1175SOL    HW2 3525   1.748   4.246   6.729
 1176SOL     OW 3526   1.393   4.873   5.516
 1176SOL    HW1 3527   1.476   4.844   5.468
 1176SOL    HW2 3528   1.344   4.940   5.460
 1177SOL     OW 3529   0.581   3.925   5.856
 1177SOL    HW1 3530   0.576   3.920   5.956
 1177SOL    HW2 3531   0.583   4.021   5.827
 1178SOL     OW 3532   1.826   4.795   5.844
 1178SOL    HW1 3533   1.764   4.780   5.768
 1178SOL    HW2 3534   1.774   4.806   5.929
 1179SOL     OW 3535   0.352   4.672   5.213
 1179SOL    HW1 3536   0.434   4.711   5.171
 1179SOL    HW2 3537   0.325   4.590   5.164
 1180SOL     OW 3538   1.489   4.464   5.699
 1180SOL    HW1 3539   1.484   4.399   5.774
 1180SOL    HW2 3540   1.569   4.523   5.712
 1181SOL     OW 3541   0.233   4.014   6.469
 1181SOL    HW1 3542   0.153   4.074   6.456
 1181SOL    HW2 3543   0.223   3.965   6.555
 1182SOL     OW 3544   1.431   3.836   5.397
 1182SOL    HW1 3545   1.407   3.799   5.307
 1182SOL    HW2 3546   1.530   3.852   5.401
 1183SOL     OW 3547   0.413   4.429   5.451
 1183SOL    HW1 3548   0.458   4.339   5.448
 1183SOL    HW2 3549   0.319   4.418   5.484
 1184SOL     OW 3550   1.578   3.951   6.700
 1184SOL    HW1 3551   1.573   3.988   6.792
 1184SOL    HW2 3552   1.506   3.882   6.688
 1185SOL     OW 3553   0.645   3.851   5.088
 1185SOL    HW1 3554   0.743   3.829   5.095
 1185SOL    HW2 3555   0.614   3.834   4.995
 1186SOL     OW 3556   0.812   3.993   6.720
 1186SOL    HW1 3557   0.879   3.932   6.763
 1186SOL    HW2 3558   0.739   4.012   6.785
 1187SOL     OW 3559   1.382   4.319   6.404
 1187SOL    HW1 3560   1.410   4.276   6.489
 1187SOL    HW2 3561   1.407   4.415   6.405
 1188SOL     OW 3562   0.953   4.232   5.870
 1188SOL    HW1 3563   0.928   4.223   5.774
 1188SOL    HW2 3564   1.001   4.150   5.901
 1189SOL     OW 3565   0.570   3.793   5.483
 1189SOL    HW1 3566   0.489   3.794   5.541
 1189SOL    HW2 3567   0.573   3.876   5.428
 1190SOL     OW 3568   0.328   3.764   5.142
 1190SOL    HW1 3569   0.377   3.848   5.121
 1190SOL    HW2 3570   0.390   3.699   5.187
 1191SOL     OW 3571   0.966   3.965   5.451
 1191SOL    HW1 3572   0.918   4.006   5.373
 1191SOL    HW2 3573   1.065   3.963   5.432
 1192SOL     OW 3574   1.107   4.412   6.435
 1192SOL    HW1 3575   1.027   4.351   6.438
 1192SOL    HW2 3576   1.188   4.359   6.411
 1193SOL     OW 3577   0.490   4.881   5.712
 1193SOL    HW1 3578   0.419   4.854   5.777
 1193SOL    HW2 3579   0.464   4.853   5.619
 1194SOL     OW 3580   1.063   4.278   4.987
 1194SOL    HW1 3581   1.022   4.360   4.948
 1194SOL    HW2 3582   1.127   4.304   5.060
 1195SOL     OW 3583   0.109   4.285   6.357
 1195SOL    HW1 3584   0.201   4.284   6.316
 1195SOL    HW2 3585   0.103   4.359   6.424
 1196SOL     OW 3586   0.592   3.951   6.118
 1196SOL    HW1 3587   0.630   3.867   6.155
 1196SOL    HW2 3588   0.504   3.970   6.162
 1197SOL     OW 3589   0.897   4.183   5.613
 1197SOL    HW1 3590   0.865   4.255   5.551
 1197SOL    HW2 3591   0.921   4.102   5.560
 1198SOL     OW 3592   1.048   3.768   5.724
 1198SOL    HW1 3593   0.976   3.773   5.655
 1198SOL    HW2 3594   1.024   3.699   5.793
 1199SOL     OW 3595   1.460   4.902   5.838
 1199SOL    HW1 3596   1.405   4.818   5.831
 1199SOL    HW2 3597   1.486   4.931   5.746
 1200SOL     OW 3598   1.497   4.319   5.963
 1200SOL    HW1 3599   1.467   4.224   5.970
 1200SOL    HW2 3600   1.570   4.335   6.029
 1201SOL     OW 3601   1.888   4.562   5.348
 1201SOL    HW1 3602   1.930   4.498   5.412
 1201SOL    HW2 3603   1.850   4.511   5.270
 1202SOL     OW 3604   1.421   4.304   5.049
 1202SOL    HW1 3605   1.367   4.283   5.130
 1202SOL    HW2 3606   1.512   4.263   5.058
 1203SOL     OW 3607   0.558   3.985   5.299
 1203SOL    HW1 3608   0.585   3.926   5.224
 1203SOL    HW2 3609   0.558   4.080   5.268
 1204SOL     OW 3610   1.785   4.952   6.559
 1204SOL    HW1 3611   1.876   4.913   6.546
 1204SOL    HW2 3612   1.793   5.048   6.583
 1205SOL     OW 3613   1.669   4.828   6.050
 1205SOL    HW1 3614   1.674   4.909   6.109
 1205SOL    HW2 3615   1.583   4.830   5.999
 1206SOL     OW 3616   0.946   3.818   6.373
 1206SOL    HW1 3617   0.971   3.798   6.278
 1206SOL    HW2 3618   1.018   3.874   6.415
 1207SOL     OW 3619   1.011   4.845   6.690
 1207SOL    HW1 3620   0.912   4.851   6.700
 1207SOL    HW2 3621   1.034   4.765   6.634
 1208SOL     OW 3622   0.736   4.779   5.339
 1208SOL    HW1 3623   0.722   4.786   5.438
 1208SOL    HW2 3624   0.820   4.728   5.321
 1209SOL     OW 3625   0.441   4.542   6.222
 1209SOL    HW1 3626   0.527   4.554   6.272
 1209SOL    HW2 3627   0.399   4.455   6.249
 1210SOL     OW 3628   1.305   4.115   6.233
 1210SOL    HW1 3629   1.326   4.189   6.297
 1210SOL    HW2 3630   1.216   4.132   6.190
 1211SOL     OW 3631   0.398   4.829   5.472
 1211SOL    HW1 3632   0.391   4.912   5.416
 1211SOL    HW2 3633   0.402   4.749   5.412
 1212SOL     OW 3634   0.597   4.266   5.836
 1212SOL    HW1 3635   0.609   4.332   5.762
 1212SOL    HW2 3636   0.643   4.300   5.919
 1213SOL     OW 3637   1.613   4.368   5.443
 1213SOL    HW1 3638   1.582   4.429   5.516
 1213SOL    HW2 3639   1.663   4.420   5.374
 1214SOL     OW 3640   0.433   4.480   6.569
 1214SOL    HW1 3641   0.501   4.535   6.522
 1214SOL    HW2 3642   0.473   4.392   6.596
 1215SOL     OW 3643   1.618   4.508   6.641
 1215SOL    HW1 3644   1.526   4.546   6.636
 1215SOL    HW2 3645   1.678   4.555   6.576
 1216SOL     OW 3646   1.044   3.834   6.741
 1216SOL    HW1 3647   1.050   3.919   6.689
 1216SOL    HW2 3648   1.076   3.758   6.684
 1217SOL     OW 3649   0.535   3.779   6.711
 1217SOL    HW1 3650   0.493   3.722   6.641
 1217SOL    HW2 3651   0.469   3.848   6.743
 1218SOL     OW 3652   0.604   4.599   6.000
 1218SOL    HW1 3653   0.648   4.688   5.991
 1218SOL    HW2 3654   0.541   4.599   6.077
 1219SOL     OW 3655   1.391   4.591   6.016
 1219SOL    HW1 3656   1.316   4.591   5.950
 1219SOL    HW2 3657   1.428   4.499   6.025
 1220SOL     OW 3658   1.240   4.254   5.246
 1220SOL    HW1 3659   1.253   4.170   5.300
 1220SOL    HW2 3660   1.211   4.328   5.306
 1221SOL     OW 3661   0.338   3.942   6.202
 1221SOL    HW1 3662   0.315   3.979   6.292
 1221SOL    HW2 3663   0.308   3.847   6.196
 1222SOL     OW 3664   0.068   5.039   6.253
 1222SOL    HW1 3665   0.121   4.990   6.321
 1222SOL    HW2 3666   0.090   5.137   6.258
 1223SOL     OW 3667   0.763   4.363   6.035
 1223SOL    HW1 3668   0.822   4.337   5.959
 1223SOL    HW2 3669   0.735   4.459   6.024
 1224SOL     OW 3670   1.759   4.664   6.825
 1224SOL    HW1 3671   1.713   4.657   6.736
 1224SOL    HW2 3672   1.697   4.708   6.891
 1225SOL     OW 3673   0.338   3.792   5.589
 1225SOL    HW1 3674   0.327   3.886   5.622
 1225SOL    HW2 3675   0.333   3.729   5.666
 1226SOL     OW 3676   1.653   4.096   5.345
 1226SOL    HW1 3677   1.655   4.020   5.409
 1226SOL    HW2 3678   1.605   4.173   5.385
 1227SOL     OW 3679   1.054   4.495   5.937
 1227SOL    HW1 3680   1.069   4.516   6.033
 1227SOL    HW2 3681   1.024   4.400   5.928
 1228SOL     OW 3682   0.381   4.627   6.775
 1228SOL    HW1 3683   0.457   4.671   6.823
 1228SOL    HW2 3684   0.416   4.580   6.693
 1229SOL     OW 3685   1.571   4.003   5.096
 1229SOL    HW1 3686   1.510   3.928   5.119
 1229SOL    HW2 3687   1.593   4.055   5.179
 1230SOL     OW 3688   1.334   4.567   5.013
 1230SOL    HW1 3689   1.368   4.474   5.028
 1230SOL    HW2 3690   1.352   4.594   4.918
 1231SOL     OW 3691   0.350   4.539   5.920
 1231SOL    HW1 3692   0.443   4.575   5.925
 1231SOL    HW2 3693   0.344   4.454   5.972
 1232SOL     OW 3694   0.370   4.238   5.977
 1232SOL    HW1 3695   0.318   4.155   5.960
 1232SOL    HW2 3696   0.447   4.243   5.913
 1233SOL     OW 3697   1.169   4.109   6.649
 1233SOL    HW1 3698   1.124   4.172   6.713
 1233SOL    HW2 3699   1.262   4.140   6.632
 1234SOL     OW 3700   1.191   3.936   6.448
 1234SOL    HW1 3701   1.191   4.000   6.525
 1234SOL    HW2 3702   1.219   3.984   6.365
 1235SOL     OW 3703   0.039   5.055   5.171
 1235SOL    HW1 3704  -0.054   5.076   5.140
 1235SOL    HW2 3705   0.049   4.956   5.184
 1236SOL     OW 3706   1.033   4.525   6.209
 1236SOL    HW1 3707   1.074   4.493   6.295
 1236SOL    HW2 3708   0.937   4.498   6.206
 1237SOL     OW 3709   0.071   4.273   6.085
 1237SOL    HW1 3710   0.156   4.240   6.044
 1237SOL    HW2 3711   0.084   4.288   6.183
 1238SOL     OW 3712   0.220   4.249   6.693
 1238SOL    HW1 3713   0.279   4.209   6.623
 1238SOL    HW2 3714   0.162   4.320   6.652
 1239SOL     OW 3715   1.400   4.679   6.631
 1239SOL    HW1 3716   1.439   4.768   6.651
 1239SOL    HW2 3717   1.410   4.659   6.534
 1240SOL     OW 3718   0.846   4.301   5.296
 1240SOL    HW1 3719   0.853   4.212   5.250
 1240SOL    HW2 3720   0.752   4.335   5.288
 1241SOL     OW 3721   1.688   4.333   6.177
 1241SOL    HW1 3722   1.650   4.264   6.239
 1241SOL    HW2 3723   1.770   4.297   6.133
 1242SOL     OW 3724   0.702   4.193   6.240
 1242SOL    HW1 3725   0.668   4.104   6.210
 1242SOL    HW2 3726   0.728   4.247   6.160
 1243SOL     OW 3727   0.504   4.229   5.162
 1243SOL    HW1 3728   0.565   4.309   5.166
 1243SOL    HW2 3729   0.409   4.260   5.169
 1244SOL     OW 3730   0.190   4.866   6.437
 1244SOL    HW1 3731   0.212   4.805   6.513
 1244SOL    HW2 3732   0.200   4.817   6.351
 1245SOL     OW 3733   1.378   4.788   6.205
 1245SOL    HW1 3734   1.402   4.725   6.131
 1245SOL    HW2 3735   1.288   4.828   6.187
 1246SOL     OW 3736   1.333   4.584   5.280
 1246SOL    HW1 3737   1.247   4.553   5.322
 1246SOL    HW2 3738   1.329   4.570   5.181
 1247SOL     OW 3739   0.114   4.987   5.993
 1247SOL    HW1 3740   0.109   4.986   6.093
 1247SOL    HW2 3741   0.031   4.946   5.955
 1248SOL     OW 3742   0.934   3.815   5.104
 1248SOL    HW1 3743   0.985   3.816   5.018
 1248SOL    HW2 3744   0.990   3.773   5.175
 1249SOL     OW 3745   1.757   3.864   5.494
 1249SOL    HW1 3746   1.830   3.847   5.427
 1249SOL    HW2 3747   1.726   3.777   5.532
 1250SOL     OW 3748   1.311   4.656   5.643
 1250SOL    HW1 3749   1.371   4.575   5.645
 1250SOL    HW2 3750   1.351   4.725   5.583
 1251SOL     OW 3751   1.872   3.904   5.934
 1251SOL    HW1 3752   1.911   3.819   5.898
 1251SOL    HW2 3753   1.774   3.906   5.915
 1252SOL     OW 3754   0.294   4.055   5.691
 1252SOL    HW1 3755   0.215   4.106   5.657
 1252SOL    HW2 3756   0.285   4.040   5.789
 1253SOL     OW 3757   0.853   4.731   6.343
 1253SOL    HW1 3758   0.893   4.730   6.251
 1253SOL    HW2 3759   0.863   4.823   6.383
 1254SOL     OW 3760   0.947   4.639   5.262
 1254SOL    HW1 3761   1.010   4.677   5.194
 1254SOL    HW2 3762   0.987   4.556   5.301
 1255SOL     OW 3763   0.403   5.017   6.461
 1255SOL    HW1 3764   0.390   5.110   6.427
 1255SOL    HW2 3765   0.319   4.965   6.448
 1256SOL     OW 3766   1.645   5.021   6.260
 1256SOL    HW1 3767   1.705   5.024   6.340
 1256SOL    HW2 3768   1.570   5.085   6.273
 1257SOL     OW 3769   1.070   4.827   5.667
 1257SOL    HW1 3770   1.000   4.780   5.721
 1257SOL    HW2 3771   1.129   4.759   5.624
 1258SOL     OW 3772   1.045   3.965   5.942
 1258SOL    HW1 3773   1.037   3.929   5.849
 1258SOL    HW2 3774   1.043   3.889   6.007
 1259SOL     OW 3775   1.740   4.114   6.352
 1259SOL    HW1 3776   1.813   4.183   6.356
 1259SOL    HW2 3777   1.768   4.039   6.293
 1260SOL     OW 3778   0.136   4.742   6.697
 1260SOL    HW1 3779   0.059   4.709   6.751
 1260SOL    HW2 3780   0.221   4.712   6.739
 1261SOL     OW 3781   0.703   3.932   6.460
 1261SOL    HW1 3782   0.793   3.916   6.420
 1261SOL    HW2 3783   0.711   3.937   6.559
 1262SOL     OW 3784   0.106   4.074   5.004
 1262SOL    HW1 3785   0.014   4.046   4.975
 1262SOL    HW2 3786   0.137   4.151   4.948
 1263SOL     OW 3787   1.471   4.585   6.369
 1263SOL    HW1 3788   1.414   4.637   6.306
 1263SOL    HW2 3789   1.567   4.597   6.345
 1264SOL     OW 3790   0.103   3.895   5.289
 1264SOL    HW1 3791   0.086   3.978   5.235
 1264SOL    HW2 3792   0.193   3.858   5.267
 1265SOL     OW 3793   0.644   4.571   6.402
 1265SOL    HW1 3794   0.700   4.652   6.385
 1265SOL    HW2 3795   0.703   4.491   6.405
 1266SOL     OW 3796   0.747   4.294   6.679
 1266SOL    HW1 3797   0.766   4.359   6.753
 1266SOL    HW2 3798   0.807   4.214   6.688
 1267SOL     OW 3799   1.481   4.949   6.604
 1267SOL    HW1 3800   1.472   4.939   6.703
 1267SOL    HW2 3801   1.577   4.942   6.578
 1268SOL     OW 3802   1.705   4.612   6.225
 1268SOL    HW1 3803   1.678   4.523   6.188
 1268SOL    HW2 3804   1.706   4.680   6.152
 1269SOL     OW 3805   1.256   4.054   5.420
 1269SOL    HW1 3806   1.321   3.980   5.409
 1269SOL    HW2 3807   1.276   4.104   5.504
 1270SOL     OW 3808   0.625   4.474   5.623
 1270SOL    HW1 3809   0.675   4.559   5.604
 1270SOL    HW2 3810   0.537   4.476   5.575
 1271SOL     OW 3811   1.808   4.071   6.613
 1271SOL    HW1 3812   1.791   4.102   6.519
 1271SOL    HW2 3813   1.724   4.034   6.651
 1272SOL     OW 3814   1.761   4.663   6.488
 1272SOL    HW1 3815   1.799   4.754   6.503
 1272SOL    HW2 3816   1.753   4.646   6.389
 1273SOL     OW 3817   0.890   4.685   5.832
 1273SOL    HW1 3818   0.944   4.616   5.880
 1273SOL    HW2 3819   0.858   4.754   5.898
 1274SOL     OW 3820   1.114   4.713   5.058
 1274SOL    HW1 3821   1.091   4.766   4.976
 1274SOL    HW2 3822   1.195   4.657   5.039
 1275SOL     OW 3823   0.110   4.969   5.624
 1275SOL    HW1 3824   0.109   4.922   5.712
 1275SOL    HW2 3825   0.192   4.941   5.573
 1276SOL     OW 3826   1.855   3.921   6.198
 1276SOL    HW1 3827   1.851   3.831   6.242
 1276SOL    HW2 3828   1.858   3.910   6.099
 1277SOL     OW 3829   0.459   4.153   5.491
 1277SOL    HW1 3830   0.489   4.081   5.429
 1277SOL    HW2 3831   0.420   4.113   5.574
 1278SOL     OW 3832   0.348   4.276   6.251
 1278SOL    HW1 3833   0.386   4.217   6.323
 1278SOL    HW2 3834   0.388   4.250   6.163
 1279SOL     OW 3835   1.455   3.943   6.083
 1279SOL    HW1 3836   1.507   3.878   6.138
 1279SOL    HW2 3837   1.406   4.006   6.144
 1280SOL     OW 3838   1.032   3.763   6.125
 1280SOL    HW1 3839   0.969   3.691   6.094
 1280SOL    HW2 3840   1.125   3.727   6.125
 1281SOL     OW 3841   0.801   5.059   5.272
 1281SOL    HW1 3842   0.755   4.972   5.289
 1281SOL    HW2 3843   0.892   5.056   5.313
 1282SOL     OW 3844   1.383   3.781   5.139
 1282SOL    HW1 3845   1.418   3.740   5.055
 1282SOL    HW2 3846   1.293   3.743   5.159
 1283SOL     OW 3847   1.331   4.182   5.662
 1283SOL    HW1 3848   1.272   4.262   5.666
 1283SOL    HW2 3849   1.346   4.147   5.755
 1284SOL     OW 3850   1.624   3.950   5.853
 1284SOL    HW1 3851   1.540   3.949   5.907
 1284SOL    HW2 3852   1.626   4.033   5.797
 1285SOL     OW 3853   0.070   4.806   5.271
 1285SOL    HW1 3854   0.169   4.795   5.262
 1285SOL    HW2 3855   0.030   4.720   5.303
 1286SOL     OW 3856   0.261   4.357   6.946
 1286SOL    HW1 3857   0.168   4.355   6.983
 1286SOL    HW2 3858   0.262   4.318   6.854
 1287SOL     OW 3859   0.256   4.004   7.829
 1287SOL    HW1 3860   0.291   3.987   7.921
 1287SOL    HW2 3861   0.168   3.959   7.817
 1288SOL     OW 3862   0.050   4.097   7.480
 1288SOL    HW1 3863  -0.032   4.140   7.519
 1288SOL    HW2 3864   0.022   4.024   7.417
 1289SOL     OW 3865   1.166   4.432   7.550
 1289SOL    HW1 3866   1.223   4.510   7.525
 1289SOL    HW2 3867   1.106   4.458   7.626
 1290SOL     OW 3868   1.786   4.336   7.064
 1290SOL    HW1 3869   1.774   4.323   6.965
 1290SOL    HW2 3870   1.756   4.255   7.113
 1291SOL     OW 3871   0.799   4.873   7.856
 1291SOL    HW1 3872   0.721   4.890   7.916
 1291SOL    HW2 3873   0.833   4.960   7.820
 1292SOL     OW 3874   0.881   4.527   8.656
 1292SOL    HW1 3875   0.877   4.603   8.721
 1292SOL    HW2 3876   0.903   4.563   8.565
 1293SOL     OW 3877   0.716   4.741   7.498
 1293SOL    HW1 3878   0.785   4.725   7.568
 1293SOL    HW2 3879   0.643   4.798   7.536
 1294SOL     OW 3880   0.717   4.890   8.636
 1294SOL    HW1 3881   0.777   4.969   8.650
 1294SOL    HW2 3882   0.631   4.921   8.595
 1295SOL     OW 3883   0.469   4.121   8.332
 1295SOL    HW1 3884   0.551   4.065   8.341
 1295SOL    HW2 3885   0.388   4.063   8.336
 1296SOL     OW 3886   1.634   4.176   7.570
 1296SOL    HW1 3887   1.560   4.222   7.520
 1296SOL    HW2 3888   1.685   4.244   7.623
 1297SOL     OW 3889   0.271   4.820   7.719
 1297SOL    HW1 3890   0.285   4.736   7.771
 1297SOL    HW2 3891   0.216   4.884   7.774
 1298SOL     OW 3892   0.637   4.693   6.956
 1298SOL    HW1 3893   0.644   4.777   6.902
 1298SOL    HW2 3894   0.683   4.706   7.044
 1299SOL     OW 3895   1.625   3.843   8.313
 1299SOL    HW1 3896   1.607   3.910   8.241
 1299SOL    HW2 3897   1.622   3.889   8.402
 1300SOL     OW 3898   0.153   4.372   7.396
 1300SOL    HW1 3899   0.108   4.284   7.413
 1300SOL    HW2 3900   0.152   4.426   7.480
 1301SOL     OW 3901   1.720   4.651   7.445
 1301SOL    HW1 3902   1.815   4.622   7.453
 1301SOL    HW2 3903   1.712   4.716   7.370
 1302SOL     OW 3904   1.672   4.837   7.265
 1302SOL    HW1 3905   1.758   4.839   7.213
 1302SOL    HW2 3906   1.686   4.884   7.353
 1303SOL     OW 3907   0.144   4.466   8.430
 1303SOL    HW1 3908   0.232   4.453   8.475
 1303SOL    HW2 3909   0.131   4.563   8.408
 1304SOL     OW 3910   1.324   4.957   8.256
 1304SOL    HW1 3911   1.361   4.884   8.198
 1304SOL    HW2 3912   1.376   4.962   8.341
 1305SOL     OW 3913   0.840   3.733   7.335
 1305SOL    HW1 3914   0.880   3.824   7.326
 1305SOL    HW2 3915   0.740   3.741   7.341
 1306SOL     OW 3916   0.228   4.705   8.097
 1306SOL    HW1 3917   0.317   4.660   8.083
 1306SOL    HW2 3918   0.155   4.640   8.078
 1307SOL     OW 3919   1.556   4.728   7.023
 1307SOL    HW1 3920   1.493   4.652   7.036
 1307SOL    HW2 3921   1.604   4.746   7.109
 1308SOL     OW 3922   0.348   3.980   8.634
 1308SOL    HW1 3923   0.419   4.051   8.640
 1308SOL    HW2 3924   0.260   4.019   8.662
 1309SOL     OW 3925   0.629   4.458   7.103
 1309SOL    HW1 3926   0.653   4.527   7.035
 1309SOL    HW2 3927   0.551   4.491   7.157
 1310SOL     OW 3928   1.312   4.074   7.777
 1310SOL    HW1 3929   1.226   4.024   7.764
 1310SOL    HW2 3930   1.374   4.020   7.833
 1311SOL     OW 3931   0.838   4.334   8.298
 1311SOL    HW1 3932   0.791   4.331   8.387
 1311SOL    HW2 3933   0.787   4.279   8.232
 1312SOL     OW 3934   1.425   4.198   8.507
 1312SOL    HW1 3935   1.405   4.241   8.595
 1312SOL    HW2 3936   1.503   4.136   8.516
 1313SOL     OW 3937   1.004   4.619   8.405
 1313SOL    HW1 3938   1.050   4.535   8.376
 1313SOL    HW2 3939   0.948   4.653   8.330
 1314SOL     OW 3940   1.022   4.139   8.075
 1314SOL    HW1 3941   0.945   4.173   8.129
 1314SOL    HW2 3942   0.988   4.088   7.996
 1315SOL     OW 3943   1.072   4.430   7.262
 1315SOL    HW1 3944   1.098   4.426   7.358
 1315SOL    HW2 3945   0.987   4.379   7.248
 1316SOL     OW 3946   0.107   4.540   7.622
 1316SOL    HW1 3947   0.206   4.528   7.631
 1316SOL    HW2 3948   0.083   4.635   7.643
 1317SOL     OW 3949   0.896   4.077   7.028
 1317SOL    HW1 3950   0.955   4.140   6.979
 1317SOL    HW2 3951   0.915   3.983   6.999
 1318SOL     OW 3952   1.750   4.314   8.664
 1318SOL    HW1 3953   1.724   4.403   8.628
 1318SOL    HW2 3954   1.748   4.246   8.591
 1319SOL     OW 3955   1.393   4.873   7.378
 1319SOL    HW1 3956   1.476   4.844   7.330
 1319SOL    HW2 3957   1.344   4.940   7.322
 1320SOL     OW 3958   0.581   3.925   7.718
 1320SOL    HW1 3959   0.576   3.920   7.818
 1320SOL    HW2 3960   0.583   4.021   7.689
 1321SOL     OW 3961   1.826   4.795   7.706
 1321SOL    HW1 3962   1.764   4.780   7.630
 1321SOL    HW2 3963   1.774   4.806   7.791
 1322SOL     OW 3964   0.352   4.672   7.075
 1322SOL    HW1 3965   0.434   4.711   7.033
 1322SOL    HW2 3966   0.325   4.590   7.026
 1323SOL     OW 3967   1.489   4.464   7.561
 1323SOL    HW1 3968   1.484   4.399   7.636
 1323SOL    HW2 3969   1.569   4.523   7.574
 1324SOL     OW 3970   0.233   4.014   8.331
 1324SOL    HW1 3971   0.153   4.074   8.318
 1324SOL    HW2 3972   0.223   3.965   8.417
 1325SOL     OW 3973   1.431   3.836   7.259
 1325SOL    HW1 3974   1.407   3.799   7.169
 1325SOL    HW2 3975   1.530   3.852   7.263
 1326SOL     OW 3976   0.413   4.429   7.313
 1326SOL    HW1 3977   0.458   4.339   7.310
 1326SOL    HW2 3978   0.319   4.418   7.346
 1327SOL     OW 3979   1.578   3.951   8.562
 1327SOL    HW1 3980   1.573   3.988   8.654
 1327SOL    HW2 3981   1.506   3.882   8.550
 1328SOL     OW 3982   0.645   3.851   6.950
 1328SOL    HW1 3983   0.743   3.829   6.957
 1328SOL    HW2 3984   0.614   3.834   6.857
 1329SOL     OW 3985   0.812   3.993   8.582
 1329SOL    HW1 3986   0.879   3.932   8.625
 1329SOL    HW2 3987   0.739   4.012   8.647
 1330SOL     OW 3988   1.382   4.319   8.266
 1330SOL    HW1 3989   1.410   4.276   8.351
 1330SOL    HW2 3990   1.407   4.415   8.267
 1331SOL     OW 3991   0.953   4.232   7.732
 1331SOL    HW1 3992   0.928   4.223   7.636
 1331SOL    HW2 3993   1.001   4.150   7.763
 1332SOL     OW 3994   0.570   3.793   7.345
 1332SOL    HW1 3995   0.489   3.794   7.403
 1332SOL    HW2 3996   0.573   3.876   7.290
 1333SOL     OW 3997   0.328   3.764   7.004
 1333SOL    HW1 3998   0.377   3.848   6.983
 1333SOL    HW2 3999   0.390   3.699   7.049
 1334SOL     OW 4000   0.966   3.965   7.313
 1334SOL    HW1 4001   0.918   4.006   7.235
 1334SOL    HW2 4002   1.065   3.963   7.294
 1335SOL     OW 4003   1.107   4.412   8.297
 1335SOL    HW1 4004   1.027   4.351   8.300
 1335SOL    HW2 4005   1.188   4.359   8.273
 1336SOL     OW 4006   0.490   4.881   7.574
 1336SOL    HW1 4007   0.419   4.854   7.639
 1336SOL    HW2 4008   0.464   4.853   7.481
 1337SOL     OW 4009   1.063   4.278   6.849
 1337SOL    HW1 4010   1.022   4.360   6.810
 1337SOL    HW2 4011   1.127   4.304   6.922
 1338SOL     OW 4012   0.109   4.285   8.219
 1338SOL    HW1 4013   0.201   4.284   8.178
 1338SOL    HW2 4014   0.103   4.359   8.286
 1339SOL     OW 4015   0.592   3.951   7.980
 1339SOL    HW1 4016   0.630   3.867   8.017
 1339SOL    HW2 4017   0.504   3.970   8.024
 1340SOL     OW 4018   0.897   4.183   7.475
 1340SOL    HW1 4019   0.865   4.255   7.413
 1340SOL    HW2 4020   0.921   4.102   7.422
 1341SOL     OW 4021   1.048   3.768   7.586
 1341SOL    HW1 4022   0.976   3.773   7.517
 1341SOL    HW2 4023   1.024   3.699   7.655
 1342SOL     OW 4024   1.460   4.902   7.700
 1342SOL    HW1 4025   1.405   4.818   7.693
 1342SOL    HW2 4026   1.486   4.931   7.608
 1343SOL     OW 4027   1.497   4.319   7.825
 1343SOL    HW1 4028   1.467   4.224   7.832
 1343SOL    HW2 4029   1.570   4.335   7.891
 1344SOL     OW 4030   1.888   4.562   7.210
 1344SOL    HW1 4031   1.930   4.498   7.274
 1344SOL    HW2 4032   1.850   4.511   7.132
 1345SOL     OW 4033   1.421   4.304   6.911
 1345SOL    HW1 4034   1.367   4.283   6.992
 1345SOL    HW2 4035   1.512   4.263   6.920
 1346SOL     OW 4036   0.558   3.985   7.161
 1346SOL    HW1 4037   0.585   3.926   7.086
 1346SOL    HW2 4038   0.558   4.080   7.130
 1347SOL     OW 4039   1.785   4.952   8.421
 1347SOL    HW1 4040   1.876   4.913   8.408
 1347SOL    HW2 4041   1.793   5.048   8.445
 1348SOL     OW 4042   1.669   4.828   7.912
 1348SOL    HW1 4043   1.674   4.909   7.971
 1348SOL    HW2 4044   1.583   4.830   7.861
 1349SOL     OW 4045   0.946   3.818   8.235
 1349SOL    HW1 4046   0.971   3.798   8.140
 1349SOL    HW2 4047   1.018   3.874   8.277
 1350SOL     OW 4048   1.011   4.845   8.552
 1350SOL    HW1 4049   0.912   4.851   8.562
 1350SOL    HW2 4050   1.034   4.765   8.496
 1351SOL     OW 4051   0.736   4.779   7.201
 1351SOL    HW1 4052   0.722   4.786   7.300
 1351SOL    HW2 4053   0.820   4.728   7.183
 1352SOL     OW 4054   0.441   4.542   8.084
 1352SOL    HW1 4055   0.527   4.554   8.134
 1352SOL    HW2 4056   0.399   4.455   8.111
 1353SOL     OW 4057   1.305   4.115   8.095
 1353SOL    HW1 4058   1.326   4.189   8.159
 1353SOL    HW2 4059   1.216   4.132   8.052
 1354SOL     OW 4060   0.398   4.829   7.334
 1354SOL    HW1 4061   0.391   4.912   7.278
 1354SOL    HW2 4062   0.402   4.749   7.274
 1355SOL     OW 4063   0.597   4.266   7.698
 1355SOL    HW1 4064   0.609   4.332   7.624
 1355SOL    HW2 4065   0.643   4.300   7.781
 1356SOL     OW 4066   1.613   4.368   7.305
 1356SOL    HW1 4067   1.582   4.429   7.378
 1356SOL    HW2 4068   1.663   4.420   7.236
 1357SOL     OW 4069   0.433   4.480   8.431
 1357SOL    HW1 4070   0.501   4.535   8.384
 1357SOL    HW2 4071   0.473   4.392   8.458
 1358SOL     OW 4072   1.618   4.508   8.503
 1358SOL    HW1 4073   1.526   4.546   8.498
 1358SOL    HW2 4074   1.678   4.555   8.438
 1359SOL     OW 4075   1.044   3.834   8.603
 1359SOL    HW1 4076   1.050   3.919   8.551
 1359SOL    HW2 4077   1.076   3.758   8.546
 1360SOL     OW 4078   0.535   3.779   8.573
 1360SOL    HW1 4079   0.493   3.722   8.503
 1360SOL    HW2 4080   0.469   3.848   8.605
 1361SOL     OW 4081   0.604   4.599   7.862
 1361SOL    HW1 4082   0.648   4.688   7.853
 1361SOL    HW2 4083   0.541   4.599   7.939
 1362SOL     OW 4084   1.391   4.591   7.878
 1362SOL    HW1 4085   1.316   4.591   7.812
 1362SOL    HW2 4086   1.428   4.499   7.887
 1363SOL     OW 4087   1.240   4.254   7.108
 1363SOL    HW1 4088   1.253   4.170   7.162
 1363SOL    HW2 4089   1.211   4.328   7.168
 1364SOL     OW 4090   0.338   3.942   8.064
 1364SOL    HW1 4091   0.315   3.979   8.154
 1364SOL    HW2 4092   0.308   3.847   8.058
 1365SOL     OW 4093   0.068   5.039   8.115
 1365SOL    HW1 4094   0.121   4.990   8.183
 1365SOL    HW2 4095   0.090   5.137   8.120
 1366SOL     OW 4096   0.763   4.363   7.897
 1366SOL    HW1 4097   0.822   4.337   7.821
 1366SOL    HW2 4098   0.735   4.459   7.886
 1367SOL     OW 4099   1.759   4.664   8.687
 1367SOL    HW1 4100   1.713   4.657   8.598
 1367SOL    HW2 4101   1.697   4.708   8.753
 1368SOL     OW 4102   0.338   3.792   7.451
 1368SOL    HW1 4103   0.327   3.886   7.484
 1368SOL    HW2 4104   0.333   3.729   7.528
 1369SOL     OW 4105   1.653   4.096   7.207
 1369SOL    HW1 4106   1.655   4.020   7.271
 1369SOL    HW2 4107   1.605   4.173   7.247
 1370SOL     OW 4108   1.054   4.495   7.799
 1370SOL    HW1 4109   1.069   4.516   7.895
 1370SOL    HW2 4110   1.024   4.400   7.790
 1371SOL     OW 4111   0.381   4.627   8.637
 1371SOL    HW1 4112   0.457   4.671   8.685
 1371SOL    HW2 4113   0.416   4.580   8.555
 1372SOL     OW 4114   1.571   4.003   6.958
 1372SOL    HW1 4115   1.510   3.928   6.981
 1372SOL    HW2 4116   1.593   4.055   7.041
 1373SOL     OW 4117   1.334   4.567   6.875
 1373SOL    HW1 4118   1.368   4.474   6.890
 1373SOL    HW2 4119   1.352   4.594   6.780
 1374SOL     OW 4120   0.350   4.539   7.782
 1374SOL    HW1 4121   0.443   4.575   7.787
 1374SOL    HW2 4122   0.344   4.454   7.834
 1375SOL     OW 4123   0.370   4.238   7.839
 1375SOL    HW1 4124   0.318   4.155   7.822
 1375SOL    HW2 4125   0.447   4.243   7.775
 1376SOL     OW 4126   1.169   4.109   8.511
 1376SOL    HW1 4127   1.124   4.172   8.575
 1376SOL    HW2 4128   1.262   4.140   8.494
 1377SOL     OW 4129   1.191   3.936   8.310
 1377SOL    HW1 4130   1.191   4.000   8.387
 1377SOL    HW2 4131   1.219   3.984   8.227
 1378SOL     OW 4132   0.039   5.055   7.033
 1378SOL    HW1 4133  -0.054   5.076   7.002
 1378SOL    HW2 4134   0.049   4.956   7.046
 1379SOL     OW 4135   1.033   4.525   8.071
 1379SOL    HW1 4136   1.074   4.493   8.157
 1379SOL    HW2 4137   0.937   4.498   8.068
 1380SOL     OW 4138   0.071   4.273   7.947
 1380SOL    HW1 4139   0.156   4.240   7.906
 1380SOL    HW2 4140   0.084   4.288   8.045
 1381SOL     OW 4141   0.220   4.249   8.555
 1381SOL    HW1 4142   0.279   4.209   8.485
 1381SOL    HW2 4143   0.162   4.320   8.514
 1382SOL     OW 4144   1.400   4.679   8.493
 1382SOL    HW1 4145   1.439   4.768   8.513
 1382SOL    HW2 4146   1.410   4.659   8.396
 1383SOL     OW 4147   0.846   4.301   7.158
 1383SOL    HW1 4148   0.853   4.212   7.112
 1383SOL    HW2 4149   0.752   4.335   7.150
 1384SOL     OW 4150   1.688   4.333   8.039
 1384SOL    HW1 4151   1.650   4.264   8.101
 1384SOL    HW2 4152   1.770   4.297   7.995
 1385SOL     OW 4153   0.702   4.193   8.102
 1385SOL    HW1 4154   0.668   4.104   8.072
 1385SOL    HW2 4155   0.728   4.247   8.022
 1386SOL     OW 4156   0.504   4.229   7.024
 1386SOL    HW1 4157   0.565   4.309   7.028
 1386SOL    HW2 4158   0.409   4.260   7.031
 1387SOL     OW 4159   0.190   4.866   8.299
 1387SOL    HW1 4160   0.212   4.805   8.375
 1387SOL    HW2 4161   0.200   4.817   8.213
 1388SOL     OW 4162   1.378   4.788   8.067
 1388SOL    HW1 4163   1.402   4.725   7.993
 1388SOL    HW2 4164   1.288   4.828   8.049
 1389SOL     OW 4165   1.333   4.584   7.142
 1389SOL    HW1 4166   1.247   4.553   7.184
 1389SOL    HW2 4167   1.329   4.570   7.043
 1390SOL     OW 4168   0.114   4.987   7.855
 1390SOL    HW1 4169   0.109   4.986   7.955
 1390SOL    HW2 4170   0.031   4.946   7.817
 1391SOL     OW 4171   1.757   3.864   7.356
 1391SOL    HW1 4172   1.830   3.847   7.289
 1391SOL    HW2 4173   1.726   3.777   7.394
 1392SOL     OW 4174   1.311   4.656   7.505
 1392SOL    HW1 4175   1.371   4.575   7.507
 1392SOL    HW2 4176   1.351   4.725   7.445
 1393SOL     OW 4177   1.872   3.904   7.796
 1393SOL    HW1 4178   1.911   3.819   7.760
 1393SOL    HW2 4179   1.774   3.906   7.777
 1394SOL     OW 4180   0.294   4.055   7.553
 1394SOL    HW1 4181   0.215   4.106   7.519
 1394SOL    HW2 4182   0.285   4.040   7.651
 1395SOL     OW 4183   0.853   4.731   8.205
 1395SOL    HW1 4184   0.893   4.730   8.113
 1395SOL    HW2 4185   0.863   4.823   8.245
 1396SOL     OW 4186   0.947   4.639   7.124
 1396SOL    HW1 4187   1.010   4.677   7.056
 1396SOL    HW2 4188   0.987   4.556   7.163
 1397SOL     OW 4189   0.403   5.017   8.323
 1397SOL    HW1 4190   0.390   5.110   8.289
 1397SOL    HW2 4191   0.319   4.965   8.310
 1398SOL     OW 4192   1.645   5.021   8.122
 1398SOL    HW1 4193   1.705   5.024   8.202
 1398SOL    HW2 4194   1.570   5.085   8.135
 1399SOL     OW 4195   1.070   4.827   7.529
 1399SOL    HW1 4196   1.000   4.780   7.583
 1399SOL    HW2 4197   1.129   4.759   7.486
 1400SOL     OW 4198   1.045   3.965   7.804
 1400SOL    HW1 4199   1.037   3.929   7.711
 1400SOL    HW2 4200   1.043   3.889   7.869
 1401SOL     OW 4201   1.740   4.114   8.214
 1401SOL    HW1 4202   1.813   4.183   8.218
 1401SOL    HW2 4203   1.768   4.039   8.155
 1402SOL     OW 4204   0.136   4.742   8.559
 1402SOL    HW1 4205   0.059   4.709   8.613
 1402SOL    HW2 4206   0.221   4.712   8.601
 1403SOL     OW 4207   0.703   3.932   8.322
 1403SOL    HW1 4208   0.793   3.916   8.282
 1403SOL    HW2 4209   0.711   3.937   8.421
 1404SOL     OW 4210   0.106   4.074   6.866
 1404SOL    HW1 4211   0.014   4.046   6.837
 1404SOL    HW2 4212   0.137   4.151   6.810
 1405SOL     OW 4213   1.471   4.585   8.231
 1405SOL    HW1 4214   1.414   4.637   8.168
 1405SOL    HW2 4215   1.567   4.597   8.207
 1406SOL     OW 4216   0.103   3.895   7.151
 1406SOL    HW1 4217   0.086   3.978   7.097
 1406SOL    HW2 4218   0.193   3.858   7.129
 1407SOL     OW 4219   0.644   4.571   8.264
 1407SOL    HW1 4220   0.700   4.652   8.247
 1407SOL    HW2 4221   0.703   4.491   8.267
 1408SOL     OW 4222   0.747   4.294   8.541
 1408SOL    HW1 4223   0.766   4.359   8.615
 1408SOL    HW2 4224   0.807   4.214   8.550
 1409SOL     OW 4225   1.481   4.949   8.466
 1409SOL    HW1 4226   1.472   4.939   8.565
 1409SOL    HW2 4227   1.577   4.942   8.440
 1410SOL     OW 4228   1.705   4.612   8.087
 1410SOL    HW1 4229   1.678   4.523   8.050
 1410SOL    HW2 4230   1.706   4.680   8.014
 1411SOL     OW 4231   1.256   4.054   7.282
 1411SOL    HW1 4232   1.321   3.980   7.271
 1411SOL    HW2 4233   1.276   4.104   7.366
 1412SOL     OW 4234   0.625   4.474   7.485
 1412SOL    HW1 4235   0.675   4.559   7.466
 1412SOL    HW2 4236   0.537   4.476   7.437
 1413SOL     OW 4237   1.808   4.071   8.475
 1413SOL    HW1 4238   1.791   4.102   8.381
 1413SOL    HW2 4239   1.724   4.034   8.513
 1414SOL     OW 4240   1.761   4.663   8.350
 1414SOL    HW1 4241   1.799   4.754   8.365
 1414SOL    HW2 4242   1.753   4.646   8.251
 1415SOL     OW 4243   0.890   4.685   7.694
 1415SOL    HW1 4244   0.944   4.616   7.742
 1415SOL    HW2 4245   0.858   4.754   7.760
 1416SOL     OW 4246   1.114   4.713   6.920
 1416SOL    HW1 4247   1.091   4.766   6.838
 1416SOL    HW2 4248   1.195   4.657   6.901
 1417SOL     OW 4249   0.110   4.969   7.486
 1417SOL    HW1 4250   0.109   4.922   7.574
 1417SOL    HW2 4251   0.192   4.941   7.435
 1418SOL     OW 4252   1.855   3.921   8.060
 1418SOL    HW1 4253   1.851   3.831   8.104
 1418SOL    HW2 4254   1.858   3.910   7.961
 1419SOL     OW 4255   0.459   4.153   7.353
 1419SOL    HW1 4256   0.489   4.081   7.291
 1419SOL    HW2 4257   0.420   4.113   7.436
 1420SOL     OW 4258   0.348   4.276   8.113
 1420SOL    HW1 4259   0.386   4.217   8.185
 1420SOL    HW2 4260   0.388   4.250   8.025
 1421SOL     OW 4261   1.455   3.943   7.945
 1421SOL    HW1 4262   1.507   3.878   8.000
 1421SOL    HW2 4263   1.406   4.006   8.006
 1422SOL     OW 4264   1.032   3.763   7.987
 1422SOL    HW1 4265   0.969   3.691   7.956
 1422SOL    HW2 4266   1.125   3.727   7.987
 1423SOL     OW 4267   0.801   5.059   7.134
 1423SOL    HW1 4268   0.755   4.972   7.151
 1423SOL    HW2 4269   0.892   5.056   7.175
 1424SOL     OW 4270   1.383   3.781   7.001
 1424SOL    HW1 4271   1.418   3.740   6.917
 1424SOL    HW2 4272   1.293   3.743   7.021
 1425SOL     OW 4273   1.331   4.182   7.524
 1425SOL    HW1 4274   1.272   4.262   7.528
 1425SOL    HW2 4275   1.346   4.147   7.617
 1426SOL     OW 4276   1.624   3.950   7.715
 1426SOL    HW1 4277   1.540   3.949   7.769
 1426SOL    HW2 4278   1.626   4.033   7.659
 1427SOL     OW 4279   0.070   4.806   7.133
 1427SOL    HW1 4280   0.169   4.795   7.124
 1427SOL    HW2 4281   0.030   4.720   7.165
 1428SOL     OW 4282   0.261   4.357   8.808
 1428SOL    HW1 4283   0.168   4.355   8.845
 1428SOL    HW2 4284   0.262   4.318   8.716
 1429SOL     OW 4285   0.256   4.004   9.691
 1429SOL    HW1 4286   0.291   3.987   9.783
 1429SOL    HW2 4287   0.168   3.959   9.679
 1430SOL     OW 4288   0.050   4.097   9.342
 1430SOL    HW1 4289  -0.032   4.140   9.381
 1430SOL    HW2 4290   0.022   4.024   9.279
 1431SOL     OW 4291   1.166   4.432   9.412
 1431SOL    HW1 4292   1.223   4.510   9.387
 1431SOL    HW2 4293   1.106   4.458   9.488
 1432SOL     OW 4294   1.786   4.336   8.926
 1432SOL    HW1 4295   1.774   4.323   8.827
 1432SOL    HW2 4296   1.756   4.255   8.975
 1433SOL     OW 4297   0.799   4.873   9.718
 1433SOL    HW1 4298   0.721   4.890   9.778
 1433SOL    HW2 4299   0.833   4.960   9.682
 1434SOL     OW 4300   0.716   4.741   9.360
 1434SOL    HW1 4301   0.785   4.725   9.430
 1434SOL    HW2 4302   0.643   4.798   9.398
 1435SOL     OW 4303   1.634   4.176   9.432
 1435SOL    HW1 4304   1.560   4.222   9.382
 1435SOL    HW2 4305   1.685   4.244   9.485
 1436SOL     OW 4306   0.271   4.820   9.581
 1436SOL    HW1 4307   0.285   4.736   9.633
 1436SOL    HW2 4308   0.216   4.884   9.636
 1437SOL     OW 4309   0.637   4.693   8.818
 1437SOL    HW1 4310   0.644   4.777   8.764
 1437SOL    HW2 4311   0.683   4.706   8.906
 1438SOL     OW 4312   0.153   4.372   9.258
 1438SOL    HW1 4313   0.108   4.284   9.275
 1438SOL    HW2 4314   0.152   4.426   9.342
 1439SOL     OW 4315   1.720   4.651   9.307
 1439SOL    HW1 4316   1.815   4.622   9.315
 1439SOL    HW2 4317   1.712   4.716   9.232
 1440SOL     OW 4318   1.672   4.837   9.127
 1440SOL    HW1 4319   1.758   4.839   9.075
 1440SOL    HW2 4320   1.686   4.884   9.215
 1441SOL     OW 4321   0.840   3.733   9.197
 1441SOL    HW1 4322   0.880   3.824   9.188
 1441SOL    HW2 4323   0.740   3.741   9.203
 1442SOL     OW 4324   0.228   4.705   9.959
 1442SOL    HW1 4325   0.317   4.660   9.945
 1442SOL    HW2 4326   0.155   4.640   9.940
 1443SOL     OW 4327   1.556   4.728   8.885
 1443SOL    HW1 4328   1.493   4.652   8.898
 1443SOL    HW2 4329   1.604   4.746   8.971
 1444SOL     OW 4330   0.629   4.458   8.965
 1444SOL    HW1 4331   0.653   4.527   8.897
 1444SOL    HW2 4332   0.551   4.491   9.019
 1445SOL     OW 4333   1.312   4.074   9.639
 1445SOL    HW1 4334   1.226   4.024   9.626
 1445SOL    HW2 4335   1.374   4.020   9.695
 1446SOL     OW 4336   1.072   4.430   9.124
 1446SOL    HW1 4337   1.098   4.426   9.220
 1446SOL    HW2 4338   0.987   4.379   9.110
 1447SOL     OW 4339   0.107   4.540   9.484
 1447SOL    HW1 4340   0.206   4.528   9.493
 1447SOL    HW2 4341   0.083   4.635   9.505
 1448SOL     OW 4342   0.896   4.077   8.890
 1448SOL    HW1 4343   0.955   4.140   8.841
 1448SOL    HW2 4344   0.915   3.983   8.861
 1449SOL     OW 4345   1.393   4.873   9.240
 1449SOL    HW1 4346   1.476   4.844   9.192
 1449SOL    HW2 4347   1.344   4.940   9.184
 1450SOL     OW 4348   0.581   3.925   9.580
 1450SOL    HW1 4349   0.576   3.920   9.680
 1450SOL    HW2 4350   0.583   4.021   9.551
 1451SOL     OW 4351   1.826   4.795   9.568
 1451SOL    HW1 4352   1.764   4.780   9.492
 1451SOL    HW2 4353   1.774   4.806   9.653
 1452SOL     OW 4354   0.352   4.672   8.937
 1452SOL    HW1 4355   0.434   4.711   8.895
 1452SOL    HW2 4356   0.325   4.590   8.888
 1453SOL     OW 4357   1.489   4.464   9.423
 1453SOL    HW1 4358   1.484   4.399   9.498
 1453SOL    HW2 4359   1.569   4.523   9.436
 1454SOL     OW 4360   1.431   3.836   9.121
 1454SOL    HW1 4361   1.407   3.799   9.031
 1454SOL    HW2 4362   1.530   3.852   9.125
 1455SOL     OW 4363   0.413   4.429   9.175
 1455SOL    HW1 4364   0.458   4.339   9.172
 1455SOL    HW2 4365   0.319   4.418   9.208
 1456SOL     OW 4366   0.645   3.851   8.812
 1456SOL    HW1 4367   0.743   3.829   8.819
 1456SOL    HW2 4368   0.614   3.834   8.719
 1457SOL     OW 4369   0.953   4.232   9.594
 1457SOL    HW1 4370   0.928   4.223   9.498
 1457SOL    HW2 4371   1.001   4.150   9.625
 1458SOL     OW 4372   0.570   3.793   9.207
 1458SOL    HW1 4373   0.489   3.794   9.265
 1458SOL    HW2 4374   0.573   3.876   9.152
 1459SOL     OW 4375   0.328   3.764   8.866
 1459SOL    HW1 4376   0.377   3.848   8.845
 1459SOL    HW2 4377   0.390   3.699   8.911
 1460SOL     OW 4378   0.966   3.965   9.175
 1460SOL    HW1 4379   0.918   4.006   9.097
 1460SOL    HW2 4380   1.065   3.963   9.156
 1461SOL     OW 4381   0.490   4.881   9.436
 1461SOL    HW1 4382   0.419   4.854   9.501
 1461SOL    HW2 4383   0.464   4.853   9.343
 1462SOL     OW 4384   1.063   4.278   8.711
 1462SOL    HW1 4385   1.022   4.360   8.672
 1462SOL    HW2 4386   1.127   4.304   8.784
 1463SOL     OW 4387   0.897   4.183   9.337
 1463SOL    HW1 4388   0.865   4.255   9.275
 1463SOL    HW2 4389   0.921   4.102   9.284
 1464SOL     OW 4390   1.048   3.768   9.448
 1464SOL    HW1 4391   0.976   3.773   9.379
 1464SOL    HW2 4392   1.024   3.699   9.517
 1465SOL     OW 4393   1.460   4.902   9.562
 1465SOL    HW1 4394   1.405   4.818   9.555
 1465SOL    HW2 4395   1.486   4.931   9.470
 1466SOL     OW 4396   1.497   4.319   9.687
 1466SOL    HW1 4397   1.467   4.224   9.694
 1466SOL    HW2 4398   1.570   4.335   9.753
 1467SOL     OW 4399   1.888   4.562   9.072
 1467SOL    HW1 4400   1.930   4.498   9.136
 1467SOL    HW2 4401   1.850   4.511   8.994
 1468SOL     OW 4402   1.421   4.304   8.773
 1468SOL    HW1 4403   1.367   4.283   8.854
 1468SOL    HW2 4404   1.512   4.263   8.782
 1469SOL     OW 4405   0.558   3.985   9.023
 1469SOL    HW1 4406   0.585   3.926   8.948
 1469SOL    HW2 4407   0.558   4.080   8.992
 1470SOL     OW 4408   1.669   4.828   9.774
 1470SOL    HW1 4409   1.674   4.909   9.833
 1470SOL    HW2 4410   1.583   4.830   9.723
 1471SOL     OW 4411   0.736   4.779   9.063
 1471SOL    HW1 4412   0.722   4.786   9.162
 1471SOL    HW2 4413   0.820   4.728   9.045
 1472SOL     OW 4414   0.441   4.542   9.946
 1472SOL    HW1 4415   0.527   4.554   9.996
 1472SOL    HW2 4416   0.399   4.455   9.973
 1473SOL     OW 4417   0.398   4.829   9.196
 1473SOL    HW1 4418   0.391   4.912   9.140
 1473SOL    HW2 4419   0.402   4.749   9.136
 1474SOL     OW 4420   0.597   4.266   9.560
 1474SOL    HW1 4421   0.609   4.332   9.486
 1474SOL    HW2 4422   0.643   4.300   9.643
 1475SOL     OW 4423   1.613   4.368   9.167
 1475SOL    HW1 4424   1.582   4.429   9.240
 1475SOL    HW2 4425   1.663   4.420   9.098
 1476SOL     OW 4426   0.604   4.599   9.724
 1476SOL    HW1 4427   0.648   4.688   9.715
 1476SOL    HW2 4428   0.541   4.599   9.801
 1477SOL     OW 4429   1.391   4.591   9.740
 1477SOL    HW1 4430   1.316   4.591   9.674
 1477SOL    HW2 4431   1.428   4.499   9.749
 1478SOL     OW 4432   1.240   4.254   8.970
 1478SOL    HW1 4433   1.253   4.170   9.024
 1478SOL    HW2 4434   1.211   4.328   9.030
 1479SOL     OW 4435   0.338   3.942   9.926
 1479SOL    HW1 4436   0.315   3.979  10.016
 1479SOL    HW2 4437   0.308   3.847   9.920
 1480SOL     OW 4438   0.068   5.039   9.977
 1480SOL    HW1 4439   0.121   4.990  10.045
 1480SOL    HW2 4440   0.090   5.137   9.982
 1481SOL     OW 4441   0.763   4.363   9.759
 1481SOL    HW1 4442   0.822   4.337   9.683
 1481SOL    HW2 4443   0.735   4.459   9.748
 1482SOL     OW 4444   0.338   3.792   9.313
 1482SOL    HW1 4445   0.327   3.886   9.346
 1482SOL    HW2 4446   0.333   3.729   9.390
 1483SOL     OW 4447   1.653   4.096   9.069
 1483SOL    HW1 4448   1.655   4.020   9.133
 1483SOL    HW2 4449   1.605   4.173   9.109
 1484SOL     OW 4450   1.054   4.495   9.661
 1484SOL    HW1 4451   1.069   4.516   9.757
 1484SOL    HW2 4452   1.024   4.400   9.652
 1485SOL     OW 4453   1.571   4.003   8.820
 1485SOL    HW1 4454   1.510   3.928   8.843
 1485SOL    HW2 4455   1.593   4.055   8.903
 1486SOL     OW 4456   1.334   4.567   8.737
 1486SOL    HW1 4457   1.368   4.474   8.752
 1486SOL    HW2 4458   1.352   4.594   8.642
 1487SOL     OW 4459   0.350   4.539   9.644
 1487SOL    HW1 4460   0.443   4.575   9.649
 1487SOL    HW2 4461   0.344   4.454   9.696
 1488SOL     OW 4462   0.370   4.238   9.701
 1488SOL    HW1 4463   0.318   4.155   9.684
 1488SOL    HW2 4464   0.447   4.243   9.637
 1489SOL     OW 4465   1.191   3.936  10.172
 1489SOL    HW1 4466   1.191   4.000  10.249
 1489SOL    HW2 4467   1.219   3.984  10.089
 1490SOL     OW 4468   0.039   5.055   8.895
 1490SOL    HW1 4469  -0.054   5.076   8.864
 1490SOL    HW2 4470   0.049   4.956   8.908
 1491SOL     OW 4471   1.033   4.525   9.933
 1491SOL    HW1 4472   1.074   4.493  10.019
 1491SOL    HW2 4473   0.937   4.498   9.930
 1492SOL     OW 4474   0.071   4.273   9.809
 1492SOL    HW1 4475   0.156   4.240   9.768
 1492SOL    HW2 4476   0.084   4.288   9.907
 1493SOL     OW 4477   0.846   4.301   9.020
 1493SOL    HW1 4478   0.853   4.212   8.974
 1493SOL    HW2 4479   0.752   4.335   9.012
 1494SOL     OW 4480   1.688   4.333   9.901
 1494SOL    HW1 4481   1.650   4.264   9.963
 1494SOL    HW2 4482   1.770   4.297   9.857
 1495SOL     OW 4483   0.702   4.193   9.964
 1495SOL    HW1 4484   0.668   4.104   9.934
 1495SOL    HW2 4485   0.728   4.247   9.884
 1496SOL     OW 4486   0.504   4.229   8.886
 1496SOL    HW1 4487   0.565   4.309   8.890
 1496SOL    HW2 4488   0.409   4.260   8.893
 1497SOL     OW 4489   1.378   4.788   9.929
 1497SOL    HW1 4490   1.402   4.725   9.855
 1497SOL    HW2 4491   1.288   4.828   9.911
 1498SOL     OW 4492   1.333   4.584   9.004
 1498SOL    HW1 4493   1.247   4.553   9.046
 1498SOL    HW2 4494   1.329   4.570   8.905
 1499SOL     OW 4495   0.114   4.987   9.717
 1499SOL    HW1 4496   0.109   4.986   9.817
 1499SOL    HW2 4497   0.031   4.946   9.679
 1500SOL     OW 4498   1.757   3.864   9.218
 1500SOL    HW1 4499   1.830   3.847   9.151
 1500SOL    HW2 4500   1.726   3.777   9.256
 1501SOL     OW 4501   1.311   4.656   9.367
 1501SOL    HW1 4502   1.371   4.575   9.369
 1501SOL    HW2 4503   1.351   4.725   9.307
 1502SOL     OW 4504   1.872   3.904   9.658
 1502SOL    HW1 4505   1.911   3.819   9.622
 1502SOL    HW2 4506   1.774   3.906   9.639
 1503SOL     OW 4507   0.294   4.055   9.415
 1503SOL    HW1 4508   0.215   4.106   9.381
 1503SOL    HW2 4509   0.285   4.040   9.513
 1504SOL     OW 4510   0.853   4.731  10.067
 1504SOL    HW1 4511   0.893   4.730   9.975
 1504SOL    HW2 4512   0.863   4.823  10.107
 1505SOL     OW 4513   0.947   4.639   8.986
 1505SOL    HW1 4514   1.010   4.677   8.918
 1505SOL    HW2 4515   0.987   4.556   9.025
 1506SOL     OW 4516   1.645   5.021   9.984
 1506SOL    HW1 4517   1.705   5.024  10.064
 1506SOL    HW2 4518   1.570   5.085   9.997
 1507SOL     OW 4519   1.070   4.827   9.391
 1507SOL    HW1 4520   1.000   4.780   9.445
 1507SOL    HW2 4521   1.129   4.759   9.348
 1508SOL     OW 4522   1.045   3.965   9.666
 1508SOL    HW1 4523   1.037   3.929   9.573
 1508SOL    HW2 4524   1.043   3.889   9.731
 1509SOL     OW 4525   1.740   4.114  10.076
 1509SOL    HW1 4526   1.813   4.183  10.080
 1509SOL    HW2 4527   1.768   4.039  10.017
 1510SOL     OW 4528   0.106   4.074   8.728
 1510SOL    HW1 4529   0.014   4.046   8.699
 1510SOL    HW2 4530   0.137   4.151   8.672
 1511SOL     OW 4531   0.103   3.895   9.013
 1511SOL    HW1 4532   0.086   3.978   8.959
 1511SOL    HW2 4533   0.193   3.858   8.991
 1512SOL     OW 4534   1.705   4.612   9.949
 1512SOL    HW1 4535   1.678   4.523   9.912
 1512SOL    HW2 4536   1.706   4.680   9.876
 1513SOL     OW 4537   1.256   4.054   9.144
 1513SOL    HW1 4538   1.321   3.980   9.133
 1513SOL    HW2 4539   1.276   4.104   9.228
 1514SOL     OW 4540   0.625   4.474   9.347
 1514SOL    HW1 4541   0.675   4.559   9.328
 1514SOL    HW2 4542   0.537   4.476   9.299
 1515SOL     OW 4543   1.761   4.663  10.212
 1515SOL    HW1 4544   1.799   4.754  10.227
 1515SOL    HW2 4545   1.753   4.646  10.113
 1516SOL     OW 4546   0.890   4.685   9.556
 1516SOL    HW1 4547   0.944   4.616   9.604
 1516SOL    HW2 4548   0.858   4.754   9.622
 1517SOL     OW 4549   1.114   4.713   8.782
 1517SOL    HW1 4550   1.091   4.766   8.700
 1517SOL    HW2 4551   1.195   4.657   8.763
 1518SOL     OW 4552   0.110   4.969   9.348
 1518SOL    HW1 4553   0.109   4.922   9.436
 1518SOL    HW2 4554   0.192   4.941   9.297
 1519SOL     OW 4555   1.855   3.921   9.922
 1519SOL    HW1 4556   1.851   3.831   9.966
 1519SOL    HW2 4557   1.858   3.910   9.823
 1520SOL     OW 4558   0.459   4.153   9.215
 1520SOL    HW1 4559   0.489   4.081   9.153
 1520SOL    HW2 4560   0.420   4.113   9.298
 1521SOL     OW 4561   1.455   3.943   9.807
 1521SOL    HW1 4562   1.507   3.878   9.862
 1521SOL    HW2 4563   1.406   4.006   9.868
 1522SOL     OW 4564   1.032   3.763   9.849
 1522SOL    HW1 4565   0.969   3.691   9.818
 1522SOL    HW2 4566   1.125   3.727   9.849
 1523SOL     OW 4567   0.801   5.059   8.996
 1523SOL    HW1 4568   0.755   4.972   9.013
 1523SOL    HW2 4569   0.892   5.056   9.037
 1524SOL     OW 4570   1.383   3.781   8.863
 1524SOL    HW1 4571   1.418   3.740   8.779
 1524SOL    HW2 4572   1.293   3.743   8.883
 1525SOL     OW 4573   1.331   4.182   9.386
 1525SOL    HW1 4574   1.272   4.262   9.390
 1525SOL    HW2 4575   1.346   4.147   9.479
 1526SOL     OW 4576   1.624   3.950   9.577
 1526SOL    HW1 4577   1.540   3.949   9.631
 1526SOL    HW2 4578   1.626   4.033   9.521
 1527SOL     OW 4579   0.070   4.806   8.995
 1527SOL    HW1 4580   0.169   4.795   8.986
 1527SOL    HW2 4581   0.030   4.720   9.027
 1528SOL     OW 4582   2.123   0.633   5.084
 1528SOL    HW1 4583   2.030   0.631   5.121
 1528SOL    HW2 4584   2.124   0.594   4.992
 1529SOL     OW 4585   2.118   0.280   5.967
 1529SOL    HW1 4586   2.153   0.263   6.059
 1529SOL    HW2 4587   2.030   0.235   5.955
 1530SOL     OW 4588   1.912   0.373   5.618
 1530SOL    HW1 4589   1.830   0.416   5.657
 1530SOL    HW2 4590   1.884   0.300   5.555
 1531SOL     OW 4591   2.462   1.280   6.136
 1531SOL    HW1 4592   2.369   1.273   6.099
 1531SOL    HW2 4593   2.473   1.369   6.180
 1532SOL     OW 4594   3.448   1.516   5.674
 1532SOL    HW1 4595   3.391   1.500   5.755
 1532SOL    HW2 4596   3.389   1.526   5.594
 1533SOL     OW 4597   3.028   0.708   5.688
 1533SOL    HW1 4598   3.085   0.786   5.663
 1533SOL    HW2 4599   2.968   0.734   5.764
 1534SOL     OW 4600   3.648   0.612   5.202
 1534SOL    HW1 4601   3.636   0.599   5.103
 1534SOL    HW2 4602   3.618   0.531   5.251
 1535SOL     OW 4603   2.661   1.149   5.994
 1535SOL    HW1 4604   2.583   1.166   6.054
 1535SOL    HW2 4605   2.695   1.236   5.958
 1536SOL     OW 4606   2.743   0.803   6.794
 1536SOL    HW1 4607   2.739   0.879   6.859
 1536SOL    HW2 4608   2.765   0.839   6.703
 1537SOL     OW 4609   2.578   1.017   5.636
 1537SOL    HW1 4610   2.647   1.001   5.706
 1537SOL    HW2 4611   2.505   1.074   5.674
 1538SOL     OW 4612   2.579   1.166   6.774
 1538SOL    HW1 4613   2.639   1.245   6.788
 1538SOL    HW2 4614   2.493   1.197   6.733
 1539SOL     OW 4615   2.228   1.440   6.032
 1539SOL    HW1 4616   2.150   1.409   5.979
 1539SOL    HW2 4617   2.286   1.498   5.975
 1540SOL     OW 4618   3.353   1.510   6.310
 1540SOL    HW1 4619   3.377   1.604   6.336
 1540SOL    HW2 4620   3.337   1.456   6.392
 1541SOL     OW 4621   2.331   0.397   6.470
 1541SOL    HW1 4622   2.413   0.341   6.479
 1541SOL    HW2 4623   2.250   0.339   6.474
 1542SOL     OW 4624   3.496   0.452   5.708
 1542SOL    HW1 4625   3.422   0.498   5.658
 1542SOL    HW2 4626   3.547   0.520   5.761
 1543SOL     OW 4627   2.124   1.718   5.454
 1543SOL    HW1 4628   2.158   1.795   5.508
 1543SOL    HW2 4629   2.168   1.718   5.364
 1544SOL     OW 4630   3.020   1.346   6.661
 1544SOL    HW1 4631   3.067   1.346   6.749
 1544SOL    HW2 4632   2.972   1.259   6.650
 1545SOL     OW 4633   2.123   1.439   5.509
 1545SOL    HW1 4634   2.097   1.535   5.509
 1545SOL    HW2 4635   2.052   1.385   5.554
 1546SOL     OW 4636   2.133   1.096   5.857
 1546SOL    HW1 4637   2.147   1.012   5.909
 1546SOL    HW2 4638   2.078   1.160   5.912
 1547SOL     OW 4639   2.513   1.791   6.410
 1547SOL    HW1 4640   2.421   1.774   6.445
 1547SOL    HW2 4641   2.541   1.883   6.436
 1548SOL     OW 4642   2.499   0.969   5.094
 1548SOL    HW1 4643   2.506   1.053   5.040
 1548SOL    HW2 4644   2.545   0.982   5.182
 1549SOL     OW 4645   3.487   0.119   6.451
 1549SOL    HW1 4646   3.469   0.186   6.379
 1549SOL    HW2 4647   3.484   0.165   6.540
 1550SOL     OW 4648   2.015   0.648   5.534
 1550SOL    HW1 4649   1.970   0.560   5.551
 1550SOL    HW2 4650   2.014   0.702   5.618
 1551SOL     OW 4651   3.735   1.772   5.330
 1551SOL    HW1 4652   3.789   1.743   5.410
 1551SOL    HW2 4653   3.765   1.862   5.301
 1552SOL     OW 4654   1.920   1.601   5.088
 1552SOL    HW1 4655   1.901   1.505   5.109
 1552SOL    HW2 4656   1.887   1.659   5.163
 1553SOL     OW 4657   3.582   0.927   5.583
 1553SOL    HW1 4658   3.677   0.898   5.591
 1553SOL    HW2 4659   3.574   0.992   5.508
 1554SOL     OW 4660   3.534   1.113   5.403
 1554SOL    HW1 4661   3.620   1.115   5.351
 1554SOL    HW2 4662   3.548   1.160   5.491
 1555SOL     OW 4663   2.006   0.742   6.568
 1555SOL    HW1 4664   2.094   0.729   6.613
 1555SOL    HW2 4665   1.993   0.839   6.546
 1556SOL     OW 4666   2.506   1.370   5.697
 1556SOL    HW1 4667   2.457   1.283   5.706
 1556SOL    HW2 4668   2.483   1.413   5.610
 1557SOL     OW 4669   3.186   1.233   6.394
 1557SOL    HW1 4670   3.223   1.160   6.336
 1557SOL    HW2 4671   3.238   1.238   6.479
 1558SOL     OW 4672   2.702   0.009   5.473
 1558SOL    HW1 4673   2.742   0.100   5.464
 1558SOL    HW2 4674   2.602   0.017   5.479
 1559SOL     OW 4675   2.090   0.981   6.235
 1559SOL    HW1 4676   2.179   0.936   6.221
 1559SOL    HW2 4677   2.017   0.916   6.216
 1560SOL     OW 4678   3.418   1.004   5.161
 1560SOL    HW1 4679   3.355   0.928   5.174
 1560SOL    HW2 4680   3.466   1.022   5.247
 1561SOL     OW 4681   3.080   1.797   6.587
 1561SOL    HW1 4682   3.104   1.857   6.511
 1561SOL    HW2 4683   3.087   1.702   6.557
 1562SOL     OW 4684   2.210   0.256   6.772
 1562SOL    HW1 4685   2.281   0.327   6.778
 1562SOL    HW2 4686   2.122   0.295   6.800
 1563SOL     OW 4687   3.359   1.422   5.924
 1563SOL    HW1 4688   3.300   1.428   6.004
 1563SOL    HW2 4689   3.344   1.334   5.878
 1564SOL     OW 4690   3.560   1.719   5.543
 1564SOL    HW1 4691   3.519   1.696   5.455
 1564SOL    HW2 4692   3.542   1.645   5.608
 1565SOL     OW 4693   2.491   0.734   5.241
 1565SOL    HW1 4694   2.515   0.803   5.173
 1565SOL    HW2 4695   2.413   0.767   5.295
 1566SOL     OW 4696   3.174   0.350   5.915
 1566SOL    HW1 4697   3.088   0.300   5.902
 1566SOL    HW2 4698   3.236   0.296   5.971
 1567SOL     OW 4699   3.469   1.667   5.278
 1567SOL    HW1 4700   3.558   1.713   5.281
 1567SOL    HW2 4701   3.448   1.643   5.183
 1568SOL     OW 4702   2.700   0.610   6.436
 1568SOL    HW1 4703   2.653   0.607   6.525
 1568SOL    HW2 4704   2.649   0.555   6.370
 1569SOL     OW 4705   3.287   0.474   6.645
 1569SOL    HW1 4706   3.267   0.517   6.733
 1569SOL    HW2 4707   3.365   0.412   6.654
 1570SOL     OW 4708   2.866   0.895   6.543
 1570SOL    HW1 4709   2.912   0.811   6.514
 1570SOL    HW2 4710   2.810   0.929   6.468
 1571SOL     OW 4711   2.884   0.415   6.213
 1571SOL    HW1 4712   2.807   0.449   6.267
 1571SOL    HW2 4713   2.850   0.364   6.134
 1572SOL     OW 4714   2.934   0.706   5.400
 1572SOL    HW1 4715   2.960   0.702   5.496
 1572SOL    HW2 4716   2.849   0.655   5.386
 1573SOL     OW 4717   1.969   0.816   5.760
 1573SOL    HW1 4718   2.068   0.804   5.769
 1573SOL    HW2 4719   1.945   0.911   5.781
 1574SOL     OW 4720   2.023   1.826   6.542
 1574SOL    HW1 4721   2.013   1.811   6.641
 1574SOL    HW2 4722   1.937   1.862   6.506
 1575SOL     OW 4723   2.758   0.353   5.166
 1575SOL    HW1 4724   2.817   0.416   5.117
 1575SOL    HW2 4725   2.777   0.259   5.137
 1576SOL     OW 4726   3.612   0.590   6.802
 1576SOL    HW1 4727   3.586   0.679   6.766
 1576SOL    HW2 4728   3.610   0.522   6.729
 1577SOL     OW 4729   3.255   1.149   5.516
 1577SOL    HW1 4730   3.338   1.120   5.468
 1577SOL    HW2 4731   3.206   1.216   5.460
 1578SOL     OW 4732   2.443   0.201   5.856
 1578SOL    HW1 4733   2.438   0.196   5.956
 1578SOL    HW2 4734   2.445   0.297   5.827
 1579SOL     OW 4735   2.901   1.461   5.448
 1579SOL    HW1 4736   2.855   1.533   5.396
 1579SOL    HW2 4737   2.897   1.481   5.546
 1580SOL     OW 4738   2.244   1.806   5.824
 1580SOL    HW1 4739   2.294   1.720   5.830
 1580SOL    HW2 4740   2.309   1.883   5.821
 1581SOL     OW 4741   3.688   1.071   5.844
 1581SOL    HW1 4742   3.626   1.056   5.768
 1581SOL    HW2 4743   3.636   1.082   5.929
 1582SOL     OW 4744   3.120   1.555   6.477
 1582SOL    HW1 4745   3.126   1.478   6.541
 1582SOL    HW2 4746   3.068   1.529   6.397
 1583SOL     OW 4747   2.214   0.948   5.213
 1583SOL    HW1 4748   2.296   0.987   5.171
 1583SOL    HW2 4749   2.187   0.866   5.164
 1584SOL     OW 4750   3.351   0.740   5.699
 1584SOL    HW1 4751   3.346   0.675   5.774
 1584SOL    HW2 4752   3.431   0.799   5.712
 1585SOL     OW 4753   2.354   1.271   6.698
 1585SOL    HW1 4754   2.304   1.272   6.612
 1585SOL    HW2 4755   2.291   1.253   6.774
 1586SOL     OW 4756   3.004   1.781   5.208
 1586SOL    HW1 4757   2.944   1.719   5.258
 1586SOL    HW2 4758   3.035   1.737   5.123
 1587SOL     OW 4759   2.095   0.290   6.469
 1587SOL    HW1 4760   2.015   0.350   6.456
 1587SOL    HW2 4761   2.085   0.241   6.555
 1588SOL     OW 4762   3.525   1.382   5.052
 1588SOL    HW1 4763   3.493   1.476   5.042
 1588SOL    HW2 4764   3.449   1.319   5.040
 1589SOL     OW 4765   2.357   1.748   5.294
 1589SOL    HW1 4766   2.390   1.787   5.380
 1589SOL    HW2 4767   2.433   1.741   5.229
 1590SOL     OW 4768   3.293   0.112   5.397
 1590SOL    HW1 4769   3.269   0.075   5.307
 1590SOL    HW2 4770   3.392   0.128   5.401
 1591SOL     OW 4771   2.142   1.790   6.212
 1591SOL    HW1 4772   2.199   1.725   6.262
 1591SOL    HW2 4773   2.126   1.757   6.119
 1592SOL     OW 4774   2.833   1.703   5.875
 1592SOL    HW1 4775   2.913   1.646   5.896
 1592SOL    HW2 4776   2.784   1.663   5.798
 1593SOL     OW 4777   2.275   0.705   5.451
 1593SOL    HW1 4778   2.320   0.615   5.448
 1593SOL    HW2 4779   2.181   0.694   5.484
 1594SOL     OW 4780   3.440   0.227   6.700
 1594SOL    HW1 4781   3.435   0.264   6.792
 1594SOL    HW2 4782   3.368   0.158   6.688
 1595SOL     OW 4783   2.507   0.127   5.088
 1595SOL    HW1 4784   2.605   0.105   5.095
 1595SOL    HW2 4785   2.476   0.110   4.995
 1596SOL     OW 4786   2.674   0.269   6.720
 1596SOL    HW1 4787   2.741   0.208   6.763
 1596SOL    HW2 4788   2.601   0.288   6.785
 1597SOL     OW 4789   2.781   1.519   6.166
 1597SOL    HW1 4790   2.758   1.494   6.072
 1597SOL    HW2 4791   2.842   1.450   6.205
 1598SOL     OW 4792   3.244   0.595   6.404
 1598SOL    HW1 4793   3.272   0.552   6.489
 1598SOL    HW2 4794   3.269   0.691   6.405
 1599SOL     OW 4795   2.696   1.407   5.895
 1599SOL    HW1 4796   2.786   1.421   5.853
 1599SOL    HW2 4797   2.625   1.409   5.824
 1600SOL     OW 4798   2.815   0.508   5.870
 1600SOL    HW1 4799   2.790   0.499   5.774
 1600SOL    HW2 4800   2.863   0.426   5.901
 1601SOL     OW 4801   2.432   0.069   5.483
 1601SOL    HW1 4802   2.351   0.070   5.541
 1601SOL    HW2 4803   2.435   0.152   5.428
 1602SOL     OW 4804   3.327   1.193   5.012
 1602SOL    HW1 4805   3.359   1.117   5.069
 1602SOL    HW2 4806   3.235   1.220   5.042
 1603SOL     OW 4807   2.190   0.040   5.142
 1603SOL    HW1 4808   2.239   0.124   5.121
 1603SOL    HW2 4809   2.252  -0.025   5.187
 1604SOL     OW 4810   2.828   0.241   5.451
 1604SOL    HW1 4811   2.780   0.282   5.373
 1604SOL    HW2 4812   2.927   0.239   5.432
 1605SOL     OW 4813   2.969   0.688   6.435
 1605SOL    HW1 4814   2.889   0.627   6.438
 1605SOL    HW2 4815   3.050   0.635   6.411
 1606SOL     OW 4816   3.120   1.575   5.764
 1606SOL    HW1 4817   3.141   1.649   5.699
 1606SOL    HW2 4818   3.188   1.575   5.837
 1607SOL     OW 4819   2.352   1.157   5.712
 1607SOL    HW1 4820   2.281   1.130   5.777
 1607SOL    HW2 4821   2.326   1.129   5.619
 1608SOL     OW 4822   3.164   1.802   5.562
 1608SOL    HW1 4823   3.208   1.866   5.498
 1608SOL    HW2 4824   3.114   1.854   5.632
 1609SOL     OW 4825   2.925   0.554   4.987
 1609SOL    HW1 4826   2.884   0.636   4.948
 1609SOL    HW2 4827   2.989   0.580   5.060
 1610SOL     OW 4828   1.971   0.561   6.357
 1610SOL    HW1 4829   2.063   0.560   6.316
 1610SOL    HW2 4830   1.965   0.635   6.424
 1611SOL     OW 4831   2.454   0.227   6.118
 1611SOL    HW1 4832   2.492   0.143   6.155
 1611SOL    HW2 4833   2.366   0.246   6.162
 1612SOL     OW 4834   2.759   0.459   5.613
 1612SOL    HW1 4835   2.727   0.531   5.551
 1612SOL    HW2 4836   2.783   0.378   5.560
 1613SOL     OW 4837   2.910   0.044   5.724
 1613SOL    HW1 4838   2.838   0.049   5.655
 1613SOL    HW2 4839   2.886  -0.025   5.793
 1614SOL     OW 4840   3.322   1.178   5.838
 1614SOL    HW1 4841   3.267   1.094   5.831
 1614SOL    HW2 4842   3.348   1.207   5.746
 1615SOL     OW 4843   3.359   0.595   5.963
 1615SOL    HW1 4844   3.329   0.500   5.970
 1615SOL    HW2 4845   3.432   0.611   6.029
 1616SOL     OW 4846   3.750   0.838   5.348
 1616SOL    HW1 4847   3.792   0.774   5.412
 1616SOL    HW2 4848   3.712   0.787   5.270
 1617SOL     OW 4849   2.381   1.390   5.145
 1617SOL    HW1 4850   2.294   1.375   5.192
 1617SOL    HW2 4851   2.364   1.416   5.050
 1618SOL     OW 4852   3.557   1.285   5.628
 1618SOL    HW1 4853   3.656   1.293   5.642
 1618SOL    HW2 4854   3.512   1.369   5.659
 1619SOL     OW 4855   3.283   0.580   5.049
 1619SOL    HW1 4856   3.229   0.559   5.130
 1619SOL    HW2 4857   3.374   0.539   5.058
 1620SOL     OW 4858   2.420   0.261   5.299
 1620SOL    HW1 4859   2.447   0.202   5.224
 1620SOL    HW2 4860   2.420   0.356   5.268
 1621SOL     OW 4861   3.647   1.228   6.559
 1621SOL    HW1 4862   3.738   1.189   6.546
 1621SOL    HW2 4863   3.655   1.324   6.583
 1622SOL     OW 4864   2.957   1.352   6.311
 1622SOL    HW1 4865   2.877   1.329   6.366
 1622SOL    HW2 4866   3.040   1.326   6.360
 1623SOL     OW 4867   3.485   1.634   6.596
 1623SOL    HW1 4868   3.512   1.668   6.506
 1623SOL    HW2 4869   3.564   1.596   6.642
 1624SOL     OW 4870   3.004   1.200   6.071
 1624SOL    HW1 4871   2.964   1.244   6.152
 1624SOL    HW2 4872   2.963   1.237   5.988
 1625SOL     OW 4873   3.531   1.104   6.050
 1625SOL    HW1 4874   3.536   1.185   6.109
 1625SOL    HW2 4875   3.445   1.106   5.999
 1626SOL     OW 4876   2.808   0.094   6.373
 1626SOL    HW1 4877   2.833   0.074   6.278
 1626SOL    HW2 4878   2.880   0.150   6.415
 1627SOL     OW 4879   2.873   1.121   6.690
 1627SOL    HW1 4880   2.774   1.127   6.700
 1627SOL    HW2 4881   2.896   1.041   6.634
 1628SOL     OW 4882   2.598   1.055   5.339
 1628SOL    HW1 4883   2.584   1.062   5.438
 1628SOL    HW2 4884   2.682   1.004   5.321
 1629SOL     OW 4885   2.303   0.818   6.222
 1629SOL    HW1 4886   2.389   0.830   6.272
 1629SOL    HW2 4887   2.261   0.731   6.249
 1630SOL     OW 4888   3.167   0.391   6.233
 1630SOL    HW1 4889   3.188   0.465   6.297
 1630SOL    HW2 4890   3.078   0.408   6.190
 1631SOL     OW 4891   1.957   1.569   6.302
 1631SOL    HW1 4892   1.911   1.651   6.268
 1631SOL    HW2 4893   2.055   1.588   6.311
 1632SOL     OW 4894   2.260   1.105   5.472
 1632SOL    HW1 4895   2.253   1.188   5.416
 1632SOL    HW2 4896   2.264   1.025   5.412
 1633SOL     OW 4897   2.459   0.542   5.836
 1633SOL    HW1 4898   2.471   0.608   5.762
 1633SOL    HW2 4899   2.505   0.576   5.919
 1634SOL     OW 4900   3.145   1.353   5.359
 1634SOL    HW1 4901   3.195   1.430   5.399
 1634SOL    HW2 4902   3.050   1.355   5.391
 1635SOL     OW 4903   3.165   1.450   6.113
 1635SOL    HW1 4904   3.212   1.463   6.200
 1635SOL    HW2 4905   3.099   1.376   6.122
 1636SOL     OW 4906   3.475   0.644   5.443
 1636SOL    HW1 4907   3.444   0.705   5.516
 1636SOL    HW2 4908   3.525   0.696   5.374
 1637SOL     OW 4909   2.247   1.515   6.300
 1637SOL    HW1 4910   2.226   1.471   6.213
 1637SOL    HW2 4911   2.344   1.541   6.303
 1638SOL     OW 4912   2.295   0.756   6.569
 1638SOL    HW1 4913   2.363   0.811   6.522
 1638SOL    HW2 4914   2.335   0.668   6.596
 1639SOL     OW 4915   3.480   0.784   6.641
 1639SOL    HW1 4916   3.388   0.822   6.636
 1639SOL    HW2 4917   3.540   0.831   6.576
 1640SOL     OW 4918   2.906   0.110   6.741
 1640SOL    HW1 4919   2.912   0.195   6.689
 1640SOL    HW2 4920   2.938   0.034   6.684
 1641SOL     OW 4921   2.397   0.055   6.711
 1641SOL    HW1 4922   2.355  -0.002   6.641
 1641SOL    HW2 4923   2.331   0.124   6.743
 1642SOL     OW 4924   2.466   0.875   6.000
 1642SOL    HW1 4925   2.510   0.964   5.991
 1642SOL    HW2 4926   2.403   0.875   6.077
 1643SOL     OW 4927   3.253   0.867   6.016
 1643SOL    HW1 4928   3.178   0.867   5.950
 1643SOL    HW2 4929   3.290   0.775   6.025
 1644SOL     OW 4930   3.102   0.530   5.246
 1644SOL    HW1 4931   3.115   0.446   5.300
 1644SOL    HW2 4932   3.073   0.604   5.306
 1645SOL     OW 4933   2.200   0.218   6.202
 1645SOL    HW1 4934   2.177   0.255   6.292
 1645SOL    HW2 4935   2.170   0.123   6.196
 1646SOL     OW 4936   1.930   1.315   6.253
 1646SOL    HW1 4937   1.983   1.266   6.321
 1646SOL    HW2 4938   1.952   1.413   6.258
 1647SOL     OW 4939   2.625   0.639   6.035
 1647SOL    HW1 4940   2.684   0.613   5.959
 1647SOL    HW2 4941   2.597   0.735   6.024
 1648SOL     OW 4942   3.621   0.940   6.825
 1648SOL    HW1 4943   3.575   0.933   6.736
 1648SOL    HW2 4944   3.559   0.984   6.891
 1649SOL     OW 4945   2.200   0.068   5.589
 1649SOL    HW1 4946   2.189   0.162   5.622
 1649SOL    HW2 4947   2.195   0.005   5.666
 1650SOL     OW 4948   3.515   0.372   5.345
 1650SOL    HW1 4949   3.517   0.296   5.409
 1650SOL    HW2 4950   3.467   0.449   5.385
 1651SOL     OW 4951   2.916   0.771   5.937
 1651SOL    HW1 4952   2.931   0.792   6.033
 1651SOL    HW2 4953   2.886   0.676   5.928
 1652SOL     OW 4954   2.873   1.578   6.671
 1652SOL    HW1 4955   2.853   1.622   6.583
 1652SOL    HW2 4956   2.912   1.487   6.655
 1653SOL     OW 4957   3.752   1.523   6.576
 1653SOL    HW1 4958   3.766   1.550   6.481
 1653SOL    HW2 4959   3.835   1.545   6.629
 1654SOL     OW 4960   2.243   0.903   6.775
 1654SOL    HW1 4961   2.319   0.947   6.823
 1654SOL    HW2 4962   2.278   0.856   6.693
 1655SOL     OW 4963   3.433   0.279   5.096
 1655SOL    HW1 4964   3.372   0.204   5.119
 1655SOL    HW2 4965   3.455   0.331   5.179
 1656SOL     OW 4966   3.196   0.843   5.013
 1656SOL    HW1 4967   3.230   0.750   5.028
 1656SOL    HW2 4968   3.214   0.870   4.918
 1657SOL     OW 4969   2.961   1.338   5.820
 1657SOL    HW1 4970   2.968   1.254   5.765
 1657SOL    HW2 4971   3.023   1.407   5.784
 1658SOL     OW 4972   2.212   0.815   5.920
 1658SOL    HW1 4973   2.305   0.851   5.925
 1658SOL    HW2 4974   2.206   0.730   5.972
 1659SOL     OW 4975   2.232   0.514   5.977
 1659SOL    HW1 4976   2.180   0.431   5.960
 1659SOL    HW2 4977   2.309   0.519   5.913
 1660SOL     OW 4978   3.031   0.385   6.649
 1660SOL    HW1 4979   2.986   0.448   6.713
 1660SOL    HW2 4980   3.124   0.416   6.632
 1661SOL     OW 4981   3.053   0.212   6.448
 1661SOL    HW1 4982   3.053   0.276   6.525
 1661SOL    HW2 4983   3.081   0.260   6.365
 1662SOL     OW 4984   1.901   1.331   5.171
 1662SOL    HW1 4985   1.808   1.352   5.140
 1662SOL    HW2 4986   1.911   1.232   5.184
 1663SOL     OW 4987   1.981   1.806   5.898
 1663SOL    HW1 4988   1.939   1.720   5.871
 1663SOL    HW2 4989   2.075   1.809   5.864
 1664SOL     OW 4990   2.397   1.573   5.881
 1664SOL    HW1 4991   2.463   1.647   5.890
 1664SOL    HW2 4992   2.441   1.494   5.839
 1665SOL     OW 4993   2.895   0.801   6.209
 1665SOL    HW1 4994   2.936   0.769   6.295
 1665SOL    HW2 4995   2.799   0.774   6.206
 1666SOL     OW 4996   1.933   0.549   6.085
 1666SOL    HW1 4997   2.018   0.516   6.044
 1666SOL    HW2 4998   1.946   0.564   6.183
 1667SOL     OW 4999   2.082   0.525   6.693
 1667SOL    HW1 5000   2.141   0.485   6.623
 1667SOL    HW2 5001   2.024   0.596   6.652
 1668SOL     OW 5002   3.262   0.955   6.631
 1668SOL    HW1 5003   3.301   1.044   6.651
 1668SOL    HW2 5004   3.272   0.935   6.534
 1669SOL     OW 5005   2.708   0.577   5.296
 1669SOL    HW1 5006   2.715   0.488   5.250
 1669SOL    HW2 5007   2.614   0.611   5.288
 1670SOL     OW 5008   3.550   0.609   6.177
 1670SOL    HW1 5009   3.512   0.540   6.239
 1670SOL    HW2 5010   3.632   0.573   6.133
 1671SOL     OW 5011   2.145   1.569   6.715
 1671SOL    HW1 5012   2.115   1.626   6.791
 1671SOL    HW2 5013   2.138   1.472   6.741
 1672SOL     OW 5014   2.564   0.469   6.240
 1672SOL    HW1 5015   2.530   0.380   6.210
 1672SOL    HW2 5016   2.590   0.523   6.160
 1673SOL     OW 5017   2.823   1.683   6.436
 1673SOL    HW1 5018   2.799   1.665   6.341
 1673SOL    HW2 5019   2.853   1.777   6.446
 1674SOL     OW 5020   2.366   0.505   5.162
 1674SOL    HW1 5021   2.427   0.585   5.166
 1674SOL    HW2 5022   2.271   0.536   5.169
 1675SOL     OW 5023   2.052   1.142   6.437
 1675SOL    HW1 5024   2.074   1.081   6.513
 1675SOL    HW2 5025   2.062   1.093   6.351
 1676SOL     OW 5026   3.240   1.064   6.205
 1676SOL    HW1 5027   3.264   1.001   6.131
 1676SOL    HW2 5028   3.150   1.104   6.187
 1677SOL     OW 5029   3.195   0.860   5.280
 1677SOL    HW1 5030   3.109   0.829   5.322
 1677SOL    HW2 5031   3.191   0.846   5.181
 1678SOL     OW 5032   3.652   1.752   6.125
 1678SOL    HW1 5033   3.713   1.782   6.052
 1678SOL    HW2 5034   3.614   1.663   6.103
 1679SOL     OW 5035   3.145   1.736   6.099
 1679SOL    HW1 5036   3.229   1.741   6.045
 1679SOL    HW2 5037   3.122   1.640   6.117
 1680SOL     OW 5038   1.976   1.263   5.993
 1680SOL    HW1 5039   1.971   1.262   6.093
 1680SOL    HW2 5040   1.893   1.222   5.955
 1681SOL     OW 5041   2.581   1.667   6.687
 1681SOL    HW1 5042   2.525   1.748   6.696
 1681SOL    HW2 5043   2.633   1.671   6.601
 1682SOL     OW 5044   2.796   0.091   5.104
 1682SOL    HW1 5045   2.847   0.092   5.018
 1682SOL    HW2 5046   2.852   0.049   5.175
 1683SOL     OW 5047   3.619   0.140   5.494
 1683SOL    HW1 5048   3.692   0.123   5.427
 1683SOL    HW2 5049   3.588   0.053   5.532
 1684SOL     OW 5050   3.281   1.578   5.448
 1684SOL    HW1 5051   3.348   1.590   5.374
 1684SOL    HW2 5052   3.241   1.667   5.471
 1685SOL     OW 5053   2.023   1.799   6.822
 1685SOL    HW1 5054   1.982   1.725   6.875
 1685SOL    HW2 5055   2.087   1.850   6.880
 1686SOL     OW 5056   3.173   0.932   5.643
 1686SOL    HW1 5057   3.233   0.851   5.645
 1686SOL    HW2 5058   3.213   1.001   5.583
 1687SOL     OW 5059   2.723   1.278   6.393
 1687SOL    HW1 5060   2.718   1.311   6.488
 1687SOL    HW2 5061   2.637   1.297   6.347
 1688SOL     OW 5062   2.565   1.621   5.125
 1688SOL    HW1 5063   2.574   1.631   5.026
 1688SOL    HW2 5064   2.525   1.532   5.146
 1689SOL     OW 5065   3.543   1.725   6.365
 1689SOL    HW1 5066   3.596   1.735   6.281
 1689SOL    HW2 5067   3.516   1.815   6.399
 1690SOL     OW 5068   3.734   0.180   5.934
 1690SOL    HW1 5069   3.773   0.095   5.898
 1690SOL    HW2 5070   3.636   0.182   5.915
 1691SOL     OW 5071   2.156   0.331   5.691
 1691SOL    HW1 5072   2.077   0.382   5.657
 1691SOL    HW2 5073   2.147   0.316   5.789
 1692SOL     OW 5074   3.087   1.617   5.002
 1692SOL    HW1 5075   3.093   1.524   5.039
 1692SOL    HW2 5076   3.028   1.617   4.922
 1693SOL     OW 5077   2.715   1.007   6.343
 1693SOL    HW1 5078   2.755   1.006   6.251
 1693SOL    HW2 5079   2.725   1.099   6.383
 1694SOL     OW 5080   2.809   0.915   5.262
 1694SOL    HW1 5081   2.872   0.953   5.194
 1694SOL    HW2 5082   2.849   0.832   5.301
 1695SOL     OW 5083   3.397   1.612   5.015
 1695SOL    HW1 5084   3.305   1.649   5.022
 1695SOL    HW2 5085   3.435   1.632   4.925
 1696SOL     OW 5086   2.265   1.293   6.461
 1696SOL    HW1 5087   2.252   1.386   6.427
 1696SOL    HW2 5088   2.181   1.241   6.448
 1697SOL     OW 5089   3.507   1.297   6.260
 1697SOL    HW1 5090   3.567   1.300   6.340
 1697SOL    HW2 5091   3.432   1.361   6.273
 1698SOL     OW 5092   2.932   1.103   5.667
 1698SOL    HW1 5093   2.862   1.056   5.721
 1698SOL    HW2 5094   2.991   1.035   5.624
 1699SOL     OW 5095   2.907   0.241   5.942
 1699SOL    HW1 5096   2.899   0.205   5.849
 1699SOL    HW2 5097   2.905   0.165   6.007
 1700SOL     OW 5098   2.483   1.492   5.462
 1700SOL    HW1 5099   2.525   1.434   5.392
 1700SOL    HW2 5100   2.439   1.571   5.418
 1701SOL     OW 5101   3.602   0.390   6.352
 1701SOL    HW1 5102   3.675   0.459   6.356
 1701SOL    HW2 5103   3.630   0.315   6.293
 1702SOL     OW 5104   2.148   1.353   5.261
 1702SOL    HW1 5105   2.052   1.354   5.234
 1702SOL    HW2 5106   2.160   1.406   5.345
 1703SOL     OW 5107   1.998   1.018   6.697
 1703SOL    HW1 5108   1.921   0.985   6.751
 1703SOL    HW2 5109   2.083   0.988   6.739
 1704SOL     OW 5110   2.565   0.208   6.460
 1704SOL    HW1 5111   2.655   0.192   6.420
 1704SOL    HW2 5112   2.573   0.213   6.559
 1705SOL     OW 5113   3.333   0.861   6.369
 1705SOL    HW1 5114   3.276   0.913   6.306
 1705SOL    HW2 5115   3.429   0.873   6.345
 1706SOL     OW 5116   1.965   0.171   5.289
 1706SOL    HW1 5117   1.948   0.254   5.235
 1706SOL    HW2 5118   2.055   0.134   5.267
 1707SOL     OW 5119   3.076   1.340   5.090
 1707SOL    HW1 5120   2.977   1.329   5.092
 1707SOL    HW2 5121   3.110   1.355   5.183
 1708SOL     OW 5122   2.506   0.847   6.402
 1708SOL    HW1 5123   2.562   0.928   6.385
 1708SOL    HW2 5124   2.565   0.767   6.405
 1709SOL     OW 5125   3.386   1.772   5.930
 1709SOL    HW1 5126   3.419   1.836   5.861
 1709SOL    HW2 5127   3.452   1.766   6.005
 1710SOL     OW 5128   2.609   0.570   6.679
 1710SOL    HW1 5129   2.628   0.635   6.753
 1710SOL    HW2 5130   2.669   0.490   6.688
 1711SOL     OW 5131   3.343   1.225   6.604
 1711SOL    HW1 5132   3.334   1.215   6.703
 1711SOL    HW2 5133   3.439   1.218   6.578
 1712SOL     OW 5134   2.283   1.746   6.531
 1712SOL    HW1 5135   2.192   1.787   6.529
 1712SOL    HW2 5136   2.276   1.652   6.563
 1713SOL     OW 5137   3.567   0.888   6.225
 1713SOL    HW1 5138   3.540   0.799   6.188
 1713SOL    HW2 5139   3.568   0.956   6.152
 1714SOL     OW 5140   3.118   0.330   5.420
 1714SOL    HW1 5141   3.183   0.256   5.409
 1714SOL    HW2 5142   3.138   0.380   5.504
 1715SOL     OW 5143   2.487   0.750   5.623
 1715SOL    HW1 5144   2.537   0.835   5.604
 1715SOL    HW2 5145   2.399   0.752   5.575
 1716SOL     OW 5146   3.670   0.347   6.613
 1716SOL    HW1 5147   3.653   0.378   6.519
 1716SOL    HW2 5148   3.586   0.310   6.651
 1717SOL     OW 5149   3.623   0.939   6.488
 1717SOL    HW1 5150   3.661   1.030   6.503
 1717SOL    HW2 5151   3.615   0.922   6.389
 1718SOL     OW 5152   2.752   1.379   4.987
 1718SOL    HW1 5153   2.706   1.394   5.075
 1718SOL    HW2 5154   2.796   1.464   4.957
 1719SOL     OW 5155   2.554   1.795   5.924
 1719SOL    HW1 5156   2.508   1.883   5.911
 1719SOL    HW2 5157   2.653   1.807   5.917
 1720SOL     OW 5158   2.752   0.961   5.832
 1720SOL    HW1 5159   2.806   0.892   5.880
 1720SOL    HW2 5160   2.720   1.030   5.898
 1721SOL     OW 5161   2.976   0.989   5.058
 1721SOL    HW1 5162   2.953   1.042   4.976
 1721SOL    HW2 5163   3.057   0.933   5.039
 1722SOL     OW 5164   3.754   1.574   5.822
 1722SOL    HW1 5165   3.683   1.562   5.752
 1722SOL    HW2 5166   3.755   1.495   5.882
 1723SOL     OW 5167   2.114   1.319   6.815
 1723SOL    HW1 5168   2.049   1.246   6.794
 1723SOL    HW2 5169   2.118   1.333   6.913
 1724SOL     OW 5170   1.972   1.245   5.624
 1724SOL    HW1 5171   1.971   1.198   5.712
 1724SOL    HW2 5172   2.054   1.217   5.573
 1725SOL     OW 5173   2.565   1.396   6.595
 1725SOL    HW1 5174   2.487   1.346   6.633
 1725SOL    HW2 5175   2.562   1.491   6.626
 1726SOL     OW 5176   3.717   0.197   6.198
 1726SOL    HW1 5177   3.713   0.107   6.242
 1726SOL    HW2 5178   3.720   0.186   6.099
 1727SOL     OW 5179   2.321   0.429   5.491
 1727SOL    HW1 5180   2.351   0.357   5.429
 1727SOL    HW2 5181   2.282   0.389   5.574
 1728SOL     OW 5182   3.598   1.492   6.075
 1728SOL    HW1 5183   3.505   1.467   6.048
 1728SOL    HW2 5184   3.624   1.442   6.157
 1729SOL     OW 5185   2.210   0.552   6.251
 1729SOL    HW1 5186   2.248   0.493   6.323
 1729SOL    HW2 5187   2.250   0.526   6.163
 1730SOL     OW 5188   2.705   1.591   5.658
 1730SOL    HW1 5189   2.737   1.601   5.564
 1730SOL    HW2 5190   2.626   1.529   5.660
 1731SOL     OW 5191   3.317   0.219   6.083
 1731SOL    HW1 5192   3.369   0.154   6.138
 1731SOL    HW2 5193   3.268   0.282   6.144
 1732SOL     OW 5194   2.894   0.039   6.125
 1732SOL    HW1 5195   2.831  -0.033   6.094
 1732SOL    HW2 5196   2.987   0.003   6.125
 1733SOL     OW 5197   2.663   1.335   5.272
 1733SOL    HW1 5198   2.617   1.248   5.289
 1733SOL    HW2 5199   2.754   1.332   5.313
 1734SOL     OW 5200   2.511   1.572   6.255
 1734SOL    HW1 5201   2.506   1.654   6.312
 1734SOL    HW2 5202   2.600   1.569   6.210
 1735SOL     OW 5203   3.245   0.057   5.139
 1735SOL    HW1 5204   3.280   0.016   5.055
 1735SOL    HW2 5205   3.155   0.019   5.159
 1736SOL     OW 5206   3.193   0.458   5.662
 1736SOL    HW1 5207   3.134   0.538   5.666
 1736SOL    HW2 5208   3.208   0.423   5.755
 1737SOL     OW 5209   3.486   0.226   5.853
 1737SOL    HW1 5210   3.402   0.225   5.907
 1737SOL    HW2 5211   3.488   0.309   5.797
 1738SOL     OW 5212   2.768   1.651   5.308
 1738SOL    HW1 5213   2.691   1.616   5.254
 1738SOL    HW2 5214   2.736   1.722   5.370
 1739SOL     OW 5215   2.123   0.633   6.946
 1739SOL    HW1 5216   2.030   0.631   6.983
 1739SOL    HW2 5217   2.124   0.594   6.854
 1740SOL     OW 5218   2.118   0.280   7.829
 1740SOL    HW1 5219   2.153   0.263   7.921
 1740SOL    HW2 5220   2.030   0.235   7.817
 1741SOL     OW 5221   1.912   0.373   7.480
 1741SOL    HW1 5222   1.830   0.416   7.519
 1741SOL    HW2 5223   1.884   0.300   7.417
 1742SOL     OW 5224   2.462   1.280   7.998
 1742SOL    HW1 5225   2.369   1.273   7.961
 1742SOL    HW2 5226   2.473   1.369   8.042
 1743SOL     OW 5227   3.448   1.516   7.536
 1743SOL    HW1 5228   3.391   1.500   7.617
 1743SOL    HW2 5229   3.389   1.526   7.456
 1744SOL     OW 5230   3.028   0.708   7.550
 1744SOL    HW1 5231   3.085   0.786   7.525
 1744SOL    HW2 5232   2.968   0.734   7.626
 1745SOL     OW 5233   3.648   0.612   7.064
 1745SOL    HW1 5234   3.636   0.599   6.965
 1745SOL    HW2 5235   3.618   0.531   7.113
 1746SOL     OW 5236   2.661   1.149   7.856
 1746SOL    HW1 5237   2.583   1.166   7.916
 1746SOL    HW2 5238   2.695   1.236   7.820
 1747SOL     OW 5239   2.743   0.803   8.656
 1747SOL    HW1 5240   2.739   0.879   8.721
 1747SOL    HW2 5241   2.765   0.839   8.565
 1748SOL     OW 5242   2.578   1.017   7.498
 1748SOL    HW1 5243   2.647   1.001   7.568
 1748SOL    HW2 5244   2.505   1.074   7.536
 1749SOL     OW 5245   2.579   1.166   8.636
 1749SOL    HW1 5246   2.639   1.245   8.650
 1749SOL    HW2 5247   2.493   1.197   8.595
 1750SOL     OW 5248   2.228   1.440   7.894
 1750SOL    HW1 5249   2.150   1.409   7.841
 1750SOL    HW2 5250   2.286   1.498   7.837
 1751SOL     OW 5251   3.353   1.510   8.172
 1751SOL    HW1 5252   3.377   1.604   8.198
 1751SOL    HW2 5253   3.337   1.456   8.254
 1752SOL     OW 5254   2.331   0.397   8.332
 1752SOL    HW1 5255   2.413   0.341   8.341
 1752SOL    HW2 5256   2.250   0.339   8.336
 1753SOL     OW 5257   3.496   0.452   7.570
 1753SOL    HW1 5258   3.422   0.498   7.520
 1753SOL    HW2 5259   3.547   0.520   7.623
 1754SOL     OW 5260   2.124   1.718   7.316
 1754SOL    HW1 5261   2.158   1.795   7.370
 1754SOL    HW2 5262   2.168   1.718   7.226
 1755SOL     OW 5263   3.020   1.346   8.523
 1755SOL    HW1 5264   3.067   1.346   8.611
 1755SOL    HW2 5265   2.972   1.259   8.512
 1756SOL     OW 5266   2.123   1.439   7.371
 1756SOL    HW1 5267   2.097   1.535   7.371
 1756SOL    HW2 5268   2.052   1.385   7.416
 1757SOL     OW 5269   2.133   1.096   7.719
 1757SOL    HW1 5270   2.147   1.012   7.771
 1757SOL    HW2 5271   2.078   1.160   7.774
 1758SOL     OW 5272   2.513   1.791   8.272
 1758SOL    HW1 5273   2.421   1.774   8.307
 1758SOL    HW2 5274   2.541   1.883   8.298
 1759SOL     OW 5275   2.499   0.969   6.956
 1759SOL    HW1 5276   2.506   1.053   6.902
 1759SOL    HW2 5277   2.545   0.982   7.044
 1760SOL     OW 5278   3.487   0.119   8.313
 1760SOL    HW1 5279   3.469   0.186   8.241
 1760SOL    HW2 5280   3.484   0.165   8.402
 1761SOL     OW 5281   2.015   0.648   7.396
 1761SOL    HW1 5282   1.970   0.560   7.413
 1761SOL    HW2 5283   2.014   0.702   7.480
 1762SOL     OW 5284   3.735   1.772   7.192
 1762SOL    HW1 5285   3.789   1.743   7.272
 1762SOL    HW2 5286   3.765   1.862   7.163
 1763SOL     OW 5287   1.920   1.601   6.950
 1763SOL    HW1 5288   1.901   1.505   6.971
 1763SOL    HW2 5289   1.887   1.659   7.025
 1764SOL     OW 5290   3.582   0.927   7.445
 1764SOL    HW1 5291   3.677   0.898   7.453
 1764SOL    HW2 5292   3.574   0.992   7.370
 1765SOL     OW 5293   3.534   1.113   7.265
 1765SOL    HW1 5294   3.620   1.115   7.213
 1765SOL    HW2 5295   3.548   1.160   7.353
 1766SOL     OW 5296   2.006   0.742   8.430
 1766SOL    HW1 5297   2.094   0.729   8.475
 1766SOL    HW2 5298   1.993   0.839   8.408
 1767SOL     OW 5299   2.506   1.370   7.559
 1767SOL    HW1 5300   2.457   1.283   7.568
 1767SOL    HW2 5301   2.483   1.413   7.472
 1768SOL     OW 5302   3.186   1.233   8.256
 1768SOL    HW1 5303   3.223   1.160   8.198
 1768SOL    HW2 5304   3.238   1.238   8.341
 1769SOL     OW 5305   2.702   0.009   7.335
 1769SOL    HW1 5306   2.742   0.100   7.326
 1769SOL    HW2 5307   2.602   0.017   7.341
 1770SOL     OW 5308   2.090   0.981   8.097
 1770SOL    HW1 5309   2.179   0.936   8.083
 1770SOL    HW2 5310   2.017   0.916   8.078
 1771SOL     OW 5311   3.418   1.004   7.023
 1771SOL    HW1 5312   3.355   0.928   7.036
 1771SOL    HW2 5313   3.466   1.022   7.109
 1772SOL     OW 5314   3.080   1.797   8.449
 1772SOL    HW1 5315   3.104   1.857   8.373
 1772SOL    HW2 5316   3.087   1.702   8.419
 1773SOL     OW 5317   2.210   0.256   8.634
 1773SOL    HW1 5318   2.281   0.327   8.640
 1773SOL    HW2 5319   2.122   0.295   8.662
 1774SOL     OW 5320   3.359   1.422   7.786
 1774SOL    HW1 5321   3.300   1.428   7.866
 1774SOL    HW2 5322   3.344   1.334   7.740
 1775SOL     OW 5323   3.560   1.719   7.405
 1775SOL    HW1 5324   3.519   1.696   7.317
 1775SOL    HW2 5325   3.542   1.645   7.470
 1776SOL     OW 5326   2.491   0.734   7.103
 1776SOL    HW1 5327   2.515   0.803   7.035
 1776SOL    HW2 5328   2.413   0.767   7.157
 1777SOL     OW 5329   3.174   0.350   7.777
 1777SOL    HW1 5330   3.088   0.300   7.764
 1777SOL    HW2 5331   3.236   0.296   7.833
 1778SOL     OW 5332   3.469   1.667   7.140
 1778SOL    HW1 5333   3.558   1.713   7.143
 1778SOL    HW2 5334   3.448   1.643   7.045
 1779SOL     OW 5335   2.700   0.610   8.298
 1779SOL    HW1 5336   2.653   0.607   8.387
 1779SOL    HW2 5337   2.649   0.555   8.232
 1780SOL     OW 5338   3.287   0.474   8.507
 1780SOL    HW1 5339   3.267   0.517   8.595
 1780SOL    HW2 5340   3.365   0.412   8.516
 1781SOL     OW 5341   2.866   0.895   8.405
 1781SOL    HW1 5342   2.912   0.811   8.376
 1781SOL    HW2 5343   2.810   0.929   8.330
 1782SOL     OW 5344   2.884   0.415   8.075
 1782SOL    HW1 5345   2.807   0.449   8.129
 1782SOL    HW2 5346   2.850   0.364   7.996
 1783SOL     OW 5347   2.934   0.706   7.262
 1783SOL    HW1 5348   2.960   0.702   7.358
 1783SOL    HW2 5349   2.849   0.655   7.248
 1784SOL     OW 5350   1.969   0.816   7.622
 1784SOL    HW1 5351   2.068   0.804   7.631
 1784SOL    HW2 5352   1.945   0.911   7.643
 1785SOL     OW 5353   2.023   1.826   8.404
 1785SOL    HW1 5354   2.013   1.811   8.503
 1785SOL    HW2 5355   1.937   1.862   8.368
 1786SOL     OW 5356   2.758   0.353   7.028
 1786SOL    HW1 5357   2.817   0.416   6.979
 1786SOL    HW2 5358   2.777   0.259   6.999
 1787SOL     OW 5359   3.612   0.590   8.664
 1787SOL    HW1 5360   3.586   0.679   8.628
 1787SOL    HW2 5361   3.610   0.522   8.591
 1788SOL     OW 5362   3.255   1.149   7.378
 1788SOL    HW1 5363   3.338   1.120   7.330
 1788SOL    HW2 5364   3.206   1.216   7.322
 1789SOL     OW 5365   2.443   0.201   7.718
 1789SOL    HW1 5366   2.438   0.196   7.818
 1789SOL    HW2 5367   2.445   0.297   7.689
 1790SOL     OW 5368   2.901   1.461   7.310
 1790SOL    HW1 5369   2.855   1.533   7.258
 1790SOL    HW2 5370   2.897   1.481   7.408
 1791SOL     OW 5371   2.244   1.806   7.686
 1791SOL    HW1 5372   2.294   1.720   7.692
 1791SOL    HW2 5373   2.309   1.883   7.683
 1792SOL     OW 5374   3.688   1.071   7.706
 1792SOL    HW1 5375   3.626   1.056   7.630
 1792SOL    HW2 5376   3.636   1.082   7.791
 1793SOL     OW 5377   3.120   1.555   8.339
 1793SOL    HW1 5378   3.126   1.478   8.403
 1793SOL    HW2 5379   3.068   1.529   8.259
 1794SOL     OW 5380   2.214   0.948   7.075
 1794SOL    HW1 5381   2.296   0.987   7.033
 1794SOL    HW2 5382   2.187   0.866   7.026
 1795SOL     OW 5383   3.351   0.740   7.561
 1795SOL    HW1 5384   3.346   0.675   7.636
 1795SOL    HW2 5385   3.431   0.799   7.574
 1796SOL     OW 5386   2.354   1.271   8.560
 1796SOL    HW1 5387   2.304   1.272   8.474
 1796SOL    HW2 5388   2.291   1.253   8.636
 1797SOL     OW 5389   3.004   1.781   7.070
 1797SOL    HW1 5390   2.944   1.719   7.120
 1797SOL    HW2 5391   3.035   1.737   6.985
 1798SOL     OW 5392   2.095   0.290   8.331
 1798SOL    HW1 5393   2.015   0.350   8.318
 1798SOL    HW2 5394   2.085   0.241   8.417
 1799SOL     OW 5395   3.525   1.382   6.914
 1799SOL    HW1 5396   3.493   1.476   6.904
 1799SOL    HW2 5397   3.449   1.319   6.902
 1800SOL     OW 5398   2.357   1.748   7.156
 1800SOL    HW1 5399   2.390   1.787   7.242
 1800SOL    HW2 5400   2.433   1.741   7.091
 1801SOL     OW 5401   3.293   0.112   7.259
 1801SOL    HW1 5402   3.269   0.075   7.169
 1801SOL    HW2 5403   3.392   0.128   7.263
 1802SOL     OW 5404   2.142   1.790   8.074
 1802SOL    HW1 5405   2.199   1.725   8.124
 1802SOL    HW2 5406   2.126   1.757   7.981
 1803SOL     OW 5407   2.833   1.703   7.737
 1803SOL    HW1 5408   2.913   1.646   7.758
 1803SOL    HW2 5409   2.784   1.663   7.660
 1804SOL     OW 5410   2.275   0.705   7.313
 1804SOL    HW1 5411   2.320   0.615   7.310
 1804SOL    HW2 5412   2.181   0.694   7.346
 1805SOL     OW 5413   3.440   0.227   8.562
 1805SOL    HW1 5414   3.435   0.264   8.654
 1805SOL    HW2 5415   3.368   0.158   8.550
 1806SOL     OW 5416   2.507   0.127   6.950
 1806SOL    HW1 5417   2.605   0.105   6.957
 1806SOL    HW2 5418   2.476   0.110   6.857
 1807SOL     OW 5419   2.674   0.269   8.582
 1807SOL    HW1 5420   2.741   0.208   8.625
 1807SOL    HW2 5421   2.601   0.288   8.647
 1808SOL     OW 5422   2.781   1.519   8.028
 1808SOL    HW1 5423   2.758   1.494   7.934
 1808SOL    HW2 5424   2.842   1.450   8.067
 1809SOL     OW 5425   3.244   0.595   8.266
 1809SOL    HW1 5426   3.272   0.552   8.351
 1809SOL    HW2 5427   3.269   0.691   8.267
 1810SOL     OW 5428   2.696   1.407   7.757
 1810SOL    HW1 5429   2.786   1.421   7.715
 1810SOL    HW2 5430   2.625   1.409   7.686
 1811SOL     OW 5431   2.815   0.508   7.732
 1811SOL    HW1 5432   2.790   0.499   7.636
 1811SOL    HW2 5433   2.863   0.426   7.763
 1812SOL     OW 5434   2.432   0.069   7.345
 1812SOL    HW1 5435   2.351   0.070   7.403
 1812SOL    HW2 5436   2.435   0.152   7.290
 1813SOL     OW 5437   3.327   1.193   6.874
 1813SOL    HW1 5438   3.359   1.117   6.931
 1813SOL    HW2 5439   3.235   1.220   6.904
 1814SOL     OW 5440   2.190   0.040   7.004
 1814SOL    HW1 5441   2.239   0.124   6.983
 1814SOL    HW2 5442   2.252  -0.025   7.049
 1815SOL     OW 5443   2.828   0.241   7.313
 1815SOL    HW1 5444   2.780   0.282   7.235
 1815SOL    HW2 5445   2.927   0.239   7.294
 1816SOL     OW 5446   2.969   0.688   8.297
 1816SOL    HW1 5447   2.889   0.627   8.300
 1816SOL    HW2 5448   3.050   0.635   8.273
 1817SOL     OW 5449   3.120   1.575   7.626
 1817SOL    HW1 5450   3.141   1.649   7.561
 1817SOL    HW2 5451   3.188   1.575   7.699
 1818SOL     OW 5452   2.352   1.157   7.574
 1818SOL    HW1 5453   2.281   1.130   7.639
 1818SOL    HW2 5454   2.326   1.129   7.481
 1819SOL     OW 5455   3.164   1.802   7.424
 1819SOL    HW1 5456   3.208   1.866   7.360
 1819SOL    HW2 5457   3.114   1.854   7.494
 1820SOL     OW 5458   2.925   0.554   6.849
 1820SOL    HW1 5459   2.884   0.636   6.810
 1820SOL    HW2 5460   2.989   0.580   6.922
 1821SOL     OW 5461   1.971   0.561   8.219
 1821SOL    HW1 5462   2.063   0.560   8.178
 1821SOL    HW2 5463   1.965   0.635   8.286
 1822SOL     OW 5464   2.454   0.227   7.980
 1822SOL    HW1 5465   2.492   0.143   8.017
 1822SOL    HW2 5466   2.366   0.246   8.024
 1823SOL     OW 5467   2.759   0.459   7.475
 1823SOL    HW1 5468   2.727   0.531   7.413
 1823SOL    HW2 5469   2.783   0.378   7.422
 1824SOL     OW 5470   2.910   0.044   7.586
 1824SOL    HW1 5471   2.838   0.049   7.517
 1824SOL    HW2 5472   2.886  -0.025   7.655
 1825SOL     OW 5473   3.322   1.178   7.700
 1825SOL    HW1 5474   3.267   1.094   7.693
 1825SOL    HW2 5475   3.348   1.207   7.608
 1826SOL     OW 5476   3.359   0.595   7.825
 1826SOL    HW1 5477   3.329   0.500   7.832
 1826SOL    HW2 5478   3.432   0.611   7.891
 1827SOL     OW 5479   3.750   0.838   7.210
 1827SOL    HW1 5480   3.792   0.774   7.274
 1827SOL    HW2 5481   3.712   0.787   7.132
 1828SOL     OW 5482   2.381   1.390   7.007
 1828SOL    HW1 5483   2.294   1.375   7.054
 1828SOL    HW2 5484   2.364   1.416   6.912
 1829SOL     OW 5485   3.557   1.285   7.490
 1829SOL    HW1 5486   3.656   1.293   7.504
 1829SOL    HW2 5487   3.512   1.369   7.521
 1830SOL     OW 5488   3.283   0.580   6.911
 1830SOL    HW1 5489   3.229   0.559   6.992
 1830SOL    HW2 5490   3.374   0.539   6.920
 1831SOL     OW 5491   2.420   0.261   7.161
 1831SOL    HW1 5492   2.447   0.202   7.086
 1831SOL    HW2 5493   2.420   0.356   7.130
 1832SOL     OW 5494   3.647   1.228   8.421
 1832SOL    HW1 5495   3.738   1.189   8.408
 1832SOL    HW2 5496   3.655   1.324   8.445
 1833SOL     OW 5497   2.957   1.352   8.173
 1833SOL    HW1 5498   2.877   1.329   8.228
 1833SOL    HW2 5499   3.040   1.326   8.222
 1834SOL     OW 5500   3.485   1.634   8.458
 1834SOL    HW1 5501   3.512   1.668   8.368
 1834SOL    HW2 5502   3.564   1.596   8.504
 1835SOL     OW 5503   3.004   1.200   7.933
 1835SOL    HW1 5504   2.964   1.244   8.014
 1835SOL    HW2 5505   2.963   1.237   7.850
 1836SOL     OW 5506   3.531   1.104   7.912
 1836SOL    HW1 5507   3.536   1.185   7.971
 1836SOL    HW2 5508   3.445   1.106   7.861
 1837SOL     OW 5509   2.808   0.094   8.235
 1837SOL    HW1 5510   2.833   0.074   8.140
 1837SOL    HW2 5511   2.880   0.150   8.277
 1838SOL     OW 5512   2.873   1.121   8.552
 1838SOL    HW1 5513   2.774   1.127   8.562
 1838SOL    HW2 5514   2.896   1.041   8.496
 1839SOL     OW 5515   2.598   1.055   7.201
 1839SOL    HW1 5516   2.584   1.062   7.300
 1839SOL    HW2 5517   2.682   1.004   7.183
 1840SOL     OW 5518   2.303   0.818   8.084
 1840SOL    HW1 5519   2.389   0.830   8.134
 1840SOL    HW2 5520   2.261   0.731   8.111
 1841SOL     OW 5521   3.167   0.391   8.095
 1841SOL    HW1 5522   3.188   0.465   8.159
 1841SOL    HW2 5523   3.078   0.408   8.052
 1842SOL     OW 5524   1.957   1.569   8.164
 1842SOL    HW1 5525   1.911   1.651   8.130
 1842SOL    HW2 5526   2.055   1.588   8.173
 1843SOL     OW 5527   2.260   1.105   7.334
 1843SOL    HW1 5528   2.253   1.188   7.278
 1843SOL    HW2 5529   2.264   1.025   7.274
 1844SOL     OW 5530   2.459   0.542   7.698
 1844SOL    HW1 5531   2.471   0.608   7.624
 1844SOL    HW2 5532   2.505   0.576   7.781
 1845SOL     OW 5533   3.145   1.353   7.221
 1845SOL    HW1 5534   3.195   1.430   7.261
 1845SOL    HW2 5535   3.050   1.355   7.253
 1846SOL     OW 5536   3.165   1.450   7.975
 1846SOL    HW1 5537   3.212   1.463   8.062
 1846SOL    HW2 5538   3.099   1.376   7.984
 1847SOL     OW 5539   3.475   0.644   7.305
 1847SOL    HW1 5540   3.444   0.705   7.378
 1847SOL    HW2 5541   3.525   0.696   7.236
 1848SOL     OW 5542   2.247   1.515   8.162
 1848SOL    HW1 5543   2.226   1.471   8.075
 1848SOL    HW2 5544   2.344   1.541   8.165
 1849SOL     OW 5545   2.295   0.756   8.431
 1849SOL    HW1 5546   2.363   0.811   8.384
 1849SOL    HW2 5547   2.335   0.668   8.458
 1850SOL     OW 5548   3.480   0.784   8.503
 1850SOL    HW1 5549   3.388   0.822   8.498
 1850SOL    HW2 5550   3.540   0.831   8.438
 1851SOL     OW 5551   2.906   0.110   8.603
 1851SOL    HW1 5552   2.912   0.195   8.551
 1851SOL    HW2 5553   2.938   0.034   8.546
 1852SOL     OW 5554   2.397   0.055   8.573
 1852SOL    HW1 5555   2.355  -0.002   8.503
 1852SOL    HW2 5556   2.331   0.124   8.605
 1853SOL     OW 5557   2.466   0.875   7.862
 1853SOL    HW1 5558   2.510   0.964   7.853
 1853SOL    HW2 5559   2.403   0.875   7.939
 1854SOL     OW 5560   3.253   0.867   7.878
 1854SOL    HW1 5561   3.178   0.867   7.812
 1854SOL    HW2 5562   3.290   0.775   7.887
 1855SOL     OW 5563   3.102   0.530   7.108
 1855SOL    HW1 5564   3.115   0.446   7.162
 1855SOL    HW2 5565   3.073   0.604   7.168
 1856SOL     OW 5566   2.200   0.218   8.064
 1856SOL    HW1 5567   2.177   0.255   8.154
 1856SOL    HW2 5568   2.170   0.123   8.058
 1857SOL     OW 5569   1.930   1.315   8.115
 1857SOL    HW1 5570   1.983   1.266   8.183
 1857SOL    HW2 5571   1.952   1.413   8.120
 1858SOL     OW 5572   2.625   0.639   7.897
 1858SOL    HW1 5573   2.684   0.613   7.821
 1858SOL    HW2 5574   2.597   0.735   7.886
 1859SOL     OW 5575   3.621   0.940   8.687
 1859SOL    HW1 5576   3.575   0.933   8.598
 1859SOL    HW2 5577   3.559   0.984   8.753
 1860SOL     OW 5578   2.200   0.068   7.451
 1860SOL    HW1 5579   2.189   0.162   7.484
 1860SOL    HW2 5580   2.195   0.005   7.528
 1861SOL     OW 5581   3.515   0.372   7.207
 1861SOL    HW1 5582   3.517   0.296   7.271
 1861SOL    HW2 5583   3.467   0.449   7.247
 1862SOL     OW 5584   2.916   0.771   7.799
 1862SOL    HW1 5585   2.931   0.792   7.895
 1862SOL    HW2 5586   2.886   0.676   7.790
 1863SOL     OW 5587   2.873   1.578   8.533
 1863SOL    HW1 5588   2.853   1.622   8.445
 1863SOL    HW2 5589   2.912   1.487   8.517
 1864SOL     OW 5590   3.752   1.523   8.438
 1864SOL    HW1 5591   3.766   1.550   8.343
 1864SOL    HW2 5592   3.835   1.545   8.491
 1865SOL     OW 5593   2.243   0.903   8.637
 1865SOL    HW1 5594   2.319   0.947   8.685
 1865SOL    HW2 5595   2.278   0.856   8.555
 1866SOL     OW 5596   3.433   0.279   6.958
 1866SOL    HW1 5597   3.372   0.204   6.981
 1866SOL    HW2 5598   3.455   0.331   7.041
 1867SOL     OW 5599   3.196   0.843   6.875
 1867SOL    HW1 5600   3.230   0.750   6.890
 1867SOL    HW2 5601   3.214   0.870   6.780
 1868SOL     OW 5602   2.961   1.338   7.682
 1868SOL    HW1 5603   2.968   1.254   7.627
 1868SOL    HW2 5604   3.023   1.407   7.646
 1869SOL     OW 5605   2.212   0.815   7.782
 1869SOL    HW1 5606   2.305   0.851   7.787
 1869SOL    HW2 5607   2.206   0.730   7.834
 1870SOL     OW 5608   2.232   0.514   7.839
 1870SOL    HW1 5609   2.180   0.431   7.822
 1870SOL    HW2 5610   2.309   0.519   7.775
 1871SOL     OW 5611   3.031   0.385   8.511
 1871SOL    HW1 5612   2.986   0.448   8.575
 1871SOL    HW2 5613   3.124   0.416   8.494
 1872SOL     OW 5614   3.053   0.212   8.310
 1872SOL    HW1 5615   3.053   0.276   8.387
 1872SOL    HW2 5616   3.081   0.260   8.227
 1873SOL     OW 5617   1.901   1.331   7.033
 1873SOL    HW1 5618   1.808   1.352   7.002
 1873SOL    HW2 5619   1.911   1.232   7.046
 1874SOL     OW 5620   1.981   1.806   7.760
 1874SOL    HW1 5621   1.939   1.720   7.733
 1874SOL    HW2 5622   2.075   1.809   7.726
 1875SOL     OW 5623   2.397   1.573   7.743
 1875SOL    HW1 5624   2.463   1.647   7.752
 1875SOL    HW2 5625   2.441   1.494   7.701
 1876SOL     OW 5626   2.895   0.801   8.071
 1876SOL    HW1 5627   2.936   0.769   8.157
 1876SOL    HW2 5628   2.799   0.774   8.068
 1877SOL     OW 5629   1.933   0.549   7.947
 1877SOL    HW1 5630   2.018   0.516   7.906
 1877SOL    HW2 5631   1.946   0.564   8.045
 1878SOL     OW 5632   2.082   0.525   8.555
 1878SOL    HW1 5633   2.141   0.485   8.485
 1878SOL    HW2 5634   2.024   0.596   8.514
 1879SOL     OW 5635   3.262   0.955   8.493
 1879SOL    HW1 5636   3.301   1.044   8.513
 1879SOL    HW2 5637   3.272   0.935   8.396
 1880SOL     OW 5638   2.708   0.577   7.158
 1880SOL    HW1 5639   2.715   0.488   7.112
 1880SOL    HW2 5640   2.614   0.611   7.150
 1881SOL     OW 5641   3.550   0.609   8.039
 1881SOL    HW1 5642   3.512   0.540   8.101
 1881SOL    HW2 5643   3.632   0.573   7.995
 1882SOL     OW 5644   2.145   1.569   8.577
 1882SOL    HW1 5645   2.115   1.626   8.653
 1882SOL    HW2 5646   2.138   1.472   8.603
 1883SOL     OW 5647   2.564   0.469   8.102
 1883SOL    HW1 5648   2.530   0.380   8.072
 1883SOL    HW2 5649   2.590   0.523   8.022
 1884SOL     OW 5650   2.823   1.683   8.298
 1884SOL    HW1 5651   2.799   1.665   8.203
 1884SOL    HW2 5652   2.853   1.777   8.308
 1885SOL     OW 5653   2.366   0.505   7.024
 1885SOL    HW1 5654   2.427   0.585   7.028
 1885SOL    HW2 5655   2.271   0.536   7.031
 1886SOL     OW 5656   2.052   1.142   8.299
 1886SOL    HW1 5657   2.074   1.081   8.375
 1886SOL    HW2 5658   2.062   1.093   8.213
 1887SOL     OW 5659   3.240   1.064   8.067
 1887SOL    HW1 5660   3.264   1.001   7.993
 1887SOL    HW2 5661   3.150   1.104   8.049
 1888SOL     OW 5662   3.195   0.860   7.142
 1888SOL    HW1 5663   3.109   0.829   7.184
 1888SOL    HW2 5664   3.191   0.846   7.043
 1889SOL     OW 5665   3.652   1.752   7.987
 1889SOL    HW1 5666   3.713   1.782   7.914
 1889SOL    HW2 5667   3.614   1.663   7.965
 1890SOL     OW 5668   3.145   1.736   7.961
 1890SOL    HW1 5669   3.229   1.741   7.907
 1890SOL    HW2 5670   3.122   1.640   7.979
 1891SOL     OW 5671   1.976   1.263   7.855
 1891SOL    HW1 5672   1.971   1.262   7.955
 1891SOL    HW2 5673   1.893   1.222   7.817
 1892SOL     OW 5674   2.581   1.667   8.549
 1892SOL    HW1 5675   2.525   1.748   8.558
 1892SOL    HW2 5676   2.633   1.671   8.463
 1893SOL     OW 5677   3.619   0.140   7.356
 1893SOL    HW1 5678   3.692   0.123   7.289
 1893SOL    HW2 5679   3.588   0.053   7.394
 1894SOL     OW 5680   3.281   1.578   7.310
 1894SOL    HW1 5681   3.348   1.590   7.236
 1894SOL    HW2 5682   3.241   1.667   7.333
 1895SOL     OW 5683   2.023   1.799   8.684
 1895SOL    HW1 5684   1.982   1.725   8.737
 1895SOL    HW2 5685   2.087   1.850   8.742
 1896SOL     OW 5686   3.173   0.932   7.505
 1896SOL    HW1 5687   3.233   0.851   7.507
 1896SOL    HW2 5688   3.213   1.001   7.445
 1897SOL     OW 5689   2.723   1.278   8.255
 1897SOL    HW1 5690   2.718   1.311   8.350
 1897SOL    HW2 5691   2.637   1.297   8.209
 1898SOL     OW 5692   2.565   1.621   6.987
 1898SOL    HW1 5693   2.574   1.631   6.888
 1898SOL    HW2 5694   2.525   1.532   7.008
 1899SOL     OW 5695   3.543   1.725   8.227
 1899SOL    HW1 5696   3.596   1.735   8.143
 1899SOL    HW2 5697   3.516   1.815   8.261
 1900SOL     OW 5698   3.734   0.180   7.796
 1900SOL    HW1 5699   3.773   0.095   7.760
 1900SOL    HW2 5700   3.636   0.182   7.777
 1901SOL     OW 5701   2.156   0.331   7.553
 1901SOL    HW1 5702   2.077   0.382   7.519
 1901SOL    HW2 5703   2.147   0.316   7.651
 1902SOL     OW 5704   3.087   1.617   6.864
 1902SOL    HW1 5705   3.093   1.524   6.901
 1902SOL    HW2 5706   3.028   1.617   6.784
 1903SOL     OW 5707   2.715   1.007   8.205
 1903SOL    HW1 5708   2.755   1.006   8.113
 1903SOL    HW2 5709   2.725   1.099   8.245
 1904SOL     OW 5710   2.809   0.915   7.124
 1904SOL    HW1 5711   2.872   0.953   7.056
 1904SOL    HW2 5712   2.849   0.832   7.163
 1905SOL     OW 5713   3.397   1.612   6.877
 1905SOL    HW1 5714   3.305   1.649   6.884
 1905SOL    HW2 5715   3.435   1.632   6.787
 1906SOL     OW 5716   2.265   1.293   8.323
 1906SOL    HW1 5717   2.252   1.386   8.289
 1906SOL    HW2 5718   2.181   1.241   8.310
 1907SOL     OW 5719   3.507   1.297   8.122
 1907SOL    HW1 5720   3.567   1.300   8.202
 1907SOL    HW2 5721   3.432   1.361   8.135
 1908SOL     OW 5722   2.932   1.103   7.529
 1908SOL    HW1 5723   2.862   1.056   7.583
 1908SOL    HW2 5724   2.991   1.035   7.486
 1909SOL     OW 5725   2.907   0.241   7.804
 1909SOL    HW1 5726   2.899   0.205   7.711
 1909SOL    HW2 5727   2.905   0.165   7.869
 1910SOL     OW 5728   2.483   1.492   7.324
 1910SOL    HW1 5729   2.525   1.434   7.254
 1910SOL    HW2 5730   2.439   1.571   7.280
 1911SOL     OW 5731   3.602   0.390   8.214
 1911SOL    HW1 5732   3.675   0.459   8.218
 1911SOL    HW2 5733   3.630   0.315   8.155
 1912SOL     OW 5734   2.148   1.353   7.123
 1912SOL    HW1 5735   2.052   1.354   7.096
 1912SOL    HW2 5736   2.160   1.406   7.207
 1913SOL     OW 5737   1.998   1.018   8.559
 1913SOL    HW1 5738   1.921   0.985   8.613
 1913SOL    HW2 5739   2.083   0.988   8.601
 1914SOL     OW 5740   2.565   0.208   8.322
 1914SOL    HW1 5741   2.655   0.192   8.282
 1914SOL    HW2 5742   2.573   0.213   8.421
 1915SOL     OW 5743   1.968   0.350   6.866
 1915SOL    HW1 5744   1.876   0.322   6.837
 1915SOL    HW2 5745   1.999   0.427   6.810
 1916SOL     OW 5746   3.333   0.861   8.231
 1916SOL    HW1 5747   3.276   0.913   8.168
 1916SOL    HW2 5748   3.429   0.873   8.207
 1917SOL     OW 5749   1.965   0.171   7.151
 1917SOL    HW1 5750   1.948   0.254   7.097
 1917SOL    HW2 5751   2.055   0.134   7.129
 1918SOL     OW 5752   3.076   1.340   6.952
 1918SOL    HW1 5753   2.977   1.329   6.954
 1918SOL    HW2 5754   3.110   1.355   7.045
 1919SOL     OW 5755   2.506   0.847   8.264
 1919SOL    HW1 5756   2.562   0.928   8.247
 1919SOL    HW2 5757   2.565   0.767   8.267
 1920SOL     OW 5758   3.386   1.772   7.792
 1920SOL    HW1 5759   3.419   1.836   7.723
 1920SOL    HW2 5760   3.452   1.766   7.867
 1921SOL     OW 5761   2.609   0.570   8.541
 1921SOL    HW1 5762   2.628   0.635   8.615
 1921SOL    HW2 5763   2.669   0.490   8.550
 1922SOL     OW 5764   3.343   1.225   8.466
 1922SOL    HW1 5765   3.334   1.215   8.565
 1922SOL    HW2 5766   3.439   1.218   8.440
 1923SOL     OW 5767   2.283   1.746   8.393
 1923SOL    HW1 5768   2.192   1.787   8.391
 1923SOL    HW2 5769   2.276   1.652   8.425
 1924SOL     OW 5770   3.567   0.888   8.087
 1924SOL    HW1 5771   3.540   0.799   8.050
 1924SOL    HW2 5772   3.568   0.956   8.014
 1925SOL     OW 5773   3.118   0.330   7.282
 1925SOL    HW1 5774   3.183   0.256   7.271
 1925SOL    HW2 5775   3.138   0.380   7.366
 1926SOL     OW 5776   2.487   0.750   7.485
 1926SOL    HW1 5777   2.537   0.835   7.466
 1926SOL    HW2 5778   2.399   0.752   7.437
 1927SOL     OW 5779   3.670   0.347   8.475
 1927SOL    HW1 5780   3.653   0.378   8.381
 1927SOL    HW2 5781   3.586   0.310   8.513
 1928SOL     OW 5782   3.623   0.939   8.350
 1928SOL    HW1 5783   3.661   1.030   8.365
 1928SOL    HW2 5784   3.615   0.922   8.251
 1929SOL     OW 5785   2.752   1.379   6.849
 1929SOL    HW1 5786   2.706   1.394   6.937
 1929SOL    HW2 5787   2.796   1.464   6.819
 1930SOL     OW 5788   2.554   1.795   7.786
 1930SOL    HW1 5789   2.508   1.883   7.773
 1930SOL    HW2 5790   2.653   1.807   7.779
 1931SOL     OW 5791   2.752   0.961   7.694
 1931SOL    HW1 5792   2.806   0.892   7.742
 1931SOL    HW2 5793   2.720   1.030   7.760
 1932SOL     OW 5794   2.976   0.989   6.920
 1932SOL    HW1 5795   2.953   1.042   6.838
 1932SOL    HW2 5796   3.057   0.933   6.901
 1933SOL     OW 5797   3.754   1.574   7.684
 1933SOL    HW1 5798   3.683   1.562   7.614
 1933SOL    HW2 5799   3.755   1.495   7.744
 1934SOL     OW 5800   2.114   1.319   8.677
 1934SOL    HW1 5801   2.049   1.246   8.656
 1934SOL    HW2 5802   2.118   1.333   8.775
 1935SOL     OW 5803   1.972   1.245   7.486
 1935SOL    HW1 5804   1.971   1.198   7.574
 1935SOL    HW2 5805   2.054   1.217   7.435
 1936SOL     OW 5806   2.565   1.396   8.457
 1936SOL    HW1 5807   2.487   1.346   8.495
 1936SOL    HW2 5808   2.562   1.491   8.488
 1937SOL     OW 5809   3.717   0.197   8.060
 1937SOL    HW1 5810   3.713   0.107   8.104
 1937SOL    HW2 5811   3.720   0.186   7.961
 1938SOL     OW 5812   2.321   0.429   7.353
 1938SOL    HW1 5813   2.351   0.357   7.291
 1938SOL    HW2 5814   2.282   0.389   7.436
 1939SOL     OW 5815   3.598   1.492   7.937
 1939SOL    HW1 5816   3.505   1.467   7.910
 1939SOL    HW2 5817   3.624   1.442   8.019
 1940SOL     OW 5818   2.210   0.552   8.113
 1940SOL    HW1 5819   2.248   0.493   8.185
 1940SOL    HW2 5820   2.250   0.526   8.025
 1941SOL     OW 5821   2.705   1.591   7.520
 1941SOL    HW1 5822   2.737   1.601   7.426
 1941SOL    HW2 5823   2.626   1.529   7.522
 1942SOL     OW 5824   3.317   0.219   7.945
 1942SOL    HW1 5825   3.369   0.154   8.000
 1942SOL    HW2 5826   3.268   0.282   8.006
 1943SOL     OW 5827   2.894   0.039   7.987
 1943SOL    HW1 5828   2.831  -0.033   7.956
 1943SOL    HW2 5829   2.987   0.003   7.987
 1944SOL     OW 5830   2.663   1.335   7.134
 1944SOL    HW1 5831   2.617   1.248   7.151
 1944SOL    HW2 5832   2.754   1.332   7.175
 1945SOL     OW 5833   2.511   1.572   8.117
 1945SOL    HW1 5834   2.506   1.654   8.174
 1945SOL    HW2 5835   2.600   1.569   8.072
 1946SOL     OW 5836   3.245   0.057   7.001
 1946SOL    HW1 5837   3.280   0.016   6.917
 1946SOL    HW2 5838   3.155   0.019   7.021
 1947SOL     OW 5839   3.193   0.458   7.524
 1947SOL    HW1 5840   3.134   0.538   7.528
 1947SOL    HW2 5841   3.208   0.423   7.617
 1948SOL     OW 5842   3.486   0.226   7.715
 1948SOL    HW1 5843   3.402   0.225   7.769
 1948SOL    HW2 5844   3.488   0.309   7.659
 1949SOL     OW 5845   1.932   1.082   7.133
 1949SOL    HW1 5846   2.031   1.071   7.124
 1949SOL    HW2 5847   1.892   0.996   7.165
 1950SOL     OW 5848   2.768   1.651   7.170
 1950SOL    HW1 5849   2.691   1.616   7.116
 1950SOL    HW2 5850   2.736   1.722   7.232
 1951SOL     OW 5851   2.123   0.633   8.808
 1951SOL    HW1 5852   2.030   0.631   8.845
 1951SOL    HW2 5853   2.124   0.594   8.716
 1952SOL     OW 5854   2.118   0.280   9.691
 1952SOL    HW1 5855   2.153   0.263   9.783
 1952SOL    HW2 5856   2.030   0.235   9.679
 1953SOL     OW 5857   1.912   0.373   9.342
 1953SOL    HW1 5858   1.830   0.416   9.381
 1953SOL    HW2 5859   1.884   0.300   9.279
 1954SOL     OW 5860   2.462   1.280   9.860
 1954SOL    HW1 5861   2.369   1.273   9.823
 1954SOL    HW2 5862   2.473   1.369   9.904
 1955SOL     OW 5863   3.448   1.516   9.398
 1955SOL    HW1 5864   3.391   1.500   9.479
 1955SOL    HW2 5865   3.389   1.526   9.318
 1956SOL     OW 5866   3.028   0.708   9.412
 1956SOL    HW1 5867   3.085   0.786   9.387
 1956SOL    HW2 5868   2.968   0.734   9.488
 1957SOL     OW 5869   3.648   0.612   8.926
 1957SOL    HW1 5870   3.636   0.599   8.827
 1957SOL    HW2 5871   3.618   0.531   8.975
 1958SOL     OW 5872   2.661   1.149   9.718
 1958SOL    HW1 5873   2.583   1.166   9.778
 1958SOL    HW2 5874   2.695   1.236   9.682
 1959SOL     OW 5875   2.578   1.017   9.360
 1959SOL    HW1 5876   2.647   1.001   9.430
 1959SOL    HW2 5877   2.505   1.074   9.398
 1960SOL     OW 5878   2.228   1.440   9.756
 1960SOL    HW1 5879   2.150   1.409   9.703
 1960SOL    HW2 5880   2.286   1.498   9.699
 1961SOL     OW 5881   3.496   0.452   9.432
 1961SOL    HW1 5882   3.422   0.498   9.382
 1961SOL    HW2 5883   3.547   0.520   9.485
 1962SOL     OW 5884   2.124   1.718   9.178
 1962SOL    HW1 5885   2.158   1.795   9.232
 1962SOL    HW2 5886   2.168   1.718   9.088
 1963SOL     OW 5887   2.123   1.439   9.233
 1963SOL    HW1 5888   2.097   1.535   9.233
 1963SOL    HW2 5889   2.052   1.385   9.278
 1964SOL     OW 5890   2.133   1.096   9.581
 1964SOL    HW1 5891   2.147   1.012   9.633
 1964SOL    HW2 5892   2.078   1.160   9.636
 1965SOL     OW 5893   2.499   0.969   8.818
 1965SOL    HW1 5894   2.506   1.053   8.764
 1965SOL    HW2 5895   2.545   0.982   8.906
 1966SOL     OW 5896   2.015   0.648   9.258
 1966SOL    HW1 5897   1.970   0.560   9.275
 1966SOL    HW2 5898   2.014   0.702   9.342
 1967SOL     OW 5899   3.735   1.772   9.054
 1967SOL    HW1 5900   3.789   1.743   9.134
 1967SOL    HW2 5901   3.765   1.862   9.025
 1968SOL     OW 5902   1.920   1.601   8.812
 1968SOL    HW1 5903   1.901   1.505   8.833
 1968SOL    HW2 5904   1.887   1.659   8.887
 1969SOL     OW 5905   3.582   0.927   9.307
 1969SOL    HW1 5906   3.677   0.898   9.315
 1969SOL    HW2 5907   3.574   0.992   9.232
 1970SOL     OW 5908   3.534   1.113   9.127
 1970SOL    HW1 5909   3.620   1.115   9.075
 1970SOL    HW2 5910   3.548   1.160   9.215
 1971SOL     OW 5911   2.506   1.370   9.421
 1971SOL    HW1 5912   2.457   1.283   9.430
 1971SOL    HW2 5913   2.483   1.413   9.334
 1972SOL     OW 5914   2.702   0.009   9.197
 1972SOL    HW1 5915   2.742   0.100   9.188
 1972SOL    HW2 5916   2.602   0.017   9.203
 1973SOL     OW 5917   2.090   0.981   9.959
 1973SOL    HW1 5918   2.179   0.936   9.945
 1973SOL    HW2 5919   2.017   0.916   9.940
 1974SOL     OW 5920   3.418   1.004   8.885
 1974SOL    HW1 5921   3.355   0.928   8.898
 1974SOL    HW2 5922   3.466   1.022   8.971
 1975SOL     OW 5923   3.359   1.422   9.648
 1975SOL    HW1 5924   3.300   1.428   9.728
 1975SOL    HW2 5925   3.344   1.334   9.602
 1976SOL     OW 5926   3.560   1.719   9.267
 1976SOL    HW1 5927   3.519   1.696   9.179
 1976SOL    HW2 5928   3.542   1.645   9.332
 1977SOL     OW 5929   2.491   0.734   8.965
 1977SOL    HW1 5930   2.515   0.803   8.897
 1977SOL    HW2 5931   2.413   0.767   9.019
 1978SOL     OW 5932   3.174   0.350   9.639
 1978SOL    HW1 5933   3.088   0.300   9.626
 1978SOL    HW2 5934   3.236   0.296   9.695
 1979SOL     OW 5935   3.469   1.667   9.002
 1979SOL    HW1 5936   3.558   1.713   9.005
 1979SOL    HW2 5937   3.448   1.643   8.907
 1980SOL     OW 5938   2.934   0.706   9.124
 1980SOL    HW1 5939   2.960   0.702   9.220
 1980SOL    HW2 5940   2.849   0.655   9.110
 1981SOL     OW 5941   1.969   0.816   9.484
 1981SOL    HW1 5942   2.068   0.804   9.493
 1981SOL    HW2 5943   1.945   0.911   9.505
 1982SOL     OW 5944   2.758   0.353   8.890
 1982SOL    HW1 5945   2.817   0.416   8.841
 1982SOL    HW2 5946   2.777   0.259   8.861
 1983SOL     OW 5947   3.255   1.149   9.240
 1983SOL    HW1 5948   3.338   1.120   9.192
 1983SOL    HW2 5949   3.206   1.216   9.184
 1984SOL     OW 5950   2.443   0.201   9.580
 1984SOL    HW1 5951   2.438   0.196   9.680
 1984SOL    HW2 5952   2.445   0.297   9.551
 1985SOL     OW 5953   2.901   1.461   9.172
 1985SOL    HW1 5954   2.855   1.533   9.120
 1985SOL    HW2 5955   2.897   1.481   9.270
 1986SOL     OW 5956   2.244   1.806   9.548
 1986SOL    HW1 5957   2.294   1.720   9.554
 1986SOL    HW2 5958   2.309   1.883   9.545
 1987SOL     OW 5959   3.688   1.071   9.568
 1987SOL    HW1 5960   3.626   1.056   9.492
 1987SOL    HW2 5961   3.636   1.082   9.653
 1988SOL     OW 5962   2.214   0.948   8.937
 1988SOL    HW1 5963   2.296   0.987   8.895
 1988SOL    HW2 5964   2.187   0.866   8.888
 1989SOL     OW 5965   3.351   0.740   9.423
 1989SOL    HW1 5966   3.346   0.675   9.498
 1989SOL    HW2 5967   3.431   0.799   9.436
 1990SOL     OW 5968   3.004   1.781   8.932
 1990SOL    HW1 5969   2.944   1.719   8.982
 1990SOL    HW2 5970   3.035   1.737   8.847
 1991SOL     OW 5971   3.525   1.382   8.776
 1991SOL    HW1 5972   3.493   1.476   8.766
 1991SOL    HW2 5973   3.449   1.319   8.764
 1992SOL     OW 5974   2.357   1.748   9.018
 1992SOL    HW1 5975   2.390   1.787   9.104
 1992SOL    HW2 5976   2.433   1.741   8.953
 1993SOL     OW 5977   3.293   0.112   9.121
 1993SOL    HW1 5978   3.269   0.075   9.031
 1993SOL    HW2 5979   3.392   0.128   9.125
 1994SOL     OW 5980   2.142   1.790   9.936
 1994SOL    HW1 5981   2.199   1.725   9.986
 1994SOL    HW2 5982   2.126   1.757   9.843
 1995SOL     OW 5983   2.833   1.703   9.599
 1995SOL    HW1 5984   2.913   1.646   9.620
 1995SOL    HW2 5985   2.784   1.663   9.522
 1996SOL     OW 5986   2.275   0.705   9.175
 1996SOL    HW1 5987   2.320   0.615   9.172
 1996SOL    HW2 5988   2.181   0.694   9.208
 1997SOL     OW 5989   2.507   0.127   8.812
 1997SOL    HW1 5990   2.605   0.105   8.819
 1997SOL    HW2 5991   2.476   0.110   8.719
 1998SOL     OW 5992   2.696   1.407   9.619
 1998SOL    HW1 5993   2.786   1.421   9.577
 1998SOL    HW2 5994   2.625   1.409   9.548
 1999SOL     OW 5995   2.815   0.508   9.594
 1999SOL    HW1 5996   2.790   0.499   9.498
 1999SOL    HW2 5997   2.863   0.426   9.625
 2000SOL     OW 5998   2.432   0.069   9.207
 2000SOL    HW1 5999   2.351   0.070   9.265
 2000SOL    HW2 6000   2.435   0.152   9.152
 2001SOL     OW 6001   3.327   1.193   8.736
 2001SOL    HW1 6002   3.359   1.117   8.793
 2001SOL    HW2 6003   3.235   1.220   8.766
 2002SOL     OW 6004   2.190   0.040   8.866
 2002SOL    HW1 6005   2.239   0.124   8.845
 2002SOL    HW2 6006   2.252  -0.025   8.911
 2003SOL     OW 6007   2.828   0.241   9.175
 2003SOL    HW1 6008   2.780   0.282   9.097
 2003SOL    HW2 6009   2.927   0.239   9.156
 2004SOL     OW 6010   3.120   1.575   9.488
 2004SOL    HW1 6011   3.141   1.649   9.423
 2004SOL    HW2 6012   3.188   1.575   9.561
 2005SOL     OW 6013   2.352   1.157   9.436
 2005SOL    HW1 6014   2.281   1.130   9.501
 2005SOL    HW2 6015   2.326   1.129   9.343
 2006SOL     OW 6016   3.164   1.802   9.286
 2006SOL    HW1 6017   3.208   1.866   9.222
 2006SOL    HW2 6018   3.114   1.854   9.356
 2007SOL     OW 6019   2.925   0.554   8.711
 2007SOL    HW1 6020   2.884   0.636   8.672
 2007SOL    HW2 6021   2.989   0.580   8.784
 2008SOL     OW 6022   2.759   0.459   9.337
 2008SOL    HW1 6023   2.727   0.531   9.275
 2008SOL    HW2 6024   2.783   0.378   9.284
 2009SOL     OW 6025   2.910   0.044   9.448
 2009SOL    HW1 6026   2.838   0.049   9.379
 2009SOL    HW2 6027   2.886  -0.025   9.517
 2010SOL     OW 6028   3.322   1.178   9.562
 2010SOL    HW1 6029   3.267   1.094   9.555
 2010SOL    HW2 6030   3.348   1.207   9.470
 2011SOL     OW 6031   3.359   0.595   9.687
 2011SOL    HW1 6032   3.329   0.500   9.694
 2011SOL    HW2 6033   3.432   0.611   9.753
 2012SOL     OW 6034   3.750   0.838   9.072
 2012SOL    HW1 6035   3.792   0.774   9.136
 2012SOL    HW2 6036   3.712   0.787   8.994
 2013SOL     OW 6037   2.381   1.390   8.869
 2013SOL    HW1 6038   2.294   1.375   8.916
 2013SOL    HW2 6039   2.364   1.416   8.774
 2014SOL     OW 6040   3.557   1.285   9.352
 2014SOL    HW1 6041   3.656   1.293   9.366
 2014SOL    HW2 6042   3.512   1.369   9.383
 2015SOL     OW 6043   3.283   0.580   8.773
 2015SOL    HW1 6044   3.229   0.559   8.854
 2015SOL    HW2 6045   3.374   0.539   8.782
 2016SOL     OW 6046   2.420   0.261   9.023
 2016SOL    HW1 6047   2.447   0.202   8.948
 2016SOL    HW2 6048   2.420   0.356   8.992
 2017SOL     OW 6049   3.004   1.200   9.795
 2017SOL    HW1 6050   2.964   1.244   9.876
 2017SOL    HW2 6051   2.963   1.237   9.712
 2018SOL     OW 6052   3.531   1.104   9.774
 2018SOL    HW1 6053   3.536   1.185   9.833
 2018SOL    HW2 6054   3.445   1.106   9.723
 2019SOL     OW 6055   2.598   1.055   9.063
 2019SOL    HW1 6056   2.584   1.062   9.162
 2019SOL    HW2 6057   2.682   1.004   9.045
 2020SOL     OW 6058   2.303   0.818   9.946
 2020SOL    HW1 6059   2.389   0.830   9.996
 2020SOL    HW2 6060   2.261   0.731   9.973
 2021SOL     OW 6061   2.260   1.105   9.196
 2021SOL    HW1 6062   2.253   1.188   9.140
 2021SOL    HW2 6063   2.264   1.025   9.136
 2022SOL     OW 6064   2.459   0.542   9.560
 2022SOL    HW1 6065   2.471   0.608   9.486
 2022SOL    HW2 6066   2.505   0.576   9.643
 2023SOL     OW 6067   3.145   1.353   9.083
 2023SOL    HW1 6068   3.195   1.430   9.123
 2023SOL    HW2 6069   3.050   1.355   9.115
 2024SOL     OW 6070   3.165   1.450   9.837
 2024SOL    HW1 6071   3.212   1.463   9.924
 2024SOL    HW2 6072   3.099   1.376   9.846
 2025SOL     OW 6073   3.475   0.644   9.167
 2025SOL    HW1 6074   3.444   0.705   9.240
 2025SOL    HW2 6075   3.525   0.696   9.098
 2026SOL     OW 6076   2.466   0.875   9.724
 2026SOL    HW1 6077   2.510   0.964   9.715
 2026SOL    HW2 6078   2.403   0.875   9.801
 2027SOL     OW 6079   3.253   0.867   9.740
 2027SOL    HW1 6080   3.178   0.867   9.674
 2027SOL    HW2 6081   3.290   0.775   9.749
 2028SOL     OW 6082   3.102   0.530   8.970
 2028SOL    HW1 6083   3.115   0.446   9.024
 2028SOL    HW2 6084   3.073   0.604   9.030
 2029SOL     OW 6085   2.200   0.218   9.926
 2029SOL    HW1 6086   2.177   0.255  10.016
 2029SOL    HW2 6087   2.170   0.123   9.920
 2030SOL     OW 6088   1.930   1.315   9.977
 2030SOL    HW1 6089   1.983   1.266  10.045
 2030SOL    HW2 6090   1.952   1.413   9.982
 2031SOL     OW 6091   2.625   0.639   9.759
 2031SOL    HW1 6092   2.684   0.613   9.683
 2031SOL    HW2 6093   2.597   0.735   9.748
 2032SOL     OW 6094   2.200   0.068   9.313
 2032SOL    HW1 6095   2.189   0.162   9.346
 2032SOL    HW2 6096   2.195   0.005   9.390
 2033SOL     OW 6097   3.515   0.372   9.069
 2033SOL    HW1 6098   3.517   0.296   9.133
 2033SOL    HW2 6099   3.467   0.449   9.109
 2034SOL     OW 6100   2.916   0.771   9.661
 2034SOL    HW1 6101   2.931   0.792   9.757
 2034SOL    HW2 6102   2.886   0.676   9.652
 2035SOL     OW 6103   3.433   0.279   8.820
 2035SOL    HW1 6104   3.372   0.204   8.843
 2035SOL    HW2 6105   3.455   0.331   8.903
 2036SOL     OW 6106   3.196   0.843   8.737
 2036SOL    HW1 6107   3.230   0.750   8.752
 2036SOL    HW2 6108   3.214   0.870   8.642
 2037SOL     OW 6109   2.961   1.338   9.544
 2037SOL    HW1 6110   2.968   1.254   9.489
 2037SOL    HW2 6111   3.023   1.407   9.508
 2038SOL     OW 6112   2.212   0.815   9.644
 2038SOL    HW1 6113   2.305   0.851   9.649
 2038SOL    HW2 6114   2.206   0.730   9.696
 2039SOL     OW 6115   2.232   0.514   9.701
 2039SOL    HW1 6116   2.180   0.431   9.684
 2039SOL    HW2 6117   2.309   0.519   9.637
 2040SOL     OW 6118   3.053   0.212  10.172
 2040SOL    HW1 6119   3.053   0.276  10.249
 2040SOL    HW2 6120   3.081   0.260  10.089
 2041SOL     OW 6121   1.901   1.331   8.895
 2041SOL    HW1 6122   1.808   1.352   8.864
 2041SOL    HW2 6123   1.911   1.232   8.908
 2042SOL     OW 6124   1.981   1.806   9.622
 2042SOL    HW1 6125   1.939   1.720   9.595
 2042SOL    HW2 6126   2.075   1.809   9.588
 2043SOL     OW 6127   2.397   1.573   9.605
 2043SOL    HW1 6128   2.463   1.647   9.614
 2043SOL    HW2 6129   2.441   1.494   9.563
 2044SOL     OW 6130   2.895   0.801   9.933
 2044SOL    HW1 6131   2.936   0.769  10.019
 2044SOL    HW2 6132   2.799   0.774   9.930
 2045SOL     OW 6133   1.933   0.549   9.809
 2045SOL    HW1 6134   2.018   0.516   9.768
 2045SOL    HW2 6135   1.946   0.564   9.907
 2046SOL     OW 6136   2.708   0.577   9.020
 2046SOL    HW1 6137   2.715   0.488   8.974
 2046SOL    HW2 6138   2.614   0.611   9.012
 2047SOL     OW 6139   3.550   0.609   9.901
 2047SOL    HW1 6140   3.512   0.540   9.963
 2047SOL    HW2 6141   3.632   0.573   9.857
 2048SOL     OW 6142   2.564   0.469   9.964
 2048SOL    HW1 6143   2.530   0.380   9.934
 2048SOL    HW2 6144   2.590   0.523   9.884
 2049SOL     OW 6145   2.366   0.505   8.886
 2049SOL    HW1 6146   2.427   0.585   8.890
 2049SOL    HW2 6147   2.271   0.536   8.893
 2050SOL     OW 6148   2.052   1.142  10.161
 2050SOL    HW1 6149   2.074   1.081  10.237
 2050SOL    HW2 6150   2.062   1.093  10.075
 2051SOL     OW 6151   3.240   1.064   9.929
 2051SOL    HW1 6152   3.264   1.001   9.855
 2051SOL    HW2 6153   3.150   1.104   9.911
 2052SOL     OW 6154   3.195   0.860   9.004
 2052SOL    HW1 6155   3.109   0.829   9.046
 2052SOL    HW2 6156   3.191   0.846   8.905
 2053SOL     OW 6157   3.652   1.752   9.849
 2053SOL    HW1 6158   3.713   1.782   9.776
 2053SOL    HW2 6159   3.614   1.663   9.827
 2054SOL     OW 6160   1.976   1.263   9.717
 2054SOL    HW1 6161   1.971   1.262   9.817
 2054SOL    HW2 6162   1.893   1.222   9.679
 2055SOL     OW 6163   3.619   0.140   9.218
 2055SOL    HW1 6164   3.692   0.123   9.151
 2055SOL    HW2 6165   3.588   0.053   9.256
 2056SOL     OW 6166   3.281   1.578   9.172
 2056SOL    HW1 6167   3.348   1.590   9.098
 2056SOL    HW2 6168   3.241   1.667   9.195
 2057SOL     OW 6169   3.173   0.932   9.367
 2057SOL    HW1 6170   3.233   0.851   9.369
 2057SOL    HW2 6171   3.213   1.001   9.307
 2058SOL     OW 6172   2.565   1.621   8.849
 2058SOL    HW1 6173   2.574   1.631   8.750
 2058SOL    HW2 6174   2.525   1.532   8.870
 2059SOL     OW 6175   3.543   1.725  10.089
 2059SOL    HW1 6176   3.596   1.735  10.005
 2059SOL    HW2 6177   3.516   1.815  10.123
 2060SOL     OW 6178   3.734   0.180   9.658
 2060SOL    HW1 6179   3.773   0.095   9.622
 2060SOL    HW2 6180   3.636   0.182   9.639
 2061SOL     OW 6181   2.156   0.331   9.415
 2061SOL    HW1 6182   2.077   0.382   9.381
 2061SOL    HW2 6183   2.147   0.316   9.513
 2062SOL     OW 6184   3.087   1.617   8.726
 2062SOL    HW1 6185   3.093   1.524   8.763
 2062SOL    HW2 6186   3.028   1.617   8.646
 2063SOL     OW 6187   2.715   1.007  10.067
 2063SOL    HW1 6188   2.755   1.006   9.975
 2063SOL    HW2 6189   2.725   1.099  10.107
 2064SOL     OW 6190   2.809   0.915   8.986
 2064SOL    HW1 6191   2.872   0.953   8.918
 2064SOL    HW2 6192   2.849   0.832   9.025
 2065SOL     OW 6193   3.397   1.612   8.739
 2065SOL    HW1 6194   3.305   1.649   8.746
 2065SOL    HW2 6195   3.435   1.632   8.649
 2066SOL     OW 6196   2.932   1.103   9.391
 2066SOL    HW1 6197   2.862   1.056   9.445
 2066SOL    HW2 6198   2.991   1.035   9.348
 2067SOL     OW 6199   2.907   0.241   9.666
 2067SOL    HW1 6200   2.899   0.205   9.573
 2067SOL    HW2 6201   2.905   0.165   9.731
 2068SOL     OW 6202   2.483   1.492   9.186
 2068SOL    HW1 6203   2.525   1.434   9.116
 2068SOL    HW2 6204   2.439   1.571   9.142
 2069SOL     OW 6205   3.602   0.390  10.076
 2069SOL    HW1 6206   3.675   0.459  10.080
 2069SOL    HW2 6207   3.630   0.315  10.017
 2070SOL     OW 6208   2.148   1.353   8.985
 2070SOL    HW1 6209   2.052   1.354   8.958
 2070SOL    HW2 6210   2.160   1.406   9.069
 2071SOL     OW 6211   1.968   0.350   8.728
 2071SOL    HW1 6212   1.876   0.322   8.699
 2071SOL    HW2 6213   1.999   0.427   8.672
 2072SOL     OW 6214   1.965   0.171   9.013
 2072SOL    HW1 6215   1.948   0.254   8.959
 2072SOL    HW2 6216   2.055   0.134   8.991
 2073SOL     OW 6217   3.076   1.340   8.814
 2073SOL    HW1 6218   2.977   1.329   8.816
 2073SOL    HW2 6219   3.110   1.355   8.907
 2074SOL     OW 6220   3.386   1.772   9.654
 2074SOL    HW1 6221   3.419   1.836   9.585
 2074SOL    HW2 6222   3.452   1.766   9.729
 2075SOL     OW 6223   3.567   0.888   9.949
 2075SOL    HW1 6224   3.540   0.799   9.912
 2075SOL    HW2 6225   3.568   0.956   9.876
 2076SOL     OW 6226   3.118   0.330   9.144
 2076SOL    HW1 6227   3.183   0.256   9.133
 2076SOL    HW2 6228   3.138   0.380   9.228
 2077SOL     OW 6229   2.487   0.750   9.347
 2077SOL    HW1 6230   2.537   0.835   9.328
 2077SOL    HW2 6231   2.399   0.752   9.299
 2078SOL     OW 6232   3.623   0.939  10.212
 2078SOL    HW1 6233   3.661   1.030  10.227
 2078SOL    HW2 6234   3.615   0.922  10.113
 2079SOL     OW 6235   2.752   1.379   8.711
 2079SOL    HW1 6236   2.706   1.394   8.799
 2079SOL    HW2 6237   2.796   1.464   8.681
 2080SOL     OW 6238   2.554   1.795   9.648
 2080SOL    HW1 6239   2.508   1.883   9.635
 2080SOL    HW2 6240   2.653   1.807   9.641
 2081SOL     OW 6241   2.752   0.961   9.556
 2081SOL    HW1 6242   2.806   0.892   9.604
 2081SOL    HW2 6243   2.720   1.030   9.622
 2082SOL     OW 6244   2.976   0.989   8.782
 2082SOL    HW1 6245   2.953   1.042   8.700
 2082SOL    HW2 6246   3.057   0.933   8.763
 2083SOL     OW 6247   3.754   1.574   9.546
 2083SOL    HW1 6248   3.683   1.562   9.476
 2083SOL    HW2 6249   3.755   1.495   9.606
 2084SOL     OW 6250   1.972   1.245   9.348
 2084SOL    HW1 6251   1.971   1.198   9.436
 2084SOL    HW2 6252   2.054   1.217   9.297
 2085SOL     OW 6253   3.717   0.197   9.922
 2085SOL    HW1 6254   3.713   0.107   9.966
 2085SOL    HW2 6255   3.720   0.186   9.823
 2086SOL     OW 6256   2.321   0.429   9.215
 2086SOL    HW1 6257   2.351   0.357   9.153
 2086SOL    HW2 6258   2.282   0.389   9.298
 2087SOL     OW 6259   3.598   1.492   9.799
 2087SOL    HW1 6260   3.505   1.467   9.772
 2087SOL    HW2 6261   3.624   1.442   9.881
 2088SOL     OW 6262   2.705   1.591   9.382
 2088SOL    HW1 6263   2.737   1.601   9.288
 2088SOL    HW2 6264   2.626   1.529   9.384
 2089SOL     OW 6265   3.317   0.219   9.807
 2089SOL    HW1 6266   3.369   0.154   9.862
 2089SOL    HW2 6267   3.268   0.282   9.868
 2090SOL     OW 6268   2.894   0.039   9.849
 2090SOL    HW1 6269   2.831  -0.033   9.818
 2090SOL    HW2 6270   2.987   0.003   9.849
 2091SOL     OW 6271   2.663   1.335   8.996
 2091SOL    HW1 6272   2.617   1.248   9.013
 2091SOL    HW2 6273   2.754   1.332   9.037
 2092SOL     OW 6274   3.245   0.057   8.863
 2092SOL    HW1 6275   3.280   0.016   8.779
 2092SOL    HW2 6276   3.155   0.019   8.883
 2093SOL     OW 6277   3.193   0.458   9.386
 2093SOL    HW1 6278   3.134   0.538   9.390
 2093SOL    HW2 6279   3.208   0.423   9.479
 2094SOL     OW 6280   3.486   0.226   9.577
 2094SOL    HW1 6281   3.402   0.225   9.631
 2094SOL    HW2 6282   3.488   0.309   9.521
 2095SOL     OW 6283   1.932   1.082   8.995
 2095SOL    HW1 6284   2.031   1.071   8.986
 2095SOL    HW2 6285   1.892   0.996   9.027
 2096SOL     OW 6286   2.768   1.651   9.032
 2096SOL    HW1 6287   2.691   1.616   8.978
 2096SOL    HW2 6288   2.736   1.722   9.094
 2097SOL     OW 6289   2.123   2.495   5.084
 2097SOL    HW1 6290   2.030   2.493   5.121
 2097SOL    HW2 6291   2.124   2.456   4.992
 2098SOL     OW 6292   2.118   2.142   5.967
 2098SOL    HW1 6293   2.153   2.125   6.059
 2098SOL    HW2 6294   2.030   2.097   5.955
 2099SOL     OW 6295   1.912   2.235   5.618
 2099SOL    HW1 6296   1.830   2.278   5.657
 2099SOL    HW2 6297   1.884   2.162   5.555
 2100SOL     OW 6298   2.462   3.142   6.136
 2100SOL    HW1 6299   2.369   3.135   6.099
 2100SOL    HW2 6300   2.473   3.231   6.180
 2101SOL     OW 6301   3.448   3.378   5.674
 2101SOL    HW1 6302   3.391   3.362   5.755
 2101SOL    HW2 6303   3.389   3.388   5.594
 2102SOL     OW 6304   3.028   2.570   5.688
 2102SOL    HW1 6305   3.085   2.648   5.663
 2102SOL    HW2 6306   2.968   2.596   5.764
 2103SOL     OW 6307   3.648   2.474   5.202
 2103SOL    HW1 6308   3.636   2.461   5.103
 2103SOL    HW2 6309   3.618   2.393   5.251
 2104SOL     OW 6310   2.661   3.011   5.994
 2104SOL    HW1 6311   2.583   3.028   6.054
 2104SOL    HW2 6312   2.695   3.098   5.958
 2105SOL     OW 6313   2.743   2.665   6.794
 2105SOL    HW1 6314   2.739   2.741   6.859
 2105SOL    HW2 6315   2.765   2.701   6.703
 2106SOL     OW 6316   2.578   2.879   5.636
 2106SOL    HW1 6317   2.647   2.863   5.706
 2106SOL    HW2 6318   2.505   2.936   5.674
 2107SOL     OW 6319   2.579   3.028   6.774
 2107SOL    HW1 6320   2.639   3.107   6.788
 2107SOL    HW2 6321   2.493   3.059   6.733
 2108SOL     OW 6322   2.228   3.302   6.032
 2108SOL    HW1 6323   2.150   3.271   5.979
 2108SOL    HW2 6324   2.286   3.360   5.975
 2109SOL     OW 6325   3.353   3.372   6.310
 2109SOL    HW1 6326   3.377   3.466   6.336
 2109SOL    HW2 6327   3.337   3.318   6.392
 2110SOL     OW 6328   2.331   2.259   6.470
 2110SOL    HW1 6329   2.413   2.203   6.479
 2110SOL    HW2 6330   2.250   2.201   6.474
 2111SOL     OW 6331   3.496   2.314   5.708
 2111SOL    HW1 6332   3.422   2.360   5.658
 2111SOL    HW2 6333   3.547   2.382   5.761
 2112SOL     OW 6334   2.124   3.580   5.454
 2112SOL    HW1 6335   2.158   3.657   5.508
 2112SOL    HW2 6336   2.168   3.580   5.364
 2113SOL     OW 6337   3.020   3.208   6.661
 2113SOL    HW1 6338   3.067   3.208   6.749
 2113SOL    HW2 6339   2.972   3.121   6.650
 2114SOL     OW 6340   2.123   3.301   5.509
 2114SOL    HW1 6341   2.097   3.397   5.509
 2114SOL    HW2 6342   2.052   3.247   5.554
 2115SOL     OW 6343   2.133   2.958   5.857
 2115SOL    HW1 6344   2.147   2.874   5.909
 2115SOL    HW2 6345   2.078   3.022   5.912
 2116SOL     OW 6346   2.513   3.653   6.410
 2116SOL    HW1 6347   2.421   3.636   6.445
 2116SOL    HW2 6348   2.541   3.745   6.436
 2117SOL     OW 6349   2.499   2.831   5.094
 2117SOL    HW1 6350   2.506   2.915   5.040
 2117SOL    HW2 6351   2.545   2.844   5.182
 2118SOL     OW 6352   3.487   1.981   6.451
 2118SOL    HW1 6353   3.469   2.048   6.379
 2118SOL    HW2 6354   3.484   2.027   6.540
 2119SOL     OW 6355   2.015   2.510   5.534
 2119SOL    HW1 6356   1.970   2.422   5.551
 2119SOL    HW2 6357   2.014   2.564   5.618
 2120SOL     OW 6358   3.735   3.634   5.330
 2120SOL    HW1 6359   3.789   3.605   5.410
 2120SOL    HW2 6360   3.765   3.724   5.301
 2121SOL     OW 6361   1.920   3.463   5.088
 2121SOL    HW1 6362   1.901   3.367   5.109
 2121SOL    HW2 6363   1.887   3.521   5.163
 2122SOL     OW 6364   3.582   2.789   5.583
 2122SOL    HW1 6365   3.677   2.760   5.591
 2122SOL    HW2 6366   3.574   2.854   5.508
 2123SOL     OW 6367   3.534   2.975   5.403
 2123SOL    HW1 6368   3.620   2.977   5.351
 2123SOL    HW2 6369   3.548   3.022   5.491
 2124SOL     OW 6370   2.006   2.604   6.568
 2124SOL    HW1 6371   2.094   2.591   6.613
 2124SOL    HW2 6372   1.993   2.701   6.546
 2125SOL     OW 6373   2.506   3.232   5.697
 2125SOL    HW1 6374   2.457   3.145   5.706
 2125SOL    HW2 6375   2.483   3.275   5.610
 2126SOL     OW 6376   3.186   3.095   6.394
 2126SOL    HW1 6377   3.223   3.022   6.336
 2126SOL    HW2 6378   3.238   3.100   6.479
 2127SOL     OW 6379   2.702   1.871   5.473
 2127SOL    HW1 6380   2.742   1.962   5.464
 2127SOL    HW2 6381   2.602   1.879   5.479
 2128SOL     OW 6382   2.090   2.843   6.235
 2128SOL    HW1 6383   2.179   2.798   6.221
 2128SOL    HW2 6384   2.017   2.778   6.216
 2129SOL     OW 6385   3.418   2.866   5.161
 2129SOL    HW1 6386   3.355   2.790   5.174
 2129SOL    HW2 6387   3.466   2.884   5.247
 2130SOL     OW 6388   3.080   3.659   6.587
 2130SOL    HW1 6389   3.104   3.719   6.511
 2130SOL    HW2 6390   3.087   3.564   6.557
 2131SOL     OW 6391   2.210   2.118   6.772
 2131SOL    HW1 6392   2.281   2.189   6.778
 2131SOL    HW2 6393   2.122   2.157   6.800
 2132SOL     OW 6394   3.359   3.284   5.924
 2132SOL    HW1 6395   3.300   3.290   6.004
 2132SOL    HW2 6396   3.344   3.196   5.878
 2133SOL     OW 6397   3.560   3.581   5.543
 2133SOL    HW1 6398   3.519   3.558   5.455
 2133SOL    HW2 6399   3.542   3.507   5.608
 2134SOL     OW 6400   2.491   2.596   5.241
 2134SOL    HW1 6401   2.515   2.665   5.173
 2134SOL    HW2 6402   2.413   2.629   5.295
 2135SOL     OW 6403   3.174   2.212   5.915
 2135SOL    HW1 6404   3.088   2.162   5.902
 2135SOL    HW2 6405   3.236   2.158   5.971
 2136SOL     OW 6406   3.469   3.529   5.278
 2136SOL    HW1 6407   3.558   3.575   5.281
 2136SOL    HW2 6408   3.448   3.505   5.183
 2137SOL     OW 6409   2.700   2.472   6.436
 2137SOL    HW1 6410   2.653   2.469   6.525
 2137SOL    HW2 6411   2.649   2.417   6.370
 2138SOL     OW 6412   3.287   2.336   6.645
 2138SOL    HW1 6413   3.267   2.379   6.733
 2138SOL    HW2 6414   3.365   2.274   6.654
 2139SOL     OW 6415   2.866   2.757   6.543
 2139SOL    HW1 6416   2.912   2.673   6.514
 2139SOL    HW2 6417   2.810   2.791   6.468
 2140SOL     OW 6418   2.884   2.277   6.213
 2140SOL    HW1 6419   2.807   2.311   6.267
 2140SOL    HW2 6420   2.850   2.226   6.134
 2141SOL     OW 6421   2.934   2.568   5.400
 2141SOL    HW1 6422   2.960   2.564   5.496
 2141SOL    HW2 6423   2.849   2.517   5.386
 2142SOL     OW 6424   1.969   2.678   5.760
 2142SOL    HW1 6425   2.068   2.666   5.769
 2142SOL    HW2 6426   1.945   2.773   5.781
 2143SOL     OW 6427   2.023   3.688   6.542
 2143SOL    HW1 6428   2.013   3.673   6.641
 2143SOL    HW2 6429   1.937   3.724   6.506
 2144SOL     OW 6430   2.758   2.215   5.166
 2144SOL    HW1 6431   2.817   2.278   5.117
 2144SOL    HW2 6432   2.777   2.121   5.137
 2145SOL     OW 6433   3.612   2.452   6.802
 2145SOL    HW1 6434   3.586   2.541   6.766
 2145SOL    HW2 6435   3.610   2.384   6.729
 2146SOL     OW 6436   3.255   3.011   5.516
 2146SOL    HW1 6437   3.338   2.982   5.468
 2146SOL    HW2 6438   3.206   3.078   5.460
 2147SOL     OW 6439   2.443   2.063   5.856
 2147SOL    HW1 6440   2.438   2.058   5.956
 2147SOL    HW2 6441   2.445   2.159   5.827
 2148SOL     OW 6442   2.901   3.323   5.448
 2148SOL    HW1 6443   2.855   3.395   5.396
 2148SOL    HW2 6444   2.897   3.343   5.546
 2149SOL     OW 6445   2.244   3.668   5.824
 2149SOL    HW1 6446   2.294   3.582   5.830
 2149SOL    HW2 6447   2.309   3.745   5.821
 2150SOL     OW 6448   3.688   2.933   5.844
 2150SOL    HW1 6449   3.626   2.918   5.768
 2150SOL    HW2 6450   3.636   2.944   5.929
 2151SOL     OW 6451   3.120   3.417   6.477
 2151SOL    HW1 6452   3.126   3.340   6.541
 2151SOL    HW2 6453   3.068   3.391   6.397
 2152SOL     OW 6454   2.214   2.810   5.213
 2152SOL    HW1 6455   2.296   2.849   5.171
 2152SOL    HW2 6456   2.187   2.728   5.164
 2153SOL     OW 6457   3.351   2.602   5.699
 2153SOL    HW1 6458   3.346   2.537   5.774
 2153SOL    HW2 6459   3.431   2.661   5.712
 2154SOL     OW 6460   2.354   3.133   6.698
 2154SOL    HW1 6461   2.304   3.134   6.612
 2154SOL    HW2 6462   2.291   3.115   6.774
 2155SOL     OW 6463   3.004   3.643   5.208
 2155SOL    HW1 6464   2.944   3.581   5.258
 2155SOL    HW2 6465   3.035   3.599   5.123
 2156SOL     OW 6466   2.095   2.152   6.469
 2156SOL    HW1 6467   2.015   2.212   6.456
 2156SOL    HW2 6468   2.085   2.103   6.555
 2157SOL     OW 6469   3.525   3.244   5.052
 2157SOL    HW1 6470   3.493   3.338   5.042
 2157SOL    HW2 6471   3.449   3.181   5.040
 2158SOL     OW 6472   2.357   3.610   5.294
 2158SOL    HW1 6473   2.390   3.649   5.380
 2158SOL    HW2 6474   2.433   3.603   5.229
 2159SOL     OW 6475   3.293   1.974   5.397
 2159SOL    HW1 6476   3.269   1.937   5.307
 2159SOL    HW2 6477   3.392   1.990   5.401
 2160SOL     OW 6478   2.142   3.652   6.212
 2160SOL    HW1 6479   2.199   3.587   6.262
 2160SOL    HW2 6480   2.126   3.619   6.119
 2161SOL     OW 6481   2.833   3.565   5.875
 2161SOL    HW1 6482   2.913   3.508   5.896
 2161SOL    HW2 6483   2.784   3.525   5.798
 2162SOL     OW 6484   2.275   2.567   5.451
 2162SOL    HW1 6485   2.320   2.477   5.448
 2162SOL    HW2 6486   2.181   2.556   5.484
 2163SOL     OW 6487   3.440   2.089   6.700
 2163SOL    HW1 6488   3.435   2.126   6.792
 2163SOL    HW2 6489   3.368   2.020   6.688
 2164SOL     OW 6490   2.507   1.989   5.088
 2164SOL    HW1 6491   2.605   1.967   5.095
 2164SOL    HW2 6492   2.476   1.972   4.995
 2165SOL     OW 6493   2.674   2.131   6.720
 2165SOL    HW1 6494   2.741   2.070   6.763
 2165SOL    HW2 6495   2.601   2.150   6.785
 2166SOL     OW 6496   2.781   3.381   6.166
 2166SOL    HW1 6497   2.758   3.356   6.072
 2166SOL    HW2 6498   2.842   3.312   6.205
 2167SOL     OW 6499   3.244   2.457   6.404
 2167SOL    HW1 6500   3.272   2.414   6.489
 2167SOL    HW2 6501   3.269   2.553   6.405
 2168SOL     OW 6502   2.696   3.269   5.895
 2168SOL    HW1 6503   2.786   3.283   5.853
 2168SOL    HW2 6504   2.625   3.271   5.824
 2169SOL     OW 6505   2.815   2.370   5.870
 2169SOL    HW1 6506   2.790   2.361   5.774
 2169SOL    HW2 6507   2.863   2.288   5.901
 2170SOL     OW 6508   2.432   1.931   5.483
 2170SOL    HW1 6509   2.351   1.932   5.541
 2170SOL    HW2 6510   2.435   2.014   5.428
 2171SOL     OW 6511   3.327   3.055   5.012
 2171SOL    HW1 6512   3.359   2.979   5.069
 2171SOL    HW2 6513   3.235   3.082   5.042
 2172SOL     OW 6514   2.190   1.902   5.142
 2172SOL    HW1 6515   2.239   1.986   5.121
 2172SOL    HW2 6516   2.252   1.837   5.187
 2173SOL     OW 6517   2.828   2.103   5.451
 2173SOL    HW1 6518   2.780   2.144   5.373
 2173SOL    HW2 6519   2.927   2.101   5.432
 2174SOL     OW 6520   2.969   2.550   6.435
 2174SOL    HW1 6521   2.889   2.489   6.438
 2174SOL    HW2 6522   3.050   2.497   6.411
 2175SOL     OW 6523   3.120   3.437   5.764
 2175SOL    HW1 6524   3.141   3.511   5.699
 2175SOL    HW2 6525   3.188   3.437   5.837
 2176SOL     OW 6526   2.352   3.019   5.712
 2176SOL    HW1 6527   2.281   2.992   5.777
 2176SOL    HW2 6528   2.326   2.991   5.619
 2177SOL     OW 6529   3.164   3.664   5.562
 2177SOL    HW1 6530   3.208   3.728   5.498
 2177SOL    HW2 6531   3.114   3.716   5.632
 2178SOL     OW 6532   2.925   2.416   4.987
 2178SOL    HW1 6533   2.884   2.498   4.948
 2178SOL    HW2 6534   2.989   2.442   5.060
 2179SOL     OW 6535   1.971   2.423   6.357
 2179SOL    HW1 6536   2.063   2.422   6.316
 2179SOL    HW2 6537   1.965   2.497   6.424
 2180SOL     OW 6538   2.454   2.089   6.118
 2180SOL    HW1 6539   2.492   2.005   6.155
 2180SOL    HW2 6540   2.366   2.108   6.162
 2181SOL     OW 6541   2.759   2.321   5.613
 2181SOL    HW1 6542   2.727   2.393   5.551
 2181SOL    HW2 6543   2.783   2.240   5.560
 2182SOL     OW 6544   2.910   1.906   5.724
 2182SOL    HW1 6545   2.838   1.911   5.655
 2182SOL    HW2 6546   2.886   1.837   5.793
 2183SOL     OW 6547   3.322   3.040   5.838
 2183SOL    HW1 6548   3.267   2.956   5.831
 2183SOL    HW2 6549   3.348   3.069   5.746
 2184SOL     OW 6550   3.359   2.457   5.963
 2184SOL    HW1 6551   3.329   2.362   5.970
 2184SOL    HW2 6552   3.432   2.473   6.029
 2185SOL     OW 6553   3.750   2.700   5.348
 2185SOL    HW1 6554   3.792   2.636   5.412
 2185SOL    HW2 6555   3.712   2.649   5.270
 2186SOL     OW 6556   2.381   3.252   5.145
 2186SOL    HW1 6557   2.294   3.237   5.192
 2186SOL    HW2 6558   2.364   3.278   5.050
 2187SOL     OW 6559   3.557   3.147   5.628
 2187SOL    HW1 6560   3.656   3.155   5.642
 2187SOL    HW2 6561   3.512   3.231   5.659
 2188SOL     OW 6562   3.283   2.442   5.049
 2188SOL    HW1 6563   3.229   2.421   5.130
 2188SOL    HW2 6564   3.374   2.401   5.058
 2189SOL     OW 6565   2.420   2.123   5.299
 2189SOL    HW1 6566   2.447   2.064   5.224
 2189SOL    HW2 6567   2.420   2.218   5.268
 2190SOL     OW 6568   3.647   3.090   6.559
 2190SOL    HW1 6569   3.738   3.051   6.546
 2190SOL    HW2 6570   3.655   3.186   6.583
 2191SOL     OW 6571   2.957   3.214   6.311
 2191SOL    HW1 6572   2.877   3.191   6.366
 2191SOL    HW2 6573   3.040   3.188   6.360
 2192SOL     OW 6574   3.485   3.496   6.596
 2192SOL    HW1 6575   3.512   3.530   6.506
 2192SOL    HW2 6576   3.564   3.458   6.642
 2193SOL     OW 6577   3.004   3.062   6.071
 2193SOL    HW1 6578   2.964   3.106   6.152
 2193SOL    HW2 6579   2.963   3.099   5.988
 2194SOL     OW 6580   3.531   2.966   6.050
 2194SOL    HW1 6581   3.536   3.047   6.109
 2194SOL    HW2 6582   3.445   2.968   5.999
 2195SOL     OW 6583   2.808   1.956   6.373
 2195SOL    HW1 6584   2.833   1.936   6.278
 2195SOL    HW2 6585   2.880   2.012   6.415
 2196SOL     OW 6586   2.873   2.983   6.690
 2196SOL    HW1 6587   2.774   2.989   6.700
 2196SOL    HW2 6588   2.896   2.903   6.634
 2197SOL     OW 6589   2.598   2.917   5.339
 2197SOL    HW1 6590   2.584   2.924   5.438
 2197SOL    HW2 6591   2.682   2.866   5.321
 2198SOL     OW 6592   2.303   2.680   6.222
 2198SOL    HW1 6593   2.389   2.692   6.272
 2198SOL    HW2 6594   2.261   2.593   6.249
 2199SOL     OW 6595   3.167   2.253   6.233
 2199SOL    HW1 6596   3.188   2.327   6.297
 2199SOL    HW2 6597   3.078   2.270   6.190
 2200SOL     OW 6598   1.957   3.431   6.302
 2200SOL    HW1 6599   1.911   3.513   6.268
 2200SOL    HW2 6600   2.055   3.450   6.311
 2201SOL     OW 6601   2.260   2.967   5.472
 2201SOL    HW1 6602   2.253   3.050   5.416
 2201SOL    HW2 6603   2.264   2.887   5.412
 2202SOL     OW 6604   2.459   2.404   5.836
 2202SOL    HW1 6605   2.471   2.470   5.762
 2202SOL    HW2 6606   2.505   2.438   5.919
 2203SOL     OW 6607   3.145   3.215   5.359
 2203SOL    HW1 6608   3.195   3.292   5.399
 2203SOL    HW2 6609   3.050   3.217   5.391
 2204SOL     OW 6610   3.165   3.312   6.113
 2204SOL    HW1 6611   3.212   3.325   6.200
 2204SOL    HW2 6612   3.099   3.238   6.122
 2205SOL     OW 6613   3.475   2.506   5.443
 2205SOL    HW1 6614   3.444   2.567   5.516
 2205SOL    HW2 6615   3.525   2.558   5.374
 2206SOL     OW 6616   2.247   3.377   6.300
 2206SOL    HW1 6617   2.226   3.333   6.213
 2206SOL    HW2 6618   2.344   3.403   6.303
 2207SOL     OW 6619   2.295   2.618   6.569
 2207SOL    HW1 6620   2.363   2.673   6.522
 2207SOL    HW2 6621   2.335   2.530   6.596
 2208SOL     OW 6622   3.480   2.646   6.641
 2208SOL    HW1 6623   3.388   2.684   6.636
 2208SOL    HW2 6624   3.540   2.693   6.576
 2209SOL     OW 6625   2.906   1.972   6.741
 2209SOL    HW1 6626   2.912   2.057   6.689
 2209SOL    HW2 6627   2.938   1.896   6.684
 2210SOL     OW 6628   2.397   1.917   6.711
 2210SOL    HW1 6629   2.355   1.860   6.641
 2210SOL    HW2 6630   2.331   1.986   6.743
 2211SOL     OW 6631   2.466   2.737   6.000
 2211SOL    HW1 6632   2.510   2.826   5.991
 2211SOL    HW2 6633   2.403   2.737   6.077
 2212SOL     OW 6634   3.253   2.729   6.016
 2212SOL    HW1 6635   3.178   2.729   5.950
 2212SOL    HW2 6636   3.290   2.637   6.025
 2213SOL     OW 6637   3.102   2.392   5.246
 2213SOL    HW1 6638   3.115   2.308   5.300
 2213SOL    HW2 6639   3.073   2.466   5.306
 2214SOL     OW 6640   2.200   2.080   6.202
 2214SOL    HW1 6641   2.177   2.117   6.292
 2214SOL    HW2 6642   2.170   1.985   6.196
 2215SOL     OW 6643   1.930   3.177   6.253
 2215SOL    HW1 6644   1.983   3.128   6.321
 2215SOL    HW2 6645   1.952   3.275   6.258
 2216SOL     OW 6646   2.625   2.501   6.035
 2216SOL    HW1 6647   2.684   2.475   5.959
 2216SOL    HW2 6648   2.597   2.597   6.024
 2217SOL     OW 6649   3.621   2.802   6.825
 2217SOL    HW1 6650   3.575   2.795   6.736
 2217SOL    HW2 6651   3.559   2.846   6.891
 2218SOL     OW 6652   2.200   1.930   5.589
 2218SOL    HW1 6653   2.189   2.024   5.622
 2218SOL    HW2 6654   2.195   1.867   5.666
 2219SOL     OW 6655   3.515   2.234   5.345
 2219SOL    HW1 6656   3.517   2.158   5.409
 2219SOL    HW2 6657   3.467   2.311   5.385
 2220SOL     OW 6658   2.916   2.633   5.937
 2220SOL    HW1 6659   2.931   2.654   6.033
 2220SOL    HW2 6660   2.886   2.538   5.928
 2221SOL     OW 6661   2.873   3.440   6.671
 2221SOL    HW1 6662   2.853   3.484   6.583
 2221SOL    HW2 6663   2.912   3.349   6.655
 2222SOL     OW 6664   3.752   3.385   6.576
 2222SOL    HW1 6665   3.766   3.412   6.481
 2222SOL    HW2 6666   3.835   3.407   6.629
 2223SOL     OW 6667   2.243   2.765   6.775
 2223SOL    HW1 6668   2.319   2.809   6.823
 2223SOL    HW2 6669   2.278   2.718   6.693
 2224SOL     OW 6670   3.433   2.141   5.096
 2224SOL    HW1 6671   3.372   2.066   5.119
 2224SOL    HW2 6672   3.455   2.193   5.179
 2225SOL     OW 6673   3.196   2.705   5.013
 2225SOL    HW1 6674   3.230   2.612   5.028
 2225SOL    HW2 6675   3.214   2.732   4.918
 2226SOL     OW 6676   2.961   3.200   5.820
 2226SOL    HW1 6677   2.968   3.116   5.765
 2226SOL    HW2 6678   3.023   3.269   5.784
 2227SOL     OW 6679   2.212   2.677   5.920
 2227SOL    HW1 6680   2.305   2.713   5.925
 2227SOL    HW2 6681   2.206   2.592   5.972
 2228SOL     OW 6682   2.232   2.376   5.977
 2228SOL    HW1 6683   2.180   2.293   5.960
 2228SOL    HW2 6684   2.309   2.381   5.913
 2229SOL     OW 6685   3.031   2.247   6.649
 2229SOL    HW1 6686   2.986   2.310   6.713
 2229SOL    HW2 6687   3.124   2.278   6.632
 2230SOL     OW 6688   3.053   2.074   6.448
 2230SOL    HW1 6689   3.053   2.138   6.525
 2230SOL    HW2 6690   3.081   2.122   6.365
 2231SOL     OW 6691   1.901   3.193   5.171
 2231SOL    HW1 6692   1.808   3.214   5.140
 2231SOL    HW2 6693   1.911   3.094   5.184
 2232SOL     OW 6694   1.981   3.668   5.898
 2232SOL    HW1 6695   1.939   3.582   5.871
 2232SOL    HW2 6696   2.075   3.671   5.864
 2233SOL     OW 6697   2.397   3.435   5.881
 2233SOL    HW1 6698   2.463   3.509   5.890
 2233SOL    HW2 6699   2.441   3.356   5.839
 2234SOL     OW 6700   2.895   2.663   6.209
 2234SOL    HW1 6701   2.936   2.631   6.295
 2234SOL    HW2 6702   2.799   2.636   6.206
 2235SOL     OW 6703   1.933   2.411   6.085
 2235SOL    HW1 6704   2.018   2.378   6.044
 2235SOL    HW2 6705   1.946   2.426   6.183
 2236SOL     OW 6706   2.082   2.387   6.693
 2236SOL    HW1 6707   2.141   2.347   6.623
 2236SOL    HW2 6708   2.024   2.458   6.652
 2237SOL     OW 6709   3.262   2.817   6.631
 2237SOL    HW1 6710   3.301   2.906   6.651
 2237SOL    HW2 6711   3.272   2.797   6.534
 2238SOL     OW 6712   2.708   2.439   5.296
 2238SOL    HW1 6713   2.715   2.350   5.250
 2238SOL    HW2 6714   2.614   2.473   5.288
 2239SOL     OW 6715   3.550   2.471   6.177
 2239SOL    HW1 6716   3.512   2.402   6.239
 2239SOL    HW2 6717   3.632   2.435   6.133
 2240SOL     OW 6718   2.145   3.431   6.715
 2240SOL    HW1 6719   2.115   3.488   6.791
 2240SOL    HW2 6720   2.138   3.334   6.741
 2241SOL     OW 6721   2.564   2.331   6.240
 2241SOL    HW1 6722   2.530   2.242   6.210
 2241SOL    HW2 6723   2.590   2.385   6.160
 2242SOL     OW 6724   2.823   3.545   6.436
 2242SOL    HW1 6725   2.799   3.527   6.341
 2242SOL    HW2 6726   2.853   3.639   6.446
 2243SOL     OW 6727   2.366   2.367   5.162
 2243SOL    HW1 6728   2.427   2.447   5.166
 2243SOL    HW2 6729   2.271   2.398   5.169
 2244SOL     OW 6730   2.052   3.004   6.437
 2244SOL    HW1 6731   2.074   2.943   6.513
 2244SOL    HW2 6732   2.062   2.955   6.351
 2245SOL     OW 6733   3.240   2.926   6.205
 2245SOL    HW1 6734   3.264   2.863   6.131
 2245SOL    HW2 6735   3.150   2.966   6.187
 2246SOL     OW 6736   3.195   2.722   5.280
 2246SOL    HW1 6737   3.109   2.691   5.322
 2246SOL    HW2 6738   3.191   2.708   5.181
 2247SOL     OW 6739   3.652   3.614   6.125
 2247SOL    HW1 6740   3.713   3.644   6.052
 2247SOL    HW2 6741   3.614   3.525   6.103
 2248SOL     OW 6742   3.145   3.598   6.099
 2248SOL    HW1 6743   3.229   3.603   6.045
 2248SOL    HW2 6744   3.122   3.502   6.117
 2249SOL     OW 6745   1.976   3.125   5.993
 2249SOL    HW1 6746   1.971   3.124   6.093
 2249SOL    HW2 6747   1.893   3.084   5.955
 2250SOL     OW 6748   2.581   3.529   6.687
 2250SOL    HW1 6749   2.525   3.610   6.696
 2250SOL    HW2 6750   2.633   3.533   6.601
 2251SOL     OW 6751   2.796   1.953   5.104
 2251SOL    HW1 6752   2.847   1.954   5.018
 2251SOL    HW2 6753   2.852   1.911   5.175
 2252SOL     OW 6754   3.619   2.002   5.494
 2252SOL    HW1 6755   3.692   1.985   5.427
 2252SOL    HW2 6756   3.588   1.915   5.532
 2253SOL     OW 6757   3.281   3.440   5.448
 2253SOL    HW1 6758   3.348   3.452   5.374
 2253SOL    HW2 6759   3.241   3.529   5.471
 2254SOL     OW 6760   2.023   3.661   6.822
 2254SOL    HW1 6761   1.982   3.587   6.875
 2254SOL    HW2 6762   2.087   3.712   6.880
 2255SOL     OW 6763   3.173   2.794   5.643
 2255SOL    HW1 6764   3.233   2.713   5.645
 2255SOL    HW2 6765   3.213   2.863   5.583
 2256SOL     OW 6766   2.723   3.140   6.393
 2256SOL    HW1 6767   2.718   3.173   6.488
 2256SOL    HW2 6768   2.637   3.159   6.347
 2257SOL     OW 6769   2.565   3.483   5.125
 2257SOL    HW1 6770   2.574   3.493   5.026
 2257SOL    HW2 6771   2.525   3.394   5.146
 2258SOL     OW 6772   3.543   3.587   6.365
 2258SOL    HW1 6773   3.596   3.597   6.281
 2258SOL    HW2 6774   3.516   3.677   6.399
 2259SOL     OW 6775   3.734   2.042   5.934
 2259SOL    HW1 6776   3.773   1.957   5.898
 2259SOL    HW2 6777   3.636   2.044   5.915
 2260SOL     OW 6778   2.156   2.193   5.691
 2260SOL    HW1 6779   2.077   2.244   5.657
 2260SOL    HW2 6780   2.147   2.178   5.789
 2261SOL     OW 6781   3.087   3.479   5.002
 2261SOL    HW1 6782   3.093   3.386   5.039
 2261SOL    HW2 6783   3.028   3.479   4.922
 2262SOL     OW 6784   2.715   2.869   6.343
 2262SOL    HW1 6785   2.755   2.868   6.251
 2262SOL    HW2 6786   2.725   2.961   6.383
 2263SOL     OW 6787   2.809   2.777   5.262
 2263SOL    HW1 6788   2.872   2.815   5.194
 2263SOL    HW2 6789   2.849   2.694   5.301
 2264SOL     OW 6790   3.397   3.474   5.015
 2264SOL    HW1 6791   3.305   3.511   5.022
 2264SOL    HW2 6792   3.435   3.494   4.925
 2265SOL     OW 6793   2.265   3.155   6.461
 2265SOL    HW1 6794   2.252   3.248   6.427
 2265SOL    HW2 6795   2.181   3.103   6.448
 2266SOL     OW 6796   3.507   3.159   6.260
 2266SOL    HW1 6797   3.567   3.162   6.340
 2266SOL    HW2 6798   3.432   3.223   6.273
 2267SOL     OW 6799   2.932   2.965   5.667
 2267SOL    HW1 6800   2.862   2.918   5.721
 2267SOL    HW2 6801   2.991   2.897   5.624
 2268SOL     OW 6802   2.907   2.103   5.942
 2268SOL    HW1 6803   2.899   2.067   5.849
 2268SOL    HW2 6804   2.905   2.027   6.007
 2269SOL     OW 6805   2.483   3.354   5.462
 2269SOL    HW1 6806   2.525   3.296   5.392
 2269SOL    HW2 6807   2.439   3.433   5.418
 2270SOL     OW 6808   3.602   2.252   6.352
 2270SOL    HW1 6809   3.675   2.321   6.356
 2270SOL    HW2 6810   3.630   2.177   6.293
 2271SOL     OW 6811   2.148   3.215   5.261
 2271SOL    HW1 6812   2.052   3.216   5.234
 2271SOL    HW2 6813   2.160   3.268   5.345
 2272SOL     OW 6814   1.998   2.880   6.697
 2272SOL    HW1 6815   1.921   2.847   6.751
 2272SOL    HW2 6816   2.083   2.850   6.739
 2273SOL     OW 6817   2.565   2.070   6.460
 2273SOL    HW1 6818   2.655   2.054   6.420
 2273SOL    HW2 6819   2.573   2.075   6.559
 2274SOL     OW 6820   3.333   2.723   6.369
 2274SOL    HW1 6821   3.276   2.775   6.306
 2274SOL    HW2 6822   3.429   2.735   6.345
 2275SOL     OW 6823   1.965   2.033   5.289
 2275SOL    HW1 6824   1.948   2.116   5.235
 2275SOL    HW2 6825   2.055   1.996   5.267
 2276SOL     OW 6826   3.076   3.202   5.090
 2276SOL    HW1 6827   2.977   3.191   5.092
 2276SOL    HW2 6828   3.110   3.217   5.183
 2277SOL     OW 6829   2.506   2.709   6.402
 2277SOL    HW1 6830   2.562   2.790   6.385
 2277SOL    HW2 6831   2.565   2.629   6.405
 2278SOL     OW 6832   3.386   3.634   5.930
 2278SOL    HW1 6833   3.419   3.698   5.861
 2278SOL    HW2 6834   3.452   3.628   6.005
 2279SOL     OW 6835   2.609   2.432   6.679
 2279SOL    HW1 6836   2.628   2.497   6.753
 2279SOL    HW2 6837   2.669   2.352   6.688
 2280SOL     OW 6838   3.343   3.087   6.604
 2280SOL    HW1 6839   3.334   3.077   6.703
 2280SOL    HW2 6840   3.439   3.080   6.578
 2281SOL     OW 6841   2.283   3.608   6.531
 2281SOL    HW1 6842   2.192   3.649   6.529
 2281SOL    HW2 6843   2.276   3.514   6.563
 2282SOL     OW 6844   3.567   2.750   6.225
 2282SOL    HW1 6845   3.540   2.661   6.188
 2282SOL    HW2 6846   3.568   2.818   6.152
 2283SOL     OW 6847   3.118   2.192   5.420
 2283SOL    HW1 6848   3.183   2.118   5.409
 2283SOL    HW2 6849   3.138   2.242   5.504
 2284SOL     OW 6850   2.487   2.612   5.623
 2284SOL    HW1 6851   2.537   2.697   5.604
 2284SOL    HW2 6852   2.399   2.614   5.575
 2285SOL     OW 6853   3.670   2.209   6.613
 2285SOL    HW1 6854   3.653   2.240   6.519
 2285SOL    HW2 6855   3.586   2.172   6.651
 2286SOL     OW 6856   3.623   2.801   6.488
 2286SOL    HW1 6857   3.661   2.892   6.503
 2286SOL    HW2 6858   3.615   2.784   6.389
 2287SOL     OW 6859   2.752   3.241   4.987
 2287SOL    HW1 6860   2.706   3.256   5.075
 2287SOL    HW2 6861   2.796   3.326   4.957
 2288SOL     OW 6862   2.554   3.657   5.924
 2288SOL    HW1 6863   2.508   3.745   5.911
 2288SOL    HW2 6864   2.653   3.669   5.917
 2289SOL     OW 6865   2.752   2.823   5.832
 2289SOL    HW1 6866   2.806   2.754   5.880
 2289SOL    HW2 6867   2.720   2.892   5.898
 2290SOL     OW 6868   2.976   2.851   5.058
 2290SOL    HW1 6869   2.953   2.904   4.976
 2290SOL    HW2 6870   3.057   2.795   5.039
 2291SOL     OW 6871   3.754   3.436   5.822
 2291SOL    HW1 6872   3.683   3.424   5.752
 2291SOL    HW2 6873   3.755   3.357   5.882
 2292SOL     OW 6874   2.114   3.181   6.815
 2292SOL    HW1 6875   2.049   3.108   6.794
 2292SOL    HW2 6876   2.118   3.195   6.913
 2293SOL     OW 6877   1.972   3.107   5.624
 2293SOL    HW1 6878   1.971   3.060   5.712
 2293SOL    HW2 6879   2.054   3.079   5.573
 2294SOL     OW 6880   2.565   3.258   6.595
 2294SOL    HW1 6881   2.487   3.208   6.633
 2294SOL    HW2 6882   2.562   3.353   6.626
 2295SOL     OW 6883   3.717   2.059   6.198
 2295SOL    HW1 6884   3.713   1.969   6.242
 2295SOL    HW2 6885   3.720   2.048   6.099
 2296SOL     OW 6886   2.321   2.291   5.491
 2296SOL    HW1 6887   2.351   2.219   5.429
 2296SOL    HW2 6888   2.282   2.251   5.574
 2297SOL     OW 6889   3.598   3.354   6.075
 2297SOL    HW1 6890   3.505   3.329   6.048
 2297SOL    HW2 6891   3.624   3.304   6.157
 2298SOL     OW 6892   2.210   2.414   6.251
 2298SOL    HW1 6893   2.248   2.355   6.323
 2298SOL    HW2 6894   2.250   2.388   6.163
 2299SOL     OW 6895   2.705   3.453   5.658
 2299SOL    HW1 6896   2.737   3.463   5.564
 2299SOL    HW2 6897   2.626   3.391   5.660
 2300SOL     OW 6898   3.317   2.081   6.083
 2300SOL    HW1 6899   3.369   2.016   6.138
 2300SOL    HW2 6900   3.268   2.144   6.144
 2301SOL     OW 6901   2.894   1.901   6.125
 2301SOL    HW1 6902   2.831   1.829   6.094
 2301SOL    HW2 6903   2.987   1.865   6.125
 2302SOL     OW 6904   2.663   3.197   5.272
 2302SOL    HW1 6905   2.617   3.110   5.289
 2302SOL    HW2 6906   2.754   3.194   5.313
 2303SOL     OW 6907   2.511   3.434   6.255
 2303SOL    HW1 6908   2.506   3.516   6.312
 2303SOL    HW2 6909   2.600   3.431   6.210
 2304SOL     OW 6910   3.245   1.919   5.139
 2304SOL    HW1 6911   3.280   1.878   5.055
 2304SOL    HW2 6912   3.155   1.881   5.159
 2305SOL     OW 6913   3.193   2.320   5.662
 2305SOL    HW1 6914   3.134   2.400   5.666
 2305SOL    HW2 6915   3.208   2.285   5.755
 2306SOL     OW 6916   3.486   2.088   5.853
 2306SOL    HW1 6917   3.402   2.087   5.907
 2306SOL    HW2 6918   3.488   2.171   5.797
 2307SOL     OW 6919   2.768   3.513   5.308
 2307SOL    HW1 6920   2.691   3.478   5.254
 2307SOL    HW2 6921   2.736   3.584   5.370
 2308SOL     OW 6922   2.123   2.495   6.946
 2308SOL    HW1 6923   2.030   2.493   6.983
 2308SOL    HW2 6924   2.124   2.456   6.854
 2309SOL     OW 6925   2.118   2.142   7.829
 2309SOL    HW1 6926   2.153   2.125   7.921
 2309SOL    HW2 6927   2.030   2.097   7.817
 2310SOL     OW 6928   1.912   2.235   7.480
 2310SOL    HW1 6929   1.830   2.278   7.519
 2310SOL    HW2 6930   1.884   2.162   7.417
 2311SOL     OW 6931   2.462   3.142   7.998
 2311SOL    HW1 6932   2.369   3.135   7.961
 2311SOL    HW2 6933   2.473   3.231   8.042
 2312SOL     OW 6934   3.448   3.378   7.536
 2312SOL    HW1 6935   3.391   3.362   7.617
 2312SOL    HW2 6936   3.389   3.388   7.456
 2313SOL     OW 6937   3.028   2.570   7.550
 2313SOL    HW1 6938   3.085   2.648   7.525
 2313SOL    HW2 6939   2.968   2.596   7.626
 2314SOL     OW 6940   3.648   2.474   7.064
 2314SOL    HW1 6941   3.636   2.461   6.965
 2314SOL    HW2 6942   3.618   2.393   7.113
 2315SOL     OW 6943   2.661   3.011   7.856
 2315SOL    HW1 6944   2.583   3.028   7.916
 2315SOL    HW2 6945   2.695   3.098   7.820
 2316SOL     OW 6946   2.743   2.665   8.656
 2316SOL    HW1 6947   2.739   2.741   8.721
 2316SOL    HW2 6948   2.765   2.701   8.565
 2317SOL     OW 6949   2.578   2.879   7.498
 2317SOL    HW1 6950   2.647   2.863   7.568
 2317SOL    HW2 6951   2.505   2.936   7.536
 2318SOL     OW 6952   2.579   3.028   8.636
 2318SOL    HW1 6953   2.639   3.107   8.650
 2318SOL    HW2 6954   2.493   3.059   8.595
 2319SOL     OW 6955   2.228   3.302   7.894
 2319SOL    HW1 6956   2.150   3.271   7.841
 2319SOL    HW2 6957   2.286   3.360   7.837
 2320SOL     OW 6958   3.353   3.372   8.172
 2320SOL    HW1 6959   3.377   3.466   8.198
 2320SOL    HW2 6960   3.337   3.318   8.254
 2321SOL     OW 6961   2.331   2.259   8.332
 2321SOL    HW1 6962   2.413   2.203   8.341
 2321SOL    HW2 6963   2.250   2.201   8.336
 2322SOL     OW 6964   3.496   2.314   7.570
 2322SOL    HW1 6965   3.422   2.360   7.520
 2322SOL    HW2 6966   3.547   2.382   7.623
 2323SOL     OW 6967   2.124   3.580   7.316
 2323SOL    HW1 6968   2.158   3.657   7.370
 2323SOL    HW2 6969   2.168   3.580   7.226
 2324SOL     OW 6970   3.020   3.208   8.523
 2324SOL    HW1 6971   3.067   3.208   8.611
 2324SOL    HW2 6972   2.972   3.121   8.512
 2325SOL     OW 6973   2.123   3.301   7.371
 2325SOL    HW1 6974   2.097   3.397   7.371
 2325SOL    HW2 6975   2.052   3.247   7.416
 2326SOL     OW 6976   2.133   2.958   7.719
 2326SOL    HW1 6977   2.147   2.874   7.771
 2326SOL    HW2 6978   2.078   3.022   7.774
 2327SOL     OW 6979   2.513   3.653   8.272
 2327SOL    HW1 6980   2.421   3.636   8.307
 2327SOL    HW2 6981   2.541   3.745   8.298
 2328SOL     OW 6982   2.499   2.831   6.956
 2328SOL    HW1 6983   2.506   2.915   6.902
 2328SOL    HW2 6984   2.545   2.844   7.044
 2329SOL     OW 6985   3.487   1.981   8.313
 2329SOL    HW1 6986   3.469   2.048   8.241
 2329SOL    HW2 6987   3.484   2.027   8.402
 2330SOL     OW 6988   2.015   2.510   7.396
 2330SOL    HW1 6989   1.970   2.422   7.413
 2330SOL    HW2 6990   2.014   2.564   7.480
 2331SOL     OW 6991   3.735   3.634   7.192
 2331SOL    HW1 6992   3.789   3.605   7.272
 2331SOL    HW2 6993   3.765   3.724   7.163
 2332SOL     OW 6994   1.920   3.463   6.950
 2332SOL    HW1 6995   1.901   3.367   6.971
 2332SOL    HW2 6996   1.887   3.521   7.025
 2333SOL     OW 6997   3.582   2.789   7.445
 2333SOL    HW1 6998   3.677   2.760   7.453
 2333SOL    HW2 6999   3.574   2.854   7.370
 2334SOL     OW 7000   3.534   2.975   7.265
 2334SOL    HW1 7001   3.620   2.977   7.213
 2334SOL    HW2 7002   3.548   3.022   7.353
 2335SOL     OW 7003   2.006   2.604   8.430
 2335SOL    HW1 7004   2.094   2.591   8.475
 2335SOL    HW2 7005   1.993   2.701   8.408
 2336SOL     OW 7006   2.506   3.232   7.559
 2336SOL    HW1 7007   2.457   3.145   7.568
 2336SOL    HW2 7008   2.483   3.275   7.472
 2337SOL     OW 7009   3.186   3.095   8.256
 2337SOL    HW1 7010   3.223   3.022   8.198
 2337SOL    HW2 7011   3.238   3.100   8.341
 2338SOL     OW 7012   2.702   1.871   7.335
 2338SOL    HW1 7013   2.742   1.962   7.326
 2338SOL    HW2 7014   2.602   1.879   7.341
 2339SOL     OW 7015   2.090   2.843   8.097
 2339SOL    HW1 7016   2.179   2.798   8.083
 2339SOL    HW2 7017   2.017   2.778   8.078
 2340SOL     OW 7018   3.418   2.866   7.023
 2340SOL    HW1 7019   3.355   2.790   7.036
 2340SOL    HW2 7020   3.466   2.884   7.109
 2341SOL     OW 7021   3.080   3.659   8.449
 2341SOL    HW1 7022   3.104   3.719   8.373
 2341SOL    HW2 7023   3.087   3.564   8.419
 2342SOL     OW 7024   2.210   2.118   8.634
 2342SOL    HW1 7025   2.281   2.189   8.640
 2342SOL    HW2 7026   2.122   2.157   8.662
 2343SOL     OW 7027   3.359   3.284   7.786
 2343SOL    HW1 7028   3.300   3.290   7.866
 2343SOL    HW2 7029   3.344   3.196   7.740
 2344SOL     OW 7030   3.560   3.581   7.405
 2344SOL    HW1 7031   3.519   3.558   7.317
 2344SOL    HW2 7032   3.542   3.507   7.470
 2345SOL     OW 7033   2.491   2.596   7.103
 2345SOL    HW1 7034   2.515   2.665   7.035
 2345SOL    HW2 7035   2.413   2.629   7.157
 2346SOL     OW 7036   3.174   2.212   7.777
 2346SOL    HW1 7037   3.088   2.162   7.764
 2346SOL    HW2 7038   3.236   2.158   7.833
 2347SOL     OW 7039   3.469   3.529   7.140
 2347SOL    HW1 7040   3.558   3.575   7.143
 2347SOL    HW2 7041   3.448   3.505   7.045
 2348SOL     OW 7042   2.700   2.472   8.298
 2348SOL    HW1 7043   2.653   2.469   8.387
 2348SOL    HW2 7044   2.649   2.417   8.232
 2349SOL     OW 7045   3.287   2.336   8.507
 2349SOL    HW1 7046   3.267   2.379   8.595
 2349SOL    HW2 7047   3.365   2.274   8.516
 2350SOL     OW 7048   2.866   2.757   8.405
 2350SOL    HW1 7049   2.912   2.673   8.376
 2350SOL    HW2 7050   2.810   2.791   8.330
 2351SOL     OW 7051   2.884   2.277   8.075
 2351SOL    HW1 7052   2.807   2.311   8.129
 2351SOL    HW2 7053   2.850   2.226   7.996
 2352SOL     OW 7054   2.934   2.568   7.262
 2352SOL    HW1 7055   2.960   2.564   7.358
 2352SOL    HW2 7056   2.849   2.517   7.248
 2353SOL     OW 7057   1.969   2.678   7.622
 2353SOL    HW1 7058   2.068   2.666   7.631
 2353SOL    HW2 7059   1.945   2.773   7.643
 2354SOL     OW 7060   2.023   3.688   8.404
 2354SOL    HW1 7061   2.013   3.673   8.503
 2354SOL    HW2 7062   1.937   3.724   8.368
 2355SOL     OW 7063   2.758   2.215   7.028
 2355SOL    HW1 7064   2.817   2.278   6.979
 2355SOL    HW2 7065   2.777   2.121   6.999
 2356SOL     OW 7066   3.612   2.452   8.664
 2356SOL    HW1 7067   3.586   2.541   8.628
 2356SOL    HW2 7068   3.610   2.384   8.591
 2357SOL     OW 7069   3.255   3.011   7.378
 2357SOL    HW1 7070   3.338   2.982   7.330
 2357SOL    HW2 7071   3.206   3.078   7.322
 2358SOL     OW 7072   2.443   2.063   7.718
 2358SOL    HW1 7073   2.438   2.058   7.818
 2358SOL    HW2 7074   2.445   2.159   7.689
 2359SOL     OW 7075   2.901   3.323   7.310
 2359SOL    HW1 7076   2.855   3.395   7.258
 2359SOL    HW2 7077   2.897   3.343   7.408
 2360SOL     OW 7078   2.244   3.668   7.686
 2360SOL    HW1 7079   2.294   3.582   7.692
 2360SOL    HW2 7080   2.309   3.745   7.683
 2361SOL     OW 7081   3.688   2.933   7.706
 2361SOL    HW1 7082   3.626   2.918   7.630
 2361SOL    HW2 7083   3.636   2.944   7.791
 2362SOL     OW 7084   3.120   3.417   8.339
 2362SOL    HW1 7085   3.126   3.340   8.403
 2362SOL    HW2 7086   3.068   3.391   8.259
 2363SOL     OW 7087   2.214   2.810   7.075
 2363SOL    HW1 7088   2.296   2.849   7.033
 2363SOL    HW2 7089   2.187   2.728   7.026
 2364SOL     OW 7090   3.351   2.602   7.561
 2364SOL    HW1 7091   3.346   2.537   7.636
 2364SOL    HW2 7092   3.431   2.661   7.574
 2365SOL     OW 7093   2.354   3.133   8.560
 2365SOL    HW1 7094   2.304   3.134   8.474
 2365SOL    HW2 7095   2.291   3.115   8.636
 2366SOL     OW 7096   3.004   3.643   7.070
 2366SOL    HW1 7097   2.944   3.581   7.120
 2366SOL    HW2 7098   3.035   3.599   6.985
 2367SOL     OW 7099   2.095   2.152   8.331
 2367SOL    HW1 7100   2.015   2.212   8.318
 2367SOL    HW2 7101   2.085   2.103   8.417
 2368SOL     OW 7102   3.525   3.244   6.914
 2368SOL    HW1 7103   3.493   3.338   6.904
 2368SOL    HW2 7104   3.449   3.181   6.902
 2369SOL     OW 7105   2.357   3.610   7.156
 2369SOL    HW1 7106   2.390   3.649   7.242
 2369SOL    HW2 7107   2.433   3.603   7.091
 2370SOL     OW 7108   3.293   1.974   7.259
 2370SOL    HW1 7109   3.269   1.937   7.169
 2370SOL    HW2 7110   3.392   1.990   7.263
 2371SOL     OW 7111   2.142   3.652   8.074
 2371SOL    HW1 7112   2.199   3.587   8.124
 2371SOL    HW2 7113   2.126   3.619   7.981
 2372SOL     OW 7114   2.833   3.565   7.737
 2372SOL    HW1 7115   2.913   3.508   7.758
 2372SOL    HW2 7116   2.784   3.525   7.660
 2373SOL     OW 7117   2.275   2.567   7.313
 2373SOL    HW1 7118   2.320   2.477   7.310
 2373SOL    HW2 7119   2.181   2.556   7.346
 2374SOL     OW 7120   3.440   2.089   8.562
 2374SOL    HW1 7121   3.435   2.126   8.654
 2374SOL    HW2 7122   3.368   2.020   8.550
 2375SOL     OW 7123   2.507   1.989   6.950
 2375SOL    HW1 7124   2.605   1.967   6.957
 2375SOL    HW2 7125   2.476   1.972   6.857
 2376SOL     OW 7126   2.674   2.131   8.582
 2376SOL    HW1 7127   2.741   2.070   8.625
 2376SOL    HW2 7128   2.601   2.150   8.647
 2377SOL     OW 7129   2.781   3.381   8.028
 2377SOL    HW1 7130   2.758   3.356   7.934
 2377SOL    HW2 7131   2.842   3.312   8.067
 2378SOL     OW 7132   3.244   2.457   8.266
 2378SOL    HW1 7133   3.272   2.414   8.351
 2378SOL    HW2 7134   3.269   2.553   8.267
 2379SOL     OW 7135   2.696   3.269   7.757
 2379SOL    HW1 7136   2.786   3.283   7.715
 2379SOL    HW2 7137   2.625   3.271   7.686
 2380SOL     OW 7138   2.815   2.370   7.732
 2380SOL    HW1 7139   2.790   2.361   7.636
 2380SOL    HW2 7140   2.863   2.288   7.763
 2381SOL     OW 7141   2.432   1.931   7.345
 2381SOL    HW1 7142   2.351   1.932   7.403
 2381SOL    HW2 7143   2.435   2.014   7.290
 2382SOL     OW 7144   3.327   3.055   6.874
 2382SOL    HW1 7145   3.359   2.979   6.931
 2382SOL    HW2 7146   3.235   3.082   6.904
 2383SOL     OW 7147   2.190   1.902   7.004
 2383SOL    HW1 7148   2.239   1.986   6.983
 2383SOL    HW2 7149   2.252   1.837   7.049
 2384SOL     OW 7150   2.828   2.103   7.313
 2384SOL    HW1 7151   2.780   2.144   7.235
 2384SOL    HW2 7152   2.927   2.101   7.294
 2385SOL     OW 7153   2.969   2.550   8.297
 2385SOL    HW1 7154   2.889   2.489   8.300
 2385SOL    HW2 7155   3.050   2.497   8.273
 2386SOL     OW 7156   3.120   3.437   7.626
 2386SOL    HW1 7157   3.141   3.511   7.561
 2386SOL    HW2 7158   3.188   3.437   7.699
 2387SOL     OW 7159   2.352   3.019   7.574
 2387SOL    HW1 7160   2.281   2.992   7.639
 2387SOL    HW2 7161   2.326   2.991   7.481
 2388SOL     OW 7162   3.164   3.664   7.424
 2388SOL    HW1 7163   3.208   3.728   7.360
 2388SOL    HW2 7164   3.114   3.716   7.494
 2389SOL     OW 7165   2.925   2.416   6.849
 2389SOL    HW1 7166   2.884   2.498   6.810
 2389SOL    HW2 7167   2.989   2.442   6.922
 2390SOL     OW 7168   1.971   2.423   8.219
 2390SOL    HW1 7169   2.063   2.422   8.178
 2390SOL    HW2 7170   1.965   2.497   8.286
 2391SOL     OW 7171   2.454   2.089   7.980
 2391SOL    HW1 7172   2.492   2.005   8.017
 2391SOL    HW2 7173   2.366   2.108   8.024
 2392SOL     OW 7174   2.759   2.321   7.475
 2392SOL    HW1 7175   2.727   2.393   7.413
 2392SOL    HW2 7176   2.783   2.240   7.422
 2393SOL     OW 7177   2.910   1.906   7.586
 2393SOL    HW1 7178   2.838   1.911   7.517
 2393SOL    HW2 7179   2.886   1.837   7.655
 2394SOL     OW 7180   3.322   3.040   7.700
 2394SOL    HW1 7181   3.267   2.956   7.693
 2394SOL    HW2 7182   3.348   3.069   7.608
 2395SOL     OW 7183   3.359   2.457   7.825
 2395SOL    HW1 7184   3.329   2.362   7.832
 2395SOL    HW2 7185   3.432   2.473   7.891
 2396SOL     OW 7186   3.750   2.700   7.210
 2396SOL    HW1 7187   3.792   2.636   7.274
 2396SOL    HW2 7188   3.712   2.649   7.132
 2397SOL     OW 7189   2.381   3.252   7.007
 2397SOL    HW1 7190   2.294   3.237   7.054
 2397SOL    HW2 7191   2.364   3.278   6.912
 2398SOL     OW 7192   3.557   3.147   7.490
 2398SOL    HW1 7193   3.656   3.155   7.504
 2398SOL    HW2 7194   3.512   3.231   7.521
 2399SOL     OW 7195   3.283   2.442   6.911
 2399SOL    HW1 7196   3.229   2.421   6.992
 2399SOL    HW2 7197   3.374   2.401   6.920
 2400SOL     OW 7198   2.420   2.123   7.161
 2400SOL    HW1 7199   2.447   2.064   7.086
 2400SOL    HW2 7200   2.420   2.218   7.130
 2401SOL     OW 7201   3.647   3.090   8.421
 2401SOL    HW1 7202   3.738   3.051   8.408
 2401SOL    HW2 7203   3.655   3.186   8.445
 2402SOL     OW 7204   2.957   3.214   8.173
 2402SOL    HW1 7205   2.877   3.191   8.228
 2402SOL    HW2 7206   3.040   3.188   8.222
 2403SOL     OW 7207   3.485   3.496   8.458
 2403SOL    HW1 7208   3.512   3.530   8.368
 2403SOL    HW2 7209   3.564   3.458   8.504
 2404SOL     OW 7210   3.004   3.062   7.933
 2404SOL    HW1 7211   2.964   3.106   8.014
 2404SOL    HW2 7212   2.963   3.099   7.850
 2405SOL     OW 7213   3.531   2.966   7.912
 2405SOL    HW1 7214   3.536   3.047   7.971
 2405SOL    HW2 7215   3.445   2.968   7.861
 2406SOL     OW 7216   2.808   1.956   8.235
 2406SOL    HW1 7217   2.833   1.936   8.140
 2406SOL    HW2 7218   2.880   2.012   8.277
 2407SOL     OW 7219   2.873   2.983   8.552
 2407SOL    HW1 7220   2.774   2.989   8.562
 2407SOL    HW2 7221   2.896   2.903   8.496
 2408SOL     OW 7222   2.598   2.917   7.201
 2408SOL    HW1 7223   2.584   2.924   7.300
 2408SOL    HW2 7224   2.682   2.866   7.183
 2409SOL     OW 7225   2.303   2.680   8.084
 2409SOL    HW1 7226   2.389   2.692   8.134
 2409SOL    HW2 7227   2.261   2.593   8.111
 2410SOL     OW 7228   3.167   2.253   8.095
 2410SOL    HW1 7229   3.188   2.327   8.159
 2410SOL    HW2 7230   3.078   2.270   8.052
 2411SOL     OW 7231   1.957   3.431   8.164
 2411SOL    HW1 7232   1.911   3.513   8.130
 2411SOL    HW2 7233   2.055   3.450   8.173
 2412SOL     OW 7234   2.260   2.967   7.334
 2412SOL    HW1 7235   2.253   3.050   7.278
 2412SOL    HW2 7236   2.264   2.887   7.274
 2413SOL     OW 7237   2.459   2.404   7.698
 2413SOL    HW1 7238   2.471   2.470   7.624
 2413SOL    HW2 7239   2.505   2.438   7.781
 2414SOL     OW 7240   3.145   3.215   7.221
 2414SOL    HW1 7241   3.195   3.292   7.261
 2414SOL    HW2 7242   3.050   3.217   7.253
 2415SOL     OW 7243   3.165   3.312   7.975
 2415SOL    HW1 7244   3.212   3.325   8.062
 2415SOL    HW2 7245   3.099   3.238   7.984
 2416SOL     OW 7246   3.475   2.506   7.305
 2416SOL    HW1 7247   3.444   2.567   7.378
 2416SOL    HW2 7248   3.525   2.558   7.236
 2417SOL     OW 7249   2.247   3.377   8.162
 2417SOL    HW1 7250   2.226   3.333   8.075
 2417SOL    HW2 7251   2.344   3.403   8.165
 2418SOL     OW 7252   2.295   2.618   8.431
 2418SOL    HW1 7253   2.363   2.673   8.384
 2418SOL    HW2 7254   2.335   2.530   8.458
 2419SOL     OW 7255   3.480   2.646   8.503
 2419SOL    HW1 7256   3.388   2.684   8.498
 2419SOL    HW2 7257   3.540   2.693   8.438
 2420SOL     OW 7258   2.906   1.972   8.603
 2420SOL    HW1 7259   2.912   2.057   8.551
 2420SOL    HW2 7260   2.938   1.896   8.546
 2421SOL     OW 7261   2.397   1.917   8.573
 2421SOL    HW1 7262   2.355   1.860   8.503
 2421SOL    HW2 7263   2.331   1.986   8.605
 2422SOL     OW 7264   2.466   2.737   7.862
 2422SOL    HW1 7265   2.510   2.826   7.853
 2422SOL    HW2 7266   2.403   2.737   7.939
 2423SOL     OW 7267   3.253   2.729   7.878
 2423SOL    HW1 7268   3.178   2.729   7.812
 2423SOL    HW2 7269   3.290   2.637   7.887
 2424SOL     OW 7270   3.102   2.392   7.108
 2424SOL    HW1 7271   3.115   2.308   7.162
 2424SOL    HW2 7272   3.073   2.466   7.168
 2425SOL     OW 7273   2.200   2.080   8.064
 2425SOL    HW1 7274   2.177   2.117   8.154
 2425SOL    HW2 7275   2.170   1.985   8.058
 2426SOL     OW 7276   1.930   3.177   8.115
 2426SOL    HW1 7277   1.983   3.128   8.183
 2426SOL    HW2 7278   1.952   3.275   8.120
 2427SOL     OW 7279   2.625   2.501   7.897
 2427SOL    HW1 7280   2.684   2.475   7.821
 2427SOL    HW2 7281   2.597   2.597   7.886
 2428SOL     OW 7282   3.621   2.802   8.687
 2428SOL    HW1 7283   3.575   2.795   8.598
 2428SOL    HW2 7284   3.559   2.846   8.753
 2429SOL     OW 7285   2.200   1.930   7.451
 2429SOL    HW1 7286   2.189   2.024   7.484
 2429SOL    HW2 7287   2.195   1.867   7.528
 2430SOL     OW 7288   3.515   2.234   7.207
 2430SOL    HW1 7289   3.517   2.158   7.271
 2430SOL    HW2 7290   3.467   2.311   7.247
 2431SOL     OW 7291   2.916   2.633   7.799
 2431SOL    HW1 7292   2.931   2.654   7.895
 2431SOL    HW2 7293   2.886   2.538   7.790
 2432SOL     OW 7294   2.873   3.440   8.533
 2432SOL    HW1 7295   2.853   3.484   8.445
 2432SOL    HW2 7296   2.912   3.349   8.517
 2433SOL     OW 7297   3.752   3.385   8.438
 2433SOL    HW1 7298   3.766   3.412   8.343
 2433SOL    HW2 7299   3.835   3.407   8.491
 2434SOL     OW 7300   2.243   2.765   8.637
 2434SOL    HW1 7301   2.319   2.809   8.685
 2434SOL    HW2 7302   2.278   2.718   8.555
 2435SOL     OW 7303   3.433   2.141   6.958
 2435SOL    HW1 7304   3.372   2.066   6.981
 2435SOL    HW2 7305   3.455   2.193   7.041
 2436SOL     OW 7306   3.196   2.705   6.875
 2436SOL    HW1 7307   3.230   2.612   6.890
 2436SOL    HW2 7308   3.214   2.732   6.780
 2437SOL     OW 7309   2.961   3.200   7.682
 2437SOL    HW1 7310   2.968   3.116   7.627
 2437SOL    HW2 7311   3.023   3.269   7.646
 2438SOL     OW 7312   2.212   2.677   7.782
 2438SOL    HW1 7313   2.305   2.713   7.787
 2438SOL    HW2 7314   2.206   2.592   7.834
 2439SOL     OW 7315   2.232   2.376   7.839
 2439SOL    HW1 7316   2.180   2.293   7.822
 2439SOL    HW2 7317   2.309   2.381   7.775
 2440SOL     OW 7318   3.031   2.247   8.511
 2440SOL    HW1 7319   2.986   2.310   8.575
 2440SOL    HW2 7320   3.124   2.278   8.494
 2441SOL     OW 7321   3.053   2.074   8.310
 2441SOL    HW1 7322   3.053   2.138   8.387
 2441SOL    HW2 7323   3.081   2.122   8.227
 2442SOL     OW 7324   1.901   3.193   7.033
 2442SOL    HW1 7325   1.808   3.214   7.002
 2442SOL    HW2 7326   1.911   3.094   7.046
 2443SOL     OW 7327   1.981   3.668   7.760
 2443SOL    HW1 7328   1.939   3.582   7.733
 2443SOL    HW2 7329   2.075   3.671   7.726
 2444SOL     OW 7330   2.397   3.435   7.743
 2444SOL    HW1 7331   2.463   3.509   7.752
 2444SOL    HW2 7332   2.441   3.356   7.701
 2445SOL     OW 7333   2.895   2.663   8.071
 2445SOL    HW1 7334   2.936   2.631   8.157
 2445SOL    HW2 7335   2.799   2.636   8.068
 2446SOL     OW 7336   1.933   2.411   7.947
 2446SOL    HW1 7337   2.018   2.378   7.906
 2446SOL    HW2 7338   1.946   2.426   8.045
 2447SOL     OW 7339   2.082   2.387   8.555
 2447SOL    HW1 7340   2.141   2.347   8.485
 2447SOL    HW2 7341   2.024   2.458   8.514
 2448SOL     OW 7342   3.262   2.817   8.493
 2448SOL    HW1 7343   3.301   2.906   8.513
 2448SOL    HW2 7344   3.272   2.797   8.396
 2449SOL     OW 7345   2.708   2.439   7.158
 2449SOL    HW1 7346   2.715   2.350   7.112
 2449SOL    HW2 7347   2.614   2.473   7.150
 2450SOL     OW 7348   3.550   2.471   8.039
 2450SOL    HW1 7349   3.512   2.402   8.101
 2450SOL    HW2 7350   3.632   2.435   7.995
 2451SOL     OW 7351   2.145   3.431   8.577
 2451SOL    HW1 7352   2.115   3.488   8.653
 2451SOL    HW2 7353   2.138   3.334   8.603
 2452SOL     OW 7354   2.564   2.331   8.102
 2452SOL    HW1 7355   2.530   2.242   8.072
 2452SOL    HW2 7356   2.590   2.385   8.022
 2453SOL     OW 7357   2.823   3.545   8.298
 2453SOL    HW1 7358   2.799   3.527   8.203
 2453SOL    HW2 7359   2.853   3.639   8.308
 2454SOL     OW 7360   2.366   2.367   7.024
 2454SOL    HW1 7361   2.427   2.447   7.028
 2454SOL    HW2 7362   2.271   2.398   7.031
 2455SOL     OW 7363   2.052   3.004   8.299
 2455SOL    HW1 7364   2.074   2.943   8.375
 2455SOL    HW2 7365   2.062   2.955   8.213
 2456SOL     OW 7366   3.240   2.926   8.067
 2456SOL    HW1 7367   3.264   2.863   7.993
 2456SOL    HW2 7368   3.150   2.966   8.049
 2457SOL     OW 7369   3.195   2.722   7.142
 2457SOL    HW1 7370   3.109   2.691   7.184
 2457SOL    HW2 7371   3.191   2.708   7.043
 2458SOL     OW 7372   3.652   3.614   7.987
 2458SOL    HW1 7373   3.713   3.644   7.914
 2458SOL    HW2 7374   3.614   3.525   7.965
 2459SOL     OW 7375   3.145   3.598   7.961
 2459SOL    HW1 7376   3.229   3.603   7.907
 2459SOL    HW2 7377   3.122   3.502   7.979
 2460SOL     OW 7378   1.976   3.125   7.855
 2460SOL    HW1 7379   1.971   3.124   7.955
 2460SOL    HW2 7380   1.893   3.084   7.817
 2461SOL     OW 7381   2.581   3.529   8.549
 2461SOL    HW1 7382   2.525   3.610   8.558
 2461SOL    HW2 7383   2.633   3.533   8.463
 2462SOL     OW 7384   3.619   2.002   7.356
 2462SOL    HW1 7385   3.692   1.985   7.289
 2462SOL    HW2 7386   3.588   1.915   7.394
 2463SOL     OW 7387   3.281   3.440   7.310
 2463SOL    HW1 7388   3.348   3.452   7.236
 2463SOL    HW2 7389   3.241   3.529   7.333
 2464SOL     OW 7390   2.023   3.661   8.684
 2464SOL    HW1 7391   1.982   3.587   8.737
 2464SOL    HW2 7392   2.087   3.712   8.742
 2465SOL     OW 7393   3.173   2.794   7.505
 2465SOL    HW1 7394   3.233   2.713   7.507
 2465SOL    HW2 7395   3.213   2.863   7.445
 2466SOL     OW 7396   2.723   3.140   8.255
 2466SOL    HW1 7397   2.718   3.173   8.350
 2466SOL    HW2 7398   2.637   3.159   8.209
 2467SOL     OW 7399   2.565   3.483   6.987
 2467SOL    HW1 7400   2.574   3.493   6.888
 2467SOL    HW2 7401   2.525   3.394   7.008
 2468SOL     OW 7402   3.543   3.587   8.227
 2468SOL    HW1 7403   3.596   3.597   8.143
 2468SOL    HW2 7404   3.516   3.677   8.261
 2469SOL     OW 7405   3.734   2.042   7.796
 2469SOL    HW1 7406   3.773   1.957   7.760
 2469SOL    HW2 7407   3.636   2.044   7.777
 2470SOL     OW 7408   2.156   2.193   7.553
 2470SOL    HW1 7409   2.077   2.244   7.519
 2470SOL    HW2 7410   2.147   2.178   7.651
 2471SOL     OW 7411   3.087   3.479   6.864
 2471SOL    HW1 7412   3.093   3.386   6.901
 2471SOL    HW2 7413   3.028   3.479   6.784
 2472SOL     OW 7414   2.715   2.869   8.205
 2472SOL    HW1 7415   2.755   2.868   8.113
 2472SOL    HW2 7416   2.725   2.961   8.245
 2473SOL     OW 7417   2.809   2.777   7.124
 2473SOL    HW1 7418   2.872   2.815   7.056
 2473SOL    HW2 7419   2.849   2.694   7.163
 2474SOL     OW 7420   3.397   3.474   6.877
 2474SOL    HW1 7421   3.305   3.511   6.884
 2474SOL    HW2 7422   3.435   3.494   6.787
 2475SOL     OW 7423   2.265   3.155   8.323
 2475SOL    HW1 7424   2.252   3.248   8.289
 2475SOL    HW2 7425   2.181   3.103   8.310
 2476SOL     OW 7426   3.507   3.159   8.122
 2476SOL    HW1 7427   3.567   3.162   8.202
 2476SOL    HW2 7428   3.432   3.223   8.135
 2477SOL     OW 7429   2.932   2.965   7.529
 2477SOL    HW1 7430   2.862   2.918   7.583
 2477SOL    HW2 7431   2.991   2.897   7.486
 2478SOL     OW 7432   2.907   2.103   7.804
 2478SOL    HW1 7433   2.899   2.067   7.711
 2478SOL    HW2 7434   2.905   2.027   7.869
 2479SOL     OW 7435   2.483   3.354   7.324
 2479SOL    HW1 7436   2.525   3.296   7.254
 2479SOL    HW2 7437   2.439   3.433   7.280
 2480SOL     OW 7438   3.602   2.252   8.214
 2480SOL    HW1 7439   3.675   2.321   8.218
 2480SOL    HW2 7440   3.630   2.177   8.155
 2481SOL     OW 7441   2.148   3.215   7.123
 2481SOL    HW1 7442   2.052   3.216   7.096
 2481SOL    HW2 7443   2.160   3.268   7.207
 2482SOL     OW 7444   1.998   2.880   8.559
 2482SOL    HW1 7445   1.921   2.847   8.613
 2482SOL    HW2 7446   2.083   2.850   8.601
 2483SOL     OW 7447   2.565   2.070   8.322
 2483SOL    HW1 7448   2.655   2.054   8.282
 2483SOL    HW2 7449   2.573   2.075   8.421
 2484SOL     OW 7450   1.968   2.212   6.866
 2484SOL    HW1 7451   1.876   2.184   6.837
 2484SOL    HW2 7452   1.999   2.289   6.810
 2485SOL     OW 7453   3.333   2.723   8.231
 2485SOL    HW1 7454   3.276   2.775   8.168
 2485SOL    HW2 7455   3.429   2.735   8.207
 2486SOL     OW 7456   1.965   2.033   7.151
 2486SOL    HW1 7457   1.948   2.116   7.097
 2486SOL    HW2 7458   2.055   1.996   7.129
 2487SOL     OW 7459   3.076   3.202   6.952
 2487SOL    HW1 7460   2.977   3.191   6.954
 2487SOL    HW2 7461   3.110   3.217   7.045
 2488SOL     OW 7462   2.506   2.709   8.264
 2488SOL    HW1 7463   2.562   2.790   8.247
 2488SOL    HW2 7464   2.565   2.629   8.267
 2489SOL     OW 7465   3.386   3.634   7.792
 2489SOL    HW1 7466   3.419   3.698   7.723
 2489SOL    HW2 7467   3.452   3.628   7.867
 2490SOL     OW 7468   2.609   2.432   8.541
 2490SOL    HW1 7469   2.628   2.497   8.615
 2490SOL    HW2 7470   2.669   2.352   8.550
 2491SOL     OW 7471   3.343   3.087   8.466
 2491SOL    HW1 7472   3.334   3.077   8.565
 2491SOL    HW2 7473   3.439   3.080   8.440
 2492SOL     OW 7474   2.283   3.608   8.393
 2492SOL    HW1 7475   2.192   3.649   8.391
 2492SOL    HW2 7476   2.276   3.514   8.425
 2493SOL     OW 7477   3.567   2.750   8.087
 2493SOL    HW1 7478   3.540   2.661   8.050
 2493SOL    HW2 7479   3.568   2.818   8.014
 2494SOL     OW 7480   3.118   2.192   7.282
 2494SOL    HW1 7481   3.183   2.118   7.271
 2494SOL    HW2 7482   3.138   2.242   7.366
 2495SOL     OW 7483   2.487   2.612   7.485
 2495SOL    HW1 7484   2.537   2.697   7.466
 2495SOL    HW2 7485   2.399   2.614   7.437
 2496SOL     OW 7486   3.670   2.209   8.475
 2496SOL    HW1 7487   3.653   2.240   8.381
 2496SOL    HW2 7488   3.586   2.172   8.513
 2497SOL     OW 7489   3.623   2.801   8.350
 2497SOL    HW1 7490   3.661   2.892   8.365
 2497SOL    HW2 7491   3.615   2.784   8.251
 2498SOL     OW 7492   2.752   3.241   6.849
 2498SOL    HW1 7493   2.706   3.256   6.937
 2498SOL    HW2 7494   2.796   3.326   6.819
 2499SOL     OW 7495   2.554   3.657   7.786
 2499SOL    HW1 7496   2.508   3.745   7.773
 2499SOL    HW2 7497   2.653   3.669   7.779
 2500SOL     OW 7498   2.752   2.823   7.694
 2500SOL    HW1 7499   2.806   2.754   7.742
 2500SOL    HW2 7500   2.720   2.892   7.760
 2501SOL     OW 7501   2.976   2.851   6.920
 2501SOL    HW1 7502   2.953   2.904   6.838
 2501SOL    HW2 7503   3.057   2.795   6.901
 2502SOL     OW 7504   3.754   3.436   7.684
 2502SOL    HW1 7505   3.683   3.424   7.614
 2502SOL    HW2 7506   3.755   3.357   7.744
 2503SOL     OW 7507   2.114   3.181   8.677
 2503SOL    HW1 7508   2.049   3.108   8.656
 2503SOL    HW2 7509   2.118   3.195   8.775
 2504SOL     OW 7510   1.972   3.107   7.486
 2504SOL    HW1 7511   1.971   3.060   7.574
 2504SOL    HW2 7512   2.054   3.079   7.435
 2505SOL     OW 7513   2.565   3.258   8.457
 2505SOL    HW1 7514   2.487   3.208   8.495
 2505SOL    HW2 7515   2.562   3.353   8.488
 2506SOL     OW 7516   3.717   2.059   8.060
 2506SOL    HW1 7517   3.713   1.969   8.104
 2506SOL    HW2 7518   3.720   2.048   7.961
 2507SOL     OW 7519   2.321   2.291   7.353
 2507SOL    HW1 7520   2.351   2.219   7.291
 2507SOL    HW2 7521   2.282   2.251   7.436
 2508SOL     OW 7522   3.598   3.354   7.937
 2508SOL    HW1 7523   3.505   3.329   7.910
 2508SOL    HW2 7524   3.624   3.304   8.019
 2509SOL     OW 7525   2.210   2.414   8.113
 2509SOL    HW1 7526   2.248   2.355   8.185
 2509SOL    HW2 7527   2.250   2.388   8.025
 2510SOL     OW 7528   2.705   3.453   7.520
 2510SOL    HW1 7529   2.737   3.463   7.426
 2510SOL    HW2 7530   2.626   3.391   7.522
 2511SOL     OW 7531   3.317   2.081   7.945
 2511SOL    HW1 7532   3.369   2.016   8.000
 2511SOL    HW2 7533   3.268   2.144   8.006
 2512SOL     OW 7534   2.894   1.901   7.987
 2512SOL    HW1 7535   2.831   1.829   7.956
 2512SOL    HW2 7536   2.987   1.865   7.987
 2513SOL     OW 7537   2.663   3.197   7.134
 2513SOL    HW1 7538   2.617   3.110   7.151
 2513SOL    HW2 7539   2.754   3.194   7.175
 2514SOL     OW 7540   2.511   3.434   8.117
 2514SOL    HW1 7541   2.506   3.516   8.174
 2514SOL    HW2 7542   2.600   3.431   8.072
 2515SOL     OW 7543   3.245   1.919   7.001
 2515SOL    HW1 7544   3.280   1.878   6.917
 2515SOL    HW2 7545   3.155   1.881   7.021
 2516SOL     OW 7546   3.193   2.320   7.524
 2516SOL    HW1 7547   3.134   2.400   7.528
 2516SOL    HW2 7548   3.208   2.285   7.617
 2517SOL     OW 7549   3.486   2.088   7.715
 2517SOL    HW1 7550   3.402   2.087   7.769
 2517SOL    HW2 7551   3.488   2.171   7.659
 2518SOL     OW 7552   1.932   2.944   7.133
 2518SOL    HW1 7553   2.031   2.933   7.124
 2518SOL    HW2 7554   1.892   2.858   7.165
 2519SOL     OW 7555   2.768   3.513   7.170
 2519SOL    HW1 7556   2.691   3.478   7.116
 2519SOL    HW2 7557   2.736   3.584   7.232
 2520SOL     OW 7558   2.123   2.495   8.808
 2520SOL    HW1 7559   2.030   2.493   8.845
 2520SOL    HW2 7560   2.124   2.456   8.716
 2521SOL     OW 7561   2.118   2.142   9.691
 2521SOL    HW1 7562   2.153   2.125   9.783
 2521SOL    HW2 7563   2.030   2.097   9.679
 2522SOL     OW 7564   1.912   2.235   9.342
 2522SOL    HW1 7565   1.830   2.278   9.381
 2522SOL    HW2 7566   1.884   2.162   9.279
 2523SOL     OW 7567   2.462   3.142   9.860
 2523SOL    HW1 7568   2.369   3.135   9.823
 2523SOL    HW2 7569   2.473   3.231   9.904
 2524SOL     OW 7570   3.448   3.378   9.398
 2524SOL    HW1 7571   3.391   3.362   9.479
 2524SOL    HW2 7572   3.389   3.388   9.318
 2525SOL     OW 7573   3.028   2.570   9.412
 2525SOL    HW1 7574   3.085   2.648   9.387
 2525SOL    HW2 7575   2.968   2.596   9.488
 2526SOL     OW 7576   3.648   2.474   8.926
 2526SOL    HW1 7577   3.636   2.461   8.827
 2526SOL    HW2 7578   3.618   2.393   8.975
 2527SOL     OW 7579   2.661   3.011   9.718
 2527SOL    HW1 7580   2.583   3.028   9.778
 2527SOL    HW2 7581   2.695   3.098   9.682
 2528SOL     OW 7582   2.578   2.879   9.360
 2528SOL    HW1 7583   2.647   2.863   9.430
 2528SOL    HW2 7584   2.505   2.936   9.398
 2529SOL     OW 7585   2.228   3.302   9.756
 2529SOL    HW1 7586   2.150   3.271   9.703
 2529SOL    HW2 7587   2.286   3.360   9.699
 2530SOL     OW 7588   3.496   2.314   9.432
 2530SOL    HW1 7589   3.422   2.360   9.382
 2530SOL    HW2 7590   3.547   2.382   9.485
 2531SOL     OW 7591   2.124   3.580   9.178
 2531SOL    HW1 7592   2.158   3.657   9.232
 2531SOL    HW2 7593   2.168   3.580   9.088
 2532SOL     OW 7594   2.123   3.301   9.233
 2532SOL    HW1 7595   2.097   3.397   9.233
 2532SOL    HW2 7596   2.052   3.247   9.278
 2533SOL     OW 7597   2.133   2.958   9.581
 2533SOL    HW1 7598   2.147   2.874   9.633
 2533SOL    HW2 7599   2.078   3.022   9.636
 2534SOL     OW 7600   2.499   2.831   8.818
 2534SOL    HW1 7601   2.506   2.915   8.764
 2534SOL    HW2 7602   2.545   2.844   8.906
 2535SOL     OW 7603   2.015   2.510   9.258
 2535SOL    HW1 7604   1.970   2.422   9.275
 2535SOL    HW2 7605   2.014   2.564   9.342
 2536SOL     OW 7606   3.735   3.634   9.054
 2536SOL    HW1 7607   3.789   3.605   9.134
 2536SOL    HW2 7608   3.765   3.724   9.025
 2537SOL     OW 7609   1.920   3.463   8.812
 2537SOL    HW1 7610   1.901   3.367   8.833
 2537SOL    HW2 7611   1.887   3.521   8.887
 2538SOL     OW 7612   3.582   2.789   9.307
 2538SOL    HW1 7613   3.677   2.760   9.315
 2538SOL    HW2 7614   3.574   2.854   9.232
 2539SOL     OW 7615   3.534   2.975   9.127
 2539SOL    HW1 7616   3.620   2.977   9.075
 2539SOL    HW2 7617   3.548   3.022   9.215
 2540SOL     OW 7618   2.506   3.232   9.421
 2540SOL    HW1 7619   2.457   3.145   9.430
 2540SOL    HW2 7620   2.483   3.275   9.334
 2541SOL     OW 7621   2.702   1.871   9.197
 2541SOL    HW1 7622   2.742   1.962   9.188
 2541SOL    HW2 7623   2.602   1.879   9.203
 2542SOL     OW 7624   2.090   2.843   9.959
 2542SOL    HW1 7625   2.179   2.798   9.945
 2542SOL    HW2 7626   2.017   2.778   9.940
 2543SOL     OW 7627   3.418   2.866   8.885
 2543SOL    HW1 7628   3.355   2.790   8.898
 2543SOL    HW2 7629   3.466   2.884   8.971
 2544SOL     OW 7630   3.359   3.284   9.648
 2544SOL    HW1 7631   3.300   3.290   9.728
 2544SOL    HW2 7632   3.344   3.196   9.602
 2545SOL     OW 7633   3.560   3.581   9.267
 2545SOL    HW1 7634   3.519   3.558   9.179
 2545SOL    HW2 7635   3.542   3.507   9.332
 2546SOL     OW 7636   2.491   2.596   8.965
 2546SOL    HW1 7637   2.515   2.665   8.897
 2546SOL    HW2 7638   2.413   2.629   9.019
 2547SOL     OW 7639   3.174   2.212   9.639
 2547SOL    HW1 7640   3.088   2.162   9.626
 2547SOL    HW2 7641   3.236   2.158   9.695
 2548SOL     OW 7642   3.469   3.529   9.002
 2548SOL    HW1 7643   3.558   3.575   9.005
 2548SOL    HW2 7644   3.448   3.505   8.907
 2549SOL     OW 7645   2.934   2.568   9.124
 2549SOL    HW1 7646   2.960   2.564   9.220
 2549SOL    HW2 7647   2.849   2.517   9.110
 2550SOL     OW 7648   1.969   2.678   9.484
 2550SOL    HW1 7649   2.068   2.666   9.493
 2550SOL    HW2 7650   1.945   2.773   9.505
 2551SOL     OW 7651   2.758   2.215   8.890
 2551SOL    HW1 7652   2.817   2.278   8.841
 2551SOL    HW2 7653   2.777   2.121   8.861
 2552SOL     OW 7654   3.255   3.011   9.240
 2552SOL    HW1 7655   3.338   2.982   9.192
 2552SOL    HW2 7656   3.206   3.078   9.184
 2553SOL     OW 7657   2.443   2.063   9.580
 2553SOL    HW1 7658   2.438   2.058   9.680
 2553SOL    HW2 7659   2.445   2.159   9.551
 2554SOL     OW 7660   2.901   3.323   9.172
 2554SOL    HW1 7661   2.855   3.395   9.120
 2554SOL    HW2 7662   2.897   3.343   9.270
 2555SOL     OW 7663   2.244   3.668   9.548
 2555SOL    HW1 7664   2.294   3.582   9.554
 2555SOL    HW2 7665   2.309   3.745   9.545
 2556SOL     OW 7666   3.688   2.933   9.568
 2556SOL    HW1 7667   3.626   2.918   9.492
 2556SOL    HW2 7668   3.636   2.944   9.653
 2557SOL     OW 7669   2.214   2.810   8.937
 2557SOL    HW1 7670   2.296   2.849   8.895
 2557SOL    HW2 7671   2.187   2.728   8.888
 2558SOL     OW 7672   3.351   2.602   9.423
 2558SOL    HW1 7673   3.346   2.537   9.498
 2558SOL    HW2 7674   3.431   2.661   9.436
 2559SOL     OW 7675   3.004   3.643   8.932
 2559SOL    HW1 7676   2.944   3.581   8.982
 2559SOL    HW2 7677   3.035   3.599   8.847
 2560SOL     OW 7678   3.525   3.244   8.776
 2560SOL    HW1 7679   3.493   3.338   8.766
 2560SOL    HW2 7680   3.449   3.181   8.764
 2561SOL     OW 7681   2.357   3.610   9.018
 2561SOL    HW1 7682   2.390   3.649   9.104
 2561SOL    HW2 7683   2.433   3.603   8.953
 2562SOL     OW 7684   3.293   1.974   9.121
 2562SOL    HW1 7685   3.269   1.937   9.031
 2562SOL    HW2 7686   3.392   1.990   9.125
 2563SOL     OW 7687   2.142   3.652   9.936
 2563SOL    HW1 7688   2.199   3.587   9.986
 2563SOL    HW2 7689   2.126   3.619   9.843
 2564SOL     OW 7690   2.833   3.565   9.599
 2564SOL    HW1 7691   2.913   3.508   9.620
 2564SOL    HW2 7692   2.784   3.525   9.522
 2565SOL     OW 7693   2.275   2.567   9.175
 2565SOL    HW1 7694   2.320   2.477   9.172
 2565SOL    HW2 7695   2.181   2.556   9.208
 2566SOL     OW 7696   2.507   1.989   8.812
 2566SOL    HW1 7697   2.605   1.967   8.819
 2566SOL    HW2 7698   2.476   1.972   8.719
 2567SOL     OW 7699   2.696   3.269   9.619
 2567SOL    HW1 7700   2.786   3.283   9.577
 2567SOL    HW2 7701   2.625   3.271   9.548
 2568SOL     OW 7702   2.815   2.370   9.594
 2568SOL    HW1 7703   2.790   2.361   9.498
 2568SOL    HW2 7704   2.863   2.288   9.625
 2569SOL     OW 7705   2.432   1.931   9.207
 2569SOL    HW1 7706   2.351   1.932   9.265
 2569SOL    HW2 7707   2.435   2.014   9.152
 2570SOL     OW 7708   3.327   3.055   8.736
 2570SOL    HW1 7709   3.359   2.979   8.793
 2570SOL    HW2 7710   3.235   3.082   8.766
 2571SOL     OW 7711   2.190   1.902   8.866
 2571SOL    HW1 7712   2.239   1.986   8.845
 2571SOL    HW2 7713   2.252   1.837   8.911
 2572SOL     OW 7714   2.828   2.103   9.175
 2572SOL    HW1 7715   2.780   2.144   9.097
 2572SOL    HW2 7716   2.927   2.101   9.156
 2573SOL     OW 7717   3.120   3.437   9.488
 2573SOL    HW1 7718   3.141   3.511   9.423
 2573SOL    HW2 7719   3.188   3.437   9.561
 2574SOL     OW 7720   2.352   3.019   9.436
 2574SOL    HW1 7721   2.281   2.992   9.501
 2574SOL    HW2 7722   2.326   2.991   9.343
 2575SOL     OW 7723   3.164   3.664   9.286
 2575SOL    HW1 7724   3.208   3.728   9.222
 2575SOL    HW2 7725   3.114   3.716   9.356
 2576SOL     OW 7726   2.925   2.416   8.711
 2576SOL    HW1 7727   2.884   2.498   8.672
 2576SOL    HW2 7728   2.989   2.442   8.784
 2577SOL     OW 7729   2.759   2.321   9.337
 2577SOL    HW1 7730   2.727   2.393   9.275
 2577SOL    HW2 7731   2.783   2.240   9.284
 2578SOL     OW 7732   2.910   1.906   9.448
 2578SOL    HW1 7733   2.838   1.911   9.379
 2578SOL    HW2 7734   2.886   1.837   9.517
 2579SOL     OW 7735   3.322   3.040   9.562
 2579SOL    HW1 7736   3.267   2.956   9.555
 2579SOL    HW2 7737   3.348   3.069   9.470
 2580SOL     OW 7738   3.359   2.457   9.687
 2580SOL    HW1 7739   3.329   2.362   9.694
 2580SOL    HW2 7740   3.432   2.473   9.753
 2581SOL     OW 7741   3.750   2.700   9.072
 2581SOL    HW1 7742   3.792   2.636   9.136
 2581SOL    HW2 7743   3.712   2.649   8.994
 2582SOL     OW 7744   2.381   3.252   8.869
 2582SOL    HW1 7745   2.294   3.237   8.916
 2582SOL    HW2 7746   2.364   3.278   8.774
 2583SOL     OW 7747   3.557   3.147   9.352
 2583SOL    HW1 7748   3.656   3.155   9.366
 2583SOL    HW2 7749   3.512   3.231   9.383
 2584SOL     OW 7750   3.283   2.442   8.773
 2584SOL    HW1 7751   3.229   2.421   8.854
 2584SOL    HW2 7752   3.374   2.401   8.782
 2585SOL     OW 7753   2.420   2.123   9.023
 2585SOL    HW1 7754   2.447   2.064   8.948
 2585SOL    HW2 7755   2.420   2.218   8.992
 2586SOL     OW 7756   3.004   3.062   9.795
 2586SOL    HW1 7757   2.964   3.106   9.876
 2586SOL    HW2 7758   2.963   3.099   9.712
 2587SOL     OW 7759   3.531   2.966   9.774
 2587SOL    HW1 7760   3.536   3.047   9.833
 2587SOL    HW2 7761   3.445   2.968   9.723
 2588SOL     OW 7762   2.598   2.917   9.063
 2588SOL    HW1 7763   2.584   2.924   9.162
 2588SOL    HW2 7764   2.682   2.866   9.045
 2589SOL     OW 7765   2.303   2.680   9.946
 2589SOL    HW1 7766   2.389   2.692   9.996
 2589SOL    HW2 7767   2.261   2.593   9.973
 2590SOL     OW 7768   2.260   2.967   9.196
 2590SOL    HW1 7769   2.253   3.050   9.140
 2590SOL    HW2 7770   2.264   2.887   9.136
 2591SOL     OW 7771   2.459   2.404   9.560
 2591SOL    HW1 7772   2.471   2.470   9.486
 2591SOL    HW2 7773   2.505   2.438   9.643
 2592SOL     OW 7774   3.145   3.215   9.083
 2592SOL    HW1 7775   3.195   3.292   9.123
 2592SOL    HW2 7776   3.050   3.217   9.115
 2593SOL     OW 7777   3.165   3.312   9.837
 2593SOL    HW1 7778   3.212   3.325   9.924
 2593SOL    HW2 7779   3.099   3.238   9.846
 2594SOL     OW 7780   3.475   2.506   9.167
 2594SOL    HW1 7781   3.444   2.567   9.240
 2594SOL    HW2 7782   3.525   2.558   9.098
 2595SOL     OW 7783   2.466   2.737   9.724
 2595SOL    HW1 7784   2.510   2.826   9.715
 2595SOL    HW2 7785   2.403   2.737   9.801
 2596SOL     OW 7786   3.253   2.729   9.740
 2596SOL    HW1 7787   3.178   2.729   9.674
 2596SOL    HW2 7788   3.290   2.637   9.749
 2597SOL     OW 7789   3.102   2.392   8.970
 2597SOL    HW1 7790   3.115   2.308   9.024
 2597SOL    HW2 7791   3.073   2.466   9.030
 2598SOL     OW 7792   2.200   2.080   9.926
 2598SOL    HW1 7793   2.177   2.117  10.016
 2598SOL    HW2 7794   2.170   1.985   9.920
 2599SOL     OW 7795   1.930   3.177   9.977
 2599SOL    HW1 7796   1.983   3.128  10.045
 2599SOL    HW2 7797   1.952   3.275   9.982
 2600SOL     OW 7798   2.625   2.501   9.759
 2600SOL    HW1 7799   2.684   2.475   9.683
 2600SOL    HW2 7800   2.597   2.597   9.748
 2601SOL     OW 7801   2.200   1.930   9.313
 2601SOL    HW1 7802   2.189   2.024   9.346
 2601SOL    HW2 7803   2.195   1.867   9.390
 2602SOL     OW 7804   3.515   2.234   9.069
 2602SOL    HW1 7805   3.517   2.158   9.133
 2602SOL    HW2 7806   3.467   2.311   9.109
 2603SOL     OW 7807   2.916   2.633   9.661
 2603SOL    HW1 7808   2.931   2.654   9.757
 2603SOL    HW2 7809   2.886   2.538   9.652
 2604SOL     OW 7810   3.433   2.141   8.820
 2604SOL    HW1 7811   3.372   2.066   8.843
 2604SOL    HW2 7812   3.455   2.193   8.903
 2605SOL     OW 7813   3.196   2.705   8.737
 2605SOL    HW1 7814   3.230   2.612   8.752
 2605SOL    HW2 7815   3.214   2.732   8.642
 2606SOL     OW 7816   2.961   3.200   9.544
 2606SOL    HW1 7817   2.968   3.116   9.489
 2606SOL    HW2 7818   3.023   3.269   9.508
 2607SOL     OW 7819   2.212   2.677   9.644
 2607SOL    HW1 7820   2.305   2.713   9.649
 2607SOL    HW2 7821   2.206   2.592   9.696
 2608SOL     OW 7822   2.232   2.376   9.701
 2608SOL    HW1 7823   2.180   2.293   9.684
 2608SOL    HW2 7824   2.309   2.381   9.637
 2609SOL     OW 7825   3.053   2.074  10.172
 2609SOL    HW1 7826   3.053   2.138  10.249
 2609SOL    HW2 7827   3.081   2.122  10.089
 2610SOL     OW 7828   1.901   3.193   8.895
 2610SOL    HW1 7829   1.808   3.214   8.864
 2610SOL    HW2 7830   1.911   3.094   8.908
 2611SOL     OW 7831   1.981   3.668   9.622
 2611SOL    HW1 7832   1.939   3.582   9.595
 2611SOL    HW2 7833   2.075   3.671   9.588
 2612SOL     OW 7834   2.397   3.435   9.605
 2612SOL    HW1 7835   2.463   3.509   9.614
 2612SOL    HW2 7836   2.441   3.356   9.563
 2613SOL     OW 7837   2.895   2.663   9.933
 2613SOL    HW1 7838   2.936   2.631  10.019
 2613SOL    HW2 7839   2.799   2.636   9.930
 2614SOL     OW 7840   1.933   2.411   9.809
 2614SOL    HW1 7841   2.018   2.378   9.768
 2614SOL    HW2 7842   1.946   2.426   9.907
 2615SOL     OW 7843   2.708   2.439   9.020
 2615SOL    HW1 7844   2.715   2.350   8.974
 2615SOL    HW2 7845   2.614   2.473   9.012
 2616SOL     OW 7846   3.550   2.471   9.901
 2616SOL    HW1 7847   3.512   2.402   9.963
 2616SOL    HW2 7848   3.632   2.435   9.857
 2617SOL     OW 7849   2.564   2.331   9.964
 2617SOL    HW1 7850   2.530   2.242   9.934
 2617SOL    HW2 7851   2.590   2.385   9.884
 2618SOL     OW 7852   2.366   2.367   8.886
 2618SOL    HW1 7853   2.427   2.447   8.890
 2618SOL    HW2 7854   2.271   2.398   8.893
 2619SOL     OW 7855   2.052   3.004  10.161
 2619SOL    HW1 7856   2.074   2.943  10.237
 2619SOL    HW2 7857   2.062   2.955  10.075
 2620SOL     OW 7858   3.240   2.926   9.929
 2620SOL    HW1 7859   3.264   2.863   9.855
 2620SOL    HW2 7860   3.150   2.966   9.911
 2621SOL     OW 7861   3.195   2.722   9.004
 2621SOL    HW1 7862   3.109   2.691   9.046
 2621SOL    HW2 7863   3.191   2.708   8.905
 2622SOL     OW 7864   3.652   3.614   9.849
 2622SOL    HW1 7865   3.713   3.644   9.776
 2622SOL    HW2 7866   3.614   3.525   9.827
 2623SOL     OW 7867   1.976   3.125   9.717
 2623SOL    HW1 7868   1.971   3.124   9.817
 2623SOL    HW2 7869   1.893   3.084   9.679
 2624SOL     OW 7870   3.619   2.002   9.218
 2624SOL    HW1 7871   3.692   1.985   9.151
 2624SOL    HW2 7872   3.588   1.915   9.256
 2625SOL     OW 7873   3.281   3.440   9.172
 2625SOL    HW1 7874   3.348   3.452   9.098
 2625SOL    HW2 7875   3.241   3.529   9.195
 2626SOL     OW 7876   3.173   2.794   9.367
 2626SOL    HW1 7877   3.233   2.713   9.369
 2626SOL    HW2 7878   3.213   2.863   9.307
 2627SOL     OW 7879   2.565   3.483   8.849
 2627SOL    HW1 7880   2.574   3.493   8.750
 2627SOL    HW2 7881   2.525   3.394   8.870
 2628SOL     OW 7882   3.543   3.587  10.089
 2628SOL    HW1 7883   3.596   3.597  10.005
 2628SOL    HW2 7884   3.516   3.677  10.123
 2629SOL     OW 7885   3.734   2.042   9.658
 2629SOL    HW1 7886   3.773   1.957   9.622
 2629SOL    HW2 7887   3.636   2.044   9.639
 2630SOL     OW 7888   2.156   2.193   9.415
 2630SOL    HW1 7889   2.077   2.244   9.381
 2630SOL    HW2 7890   2.147   2.178   9.513
 2631SOL     OW 7891   3.087   3.479   8.726
 2631SOL    HW1 7892   3.093   3.386   8.763
 2631SOL    HW2 7893   3.028   3.479   8.646
 2632SOL     OW 7894   2.715   2.869  10.067
 2632SOL    HW1 7895   2.755   2.868   9.975
 2632SOL    HW2 7896   2.725   2.961  10.107
 2633SOL     OW 7897   2.809   2.777   8.986
 2633SOL    HW1 7898   2.872   2.815   8.918
 2633SOL    HW2 7899   2.849   2.694   9.025
 2634SOL     OW 7900   3.397   3.474   8.739
 2634SOL    HW1 7901   3.305   3.511   8.746
 2634SOL    HW2 7902   3.435   3.494   8.649
 2635SOL     OW 7903   2.932   2.965   9.391
 2635SOL    HW1 7904   2.862   2.918   9.445
 2635SOL    HW2 7905   2.991   2.897   9.348
 2636SOL     OW 7906   2.907   2.103   9.666
 2636SOL    HW1 7907   2.899   2.067   9.573
 2636SOL    HW2 7908   2.905   2.027   9.731
 2637SOL     OW 7909   2.483   3.354   9.186
 2637SOL    HW1 7910   2.525   3.296   9.116
 2637SOL    HW2 7911   2.439   3.433   9.142
 2638SOL     OW 7912   3.602   2.252  10.076
 2638SOL    HW1 7913   3.675   2.321  10.080
 2638SOL    HW2 7914   3.630   2.177  10.017
 2639SOL     OW 7915   2.148   3.215   8.985
 2639SOL    HW1 7916   2.052   3.216   8.958
 2639SOL    HW2 7917   2.160   3.268   9.069
 2640SOL     OW 7918   1.968   2.212   8.728
 2640SOL    HW1 7919   1.876   2.184   8.699
 2640SOL    HW2 7920   1.999   2.289   8.672
 2641SOL     OW 7921   1.965   2.033   9.013
 2641SOL    HW1 7922   1.948   2.116   8.959
 2641SOL    HW2 7923   2.055   1.996   8.991
 2642SOL     OW 7924   3.076   3.202   8.814
 2642SOL    HW1 7925   2.977   3.191   8.816
 2642SOL    HW2 7926   3.110   3.217   8.907
 2643SOL     OW 7927   3.386   3.634   9.654
 2643SOL    HW1 7928   3.419   3.698   9.585
 2643SOL    HW2 7929   3.452   3.628   9.729
 2644SOL     OW 7930   3.567   2.750   9.949
 2644SOL    HW1 7931   3.540   2.661   9.912
 2644SOL    HW2 7932   3.568   2.818   9.876
 2645SOL     OW 7933   3.118   2.192   9.144
 2645SOL    HW1 7934   3.183   2.118   9.133
 2645SOL    HW2 7935   3.138   2.242   9.228
 2646SOL     OW 7936   2.487   2.612   9.347
 2646SOL    HW1 7937   2.537   2.697   9.328
 2646SOL    HW2 7938   2.399   2.614   9.299
 2647SOL     OW 7939   3.623   2.801  10.212
 2647SOL    HW1 7940   3.661   2.892  10.227
 2647SOL    HW2 7941   3.615   2.784  10.113
 2648SOL     OW 7942   2.752   3.241   8.711
 2648SOL    HW1 7943   2.706   3.256   8.799
 2648SOL    HW2 7944   2.796   3.326   8.681
 2649SOL     OW 7945   2.554   3.657   9.648
 2649SOL    HW1 7946   2.508   3.745   9.635
 2649SOL    HW2 7947   2.653   3.669   9.641
 2650SOL     OW 7948   2.752   2.823   9.556
 2650SOL    HW1 7949   2.806   2.754   9.604
 2650SOL    HW2 7950   2.720   2.892   9.622
 2651SOL     OW 7951   2.976   2.851   8.782
 2651SOL    HW1 7952   2.953   2.904   8.700
 2651SOL    HW2 7953   3.057   2.795   8.763
 2652SOL     OW 7954   3.754   3.436   9.546
 2652SOL    HW1 7955   3.683   3.424   9.476
 2652SOL    HW2 7956   3.755   3.357   9.606
 2653SOL     OW 7957   1.972   3.107   9.348
 2653SOL    HW1 7958   1.971   3.060   9.436
 2653SOL    HW2 7959   2.054   3.079   9.297
 2654SOL     OW 7960   3.717   2.059   9.922
 2654SOL    HW1 7961   3.713   1.969   9.966
 2654SOL    HW2 7962   3.720   2.048   9.823
 2655SOL     OW 7963   2.321   2.291   9.215
 2655SOL    HW1 7964   2.351   2.219   9.153
 2655SOL    HW2 7965   2.282   2.251   9.298
 2656SOL     OW 7966   3.598   3.354   9.799
 2656SOL    HW1 7967   3.505   3.329   9.772
 2656SOL    HW2 7968   3.624   3.304   9.881
 2657SOL     OW 7969   2.705   3.453   9.382
 2657SOL    HW1 7970   2.737   3.463   9.288
 2657SOL    HW2 7971   2.626   3.391   9.384
 2658SOL     OW 7972   3.317   2.081   9.807
 2658SOL    HW1 7973   3.369   2.016   9.862
 2658SOL    HW2 7974   3.268   2.144   9.868
 2659SOL     OW 7975   2.894   1.901   9.849
 2659SOL    HW1 7976   2.831   1.829   9.818
 2659SOL    HW2 7977   2.987   1.865   9.849
 2660SOL     OW 7978   2.663   3.197   8.996
 2660SOL    HW1 7979   2.617   3.110   9.013
 2660SOL    HW2 7980   2.754   3.194   9.037
 2661SOL     OW 7981   3.245   1.919   8.863
 2661SOL    HW1 7982   3.280   1.878   8.779
 2661SOL    HW2 7983   3.155   1.881   8.883
 2662SOL     OW 7984   3.193   2.320   9.386
 2662SOL    HW1 7985   3.134   2.400   9.390
 2662SOL    HW2 7986   3.208   2.285   9.479
 2663SOL     OW 7987   3.486   2.088   9.577
 2663SOL    HW1 7988   3.402   2.087   9.631
 2663SOL    HW2 7989   3.488   2.171   9.521
 2664SOL     OW 7990   1.932   2.944   8.995
 2664SOL    HW1 7991   2.031   2.933   8.986
 2664SOL    HW2 7992   1.892   2.858   9.027
 2665SOL     OW 7993   2.768   3.513   9.032
 2665SOL    HW1 7994   2.691   3.478   8.978
 2665SOL    HW2 7995   2.736   3.584   9.094
 2666SOL     OW 7996   2.123   4.357   5.084
 2666SOL    HW1 7997   2.030   4.355   5.121
 2666SOL    HW2 7998   2.124   4.318   4.992
 2667SOL     OW 7999   2.118   4.004   5.967
 2667SOL    HW1 8000   2.153   3.987   6.059
 2667SOL    HW2 8001   2.030   3.959   5.955
 2668SOL     OW 8002   1.912   4.097   5.618
 2668SOL    HW1 8003   1.830   4.140   5.657
 2668SOL    HW2 8004   1.884   4.024   5.555
 2669SOL     OW 8005   3.028   4.432   5.688
 2669SOL    HW1 8006   3.085   4.510   5.663
 2669SOL    HW2 8007   2.968   4.458   5.764
 2670SOL     OW 8008   3.648   4.336   5.202
 2670SOL    HW1 8009   3.636   4.323   5.103
 2670SOL    HW2 8010   3.618   4.255   5.251
 2671SOL     OW 8011   2.661   4.873   5.994
 2671SOL    HW1 8012   2.583   4.890   6.054
 2671SOL    HW2 8013   2.695   4.960   5.958
 2672SOL     OW 8014   2.743   4.527   6.794
 2672SOL    HW1 8015   2.739   4.603   6.859
 2672SOL    HW2 8016   2.765   4.563   6.703
 2673SOL     OW 8017   2.578   4.741   5.636
 2673SOL    HW1 8018   2.647   4.725   5.706
 2673SOL    HW2 8019   2.505   4.798   5.674
 2674SOL     OW 8020   2.579   4.890   6.774
 2674SOL    HW1 8021   2.639   4.969   6.788
 2674SOL    HW2 8022   2.493   4.921   6.733
 2675SOL     OW 8023   2.331   4.121   6.470
 2675SOL    HW1 8024   2.413   4.065   6.479
 2675SOL    HW2 8025   2.250   4.063   6.474
 2676SOL     OW 8026   3.496   4.176   5.708
 2676SOL    HW1 8027   3.422   4.222   5.658
 2676SOL    HW2 8028   3.547   4.244   5.761
 2677SOL     OW 8029   2.133   4.820   5.857
 2677SOL    HW1 8030   2.147   4.736   5.909
 2677SOL    HW2 8031   2.078   4.884   5.912
 2678SOL     OW 8032   2.499   4.693   5.094
 2678SOL    HW1 8033   2.506   4.777   5.040
 2678SOL    HW2 8034   2.545   4.706   5.182
 2679SOL     OW 8035   3.487   3.843   6.451
 2679SOL    HW1 8036   3.469   3.910   6.379
 2679SOL    HW2 8037   3.484   3.889   6.540
 2680SOL     OW 8038   2.015   4.372   5.534
 2680SOL    HW1 8039   1.970   4.284   5.551
 2680SOL    HW2 8040   2.014   4.426   5.618
 2681SOL     OW 8041   3.582   4.651   5.583
 2681SOL    HW1 8042   3.677   4.622   5.591
 2681SOL    HW2 8043   3.574   4.716   5.508
 2682SOL     OW 8044   3.534   4.837   5.403
 2682SOL    HW1 8045   3.620   4.839   5.351
 2682SOL    HW2 8046   3.548   4.884   5.491
 2683SOL     OW 8047   2.006   4.466   6.568
 2683SOL    HW1 8048   2.094   4.453   6.613
 2683SOL    HW2 8049   1.993   4.563   6.546
 2684SOL     OW 8050   3.186   4.957   6.394
 2684SOL    HW1 8051   3.223   4.884   6.336
 2684SOL    HW2 8052   3.238   4.962   6.479
 2685SOL     OW 8053   2.702   3.733   5.473
 2685SOL    HW1 8054   2.742   3.824   5.464
 2685SOL    HW2 8055   2.602   3.741   5.479
 2686SOL     OW 8056   2.090   4.705   6.235
 2686SOL    HW1 8057   2.179   4.660   6.221
 2686SOL    HW2 8058   2.017   4.640   6.216
 2687SOL     OW 8059   3.418   4.728   5.161
 2687SOL    HW1 8060   3.355   4.652   5.174
 2687SOL    HW2 8061   3.466   4.746   5.247
 2688SOL     OW 8062   2.210   3.980   6.772
 2688SOL    HW1 8063   2.281   4.051   6.778
 2688SOL    HW2 8064   2.122   4.019   6.800
 2689SOL     OW 8065   2.491   4.458   5.241
 2689SOL    HW1 8066   2.515   4.527   5.173
 2689SOL    HW2 8067   2.413   4.491   5.295
 2690SOL     OW 8068   3.174   4.074   5.915
 2690SOL    HW1 8069   3.088   4.024   5.902
 2690SOL    HW2 8070   3.236   4.020   5.971
 2691SOL     OW 8071   2.700   4.334   6.436
 2691SOL    HW1 8072   2.653   4.331   6.525
 2691SOL    HW2 8073   2.649   4.279   6.370
 2692SOL     OW 8074   3.287   4.198   6.645
 2692SOL    HW1 8075   3.267   4.241   6.733
 2692SOL    HW2 8076   3.365   4.136   6.654
 2693SOL     OW 8077   2.866   4.619   6.543
 2693SOL    HW1 8078   2.912   4.535   6.514
 2693SOL    HW2 8079   2.810   4.653   6.468
 2694SOL     OW 8080   2.884   4.139   6.213
 2694SOL    HW1 8081   2.807   4.173   6.267
 2694SOL    HW2 8082   2.850   4.088   6.134
 2695SOL     OW 8083   2.934   4.430   5.400
 2695SOL    HW1 8084   2.960   4.426   5.496
 2695SOL    HW2 8085   2.849   4.379   5.386
 2696SOL     OW 8086   1.969   4.540   5.760
 2696SOL    HW1 8087   2.068   4.528   5.769
 2696SOL    HW2 8088   1.945   4.635   5.781
 2697SOL     OW 8089   2.758   4.077   5.166
 2697SOL    HW1 8090   2.817   4.140   5.117
 2697SOL    HW2 8091   2.777   3.983   5.137
 2698SOL     OW 8092   3.612   4.314   6.802
 2698SOL    HW1 8093   3.586   4.403   6.766
 2698SOL    HW2 8094   3.610   4.246   6.729
 2699SOL     OW 8095   3.255   4.873   5.516
 2699SOL    HW1 8096   3.338   4.844   5.468
 2699SOL    HW2 8097   3.206   4.940   5.460
 2700SOL     OW 8098   2.443   3.925   5.856
 2700SOL    HW1 8099   2.438   3.920   5.956
 2700SOL    HW2 8100   2.445   4.021   5.827
 2701SOL     OW 8101   3.688   4.795   5.844
 2701SOL    HW1 8102   3.626   4.780   5.768
 2701SOL    HW2 8103   3.636   4.806   5.929
 2702SOL     OW 8104   2.214   4.672   5.213
 2702SOL    HW1 8105   2.296   4.711   5.171
 2702SOL    HW2 8106   2.187   4.590   5.164
 2703SOL     OW 8107   3.351   4.464   5.699
 2703SOL    HW1 8108   3.346   4.399   5.774
 2703SOL    HW2 8109   3.431   4.523   5.712
 2704SOL     OW 8110   2.095   4.014   6.469
 2704SOL    HW1 8111   2.015   4.074   6.456
 2704SOL    HW2 8112   2.085   3.965   6.555
 2705SOL     OW 8113   3.293   3.836   5.397
 2705SOL    HW1 8114   3.269   3.799   5.307
 2705SOL    HW2 8115   3.392   3.852   5.401
 2706SOL     OW 8116   2.275   4.429   5.451
 2706SOL    HW1 8117   2.320   4.339   5.448
 2706SOL    HW2 8118   2.181   4.418   5.484
 2707SOL     OW 8119   3.440   3.951   6.700
 2707SOL    HW1 8120   3.435   3.988   6.792
 2707SOL    HW2 8121   3.368   3.882   6.688
 2708SOL     OW 8122   2.507   3.851   5.088
 2708SOL    HW1 8123   2.605   3.829   5.095
 2708SOL    HW2 8124   2.476   3.834   4.995
 2709SOL     OW 8125   2.674   3.993   6.720
 2709SOL    HW1 8126   2.741   3.932   6.763
 2709SOL    HW2 8127   2.601   4.012   6.785
 2710SOL     OW 8128   3.244   4.319   6.404
 2710SOL    HW1 8129   3.272   4.276   6.489
 2710SOL    HW2 8130   3.269   4.415   6.405
 2711SOL     OW 8131   2.815   4.232   5.870
 2711SOL    HW1 8132   2.790   4.223   5.774
 2711SOL    HW2 8133   2.863   4.150   5.901
 2712SOL     OW 8134   2.432   3.793   5.483
 2712SOL    HW1 8135   2.351   3.794   5.541
 2712SOL    HW2 8136   2.435   3.876   5.428
 2713SOL     OW 8137   2.190   3.764   5.142
 2713SOL    HW1 8138   2.239   3.848   5.121
 2713SOL    HW2 8139   2.252   3.699   5.187
 2714SOL     OW 8140   2.828   3.965   5.451
 2714SOL    HW1 8141   2.780   4.006   5.373
 2714SOL    HW2 8142   2.927   3.963   5.432
 2715SOL     OW 8143   2.969   4.412   6.435
 2715SOL    HW1 8144   2.889   4.351   6.438
 2715SOL    HW2 8145   3.050   4.359   6.411
 2716SOL     OW 8146   2.352   4.881   5.712
 2716SOL    HW1 8147   2.281   4.854   5.777
 2716SOL    HW2 8148   2.326   4.853   5.619
 2717SOL     OW 8149   2.925   4.278   4.987
 2717SOL    HW1 8150   2.884   4.360   4.948
 2717SOL    HW2 8151   2.989   4.304   5.060
 2718SOL     OW 8152   1.971   4.285   6.357
 2718SOL    HW1 8153   2.063   4.284   6.316
 2718SOL    HW2 8154   1.965   4.359   6.424
 2719SOL     OW 8155   2.454   3.951   6.118
 2719SOL    HW1 8156   2.492   3.867   6.155
 2719SOL    HW2 8157   2.366   3.970   6.162
 2720SOL     OW 8158   2.759   4.183   5.613
 2720SOL    HW1 8159   2.727   4.255   5.551
 2720SOL    HW2 8160   2.783   4.102   5.560
 2721SOL     OW 8161   2.910   3.768   5.724
 2721SOL    HW1 8162   2.838   3.773   5.655
 2721SOL    HW2 8163   2.886   3.699   5.793
 2722SOL     OW 8164   3.322   4.902   5.838
 2722SOL    HW1 8165   3.267   4.818   5.831
 2722SOL    HW2 8166   3.348   4.931   5.746
 2723SOL     OW 8167   3.359   4.319   5.963
 2723SOL    HW1 8168   3.329   4.224   5.970
 2723SOL    HW2 8169   3.432   4.335   6.029
 2724SOL     OW 8170   3.750   4.562   5.348
 2724SOL    HW1 8171   3.792   4.498   5.412
 2724SOL    HW2 8172   3.712   4.511   5.270
 2725SOL     OW 8173   3.283   4.304   5.049
 2725SOL    HW1 8174   3.229   4.283   5.130
 2725SOL    HW2 8175   3.374   4.263   5.058
 2726SOL     OW 8176   2.420   3.985   5.299
 2726SOL    HW1 8177   2.447   3.926   5.224
 2726SOL    HW2 8178   2.420   4.080   5.268
 2727SOL     OW 8179   3.647   4.952   6.559
 2727SOL    HW1 8180   3.738   4.913   6.546
 2727SOL    HW2 8181   3.655   5.048   6.583
 2728SOL     OW 8182   3.531   4.828   6.050
 2728SOL    HW1 8183   3.536   4.909   6.109
 2728SOL    HW2 8184   3.445   4.830   5.999
 2729SOL     OW 8185   2.808   3.818   6.373
 2729SOL    HW1 8186   2.833   3.798   6.278
 2729SOL    HW2 8187   2.880   3.874   6.415
 2730SOL     OW 8188   2.873   4.845   6.690
 2730SOL    HW1 8189   2.774   4.851   6.700
 2730SOL    HW2 8190   2.896   4.765   6.634
 2731SOL     OW 8191   2.598   4.779   5.339
 2731SOL    HW1 8192   2.584   4.786   5.438
 2731SOL    HW2 8193   2.682   4.728   5.321
 2732SOL     OW 8194   2.303   4.542   6.222
 2732SOL    HW1 8195   2.389   4.554   6.272
 2732SOL    HW2 8196   2.261   4.455   6.249
 2733SOL     OW 8197   3.167   4.115   6.233
 2733SOL    HW1 8198   3.188   4.189   6.297
 2733SOL    HW2 8199   3.078   4.132   6.190
 2734SOL     OW 8200   2.260   4.829   5.472
 2734SOL    HW1 8201   2.253   4.912   5.416
 2734SOL    HW2 8202   2.264   4.749   5.412
 2735SOL     OW 8203   2.459   4.266   5.836
 2735SOL    HW1 8204   2.471   4.332   5.762
 2735SOL    HW2 8205   2.505   4.300   5.919
 2736SOL     OW 8206   3.475   4.368   5.443
 2736SOL    HW1 8207   3.444   4.429   5.516
 2736SOL    HW2 8208   3.525   4.420   5.374
 2737SOL     OW 8209   2.295   4.480   6.569
 2737SOL    HW1 8210   2.363   4.535   6.522
 2737SOL    HW2 8211   2.335   4.392   6.596
 2738SOL     OW 8212   3.480   4.508   6.641
 2738SOL    HW1 8213   3.388   4.546   6.636
 2738SOL    HW2 8214   3.540   4.555   6.576
 2739SOL     OW 8215   2.906   3.834   6.741
 2739SOL    HW1 8216   2.912   3.919   6.689
 2739SOL    HW2 8217   2.938   3.758   6.684
 2740SOL     OW 8218   2.397   3.779   6.711
 2740SOL    HW1 8219   2.355   3.722   6.641
 2740SOL    HW2 8220   2.331   3.848   6.743
 2741SOL     OW 8221   2.466   4.599   6.000
 2741SOL    HW1 8222   2.510   4.688   5.991
 2741SOL    HW2 8223   2.403   4.599   6.077
 2742SOL     OW 8224   3.253   4.591   6.016
 2742SOL    HW1 8225   3.178   4.591   5.950
 2742SOL    HW2 8226   3.290   4.499   6.025
 2743SOL     OW 8227   3.102   4.254   5.246
 2743SOL    HW1 8228   3.115   4.170   5.300
 2743SOL    HW2 8229   3.073   4.328   5.306
 2744SOL     OW 8230   2.200   3.942   6.202
 2744SOL    HW1 8231   2.177   3.979   6.292
 2744SOL    HW2 8232   2.170   3.847   6.196
 2745SOL     OW 8233   2.625   4.363   6.035
 2745SOL    HW1 8234   2.684   4.337   5.959
 2745SOL    HW2 8235   2.597   4.459   6.024
 2746SOL     OW 8236   3.621   4.664   6.825
 2746SOL    HW1 8237   3.575   4.657   6.736
 2746SOL    HW2 8238   3.559   4.708   6.891
 2747SOL     OW 8239   2.200   3.792   5.589
 2747SOL    HW1 8240   2.189   3.886   5.622
 2747SOL    HW2 8241   2.195   3.729   5.666
 2748SOL     OW 8242   3.515   4.096   5.345
 2748SOL    HW1 8243   3.517   4.020   5.409
 2748SOL    HW2 8244   3.467   4.173   5.385
 2749SOL     OW 8245   2.916   4.495   5.937
 2749SOL    HW1 8246   2.931   4.516   6.033
 2749SOL    HW2 8247   2.886   4.400   5.928
 2750SOL     OW 8248   2.243   4.627   6.775
 2750SOL    HW1 8249   2.319   4.671   6.823
 2750SOL    HW2 8250   2.278   4.580   6.693
 2751SOL     OW 8251   3.433   4.003   5.096
 2751SOL    HW1 8252   3.372   3.928   5.119
 2751SOL    HW2 8253   3.455   4.055   5.179
 2752SOL     OW 8254   3.196   4.567   5.013
 2752SOL    HW1 8255   3.230   4.474   5.028
 2752SOL    HW2 8256   3.214   4.594   4.918
 2753SOL     OW 8257   2.212   4.539   5.920
 2753SOL    HW1 8258   2.305   4.575   5.925
 2753SOL    HW2 8259   2.206   4.454   5.972
 2754SOL     OW 8260   2.232   4.238   5.977
 2754SOL    HW1 8261   2.180   4.155   5.960
 2754SOL    HW2 8262   2.309   4.243   5.913
 2755SOL     OW 8263   3.031   4.109   6.649
 2755SOL    HW1 8264   2.986   4.172   6.713
 2755SOL    HW2 8265   3.124   4.140   6.632
 2756SOL     OW 8266   3.053   3.936   6.448
 2756SOL    HW1 8267   3.053   4.000   6.525
 2756SOL    HW2 8268   3.081   3.984   6.365
 2757SOL     OW 8269   1.901   5.055   5.171
 2757SOL    HW1 8270   1.808   5.076   5.140
 2757SOL    HW2 8271   1.911   4.956   5.184
 2758SOL     OW 8272   2.895   4.525   6.209
 2758SOL    HW1 8273   2.936   4.493   6.295
 2758SOL    HW2 8274   2.799   4.498   6.206
 2759SOL     OW 8275   1.933   4.273   6.085
 2759SOL    HW1 8276   2.018   4.240   6.044
 2759SOL    HW2 8277   1.946   4.288   6.183
 2760SOL     OW 8278   2.082   4.249   6.693
 2760SOL    HW1 8279   2.141   4.209   6.623
 2760SOL    HW2 8280   2.024   4.320   6.652
 2761SOL     OW 8281   3.262   4.679   6.631
 2761SOL    HW1 8282   3.301   4.768   6.651
 2761SOL    HW2 8283   3.272   4.659   6.534
 2762SOL     OW 8284   2.708   4.301   5.296
 2762SOL    HW1 8285   2.715   4.212   5.250
 2762SOL    HW2 8286   2.614   4.335   5.288
 2763SOL     OW 8287   3.550   4.333   6.177
 2763SOL    HW1 8288   3.512   4.264   6.239
 2763SOL    HW2 8289   3.632   4.297   6.133
 2764SOL     OW 8290   2.564   4.193   6.240
 2764SOL    HW1 8291   2.530   4.104   6.210
 2764SOL    HW2 8292   2.590   4.247   6.160
 2765SOL     OW 8293   2.366   4.229   5.162
 2765SOL    HW1 8294   2.427   4.309   5.166
 2765SOL    HW2 8295   2.271   4.260   5.169
 2766SOL     OW 8296   2.052   4.866   6.437
 2766SOL    HW1 8297   2.074   4.805   6.513
 2766SOL    HW2 8298   2.062   4.817   6.351
 2767SOL     OW 8299   3.240   4.788   6.205
 2767SOL    HW1 8300   3.264   4.725   6.131
 2767SOL    HW2 8301   3.150   4.828   6.187
 2768SOL     OW 8302   3.195   4.584   5.280
 2768SOL    HW1 8303   3.109   4.553   5.322
 2768SOL    HW2 8304   3.191   4.570   5.181
 2769SOL     OW 8305   1.976   4.987   5.993
 2769SOL    HW1 8306   1.971   4.986   6.093
 2769SOL    HW2 8307   1.893   4.946   5.955
 2770SOL     OW 8308   2.796   3.815   5.104
 2770SOL    HW1 8309   2.847   3.816   5.018
 2770SOL    HW2 8310   2.852   3.773   5.175
 2771SOL     OW 8311   3.619   3.864   5.494
 2771SOL    HW1 8312   3.692   3.847   5.427
 2771SOL    HW2 8313   3.588   3.777   5.532
 2772SOL     OW 8314   3.173   4.656   5.643
 2772SOL    HW1 8315   3.233   4.575   5.645
 2772SOL    HW2 8316   3.213   4.725   5.583
 2773SOL     OW 8317   3.734   3.904   5.934
 2773SOL    HW1 8318   3.773   3.819   5.898
 2773SOL    HW2 8319   3.636   3.906   5.915
 2774SOL     OW 8320   2.156   4.055   5.691
 2774SOL    HW1 8321   2.077   4.106   5.657
 2774SOL    HW2 8322   2.147   4.040   5.789
 2775SOL     OW 8323   2.715   4.731   6.343
 2775SOL    HW1 8324   2.755   4.730   6.251
 2775SOL    HW2 8325   2.725   4.823   6.383
 2776SOL     OW 8326   2.809   4.639   5.262
 2776SOL    HW1 8327   2.872   4.677   5.194
 2776SOL    HW2 8328   2.849   4.556   5.301
 2777SOL     OW 8329   2.265   5.017   6.461
 2777SOL    HW1 8330   2.252   5.110   6.427
 2777SOL    HW2 8331   2.181   4.965   6.448
 2778SOL     OW 8332   3.507   5.021   6.260
 2778SOL    HW1 8333   3.567   5.024   6.340
 2778SOL    HW2 8334   3.432   5.085   6.273
 2779SOL     OW 8335   2.932   4.827   5.667
 2779SOL    HW1 8336   2.862   4.780   5.721
 2779SOL    HW2 8337   2.991   4.759   5.624
 2780SOL     OW 8338   2.907   3.965   5.942
 2780SOL    HW1 8339   2.899   3.929   5.849
 2780SOL    HW2 8340   2.905   3.889   6.007
 2781SOL     OW 8341   3.602   4.114   6.352
 2781SOL    HW1 8342   3.675   4.183   6.356
 2781SOL    HW2 8343   3.630   4.039   6.293
 2782SOL     OW 8344   1.998   4.742   6.697
 2782SOL    HW1 8345   1.921   4.709   6.751
 2782SOL    HW2 8346   2.083   4.712   6.739
 2783SOL     OW 8347   2.565   3.932   6.460
 2783SOL    HW1 8348   2.655   3.916   6.420
 2783SOL    HW2 8349   2.573   3.937   6.559
 2784SOL     OW 8350   3.333   4.585   6.369
 2784SOL    HW1 8351   3.276   4.637   6.306
 2784SOL    HW2 8352   3.429   4.597   6.345
 2785SOL     OW 8353   1.965   3.895   5.289
 2785SOL    HW1 8354   1.948   3.978   5.235
 2785SOL    HW2 8355   2.055   3.858   5.267
 2786SOL     OW 8356   2.506   4.571   6.402
 2786SOL    HW1 8357   2.562   4.652   6.385
 2786SOL    HW2 8358   2.565   4.491   6.405
 2787SOL     OW 8359   2.609   4.294   6.679
 2787SOL    HW1 8360   2.628   4.359   6.753
 2787SOL    HW2 8361   2.669   4.214   6.688
 2788SOL     OW 8362   3.343   4.949   6.604
 2788SOL    HW1 8363   3.334   4.939   6.703
 2788SOL    HW2 8364   3.439   4.942   6.578
 2789SOL     OW 8365   3.567   4.612   6.225
 2789SOL    HW1 8366   3.540   4.523   6.188
 2789SOL    HW2 8367   3.568   4.680   6.152
 2790SOL     OW 8368   3.118   4.054   5.420
 2790SOL    HW1 8369   3.183   3.980   5.409
 2790SOL    HW2 8370   3.138   4.104   5.504
 2791SOL     OW 8371   2.487   4.474   5.623
 2791SOL    HW1 8372   2.537   4.559   5.604
 2791SOL    HW2 8373   2.399   4.476   5.575
 2792SOL     OW 8374   3.670   4.071   6.613
 2792SOL    HW1 8375   3.653   4.102   6.519
 2792SOL    HW2 8376   3.586   4.034   6.651
 2793SOL     OW 8377   3.623   4.663   6.488
 2793SOL    HW1 8378   3.661   4.754   6.503
 2793SOL    HW2 8379   3.615   4.646   6.389
 2794SOL     OW 8380   2.752   4.685   5.832
 2794SOL    HW1 8381   2.806   4.616   5.880
 2794SOL    HW2 8382   2.720   4.754   5.898
 2795SOL     OW 8383   2.976   4.713   5.058
 2795SOL    HW1 8384   2.953   4.766   4.976
 2795SOL    HW2 8385   3.057   4.657   5.039
 2796SOL     OW 8386   1.972   4.969   5.624
 2796SOL    HW1 8387   1.971   4.922   5.712
 2796SOL    HW2 8388   2.054   4.941   5.573
 2797SOL     OW 8389   3.717   3.921   6.198
 2797SOL    HW1 8390   3.713   3.831   6.242
 2797SOL    HW2 8391   3.720   3.910   6.099
 2798SOL     OW 8392   2.321   4.153   5.491
 2798SOL    HW1 8393   2.351   4.081   5.429
 2798SOL    HW2 8394   2.282   4.113   5.574
 2799SOL     OW 8395   2.210   4.276   6.251
 2799SOL    HW1 8396   2.248   4.217   6.323
 2799SOL    HW2 8397   2.250   4.250   6.163
 2800SOL     OW 8398   3.317   3.943   6.083
 2800SOL    HW1 8399   3.369   3.878   6.138
 2800SOL    HW2 8400   3.268   4.006   6.144
 2801SOL     OW 8401   2.894   3.763   6.125
 2801SOL    HW1 8402   2.831   3.691   6.094
 2801SOL    HW2 8403   2.987   3.727   6.125
 2802SOL     OW 8404   2.663   5.059   5.272
 2802SOL    HW1 8405   2.617   4.972   5.289
 2802SOL    HW2 8406   2.754   5.056   5.313
 2803SOL     OW 8407   3.245   3.781   5.139
 2803SOL    HW1 8408   3.280   3.740   5.055
 2803SOL    HW2 8409   3.155   3.743   5.159
 2804SOL     OW 8410   3.193   4.182   5.662
 2804SOL    HW1 8411   3.134   4.262   5.666
 2804SOL    HW2 8412   3.208   4.147   5.755
 2805SOL     OW 8413   3.486   3.950   5.853
 2805SOL    HW1 8414   3.402   3.949   5.907
 2805SOL    HW2 8415   3.488   4.033   5.797
 2806SOL     OW 8416   2.123   4.357   6.946
 2806SOL    HW1 8417   2.030   4.355   6.983
 2806SOL    HW2 8418   2.124   4.318   6.854
 2807SOL     OW 8419   2.118   4.004   7.829
 2807SOL    HW1 8420   2.153   3.987   7.921
 2807SOL    HW2 8421   2.030   3.959   7.817
 2808SOL     OW 8422   1.912   4.097   7.480
 2808SOL    HW1 8423   1.830   4.140   7.519
 2808SOL    HW2 8424   1.884   4.024   7.417
 2809SOL     OW 8425   3.028   4.432   7.550
 2809SOL    HW1 8426   3.085   4.510   7.525
 2809SOL    HW2 8427   2.968   4.458   7.626
 2810SOL     OW 8428   3.648   4.336   7.064
 2810SOL    HW1 8429   3.636   4.323   6.965
 2810SOL    HW2 8430   3.618   4.255   7.113
 2811SOL     OW 8431   2.661   4.873   7.856
 2811SOL    HW1 8432   2.583   4.890   7.916
 2811SOL    HW2 8433   2.695   4.960   7.820
 2812SOL     OW 8434   2.743   4.527   8.656
 2812SOL    HW1 8435   2.739   4.603   8.721
 2812SOL    HW2 8436   2.765   4.563   8.565
 2813SOL     OW 8437   2.578   4.741   7.498
 2813SOL    HW1 8438   2.647   4.725   7.568
 2813SOL    HW2 8439   2.505   4.798   7.536
 2814SOL     OW 8440   2.579   4.890   8.636
 2814SOL    HW1 8441   2.639   4.969   8.650
 2814SOL    HW2 8442   2.493   4.921   8.595
 2815SOL     OW 8443   2.331   4.121   8.332
 2815SOL    HW1 8444   2.413   4.065   8.341
 2815SOL    HW2 8445   2.250   4.063   8.336
 2816SOL     OW 8446   3.496   4.176   7.570
 2816SOL    HW1 8447   3.422   4.222   7.520
 2816SOL    HW2 8448   3.547   4.244   7.623
 2817SOL     OW 8449   2.133   4.820   7.719
 2817SOL    HW1 8450   2.147   4.736   7.771
 2817SOL    HW2 8451   2.078   4.884   7.774
 2818SOL     OW 8452   2.499   4.693   6.956
 2818SOL    HW1 8453   2.506   4.777   6.902
 2818SOL    HW2 8454   2.545   4.706   7.044
 2819SOL     OW 8455   3.487   3.843   8.313
 2819SOL    HW1 8456   3.469   3.910   8.241
 2819SOL    HW2 8457   3.484   3.889   8.402
 2820SOL     OW 8458   2.015   4.372   7.396
 2820SOL    HW1 8459   1.970   4.284   7.413
 2820SOL    HW2 8460   2.014   4.426   7.480
 2821SOL     OW 8461   3.582   4.651   7.445
 2821SOL    HW1 8462   3.677   4.622   7.453
 2821SOL    HW2 8463   3.574   4.716   7.370
 2822SOL     OW 8464   3.534   4.837   7.265
 2822SOL    HW1 8465   3.620   4.839   7.213
 2822SOL    HW2 8466   3.548   4.884   7.353
 2823SOL     OW 8467   2.006   4.466   8.430
 2823SOL    HW1 8468   2.094   4.453   8.475
 2823SOL    HW2 8469   1.993   4.563   8.408
 2824SOL     OW 8470   3.186   4.957   8.256
 2824SOL    HW1 8471   3.223   4.884   8.198
 2824SOL    HW2 8472   3.238   4.962   8.341
 2825SOL     OW 8473   2.702   3.733   7.335
 2825SOL    HW1 8474   2.742   3.824   7.326
 2825SOL    HW2 8475   2.602   3.741   7.341
 2826SOL     OW 8476   2.090   4.705   8.097
 2826SOL    HW1 8477   2.179   4.660   8.083
 2826SOL    HW2 8478   2.017   4.640   8.078
 2827SOL     OW 8479   3.418   4.728   7.023
 2827SOL    HW1 8480   3.355   4.652   7.036
 2827SOL    HW2 8481   3.466   4.746   7.109
 2828SOL     OW 8482   2.210   3.980   8.634
 2828SOL    HW1 8483   2.281   4.051   8.640
 2828SOL    HW2 8484   2.122   4.019   8.662
 2829SOL     OW 8485   2.491   4.458   7.103
 2829SOL    HW1 8486   2.515   4.527   7.035
 2829SOL    HW2 8487   2.413   4.491   7.157
 2830SOL     OW 8488   3.174   4.074   7.777
 2830SOL    HW1 8489   3.088   4.024   7.764
 2830SOL    HW2 8490   3.236   4.020   7.833
 2831SOL     OW 8491   2.700   4.334   8.298
 2831SOL    HW1 8492   2.653   4.331   8.387
 2831SOL    HW2 8493   2.649   4.279   8.232
 2832SOL     OW 8494   3.287   4.198   8.507
 2832SOL    HW1 8495   3.267   4.241   8.595
 2832SOL    HW2 8496   3.365   4.136   8.516
 2833SOL     OW 8497   2.866   4.619   8.405
 2833SOL    HW1 8498   2.912   4.535   8.376
 2833SOL    HW2 8499   2.810   4.653   8.330
 2834SOL     OW 8500   2.884   4.139   8.075
 2834SOL    HW1 8501   2.807   4.173   8.129
 2834SOL    HW2 8502   2.850   4.088   7.996
 2835SOL     OW 8503   2.934   4.430   7.262
 2835SOL    HW1 8504   2.960   4.426   7.358
 2835SOL    HW2 8505   2.849   4.379   7.248
 2836SOL     OW 8506   1.969   4.540   7.622
 2836SOL    HW1 8507   2.068   4.528   7.631
 2836SOL    HW2 8508   1.945   4.635   7.643
 2837SOL     OW 8509   2.758   4.077   7.028
 2837SOL    HW1 8510   2.817   4.140   6.979
 2837SOL    HW2 8511   2.777   3.983   6.999
 2838SOL     OW 8512   3.612   4.314   8.664
 2838SOL    HW1 8513   3.586   4.403   8.628
 2838SOL    HW2 8514   3.610   4.246   8.591
 2839SOL     OW 8515   3.255   4.873   7.378
 2839SOL    HW1 8516   3.338   4.844   7.330
 2839SOL    HW2 8517   3.206   4.940   7.322
 2840SOL     OW 8518   2.443   3.925   7.718
 2840SOL    HW1 8519   2.438   3.920   7.818
 2840SOL    HW2 8520   2.445   4.021   7.689
 2841SOL     OW 8521   3.688   4.795   7.706
 2841SOL    HW1 8522   3.626   4.780   7.630
 2841SOL    HW2 8523   3.636   4.806   7.791
 2842SOL     OW 8524   2.214   4.672   7.075
 2842SOL    HW1 8525   2.296   4.711   7.033
 2842SOL    HW2 8526   2.187   4.590   7.026
 2843SOL     OW 8527   3.351   4.464   7.561
 2843SOL    HW1 8528   3.346   4.399   7.636
 2843SOL    HW2 8529   3.431   4.523   7.574
 2844SOL     OW 8530   2.095   4.014   8.331
 2844SOL    HW1 8531   2.015   4.074   8.318
 2844SOL    HW2 8532   2.085   3.965   8.417
 2845SOL     OW 8533   3.293   3.836   7.259
 2845SOL    HW1 8534   3.269   3.799   7.169
 2845SOL    HW2 8535   3.392   3.852   7.263
 2846SOL     OW 8536   2.275   4.429   7.313
 2846SOL    HW1 8537   2.320   4.339   7.310
 2846SOL    HW2 8538   2.181   4.418   7.346
 2847SOL     OW 8539   3.440   3.951   8.562
 2847SOL    HW1 8540   3.435   3.988   8.654
 2847SOL    HW2 8541   3.368   3.882   8.550
 2848SOL     OW 8542   2.507   3.851   6.950
 2848SOL    HW1 8543   2.605   3.829   6.957
 2848SOL    HW2 8544   2.476   3.834   6.857
 2849SOL     OW 8545   2.674   3.993   8.582
 2849SOL    HW1 8546   2.741   3.932   8.625
 2849SOL    HW2 8547   2.601   4.012   8.647
 2850SOL     OW 8548   3.244   4.319   8.266
 2850SOL    HW1 8549   3.272   4.276   8.351
 2850SOL    HW2 8550   3.269   4.415   8.267
 2851SOL     OW 8551   2.815   4.232   7.732
 2851SOL    HW1 8552   2.790   4.223   7.636
 2851SOL    HW2 8553   2.863   4.150   7.763
 2852SOL     OW 8554   2.432   3.793   7.345
 2852SOL    HW1 8555   2.351   3.794   7.403
 2852SOL    HW2 8556   2.435   3.876   7.290
 2853SOL     OW 8557   2.190   3.764   7.004
 2853SOL    HW1 8558   2.239   3.848   6.983
 2853SOL    HW2 8559   2.252   3.699   7.049
 2854SOL     OW 8560   2.828   3.965   7.313
 2854SOL    HW1 8561   2.780   4.006   7.235
 2854SOL    HW2 8562   2.927   3.963   7.294
 2855SOL     OW 8563   2.969   4.412   8.297
 2855SOL    HW1 8564   2.889   4.351   8.300
 2855SOL    HW2 8565   3.050   4.359   8.273
 2856SOL     OW 8566   2.352   4.881   7.574
 2856SOL    HW1 8567   2.281   4.854   7.639
 2856SOL    HW2 8568   2.326   4.853   7.481
 2857SOL     OW 8569   2.925   4.278   6.849
 2857SOL    HW1 8570   2.884   4.360   6.810
 2857SOL    HW2 8571   2.989   4.304   6.922
 2858SOL     OW 8572   1.971   4.285   8.219
 2858SOL    HW1 8573   2.063   4.284   8.178
 2858SOL    HW2 8574   1.965   4.359   8.286
 2859SOL     OW 8575   2.454   3.951   7.980
 2859SOL    HW1 8576   2.492   3.867   8.017
 2859SOL    HW2 8577   2.366   3.970   8.024
 2860SOL     OW 8578   2.759   4.183   7.475
 2860SOL    HW1 8579   2.727   4.255   7.413
 2860SOL    HW2 8580   2.783   4.102   7.422
 2861SOL     OW 8581   2.910   3.768   7.586
 2861SOL    HW1 8582   2.838   3.773   7.517
 2861SOL    HW2 8583   2.886   3.699   7.655
 2862SOL     OW 8584   3.322   4.902   7.700
 2862SOL    HW1 8585   3.267   4.818   7.693
 2862SOL    HW2 8586   3.348   4.931   7.608
 2863SOL     OW 8587   3.359   4.319   7.825
 2863SOL    HW1 8588   3.329   4.224   7.832
 2863SOL    HW2 8589   3.432   4.335   7.891
 2864SOL     OW 8590   3.750   4.562   7.210
 2864SOL    HW1 8591   3.792   4.498   7.274
 2864SOL    HW2 8592   3.712   4.511   7.132
 2865SOL     OW 8593   3.283   4.304   6.911
 2865SOL    HW1 8594   3.229   4.283   6.992
 2865SOL    HW2 8595   3.374   4.263   6.920
 2866SOL     OW 8596   2.420   3.985   7.161
 2866SOL    HW1 8597   2.447   3.926   7.086
 2866SOL    HW2 8598   2.420   4.080   7.130
 2867SOL     OW 8599   3.647   4.952   8.421
 2867SOL    HW1 8600   3.738   4.913   8.408
 2867SOL    HW2 8601   3.655   5.048   8.445
 2868SOL     OW 8602   3.531   4.828   7.912
 2868SOL    HW1 8603   3.536   4.909   7.971
 2868SOL    HW2 8604   3.445   4.830   7.861
 2869SOL     OW 8605   2.808   3.818   8.235
 2869SOL    HW1 8606   2.833   3.798   8.140
 2869SOL    HW2 8607   2.880   3.874   8.277
 2870SOL     OW 8608   2.873   4.845   8.552
 2870SOL    HW1 8609   2.774   4.851   8.562
 2870SOL    HW2 8610   2.896   4.765   8.496
 2871SOL     OW 8611   2.598   4.779   7.201
 2871SOL    HW1 8612   2.584   4.786   7.300
 2871SOL    HW2 8613   2.682   4.728   7.183
 2872SOL     OW 8614   2.303   4.542   8.084
 2872SOL    HW1 8615   2.389   4.554   8.134
 2872SOL    HW2 8616   2.261   4.455   8.111
 2873SOL     OW 8617   3.167   4.115   8.095
 2873SOL    HW1 8618   3.188   4.189   8.159
 2873SOL    HW2 8619   3.078   4.132   8.052
 2874SOL     OW 8620   2.260   4.829   7.334
 2874SOL    HW1 8621   2.253   4.912   7.278
 2874SOL    HW2 8622   2.264   4.749   7.274
 2875SOL     OW 8623   2.459   4.266   7.698
 2875SOL    HW1 8624   2.471   4.332   7.624
 2875SOL    HW2 8625   2.505   4.300   7.781
 2876SOL     OW 8626   3.475   4.368   7.305
 2876SOL    HW1 8627   3.444   4.429   7.378
 2876SOL    HW2 8628   3.525   4.420   7.236
 2877SOL     OW 8629   2.295   4.480   8.431
 2877SOL    HW1 8630   2.363   4.535   8.384
 2877SOL    HW2 8631   2.335   4.392   8.458
 2878SOL     OW 8632   3.480   4.508   8.503
 2878SOL    HW1 8633   3.388   4.546   8.498
 2878SOL    HW2 8634   3.540   4.555   8.438
 2879SOL     OW 8635   2.906   3.834   8.603
 2879SOL    HW1 8636   2.912   3.919   8.551
 2879SOL    HW2 8637   2.938   3.758   8.546
 2880SOL     OW 8638   2.397   3.779   8.573
 2880SOL    HW1 8639   2.355   3.722   8.503
 2880SOL    HW2 8640   2.331   3.848   8.605
 2881SOL     OW 8641   2.466   4.599   7.862
 2881SOL    HW1 8642   2.510   4.688   7.853
 2881SOL    HW2 8643   2.403   4.599   7.939
 2882SOL     OW 8644   3.253   4.591   7.878
 2882SOL    HW1 8645   3.178   4.591   7.812
 2882SOL    HW2 8646   3.290   4.499   7.887
 2883SOL     OW 8647   3.102   4.254   7.108
 2883SOL    HW1 8648   3.115   4.170   7.162
 2883SOL    HW2 8649   3.073   4.328   7.168
 2884SOL     OW 8650   2.200   3.942   8.064
 2884SOL    HW1 8651   2.177   3.979   8.154
 2884SOL    HW2 8652   2.170   3.847   8.058
 2885SOL     OW 8653   2.625   4.363   7.897
 2885SOL    HW1 8654   2.684   4.337   7.821
 2885SOL    HW2 8655   2.597   4.459   7.886
 2886SOL     OW 8656   3.621   4.664   8.687
 2886SOL    HW1 8657   3.575   4.657   8.598
 2886SOL    HW2 8658   3.559   4.708   8.753
 2887SOL     OW 8659   2.200   3.792   7.451
 2887SOL    HW1 8660   2.189   3.886   7.484
 2887SOL    HW2 8661   2.195   3.729   7.528
 2888SOL     OW 8662   3.515   4.096   7.207
 2888SOL    HW1 8663   3.517   4.020   7.271
 2888SOL    HW2 8664   3.467   4.173   7.247
 2889SOL     OW 8665   2.916   4.495   7.799
 2889SOL    HW1 8666   2.931   4.516   7.895
 2889SOL    HW2 8667   2.886   4.400   7.790
 2890SOL     OW 8668   2.243   4.627   8.637
 2890SOL    HW1 8669   2.319   4.671   8.685
 2890SOL    HW2 8670   2.278   4.580   8.555
 2891SOL     OW 8671   3.433   4.003   6.958
 2891SOL    HW1 8672   3.372   3.928   6.981
 2891SOL    HW2 8673   3.455   4.055   7.041
 2892SOL     OW 8674   3.196   4.567   6.875
 2892SOL    HW1 8675   3.230   4.474   6.890
 2892SOL    HW2 8676   3.214   4.594   6.780
 2893SOL     OW 8677   2.212   4.539   7.782
 2893SOL    HW1 8678   2.305   4.575   7.787
 2893SOL    HW2 8679   2.206   4.454   7.834
 2894SOL     OW 8680   2.232   4.238   7.839
 2894SOL    HW1 8681   2.180   4.155   7.822
 2894SOL    HW2 8682   2.309   4.243   7.775
 2895SOL     OW 8683   3.031   4.109   8.511
 2895SOL    HW1 8684   2.986   4.172   8.575
 2895SOL    HW2 8685   3.124   4.140   8.494
 2896SOL     OW 8686   3.053   3.936   8.310
 2896SOL    HW1 8687   3.053   4.000   8.387
 2896SOL    HW2 8688   3.081   3.984   8.227
 2897SOL     OW 8689   1.901   5.055   7.033
 2897SOL    HW1 8690   1.808   5.076   7.002
 2897SOL    HW2 8691   1.911   4.956   7.046
 2898SOL     OW 8692   2.895   4.525   8.071
 2898SOL    HW1 8693   2.936   4.493   8.157
 2898SOL    HW2 8694   2.799   4.498   8.068
 2899SOL     OW 8695   1.933   4.273   7.947
 2899SOL    HW1 8696   2.018   4.240   7.906
 2899SOL    HW2 8697   1.946   4.288   8.045
 2900SOL     OW 8698   2.082   4.249   8.555
 2900SOL    HW1 8699   2.141   4.209   8.485
 2900SOL    HW2 8700   2.024   4.320   8.514
 2901SOL     OW 8701   3.262   4.679   8.493
 2901SOL    HW1 8702   3.301   4.768   8.513
 2901SOL    HW2 8703   3.272   4.659   8.396
 2902SOL     OW 8704   2.708   4.301   7.158
 2902SOL    HW1 8705   2.715   4.212   7.112
 2902SOL    HW2 8706   2.614   4.335   7.150
 2903SOL     OW 8707   3.550   4.333   8.039
 2903SOL    HW1 8708   3.512   4.264   8.101
 2903SOL    HW2 8709   3.632   4.297   7.995
 2904SOL     OW 8710   2.564   4.193   8.102
 2904SOL    HW1 8711   2.530   4.104   8.072
 2904SOL    HW2 8712   2.590   4.247   8.022
 2905SOL     OW 8713   2.366   4.229   7.024
 2905SOL    HW1 8714   2.427   4.309   7.028
 2905SOL    HW2 8715   2.271   4.260   7.031
 2906SOL     OW 8716   2.052   4.866   8.299
 2906SOL    HW1 8717   2.074   4.805   8.375
 2906SOL    HW2 8718   2.062   4.817   8.213
 2907SOL     OW 8719   3.240   4.788   8.067
 2907SOL    HW1 8720   3.264   4.725   7.993
 2907SOL    HW2 8721   3.150   4.828   8.049
 2908SOL     OW 8722   3.195   4.584   7.142
 2908SOL    HW1 8723   3.109   4.553   7.184
 2908SOL    HW2 8724   3.191   4.570   7.043
 2909SOL     OW 8725   1.976   4.987   7.855
 2909SOL    HW1 8726   1.971   4.986   7.955
 2909SOL    HW2 8727   1.893   4.946   7.817
 2910SOL     OW 8728   3.619   3.864   7.356
 2910SOL    HW1 8729   3.692   3.847   7.289
 2910SOL    HW2 8730   3.588   3.777   7.394
 2911SOL     OW 8731   3.173   4.656   7.505
 2911SOL    HW1 8732   3.233   4.575   7.507
 2911SOL    HW2 8733   3.213   4.725   7.445
 2912SOL     OW 8734   3.734   3.904   7.796
 2912SOL    HW1 8735   3.773   3.819   7.760
 2912SOL    HW2 8736   3.636   3.906   7.777
 2913SOL     OW 8737   2.156   4.055   7.553
 2913SOL    HW1 8738   2.077   4.106   7.519
 2913SOL    HW2 8739   2.147   4.040   7.651
 2914SOL     OW 8740   2.715   4.731   8.205
 2914SOL    HW1 8741   2.755   4.730   8.113
 2914SOL    HW2 8742   2.725   4.823   8.245
 2915SOL     OW 8743   2.809   4.639   7.124
 2915SOL    HW1 8744   2.872   4.677   7.056
 2915SOL    HW2 8745   2.849   4.556   7.163
 2916SOL     OW 8746   2.265   5.017   8.323
 2916SOL    HW1 8747   2.252   5.110   8.289
 2916SOL    HW2 8748   2.181   4.965   8.310
 2917SOL     OW 8749   3.507   5.021   8.122
 2917SOL    HW1 8750   3.567   5.024   8.202
 2917SOL    HW2 8751   3.432   5.085   8.135
 2918SOL     OW 8752   2.932   4.827   7.529
 2918SOL    HW1 8753   2.862   4.780   7.583
 2918SOL    HW2 8754   2.991   4.759   7.486
 2919SOL     OW 8755   2.907   3.965   7.804
 2919SOL    HW1 8756   2.899   3.929   7.711
 2919SOL    HW2 8757   2.905   3.889   7.869
 2920SOL     OW 8758   3.602   4.114   8.214
 2920SOL    HW1 8759   3.675   4.183   8.218
 2920SOL    HW2 8760   3.630   4.039   8.155
 2921SOL     OW 8761   1.998   4.742   8.559
 2921SOL    HW1 8762   1.921   4.709   8.613
 2921SOL    HW2 8763   2.083   4.712   8.601
 2922SOL     OW 8764   2.565   3.932   8.322
 2922SOL    HW1 8765   2.655   3.916   8.282
 2922SOL    HW2 8766   2.573   3.937   8.421
 2923SOL     OW 8767   1.968   4.074   6.866
 2923SOL    HW1 8768   1.876   4.046   6.837
 2923SOL    HW2 8769   1.999   4.151   6.810
 2924SOL     OW 8770   3.333   4.585   8.231
 2924SOL    HW1 8771   3.276   4.637   8.168
 2924SOL    HW2 8772   3.429   4.597   8.207
 2925SOL     OW 8773   1.965   3.895   7.151
 2925SOL    HW1 8774   1.948   3.978   7.097
 2925SOL    HW2 8775   2.055   3.858   7.129
 2926SOL     OW 8776   2.506   4.571   8.264
 2926SOL    HW1 8777   2.562   4.652   8.247
 2926SOL    HW2 8778   2.565   4.491   8.267
 2927SOL     OW 8779   2.609   4.294   8.541
 2927SOL    HW1 8780   2.628   4.359   8.615
 2927SOL    HW2 8781   2.669   4.214   8.550
 2928SOL     OW 8782   3.343   4.949   8.466
 2928SOL    HW1 8783   3.334   4.939   8.565
 2928SOL    HW2 8784   3.439   4.942   8.440
 2929SOL     OW 8785   3.567   4.612   8.087
 2929SOL    HW1 8786   3.540   4.523   8.050
 2929SOL    HW2 8787   3.568   4.680   8.014
 2930SOL     OW 8788   3.118   4.054   7.282
 2930SOL    HW1 8789   3.183   3.980   7.271
 2930SOL    HW2 8790   3.138   4.104   7.366
 2931SOL     OW 8791   2.487   4.474   7.485
 2931SOL    HW1 8792   2.537   4.559   7.466
 2931SOL    HW2 8793   2.399   4.476   7.437
 2932SOL     OW 8794   3.670   4.071   8.475
 2932SOL    HW1 8795   3.653   4.102   8.381
 2932SOL    HW2 8796   3.586   4.034   8.513
 2933SOL     OW 8797   3.623   4.663   8.350
 2933SOL    HW1 8798   3.661   4.754   8.365
 2933SOL    HW2 8799   3.615   4.646   8.251
 2934SOL     OW 8800   2.752   4.685   7.694
 2934SOL    HW1 8801   2.806   4.616   7.742
 2934SOL    HW2 8802   2.720   4.754   7.760
 2935SOL     OW 8803   2.976   4.713   6.920
 2935SOL    HW1 8804   2.953   4.766   6.838
 2935SOL    HW2 8805   3.057   4.657   6.901
 2936SOL     OW 8806   1.972   4.969   7.486
 2936SOL    HW1 8807   1.971   4.922   7.574
 2936SOL    HW2 8808   2.054   4.941   7.435
 2937SOL     OW 8809   3.717   3.921   8.060
 2937SOL    HW1 8810   3.713   3.831   8.104
 2937SOL    HW2 8811   3.720   3.910   7.961
 2938SOL     OW 8812   2.321   4.153   7.353
 2938SOL    HW1 8813   2.351   4.081   7.291
 2938SOL    HW2 8814   2.282   4.113   7.436
 2939SOL     OW 8815   2.210   4.276   8.113
 2939SOL    HW1 8816   2.248   4.217   8.185
 2939SOL    HW2 8817   2.250   4.250   8.025
 2940SOL     OW 8818   3.317   3.943   7.945
 2940SOL    HW1 8819   3.369   3.878   8.000
 2940SOL    HW2 8820   3.268   4.006   8.006
 2941SOL     OW 8821   2.894   3.763   7.987
 2941SOL    HW1 8822   2.831   3.691   7.956
 2941SOL    HW2 8823   2.987   3.727   7.987
 2942SOL     OW 8824   2.663   5.059   7.134
 2942SOL    HW1 8825   2.617   4.972   7.151
 2942SOL    HW2 8826   2.754   5.056   7.175
 2943SOL     OW 8827   3.245   3.781   7.001
 2943SOL    HW1 8828   3.280   3.740   6.917
 2943SOL    HW2 8829   3.155   3.743   7.021
 2944SOL     OW 8830   3.193   4.182   7.524
 2944SOL    HW1 8831   3.134   4.262   7.528
 2944SOL    HW2 8832   3.208   4.147   7.617
 2945SOL     OW 8833   3.486   3.950   7.715
 2945SOL    HW1 8834   3.402   3.949   7.769
 2945SOL    HW2 8835   3.488   4.033   7.659
 2946SOL     OW 8836   1.932   4.806   7.133
 2946SOL    HW1 8837   2.031   4.795   7.124
 2946SOL    HW2 8838   1.892   4.720   7.165
 2947SOL     OW 8839   2.123   4.357   8.808
 2947SOL    HW1 8840   2.030   4.355   8.845
 2947SOL    HW2 8841   2.124   4.318   8.716
 2948SOL     OW 8842   2.118   4.004   9.691
 2948SOL    HW1 8843   2.153   3.987   9.783
 2948SOL    HW2 8844   2.030   3.959   9.679
 2949SOL     OW 8845   1.912   4.097   9.342
 2949SOL    HW1 8846   1.830   4.140   9.381
 2949SOL    HW2 8847   1.884   4.024   9.279
 2950SOL     OW 8848   3.028   4.432   9.412
 2950SOL    HW1 8849   3.085   4.510   9.387
 2950SOL    HW2 8850   2.968   4.458   9.488
 2951SOL     OW 8851   3.648   4.336   8.926
 2951SOL    HW1 8852   3.636   4.323   8.827
 2951SOL    HW2 8853   3.618   4.255   8.975
 2952SOL     OW 8854   2.661   4.873   9.718
 2952SOL    HW1 8855   2.583   4.890   9.778
 2952SOL    HW2 8856   2.695   4.960   9.682
 2953SOL     OW 8857   2.578   4.741   9.360
 2953SOL    HW1 8858   2.647   4.725   9.430
 2953SOL    HW2 8859   2.505   4.798   9.398
 2954SOL     OW 8860   3.496   4.176   9.432
 2954SOL    HW1 8861   3.422   4.222   9.382
 2954SOL    HW2 8862   3.547   4.244   9.485
 2955SOL     OW 8863   2.133   4.820   9.581
 2955SOL    HW1 8864   2.147   4.736   9.633
 2955SOL    HW2 8865   2.078   4.884   9.636
 2956SOL     OW 8866   2.499   4.693   8.818
 2956SOL    HW1 8867   2.506   4.777   8.764
 2956SOL    HW2 8868   2.545   4.706   8.906
 2957SOL     OW 8869   2.015   4.372   9.258
 2957SOL    HW1 8870   1.970   4.284   9.275
 2957SOL    HW2 8871   2.014   4.426   9.342
 2958SOL     OW 8872   3.582   4.651   9.307
 2958SOL    HW1 8873   3.677   4.622   9.315
 2958SOL    HW2 8874   3.574   4.716   9.232
 2959SOL     OW 8875   3.534   4.837   9.127
 2959SOL    HW1 8876   3.620   4.839   9.075
 2959SOL    HW2 8877   3.548   4.884   9.215
 2960SOL     OW 8878   2.702   3.733   9.197
 2960SOL    HW1 8879   2.742   3.824   9.188
 2960SOL    HW2 8880   2.602   3.741   9.203
 2961SOL     OW 8881   2.090   4.705   9.959
 2961SOL    HW1 8882   2.179   4.660   9.945
 2961SOL    HW2 8883   2.017   4.640   9.940
 2962SOL     OW 8884   3.418   4.728   8.885
 2962SOL    HW1 8885   3.355   4.652   8.898
 2962SOL    HW2 8886   3.466   4.746   8.971
 2963SOL     OW 8887   2.491   4.458   8.965
 2963SOL    HW1 8888   2.515   4.527   8.897
 2963SOL    HW2 8889   2.413   4.491   9.019
 2964SOL     OW 8890   3.174   4.074   9.639
 2964SOL    HW1 8891   3.088   4.024   9.626
 2964SOL    HW2 8892   3.236   4.020   9.695
 2965SOL     OW 8893   2.934   4.430   9.124
 2965SOL    HW1 8894   2.960   4.426   9.220
 2965SOL    HW2 8895   2.849   4.379   9.110
 2966SOL     OW 8896   1.969   4.540   9.484
 2966SOL    HW1 8897   2.068   4.528   9.493
 2966SOL    HW2 8898   1.945   4.635   9.505
 2967SOL     OW 8899   2.758   4.077   8.890
 2967SOL    HW1 8900   2.817   4.140   8.841
 2967SOL    HW2 8901   2.777   3.983   8.861
 2968SOL     OW 8902   3.255   4.873   9.240
 2968SOL    HW1 8903   3.338   4.844   9.192
 2968SOL    HW2 8904   3.206   4.940   9.184
 2969SOL     OW 8905   2.443   3.925   9.580
 2969SOL    HW1 8906   2.438   3.920   9.680
 2969SOL    HW2 8907   2.445   4.021   9.551
 2970SOL     OW 8908   3.688   4.795   9.568
 2970SOL    HW1 8909   3.626   4.780   9.492
 2970SOL    HW2 8910   3.636   4.806   9.653
 2971SOL     OW 8911   2.214   4.672   8.937
 2971SOL    HW1 8912   2.296   4.711   8.895
 2971SOL    HW2 8913   2.187   4.590   8.888
 2972SOL     OW 8914   3.351   4.464   9.423
 2972SOL    HW1 8915   3.346   4.399   9.498
 2972SOL    HW2 8916   3.431   4.523   9.436
 2973SOL     OW 8917   3.293   3.836   9.121
 2973SOL    HW1 8918   3.269   3.799   9.031
 2973SOL    HW2 8919   3.392   3.852   9.125
 2974SOL     OW 8920   2.275   4.429   9.175
 2974SOL    HW1 8921   2.320   4.339   9.172
 2974SOL    HW2 8922   2.181   4.418   9.208
 2975SOL     OW 8923   2.507   3.851   8.812
 2975SOL    HW1 8924   2.605   3.829   8.819
 2975SOL    HW2 8925   2.476   3.834   8.719
 2976SOL     OW 8926   2.815   4.232   9.594
 2976SOL    HW1 8927   2.790   4.223   9.498
 2976SOL    HW2 8928   2.863   4.150   9.625
 2977SOL     OW 8929   2.432   3.793   9.207
 2977SOL    HW1 8930   2.351   3.794   9.265
 2977SOL    HW2 8931   2.435   3.876   9.152
 2978SOL     OW 8932   2.190   3.764   8.866
 2978SOL    HW1 8933   2.239   3.848   8.845
 2978SOL    HW2 8934   2.252   3.699   8.911
 2979SOL     OW 8935   2.828   3.965   9.175
 2979SOL    HW1 8936   2.780   4.006   9.097
 2979SOL    HW2 8937   2.927   3.963   9.156
 2980SOL     OW 8938   2.352   4.881   9.436
 2980SOL    HW1 8939   2.281   4.854   9.501
 2980SOL    HW2 8940   2.326   4.853   9.343
 2981SOL     OW 8941   2.925   4.278   8.711
 2981SOL    HW1 8942   2.884   4.360   8.672
 2981SOL    HW2 8943   2.989   4.304   8.784
 2982SOL     OW 8944   2.759   4.183   9.337
 2982SOL    HW1 8945   2.727   4.255   9.275
 2982SOL    HW2 8946   2.783   4.102   9.284
 2983SOL     OW 8947   2.910   3.768   9.448
 2983SOL    HW1 8948   2.838   3.773   9.379
 2983SOL    HW2 8949   2.886   3.699   9.517
 2984SOL     OW 8950   3.322   4.902   9.562
 2984SOL    HW1 8951   3.267   4.818   9.555
 2984SOL    HW2 8952   3.348   4.931   9.470
 2985SOL     OW 8953   3.359   4.319   9.687
 2985SOL    HW1 8954   3.329   4.224   9.694
 2985SOL    HW2 8955   3.432   4.335   9.753
 2986SOL     OW 8956   3.750   4.562   9.072
 2986SOL    HW1 8957   3.792   4.498   9.136
 2986SOL    HW2 8958   3.712   4.511   8.994
 2987SOL     OW 8959   3.283   4.304   8.773
 2987SOL    HW1 8960   3.229   4.283   8.854
 2987SOL    HW2 8961   3.374   4.263   8.782
 2988SOL     OW 8962   2.420   3.985   9.023
 2988SOL    HW1 8963   2.447   3.926   8.948
 2988SOL    HW2 8964   2.420   4.080   8.992
 2989SOL     OW 8965   3.531   4.828   9.774
 2989SOL    HW1 8966   3.536   4.909   9.833
 2989SOL    HW2 8967   3.445   4.830   9.723
 2990SOL     OW 8968   2.598   4.779   9.063
 2990SOL    HW1 8969   2.584   4.786   9.162
 2990SOL    HW2 8970   2.682   4.728   9.045
 2991SOL     OW 8971   2.303   4.542   9.946
 2991SOL    HW1 8972   2.389   4.554   9.996
 2991SOL    HW2 8973   2.261   4.455   9.973
 2992SOL     OW 8974   2.260   4.829   9.196
 2992SOL    HW1 8975   2.253   4.912   9.140
 2992SOL    HW2 8976   2.264   4.749   9.136
 2993SOL     OW 8977   2.459   4.266   9.560
 2993SOL    HW1 8978   2.471   4.332   9.486
 2993SOL    HW2 8979   2.505   4.300   9.643
 2994SOL     OW 8980   3.475   4.368   9.167
 2994SOL    HW1 8981   3.444   4.429   9.240
 2994SOL    HW2 8982   3.525   4.420   9.098
 2995SOL     OW 8983   2.466   4.599   9.724
 2995SOL    HW1 8984   2.510   4.688   9.715
 2995SOL    HW2 8985   2.403   4.599   9.801
 2996SOL     OW 8986   3.253   4.591   9.740
 2996SOL    HW1 8987   3.178   4.591   9.674
 2996SOL    HW2 8988   3.290   4.499   9.749
 2997SOL     OW 8989   3.102   4.254   8.970
 2997SOL    HW1 8990   3.115   4.170   9.024
 2997SOL    HW2 8991   3.073   4.328   9.030
 2998SOL     OW 8992   2.200   3.942   9.926
 2998SOL    HW1 8993   2.177   3.979  10.016
 2998SOL    HW2 8994   2.170   3.847   9.920
 2999SOL     OW 8995   2.625   4.363   9.759
 2999SOL    HW1 8996   2.684   4.337   9.683
 2999SOL    HW2 8997   2.597   4.459   9.748
 3000SOL     OW 8998   2.200   3.792   9.313
 3000SOL    HW1 8999   2.189   3.886   9.346
 3000SOL    HW2 9000   2.195   3.729   9.390
 3001SOL     OW 9001   3.515   4.096   9.069
 3001SOL    HW1 9002   3.517   4.020   9.133
 3001SOL    HW2 9003   3.467   4.173   9.109
 3002SOL     OW 9004   2.916   4.495   9.661
 3002SOL    HW1 9005   2.931   4.516   9.757
 3002SOL    HW2 9006   2.886   4.400   9.652
 3003SOL     OW 9007   3.433   4.003   8.820
 3003SOL    HW1 9008   3.372   3.928   8.843
 3003SOL    HW2 9009   3.455   4.055   8.903
 3004SOL     OW 9010   3.196   4.567   8.737
 3004SOL    HW1 9011   3.230   4.474   8.752
 3004SOL    HW2 9012   3.214   4.594   8.642
 3005SOL     OW 9013   2.212   4.539   9.644
 3005SOL    HW1 9014   2.305   4.575   9.649
 3005SOL    HW2 9015   2.206   4.454   9.696
 3006SOL     OW 9016   2.232   4.238   9.701
 3006SOL    HW1 9017   2.180   4.155   9.684
 3006SOL    HW2 9018   2.309   4.243   9.637
 3007SOL     OW 9019   3.053   3.936  10.172
 3007SOL    HW1 9020   3.053   4.000  10.249
 3007SOL    HW2 9021   3.081   3.984  10.089
 3008SOL     OW 9022   1.901   5.055   8.895
 3008SOL    HW1 9023   1.808   5.076   8.864
 3008SOL    HW2 9024   1.911   4.956   8.908
 3009SOL     OW 9025   2.895   4.525   9.933
 3009SOL    HW1 9026   2.936   4.493  10.019
 3009SOL    HW2 9027   2.799   4.498   9.930
 3010SOL     OW 9028   1.933   4.273   9.809
 3010SOL    HW1 9029   2.018   4.240   9.768
 3010SOL    HW2 9030   1.946   4.288   9.907
 3011SOL     OW 9031   2.708   4.301   9.020
 3011SOL    HW1 9032   2.715   4.212   8.974
 3011SOL    HW2 9033   2.614   4.335   9.012
 3012SOL     OW 9034   3.550   4.333   9.901
 3012SOL    HW1 9035   3.512   4.264   9.963
 3012SOL    HW2 9036   3.632   4.297   9.857
 3013SOL     OW 9037   2.564   4.193   9.964
 3013SOL    HW1 9038   2.530   4.104   9.934
 3013SOL    HW2 9039   2.590   4.247   9.884
 3014SOL     OW 9040   2.366   4.229   8.886
 3014SOL    HW1 9041   2.427   4.309   8.890
 3014SOL    HW2 9042   2.271   4.260   8.893
 3015SOL     OW 9043   2.052   4.866  10.161
 3015SOL    HW1 9044   2.074   4.805  10.237
 3015SOL    HW2 9045   2.062   4.817  10.075
 3016SOL     OW 9046   3.240   4.788   9.929
 3016SOL    HW1 9047   3.264   4.725   9.855
 3016SOL    HW2 9048   3.150   4.828   9.911
 3017SOL     OW 9049   3.195   4.584   9.004
 3017SOL    HW1 9050   3.109   4.553   9.046
 3017SOL    HW2 9051   3.191   4.570   8.905
 3018SOL     OW 9052   1.976   4.987   9.717
 3018SOL    HW1 9053   1.971   4.986   9.817
 3018SOL    HW2 9054   1.893   4.946   9.679
 3019SOL     OW 9055   3.619   3.864   9.218
 3019SOL    HW1 9056   3.692   3.847   9.151
 3019SOL    HW2 9057   3.588   3.777   9.256
 3020SOL     OW 9058   3.173   4.656   9.367
 3020SOL    HW1 9059   3.233   4.575   9.369
 3020SOL    HW2 9060   3.213   4.725   9.307
 3021SOL     OW 9061   3.734   3.904   9.658
 3021SOL    HW1 9062   3.773   3.819   9.622
 3021SOL    HW2 9063   3.636   3.906   9.639
 3022SOL     OW 9064   2.156   4.055   9.415
 3022SOL    HW1 9065   2.077   4.106   9.381
 3022SOL    HW2 9066   2.147   4.040   9.513
 3023SOL     OW 9067   2.715   4.731  10.067
 3023SOL    HW1 9068   2.755   4.730   9.975
 3023SOL    HW2 9069   2.725   4.823  10.107
 3024SOL     OW 9070   2.809   4.639   8.986
 3024SOL    HW1 9071   2.872   4.677   8.918
 3024SOL    HW2 9072   2.849   4.556   9.025
 3025SOL     OW 9073   3.507   5.021   9.984
 3025SOL    HW1 9074   3.567   5.024  10.064
 3025SOL    HW2 9075   3.432   5.085   9.997
 3026SOL     OW 9076   2.932   4.827   9.391
 3026SOL    HW1 9077   2.862   4.780   9.445
 3026SOL    HW2 9078   2.991   4.759   9.348
 3027SOL     OW 9079   2.907   3.965   9.666
 3027SOL    HW1 9080   2.899   3.929   9.573
 3027SOL    HW2 9081   2.905   3.889   9.731
 3028SOL     OW 9082   3.602   4.114  10.076
 3028SOL    HW1 9083   3.675   4.183  10.080
 3028SOL    HW2 9084   3.630   4.039  10.017
 3029SOL     OW 9085   1.968   4.074   8.728
 3029SOL    HW1 9086   1.876   4.046   8.699
 3029SOL    HW2 9087   1.999   4.151   8.672
 3030SOL     OW 9088   1.965   3.895   9.013
 3030SOL    HW1 9089   1.948   3.978   8.959
 3030SOL    HW2 9090   2.055   3.858   8.991
 3031SOL     OW 9091   3.567   4.612   9.949
 3031SOL    HW1 9092   3.540   4.523   9.912
 3031SOL    HW2 9093   3.568   4.680   9.876
 3032SOL     OW 9094   3.118   4.054   9.144
 3032SOL    HW1 9095   3.183   3.980   9.133
 3032SOL    HW2 9096   3.138   4.104   9.228
 3033SOL     OW 9097   2.487   4.474   9.347
 3033SOL    HW1 9098   2.537   4.559   9.328
 3033SOL    HW2 9099   2.399   4.476   9.299
 3034SOL     OW 9100   3.623   4.663  10.212
 3034SOL    HW1 9101   3.661   4.754  10.227
 3034SOL    HW2 9102   3.615   4.646  10.113
 3035SOL     OW 9103   2.752   4.685   9.556
 3035SOL    HW1 9104   2.806   4.616   9.604
 3035SOL    HW2 9105   2.720   4.754   9.622
 3036SOL     OW 9106   2.976   4.713   8.782
 3036SOL    HW1 9107   2.953   4.766   8.700
 3036SOL    HW2 9108   3.057   4.657   8.763
 3037SOL     OW 9109   1.972   4.969   9.348
 3037SOL    HW1 9110   1.971   4.922   9.436
 3037SOL    HW2 9111   2.054   4.941   9.297
 3038SOL     OW 9112   3.717   3.921   9.922
 3038SOL    HW1 9113   3.713   3.831   9.966
 3038SOL    HW2 9114   3.720   3.910   9.823
 3039SOL     OW 9115   2.321   4.153   9.215
 3039SOL    HW1 9116   2.351   4.081   9.153
 3039SOL    HW2 9117   2.282   4.113   9.298
 3040SOL     OW 9118   3.317   3.943   9.807
 3040SOL    HW1 9119   3.369   3.878   9.862
 3040SOL    HW2 9120   3.268   4.006   9.868
 3041SOL     OW 9121   2.894   3.763   9.849
 3041SOL    HW1 9122   2.831   3.691   9.818
 3041SOL    HW2 9123   2.987   3.727   9.849
 3042SOL     OW 9124   2.663   5.059   8.996
 3042SOL    HW1 9125   2.617   4.972   9.013
 3042SOL    HW2 9126   2.754   5.056   9.037
 3043SOL     OW 9127   3.245   3.781   8.863
 3043SOL    HW1 9128   3.280   3.740   8.779
 3043SOL    HW2 9129   3.155   3.743   8.883
 3044SOL     OW 9130   3.193   4.182   9.386
 3044SOL    HW1 9131   3.134   4.262   9.390
 3044SOL    HW2 9132   3.208   4.147   9.479
 3045SOL     OW 9133   3.486   3.950   9.577
 3045SOL    HW1 9134   3.402   3.949   9.631
 3045SOL    HW2 9135   3.488   4.033   9.521
 3046SOL     OW 9136   1.932   4.806   8.995
 3046SOL    HW1 9137   2.031   4.795   8.986
 3046SOL    HW2 9138   1.892   4.720   9.027
 3047SOL     OW 9139   3.985   0.633   5.084
 3047SOL    HW1 9140   3.892   0.631   5.121
 3047SOL    HW2 9141   3.986   0.594   4.992
 3048SOL     OW 9142   3.980   0.280   5.967
 3048SOL    HW1 9143   4.015   0.263   6.059
 3048SOL    HW2 9144   3.892   0.235   5.955
 3049SOL     OW 9145   3.774   0.373   5.618
 3049SOL    HW1 9146   3.692   0.416   5.657
 3049SOL    HW2 9147   3.746   0.300   5.555
 3050SOL     OW 9148   4.324   1.280   6.136
 3050SOL    HW1 9149   4.231   1.273   6.099
 3050SOL    HW2 9150   4.335   1.369   6.180
 3051SOL     OW 9151   4.890   0.708   5.688
 3051SOL    HW1 9152   4.947   0.786   5.663
 3051SOL    HW2 9153   4.830   0.734   5.764
 3052SOL     OW 9154   4.523   1.149   5.994
 3052SOL    HW1 9155   4.445   1.166   6.054
 3052SOL    HW2 9156   4.557   1.236   5.958
 3053SOL     OW 9157   4.605   0.803   6.794
 3053SOL    HW1 9158   4.601   0.879   6.859
 3053SOL    HW2 9159   4.627   0.839   6.703
 3054SOL     OW 9160   4.440   1.017   5.636
 3054SOL    HW1 9161   4.509   1.001   5.706
 3054SOL    HW2 9162   4.367   1.074   5.674
 3055SOL     OW 9163   4.441   1.166   6.774
 3055SOL    HW1 9164   4.501   1.245   6.788
 3055SOL    HW2 9165   4.355   1.197   6.733
 3056SOL     OW 9166   4.090   1.440   6.032
 3056SOL    HW1 9167   4.012   1.409   5.979
 3056SOL    HW2 9168   4.148   1.498   5.975
 3057SOL     OW 9169   4.193   0.397   6.470
 3057SOL    HW1 9170   4.275   0.341   6.479
 3057SOL    HW2 9171   4.112   0.339   6.474
 3058SOL     OW 9172   3.986   1.718   5.454
 3058SOL    HW1 9173   4.020   1.795   5.508
 3058SOL    HW2 9174   4.030   1.718   5.364
 3059SOL     OW 9175   4.882   1.346   6.661
 3059SOL    HW1 9176   4.929   1.346   6.749
 3059SOL    HW2 9177   4.834   1.259   6.650
 3060SOL     OW 9178   3.985   1.439   5.509
 3060SOL    HW1 9179   3.959   1.535   5.509
 3060SOL    HW2 9180   3.914   1.385   5.554
 3061SOL     OW 9181   3.995   1.096   5.857
 3061SOL    HW1 9182   4.009   1.012   5.909
 3061SOL    HW2 9183   3.940   1.160   5.912
 3062SOL     OW 9184   4.375   1.791   6.410
 3062SOL    HW1 9185   4.283   1.774   6.445
 3062SOL    HW2 9186   4.403   1.883   6.436
 3063SOL     OW 9187   4.361   0.969   5.094
 3063SOL    HW1 9188   4.368   1.053   5.040
 3063SOL    HW2 9189   4.407   0.982   5.182
 3064SOL     OW 9190   3.877   0.648   5.534
 3064SOL    HW1 9191   3.832   0.560   5.551
 3064SOL    HW2 9192   3.876   0.702   5.618
 3065SOL     OW 9193   3.782   1.601   5.088
 3065SOL    HW1 9194   3.763   1.505   5.109
 3065SOL    HW2 9195   3.749   1.659   5.163
 3066SOL     OW 9196   3.868   0.742   6.568
 3066SOL    HW1 9197   3.956   0.729   6.613
 3066SOL    HW2 9198   3.855   0.839   6.546
 3067SOL     OW 9199   4.368   1.370   5.697
 3067SOL    HW1 9200   4.319   1.283   5.706
 3067SOL    HW2 9201   4.345   1.413   5.610
 3068SOL     OW 9202   4.564   0.009   5.473
 3068SOL    HW1 9203   4.604   0.100   5.464
 3068SOL    HW2 9204   4.464   0.017   5.479
 3069SOL     OW 9205   3.952   0.981   6.235
 3069SOL    HW1 9206   4.041   0.936   6.221
 3069SOL    HW2 9207   3.879   0.916   6.216
 3070SOL     OW 9208   4.072   0.256   6.772
 3070SOL    HW1 9209   4.143   0.327   6.778
 3070SOL    HW2 9210   3.984   0.295   6.800
 3071SOL     OW 9211   4.353   0.734   5.241
 3071SOL    HW1 9212   4.377   0.803   5.173
 3071SOL    HW2 9213   4.275   0.767   5.295
 3072SOL     OW 9214   4.562   0.610   6.436
 3072SOL    HW1 9215   4.515   0.607   6.525
 3072SOL    HW2 9216   4.511   0.555   6.370
 3073SOL     OW 9217   4.728   0.895   6.543
 3073SOL    HW1 9218   4.774   0.811   6.514
 3073SOL    HW2 9219   4.672   0.929   6.468
 3074SOL     OW 9220   4.746   0.415   6.213
 3074SOL    HW1 9221   4.669   0.449   6.267
 3074SOL    HW2 9222   4.712   0.364   6.134
 3075SOL     OW 9223   4.796   0.706   5.400
 3075SOL    HW1 9224   4.822   0.702   5.496
 3075SOL    HW2 9225   4.711   0.655   5.386
 3076SOL     OW 9226   3.831   0.816   5.760
 3076SOL    HW1 9227   3.930   0.804   5.769
 3076SOL    HW2 9228   3.807   0.911   5.781
 3077SOL     OW 9229   3.885   1.826   6.542
 3077SOL    HW1 9230   3.875   1.811   6.641
 3077SOL    HW2 9231   3.799   1.862   6.506
 3078SOL     OW 9232   4.620   0.353   5.166
 3078SOL    HW1 9233   4.679   0.416   5.117
 3078SOL    HW2 9234   4.639   0.259   5.137
 3079SOL     OW 9235   4.305   0.201   5.856
 3079SOL    HW1 9236   4.300   0.196   5.956
 3079SOL    HW2 9237   4.307   0.297   5.827
 3080SOL     OW 9238   4.763   1.461   5.448
 3080SOL    HW1 9239   4.717   1.533   5.396
 3080SOL    HW2 9240   4.759   1.481   5.546
 3081SOL     OW 9241   4.106   1.806   5.824
 3081SOL    HW1 9242   4.156   1.720   5.830
 3081SOL    HW2 9243   4.171   1.883   5.821
 3082SOL     OW 9244   4.982   1.555   6.477
 3082SOL    HW1 9245   4.988   1.478   6.541
 3082SOL    HW2 9246   4.930   1.529   6.397
 3083SOL     OW 9247   4.076   0.948   5.213
 3083SOL    HW1 9248   4.158   0.987   5.171
 3083SOL    HW2 9249   4.049   0.866   5.164
 3084SOL     OW 9250   4.216   1.271   6.698
 3084SOL    HW1 9251   4.166   1.272   6.612
 3084SOL    HW2 9252   4.153   1.253   6.774
 3085SOL     OW 9253   4.866   1.781   5.208
 3085SOL    HW1 9254   4.806   1.719   5.258
 3085SOL    HW2 9255   4.897   1.737   5.123
 3086SOL     OW 9256   3.957   0.290   6.469
 3086SOL    HW1 9257   3.877   0.350   6.456
 3086SOL    HW2 9258   3.947   0.241   6.555
 3087SOL     OW 9259   4.219   1.748   5.294
 3087SOL    HW1 9260   4.252   1.787   5.380
 3087SOL    HW2 9261   4.295   1.741   5.229
 3088SOL     OW 9262   4.004   1.790   6.212
 3088SOL    HW1 9263   4.061   1.725   6.262
 3088SOL    HW2 9264   3.988   1.757   6.119
 3089SOL     OW 9265   4.695   1.703   5.875
 3089SOL    HW1 9266   4.775   1.646   5.896
 3089SOL    HW2 9267   4.646   1.663   5.798
 3090SOL     OW 9268   4.137   0.705   5.451
 3090SOL    HW1 9269   4.182   0.615   5.448
 3090SOL    HW2 9270   4.043   0.694   5.484
 3091SOL     OW 9271   4.369   0.127   5.088
 3091SOL    HW1 9272   4.467   0.105   5.095
 3091SOL    HW2 9273   4.338   0.110   4.995
 3092SOL     OW 9274   4.536   0.269   6.720
 3092SOL    HW1 9275   4.603   0.208   6.763
 3092SOL    HW2 9276   4.463   0.288   6.785
 3093SOL     OW 9277   4.643   1.519   6.166
 3093SOL    HW1 9278   4.620   1.494   6.072
 3093SOL    HW2 9279   4.704   1.450   6.205
 3094SOL     OW 9280   4.558   1.407   5.895
 3094SOL    HW1 9281   4.648   1.421   5.853
 3094SOL    HW2 9282   4.487   1.409   5.824
 3095SOL     OW 9283   4.677   0.508   5.870
 3095SOL    HW1 9284   4.652   0.499   5.774
 3095SOL    HW2 9285   4.725   0.426   5.901
 3096SOL     OW 9286   4.294   0.069   5.483
 3096SOL    HW1 9287   4.213   0.070   5.541
 3096SOL    HW2 9288   4.297   0.152   5.428
 3097SOL     OW 9289   4.052   0.040   5.142
 3097SOL    HW1 9290   4.101   0.124   5.121
 3097SOL    HW2 9291   4.114  -0.025   5.187
 3098SOL     OW 9292   4.690   0.241   5.451
 3098SOL    HW1 9293   4.642   0.282   5.373
 3098SOL    HW2 9294   4.789   0.239   5.432
 3099SOL     OW 9295   4.831   0.688   6.435
 3099SOL    HW1 9296   4.751   0.627   6.438
 3099SOL    HW2 9297   4.912   0.635   6.411
 3100SOL     OW 9298   4.982   1.575   5.764
 3100SOL    HW1 9299   5.003   1.649   5.699
 3100SOL    HW2 9300   5.050   1.575   5.837
 3101SOL     OW 9301   4.214   1.157   5.712
 3101SOL    HW1 9302   4.143   1.130   5.777
 3101SOL    HW2 9303   4.188   1.129   5.619
 3102SOL     OW 9304   5.026   1.802   5.562
 3102SOL    HW1 9305   5.070   1.866   5.498
 3102SOL    HW2 9306   4.976   1.854   5.632
 3103SOL     OW 9307   4.787   0.554   4.987
 3103SOL    HW1 9308   4.746   0.636   4.948
 3103SOL    HW2 9309   4.851   0.580   5.060
 3104SOL     OW 9310   3.833   0.561   6.357
 3104SOL    HW1 9311   3.925   0.560   6.316
 3104SOL    HW2 9312   3.827   0.635   6.424
 3105SOL     OW 9313   4.316   0.227   6.118
 3105SOL    HW1 9314   4.354   0.143   6.155
 3105SOL    HW2 9315   4.228   0.246   6.162
 3106SOL     OW 9316   4.621   0.459   5.613
 3106SOL    HW1 9317   4.589   0.531   5.551
 3106SOL    HW2 9318   4.645   0.378   5.560
 3107SOL     OW 9319   4.772   0.044   5.724
 3107SOL    HW1 9320   4.700   0.049   5.655
 3107SOL    HW2 9321   4.748  -0.025   5.793
 3108SOL     OW 9322   4.243   1.390   5.145
 3108SOL    HW1 9323   4.156   1.375   5.192
 3108SOL    HW2 9324   4.226   1.416   5.050
 3109SOL     OW 9325   4.282   0.261   5.299
 3109SOL    HW1 9326   4.309   0.202   5.224
 3109SOL    HW2 9327   4.282   0.356   5.268
 3110SOL     OW 9328   4.819   1.352   6.311
 3110SOL    HW1 9329   4.739   1.329   6.366
 3110SOL    HW2 9330   4.902   1.326   6.360
 3111SOL     OW 9331   4.866   1.200   6.071
 3111SOL    HW1 9332   4.826   1.244   6.152
 3111SOL    HW2 9333   4.825   1.237   5.988
 3112SOL     OW 9334   4.670   0.094   6.373
 3112SOL    HW1 9335   4.695   0.074   6.278
 3112SOL    HW2 9336   4.742   0.150   6.415
 3113SOL     OW 9337   4.735   1.121   6.690
 3113SOL    HW1 9338   4.636   1.127   6.700
 3113SOL    HW2 9339   4.758   1.041   6.634
 3114SOL     OW 9340   4.460   1.055   5.339
 3114SOL    HW1 9341   4.446   1.062   5.438
 3114SOL    HW2 9342   4.544   1.004   5.321
 3115SOL     OW 9343   4.165   0.818   6.222
 3115SOL    HW1 9344   4.251   0.830   6.272
 3115SOL    HW2 9345   4.123   0.731   6.249
 3116SOL     OW 9346   3.819   1.569   6.302
 3116SOL    HW1 9347   3.773   1.651   6.268
 3116SOL    HW2 9348   3.917   1.588   6.311
 3117SOL     OW 9349   4.122   1.105   5.472
 3117SOL    HW1 9350   4.115   1.188   5.416
 3117SOL    HW2 9351   4.126   1.025   5.412
 3118SOL     OW 9352   4.321   0.542   5.836
 3118SOL    HW1 9353   4.333   0.608   5.762
 3118SOL    HW2 9354   4.367   0.576   5.919
 3119SOL     OW 9355   5.007   1.353   5.359
 3119SOL    HW1 9356   5.057   1.430   5.399
 3119SOL    HW2 9357   4.912   1.355   5.391
 3120SOL     OW 9358   4.109   1.515   6.300
 3120SOL    HW1 9359   4.088   1.471   6.213
 3120SOL    HW2 9360   4.206   1.541   6.303
 3121SOL     OW 9361   4.157   0.756   6.569
 3121SOL    HW1 9362   4.225   0.811   6.522
 3121SOL    HW2 9363   4.197   0.668   6.596
 3122SOL     OW 9364   4.768   0.110   6.741
 3122SOL    HW1 9365   4.774   0.195   6.689
 3122SOL    HW2 9366   4.800   0.034   6.684
 3123SOL     OW 9367   4.259   0.055   6.711
 3123SOL    HW1 9368   4.217  -0.002   6.641
 3123SOL    HW2 9369   4.193   0.124   6.743
 3124SOL     OW 9370   4.328   0.875   6.000
 3124SOL    HW1 9371   4.372   0.964   5.991
 3124SOL    HW2 9372   4.265   0.875   6.077
 3125SOL     OW 9373   5.115   0.867   6.016
 3125SOL    HW1 9374   5.040   0.867   5.950
 3125SOL    HW2 9375   5.152   0.775   6.025
 3126SOL     OW 9376   4.964   0.530   5.246
 3126SOL    HW1 9377   4.977   0.446   5.300
 3126SOL    HW2 9378   4.935   0.604   5.306
 3127SOL     OW 9379   4.062   0.218   6.202
 3127SOL    HW1 9380   4.039   0.255   6.292
 3127SOL    HW2 9381   4.032   0.123   6.196
 3128SOL     OW 9382   3.792   1.315   6.253
 3128SOL    HW1 9383   3.845   1.266   6.321
 3128SOL    HW2 9384   3.814   1.413   6.258
 3129SOL     OW 9385   4.487   0.639   6.035
 3129SOL    HW1 9386   4.546   0.613   5.959
 3129SOL    HW2 9387   4.459   0.735   6.024
 3130SOL     OW 9388   4.062   0.068   5.589
 3130SOL    HW1 9389   4.051   0.162   5.622
 3130SOL    HW2 9390   4.057   0.005   5.666
 3131SOL     OW 9391   4.778   0.771   5.937
 3131SOL    HW1 9392   4.793   0.792   6.033
 3131SOL    HW2 9393   4.748   0.676   5.928
 3132SOL     OW 9394   4.735   1.578   6.671
 3132SOL    HW1 9395   4.715   1.622   6.583
 3132SOL    HW2 9396   4.774   1.487   6.655
 3133SOL     OW 9397   4.105   0.903   6.775
 3133SOL    HW1 9398   4.181   0.947   6.823
 3133SOL    HW2 9399   4.140   0.856   6.693
 3134SOL     OW 9400   4.823   1.338   5.820
 3134SOL    HW1 9401   4.830   1.254   5.765
 3134SOL    HW2 9402   4.885   1.407   5.784
 3135SOL     OW 9403   4.074   0.815   5.920
 3135SOL    HW1 9404   4.167   0.851   5.925
 3135SOL    HW2 9405   4.068   0.730   5.972
 3136SOL     OW 9406   4.094   0.514   5.977
 3136SOL    HW1 9407   4.042   0.431   5.960
 3136SOL    HW2 9408   4.171   0.519   5.913
 3137SOL     OW 9409   4.893   0.385   6.649
 3137SOL    HW1 9410   4.848   0.448   6.713
 3137SOL    HW2 9411   4.986   0.416   6.632
 3138SOL     OW 9412   4.915   0.212   6.448
 3138SOL    HW1 9413   4.915   0.276   6.525
 3138SOL    HW2 9414   4.943   0.260   6.365
 3139SOL     OW 9415   3.763   1.331   5.171
 3139SOL    HW1 9416   3.670   1.352   5.140
 3139SOL    HW2 9417   3.773   1.232   5.184
 3140SOL     OW 9418   3.843   1.806   5.898
 3140SOL    HW1 9419   3.801   1.720   5.871
 3140SOL    HW2 9420   3.937   1.809   5.864
 3141SOL     OW 9421   4.259   1.573   5.881
 3141SOL    HW1 9422   4.325   1.647   5.890
 3141SOL    HW2 9423   4.303   1.494   5.839
 3142SOL     OW 9424   4.757   0.801   6.209
 3142SOL    HW1 9425   4.798   0.769   6.295
 3142SOL    HW2 9426   4.661   0.774   6.206
 3143SOL     OW 9427   3.795   0.549   6.085
 3143SOL    HW1 9428   3.880   0.516   6.044
 3143SOL    HW2 9429   3.808   0.564   6.183
 3144SOL     OW 9430   3.944   0.525   6.693
 3144SOL    HW1 9431   4.003   0.485   6.623
 3144SOL    HW2 9432   3.886   0.596   6.652
 3145SOL     OW 9433   4.570   0.577   5.296
 3145SOL    HW1 9434   4.577   0.488   5.250
 3145SOL    HW2 9435   4.476   0.611   5.288
 3146SOL     OW 9436   4.007   1.569   6.715
 3146SOL    HW1 9437   3.977   1.626   6.791
 3146SOL    HW2 9438   4.000   1.472   6.741
 3147SOL     OW 9439   4.426   0.469   6.240
 3147SOL    HW1 9440   4.392   0.380   6.210
 3147SOL    HW2 9441   4.452   0.523   6.160
 3148SOL     OW 9442   4.685   1.683   6.436
 3148SOL    HW1 9443   4.661   1.665   6.341
 3148SOL    HW2 9444   4.715   1.777   6.446
 3149SOL     OW 9445   4.228   0.505   5.162
 3149SOL    HW1 9446   4.289   0.585   5.166
 3149SOL    HW2 9447   4.133   0.536   5.169
 3150SOL     OW 9448   3.914   1.142   6.437
 3150SOL    HW1 9449   3.936   1.081   6.513
 3150SOL    HW2 9450   3.924   1.093   6.351
 3151SOL     OW 9451   5.007   1.736   6.099
 3151SOL    HW1 9452   5.091   1.741   6.045
 3151SOL    HW2 9453   4.984   1.640   6.117
 3152SOL     OW 9454   3.838   1.263   5.993
 3152SOL    HW1 9455   3.833   1.262   6.093
 3152SOL    HW2 9456   3.755   1.222   5.955
 3153SOL     OW 9457   4.443   1.667   6.687
 3153SOL    HW1 9458   4.387   1.748   6.696
 3153SOL    HW2 9459   4.495   1.671   6.601
 3154SOL     OW 9460   4.658   0.091   5.104
 3154SOL    HW1 9461   4.709   0.092   5.018
 3154SOL    HW2 9462   4.714   0.049   5.175
 3155SOL     OW 9463   3.885   1.799   6.822
 3155SOL    HW1 9464   3.844   1.725   6.875
 3155SOL    HW2 9465   3.949   1.850   6.880
 3156SOL     OW 9466   4.585   1.278   6.393
 3156SOL    HW1 9467   4.580   1.311   6.488
 3156SOL    HW2 9468   4.499   1.297   6.347
 3157SOL     OW 9469   4.427   1.621   5.125
 3157SOL    HW1 9470   4.436   1.631   5.026
 3157SOL    HW2 9471   4.387   1.532   5.146
 3158SOL     OW 9472   4.018   0.331   5.691
 3158SOL    HW1 9473   3.939   0.382   5.657
 3158SOL    HW2 9474   4.009   0.316   5.789
 3159SOL     OW 9475   4.577   1.007   6.343
 3159SOL    HW1 9476   4.617   1.006   6.251
 3159SOL    HW2 9477   4.587   1.099   6.383
 3160SOL     OW 9478   4.671   0.915   5.262
 3160SOL    HW1 9479   4.734   0.953   5.194
 3160SOL    HW2 9480   4.711   0.832   5.301
 3161SOL     OW 9481   4.127   1.293   6.461
 3161SOL    HW1 9482   4.114   1.386   6.427
 3161SOL    HW2 9483   4.043   1.241   6.448
 3162SOL     OW 9484   4.794   1.103   5.667
 3162SOL    HW1 9485   4.724   1.056   5.721
 3162SOL    HW2 9486   4.853   1.035   5.624
 3163SOL     OW 9487   4.769   0.241   5.942
 3163SOL    HW1 9488   4.761   0.205   5.849
 3163SOL    HW2 9489   4.767   0.165   6.007
 3164SOL     OW 9490   4.345   1.492   5.462
 3164SOL    HW1 9491   4.387   1.434   5.392
 3164SOL    HW2 9492   4.301   1.571   5.418
 3165SOL     OW 9493   4.010   1.353   5.261
 3165SOL    HW1 9494   3.914   1.354   5.234
 3165SOL    HW2 9495   4.022   1.406   5.345
 3166SOL     OW 9496   3.860   1.018   6.697
 3166SOL    HW1 9497   3.783   0.985   6.751
 3166SOL    HW2 9498   3.945   0.988   6.739
 3167SOL     OW 9499   4.427   0.208   6.460
 3167SOL    HW1 9500   4.517   0.192   6.420
 3167SOL    HW2 9501   4.435   0.213   6.559
 3168SOL     OW 9502   3.827   0.171   5.289
 3168SOL    HW1 9503   3.810   0.254   5.235
 3168SOL    HW2 9504   3.917   0.134   5.267
 3169SOL     OW 9505   4.368   0.847   6.402
 3169SOL    HW1 9506   4.424   0.928   6.385
 3169SOL    HW2 9507   4.427   0.767   6.405
 3170SOL     OW 9508   4.471   0.570   6.679
 3170SOL    HW1 9509   4.490   0.635   6.753
 3170SOL    HW2 9510   4.531   0.490   6.688
 3171SOL     OW 9511   4.145   1.746   6.531
 3171SOL    HW1 9512   4.054   1.787   6.529
 3171SOL    HW2 9513   4.138   1.652   6.563
 3172SOL     OW 9514   4.349   0.750   5.623
 3172SOL    HW1 9515   4.399   0.835   5.604
 3172SOL    HW2 9516   4.261   0.752   5.575
 3173SOL     OW 9517   4.614   1.379   4.987
 3173SOL    HW1 9518   4.568   1.394   5.075
 3173SOL    HW2 9519   4.658   1.464   4.957
 3174SOL     OW 9520   4.416   1.795   5.924
 3174SOL    HW1 9521   4.370   1.883   5.911
 3174SOL    HW2 9522   4.515   1.807   5.917
 3175SOL     OW 9523   4.614   0.961   5.832
 3175SOL    HW1 9524   4.668   0.892   5.880
 3175SOL    HW2 9525   4.582   1.030   5.898
 3176SOL     OW 9526   4.838   0.989   5.058
 3176SOL    HW1 9527   4.815   1.042   4.976
 3176SOL    HW2 9528   4.919   0.933   5.039
 3177SOL     OW 9529   3.976   1.319   6.815
 3177SOL    HW1 9530   3.911   1.246   6.794
 3177SOL    HW2 9531   3.980   1.333   6.913
 3178SOL     OW 9532   3.834   1.245   5.624
 3178SOL    HW1 9533   3.833   1.198   5.712
 3178SOL    HW2 9534   3.916   1.217   5.573
 3179SOL     OW 9535   4.427   1.396   6.595
 3179SOL    HW1 9536   4.349   1.346   6.633
 3179SOL    HW2 9537   4.424   1.491   6.626
 3180SOL     OW 9538   4.183   0.429   5.491
 3180SOL    HW1 9539   4.213   0.357   5.429
 3180SOL    HW2 9540   4.144   0.389   5.574
 3181SOL     OW 9541   4.072   0.552   6.251
 3181SOL    HW1 9542   4.110   0.493   6.323
 3181SOL    HW2 9543   4.112   0.526   6.163
 3182SOL     OW 9544   4.567   1.591   5.658
 3182SOL    HW1 9545   4.599   1.601   5.564
 3182SOL    HW2 9546   4.488   1.529   5.660
 3183SOL     OW 9547   4.756   0.039   6.125
 3183SOL    HW1 9548   4.693  -0.033   6.094
 3183SOL    HW2 9549   4.849   0.003   6.125
 3184SOL     OW 9550   4.525   1.335   5.272
 3184SOL    HW1 9551   4.479   1.248   5.289
 3184SOL    HW2 9552   4.616   1.332   5.313
 3185SOL     OW 9553   4.373   1.572   6.255
 3185SOL    HW1 9554   4.368   1.654   6.312
 3185SOL    HW2 9555   4.462   1.569   6.210
 3186SOL     OW 9556   4.630   1.651   5.308
 3186SOL    HW1 9557   4.553   1.616   5.254
 3186SOL    HW2 9558   4.598   1.722   5.370
 3187SOL     OW 9559   3.985   0.633   6.946
 3187SOL    HW1 9560   3.892   0.631   6.983
 3187SOL    HW2 9561   3.986   0.594   6.854
 3188SOL     OW 9562   3.980   0.280   7.829
 3188SOL    HW1 9563   4.015   0.263   7.921
 3188SOL    HW2 9564   3.892   0.235   7.817
 3189SOL     OW 9565   3.774   0.373   7.480
 3189SOL    HW1 9566   3.692   0.416   7.519
 3189SOL    HW2 9567   3.746   0.300   7.417
 3190SOL     OW 9568   4.324   1.280   7.998
 3190SOL    HW1 9569   4.231   1.273   7.961
 3190SOL    HW2 9570   4.335   1.369   8.042
 3191SOL     OW 9571   4.890   0.708   7.550
 3191SOL    HW1 9572   4.947   0.786   7.525
 3191SOL    HW2 9573   4.830   0.734   7.626
 3192SOL     OW 9574   4.523   1.149   7.856
 3192SOL    HW1 9575   4.445   1.166   7.916
 3192SOL    HW2 9576   4.557   1.236   7.820
 3193SOL     OW 9577   4.605   0.803   8.656
 3193SOL    HW1 9578   4.601   0.879   8.721
 3193SOL    HW2 9579   4.627   0.839   8.565
 3194SOL     OW 9580   4.440   1.017   7.498
 3194SOL    HW1 9581   4.509   1.001   7.568
 3194SOL    HW2 9582   4.367   1.074   7.536
 3195SOL     OW 9583   4.441   1.166   8.636
 3195SOL    HW1 9584   4.501   1.245   8.650
 3195SOL    HW2 9585   4.355   1.197   8.595
 3196SOL     OW 9586   4.090   1.440   7.894
 3196SOL    HW1 9587   4.012   1.409   7.841
 3196SOL    HW2 9588   4.148   1.498   7.837
 3197SOL     OW 9589   4.193   0.397   8.332
 3197SOL    HW1 9590   4.275   0.341   8.341
 3197SOL    HW2 9591   4.112   0.339   8.336
 3198SOL     OW 9592   3.986   1.718   7.316
 3198SOL    HW1 9593   4.020   1.795   7.370
 3198SOL    HW2 9594   4.030   1.718   7.226
 3199SOL     OW 9595   4.882   1.346   8.523
 3199SOL    HW1 9596   4.929   1.346   8.611
 3199SOL    HW2 9597   4.834   1.259   8.512
 3200SOL     OW 9598   3.985   1.439   7.371
 3200SOL    HW1 9599   3.959   1.535   7.371
 3200SOL    HW2 9600   3.914   1.385   7.416
 3201SOL     OW 9601   3.995   1.096   7.719
 3201SOL    HW1 9602   4.009   1.012   7.771
 3201SOL    HW2 9603   3.940   1.160   7.774
 3202SOL     OW 9604   4.375   1.791   8.272
 3202SOL    HW1 9605   4.283   1.774   8.307
 3202SOL    HW2 9606   4.403   1.883   8.298
 3203SOL     OW 9607   4.361   0.969   6.956
 3203SOL    HW1 9608   4.368   1.053   6.902
 3203SOL    HW2 9609   4.407   0.982   7.044
 3204SOL     OW 9610   3.877   0.648   7.396
 3204SOL    HW1 9611   3.832   0.560   7.413
 3204SOL    HW2 9612   3.876   0.702   7.480
 3205SOL     OW 9613   3.782   1.601   6.950
 3205SOL    HW1 9614   3.763   1.505   6.971
 3205SOL    HW2 9615   3.749   1.659   7.025
 3206SOL     OW 9616   3.868   0.742   8.430
 3206SOL    HW1 9617   3.956   0.729   8.475
 3206SOL    HW2 9618   3.855   0.839   8.408
 3207SOL     OW 9619   4.368   1.370   7.559
 3207SOL    HW1 9620   4.319   1.283   7.568
 3207SOL    HW2 9621   4.345   1.413   7.472
 3208SOL     OW 9622   4.564   0.009   7.335
 3208SOL    HW1 9623   4.604   0.100   7.326
 3208SOL    HW2 9624   4.464   0.017   7.341
 3209SOL     OW 9625   3.952   0.981   8.097
 3209SOL    HW1 9626   4.041   0.936   8.083
 3209SOL    HW2 9627   3.879   0.916   8.078
 3210SOL     OW 9628   4.072   0.256   8.634
 3210SOL    HW1 9629   4.143   0.327   8.640
 3210SOL    HW2 9630   3.984   0.295   8.662
 3211SOL     OW 9631   4.353   0.734   7.103
 3211SOL    HW1 9632   4.377   0.803   7.035
 3211SOL    HW2 9633   4.275   0.767   7.157
 3212SOL     OW 9634   4.562   0.610   8.298
 3212SOL    HW1 9635   4.515   0.607   8.387
 3212SOL    HW2 9636   4.511   0.555   8.232
 3213SOL     OW 9637   4.728   0.895   8.405
 3213SOL    HW1 9638   4.774   0.811   8.376
 3213SOL    HW2 9639   4.672   0.929   8.330
 3214SOL     OW 9640   4.746   0.415   8.075
 3214SOL    HW1 9641   4.669   0.449   8.129
 3214SOL    HW2 9642   4.712   0.364   7.996
 3215SOL     OW 9643   4.796   0.706   7.262
 3215SOL    HW1 9644   4.822   0.702   7.358
 3215SOL    HW2 9645   4.711   0.655   7.248
 3216SOL     OW 9646   3.831   0.816   7.622
 3216SOL    HW1 9647   3.930   0.804   7.631
 3216SOL    HW2 9648   3.807   0.911   7.643
 3217SOL     OW 9649   3.885   1.826   8.404
 3217SOL    HW1 9650   3.875   1.811   8.503
 3217SOL    HW2 9651   3.799   1.862   8.368
 3218SOL     OW 9652   4.620   0.353   7.028
 3218SOL    HW1 9653   4.679   0.416   6.979
 3218SOL    HW2 9654   4.639   0.259   6.999
 3219SOL     OW 9655   4.305   0.201   7.718
 3219SOL    HW1 9656   4.300   0.196   7.818
 3219SOL    HW2 9657   4.307   0.297   7.689
 3220SOL     OW 9658   4.763   1.461   7.310
 3220SOL    HW1 9659   4.717   1.533   7.258
 3220SOL    HW2 9660   4.759   1.481   7.408
 3221SOL     OW 9661   4.106   1.806   7.686
 3221SOL    HW1 9662   4.156   1.720   7.692
 3221SOL    HW2 9663   4.171   1.883   7.683
 3222SOL     OW 9664   4.982   1.555   8.339
 3222SOL    HW1 9665   4.988   1.478   8.403
 3222SOL    HW2 9666   4.930   1.529   8.259
 3223SOL     OW 9667   4.076   0.948   7.075
 3223SOL    HW1 9668   4.158   0.987   7.033
 3223SOL    HW2 9669   4.049   0.866   7.026
 3224SOL     OW 9670   4.216   1.271   8.560
 3224SOL    HW1 9671   4.166   1.272   8.474
 3224SOL    HW2 9672   4.153   1.253   8.636
 3225SOL     OW 9673   4.866   1.781   7.070
 3225SOL    HW1 9674   4.806   1.719   7.120
 3225SOL    HW2 9675   4.897   1.737   6.985
 3226SOL     OW 9676   3.957   0.290   8.331
 3226SOL    HW1 9677   3.877   0.350   8.318
 3226SOL    HW2 9678   3.947   0.241   8.417
 3227SOL     OW 9679   4.219   1.748   7.156
 3227SOL    HW1 9680   4.252   1.787   7.242
 3227SOL    HW2 9681   4.295   1.741   7.091
 3228SOL     OW 9682   4.004   1.790   8.074
 3228SOL    HW1 9683   4.061   1.725   8.124
 3228SOL    HW2 9684   3.988   1.757   7.981
 3229SOL     OW 9685   4.695   1.703   7.737
 3229SOL    HW1 9686   4.775   1.646   7.758
 3229SOL    HW2 9687   4.646   1.663   7.660
 3230SOL     OW 9688   4.137   0.705   7.313
 3230SOL    HW1 9689   4.182   0.615   7.310
 3230SOL    HW2 9690   4.043   0.694   7.346
 3231SOL     OW 9691   4.369   0.127   6.950
 3231SOL    HW1 9692   4.467   0.105   6.957
 3231SOL    HW2 9693   4.338   0.110   6.857
 3232SOL     OW 9694   4.536   0.269   8.582
 3232SOL    HW1 9695   4.603   0.208   8.625
 3232SOL    HW2 9696   4.463   0.288   8.647
 3233SOL     OW 9697   4.643   1.519   8.028
 3233SOL    HW1 9698   4.620   1.494   7.934
 3233SOL    HW2 9699   4.704   1.450   8.067
 3234SOL     OW 9700   4.558   1.407   7.757
 3234SOL    HW1 9701   4.648   1.421   7.715
 3234SOL    HW2 9702   4.487   1.409   7.686
 3235SOL     OW 9703   4.677   0.508   7.732
 3235SOL    HW1 9704   4.652   0.499   7.636
 3235SOL    HW2 9705   4.725   0.426   7.763
 3236SOL     OW 9706   4.294   0.069   7.345
 3236SOL    HW1 9707   4.213   0.070   7.403
 3236SOL    HW2 9708   4.297   0.152   7.290
 3237SOL     OW 9709   4.052   0.040   7.004
 3237SOL    HW1 9710   4.101   0.124   6.983
 3237SOL    HW2 9711   4.114  -0.025   7.049
 3238SOL     OW 9712   4.690   0.241   7.313
 3238SOL    HW1 9713   4.642   0.282   7.235
 3238SOL    HW2 9714   4.789   0.239   7.294
 3239SOL     OW 9715   4.831   0.688   8.297
 3239SOL    HW1 9716   4.751   0.627   8.300
 3239SOL    HW2 9717   4.912   0.635   8.273
 3240SOL     OW 9718   4.982   1.575   7.626
 3240SOL    HW1 9719   5.003   1.649   7.561
 3240SOL    HW2 9720   5.050   1.575   7.699
 3241SOL     OW 9721   4.214   1.157   7.574
 3241SOL    HW1 9722   4.143   1.130   7.639
 3241SOL    HW2 9723   4.188   1.129   7.481
 3242SOL     OW 9724   5.026   1.802   7.424
 3242SOL    HW1 9725   5.070   1.866   7.360
 3242SOL    HW2 9726   4.976   1.854   7.494
 3243SOL     OW 9727   4.787   0.554   6.849
 3243SOL    HW1 9728   4.746   0.636   6.810
 3243SOL    HW2 9729   4.851   0.580   6.922
 3244SOL     OW 9730   3.833   0.561   8.219
 3244SOL    HW1 9731   3.925   0.560   8.178
 3244SOL    HW2 9732   3.827   0.635   8.286
 3245SOL     OW 9733   4.316   0.227   7.980
 3245SOL    HW1 9734   4.354   0.143   8.017
 3245SOL    HW2 9735   4.228   0.246   8.024
 3246SOL     OW 9736   4.621   0.459   7.475
 3246SOL    HW1 9737   4.589   0.531   7.413
 3246SOL    HW2 9738   4.645   0.378   7.422
 3247SOL     OW 9739   4.772   0.044   7.586
 3247SOL    HW1 9740   4.700   0.049   7.517
 3247SOL    HW2 9741   4.748  -0.025   7.655
 3248SOL     OW 9742   4.243   1.390   7.007
 3248SOL    HW1 9743   4.156   1.375   7.054
 3248SOL    HW2 9744   4.226   1.416   6.912
 3249SOL     OW 9745   4.282   0.261   7.161
 3249SOL    HW1 9746   4.309   0.202   7.086
 3249SOL    HW2 9747   4.282   0.356   7.130
 3250SOL     OW 9748   4.819   1.352   8.173
 3250SOL    HW1 9749   4.739   1.329   8.228
 3250SOL    HW2 9750   4.902   1.326   8.222
 3251SOL     OW 9751   4.866   1.200   7.933
 3251SOL    HW1 9752   4.826   1.244   8.014
 3251SOL    HW2 9753   4.825   1.237   7.850
 3252SOL     OW 9754   4.670   0.094   8.235
 3252SOL    HW1 9755   4.695   0.074   8.140
 3252SOL    HW2 9756   4.742   0.150   8.277
 3253SOL     OW 9757   4.735   1.121   8.552
 3253SOL    HW1 9758   4.636   1.127   8.562
 3253SOL    HW2 9759   4.758   1.041   8.496
 3254SOL     OW 9760   4.460   1.055   7.201
 3254SOL    HW1 9761   4.446   1.062   7.300
 3254SOL    HW2 9762   4.544   1.004   7.183
 3255SOL     OW 9763   4.165   0.818   8.084
 3255SOL    HW1 9764   4.251   0.830   8.134
 3255SOL    HW2 9765   4.123   0.731   8.111
 3256SOL     OW 9766   3.819   1.569   8.164
 3256SOL    HW1 9767   3.773   1.651   8.130
 3256SOL    HW2 9768   3.917   1.588   8.173
 3257SOL     OW 9769   4.122   1.105   7.334
 3257SOL    HW1 9770   4.115   1.188   7.278
 3257SOL    HW2 9771   4.126   1.025   7.274
 3258SOL     OW 9772   4.321   0.542   7.698
 3258SOL    HW1 9773   4.333   0.608   7.624
 3258SOL    HW2 9774   4.367   0.576   7.781
 3259SOL     OW 9775   5.007   1.353   7.221
 3259SOL    HW1 9776   5.057   1.430   7.261
 3259SOL    HW2 9777   4.912   1.355   7.253
 3260SOL     OW 9778   4.109   1.515   8.162
 3260SOL    HW1 9779   4.088   1.471   8.075
 3260SOL    HW2 9780   4.206   1.541   8.165
 3261SOL     OW 9781   4.157   0.756   8.431
 3261SOL    HW1 9782   4.225   0.811   8.384
 3261SOL    HW2 9783   4.197   0.668   8.458
 3262SOL     OW 9784   4.768   0.110   8.603
 3262SOL    HW1 9785   4.774   0.195   8.551
 3262SOL    HW2 9786   4.800   0.034   8.546
 3263SOL     OW 9787   4.259   0.055   8.573
 3263SOL    HW1 9788   4.217  -0.002   8.503
 3263SOL    HW2 9789   4.193   0.124   8.605
 3264SOL     OW 9790   4.328   0.875   7.862
 3264SOL    HW1 9791   4.372   0.964   7.853
 3264SOL    HW2 9792   4.265   0.875   7.939
 3265SOL     OW 9793   5.115   0.867   7.878
 3265SOL    HW1 9794   5.040   0.867   7.812
 3265SOL    HW2 9795   5.152   0.775   7.887
 3266SOL     OW 9796   4.964   0.530   7.108
 3266SOL    HW1 9797   4.977   0.446   7.162
 3266SOL    HW2 9798   4.935   0.604   7.168
 3267SOL     OW 9799   4.062   0.218   8.064
 3267SOL    HW1 9800   4.039   0.255   8.154
 3267SOL    HW2 9801   4.032   0.123   8.058
 3268SOL     OW 9802   3.792   1.315   8.115
 3268SOL    HW1 9803   3.845   1.266   8.183
 3268SOL    HW2 9804   3.814   1.413   8.120
 3269SOL     OW 9805   4.487   0.639   7.897
 3269SOL    HW1 9806   4.546   0.613   7.821
 3269SOL    HW2 9807   4.459   0.735   7.886
 3270SOL     OW 9808   4.062   0.068   7.451
 3270SOL    HW1 9809   4.051   0.162   7.484
 3270SOL    HW2 9810   4.057   0.005   7.528
 3271SOL     OW 9811   4.778   0.771   7.799
 3271SOL    HW1 9812   4.793   0.792   7.895
 3271SOL    HW2 9813   4.748   0.676   7.790
 3272SOL     OW 9814   4.735   1.578   8.533
 3272SOL    HW1 9815   4.715   1.622   8.445
 3272SOL    HW2 9816   4.774   1.487   8.517
 3273SOL     OW 9817   4.105   0.903   8.637
 3273SOL    HW1 9818   4.181   0.947   8.685
 3273SOL    HW2 9819   4.140   0.856   8.555
 3274SOL     OW 9820   5.295   0.279   6.958
 3274SOL    HW1 9821   5.234   0.204   6.981
 3274SOL    HW2 9822   5.317   0.331   7.041
 3275SOL     OW 9823   4.823   1.338   7.682
 3275SOL    HW1 9824   4.830   1.254   7.627
 3275SOL    HW2 9825   4.885   1.407   7.646
 3276SOL     OW 9826   4.074   0.815   7.782
 3276SOL    HW1 9827   4.167   0.851   7.787
 3276SOL    HW2 9828   4.068   0.730   7.834
 3277SOL     OW 9829   4.094   0.514   7.839
 3277SOL    HW1 9830   4.042   0.431   7.822
 3277SOL    HW2 9831   4.171   0.519   7.775
 3278SOL     OW 9832   4.893   0.385   8.511
 3278SOL    HW1 9833   4.848   0.448   8.575
 3278SOL    HW2 9834   4.986   0.416   8.494
 3279SOL     OW 9835   4.915   0.212   8.310
 3279SOL    HW1 9836   4.915   0.276   8.387
 3279SOL    HW2 9837   4.943   0.260   8.227
 3280SOL     OW 9838   3.763   1.331   7.033
 3280SOL    HW1 9839   3.670   1.352   7.002
 3280SOL    HW2 9840   3.773   1.232   7.046
 3281SOL     OW 9841   3.843   1.806   7.760
 3281SOL    HW1 9842   3.801   1.720   7.733
 3281SOL    HW2 9843   3.937   1.809   7.726
 3282SOL     OW 9844   4.259   1.573   7.743
 3282SOL    HW1 9845   4.325   1.647   7.752
 3282SOL    HW2 9846   4.303   1.494   7.701
 3283SOL     OW 9847   4.757   0.801   8.071
 3283SOL    HW1 9848   4.798   0.769   8.157
 3283SOL    HW2 9849   4.661   0.774   8.068
 3284SOL     OW 9850   3.795   0.549   7.947
 3284SOL    HW1 9851   3.880   0.516   7.906
 3284SOL    HW2 9852   3.808   0.564   8.045
 3285SOL     OW 9853   3.944   0.525   8.555
 3285SOL    HW1 9854   4.003   0.485   8.485
 3285SOL    HW2 9855   3.886   0.596   8.514
 3286SOL     OW 9856   4.570   0.577   7.158
 3286SOL    HW1 9857   4.577   0.488   7.112
 3286SOL    HW2 9858   4.476   0.611   7.150
 3287SOL     OW 9859   4.007   1.569   8.577
 3287SOL    HW1 9860   3.977   1.626   8.653
 3287SOL    HW2 9861   4.000   1.472   8.603
 3288SOL     OW 9862   4.426   0.469   8.102
 3288SOL    HW1 9863   4.392   0.380   8.072
 3288SOL    HW2 9864   4.452   0.523   8.022
 3289SOL     OW 9865   4.685   1.683   8.298
 3289SOL    HW1 9866   4.661   1.665   8.203
 3289SOL    HW2 9867   4.715   1.777   8.308
 3290SOL     OW 9868   4.228   0.505   7.024
 3290SOL    HW1 9869   4.289   0.585   7.028
 3290SOL    HW2 9870   4.133   0.536   7.031
 3291SOL     OW 9871   3.914   1.142   8.299
 3291SOL    HW1 9872   3.936   1.081   8.375
 3291SOL    HW2 9873   3.924   1.093   8.213
 3292SOL     OW 9874   5.007   1.736   7.961
 3292SOL    HW1 9875   5.091   1.741   7.907
 3292SOL    HW2 9876   4.984   1.640   7.979
 3293SOL     OW 9877   3.838   1.263   7.855
 3293SOL    HW1 9878   3.833   1.262   7.955
 3293SOL    HW2 9879   3.755   1.222   7.817
 3294SOL     OW 9880   4.443   1.667   8.549
 3294SOL    HW1 9881   4.387   1.748   8.558
 3294SOL    HW2 9882   4.495   1.671   8.463
 3295SOL     OW 9883   3.885   1.799   8.684
 3295SOL    HW1 9884   3.844   1.725   8.737
 3295SOL    HW2 9885   3.949   1.850   8.742
 3296SOL     OW 9886   4.585   1.278   8.255
 3296SOL    HW1 9887   4.580   1.311   8.350
 3296SOL    HW2 9888   4.499   1.297   8.209
 3297SOL     OW 9889   4.427   1.621   6.987
 3297SOL    HW1 9890   4.436   1.631   6.888
 3297SOL    HW2 9891   4.387   1.532   7.008
 3298SOL     OW 9892   4.018   0.331   7.553
 3298SOL    HW1 9893   3.939   0.382   7.519
 3298SOL    HW2 9894   4.009   0.316   7.651
 3299SOL     OW 9895   4.577   1.007   8.205
 3299SOL    HW1 9896   4.617   1.006   8.113
 3299SOL    HW2 9897   4.587   1.099   8.245
 3300SOL     OW 9898   4.671   0.915   7.124
 3300SOL    HW1 9899   4.734   0.953   7.056
 3300SOL    HW2 9900   4.711   0.832   7.163
 3301SOL     OW 9901   4.127   1.293   8.323
 3301SOL    HW1 9902   4.114   1.386   8.289
 3301SOL    HW2 9903   4.043   1.241   8.310
 3302SOL     OW 9904   4.794   1.103   7.529
 3302SOL    HW1 9905   4.724   1.056   7.583
 3302SOL    HW2 9906   4.853   1.035   7.486
 3303SOL     OW 9907   4.769   0.241   7.804
 3303SOL    HW1 9908   4.761   0.205   7.711
 3303SOL    HW2 9909   4.767   0.165   7.869
 3304SOL     OW 9910   4.345   1.492   7.324
 3304SOL    HW1 9911   4.387   1.434   7.254
 3304SOL    HW2 9912   4.301   1.571   7.280
 3305SOL     OW 9913   4.010   1.353   7.123
 3305SOL    HW1 9914   3.914   1.354   7.096
 3305SOL    HW2 9915   4.022   1.406   7.207
 3306SOL     OW 9916   3.860   1.018   8.559
 3306SOL    HW1 9917   3.783   0.985   8.613
 3306SOL    HW2 9918   3.945   0.988   8.601
 3307SOL     OW 9919   4.427   0.208   8.322
 3307SOL    HW1 9920   4.517   0.192   8.282
 3307SOL    HW2 9921   4.435   0.213   8.421
 3308SOL     OW 9922   3.830   0.350   6.866
 3308SOL    HW1 9923   3.738   0.322   6.837
 3308SOL    HW2 9924   3.861   0.427   6.810
 3309SOL     OW 9925   3.827   0.171   7.151
 3309SOL    HW1 9926   3.810   0.254   7.097
 3309SOL    HW2 9927   3.917   0.134   7.129
 3310SOL     OW 9928   4.368   0.847   8.264
 3310SOL    HW1 9929   4.424   0.928   8.247
 3310SOL    HW2 9930   4.427   0.767   8.267
 3311SOL     OW 9931   4.471   0.570   8.541
 3311SOL    HW1 9932   4.490   0.635   8.615
 3311SOL    HW2 9933   4.531   0.490   8.550
 3312SOL     OW 9934   4.145   1.746   8.393
 3312SOL    HW1 9935   4.054   1.787   8.391
 3312SOL    HW2 9936   4.138   1.652   8.425
 3313SOL     OW 9937   4.349   0.750   7.485
 3313SOL    HW1 9938   4.399   0.835   7.466
 3313SOL    HW2 9939   4.261   0.752   7.437
 3314SOL     OW 9940   4.614   1.379   6.849
 3314SOL    HW1 9941   4.568   1.394   6.937
 3314SOL    HW2 9942   4.658   1.464   6.819
 3315SOL     OW 9943   4.416   1.795   7.786
 3315SOL    HW1 9944   4.370   1.883   7.773
 3315SOL    HW2 9945   4.515   1.807   7.779
 3316SOL     OW 9946   4.614   0.961   7.694
 3316SOL    HW1 9947   4.668   0.892   7.742
 3316SOL    HW2 9948   4.582   1.030   7.760
 3317SOL     OW 9949   4.838   0.989   6.920
 3317SOL    HW1 9950   4.815   1.042   6.838
 3317SOL    HW2 9951   4.919   0.933   6.901
 3318SOL     OW 9952   3.976   1.319   8.677
 3318SOL    HW1 9953   3.911   1.246   8.656
 3318SOL    HW2 9954   3.980   1.333   8.775
 3319SOL     OW 9955   3.834   1.245   7.486
 3319SOL    HW1 9956   3.833   1.198   7.574
 3319SOL    HW2 9957   3.916   1.217   7.435
 3320SOL     OW 9958   4.427   1.396   8.457
 3320SOL    HW1 9959   4.349   1.346   8.495
 3320SOL    HW2 9960   4.424   1.491   8.488
 3321SOL     OW 9961   4.183   0.429   7.353
 3321SOL    HW1 9962   4.213   0.357   7.291
 3321SOL    HW2 9963   4.144   0.389   7.436
 3322SOL     OW 9964   4.072   0.552   8.113
 3322SOL    HW1 9965   4.110   0.493   8.185
 3322SOL    HW2 9966   4.112   0.526   8.025
 3323SOL     OW 9967   4.567   1.591   7.520
 3323SOL    HW1 9968   4.599   1.601   7.426
 3323SOL    HW2 9969   4.488   1.529   7.522
 3324SOL     OW 9970   4.756   0.039   7.987
 3324SOL    HW1 9971   4.693  -0.033   7.956
 3324SOL    HW2 9972   4.849   0.003   7.987
 3325SOL     OW 9973   4.525   1.335   7.134
 3325SOL    HW1 9974   4.479   1.248   7.151
 3325SOL    HW2 9975   4.616   1.332   7.175
 3326SOL     OW 9976   4.373   1.572   8.117
 3326SOL    HW1 9977   4.368   1.654   8.174
 3326SOL    HW2 9978   4.462   1.569   8.072
 3327SOL     OW 9979   3.794   1.082   7.133
 3327SOL    HW1 9980   3.893   1.071   7.124
 3327SOL    HW2 9981   3.754   0.996   7.165
 3328SOL     OW 9982   4.630   1.651   7.170
 3328SOL    HW1 9983   4.553   1.616   7.116
 3328SOL    HW2 9984   4.598   1.722   7.232
 3329SOL     OW 9985   3.985   0.633   8.808
 3329SOL    HW1 9986   3.892   0.631   8.845
 3329SOL    HW2 9987   3.986   0.594   8.716
 3330SOL     OW 9988   3.980   0.280   9.691
 3330SOL    HW1 9989   4.015   0.263   9.783
 3330SOL    HW2 9990   3.892   0.235   9.679
 3331SOL     OW 9991   3.774   0.373   9.342
 3331SOL    HW1 9992   3.692   0.416   9.381
 3331SOL    HW2 9993   3.746   0.300   9.279
 3332SOL     OW 9994   4.324   1.280   9.860
 3332SOL    HW1 9995   4.231   1.273   9.823
 3332SOL    HW2 9996   4.335   1.369   9.904
 3333SOL     OW 9997   4.890   0.708   9.412
 3333SOL    HW1 9998   4.947   0.786   9.387
 3333SOL    HW2 9999   4.830   0.734   9.488
 3334SOL     OW10000   4.523   1.149   9.718
 3334SOL    HW110001   4.445   1.166   9.778
 3334SOL    HW210002   4.557   1.236   9.682
 3335SOL     OW10003   4.440   1.017   9.360
 3335SOL    HW110004   4.509   1.001   9.430
 3335SOL    HW210005   4.367   1.074   9.398
 3336SOL     OW10006   4.090   1.440   9.756
 3336SOL    HW110007   4.012   1.409   9.703
 3336SOL    HW210008   4.148   1.498   9.699
 3337SOL     OW10009   5.215   1.510  10.034
 3337SOL    HW110010   5.239   1.604  10.060
 3337SOL    HW210011   5.199   1.456  10.116
 3338SOL     OW10012   3.986   1.718   9.178
 3338SOL    HW110013   4.020   1.795   9.232
 3338SOL    HW210014   4.030   1.718   9.088
 3339SOL     OW10015   3.985   1.439   9.233
 3339SOL    HW110016   3.959   1.535   9.233
 3339SOL    HW210017   3.914   1.385   9.278
 3340SOL     OW10018   3.995   1.096   9.581
 3340SOL    HW110019   4.009   1.012   9.633
 3340SOL    HW210020   3.940   1.160   9.636
 3341SOL     OW10021   4.361   0.969   8.818
 3341SOL    HW110022   4.368   1.053   8.764
 3341SOL    HW210023   4.407   0.982   8.906
 3342SOL     OW10024   3.877   0.648   9.258
 3342SOL    HW110025   3.832   0.560   9.275
 3342SOL    HW210026   3.876   0.702   9.342
 3343SOL     OW10027   3.782   1.601   8.812
 3343SOL    HW110028   3.763   1.505   8.833
 3343SOL    HW210029   3.749   1.659   8.887
 3344SOL     OW10030   4.368   1.370   9.421
 3344SOL    HW110031   4.319   1.283   9.430
 3344SOL    HW210032   4.345   1.413   9.334
 3345SOL     OW10033   4.564   0.009   9.197
 3345SOL    HW110034   4.604   0.100   9.188
 3345SOL    HW210035   4.464   0.017   9.203
 3346SOL     OW10036   3.952   0.981   9.959
 3346SOL    HW110037   4.041   0.936   9.945
 3346SOL    HW210038   3.879   0.916   9.940
 3347SOL     OW10039   4.353   0.734   8.965
 3347SOL    HW110040   4.377   0.803   8.897
 3347SOL    HW210041   4.275   0.767   9.019
 3348SOL     OW10042   4.796   0.706   9.124
 3348SOL    HW110043   4.822   0.702   9.220
 3348SOL    HW210044   4.711   0.655   9.110
 3349SOL     OW10045   3.831   0.816   9.484
 3349SOL    HW110046   3.930   0.804   9.493
 3349SOL    HW210047   3.807   0.911   9.505
 3350SOL     OW10048   4.620   0.353   8.890
 3350SOL    HW110049   4.679   0.416   8.841
 3350SOL    HW210050   4.639   0.259   8.861
 3351SOL     OW10051   4.305   0.201   9.580
 3351SOL    HW110052   4.300   0.196   9.680
 3351SOL    HW210053   4.307   0.297   9.551
 3352SOL     OW10054   4.763   1.461   9.172
 3352SOL    HW110055   4.717   1.533   9.120
 3352SOL    HW210056   4.759   1.481   9.270
 3353SOL     OW10057   4.106   1.806   9.548
 3353SOL    HW110058   4.156   1.720   9.554
 3353SOL    HW210059   4.171   1.883   9.545
 3354SOL     OW10060   4.076   0.948   8.937
 3354SOL    HW110061   4.158   0.987   8.895
 3354SOL    HW210062   4.049   0.866   8.888
 3355SOL     OW10063   4.866   1.781   8.932
 3355SOL    HW110064   4.806   1.719   8.982
 3355SOL    HW210065   4.897   1.737   8.847
 3356SOL     OW10066   4.219   1.748   9.018
 3356SOL    HW110067   4.252   1.787   9.104
 3356SOL    HW210068   4.295   1.741   8.953
 3357SOL     OW10069   4.004   1.790   9.936
 3357SOL    HW110070   4.061   1.725   9.986
 3357SOL    HW210071   3.988   1.757   9.843
 3358SOL     OW10072   4.695   1.703   9.599
 3358SOL    HW110073   4.775   1.646   9.620
 3358SOL    HW210074   4.646   1.663   9.522
 3359SOL     OW10075   4.137   0.705   9.175
 3359SOL    HW110076   4.182   0.615   9.172
 3359SOL    HW210077   4.043   0.694   9.208
 3360SOL     OW10078   4.369   0.127   8.812
 3360SOL    HW110079   4.467   0.105   8.819
 3360SOL    HW210080   4.338   0.110   8.719
 3361SOL     OW10081   4.558   1.407   9.619
 3361SOL    HW110082   4.648   1.421   9.577
 3361SOL    HW210083   4.487   1.409   9.548
 3362SOL     OW10084   4.677   0.508   9.594
 3362SOL    HW110085   4.652   0.499   9.498
 3362SOL    HW210086   4.725   0.426   9.625
 3363SOL     OW10087   4.294   0.069   9.207
 3363SOL    HW110088   4.213   0.070   9.265
 3363SOL    HW210089   4.297   0.152   9.152
 3364SOL     OW10090   4.052   0.040   8.866
 3364SOL    HW110091   4.101   0.124   8.845
 3364SOL    HW210092   4.114  -0.025   8.911
 3365SOL     OW10093   4.690   0.241   9.175
 3365SOL    HW110094   4.642   0.282   9.097
 3365SOL    HW210095   4.789   0.239   9.156
 3366SOL     OW10096   4.982   1.575   9.488
 3366SOL    HW110097   5.003   1.649   9.423
 3366SOL    HW210098   5.050   1.575   9.561
 3367SOL     OW10099   4.214   1.157   9.436
 3367SOL    HW110100   4.143   1.130   9.501
 3367SOL    HW210101   4.188   1.129   9.343
 3368SOL     OW10102   5.026   1.802   9.286
 3368SOL    HW110103   5.070   1.866   9.222
 3368SOL    HW210104   4.976   1.854   9.356
 3369SOL     OW10105   4.787   0.554   8.711
 3369SOL    HW110106   4.746   0.636   8.672
 3369SOL    HW210107   4.851   0.580   8.784
 3370SOL     OW10108   4.621   0.459   9.337
 3370SOL    HW110109   4.589   0.531   9.275
 3370SOL    HW210110   4.645   0.378   9.284
 3371SOL     OW10111   4.772   0.044   9.448
 3371SOL    HW110112   4.700   0.049   9.379
 3371SOL    HW210113   4.748  -0.025   9.517
 3372SOL     OW10114   4.243   1.390   8.869
 3372SOL    HW110115   4.156   1.375   8.916
 3372SOL    HW210116   4.226   1.416   8.774
 3373SOL     OW10117   4.282   0.261   9.023
 3373SOL    HW110118   4.309   0.202   8.948
 3373SOL    HW210119   4.282   0.356   8.992
 3374SOL     OW10120   4.866   1.200   9.795
 3374SOL    HW110121   4.826   1.244   9.876
 3374SOL    HW210122   4.825   1.237   9.712
 3375SOL     OW10123   4.460   1.055   9.063
 3375SOL    HW110124   4.446   1.062   9.162
 3375SOL    HW210125   4.544   1.004   9.045
 3376SOL     OW10126   4.165   0.818   9.946
 3376SOL    HW110127   4.251   0.830   9.996
 3376SOL    HW210128   4.123   0.731   9.973
 3377SOL     OW10129   4.122   1.105   9.196
 3377SOL    HW110130   4.115   1.188   9.140
 3377SOL    HW210131   4.126   1.025   9.136
 3378SOL     OW10132   4.321   0.542   9.560
 3378SOL    HW110133   4.333   0.608   9.486
 3378SOL    HW210134   4.367   0.576   9.643
 3379SOL     OW10135   5.007   1.353   9.083
 3379SOL    HW110136   5.057   1.430   9.123
 3379SOL    HW210137   4.912   1.355   9.115
 3380SOL     OW10138   4.328   0.875   9.724
 3380SOL    HW110139   4.372   0.964   9.715
 3380SOL    HW210140   4.265   0.875   9.801
 3381SOL     OW10141   5.115   0.867   9.740
 3381SOL    HW110142   5.040   0.867   9.674
 3381SOL    HW210143   5.152   0.775   9.749
 3382SOL     OW10144   4.964   0.530   8.970
 3382SOL    HW110145   4.977   0.446   9.024
 3382SOL    HW210146   4.935   0.604   9.030
 3383SOL     OW10147   4.062   0.218   9.926
 3383SOL    HW110148   4.039   0.255  10.016
 3383SOL    HW210149   4.032   0.123   9.920
 3384SOL     OW10150   3.792   1.315   9.977
 3384SOL    HW110151   3.845   1.266  10.045
 3384SOL    HW210152   3.814   1.413   9.982
 3385SOL     OW10153   4.487   0.639   9.759
 3385SOL    HW110154   4.546   0.613   9.683
 3385SOL    HW210155   4.459   0.735   9.748
 3386SOL     OW10156   4.062   0.068   9.313
 3386SOL    HW110157   4.051   0.162   9.346
 3386SOL    HW210158   4.057   0.005   9.390
 3387SOL     OW10159   4.778   0.771   9.661
 3387SOL    HW110160   4.793   0.792   9.757
 3387SOL    HW210161   4.748   0.676   9.652
 3388SOL     OW10162   5.295   0.279   8.820
 3388SOL    HW110163   5.234   0.204   8.843
 3388SOL    HW210164   5.317   0.331   8.903
 3389SOL     OW10165   4.823   1.338   9.544
 3389SOL    HW110166   4.830   1.254   9.489
 3389SOL    HW210167   4.885   1.407   9.508
 3390SOL     OW10168   4.074   0.815   9.644
 3390SOL    HW110169   4.167   0.851   9.649
 3390SOL    HW210170   4.068   0.730   9.696
 3391SOL     OW10171   4.094   0.514   9.701
 3391SOL    HW110172   4.042   0.431   9.684
 3391SOL    HW210173   4.171   0.519   9.637
 3392SOL     OW10174   3.763   1.331   8.895
 3392SOL    HW110175   3.670   1.352   8.864
 3392SOL    HW210176   3.773   1.232   8.908
 3393SOL     OW10177   3.843   1.806   9.622
 3393SOL    HW110178   3.801   1.720   9.595
 3393SOL    HW210179   3.937   1.809   9.588
 3394SOL     OW10180   4.259   1.573   9.605
 3394SOL    HW110181   4.325   1.647   9.614
 3394SOL    HW210182   4.303   1.494   9.563
 3395SOL     OW10183   4.757   0.801   9.933
 3395SOL    HW110184   4.798   0.769  10.019
 3395SOL    HW210185   4.661   0.774   9.930
 3396SOL     OW10186   3.795   0.549   9.809
 3396SOL    HW110187   3.880   0.516   9.768
 3396SOL    HW210188   3.808   0.564   9.907
 3397SOL     OW10189   4.570   0.577   9.020
 3397SOL    HW110190   4.577   0.488   8.974
 3397SOL    HW210191   4.476   0.611   9.012
 3398SOL     OW10192   4.426   0.469   9.964
 3398SOL    HW110193   4.392   0.380   9.934
 3398SOL    HW210194   4.452   0.523   9.884
 3399SOL     OW10195   4.228   0.505   8.886
 3399SOL    HW110196   4.289   0.585   8.890
 3399SOL    HW210197   4.133   0.536   8.893
 3400SOL     OW10198   3.914   1.142  10.161
 3400SOL    HW110199   3.936   1.081  10.237
 3400SOL    HW210200   3.924   1.093  10.075
 3401SOL     OW10201   5.007   1.736   9.823
 3401SOL    HW110202   5.091   1.741   9.769
 3401SOL    HW210203   4.984   1.640   9.841
 3402SOL     OW10204   3.838   1.263   9.717
 3402SOL    HW110205   3.833   1.262   9.817
 3402SOL    HW210206   3.755   1.222   9.679
 3403SOL     OW10207   4.427   1.621   8.849
 3403SOL    HW110208   4.436   1.631   8.750
 3403SOL    HW210209   4.387   1.532   8.870
 3404SOL     OW10210   4.018   0.331   9.415
 3404SOL    HW110211   3.939   0.382   9.381
 3404SOL    HW210212   4.009   0.316   9.513
 3405SOL     OW10213   4.577   1.007  10.067
 3405SOL    HW110214   4.617   1.006   9.975
 3405SOL    HW210215   4.587   1.099  10.107
 3406SOL     OW10216   4.671   0.915   8.986
 3406SOL    HW110217   4.734   0.953   8.918
 3406SOL    HW210218   4.711   0.832   9.025
 3407SOL     OW10219   4.794   1.103   9.391
 3407SOL    HW110220   4.724   1.056   9.445
 3407SOL    HW210221   4.853   1.035   9.348
 3408SOL     OW10222   4.769   0.241   9.666
 3408SOL    HW110223   4.761   0.205   9.573
 3408SOL    HW210224   4.767   0.165   9.731
 3409SOL     OW10225   4.345   1.492   9.186
 3409SOL    HW110226   4.387   1.434   9.116
 3409SOL    HW210227   4.301   1.571   9.142
 3410SOL     OW10228   4.010   1.353   8.985
 3410SOL    HW110229   3.914   1.354   8.958
 3410SOL    HW210230   4.022   1.406   9.069
 3411SOL     OW10231   3.830   0.350   8.728
 3411SOL    HW110232   3.738   0.322   8.699
 3411SOL    HW210233   3.861   0.427   8.672
 3412SOL     OW10234   3.827   0.171   9.013
 3412SOL    HW110235   3.810   0.254   8.959
 3412SOL    HW210236   3.917   0.134   8.991
 3413SOL     OW10237   4.349   0.750   9.347
 3413SOL    HW110238   4.399   0.835   9.328
 3413SOL    HW210239   4.261   0.752   9.299
 3414SOL     OW10240   4.614   1.379   8.711
 3414SOL    HW110241   4.568   1.394   8.799
 3414SOL    HW210242   4.658   1.464   8.681
 3415SOL     OW10243   4.416   1.795   9.648
 3415SOL    HW110244   4.370   1.883   9.635
 3415SOL    HW210245   4.515   1.807   9.641
 3416SOL     OW10246   4.614   0.961   9.556
 3416SOL    HW110247   4.668   0.892   9.604
 3416SOL    HW210248   4.582   1.030   9.622
 3417SOL     OW10249   4.838   0.989   8.782
 3417SOL    HW110250   4.815   1.042   8.700
 3417SOL    HW210251   4.919   0.933   8.763
 3418SOL     OW10252   3.834   1.245   9.348
 3418SOL    HW110253   3.833   1.198   9.436
 3418SOL    HW210254   3.916   1.217   9.297
 3419SOL     OW10255   4.183   0.429   9.215
 3419SOL    HW110256   4.213   0.357   9.153
 3419SOL    HW210257   4.144   0.389   9.298
 3420SOL     OW10258   4.567   1.591   9.382
 3420SOL    HW110259   4.599   1.601   9.288
 3420SOL    HW210260   4.488   1.529   9.384
 3421SOL     OW10261   4.756   0.039   9.849
 3421SOL    HW110262   4.693  -0.033   9.818
 3421SOL    HW210263   4.849   0.003   9.849
 3422SOL     OW10264   4.525   1.335   8.996
 3422SOL    HW110265   4.479   1.248   9.013
 3422SOL    HW210266   4.616   1.332   9.037
 3423SOL     OW10267   3.794   1.082   8.995
 3423SOL    HW110268   3.893   1.071   8.986
 3423SOL    HW210269   3.754   0.996   9.027
 3424SOL     OW10270   4.630   1.651   9.032
 3424SOL    HW110271   4.553   1.616   8.978
 3424SOL    HW210272   4.598   1.722   9.094
 3425SOL     OW10273   3.985   2.495   5.084
 3425SOL    HW110274   3.892   2.493   5.121
 3425SOL    HW210275   3.986   2.456   4.992
 3426SOL     OW10276   3.980   2.142   5.967
 3426SOL    HW110277   4.015   2.125   6.059
 3426SOL    HW210278   3.892   2.097   5.955
 3427SOL     OW10279   3.774   2.235   5.618
 3427SOL    HW110280   3.692   2.278   5.657
 3427SOL    HW210281   3.746   2.162   5.555
 3428SOL     OW10282   4.324   3.142   6.136
 3428SOL    HW110283   4.231   3.135   6.099
 3428SOL    HW210284   4.335   3.231   6.180
 3429SOL     OW10285   4.890   2.570   5.688
 3429SOL    HW110286   4.947   2.648   5.663
 3429SOL    HW210287   4.830   2.596   5.764
 3430SOL     OW10288   4.523   3.011   5.994
 3430SOL    HW110289   4.445   3.028   6.054
 3430SOL    HW210290   4.557   3.098   5.958
 3431SOL     OW10291   4.605   2.665   6.794
 3431SOL    HW110292   4.601   2.741   6.859
 3431SOL    HW210293   4.627   2.701   6.703
 3432SOL     OW10294   4.440   2.879   5.636
 3432SOL    HW110295   4.509   2.863   5.706
 3432SOL    HW210296   4.367   2.936   5.674
 3433SOL     OW10297   4.441   3.028   6.774
 3433SOL    HW110298   4.501   3.107   6.788
 3433SOL    HW210299   4.355   3.059   6.733
 3434SOL     OW10300   4.090   3.302   6.032
 3434SOL    HW110301   4.012   3.271   5.979
 3434SOL    HW210302   4.148   3.360   5.975
 3435SOL     OW10303   4.193   2.259   6.470
 3435SOL    HW110304   4.275   2.203   6.479
 3435SOL    HW210305   4.112   2.201   6.474
 3436SOL     OW10306   3.986   3.580   5.454
 3436SOL    HW110307   4.020   3.657   5.508
 3436SOL    HW210308   4.030   3.580   5.364
 3437SOL     OW10309   4.882   3.208   6.661
 3437SOL    HW110310   4.929   3.208   6.749
 3437SOL    HW210311   4.834   3.121   6.650
 3438SOL     OW10312   3.985   3.301   5.509
 3438SOL    HW110313   3.959   3.397   5.509
 3438SOL    HW210314   3.914   3.247   5.554
 3439SOL     OW10315   3.995   2.958   5.857
 3439SOL    HW110316   4.009   2.874   5.909
 3439SOL    HW210317   3.940   3.022   5.912
 3440SOL     OW10318   4.375   3.653   6.410
 3440SOL    HW110319   4.283   3.636   6.445
 3440SOL    HW210320   4.403   3.745   6.436
 3441SOL     OW10321   4.361   2.831   5.094
 3441SOL    HW110322   4.368   2.915   5.040
 3441SOL    HW210323   4.407   2.844   5.182
 3442SOL     OW10324   3.877   2.510   5.534
 3442SOL    HW110325   3.832   2.422   5.551
 3442SOL    HW210326   3.876   2.564   5.618
 3443SOL     OW10327   3.782   3.463   5.088
 3443SOL    HW110328   3.763   3.367   5.109
 3443SOL    HW210329   3.749   3.521   5.163
 3444SOL     OW10330   3.868   2.604   6.568
 3444SOL    HW110331   3.956   2.591   6.613
 3444SOL    HW210332   3.855   2.701   6.546
 3445SOL     OW10333   4.368   3.232   5.697
 3445SOL    HW110334   4.319   3.145   5.706
 3445SOL    HW210335   4.345   3.275   5.610
 3446SOL     OW10336   4.564   1.871   5.473
 3446SOL    HW110337   4.604   1.962   5.464
 3446SOL    HW210338   4.464   1.879   5.479
 3447SOL     OW10339   3.952   2.843   6.235
 3447SOL    HW110340   4.041   2.798   6.221
 3447SOL    HW210341   3.879   2.778   6.216
 3448SOL     OW10342   4.072   2.118   6.772
 3448SOL    HW110343   4.143   2.189   6.778
 3448SOL    HW210344   3.984   2.157   6.800
 3449SOL     OW10345   4.353   2.596   5.241
 3449SOL    HW110346   4.377   2.665   5.173
 3449SOL    HW210347   4.275   2.629   5.295
 3450SOL     OW10348   4.562   2.472   6.436
 3450SOL    HW110349   4.515   2.469   6.525
 3450SOL    HW210350   4.511   2.417   6.370
 3451SOL     OW10351   4.728   2.757   6.543
 3451SOL    HW110352   4.774   2.673   6.514
 3451SOL    HW210353   4.672   2.791   6.468
 3452SOL     OW10354   4.746   2.277   6.213
 3452SOL    HW110355   4.669   2.311   6.267
 3452SOL    HW210356   4.712   2.226   6.134
 3453SOL     OW10357   4.796   2.568   5.400
 3453SOL    HW110358   4.822   2.564   5.496
 3453SOL    HW210359   4.711   2.517   5.386
 3454SOL     OW10360   3.831   2.678   5.760
 3454SOL    HW110361   3.930   2.666   5.769
 3454SOL    HW210362   3.807   2.773   5.781
 3455SOL     OW10363   3.885   3.688   6.542
 3455SOL    HW110364   3.875   3.673   6.641
 3455SOL    HW210365   3.799   3.724   6.506
 3456SOL     OW10366   4.620   2.215   5.166
 3456SOL    HW110367   4.679   2.278   5.117
 3456SOL    HW210368   4.639   2.121   5.137
 3457SOL     OW10369   4.305   2.063   5.856
 3457SOL    HW110370   4.300   2.058   5.956
 3457SOL    HW210371   4.307   2.159   5.827
 3458SOL     OW10372   4.763   3.323   5.448
 3458SOL    HW110373   4.717   3.395   5.396
 3458SOL    HW210374   4.759   3.343   5.546
 3459SOL     OW10375   4.106   3.668   5.824
 3459SOL    HW110376   4.156   3.582   5.830
 3459SOL    HW210377   4.171   3.745   5.821
 3460SOL     OW10378   4.982   3.417   6.477
 3460SOL    HW110379   4.988   3.340   6.541
 3460SOL    HW210380   4.930   3.391   6.397
 3461SOL     OW10381   4.076   2.810   5.213
 3461SOL    HW110382   4.158   2.849   5.171
 3461SOL    HW210383   4.049   2.728   5.164
 3462SOL     OW10384   4.216   3.133   6.698
 3462SOL    HW110385   4.166   3.134   6.612
 3462SOL    HW210386   4.153   3.115   6.774
 3463SOL     OW10387   4.866   3.643   5.208
 3463SOL    HW110388   4.806   3.581   5.258
 3463SOL    HW210389   4.897   3.599   5.123
 3464SOL     OW10390   3.957   2.152   6.469
 3464SOL    HW110391   3.877   2.212   6.456
 3464SOL    HW210392   3.947   2.103   6.555
 3465SOL     OW10393   4.219   3.610   5.294
 3465SOL    HW110394   4.252   3.649   5.380
 3465SOL    HW210395   4.295   3.603   5.229
 3466SOL     OW10396   4.004   3.652   6.212
 3466SOL    HW110397   4.061   3.587   6.262
 3466SOL    HW210398   3.988   3.619   6.119
 3467SOL     OW10399   4.695   3.565   5.875
 3467SOL    HW110400   4.775   3.508   5.896
 3467SOL    HW210401   4.646   3.525   5.798
 3468SOL     OW10402   4.137   2.567   5.451
 3468SOL    HW110403   4.182   2.477   5.448
 3468SOL    HW210404   4.043   2.556   5.484
 3469SOL     OW10405   4.369   1.989   5.088
 3469SOL    HW110406   4.467   1.967   5.095
 3469SOL    HW210407   4.338   1.972   4.995
 3470SOL     OW10408   4.536   2.131   6.720
 3470SOL    HW110409   4.603   2.070   6.763
 3470SOL    HW210410   4.463   2.150   6.785
 3471SOL     OW10411   4.643   3.381   6.166
 3471SOL    HW110412   4.620   3.356   6.072
 3471SOL    HW210413   4.704   3.312   6.205
 3472SOL     OW10414   4.558   3.269   5.895
 3472SOL    HW110415   4.648   3.283   5.853
 3472SOL    HW210416   4.487   3.271   5.824
 3473SOL     OW10417   4.677   2.370   5.870
 3473SOL    HW110418   4.652   2.361   5.774
 3473SOL    HW210419   4.725   2.288   5.901
 3474SOL     OW10420   4.294   1.931   5.483
 3474SOL    HW110421   4.213   1.932   5.541
 3474SOL    HW210422   4.297   2.014   5.428
 3475SOL     OW10423   4.052   1.902   5.142
 3475SOL    HW110424   4.101   1.986   5.121
 3475SOL    HW210425   4.114   1.837   5.187
 3476SOL     OW10426   4.690   2.103   5.451
 3476SOL    HW110427   4.642   2.144   5.373
 3476SOL    HW210428   4.789   2.101   5.432
 3477SOL     OW10429   4.831   2.550   6.435
 3477SOL    HW110430   4.751   2.489   6.438
 3477SOL    HW210431   4.912   2.497   6.411
 3478SOL     OW10432   4.982   3.437   5.764
 3478SOL    HW110433   5.003   3.511   5.699
 3478SOL    HW210434   5.050   3.437   5.837
 3479SOL     OW10435   4.214   3.019   5.712
 3479SOL    HW110436   4.143   2.992   5.777
 3479SOL    HW210437   4.188   2.991   5.619
 3480SOL     OW10438   5.026   3.664   5.562
 3480SOL    HW110439   5.070   3.728   5.498
 3480SOL    HW210440   4.976   3.716   5.632
 3481SOL     OW10441   4.787   2.416   4.987
 3481SOL    HW110442   4.746   2.498   4.948
 3481SOL    HW210443   4.851   2.442   5.060
 3482SOL     OW10444   3.833   2.423   6.357
 3482SOL    HW110445   3.925   2.422   6.316
 3482SOL    HW210446   3.827   2.497   6.424
 3483SOL     OW10447   4.316   2.089   6.118
 3483SOL    HW110448   4.354   2.005   6.155
 3483SOL    HW210449   4.228   2.108   6.162
 3484SOL     OW10450   4.621   2.321   5.613
 3484SOL    HW110451   4.589   2.393   5.551
 3484SOL    HW210452   4.645   2.240   5.560
 3485SOL     OW10453   4.772   1.906   5.724
 3485SOL    HW110454   4.700   1.911   5.655
 3485SOL    HW210455   4.748   1.837   5.793
 3486SOL     OW10456   4.243   3.252   5.145
 3486SOL    HW110457   4.156   3.237   5.192
 3486SOL    HW210458   4.226   3.278   5.050
 3487SOL     OW10459   4.282   2.123   5.299
 3487SOL    HW110460   4.309   2.064   5.224
 3487SOL    HW210461   4.282   2.218   5.268
 3488SOL     OW10462   4.819   3.214   6.311
 3488SOL    HW110463   4.739   3.191   6.366
 3488SOL    HW210464   4.902   3.188   6.360
 3489SOL     OW10465   4.866   3.062   6.071
 3489SOL    HW110466   4.826   3.106   6.152
 3489SOL    HW210467   4.825   3.099   5.988
 3490SOL     OW10468   4.670   1.956   6.373
 3490SOL    HW110469   4.695   1.936   6.278
 3490SOL    HW210470   4.742   2.012   6.415
 3491SOL     OW10471   4.735   2.983   6.690
 3491SOL    HW110472   4.636   2.989   6.700
 3491SOL    HW210473   4.758   2.903   6.634
 3492SOL     OW10474   4.460   2.917   5.339
 3492SOL    HW110475   4.446   2.924   5.438
 3492SOL    HW210476   4.544   2.866   5.321
 3493SOL     OW10477   4.165   2.680   6.222
 3493SOL    HW110478   4.251   2.692   6.272
 3493SOL    HW210479   4.123   2.593   6.249
 3494SOL     OW10480   3.819   3.431   6.302
 3494SOL    HW110481   3.773   3.513   6.268
 3494SOL    HW210482   3.917   3.450   6.311
 3495SOL     OW10483   4.122   2.967   5.472
 3495SOL    HW110484   4.115   3.050   5.416
 3495SOL    HW210485   4.126   2.887   5.412
 3496SOL     OW10486   4.321   2.404   5.836
 3496SOL    HW110487   4.333   2.470   5.762
 3496SOL    HW210488   4.367   2.438   5.919
 3497SOL     OW10489   5.007   3.215   5.359
 3497SOL    HW110490   5.057   3.292   5.399
 3497SOL    HW210491   4.912   3.217   5.391
 3498SOL     OW10492   4.109   3.377   6.300
 3498SOL    HW110493   4.088   3.333   6.213
 3498SOL    HW210494   4.206   3.403   6.303
 3499SOL     OW10495   4.157   2.618   6.569
 3499SOL    HW110496   4.225   2.673   6.522
 3499SOL    HW210497   4.197   2.530   6.596
 3500SOL     OW10498   4.768   1.972   6.741
 3500SOL    HW110499   4.774   2.057   6.689
 3500SOL    HW210500   4.800   1.896   6.684
 3501SOL     OW10501   4.259   1.917   6.711
 3501SOL    HW110502   4.217   1.860   6.641
 3501SOL    HW210503   4.193   1.986   6.743
 3502SOL     OW10504   4.328   2.737   6.000
 3502SOL    HW110505   4.372   2.826   5.991
 3502SOL    HW210506   4.265   2.737   6.077
 3503SOL     OW10507   5.115   2.729   6.016
 3503SOL    HW110508   5.040   2.729   5.950
 3503SOL    HW210509   5.152   2.637   6.025
 3504SOL     OW10510   4.964   2.392   5.246
 3504SOL    HW110511   4.977   2.308   5.300
 3504SOL    HW210512   4.935   2.466   5.306
 3505SOL     OW10513   4.062   2.080   6.202
 3505SOL    HW110514   4.039   2.117   6.292
 3505SOL    HW210515   4.032   1.985   6.196
 3506SOL     OW10516   3.792   3.177   6.253
 3506SOL    HW110517   3.845   3.128   6.321
 3506SOL    HW210518   3.814   3.275   6.258
 3507SOL     OW10519   4.487   2.501   6.035
 3507SOL    HW110520   4.546   2.475   5.959
 3507SOL    HW210521   4.459   2.597   6.024
 3508SOL     OW10522   4.062   1.930   5.589
 3508SOL    HW110523   4.051   2.024   5.622
 3508SOL    HW210524   4.057   1.867   5.666
 3509SOL     OW10525   4.778   2.633   5.937
 3509SOL    HW110526   4.793   2.654   6.033
 3509SOL    HW210527   4.748   2.538   5.928
 3510SOL     OW10528   4.735   3.440   6.671
 3510SOL    HW110529   4.715   3.484   6.583
 3510SOL    HW210530   4.774   3.349   6.655
 3511SOL     OW10531   4.105   2.765   6.775
 3511SOL    HW110532   4.181   2.809   6.823
 3511SOL    HW210533   4.140   2.718   6.693
 3512SOL     OW10534   4.823   3.200   5.820
 3512SOL    HW110535   4.830   3.116   5.765
 3512SOL    HW210536   4.885   3.269   5.784
 3513SOL     OW10537   4.074   2.677   5.920
 3513SOL    HW110538   4.167   2.713   5.925
 3513SOL    HW210539   4.068   2.592   5.972
 3514SOL     OW10540   4.094   2.376   5.977
 3514SOL    HW110541   4.042   2.293   5.960
 3514SOL    HW210542   4.171   2.381   5.913
 3515SOL     OW10543   4.893   2.247   6.649
 3515SOL    HW110544   4.848   2.310   6.713
 3515SOL    HW210545   4.986   2.278   6.632
 3516SOL     OW10546   4.915   2.074   6.448
 3516SOL    HW110547   4.915   2.138   6.525
 3516SOL    HW210548   4.943   2.122   6.365
 3517SOL     OW10549   3.763   3.193   5.171
 3517SOL    HW110550   3.670   3.214   5.140
 3517SOL    HW210551   3.773   3.094   5.184
 3518SOL     OW10552   3.843   3.668   5.898
 3518SOL    HW110553   3.801   3.582   5.871
 3518SOL    HW210554   3.937   3.671   5.864
 3519SOL     OW10555   4.259   3.435   5.881
 3519SOL    HW110556   4.325   3.509   5.890
 3519SOL    HW210557   4.303   3.356   5.839
 3520SOL     OW10558   4.757   2.663   6.209
 3520SOL    HW110559   4.798   2.631   6.295
 3520SOL    HW210560   4.661   2.636   6.206
 3521SOL     OW10561   3.795   2.411   6.085
 3521SOL    HW110562   3.880   2.378   6.044
 3521SOL    HW210563   3.808   2.426   6.183
 3522SOL     OW10564   3.944   2.387   6.693
 3522SOL    HW110565   4.003   2.347   6.623
 3522SOL    HW210566   3.886   2.458   6.652
 3523SOL     OW10567   4.570   2.439   5.296
 3523SOL    HW110568   4.577   2.350   5.250
 3523SOL    HW210569   4.476   2.473   5.288
 3524SOL     OW10570   4.007   3.431   6.715
 3524SOL    HW110571   3.977   3.488   6.791
 3524SOL    HW210572   4.000   3.334   6.741
 3525SOL     OW10573   4.426   2.331   6.240
 3525SOL    HW110574   4.392   2.242   6.210
 3525SOL    HW210575   4.452   2.385   6.160
 3526SOL     OW10576   4.685   3.545   6.436
 3526SOL    HW110577   4.661   3.527   6.341
 3526SOL    HW210578   4.715   3.639   6.446
 3527SOL     OW10579   4.228   2.367   5.162
 3527SOL    HW110580   4.289   2.447   5.166
 3527SOL    HW210581   4.133   2.398   5.169
 3528SOL     OW10582   3.914   3.004   6.437
 3528SOL    HW110583   3.936   2.943   6.513
 3528SOL    HW210584   3.924   2.955   6.351
 3529SOL     OW10585   5.007   3.598   6.099
 3529SOL    HW110586   5.091   3.603   6.045
 3529SOL    HW210587   4.984   3.502   6.117
 3530SOL     OW10588   3.838   3.125   5.993
 3530SOL    HW110589   3.833   3.124   6.093
 3530SOL    HW210590   3.755   3.084   5.955
 3531SOL     OW10591   4.443   3.529   6.687
 3531SOL    HW110592   4.387   3.610   6.696
 3531SOL    HW210593   4.495   3.533   6.601
 3532SOL     OW10594   4.658   1.953   5.104
 3532SOL    HW110595   4.709   1.954   5.018
 3532SOL    HW210596   4.714   1.911   5.175
 3533SOL     OW10597   3.885   3.661   6.822
 3533SOL    HW110598   3.844   3.587   6.875
 3533SOL    HW210599   3.949   3.712   6.880
 3534SOL     OW10600   4.585   3.140   6.393
 3534SOL    HW110601   4.580   3.173   6.488
 3534SOL    HW210602   4.499   3.159   6.347
 3535SOL     OW10603   4.427   3.483   5.125
 3535SOL    HW110604   4.436   3.493   5.026
 3535SOL    HW210605   4.387   3.394   5.146
 3536SOL     OW10606   4.018   2.193   5.691
 3536SOL    HW110607   3.939   2.244   5.657
 3536SOL    HW210608   4.009   2.178   5.789
 3537SOL     OW10609   4.577   2.869   6.343
 3537SOL    HW110610   4.617   2.868   6.251
 3537SOL    HW210611   4.587   2.961   6.383
 3538SOL     OW10612   4.671   2.777   5.262
 3538SOL    HW110613   4.734   2.815   5.194
 3538SOL    HW210614   4.711   2.694   5.301
 3539SOL     OW10615   4.127   3.155   6.461
 3539SOL    HW110616   4.114   3.248   6.427
 3539SOL    HW210617   4.043   3.103   6.448
 3540SOL     OW10618   4.794   2.965   5.667
 3540SOL    HW110619   4.724   2.918   5.721
 3540SOL    HW210620   4.853   2.897   5.624
 3541SOL     OW10621   4.769   2.103   5.942
 3541SOL    HW110622   4.761   2.067   5.849
 3541SOL    HW210623   4.767   2.027   6.007
 3542SOL     OW10624   4.345   3.354   5.462
 3542SOL    HW110625   4.387   3.296   5.392
 3542SOL    HW210626   4.301   3.433   5.418
 3543SOL     OW10627   4.010   3.215   5.261
 3543SOL    HW110628   3.914   3.216   5.234
 3543SOL    HW210629   4.022   3.268   5.345
 3544SOL     OW10630   3.860   2.880   6.697
 3544SOL    HW110631   3.783   2.847   6.751
 3544SOL    HW210632   3.945   2.850   6.739
 3545SOL     OW10633   4.427   2.070   6.460
 3545SOL    HW110634   4.517   2.054   6.420
 3545SOL    HW210635   4.435   2.075   6.559
 3546SOL     OW10636   3.827   2.033   5.289
 3546SOL    HW110637   3.810   2.116   5.235
 3546SOL    HW210638   3.917   1.996   5.267
 3547SOL     OW10639   4.368   2.709   6.402
 3547SOL    HW110640   4.424   2.790   6.385
 3547SOL    HW210641   4.427   2.629   6.405
 3548SOL     OW10642   4.471   2.432   6.679
 3548SOL    HW110643   4.490   2.497   6.753
 3548SOL    HW210644   4.531   2.352   6.688
 3549SOL     OW10645   4.145   3.608   6.531
 3549SOL    HW110646   4.054   3.649   6.529
 3549SOL    HW210647   4.138   3.514   6.563
 3550SOL     OW10648   4.349   2.612   5.623
 3550SOL    HW110649   4.399   2.697   5.604
 3550SOL    HW210650   4.261   2.614   5.575
 3551SOL     OW10651   4.614   3.241   4.987
 3551SOL    HW110652   4.568   3.256   5.075
 3551SOL    HW210653   4.658   3.326   4.957
 3552SOL     OW10654   4.416   3.657   5.924
 3552SOL    HW110655   4.370   3.745   5.911
 3552SOL    HW210656   4.515   3.669   5.917
 3553SOL     OW10657   4.614   2.823   5.832
 3553SOL    HW110658   4.668   2.754   5.880
 3553SOL    HW210659   4.582   2.892   5.898
 3554SOL     OW10660   4.838   2.851   5.058
 3554SOL    HW110661   4.815   2.904   4.976
 3554SOL    HW210662   4.919   2.795   5.039
 3555SOL     OW10663   3.976   3.181   6.815
 3555SOL    HW110664   3.911   3.108   6.794
 3555SOL    HW210665   3.980   3.195   6.913
 3556SOL     OW10666   3.834   3.107   5.624
 3556SOL    HW110667   3.833   3.060   5.712
 3556SOL    HW210668   3.916   3.079   5.573
 3557SOL     OW10669   4.427   3.258   6.595
 3557SOL    HW110670   4.349   3.208   6.633
 3557SOL    HW210671   4.424   3.353   6.626
 3558SOL     OW10672   4.183   2.291   5.491
 3558SOL    HW110673   4.213   2.219   5.429
 3558SOL    HW210674   4.144   2.251   5.574
 3559SOL     OW10675   4.072   2.414   6.251
 3559SOL    HW110676   4.110   2.355   6.323
 3559SOL    HW210677   4.112   2.388   6.163
 3560SOL     OW10678   4.567   3.453   5.658
 3560SOL    HW110679   4.599   3.463   5.564
 3560SOL    HW210680   4.488   3.391   5.660
 3561SOL     OW10681   4.756   1.901   6.125
 3561SOL    HW110682   4.693   1.829   6.094
 3561SOL    HW210683   4.849   1.865   6.125
 3562SOL     OW10684   4.525   3.197   5.272
 3562SOL    HW110685   4.479   3.110   5.289
 3562SOL    HW210686   4.616   3.194   5.313
 3563SOL     OW10687   4.373   3.434   6.255
 3563SOL    HW110688   4.368   3.516   6.312
 3563SOL    HW210689   4.462   3.431   6.210
 3564SOL     OW10690   4.630   3.513   5.308
 3564SOL    HW110691   4.553   3.478   5.254
 3564SOL    HW210692   4.598   3.584   5.370
 3565SOL     OW10693   3.985   2.495   6.946
 3565SOL    HW110694   3.892   2.493   6.983
 3565SOL    HW210695   3.986   2.456   6.854
 3566SOL     OW10696   3.980   2.142   7.829
 3566SOL    HW110697   4.015   2.125   7.921
 3566SOL    HW210698   3.892   2.097   7.817
 3567SOL     OW10699   3.774   2.235   7.480
 3567SOL    HW110700   3.692   2.278   7.519
 3567SOL    HW210701   3.746   2.162   7.417
 3568SOL     OW10702   4.324   3.142   7.998
 3568SOL    HW110703   4.231   3.135   7.961
 3568SOL    HW210704   4.335   3.231   8.042
 3569SOL     OW10705   4.890   2.570   7.550
 3569SOL    HW110706   4.947   2.648   7.525
 3569SOL    HW210707   4.830   2.596   7.626
 3570SOL     OW10708   4.523   3.011   7.856
 3570SOL    HW110709   4.445   3.028   7.916
 3570SOL    HW210710   4.557   3.098   7.820
 3571SOL     OW10711   4.605   2.665   8.656
 3571SOL    HW110712   4.601   2.741   8.721
 3571SOL    HW210713   4.627   2.701   8.565
 3572SOL     OW10714   4.440   2.879   7.498
 3572SOL    HW110715   4.509   2.863   7.568
 3572SOL    HW210716   4.367   2.936   7.536
 3573SOL     OW10717   4.441   3.028   8.636
 3573SOL    HW110718   4.501   3.107   8.650
 3573SOL    HW210719   4.355   3.059   8.595
 3574SOL     OW10720   4.090   3.302   7.894
 3574SOL    HW110721   4.012   3.271   7.841
 3574SOL    HW210722   4.148   3.360   7.837
 3575SOL     OW10723   4.193   2.259   8.332
 3575SOL    HW110724   4.275   2.203   8.341
 3575SOL    HW210725   4.112   2.201   8.336
 3576SOL     OW10726   3.986   3.580   7.316
 3576SOL    HW110727   4.020   3.657   7.370
 3576SOL    HW210728   4.030   3.580   7.226
 3577SOL     OW10729   4.882   3.208   8.523
 3577SOL    HW110730   4.929   3.208   8.611
 3577SOL    HW210731   4.834   3.121   8.512
 3578SOL     OW10732   3.985   3.301   7.371
 3578SOL    HW110733   3.959   3.397   7.371
 3578SOL    HW210734   3.914   3.247   7.416
 3579SOL     OW10735   3.995   2.958   7.719
 3579SOL    HW110736   4.009   2.874   7.771
 3579SOL    HW210737   3.940   3.022   7.774
 3580SOL     OW10738   4.375   3.653   8.272
 3580SOL    HW110739   4.283   3.636   8.307
 3580SOL    HW210740   4.403   3.745   8.298
 3581SOL     OW10741   4.361   2.831   6.956
 3581SOL    HW110742   4.368   2.915   6.902
 3581SOL    HW210743   4.407   2.844   7.044
 3582SOL     OW10744   3.877   2.510   7.396
 3582SOL    HW110745   3.832   2.422   7.413
 3582SOL    HW210746   3.876   2.564   7.480
 3583SOL     OW10747   3.782   3.463   6.950
 3583SOL    HW110748   3.763   3.367   6.971
 3583SOL    HW210749   3.749   3.521   7.025
 3584SOL     OW10750   3.868   2.604   8.430
 3584SOL    HW110751   3.956   2.591   8.475
 3584SOL    HW210752   3.855   2.701   8.408
 3585SOL     OW10753   4.368   3.232   7.559
 3585SOL    HW110754   4.319   3.145   7.568
 3585SOL    HW210755   4.345   3.275   7.472
 3586SOL     OW10756   4.564   1.871   7.335
 3586SOL    HW110757   4.604   1.962   7.326
 3586SOL    HW210758   4.464   1.879   7.341
 3587SOL     OW10759   3.952   2.843   8.097
 3587SOL    HW110760   4.041   2.798   8.083
 3587SOL    HW210761   3.879   2.778   8.078
 3588SOL     OW10762   4.072   2.118   8.634
 3588SOL    HW110763   4.143   2.189   8.640
 3588SOL    HW210764   3.984   2.157   8.662
 3589SOL     OW10765   4.353   2.596   7.103
 3589SOL    HW110766   4.377   2.665   7.035
 3589SOL    HW210767   4.275   2.629   7.157
 3590SOL     OW10768   4.562   2.472   8.298
 3590SOL    HW110769   4.515   2.469   8.387
 3590SOL    HW210770   4.511   2.417   8.232
 3591SOL     OW10771   4.728   2.757   8.405
 3591SOL    HW110772   4.774   2.673   8.376
 3591SOL    HW210773   4.672   2.791   8.330
 3592SOL     OW10774   4.746   2.277   8.075
 3592SOL    HW110775   4.669   2.311   8.129
 3592SOL    HW210776   4.712   2.226   7.996
 3593SOL     OW10777   4.796   2.568   7.262
 3593SOL    HW110778   4.822   2.564   7.358
 3593SOL    HW210779   4.711   2.517   7.248
 3594SOL     OW10780   3.831   2.678   7.622
 3594SOL    HW110781   3.930   2.666   7.631
 3594SOL    HW210782   3.807   2.773   7.643
 3595SOL     OW10783   3.885   3.688   8.404
 3595SOL    HW110784   3.875   3.673   8.503
 3595SOL    HW210785   3.799   3.724   8.368
 3596SOL     OW10786   4.620   2.215   7.028
 3596SOL    HW110787   4.679   2.278   6.979
 3596SOL    HW210788   4.639   2.121   6.999
 3597SOL     OW10789   4.305   2.063   7.718
 3597SOL    HW110790   4.300   2.058   7.818
 3597SOL    HW210791   4.307   2.159   7.689
 3598SOL     OW10792   4.763   3.323   7.310
 3598SOL    HW110793   4.717   3.395   7.258
 3598SOL    HW210794   4.759   3.343   7.408
 3599SOL     OW10795   4.106   3.668   7.686
 3599SOL    HW110796   4.156   3.582   7.692
 3599SOL    HW210797   4.171   3.745   7.683
 3600SOL     OW10798   4.982   3.417   8.339
 3600SOL    HW110799   4.988   3.340   8.403
 3600SOL    HW210800   4.930   3.391   8.259
 3601SOL     OW10801   4.076   2.810   7.075
 3601SOL    HW110802   4.158   2.849   7.033
 3601SOL    HW210803   4.049   2.728   7.026
 3602SOL     OW10804   4.216   3.133   8.560
 3602SOL    HW110805   4.166   3.134   8.474
 3602SOL    HW210806   4.153   3.115   8.636
 3603SOL     OW10807   4.866   3.643   7.070
 3603SOL    HW110808   4.806   3.581   7.120
 3603SOL    HW210809   4.897   3.599   6.985
 3604SOL     OW10810   3.957   2.152   8.331
 3604SOL    HW110811   3.877   2.212   8.318
 3604SOL    HW210812   3.947   2.103   8.417
 3605SOL     OW10813   4.219   3.610   7.156
 3605SOL    HW110814   4.252   3.649   7.242
 3605SOL    HW210815   4.295   3.603   7.091
 3606SOL     OW10816   4.004   3.652   8.074
 3606SOL    HW110817   4.061   3.587   8.124
 3606SOL    HW210818   3.988   3.619   7.981
 3607SOL     OW10819   4.695   3.565   7.737
 3607SOL    HW110820   4.775   3.508   7.758
 3607SOL    HW210821   4.646   3.525   7.660
 3608SOL     OW10822   4.137   2.567   7.313
 3608SOL    HW110823   4.182   2.477   7.310
 3608SOL    HW210824   4.043   2.556   7.346
 3609SOL     OW10825   4.369   1.989   6.950
 3609SOL    HW110826   4.467   1.967   6.957
 3609SOL    HW210827   4.338   1.972   6.857
 3610SOL     OW10828   4.536   2.131   8.582
 3610SOL    HW110829   4.603   2.070   8.625
 3610SOL    HW210830   4.463   2.150   8.647
 3611SOL     OW10831   4.643   3.381   8.028
 3611SOL    HW110832   4.620   3.356   7.934
 3611SOL    HW210833   4.704   3.312   8.067
 3612SOL     OW10834   4.558   3.269   7.757
 3612SOL    HW110835   4.648   3.283   7.715
 3612SOL    HW210836   4.487   3.271   7.686
 3613SOL     OW10837   4.677   2.370   7.732
 3613SOL    HW110838   4.652   2.361   7.636
 3613SOL    HW210839   4.725   2.288   7.763
 3614SOL     OW10840   4.294   1.931   7.345
 3614SOL    HW110841   4.213   1.932   7.403
 3614SOL    HW210842   4.297   2.014   7.290
 3615SOL     OW10843   4.052   1.902   7.004
 3615SOL    HW110844   4.101   1.986   6.983
 3615SOL    HW210845   4.114   1.837   7.049
 3616SOL     OW10846   4.690   2.103   7.313
 3616SOL    HW110847   4.642   2.144   7.235
 3616SOL    HW210848   4.789   2.101   7.294
 3617SOL     OW10849   4.831   2.550   8.297
 3617SOL    HW110850   4.751   2.489   8.300
 3617SOL    HW210851   4.912   2.497   8.273
 3618SOL     OW10852   4.982   3.437   7.626
 3618SOL    HW110853   5.003   3.511   7.561
 3618SOL    HW210854   5.050   3.437   7.699
 3619SOL     OW10855   4.214   3.019   7.574
 3619SOL    HW110856   4.143   2.992   7.639
 3619SOL    HW210857   4.188   2.991   7.481
 3620SOL     OW10858   5.026   3.664   7.424
 3620SOL    HW110859   5.070   3.728   7.360
 3620SOL    HW210860   4.976   3.716   7.494
 3621SOL     OW10861   4.787   2.416   6.849
 3621SOL    HW110862   4.746   2.498   6.810
 3621SOL    HW210863   4.851   2.442   6.922
 3622SOL     OW10864   3.833   2.423   8.219
 3622SOL    HW110865   3.925   2.422   8.178
 3622SOL    HW210866   3.827   2.497   8.286
 3623SOL     OW10867   4.316   2.089   7.980
 3623SOL    HW110868   4.354   2.005   8.017
 3623SOL    HW210869   4.228   2.108   8.024
 3624SOL     OW10870   4.621   2.321   7.475
 3624SOL    HW110871   4.589   2.393   7.413
 3624SOL    HW210872   4.645   2.240   7.422
 3625SOL     OW10873   4.772   1.906   7.586
 3625SOL    HW110874   4.700   1.911   7.517
 3625SOL    HW210875   4.748   1.837   7.655
 3626SOL     OW10876   4.243   3.252   7.007
 3626SOL    HW110877   4.156   3.237   7.054
 3626SOL    HW210878   4.226   3.278   6.912
 3627SOL     OW10879   4.282   2.123   7.161
 3627SOL    HW110880   4.309   2.064   7.086
 3627SOL    HW210881   4.282   2.218   7.130
 3628SOL     OW10882   4.819   3.214   8.173
 3628SOL    HW110883   4.739   3.191   8.228
 3628SOL    HW210884   4.902   3.188   8.222
 3629SOL     OW10885   4.866   3.062   7.933
 3629SOL    HW110886   4.826   3.106   8.014
 3629SOL    HW210887   4.825   3.099   7.850
 3630SOL     OW10888   4.670   1.956   8.235
 3630SOL    HW110889   4.695   1.936   8.140
 3630SOL    HW210890   4.742   2.012   8.277
 3631SOL     OW10891   4.735   2.983   8.552
 3631SOL    HW110892   4.636   2.989   8.562
 3631SOL    HW210893   4.758   2.903   8.496
 3632SOL     OW10894   4.460   2.917   7.201
 3632SOL    HW110895   4.446   2.924   7.300
 3632SOL    HW210896   4.544   2.866   7.183
 3633SOL     OW10897   4.165   2.680   8.084
 3633SOL    HW110898   4.251   2.692   8.134
 3633SOL    HW210899   4.123   2.593   8.111
 3634SOL     OW10900   3.819   3.431   8.164
 3634SOL    HW110901   3.773   3.513   8.130
 3634SOL    HW210902   3.917   3.450   8.173
 3635SOL     OW10903   4.122   2.967   7.334
 3635SOL    HW110904   4.115   3.050   7.278
 3635SOL    HW210905   4.126   2.887   7.274
 3636SOL     OW10906   4.321   2.404   7.698
 3636SOL    HW110907   4.333   2.470   7.624
 3636SOL    HW210908   4.367   2.438   7.781
 3637SOL     OW10909   5.007   3.215   7.221
 3637SOL    HW110910   5.057   3.292   7.261
 3637SOL    HW210911   4.912   3.217   7.253
 3638SOL     OW10912   4.109   3.377   8.162
 3638SOL    HW110913   4.088   3.333   8.075
 3638SOL    HW210914   4.206   3.403   8.165
 3639SOL     OW10915   4.157   2.618   8.431
 3639SOL    HW110916   4.225   2.673   8.384
 3639SOL    HW210917   4.197   2.530   8.458
 3640SOL     OW10918   4.768   1.972   8.603
 3640SOL    HW110919   4.774   2.057   8.551
 3640SOL    HW210920   4.800   1.896   8.546
 3641SOL     OW10921   4.259   1.917   8.573
 3641SOL    HW110922   4.217   1.860   8.503
 3641SOL    HW210923   4.193   1.986   8.605
 3642SOL     OW10924   4.328   2.737   7.862
 3642SOL    HW110925   4.372   2.826   7.853
 3642SOL    HW210926   4.265   2.737   7.939
 3643SOL     OW10927   5.115   2.729   7.878
 3643SOL    HW110928   5.040   2.729   7.812
 3643SOL    HW210929   5.152   2.637   7.887
 3644SOL     OW10930   4.964   2.392   7.108
 3644SOL    HW110931   4.977   2.308   7.162
 3644SOL    HW210932   4.935   2.466   7.168
 3645SOL     OW10933   4.062   2.080   8.064
 3645SOL    HW110934   4.039   2.117   8.154
 3645SOL    HW210935   4.032   1.985   8.058
 3646SOL     OW10936   3.792   3.177   8.115
 3646SOL    HW110937   3.845   3.128   8.183
 3646SOL    HW210938   3.814   3.275   8.120
 3647SOL     OW10939   4.487   2.501   7.897
 3647SOL    HW110940   4.546   2.475   7.821
 3647SOL    HW210941   4.459   2.597   7.886
 3648SOL     OW10942   4.062   1.930   7.451
 3648SOL    HW110943   4.051   2.024   7.484
 3648SOL    HW210944   4.057   1.867   7.528
 3649SOL     OW10945   4.778   2.633   7.799
 3649SOL    HW110946   4.793   2.654   7.895
 3649SOL    HW210947   4.748   2.538   7.790
 3650SOL     OW10948   4.735   3.440   8.533
 3650SOL    HW110949   4.715   3.484   8.445
 3650SOL    HW210950   4.774   3.349   8.517
 3651SOL     OW10951   4.105   2.765   8.637
 3651SOL    HW110952   4.181   2.809   8.685
 3651SOL    HW210953   4.140   2.718   8.555
 3652SOL     OW10954   5.295   2.141   6.958
 3652SOL    HW110955   5.234   2.066   6.981
 3652SOL    HW210956   5.317   2.193   7.041
 3653SOL     OW10957   4.823   3.200   7.682
 3653SOL    HW110958   4.830   3.116   7.627
 3653SOL    HW210959   4.885   3.269   7.646
 3654SOL     OW10960   4.074   2.677   7.782
 3654SOL    HW110961   4.167   2.713   7.787
 3654SOL    HW210962   4.068   2.592   7.834
 3655SOL     OW10963   4.094   2.376   7.839
 3655SOL    HW110964   4.042   2.293   7.822
 3655SOL    HW210965   4.171   2.381   7.775
 3656SOL     OW10966   4.893   2.247   8.511
 3656SOL    HW110967   4.848   2.310   8.575
 3656SOL    HW210968   4.986   2.278   8.494
 3657SOL     OW10969   4.915   2.074   8.310
 3657SOL    HW110970   4.915   2.138   8.387
 3657SOL    HW210971   4.943   2.122   8.227
 3658SOL     OW10972   3.763   3.193   7.033
 3658SOL    HW110973   3.670   3.214   7.002
 3658SOL    HW210974   3.773   3.094   7.046
 3659SOL     OW10975   3.843   3.668   7.760
 3659SOL    HW110976   3.801   3.582   7.733
 3659SOL    HW210977   3.937   3.671   7.726
 3660SOL     OW10978   4.259   3.435   7.743
 3660SOL    HW110979   4.325   3.509   7.752
 3660SOL    HW210980   4.303   3.356   7.701
 3661SOL     OW10981   4.757   2.663   8.071
 3661SOL    HW110982   4.798   2.631   8.157
 3661SOL    HW210983   4.661   2.636   8.068
 3662SOL     OW10984   3.795   2.411   7.947
 3662SOL    HW110985   3.880   2.378   7.906
 3662SOL    HW210986   3.808   2.426   8.045
 3663SOL     OW10987   3.944   2.387   8.555
 3663SOL    HW110988   4.003   2.347   8.485
 3663SOL    HW210989   3.886   2.458   8.514
 3664SOL     OW10990   4.570   2.439   7.158
 3664SOL    HW110991   4.577   2.350   7.112
 3664SOL    HW210992   4.476   2.473   7.150
 3665SOL     OW10993   4.007   3.431   8.577
 3665SOL    HW110994   3.977   3.488   8.653
 3665SOL    HW210995   4.000   3.334   8.603
 3666SOL     OW10996   4.426   2.331   8.102
 3666SOL    HW110997   4.392   2.242   8.072
 3666SOL    HW210998   4.452   2.385   8.022
 3667SOL     OW10999   4.685   3.545   8.298
 3667SOL    HW111000   4.661   3.527   8.203
 3667SOL    HW211001   4.715   3.639   8.308
 3668SOL     OW11002   4.228   2.367   7.024
 3668SOL    HW111003   4.289   2.447   7.028
 3668SOL    HW211004   4.133   2.398   7.031
 3669SOL     OW11005   3.914   3.004   8.299
 3669SOL    HW111006   3.936   2.943   8.375
 3669SOL    HW211007   3.924   2.955   8.213
 3670SOL     OW11008   5.007   3.598   7.961
 3670SOL    HW111009   5.091   3.603   7.907
 3670SOL    HW211010   4.984   3.502   7.979
 3671SOL     OW11011   3.838   3.125   7.855
 3671SOL    HW111012   3.833   3.124   7.955
 3671SOL    HW211013   3.755   3.084   7.817
 3672SOL     OW11014   4.443   3.529   8.549
 3672SOL    HW111015   4.387   3.610   8.558
 3672SOL    HW211016   4.495   3.533   8.463
 3673SOL     OW11017   3.885   3.661   8.684
 3673SOL    HW111018   3.844   3.587   8.737
 3673SOL    HW211019   3.949   3.712   8.742
 3674SOL     OW11020   4.585   3.140   8.255
 3674SOL    HW111021   4.580   3.173   8.350
 3674SOL    HW211022   4.499   3.159   8.209
 3675SOL     OW11023   4.427   3.483   6.987
 3675SOL    HW111024   4.436   3.493   6.888
 3675SOL    HW211025   4.387   3.394   7.008
 3676SOL     OW11026   4.018   2.193   7.553
 3676SOL    HW111027   3.939   2.244   7.519
 3676SOL    HW211028   4.009   2.178   7.651
 3677SOL     OW11029   4.577   2.869   8.205
 3677SOL    HW111030   4.617   2.868   8.113
 3677SOL    HW211031   4.587   2.961   8.245
 3678SOL     OW11032   4.671   2.777   7.124
 3678SOL    HW111033   4.734   2.815   7.056
 3678SOL    HW211034   4.711   2.694   7.163
 3679SOL     OW11035   4.127   3.155   8.323
 3679SOL    HW111036   4.114   3.248   8.289
 3679SOL    HW211037   4.043   3.103   8.310
 3680SOL     OW11038   4.794   2.965   7.529
 3680SOL    HW111039   4.724   2.918   7.583
 3680SOL    HW211040   4.853   2.897   7.486
 3681SOL     OW11041   4.769   2.103   7.804
 3681SOL    HW111042   4.761   2.067   7.711
 3681SOL    HW211043   4.767   2.027   7.869
 3682SOL     OW11044   4.345   3.354   7.324
 3682SOL    HW111045   4.387   3.296   7.254
 3682SOL    HW211046   4.301   3.433   7.280
 3683SOL     OW11047   4.010   3.215   7.123
 3683SOL    HW111048   3.914   3.216   7.096
 3683SOL    HW211049   4.022   3.268   7.207
 3684SOL     OW11050   3.860   2.880   8.559
 3684SOL    HW111051   3.783   2.847   8.613
 3684SOL    HW211052   3.945   2.850   8.601
 3685SOL     OW11053   4.427   2.070   8.322
 3685SOL    HW111054   4.517   2.054   8.282
 3685SOL    HW211055   4.435   2.075   8.421
 3686SOL     OW11056   3.830   2.212   6.866
 3686SOL    HW111057   3.738   2.184   6.837
 3686SOL    HW211058   3.861   2.289   6.810
 3687SOL     OW11059   3.827   2.033   7.151
 3687SOL    HW111060   3.810   2.116   7.097
 3687SOL    HW211061   3.917   1.996   7.129
 3688SOL     OW11062   4.368   2.709   8.264
 3688SOL    HW111063   4.424   2.790   8.247
 3688SOL    HW211064   4.427   2.629   8.267
 3689SOL     OW11065   4.471   2.432   8.541
 3689SOL    HW111066   4.490   2.497   8.615
 3689SOL    HW211067   4.531   2.352   8.550
 3690SOL     OW11068   4.145   3.608   8.393
 3690SOL    HW111069   4.054   3.649   8.391
 3690SOL    HW211070   4.138   3.514   8.425
 3691SOL     OW11071   4.349   2.612   7.485
 3691SOL    HW111072   4.399   2.697   7.466
 3691SOL    HW211073   4.261   2.614   7.437
 3692SOL     OW11074   4.614   3.241   6.849
 3692SOL    HW111075   4.568   3.256   6.937
 3692SOL    HW211076   4.658   3.326   6.819
 3693SOL     OW11077   4.416   3.657   7.786
 3693SOL    HW111078   4.370   3.745   7.773
 3693SOL    HW211079   4.515   3.669   7.779
 3694SOL     OW11080   4.614   2.823   7.694
 3694SOL    HW111081   4.668   2.754   7.742
 3694SOL    HW211082   4.582   2.892   7.760
 3695SOL     OW11083   4.838   2.851   6.920
 3695SOL    HW111084   4.815   2.904   6.838
 3695SOL    HW211085   4.919   2.795   6.901
 3696SOL     OW11086   3.976   3.181   8.677
 3696SOL    HW111087   3.911   3.108   8.656
 3696SOL    HW211088   3.980   3.195   8.775
 3697SOL     OW11089   3.834   3.107   7.486
 3697SOL    HW111090   3.833   3.060   7.574
 3697SOL    HW211091   3.916   3.079   7.435
 3698SOL     OW11092   4.427   3.258   8.457
 3698SOL    HW111093   4.349   3.208   8.495
 3698SOL    HW211094   4.424   3.353   8.488
 3699SOL     OW11095   4.183   2.291   7.353
 3699SOL    HW111096   4.213   2.219   7.291
 3699SOL    HW211097   4.144   2.251   7.436
 3700SOL     OW11098   4.072   2.414   8.113
 3700SOL    HW111099   4.110   2.355   8.185
 3700SOL    HW211100   4.112   2.388   8.025
 3701SOL     OW11101   4.567   3.453   7.520
 3701SOL    HW111102   4.599   3.463   7.426
 3701SOL    HW211103   4.488   3.391   7.522
 3702SOL     OW11104   4.756   1.901   7.987
 3702SOL    HW111105   4.693   1.829   7.956
 3702SOL    HW211106   4.849   1.865   7.987
 3703SOL     OW11107   4.525   3.197   7.134
 3703SOL    HW111108   4.479   3.110   7.151
 3703SOL    HW211109   4.616   3.194   7.175
 3704SOL     OW11110   4.373   3.434   8.117
 3704SOL    HW111111   4.368   3.516   8.174
 3704SOL    HW211112   4.462   3.431   8.072
 3705SOL     OW11113   3.794   2.944   7.133
 3705SOL    HW111114   3.893   2.933   7.124
 3705SOL    HW211115   3.754   2.858   7.165
 3706SOL     OW11116   4.630   3.513   7.170
 3706SOL    HW111117   4.553   3.478   7.116
 3706SOL    HW211118   4.598   3.584   7.232
 3707SOL     OW11119   3.985   2.495   8.808
 3707SOL    HW111120   3.892   2.493   8.845
 3707SOL    HW211121   3.986   2.456   8.716
 3708SOL     OW11122   3.980   2.142   9.691
 3708SOL    HW111123   4.015   2.125   9.783
 3708SOL    HW211124   3.892   2.097   9.679
 3709SOL     OW11125   3.774   2.235   9.342
 3709SOL    HW111126   3.692   2.278   9.381
 3709SOL    HW211127   3.746   2.162   9.279
 3710SOL     OW11128   4.324   3.142   9.860
 3710SOL    HW111129   4.231   3.135   9.823
 3710SOL    HW211130   4.335   3.231   9.904
 3711SOL     OW11131   4.890   2.570   9.412
 3711SOL    HW111132   4.947   2.648   9.387
 3711SOL    HW211133   4.830   2.596   9.488
 3712SOL     OW11134   4.523   3.011   9.718
 3712SOL    HW111135   4.445   3.028   9.778
 3712SOL    HW211136   4.557   3.098   9.682
 3713SOL     OW11137   4.440   2.879   9.360
 3713SOL    HW111138   4.509   2.863   9.430
 3713SOL    HW211139   4.367   2.936   9.398
 3714SOL     OW11140   4.090   3.302   9.756
 3714SOL    HW111141   4.012   3.271   9.703
 3714SOL    HW211142   4.148   3.360   9.699
 3715SOL     OW11143   5.215   3.372  10.034
 3715SOL    HW111144   5.239   3.466  10.060
 3715SOL    HW211145   5.199   3.318  10.116
 3716SOL     OW11146   3.986   3.580   9.178
 3716SOL    HW111147   4.020   3.657   9.232
 3716SOL    HW211148   4.030   3.580   9.088
 3717SOL     OW11149   3.985   3.301   9.233
 3717SOL    HW111150   3.959   3.397   9.233
 3717SOL    HW211151   3.914   3.247   9.278
 3718SOL     OW11152   3.995   2.958   9.581
 3718SOL    HW111153   4.009   2.874   9.633
 3718SOL    HW211154   3.940   3.022   9.636
 3719SOL     OW11155   4.361   2.831   8.818
 3719SOL    HW111156   4.368   2.915   8.764
 3719SOL    HW211157   4.407   2.844   8.906
 3720SOL     OW11158   3.877   2.510   9.258
 3720SOL    HW111159   3.832   2.422   9.275
 3720SOL    HW211160   3.876   2.564   9.342
 3721SOL     OW11161   3.782   3.463   8.812
 3721SOL    HW111162   3.763   3.367   8.833
 3721SOL    HW211163   3.749   3.521   8.887
 3722SOL     OW11164   4.368   3.232   9.421
 3722SOL    HW111165   4.319   3.145   9.430
 3722SOL    HW211166   4.345   3.275   9.334
 3723SOL     OW11167   4.564   1.871   9.197
 3723SOL    HW111168   4.604   1.962   9.188
 3723SOL    HW211169   4.464   1.879   9.203
 3724SOL     OW11170   3.952   2.843   9.959
 3724SOL    HW111171   4.041   2.798   9.945
 3724SOL    HW211172   3.879   2.778   9.940
 3725SOL     OW11173   4.353   2.596   8.965
 3725SOL    HW111174   4.377   2.665   8.897
 3725SOL    HW211175   4.275   2.629   9.019
 3726SOL     OW11176   4.796   2.568   9.124
 3726SOL    HW111177   4.822   2.564   9.220
 3726SOL    HW211178   4.711   2.517   9.110
 3727SOL     OW11179   3.831   2.678   9.484
 3727SOL    HW111180   3.930   2.666   9.493
 3727SOL    HW211181   3.807   2.773   9.505
 3728SOL     OW11182   4.620   2.215   8.890
 3728SOL    HW111183   4.679   2.278   8.841
 3728SOL    HW211184   4.639   2.121   8.861
 3729SOL     OW11185   4.305   2.063   9.580
 3729SOL    HW111186   4.300   2.058   9.680
 3729SOL    HW211187   4.307   2.159   9.551
 3730SOL     OW11188   4.763   3.323   9.172
 3730SOL    HW111189   4.717   3.395   9.120
 3730SOL    HW211190   4.759   3.343   9.270
 3731SOL     OW11191   4.106   3.668   9.548
 3731SOL    HW111192   4.156   3.582   9.554
 3731SOL    HW211193   4.171   3.745   9.545
 3732SOL     OW11194   4.076   2.810   8.937
 3732SOL    HW111195   4.158   2.849   8.895
 3732SOL    HW211196   4.049   2.728   8.888
 3733SOL     OW11197   4.866   3.643   8.932
 3733SOL    HW111198   4.806   3.581   8.982
 3733SOL    HW211199   4.897   3.599   8.847
 3734SOL     OW11200   4.219   3.610   9.018
 3734SOL    HW111201   4.252   3.649   9.104
 3734SOL    HW211202   4.295   3.603   8.953
 3735SOL     OW11203   4.004   3.652   9.936
 3735SOL    HW111204   4.061   3.587   9.986
 3735SOL    HW211205   3.988   3.619   9.843
 3736SOL     OW11206   4.695   3.565   9.599
 3736SOL    HW111207   4.775   3.508   9.620
 3736SOL    HW211208   4.646   3.525   9.522
 3737SOL     OW11209   4.137   2.567   9.175
 3737SOL    HW111210   4.182   2.477   9.172
 3737SOL    HW211211   4.043   2.556   9.208
 3738SOL     OW11212   4.369   1.989   8.812
 3738SOL    HW111213   4.467   1.967   8.819
 3738SOL    HW211214   4.338   1.972   8.719
 3739SOL     OW11215   4.558   3.269   9.619
 3739SOL    HW111216   4.648   3.283   9.577
 3739SOL    HW211217   4.487   3.271   9.548
 3740SOL     OW11218   4.677   2.370   9.594
 3740SOL    HW111219   4.652   2.361   9.498
 3740SOL    HW211220   4.725   2.288   9.625
 3741SOL     OW11221   4.294   1.931   9.207
 3741SOL    HW111222   4.213   1.932   9.265
 3741SOL    HW211223   4.297   2.014   9.152
 3742SOL     OW11224   4.052   1.902   8.866
 3742SOL    HW111225   4.101   1.986   8.845
 3742SOL    HW211226   4.114   1.837   8.911
 3743SOL     OW11227   4.690   2.103   9.175
 3743SOL    HW111228   4.642   2.144   9.097
 3743SOL    HW211229   4.789   2.101   9.156
 3744SOL     OW11230   4.982   3.437   9.488
 3744SOL    HW111231   5.003   3.511   9.423
 3744SOL    HW211232   5.050   3.437   9.561
 3745SOL     OW11233   4.214   3.019   9.436
 3745SOL    HW111234   4.143   2.992   9.501
 3745SOL    HW211235   4.188   2.991   9.343
 3746SOL     OW11236   5.026   3.664   9.286
 3746SOL    HW111237   5.070   3.728   9.222
 3746SOL    HW211238   4.976   3.716   9.356
 3747SOL     OW11239   4.787   2.416   8.711
 3747SOL    HW111240   4.746   2.498   8.672
 3747SOL    HW211241   4.851   2.442   8.784
 3748SOL     OW11242   4.621   2.321   9.337
 3748SOL    HW111243   4.589   2.393   9.275
 3748SOL    HW211244   4.645   2.240   9.284
 3749SOL     OW11245   4.772   1.906   9.448
 3749SOL    HW111246   4.700   1.911   9.379
 3749SOL    HW211247   4.748   1.837   9.517
 3750SOL     OW11248   4.243   3.252   8.869
 3750SOL    HW111249   4.156   3.237   8.916
 3750SOL    HW211250   4.226   3.278   8.774
 3751SOL     OW11251   4.282   2.123   9.023
 3751SOL    HW111252   4.309   2.064   8.948
 3751SOL    HW211253   4.282   2.218   8.992
 3752SOL     OW11254   4.866   3.062   9.795
 3752SOL    HW111255   4.826   3.106   9.876
 3752SOL    HW211256   4.825   3.099   9.712
 3753SOL     OW11257   4.460   2.917   9.063
 3753SOL    HW111258   4.446   2.924   9.162
 3753SOL    HW211259   4.544   2.866   9.045
 3754SOL     OW11260   4.165   2.680   9.946
 3754SOL    HW111261   4.251   2.692   9.996
 3754SOL    HW211262   4.123   2.593   9.973
 3755SOL     OW11263   4.122   2.967   9.196
 3755SOL    HW111264   4.115   3.050   9.140
 3755SOL    HW211265   4.126   2.887   9.136
 3756SOL     OW11266   4.321   2.404   9.560
 3756SOL    HW111267   4.333   2.470   9.486
 3756SOL    HW211268   4.367   2.438   9.643
 3757SOL     OW11269   5.007   3.215   9.083
 3757SOL    HW111270   5.057   3.292   9.123
 3757SOL    HW211271   4.912   3.217   9.115
 3758SOL     OW11272   4.328   2.737   9.724
 3758SOL    HW111273   4.372   2.826   9.715
 3758SOL    HW211274   4.265   2.737   9.801
 3759SOL     OW11275   5.115   2.729   9.740
 3759SOL    HW111276   5.040   2.729   9.674
 3759SOL    HW211277   5.152   2.637   9.749
 3760SOL     OW11278   4.964   2.392   8.970
 3760SOL    HW111279   4.977   2.308   9.024
 3760SOL    HW211280   4.935   2.466   9.030
 3761SOL     OW11281   4.062   2.080   9.926
 3761SOL    HW111282   4.039   2.117  10.016
 3761SOL    HW211283   4.032   1.985   9.920
 3762SOL     OW11284   3.792   3.177   9.977
 3762SOL    HW111285   3.845   3.128  10.045
 3762SOL    HW211286   3.814   3.275   9.982
 3763SOL     OW11287   4.487   2.501   9.759
 3763SOL    HW111288   4.546   2.475   9.683
 3763SOL    HW211289   4.459   2.597   9.748
 3764SOL     OW11290   4.062   1.930   9.313
 3764SOL    HW111291   4.051   2.024   9.346
 3764SOL    HW211292   4.057   1.867   9.390
 3765SOL     OW11293   4.778   2.633   9.661
 3765SOL    HW111294   4.793   2.654   9.757
 3765SOL    HW211295   4.748   2.538   9.652
 3766SOL     OW11296   5.295   2.141   8.820
 3766SOL    HW111297   5.234   2.066   8.843
 3766SOL    HW211298   5.317   2.193   8.903
 3767SOL     OW11299   4.823   3.200   9.544
 3767SOL    HW111300   4.830   3.116   9.489
 3767SOL    HW211301   4.885   3.269   9.508
 3768SOL     OW11302   4.074   2.677   9.644
 3768SOL    HW111303   4.167   2.713   9.649
 3768SOL    HW211304   4.068   2.592   9.696
 3769SOL     OW11305   4.094   2.376   9.701
 3769SOL    HW111306   4.042   2.293   9.684
 3769SOL    HW211307   4.171   2.381   9.637
 3770SOL     OW11308   4.915   2.074  10.172
 3770SOL    HW111309   4.915   2.138  10.249
 3770SOL    HW211310   4.943   2.122  10.089
 3771SOL     OW11311   3.763   3.193   8.895
 3771SOL    HW111312   3.670   3.214   8.864
 3771SOL    HW211313   3.773   3.094   8.908
 3772SOL     OW11314   3.843   3.668   9.622
 3772SOL    HW111315   3.801   3.582   9.595
 3772SOL    HW211316   3.937   3.671   9.588
 3773SOL     OW11317   4.259   3.435   9.605
 3773SOL    HW111318   4.325   3.509   9.614
 3773SOL    HW211319   4.303   3.356   9.563
 3774SOL     OW11320   4.757   2.663   9.933
 3774SOL    HW111321   4.798   2.631  10.019
 3774SOL    HW211322   4.661   2.636   9.930
 3775SOL     OW11323   3.795   2.411   9.809
 3775SOL    HW111324   3.880   2.378   9.768
 3775SOL    HW211325   3.808   2.426   9.907
 3776SOL     OW11326   4.570   2.439   9.020
 3776SOL    HW111327   4.577   2.350   8.974
 3776SOL    HW211328   4.476   2.473   9.012
 3777SOL     OW11329   4.426   2.331   9.964
 3777SOL    HW111330   4.392   2.242   9.934
 3777SOL    HW211331   4.452   2.385   9.884
 3778SOL     OW11332   4.228   2.367   8.886
 3778SOL    HW111333   4.289   2.447   8.890
 3778SOL    HW211334   4.133   2.398   8.893
 3779SOL     OW11335   3.914   3.004  10.161
 3779SOL    HW111336   3.936   2.943  10.237
 3779SOL    HW211337   3.924   2.955  10.075
 3780SOL     OW11338   5.007   3.598   9.823
 3780SOL    HW111339   5.091   3.603   9.769
 3780SOL    HW211340   4.984   3.502   9.841
 3781SOL     OW11341   3.838   3.125   9.717
 3781SOL    HW111342   3.833   3.124   9.817
 3781SOL    HW211343   3.755   3.084   9.679
 3782SOL     OW11344   4.427   3.483   8.849
 3782SOL    HW111345   4.436   3.493   8.750
 3782SOL    HW211346   4.387   3.394   8.870
 3783SOL     OW11347   4.018   2.193   9.415
 3783SOL    HW111348   3.939   2.244   9.381
 3783SOL    HW211349   4.009   2.178   9.513
 3784SOL     OW11350   4.577   2.869  10.067
 3784SOL    HW111351   4.617   2.868   9.975
 3784SOL    HW211352   4.587   2.961  10.107
 3785SOL     OW11353   4.671   2.777   8.986
 3785SOL    HW111354   4.734   2.815   8.918
 3785SOL    HW211355   4.711   2.694   9.025
 3786SOL     OW11356   4.794   2.965   9.391
 3786SOL    HW111357   4.724   2.918   9.445
 3786SOL    HW211358   4.853   2.897   9.348
 3787SOL     OW11359   4.769   2.103   9.666
 3787SOL    HW111360   4.761   2.067   9.573
 3787SOL    HW211361   4.767   2.027   9.731
 3788SOL     OW11362   4.345   3.354   9.186
 3788SOL    HW111363   4.387   3.296   9.116
 3788SOL    HW211364   4.301   3.433   9.142
 3789SOL     OW11365   4.010   3.215   8.985
 3789SOL    HW111366   3.914   3.216   8.958
 3789SOL    HW211367   4.022   3.268   9.069
 3790SOL     OW11368   3.830   2.212   8.728
 3790SOL    HW111369   3.738   2.184   8.699
 3790SOL    HW211370   3.861   2.289   8.672
 3791SOL     OW11371   3.827   2.033   9.013
 3791SOL    HW111372   3.810   2.116   8.959
 3791SOL    HW211373   3.917   1.996   8.991
 3792SOL     OW11374   4.349   2.612   9.347
 3792SOL    HW111375   4.399   2.697   9.328
 3792SOL    HW211376   4.261   2.614   9.299
 3793SOL     OW11377   4.614   3.241   8.711
 3793SOL    HW111378   4.568   3.256   8.799
 3793SOL    HW211379   4.658   3.326   8.681
 3794SOL     OW11380   4.416   3.657   9.648
 3794SOL    HW111381   4.370   3.745   9.635
 3794SOL    HW211382   4.515   3.669   9.641
 3795SOL     OW11383   4.614   2.823   9.556
 3795SOL    HW111384   4.668   2.754   9.604
 3795SOL    HW211385   4.582   2.892   9.622
 3796SOL     OW11386   4.838   2.851   8.782
 3796SOL    HW111387   4.815   2.904   8.700
 3796SOL    HW211388   4.919   2.795   8.763
 3797SOL     OW11389   3.834   3.107   9.348
 3797SOL    HW111390   3.833   3.060   9.436
 3797SOL    HW211391   3.916   3.079   9.297
 3798SOL     OW11392   4.183   2.291   9.215
 3798SOL    HW111393   4.213   2.219   9.153
 3798SOL    HW211394   4.144   2.251   9.298
 3799SOL     OW11395   4.567   3.453   9.382
 3799SOL    HW111396   4.599   3.463   9.288
 3799SOL    HW211397   4.488   3.391   9.384
 3800SOL     OW11398   4.756   1.901   9.849
 3800SOL    HW111399   4.693   1.829   9.818
 3800SOL    HW211400   4.849   1.865   9.849
 3801SOL     OW11401   4.525   3.197   8.996
 3801SOL    HW111402   4.479   3.110   9.013
 3801SOL    HW211403   4.616   3.194   9.037
 3802SOL     OW11404   3.794   2.944   8.995
 3802SOL    HW111405   3.893   2.933   8.986
 3802SOL    HW211406   3.754   2.858   9.027
 3803SOL     OW11407   4.630   3.513   9.032
 3803SOL    HW111408   4.553   3.478   8.978
 3803SOL    HW211409   4.598   3.584   9.094
 3804SOL     OW11410   3.985   4.357   5.084
 3804SOL    HW111411   3.892   4.355   5.121
 3804SOL    HW211412   3.986   4.318   4.992
 3805SOL     OW11413   3.980   4.004   5.967
 3805SOL    HW111414   4.015   3.987   6.059
 3805SOL    HW211415   3.892   3.959   5.955
 3806SOL     OW11416   3.774   4.097   5.618
 3806SOL    HW111417   3.692   4.140   5.657
 3806SOL    HW211418   3.746   4.024   5.555
 3807SOL     OW11419   4.890   4.432   5.688
 3807SOL    HW111420   4.947   4.510   5.663
 3807SOL    HW211421   4.830   4.458   5.764
 3808SOL     OW11422   4.523   4.873   5.994
 3808SOL    HW111423   4.445   4.890   6.054
 3808SOL    HW211424   4.557   4.960   5.958
 3809SOL     OW11425   4.605   4.527   6.794
 3809SOL    HW111426   4.601   4.603   6.859
 3809SOL    HW211427   4.627   4.563   6.703
 3810SOL     OW11428   4.440   4.741   5.636
 3810SOL    HW111429   4.509   4.725   5.706
 3810SOL    HW211430   4.367   4.798   5.674
 3811SOL     OW11431   4.441   4.890   6.774
 3811SOL    HW111432   4.501   4.969   6.788
 3811SOL    HW211433   4.355   4.921   6.733
 3812SOL     OW11434   4.193   4.121   6.470
 3812SOL    HW111435   4.275   4.065   6.479
 3812SOL    HW211436   4.112   4.063   6.474
 3813SOL     OW11437   3.995   4.820   5.857
 3813SOL    HW111438   4.009   4.736   5.909
 3813SOL    HW211439   3.940   4.884   5.912
 3814SOL     OW11440   4.361   4.693   5.094
 3814SOL    HW111441   4.368   4.777   5.040
 3814SOL    HW211442   4.407   4.706   5.182
 3815SOL     OW11443   3.877   4.372   5.534
 3815SOL    HW111444   3.832   4.284   5.551
 3815SOL    HW211445   3.876   4.426   5.618
 3816SOL     OW11446   3.868   4.466   6.568
 3816SOL    HW111447   3.956   4.453   6.613
 3816SOL    HW211448   3.855   4.563   6.546
 3817SOL     OW11449   4.564   3.733   5.473
 3817SOL    HW111450   4.604   3.824   5.464
 3817SOL    HW211451   4.464   3.741   5.479
 3818SOL     OW11452   3.952   4.705   6.235
 3818SOL    HW111453   4.041   4.660   6.221
 3818SOL    HW211454   3.879   4.640   6.216
 3819SOL     OW11455   4.072   3.980   6.772
 3819SOL    HW111456   4.143   4.051   6.778
 3819SOL    HW211457   3.984   4.019   6.800
 3820SOL     OW11458   4.353   4.458   5.241
 3820SOL    HW111459   4.377   4.527   5.173
 3820SOL    HW211460   4.275   4.491   5.295
 3821SOL     OW11461   4.562   4.334   6.436
 3821SOL    HW111462   4.515   4.331   6.525
 3821SOL    HW211463   4.511   4.279   6.370
 3822SOL     OW11464   4.728   4.619   6.543
 3822SOL    HW111465   4.774   4.535   6.514
 3822SOL    HW211466   4.672   4.653   6.468
 3823SOL     OW11467   4.746   4.139   6.213
 3823SOL    HW111468   4.669   4.173   6.267
 3823SOL    HW211469   4.712   4.088   6.134
 3824SOL     OW11470   4.796   4.430   5.400
 3824SOL    HW111471   4.822   4.426   5.496
 3824SOL    HW211472   4.711   4.379   5.386
 3825SOL     OW11473   3.831   4.540   5.760
 3825SOL    HW111474   3.930   4.528   5.769
 3825SOL    HW211475   3.807   4.635   5.781
 3826SOL     OW11476   4.620   4.077   5.166
 3826SOL    HW111477   4.679   4.140   5.117
 3826SOL    HW211478   4.639   3.983   5.137
 3827SOL     OW11479   4.305   3.925   5.856
 3827SOL    HW111480   4.300   3.920   5.956
 3827SOL    HW211481   4.307   4.021   5.827
 3828SOL     OW11482   4.076   4.672   5.213
 3828SOL    HW111483   4.158   4.711   5.171
 3828SOL    HW211484   4.049   4.590   5.164
 3829SOL     OW11485   3.957   4.014   6.469
 3829SOL    HW111486   3.877   4.074   6.456
 3829SOL    HW211487   3.947   3.965   6.555
 3830SOL     OW11488   4.137   4.429   5.451
 3830SOL    HW111489   4.182   4.339   5.448
 3830SOL    HW211490   4.043   4.418   5.484
 3831SOL     OW11491   4.369   3.851   5.088
 3831SOL    HW111492   4.467   3.829   5.095
 3831SOL    HW211493   4.338   3.834   4.995
 3832SOL     OW11494   4.536   3.993   6.720
 3832SOL    HW111495   4.603   3.932   6.763
 3832SOL    HW211496   4.463   4.012   6.785
 3833SOL     OW11497   4.677   4.232   5.870
 3833SOL    HW111498   4.652   4.223   5.774
 3833SOL    HW211499   4.725   4.150   5.901
 3834SOL     OW11500   4.294   3.793   5.483
 3834SOL    HW111501   4.213   3.794   5.541
 3834SOL    HW211502   4.297   3.876   5.428
 3835SOL     OW11503   4.052   3.764   5.142
 3835SOL    HW111504   4.101   3.848   5.121
 3835SOL    HW211505   4.114   3.699   5.187
 3836SOL     OW11506   4.690   3.965   5.451
 3836SOL    HW111507   4.642   4.006   5.373
 3836SOL    HW211508   4.789   3.963   5.432
 3837SOL     OW11509   4.831   4.412   6.435
 3837SOL    HW111510   4.751   4.351   6.438
 3837SOL    HW211511   4.912   4.359   6.411
 3838SOL     OW11512   4.214   4.881   5.712
 3838SOL    HW111513   4.143   4.854   5.777
 3838SOL    HW211514   4.188   4.853   5.619
 3839SOL     OW11515   4.787   4.278   4.987
 3839SOL    HW111516   4.746   4.360   4.948
 3839SOL    HW211517   4.851   4.304   5.060
 3840SOL     OW11518   3.833   4.285   6.357
 3840SOL    HW111519   3.925   4.284   6.316
 3840SOL    HW211520   3.827   4.359   6.424
 3841SOL     OW11521   4.316   3.951   6.118
 3841SOL    HW111522   4.354   3.867   6.155
 3841SOL    HW211523   4.228   3.970   6.162
 3842SOL     OW11524   4.621   4.183   5.613
 3842SOL    HW111525   4.589   4.255   5.551
 3842SOL    HW211526   4.645   4.102   5.560
 3843SOL     OW11527   4.772   3.768   5.724
 3843SOL    HW111528   4.700   3.773   5.655
 3843SOL    HW211529   4.748   3.699   5.793
 3844SOL     OW11530   4.282   3.985   5.299
 3844SOL    HW111531   4.309   3.926   5.224
 3844SOL    HW211532   4.282   4.080   5.268
 3845SOL     OW11533   4.670   3.818   6.373
 3845SOL    HW111534   4.695   3.798   6.278
 3845SOL    HW211535   4.742   3.874   6.415
 3846SOL     OW11536   4.735   4.845   6.690
 3846SOL    HW111537   4.636   4.851   6.700
 3846SOL    HW211538   4.758   4.765   6.634
 3847SOL     OW11539   4.460   4.779   5.339
 3847SOL    HW111540   4.446   4.786   5.438
 3847SOL    HW211541   4.544   4.728   5.321
 3848SOL     OW11542   4.165   4.542   6.222
 3848SOL    HW111543   4.251   4.554   6.272
 3848SOL    HW211544   4.123   4.455   6.249
 3849SOL     OW11545   4.122   4.829   5.472
 3849SOL    HW111546   4.115   4.912   5.416
 3849SOL    HW211547   4.126   4.749   5.412
 3850SOL     OW11548   4.321   4.266   5.836
 3850SOL    HW111549   4.333   4.332   5.762
 3850SOL    HW211550   4.367   4.300   5.919
 3851SOL     OW11551   4.157   4.480   6.569
 3851SOL    HW111552   4.225   4.535   6.522
 3851SOL    HW211553   4.197   4.392   6.596
 3852SOL     OW11554   4.768   3.834   6.741
 3852SOL    HW111555   4.774   3.919   6.689
 3852SOL    HW211556   4.800   3.758   6.684
 3853SOL     OW11557   4.259   3.779   6.711
 3853SOL    HW111558   4.217   3.722   6.641
 3853SOL    HW211559   4.193   3.848   6.743
 3854SOL     OW11560   4.328   4.599   6.000
 3854SOL    HW111561   4.372   4.688   5.991
 3854SOL    HW211562   4.265   4.599   6.077
 3855SOL     OW11563   5.115   4.591   6.016
 3855SOL    HW111564   5.040   4.591   5.950
 3855SOL    HW211565   5.152   4.499   6.025
 3856SOL     OW11566   4.964   4.254   5.246
 3856SOL    HW111567   4.977   4.170   5.300
 3856SOL    HW211568   4.935   4.328   5.306
 3857SOL     OW11569   4.062   3.942   6.202
 3857SOL    HW111570   4.039   3.979   6.292
 3857SOL    HW211571   4.032   3.847   6.196
 3858SOL     OW11572   4.487   4.363   6.035
 3858SOL    HW111573   4.546   4.337   5.959
 3858SOL    HW211574   4.459   4.459   6.024
 3859SOL     OW11575   4.062   3.792   5.589
 3859SOL    HW111576   4.051   3.886   5.622
 3859SOL    HW211577   4.057   3.729   5.666
 3860SOL     OW11578   4.778   4.495   5.937
 3860SOL    HW111579   4.793   4.516   6.033
 3860SOL    HW211580   4.748   4.400   5.928
 3861SOL     OW11581   4.105   4.627   6.775
 3861SOL    HW111582   4.181   4.671   6.823
 3861SOL    HW211583   4.140   4.580   6.693
 3862SOL     OW11584   4.074   4.539   5.920
 3862SOL    HW111585   4.167   4.575   5.925
 3862SOL    HW211586   4.068   4.454   5.972
 3863SOL     OW11587   4.094   4.238   5.977
 3863SOL    HW111588   4.042   4.155   5.960
 3863SOL    HW211589   4.171   4.243   5.913
 3864SOL     OW11590   4.893   4.109   6.649
 3864SOL    HW111591   4.848   4.172   6.713
 3864SOL    HW211592   4.986   4.140   6.632
 3865SOL     OW11593   4.915   3.936   6.448
 3865SOL    HW111594   4.915   4.000   6.525
 3865SOL    HW211595   4.943   3.984   6.365
 3866SOL     OW11596   3.763   5.055   5.171
 3866SOL    HW111597   3.670   5.076   5.140
 3866SOL    HW211598   3.773   4.956   5.184
 3867SOL     OW11599   4.757   4.525   6.209
 3867SOL    HW111600   4.798   4.493   6.295
 3867SOL    HW211601   4.661   4.498   6.206
 3868SOL     OW11602   3.795   4.273   6.085
 3868SOL    HW111603   3.880   4.240   6.044
 3868SOL    HW211604   3.808   4.288   6.183
 3869SOL     OW11605   3.944   4.249   6.693
 3869SOL    HW111606   4.003   4.209   6.623
 3869SOL    HW211607   3.886   4.320   6.652
 3870SOL     OW11608   4.570   4.301   5.296
 3870SOL    HW111609   4.577   4.212   5.250
 3870SOL    HW211610   4.476   4.335   5.288
 3871SOL     OW11611   4.426   4.193   6.240
 3871SOL    HW111612   4.392   4.104   6.210
 3871SOL    HW211613   4.452   4.247   6.160
 3872SOL     OW11614   4.228   4.229   5.162
 3872SOL    HW111615   4.289   4.309   5.166
 3872SOL    HW211616   4.133   4.260   5.169
 3873SOL     OW11617   3.914   4.866   6.437
 3873SOL    HW111618   3.936   4.805   6.513
 3873SOL    HW211619   3.924   4.817   6.351
 3874SOL     OW11620   3.838   4.987   5.993
 3874SOL    HW111621   3.833   4.986   6.093
 3874SOL    HW211622   3.755   4.946   5.955
 3875SOL     OW11623   4.658   3.815   5.104
 3875SOL    HW111624   4.709   3.816   5.018
 3875SOL    HW211625   4.714   3.773   5.175
 3876SOL     OW11626   4.018   4.055   5.691
 3876SOL    HW111627   3.939   4.106   5.657
 3876SOL    HW211628   4.009   4.040   5.789
 3877SOL     OW11629   4.577   4.731   6.343
 3877SOL    HW111630   4.617   4.730   6.251
 3877SOL    HW211631   4.587   4.823   6.383
 3878SOL     OW11632   4.671   4.639   5.262
 3878SOL    HW111633   4.734   4.677   5.194
 3878SOL    HW211634   4.711   4.556   5.301
 3879SOL     OW11635   4.127   5.017   6.461
 3879SOL    HW111636   4.114   5.110   6.427
 3879SOL    HW211637   4.043   4.965   6.448
 3880SOL     OW11638   4.794   4.827   5.667
 3880SOL    HW111639   4.724   4.780   5.721
 3880SOL    HW211640   4.853   4.759   5.624
 3881SOL     OW11641   4.769   3.965   5.942
 3881SOL    HW111642   4.761   3.929   5.849
 3881SOL    HW211643   4.767   3.889   6.007
 3882SOL     OW11644   3.860   4.742   6.697
 3882SOL    HW111645   3.783   4.709   6.751
 3882SOL    HW211646   3.945   4.712   6.739
 3883SOL     OW11647   4.427   3.932   6.460
 3883SOL    HW111648   4.517   3.916   6.420
 3883SOL    HW211649   4.435   3.937   6.559
 3884SOL     OW11650   3.827   3.895   5.289
 3884SOL    HW111651   3.810   3.978   5.235
 3884SOL    HW211652   3.917   3.858   5.267
 3885SOL     OW11653   4.368   4.571   6.402
 3885SOL    HW111654   4.424   4.652   6.385
 3885SOL    HW211655   4.427   4.491   6.405
 3886SOL     OW11656   4.471   4.294   6.679
 3886SOL    HW111657   4.490   4.359   6.753
 3886SOL    HW211658   4.531   4.214   6.688
 3887SOL     OW11659   4.349   4.474   5.623
 3887SOL    HW111660   4.399   4.559   5.604
 3887SOL    HW211661   4.261   4.476   5.575
 3888SOL     OW11662   4.614   4.685   5.832
 3888SOL    HW111663   4.668   4.616   5.880
 3888SOL    HW211664   4.582   4.754   5.898
 3889SOL     OW11665   4.838   4.713   5.058
 3889SOL    HW111666   4.815   4.766   4.976
 3889SOL    HW211667   4.919   4.657   5.039
 3890SOL     OW11668   3.834   4.969   5.624
 3890SOL    HW111669   3.833   4.922   5.712
 3890SOL    HW211670   3.916   4.941   5.573
 3891SOL     OW11671   4.183   4.153   5.491
 3891SOL    HW111672   4.213   4.081   5.429
 3891SOL    HW211673   4.144   4.113   5.574
 3892SOL     OW11674   4.072   4.276   6.251
 3892SOL    HW111675   4.110   4.217   6.323
 3892SOL    HW211676   4.112   4.250   6.163
 3893SOL     OW11677   4.756   3.763   6.125
 3893SOL    HW111678   4.693   3.691   6.094
 3893SOL    HW211679   4.849   3.727   6.125
 3894SOL     OW11680   4.525   5.059   5.272
 3894SOL    HW111681   4.479   4.972   5.289
 3894SOL    HW211682   4.616   5.056   5.313
 3895SOL     OW11683   3.985   4.357   6.946
 3895SOL    HW111684   3.892   4.355   6.983
 3895SOL    HW211685   3.986   4.318   6.854
 3896SOL     OW11686   3.980   4.004   7.829
 3896SOL    HW111687   4.015   3.987   7.921
 3896SOL    HW211688   3.892   3.959   7.817
 3897SOL     OW11689   3.774   4.097   7.480
 3897SOL    HW111690   3.692   4.140   7.519
 3897SOL    HW211691   3.746   4.024   7.417
 3898SOL     OW11692   4.890   4.432   7.550
 3898SOL    HW111693   4.947   4.510   7.525
 3898SOL    HW211694   4.830   4.458   7.626
 3899SOL     OW11695   4.523   4.873   7.856
 3899SOL    HW111696   4.445   4.890   7.916
 3899SOL    HW211697   4.557   4.960   7.820
 3900SOL     OW11698   4.605   4.527   8.656
 3900SOL    HW111699   4.601   4.603   8.721
 3900SOL    HW211700   4.627   4.563   8.565
 3901SOL     OW11701   4.440   4.741   7.498
 3901SOL    HW111702   4.509   4.725   7.568
 3901SOL    HW211703   4.367   4.798   7.536
 3902SOL     OW11704   4.441   4.890   8.636
 3902SOL    HW111705   4.501   4.969   8.650
 3902SOL    HW211706   4.355   4.921   8.595
 3903SOL     OW11707   4.193   4.121   8.332
 3903SOL    HW111708   4.275   4.065   8.341
 3903SOL    HW211709   4.112   4.063   8.336
 3904SOL     OW11710   3.995   4.820   7.719
 3904SOL    HW111711   4.009   4.736   7.771
 3904SOL    HW211712   3.940   4.884   7.774
 3905SOL     OW11713   4.361   4.693   6.956
 3905SOL    HW111714   4.368   4.777   6.902
 3905SOL    HW211715   4.407   4.706   7.044
 3906SOL     OW11716   3.877   4.372   7.396
 3906SOL    HW111717   3.832   4.284   7.413
 3906SOL    HW211718   3.876   4.426   7.480
 3907SOL     OW11719   3.868   4.466   8.430
 3907SOL    HW111720   3.956   4.453   8.475
 3907SOL    HW211721   3.855   4.563   8.408
 3908SOL     OW11722   4.564   3.733   7.335
 3908SOL    HW111723   4.604   3.824   7.326
 3908SOL    HW211724   4.464   3.741   7.341
 3909SOL     OW11725   3.952   4.705   8.097
 3909SOL    HW111726   4.041   4.660   8.083
 3909SOL    HW211727   3.879   4.640   8.078
 3910SOL     OW11728   4.072   3.980   8.634
 3910SOL    HW111729   4.143   4.051   8.640
 3910SOL    HW211730   3.984   4.019   8.662
 3911SOL     OW11731   4.353   4.458   7.103
 3911SOL    HW111732   4.377   4.527   7.035
 3911SOL    HW211733   4.275   4.491   7.157
 3912SOL     OW11734   4.562   4.334   8.298
 3912SOL    HW111735   4.515   4.331   8.387
 3912SOL    HW211736   4.511   4.279   8.232
 3913SOL     OW11737   4.728   4.619   8.405
 3913SOL    HW111738   4.774   4.535   8.376
 3913SOL    HW211739   4.672   4.653   8.330
 3914SOL     OW11740   4.746   4.139   8.075
 3914SOL    HW111741   4.669   4.173   8.129
 3914SOL    HW211742   4.712   4.088   7.996
 3915SOL     OW11743   4.796   4.430   7.262
 3915SOL    HW111744   4.822   4.426   7.358
 3915SOL    HW211745   4.711   4.379   7.248
 3916SOL     OW11746   3.831   4.540   7.622
 3916SOL    HW111747   3.930   4.528   7.631
 3916SOL    HW211748   3.807   4.635   7.643
 3917SOL     OW11749   4.620   4.077   7.028
 3917SOL    HW111750   4.679   4.140   6.979
 3917SOL    HW211751   4.639   3.983   6.999
 3918SOL     OW11752   4.305   3.925   7.718
 3918SOL    HW111753   4.300   3.920   7.818
 3918SOL    HW211754   4.307   4.021   7.689
 3919SOL     OW11755   4.076   4.672   7.075
 3919SOL    HW111756   4.158   4.711   7.033
 3919SOL    HW211757   4.049   4.590   7.026
 3920SOL     OW11758   3.957   4.014   8.331
 3920SOL    HW111759   3.877   4.074   8.318
 3920SOL    HW211760   3.947   3.965   8.417
 3921SOL     OW11761   4.137   4.429   7.313
 3921SOL    HW111762   4.182   4.339   7.310
 3921SOL    HW211763   4.043   4.418   7.346
 3922SOL     OW11764   4.369   3.851   6.950
 3922SOL    HW111765   4.467   3.829   6.957
 3922SOL    HW211766   4.338   3.834   6.857
 3923SOL     OW11767   4.536   3.993   8.582
 3923SOL    HW111768   4.603   3.932   8.625
 3923SOL    HW211769   4.463   4.012   8.647
 3924SOL     OW11770   4.677   4.232   7.732
 3924SOL    HW111771   4.652   4.223   7.636
 3924SOL    HW211772   4.725   4.150   7.763
 3925SOL     OW11773   4.294   3.793   7.345
 3925SOL    HW111774   4.213   3.794   7.403
 3925SOL    HW211775   4.297   3.876   7.290
 3926SOL     OW11776   5.189   4.917   6.874
 3926SOL    HW111777   5.221   4.841   6.931
 3926SOL    HW211778   5.097   4.944   6.904
 3927SOL     OW11779   4.052   3.764   7.004
 3927SOL    HW111780   4.101   3.848   6.983
 3927SOL    HW211781   4.114   3.699   7.049
 3928SOL     OW11782   4.690   3.965   7.313
 3928SOL    HW111783   4.642   4.006   7.235
 3928SOL    HW211784   4.789   3.963   7.294
 3929SOL     OW11785   4.831   4.412   8.297
 3929SOL    HW111786   4.751   4.351   8.300
 3929SOL    HW211787   4.912   4.359   8.273
 3930SOL     OW11788   4.214   4.881   7.574
 3930SOL    HW111789   4.143   4.854   7.639
 3930SOL    HW211790   4.188   4.853   7.481
 3931SOL     OW11791   4.787   4.278   6.849
 3931SOL    HW111792   4.746   4.360   6.810
 3931SOL    HW211793   4.851   4.304   6.922
 3932SOL     OW11794   3.833   4.285   8.219
 3932SOL    HW111795   3.925   4.284   8.178
 3932SOL    HW211796   3.827   4.359   8.286
 3933SOL     OW11797   4.316   3.951   7.980
 3933SOL    HW111798   4.354   3.867   8.017
 3933SOL    HW211799   4.228   3.970   8.024
 3934SOL     OW11800   4.621   4.183   7.475
 3934SOL    HW111801   4.589   4.255   7.413
 3934SOL    HW211802   4.645   4.102   7.422
 3935SOL     OW11803   4.772   3.768   7.586
 3935SOL    HW111804   4.700   3.773   7.517
 3935SOL    HW211805   4.748   3.699   7.655
 3936SOL     OW11806   4.282   3.985   7.161
 3936SOL    HW111807   4.309   3.926   7.086
 3936SOL    HW211808   4.282   4.080   7.130
 3937SOL     OW11809   4.670   3.818   8.235
 3937SOL    HW111810   4.695   3.798   8.140
 3937SOL    HW211811   4.742   3.874   8.277
 3938SOL     OW11812   4.735   4.845   8.552
 3938SOL    HW111813   4.636   4.851   8.562
 3938SOL    HW211814   4.758   4.765   8.496
 3939SOL     OW11815   4.460   4.779   7.201
 3939SOL    HW111816   4.446   4.786   7.300
 3939SOL    HW211817   4.544   4.728   7.183
 3940SOL     OW11818   4.165   4.542   8.084
 3940SOL    HW111819   4.251   4.554   8.134
 3940SOL    HW211820   4.123   4.455   8.111
 3941SOL     OW11821   4.122   4.829   7.334
 3941SOL    HW111822   4.115   4.912   7.278
 3941SOL    HW211823   4.126   4.749   7.274
 3942SOL     OW11824   4.321   4.266   7.698
 3942SOL    HW111825   4.333   4.332   7.624
 3942SOL    HW211826   4.367   4.300   7.781
 3943SOL     OW11827   4.157   4.480   8.431
 3943SOL    HW111828   4.225   4.535   8.384
 3943SOL    HW211829   4.197   4.392   8.458
 3944SOL     OW11830   4.768   3.834   8.603
 3944SOL    HW111831   4.774   3.919   8.551
 3944SOL    HW211832   4.800   3.758   8.546
 3945SOL     OW11833   4.259   3.779   8.573
 3945SOL    HW111834   4.217   3.722   8.503
 3945SOL    HW211835   4.193   3.848   8.605
 3946SOL     OW11836   4.328   4.599   7.862
 3946SOL    HW111837   4.372   4.688   7.853
 3946SOL    HW211838   4.265   4.599   7.939
 3947SOL     OW11839   5.115   4.591   7.878
 3947SOL    HW111840   5.040   4.591   7.812
 3947SOL    HW211841   5.152   4.499   7.887
 3948SOL     OW11842   4.964   4.254   7.108
 3948SOL    HW111843   4.977   4.170   7.162
 3948SOL    HW211844   4.935   4.328   7.168
 3949SOL     OW11845   4.062   3.942   8.064
 3949SOL    HW111846   4.039   3.979   8.154
 3949SOL    HW211847   4.032   3.847   8.058
 3950SOL     OW11848   4.487   4.363   7.897
 3950SOL    HW111849   4.546   4.337   7.821
 3950SOL    HW211850   4.459   4.459   7.886
 3951SOL     OW11851   4.062   3.792   7.451
 3951SOL    HW111852   4.051   3.886   7.484
 3951SOL    HW211853   4.057   3.729   7.528
 3952SOL     OW11854   4.778   4.495   7.799
 3952SOL    HW111855   4.793   4.516   7.895
 3952SOL    HW211856   4.748   4.400   7.790
 3953SOL     OW11857   4.105   4.627   8.637
 3953SOL    HW111858   4.181   4.671   8.685
 3953SOL    HW211859   4.140   4.580   8.555
 3954SOL     OW11860   5.295   4.003   6.958
 3954SOL    HW111861   5.234   3.928   6.981
 3954SOL    HW211862   5.317   4.055   7.041
 3955SOL     OW11863   4.074   4.539   7.782
 3955SOL    HW111864   4.167   4.575   7.787
 3955SOL    HW211865   4.068   4.454   7.834
 3956SOL     OW11866   4.094   4.238   7.839
 3956SOL    HW111867   4.042   4.155   7.822
 3956SOL    HW211868   4.171   4.243   7.775
 3957SOL     OW11869   4.893   4.109   8.511
 3957SOL    HW111870   4.848   4.172   8.575
 3957SOL    HW211871   4.986   4.140   8.494
 3958SOL     OW11872   4.915   3.936   8.310
 3958SOL    HW111873   4.915   4.000   8.387
 3958SOL    HW211874   4.943   3.984   8.227
 3959SOL     OW11875   3.763   5.055   7.033
 3959SOL    HW111876   3.670   5.076   7.002
 3959SOL    HW211877   3.773   4.956   7.046
 3960SOL     OW11878   4.757   4.525   8.071
 3960SOL    HW111879   4.798   4.493   8.157
 3960SOL    HW211880   4.661   4.498   8.068
 3961SOL     OW11881   3.795   4.273   7.947
 3961SOL    HW111882   3.880   4.240   7.906
 3961SOL    HW211883   3.808   4.288   8.045
 3962SOL     OW11884   3.944   4.249   8.555
 3962SOL    HW111885   4.003   4.209   8.485
 3962SOL    HW211886   3.886   4.320   8.514
 3963SOL     OW11887   4.570   4.301   7.158
 3963SOL    HW111888   4.577   4.212   7.112
 3963SOL    HW211889   4.476   4.335   7.150
 3964SOL     OW11890   4.426   4.193   8.102
 3964SOL    HW111891   4.392   4.104   8.072
 3964SOL    HW211892   4.452   4.247   8.022
 3965SOL     OW11893   4.228   4.229   7.024
 3965SOL    HW111894   4.289   4.309   7.028
 3965SOL    HW211895   4.133   4.260   7.031
 3966SOL     OW11896   3.914   4.866   8.299
 3966SOL    HW111897   3.936   4.805   8.375
 3966SOL    HW211898   3.924   4.817   8.213
 3967SOL     OW11899   3.838   4.987   7.855
 3967SOL    HW111900   3.833   4.986   7.955
 3967SOL    HW211901   3.755   4.946   7.817
 3968SOL     OW11902   4.018   4.055   7.553
 3968SOL    HW111903   3.939   4.106   7.519
 3968SOL    HW211904   4.009   4.040   7.651
 3969SOL     OW11905   4.577   4.731   8.205
 3969SOL    HW111906   4.617   4.730   8.113
 3969SOL    HW211907   4.587   4.823   8.245
 3970SOL     OW11908   4.671   4.639   7.124
 3970SOL    HW111909   4.734   4.677   7.056
 3970SOL    HW211910   4.711   4.556   7.163
 3971SOL     OW11911   4.127   5.017   8.323
 3971SOL    HW111912   4.114   5.110   8.289
 3971SOL    HW211913   4.043   4.965   8.310
 3972SOL     OW11914   4.794   4.827   7.529
 3972SOL    HW111915   4.724   4.780   7.583
 3972SOL    HW211916   4.853   4.759   7.486
 3973SOL     OW11917   4.769   3.965   7.804
 3973SOL    HW111918   4.761   3.929   7.711
 3973SOL    HW211919   4.767   3.889   7.869
 3974SOL     OW11920   3.860   4.742   8.559
 3974SOL    HW111921   3.783   4.709   8.613
 3974SOL    HW211922   3.945   4.712   8.601
 3975SOL     OW11923   4.427   3.932   8.322
 3975SOL    HW111924   4.517   3.916   8.282
 3975SOL    HW211925   4.435   3.937   8.421
 3976SOL     OW11926   3.830   4.074   6.866
 3976SOL    HW111927   3.738   4.046   6.837
 3976SOL    HW211928   3.861   4.151   6.810
 3977SOL     OW11929   3.827   3.895   7.151
 3977SOL    HW111930   3.810   3.978   7.097
 3977SOL    HW211931   3.917   3.858   7.129
 3978SOL     OW11932   4.368   4.571   8.264
 3978SOL    HW111933   4.424   4.652   8.247
 3978SOL    HW211934   4.427   4.491   8.267
 3979SOL     OW11935   4.471   4.294   8.541
 3979SOL    HW111936   4.490   4.359   8.615
 3979SOL    HW211937   4.531   4.214   8.550
 3980SOL     OW11938   4.349   4.474   7.485
 3980SOL    HW111939   4.399   4.559   7.466
 3980SOL    HW211940   4.261   4.476   7.437
 3981SOL     OW11941   4.614   4.685   7.694
 3981SOL    HW111942   4.668   4.616   7.742
 3981SOL    HW211943   4.582   4.754   7.760
 3982SOL     OW11944   4.838   4.713   6.920
 3982SOL    HW111945   4.815   4.766   6.838
 3982SOL    HW211946   4.919   4.657   6.901
 3983SOL     OW11947   3.834   4.969   7.486
 3983SOL    HW111948   3.833   4.922   7.574
 3983SOL    HW211949   3.916   4.941   7.435
 3984SOL     OW11950   4.183   4.153   7.353
 3984SOL    HW111951   4.213   4.081   7.291
 3984SOL    HW211952   4.144   4.113   7.436
 3985SOL     OW11953   4.072   4.276   8.113
 3985SOL    HW111954   4.110   4.217   8.185
 3985SOL    HW211955   4.112   4.250   8.025
 3986SOL     OW11956   4.756   3.763   7.987
 3986SOL    HW111957   4.693   3.691   7.956
 3986SOL    HW211958   4.849   3.727   7.987
 3987SOL     OW11959   4.525   5.059   7.134
 3987SOL    HW111960   4.479   4.972   7.151
 3987SOL    HW211961   4.616   5.056   7.175
 3988SOL     OW11962   3.794   4.806   7.133
 3988SOL    HW111963   3.893   4.795   7.124
 3988SOL    HW211964   3.754   4.720   7.165
 3989SOL     OW11965   3.985   4.357   8.808
 3989SOL    HW111966   3.892   4.355   8.845
 3989SOL    HW211967   3.986   4.318   8.716
 3990SOL     OW11968   3.980   4.004   9.691
 3990SOL    HW111969   4.015   3.987   9.783
 3990SOL    HW211970   3.892   3.959   9.679
 3991SOL     OW11971   3.774   4.097   9.342
 3991SOL    HW111972   3.692   4.140   9.381
 3991SOL    HW211973   3.746   4.024   9.279
 3992SOL     OW11974   4.890   4.432   9.412
 3992SOL    HW111975   4.947   4.510   9.387
 3992SOL    HW211976   4.830   4.458   9.488
 3993SOL     OW11977   4.523   4.873   9.718
 3993SOL    HW111978   4.445   4.890   9.778
 3993SOL    HW211979   4.557   4.960   9.682
 3994SOL     OW11980   4.440   4.741   9.360
 3994SOL    HW111981   4.509   4.725   9.430
 3994SOL    HW211982   4.367   4.798   9.398
 3995SOL     OW11983   3.995   4.820   9.581
 3995SOL    HW111984   4.009   4.736   9.633
 3995SOL    HW211985   3.940   4.884   9.636
 3996SOL     OW11986   4.361   4.693   8.818
 3996SOL    HW111987   4.368   4.777   8.764
 3996SOL    HW211988   4.407   4.706   8.906
 3997SOL     OW11989   3.877   4.372   9.258
 3997SOL    HW111990   3.832   4.284   9.275
 3997SOL    HW211991   3.876   4.426   9.342
 3998SOL     OW11992   4.564   3.733   9.197
 3998SOL    HW111993   4.604   3.824   9.188
 3998SOL    HW211994   4.464   3.741   9.203
 3999SOL     OW11995   3.952   4.705   9.959
 3999SOL    HW111996   4.041   4.660   9.945
 3999SOL    HW211997   3.879   4.640   9.940
 4000SOL     OW11998   4.353   4.458   8.965
 4000SOL    HW111999   4.377   4.527   8.897
 4000SOL    HW212000   4.275   4.491   9.019
 4001SOL     OW12001   4.796   4.430   9.124
 4001SOL    HW112002   4.822   4.426   9.220
 4001SOL    HW212003   4.711   4.379   9.110
 4002SOL     OW12004   3.831   4.540   9.484
 4002SOL    HW112005   3.930   4.528   9.493
 4002SOL    HW212006   3.807   4.635   9.505
 4003SOL     OW12007   4.620   4.077   8.890
 4003SOL    HW112008   4.679   4.140   8.841
 4003SOL    HW212009   4.639   3.983   8.861
 4004SOL     OW12010   4.305   3.925   9.580
 4004SOL    HW112011   4.300   3.920   9.680
 4004SOL    HW212012   4.307   4.021   9.551
 4005SOL     OW12013   4.076   4.672   8.937
 4005SOL    HW112014   4.158   4.711   8.895
 4005SOL    HW212015   4.049   4.590   8.888
 4006SOL     OW12016   4.137   4.429   9.175
 4006SOL    HW112017   4.182   4.339   9.172
 4006SOL    HW212018   4.043   4.418   9.208
 4007SOL     OW12019   4.369   3.851   8.812
 4007SOL    HW112020   4.467   3.829   8.819
 4007SOL    HW212021   4.338   3.834   8.719
 4008SOL     OW12022   4.677   4.232   9.594
 4008SOL    HW112023   4.652   4.223   9.498
 4008SOL    HW212024   4.725   4.150   9.625
 4009SOL     OW12025   4.294   3.793   9.207
 4009SOL    HW112026   4.213   3.794   9.265
 4009SOL    HW212027   4.297   3.876   9.152
 4010SOL     OW12028   5.189   4.917   8.736
 4010SOL    HW112029   5.221   4.841   8.793
 4010SOL    HW212030   5.097   4.944   8.766
 4011SOL     OW12031   4.052   3.764   8.866
 4011SOL    HW112032   4.101   3.848   8.845
 4011SOL    HW212033   4.114   3.699   8.911
 4012SOL     OW12034   4.690   3.965   9.175
 4012SOL    HW112035   4.642   4.006   9.097
 4012SOL    HW212036   4.789   3.963   9.156
 4013SOL     OW12037   4.214   4.881   9.436
 4013SOL    HW112038   4.143   4.854   9.501
 4013SOL    HW212039   4.188   4.853   9.343
 4014SOL     OW12040   4.787   4.278   8.711
 4014SOL    HW112041   4.746   4.360   8.672
 4014SOL    HW212042   4.851   4.304   8.784
 4015SOL     OW12043   4.621   4.183   9.337
 4015SOL    HW112044   4.589   4.255   9.275
 4015SOL    HW212045   4.645   4.102   9.284
 4016SOL     OW12046   4.772   3.768   9.448
 4016SOL    HW112047   4.700   3.773   9.379
 4016SOL    HW212048   4.748   3.699   9.517
 4017SOL     OW12049   4.282   3.985   9.023
 4017SOL    HW112050   4.309   3.926   8.948
 4017SOL    HW212051   4.282   4.080   8.992
 4018SOL     OW12052   4.460   4.779   9.063
 4018SOL    HW112053   4.446   4.786   9.162
 4018SOL    HW212054   4.544   4.728   9.045
 4019SOL     OW12055   4.165   4.542   9.946
 4019SOL    HW112056   4.251   4.554   9.996
 4019SOL    HW212057   4.123   4.455   9.973
 4020SOL     OW12058   4.122   4.829   9.196
 4020SOL    HW112059   4.115   4.912   9.140
 4020SOL    HW212060   4.126   4.749   9.136
 4021SOL     OW12061   4.321   4.266   9.560
 4021SOL    HW112062   4.333   4.332   9.486
 4021SOL    HW212063   4.367   4.300   9.643
 4022SOL     OW12064   4.328   4.599   9.724
 4022SOL    HW112065   4.372   4.688   9.715
 4022SOL    HW212066   4.265   4.599   9.801
 4023SOL     OW12067   5.115   4.591   9.740
 4023SOL    HW112068   5.040   4.591   9.674
 4023SOL    HW212069   5.152   4.499   9.749
 4024SOL     OW12070   4.964   4.254   8.970
 4024SOL    HW112071   4.977   4.170   9.024
 4024SOL    HW212072   4.935   4.328   9.030
 4025SOL     OW12073   4.062   3.942   9.926
 4025SOL    HW112074   4.039   3.979  10.016
 4025SOL    HW212075   4.032   3.847   9.920
 4026SOL     OW12076   4.487   4.363   9.759
 4026SOL    HW112077   4.546   4.337   9.683
 4026SOL    HW212078   4.459   4.459   9.748
 4027SOL     OW12079   4.062   3.792   9.313
 4027SOL    HW112080   4.051   3.886   9.346
 4027SOL    HW212081   4.057   3.729   9.390
 4028SOL     OW12082   4.778   4.495   9.661
 4028SOL    HW112083   4.793   4.516   9.757
 4028SOL    HW212084   4.748   4.400   9.652
 4029SOL     OW12085   5.295   4.003   8.820
 4029SOL    HW112086   5.234   3.928   8.843
 4029SOL    HW212087   5.317   4.055   8.903
 4030SOL     OW12088   4.074   4.539   9.644
 4030SOL    HW112089   4.167   4.575   9.649
 4030SOL    HW212090   4.068   4.454   9.696
 4031SOL     OW12091   4.094   4.238   9.701
 4031SOL    HW112092   4.042   4.155   9.684
 4031SOL    HW212093   4.171   4.243   9.637
 4032SOL     OW12094   4.915   3.936  10.172
 4032SOL    HW112095   4.915   4.000  10.249
 4032SOL    HW212096   4.943   3.984  10.089
 4033SOL     OW12097   3.763   5.055   8.895
 4033SOL    HW112098   3.670   5.076   8.864
 4033SOL    HW212099   3.773   4.956   8.908
 4034SOL     OW12100   4.757   4.525   9.933
 4034SOL    HW112101   4.798   4.493  10.019
 4034SOL    HW212102   4.661   4.498   9.930
 4035SOL     OW12103   3.795   4.273   9.809
 4035SOL    HW112104   3.880   4.240   9.768
 4035SOL    HW212105   3.808   4.288   9.907
 4036SOL     OW12106   4.570   4.301   9.020
 4036SOL    HW112107   4.577   4.212   8.974
 4036SOL    HW212108   4.476   4.335   9.012
 4037SOL     OW12109   4.426   4.193   9.964
 4037SOL    HW112110   4.392   4.104   9.934
 4037SOL    HW212111   4.452   4.247   9.884
 4038SOL     OW12112   4.228   4.229   8.886
 4038SOL    HW112113   4.289   4.309   8.890
 4038SOL    HW212114   4.133   4.260   8.893
 4039SOL     OW12115   3.914   4.866  10.161
 4039SOL    HW112116   3.936   4.805  10.237
 4039SOL    HW212117   3.924   4.817  10.075
 4040SOL     OW12118   3.838   4.987   9.717
 4040SOL    HW112119   3.833   4.986   9.817
 4040SOL    HW212120   3.755   4.946   9.679
 4041SOL     OW12121   4.018   4.055   9.415
 4041SOL    HW112122   3.939   4.106   9.381
 4041SOL    HW212123   4.009   4.040   9.513
 4042SOL     OW12124   4.577   4.731  10.067
 4042SOL    HW112125   4.617   4.730   9.975
 4042SOL    HW212126   4.587   4.823  10.107
 4043SOL     OW12127   4.671   4.639   8.986
 4043SOL    HW112128   4.734   4.677   8.918
 4043SOL    HW212129   4.711   4.556   9.025
 4044SOL     OW12130   4.794   4.827   9.391
 4044SOL    HW112131   4.724   4.780   9.445
 4044SOL    HW212132   4.853   4.759   9.348
 4045SOL     OW12133   4.769   3.965   9.666
 4045SOL    HW112134   4.761   3.929   9.573
 4045SOL    HW212135   4.767   3.889   9.731
 4046SOL     OW12136   3.830   4.074   8.728
 4046SOL    HW112137   3.738   4.046   8.699
 4046SOL    HW212138   3.861   4.151   8.672
 4047SOL     OW12139   3.827   3.895   9.013
 4047SOL    HW112140   3.810   3.978   8.959
 4047SOL    HW212141   3.917   3.858   8.991
 4048SOL     OW12142   4.349   4.474   9.347
 4048SOL    HW112143   4.399   4.559   9.328
 4048SOL    HW212144   4.261   4.476   9.299
 4049SOL     OW12145   4.614   4.685   9.556
 4049SOL    HW112146   4.668   4.616   9.604
 4049SOL    HW212147   4.582   4.754   9.622
 4050SOL     OW12148   4.838   4.713   8.782
 4050SOL    HW112149   4.815   4.766   8.700
 4050SOL    HW212150   4.919   4.657   8.763
 4051SOL     OW12151   3.834   4.969   9.348
 4051SOL    HW112152   3.833   4.922   9.436
 4051SOL    HW212153   3.916   4.941   9.297
 4052SOL     OW12154   4.183   4.153   9.215
 4052SOL    HW112155   4.213   4.081   9.153
 4052SOL    HW212156   4.144   4.113   9.298
 4053SOL     OW12157   4.756   3.763   9.849
 4053SOL    HW112158   4.693   3.691   9.818
 4053SOL    HW212159   4.849   3.727   9.849
 4054SOL     OW12160   4.525   5.059   8.996
 4054SOL    HW112161   4.479   4.972   9.013
 4054SOL    HW212162   4.616   5.056   9.037
 4055SOL     OW12163   3.794   4.806   8.995
 4055SOL    HW112164   3.893   4.795   8.986
 4055SOL    HW212165   3.754   4.720   9.027
   5.00000   5.00000  15.00000
