Water Slab for Clausius-Clapeyron Phase 1 in water
12165
    1SOL     OW    1   4.680   1.971   6.114  0.4965  0.3028  1.0769
    1SOL    HW1    2   4.605   2.030   6.125  0.9052  1.1173 -0.2828
    1SOL    HW2    3   4.643   1.892   6.074  0.1869  0.2253  1.5073
    2SOL     OW    4   3.268   0.970   5.856  0.3398 -0.4357 -0.4280
    2SOL    HW1    5   3.285   1.054   5.899 -0.5682  0.4531 -1.7061
    2SOL    HW2    6   3.175   0.952   5.872  0.2277 -0.5686 -1.1667
    3SOL     OW    7   4.694   4.413   6.569 -0.4752  0.9528 -0.9077
    3SOL    HW1    8   4.675   4.374   6.655 -1.2169  0.8425 -1.1184
    3SOL    HW2    9   4.778   4.374   6.544 -0.0151  1.3255 -0.0381
    4SOL     OW   10   0.240   1.925   7.128  0.2092  0.0183 -0.3796
    4SOL    HW1   11   0.238   1.840   7.170  0.2345  0.0600 -0.2939
    4SOL    HW2   12   0.330   1.935   7.096  0.1554 -0.0708 -0.5622
    5SOL     OW   13   4.333   2.962   5.213  0.0780  0.1790 -0.3543
    5SOL    HW1   14   4.247   2.948   5.253  0.4206  0.8328  0.6485
    5SOL    HW2   15   4.338   3.057   5.200  1.0899  0.2797  0.6507
    6SOL     OW   16   0.865   1.860   6.379 -0.7558 -0.2741  0.1765
    6SOL    HW1   17   0.920   1.850   6.301 -0.1108 -0.6330  0.6667
    6SOL    HW2   18   0.776   1.845   6.347 -0.6166  0.6121 -0.6909
    7SOL     OW   19   1.403   0.439   6.489 -0.2261 -0.1028 -0.2882
    7SOL    HW1   20   1.398   0.486   6.405  2.7515 -0.6252 -0.8854
    7SOL    HW2   21   1.429   0.350   6.465  1.0902 -0.1512  1.1902
    8SOL     OW   22   0.445   2.201   5.661  0.3303 -0.2089  0.2109
    8SOL    HW1   23   0.407   2.167   5.580  1.5629 -1.9205  0.3009
    8SOL    HW2   24   0.532   2.233   5.636  1.0308 -1.4518  0.9589
    9SOL     OW   25   1.465   1.249   6.886 -0.6496  0.1042 -0.0812
    9SOL    HW1   26   1.425   1.177   6.836 -1.1027 -0.1258  0.5952
    9SOL    HW2   27   1.447   1.327   6.834 -0.8475 -0.1708 -0.4328
   10SOL     OW   28   1.088   1.703   5.355  0.0661  0.4016  0.1001
   10SOL    HW1   29   1.142   1.627   5.377  0.9006  0.5442 -1.3341
   10SOL    HW2   30   1.052   1.732   5.439  0.1599 -1.2454  0.7477
   11SOL     OW   31   1.069   4.711   6.902 -0.2210 -0.0844 -0.8729
   11SOL    HW1   32   1.132   4.750   6.963  0.7153 -0.2098 -1.7368
   11SOL    HW2   33   1.080   4.761   6.821 -0.7337 -0.5763 -1.2521
   12SOL     OW   34   0.188   1.445   5.942  0.3281  0.1568 -0.0156
   12SOL    HW1   35   0.177   1.539   5.931 -1.3726 -0.1427 -1.4227
   12SOL    HW2   36   0.275   1.426   5.909  1.1914  1.3576  1.4388
   13SOL     OW   37   1.636   1.316   5.928  0.6528  0.1472 -0.2858
   13SOL    HW1   38   1.610   1.375   5.999  1.2958 -0.5706  0.5728
   13SOL    HW2   39   1.587   1.236   5.944  3.5785 -1.4479  1.7046
   14SOL     OW   40   4.605   0.727   5.974 -0.0140 -0.2450 -0.6700
   14SOL    HW1   41   4.531   0.787   5.966  0.6526  0.7465  0.2561
   14SOL    HW2   42   4.578   0.664   6.041 -0.7219 -1.0360 -1.6571
   15SOL     OW   43   3.157   2.031   6.142 -0.1084 -0.4718 -0.0768
   15SOL    HW1   44   3.154   2.037   6.238 -0.4564 -2.8606  0.1271
   15SOL    HW2   45   3.156   2.122   6.112 -2.4532  0.3381  2.1065
   16SOL     OW   46   0.689   1.317   5.736 -0.2982  0.2491  0.1066
   16SOL    HW1   47   0.772   1.292   5.777  0.1712 -0.6883 -1.3697
   16SOL    HW2   48   0.697   1.412   5.724 -0.1255  0.4220  1.4194
   17SOL     OW   49   4.742   2.052   6.945  0.4235  0.3390 -0.7609
   17SOL    HW1   50   4.782   2.019   7.026  1.1721  1.7762 -0.4997
   17SOL    HW2   51   4.665   1.997   6.932  0.5298 -0.2070  0.6988
   18SOL     OW   52   2.818   1.012   6.618  0.2530  0.3062 -0.3832
   18SOL    HW1   53   2.911   1.012   6.639  0.2145  0.2486 -0.2108
   18SOL    HW2   54   2.792   0.920   6.620  0.0760  0.3615  0.1020
   19SOL     OW   55   3.718   2.566   7.269 -0.0662  0.2181  0.0766
   19SOL    HW1   56   3.627   2.539   7.278  0.2413 -1.0358 -0.3689
   19SOL    HW2   57   3.766   2.504   7.324  0.5376  0.7257  0.1251
   20SOL     OW   58   3.988   2.378   5.622  0.1378 -0.0080  0.6562
   20SOL    HW1   59   4.002   2.294   5.580 -0.5328 -0.0451  0.5062
   20SOL    HW2   60   4.063   2.431   5.595  0.5964 -0.5737  0.8058
   21SOL     OW   61   4.691   1.753   5.012  0.1320 -0.0975 -0.1601
   21SOL    HW1   62   4.634   1.771   4.937 -0.6895 -0.6013  0.3215
   21SOL    HW2   63   4.670   1.663   5.037 -1.6171  0.8714  2.3044
   22SOL     OW   64   1.674   4.976   8.037 -0.1824 -0.0215  0.5204
   22SOL    HW1   65   1.678   5.041   8.108  1.5555  0.6086 -0.0811
   22SOL    HW2   66   1.657   4.893   8.081 -0.6095  0.5796  1.5191
   23SOL     OW   67   0.776   4.210   7.104 -0.3955  0.2441  0.0674
   23SOL    HW1   68   0.797   4.286   7.157  0.9139  0.0170 -0.1094
   23SOL    HW2   69   0.747   4.247   7.020 -2.0134  0.5862  0.7220
   24SOL     OW   70   1.309   0.544   5.231  0.4180  0.7428  0.1528
   24SOL    HW1   71   1.314   0.497   5.147  0.7595 -0.0287  0.5948
   24SOL    HW2   72   1.220   0.580   5.232  0.4021  0.7479 -0.5301
   25SOL     OW   73   0.888   4.926   5.640 -0.3860 -0.0378 -0.4595
   25SOL    HW1   74   0.922   4.837   5.632 -2.5344 -0.9669  0.0591
   25SOL    HW2   75   0.897   4.947   5.733 -0.3981  0.0638 -0.4812
   26SOL     OW   76   0.508   1.587   6.093 -0.4217  0.4722 -0.0512
   26SOL    HW1   77   0.426   1.574   6.141 -0.1744 -0.1831  0.2130
   26SOL    HW2   78   0.572   1.532   6.139 -0.0483  0.2519 -0.8085
   27SOL     OW   79   0.256   0.438   5.178 -0.4974 -0.7180  0.5132
   27SOL    HW1   80   0.189   0.371   5.184 -1.4057  0.2066  1.1016
   27SOL    HW2   81   0.215   0.516   5.215 -0.2646  0.7839 -2.1575
   28SOL     OW   82   4.496   0.871   5.374  0.0196 -0.2998  0.6892
   28SOL    HW1   83   4.568   0.875   5.311 -0.9802 -0.0719 -0.4808
   28SOL    HW2   84   4.470   0.963   5.386 -1.2899 -0.4949 -0.3857
   29SOL     OW   85   0.038   0.153   6.624  0.2251 -0.4955 -0.2658
   29SOL    HW1   86   0.028   0.085   6.691  0.9957 -0.7349 -0.3857
   29SOL    HW2   87  -0.038   0.142   6.568 -1.2733  0.6916  1.4053
   30SOL     OW   88   0.810   4.611   6.523  0.4909 -0.3800  0.1592
   30SOL    HW1   89   0.787   4.704   6.528 -2.0738 -0.7824 -1.8586
   30SOL    HW2   90   0.819   4.584   6.614  1.2289  1.7905  0.8043
   31SOL     OW   91   0.454   2.515   7.243  0.4678  0.2770 -0.4573
   31SOL    HW1   92   0.427   2.450   7.178 -2.6241 -0.2134  1.1689
   31SOL    HW2   93   0.393   2.588   7.231  2.0365  1.6747 -0.2891
   32SOL     OW   94   2.541   4.848   7.066 -0.1293  0.1441 -0.5936
   32SOL    HW1   95   2.533   4.912   7.137  1.0854  0.9464 -1.1490
   32SOL    HW2   96   2.635   4.840   7.052 -0.2616 -1.7627 -0.5634
   33SOL     OW   97   3.793   4.918   5.804  0.6169  0.1788  0.3183
   33SOL    HW1   98   3.803   5.011   5.784 -2.0299  0.1949 -1.4331
   33SOL    HW2   99   3.726   4.916   5.873  0.7510 -0.4244  0.4341
   34SOL     OW  100   0.248   2.946   6.926 -0.0363 -0.5015  0.1103
   34SOL    HW1  101   0.164   2.959   6.883 -1.1914 -2.6900  1.5153
   34SOL    HW2  102   0.310   2.932   6.854 -1.2551 -0.8569 -0.9093
   35SOL     OW  103   0.347   0.813   6.331 -0.0485  0.7555  0.0659
   35SOL    HW1  104   0.436   0.846   6.322  0.1042  0.6018  0.9217
   35SOL    HW2  105   0.357   0.719   6.346 -0.4342  0.4686 -1.3112
   36SOL     OW  106   0.389   4.722   6.868 -0.7145 -0.2705 -0.1919
   36SOL    HW1  107   0.347   4.722   6.781 -1.6448 -2.5778  0.1844
   36SOL    HW2  108   0.316   4.730   6.929 -0.2096 -0.2131  0.4083
   37SOL     OW  109   2.247   0.368   5.132  0.1760 -0.3980  0.1769
   37SOL    HW1  110   2.304   0.292   5.130  1.2198  0.2962  1.8647
   37SOL    HW2  111   2.303   0.440   5.161 -0.7587  1.0655 -1.4652
   38SOL     OW  112   4.510   1.749   4.800  0.1644  0.0525 -0.7744
   38SOL    HW1  113   4.422   1.717   4.822  0.1154  0.2808 -0.6332
   38SOL    HW2  114   4.537   1.695   4.726 -0.6674  0.9159 -1.7347
   39SOL     OW  115   3.493   0.527   5.278 -0.6928 -0.1597 -1.4735
   39SOL    HW1  116   3.466   0.615   5.304  0.2462 -0.0940 -0.6712
   39SOL    HW2  117   3.528   0.487   5.358 -0.5234 -1.0330 -1.9646
   40SOL     OW  118   2.749   3.816   7.129 -0.7526  0.5716  0.2995
   40SOL    HW1  119   2.771   3.831   7.220  0.2130 -0.6835  0.3015
   40SOL    HW2  120   2.774   3.897   7.084 -1.5530  1.3210  1.1837
   41SOL     OW  121   0.161   1.643   5.293 -0.3421  0.4446 -0.0551
   41SOL    HW1  122   0.160   1.554   5.328  0.7427  0.4260 -0.0504
   41SOL    HW2  123   0.068   1.666   5.285 -0.6408 -0.0894  1.4341
   42SOL     OW  124   2.479   1.801   5.427 -0.1321 -0.3362 -0.5957
   42SOL    HW1  125   2.489   1.749   5.507 -2.7022 -2.4160 -1.4592
   42SOL    HW2  126   2.428   1.877   5.454  1.8886  0.7815  0.2927
   43SOL     OW  127   4.489   2.402   5.882  0.1643  0.2773 -0.1581
   43SOL    HW1  128   4.479   2.381   5.789  0.1919  0.9033 -0.3042
   43SOL    HW2  129   4.455   2.491   5.891  0.2731  0.2667  0.4115
   44SOL     OW  130   1.138   1.130   5.763  0.0315 -0.5559  0.1468
   44SOL    HW1  131   1.203   1.195   5.791  0.2309 -1.1822  1.2071
   44SOL    HW2  132   1.118   1.153   5.672  1.6178 -0.2472 -0.1497
   45SOL     OW  133   0.060   1.417   6.195 -0.0229 -0.0834  0.0283
   45SOL    HW1  134   0.127   1.467   6.241  2.0589 -2.8676  0.2380
   45SOL    HW2  135   0.092   1.411   6.105  0.2649 -1.8004  0.2259
   46SOL     OW  136   4.176   0.251   9.202  0.2192 -0.4579 -0.1761
   46SOL    HW1  137   4.125   0.171   9.190  0.4894 -0.4775 -1.2869
   46SOL    HW2  138   4.267   0.224   9.186  0.1143  0.4950 -2.9957
   47SOL     OW  139   0.586   0.871   5.631 -0.2224  0.2659  0.2201
   47SOL    HW1  140   0.658   0.840   5.576 -1.8836 -0.0861 -1.9105
   47SOL    HW2  141   0.592   0.967   5.626 -0.0268  0.2378 -0.1404
   48SOL     OW  142   2.415   0.171   5.834  0.6330 -0.0158  0.5058
   48SOL    HW1  143   2.337   0.201   5.881 -0.5310 -2.5982  0.3930
   48SOL    HW2  144   2.487   0.185   5.895 -0.3349 -0.0921  1.7029
   49SOL     OW  145   2.602   1.206   6.590  1.0986 -0.6707  0.3315
   49SOL    HW1  146   2.660   1.131   6.602  3.3274  0.3441 -2.7639
   49SOL    HW2  147   2.662   1.281   6.583 -0.9385  1.1867  1.5536
   50SOL     OW  148   2.476   1.221   5.841  0.8680 -0.1176  0.6207
   50SOL    HW1  149   2.498   1.284   5.772  0.7538 -0.5719  0.1591
   50SOL    HW2  150   2.549   1.159   5.841  1.6630  0.7688  2.0132
   51SOL     OW  151   2.268   4.586   5.815  0.1354 -0.5631  0.0812
   51SOL    HW1  152   2.318   4.509   5.788  0.1207 -0.5447  0.0037
   51SOL    HW2  153   2.333   4.656   5.821 -0.0403 -0.3006 -0.9731
   52SOL     OW  154   1.535   2.608   6.166 -0.0241 -0.4480 -0.3752
   52SOL    HW1  155   1.478   2.569   6.233 -0.9563  0.4774 -0.5896
   52SOL    HW2  156   1.572   2.685   6.209  0.6101 -0.7204 -0.4291
   53SOL     OW  157   0.138   1.943   6.508  0.0501 -0.0340 -0.2267
   53SOL    HW1  158   0.165   1.898   6.428  1.9810  0.5083  0.0646
   53SOL    HW2  159   0.175   1.891   6.579  1.5706  1.4305  0.1401
   54SOL     OW  160   1.501   1.425   5.132  0.3410 -0.0895 -0.6515
   54SOL    HW1  161   1.526   1.426   5.224  0.6298 -1.3975 -0.6925
   54SOL    HW2  162   1.426   1.366   5.127  0.1158  0.2294 -1.2102
   55SOL     OW  163   1.106   1.568   5.113  0.4135 -0.1777  0.0438
   55SOL    HW1  164   1.060   1.595   5.193  0.6163 -1.6138  0.6804
   55SOL    HW2  165   1.036   1.552   5.050  0.0032 -1.8085  0.8374
   56SOL     OW  166   4.564   0.187   8.356 -0.7423  0.7280 -0.3645
   56SOL    HW1  167   4.653   0.209   8.327 -0.7763  0.7590 -0.4452
   56SOL    HW2  168   4.555   0.233   8.439  0.5489 -1.9837  1.3916
   57SOL     OW  169   0.932   4.295   5.900 -0.0008 -0.8700  0.0931
   57SOL    HW1  170   1.000   4.305   5.966 -0.7782 -0.7960  0.9081
   57SOL    HW2  171   0.850   4.300   5.949 -0.6072 -0.4603 -0.9277
   58SOL     OW  172   0.590   0.681   6.607  0.2132  0.6757  0.0253
   58SOL    HW1  173   0.568   0.754   6.665 -1.0567 -0.2364  0.7497
   58SOL    HW2  174   0.662   0.714   6.552  0.4681  2.0527  1.1309
   59SOL     OW  175   4.506   2.772   6.241  0.1215  0.1513 -0.6094
   59SOL    HW1  176   4.580   2.744   6.187  1.6316 -0.6526  1.7226
   59SOL    HW2  177   4.437   2.709   6.222  0.4397  0.1659 -1.9085
   60SOL     OW  178   4.343   0.278   7.591 -0.6191 -0.2341  0.2605
   60SOL    HW1  179   4.266   0.230   7.622 -0.3414 -1.0589 -0.3201
   60SOL    HW2  180   4.382   0.313   7.671 -0.8300 -0.9667  0.6956
   61SOL     OW  181   2.068   1.878   5.491 -0.3161  0.1246  0.0656
   61SOL    HW1  182   1.994   1.827   5.524  0.1156 -1.5299 -1.3751
   61SOL    HW2  183   2.137   1.865   5.555 -0.7234  0.2763  0.5430
   62SOL     OW  184   0.263   3.188   5.613 -0.2637 -0.3845 -0.1625
   62SOL    HW1  185   0.328   3.242   5.568 -0.1894 -1.1346 -0.9976
   62SOL    HW2  186   0.259   3.223   5.702  0.7186  0.1620 -0.3181
   63SOL     OW  187   1.931   2.001   5.876 -0.1434  0.6436 -0.3679
   63SOL    HW1  188   1.868   2.036   5.812 -0.0566  1.1417 -0.1802
   63SOL    HW2  189   1.951   2.075   5.933 -0.4220  0.1391  0.4029
   64SOL     OW  190   3.306   3.036   5.147 -0.3514  0.0018  0.0055
   64SOL    HW1  191   3.340   2.950   5.174 -2.1100  0.0436  2.7892
   64SOL    HW2  192   3.211   3.027   5.156 -0.5514  2.3581  0.7406
   65SOL     OW  193   2.496   3.475   5.653  0.3964  0.4164  0.4465
   65SOL    HW1  194   2.475   3.466   5.560  1.7361  1.1390  0.0429
   65SOL    HW2  195   2.453   3.556   5.680 -0.6872 -0.2278  0.6826
   66SOL     OW  196   1.210   4.223   5.529 -0.2207  0.5672 -0.1245
   66SOL    HW1  197   1.287   4.172   5.554 -1.2951 -0.5944  0.9232
   66SOL    HW2  198   1.166   4.168   5.464 -0.0522  1.3401 -0.9055
   67SOL     OW  199   1.275   1.254   5.272  0.3709 -0.4675  0.1828
   67SOL    HW1  200   1.223   1.335   5.276 -0.2550 -0.8550  0.0554
   67SOL    HW2  201   1.297   1.235   5.363 -0.4351 -0.7520  0.3256
   68SOL     OW  202   4.929   4.368   5.226 -0.2008 -0.0237  0.0733
   68SOL    HW1  203   5.019   4.400   5.227  0.2307 -1.2071  0.2956
   68SOL    HW2  204   4.933   4.284   5.181 -1.0251 -0.5419  0.9163
   69SOL     OW  205   0.456   1.389   5.891 -0.8686 -0.1091  0.3065
   69SOL    HW1  206   0.480   1.461   5.949 -1.0644 -0.9131  1.4268
   69SOL    HW2  207   0.540   1.352   5.863 -0.7705 -0.1401  0.6356
   70SOL     OW  208   0.201   4.756   5.483 -0.1381 -0.4602  0.1345
   70SOL    HW1  209   0.246   4.673   5.468 -2.9657 -2.0935  0.1253
   70SOL    HW2  210   0.219   4.777   5.574  0.6383 -1.0338  0.1269
   71SOL     OW  211   1.788   0.341   5.677 -0.4840  0.2902  0.7104
   71SOL    HW1  212   1.740   0.423   5.692 -1.2840  0.2329 -1.3024
   71SOL    HW2  213   1.732   0.290   5.620  1.0093 -0.7247  0.0861
   72SOL     OW  214   0.736   3.572   5.210  0.4560  0.3086 -1.0107
   72SOL    HW1  215   0.677   3.641   5.180  0.9279  2.0741  1.7273
   72SOL    HW2  216   0.821   3.597   5.175  0.3412  0.1769 -1.3881
   73SOL     OW  217   0.616   0.896   5.081 -0.2497  0.6365 -0.0422
   73SOL    HW1  218   0.690   0.847   5.045 -0.4385  0.0024  0.3961
   73SOL    HW2  219   0.545   0.832   5.084 -0.6421  1.0774  0.0878
   74SOL     OW  220   2.253   3.463   5.893  0.4079 -0.5476  0.1814
   74SOL    HW1  221   2.157   3.459   5.884  0.3732 -0.2628  0.3810
   74SOL    HW2  222   2.279   3.535   5.835  0.4404 -0.2751  0.5307
   75SOL     OW  223   1.952   0.730   6.239 -0.3941 -0.0262  0.1130
   75SOL    HW1  224   1.949   0.664   6.169 -1.3773  2.1271 -2.0338
   75SOL    HW2  225   2.042   0.727   6.271  0.1542 -0.9438 -1.4154
   76SOL     OW  226   3.882   1.330   6.006 -0.1923 -0.4898  0.5811
   76SOL    HW1  227   3.973   1.340   5.976  0.0121 -1.4019  0.8515
   76SOL    HW2  228   3.890   1.287   6.092 -0.8829 -0.5883  0.6007
   77SOL     OW  229   4.998   2.150   6.276 -0.2224  0.4183 -0.7344
   77SOL    HW1  230   4.910   2.186   6.286 -0.8355 -1.3705  0.8368
   77SOL    HW2  231   5.026   2.131   6.365  0.6730 -1.5015 -1.3740
   78SOL     OW  232   0.704   0.995   7.716 -0.3262  0.6280 -0.3740
   78SOL    HW1  233   0.623   0.945   7.720 -1.1612  1.9962  0.5741
   78SOL    HW2  234   0.678   1.086   7.732  1.4947  0.9738  1.0593
   79SOL     OW  235   1.561   2.903   6.729  0.1901  0.2245 -0.1848
   79SOL    HW1  236   1.575   2.911   6.823  0.7340  0.2264 -0.2595
   79SOL    HW2  237   1.641   2.939   6.690  0.9705 -1.8302 -0.5998
   80SOL     OW  238   4.777   1.476   6.261 -0.1991  0.2592 -0.0920
   80SOL    HW1  239   4.718   1.417   6.214  0.3562 -0.3973  0.0080
   80SOL    HW2  240   4.864   1.438   6.248  0.1747  1.0590 -0.0135
   81SOL     OW  241   2.686   1.514   5.128 -0.3463 -0.0695  0.0135
   81SOL    HW1  242   2.666   1.460   5.205  0.6093 -0.6103 -0.1051
   81SOL    HW2  243   2.678   1.455   5.054  2.3440 -0.5753  0.0012
   82SOL     OW  244   0.069   2.061   5.607  0.3303 -0.2502  0.1889
   82SOL    HW1  245   0.050   2.097   5.520 -0.9458 -1.6494 -0.1534
   82SOL    HW2  246  -0.016   2.060   5.652  0.9208  0.1824  1.3628
   83SOL     OW  247   3.635   4.555   6.232  0.4502  0.1165  1.0623
   83SOL    HW1  248   3.638   4.546   6.137  0.8362  0.8619  0.9944
   83SOL    HW2  249   3.682   4.479   6.266  2.9516  1.3219  0.5589
   84SOL     OW  250   4.978   1.233   5.886  0.4230 -0.4129  0.2554
   84SOL    HW1  251   5.059   1.248   5.935  1.4916  0.5747 -1.6488
   84SOL    HW2  252   4.929   1.315   5.896  0.4977 -0.3319 -0.0081
   85SOL     OW  253   0.487   1.916   5.620 -0.2831 -0.3096 -0.0303
   85SOL    HW1  254   0.456   1.949   5.535 -1.3379 -1.6670 -0.1922
   85SOL    HW2  255   0.480   1.992   5.678  0.0750  0.5332 -1.0442
   86SOL     OW  256   1.266   4.725   5.400 -0.7151  0.4045  0.5955
   86SOL    HW1  257   1.335   4.750   5.461  0.7102 -0.8254 -0.4528
   86SOL    HW2  258   1.272   4.790   5.330  0.1520 -0.3195 -0.0309
   87SOL     OW  259   0.507   1.588   4.954 -0.6713  0.2364 -0.2032
   87SOL    HW1  260   0.475   1.504   4.989  1.5003 -0.1067  1.1750
   87SOL    HW2  261   0.469   1.654   5.012  0.1972 -0.0754  0.7446
   88SOL     OW  262   1.646   2.111   5.841  0.0174  0.7805 -0.0466
   88SOL    HW1  263   1.618   2.148   5.924  0.6084  3.2586 -0.8543
   88SOL    HW2  264   1.592   2.156   5.775 -1.3247 -2.0018 -1.0081
   89SOL     OW  265   1.965   4.384   6.027 -0.2077  0.1627  0.4865
   89SOL    HW1  266   1.957   4.478   6.011 -0.3411  0.1453  0.4531
   89SOL    HW2  267   2.040   4.376   6.086  1.2605  0.1173 -1.2879
   90SOL     OW  268   2.781   4.712   6.077 -0.4161 -0.0636 -0.1349
   90SOL    HW1  269   2.849   4.651   6.046 -2.4093 -0.8504 -3.4257
   90SOL    HW2  270   2.727   4.729   6.000 -2.2030  2.9620  1.5949
   91SOL     OW  271   2.387   4.749   5.056 -0.4002  0.0446  0.6104
   91SOL    HW1  272   2.429   4.834   5.049  0.5640 -0.4930 -0.6585
   91SOL    HW2  273   2.295   4.765   5.037 -0.1844  0.7762  0.1556
   92SOL     OW  274   0.476   0.567   5.348  0.3674 -0.1946  0.4768
   92SOL    HW1  275   0.411   0.540   5.412  1.8603 -1.3360  1.6013
   92SOL    HW2  276   0.508   0.484   5.311  1.3237  0.3202  0.1290
   93SOL     OW  277   4.874   0.068   5.204 -0.0020 -0.7115 -0.0962
   93SOL    HW1  278   4.907   0.010   5.273 -0.4561 -1.6862 -0.6700
   93SOL    HW2  279   4.863   0.011   5.128  0.5721  0.3604 -1.0141
   94SOL     OW  280   0.117   1.155   6.288  0.8491 -0.3209 -0.1949
   94SOL    HW1  281   0.104   1.109   6.206 -0.1095 -0.3372 -0.0482
   94SOL    HW2  282   0.091   1.245   6.270  2.4138  0.1230 -0.3960
   95SOL     OW  283   0.806   0.524   6.398  0.4494 -0.6752  0.6702
   95SOL    HW1  284   0.830   0.478   6.478 -0.7207  0.9556  2.0471
   95SOL    HW2  285   0.837   0.614   6.412 -0.4550 -0.1722 -0.3574
   96SOL     OW  286   2.656   0.825   7.859  0.3444 -0.0380 -0.6080
   96SOL    HW1  287   2.722   0.799   7.795 -0.1590 -1.4442 -0.5951
   96SOL    HW2  288   2.573   0.799   7.820  0.1554 -3.3930  1.6247
   97SOL     OW  289   1.337   1.313   5.795 -0.4630 -0.0138 -0.0544
   97SOL    HW1  290   1.382   1.392   5.766 -0.7384 -0.1145 -0.7630
   97SOL    HW2  291   1.346   1.314   5.890 -2.2737  1.9682  0.1721
   98SOL     OW  292   1.776   0.274   5.263 -0.2175 -0.7340  0.0836
   98SOL    HW1  293   1.836   0.249   5.193 -1.1334  0.5042 -1.1888
   98SOL    HW2  294   1.720   0.341   5.224  1.2548  2.4102  2.8609
   99SOL     OW  295   1.881   3.470   6.717 -0.1132  0.0152  0.0816
   99SOL    HW1  296   1.902   3.563   6.723 -0.2764  0.0543  0.0642
   99SOL    HW2  297   1.838   3.450   6.801 -2.9146  0.6937 -1.0732
  100SOL     OW  298   0.002   0.814   5.661  0.5821  0.1141 -0.1041
  100SOL    HW1  299  -0.003   0.736   5.605  0.5865 -0.5390  0.7920
  100SOL    HW2  300   0.092   0.844   5.651  0.7210 -0.2846 -0.0786
  101SOL     OW  301   4.638   3.641   5.576 -1.0579 -0.0277 -0.4806
  101SOL    HW1  302   4.567   3.696   5.609 -1.2620  0.6928 -2.0360
  101SOL    HW2  303   4.707   3.648   5.642 -1.9363  0.2961  0.4205
  102SOL     OW  304   4.821   2.544   4.822 -0.5896  0.5387 -0.2779
  102SOL    HW1  305   4.836   2.540   4.728  0.2418 -1.2081 -0.1259
  102SOL    HW2  306   4.769   2.466   4.842  0.3884  0.1280  0.8521
  103SOL     OW  307   4.890   4.349   6.108  0.2969  0.0999  0.0880
  103SOL    HW1  308   4.805   4.346   6.152  1.0000  1.9538  1.7555
  103SOL    HW2  309   4.904   4.261   6.076 -1.7414 -0.5389  0.8030
  104SOL     OW  310   2.293   4.330   6.440 -0.0823  0.1388 -0.4548
  104SOL    HW1  311   2.384   4.330   6.472 -0.1667 -1.1917 -0.1392
  104SOL    HW2  312   2.245   4.384   6.503  0.4614  0.7486 -0.5516
  105SOL     OW  313   0.682   1.817   6.150  0.6080 -0.3739  0.3192
  105SOL    HW1  314   0.618   1.885   6.169  0.8985  0.8239 -2.4715
  105SOL    HW2  315   0.630   1.737   6.139 -0.3036  0.3378 -0.7173
  106SOL     OW  316   4.556   1.844   5.367  0.1311  0.2199  0.0640
  106SOL    HW1  317   4.641   1.887   5.358 -0.3163  1.2162  0.4436
  106SOL    HW2  318   4.543   1.835   5.461 -0.7692  1.3121  0.0638
  107SOL     OW  319   2.339   3.118   5.626  0.1177  0.1871  0.1772
  107SOL    HW1  320   2.246   3.109   5.647 -0.2870  0.8106 -1.2843
  107SOL    HW2  321   2.377   3.160   5.703 -0.4723 -1.5451  1.4802
  108SOL     OW  322   1.534   0.151   6.900  0.2756  0.1984 -0.5036
  108SOL    HW1  323   1.502   0.092   6.968  1.4629 -1.0306 -0.9710
  108SOL    HW2  324   1.608   0.196   6.941  0.8930 -0.4293 -0.9195
  109SOL     OW  325   0.287   0.466   5.527  0.5355  0.1524 -0.4682
  109SOL    HW1  326   0.293   0.500   5.616 -2.5493  1.5164 -0.6477
  109SOL    HW2  327   0.257   0.375   5.537 -0.2870  0.4587 -0.0958
  110SOL     OW  328   0.141   1.597   4.895  0.2366  0.1648  0.4882
  110SOL    HW1  329   0.180   1.551   4.969 -1.0786 -1.2625  0.3466
  110SOL    HW2  330   0.200   1.579   4.821 -0.6390 -2.0363  0.2515
  111SOL     OW  331   0.032   2.103   7.052 -0.0494 -0.2931  0.3286
  111SOL    HW1  332   0.103   2.052   7.091  1.2878  1.4146  0.2351
  111SOL    HW2  333   0.008   2.166   7.120 -0.4345  0.1286 -0.1888
  112SOL     OW  334   1.765   0.562   6.703  0.0861  0.1725 -0.7206
  112SOL    HW1  335   1.781   0.654   6.682  1.6986  0.2524  0.5981
  112SOL    HW2  336   1.757   0.519   6.618 -1.3030  1.6086 -1.3598
  113SOL     OW  337   1.963   4.241   8.401  0.0149 -0.1728  0.3979
  113SOL    HW1  338   1.951   4.262   8.308 -1.5949  0.7521  0.7695
  113SOL    HW2  339   2.022   4.309   8.433  1.5407 -1.1803 -0.1624
  114SOL     OW  340   4.361   0.018   7.208  0.1973 -0.3508 -0.2620
  114SOL    HW1  341   4.324   0.099   7.172 -1.5524 -0.8442  0.2798
  114SOL    HW2  342   4.447   0.043   7.240  1.5680  0.2811 -3.9920
  115SOL     OW  343   1.586   4.158   5.703  0.0947 -0.3442  0.3025
  115SOL    HW1  344   1.571   4.092   5.636 -0.7627 -0.8726  0.9824
  115SOL    HW2  345   1.560   4.241   5.662 -0.4098 -0.6565 -0.0221
  116SOL     OW  346   0.491   3.023   6.262  0.3403 -0.4570  0.6199
  116SOL    HW1  347   0.430   3.016   6.189  0.6641 -1.3468  0.4220
  116SOL    HW2  348   0.475   3.110   6.298 -2.1162 -1.1906  1.5105
  117SOL     OW  349   0.725   4.877   6.509  0.4740  0.0916  0.2060
  117SOL    HW1  350   0.779   4.955   6.500 -0.4336  0.8002  0.6733
  117SOL    HW2  351   0.714   4.866   6.604 -0.2631  0.0147  0.1176
  118SOL     OW  352   0.490   4.285   4.782  0.2116  0.0315 -0.1993
  118SOL    HW1  353   0.451   4.291   4.695  0.2759 -0.6901 -0.2829
  118SOL    HW2  354   0.521   4.373   4.801 -1.6880  0.6948 -0.0273
  119SOL     OW  355   4.099   0.201   7.403  0.2100 -0.0279  0.0353
  119SOL    HW1  356   4.159   0.276   7.408  1.0408 -0.7336  1.4246
  119SOL    HW2  357   4.068   0.190   7.493 -3.0843  1.0996 -0.8511
  120SOL     OW  358   1.164   0.935   5.960  0.3213  0.4213 -0.1857
  120SOL    HW1  359   1.233   0.876   5.931  1.3451  0.1909  2.4563
  120SOL    HW2  360   1.165   1.006   5.896  0.6318 -1.2293 -2.1277
  121SOL     OW  361   1.255   2.555   6.543  0.2983 -0.4350  0.1782
  121SOL    HW1  362   1.274   2.480   6.600  2.3604  0.1495  0.3542
  121SOL    HW2  363   1.170   2.586   6.572  0.2520 -1.5859  1.3637
  122SOL     OW  364   3.655   0.949   6.763  0.3978 -0.0968  0.0553
  122SOL    HW1  365   3.627   1.016   6.824  0.5134 -0.5841  0.6519
  122SOL    HW2  366   3.749   0.962   6.753  0.3442  0.1146 -0.1869
  123SOL     OW  367   2.004   4.652   5.999  1.0220  0.4135 -0.2314
  123SOL    HW1  368   2.097   4.639   6.015  0.9603 -0.2175 -0.3620
  123SOL    HW2  369   1.993   4.747   5.998  1.8462  0.5127 -1.2867
  124SOL     OW  370   2.035   3.259   5.893  0.5696 -0.5060  0.2374
  124SOL    HW1  371   2.049   3.212   5.811  3.5004 -1.0219  0.9389
  124SOL    HW2  372   2.006   3.192   5.955 -0.1991 -0.3828  0.0290
  125SOL     OW  373   0.870   2.333   6.031  0.9554  0.2638 -0.6005
  125SOL    HW1  374   0.853   2.307   6.122 -0.6835  0.0652 -0.9265
  125SOL    HW2  375   0.965   2.327   6.022  1.1014 -0.3168  0.9155
  126SOL     OW  376   1.047   1.243   5.541 -0.2908  0.2732  0.5691
  126SOL    HW1  377   0.981   1.232   5.472 -0.0631  1.3629  0.1420
  126SOL    HW2  378   1.028   1.329   5.578  0.8722  0.6046  0.4463
  127SOL     OW  379   0.417   0.238   7.059 -0.3032  0.6178 -0.4728
  127SOL    HW1  380   0.344   0.177   7.064 -0.8687  1.3698  0.7998
  127SOL    HW2  381   0.376   0.322   7.038  0.6474  0.2619 -4.7206
  128SOL     OW  382   1.502   4.595   6.072 -0.1946  0.1928  0.0526
  128SOL    HW1  383   1.443   4.520   6.061 -0.6193  0.4666  0.4178
  128SOL    HW2  384   1.556   4.571   6.147  0.2231 -0.0928 -0.3314
  129SOL     OW  385   1.105   0.448   5.875  0.1421 -0.5048  0.6454
  129SOL    HW1  386   1.013   0.433   5.896  0.1970  0.1212  1.3497
  129SOL    HW2  387   1.145   0.361   5.879 -0.5979 -0.9343 -0.6295
  130SOL     OW  388   4.968   2.633   5.050  0.2319 -0.1572  0.5012
  130SOL    HW1  389   4.923   2.587   4.979  0.5625 -0.1856  0.3098
  130SOL    HW2  390   4.916   2.613   5.128 -0.1734 -0.0689  0.2567
  131SOL     OW  391   0.415   0.516   6.467  0.4945  0.0898 -0.4827
  131SOL    HW1  392   0.451   0.565   6.540  1.3472 -0.6762 -0.3680
  131SOL    HW2  393   0.356   0.452   6.507 -0.9804  1.2784 -0.6629
  132SOL     OW  394   0.800   3.659   5.554  0.3768 -0.4254  0.3182
  132SOL    HW1  395   0.741   3.583   5.552  0.6999 -0.6767  0.2083
  132SOL    HW2  396   0.757   3.725   5.500 -1.0006  0.2841  2.1743
  133SOL     OW  397   0.190   1.190   4.966 -0.2536  0.6040  0.7271
  133SOL    HW1  398   0.252   1.118   4.980 -0.9004 -0.5010 -1.5265
  133SOL    HW2  399   0.116   1.148   4.921 -0.5103  2.7290 -0.9801
  134SOL     OW  400   0.857   3.764   6.688 -0.0019 -0.0838  0.1337
  134SOL    HW1  401   0.854   3.684   6.635 -1.2997  0.6542 -0.9642
  134SOL    HW2  402   0.770   3.803   6.678  0.6870  1.6252  0.3948
  135SOL     OW  403   3.921   0.954   7.135 -0.1276  0.7521 -0.4206
  135SOL    HW1  404   3.988   0.956   7.204 -1.5942 -0.9021  1.1729
  135SOL    HW2  405   3.909   0.860   7.117 -1.0991  1.0829 -1.6364
  136SOL     OW  406   4.939   2.060   4.889  0.1580 -1.1419  0.6920
  136SOL    HW1  407   5.025   2.097   4.907 -0.2201 -0.9194  2.2213
  136SOL    HW2  408   4.949   1.966   4.905  0.3434 -1.2566 -0.0749
  137SOL     OW  409   1.526   0.978   6.295  0.9723 -0.0155  0.2067
  137SOL    HW1  410   1.574   0.900   6.265  0.4889 -0.0196 -0.5953
  137SOL    HW2  411   1.538   0.979   6.390  0.1389 -1.6496  0.3647
  138SOL     OW  412   1.710   1.217   6.678 -0.5212 -0.1955  0.2052
  138SOL    HW1  413   1.694   1.250   6.767 -0.3838  0.4049  0.0082
  138SOL    HW2  414   1.787   1.265   6.648 -0.5698 -0.3952 -0.2456
  139SOL     OW  415   4.563   0.002   7.451  0.1281  0.0628  0.5843
  139SOL    HW1  416   4.507  -0.028   7.522 -1.6589 -1.4219 -1.3465
  139SOL    HW2  417   4.568   0.097   7.463 -0.7768 -0.0579  2.1852
  140SOL     OW  418   4.056   0.986   6.263 -0.3962  0.1881  0.2248
  140SOL    HW1  419   3.968   0.987   6.225 -0.5453 -0.3848  0.5441
  140SOL    HW2  420   4.072   0.894   6.283 -0.2580  0.4568  1.4130
  141SOL     OW  421   1.152   2.532   5.481 -0.2212 -0.3640  0.2806
  141SOL    HW1  422   1.235   2.511   5.523  0.7255  1.2795 -0.6399
  141SOL    HW2  423   1.135   2.457   5.424  2.1933  0.4538 -1.7167
  142SOL     OW  424   0.319   1.339   6.539 -0.3035  0.1015  0.3514
  142SOL    HW1  425   0.373   1.264   6.563 -0.0843 -0.7177 -2.3165
  142SOL    HW2  426   0.237   1.325   6.587  0.0202 -1.4376  0.5219
  143SOL     OW  427   3.702   0.113   7.566 -0.1916 -0.2635  0.5584
  143SOL    HW1  428   3.664   0.168   7.498  0.3275 -0.2667  0.2583
  143SOL    HW2  429   3.641   0.039   7.574 -0.1895 -0.3292  0.0009
  144SOL     OW  430   0.310   2.278   5.240 -0.2531  0.8503  0.6629
  144SOL    HW1  431   0.356   2.362   5.236  1.8987 -0.3090 -1.1566
  144SOL    HW2  432   0.369   2.220   5.288  2.1485 -1.5558 -4.4260
  145SOL     OW  433   1.205   2.006   6.402 -0.2920  0.4991 -0.1189
  145SOL    HW1  434   1.286   1.970   6.365  0.2753 -0.0649  1.5941
  145SOL    HW2  435   1.138   1.942   6.380  0.2901 -0.5077  0.9257
  146SOL     OW  436   4.147   2.155   6.491 -0.4292 -0.5751  0.1903
  146SOL    HW1  437   4.097   2.231   6.521 -0.3243 -0.5534  0.3096
  146SOL    HW2  438   4.205   2.134   6.564 -2.1926 -2.3058  1.1911
  147SOL     OW  439   2.811   4.003   6.206  0.0899  0.3417  0.4996
  147SOL    HW1  440   2.767   3.954   6.136  1.2899  2.1549 -1.6621
  147SOL    HW2  441   2.739   4.040   6.257 -0.8673 -0.1477 -0.4475
  148SOL     OW  442   2.851   1.552   5.613 -0.2840 -0.7183 -0.1357
  148SOL    HW1  443   2.866   1.609   5.689  1.2808 -0.1093 -0.8783
  148SOL    HW2  444   2.923   1.490   5.615 -0.2793 -0.7554 -1.0677
  149SOL     OW  445   2.197   1.073   6.229 -0.2180  0.1506  0.1358
  149SOL    HW1  446   2.148   1.033   6.157 -1.2088  1.1734  0.2131
  149SOL    HW2  447   2.266   1.124   6.187  0.6723 -1.1024  0.0171
  150SOL     OW  448   1.402   0.160   6.406 -0.2053  0.1529 -0.0325
  150SOL    HW1  449   1.480   0.168   6.461 -0.5281 -0.8526  0.5958
  150SOL    HW2  450   1.387   0.066   6.400 -1.3638  0.3350 -0.1554
  151SOL     OW  451   2.434   2.481   7.537  0.0780 -0.1345 -0.0277
  151SOL    HW1  452   2.489   2.557   7.557  0.8559 -0.6037 -0.3203
  151SOL    HW2  453   2.466   2.451   7.452  0.6177 -1.5211  0.6480
  152SOL     OW  454   2.128   3.895   6.580  0.2017 -0.3987 -0.3937
  152SOL    HW1  455   2.206   3.868   6.533  0.4083  0.2517 -0.4355
  152SOL    HW2  456   2.122   3.835   6.654  0.0029 -1.2802 -1.1104
  153SOL     OW  457   0.700   0.568   5.747 -0.3738 -0.1149 -0.6254
  153SOL    HW1  458   0.630   0.623   5.783 -0.8192  0.0321 -1.6779
  153SOL    HW2  459   0.672   0.478   5.764 -1.0270 -0.0642 -1.4014
  154SOL     OW  460   2.118   1.312   6.316  0.0211 -0.0231 -0.0550
  154SOL    HW1  461   2.168   1.329   6.396 -0.7424  2.1785  0.0187
  154SOL    HW2  462   2.151   1.228   6.284  2.6727  0.6193  0.7895
  155SOL     OW  463   1.989   3.845   5.348  0.7027 -0.4480 -0.1777
  155SOL    HW1  464   1.916   3.822   5.290  2.4401 -0.9236 -2.3161
  155SOL    HW2  465   2.010   3.763   5.393 -0.1893 -0.2538  0.6254
  156SOL     OW  466   0.853   0.366   5.917 -0.1982  0.6518 -0.0830
  156SOL    HW1  467   0.777   0.360   5.860 -0.7939  1.4375  0.6106
  156SOL    HW2  468   0.817   0.381   6.004  0.7140 -0.1777  0.4530
  157SOL     OW  469   2.230   1.748   5.717 -0.1031  0.1024 -0.1078
  157SOL    HW1  470   2.267   1.669   5.680  0.0662 -0.5453  1.3769
  157SOL    HW2  471   2.305   1.796   5.752 -0.3573  0.1821  0.3374
  158SOL     OW  472   2.397   0.452   5.612 -0.2009  0.0519  0.0649
  158SOL    HW1  473   2.483   0.470   5.648  0.1175  0.6938 -0.9963
  158SOL    HW2  474   2.404   0.363   5.576  0.4950  0.6408 -1.3419
  159SOL     OW  475   2.772   4.188   4.963 -0.6803 -0.2064  0.1910
  159SOL    HW1  476   2.681   4.203   4.938 -0.2810  0.8432 -0.7059
  159SOL    HW2  477   2.822   4.209   4.885  0.3858 -0.1293  0.8800
  160SOL     OW  478   4.891   1.363   5.216  0.0474  0.3111  0.1141
  160SOL    HW1  479   4.974   1.316   5.230  0.4154  0.5926 -1.0464
  160SOL    HW2  480   4.913   1.455   5.235  0.4748  0.6535 -1.7907
  161SOL     OW  481   1.372   4.864   6.747 -0.1796  0.3322  0.2717
  161SOL    HW1  482   1.395   4.772   6.731  1.9636  0.7216  0.8496
  161SOL    HW2  483   1.393   4.879   6.839 -0.7921  1.3370  0.2637
  162SOL     OW  484   0.812   1.261   5.366  0.3083 -0.3980  0.2558
  162SOL    HW1  485   0.873   1.213   5.309 -0.8480 -0.6811 -0.7852
  162SOL    HW2  486   0.794   1.342   5.318 -0.6897 -0.6466  0.1996
  163SOL     OW  487   1.100   3.674   6.186  0.8375 -0.1129  0.2750
  163SOL    HW1  488   1.018   3.665   6.138 -0.3064  1.0616  1.8960
  163SOL    HW2  489   1.168   3.659   6.121 -0.6365 -1.5650 -1.0331
  164SOL     OW  490   4.628   1.520   5.151 -0.0131 -0.3822 -0.1019
  164SOL    HW1  491   4.698   1.541   5.213  1.2140 -1.2375 -1.1463
  164SOL    HW2  492   4.627   1.424   5.148  1.0928 -0.3858 -2.5857
  165SOL     OW  493   2.398   1.267   5.036 -0.1966 -0.4956  0.2266
  165SOL    HW1  494   2.452   1.259   4.958 -1.7190 -0.3522 -0.8727
  165SOL    HW2  495   2.356   1.352   5.029 -0.2115 -0.3906  1.3147
  166SOL     OW  496   0.945   1.654   6.535  0.3257 -0.4498  0.4268
  166SOL    HW1  497   0.940   1.676   6.628  0.8127  0.7429  0.1819
  166SOL    HW2  498   0.919   1.733   6.489  0.2294 -0.9833 -0.4675
  167SOL     OW  499   3.242   1.013   5.402  0.1029 -0.1174  0.4083
  167SOL    HW1  500   3.266   1.072   5.473  1.1547  0.9181 -0.7434
  167SOL    HW2  501   3.151   0.990   5.418  0.2472  0.2948  1.9228
  168SOL     OW  502   1.380   0.557   5.506  0.0837  0.2210 -0.6252
  168SOL    HW1  503   1.367   0.544   5.412 -0.2754  0.2228 -0.5772
  168SOL    HW2  504   1.475   0.555   5.517  0.1242  0.0896 -0.9687
  169SOL     OW  505   1.699   0.605   5.357  0.1950 -0.3437  0.0062
  169SOL    HW1  506   1.699   0.543   5.284  1.8585 -0.2011 -0.1651
  169SOL    HW2  507   1.746   0.682   5.323 -1.3815  0.8321  0.3762
  170SOL     OW  508   3.663   2.356   5.297 -0.3174  0.1138  0.3616
  170SOL    HW1  509   3.659   2.261   5.298 -0.3358  0.0631 -1.1322
  170SOL    HW2  510   3.574   2.384   5.277 -0.8477  0.5842  3.0306
  171SOL     OW  511   1.061   3.483   5.439  0.1079 -0.1974 -0.1350
  171SOL    HW1  512   1.005   3.501   5.514  0.5839 -1.3296  0.4988
  171SOL    HW2  513   1.118   3.412   5.467  1.3853  0.4416 -1.0189
  172SOL     OW  514   3.372   0.946   6.741  0.1828  0.4235 -0.3328
  172SOL    HW1  515   3.356   0.903   6.657 -1.5345  0.3458  0.0029
  172SOL    HW2  516   3.463   0.977   6.735 -0.6047  2.5799 -3.1871
  173SOL     OW  517   0.039   2.761   5.424  0.0047  0.1776 -0.0998
  173SOL    HW1  518  -0.039   2.745   5.372 -1.2722 -1.1321  2.0711
  173SOL    HW2  519   0.052   2.856   5.420 -0.9249  0.2664 -1.5167
  174SOL     OW  520   3.397   0.252   5.423  0.7398  0.2520  0.1638
  174SOL    HW1  521   3.341   0.268   5.347  0.4935  1.6105  0.6073
  174SOL    HW2  522   3.426   0.161   5.413  0.1376  0.1889 -1.1680
  175SOL     OW  523   4.242   0.329   5.883 -0.6229 -0.1158 -0.0164
  175SOL    HW1  524   4.224   0.377   5.802 -3.4101 -0.2823  0.4024
  175SOL    HW2  525   4.204   0.385   5.952  0.1252 -0.8124  0.9806
  176SOL     OW  526   1.974   2.224   5.570 -0.1536 -0.3800  0.2433
  176SOL    HW1  527   1.924   2.150   5.535  0.3950 -0.5739 -0.1332
  176SOL    HW2  528   1.997   2.276   5.493 -0.4629  0.1407  0.4980
  177SOL     OW  529   2.163   4.924   5.165  0.3214  0.1534  0.4392
  177SOL    HW1  530   2.091   4.984   5.146  0.2156 -0.4971 -1.3501
  177SOL    HW2  531   2.146   4.894   5.255 -1.1450  0.6794  0.3616
  178SOL     OW  532   3.630   0.666   6.815 -0.1260 -0.2508  0.0445
  178SOL    HW1  533   3.645   0.758   6.796 -0.7067  0.3808  2.2638
  178SOL    HW2  534   3.556   0.667   6.876  0.1065 -2.1622  0.4074
  179SOL     OW  535   4.511   2.632   5.622 -0.4462  0.3867  0.0184
  179SOL    HW1  536   4.429   2.664   5.585  0.0476  1.5170 -0.1148
  179SOL    HW2  537   4.500   2.641   5.716  0.7466  3.7444 -0.0649
  180SOL     OW  538   0.250   4.910   6.589 -0.2590 -0.0398  0.1626
  180SOL    HW1  539   0.190   4.894   6.516 -0.1694 -0.5622  0.1994
  180SOL    HW2  540   0.194   4.909   6.667 -0.2047 -0.5432  0.1985
  181SOL     OW  541   2.527   1.635   5.674  0.0237 -0.3756 -0.0225
  181SOL    HW1  542   2.541   1.541   5.683  0.2862 -0.3487 -0.1486
  181SOL    HW2  543   2.526   1.668   5.763  0.7988 -0.3718 -0.0138
  182SOL     OW  544   4.344   0.935   6.037  0.6334 -0.0795 -0.3813
  182SOL    HW1  545   4.269   0.885   6.006 -1.4218  1.1851  2.1756
  182SOL    HW2  546   4.362   0.997   5.965 -1.2041  0.0118 -0.8186
  183SOL     OW  547   3.520   3.095   4.983  0.3179 -0.4218 -0.2091
  183SOL    HW1  548   3.498   3.188   4.982 -0.5364 -0.5906  0.7780
  183SOL    HW2  549   3.452   3.055   5.038  0.6857 -1.6252 -0.5907
  184SOL     OW  550   0.599   4.519   8.328  0.1067 -0.0732 -0.3070
  184SOL    HW1  551   0.616   4.568   8.408 -1.0050  1.1021 -0.7593
  184SOL    HW2  552   0.639   4.572   8.259  2.2210 -1.7202 -0.4552
  185SOL     OW  553   4.558   0.050   6.830  0.5514 -0.5830  0.3975
  185SOL    HW1  554   4.644   0.009   6.831  0.4397 -0.9417 -1.1859
  185SOL    HW2  555   4.502  -0.013   6.784  0.0521  0.6981 -0.8239
  186SOL     OW  556   2.055   0.591   5.245  0.1390  0.5686  0.3021
  186SOL    HW1  557   2.090   0.505   5.221  0.7757  0.9645 -0.2423
  186SOL    HW2  558   2.124   0.631   5.298  0.0286  0.9165  0.1849
  187SOL     OW  559   3.827   2.246   5.860 -0.0704  0.1260 -0.1341
  187SOL    HW1  560   3.856   2.156   5.844 -1.3607 -0.5413  1.0431
  187SOL    HW2  561   3.887   2.300   5.808 -0.4780 -1.4930 -2.4632
  188SOL     OW  562   2.375   4.662   6.455  0.3990 -0.2576  0.8419
  188SOL    HW1  563   2.291   4.634   6.421  0.3677  0.2891  0.4486
  188SOL    HW2  564   2.433   4.665   6.379  0.1788  1.5267  0.6868
  189SOL     OW  565   4.774   1.180   6.340  0.5633 -0.0153  0.3760
  189SOL    HW1  566   4.715   1.248   6.370 -0.5815 -0.6798 -0.2730
  189SOL    HW2  567   4.797   1.131   6.419 -0.8175 -0.5377  0.4877
  190SOL     OW  568   2.330   4.517   5.182 -0.0452  0.2139 -0.3994
  190SOL    HW1  569   2.353   4.599   5.138 -0.0031  1.8716  2.4885
  190SOL    HW2  570   2.235   4.517   5.186 -0.0101  0.6515  0.5162
  191SOL     OW  571   1.554   4.720   7.580  0.2103 -0.1836 -0.2543
  191SOL    HW1  572   1.509   4.803   7.570 -5.0778 -2.6459 -0.2312
  191SOL    HW2  573   1.599   4.727   7.664 -1.6794  2.0138  0.6830
  192SOL     OW  574   2.641   1.930   7.321 -0.2141 -0.0978 -0.1897
  192SOL    HW1  575   2.732   1.957   7.321  0.2696 -1.6074  0.7088
  192SOL    HW2  576   2.622   1.910   7.229 -0.2548  2.0074 -0.6905
  193SOL     OW  577   2.401   2.342   5.413 -0.1252  0.9206  0.2413
  193SOL    HW1  578   2.428   2.372   5.327  0.7631  2.1550  0.9116
  193SOL    HW2  579   2.422   2.415   5.472  0.4573 -0.3538  1.6951
  194SOL     OW  580   4.310   2.403   5.181  0.3100 -0.1461  0.2225
  194SOL    HW1  581   4.333   2.496   5.176  2.7546 -0.7585 -1.1089
  194SOL    HW2  582   4.215   2.403   5.192  0.0885  2.4926 -0.9707
  195SOL     OW  583   2.133   4.926   5.791 -0.2215  0.1319 -0.4812
  195SOL    HW1  584   2.187   4.875   5.731  0.8382  2.1097 -1.2868
  195SOL    HW2  585   2.125   5.012   5.750  0.7184  1.6540  2.2548
  196SOL     OW  586   0.954   0.167   6.188  0.0967  0.5758  0.2719
  196SOL    HW1  587   0.868   0.135   6.159  0.3698  1.1341 -1.2442
  196SOL    HW2  588   1.015   0.101   6.157  0.3325  0.8217  0.2120
  197SOL     OW  589   4.632   2.109   6.447 -0.5663 -0.5670 -0.0316
  197SOL    HW1  590   4.665   2.186   6.401 -1.3172 -0.9133 -1.1730
  197SOL    HW2  591   4.657   2.124   6.539 -1.3896  1.4013 -0.0853
  198SOL     OW  592   3.059   2.029   6.797  1.0493  0.0206 -0.4513
  198SOL    HW1  593   2.984   2.062   6.747  0.1233 -1.3380 -0.0062
  198SOL    HW2  594   3.089   1.953   6.749 -1.2720 -2.7305  2.0334
  199SOL     OW  595   1.002   2.743   5.739  0.7956 -0.7747  0.1704
  199SOL    HW1  596   1.047   2.716   5.659  0.5082  0.2675 -0.3495
  199SOL    HW2  597   0.927   2.793   5.709  1.3947  0.7388  1.1049
  200SOL     OW  598   1.307   0.380   5.000 -0.3491  0.1624  0.1557
  200SOL    HW1  599   1.327   0.348   4.912 -1.4365  0.6398 -0.2861
  200SOL    HW2  600   1.218   0.348   5.017 -1.3600  2.5997 -0.1639
  201SOL     OW  601   1.079   4.907   6.702 -0.2110 -0.1372  0.8658
  201SOL    HW1  602   1.171   4.884   6.687  0.5533  3.0708 -0.1106
  201SOL    HW2  603   1.051   4.950   6.622 -2.1687  0.0972  1.6212
  202SOL     OW  604   0.533   0.755   7.061  0.1281 -0.1175  0.2257
  202SOL    HW1  605   0.449   0.748   7.016 -0.4330  1.1025  1.0226
  202SOL    HW2  606   0.599   0.752   6.991 -0.6926  1.2445 -0.6388
  203SOL     OW  607   3.822   0.519   6.986 -0.0772  0.6883 -0.5715
  203SOL    HW1  608   3.799   0.579   6.915  1.5536  0.5824 -1.2342
  203SOL    HW2  609   3.805   0.432   6.950 -1.7494  0.6890  0.1338
  204SOL     OW  610   4.148   0.472   5.669 -0.0625  0.0181  0.7057
  204SOL    HW1  611   4.149   0.517   5.584  0.9775 -0.0283  0.6837
  204SOL    HW2  612   4.063   0.428   5.671  1.1873 -2.9898 -1.9474
  205SOL     OW  613   2.293   0.566   5.381  0.5224  0.0162 -0.2619
  205SOL    HW1  614   2.354   0.633   5.351 -0.1578  1.4693  1.3763
  205SOL    HW2  615   2.332   0.535   5.463 -0.7085  0.7330  0.6347
  206SOL     OW  616   0.705   3.790   5.823  0.1470 -0.0797  0.4380
  206SOL    HW1  617   0.758   3.844   5.765 -0.4253  0.1773  0.1508
  206SOL    HW2  618   0.615   3.807   5.796 -0.0159 -1.8518 -0.2734
  207SOL     OW  619   4.430   1.872   5.600 -0.6318  0.5021  0.4513
  207SOL    HW1  620   4.387   1.957   5.610 -1.2533  0.5667 -2.1408
  207SOL    HW2  621   4.359   1.808   5.608 -0.6780  0.4197 -0.5061
  208SOL     OW  622   2.210   4.922   6.934  0.1251 -0.0059  0.0115
  208SOL    HW1  623   2.276   4.967   6.881 -0.5560  1.1086  0.0961
  208SOL    HW2  624   2.136   4.982   6.938 -0.6375 -0.9475  0.5085
  209SOL     OW  625   2.575   0.188   6.620  0.4317 -0.5701 -0.6501
  209SOL    HW1  626   2.591   0.160   6.530  0.7643 -1.6789 -0.2701
  209SOL    HW2  627   2.639   0.257   6.636 -0.9400  1.0586 -1.8789
  210SOL     OW  628   0.987   0.420   5.060 -0.4706  0.2844  0.4467
  210SOL    HW1  629   0.973   0.501   5.110  0.7250  1.4855 -1.0683
  210SOL    HW2  630   0.902   0.377   5.060 -1.8159  2.7613 -0.7756
  211SOL     OW  631   2.863   0.354   5.629  0.1923  0.1288  0.8750
  211SOL    HW1  632   2.909   0.415   5.570  1.4319 -0.6771  0.9705
  211SOL    HW2  633   2.923   0.343   5.703  0.5638 -2.1090  0.3170
  212SOL     OW  634   0.080   2.420   6.212 -0.4980 -0.2203  0.3467
  212SOL    HW1  635   0.046   2.367   6.140  1.2084  0.4514 -1.0335
  212SOL    HW2  636   0.124   2.357   6.269  0.5975 -0.4697 -0.7248
  213SOL     OW  637   0.117   2.256   5.019 -0.2420 -0.0567 -0.0767
  213SOL    HW1  638   0.120   2.339   4.972  0.9493  0.5715  1.0300
  213SOL    HW2  639   0.177   2.268   5.093 -0.3700 -1.7594  0.3545
  214SOL     OW  640   0.140   4.374   6.872  0.2692 -0.0922 -0.4123
  214SOL    HW1  641   0.232   4.375   6.899  0.6608  0.6536 -1.6580
  214SOL    HW2  642   0.100   4.304   6.923  1.3108  0.1944  0.8323
  215SOL     OW  643   1.156   1.672   7.675 -0.6198  0.0583  0.1516
  215SOL    HW1  644   1.072   1.627   7.676 -0.9197  0.6150  0.8184
  215SOL    HW2  645   1.212   1.620   7.732 -0.5427 -0.2441 -0.1961
  216SOL     OW  646   3.268   0.253   7.504 -0.0087 -0.3505  0.7987
  216SOL    HW1  647   3.240   0.262   7.595  0.5100 -1.7712  1.1303
  216SOL    HW2  648   3.364   0.258   7.507 -0.0440  2.1671 -0.0287
  217SOL     OW  649   0.318   1.682   8.659 -0.1020 -0.2994 -0.0859
  217SOL    HW1  650   0.386   1.632   8.613  2.0971  1.6118  0.8957
  217SOL    HW2  651   0.366   1.745   8.713 -2.6685  1.1908  0.6547
  218SOL     OW  652   4.865   2.031   9.133  0.1443 -0.2625 -0.1278
  218SOL    HW1  653   4.911   2.076   9.063 -1.3672  1.2429 -0.2077
  218SOL    HW2  654   4.935   1.987   9.183  1.3317 -0.6017 -1.9904
  219SOL     OW  655   1.723   4.949   6.817 -0.1712  0.7299 -0.1920
  219SOL    HW1  656   1.787   4.953   6.887  0.0326  1.1039 -0.4006
  219SOL    HW2  657   1.652   5.007   6.845  0.1384  1.2790 -0.5207
  220SOL     OW  658   2.995   4.849   6.908 -0.4677 -0.0925  0.5065
  220SOL    HW1  659   3.024   4.915   6.846 -0.3868  0.5612  1.2304
  220SOL    HW2  660   2.900   4.861   6.914 -0.4819 -0.1867  0.4769
  221SOL     OW  661  -0.003   3.645   7.543 -0.5396  0.2877 -0.8062
  221SOL    HW1  662   0.045   3.699   7.481 -0.8405  1.6868  0.1484
  221SOL    HW2  663  -0.018   3.701   7.618 -2.4266 -0.5520 -0.4885
  222SOL     OW  664   1.975   0.153   7.567 -0.2675  0.1768 -0.1890
  222SOL    HW1  665   1.932   0.162   7.653 -0.9214  0.4292 -0.5337
  222SOL    HW2  666   2.062   0.118   7.587 -0.5251 -0.0563  0.5528
  223SOL     OW  667   4.430   0.490   8.870  0.1384  0.0074 -0.1387
  223SOL    HW1  668   4.400   0.570   8.827  0.3214  0.0011 -0.2817
  223SOL    HW2  669   4.352   0.436   8.878  0.5281 -1.2432 -3.1682
  224SOL     OW  670   1.064   2.073   8.151  0.1712  0.0792 -0.6737
  224SOL    HW1  671   1.098   2.118   8.228 -0.0682  2.3828 -1.8472
  224SOL    HW2  672   1.141   2.027   8.115  0.6058  0.1709  0.1087
  225SOL     OW  673   0.299   4.855   9.710 -0.5773 -0.0828  0.0243
  225SOL    HW1  674   0.366   4.798   9.749 -0.2242 -0.6860 -1.4034
  225SOL    HW2  675   0.333   4.944   9.721  0.4561 -0.3812 -0.6340
  226SOL     OW  676   0.832   1.284   7.421 -0.2238 -0.3054  0.4932
  226SOL    HW1  677   0.904   1.347   7.423 -1.1352  0.7828  0.3190
  226SOL    HW2  678   0.874   1.200   7.403  0.8890  0.5024 -0.9789
  227SOL     OW  679   0.952   0.585   7.890  0.5643  0.2654 -0.1166
  227SOL    HW1  680   1.008   0.660   7.869  0.9998 -0.1311 -0.4037
  227SOL    HW2  681   1.007   0.530   7.946 -0.3190  0.9386  1.4939
  228SOL     OW  682   0.786   4.303   6.490 -0.0554  0.1004 -0.4658
  228SOL    HW1  683   0.761   4.256   6.410  2.9157  0.4855 -1.7622
  228SOL    HW2  684   0.746   4.389   6.481 -2.0098 -0.7165 -0.1348
  229SOL     OW  685   0.928   1.472   8.061 -0.2256 -0.5044  0.1667
  229SOL    HW1  686   0.844   1.512   8.038 -0.3377 -1.5143 -1.3333
  229SOL    HW2  687   0.917   1.443   8.151 -1.2863 -0.1280  0.1763
  230SOL     OW  688   1.046   0.444   7.026 -0.3926 -0.1094 -0.5960
  230SOL    HW1  689   1.107   0.461   7.097 -1.0449 -0.0016 -0.0475
  230SOL    HW2  690   1.096   0.392   6.963  0.9055  1.7725 -1.1968
  231SOL     OW  691   3.623   0.223   7.298 -0.6601 -0.3740  0.0050
  231SOL    HW1  692   3.665   0.150   7.254  0.9967 -0.2895  1.3674
  231SOL    HW2  693   3.646   0.300   7.246 -0.2059 -0.4901  0.0379
  232SOL     OW  694   0.311   1.402   9.078  0.3198 -0.0646  0.1234
  232SOL    HW1  695   0.381   1.378   9.139 -0.5340 -0.8954  0.8080
  232SOL    HW2  696   0.337   1.362   8.996  1.5985  1.2490 -0.1709
  233SOL     OW  697   0.657   1.628   7.693  0.2552  0.1976  0.1136
  233SOL    HW1  698   0.574   1.595   7.729  0.9078 -1.0478  0.5337
  233SOL    HW2  699   0.631   1.700   7.635 -0.9427  1.5228  2.1384
  234SOL     OW  700   1.972   4.927   8.248 -0.8790 -0.2376 -0.7201
  234SOL    HW1  701   2.049   4.982   8.263 -1.5641  0.5331  0.0731
  234SOL    HW2  702   1.915   4.943   8.323 -1.2209 -1.8591 -0.5888
  235SOL     OW  703   3.330   4.855   6.855 -0.1196  0.1887 -0.2954
  235SOL    HW1  704   3.261   4.906   6.813 -0.2415 -0.4662 -0.9108
  235SOL    HW2  705   3.284   4.793   6.911 -0.1267 -0.9917 -1.5301
  236SOL     OW  706   4.365   4.723   7.400  0.4071  0.3383 -0.0376
  236SOL    HW1  707   4.378   4.811   7.434 -0.0839  0.5196 -0.3141
  236SOL    HW2  708   4.321   4.735   7.316 -1.0495 -0.2255  0.6137
  237SOL     OW  709   0.387   4.288   6.995 -0.1474 -0.7201  0.0860
  237SOL    HW1  710   0.466   4.324   6.954 -0.5038  0.8926  0.7516
  237SOL    HW2  711   0.416   4.259   7.081 -0.0346 -1.3096 -0.1432
  238SOL     OW  712   0.039   2.854   6.035  0.2260  0.2443 -0.2375
  238SOL    HW1  713   0.014   2.836   5.945  1.9368  0.2344 -0.7464
  238SOL    HW2  714   0.014   2.945   6.050 -0.6179  0.0605 -0.5138
  239SOL     OW  715   4.862   0.818   7.918 -0.3119  0.0745  0.7463
  239SOL    HW1  716   4.901   0.902   7.943  0.2462 -0.4355  1.6716
  239SOL    HW2  717   4.928   0.753   7.942 -0.1517 -0.5602 -1.2236
  240SOL     OW  718   4.880   1.063   6.568  0.1313 -0.0745  0.2296
  240SOL    HW1  719   4.967   1.034   6.542  0.7720  0.0184  2.1228
  240SOL    HW2  720   4.851   0.999   6.633 -0.8018  0.4429  0.3484
  241SOL     OW  721   0.537   1.637   9.791 -0.2869  0.3609 -0.1522
  241SOL    HW1  722   0.499   1.552   9.770 -0.0935 -0.4903  2.5814
  241SOL    HW2  723   0.471   1.701   9.762 -1.8106 -0.8730  0.4877
  242SOL     OW  724   1.054   1.463   7.412  0.0116  0.3293 -0.2583
  242SOL    HW1  725   1.102   1.471   7.330 -0.7049 -1.7658 -0.9356
  242SOL    HW2  726   1.109   1.408   7.467 -0.4947 -0.0570 -0.1366
  243SOL     OW  727   2.043   1.288   7.984 -0.5899  0.4574 -0.2243
  243SOL    HW1  728   1.998   1.238   8.052 -1.2372  2.3832  0.8354
  243SOL    HW2  729   2.131   1.252   7.982 -1.3612 -1.5532 -0.4108
  244SOL     OW  730   1.218   4.268   6.473 -0.4094 -0.0735 -0.3797
  244SOL    HW1  731   1.308   4.303   6.479 -1.3043  2.2242  1.3721
  244SOL    HW2  732   1.230   4.175   6.455  2.4412 -0.3009  1.8188
  245SOL     OW  733   1.482   4.333   9.803 -0.3733  0.6311 -0.4599
  245SOL    HW1  734   1.488   4.278   9.725 -0.5618 -0.4286  0.2491
  245SOL    HW2  735   1.506   4.275   9.875  2.1225  2.1725  0.0823
  246SOL     OW  736   0.827   1.647   7.373 -0.0270 -0.4709 -0.0486
  246SOL    HW1  737   0.852   1.736   7.397 -1.7202 -0.5792  2.4461
  246SOL    HW2  738   0.900   1.616   7.319  1.4128  1.8102  0.4248
  247SOL     OW  739   2.373   0.295   8.541  0.0283 -0.0093  0.4539
  247SOL    HW1  740   2.297   0.298   8.598  0.0226  3.2947  0.4794
  247SOL    HW2  741   2.364   0.373   8.485  2.7316 -0.1982 -0.3980
  248SOL     OW  742   0.576   0.799   9.710  0.2155 -0.5266  0.0766
  248SOL    HW1  743   0.529   0.716   9.702 -1.6051  0.0419  3.2573
  248SOL    HW2  744   0.597   0.806   9.803  2.7177  1.3989 -0.5222
  249SOL     OW  745   4.880   4.715   7.685  0.1499 -0.1350  0.1868
  249SOL    HW1  746   4.937   4.638   7.681  1.3277  0.7519 -1.7030
  249SOL    HW2  747   4.912   4.772   7.615 -0.2689  2.3734  1.8937
  250SOL     OW  748   0.363   1.420   7.974 -0.0844 -0.2126 -1.0014
  250SOL    HW1  749   0.268   1.417   7.971 -0.5257  3.0454  2.3714
  250SOL    HW2  750   0.388   1.342   8.023 -1.4182  0.3722  0.7356
  251SOL     OW  751   4.773   0.371   7.401 -0.1832  0.7602  0.4587
  251SOL    HW1  752   4.780   0.466   7.409 -1.0490  1.0106 -1.2200
  251SOL    HW2  753   4.681   0.355   7.380 -0.0631 -0.4522  0.7530
  252SOL     OW  754   3.807   4.525   9.019  0.2172 -0.3331 -0.4403
  252SOL    HW1  755   3.772   4.524   8.930 -0.9409  0.8415 -0.0298
  252SOL    HW2  756   3.900   4.544   9.008 -0.1612  1.1512 -1.3535
  253SOL     OW  757   1.247   4.710   7.118  0.3071 -0.1542  0.1713
  253SOL    HW1  758   1.243   4.752   7.204  0.1494  0.5343 -0.1661
  253SOL    HW2  759   1.316   4.644   7.127 -1.6159 -2.0849  1.6712
  254SOL     OW  760   0.356   1.295   8.306 -0.1013 -0.2106  0.0674
  254SOL    HW1  761   0.358   1.250   8.221  3.4531 -0.7388  0.2858
  254SOL    HW2  762   0.370   1.387   8.285 -1.0975 -0.0502  0.0284
  255SOL     OW  763   1.051   4.449   7.701 -0.1637  0.1580  0.4983
  255SOL    HW1  764   0.992   4.397   7.646  2.5995 -1.5730 -1.0722
  255SOL    HW2  765   1.095   4.509   7.640  0.7969  0.3369  1.3286
  256SOL     OW  766   1.357   0.981   7.899 -0.4934 -0.4721 -0.5844
  256SOL    HW1  767   1.283   1.040   7.882 -0.5555 -0.0322  1.0280
  256SOL    HW2  768   1.430   1.018   7.849 -0.2662  1.6096  1.1362
  257SOL     OW  769   1.245   0.639   6.036  0.1866 -0.6203 -0.1609
  257SOL    HW1  770   1.299   0.644   5.956 -0.6154 -2.6357 -0.8832
  257SOL    HW2  771   1.173   0.581   6.013 -1.4468  0.7112  1.3015
  258SOL     OW  772   0.270   0.930   6.667 -0.4141 -0.7353  0.2369
  258SOL    HW1  773   0.220   0.990   6.721 -0.1489 -1.2337  1.0473
  258SOL    HW2  774   0.217   0.919   6.588 -0.9576 -0.2539  0.5283
  259SOL     OW  775   4.440   4.928   8.096  0.3682  0.4733  0.2576
  259SOL    HW1  776   4.397   4.919   8.182  1.7389 -0.2874  0.8996
  259SOL    HW2  777   4.531   4.905   8.113  0.8012  0.9640 -1.2916
  260SOL     OW  778   4.576   1.505   9.371  0.0888  0.0495  0.2468
  260SOL    HW1  779   4.481   1.510   9.369 -0.0831 -2.2250 -1.3905
  260SOL    HW2  780   4.597   1.419   9.333  2.7849  0.3207  0.8592
  261SOL     OW  781   1.212   0.727   7.286 -0.5279  0.7829 -0.3475
  261SOL    HW1  782   1.234   0.731   7.379  0.2556 -3.1123 -0.1966
  261SOL    HW2  783   1.296   0.714   7.243 -1.2013 -3.1910 -0.8708
  262SOL     OW  784   0.783   0.030   7.710  0.2317  0.0167 -0.3226
  262SOL    HW1  785   0.703  -0.000   7.753 -0.4766 -0.5266 -1.9610
  262SOL    HW2  786   0.820   0.094   7.771 -0.6253 -0.8461  1.1638
  263SOL     OW  787   4.991   0.982   8.495 -0.2014  0.0944  1.0111
  263SOL    HW1  788   4.946   0.944   8.570 -1.6649  1.3743  0.8307
  263SOL    HW2  789   5.001   1.074   8.517 -0.1691  0.3797 -0.1482
  264SOL     OW  790   1.656   1.437   6.410 -0.1092 -0.2396  0.4143
  264SOL    HW1  791   1.575   1.428   6.460  0.3642 -1.0421  1.0488
  264SOL    HW2  792   1.676   1.349   6.380  0.5696 -0.0603  0.3292
  265SOL     OW  793   1.367   3.428   7.038 -1.2822 -0.0399 -0.3869
  265SOL    HW1  794   1.341   3.464   7.123 -0.3141  1.1166 -0.5449
  265SOL    HW2  795   1.361   3.334   7.049 -0.8234  0.0811  1.0919
  266SOL     OW  796   2.451   0.635   8.593  0.5256  0.3792  0.2671
  266SOL    HW1  797   2.430   0.728   8.601 -0.7679  0.0729  0.7248
  266SOL    HW2  798   2.492   0.613   8.677 -1.1528  0.0812  1.0544
  267SOL     OW  799   0.946   0.889   7.634  0.0733  0.5397 -0.3827
  267SOL    HW1  800   0.996   0.909   7.714  0.2392  0.5366 -0.4860
  267SOL    HW2  801   0.858   0.921   7.653 -0.1788 -0.4665  0.2372
  268SOL     OW  802   0.899   1.278   6.725 -0.7167  0.2110  0.1303
  268SOL    HW1  803   0.827   1.215   6.733 -1.3505  0.5912 -1.9981
  268SOL    HW2  804   0.877   1.348   6.787 -2.2149  0.3261 -0.4936
  269SOL     OW  805   4.473   4.465   7.454 -0.0958  0.1100  0.6266
  269SOL    HW1  806   4.434   4.553   7.457  0.0318  0.4795 -2.9892
  269SOL    HW2  807   4.415   4.416   7.395  2.2660 -0.7558 -1.1179
  270SOL     OW  808   2.647   0.784   9.343  0.3406 -0.4774  0.3664
  270SOL    HW1  809   2.632   0.825   9.258  0.0573  0.9879  1.0797
  270SOL    HW2  810   2.711   0.716   9.326 -0.6312 -1.0537 -1.2333
  271SOL     OW  811   1.204   2.178   8.668 -0.0750 -0.3695  0.1500
  271SOL    HW1  812   1.173   2.093   8.699 -1.3716  0.2223  0.5473
  271SOL    HW2  813   1.158   2.242   8.722  2.5988  0.6157  1.4652
  272SOL     OW  814   2.486   3.219   6.564 -0.3705  0.3973  0.0590
  272SOL    HW1  815   2.530   3.199   6.481 -1.3864  1.4894 -0.7909
  272SOL    HW2  816   2.557   3.225   6.628  0.6566  1.3162 -1.0952
  273SOL     OW  817   1.023   0.403   9.206 -0.3807 -0.1088 -0.0609
  273SOL    HW1  818   0.973   0.326   9.234  0.0350 -0.3192  0.1138
  273SOL    HW2  819   0.980   0.476   9.249 -0.5834 -0.2824  0.0351
  274SOL     OW  820   1.935   3.557   5.853  0.3043  0.0723 -0.3572
  274SOL    HW1  821   1.980   3.486   5.898 -1.0128 -0.1397  0.7187
  274SOL    HW2  822   1.977   3.637   5.885 -1.8368  0.0635  2.9394
  275SOL     OW  823   0.145   3.156   6.303 -0.3142 -0.0427 -0.1771
  275SOL    HW1  824   0.152   3.119   6.215 -0.1214 -1.6353  0.4766
  275SOL    HW2  825   0.137   3.080   6.360 -1.2593  0.9890  1.1208
  276SOL     OW  826   0.699   0.443   8.963  0.1299 -0.3459  0.4911
  276SOL    HW1  827   0.749   0.369   8.930  1.4059 -0.1314  1.8221
  276SOL    HW2  828   0.746   0.520   8.931 -1.6099 -0.0408 -1.5178
  277SOL     OW  829   4.031   0.502   9.824  0.3458  0.1196  0.3631
  277SOL    HW1  830   3.987   0.461   9.898 -1.3103  1.7555  0.3494
  277SOL    HW2  831   4.010   0.595   9.831  3.2613  0.9267 -0.0796
  278SOL     OW  832   0.889   3.077   6.755 -0.4103  0.1526 -0.7094
  278SOL    HW1  833   0.960   3.133   6.789  0.5575 -0.5033 -1.5846
  278SOL    HW2  834   0.846   3.131   6.689  0.7864 -0.2161 -1.8540
  279SOL     OW  835   0.262   1.534   5.555  0.2171  0.1654  0.7893
  279SOL    HW1  836   0.284   1.477   5.482 -0.6841 -0.5473  1.0596
  279SOL    HW2  837   0.337   1.594   5.562 -0.2583  1.1050 -1.5213
  280SOL     OW  838   1.314   0.443   8.858  0.3298 -0.5159 -0.5307
  280SOL    HW1  839   1.377   0.511   8.833 -0.9332  1.2217  0.7272
  280SOL    HW2  840   1.229   0.485   8.849 -0.4062 -1.1076  2.4113
  281SOL     OW  841   4.565   3.906   7.142 -0.5459  0.3284  0.3852
  281SOL    HW1  842   4.479   3.867   7.127 -0.6692  0.8514 -0.2854
  281SOL    HW2  843   4.569   3.917   7.237 -1.2037  0.2740  0.4278
  282SOL     OW  844   0.650   4.258   8.415 -0.2594 -0.6995  0.1537
  282SOL    HW1  845   0.625   4.256   8.507  0.4695 -0.6321  0.3580
  282SOL    HW2  846   0.629   4.347   8.386  0.7092 -0.3206  0.5994
  283SOL     OW  847   4.930   1.771   8.664 -1.1088  0.1339  0.3899
  283SOL    HW1  848   4.991   1.838   8.633 -1.1057 -0.4568 -0.9792
  283SOL    HW2  849   4.859   1.771   8.599 -0.2268 -2.3966 -0.7339
  284SOL     OW  850   0.559   2.434   6.156  0.2747 -0.3502  0.3488
  284SOL    HW1  851   0.479   2.486   6.152  0.4331  0.0278  1.5458
  284SOL    HW2  852   0.535   2.348   6.122 -0.4210  0.0071 -0.0802
  285SOL     OW  853   0.928   1.023   7.397  0.3438 -0.3320  0.1310
  285SOL    HW1  854   0.884   0.957   7.344  2.2593 -1.3090 -0.3238
  285SOL    HW2  855   0.934   0.984   7.484 -0.7231  0.3055  0.5082
  286SOL     OW  856   0.715   0.481   7.592  0.7488  0.4228 -0.6190
  286SOL    HW1  857   0.740   0.543   7.524  2.6328  0.4359  0.0292
  286SOL    HW2  858   0.775   0.407   7.582  1.0461  0.4069  0.9733
  287SOL     OW  859  -0.011   0.887   8.234 -0.3175 -0.4062  0.2730
  287SOL    HW1  860  -0.004   0.906   8.328 -2.6905  0.3323  0.3758
  287SOL    HW2  861   0.076   0.905   8.199  1.0602 -2.1298  2.5287
  288SOL     OW  862   1.773   4.699   6.178  0.6299 -0.1689  0.0851
  288SOL    HW1  863   1.793   4.677   6.088 -0.3050  2.0997 -0.7502
  288SOL    HW2  864   1.856   4.729   6.215  0.7541  0.1083 -0.4147
  289SOL     OW  865   4.151   0.196   6.784  0.6875  0.1895  0.0329
  289SOL    HW1  866   4.098   0.126   6.744  1.4169  0.0925 -0.7783
  289SOL    HW2  867   4.148   0.176   6.878 -1.8478  0.9761  0.1938
  290SOL     OW  868   1.773   4.645   7.338  0.0134 -0.3613 -0.2346
  290SOL    HW1  869   1.686   4.674   7.367 -0.7257 -1.6831 -1.0264
  290SOL    HW2  870   1.756   4.593   7.260  1.4820 -1.1228 -0.0776
  291SOL     OW  871   2.329   0.603   6.423  0.1882 -0.3077 -0.1348
  291SOL    HW1  872   2.315   0.669   6.356 -1.5634 -2.9689 -2.6152
  291SOL    HW2  873   2.423   0.584   6.419  0.3242  0.4731 -0.9041
  292SOL     OW  874   4.638   2.454   9.011 -0.3544 -0.3967  0.2898
  292SOL    HW1  875   4.555   2.453   9.058  0.5673 -0.7214  1.9754
  292SOL    HW2  876   4.616   2.423   8.923 -2.2327  0.8669  0.2709
  293SOL     OW  877   1.108   2.312   5.343  0.3520 -0.2107  0.0356
  293SOL    HW1  878   1.028   2.274   5.380  1.5161 -1.3657  1.4855
  293SOL    HW2  879   1.096   2.304   5.248 -1.4280  0.0484  0.1999
  294SOL     OW  880   2.799   4.230   5.260  0.5292 -0.0067 -0.5046
  294SOL    HW1  881   2.714   4.254   5.224  0.7663 -0.7357 -1.6006
  294SOL    HW2  882   2.832   4.163   5.201  0.5512 -1.9373  1.5567
  295SOL     OW  883   4.314   0.455   7.160  0.0502 -0.5963  0.1175
  295SOL    HW1  884   4.254   0.511   7.209 -0.7914 -1.8046  0.5216
  295SOL    HW2  885   4.261   0.421   7.088  1.0869  0.6154 -1.2878
  296SOL     OW  886   0.817   0.935   9.926 -0.1122  0.3232 -0.7793
  296SOL    HW1  887   0.792   0.844   9.944  0.3719  0.1181 -1.1374
  296SOL    HW2  888   0.756   0.987   9.980  1.0209 -0.2500  1.1599
  297SOL     OW  889   0.306   4.540   7.221  0.1380  0.0028  0.1653
  297SOL    HW1  890   0.381   4.598   7.209 -0.0646  0.8133  2.2391
  297SOL    HW2  891   0.334   4.456   7.187  1.5703  0.5823 -0.1544
  298SOL     OW  892   1.147   2.213   8.395  0.3760 -0.2567  0.2278
  298SOL    HW1  893   1.228   2.199   8.347  0.4570 -0.0520  0.3026
  298SOL    HW2  894   1.171   2.204   8.487  0.4696  0.5322  0.2867
  299SOL     OW  895   1.418   0.286   9.039  0.0083  0.0777  0.3471
  299SOL    HW1  896   1.391   0.305   9.129 -0.8357  1.7726 -0.2066
  299SOL    HW2  897   1.366   0.347   8.985  0.0844 -1.2699 -1.3395
  300SOL     OW  898   3.291   1.968   7.038 -0.0830 -0.0703  0.0898
  300SOL    HW1  899   3.227   1.968   6.967 -1.0302 -0.5793  0.9295
  300SOL    HW2  900   3.374   1.992   6.995 -0.8911  0.9809 -0.9491
  301SOL     OW  901   1.241   0.455   6.744 -0.4124  0.1546  0.2249
  301SOL    HW1  902   1.321   0.435   6.696  1.0634  0.4529  2.3840
  301SOL    HW2  903   1.237   0.390   6.814 -2.0410  0.1958  0.2175
  302SOL     OW  904   2.746   4.799   7.338 -0.2545  0.4174  0.0374
  302SOL    HW1  905   2.716   4.739   7.406  1.5910  0.5199  1.0051
  302SOL    HW2  906   2.723   4.886   7.370  0.2553  0.4391  0.3537
  303SOL     OW  907   0.396   3.988   8.040  0.0052  0.3747 -0.3796
  303SOL    HW1  908   0.454   4.031   8.103  1.2703 -0.8999 -0.6309
  303SOL    HW2  909   0.382   4.054   7.972 -3.4859  2.7644  2.3160
  304SOL     OW  910   2.009   4.227   5.231  0.5146 -0.9277  0.2464
  304SOL    HW1  911   2.050   4.155   5.184 -1.1251 -1.8970  0.2143
  304SOL    HW2  912   1.954   4.185   5.296 -2.3294  0.1411 -1.2907
  305SOL     OW  913   0.766   4.888   8.135  0.2621  0.5938  0.4757
  305SOL    HW1  914   0.759   4.968   8.186 -0.1255  1.4249 -0.8466
  305SOL    HW2  915   0.860   4.868   8.135  0.6566  2.2066 -0.8633
  306SOL     OW  916   2.032   2.272   7.835  0.1467  0.2749  0.4241
  306SOL    HW1  917   2.116   2.270   7.788  0.0655 -0.7092  0.2944
  306SOL    HW2  918   2.044   2.210   7.907 -0.1459  0.8736  0.9982
  307SOL     OW  919   0.587   0.924   7.429  0.6471  0.0907 -0.0809
  307SOL    HW1  920   0.571   1.004   7.380 -1.7330 -0.6023 -0.5555
  307SOL    HW2  921   0.673   0.895   7.399  1.4435  2.2748 -0.0951
  308SOL     OW  922   3.544   1.580   7.940 -0.1085 -0.0792 -0.9339
  308SOL    HW1  923   3.610   1.513   7.961  0.0840  0.2919 -0.3289
  308SOL    HW2  924   3.473   1.563   8.002 -0.2373  0.0165 -1.0563
  309SOL     OW  925   4.927   4.519   9.447  0.1674  0.4230  0.4371
  309SOL    HW1  926   4.989   4.584   9.480 -0.5560  0.4347  1.8466
  309SOL    HW2  927   4.942   4.518   9.352  2.0214  0.7103  0.6783
  310SOL     OW  928   0.372   1.566   8.291 -0.7398 -0.4797  0.1550
  310SOL    HW1  929   0.447   1.606   8.333 -0.5248 -0.0511 -0.6147
  310SOL    HW2  930   0.302   1.630   8.299 -0.6210 -0.2796 -0.3727
  311SOL     OW  931   1.588   2.145   8.074 -0.1413  0.7568 -0.0995
  311SOL    HW1  932   1.524   2.216   8.082 -1.2048 -0.1402 -0.3372
  311SOL    HW2  933   1.624   2.155   7.986 -1.5857 -0.0211 -0.8116
  312SOL     OW  934   0.028   3.424   6.715  0.3897 -0.3262 -0.5013
  312SOL    HW1  935  -0.037   3.494   6.717 -0.6401 -1.1553 -2.3327
  312SOL    HW2  936   0.105   3.463   6.675 -0.1582 -0.2022 -1.4561
  313SOL     OW  937   2.439   0.252   7.411 -0.1126  0.0356  0.0605
  313SOL    HW1  938   2.476   0.325   7.460  0.8557  0.1720 -0.8360
  313SOL    HW2  939   2.375   0.292   7.352  0.3505  0.1516 -0.3653
  314SOL     OW  940   4.897   3.979   7.512 -0.6983 -0.3051 -0.0541
  314SOL    HW1  941   4.921   3.907   7.453 -2.4214 -0.7378 -0.2776
  314SOL    HW2  942   4.931   3.953   7.597 -0.7460 -1.0973 -0.2692
  315SOL     OW  943   3.874   1.382   9.546 -0.1522 -0.0119 -0.3007
  315SOL    HW1  944   3.898   1.452   9.485  0.5502  0.6195  0.6645
  315SOL    HW2  945   3.907   1.303   9.505  2.3171  0.6462  0.2244
  316SOL     OW  946   2.010   0.865   8.030  0.1459  0.3945 -0.4828
  316SOL    HW1  947   2.002   0.908   7.944  0.1288 -0.2700 -0.8173
  316SOL    HW2  948   1.928   0.817   8.040 -0.2728  1.2423  0.3482
  317SOL     OW  949   4.626   1.243   7.692  0.0039  0.5440 -0.0240
  317SOL    HW1  950   4.626   1.288   7.777  1.1989  1.5876 -0.5336
  317SOL    HW2  951   4.706   1.274   7.650  0.4910 -1.5427 -0.7130
  318SOL     OW  952   0.328   1.190   6.848 -0.3080 -0.3265 -0.0578
  318SOL    HW1  953   0.338   1.124   6.916  1.8983 -1.8672 -1.7366
  318SOL    HW2  954   0.411   1.239   6.848 -1.0576  1.0120 -0.3276
  319SOL     OW  955   0.961   1.695   7.112 -0.6100 -0.5115 -0.0917
  319SOL    HW1  956   0.948   1.605   7.083  1.0145 -1.0784  0.7824
  319SOL    HW2  957   1.053   1.698   7.138 -0.5549  1.4955 -0.3935
  320SOL     OW  958   1.552   1.130   7.753  0.4147 -0.2389  0.2385
  320SOL    HW1  959   1.590   1.098   7.671  0.2403 -0.8424  0.3924
  320SOL    HW2  960   1.624   1.124   7.816  0.4863  0.0248  0.1859
  321SOL     OW  961   3.150   2.825   7.936 -0.6991 -0.2897  0.1823
  321SOL    HW1  962   3.156   2.730   7.939 -2.4335 -0.4618 -0.6459
  321SOL    HW2  963   3.178   2.854   8.023 -1.2991 -1.6381  0.8510
  322SOL     OW  964   1.950   0.845   5.508 -0.2410  0.1366 -0.0188
  322SOL    HW1  965   1.960   0.752   5.531 -0.2830  0.6058  2.1436
  322SOL    HW2  966   2.034   0.870   5.471  0.5990 -0.2279  1.5630
  323SOL     OW  967   0.169   0.426   7.551 -0.1244 -0.5029 -0.0409
  323SOL    HW1  968   0.238   0.466   7.498  1.4556 -0.2260  2.1233
  323SOL    HW2  969   0.162   0.337   7.517  1.9524 -0.8225  0.2482
  324SOL     OW  970   4.622   1.570   9.631  0.5784 -0.2364  0.3883
  324SOL    HW1  971   4.626   1.523   9.547  0.9612  1.0043 -0.3068
  324SOL    HW2  972   4.607   1.661   9.607  0.8612  0.1629  1.6675
  325SOL     OW  973   1.913   0.621   7.844 -0.3217  0.5562  0.0200
  325SOL    HW1  974   1.844   0.583   7.789  1.0753 -1.7825 -0.2305
  325SOL    HW2  975   1.897   0.584   7.931  2.3012 -2.6531 -0.6596
  326SOL     OW  976   3.995   2.294   7.264 -0.1965 -0.1838  0.5880
  326SOL    HW1  977   4.039   2.219   7.306 -0.4693 -0.5521  0.2197
  326SOL    HW2  978   3.908   2.296   7.304 -0.2905 -0.2414  0.3843
  327SOL     OW  979   3.805   0.510   5.411  0.1526  0.5440  0.1070
  327SOL    HW1  980   3.838   0.599   5.401  0.3437  0.5235  0.5272
  327SOL    HW2  981   3.759   0.511   5.495 -0.2285  0.3642 -0.0986
  328SOL     OW  982   0.388   0.307   6.000  0.6022 -0.7786 -0.3243
  328SOL    HW1  983   0.455   0.277   6.062  0.4614 -2.2962 -0.8581
  328SOL    HW2  984   0.364   0.394   6.031  1.6703 -0.8559  0.8181
  329SOL     OW  985   4.865   1.669   8.001  0.2490 -0.0547  0.3395
  329SOL    HW1  986   4.852   1.637   8.091  1.1411 -0.1548  0.4483
  329SOL    HW2  987   4.941   1.727   8.007  2.1684 -2.2589 -0.8017
  330SOL     OW  988   1.947   0.802   7.555 -0.2456  0.6323  0.1335
  330SOL    HW1  989   2.009   0.775   7.486 -1.7815 -0.4952 -0.8782
  330SOL    HW2  990   1.944   0.727   7.614  0.3923  1.2437  0.9523
  331SOL     OW  991   4.583   0.330   9.033 -0.0624  0.7897  0.0957
  331SOL    HW1  992   4.528   0.383   8.975  0.5668 -0.2750 -1.5342
  331SOL    HW2  993   4.658   0.385   9.053 -0.4407  1.2806  0.1898
  332SOL     OW  994   0.088   0.377   8.058 -0.4031  0.0484  0.6266
  332SOL    HW1  995  -0.003   0.360   8.082 -0.4988  1.2522  1.1825
  332SOL    HW2  996   0.093   0.354   7.965 -0.7110 -2.0759  1.0884
  333SOL     OW  997   4.376   2.068   7.043 -0.4927  0.3112  0.6792
  333SOL    HW1  998   4.375   2.160   7.069  0.8693  0.0067  2.0045
  333SOL    HW2  999   4.451   2.031   7.090  0.1637 -1.0617 -1.3148
  334SOL     OW 1000   1.725   0.862   7.834 -0.1665  0.6416 -0.0510
  334SOL    HW1 1001   1.725   0.785   7.778 -0.1147  0.3332  0.3647
  334SOL    HW2 1002   1.708   0.828   7.922  0.8865  0.9710  0.3065
  335SOL     OW 1003   0.961   4.315   6.242 -0.3956 -0.5871  0.0516
  335SOL    HW1 1004   1.047   4.344   6.271  0.0086 -0.4407 -1.2346
  335SOL    HW2 1005   0.909   4.395   6.237 -0.2138 -0.5011 -0.4551
  336SOL     OW 1006   2.666   4.921   8.370  0.3442  0.0990  0.1674
  336SOL    HW1 1007   2.701   5.004   8.400  1.4341 -0.8456  1.6130
  336SOL    HW2 1008   2.571   4.935   8.367  0.5151  1.4223  0.2405
  337SOL     OW 1009   0.550   3.505   9.836  0.2349  0.0977 -0.5392
  337SOL    HW1 1010   0.585   3.417   9.823  0.2057 -0.0125  0.0798
  337SOL    HW2 1011   0.626   3.563   9.830  0.5183 -0.1270  0.6570
  338SOL     OW 1012   0.915   0.135   7.476  0.1629 -0.7395  0.3225
  338SOL    HW1 1013   0.833   0.109   7.520  0.6647 -0.1803  1.6363
  338SOL    HW2 1014   0.892   0.215   7.430 -0.3371 -1.2584 -0.3658
  339SOL     OW 1015   1.503   1.725   8.528 -0.3475 -0.2765  0.1927
  339SOL    HW1 1016   1.443   1.751   8.598 -0.1929 -4.4047  2.0968
  339SOL    HW2 1017   1.582   1.696   8.573 -0.1436 -2.8491 -1.6063
  340SOL     OW 1018   3.536   4.982   9.366  0.0244  0.1523 -0.6919
  340SOL    HW1 1019   3.583   4.899   9.356 -0.5230 -0.2121 -0.2580
  340SOL    HW2 1020   3.468   4.979   9.299 -0.4424 -0.0636 -0.2114
  341SOL     OW 1021   0.594   1.190   6.805  0.1843 -0.0685 -1.0200
  341SOL    HW1 1022   0.646   1.186   6.885  1.1992  4.0583 -1.2467
  341SOL    HW2 1023   0.571   1.099   6.787  2.2892 -1.4723  2.3621
  342SOL     OW 1024   0.317   0.788   5.618 -0.4667 -0.1202 -0.0718
  342SOL    HW1 1025   0.411   0.805   5.627 -0.5782  0.2015  0.5635
  342SOL    HW2 1026   0.294   0.735   5.694 -0.7185 -0.5661 -0.4554
  343SOL     OW 1027   2.366   1.101   9.122  0.2310  0.1063  0.0507
  343SOL    HW1 1028   2.282   1.144   9.136  0.3327  0.4387 -0.3441
  343SOL    HW2 1029   2.421   1.129   9.196  0.0693  0.0768  0.1817
  344SOL     OW 1030   0.610   1.233   7.748  0.9274  0.0279  0.1812
  344SOL    HW1 1031   0.635   1.326   7.747 -0.6791  0.5447  1.8270
  344SOL    HW2 1032   0.515   1.234   7.751  0.7764 -1.7680 -1.9111
  345SOL     OW 1033   4.524   1.732   6.290  0.2506  0.1621  0.3896
  345SOL    HW1 1034   4.567   1.668   6.347 -0.5337 -0.9930 -0.2806
  345SOL    HW2 1035   4.473   1.787   6.350 -0.2859 -0.8063  0.8328
  346SOL     OW 1036   2.432   0.383   9.639  0.2648  0.3593 -0.0537
  346SOL    HW1 1037   2.362   0.319   9.624  1.6193 -1.2715  0.1758
  346SOL    HW2 1038   2.459   0.369   9.729 -0.3034  2.2665  0.4572
  347SOL     OW 1039   4.697   2.906   8.812 -0.3690 -0.5383  0.2932
  347SOL    HW1 1040   4.703   2.822   8.858 -0.1204 -1.0627 -0.6797
  347SOL    HW2 1041   4.621   2.896   8.755  1.1711 -1.1187 -1.7823
  348SOL     OW 1042   4.290   0.736   7.695  0.1743 -0.5847 -0.3123
  348SOL    HW1 1043   4.230   0.810   7.706  0.9587 -0.1207  1.0084
  348SOL    HW2 1044   4.377   0.775   7.698  0.6630 -1.6754  2.0105
  349SOL     OW 1045   0.188   2.105   9.885 -0.3666  0.1371 -0.1702
  349SOL    HW1 1046   0.127   2.099   9.957 -0.0320 -2.9193 -0.0445
  349SOL    HW2 1047   0.254   2.038   9.902  0.3853  0.0989 -2.6944
  350SOL     OW 1048   4.772   2.602   7.902 -0.5934 -0.1921  0.3998
  350SOL    HW1 1049   4.704   2.572   7.962 -1.6823 -1.0613 -1.2006
  350SOL    HW2 1050   4.739   2.685   7.868 -0.5799 -0.3372  0.0338
  351SOL     OW 1051   4.143   3.517   9.396  0.0858 -0.2164 -0.8826
  351SOL    HW1 1052   4.092   3.595   9.421  0.9812  0.2768 -0.5642
  351SOL    HW2 1053   4.077   3.450   9.378 -0.6555  0.0576  0.6634
  352SOL     OW 1054   4.236   3.050   8.396 -0.6295  0.0961  0.2123
  352SOL    HW1 1055   4.267   3.141   8.399 -1.5258  0.5746 -2.3912
  352SOL    HW2 1056   4.168   3.050   8.329 -0.4926 -2.5764 -0.0333
  353SOL     OW 1057   3.910   1.871   7.995  0.4668 -0.2165 -0.3012
  353SOL    HW1 1058   3.815   1.864   7.985  0.3763 -1.3745  1.1026
  353SOL    HW2 1059   3.922   1.950   8.047  0.0157 -1.6198  2.0901
  354SOL     OW 1060   3.889   4.955   8.694 -0.1615  0.6363  0.2018
  354SOL    HW1 1061   3.873   5.050   8.689  0.1143  0.6928  0.4204
  354SOL    HW2 1062   3.965   4.946   8.751 -0.4936  0.2515  0.5921
  355SOL     OW 1063   4.990   1.056   7.001  0.3975 -0.3773 -0.7184
  355SOL    HW1 1064   4.922   0.997   6.968  1.0400 -1.8181  0.4430
  355SOL    HW2 1065   4.948   1.105   7.071  0.5206 -1.2529 -0.0144
  356SOL     OW 1066   1.207   4.557   7.497  0.4612  0.4158  0.0532
  356SOL    HW1 1067   1.242   4.621   7.435  0.4408 -1.1169 -1.6196
  356SOL    HW2 1068   1.279   4.496   7.512  0.9794  1.5294  2.7884
  357SOL     OW 1069   3.297   1.787   6.437  0.2507 -0.2815  0.2224
  357SOL    HW1 1070   3.212   1.744   6.430  0.3513 -0.6236  1.0254
  357SOL    HW2 1071   3.293   1.834   6.520  0.6723  0.0915  0.0375
  358SOL     OW 1072   0.170   4.148   7.192 -0.0594 -0.0157  0.1608
  358SOL    HW1 1073   0.265   4.150   7.177  0.2585 -1.2192  1.7302
  358SOL    HW2 1074   0.158   4.182   7.280 -1.0502 -0.1853  0.1052
  359SOL     OW 1075   0.661   1.986   8.545  0.2648 -0.0303 -0.4158
  359SOL    HW1 1076   0.744   2.029   8.524 -0.6477  1.7258 -0.5699
  359SOL    HW2 1077   0.675   1.950   8.632  1.5005 -0.6082 -0.8280
  360SOL     OW 1078   0.278   1.590   6.861 -0.2257 -0.0585 -0.4357
  360SOL    HW1 1079   0.207   1.526   6.864 -0.3072  0.0306 -0.4482
  360SOL    HW2 1080   0.291   1.617   6.952 -0.1128 -0.1777 -0.4154
  361SOL     OW 1081   4.540   3.418   9.476  0.4870 -0.2943 -0.4655
  361SOL    HW1 1082   4.563   3.489   9.417  0.5012  0.6147  0.6110
  361SOL    HW2 1083   4.477   3.456   9.536 -0.5384 -1.5674 -0.6833
  362SOL     OW 1084   2.584   1.318   6.215  0.3477 -0.1336 -1.2069
  362SOL    HW1 1085   2.645   1.269   6.271 -1.3070 -1.3299 -0.3523
  362SOL    HW2 1086   2.619   1.407   6.214 -0.0059  0.2394  2.5753
  363SOL     OW 1087   4.636   0.832   6.621 -0.0884 -0.2041 -0.1523
  363SOL    HW1 1088   4.629   0.757   6.562 -0.8916 -0.4150  0.2084
  363SOL    HW2 1089   4.571   0.894   6.590  0.3472  0.2140 -0.2468
  364SOL     OW 1090   2.742   1.982   5.843  0.6730 -0.1454  0.4150
  364SOL    HW1 1091   2.806   2.042   5.881 -0.0483  0.5851  0.4820
  364SOL    HW2 1092   2.691   2.035   5.782 -0.1959 -0.5996  0.7234
  365SOL     OW 1093   0.397   0.889   5.970  0.0315 -0.3162  0.0260
  365SOL    HW1 1094   0.369   0.867   6.059  1.2935  0.6984  0.7136
  365SOL    HW2 1095   0.433   0.978   5.979  0.5715 -0.3787 -1.4192
  366SOL     OW 1096   4.174   0.162   8.757  0.7415 -0.2440 -0.1365
  366SOL    HW1 1097   4.227   0.098   8.804 -1.0954 -0.7039  1.4360
  366SOL    HW2 1098   4.170   0.237   8.816 -0.2019 -0.1522 -0.3088
  367SOL     OW 1099   0.320   0.199   8.090 -0.6862 -0.3047 -0.0275
  367SOL    HW1 1100   0.329   0.171   8.181  1.7569  0.7122  0.1459
  367SOL    HW2 1101   0.239   0.251   8.088 -0.0622  0.8556  1.9593
  368SOL     OW 1102   1.657   0.732   6.256 -0.0638  0.3624  0.4842
  368SOL    HW1 1103   1.746   0.714   6.286 -0.2117 -0.0283  0.6865
  368SOL    HW2 1104   1.664   0.736   6.160  0.4384  1.7537  0.5503
  369SOL     OW 1105   1.820   1.358   6.915  0.6981  0.5735  0.5970
  369SOL    HW1 1106   1.769   1.385   6.992 -1.0033  0.5244 -0.4765
  369SOL    HW2 1107   1.875   1.285   6.947 -0.1845  0.3713  1.7012
  370SOL     OW 1108   4.025   3.080   7.882  0.2231  0.7127  0.3090
  370SOL    HW1 1109   4.094   3.015   7.868  1.0744  1.7632 -0.5901
  370SOL    HW2 1110   4.069   3.153   7.925  0.0768  2.0294 -1.6435
  371SOL     OW 1111   0.796   0.878   7.236 -0.0154 -0.2341  0.1375
  371SOL    HW1 1112   0.714   0.864   7.189 -0.1813  1.1824 -0.0238
  371SOL    HW2 1113   0.852   0.806   7.207 -0.2550  0.3562 -1.9549
  372SOL     OW 1114   4.765   1.770   7.679  0.0403  0.1146  0.3920
  372SOL    HW1 1115   4.734   1.724   7.601 -0.6284  1.9496 -0.4803
  372SOL    HW2 1116   4.856   1.793   7.659 -0.5505  1.8238 -0.4947
  373SOL     OW 1117   0.609   2.497   6.811 -0.4054 -0.4088  0.2907
  373SOL    HW1 1118   0.626   2.525   6.720  1.9448 -0.9005  0.5065
  373SOL    HW2 1119   0.516   2.474   6.812 -1.0882  1.9272 -1.3456
  374SOL     OW 1120   1.557   3.175   6.987 -0.0090 -0.0514 -0.0209
  374SOL    HW1 1121   1.478   3.141   7.028 -0.3718  1.0788  0.2428
  374SOL    HW2 1122   1.613   3.202   7.059 -0.3162  1.1930 -0.2178
  375SOL     OW 1123   1.020   4.809   8.148  0.2655 -0.2736 -0.1632
  375SOL    HW1 1124   1.110   4.835   8.129  0.1208 -0.2093 -0.7926
  375SOL    HW2 1125   1.026   4.718   8.175  0.3405 -0.8159 -1.8933
  376SOL     OW 1126   0.770   3.508   7.567 -0.9646  0.1474  0.2813
  376SOL    HW1 1127   0.732   3.523   7.481 -0.3377  0.1020 -0.0043
  376SOL    HW2 1128   0.813   3.423   7.561  0.7545  0.9825  0.0247
  377SOL     OW 1129   1.561   0.345   8.532 -0.1369  0.2453  0.5789
  377SOL    HW1 1130   1.541   0.349   8.439  0.2196 -1.9623  0.3608
  377SOL    HW2 1131   1.499   0.282   8.567 -0.3268  1.1174  1.8864
  378SOL     OW 1132   0.426   4.679   6.558 -0.5696 -0.1685 -0.2810
  378SOL    HW1 1133   0.496   4.733   6.594 -1.9347  0.3354  1.7657
  378SOL    HW2 1134   0.347   4.733   6.566 -1.8885 -2.1823  1.3154
  379SOL     OW 1135   4.356   4.167   9.035  0.1543 -0.0884  0.3909
  379SOL    HW1 1136   4.334   4.118   8.956  1.9870 -3.2425  1.6278
  379SOL    HW2 1137   4.452   4.161   9.041  0.1475  0.8419  2.3383
  380SOL     OW 1138   0.314   2.752   5.406 -0.3234 -0.0320 -0.1579
  380SOL    HW1 1139   0.328   2.674   5.460  1.5087  0.4803  0.1841
  380SOL    HW2 1140   0.226   2.741   5.370 -0.2890 -2.0167  0.2617
  381SOL     OW 1141   0.054   2.635   7.838  0.4255  0.5806  0.4475
  381SOL    HW1 1142   0.047   2.653   7.745  0.4053  0.0323  0.3438
  381SOL    HW2 1143  -0.037   2.635   7.870  0.4095  0.4270  0.4022
  382SOL     OW 1144   2.402   1.788   8.325 -0.3859  0.5946  0.4722
  382SOL    HW1 1145   2.480   1.809   8.375  0.8966  0.0930 -1.2272
  382SOL    HW2 1146   2.375   1.871   8.286  0.2946  0.4741 -0.2694
  383SOL     OW 1147   1.703   0.779   5.992 -0.4898 -0.0818  0.0130
  383SOL    HW1 1148   1.726   0.692   5.960 -0.9655  0.0774 -0.7796
  383SOL    HW2 1149   1.782   0.831   5.980 -0.0306 -0.5137  0.9729
  384SOL     OW 1150   4.343   3.594   9.235  0.5055  0.5516 -0.1705
  384SOL    HW1 1151   4.274   3.556   9.290  1.7511 -1.3297  0.1763
  384SOL    HW2 1152   4.314   3.683   9.219 -0.4917  0.8398  2.6140
  385SOL     OW 1153   4.764   0.179   8.026  0.1751 -0.3849 -0.2016
  385SOL    HW1 1154   4.717   0.221   7.954 -0.7525 -0.1291  0.5385
  385SOL    HW2 1155   4.766   0.245   8.096  1.7377 -0.3487 -0.2387
  386SOL     OW 1156   2.943   3.644   7.856 -0.5632 -1.3209 -0.4095
  386SOL    HW1 1157   2.899   3.589   7.921 -1.8844  0.3138  0.1307
  386SOL    HW2 1158   2.965   3.724   7.903  1.1478 -1.2490 -1.2406
  387SOL     OW 1159   0.617   1.730   6.697 -0.6054  0.0426 -0.4495
  387SOL    HW1 1160   0.705   1.765   6.714 -0.2830  0.2246 -2.3008
  387SOL    HW2 1161   0.607   1.659   6.760 -0.1831  1.6696  1.5557
  388SOL     OW 1162   4.676   1.384   7.977 -0.1982 -0.1125  0.1997
  388SOL    HW1 1163   4.743   1.321   8.005  0.7465 -0.6051 -2.7917
  388SOL    HW2 1164   4.640   1.418   8.058  2.0420 -1.5846  1.9476
  389SOL     OW 1165   0.586   3.316   9.076 -0.0878 -0.5333 -0.1821
  389SOL    HW1 1166   0.606   3.276   8.991  0.0985 -0.5364 -0.1371
  389SOL    HW2 1167   0.652   3.385   9.086 -2.0508  1.6638 -1.5087
  390SOL     OW 1168   4.465   3.763   6.670 -0.0988 -0.3535  0.5414
  390SOL    HW1 1169   4.489   3.679   6.630  0.5626  0.6952 -1.4094
  390SOL    HW2 1170   4.461   3.745   6.764  2.4089 -2.0160  0.4109
  391SOL     OW 1171   1.406   2.045   8.856 -0.2518 -0.2822  0.0521
  391SOL    HW1 1172   1.331   2.078   8.905 -0.7271  0.8390 -1.3503
  391SOL    HW2 1173   1.448   2.123   8.820  0.9592 -0.9665 -0.0794
  392SOL     OW 1174   3.436   1.244   8.409  0.4128 -0.3107 -0.1065
  392SOL    HW1 1175   3.464   1.261   8.319 -2.2969 -0.2211 -1.0096
  392SOL    HW2 1176   3.471   1.318   8.459  2.4317 -0.6488 -0.9136
  393SOL     OW 1177   1.445   0.636   8.682  0.1113 -0.1200 -0.8818
  393SOL    HW1 1178   1.465   0.684   8.601 -0.1025  0.2150 -0.7344
  393SOL    HW2 1179   1.486   0.550   8.669  4.1205  1.3518  0.5113
  394SOL     OW 1180   4.574   2.330   8.160  0.4128  0.4031  0.4003
  394SOL    HW1 1181   4.645   2.385   8.193 -0.3643  1.1250  0.9173
  394SOL    HW2 1182   4.533   2.383   8.091 -0.8657  0.8529  1.4641
  395SOL     OW 1183   1.132   1.739   5.957  0.6883 -0.2654 -0.8601
  395SOL    HW1 1184   1.127   1.644   5.948  2.7447 -0.8642  2.3801
  395SOL    HW2 1185   1.221   1.762   5.928  0.8448  0.3482  0.0411
  396SOL     OW 1186   0.124   0.932   6.444  0.0143 -0.1084  0.3546
  396SOL    HW1 1187   0.106   1.009   6.391 -0.2320  0.5761  1.4112
  396SOL    HW2 1188   0.199   0.891   6.401  1.0792  1.5146  0.5877
  397SOL     OW 1189   2.368   1.570   7.764 -0.4068  0.2302  0.0582
  397SOL    HW1 1190   2.464   1.573   7.767 -0.3128  0.3472 -1.9516
  397SOL    HW2 1191   2.345   1.490   7.811  0.7921 -0.7741 -1.0131
  398SOL     OW 1192   4.995   0.457   8.871 -1.0232 -0.3439 -0.0774
  398SOL    HW1 1193   4.933   0.505   8.925 -1.4828 -0.5725 -0.3911
  398SOL    HW2 1194   4.941   0.411   8.807 -0.5131 -0.3202 -0.5408
  399SOL     OW 1195   2.497   0.103   7.810  0.5392  0.1254 -0.3709
  399SOL    HW1 1196   2.456   0.024   7.775  1.7710 -0.5661 -0.3151
  399SOL    HW2 1197   2.562   0.071   7.872  0.5873  1.2200  0.1730
  400SOL     OW 1198   4.828   1.527   6.539  0.0781  0.2349 -0.1849
  400SOL    HW1 1199   4.828   1.621   6.557 -3.2927 -0.0818  2.3757
  400SOL    HW2 1200   4.804   1.520   6.447  0.6099  1.8540 -0.4737
  401SOL     OW 1201   4.503   0.349   7.372  0.0622  0.4305 -0.3428
  401SOL    HW1 1202   4.445   0.395   7.311  0.8547  3.3202  0.9019
  401SOL    HW2 1203   4.452   0.341   7.453  0.4897  0.6266 -0.0459
  402SOL     OW 1204   2.273   3.988   8.931 -0.1810  0.3782 -0.0700
  402SOL    HW1 1205   2.217   4.063   8.913 -0.1258  0.0141 -1.9303
  402SOL    HW2 1206   2.230   3.914   8.888  1.2783 -0.0513 -0.8792
  403SOL     OW 1207   2.580   4.612   8.934  0.2760 -0.3856 -0.1052
  403SOL    HW1 1208   2.630   4.691   8.913 -0.2798  0.2728  0.9572
  403SOL    HW2 1209   2.490   4.643   8.946 -0.1115 -1.3171 -0.4842
  404SOL     OW 1210   4.630   0.612   7.744  0.0068  0.7206 -0.1776
  404SOL    HW1 1211   4.547   0.569   7.766 -0.0075  0.7487 -0.1770
  404SOL    HW2 1212   4.623   0.700   7.782 -0.6128  1.2835 -1.5572
  405SOL     OW 1213   0.517   1.477   6.819  0.8682  0.2281  0.0590
  405SOL    HW1 1214   0.431   1.518   6.827  0.8549  0.3020 -0.4454
  405SOL    HW2 1215   0.516   1.437   6.732  0.7880 -1.0509  0.6285
  406SOL     OW 1216   4.379   2.423   6.464 -0.3140 -0.3344  0.4425
  406SOL    HW1 1217   4.455   2.465   6.424  0.7300 -1.8831  0.6674
  406SOL    HW2 1218   4.327   2.390   6.391  0.7052 -1.6642  0.2625
  407SOL     OW 1219   1.101   0.116   5.183  0.0855  0.1027 -0.0210
  407SOL    HW1 1220   1.049   0.195   5.169  1.0679  0.9006  0.7270
  407SOL    HW2 1221   1.099   0.102   5.277 -0.3141 -0.9494 -0.1700
  408SOL     OW 1222   0.381   1.629   7.776 -0.2751  0.1840  0.4548
  408SOL    HW1 1223   0.375   1.561   7.844 -2.4787  0.8373  1.0011
  408SOL    HW2 1224   0.381   1.580   7.693  2.4532 -0.6193  0.8400
  409SOL     OW 1225   1.235   4.221   8.048 -0.2387 -0.2883 -0.2491
  409SOL    HW1 1226   1.162   4.194   7.992  0.2639 -1.1914 -0.4833
  409SOL    HW2 1227   1.219   4.178   8.131  0.7847 -1.6925 -0.7526
  410SOL     OW 1228   0.722   4.595   7.419  0.1260 -0.3828 -0.2286
  410SOL    HW1 1229   0.755   4.679   7.452 -1.2680  0.7134 -1.4624
  410SOL    HW2 1230   0.801   4.547   7.395  0.9688  0.5638  0.5122
  411SOL     OW 1231   2.094   4.180   7.871 -0.2475 -0.5005  0.9536
  411SOL    HW1 1232   2.040   4.179   7.792 -0.6711 -0.6880  1.2447
  411SOL    HW2 1233   2.154   4.253   7.858 -1.8656  0.9806  1.5029
  412SOL     OW 1234   1.734   1.142   7.968 -0.5147  0.0713 -0.2260
  412SOL    HW1 1235   1.741   1.062   7.916 -1.0113  1.3348 -2.3500
  412SOL    HW2 1236   1.788   1.125   8.046  0.4451 -1.8174 -1.2330
  413SOL     OW 1237   1.253   1.543   5.502 -0.2923  0.1599  0.3588
  413SOL    HW1 1238   1.295   1.622   5.536  2.6359 -1.5138  1.0535
  413SOL    HW2 1239   1.197   1.513   5.574 -0.3134  0.8294  0.6320
  414SOL     OW 1240   2.808   2.385   6.928  0.0958 -0.3139 -0.1745
  414SOL    HW1 1241   2.765   2.443   6.865  0.3378 -1.0924 -1.0955
  414SOL    HW2 1242   2.771   2.408   7.013  0.4105  1.3779 -0.4741
  415SOL     OW 1243   4.327   2.004   8.960 -0.1106 -0.1804 -0.0218
  415SOL    HW1 1244   4.329   1.966   8.872  2.1677 -1.0495  0.3558
  415SOL    HW2 1245   4.412   1.983   8.998 -1.0082  0.2090  2.4027
  416SOL     OW 1246   0.362   0.869   7.265 -0.3296  0.1528 -0.4829
  416SOL    HW1 1247   0.422   0.815   7.215  1.2000  1.2117  0.1317
  416SOL    HW2 1248   0.415   0.904   7.336 -1.9233  0.3663  0.6601
  417SOL     OW 1249   5.016   1.314   6.616 -0.2232 -0.4892  0.2201
  417SOL    HW1 1250   4.979   1.251   6.555 -0.5738 -1.4745  1.4037
  417SOL    HW2 1251   4.955   1.388   6.615 -0.3244 -0.5808 -0.4666
  418SOL     OW 1252   0.367   4.239   7.883 -0.2484 -0.1626 -0.6143
  418SOL    HW1 1253   0.324   4.226   7.799  0.1401 -0.3013 -0.7967
  418SOL    HW2 1254   0.448   4.285   7.861  0.6339 -1.5877 -0.5255
  419SOL     OW 1255   4.395   2.069   6.143 -0.3871  0.7797  0.3273
  419SOL    HW1 1256   4.424   2.027   6.224  2.1542  1.2143 -0.2921
  419SOL    HW2 1257   4.326   2.011   6.110 -0.1686 -0.4032  1.8340
  420SOL     OW 1258   4.967   1.500   8.229 -0.4451  0.0126 -0.4955
  420SOL    HW1 1259   5.007   1.480   8.314 -1.7772  1.6180  0.5790
  420SOL    HW2 1260   4.876   1.523   8.250 -0.6020  1.2046 -2.2630
  421SOL     OW 1261   2.135   0.442   6.530 -0.3011 -0.5125  0.1002
  421SOL    HW1 1262   2.194   0.512   6.505  1.3596 -1.7341  0.4555
  421SOL    HW2 1263   2.090   0.418   6.449  0.3280 -0.1543 -0.3602
  422SOL     OW 1264   0.630   4.866   6.240 -0.1582 -0.2809  0.3952
  422SOL    HW1 1265   0.635   4.782   6.195  0.6729 -0.3886  0.6846
  422SOL    HW2 1266   0.668   4.850   6.327 -0.0657  0.3697  0.4807
  423SOL     OW 1267   0.595   3.596   6.141  0.9726  0.4050 -0.0978
  423SOL    HW1 1268   0.560   3.617   6.054  1.1288  0.5769 -0.1199
  423SOL    HW2 1269   0.602   3.500   6.141 -0.1751  0.3131  0.1691
  424SOL     OW 1270   1.672   1.475   4.932 -0.0175  0.4148  0.0192
  424SOL    HW1 1271   1.621   1.542   4.886 -1.6788 -1.7668 -1.6004
  424SOL    HW2 1272   1.611   1.439   4.996  0.2921 -0.5678 -0.2238
  425SOL     OW 1273   1.217   1.414   6.931 -0.5775  0.6293  0.6277
  425SOL    HW1 1274   1.200   1.340   6.873  1.4753 -0.5063  1.3532
  425SOL    HW2 1275   1.137   1.425   6.981 -0.6117 -1.8398  1.2323
  426SOL     OW 1276   1.382   2.628   8.457 -0.3522 -0.2231  0.2276
  426SOL    HW1 1277   1.293   2.652   8.434 -0.8917 -1.4785  0.9107
  426SOL    HW2 1278   1.374   2.544   8.502  0.8452  0.9859  2.9370
  427SOL     OW 1279   2.072   1.450   8.965  0.5913  0.3164  0.0322
  427SOL    HW1 1280   2.158   1.412   8.945 -0.4226 -2.0285 -0.2082
  427SOL    HW2 1281   2.026   1.450   8.882 -0.4712 -0.7695  0.5971
  428SOL     OW 1282   3.794   4.028   9.087  0.9351 -1.1183  0.4228
  428SOL    HW1 1283   3.737   4.080   9.030  0.4616 -0.9354  1.0500
  428SOL    HW2 1284   3.852   3.981   9.027  2.7086  1.6026 -0.1325
  429SOL     OW 1285   0.398   4.739   8.613 -0.6698 -0.1677 -0.2299
  429SOL    HW1 1286   0.321   4.784   8.648 -0.9136 -1.7298  1.3629
  429SOL    HW2 1287   0.472   4.790   8.646 -0.9489  1.9950 -2.6763
  430SOL     OW 1288   0.209   0.677   7.912 -0.2446  0.2071  0.4224
  430SOL    HW1 1289   0.145   0.607   7.924 -1.3808  0.9876 -0.8823
  430SOL    HW2 1290   0.276   0.639   7.855  0.3301 -0.5039  1.5255
  431SOL     OW 1291   4.437   2.479   7.979 -0.3586 -0.0830  0.3170
  431SOL    HW1 1292   4.418   2.554   7.924  1.5147 -0.0183 -0.2903
  431SOL    HW2 1293   4.400   2.404   7.932  1.6639 -0.1056 -1.3815
  432SOL     OW 1294   2.219   0.359   7.183  0.4829  0.1256  0.2591
  432SOL    HW1 1295   2.137   0.344   7.229  0.5995  1.8372  1.1210
  432SOL    HW2 1296   2.208   0.446   7.142  0.7503 -0.9101 -2.1985
  433SOL     OW 1297   0.831   2.580   9.186  0.0725 -0.3064 -0.1814
  433SOL    HW1 1298   0.802   2.514   9.249 -0.5588 -2.6484 -2.7417
  433SOL    HW2 1299   0.754   2.637   9.174 -0.5148 -1.1170 -0.3493
  434SOL     OW 1300   4.938   1.251   8.467 -0.2179  0.3832  0.1118
  434SOL    HW1 1301   4.864   1.298   8.506  0.2068  0.4243  0.9060
  434SOL    HW2 1302   5.004   1.318   8.454 -0.7995  0.6201 -1.9389
  435SOL     OW 1303   0.833   0.218   9.326  0.2071 -0.4403  0.4734
  435SOL    HW1 1304   0.753   0.167   9.332 -0.0509 -0.0034  0.8900
  435SOL    HW2 1305   0.903   0.155   9.337 -0.0850 -0.8042  0.2594
  436SOL     OW 1306   0.347   0.070   8.326 -0.8283  0.0204 -0.9510
  436SOL    HW1 1307   0.325   0.104   8.412 -0.9312 -0.3986 -0.8114
  436SOL    HW2 1308   0.346  -0.025   8.336 -1.3902 -0.0432 -1.5465
  437SOL     OW 1309   4.481   2.131   8.674 -0.3948 -0.2171 -0.4747
  437SOL    HW1 1310   4.475   2.190   8.599  0.3724 -0.6044 -0.8550
  437SOL    HW2 1311   4.505   2.188   8.747 -2.1027  0.3189 -0.2910
  438SOL     OW 1312   1.240   2.625   6.111 -0.5344  0.0681  0.4177
  438SOL    HW1 1313   1.304   2.696   6.109  0.4518 -0.7572  1.4360
  438SOL    HW2 1314   1.177   2.652   6.178 -1.3334  0.9157 -0.6383
  439SOL     OW 1315   3.669   2.559   9.588  0.0547 -0.2984 -0.1022
  439SOL    HW1 1316   3.708   2.515   9.512 -1.7987 -0.7339 -0.8705
  439SOL    HW2 1317   3.668   2.651   9.563  0.8593 -0.2331  0.0723
  440SOL     OW 1318   1.362   2.024   7.370 -0.0553 -0.1433 -0.3188
  440SOL    HW1 1319   1.335   1.985   7.452  1.4331  1.0591  0.8040
  440SOL    HW2 1320   1.386   2.114   7.392 -2.3518  1.1744 -2.5984
  441SOL     OW 1321   0.410   2.899   8.540  0.1214  0.0351 -0.2620
  441SOL    HW1 1322   0.376   2.853   8.617 -0.8690  1.8508  0.4420
  441SOL    HW2 1323   0.333   2.935   8.498  0.7088 -0.5075 -1.8655
  442SOL     OW 1324   3.387   3.266   8.216 -0.0150  0.0204 -0.2674
  442SOL    HW1 1325   3.349   3.182   8.242 -0.0901  0.0388 -0.3154
  442SOL    HW2 1326   3.337   3.292   8.138 -1.9769  1.4955  1.3594
  443SOL     OW 1327   0.600   1.372   9.184  0.4863 -0.8283  0.4231
  443SOL    HW1 1328   0.608   1.347   9.276  1.0302 -1.0497  0.3144
  443SOL    HW2 1329   0.578   1.290   9.139 -1.2790 -0.4720  0.5413
  444SOL     OW 1330   0.462   1.579   8.920  0.2204 -0.1308  0.2286
  444SOL    HW1 1331   0.396   1.563   8.988  0.2166  2.0092  0.7845
  444SOL    HW2 1332   0.538   1.613   8.966  0.7289  0.0184 -0.6855
  445SOL     OW 1333   3.419   3.399   7.760  0.3825  0.2286  0.5908
  445SOL    HW1 1334   3.350   3.424   7.698 -1.6184 -1.3547  2.0119
  445SOL    HW2 1335   3.484   3.353   7.707 -0.6014  0.1015 -0.5518
  446SOL     OW 1336   0.260   4.798   9.371 -0.3138 -0.0347  0.3505
  446SOL    HW1 1337   0.311   4.878   9.365 -1.1824  0.5177  0.1829
  446SOL    HW2 1338   0.324   4.728   9.362  0.6294  0.6143  1.7341
  447SOL     OW 1339   0.545   0.593   6.257  0.4018 -0.1424 -0.2643
  447SOL    HW1 1340   0.625   0.545   6.278  0.0206 -0.7313 -0.1445
  447SOL    HW2 1341   0.486   0.574   6.330  0.0102 -0.0243 -0.5483
  448SOL     OW 1342   0.043   3.245   9.211  0.1599  0.0426 -0.1019
  448SOL    HW1 1343   0.106   3.313   9.188  0.2770 -0.3114 -0.8553
  448SOL    HW2 1344  -0.043   3.285   9.196  0.2211 -0.4644 -2.1573
  449SOL     OW 1345   1.124   4.559   7.944  0.0691 -0.1085 -0.1669
  449SOL    HW1 1346   1.216   4.571   7.967  0.4950  1.2863 -2.2361
  449SOL    HW2 1347   1.127   4.508   7.863 -0.7578  2.0299 -1.6326
  450SOL     OW 1348   2.658   1.211   8.313  0.3326 -0.0625 -0.0045
  450SOL    HW1 1349   2.593   1.165   8.259  1.0965  0.1348 -1.1436
  450SOL    HW2 1350   2.729   1.147   8.323  0.5047  0.1544  0.1605
  451SOL     OW 1351   3.870   1.334   9.831 -0.0443 -0.0229 -0.3744
  451SOL    HW1 1352   3.853   1.349   9.738  1.0219 -0.0405 -0.5955
  451SOL    HW2 1353   3.911   1.415   9.861 -2.8920  1.1006  0.8108
  452SOL     OW 1354   0.597   0.234   9.578  0.2980 -0.6335  0.1139
  452SOL    HW1 1355   0.598   0.160   9.518 -1.2497 -0.2554 -0.4102
  452SOL    HW2 1356   0.668   0.291   9.548  0.7412 -1.3356 -0.1878
  453SOL     OW 1357   0.775   0.746   9.214 -0.2223  0.3412  0.4157
  453SOL    HW1 1358   0.773   0.687   9.139 -1.8716  1.4910 -0.5249
  453SOL    HW2 1359   0.865   0.742   9.246  0.6545  0.1366 -1.9003
  454SOL     OW 1360   2.426   2.850   7.922  0.0866 -0.0425 -0.8482
  454SOL    HW1 1361   2.381   2.827   8.004  0.2703  0.3294 -0.6435
  454SOL    HW2 1362   2.453   2.941   7.934 -1.7317  0.7222 -2.1392
  455SOL     OW 1363   4.711   3.189   8.860  0.2415  0.1072 -0.2163
  455SOL    HW1 1364   4.641   3.197   8.924 -0.1822  1.2240 -0.7904
  455SOL    HW2 1365   4.713   3.096   8.838 -1.7398  0.1578 -0.8967
  456SOL     OW 1366   0.767   1.462   8.845  0.1745  0.3534 -0.7903
  456SOL    HW1 1367   0.712   1.385   8.856  0.9452 -0.4611 -2.3057
  456SOL    HW2 1368   0.742   1.520   8.917 -1.9715 -0.3619 -0.8886
  457SOL     OW 1369   3.418   1.211   9.565  0.2311 -0.6454  0.1754
  457SOL    HW1 1370   3.372   1.277   9.513  0.9316  0.2289  0.6199
  457SOL    HW2 1371   3.350   1.150   9.593 -0.4359 -0.1173 -0.2744
  458SOL     OW 1372   4.154   4.338   9.573 -0.4328  0.6171  0.7159
  458SOL    HW1 1373   4.176   4.422   9.533  0.7274 -0.1347 -0.3239
  458SOL    HW2 1374   4.233   4.313   9.622  0.0576 -0.7800 -0.6769
  459SOL     OW 1375   3.647   0.959   8.987  0.7374  0.1301 -0.1505
  459SOL    HW1 1376   3.657   1.017   9.063  1.3397 -2.0822  1.5651
  459SOL    HW2 1377   3.557   0.975   8.957  1.1375  2.4848 -0.2813
  460SOL     OW 1378   1.538   0.843   8.846  0.2227 -0.2204 -0.5777
  460SOL    HW1 1379   1.529   0.774   8.780  0.2417  0.2721 -1.1053
  460SOL    HW2 1380   1.450   0.857   8.879  0.6343 -2.9897  2.1694
  461SOL     OW 1381   1.015   1.144   8.071 -0.3232 -0.2707 -0.1803
  461SOL    HW1 1382   1.006   1.220   8.128  1.0042  0.1742 -0.5388
  461SOL    HW2 1383   0.977   1.172   7.987  0.6419  0.2012 -0.4734
  462SOL     OW 1384   4.744   1.682  10.015  0.1704  0.1824 -0.7401
  462SOL    HW1 1385   4.727   1.708   9.925  1.7015  0.5424 -0.9450
  462SOL    HW2 1386   4.692   1.743  10.068  0.3200  0.8436 -1.3424
  463SOL     OW 1387   4.192   4.791   9.991 -0.0089 -0.3797 -0.0488
  463SOL    HW1 1388   4.128   4.724  10.012 -0.1523 -0.2422 -0.0480
  463SOL    HW2 1389   4.242   4.803  10.072  0.3607 -0.8595 -0.1988
  464SOL     OW 1390   0.857   1.866   8.177 -0.1070  0.7561  0.6919
  464SOL    HW1 1391   0.921   1.922   8.132 -1.1489 -0.4441 -2.6010
  464SOL    HW2 1392   0.909   1.794   8.212  0.4663 -0.1144 -1.7788
  465SOL     OW 1393   1.523   4.306   9.349  0.1877  0.1066 -0.2626
  465SOL    HW1 1394   1.615   4.293   9.324  0.3931  0.9353  0.0320
  465SOL    HW2 1395   1.489   4.366   9.282  0.4238  1.4175  0.7627
  466SOL     OW 1396   0.350   0.766   8.654 -0.1615  0.1601  0.1616
  466SOL    HW1 1397   0.297   0.738   8.579 -1.0417  2.1524 -0.0221
  466SOL    HW2 1398   0.411   0.829   8.617  0.1476  0.3173  0.9327
  467SOL     OW 1399   0.750   0.687   6.910 -0.3613 -0.1900  0.0661
  467SOL    HW1 1400   0.784   0.603   6.881  1.5236  0.8474 -0.9508
  467SOL    HW2 1401   0.793   0.703   6.994 -1.6459 -0.7326  0.8682
  468SOL     OW 1402   3.839   4.305   7.346 -0.1964  0.0725  0.0688
  468SOL    HW1 1403   3.931   4.316   7.322  0.0058  1.5016  1.3246
  468SOL    HW2 1404   3.807   4.394   7.358 -2.0279 -0.3604 -1.2479
  469SOL     OW 1405   1.555   1.304   9.168 -0.3437 -0.4716 -0.4568
  469SOL    HW1 1406   1.509   1.223   9.189 -1.4349  0.7009  2.1404
  469SOL    HW2 1407   1.487   1.363   9.135 -0.5042  0.7178  1.7881
  470SOL     OW 1408   0.709   1.830   9.698  0.4507 -0.7994  0.3387
  470SOL    HW1 1409   0.788   1.779   9.682 -0.0692 -1.4855 -0.0708
  470SOL    HW2 1410   0.649   1.770   9.741  0.0594 -0.3517  0.4312
  471SOL     OW 1411   1.334   2.637   7.829 -0.7256 -0.1193  0.3134
  471SOL    HW1 1412   1.275   2.681   7.890 -1.1185  1.2638 -1.0139
  471SOL    HW2 1413   1.421   2.663   7.857 -0.9129  0.6816  0.1681
  472SOL     OW 1414   0.253   0.441   8.947 -0.0298  0.6643  0.0608
  472SOL    HW1 1415   0.289   0.352   8.950 -0.3162  0.1798 -4.2559
  472SOL    HW2 1416   0.168   0.431   8.905 -0.0825  2.9338 -0.5012
  473SOL     OW 1417   0.636   1.469   7.388  0.1624 -0.8939  0.3956
  473SOL    HW1 1418   0.701   1.538   7.378 -0.7912 -0.2426 -1.6458
  473SOL    HW2 1419   0.686   1.393   7.419  1.4046  0.3291  1.5247
  474SOL     OW 1420   2.934   0.747   9.714 -1.2754  0.4326  0.1606
  474SOL    HW1 1421   2.912   0.676   9.774 -1.9294  0.3296 -0.1916
  474SOL    HW2 1422   3.007   0.792   9.756 -1.6901  0.3320  1.0170
  475SOL     OW 1423   2.552   2.151   9.068  0.7175  0.4535  0.2133
  475SOL    HW1 1424   2.618   2.116   9.128 -0.0055 -0.6608  0.4015
  475SOL    HW2 1425   2.477   2.093   9.080  0.2820  0.7004 -1.1865
  476SOL     OW 1426   1.568   4.145  10.007  0.5801  0.1481 -0.7499
  476SOL    HW1 1427   1.610   4.112  10.086 -0.8268  0.4118  0.1375
  476SOL    HW2 1428   1.621   4.110   9.935  1.5162 -0.6089  0.2834
  477SOL     OW 1429   2.118   0.071   8.007 -0.2752 -0.0342 -0.2082
  477SOL    HW1 1430   2.171   0.103   7.934 -1.2213 -1.3601 -1.5394
  477SOL    HW2 1431   2.074   0.149   8.041  0.4410  0.6599 -0.8227
  478SOL     OW 1432   0.068   4.734   9.544  0.1742 -0.3238 -0.2472
  478SOL    HW1 1433   0.101   4.747   9.633 -0.5614  0.1811 -0.0384
  478SOL    HW2 1434   0.128   4.783   9.489 -0.9632  1.7611  0.2651
  479SOL     OW 1435   1.705   4.028   9.201  0.1766 -0.5097  0.1214
  479SOL    HW1 1436   1.741   3.944   9.175  0.3479 -0.1853 -0.7445
  479SOL    HW2 1437   1.610   4.014   9.204  0.2363 -0.8406  0.3818
  480SOL     OW 1438   2.719   1.512   8.993 -0.0381  0.3041 -0.3699
  480SOL    HW1 1439   2.671   1.513   9.076  0.8432  2.3667  0.1919
  480SOL    HW2 1440   2.652   1.521   8.926 -0.6113  0.9962  0.2695
  481SOL     OW 1441   0.999   2.314   8.764  0.1387  0.6177  0.2870
  481SOL    HW1 1442   1.003   2.380   8.834  0.0033  1.5843 -0.5842
  481SOL    HW2 1443   0.911   2.278   8.770  0.6555 -0.4988  1.6411
  482SOL     OW 1444   1.216   0.814   7.555  0.3811  0.1278 -0.0425
  482SOL    HW1 1445   1.121   0.812   7.543  0.7080 -1.0286 -3.4015
  482SOL    HW2 1446   1.239   0.906   7.547 -0.2583  0.1749 -1.6551
  483SOL     OW 1447   2.027   0.203   9.467 -0.6480 -0.9067  0.7429
  483SOL    HW1 1448   2.089   0.131   9.451 -2.1597 -2.0627 -0.1695
  483SOL    HW2 1449   2.032   0.255   9.387 -0.8448 -0.9894  0.6780
  484SOL     OW 1450   1.606   1.311   8.623  0.3803  0.0029 -0.6036
  484SOL    HW1 1451   1.526   1.363   8.617  0.1429 -0.4321 -1.2495
  484SOL    HW2 1452   1.621   1.302   8.718 -0.7862 -0.5831 -0.4537
  485SOL     OW 1453   1.361   2.323   9.211 -0.1986  0.6197  0.4326
  485SOL    HW1 1454   1.411   2.393   9.254 -1.0432  2.6269 -1.6224
  485SOL    HW2 1455   1.413   2.244   9.226  2.6818  2.2693 -0.0029
  486SOL     OW 1456   2.029   2.874   9.538 -0.6533 -0.5767 -0.2028
  486SOL    HW1 1457   1.967   2.814   9.497 -0.3930 -0.3961 -0.8795
  486SOL    HW2 1458   1.997   2.961   9.515 -0.1398 -0.4812 -0.5870
  487SOL     OW 1459   2.264   1.218   8.388 -0.0159  0.3258 -0.8259
  487SOL    HW1 1460   2.197   1.287   8.397 -0.1624  0.4025 -2.3473
  487SOL    HW2 1461   2.338   1.262   8.347 -0.0951 -0.4043 -1.7698
  488SOL     OW 1462   2.332   2.417   8.562  0.3354 -0.1714 -0.0062
  488SOL    HW1 1463   2.368   2.391   8.477 -1.6592 -0.7903 -0.7190
  488SOL    HW2 1464   2.253   2.466   8.541  1.0853  1.8332  1.4821
  489SOL     OW 1465   0.771   1.011   9.060  0.4263 -0.0772  0.0269
  489SOL    HW1 1466   0.777   1.097   9.103 -0.6585  0.2321 -0.4099
  489SOL    HW2 1467   0.783   0.948   9.131  1.4007  0.4247  0.3269
  490SOL     OW 1468   3.082   2.252   8.013 -0.2779  0.7405 -0.5402
  490SOL    HW1 1469   3.012   2.215   7.960  0.0125 -0.8869  0.1500
  490SOL    HW2 1470   3.161   2.238   7.962 -0.4542  3.3427 -1.7143
  491SOL     OW 1471   2.795   0.857   8.106  0.1160 -0.3334  0.8786
  491SOL    HW1 1472   2.783   0.766   8.131 -0.1373 -0.2270  1.1461
  491SOL    HW2 1473   2.737   0.869   8.030  1.5373 -0.8940 -0.3453
  492SOL     OW 1474   0.421   4.547   9.089  0.1282  0.1537  0.3536
  492SOL    HW1 1475   0.415   4.463   9.044 -0.4562  1.4003 -2.0624
  492SOL    HW2 1476   0.356   4.542   9.159 -2.3454 -0.2894 -1.8194
  493SOL     OW 1477   1.416  -0.000   9.009 -0.1999 -0.2547  0.5616
  493SOL    HW1 1478   1.417   0.095   9.017 -1.3573 -0.1045 -0.7985
  493SOL    HW2 1479   1.498  -0.021   8.964 -1.3956  0.4527 -2.1162
  494SOL     OW 1480   2.131   1.221   9.136  0.3344 -0.0886  0.2410
  494SOL    HW1 1481   2.075   1.145   9.155  1.3227 -0.4547  2.0155
  494SOL    HW2 1482   2.075   1.282   9.090 -1.1549 -0.9857  0.7932
  495SOL     OW 1483   4.634   0.304   7.818 -0.4550 -0.3797 -0.4860
  495SOL    HW1 1484   4.658   0.396   7.824  0.5126 -0.6531  0.1741
  495SOL    HW2 1485   4.705   0.264   7.767  0.3422 -1.1334  1.1142
  496SOL     OW 1486   0.859   2.053   9.161  0.0143  0.1235  0.1204
  496SOL    HW1 1487   0.820   2.090   9.082  1.3094 -0.3046 -0.7644
  496SOL    HW2 1488   0.820   2.103   9.233 -0.5371  1.1340 -0.8441
  497SOL     OW 1489   2.905   1.711   9.523  0.1679 -0.0749  0.6140
  497SOL    HW1 1490   2.827   1.761   9.498  0.6378  0.7437  0.7582
  497SOL    HW2 1491   2.975   1.776   9.528  0.5458 -0.5546  1.9401
  498SOL     OW 1492   0.945   2.392   9.369 -0.3503 -0.1050 -0.5957
  498SOL    HW1 1493   0.995   2.315   9.396  3.1702  1.2360 -2.5246
  498SOL    HW2 1494   0.934   2.444   9.449  0.0388 -1.1415  0.1502
  499SOL     OW 1495   2.403   0.686   9.439 -0.3391  0.0054 -0.1379
  499SOL    HW1 1496   2.452   0.605   9.424  0.2422  0.4617 -0.7429
  499SOL    HW2 1497   2.453   0.753   9.394 -1.0455  0.6383  0.0022
  500SOL     OW 1498   0.363   3.545   9.237 -0.2602  0.1634 -0.1369
  500SOL    HW1 1499   0.420   3.621   9.221  0.4266 -0.0880  0.9922
  500SOL    HW2 1500   0.424   3.471   9.245 -0.7487 -0.1288  0.9942
  501SOL     OW 1501   1.574   3.009   7.322  0.0969 -0.0517  0.4638
  501SOL    HW1 1502   1.498   3.018   7.380  1.1717  0.3928  1.8570
  501SOL    HW2 1503   1.649   3.014   7.380  1.2007 -1.5964 -0.7465
  502SOL     OW 1504   2.481   1.202   9.379 -0.6474  0.1076 -0.0127
  502SOL    HW1 1505   2.404   1.192   9.435 -1.6244 -1.1951 -1.5023
  502SOL    HW2 1506   2.544   1.138   9.413 -1.1137 -0.4519 -0.1818
  503SOL     OW 1507   0.211   0.329   9.367 -0.0705 -0.0614 -0.1296
  503SOL    HW1 1508   0.214   0.399   9.433  0.9371 -0.7864  0.6188
  503SOL    HW2 1509   0.174   0.254   9.413 -0.0838 -0.3538 -0.6163
  504SOL     OW 1510   1.540   0.230   9.367 -0.5284 -0.0638 -0.8159
  504SOL    HW1 1511   1.458   0.276   9.348 -0.2968  0.7028 -0.0729
  504SOL    HW2 1512   1.599   0.300   9.397  1.5151  0.0010 -4.5053
  505SOL     OW 1513   1.929   1.232   8.506 -0.0563  0.2520 -0.9209
  505SOL    HW1 1514   1.837   1.239   8.480 -0.1307  0.3802 -0.6218
  505SOL    HW2 1515   1.930   1.166   8.575  0.0531  0.3649 -0.8136
  506SOL     OW 1516   0.227   1.847   9.087 -0.2503  0.4976 -0.1152
  506SOL    HW1 1517   0.228   1.942   9.077  1.3424  0.3586 -1.9161
  506SOL    HW2 1518   0.196   1.815   9.002 -1.3518 -0.5991  0.6774
  507SOL     OW 1519   4.350   3.419   7.772  0.2947 -0.2227  0.7705
  507SOL    HW1 1520   4.388   3.501   7.806 -0.2948  0.1835  0.4747
  507SOL    HW2 1521   4.315   3.375   7.850  1.6857 -0.7991  1.1119
  508SOL     OW 1522   0.147   4.078   8.146 -0.4049 -0.5452 -0.1432
  508SOL    HW1 1523   0.113   3.995   8.181  0.7933 -0.6321  0.8607
  508SOL    HW2 1524   0.219   4.052   8.088  0.0745 -0.2015  0.2933
  509SOL     OW 1525   1.508   2.556   9.303  0.2514  0.3657  0.2610
  509SOL    HW1 1526   1.541   2.635   9.260  1.0425  0.4217  0.9368
  509SOL    HW2 1527   1.507   2.579   9.396 -0.4653 -0.0931  0.3746
  510SOL     OW 1528   0.689   1.071   8.619 -0.0809 -0.4008  0.0871
  510SOL    HW1 1529   0.702   1.146   8.676 -0.9294 -0.3542  0.2268
  510SOL    HW2 1530   0.690   0.995   8.677 -0.0960 -0.4218  0.0605
  511SOL     OW 1531   0.095   4.642   8.871 -0.2448  0.5049  0.0747
  511SOL    HW1 1532   0.092   4.641   8.776  1.1511  1.2194  0.0042
  511SOL    HW2 1533   0.144   4.563   8.894 -1.2223 -0.0690  0.2558
  512SOL     OW 1534   2.256   4.850   7.993 -0.1874 -0.1315  0.1798
  512SOL    HW1 1535   2.255   4.854   7.898  1.1570 -0.0746  0.1439
  512SOL    HW2 1536   2.204   4.925   8.021  0.4764  0.6141 -0.5252
  513SOL     OW 1537   4.313   2.621   8.813  0.4063 -0.2348  0.1795
  513SOL    HW1 1538   4.343   2.704   8.775 -1.7227 -0.1297 -1.4978
  513SOL    HW2 1539   4.312   2.560   8.739  1.7388 -1.7576  1.3502
  514SOL     OW 1540   0.075   0.256   9.768 -0.0624  0.6430 -0.6228
  514SOL    HW1 1541   0.070   0.338   9.719  0.8733  0.6547 -0.7123
  514SOL    HW2 1542  -0.016   0.238   9.793 -0.5802  0.6473 -2.3308
  515SOL     OW 1543   4.067   0.084   9.545 -0.0061 -0.0246  0.4736
  515SOL    HW1 1544   4.112   0.022   9.603  1.9160 -0.2757 -1.1680
  515SOL    HW2 1545   4.110   0.167   9.560  1.2574 -0.3009 -1.2388
  516SOL     OW 1546   0.237   4.490   9.269 -0.3255 -0.1064 -0.7094
  516SOL    HW1 1547   0.204   4.404   9.245 -1.3970 -0.5918  2.0943
  516SOL    HW2 1548   0.165   4.550   9.249  0.4933  0.2702 -2.8533
  517SOL     OW 1549   0.870   2.243   8.215 -0.0239  0.0223 -0.4092
  517SOL    HW1 1550   0.931   2.171   8.202 -0.8947 -0.6971 -0.5554
  517SOL    HW2 1551   0.785   2.209   8.187 -0.7835  0.5198  1.1676
  518SOL     OW 1552   4.044   4.289   9.947 -0.4694 -0.1424 -0.6264
  518SOL    HW1 1553   4.109   4.227   9.915  0.3639  0.7066 -0.6140
  518SOL    HW2 1554   4.059   4.368   9.896 -1.3237  0.1541 -0.4324
  519SOL     OW 1555   0.574   2.002   9.513 -0.3087 -0.2753 -0.5732
  519SOL    HW1 1556   0.640   1.956   9.564 -0.7645  0.9343  1.2031
  519SOL    HW2 1557   0.491   1.976   9.553 -0.8143 -0.6477 -1.8346
  520SOL     OW 1558   1.417   1.046   9.224  0.3445 -0.1702  0.4443
  520SOL    HW1 1559   1.321   1.050   9.225  0.3291  0.0471 -0.7527
  520SOL    HW2 1560   1.438   0.975   9.284 -0.5451 -0.0025  0.9857
  521SOL     OW 1561   4.471   4.579   9.043  0.3875 -0.5104 -0.1890
  521SOL    HW1 1562   4.563   4.565   9.019  0.9495 -0.3751  1.7098
  521SOL    HW2 1563   4.435   4.628   8.970  1.9528 -0.1788 -0.7873
  522SOL     OW 1564   3.386   5.008   8.110 -0.0296  0.2201  0.0816
  522SOL    HW1 1565   3.466   5.036   8.154 -0.6342  1.6308  0.3338
  522SOL    HW2 1566   3.341   4.953   8.175  0.3239  0.1292  0.2524
  523SOL     OW 1567   2.902   4.191   9.833  0.2132 -0.3072  0.5135
  523SOL    HW1 1568   2.870   4.111   9.792 -0.3788 -0.1331  0.6217
  523SOL    HW2 1569   2.987   4.206   9.793 -0.2882 -0.2174 -0.5624
  524SOL     OW 1570   0.538   1.995   9.111 -0.5776  0.7052  0.6927
  524SOL    HW1 1571   0.444   1.979   9.120 -0.5027 -0.0486  0.2363
  524SOL    HW2 1572   0.544   2.080   9.067 -1.1223 -0.4218 -1.7249
  525SOL     OW 1573   0.899   1.063   8.424 -0.1870  0.3674 -1.2058
  525SOL    HW1 1574   0.847   1.057   8.504 -0.8850  0.3206 -1.6567
  525SOL    HW2 1575   0.918   0.972   8.401  0.2993  0.3924 -0.9141
  526SOL     OW 1576   2.702   1.895   9.477 -0.2522  0.3660 -0.1661
  526SOL    HW1 1577   2.609   1.876   9.477 -0.3930  0.8865 -1.7004
  526SOL    HW2 1578   2.731   1.875   9.388  0.7827  1.6031 -0.1555
  527SOL     OW 1579   1.891   0.462   8.482 -0.7224 -0.1602  0.1290
  527SOL    HW1 1580   1.818   0.420   8.436 -1.8673  0.1094  1.6094
  527SOL    HW2 1581   1.851   0.502   8.560  0.4220  2.9490 -0.7210
  528SOL     OW 1582   1.659   1.560   9.416 -0.3650  0.4960 -0.1827
  528SOL    HW1 1583   1.580   1.522   9.378 -0.0888  0.2923 -0.5520
  528SOL    HW2 1584   1.657   1.532   9.508 -1.9591  2.4277  0.4629
  529SOL     OW 1585   4.610   0.130   9.417 -0.7305 -0.6664 -0.0217
  529SOL    HW1 1586   4.668   0.082   9.357 -0.1711  0.2932 -0.2686
  529SOL    HW2 1587   4.524   0.090   9.405 -0.6675 -0.3794 -1.5998
  530SOL     OW 1588   4.362   4.081   9.657  0.0380 -0.4321  0.0357
  530SOL    HW1 1589   4.427   4.017   9.626  1.3536  1.2551 -0.8934
  530SOL    HW2 1590   4.414   4.157   9.682 -1.5802  0.9763 -0.6836
  531SOL     OW 1591   3.296   0.875   9.130  0.2520 -0.1652  1.2111
  531SOL    HW1 1592   3.341   0.897   9.212  1.2626  0.2590  0.5585
  531SOL    HW2 1593   3.254   0.791   9.148 -0.4071  0.4005  2.4878
  532SOL     OW 1594   3.289   0.670   9.965 -0.1407  0.0347  0.1163
  532SOL    HW1 1595   3.272   0.632   9.879  1.9733 -0.3202 -0.1804
  532SOL    HW2 1596   3.221   0.737   9.975 -0.4651  0.0431 -1.7807
  533SOL     OW 1597   4.504   2.543   7.116 -0.1423  0.2476  0.6393
  533SOL    HW1 1598   4.495   2.607   7.045 -4.0033 -0.1870  0.5130
  533SOL    HW2 1599   4.556   2.472   7.077  1.0861  1.6612 -0.4134
  534SOL     OW 1600   2.565   0.650   8.847 -0.3618 -0.5426  0.0386
  534SOL    HW1 1601   2.638   0.597   8.879 -1.0191 -1.5150 -0.0272
  534SOL    HW2 1602   2.601   0.738   8.839  0.3458 -0.6525  1.6437
  535SOL     OW 1603   0.299   1.962   8.138 -0.3447  0.3998  0.3101
  535SOL    HW1 1604   0.380   1.977   8.089  0.6348 -1.6745  1.1731
  535SOL    HW2 1605   0.308   2.017   8.216  0.3212  0.0761  0.4723
  536SOL     OW 1606   3.968   3.699   9.717  0.3672 -0.4050 -1.1709
  536SOL    HW1 1607   3.964   3.736   9.628  1.3307 -0.0470 -1.0814
  536SOL    HW2 1608   3.877   3.679   9.739  0.2503 -1.9900 -2.8469
  537SOL     OW 1609   1.980   2.905   8.437 -0.6028  0.4184 -0.0304
  537SOL    HW1 1610   1.921   2.832   8.421 -0.5227  0.2925  0.2505
  537SOL    HW2 1611   2.066   2.873   8.410 -0.5806  0.4378  0.0179
  538SOL     OW 1612   1.100   0.742   9.593 -0.1435 -0.3034  0.0093
  538SOL    HW1 1613   1.166   0.810   9.604 -0.4655  0.9815 -4.1108
  538SOL    HW2 1614   1.017   0.788   9.596 -0.4055 -0.5396 -2.0299
  539SOL     OW 1615   0.984   0.748   8.417  0.2176  0.5006  0.0655
  539SOL    HW1 1616   1.025   0.663   8.434  0.3247  0.4145 -0.6026
  539SOL    HW2 1617   1.018   0.774   8.332  1.2678  1.8677  0.8614
  540SOL     OW 1618   1.726   2.107   8.326 -0.7819  0.2434  0.3379
  540SOL    HW1 1619   1.651   2.074   8.375 -0.1127 -0.3774  0.9920
  540SOL    HW2 1620   1.691   2.135   8.242 -1.8471  0.6169  0.8937
  541SOL     OW 1621   0.063   0.196   9.170  0.4546 -0.2030  0.1724
  541SOL    HW1 1622   0.039   0.166   9.258 -2.2948 -2.2569 -1.0964
  541SOL    HW2 1623   0.091   0.287   9.182  0.4316 -0.4939  3.1806
  542SOL     OW 1624   3.922   1.210   8.630  0.5171 -0.6552  0.2607
  542SOL    HW1 1625   3.981   1.211   8.706 -0.4631 -0.1521  1.0291
  542SOL    HW2 1626   3.901   1.302   8.615 -1.7480 -0.9264  1.3461
  543SOL     OW 1627   1.701   2.602   9.011  0.0664  0.1447 -0.5689
  543SOL    HW1 1628   1.663   2.630   9.094  0.6943  1.9643 -0.8566
  543SOL    HW2 1629   1.751   2.523   9.034  1.9968  1.7631  1.2792
  544SOL     OW 1630   3.023   4.513   7.914 -0.3712 -0.0710 -0.1326
  544SOL    HW1 1631   3.102   4.468   7.945 -1.4251 -0.2945  2.5544
  544SOL    HW2 1632   3.023   4.596   7.961 -0.7935  0.7496 -1.5500
  545SOL     OW 1633   0.415   0.231   8.951  0.5404  0.0971  0.4093
  545SOL    HW1 1634   0.496   0.251   8.903  0.0521  0.2217 -0.3894
  545SOL    HW2 1635   0.424   0.139   8.977  0.9962  0.1506  0.4518
  546SOL     OW 1636   3.987   2.077   9.181 -0.2416  0.3877  0.6163
  546SOL    HW1 1637   4.021   2.152   9.229  0.0771  0.8674 -0.3298
  546SOL    HW2 1638   4.058   2.013   9.183 -0.5638  0.0345  1.5406
  547SOL     OW 1639   0.164   3.454   9.048  0.3024  0.1489 -0.7188
  547SOL    HW1 1640   0.230   3.500   9.099 -0.1740  0.7249 -0.6014
  547SOL    HW2 1641   0.213   3.405   8.982  0.8637  0.2032 -0.3487
  548SOL     OW 1642   2.939   0.055   8.594 -0.2052 -0.1926 -0.2615
  548SOL    HW1 1643   2.872   0.060   8.662 -0.1495  0.5559 -0.2511
  548SOL    HW2 1644   2.986  -0.027   8.612 -1.4766 -1.0258 -0.6201
  549SOL     OW 1645   3.206   1.979   9.697  0.0726 -0.2565  0.0648
  549SOL    HW1 1646   3.221   2.065   9.737  1.0025 -0.8198  0.9771
  549SOL    HW2 1647   3.281   1.926   9.725 -0.6359 -1.4543 -0.2273
  550SOL     OW 1648   1.647   1.892   8.886  0.3892 -0.1411  0.5006
  550SOL    HW1 1649   1.690   1.918   8.804 -0.7654 -0.3909 -0.2086
  550SOL    HW2 1650   1.560   1.931   8.880 -0.3159 -1.6000  0.8034
  551SOL     OW 1651   0.579   4.896   8.714  0.1728  0.0331 -0.0140
  551SOL    HW1 1652   0.669   4.864   8.709  0.2760  0.4607 -1.0065
  551SOL    HW2 1653   0.584   4.987   8.686 -0.7213 -0.2337 -1.0885
  552SOL     OW 1654   0.549   1.768   8.448 -0.4591 -0.0247 -0.3278
  552SOL    HW1 1655   0.546   1.706   8.521  1.3146 -0.4272 -0.5384
  552SOL    HW2 1656   0.607   1.838   8.478  0.4801 -0.3072 -1.3796
  553SOL     OW 1657   2.190   1.546   8.075 -0.1757  0.0212 -0.1531
  553SOL    HW1 1658   2.130   1.619   8.061  0.7146  0.7074 -0.4900
  553SOL    HW2 1659   2.144   1.470   8.040 -0.1186  0.8451 -2.1476
  554SOL     OW 1660   1.501   1.908   7.903 -0.3475  0.3371 -0.1418
  554SOL    HW1 1661   1.555   1.829   7.892  0.1923  0.8236 -1.1156
  554SOL    HW2 1662   1.545   1.958   7.971 -0.0696  0.3212 -0.3098
  555SOL     OW 1663   4.809   2.358   7.771 -0.1638  0.0772 -0.2586
  555SOL    HW1 1664   4.800   2.444   7.812  1.8584 -0.7383  2.1662
  555SOL    HW2 1665   4.783   2.297   7.840  2.6977 -1.3413 -0.2800
  556SOL     OW 1666   0.608   4.583   9.527  0.4637 -0.6170  0.2889
  556SOL    HW1 1667   0.657   4.628   9.459  0.2267  0.5639  0.8822
  556SOL    HW2 1668   0.634   4.625   9.608  2.6315 -3.5914  1.3399
  557SOL     OW 1669   0.285   0.524   8.221  0.0947  0.3200  0.3547
  557SOL    HW1 1670   0.226   0.490   8.154  0.8031 -1.7190  0.6938
  557SOL    HW2 1671   0.275   0.463   8.294  1.6610  0.6785  0.9038
  558SOL     OW 1672   2.827   2.144   9.328 -0.2158 -0.5702  0.1783
  558SOL    HW1 1673   2.786   2.147   9.414 -0.4287 -0.0113  0.0644
  558SOL    HW2 1674   2.801   2.059   9.292  0.6933 -1.2352  1.0461
  559SOL     OW 1675   0.436   2.522   9.584  0.6655 -0.1718 -0.8801
  559SOL    HW1 1676   0.432   2.515   9.489  0.4194  1.5277 -1.0321
  559SOL    HW2 1677   0.357   2.478   9.615 -0.2200  0.8410 -1.6009
  560SOL     OW 1678   2.704   0.458   9.630  0.2504  0.4722  0.5166
  560SOL    HW1 1679   2.622   0.461   9.581 -0.4007 -1.8494  1.3586
  560SOL    HW2 1680   2.680   0.477   9.720  0.7509  0.3186  0.6844
  561SOL     OW 1681   4.283   1.780   8.166  0.4148 -0.3371  0.1290
  561SOL    HW1 1682   4.258   1.780   8.073  1.4664 -0.5766 -0.1664
  561SOL    HW2 1683   4.236   1.855   8.203  0.0554 -0.1778 -0.6159
  562SOL     OW 1684   2.046   4.199   9.189 -0.2090  0.0336 -0.0620
  562SOL    HW1 1685   2.010   4.180   9.276  0.3982  0.6419  0.3360
  562SOL    HW2 1686   2.141   4.199   9.202  0.0853 -3.2987 -1.4509
  563SOL     OW 1687   3.246   1.629   9.624  0.0826 -0.6055  0.3891
  563SOL    HW1 1688   3.253   1.550   9.570  0.8432  0.6369 -1.4470
  563SOL    HW2 1689   3.335   1.665   9.626 -0.1408 -0.0655  1.6589
  564SOL     OW 1690   0.685   2.521   8.034 -0.5807  0.8430  0.3093
  564SOL    HW1 1691   0.679   2.432   8.069 -0.0311  1.2351  1.4354
  564SOL    HW2 1692   0.660   2.512   7.942 -1.3512 -0.3323  0.6153
  565SOL     OW 1693   4.825   3.819   8.009  0.1549  0.0348  0.2837
  565SOL    HW1 1694   4.911   3.780   8.018  0.0653 -0.2163  0.0560
  565SOL    HW2 1695   4.766   3.761   8.057 -0.2798 -1.1582 -1.5966
  566SOL     OW 1696   1.714   0.779   9.511  0.7200 -0.0728  0.2794
  566SOL    HW1 1697   1.620   0.799   9.508  0.9493  1.3652  1.3714
  566SOL    HW2 1698   1.718   0.685   9.530 -0.5062 -0.1569  0.2040
  567SOL     OW 1699   0.557   1.641   9.380 -0.3977 -0.2369 -0.8683
  567SOL    HW1 1700   0.552   1.671   9.471 -1.1670  1.3139 -1.3910
  567SOL    HW2 1701   0.604   1.711   9.335  0.4193 -1.2222 -1.5952
  568SOL     OW 1702   0.997   1.348   8.764  0.1641  0.5657  0.1620
  568SOL    HW1 1703   0.975   1.256   8.779  1.3331  0.6461  3.0606
  568SOL    HW2 1704   0.918   1.396   8.789 -0.4621  0.4162 -1.3947
  569SOL     OW 1705   1.275   1.641   8.365  0.4697 -0.6439 -0.1102
  569SOL    HW1 1706   1.355   1.655   8.415  1.2340 -2.3274 -0.7949
  569SOL    HW2 1707   1.239   1.559   8.400 -0.3344 -0.5127 -0.6003
  570SOL     OW 1708   4.676   4.901   8.370 -0.0384  0.4240  0.2514
  570SOL    HW1 1709   4.697   4.894   8.277  0.4885 -0.2024  0.4057
  570SOL    HW2 1710   4.630   4.984   8.378 -0.1408  0.4607 -0.5767
  571SOL     OW 1711   0.769   3.002   8.189  0.3982 -0.2621 -0.3056
  571SOL    HW1 1712   0.831   3.074   8.176  0.0562 -0.1842 -1.6352
  571SOL    HW2 1713   0.700   3.040   8.242  0.0027  0.5437 -1.3601
  572SOL     OW 1714   1.116   0.590   5.630 -0.1979 -0.2728 -0.4760
  572SOL    HW1 1715   1.152   0.554   5.712 -2.0561 -1.2794 -0.0484
  572SOL    HW2 1716   1.192   0.598   5.572  1.0067 -0.4573  1.0175
  573SOL     OW 1717   3.029   1.333   6.300 -0.3446  0.0011 -0.9141
  573SOL    HW1 1718   3.077   1.286   6.231 -1.0750  0.4191 -1.7372
  573SOL    HW2 1719   3.009   1.418   6.261 -1.0565  0.1194 -0.3124
  574SOL     OW 1720   1.934   1.432   5.018 -0.6782  0.2807  0.6520
  574SOL    HW1 1721   1.844   1.425   4.986 -1.0343 -1.6365  1.9115
  574SOL    HW2 1722   1.957   1.524   5.005 -3.2644  1.1205  1.4614
  575SOL     OW 1723   3.185   4.699   5.565  0.0844  0.0064 -0.5152
  575SOL    HW1 1724   3.173   4.783   5.520 -0.0251 -1.0278 -2.5333
  575SOL    HW2 1725   3.274   4.673   5.545 -0.1848 -0.7984 -0.6944
  576SOL     OW 1726   4.060   3.751   5.656  0.1093  0.6122 -0.1774
  576SOL    HW1 1727   4.034   3.808   5.728 -0.4839  2.0490 -1.4746
  576SOL    HW2 1728   4.087   3.811   5.586 -0.2400 -0.6930 -1.4889
  577SOL     OW 1729   0.693   1.444   6.245  0.0720 -0.2149 -0.3931
  577SOL    HW1 1730   0.731   1.423   6.331 -1.6959 -0.0010  0.4904
  577SOL    HW2 1731   0.768   1.470   6.192  1.1214  0.5004  1.3328
  578SOL     OW 1732   1.502   0.092   5.716 -0.1701 -0.5287  0.3302
  578SOL    HW1 1733   1.424   0.121   5.670 -0.9656 -0.5182  1.6415
  578SOL    HW2 1734   1.553   0.045   5.649 -0.5528  0.7469 -0.9132
  579SOL     OW 1735   2.616   3.069   5.860  0.4603 -0.5336  0.1934
  579SOL    HW1 1736   2.608   3.033   5.948 -0.4896 -1.1085 -0.1139
  579SOL    HW2 1737   2.553   3.140   5.856  1.7511  0.6718  0.5275
  580SOL     OW 1738   1.716   1.931   6.607  0.2560  0.2685  0.2403
  580SOL    HW1 1739   1.646   1.867   6.594  0.6131 -0.4878  1.8044
  580SOL    HW2 1740   1.673   2.016   6.602 -0.4724 -0.1329 -0.4401
  581SOL     OW 1741   3.408   4.232   6.380  0.0472 -0.0626 -0.5885
  581SOL    HW1 1742   3.467   4.157   6.386 -1.6335 -1.3470  1.3905
  581SOL    HW2 1743   3.352   4.213   6.305 -0.8759 -1.2400  0.3628
  582SOL     OW 1744   1.152   2.077   7.853 -0.4538  0.2993  0.9767
  582SOL    HW1 1745   1.235   2.125   7.845 -0.2831 -0.1968 -0.7141
  582SOL    HW2 1746   1.162   2.026   7.933 -0.0669  1.9710  2.0453
  583SOL     OW 1747   0.732   2.816   5.594  0.1529 -0.4761  0.0328
  583SOL    HW1 1748   0.670   2.854   5.531 -0.5503 -0.8215  0.5005
  583SOL    HW2 1749   0.743   2.725   5.564  2.0426  0.1204 -1.2440
  584SOL     OW 1750   2.040   2.386   5.367 -0.0172  0.4064 -0.2492
  584SOL    HW1 1751   2.129   2.421   5.362 -0.3673  1.6848  1.6207
  584SOL    HW2 1752   1.992   2.432   5.298  0.5676  0.3200 -0.7191
  585SOL     OW 1753   0.759   1.499   5.256 -0.1052 -0.3588 -0.6365
  585SOL    HW1 1754   0.794   1.513   5.168 -1.2008 -2.4779 -1.4956
  585SOL    HW2 1755   0.712   1.580   5.276  1.0915  0.5935 -1.4992
  586SOL     OW 1756   2.920   1.231   5.141 -0.4363  0.3526 -0.6159
  586SOL    HW1 1757   2.844   1.276   5.106 -1.1510 -0.8999 -0.7143
  586SOL    HW2 1758   2.889   1.188   5.220  0.7014  1.5657  0.5547
  587SOL     OW 1759   4.245   1.373   6.320  0.2377 -0.2732  0.1775
  587SOL    HW1 1760   4.268   1.331   6.403  0.2622 -2.7818 -1.0032
  587SOL    HW2 1761   4.329   1.389   6.277  0.2683  1.6893  0.8722
  588SOL     OW 1762   1.493   4.278   9.015  0.2443  0.0438 -0.3499
  588SOL    HW1 1763   1.478   4.371   9.034 -0.9189 -0.7296  3.2563
  588SOL    HW2 1764   1.588   4.270   9.012  0.3599  1.4889 -1.8671
  589SOL     OW 1765   1.687   3.224   5.543 -0.3292 -0.4429  0.0554
  589SOL    HW1 1766   1.688   3.179   5.627  2.1919 -0.1559  0.2719
  589SOL    HW2 1767   1.611   3.282   5.547 -1.2754 -1.7277  1.3894
  590SOL     OW 1768   4.837   2.492   5.256  0.5254 -0.0396 -0.7931
  590SOL    HW1 1769   4.758   2.486   5.309 -1.1617 -1.5861 -3.2981
  590SOL    HW2 1770   4.870   2.402   5.252  2.5947  0.5927  0.3404
  591SOL     OW 1771   0.760   0.163   8.208  0.0666  0.5282  0.3502
  591SOL    HW1 1772   0.835   0.171   8.267 -1.8738 -1.1305  3.3147
  591SOL    HW2 1773   0.693   0.221   8.246 -1.1478 -0.3291 -0.4084
  592SOL     OW 1774   3.038   2.873   5.775  0.2116 -0.5065 -0.0832
  592SOL    HW1 1775   2.980   2.875   5.851  0.8944 -0.6620  0.4585
  592SOL    HW2 1776   2.990   2.919   5.706  0.0743  0.7196  0.7997
  593SOL     OW 1777   4.854   1.741   7.251 -0.7203 -0.3687 -0.0877
  593SOL    HW1 1778   4.842   1.681   7.325  0.7355 -0.7164 -0.0979
  593SOL    HW2 1779   4.882   1.685   7.179 -0.6603  0.1537 -0.4725
  594SOL     OW 1780   0.210   1.015   5.768  0.0829  0.1912 -0.3195
  594SOL    HW1 1781   0.280   0.950   5.772  0.7689  0.9443  2.3680
  594SOL    HW2 1782   0.242   1.082   5.709  1.1844  0.0122  0.0598
  595SOL     OW 1783   1.984   3.266   5.433 -0.1640  0.1570  0.5211
  595SOL    HW1 1784   1.889   3.273   5.444 -0.0631 -0.2145  1.7076
  595SOL    HW2 1785   2.013   3.211   5.505  0.8183 -0.7348 -0.5148
  596SOL     OW 1786   1.657   3.258   6.746 -0.0864  0.4111 -0.0873
  596SOL    HW1 1787   1.575   3.295   6.715 -0.1102  0.7574  0.3747
  596SOL    HW2 1788   1.642   3.242   6.839  0.9289  2.1251  0.4196
  597SOL     OW 1789   3.115   1.661   5.403 -0.0117  0.2982  0.1094
  597SOL    HW1 1790   3.159   1.578   5.422  0.8567  0.1462 -2.2738
  597SOL    HW2 1791   3.052   1.640   5.334 -0.3259  1.4686  0.0200
  598SOL     OW 1792   4.491   2.748   5.062  0.0682  0.0556 -0.0202
  598SOL    HW1 1793   4.424   2.815   5.067  0.0493 -0.0106  0.6003
  598SOL    HW2 1794   4.562   2.789   5.011 -1.2538 -0.5794 -2.5321
  599SOL     OW 1795   1.457   1.455   6.597  0.3181 -0.4967  0.4508
  599SOL    HW1 1796   1.364   1.452   6.620 -0.3352  2.9948 -1.0781
  599SOL    HW2 1797   1.503   1.460   6.681 -0.8302 -1.9522  1.2116
  600SOL     OW 1798   0.553   2.865   5.382 -0.1301  0.0694  0.0746
  600SOL    HW1 1799   0.462   2.837   5.393 -0.4314  1.3382  0.9934
  600SOL    HW2 1800   0.559   2.891   5.290  0.0284 -2.3858 -0.6860
  601SOL     OW 1801   1.978   1.994   6.622  0.1412  0.3355  0.3071
  601SOL    HW1 1802   1.886   1.980   6.601  0.4717  0.7177 -1.5686
  601SOL    HW2 1803   1.996   2.084   6.593  1.5854 -0.4158 -1.3093
  602SOL     OW 1804   1.451   3.390   6.601 -0.7443  0.0615 -0.1359
  602SOL    HW1 1805   1.521   3.435   6.554 -0.8297  0.0264 -0.2974
  602SOL    HW2 1806   1.374   3.399   6.544 -0.7480 -0.3368 -0.1956
  603SOL     OW 1807   4.971   4.231   7.020  0.1445  1.0547  0.6917
  603SOL    HW1 1808   5.031   4.190   7.082 -1.3075 -1.6719  0.4902
  603SOL    HW2 1809   4.887   4.233   7.067 -0.3574  1.5418 -0.2071
  604SOL     OW 1810   2.271   3.141   6.120  0.1096 -0.1125  0.3729
  604SOL    HW1 1811   2.177   3.141   6.103  0.0323 -1.3013  0.6623
  604SOL    HW2 1812   2.289   3.226   6.161 -0.6890  0.4392 -0.3939
  605SOL     OW 1813   2.237   1.659   7.539  0.4972  0.2947 -0.4722
  605SOL    HW1 1814   2.301   1.619   7.598  0.3707  0.8265  0.0335
  605SOL    HW2 1815   2.271   1.642   7.451  0.5014 -0.8241 -0.2650
  606SOL     OW 1816   1.670   3.099   5.770  0.1737  0.1047  0.6783
  606SOL    HW1 1817   1.578   3.083   5.787  0.1203 -1.0832 -0.6051
  606SOL    HW2 1818   1.715   3.072   5.851 -0.4177 -1.3184  0.5436
  607SOL     OW 1819   2.901   2.515   5.386 -0.2286 -0.0768 -0.1471
  607SOL    HW1 1820   2.858   2.467   5.457  1.9077 -1.0875  0.5507
  607SOL    HW2 1821   2.985   2.543   5.423  0.0657  1.1749 -1.6562
  608SOL     OW 1822   2.443   3.971   5.263 -0.3120 -0.1012 -0.1099
  608SOL    HW1 1823   2.494   3.988   5.184  0.9464 -0.1354  0.6833
  608SOL    HW2 1824   2.498   4.000   5.335 -1.8195  0.8204  0.7308
  609SOL     OW 1825   3.139   1.750   6.163  0.7053  0.8363  0.2170
  609SOL    HW1 1826   3.158   1.748   6.256  0.9676 -0.7636  0.1553
  609SOL    HW2 1827   3.149   1.842   6.138 -1.2577  1.6571  2.1131
  610SOL     OW 1828   4.728   2.241   4.847 -0.1496 -0.5030  0.6477
  610SOL    HW1 1829   4.660   2.172   4.846 -0.0445 -0.6512 -1.7172
  610SOL    HW2 1830   4.810   2.193   4.854 -0.1606 -0.4987  0.8070
  611SOL     OW 1831   2.001   3.073   6.096 -0.6001  0.1178 -0.0659
  611SOL    HW1 1832   1.927   3.039   6.046 -0.8217 -1.0511  1.0024
  611SOL    HW2 1833   2.014   3.009   6.166  1.3587  0.3624 -0.1627
  612SOL     OW 1834   0.991   3.187   6.350 -0.2486 -0.5429 -0.1533
  612SOL    HW1 1835   0.978   3.114   6.289  0.8385  0.9537 -2.2818
  612SOL    HW2 1836   0.922   3.176   6.416 -0.4424 -3.1562 -0.6955
  613SOL     OW 1837   1.429   1.816   5.900  0.1708 -0.4711  0.1177
  613SOL    HW1 1838   1.511   1.821   5.950 -0.1621 -3.6678  1.2384
  613SOL    HW2 1839   1.379   1.891   5.929  1.7897  0.2499  1.2026
  614SOL     OW 1840   2.549   3.733   4.945  0.1332  0.1056 -0.1002
  614SOL    HW1 1841   2.464   3.703   4.979 -0.3393 -0.1069 -1.4131
  614SOL    HW2 1842   2.606   3.656   4.952 -0.4010 -0.4073 -1.2083
  615SOL     OW 1843   1.248   0.187   5.656  0.2332 -0.1783 -0.3315
  615SOL    HW1 1844   1.164   0.206   5.614 -0.5274 -2.0783  0.1951
  615SOL    HW2 1845   1.235   0.213   5.747  0.8821  1.2527 -0.6301
  616SOL     OW 1846   4.824   3.346   5.414  0.1697  0.2869  0.4002
  616SOL    HW1 1847   4.743   3.296   5.424 -1.0782  2.3880  1.5285
  616SOL    HW2 1848   4.887   3.300   5.469 -0.2572 -1.3053 -0.3790
  617SOL     OW 1849   0.390   4.566   5.406 -0.1574 -0.1939 -0.9225
  617SOL    HW1 1850   0.429   4.531   5.486 -2.8151 -0.6845  0.2800
  617SOL    HW2 1851   0.464   4.583   5.348  1.8690  0.0819  1.5785
  618SOL     OW 1852   3.823   1.641   7.265 -0.0250  0.3102 -0.2999
  618SOL    HW1 1853   3.829   1.588   7.186 -0.3030 -2.4321  1.3871
  618SOL    HW2 1854   3.903   1.695   7.264  0.7171 -0.7497 -1.7043
  619SOL     OW 1855   2.706   1.547   6.217 -0.1792 -0.3310  0.3098
  619SOL    HW1 1856   2.699   1.640   6.238  0.9844  0.2279 -1.5766
  619SOL    HW2 1857   2.799   1.532   6.203 -0.5065 -1.4170 -0.8993
  620SOL     OW 1858   4.906   1.498   8.690 -0.2654  0.3862  1.2489
  620SOL    HW1 1859   4.835   1.460   8.638 -0.6571  0.9506  1.3710
  620SOL    HW2 1860   4.904   1.591   8.669  2.0563  0.1039 -0.7082
  621SOL     OW 1861   3.134   1.627   5.915  0.1582  0.0979 -0.3871
  621SOL    HW1 1862   3.133   1.678   5.996  1.8407  0.9159 -0.8395
  621SOL    HW2 1863   3.207   1.663   5.864  0.0891 -1.3830 -1.6281
  622SOL     OW 1864   0.644   1.608   5.843 -0.0713 -0.6890  0.4215
  622SOL    HW1 1865   0.589   1.630   5.919 -0.7078  0.0725 -0.2360
  622SOL    HW2 1866   0.694   1.687   5.826 -1.6493 -0.0030 -1.3622
  623SOL     OW 1867   3.310   3.905   5.937  0.1516  0.7947  0.0509
  623SOL    HW1 1868   3.378   3.960   5.898 -0.0649  0.5269 -0.7202
  623SOL    HW2 1869   3.228   3.943   5.906 -0.0271  0.5823  0.2574
  624SOL     OW 1870   4.109   0.536   6.801  0.3769  0.1815  0.4926
  624SOL    HW1 1871   4.181   0.558   6.741  0.1425  1.2213  0.5674
  624SOL    HW2 1872   4.030   0.567   6.755 -0.1575 -1.8464 -0.0406
  625SOL     OW 1873   3.126   3.576   6.231 -0.5737 -0.1792 -0.6493
  625SOL    HW1 1874   3.187   3.505   6.251 -1.0115 -0.3984 -0.0575
  625SOL    HW2 1875   3.154   3.608   6.145  2.8076  2.3056  1.1607
  626SOL     OW 1876   1.885   3.811   6.475 -0.0895  0.1006  0.0594
  626SOL    HW1 1877   1.970   3.850   6.497  0.2128  0.5942 -1.7928
  626SOL    HW2 1878   1.829   3.834   6.549  1.4273 -0.4344  1.4404
  627SOL     OW 1879   1.367   4.478   5.349  0.3411  0.2176  0.4283
  627SOL    HW1 1880   1.289   4.530   5.366 -0.9407 -0.8113 -1.8537
  627SOL    HW2 1881   1.431   4.541   5.316 -0.4345  0.6671 -0.2346
  628SOL     OW 1882   3.674   2.147   7.776 -0.1845 -0.0108 -0.2843
  628SOL    HW1 1883   3.749   2.205   7.766  1.2211 -1.7059 -0.1310
  628SOL    HW2 1884   3.706   2.061   7.749 -1.7813 -0.9905  0.7146
  629SOL     OW 1885   4.037   2.521   7.090  0.3009 -0.3281 -0.0148
  629SOL    HW1 1886   4.044   2.465   7.167 -1.0926  1.1967  1.3093
  629SOL    HW2 1887   4.048   2.610   7.125 -1.3171  0.4589 -1.3911
  630SOL     OW 1888   2.809   4.303   6.187  0.8850  0.0509 -0.9408
  630SOL    HW1 1889   2.868   4.228   6.171 -1.1158 -1.9394  0.3691
  630SOL    HW2 1890   2.738   4.291   6.124 -0.2369 -0.0872  0.3079
  631SOL     OW 1891   1.096   2.061   6.780  0.3135 -0.5277  0.2829
  631SOL    HW1 1892   1.038   2.024   6.714  0.0747  0.1127  0.1346
  631SOL    HW2 1893   1.086   2.155   6.772  1.6833 -0.3920 -0.0088
  632SOL     OW 1894   2.294   2.754   6.251  0.0705 -0.7789 -0.3228
  632SOL    HW1 1895   2.308   2.676   6.305  0.2912  1.2759  2.9259
  632SOL    HW2 1896   2.378   2.800   6.254 -1.1905  1.6594  1.7387
  633SOL     OW 1897   1.425   2.521   5.520 -0.0873  0.3272 -0.7545
  633SOL    HW1 1898   1.442   2.464   5.446 -1.1537 -0.7208 -0.2146
  633SOL    HW2 1899   1.494   2.501   5.583  0.6837  1.0562 -1.3366
  634SOL     OW 1900   2.034   1.313   5.233 -0.2026 -0.4820 -0.2535
  634SOL    HW1 1901   1.977   1.357   5.170 -2.3182  2.9048  3.4913
  634SOL    HW2 1902   1.983   1.238   5.263 -0.2220 -0.7245 -0.8880
  635SOL     OW 1903   4.823   4.012   5.137  0.2727  0.1165 -0.3569
  635SOL    HW1 1904   4.914   4.001   5.164  0.5837 -0.2565 -1.4973
  635SOL    HW2 1905   4.779   3.933   5.167 -0.2107  1.2089  2.1213
  636SOL     OW 1906   0.704   2.397   6.506  0.2253 -0.8676 -0.1363
  636SOL    HW1 1907   0.685   2.334   6.574  2.8081 -0.2518  1.2620
  636SOL    HW2 1908   0.681   2.482   6.545  1.0098 -0.5759 -0.2950
  637SOL     OW 1909   4.189   3.683   5.250  0.1002  0.2602  0.4043
  637SOL    HW1 1910   4.115   3.630   5.281  0.2953  0.7881  1.8403
  637SOL    HW2 1911   4.213   3.736   5.325  1.4475  0.6682 -0.2909
  638SOL     OW 1912   1.033   0.649   5.297 -0.4489 -0.5253 -0.2093
  638SOL    HW1 1913   0.966   0.713   5.274 -0.8386 -0.7234  0.3543
  638SOL    HW2 1914   1.101   0.701   5.341 -0.4613 -0.4030 -0.3324
  639SOL     OW 1915   1.416   2.832   5.543  0.5619  0.0433  0.7135
  639SOL    HW1 1916   1.393   2.746   5.508  0.6794  0.9158 -1.7035
  639SOL    HW2 1917   1.362   2.841   5.621 -1.3213 -1.2458 -0.3493
  640SOL     OW 1918   0.922   1.824   4.963 -0.7678  0.3271  0.4795
  640SOL    HW1 1919   0.995   1.824   5.026 -0.1190 -0.6245 -0.2373
  640SOL    HW2 1920   0.959   1.863   4.884 -0.9275 -0.4418  0.0104
  641SOL     OW 1921   2.071   3.060   5.655  0.7816 -0.1323 -0.2748
  641SOL    HW1 1922   2.057   3.026   5.744 -1.2394  0.7373 -0.2087
  641SOL    HW2 1923   2.043   2.988   5.598  0.2824 -0.0275 -0.1715
  642SOL     OW 1924   1.313   2.151   5.002 -0.0203 -0.1889  0.4649
  642SOL    HW1 1925   1.353   2.070   5.031 -0.5598 -0.2702  0.9937
  642SOL    HW2 1926   1.383   2.217   5.011  1.0227 -0.8861 -1.7217
  643SOL     OW 1927   0.636   3.454   5.442 -0.3756  0.1354  0.3065
  643SOL    HW1 1928   0.685   3.499   5.374  0.0481  0.7389  0.9931
  643SOL    HW2 1929   0.695   3.385   5.473  0.6944  1.7568  2.1277
  644SOL     OW 1930   4.672   4.391   5.606  0.5779 -0.4442  0.4282
  644SOL    HW1 1931   4.621   4.421   5.531 -0.2069  0.5913  1.3535
  644SOL    HW2 1932   4.734   4.461   5.623  0.0599 -0.1948  1.3733
  645SOL     OW 1933   2.169   3.910   5.546 -0.0061 -0.3412  0.0104
  645SOL    HW1 1934   2.086   3.938   5.584  0.3272 -1.6744  1.8389
  645SOL    HW2 1935   2.149   3.899   5.453 -1.6982 -0.0091  0.2895
  646SOL     OW 1936   1.214   3.835   5.814 -0.2777  0.1303  0.0054
  646SOL    HW1 1937   1.266   3.787   5.878 -0.0896 -0.4153 -0.5417
  646SOL    HW2 1938   1.170   3.904   5.864  2.1792  1.6355  0.2569
  647SOL     OW 1939   4.412   4.163   5.466 -0.0825 -0.1398  0.2411
  647SOL    HW1 1940   4.464   4.116   5.531  0.0043 -0.6619 -0.2091
  647SOL    HW2 1941   4.471   4.178   5.393 -0.0695  0.7901  0.4242
  648SOL     OW 1942   3.757   1.384   7.969 -0.5146  0.6984  0.1656
  648SOL    HW1 1943   3.806   1.455   7.929 -0.7114 -0.5054 -2.4101
  648SOL    HW2 1944   3.807   1.305   7.949 -0.0358  0.0509  3.3675
  649SOL     OW 1945   1.899   2.864   5.559  0.4323 -0.0797  0.2229
  649SOL    HW1 1946   1.805   2.881   5.564 -0.2566 -2.6333 -1.9347
  649SOL    HW2 1947   1.913   2.786   5.613  1.0117 -0.5821 -0.6220
  650SOL     OW 1948   2.442   2.760   5.458  0.1576 -0.0822  0.0197
  650SOL    HW1 1949   2.384   2.787   5.530 -0.1522 -0.9073  0.0842
  650SOL    HW2 1950   2.513   2.824   5.460  0.3642 -0.3336  1.3152
  651SOL     OW 1951   0.172   3.935   5.277  0.0040 -0.2646  0.1936
  651SOL    HW1 1952   0.148   3.843   5.274  1.7847 -0.7865  0.9161
  651SOL    HW2 1953   0.213   3.952   5.193  0.7956 -0.4757  0.5296
  652SOL     OW 1954   1.212   0.117   7.210 -0.2970 -0.1017 -0.1629
  652SOL    HW1 1955   1.161   0.044   7.245 -1.8029  0.7924 -0.4223
  652SOL    HW2 1956   1.186   0.192   7.262  1.5433  0.2234  0.3771
  653SOL     OW 1957   3.891   3.453   6.369  0.3098  0.8337  0.1719
  653SOL    HW1 1958   3.813   3.399   6.358  0.9434  0.0654 -0.7740
  653SOL    HW2 1959   3.923   3.432   6.457  0.1619  0.1681  0.0739
  654SOL     OW 1960   4.341   2.151   8.237 -0.7544  0.5484 -0.0239
  654SOL    HW1 1961   4.423   2.200   8.246 -1.4314  1.5744  0.7414
  654SOL    HW2 1962   4.343   2.117   8.148  0.9105 -0.1938  0.2637
  655SOL     OW 1963   3.510   4.959   6.421 -0.0867  0.1604  0.3612
  655SOL    HW1 1964   3.429   4.923   6.383  0.6296 -1.0150 -0.1077
  655SOL    HW2 1965   3.577   4.895   6.399  1.4425  2.1784 -1.2246
  656SOL     OW 1966   0.287   1.412   5.060 -0.4459  0.1161 -0.6479
  656SOL    HW1 1967   0.211   1.426   5.116  0.1226  1.0408 -0.0992
  656SOL    HW2 1968   0.277   1.322   5.029 -0.1769 -0.8468  1.8531
  657SOL     OW 1969   3.850   2.809   4.948  0.0741  0.3254 -0.0537
  657SOL    HW1 1970   3.917   2.761   4.996  0.8063  1.0864 -0.2847
  657SOL    HW2 1971   3.768   2.767   4.972  0.5856 -0.2955  0.6385
  658SOL     OW 1972   2.327   4.283   5.484 -0.1628 -0.0916 -0.5601
  658SOL    HW1 1973   2.404   4.291   5.428 -0.6365 -0.2005 -1.2432
  658SOL    HW2 1974   2.321   4.190   5.503  0.6614  0.0873  0.6402
  659SOL     OW 1975   1.584   1.425   5.469 -0.5781 -0.7137  0.4192
  659SOL    HW1 1976   1.633   1.352   5.509  0.9934 -0.3480 -0.7141
  659SOL    HW2 1977   1.500   1.425   5.514  0.5351 -1.2463  2.6502
  660SOL     OW 1978   3.554   1.271   5.135  0.0650  0.1282 -0.0019
  660SOL    HW1 1979   3.478   1.214   5.126  0.5710 -0.4922 -0.4219
  660SOL    HW2 1980   3.522   1.347   5.185 -0.9798  0.1733 -0.7193
  661SOL     OW 1981   3.998   3.720   5.029  0.3070  0.1692  0.2362
  661SOL    HW1 1982   4.063   3.746   5.094  1.3608 -0.0718 -0.6977
  661SOL    HW2 1983   3.929   3.678   5.081  1.1296 -0.0393  1.2061
  662SOL     OW 1984   2.564   3.329   5.382 -0.5603  0.3450 -0.4366
  662SOL    HW1 1985   2.576   3.289   5.295 -2.5181  0.0987 -0.6349
  662SOL    HW2 1986   2.471   3.350   5.386 -0.2972  1.3445  1.2075
  663SOL     OW 1987   2.599   1.805   6.264 -0.1520 -0.0305  1.2001
  663SOL    HW1 1988   2.672   1.847   6.218  0.8075 -2.6406  0.1717
  663SOL    HW2 1989   2.521   1.832   6.216  0.5943 -0.6489 -0.4303
  664SOL     OW 1990   3.159   1.314   5.186 -0.3967 -0.2753  0.0941
  664SOL    HW1 1991   3.071   1.283   5.166  0.2047 -1.3213 -1.1334
  664SOL    HW2 1992   3.215   1.238   5.170  0.8128  0.6042  0.0100
  665SOL     OW 1993   1.592   2.468   6.849 -0.5882  0.0640 -0.3618
  665SOL    HW1 1994   1.602   2.558   6.818  3.2269 -0.1401 -0.2457
  665SOL    HW2 1995   1.537   2.475   6.927  0.7310  2.5762  0.4643
  666SOL     OW 1996   1.227   3.231   5.195  0.1244  0.0094 -0.3697
  666SOL    HW1 1997   1.278   3.165   5.241  0.1116  0.8074  0.8480
  666SOL    HW2 1998   1.137   3.218   5.225 -0.0605 -0.1219 -0.9717
  667SOL     OW 1999   1.935   2.823   5.279 -0.2164 -0.5970 -0.2315
  667SOL    HW1 2000   1.904   2.897   5.228 -0.0469 -0.3672 -0.0057
  667SOL    HW2 2001   1.889   2.830   5.363  0.7649  0.0068  0.2745
  668SOL     OW 2002   4.624   3.371   5.021 -0.2489  0.3288 -0.2588
  668SOL    HW1 2003   4.719   3.362   5.012 -0.1506  1.4389 -0.5293
  668SOL    HW2 2004   4.607   3.461   4.994 -1.3550  0.2089  0.0212
  669SOL     OW 2005   1.854   2.657   6.586  0.3603 -0.4877  0.5856
  669SOL    HW1 2006   1.931   2.629   6.636  0.6275 -0.1596  0.3612
  669SOL    HW2 2007   1.879   2.642   6.494 -0.2130 -1.3155  0.5489
  670SOL     OW 2008   1.062   0.893   8.198 -0.4166 -0.3137 -0.0577
  670SOL    HW1 2009   1.145   0.891   8.151 -0.3292  1.1971 -0.0301
  670SOL    HW2 2010   1.019   0.973   8.166 -2.1656 -1.4154 -0.5827
  671SOL     OW 2011   0.400   2.804   5.976 -0.1219  0.6624  0.3723
  671SOL    HW1 2012   0.337   2.731   5.973 -1.9271  2.1597  0.1969
  671SOL    HW2 2013   0.409   2.831   5.885  0.6138  0.6172  0.4301
  672SOL     OW 2014   0.520   2.529   5.743  0.3179 -0.0162 -0.1214
  672SOL    HW1 2015   0.561   2.600   5.794  0.4182  0.1316 -0.4063
  672SOL    HW2 2016   0.569   2.451   5.769  0.2183  0.0179  0.1815
  673SOL     OW 2017   1.817   1.599   5.355  0.0026  0.1186 -0.5798
  673SOL    HW1 2018   1.900   1.603   5.403 -1.3015  3.0203  1.7281
  673SOL    HW2 2019   1.771   1.525   5.395  1.1513 -1.1693 -1.5055
  674SOL     OW 2020   2.808   1.385   6.450  0.3325  0.2393  0.2090
  674SOL    HW1 2021   2.894   1.358   6.418  0.9941  0.2822  1.8786
  674SOL    HW2 2022   2.814   1.480   6.458 -0.2481  0.3637 -0.6842
  675SOL     OW 2023   0.447   4.115   5.852  0.1276 -0.1393  0.8602
  675SOL    HW1 2024   0.543   4.117   5.857  0.1292 -0.3351  0.9180
  675SOL    HW2 2025   0.418   4.170   5.924  0.1855 -0.8123  1.4055
  676SOL     OW 2026   4.836   4.164   5.496 -0.7157  0.0537 -0.2675
  676SOL    HW1 2027   4.804   4.255   5.499 -2.3830 -0.4939 -0.2620
  676SOL    HW2 2028   4.762   4.112   5.528 -0.9880 -1.5863 -3.2188
  677SOL     OW 2029   4.250   3.293   6.723 -0.1934 -0.1129  0.2436
  677SOL    HW1 2030   4.257   3.387   6.740  1.0936 -0.1626  0.0962
  677SOL    HW2 2031   4.285   3.282   6.634 -2.0249 -0.5140 -0.4719
  678SOL     OW 2032   1.488   3.347   5.996 -0.0984 -0.0240  0.4178
  678SOL    HW1 2033   1.560   3.301   6.039 -0.6103 -2.4919 -1.2096
  678SOL    HW2 2034   1.521   3.365   5.908 -1.6531 -1.9076 -0.6279
  679SOL     OW 2035   1.132   1.697   8.031  0.3474  0.0698  0.7099
  679SOL    HW1 2036   1.044   1.658   8.030 -0.9430  2.7229  0.5982
  679SOL    HW2 2037   1.190   1.627   8.001 -2.1494 -0.8556 -2.5571
  680SOL     OW 2038   3.688   2.977   5.546 -0.2708  0.3463 -0.7071
  680SOL    HW1 2039   3.609   3.004   5.593 -0.1791  1.9942 -1.4411
  680SOL    HW2 2040   3.740   2.930   5.612 -2.1320 -1.4183 -0.3859
  681SOL     OW 2041   1.630   1.899   6.054  0.4660 -0.1294  0.2539
  681SOL    HW1 2042   1.682   1.895   6.134  0.2723 -0.2448  0.3776
  681SOL    HW2 2043   1.674   1.963   5.999  0.3990  0.2143  0.5988
  682SOL     OW 2044   4.569   2.938   5.413 -0.5566 -0.0682 -0.1156
  682SOL    HW1 2045   4.497   2.937   5.350  0.8081 -0.3276 -1.7522
  682SOL    HW2 2046   4.641   2.893   5.369 -0.0105 -1.7346  2.2786
  683SOL     OW 2047   1.094   4.265   6.891  0.3829 -0.4370 -0.1142
  683SOL    HW1 2048   1.075   4.309   6.974  0.1057 -0.4569 -0.1677
  683SOL    HW2 2049   1.088   4.334   6.826  0.0255 -0.5363 -0.1885
  684SOL     OW 2050   2.181   1.910   6.466 -0.4695 -0.7617 -0.3746
  684SOL    HW1 2051   2.252   1.939   6.524 -0.1297  0.2510 -1.2657
  684SOL    HW2 2052   2.103   1.951   6.502 -0.5445 -1.4730  0.3138
  685SOL     OW 2053  -0.031   3.278   5.621  0.2082 -0.8091 -0.5907
  685SOL    HW1 2054   0.056   3.247   5.596  1.3105  2.5249 -1.3867
  685SOL    HW2 2055  -0.020   3.311   5.710 -0.0949  0.1030 -0.8852
  686SOL     OW 2056   0.403   4.650   4.903  0.2423  0.9236 -0.0159
  686SOL    HW1 2057   0.317   4.610   4.889 -0.1451  1.9641 -0.7083
  686SOL    HW2 2058   0.465   4.578   4.888 -0.4431  0.5103 -1.0045
  687SOL     OW 2059   4.359   3.900   5.287  0.3364  0.4778  0.3587
  687SOL    HW1 2060   4.411   3.977   5.263  0.0608  1.0372  1.4630
  687SOL    HW2 2061   4.420   3.827   5.283  0.5922  0.7261 -0.7608
  688SOL     OW 2062   0.746   1.937   5.250  0.2693  0.2304 -0.1293
  688SOL    HW1 2063   0.709   1.853   5.277  1.6209 -0.7312 -1.1006
  688SOL    HW2 2064   0.767   1.925   5.157  1.8803  1.1029  0.0772
  689SOL     OW 2065   4.761   1.610   6.879  0.3523 -0.1258 -0.2350
  689SOL    HW1 2066   4.837   1.657   6.913  0.8856 -1.2805  0.2335
  689SOL    HW2 2067   4.760   1.629   6.785  1.3875 -0.3312 -0.2913
  690SOL     OW 2068   2.079   1.666   6.663  0.2623 -0.1687  0.3991
  690SOL    HW1 2069   2.045   1.741   6.711 -1.1125 -0.1183 -0.5790
  690SOL    HW2 2070   2.003   1.632   6.615  0.5712 -2.8100  1.5729
  691SOL     OW 2071   0.730   2.552   5.251 -0.3703 -0.0003 -0.9854
  691SOL    HW1 2072   0.640   2.533   5.225 -1.0179  1.0802  0.3180
  691SOL    HW2 2073   0.780   2.476   5.223 -2.1633 -1.9244  0.7154
  692SOL     OW 2074   0.809   1.720   8.703 -0.1263  0.5216 -0.5020
  692SOL    HW1 2075   0.862   1.674   8.768 -0.6767  0.6061  0.0158
  692SOL    HW2 2076   0.725   1.675   8.704 -0.3392  0.9092 -0.7061
  693SOL     OW 2077   1.957   2.220   6.103 -0.0325 -0.0567  0.1278
  693SOL    HW1 2078   1.882   2.273   6.130 -1.2431 -0.5183 -2.0858
  693SOL    HW2 2079   1.994   2.267   6.028  2.5743  0.6703  1.7380
  694SOL     OW 2080   3.246   0.521   5.144  0.7988  0.6883 -0.1267
  694SOL    HW1 2081   3.235   0.430   5.117 -0.9277  0.9929 -0.5947
  694SOL    HW2 2082   3.334   0.525   5.181  1.2698 -0.9436 -0.9695
  695SOL     OW 2083   2.574   2.729   6.022  0.4746 -0.1547  0.1011
  695SOL    HW1 2084   2.490   2.760   5.986  0.8071 -0.2528 -0.7889
  695SOL    HW2 2085   2.575   2.761   6.112  0.4727  1.8105 -0.5422
  696SOL     OW 2086   1.316   3.449   8.002  0.4447  0.1665 -0.5192
  696SOL    HW1 2087   1.259   3.403   7.941 -1.0529  1.0499  0.1589
  696SOL    HW2 2088   1.368   3.380   8.044 -1.0766 -0.8186 -0.2017
  697SOL     OW 2089   4.792   4.195   7.423 -0.0181  0.5835 -0.5673
  697SOL    HW1 2090   4.754   4.189   7.336  0.2422  2.6094 -0.8738
  697SOL    HW2 2091   4.828   4.108   7.440  0.5502  0.3379 -2.7591
  698SOL     OW 2092   1.193   1.363   6.316  0.2943 -0.1358  0.0171
  698SOL    HW1 2093   1.176   1.284   6.265  0.4208 -0.8106  0.9756
  698SOL    HW2 2094   1.194   1.332   6.407  2.6532  0.5622  0.2744
  699SOL     OW 2095   1.971   0.573   5.547  0.0371  0.0872 -0.2483
  699SOL    HW1 2096   1.949   0.494   5.595 -1.9783  0.0550 -1.0978
  699SOL    HW2 2097   1.973   0.546   5.455  2.6686  0.3802 -0.3706
  700SOL     OW 2098   3.145   1.907   5.657  0.5573 -0.5885  0.0837
  700SOL    HW1 2099   3.188   1.855   5.725  0.1344 -0.4715  0.4442
  700SOL    HW2 2100   3.208   1.909   5.585  1.3461 -0.0652  0.7609
  701SOL     OW 2101   0.558   3.766   5.126 -0.6038  0.2387  0.2595
  701SOL    HW1 2102   0.542   3.846   5.075  2.5902 -0.6374 -2.4465
  701SOL    HW2 2103   0.484   3.709   5.104 -0.2140  0.5557 -2.1506
  702SOL     OW 2104   0.912   4.066   6.115 -0.5062 -0.1022  0.0279
  702SOL    HW1 2105   0.934   4.002   6.183  0.5109 -0.1090 -0.2856
  702SOL    HW2 2106   0.938   4.150   6.152 -0.0193 -0.0987 -0.3116
  703SOL     OW 2107   4.679   4.810   5.744 -0.1015 -0.0662  0.5491
  703SOL    HW1 2108   4.681   4.872   5.817  1.0685  0.5211  0.0540
  703SOL    HW2 2109   4.658   4.726   5.784 -3.5975  0.8573  1.0271
  704SOL     OW 2110   0.772   3.021   5.783 -0.1589 -0.2691  0.7796
  704SOL    HW1 2111   0.781   2.944   5.727  0.8151  0.8462 -0.6744
  704SOL    HW2 2112   0.738   2.987   5.865 -2.3205 -1.8876 -0.6785
  705SOL     OW 2113   0.648   2.214   6.709  0.6849 -0.0782  0.3030
  705SOL    HW1 2114   0.654   2.259   6.793  0.0873 -0.3539  0.5038
  705SOL    HW2 2115   0.618   2.126   6.732  0.7127 -0.2163 -0.1852
  706SOL     OW 2116   0.896   2.581   6.395 -0.2988  0.6042  0.0229
  706SOL    HW1 2117   0.844   2.510   6.432 -1.5499  1.2535 -0.4621
  706SOL    HW2 2118   0.912   2.555   6.304 -0.7310  0.9262 -0.1455
  707SOL     OW 2119   0.376   3.506   6.839  0.1732  0.3166  1.2711
  707SOL    HW1 2120   0.425   3.442   6.787  1.0968  1.6084  0.4787
  707SOL    HW2 2121   0.331   3.560   6.775 -1.1991  0.0295  1.9561
  708SOL     OW 2122   1.392   3.978   5.310  0.0553 -0.4860 -0.1874
  708SOL    HW1 2123   1.335   4.041   5.265 -0.1227 -0.0428  0.6434
  708SOL    HW2 2124   1.393   3.901   5.252  0.2713  0.2695 -1.2193
  709SOL     OW 2125   1.317   2.363   6.977 -0.1102 -0.4078  0.1740
  709SOL    HW1 2126   1.249   2.428   6.996 -0.0804 -0.6041  0.9869
  709SOL    HW2 2127   1.377   2.369   7.051  0.5154 -0.5642 -0.3113
  710SOL     OW 2128   3.971   2.295   6.660 -0.2552  0.2379 -0.7826
  710SOL    HW1 2129   3.915   2.364   6.697 -0.2567  0.4948 -1.2575
  710SOL    HW2 2130   4.023   2.264   6.735 -0.9330  0.0904 -0.3703
  711SOL     OW 2131   1.899   3.772   6.093  0.1024  0.1369 -0.1862
  711SOL    HW1 2132   1.856   3.795   6.010  0.2408 -0.1632 -0.3454
  711SOL    HW2 2133   1.991   3.794   6.079 -0.0746  1.2972  0.3500
  712SOL     OW 2134   1.136   3.256   7.364 -0.3282 -0.4398  0.9826
  712SOL    HW1 2135   1.198   3.306   7.417  0.2772  0.2813 -0.3531
  712SOL    HW2 2136   1.057   3.311   7.361 -0.0958 -0.1263  0.5265
  713SOL     OW 2137   2.218   3.207   6.909  0.1838 -0.0521 -0.3254
  713SOL    HW1 2138   2.161   3.133   6.931 -1.7427  1.5126  0.3198
  713SOL    HW2 2139   2.306   3.170   6.906 -0.2986 -1.8671  2.8735
  714SOL     OW 2140   0.483   0.589   5.941  0.0298 -0.2019 -0.3339
  714SOL    HW1 2141   0.469   0.682   5.924  0.8816 -0.3034 -1.7483
  714SOL    HW2 2142   0.536   0.587   6.021 -1.7892  0.4139  0.9432
  715SOL     OW 2143   4.265   2.513   7.386  0.0215 -0.2020 -0.7028
  715SOL    HW1 2144   4.205   2.571   7.338  0.3990 -1.2182 -2.4662
  715SOL    HW2 2145   4.317   2.573   7.439 -0.3984  0.9895 -1.5686
  716SOL     OW 2146   0.834   2.274   6.297  1.6081 -0.3291 -0.0895
  716SOL    HW1 2147   0.786   2.193   6.279  4.3634 -1.9034 -0.9894
  716SOL    HW2 2148   0.798   2.306   6.379 -1.7663 -0.6553 -1.3036
  717SOL     OW 2149   3.846   4.485   5.727 -0.1775  0.8129 -0.4332
  717SOL    HW1 2150   3.912   4.520   5.667  0.2490 -0.1916 -0.5638
  717SOL    HW2 2151   3.769   4.539   5.711  0.6859  2.2303 -0.0482
  718SOL     OW 2152   0.105   3.670   5.379 -0.5552  0.2293 -0.3787
  718SOL    HW1 2153   0.014   3.643   5.388 -0.6089  0.3125 -0.6480
  718SOL    HW2 2154   0.148   3.638   5.458 -0.8177  0.1886 -0.2513
  719SOL     OW 2155   0.955   1.730   5.635  0.0881  0.3340  0.2633
  719SOL    HW1 2156   1.009   1.797   5.677  1.3141 -1.0897  1.0191
  719SOL    HW2 2157   0.869   1.740   5.676  0.1294  1.6766  0.0896
  720SOL     OW 2158   2.547   2.803   6.303 -0.2370 -0.5185 -0.4351
  720SOL    HW1 2159   2.540   2.734   6.369 -0.2097 -0.4823 -0.3947
  720SOL    HW2 2160   2.601   2.870   6.344  1.0964 -1.1623 -1.0348
  721SOL     OW 2161   2.879   1.890   5.564  0.3193  0.1910  0.0606
  721SOL    HW1 2162   2.829   1.833   5.621 -0.6873 -1.8348 -2.6469
  721SOL    HW2 2163   2.969   1.859   5.571 -0.0478 -1.0679 -0.5651
  722SOL     OW 2164   0.834   2.884   5.288 -0.8009  0.2180  0.3431
  722SOL    HW1 2165   0.809   2.960   5.236 -0.7735  0.5647  0.8275
  722SOL    HW2 2166   0.778   2.814   5.256  0.9893 -0.2640 -1.9532
  723SOL     OW 2167   3.130   3.301   5.833 -0.2620  0.0129  0.2379
  723SOL    HW1 2168   3.054   3.243   5.826  0.7913 -1.5086  0.9394
  723SOL    HW2 2169   3.170   3.279   5.917  1.6980 -0.1598 -0.6821
  724SOL     OW 2170   0.557   4.088   4.974 -0.2050 -0.0700 -0.4087
  724SOL    HW1 2171   0.651   4.102   4.967 -0.2592  0.9299  0.6189
  724SOL    HW2 2172   0.519   4.152   4.913 -0.2573  0.3792  0.0919
  725SOL     OW 2173   0.556   3.170   7.589 -0.3721 -0.1844 -0.1934
  725SOL    HW1 2174   0.587   3.082   7.568 -0.9038 -1.3640  3.3225
  725SOL    HW2 2175   0.634   3.215   7.624 -0.5022  0.1560 -0.3322
  726SOL     OW 2176   2.775   0.949   5.814  0.5024 -0.3753  0.0999
  726SOL    HW1 2177   2.733   0.919   5.895  0.4286 -0.2662  0.1023
  726SOL    HW2 2178   2.749   0.885   5.748  0.5946 -0.4875  0.1696
  727SOL     OW 2179   2.372   2.461   6.577  0.0756 -0.2455  0.1885
  727SOL    HW1 2180   2.369   2.452   6.481  3.4621 -0.0673 -0.0691
  727SOL    HW2 2181   2.355   2.372   6.610  1.0297 -0.7861 -0.7135
  728SOL     OW 2182   2.517   4.302   5.203 -0.5801 -0.3914 -0.2070
  728SOL    HW1 2183   2.447   4.244   5.173 -0.6959 -0.1331 -0.4451
  728SOL    HW2 2184   2.505   4.382   5.151 -0.0024 -0.4085 -0.3701
  729SOL     OW 2185   3.812   3.677   5.599 -0.4334 -0.2531 -0.3660
  729SOL    HW1 2186   3.903   3.659   5.620  0.0965  0.6623 -1.8005
  729SOL    HW2 2187   3.766   3.665   5.683  1.0969  0.0080  0.5497
  730SOL     OW 2188   0.516   4.830   5.055  0.1535  0.9588  0.4532
  730SOL    HW1 2189   0.484   4.767   4.991 -0.4386  1.8884 -0.1926
  730SOL    HW2 2190   0.572   4.779   5.114 -0.7863 -0.2716  0.3083
  731SOL     OW 2191   1.306   0.111   7.830  0.2959 -0.2922 -0.3103
  731SOL    HW1 2192   1.287   0.204   7.829  1.3531 -0.0582  0.1274
  731SOL    HW2 2193   1.220   0.069   7.834 -0.1753  0.6655 -0.1302
  732SOL     OW 2194   2.019   4.590   5.702 -0.0967 -0.4460 -1.1140
  732SOL    HW1 2195   2.090   4.588   5.767 -0.2408  0.9125 -0.8914
  732SOL    HW2 2196   2.046   4.525   5.636  0.2695 -1.5338  0.0537
  733SOL     OW 2197   2.602   2.709   5.729 -0.6820  0.4649 -0.1481
  733SOL    HW1 2198   2.628   2.676   5.815  2.3838 -0.6071 -1.3328
  733SOL    HW2 2199   2.506   2.704   5.729 -0.7498 -0.1889  2.8919
  734SOL     OW 2200   2.758   2.763   5.319  0.4583 -0.6123 -0.3885
  734SOL    HW1 2201   2.791   2.673   5.316 -0.2865 -0.9318  0.6126
  734SOL    HW2 2202   2.762   2.788   5.411 -0.6238 -0.1093 -0.4573
  735SOL     OW 2203   4.692   0.683   5.732 -0.2249 -0.1503 -0.4835
  735SOL    HW1 2204   4.651   0.686   5.819 -1.8291  0.3184 -1.2167
  735SOL    HW2 2205   4.707   0.775   5.710 -1.4045 -0.1463 -1.3808
  736SOL     OW 2206   1.726   3.752   5.254 -0.0441  0.2798 -0.4233
  736SOL    HW1 2207   1.694   3.702   5.179  0.4307 -1.0237  0.2116
  736SOL    HW2 2208   1.719   3.692   5.328 -1.0517  1.7300  0.7177
  737SOL     OW 2209   4.849   3.567   8.706 -0.5193 -0.0861 -0.0011
  737SOL    HW1 2210   4.804   3.494   8.663  0.4417 -1.4474  1.2155
  737SOL    HW2 2211   4.904   3.526   8.772  1.8529  1.5414 -0.8186
  738SOL     OW 2212   1.066   2.786   5.489  0.0691  0.0626  0.5284
  738SOL    HW1 2213   1.080   2.702   5.448 -2.0951 -0.0867 -0.0495
  738SOL    HW2 2214   0.978   2.813   5.460 -0.3132  1.3539  2.6267
  739SOL     OW 2215   2.372   3.793   6.496  0.1037  0.5898  0.0919
  739SOL    HW1 2216   2.382   3.735   6.420  0.0677  0.4273  0.2091
  739SOL    HW2 2217   2.457   3.836   6.504  0.6405 -0.5754  0.9073
  740SOL     OW 2218   3.439   3.941   5.512  0.4677  0.4701  0.0945
  740SOL    HW1 2219   3.503   3.940   5.441  1.3351  2.9193  0.7448
  740SOL    HW2 2220   3.355   3.960   5.469  0.7846  0.7271 -0.4141
  741SOL     OW 2221   4.495   3.036   4.821  0.4770  0.0826  0.4192
  741SOL    HW1 2222   4.519   2.943   4.829 -2.7378 -0.8847  0.4050
  741SOL    HW2 2223   4.493   3.051   4.726 -0.9226 -0.5088  0.3154
  742SOL     OW 2224   2.836   3.559   6.021  0.1526 -0.4992  0.0755
  742SOL    HW1 2225   2.846   3.469   6.052 -0.4083 -0.3581  0.6817
  742SOL    HW2 2226   2.924   3.596   6.030 -0.0564 -0.3342  1.9624
  743SOL     OW 2227   1.807   0.490   6.001 -0.1979  0.2758 -0.1118
  743SOL    HW1 2228   1.760   0.428   5.945 -0.0364  0.1865 -0.1505
  743SOL    HW2 2229   1.822   0.442   6.082  1.8129 -0.5156 -0.8902
  744SOL     OW 2230   1.367   2.259   7.499  0.7273  0.2393 -0.0283
  744SOL    HW1 2231   1.361   2.213   7.583  0.8645  0.1424 -0.0695
  744SOL    HW2 2232   1.434   2.325   7.512  3.1853 -1.8731 -0.9874
  745SOL     OW 2233   3.285   3.482   6.777  0.3471  0.2304  0.0597
  745SOL    HW1 2234   3.322   3.564   6.745  1.7544  0.7922  2.7886
  745SOL    HW2 2235   3.271   3.497   6.870 -0.1117 -2.3725  0.4887
  746SOL     OW 2236   0.399   3.411   5.316  0.0163 -0.1072 -0.2863
  746SOL    HW1 2237   0.464   3.343   5.298  1.1050  1.4351 -2.9174
  746SOL    HW2 2238   0.451   3.487   5.341 -1.1066  0.0750  1.6253
  747SOL     OW 2239   1.976   2.597   6.066  0.5595 -0.0636  0.4966
  747SOL    HW1 2240   1.969   2.641   5.982 -0.4839  0.3230  0.7770
  747SOL    HW2 2241   2.054   2.541   6.058 -0.0714 -0.7604 -1.0616
  748SOL     OW 2242   1.472   1.135   6.083 -0.3126 -0.9060  0.1711
  748SOL    HW1 2243   1.483   1.101   6.171  0.4302 -0.1541  0.3764
  748SOL    HW2 2244   1.487   1.060   6.026 -0.8429 -1.4047  0.6735
  749SOL     OW 2245   4.746   3.030   5.889  0.2021 -0.1566 -0.0211
  749SOL    HW1 2246   4.712   3.086   5.818 -2.7240 -0.1230  1.2758
  749SOL    HW2 2247   4.748   2.942   5.851  0.0208  0.0602 -0.5524
  750SOL     OW 2248   1.336   3.550   5.694  0.0782  0.8190 -0.3974
  750SOL    HW1 2249   1.279   3.474   5.685 -0.5851  1.3876 -1.1087
  750SOL    HW2 2250   1.338   3.589   5.607  2.1373  0.4180 -0.5764
  751SOL     OW 2251   1.330   2.837   6.423 -0.5585  0.4249  0.1895
  751SOL    HW1 2252   1.245   2.811   6.388  0.5099 -0.4924 -1.9040
  751SOL    HW2 2253   1.351   2.768   6.486  0.4318 -1.8111 -2.3776
  752SOL     OW 2254   0.770   1.874   7.063  0.4512  0.6020 -0.2338
  752SOL    HW1 2255   0.834   1.942   7.041  1.3563  0.4157  1.6536
  752SOL    HW2 2256   0.823   1.797   7.084 -0.4027  0.2831  0.8449
  753SOL     OW 2257   3.833   2.019   7.230 -0.1599  0.4702 -0.2166
  753SOL    HW1 2258   3.910   1.989   7.278 -0.3079  1.8120  0.9600
  753SOL    HW2 2259   3.866   2.042   7.143  0.2445 -1.3853 -0.5999
  754SOL     OW 2260   0.126   1.021   6.043  0.3463 -0.1005 -0.3112
  754SOL    HW1 2261   0.183   1.015   5.966  0.9895  1.8939 -0.0293
  754SOL    HW2 2262   0.038   1.006   6.009  0.4622  2.0469 -1.7050
  755SOL     OW 2263   1.828   2.880   7.652 -0.3847 -0.0341  0.5887
  755SOL    HW1 2264   1.917   2.888   7.684 -0.2697 -1.4435  0.7123
  755SOL    HW2 2265   1.816   2.786   7.639 -1.0795  0.3100 -1.6552
  756SOL     OW 2266   2.437   2.940   7.133 -0.4860  0.4049  0.1106
  756SOL    HW1 2267   2.433   2.878   7.060  0.7743  0.3744  0.0374
  756SOL    HW2 2268   2.346   2.953   7.158 -0.8621 -0.5300 -0.6712
  757SOL     OW 2269   1.082   2.828   7.297 -0.0039  0.2426  0.3040
  757SOL    HW1 2270   1.040   2.746   7.322  0.6244  0.4774  2.2844
  757SOL    HW2 2271   1.171   2.802   7.271 -0.0080  0.2262  0.3066
  758SOL     OW 2272   1.256   2.116   6.111 -0.0409 -0.4146  0.4457
  758SOL    HW1 2273   1.215   2.152   6.190  0.0059 -0.3004  0.4181
  758SOL    HW2 2274   1.267   2.023   6.130 -0.1102 -0.4037  0.5399
  759SOL     OW 2275   2.702   1.457   5.929  0.4218 -0.5263  0.0511
  759SOL    HW1 2276   2.632   1.439   5.992 -0.1947 -1.7206 -0.9258
  759SOL    HW2 2277   2.705   1.552   5.922 -0.7041 -0.4395  0.5587
  760SOL     OW 2278   2.472   3.541   6.923  0.4966 -0.1556  0.3006
  760SOL    HW1 2279   2.405   3.606   6.945  1.7591  0.9407  1.0848
  760SOL    HW2 2280   2.456   3.521   6.831  0.4379  1.7609 -0.1562
  761SOL     OW 2281   1.369   1.198   5.536 -0.3095  0.2180 -0.7762
  761SOL    HW1 2282   1.381   1.111   5.573 -0.8495 -0.3215 -1.8329
  761SOL    HW2 2283   1.326   1.248   5.606  1.1502  0.0286  0.3020
  762SOL     OW 2284   0.823   3.425   6.284  1.0612  0.0285  0.3834
  762SOL    HW1 2285   0.856   3.355   6.228 -0.9886  0.0713 -0.9446
  762SOL    HW2 2286   0.880   3.500   6.264  0.7513 -0.1306 -1.2057
  763SOL     OW 2287   0.153   3.388   5.144  0.2257  0.4651 -0.6096
  763SOL    HW1 2288   0.215   3.437   5.199  1.2746  2.7874 -3.5708
  763SOL    HW2 2289   0.204   3.316   5.108  0.3666  0.6646 -0.8078
  764SOL     OW 2290   1.596   0.221   6.584 -1.1091 -0.1187 -0.0058
  764SOL    HW1 2291   1.580   0.238   6.677 -1.3766  0.2927 -0.1214
  764SOL    HW2 2292   1.666   0.156   6.582 -1.4706 -0.5248  0.4928
  765SOL     OW 2293   0.199   4.765   5.137  0.2753  0.7916  0.2545
  765SOL    HW1 2294   0.212   4.812   5.219  1.6917 -1.3906  1.3401
  765SOL    HW2 2295   0.286   4.763   5.096  0.6229 -2.0686  0.9599
  766SOL     OW 2296   0.375   1.215   5.406 -0.4232 -0.0005 -0.1462
  766SOL    HW1 2297   0.406   1.169   5.328 -0.2628 -1.9090  0.9854
  766SOL    HW2 2298   0.448   1.211   5.468 -0.1068  2.5465 -0.2680
  767SOL     OW 2299   2.694   4.202   6.629  0.3574 -0.4377 -0.0184
  767SOL    HW1 2300   2.601   4.200   6.654  0.6588 -0.0513  1.2133
  767SOL    HW2 2301   2.703   4.281   6.576  0.0411 -0.3258  0.0942
  768SOL     OW 2302   1.028   4.024   5.869  0.0046 -0.6413  0.0893
  768SOL    HW1 2303   1.038   4.112   5.833  1.1048 -0.1316  1.5353
  768SOL    HW2 2304   0.961   4.034   5.938 -0.7552 -1.2154 -0.5430
  769SOL     OW 2305   0.002   0.299   5.631 -0.6171 -0.0756  0.1122
  769SOL    HW1 2306   0.066   0.251   5.579 -1.1240 -1.7995  1.0211
  769SOL    HW2 2307   0.036   0.299   5.720 -0.8873  0.8321  0.2363
  770SOL     OW 2308   3.924   3.740   6.110  0.1621 -0.6545  0.0002
  770SOL    HW1 2309   3.926   3.724   6.204 -1.3842  0.3035  0.2447
  770SOL    HW2 2310   3.979   3.672   6.072  1.3589 -0.6579  1.6368
  771SOL     OW 2311   3.244   2.196   6.594  0.1591  0.1207  0.0402
  771SOL    HW1 2312   3.181   2.158   6.654 -0.4532 -0.4483 -0.9366
  771SOL    HW2 2313   3.317   2.134   6.593  0.5480  0.5468  0.8107
  772SOL     OW 2314   1.758   4.237   6.212  0.1505  0.5586 -0.2874
  772SOL    HW1 2315   1.753   4.299   6.139  0.4525  0.8063 -0.1023
  772SOL    HW2 2316   1.838   4.187   6.196  0.1441  0.5201 -0.1998
  773SOL     OW 2317   1.475   2.377   7.971 -0.6291 -0.6533  0.0807
  773SOL    HW1 2318   1.422   2.440   8.019 -1.6722 -1.1251 -0.4067
  773SOL    HW2 2319   1.565   2.397   7.996 -0.4882  3.4068 -2.7520
  774SOL     OW 2320   2.043   2.884   6.293  0.1788 -0.7172  0.4023
  774SOL    HW1 2321   2.118   2.829   6.271  0.5983  0.4714 -1.4544
  774SOL    HW2 2322   2.071   2.933   6.370  1.1192 -0.6768  0.0539
  775SOL     OW 2323   3.311   4.154   5.069  0.1473 -0.0441 -0.0914
  775SOL    HW1 2324   3.403   4.175   5.053  0.7994 -0.7924  2.2514
  775SOL    HW2 2325   3.285   4.212   5.140 -0.3674 -1.5942  1.0520
  776SOL     OW 2326   2.955   3.084   6.126  0.1000 -0.7532  0.1987
  776SOL    HW1 2327   2.949   2.999   6.083 -0.2157 -0.3637 -0.5370
  776SOL    HW2 2328   3.027   3.129   6.082  0.5614 -0.7922  0.8817
  777SOL     OW 2329   1.056   2.140   5.099  0.0396  0.1725  0.8640
  777SOL    HW1 2330   1.063   2.053   5.138  0.1997 -0.2300 -0.0563
  777SOL    HW2 2331   1.134   2.149   5.045 -0.6363  0.3516 -0.1005
  778SOL     OW 2332   0.263   3.682   5.121 -0.1622  0.7629 -0.0862
  778SOL    HW1 2333   0.200   3.638   5.177  0.0533  0.8272  0.2060
  778SOL    HW2 2334   0.225   3.677   5.033  0.2564 -0.7450 -0.2011
  779SOL     OW 2335   0.319   3.535   6.281  0.4293 -0.0921  0.0218
  779SOL    HW1 2336   0.362   3.562   6.362  0.0510  1.2915 -0.2273
  779SOL    HW2 2337   0.260   3.464   6.308  0.4244  0.2449  0.9348
  780SOL     OW 2338   1.384   0.941   5.319  0.1679 -0.4540 -0.3516
  780SOL    HW1 2339   1.460   0.978   5.365 -1.5378  1.1855  1.3193
  780SOL    HW2 2340   1.381   0.990   5.237  0.3120  0.2400  0.0441
  781SOL     OW 2341   1.762   2.005   5.559  0.5925 -0.1355  1.0299
  781SOL    HW1 2342   1.747   1.934   5.496  0.9979  0.2375  0.5106
  781SOL    HW2 2343   1.750   1.964   5.644  2.7286 -1.3166  0.8244
  782SOL     OW 2344   4.340   4.548   5.583 -0.0183  0.0677 -0.4702
  782SOL    HW1 2345   4.365   4.638   5.605  1.2407 -0.5596  0.8454
  782SOL    HW2 2346   4.410   4.518   5.525 -0.0364 -0.3031 -0.3001
  783SOL     OW 2347   3.151   2.275   5.801  0.3906  0.2075  0.1797
  783SOL    HW1 2348   3.174   2.247   5.889  0.2021  0.3359  0.2689
  783SOL    HW2 2349   3.096   2.352   5.814 -0.7577 -0.5516 -0.0103
  784SOL     OW 2350   0.532   0.215   6.330  0.4466 -0.1012 -0.3110
  784SOL    HW1 2351   0.608   0.167   6.364 -0.0267  0.3049  1.4101
  784SOL    HW2 2352   0.542   0.303   6.367 -0.5287  0.1393 -0.6087
  785SOL     OW 2353   3.781   1.946   7.623 -0.5323 -0.4845  0.5544
  785SOL    HW1 2354   3.876   1.933   7.628 -0.5538 -0.1855  2.5697
  785SOL    HW2 2355   3.745   1.862   7.652 -0.8729 -0.4589  0.2005
  786SOL     OW 2356   0.302   0.809   9.412 -0.5411  0.2446 -0.4009
  786SOL    HW1 2357   0.274   0.854   9.491 -1.4775 -0.7012 -0.1735
  786SOL    HW2 2358   0.239   0.836   9.345 -1.2408 -0.8432 -0.2125
  787SOL     OW 2359   4.118   2.078   7.437  0.6500 -0.2403  0.1852
  787SOL    HW1 2360   4.177   2.022   7.487 -1.4559 -4.0176 -1.1567
  787SOL    HW2 2361   4.137   2.059   7.346  1.0550  2.7653 -0.4613
  788SOL     OW 2362   4.105   2.997   8.645 -0.0236  0.1122 -0.3978
  788SOL    HW1 2363   4.185   3.002   8.594 -0.9121  2.4314 -1.7175
  788SOL    HW2 2364   4.094   2.904   8.663  1.8369 -0.4805 -1.9879
  789SOL     OW 2365   0.192   4.156   8.570  0.3025 -0.0824 -0.1469
  789SOL    HW1 2366   0.216   4.191   8.484  0.2569  0.9903  0.2616
  789SOL    HW2 2367   0.250   4.080   8.582  0.1037 -0.4235 -1.2397
  790SOL     OW 2368   0.840   1.789   5.897  0.2971  0.1628 -0.6671
  790SOL    HW1 2369   0.914   1.849   5.890  0.5435  0.1332  1.1902
  790SOL    HW2 2370   0.801   1.808   5.982 -0.3431 -1.4982 -0.5421
  791SOL     OW 2371   1.634   0.473   5.132 -0.0582 -0.2047  0.0823
  791SOL    HW1 2372   1.544   0.506   5.133  0.0929  0.2334 -0.2878
  791SOL    HW2 2373   1.676   0.521   5.061  0.7147  0.2446  0.8203
  792SOL     OW 2374   0.880   4.302   7.541  0.0310  0.4408 -0.0115
  792SOL    HW1 2375   0.887   4.334   7.451 -1.5513 -0.1687 -0.3860
  792SOL    HW2 2376   0.905   4.209   7.535 -2.2502 -0.2294 -0.3165
  793SOL     OW 2377   2.080   2.880   8.712  0.4524  0.1915 -0.0695
  793SOL    HW1 2378   2.067   2.798   8.664 -0.2339  0.3755 -0.2205
  793SOL    HW2 2379   2.005   2.884   8.771  0.2384  0.9238 -0.3800
  794SOL     OW 2380   4.714   2.207   7.955 -0.3707  0.5379 -0.2464
  794SOL    HW1 2381   4.690   2.247   8.039 -1.0137  0.6786 -0.4904
  794SOL    HW2 2382   4.713   2.113   7.972  0.3910  0.5852  0.1322
  795SOL     OW 2383   4.782   0.949   9.577 -0.3726 -0.4666  0.0850
  795SOL    HW1 2384   4.838   1.027   9.571  1.0723 -1.3761  1.0216
  795SOL    HW2 2385   4.712   0.974   9.638 -0.9092  0.6207 -0.9392
  796SOL     OW 2386   3.670   3.835   7.420 -0.8138  1.0000 -0.8690
  796SOL    HW1 2387   3.588   3.806   7.460 -1.0113  0.3080 -1.7463
  796SOL    HW2 2388   3.643   3.891   7.348 -0.4352  3.7636  0.9849
  797SOL     OW 2389   1.973   3.209   8.277  0.5405  0.4734  0.7522
  797SOL    HW1 2390   1.947   3.119   8.295 -0.1576  0.0153 -1.9657
  797SOL    HW2 2391   2.068   3.205   8.266  0.5257  0.0709  0.7526
  798SOL     OW 2392   3.574   1.482   9.587  0.4861 -0.4118  0.2544
  798SOL    HW1 2393   3.512   1.417   9.555  0.3438 -0.1644  0.0281
  798SOL    HW2 2394   3.659   1.454   9.550  0.4145 -0.4289  0.1034
  799SOL     OW 2395   1.316   1.803   5.630 -0.5585 -0.3149  1.0158
  799SOL    HW1 2396   1.333   1.879   5.575 -0.7406 -0.7608  0.3242
  799SOL    HW2 2397   1.342   1.830   5.717 -0.0946  0.3535  0.6791
  800SOL     OW 2398   0.753   4.145   7.882 -0.0570  0.6949 -0.2479
  800SOL    HW1 2399   0.713   4.147   7.969  0.1110  1.9612 -0.1790
  800SOL    HW2 2400   0.780   4.054   7.870 -2.4892 -0.1108 -0.1033
  801SOL     OW 2401   1.231   3.375   9.815  0.3477 -0.4610  0.3832
  801SOL    HW1 2402   1.176   3.389   9.739  1.5697 -1.3041 -0.7037
  801SOL    HW2 2403   1.184   3.310   9.868 -1.6367  1.8128  1.6048
  802SOL     OW 2404   3.615   3.617   6.998 -0.2738 -0.5826 -0.5090
  802SOL    HW1 2405   3.670   3.695   7.008 -2.3184  0.8108  0.6487
  802SOL    HW2 2406   3.613   3.577   7.085 -1.2129 -0.4946 -0.4745
  803SOL     OW 2407   0.048   1.775   7.624 -0.4920 -0.6113  0.2047
  803SOL    HW1 2408   0.084   1.837   7.687  0.8291 -1.0412 -0.1037
  803SOL    HW2 2409   0.056   1.819   7.539  1.6942 -1.6553 -0.2012
  804SOL     OW 2410   1.115   4.000   6.854  0.1248 -0.2061  0.1296
  804SOL    HW1 2411   1.118   3.983   6.948  0.2952  0.6376  0.2845
  804SOL    HW2 2412   1.084   4.091   6.847 -2.6039 -1.0926 -0.7046
  805SOL     OW 2413   0.946   2.959   7.078 -0.2538 -0.0975 -0.4494
  805SOL    HW1 2414   0.990   2.924   7.000 -0.6608  0.1178 -0.7786
  805SOL    HW2 2415   1.003   2.934   7.150 -0.1157 -0.7243 -0.7639
  806SOL     OW 2416   0.919   2.735   8.236  0.7741  0.2560 -0.5051
  806SOL    HW1 2417   0.895   2.667   8.173 -0.0966 -0.0600  0.1548
  806SOL    HW2 2418   0.865   2.810   8.212 -0.5254 -0.2773  0.6347
  807SOL     OW 2419   0.256   1.009   7.050  0.0065  0.3740  0.4549
  807SOL    HW1 2420   0.162   1.014   7.035  0.2360  0.0441 -1.3427
  807SOL    HW2 2421   0.265   0.961   7.132 -1.3881  0.8651  0.9212
  808SOL     OW 2422   0.315   3.029   7.327 -0.0659 -0.5720  0.1578
  808SOL    HW1 2423   0.390   3.051   7.272  0.1355 -1.7278 -0.0465
  808SOL    HW2 2424   0.242   3.076   7.287  0.6369  1.1599  0.7788
  809SOL     OW 2425   4.329   1.511   7.851  0.3846 -0.6177 -0.0356
  809SOL    HW1 2426   4.413   1.548   7.823  1.4501 -2.6982  0.2737
  809SOL    HW2 2427   4.275   1.588   7.871  2.6060  0.7867  0.9761
  810SOL     OW 2428   2.037   3.409   7.395  0.6384 -0.3267 -0.5474
  810SOL    HW1 2429   2.039   3.392   7.489 -0.3360  0.2255 -0.4172
  810SOL    HW2 2430   2.006   3.327   7.357  0.3549 -0.3224 -0.3252
  811SOL     OW 2431   1.290   2.583   7.321  0.7596  0.6596  0.4347
  811SOL    HW1 2432   1.274   2.586   7.415  0.7711 -1.2545  0.5208
  811SOL    HW2 2433   1.247   2.504   7.291 -0.3051  1.8698 -1.4197
  812SOL     OW 2434   4.296   1.167   7.476  0.5105 -0.0376  0.5967
  812SOL    HW1 2435   4.276   1.256   7.504  2.3461  0.8907 -0.8198
  812SOL    HW2 2436   4.310   1.119   7.557 -1.8879  0.5508  1.4460
  813SOL     OW 2437   0.326   2.581   6.196 -0.3462  0.5296  0.3063
  813SOL    HW1 2438   0.243   2.562   6.240  0.0874  0.0890  0.9647
  813SOL    HW2 2439   0.367   2.648   6.250 -0.2656  0.7399 -0.0125
  814SOL     OW 2440   1.429   3.830   8.513  0.1386  0.1220  0.3972
  814SOL    HW1 2441   1.387   3.768   8.453  2.2271 -0.8973 -0.1278
  814SOL    HW2 2442   1.504   3.864   8.464 -0.0695  1.9321  1.2450
  815SOL     OW 2443   2.696   2.345   5.879 -0.0506  0.0791  0.3840
  815SOL    HW1 2444   2.725   2.395   5.803  0.4259  0.8579  1.0646
  815SOL    HW2 2445   2.629   2.286   5.845 -0.1511  0.7204 -0.5595
  816SOL     OW 2446   4.407   0.919   8.817  0.4624 -0.1011 -0.0940
  816SOL    HW1 2447   4.363   0.836   8.837 -1.0153  0.3482 -1.3035
  816SOL    HW2 2448   4.425   0.915   8.724  1.6538  0.3758  0.1023
  817SOL     OW 2449   1.862   1.397   7.635  0.7374 -0.6369  0.1821
  817SOL    HW1 2450   1.774   1.435   7.641  0.2296 -1.9477  2.7177
  817SOL    HW2 2451   1.852   1.322   7.576  0.4244 -0.1257 -0.4241
  818SOL     OW 2452   0.533   3.164   8.281 -0.3123  0.1610  0.4747
  818SOL    HW1 2453   0.540   3.250   8.239  0.7438 -0.6465 -1.0873
  818SOL    HW2 2454   0.450   3.128   8.249 -0.0494  0.0126 -0.0571
  819SOL     OW 2455   2.422   4.040   8.284 -0.3153 -0.5328  0.7263
  819SOL    HW1 2456   2.350   4.095   8.254  0.3686 -0.3723 -0.7452
  819SOL    HW2 2457   2.392   4.003   8.367 -2.4906 -1.2089 -0.2746
  820SOL     OW 2458   4.840   4.536   8.561  0.1834  0.1483 -0.0766
  820SOL    HW1 2459   4.776   4.567   8.497  0.9834 -0.2592 -1.1098
  820SOL    HW2 2460   4.816   4.445   8.577 -0.3339  0.3984  0.6296
  821SOL     OW 2461   2.192   3.662   8.566 -0.0631  0.2473 -0.2613
  821SOL    HW1 2462   2.201   3.747   8.523  1.3790  0.1377 -0.2426
  821SOL    HW2 2463   2.271   3.614   8.540  0.0595 -0.4017  1.2016
  822SOL     OW 2464   3.577   2.385   8.707 -0.2327  0.2361 -0.6516
  822SOL    HW1 2465   3.564   2.365   8.615 -0.8411  1.5679 -0.8839
  822SOL    HW2 2466   3.545   2.475   8.717 -2.5233 -0.6760  1.3768
  823SOL     OW 2467   3.115   1.060   7.178 -0.1175  0.3800  0.1453
  823SOL    HW1 2468   3.075   1.066   7.091  1.5326  0.6663 -0.6311
  823SOL    HW2 2469   3.042   1.040   7.236 -1.4037  1.0375 -1.1736
  824SOL     OW 2470   3.729   2.551   5.494  0.3158 -0.1036  0.1289
  824SOL    HW1 2471   3.698   2.479   5.440 -0.7660 -0.1400  0.7683
  824SOL    HW2 2472   3.669   2.553   5.569 -0.2881  2.0396 -0.3275
  825SOL     OW 2473   3.071   3.127   8.103  1.3248 -0.5095  0.3721
  825SOL    HW1 2474   3.146   3.183   8.083 -0.1653  0.9709 -1.4556
  825SOL    HW2 2475   3.033   3.106   8.018 -0.0204 -1.6698  1.2163
  826SOL     OW 2476   4.066   2.723   7.797  0.2190  0.1354  0.1335
  826SOL    HW1 2477   4.117   2.799   7.771  0.5270 -0.5492 -1.3973
  826SOL    HW2 2478   3.975   2.751   7.791  0.3111  0.2483 -0.9884
  827SOL     OW 2479   0.639   2.819   7.948 -0.0621 -0.4568  0.2431
  827SOL    HW1 2480   0.710   2.834   7.885  0.4494 -1.2522  0.6082
  827SOL    HW2 2481   0.660   2.735   7.988 -0.3965  0.0047  1.4503
  828SOL     OW 2482   1.917   2.817   9.067  0.1216  0.1968  0.5171
  828SOL    HW1 2483   1.824   2.811   9.046  0.0097 -1.3905  1.3359
  828SOL    HW2 2484   1.943   2.904   9.036 -2.1644  1.6472  2.3588
  829SOL     OW 2485   1.773   1.423   7.911  0.0506  0.8247  0.5882
  829SOL    HW1 2486   1.761   1.331   7.934  1.5246  0.4778  0.0834
  829SOL    HW2 2487   1.852   1.424   7.856 -0.8566  2.1813 -0.7707
  830SOL     OW 2488   3.719   1.857   8.274 -0.6417  0.4262  0.0128
  830SOL    HW1 2489   3.678   1.846   8.188  0.0532 -1.6267 -0.1131
  830SOL    HW2 2490   3.709   1.771   8.316  1.2477  0.6359  0.9766
  831SOL     OW 2491   0.550   0.510   8.612 -0.0448  0.9172  0.1059
  831SOL    HW1 2492   0.568   0.600   8.586  3.1078  0.5483  0.6683
  831SOL    HW2 2493   0.559   0.510   8.707  1.5156 -0.2324 -0.0000
  832SOL     OW 2494   1.345   2.442   6.325 -0.6000  0.5828 -0.2476
  832SOL    HW1 2495   1.310   2.510   6.384 -1.5380  1.4120 -1.7059
  832SOL    HW2 2496   1.292   2.364   6.345 -0.8459  0.8245  0.0711
  833SOL     OW 2497   1.161   1.893   9.539 -0.7878 -0.0018  0.3273
  833SOL    HW1 2498   1.233   1.856   9.487 -0.3266 -2.0484  2.2534
  833SOL    HW2 2499   1.205   1.945   9.607 -1.3115  1.3541 -0.3379
  834SOL     OW 2500   1.519   2.660   6.627 -0.3566  0.0808  0.5407
  834SOL    HW1 2501   1.544   2.745   6.662 -2.6905  0.5937  1.0809
  834SOL    HW2 2502   1.424   2.655   6.639 -0.2812 -2.6554  0.6410
  835SOL     OW 2503   1.397   0.948   8.170 -0.9057  0.5345 -0.0971
  835SOL    HW1 2504   1.385   0.953   8.075  2.3068  0.9785 -0.5961
  835SOL    HW2 2505   1.428   1.035   8.195 -0.6328  0.1013  1.1444
  836SOL     OW 2506   0.242   3.439   8.453 -1.0324  0.2686 -0.1714
  836SOL    HW1 2507   0.335   3.435   8.475 -0.9097 -0.2935 -0.7655
  836SOL    HW2 2508   0.240   3.438   8.357 -1.5442  2.6573 -0.2614
  837SOL     OW 2509   1.219   0.287   8.437  0.0988  0.0283 -0.4118
  837SOL    HW1 2510   1.236   0.217   8.499 -1.2618 -0.0120 -0.0556
  837SOL    HW2 2511   1.214   0.243   8.352 -0.6648 -0.3093 -0.2001
  838SOL     OW 2512   1.893   3.845   7.958  0.1894  0.6246  0.0223
  838SOL    HW1 2513   1.947   3.924   7.961  0.5572  0.3769 -0.0094
  838SOL    HW2 2514   1.894   3.819   7.866  1.5972 -0.4565  0.3166
  839SOL     OW 2515   1.084   2.111   9.331  0.3008  0.2308  0.1376
  839SOL    HW1 2516   1.042   2.025   9.343  2.6798 -0.9730  0.4387
  839SOL    HW2 2517   1.112   2.136   9.419  1.1093  0.5130 -0.1959
  840SOL     OW 2518   0.392   2.778   6.386 -0.9463 -0.3612  0.4576
  840SOL    HW1 2519   0.418   2.862   6.350 -1.6039 -0.6083 -0.6208
  840SOL    HW2 2520   0.326   2.799   6.453  1.3167  0.2088  2.6696
  841SOL     OW 2521   1.885   0.981   9.522 -0.2759  0.2199  0.0727
  841SOL    HW1 2522   1.811   0.926   9.546 -0.8200  0.9244  0.0637
  841SOL    HW2 2523   1.961   0.940   9.563 -0.6657 -0.5361  0.0423
  842SOL     OW 2524   0.884   3.746   7.656  0.0257 -0.1019  0.7245
  842SOL    HW1 2525   0.833   3.675   7.617  0.3926  0.8273 -1.6536
  842SOL    HW2 2526   0.853   3.824   7.611  0.5433  1.0824  2.3514
  843SOL     OW 2527   1.784   3.083   6.583 -0.2063 -0.4692  0.0703
  843SOL    HW1 2528   1.854   3.139   6.549 -1.2588  0.2155 -1.0628
  843SOL    HW2 2529   1.735   3.140   6.643  0.5136 -1.1160  1.3189
  844SOL     OW 2530   4.953   4.729   7.391 -0.2626  0.4207  0.4751
  844SOL    HW1 2531   5.038   4.690   7.410 -0.3088  0.8645  1.7238
  844SOL    HW2 2532   4.894   4.654   7.381 -0.0978  0.1205  1.5638
  845SOL     OW 2533   0.985   2.907   6.568  0.3309 -0.4126 -0.2365
  845SOL    HW1 2534   0.978   2.983   6.626  2.1941  1.0744 -1.8592
  845SOL    HW2 2535   0.933   2.931   6.492 -0.3832 -1.4772 -0.0997
  846SOL     OW 2536   3.718   3.927   6.146  0.0526  0.0228 -0.3021
  846SOL    HW1 2537   3.797   3.873   6.143  0.8852  1.1951 -0.3204
  846SOL    HW2 2538   3.688   3.932   6.055 -0.3747 -0.8846 -0.2157
  847SOL     OW 2539   1.957   2.101   7.070  0.5177  0.4190 -0.8817
  847SOL    HW1 2540   1.916   2.094   7.156  2.7414  2.3809  0.4492
  847SOL    HW2 2541   1.899   2.160   7.021  1.2297  2.5362  0.6994
  848SOL     OW 2542   0.740   3.108   6.501 -0.1865  0.0404 -0.1138
  848SOL    HW1 2543   0.660   3.160   6.491 -2.4337 -3.2171 -0.4001
  848SOL    HW2 2544   0.728   3.033   6.444  2.4227 -1.4024  1.0392
  849SOL     OW 2545   1.030   1.977   5.772  0.4717 -0.3102  0.2096
  849SOL    HW1 2546   1.117   2.005   5.802  1.0161 -0.1426 -1.4032
  849SOL    HW2 2547   0.969   2.037   5.815  1.0685 -0.8961  1.9370
  850SOL     OW 2548   1.536   1.729   6.539  0.2145 -0.7699  0.2461
  850SOL    HW1 2549   1.535   1.634   6.535 -0.3668 -0.7390 -1.1019
  850SOL    HW2 2550   1.444   1.753   6.548  0.3579 -0.3253  0.5775
  851SOL     OW 2551   2.583   0.559   7.467  0.3892  0.1765  0.1400
  851SOL    HW1 2552   2.677   0.543   7.469  0.4489  0.5778  0.7960
  851SOL    HW2 2553   2.573   0.650   7.495  0.0898  1.5945 -3.9096
  852SOL     OW 2554   0.287   2.737   7.443  0.5030  0.2718  0.4040
  852SOL    HW1 2555   0.313   2.819   7.401  0.3230  0.8751  1.4374
  852SOL    HW2 2556   0.241   2.764   7.523  0.3763 -0.8363  0.7290
  853SOL     OW 2557   2.474   3.358   7.421  0.0546  0.3493 -0.0070
  853SOL    HW1 2558   2.501   3.290   7.359  0.4983 -0.8001  1.4071
  853SOL    HW2 2559   2.416   3.415   7.370  0.1278 -0.7443 -1.3738
  854SOL     OW 2560   4.424   1.929   6.444 -0.1027  0.5594 -0.1033
  854SOL    HW1 2561   4.512   1.962   6.462 -0.1896  0.9535 -0.3850
  854SOL    HW2 2562   4.366   1.985   6.496 -0.3122  1.3586 -1.1607
  855SOL     OW 2563   1.800   1.927   9.121 -0.4656  0.1438  0.2352
  855SOL    HW1 2564   1.743   1.932   9.045  0.9736 -0.0146 -0.8828
  855SOL    HW2 2565   1.811   2.018   9.148  0.0712  0.3204 -0.5555
  856SOL     OW 2566   4.864   3.752   7.272 -0.0665 -0.6494 -0.1292
  856SOL    HW1 2567   4.857   3.770   7.178  0.8723 -1.7960 -0.4479
  856SOL    HW2 2568   4.784   3.704   7.294 -0.3871 -0.1929 -0.2947
  857SOL     OW 2569   0.697   1.443   7.002  0.0279 -0.3143 -0.4881
  857SOL    HW1 2570   0.662   1.501   7.069 -1.1514  0.4778 -1.7549
  857SOL    HW2 2571   0.633   1.446   6.931  1.8128 -0.1818 -2.1699
  858SOL     OW 2572   3.936   2.028   6.962  0.0262 -0.5451  0.1741
  858SOL    HW1 2573   3.917   2.017   6.869 -1.6145  0.1715  0.3969
  858SOL    HW2 2574   3.981   2.112   6.968  0.4958 -0.7775  0.0033
  859SOL     OW 2575   2.161   3.535   7.010  0.5145  0.0622  0.3043
  859SOL    HW1 2576   2.219   3.460   7.024  0.3105 -0.1394  0.0778
  859SOL    HW2 2577   2.077   3.496   6.986  0.4588  0.3677 -0.0074
  860SOL     OW 2578   2.308   2.848   5.987  0.3350 -0.1338  0.0689
  860SOL    HW1 2579   2.285   2.808   6.071 -1.3895 -1.0415 -0.7843
  860SOL    HW2 2580   2.316   2.941   6.007 -4.0444  0.3536  0.6534
  861SOL     OW 2581   1.911   1.255   5.961 -0.3803  0.2113 -0.0868
  861SOL    HW1 2582   1.968   1.298   5.897 -1.1128  0.7694 -0.3854
  861SOL    HW2 2583   1.830   1.306   5.958 -1.4524 -1.4667 -0.7604
  862SOL     OW 2584   2.199   3.093   9.258  0.1022 -0.1257  0.6193
  862SOL    HW1 2585   2.145   3.157   9.213  0.3211 -0.4620 -0.1385
  862SOL    HW2 2586   2.137   3.044   9.312 -0.0363  0.8326  1.3455
  863SOL     OW 2587   3.871   0.402   5.943 -0.0420 -0.1336 -0.3672
  863SOL    HW1 2588   3.870   0.367   5.854  2.5742 -0.3338 -0.4225
  863SOL    HW2 2589   3.847   0.329   5.999  0.8844 -0.7728 -0.7824
  864SOL     OW 2590   4.956   3.053   6.842  0.6154  0.2272  0.0291
  864SOL    HW1 2591   4.980   3.063   6.749  1.6894  0.1358  0.2751
  864SOL    HW2 2592   4.969   3.140   6.879  2.1826 -0.1693  0.5008
  865SOL     OW 2593   0.985   3.877   8.165 -0.2145 -0.3855  0.3844
  865SOL    HW1 2594   1.048   3.805   8.156 -0.5513 -0.4999 -1.3258
  865SOL    HW2 2595   1.037   3.956   8.156 -0.1284 -0.4565  0.2561
  866SOL     OW 2596   2.331   1.679   6.723  0.2849  0.3208  0.1161
  866SOL    HW1 2597   2.239   1.658   6.708  0.6122 -1.7514  0.7226
  866SOL    HW2 2598   2.366   1.699   6.636 -0.3894 -0.4370 -0.3381
  867SOL     OW 2599   4.837   1.069   8.963 -0.1923 -0.2349  0.8368
  867SOL    HW1 2600   4.827   1.020   9.044 -0.9651  0.3594  1.1114
  867SOL    HW2 2601   4.905   1.133   8.982  0.2740 -0.6859  0.7186
  868SOL     OW 2602   0.148   2.923   8.440 -0.2953  0.1328 -0.2791
  868SOL    HW1 2603   0.123   2.875   8.361  1.3690  0.7811 -1.2398
  868SOL    HW2 2604   0.090   2.887   8.508  0.2278 -2.5903 -1.1254
  869SOL     OW 2605   0.605   1.147   6.135  0.0050 -0.1428  0.0313
  869SOL    HW1 2606   0.639   1.234   6.157  0.7504 -0.5235  0.4210
  869SOL    HW2 2607   0.513   1.161   6.116 -0.0916  0.5849  0.9983
  870SOL     OW 2608   2.104   1.813   5.996  0.0967  0.2039  0.0896
  870SOL    HW1 2609   2.028   1.864   5.969 -0.6921 -1.0282 -0.1285
  870SOL    HW2 2610   2.170   1.830   5.929 -0.1306  0.9700  0.0591
  871SOL     OW 2611   0.329   3.225   7.689  0.1129  0.1116  0.0710
  871SOL    HW1 2612   0.407   3.192   7.644  0.3105  2.3478 -1.3420
  871SOL    HW2 2613   0.257   3.172   7.654  0.7756 -1.0027  0.3247
  872SOL     OW 2614   0.492   0.863   7.848 -0.1137  0.3004  0.3329
  872SOL    HW1 2615   0.551   0.814   7.905  1.2189  2.0451  0.5289
  872SOL    HW2 2616   0.424   0.896   7.908 -0.7249 -0.8124  0.2819
  873SOL     OW 2617   1.116   3.689   8.558  0.1864 -0.1856  0.0680
  873SOL    HW1 2618   1.061   3.611   8.548  0.6741 -0.3974 -0.9988
  873SOL    HW2 2619   1.156   3.702   8.472  0.4504  0.9912  0.3565
  874SOL     OW 2620   0.536   2.021   7.376 -0.0296  0.2749  0.1020
  874SOL    HW1 2621   0.443   2.008   7.395 -0.3310  2.0308  0.0179
  874SOL    HW2 2622   0.551   1.977   7.293 -1.0770  0.9524 -0.4627
  875SOL     OW 2623   2.690   3.316   6.410  0.1551  0.0131  0.4711
  875SOL    HW1 2624   2.720   3.387   6.468  1.3009  0.5944 -0.7739
  875SOL    HW2 2625   2.708   3.348   6.322 -0.9503 -1.1218 -0.1912
  876SOL     OW 2626   0.798   1.409   6.499  0.0458 -0.0088  0.1257
  876SOL    HW1 2627   0.852   1.338   6.533 -0.5174  0.0661  1.2289
  876SOL    HW2 2628   0.833   1.488   6.541 -0.9708  0.0251  0.9695
  877SOL     OW 2629   4.601   0.881   7.862  0.3761 -0.2272  0.0716
  877SOL    HW1 2630   4.566   0.860   7.949 -0.4380 -0.8831 -0.3904
  877SOL    HW2 2631   4.694   0.897   7.876  0.3883 -0.9951  0.9619
  878SOL     OW 2632   0.310   1.255   7.267 -0.1358 -0.1466  0.5430
  878SOL    HW1 2633   0.277   1.202   7.194 -0.8474 -0.0540  0.7909
  878SOL    HW2 2634   0.403   1.232   7.273 -0.2632 -0.7941  0.1540
  879SOL     OW 2635   1.498   2.019   8.422  0.1813 -0.3436  0.0730
  879SOL    HW1 2636   1.417   2.009   8.372  0.0615  0.1120  0.1688
  879SOL    HW2 2637   1.501   1.943   8.479 -0.1932 -0.3450  0.0896
  880SOL     OW 2638   1.867   0.289   7.857 -0.2948 -0.6602  0.2807
  880SOL    HW1 2639   1.808   0.264   7.928  0.7331 -0.5939  1.1958
  880SOL    HW2 2640   1.949   0.310   7.902 -0.0471  0.7834 -0.7980
  881SOL     OW 2641   3.712   2.803   8.495 -0.1224  0.3783  0.5331
  881SOL    HW1 2642   3.684   2.810   8.586 -0.2606 -0.5242  0.5671
  881SOL    HW2 2643   3.757   2.719   8.489 -2.3596 -0.8478 -0.7770
  882SOL     OW 2644   0.974   2.639   7.648  0.6865 -0.2904 -0.3705
  882SOL    HW1 2645   0.973   2.593   7.732 -1.9013  0.4522  0.1036
  882SOL    HW2 2646   0.928   2.580   7.589 -0.3797  0.5419 -0.4023
  883SOL     OW 2647   3.816   4.707   8.519 -0.0572  0.0753 -0.0571
  883SOL    HW1 2648   3.826   4.786   8.572 -1.3124 -0.4721  1.0529
  883SOL    HW2 2649   3.843   4.733   8.431 -1.1627  1.9489  0.1104
  884SOL     OW 2650   0.298   2.705   8.979  0.0510 -0.2803  0.2003
  884SOL    HW1 2651   0.206   2.731   8.986 -0.3580 -1.5429 -0.0703
  884SOL    HW2 2652   0.315   2.701   8.885 -0.8190 -3.7307  0.0429
  885SOL     OW 2653   0.690   2.860   6.740 -0.9419 -0.7613  0.4014
  885SOL    HW1 2654   0.770   2.911   6.725 -1.3616  0.2131  1.3133
  885SOL    HW2 2655   0.721   2.772   6.759 -0.1030 -0.4859  0.3399
  886SOL     OW 2656   0.274   4.703   7.788  0.3967 -0.2208 -0.0624
  886SOL    HW1 2657   0.204   4.638   7.776  0.0793  0.2606 -0.8760
  886SOL    HW2 2658   0.303   4.690   7.878 -0.5089 -0.6647  0.1775
  887SOL     OW 2659   0.537   2.665   9.807  0.0379  0.5642 -0.2141
  887SOL    HW1 2660   0.465   2.712   9.850 -0.6963  1.1136 -1.9300
  887SOL    HW2 2661   0.496   2.624   9.731  1.4330  0.4515 -0.9428
  888SOL     OW 2662   0.049   4.686   8.580  0.2280 -0.4260 -0.8391
  888SOL    HW1 2663  -0.024   4.630   8.554  1.1366 -0.8811 -2.5801
  888SOL    HW2 2664   0.012   4.774   8.582 -0.4191 -0.6788 -1.4710
  889SOL     OW 2665   4.444   1.460   8.392  0.2200  0.1646 -0.0497
  889SOL    HW1 2666   4.395   1.378   8.403 -0.7576  0.3804 -2.1459
  889SOL    HW2 2667   4.381   1.520   8.351  0.9057  2.0116  1.4475
  890SOL     OW 2668   1.126   2.221   9.584 -0.2466  0.6680 -0.0527
  890SOL    HW1 2669   1.207   2.171   9.598  0.6292  2.1196  0.3143
  890SOL    HW2 2670   1.058   2.168   9.626  0.9194  0.5914  1.8867
  891SOL     OW 2671   2.368   1.833   8.737  0.2241  0.5648  0.2151
  891SOL    HW1 2672   2.289   1.887   8.748  0.6610  1.0881  0.8605
  891SOL    HW2 2673   2.355   1.788   8.654 -0.9203  0.3778  0.4783
  892SOL     OW 2674   1.317   2.980   8.337 -0.2707  0.1497  0.0227
  892SOL    HW1 2675   1.263   2.907   8.365  2.7618 -2.7792 -1.0575
  892SOL    HW2 2676   1.296   2.991   8.244  0.2259 -0.3056 -0.1488
  893SOL     OW 2677   2.566   4.314   9.786 -0.0971 -0.6939  0.4037
  893SOL    HW1 2678   2.628   4.312   9.713 -1.0566  0.1082 -0.4565
  893SOL    HW2 2679   2.537   4.223   9.794 -1.1735 -0.5523 -1.2983
  894SOL     OW 2680   0.895   1.189   5.857 -0.7968  0.2307 -0.6271
  894SOL    HW1 2681   0.863   1.132   5.927  0.0516  0.9623  0.3841
  894SOL    HW2 2682   0.956   1.134   5.808  0.7992  0.5111  0.9509
  895SOL     OW 2683   0.250   2.933   9.400 -0.0504 -0.6105 -0.2435
  895SOL    HW1 2684   0.325   2.990   9.418  0.5828 -1.0669 -1.3473
  895SOL    HW2 2685   0.174   2.982   9.432  0.7405 -0.2995  1.2239
  896SOL     OW 2686   1.890   1.908   8.427  0.3180  0.0725 -0.2629
  896SOL    HW1 2687   1.834   1.897   8.505 -0.1185  0.1399 -0.5613
  896SOL    HW2 2688   1.848   1.979   8.378 -0.4702 -1.1793 -1.4732
  897SOL     OW 2689   1.251   1.922   8.314 -0.0562  0.1005 -0.0982
  897SOL    HW1 2690   1.261   1.830   8.340 -0.5069  0.7218  2.5300
  897SOL    HW2 2691   1.235   1.918   8.220 -0.7422 -2.5803  0.0443
  898SOL     OW 2692   4.204   2.961   7.698  0.0113 -0.0730 -0.4352
  898SOL    HW1 2693   4.291   3.000   7.692 -0.1865  0.1727 -2.2636
  898SOL    HW2 2694   4.144   3.032   7.675 -0.7189 -0.1871  0.9738
  899SOL     OW 2695   4.991   3.869   7.738 -0.0809 -0.4234 -0.3259
  899SOL    HW1 2696   4.924   3.847   7.802 -0.0485 -1.2351 -0.5673
  899SOL    HW2 2697   5.072   3.876   7.789  0.2926 -2.8216 -0.4863
  900SOL     OW 2698   3.206   3.202   6.073 -0.3394  0.7797 -0.1500
  900SOL    HW1 2699   3.262   3.268   6.113  1.3201  0.5854 -2.0232
  900SOL    HW2 2700   3.250   3.119   6.088 -1.7077  0.2072  0.9708
  901SOL     OW 2701   1.500   2.426   7.213 -0.3910  0.2804 -0.3307
  901SOL    HW1 2702   1.451   2.462   7.288 -0.0914 -1.0230  0.5294
  901SOL    HW2 2703   1.586   2.404   7.249 -0.5386 -1.2199 -0.8054
  902SOL     OW 2704   0.849   3.202   5.981  0.3946  0.0943 -0.0450
  902SOL    HW1 2705   0.843   3.167   5.892 -1.9384  0.8569 -0.2631
  902SOL    HW2 2706   0.882   3.291   5.970  0.9781 -0.1127 -0.0302
  903SOL     OW 2707   1.547   2.297   8.790 -0.1589  0.3537  0.4452
  903SOL    HW1 2708   1.581   2.346   8.865  1.7159 -1.4631  0.8611
  903SOL    HW2 2709   1.621   2.288   8.731 -1.6910  2.0776 -1.9138
  904SOL     OW 2710   3.824   1.470   8.268 -0.3888  0.4351 -0.8709
  904SOL    HW1 2711   3.868   1.555   8.263 -0.3606  0.4408 -0.5453
  904SOL    HW2 2712   3.775   1.463   8.185  0.1342  0.4739 -1.1843
  905SOL     OW 2713   2.417   2.707   8.252 -0.6471 -0.0321  0.4283
  905SOL    HW1 2714   2.448   2.635   8.196  0.3146  1.3038 -0.8593
  905SOL    HW2 2715   2.484   2.775   8.241 -2.6625  1.9447 -0.2447
  906SOL     OW 2716   4.236   4.390   9.120  0.3638 -0.2201 -0.7380
  906SOL    HW1 2717   4.253   4.303   9.085  1.0384 -0.2752 -0.2841
  906SOL    HW2 2718   4.310   4.443   9.091  0.5781 -0.0970  0.0230
  907SOL     OW 2719   0.852   3.218   7.575  0.7404  0.2214 -0.1078
  907SOL    HW1 2720   0.878   3.206   7.666  0.4317  0.9575  0.0864
  907SOL    HW2 2721   0.851   3.130   7.538 -0.4622 -0.2336  0.9614
  908SOL     OW 2722   4.707   3.200   5.680 -0.0881  0.2538  0.2384
  908SOL    HW1 2723   4.796   3.237   5.685  1.0220 -1.9768 -1.1793
  908SOL    HW2 2724   4.653   3.273   5.650  2.1608  0.6545 -3.5359
  909SOL     OW 2725   0.300   2.125   8.811 -0.2590  0.2912 -0.4537
  909SOL    HW1 2726   0.351   2.074   8.874 -0.0897  0.1024 -0.7435
  909SOL    HW2 2727   0.292   2.069   8.734 -1.0327  0.2613 -0.3590
  910SOL     OW 2728   1.234   0.242   9.567 -0.2623  0.3578  0.2112
  910SOL    HW1 2729   1.229   0.337   9.560 -0.0513  0.4449  1.0592
  910SOL    HW2 2730   1.314   0.226   9.618 -0.3276 -0.2686  0.1258
  911SOL     OW 2731   1.967   3.310   6.261 -0.0367 -0.0386  0.4251
  911SOL    HW1 2732   1.972   3.293   6.355 -0.6881 -0.8605  0.3188
  911SOL    HW2 2733   1.917   3.237   6.226 -1.7069  1.3550 -0.2537
  912SOL     OW 2734   4.989   3.947   6.475 -0.0000  0.2573  0.0916
  912SOL    HW1 2735   4.986   3.857   6.441  1.5349  0.1204  0.2667
  912SOL    HW2 2736   5.022   3.999   6.402 -3.1711  1.1670 -0.8598
  913SOL     OW 2737   0.465   2.925   5.709  0.1550 -0.4360 -0.9646
  913SOL    HW1 2738   0.437   2.943   5.620 -0.1234  2.4794 -0.3771
  913SOL    HW2 2739   0.559   2.910   5.703  0.0739 -0.6578 -1.7588
  914SOL     OW 2740   0.915   4.969   8.774  0.3015 -0.1491 -0.0175
  914SOL    HW1 2741   0.902   4.919   8.693 -0.2278  0.2127 -0.1652
  914SOL    HW2 2742   0.890   4.909   8.844  0.4740 -0.3654 -0.1391
  915SOL     OW 2743   4.399   2.585   9.080 -0.5295 -0.4615 -0.8895
  915SOL    HW1 2744   4.354   2.567   8.997  0.6194  2.7910 -2.3684
  915SOL    HW2 2745   4.346   2.653   9.121 -0.3257 -1.0661  0.4270
  916SOL     OW 2746   4.640   3.380   7.967 -0.3539 -0.0892 -0.0202
  916SOL    HW1 2747   4.640   3.464   7.921  1.8300  0.2070  0.3964
  916SOL    HW2 2748   4.688   3.322   7.908 -0.3963 -0.5928  0.4377
  917SOL     OW 2749   0.330   4.473   8.644 -0.0795 -0.4594 -0.0825
  917SOL    HW1 2750   0.238   4.471   8.616 -0.9418 -0.8375  2.5601
  917SOL    HW2 2751   0.360   4.561   8.622 -1.5302  0.1674  0.3651
  918SOL     OW 2752   0.599   2.189   8.170  0.4369  0.2561  0.3859
  918SOL    HW1 2753   0.565   2.137   8.097  1.5407 -1.3946  0.9950
  918SOL    HW2 2754   0.547   2.161   8.245  0.3615  0.8068  0.5427
  919SOL     OW 2755   0.010   2.660   6.265  0.4244  0.2578  0.1263
  919SOL    HW1 2756   0.004   2.707   6.181 -0.5981 -0.4308 -0.1999
  919SOL    HW2 2757   0.033   2.571   6.240 -1.3166 -0.3198  0.4318
  920SOL     OW 2758   1.541   3.458   7.329 -0.1164 -0.0473 -0.3606
  920SOL    HW1 2759   1.573   3.368   7.316 -0.5910 -0.1096 -1.2011
  920SOL    HW2 2760   1.447   3.452   7.309 -1.0858 -0.2007  3.4637
  921SOL     OW 2761   0.816   2.386   7.536  0.7258 -0.1749 -0.3382
  921SOL    HW1 2762   0.764   2.323   7.486 -0.3127 -0.0865  0.5914
  921SOL    HW2 2763   0.874   2.333   7.590  0.3412 -0.3282 -0.0709
  922SOL     OW 2764   3.178   2.499   7.299  0.2626  0.3642  0.2817
  922SOL    HW1 2765   3.142   2.414   7.325  2.0175 -0.8201 -0.9078
  922SOL    HW2 2766   3.120   2.529   7.229  0.1881 -0.3395  0.0396
  923SOL     OW 2767   4.326   2.059   7.968 -0.3194 -0.4327 -0.2848
  923SOL    HW1 2768   4.326   2.135   7.910 -0.3839  0.0011  0.2683
  923SOL    HW2 2769   4.370   1.990   7.919  0.6284  0.2591 -0.4238
  924SOL     OW 2770   4.008   2.107   8.739 -0.3259  0.7950  0.9862
  924SOL    HW1 2771   4.083   2.158   8.770  0.4493  1.1013 -1.1794
  924SOL    HW2 2772   3.932   2.162   8.756  0.2130  1.5217  1.0898
  925SOL     OW 2773   3.010   4.851   9.555 -0.0835 -0.5766 -0.5400
  925SOL    HW1 2774   3.104   4.838   9.567 -0.0249  0.1290 -0.1784
  925SOL    HW2 2775   3.003   4.917   9.486 -0.2923  0.0644  0.0920
  926SOL     OW 2776   1.011   0.992   6.370 -0.0158 -0.1308 -0.1453
  926SOL    HW1 2777   1.084   0.944   6.332  0.1577 -0.6613  0.8506
  926SOL    HW2 2778   0.945   0.993   6.300  1.1617  0.9345 -1.3066
  927SOL     OW 2779   0.724   1.154   7.031 -0.2057 -0.1776 -0.3900
  927SOL    HW1 2780   0.815   1.141   7.057 -0.8792 -0.5117  2.0612
  927SOL    HW2 2781   0.708   1.247   7.045 -0.1500 -0.0389 -1.2060
  928SOL     OW 2782   1.690   3.267   7.757 -0.9516  0.2816 -0.4385
  928SOL    HW1 2783   1.642   3.350   7.756  0.3393  1.1017  0.8756
  928SOL    HW2 2784   1.782   3.293   7.764 -0.4167 -1.2630 -1.1931
  929SOL     OW 2785   0.827   0.664   8.879  0.5519 -0.0990 -0.1031
  929SOL    HW1 2786   0.827   0.730   8.810  1.4793  1.9399  1.7356
  929SOL    HW2 2787   0.909   0.616   8.866  1.7160  1.5665  0.6470
  930SOL     OW 2788   0.741   3.885   8.264 -0.0301  0.2316  0.3837
  930SOL    HW1 2789   0.835   3.879   8.247 -0.2519 -1.2997 -0.4683
  930SOL    HW2 2790   0.734   3.890   8.360  0.9284  1.1378  0.4231
  931SOL     OW 2791   0.533   3.072   6.850 -0.1766  0.2939 -0.0114
  931SOL    HW1 2792   0.619   3.030   6.842 -0.4351 -0.3569  0.5522
  931SOL    HW2 2793   0.522   3.088   6.944 -1.0424 -0.4298  0.0216
  932SOL     OW 2794   0.469   4.158   7.220  0.2334 -0.2289 -0.8832
  932SOL    HW1 2795   0.480   4.218   7.294 -1.1505  0.0754 -0.8922
  932SOL    HW2 2796   0.525   4.083   7.241 -1.0598 -0.7161  1.1102
  933SOL     OW 2797   4.035   3.814   9.463  0.9937 -0.5707  0.5319
  933SOL    HW1 2798   4.087   3.894   9.462  1.0627 -0.6187  0.3150
  933SOL    HW2 2799   3.945   3.844   9.451  1.1810 -0.6499 -1.3095
  934SOL     OW 2800   2.510   2.541   5.284  0.3869 -0.0010  0.6552
  934SOL    HW1 2801   2.597   2.539   5.244 -0.3074  1.8873 -1.1005
  934SOL    HW2 2802   2.516   2.607   5.352  0.2918  0.1971  0.4699
  935SOL     OW 2803   2.586   2.916   8.207 -0.1026  0.0800 -0.0561
  935SOL    HW1 2804   2.667   2.880   8.170  0.5721  2.1961 -0.7752
  935SOL    HW2 2805   2.575   3.000   8.162 -2.0998  0.3453  0.8540
  936SOL     OW 2806   4.049   3.013   7.323  0.2884 -0.2518 -0.6532
  936SOL    HW1 2807   3.970   3.016   7.378  0.5547  1.6964 -0.3232
  936SOL    HW2 2808   4.117   3.051   7.378  0.8815  0.4311 -1.8433
  937SOL     OW 2809   4.335   2.763   7.523  0.4536  0.4243 -0.2136
  937SOL    HW1 2810   4.241   2.775   7.517  0.1676 -1.5615 -0.4243
  937SOL    HW2 2811   4.372   2.842   7.485 -1.1362  0.6177 -1.4457
  938SOL     OW 2812   1.120   2.553   7.080  0.3670  0.5326  0.5648
  938SOL    HW1 2813   1.071   2.565   7.161 -0.6873  1.2946 -0.1469
  938SOL    HW2 2814   1.128   2.642   7.044  0.5143  0.1720 -0.3167
  939SOL     OW 2815   1.630   1.767   5.503 -0.0689  0.0635  0.4890
  939SOL    HW1 2816   1.643   1.718   5.422 -1.0118  0.1257  0.2833
  939SOL    HW2 2817   1.604   1.700   5.567 -2.8178  0.4064 -0.1522
  940SOL     OW 2818   1.639   4.146   8.253 -0.1345 -0.0703  0.5093
  940SOL    HW1 2819   1.606   4.128   8.165 -0.2776  1.1741  0.2929
  940SOL    HW2 2820   1.655   4.059   8.291 -0.7152 -0.6295 -0.4917
  941SOL     OW 2821   0.117   3.466   7.883 -0.0999  0.0709  0.3505
  941SOL    HW1 2822   0.031   3.436   7.853  0.0152 -0.1717  0.2593
  941SOL    HW2 2823   0.166   3.478   7.802  0.2412 -0.6687  0.4366
  942SOL     OW 2824   1.381   2.233   8.255  0.1612 -0.2719 -0.4311
  942SOL    HW1 2825   1.457   2.189   8.293 -0.7442 -0.6492  1.0200
  942SOL    HW2 2826   1.395   2.325   8.274  0.3875 -0.3102 -0.4086
  943SOL     OW 2827   0.573   3.766   8.088 -0.4063 -0.3846 -0.1007
  943SOL    HW1 2828   0.619   3.814   8.157 -0.4700  0.9392 -0.9448
  943SOL    HW2 2829   0.505   3.826   8.058 -1.7330 -1.7316  0.0700
  944SOL     OW 2830   0.123   2.213   6.545 -0.9147 -0.1039  0.4689
  944SOL    HW1 2831   0.213   2.236   6.526 -1.9454  2.9828 -1.5074
  944SOL    HW2 2832   0.120   2.118   6.543  1.9426 -0.2364 -1.0536
  945SOL     OW 2833   1.685   1.311   8.881 -0.2935 -0.4136 -0.1586
  945SOL    HW1 2834   1.627   1.355   8.943  1.8971  1.6522  0.5816
  945SOL    HW2 2835   1.707   1.228   8.924 -0.1276  0.2474  1.0763
  946SOL     OW 2836   1.270   2.800   5.776 -0.1895 -0.1850  0.1727
  946SOL    HW1 2837   1.298   2.728   5.833 -1.4306 -1.1918 -0.4479
  946SOL    HW2 2838   1.175   2.793   5.773 -0.5215  2.5890  1.4912
  947SOL     OW 2839   0.839   0.965   6.142 -0.3900  0.1359  0.1708
  947SOL    HW1 2840   0.876   0.896   6.087  0.3650 -0.4474  1.3763
  947SOL    HW2 2841   0.784   1.016   6.082 -1.6670 -1.9913 -0.5970
  948SOL     OW 2842   0.270   3.465   6.028  0.0664  0.5646  0.2046
  948SOL    HW1 2843   0.317   3.521   5.966  0.4233 -1.6875 -1.7216
  948SOL    HW2 2844   0.295   3.498   6.114  0.5793  3.0427 -0.8145
  949SOL     OW 2845   1.299   2.902   6.098 -0.3032 -0.2692  0.0318
  949SOL    HW1 2846   1.370   2.957   6.131 -0.7006 -0.6886  1.6702
  949SOL    HW2 2847   1.223   2.928   6.151 -0.1297 -3.5405  2.1492
  950SOL     OW 2848   1.674   3.499   6.472  0.1758 -0.6497  0.4098
  950SOL    HW1 2849   1.746   3.477   6.530  2.1492 -2.2104 -2.3797
  950SOL    HW2 2850   1.715   3.509   6.386 -2.8363 -0.7534 -1.1731
  951SOL     OW 2851   0.858   1.727   8.429  0.5527  0.3589  0.1047
  951SOL    HW1 2852   0.805   1.663   8.381  1.3911 -1.2338  1.2071
  951SOL    HW2 2853   0.833   1.715   8.520  0.9353  1.4467  0.3739
  952SOL     OW 2854   5.027   2.998  10.204 -0.1464  0.1973 -0.5282
  952SOL    HW1 2855   4.961   2.959  10.262  0.4243  0.1919  0.1243
  952SOL    HW2 2856   5.001   2.969  10.116 -0.7850 -0.1293 -0.2404
  953SOL     OW 2857   4.857   0.828   7.271  0.3011 -0.4690  0.0352
  953SOL    HW1 2858   4.846   0.764   7.342 -0.6706 -0.1775  0.1633
  953SOL    HW2 2859   4.939   0.872   7.291  1.3690 -2.1354 -0.4390
  954SOL     OW 2860   0.056   3.132   7.798  0.0135 -0.2588  0.4576
  954SOL    HW1 2861   0.146   3.129   7.830 -0.2906  0.3849  1.4197
  954SOL    HW2 2862   0.026   3.220   7.820 -0.9846 -0.5958  0.4921
  955SOL     OW 2863   0.884   1.575   6.076  0.0221 -0.6231  0.1290
  955SOL    HW1 2864   0.876   1.667   6.050  1.9054 -0.2766  0.6009
  955SOL    HW2 2865   0.946   1.537   6.013  2.0437 -0.6027  1.9749
  956SOL     OW 2866   4.930   3.755   6.129 -0.4401  0.4635 -0.4768
  956SOL    HW1 2867   4.852   3.701   6.115  0.8261 -0.9802 -2.5176
  956SOL    HW2 2868   4.968   3.724   6.211 -0.1652 -1.2732 -1.2183
  957SOL     OW 2869   3.256   3.387   7.542 -0.3299 -0.4223 -0.2023
  957SOL    HW1 2870   3.172   3.363   7.582  0.2925 -0.5131  1.0864
  957SOL    HW2 2871   3.271   3.318   7.477 -0.9994 -0.7055 -0.0736
  958SOL     OW 2872   4.538   1.336   6.115  0.2873 -0.1245  0.4379
  958SOL    HW1 2873   4.517   1.252   6.076  2.0249 -0.6650  0.5758
  958SOL    HW2 2874   4.550   1.396   6.041  0.0393 -0.2487  0.2985
  959SOL     OW 2875   4.118   1.455   8.411 -0.1823  0.1849 -0.3249
  959SOL    HW1 2876   4.134   1.544   8.440  0.7135  0.5559 -1.8419
  959SOL    HW2 2877   4.027   1.455   8.382 -0.1353  0.6472 -0.4693
  960SOL     OW 2878   4.654   2.327   7.025 -0.1787 -0.2226 -0.0396
  960SOL    HW1 2879   4.636   2.233   7.025  0.0482 -0.3597  2.8673
  960SOL    HW2 2880   4.714   2.341   6.952 -1.0837 -2.1166 -1.2083
  961SOL     OW 2881   1.079   1.483   5.689 -0.0523 -0.2870 -0.2355
  961SOL    HW1 2882   1.062   1.439   5.772  1.4285 -0.9768 -0.2616
  961SOL    HW2 2883   1.007   1.546   5.679 -0.5849 -0.6345  1.2486
  962SOL     OW 2884   2.117   2.831   8.136 -0.0656 -0.6455  0.5093
  962SOL    HW1 2885   2.030   2.839   8.097  1.0161  2.6651 -1.5925
  962SOL    HW2 2886   2.147   2.744   8.110 -2.3729 -1.5566  0.6556
  963SOL     OW 2887   0.445   4.959   8.974  0.1426  0.0234 -0.3142
  963SOL    HW1 2888   0.498   4.900   8.920  1.6038  1.6470 -0.7534
  963SOL    HW2 2889   0.356   4.946   8.943  0.6861 -0.5630 -1.7250
  964SOL     OW 2890   1.441   3.535   8.480  0.3044  0.0522 -0.5691
  964SOL    HW1 2891   1.491   3.574   8.553  0.1086  0.1454 -0.4836
  964SOL    HW2 2892   1.420   3.447   8.510 -2.2227  0.9972  0.6955
  965SOL     OW 2893   0.178   0.643   9.648  0.0213  0.6356 -0.5202
  965SOL    HW1 2894   0.142   0.693   9.721  0.2408 -0.3373  0.2870
  965SOL    HW2 2895   0.113   0.574   9.633  0.5046  0.1727 -0.5036
  966SOL     OW 2896   1.584   2.652   8.230  0.2321  0.1783 -0.1700
  966SOL    HW1 2897   1.597   2.558   8.245 -0.8811 -0.1677 -1.2411
  966SOL    HW2 2898   1.496   2.670   8.263  0.3727  0.8086 -0.1267
  967SOL     OW 2899   0.755   0.408   8.446 -0.1041  0.1220  0.1595
  967SOL    HW1 2900   0.707   0.446   8.519 -0.5908  1.1045 -0.6455
  967SOL    HW2 2901   0.687   0.367   8.392  0.1014  0.4604 -0.3620
  968SOL     OW 2902   1.101   3.379   8.488  0.5510  0.0397  0.3364
  968SOL    HW1 2903   1.189   3.388   8.452  0.7258 -0.4613  0.6323
  968SOL    HW2 2904   1.108   3.307   8.550  0.3786  1.1487  1.7053
  969SOL     OW 2905   1.054   2.519   7.895  0.0638 -0.0794 -0.1129
  969SOL    HW1 2906   1.148   2.502   7.891 -0.0565 -0.6180 -0.7391
  969SOL    HW2 2907   1.026   2.483   7.979  0.3175 -0.4149 -0.1735
  970SOL     OW 2908   2.765   3.437   8.026  0.5087  0.4615 -0.1943
  970SOL    HW1 2909   2.769   3.426   8.121  1.1636  0.3014 -0.2306
  970SOL    HW2 2910   2.815   3.363   7.992 -1.5089 -0.7153 -0.7592
  971SOL     OW 2911   0.747   2.493   7.204  0.5339 -0.1249  0.1189
  971SOL    HW1 2912   0.766   2.442   7.125  0.6196  0.8723 -0.5166
  971SOL    HW2 2913   0.651   2.490   7.211  0.6082 -1.7494  1.0410
  972SOL     OW 2914   0.962   2.050   7.032  0.7070  0.1496  0.3308
  972SOL    HW1 2915   1.014   2.034   6.953  0.6086 -2.3150  0.6851
  972SOL    HW2 2916   1.024   2.083   7.096  0.7005  2.7024 -0.8383
  973SOL     OW 2917   1.475   3.657   8.961  0.2649 -0.1254 -0.3576
  973SOL    HW1 2918   1.450   3.634   9.051  0.5253 -0.1985 -0.3036
  973SOL    HW2 2919   1.400   3.629   8.908  2.1116 -5.1595 -0.8822
  974SOL     OW 2920   1.164   4.663   9.294  0.2779  0.4460 -0.4946
  974SOL    HW1 2921   1.132   4.599   9.357  3.1768 -1.3904 -0.6772
  974SOL    HW2 2922   1.182   4.742   9.345  0.0702 -0.1165  0.4659
  975SOL     OW 2923   0.844   3.886   7.893  0.7365  0.4086  0.9040
  975SOL    HW1 2924   0.876   3.844   7.973 -0.3504 -0.3673  0.9582
  975SOL    HW2 2925   0.890   3.841   7.822 -0.6796 -1.2117  0.9390
  976SOL     OW 2926   0.252   2.372   8.738  0.3302  0.4491 -0.1828
  976SOL    HW1 2927   0.265   2.281   8.764 -0.1275  0.6365  0.7224
  976SOL    HW2 2928   0.324   2.390   8.677  0.0510 -0.7129 -0.8907
  977SOL     OW 2929   4.509   3.423   6.104 -0.0514 -0.1696  0.3607
  977SOL    HW1 2930   4.518   3.452   6.013  0.6749  1.9250  1.0407
  977SOL    HW2 2931   4.552   3.337   6.106  1.1435  0.3477 -0.9942
  978SOL     OW 2932   0.909   2.611   6.897  0.0591  0.1275 -0.3473
  978SOL    HW1 2933   0.963   2.617   6.818  0.2626  0.3435 -0.1956
  978SOL    HW2 2934   0.961   2.556   6.957  0.0456  0.2181 -0.2529
  979SOL     OW 2935   1.402   3.203   7.656 -0.2009  0.1708  0.1141
  979SOL    HW1 2936   1.346   3.139   7.701  0.3615 -1.1854 -1.0503
  979SOL    HW2 2937   1.491   3.170   7.669  0.0194  0.1158 -1.4293
  980SOL     OW 2938   0.023   3.055   9.016  0.1310 -0.3431  0.1682
  980SOL    HW1 2939   0.076   3.085   8.942 -0.8247  0.0241 -0.3767
  980SOL    HW2 2940   0.039   3.121   9.084 -2.4702  1.9230 -1.2352
  981SOL     OW 2941   1.302   2.788   8.088 -0.1305 -1.0009  0.1474
  981SOL    HW1 2942   1.388   2.827   8.103 -1.2424  1.2444  1.2827
  981SOL    HW2 2943   1.249   2.817   8.163 -1.6369 -3.1176  0.0007
  982SOL     OW 2944   1.646   2.928   8.696  0.0044 -0.4082  0.0054
  982SOL    HW1 2945   1.588   2.982   8.643 -1.0928 -0.8979  0.6603
  982SOL    HW2 2946   1.615   2.838   8.681  0.6054 -0.6761  0.3473
  983SOL     OW 2947   4.626   2.828   7.799 -0.3496 -0.1601  0.0945
  983SOL    HW1 2948   4.542   2.788   7.820 -1.6129  2.2633 -0.0244
  983SOL    HW2 2949   4.641   2.808   7.707  0.1372 -2.0978  0.5484
  984SOL     OW 2950   4.247   1.221   8.413 -0.4064  0.3815  0.0950
  984SOL    HW1 2951   4.177   1.157   8.402 -1.0058  1.1583 -0.7861
  984SOL    HW2 2952   4.201   1.305   8.418  0.4040  0.8044  0.6187
  985SOL     OW 2953   3.010   3.312   8.860  0.2825  0.3848 -0.1984
  985SOL    HW1 2954   3.040   3.299   8.769  1.2119 -1.1043  0.2709
  985SOL    HW2 2955   3.031   3.229   8.903 -2.9318 -0.1196  0.6683
  986SOL     OW 2956   3.697   1.735   5.525 -0.2714 -0.2155  0.1939
  986SOL    HW1 2957   3.772   1.770   5.476 -2.1106 -0.7873 -3.4451
  986SOL    HW2 2958   3.655   1.812   5.564  2.2039  0.0807  2.5168
  987SOL     OW 2959   0.518   3.646   7.007  0.4479 -0.3491  0.1331
  987SOL    HW1 2960   0.449   3.653   6.940  1.5245  1.7500 -0.8440
  987SOL    HW2 2961   0.565   3.565   6.984  0.3721 -0.0300 -1.2622
  988SOL     OW 2962   1.607   3.019   7.796  1.1834 -0.5953 -0.0376
  988SOL    HW1 2963   1.647   3.105   7.793  0.2283 -0.0290  1.6762
  988SOL    HW2 2964   1.646   2.970   7.723  1.4317  1.3969 -1.2993
  989SOL     OW 2965   1.711   1.026   8.659 -0.3727 -0.2035 -0.6586
  989SOL    HW1 2966   1.640   0.968   8.631 -0.5853  0.3472 -1.2732
  989SOL    HW2 2967   1.686   1.112   8.626  1.0917 -0.1846 -1.8152
  990SOL     OW 2968   1.224   3.318   6.431 -0.0203  0.1020 -0.0791
  990SOL    HW1 2969   1.129   3.305   6.422 -0.3240  1.0444  1.4148
  990SOL    HW2 2970   1.246   3.381   6.362 -0.8852  1.4352  0.8109
  991SOL     OW 2971   0.478   3.309   6.345  0.1757 -0.2953 -0.4831
  991SOL    HW1 2972   0.501   3.368   6.416  1.6763  0.3331 -1.4313
  991SOL    HW2 2973   0.463   3.367   6.270 -0.2897 -0.9993 -0.9415
  992SOL     OW 2974   2.424   1.021   6.477 -0.2048 -0.1813 -0.4951
  992SOL    HW1 2975   2.347   1.075   6.461 -2.0992 -1.6210  2.7626
  992SOL    HW2 2976   2.493   1.084   6.498 -1.4331  1.0955 -0.0820
  993SOL     OW 2977   4.319   2.423   8.623 -0.6297  0.0291  0.3760
  993SOL    HW1 2978   4.395   2.402   8.568 -0.3866 -0.6979  0.9738
  993SOL    HW2 2979   4.243   2.397   8.570 -0.4458  0.2609 -0.0086
  994SOL     OW 2980   1.328   1.901   7.639 -1.1116 -0.0474 -0.5402
  994SOL    HW1 2981   1.272   1.827   7.664 -0.3481 -0.7058 -0.7257
  994SOL    HW2 2982   1.333   1.954   7.718  1.2935 -2.1205  0.8756
  995SOL     OW 2983   4.431   3.793   5.649  0.0336  0.0824 -0.5928
  995SOL    HW1 2984   4.368   3.849   5.602  0.2446 -0.0140 -0.9941
  995SOL    HW2 2985   4.377   3.742   5.709 -0.3007 -0.1522 -1.0871
  996SOL     OW 2986   1.330   3.158   6.821  0.0701  0.3147 -0.4275
  996SOL    HW1 2987   1.423   3.143   6.835  0.2199  0.4109 -1.2788
  996SOL    HW2 2988   1.314   3.132   6.730 -0.9402 -0.6576  0.0072
  997SOL     OW 2989   2.674   0.820   9.628  0.0103  0.4280 -0.0256
  997SOL    HW1 2990   2.746   0.787   9.681 -0.8016 -0.2291  0.7078
  997SOL    HW2 2991   2.697   0.797   9.538  0.3102 -0.5449  0.2892
  998SOL     OW 2992   3.184   0.568   9.707 -0.0555 -0.2144 -0.8054
  998SOL    HW1 2993   3.105   0.611   9.676 -1.8106 -2.0458  0.8350
  998SOL    HW2 2994   3.242   0.566   9.631 -3.0533 -2.1407 -3.2918
  999SOL     OW 2995   4.944   1.538   7.774 -0.1148 -0.4064  0.2487
  999SOL    HW1 2996   4.894   1.579   7.844  0.0913 -0.4293  0.4099
  999SOL    HW2 2997   4.964   1.609   7.713  0.7497 -0.1481  0.8224
 1000SOL     OW 2998   2.165   0.560   9.571  0.5216 -0.4246 -0.4767
 1000SOL    HW1 2999   2.210   0.569   9.655 -0.1176  0.0823 -0.1765
 1000SOL    HW2 3000   2.219   0.611   9.510 -0.2153  1.1563  0.1187
 1001SOL     OW 3001   4.111   4.514   9.793  0.3888 -0.1348  0.1360
 1001SOL    HW1 3002   4.205   4.523   9.778  0.6561  1.1738  2.1349
 1001SOL    HW2 3003   4.070   4.559   9.719  1.4581  2.4177  0.9617
 1002SOL     OW 3004   2.126   2.337   8.320  0.3237  0.2781  0.3324
 1002SOL    HW1 3005   2.075   2.269   8.364  0.7658  0.0736  0.5350
 1002SOL    HW2 3006   2.104   2.418   8.366  0.1449  0.1992  0.3845
 1003SOL     OW 3007   3.816   1.931   9.433 -0.8520  0.4010  0.1256
 1003SOL    HW1 3008   3.732   1.917   9.476 -0.5690  0.7839  0.8243
 1003SOL    HW2 3009   3.793   1.970   9.348 -1.4587 -1.1437 -0.4558
 1004SOL     OW 3010   3.931   4.707   8.269 -0.0234  0.2011  0.2920
 1004SOL    HW1 3011   4.014   4.675   8.303  0.3621 -0.2369 -1.0063
 1004SOL    HW2 3012   3.954   4.789   8.224 -0.4917  0.6691  0.8826
 1005SOL     OW 3013   1.858   3.180   8.026  0.1145 -0.3282  0.2914
 1005SOL    HW1 3014   1.870   3.261   7.977 -0.5366 -1.1635 -1.3235
 1005SOL    HW2 3015   1.874   3.204   8.117 -2.5893  2.2585  0.2365
 1006SOL     OW 3016   0.536   4.772   9.863  0.6931 -0.0082 -0.3000
 1006SOL    HW1 3017   0.542   4.778   9.958  0.5862 -0.4354 -0.2608
 1006SOL    HW2 3018   0.617   4.728   9.837 -1.1983 -4.2514  0.0688
 1007SOL     OW 3019   1.020   1.661   8.860  0.1784  0.8790 -0.0046
 1007SOL    HW1 3020   1.006   1.567   8.878  2.3303  0.5726  0.2529
 1007SOL    HW2 3021   1.003   1.704   8.944  2.8744  0.2543  0.9502
 1008SOL     OW 3022   0.154   4.206   9.262  0.5886 -0.2321  0.1289
 1008SOL    HW1 3023   0.060   4.222   9.262  0.1984 -1.9634  2.9175
 1008SOL    HW2 3024   0.163   4.112   9.249  1.8388 -0.2820  1.0990
 1009SOL     OW 3025   0.154   3.630   9.510  0.5424 -0.3981  0.0281
 1009SOL    HW1 3026   0.063   3.600   9.510  0.3837 -0.0530  1.9180
 1009SOL    HW2 3027   0.174   3.645   9.418 -1.4683 -0.0036 -0.3999
 1010SOL     OW 3028   3.667   1.231  10.039 -0.2144 -0.1766  0.3407
 1010SOL    HW1 3029   3.728   1.258  10.108  0.8747 -0.1286 -0.6094
 1010SOL    HW2 3030   3.689   1.287   9.965  0.0616 -1.6249 -0.7047
 1011SOL     OW 3031   0.886   3.144   8.669  0.3998 -0.1782 -0.3189
 1011SOL    HW1 3032   0.823   3.135   8.741 -0.3763 -1.7188 -1.1424
 1011SOL    HW2 3033   0.836   3.122   8.590  1.6077 -0.0318 -1.1567
 1012SOL     OW 3034   2.256   0.788   8.801 -0.3571 -0.2726 -0.5046
 1012SOL    HW1 3035   2.220   0.699   8.797  1.0238 -0.9191  0.5454
 1012SOL    HW2 3036   2.223   0.823   8.884 -0.2588 -0.1111 -0.5347
 1013SOL     OW 3037   3.909   4.141  10.141  0.1176 -0.3703 -0.2264
 1013SOL    HW1 3038   3.878   4.200  10.209  0.7473 -1.7573  1.3461
 1013SOL    HW2 3039   3.967   4.195  10.087  0.0378  0.6491  0.6673
 1014SOL     OW 3040   3.592   3.107   9.404 -0.3423  0.2734  0.2165
 1014SOL    HW1 3041   3.635   3.148   9.329  2.3260 -0.8378  1.0203
 1014SOL    HW2 3042   3.501   3.136   9.398  0.1605  1.6455 -2.4143
 1015SOL     OW 3043   1.174   3.283   8.985  0.2253 -0.1264  0.3388
 1015SOL    HW1 3044   1.109   3.345   8.950 -0.6666 -0.2532  1.6850
 1015SOL    HW2 3045   1.200   3.231   8.909 -1.9625 -0.6754 -0.1348
 1016SOL     OW 3046   0.703   2.481   8.901  0.0656 -0.3476  0.4213
 1016SOL    HW1 3047   0.769   2.540   8.865 -0.3413  0.7226  1.3558
 1016SOL    HW2 3048   0.625   2.497   8.848  0.4315 -1.3277 -0.4332
 1017SOL     OW 3049   1.603   3.621   8.715 -0.7876 -0.4589 -0.0450
 1017SOL    HW1 3050   1.619   3.714   8.703 -0.2177 -0.7208 -1.6846
 1017SOL    HW2 3051   1.540   3.615   8.786 -0.5381  1.1437  0.3382
 1018SOL     OW 3052   1.372   1.779   8.760  0.1184  0.1729 -0.4458
 1018SOL    HW1 3053   1.380   1.874   8.770 -0.4676  0.1103  0.7964
 1018SOL    HW2 3054   1.279   1.761   8.769  0.3617 -0.6417  0.6397
 1019SOL     OW 3055   4.053   2.712   8.468  0.4459 -0.0994  0.1955
 1019SOL    HW1 3056   4.079   2.726   8.559  1.6461 -1.9134  0.1747
 1019SOL    HW2 3057   3.971   2.662   8.474 -0.8320  1.8703  0.2307
 1020SOL     OW 3058   1.486   3.635   7.563  0.1352 -0.0403 -0.4853
 1020SOL    HW1 3059   1.510   3.569   7.497 -0.2815 -1.0208  0.3213
 1020SOL    HW2 3060   1.525   3.603   7.644 -2.0191 -0.5504  0.4144
 1021SOL     OW 3061   0.646   1.157   9.410  0.2700 -0.0000 -0.0812
 1021SOL    HW1 3062   0.608   1.212   9.479  0.4487  0.5124 -0.3787
 1021SOL    HW2 3063   0.593   1.078   9.409  0.8962 -0.4527  1.3367
 1022SOL     OW 3064   0.514   0.938   8.152 -0.2735 -0.4528 -0.1781
 1022SOL    HW1 3065   0.518   0.844   8.132  1.2451 -0.6720  0.9960
 1022SOL    HW2 3066   0.595   0.973   8.116 -1.0978  0.5539 -1.1256
 1023SOL     OW 3067   1.355   3.112   9.384  0.6759  0.5272  0.2971
 1023SOL    HW1 3068   1.303   3.074   9.314  0.3549  0.6451  0.4695
 1023SOL    HW2 3069   1.325   3.068   9.464  0.9775  0.4563  0.3747
 1024SOL     OW 3070   1.842   1.295   9.225  0.1105  0.2171  0.4924
 1024SOL    HW1 3071   1.760   1.344   9.220  0.4394  0.7902  0.5591
 1024SOL    HW2 3072   1.828   1.219   9.169 -0.5875  0.1231  0.7863
 1025SOL     OW 3073   1.234   2.119   9.080 -0.5023  0.4391  0.1270
 1025SOL    HW1 3074   1.153   2.080   9.116  0.3954 -1.1126  0.5853
 1025SOL    HW2 3075   1.238   2.206   9.119 -0.4992 -0.5312  2.4662
 1026SOL     OW 3076   2.801   4.172  10.082  0.3129  0.1629  0.0363
 1026SOL    HW1 3077   2.867   4.180  10.013  0.6430 -2.7522 -0.1008
 1026SOL    HW2 3078   2.851   4.161  10.162  0.0073 -0.9208  0.0921
 1027SOL     OW 3079   1.238   2.624   7.583  0.3462  0.1720  0.1503
 1027SOL    HW1 3080   1.282   2.607   7.666  0.1300 -0.7205  0.0938
 1027SOL    HW2 3081   1.148   2.648   7.607  0.7414  1.6420  0.2474
 1028SOL     OW 3082   1.146   2.769   8.383 -0.6144  0.3810 -0.0474
 1028SOL    HW1 3083   1.126   2.766   8.477  0.0171 -1.1490  0.0663
 1028SOL    HW2 3084   1.060   2.775   8.341 -1.0028 -0.4017  0.6011
 1029SOL     OW 3085   0.935   2.935   9.972  0.0848 -0.3672  0.0863
 1029SOL    HW1 3086   0.906   2.855  10.015  0.0883 -1.3473 -1.6619
 1029SOL    HW2 3087   0.880   2.943   9.894  1.9802 -0.2601 -1.3117
 1030SOL     OW 3088   2.887   2.780   9.777  0.1436 -0.1552 -0.5265
 1030SOL    HW1 3089   2.966   2.733   9.749  0.4323  0.3236 -0.5278
 1030SOL    HW2 3090   2.828   2.776   9.702  0.4277  0.0473 -0.7636
 1031SOL     OW 3091   1.727   3.571   6.939  0.1873 -0.8301  0.2505
 1031SOL    HW1 3092   1.708   3.526   7.022  0.9900  0.6043  1.2609
 1031SOL    HW2 3093   1.641   3.584   6.899 -0.5535  0.8561  2.1958
 1032SOL     OW 3094   1.486   0.184   9.655 -0.4595 -0.2985 -0.2157
 1032SOL    HW1 3095   1.560   0.239   9.682 -0.1728 -0.5538 -0.4886
 1032SOL    HW2 3096   1.506   0.159   9.565 -0.4559 -1.0863  0.0018
 1033SOL     OW 3097   4.944   2.162   8.736 -0.0750 -0.5131 -0.4903
 1033SOL    HW1 3098   4.862   2.114   8.728 -0.7048  0.4848 -0.2877
 1033SOL    HW2 3099   4.950   2.183   8.829 -0.2490  0.4986 -0.6884
 1034SOL     OW 3100   0.029   2.803   8.968 -0.3443  0.2703  0.1879
 1034SOL    HW1 3101   0.049   2.896   8.958 -0.0207  0.0335 -1.7784
 1034SOL    HW2 3102  -0.057   2.792   8.927 -0.3899 -0.2877  0.4213
 1035SOL     OW 3103   0.749   3.920   8.547  0.6997  0.2451  0.0955
 1035SOL    HW1 3104   0.830   3.966   8.568  0.3275  0.8213  0.3147
 1035SOL    HW2 3105   0.681   3.988   8.554  0.2287 -0.1835 -0.2798
 1036SOL     OW 3106   0.760   2.466   9.799 -0.4422  0.3587  0.2439
 1036SOL    HW1 3107   0.699   2.424   9.739  0.0780  0.0063 -0.0557
 1036SOL    HW2 3108   0.717   2.547   9.825  0.6023  2.1677 -3.1086
 1037SOL     OW 3109   0.097   3.483   9.983 -0.4549 -0.2336  0.1366
 1037SOL    HW1 3110   0.166   3.528   9.935 -0.6079  0.6659  0.7237
 1037SOL    HW2 3111   0.083   3.538  10.061 -3.8033  1.2823 -1.3297
 1038SOL     OW 3112   3.649   3.880  10.331 -0.2617  0.2802  0.7775
 1038SOL    HW1 3113   3.608   3.957  10.291 -0.3202  0.1719  0.6295
 1038SOL    HW2 3114   3.580   3.842  10.385 -0.9048 -0.8642 -0.7706
 1039SOL     OW 3115   0.369   0.127   9.676  0.7543  0.0983  0.9374
 1039SOL    HW1 3116   0.448   0.168   9.643  0.4825 -0.0800  0.0521
 1039SOL    HW2 3117   0.323   0.197   9.723  0.2902  0.8258 -0.5701
 1040SOL     OW 3118   4.738   1.863   9.780 -0.1016 -0.2923 -0.4338
 1040SOL    HW1 3119   4.648   1.876   9.752 -0.6729  0.2220  1.4723
 1040SOL    HW2 3120   4.789   1.922   9.724 -1.2186  0.9876 -0.1666
 1041SOL     OW 3121   4.970   2.524   8.775  0.2136  0.0145 -0.6147
 1041SOL    HW1 3122   4.940   2.510   8.864  0.7927 -1.9748 -0.6667
 1041SOL    HW2 3123   5.052   2.474   8.769 -0.2179 -0.5599 -2.4621
 1042SOL     OW 3124   1.065   2.779   9.190  0.7777 -0.1880 -0.6093
 1042SOL    HW1 3125   0.979   2.742   9.173  0.1222  1.0980 -0.2237
 1042SOL    HW2 3126   1.120   2.704   9.212 -0.4782 -0.9303  0.0920
 1043SOL     OW 3127   1.671   1.544   8.158  0.3761 -0.0584 -0.1082
 1043SOL    HW1 3128   1.689   1.509   8.070  0.9296  0.2074 -0.1019
 1043SOL    HW2 3129   1.731   1.618   8.168 -1.3325  1.4527 -0.4444
 1044SOL     OW 3130   4.774   1.370   8.929 -0.3394 -0.0179 -0.1025
 1044SOL    HW1 3131   4.849   1.323   8.966  0.3144  0.6745 -0.4949
 1044SOL    HW2 3132   4.809   1.413   8.851 -1.7148 -1.5380 -1.6256
 1045SOL     OW 3133   2.458   4.644  10.049 -0.3639 -0.1188  0.0225
 1045SOL    HW1 3134   2.373   4.622  10.088 -0.6316  0.5420 -0.1670
 1045SOL    HW2 3135   2.510   4.564  10.058 -0.8503 -0.3854  0.5599
 1046SOL     OW 3136   4.894   2.446   9.685 -0.2314 -0.0289 -0.0264
 1046SOL    HW1 3137   4.881   2.431   9.779 -0.7387 -0.7584 -0.2084
 1046SOL    HW2 3138   4.986   2.423   9.670  0.0391  0.7458  0.4127
 1047SOL     OW 3139   4.407   0.133   9.077  0.6690  0.0099  0.3554
 1047SOL    HW1 3140   4.464   0.060   9.100  0.9039 -0.4251 -1.4856
 1047SOL    HW2 3141   4.467   0.204   9.053  0.4979 -0.4905 -1.7120
 1048SOL     OW 3142   2.708   2.753   9.567 -0.3181  0.5581  0.1449
 1048SOL    HW1 3143   2.667   2.838   9.548 -1.1322 -0.0517 -0.9847
 1048SOL    HW2 3144   2.637   2.699   9.600  0.1988  0.3113  0.8600
 1049SOL     OW 3145   3.936   1.585   9.362  0.0405  0.0103 -0.3794
 1049SOL    HW1 3146   3.886   1.660   9.331 -0.3765 -0.1980 -0.2115
 1049SOL    HW2 3147   4.000   1.568   9.293 -0.8670 -0.4413 -1.1195
 1050SOL     OW 3148   2.318   3.399   9.181  0.2252 -0.2221 -0.6805
 1050SOL    HW1 3149   2.310   3.463   9.110  0.5577 -0.5671 -1.0348
 1050SOL    HW2 3150   2.360   3.323   9.140  1.6695  0.0709  0.1850
 1051SOL     OW 3151   2.436   0.061   9.493 -0.0641  1.2717  0.1452
 1051SOL    HW1 3152   2.530   0.053   9.514 -0.0634 -2.1725 -0.6931
 1051SOL    HW2 3153   2.393   0.064   9.579  0.5959 -2.4456  0.7696
 1052SOL     OW 3154   4.098   3.417   9.852  0.2029 -0.3617  1.0177
 1052SOL    HW1 3155   4.054   3.501   9.838  0.6214 -0.2780  0.1142
 1052SOL    HW2 3156   4.158   3.433   9.925  2.4487  1.0200 -0.9872
 1053SOL     OW 3157   1.323   4.831   9.755 -0.7275  0.2131  0.4510
 1053SOL    HW1 3158   1.386   4.759   9.759 -2.0089 -0.9433  0.7211
 1053SOL    HW2 3159   1.375   4.910   9.771  1.5689 -0.0238 -4.1374
 1054SOL     OW 3160   1.268   1.922   8.059 -0.1970  0.5384 -0.1110
 1054SOL    HW1 3161   1.345   1.913   8.004 -0.0150 -0.3027  0.2735
 1054SOL    HW2 3162   1.226   1.836   8.057 -1.1153  0.9798 -0.2960
 1055SOL     OW 3163   2.034   1.740   9.353  0.2541  0.5163 -0.7502
 1055SOL    HW1 3164   2.012   1.665   9.298  0.2490 -1.4169  1.7161
 1055SOL    HW2 3165   1.951   1.787   9.363  0.2934  1.0481 -2.4538
 1056SOL     OW 3166   2.387   2.092   8.234  0.6466  0.4517  0.1181
 1056SOL    HW1 3167   2.449   2.060   8.169  0.6708  0.3997  0.1661
 1056SOL    HW2 3168   2.431   2.165   8.276  1.8341 -1.2566  2.0617
 1057SOL     OW 3169   0.862   1.430   9.698 -0.2948 -0.5917 -0.2212
 1057SOL    HW1 3170   0.902   1.363   9.752  0.8722 -0.5493 -0.9870
 1057SOL    HW2 3171   0.768   1.413   9.704 -0.1461 -1.0745  1.1413
 1058SOL     OW 3172   2.433   3.493   8.665  0.2512  0.0406  0.1470
 1058SOL    HW1 3173   2.411   3.400   8.668 -0.1879  0.1571  0.8928
 1058SOL    HW2 3174   2.518   3.499   8.709  0.9291 -0.1682 -1.0866
 1059SOL     OW 3175   1.864   1.625   8.542 -0.0482  0.4963  0.1271
 1059SOL    HW1 3176   1.914   1.700   8.511  1.6541 -0.7131 -0.1661
 1059SOL    HW2 3177   1.836   1.581   8.462 -2.1334  1.4268  0.2602
 1060SOL     OW 3178   4.242   2.938   8.040 -0.1534 -0.0834 -0.5312
 1060SOL    HW1 3179   4.319   2.991   8.060 -0.9932  0.9983 -0.0816
 1060SOL    HW2 3180   4.230   2.883   8.117 -0.4626  0.5196 -0.1480
 1061SOL     OW 3181   0.421   2.679   8.207  0.1968  0.4725  0.3975
 1061SOL    HW1 3182   0.495   2.691   8.147  0.3148  0.1313  0.4742
 1061SOL    HW2 3183   0.460   2.670   8.293  0.1740 -1.2294  0.2544
 1062SOL     OW 3184   3.265   2.282   8.528 -0.0830 -1.1485  0.3473
 1062SOL    HW1 3185   3.355   2.308   8.506 -0.3360 -0.0312  0.5569
 1062SOL    HW2 3186   3.211   2.321   8.458 -0.5486 -0.4242  1.0894
 1063SOL     OW 3187   4.807   2.704   9.942  0.3648  0.2019 -0.2583
 1063SOL    HW1 3188   4.855   2.785   9.963 -1.5564  1.5101 -0.6601
 1063SOL    HW2 3189   4.842   2.677   9.857 -0.0154  1.5227 -0.8751
 1064SOL     OW 3190   1.225   3.654   8.834  0.2632  0.3266  0.4203
 1064SOL    HW1 3191   1.232   3.658   8.739 -0.8783  0.6913  0.3332
 1064SOL    HW2 3192   1.132   3.670   8.852  0.5719  0.9316  1.6214
 1065SOL     OW 3193   1.726   3.008   9.508 -0.0477 -0.3566  0.7361
 1065SOL    HW1 3194   1.735   2.986   9.601 -2.6911 -1.8297  0.7396
 1065SOL    HW2 3195   1.651   3.066   9.504  0.8662  0.8183 -0.3972
 1066SOL     OW 3196   3.516   1.420   8.594  0.5996  0.0997 -0.3734
 1066SOL    HW1 3197   3.444   1.401   8.653  0.1341  4.9298  1.0361
 1066SOL    HW2 3198   3.594   1.417   8.650  0.8955 -0.6610 -0.8217
 1067SOL     OW 3199   1.518   3.044   9.675  0.5634 -0.4477  0.2929
 1067SOL    HW1 3200   1.526   2.953   9.648 -0.4158  0.1187 -2.1524
 1067SOL    HW2 3201   1.424   3.062   9.673  0.7647  0.7149  0.3602
 1068SOL     OW 3202   1.841   1.681   6.525 -0.3065  0.2161  0.1658
 1068SOL    HW1 3203   1.830   1.771   6.555 -1.4911 -0.6451  2.7059
 1068SOL    HW2 3204   1.759   1.661   6.479 -1.7830 -0.5753  2.8764
 1069SOL     OW 3205   1.418   1.660   8.993  0.2368 -0.0158 -0.3153
 1069SOL    HW1 3206   1.508   1.626   8.993  0.0688 -0.4699 -0.2428
 1069SOL    HW2 3207   1.411   1.708   8.911  0.6053  0.1781 -0.2358
 1070SOL     OW 3208   3.460   3.521   8.714  0.1969 -0.6919  0.2455
 1070SOL    HW1 3209   3.412   3.551   8.792  1.1578  1.2012  0.1738
 1070SOL    HW2 3210   3.430   3.431   8.700 -3.5529  0.4230  0.0217
 1071SOL     OW 3211   2.003   4.140   9.468  0.3021 -0.5169  0.4765
 1071SOL    HW1 3212   2.078   4.088   9.441  1.2636  0.0818  1.8701
 1071SOL    HW2 3213   2.004   4.136   9.564 -0.9784  0.1632  0.5478
 1072SOL     OW 3214   0.570   1.326   8.526  0.0286  0.3064 -0.1018
 1072SOL    HW1 3215   0.610   1.239   8.525 -1.0007 -0.2857  2.0607
 1072SOL    HW2 3216   0.485   1.313   8.483  0.6943  0.7358 -1.5719
 1073SOL     OW 3217   2.572   2.981   8.528 -0.3380 -0.0956 -0.6608
 1073SOL    HW1 3218   2.549   3.012   8.441 -0.3093  1.6308 -0.0828
 1073SOL    HW2 3219   2.668   2.986   8.530 -0.3176 -0.4513 -0.6261
 1074SOL     OW 3220   0.767   3.519   9.013 -1.1239 -0.1059  0.0649
 1074SOL    HW1 3221   0.831   3.473   8.959 -0.7936 -0.9660  1.1609
 1074SOL    HW2 3222   0.773   3.610   8.984 -1.5485 -0.6574 -1.9013
 1075SOL     OW 3223   3.278   3.836   8.705  0.0255  0.1043  0.5617
 1075SOL    HW1 3224   3.341   3.790   8.649 -1.8209 -1.5224 -0.3126
 1075SOL    HW2 3225   3.331   3.874   8.775  1.9607 -1.2591 -0.0867
 1076SOL     OW 3226   0.973   1.088   8.835  0.1753  0.3801 -0.0607
 1076SOL    HW1 3227   0.914   1.048   8.899  0.7103 -0.1479  0.1171
 1076SOL    HW2 3228   0.981   1.022   8.766 -0.4397  0.9640 -0.7155
 1077SOL     OW 3229   0.307   1.870   9.352  0.0336 -0.1541 -0.4713
 1077SOL    HW1 3230   0.301   1.965   9.361  0.3064 -0.1306 -0.5325
 1077SOL    HW2 3231   0.301   1.855   9.257  2.2745 -0.0220 -0.6997
 1078SOL     OW 3232   1.925   3.590   8.580 -0.0650  0.2743 -0.5240
 1078SOL    HW1 3233   1.925   3.517   8.519  0.6523  0.1449 -0.3730
 1078SOL    HW2 3234   2.015   3.623   8.578 -0.0825  0.3906  0.3041
 1079SOL     OW 3235   0.712   1.515   8.321  0.0635 -0.3454  0.4068
 1079SOL    HW1 3236   0.676   1.453   8.384 -2.2509  0.3330 -0.1525
 1079SOL    HW2 3237   0.687   1.479   8.236 -1.9927  1.6175  0.0813
 1080SOL     OW 3238   2.463   2.275   9.474 -0.0392 -0.0508  0.1574
 1080SOL    HW1 3239   2.392   2.212   9.466 -1.1387  1.4178 -3.1202
 1080SOL    HW2 3240   2.538   2.223   9.504 -2.2082 -1.7405  3.2086
 1081SOL     OW 3241   4.848   4.855   8.894 -0.3020 -0.5007 -0.2761
 1081SOL    HW1 3242   4.767   4.804   8.889 -1.0142  0.5928 -0.1969
 1081SOL    HW2 3243   4.915   4.797   8.857 -1.0394 -1.5657  0.0058
 1082SOL     OW 3244   4.807   2.474   8.199  0.1458 -0.3477  0.3654
 1082SOL    HW1 3245   4.809   2.525   8.280 -2.4354  2.1947 -0.9633
 1082SOL    HW2 3246   4.888   2.497   8.154 -1.4987  4.2018 -0.8608
 1083SOL     OW 3247   0.536   2.594   8.719  0.2639  0.1542 -0.0329
 1083SOL    HW1 3248   0.558   2.679   8.758  0.7785  0.5005 -1.0375
 1083SOL    HW2 3249   0.534   2.611   8.625 -0.5099 -0.7596 -0.1912
 1084SOL     OW 3250   0.488   0.674   8.042 -0.0578  0.2053  0.4201
 1084SOL    HW1 3251   0.409   0.622   8.061  0.5341 -0.8101  0.1690
 1084SOL    HW2 3252   0.536   0.621   7.978  1.2610  0.3911  1.2389
 1085SOL     OW 3253   3.133   1.643   9.914  0.2286 -0.2660 -0.4677
 1085SOL    HW1 3254   3.084   1.724   9.925 -1.2425 -0.9991 -1.4045
 1085SOL    HW2 3255   3.124   1.621   9.821  2.8469 -0.1418 -0.8461
 1086SOL     OW 3256   3.443   2.535   9.761  0.4678  0.3501  0.6220
 1086SOL    HW1 3257   3.509   2.545   9.693 -0.5462  0.4472 -0.3663
 1086SOL    HW2 3258   3.487   2.486   9.830  1.9677  1.5325  0.5552
 1087SOL     OW 3259   0.795   4.934   9.510 -0.1862  0.2519 -0.3056
 1087SOL    HW1 3260   0.720   4.980   9.472  0.3817  0.4048 -1.2767
 1087SOL    HW2 3261   0.851   5.004   9.544 -0.6912  0.1158  0.8509
 1088SOL     OW 3262   3.843   2.366   8.691 -0.0272  0.6071  0.0800
 1088SOL    HW1 3263   3.760   2.354   8.737  0.9127 -0.9258  1.4734
 1088SOL    HW2 3264   3.903   2.401   8.757  1.8917 -3.4485  0.7953
 1089SOL     OW 3265   0.461   3.094   9.486  0.1220 -0.0513 -0.2171
 1089SOL    HW1 3266   0.448   3.101   9.581 -3.5166 -1.8595 -0.4132
 1089SOL    HW2 3267   0.530   3.029   9.476  0.6031  0.2162  1.1906
 1090SOL     OW 3268   0.995   2.273   7.679  0.0696  0.3063  0.7600
 1090SOL    HW1 3269   1.039   2.188   7.687  1.6448  0.8598 -1.1807
 1090SOL    HW2 3270   1.026   2.322   7.755  2.9666  0.6652 -0.5109
 1091SOL     OW 3271   4.393   0.817   9.589 -0.4714  0.3787  0.5673
 1091SOL    HW1 3272   4.358   0.735   9.624 -0.4074  0.1938  0.1976
 1091SOL    HW2 3273   4.360   0.821   9.500  1.9035 -0.7053 -0.4308
 1092SOL     OW 3274   3.359   0.020   5.842  0.7396  0.1711 -0.5124
 1092SOL    HW1 3275   3.290   0.086   5.834  0.1325 -0.1635  1.4485
 1092SOL    HW2 3276   3.360  -0.024   5.757 -1.2897  0.3549 -0.6791
 1093SOL     OW 3277   1.028   1.932   8.489 -0.3628  0.1922 -0.4930
 1093SOL    HW1 3278   0.981   1.855   8.456  0.5478 -0.7637  0.3418
 1093SOL    HW2 3279   1.112   1.930   8.442 -0.3535  0.7133 -0.5011
 1094SOL     OW 3280   2.959   1.724   9.071  0.0677 -0.2862  0.5288
 1094SOL    HW1 3281   3.035   1.722   9.012  0.3521 -1.1179  0.9082
 1094SOL    HW2 3282   2.885   1.704   9.014  0.4665 -2.1489  0.6115
 1095SOL     OW 3283   2.589   1.778   8.888  0.0603 -0.0499 -0.2417
 1095SOL    HW1 3284   2.569   1.722   8.963 -1.4412 -0.6516 -1.0248
 1095SOL    HW2 3285   2.506   1.782   8.839  0.5684  1.5935 -1.0427
 1096SOL     OW 3286   2.193   0.862   9.949 -0.1660  0.2056  0.1288
 1096SOL    HW1 3287   2.249   0.921   9.899  0.4093  0.5826  1.1981
 1096SOL    HW2 3288   2.142   0.920  10.006 -0.3258 -0.2578  0.4627
 1097SOL     OW 3289   4.714   3.158   9.420  0.7174  0.4786 -0.2694
 1097SOL    HW1 3290   4.675   3.246   9.420  2.6353  1.3799  0.2904
 1097SOL    HW2 3291   4.660   3.108   9.359 -2.2558  1.1742  1.5473
 1098SOL     OW 3292   0.808   3.918   9.800  0.6423 -0.4440 -0.4954
 1098SOL    HW1 3293   0.800   3.836   9.751 -1.6572 -1.3523  1.2060
 1098SOL    HW2 3294   0.747   3.977   9.756  0.4747 -0.4518 -0.2768
 1099SOL     OW 3295   2.423   4.209   8.601 -0.3335 -0.3547 -0.8310
 1099SOL    HW1 3296   2.463   4.269   8.664 -0.2274 -0.6458 -0.6194
 1099SOL    HW2 3297   2.330   4.232   8.601 -0.1311  0.4822 -1.5000
 1100SOL     OW 3298   3.793   0.745   8.182 -0.0960 -0.4046  0.0580
 1100SOL    HW1 3299   3.794   0.732   8.277 -0.8248 -2.3434 -0.1621
 1100SOL    HW2 3300   3.720   0.691   8.151 -1.0613  1.5929 -1.4446
 1101SOL     OW 3301   2.440   2.977   9.339  0.6857 -0.0920 -0.2082
 1101SOL    HW1 3302   2.417   2.937   9.423  0.6558  0.8459  0.2462
 1101SOL    HW2 3303   2.356   3.006   9.303  0.6063 -1.1598 -0.9344
 1102SOL     OW 3304   0.062   4.965   9.854  0.4151 -0.9199 -0.3892
 1102SOL    HW1 3305   0.097   5.051   9.833 -1.8596 -0.1158 -1.2300
 1102SOL    HW2 3306   0.124   4.903   9.814  1.1888  0.3657 -1.2601
 1103SOL     OW 3307   2.173   4.595   9.696 -0.1098 -0.0459 -0.0720
 1103SOL    HW1 3308   2.140   4.661   9.757 -0.2853 -0.6619  0.5083
 1103SOL    HW2 3309   2.268   4.609   9.696 -0.2289  0.9089 -0.7945
 1104SOL     OW 3310   4.690   1.332   8.592  0.8829 -0.0911  0.2271
 1104SOL    HW1 3311   4.689   1.263   8.659 -0.3833  0.6235  0.9896
 1104SOL    HW2 3312   4.604   1.372   8.599  0.4944 -0.3527 -2.2379
 1105SOL     OW 3313   2.209   2.242   9.102 -0.2343 -0.4116  0.1860
 1105SOL    HW1 3314   2.283   2.302   9.112 -0.7262 -0.0997  2.5230
 1105SOL    HW2 3315   2.246   2.167   9.054  0.5700  1.3452 -2.1238
 1106SOL     OW 3316   0.561   2.186   8.942 -0.2503 -0.1338  0.6492
 1106SOL    HW1 3317   0.532   2.272   8.974 -1.9766 -0.2897 -0.3791
 1106SOL    HW2 3318   0.629   2.206   8.879  0.4364  0.3783  1.5252
 1107SOL     OW 3319   4.057   2.458   9.869  0.0383 -0.0687 -0.4879
 1107SOL    HW1 3320   4.100   2.512   9.803  1.3732  0.5344  0.8046
 1107SOL    HW2 3321   4.116   2.383   9.881 -1.7114 -1.8311 -2.1403
 1108SOL     OW 3322   0.748   3.587   7.957  0.3399 -0.0868  0.5161
 1108SOL    HW1 3323   0.694   3.651   8.003 -0.2071 -0.0508 -0.1754
 1108SOL    HW2 3324   0.712   3.582   7.869  1.1108 -0.4825  0.2072
 1109SOL     OW 3325   0.397   3.439   8.887  0.0433 -0.0457  0.5457
 1109SOL    HW1 3326   0.443   3.427   8.971 -0.7902 -0.8561  0.9087
 1109SOL    HW2 3327   0.420   3.362   8.836  0.8309  0.6156 -0.1287
 1110SOL     OW 3328   1.178   3.078   8.108 -0.2668 -0.3010  0.3584
 1110SOL    HW1 3329   1.087   3.050   8.120  0.5094 -3.0988  0.5125
 1110SOL    HW2 3330   1.190   3.081   8.013 -0.0371 -1.9330  0.3041
 1111SOL     OW 3331   1.691   3.361   8.707 -0.1471 -0.3489  0.6301
 1111SOL    HW1 3332   1.780   3.360   8.671 -0.7680 -1.5597 -0.9621
 1111SOL    HW2 3333   1.660   3.450   8.691  0.2752 -0.3243 -0.0886
 1112SOL     OW 3334   1.725   3.508   9.722 -0.1798  0.2216  0.0804
 1112SOL    HW1 3335   1.795   3.454   9.758 -0.2927  0.3180  0.4508
 1112SOL    HW2 3336   1.653   3.448   9.706 -0.3436  0.2766  0.5947
 1113SOL     OW 3337   4.796   2.359   8.536  0.1349 -0.5316 -0.2004
 1113SOL    HW1 3338   4.866   2.298   8.515 -0.1203 -1.4748  1.5169
 1113SOL    HW2 3339   4.838   2.446   8.534  1.3078 -1.0565  0.5848
 1114SOL     OW 3340   1.503   3.323   9.681  0.5245 -0.0038  0.1234
 1114SOL    HW1 3341   1.510   3.233   9.712 -0.3557 -1.1429 -2.7027
 1114SOL    HW2 3342   1.430   3.360   9.731  0.1818 -1.2003  0.5352
 1115SOL     OW 3343   0.825   3.905   9.457  0.3194  0.2618 -0.4646
 1115SOL    HW1 3344   0.803   3.842   9.526 -0.3218 -0.6442 -1.4695
 1115SOL    HW2 3345   0.777   3.984   9.481  1.0431  0.3649  0.7498
 1116SOL     OW 3346   0.457   2.488   7.559  0.1721  0.1793  0.1101
 1116SOL    HW1 3347   0.433   2.552   7.492  3.1039  1.2685 -0.0186
 1116SOL    HW2 3348   0.511   2.423   7.514  0.0253 -0.5364  0.9213
 1117SOL     OW 3349   4.334   1.070   9.020 -0.5279  0.1090 -0.2710
 1117SOL    HW1 3350   4.393   1.047   9.092 -0.6173 -0.2997 -0.3285
 1117SOL    HW2 3351   4.363   1.016   8.947 -1.4172 -0.6075 -0.1039
 1118SOL     OW 3352   2.634   2.667   8.546  0.6072 -0.0944  0.3363
 1118SOL    HW1 3353   2.538   2.664   8.548  0.5897  0.4924  1.1077
 1118SOL    HW2 3354   2.655   2.758   8.567  1.3231  0.1458 -1.2631
 1119SOL     OW 3355   4.114   3.624   8.660  0.6069 -0.6264 -0.1879
 1119SOL    HW1 3356   4.019   3.607   8.665  0.8347 -1.6842  1.7034
 1119SOL    HW2 3357   4.134   3.670   8.741  1.6752 -0.1538 -0.7075
 1120SOL     OW 3358   0.541   3.751   9.263  0.8891  0.2257  0.6765
 1120SOL    HW1 3359   0.515   3.828   9.213  0.2998 -0.0829  0.4933
 1120SOL    HW2 3360   0.635   3.759   9.273  0.8838  0.7739  0.3311
 1121SOL     OW 3361   4.171   2.096   9.847  0.2577 -0.3041 -0.2716
 1121SOL    HW1 3362   4.118   2.141   9.912 -0.4256  0.1819 -1.1473
 1121SOL    HW2 3363   4.146   2.004   9.856  1.9236 -0.6396  1.7693
 1122SOL     OW 3364   1.845   2.639   8.395 -0.0074  0.3130  0.2935
 1122SOL    HW1 3365   1.782   2.620   8.464  0.4204 -0.1125  0.5737
 1122SOL    HW2 3366   1.792   2.648   8.316 -0.4725  0.5279  0.6252
 1123SOL     OW 3367   1.544   3.291   9.430  0.0864  0.4862  0.5231
 1123SOL    HW1 3368   1.544   3.296   9.525  1.2667  0.1092  0.5623
 1123SOL    HW2 3369   1.481   3.222   9.409  0.1235  0.2894  1.0551
 1124SOL     OW 3370   4.121   3.427   8.986 -0.4459  0.0869 -0.1600
 1124SOL    HW1 3371   4.089   3.430   9.076  0.4313  1.7645  0.1330
 1124SOL    HW2 3372   4.082   3.347   8.950 -2.5775  0.4953  1.0290
 1125SOL     OW 3373   3.265   4.847   9.509  0.4473  0.0615 -0.3680
 1125SOL    HW1 3374   3.342   4.887   9.550 -0.1215  0.2864  0.5035
 1125SOL    HW2 3375   3.238   4.910   9.442  1.3935 -0.3136 -1.1196
 1126SOL     OW 3376   4.311   2.650   9.793  0.3785 -0.2783 -0.4952
 1126SOL    HW1 3377   4.277   2.704   9.722 -1.6808  1.4004  1.6242
 1126SOL    HW2 3378   4.383   2.701   9.830 -0.1223 -0.0024  0.1129
 1127SOL     OW 3379   2.163   3.639   9.315  1.0505  0.3313 -0.2602
 1127SOL    HW1 3380   2.168   3.711   9.253  0.3860 -0.1581 -0.8865
 1127SOL    HW2 3381   2.081   3.652   9.362  0.2297 -0.7844 -1.3468
 1128SOL     OW 3382   0.992   1.820   9.068  0.0594 -0.3534 -0.1194
 1128SOL    HW1 3383   0.952   1.899   9.104 -0.0571  0.3456 -1.7052
 1128SOL    HW2 3384   1.020   1.770   9.145 -1.4885  0.3670  0.9711
 1129SOL     OW 3385   2.431   4.073   9.673 -0.1122 -0.3756 -0.0427
 1129SOL    HW1 3386   2.344   4.044   9.697 -0.5026  1.5876  1.1690
 1129SOL    HW2 3387   2.419   4.123   9.592  0.2934 -2.0168 -1.1674
 1130SOL     OW 3388   1.005   2.507   8.955 -0.4580 -0.0856  0.2589
 1130SOL    HW1 3389   0.965   2.515   9.041  0.5962  0.7305  0.6906
 1130SOL    HW2 3390   0.972   2.581   8.905 -0.5834 -0.2083  0.1579
 1131SOL     OW 3391   0.689   3.279   9.827 -0.5562  0.4653  0.5512
 1131SOL    HW1 3392   0.682   3.238   9.913  1.7336  0.3818  0.7567
 1131SOL    HW2 3393   0.762   3.233   9.785 -1.2730  0.8904 -1.2199
 1132SOL     OW 3394   3.516   4.432   9.991 -0.1094  0.0640  0.1296
 1132SOL    HW1 3395   3.431   4.475   9.991 -0.4830 -0.6418 -0.9252
 1132SOL    HW2 3396   3.531   4.407  10.082 -2.0849 -1.8254  0.0012
 1133SOL     OW 3397   1.659   0.709   9.228 -0.5689  0.6080  0.0663
 1133SOL    HW1 3398   1.634   0.654   9.154 -2.2666 -0.7907  1.6060
 1133SOL    HW2 3399   1.753   0.694   9.238 -0.3414  0.6730 -1.6455
 1134SOL     OW 3400   2.475   4.042   9.108 -0.3173 -0.0952 -0.0140
 1134SOL    HW1 3401   2.471   4.135   9.131 -1.1353 -0.0701 -0.2030
 1134SOL    HW2 3402   2.418   4.035   9.031  0.1932 -0.6544 -0.3487
 1135SOL     OW 3403   1.906   1.181   8.199 -0.0570  0.5327 -0.5467
 1135SOL    HW1 3404   1.870   1.254   8.250  2.4410  1.5541 -0.0627
 1135SOL    HW2 3405   1.958   1.132   8.262 -0.9854 -1.2094 -1.0743
 1136SOL     OW 3406   5.003   1.903   9.998 -0.3516 -0.2559  0.1234
 1136SOL    HW1 3407   5.040   1.834  10.053  0.3524  0.0847  0.0813
 1136SOL    HW2 3408   4.910   1.880   9.991 -0.2979 -0.7184  0.8238
 1137SOL     OW 3409   1.625   3.556   9.393 -0.8243 -0.3841 -0.4658
 1137SOL    HW1 3410   1.613   3.612   9.470 -1.0247  0.0685 -0.8202
 1137SOL    HW2 3411   1.591   3.470   9.420 -0.5883 -0.3146  0.0550
 1138SOL     OW 3412   1.402   3.254   8.170 -0.1981 -0.5407 -0.2389
 1138SOL    HW1 3413   1.322   3.201   8.167 -0.4188 -0.3997  1.7324
 1138SOL    HW2 3414   1.471   3.195   8.139 -1.1059 -0.4753 -2.5670
 1139SOL     OW 3415   4.391   2.751   7.894  0.3574  0.6933 -0.0058
 1139SOL    HW1 3416   4.331   2.711   7.830  0.5935  1.1657 -0.5351
 1139SOL    HW2 3417   4.339   2.820   7.935 -0.3969 -0.7980  1.6793
 1140SOL     OW 3418   3.068   0.721   8.915  0.1939 -0.4359  0.1221
 1140SOL    HW1 3419   3.054   0.816   8.923  3.3878  0.3021 -1.5140
 1140SOL    HW2 3420   3.122   0.711   8.836 -0.0943 -3.6638  0.1936
 1141SOL     OW 3421   4.203   1.701   8.527  0.3260  0.4982  0.3943
 1141SOL    HW1 3422   4.271   1.767   8.512  1.1019 -0.6813 -1.7930
 1141SOL    HW2 3423   4.246   1.633   8.579  1.1668 -0.5690 -1.5445
 1142SOL     OW 3424   1.385   3.957   8.751  0.9699  0.5568 -0.5575
 1142SOL    HW1 3425   1.440   3.887   8.785 -0.1342  0.3435  0.9058
 1142SOL    HW2 3426   1.358   3.926   8.665 -0.7496 -1.6311  0.6506
 1143SOL     OW 3427   3.156   4.385   6.137  0.7201  0.7450 -0.5631
 1143SOL    HW1 3428   3.164   4.377   6.232 -0.3228  2.2928 -0.2944
 1143SOL    HW2 3429   3.088   4.322   6.114  0.3445  0.9848 -0.1395
 1144SOL     OW 3430   2.045   2.995   6.934  0.5659  0.1520 -1.1053
 1144SOL    HW1 3431   1.979   2.972   6.868 -0.0565 -0.6039 -0.2406
 1144SOL    HW2 3432   2.020   2.944   7.012  1.1560  1.1831 -0.2146
 1145SOL     OW 3433   0.598   3.326   6.025 -0.6708 -0.0214  0.5940
 1145SOL    HW1 3434   0.665   3.257   6.023  1.2960  1.6799 -3.2870
 1145SOL    HW2 3435   0.515   3.279   6.014  0.4305 -1.9110 -0.1518
 1146SOL     OW 3436   2.297   3.422   5.393 -0.5610  0.1496 -0.3113
 1146SOL    HW1 3437   2.267   3.509   5.368  0.2362  0.5879  0.1949
 1146SOL    HW2 3438   2.217   3.372   5.407 -1.0380  0.8797 -0.3454
 1147SOL     OW 3439   3.522   4.513   5.031  0.4820  0.2598 -0.1330
 1147SOL    HW1 3440   3.593   4.576   5.038  2.2910 -1.7107  0.3710
 1147SOL    HW2 3441   3.522   4.488   4.938  0.2379  0.4524 -0.1877
 1148SOL     OW 3442   4.805   4.776   6.115  0.0775  0.0639 -0.0987
 1148SOL    HW1 3443   4.809   4.867   6.086 -1.6631  0.1120 -0.2347
 1148SOL    HW2 3444   4.823   4.724   6.037 -4.4611  0.1882 -1.4877
 1149SOL     OW 3445   0.639   4.147   6.323 -0.3458  0.3153 -0.4465
 1149SOL    HW1 3446   0.587   4.067   6.320 -0.0763  0.0570  1.0871
 1149SOL    HW2 3447   0.585   4.213   6.280 -0.4203 -0.7482 -2.0754
 1150SOL     OW 3448   1.948   3.950   5.709  0.6421  0.2688  0.1111
 1150SOL    HW1 3449   1.891   3.876   5.731  0.9171  0.1322  0.3739
 1150SOL    HW2 3450   1.940   4.009   5.783  0.6736  0.3484  0.0507
 1151SOL     OW 3451   1.225   0.212   5.931  0.1091  0.3187 -0.3491
 1151SOL    HW1 3452   1.301   0.216   5.989  0.2200 -0.1499 -0.4592
 1151SOL    HW2 3453   1.191   0.123   5.941 -0.6784  0.6564  0.0140
 1152SOL     OW 3454   0.335   4.006   6.529  0.4457  0.7270  0.1630
 1152SOL    HW1 3455   0.299   4.094   6.535 -2.0380 -0.3378  2.2561
 1152SOL    HW2 3456   0.292   3.968   6.452  1.3186  1.1956 -0.5816
 1153SOL     OW 3457   0.959   4.458   7.305 -0.1622 -0.0351  0.0219
 1153SOL    HW1 3458   0.954   4.537   7.251 -0.4094  1.4639  2.1171
 1153SOL    HW2 3459   1.053   4.442   7.315 -0.1018 -1.2201 -2.0092
 1154SOL     OW 3460   1.388   3.755   6.293  0.2184  0.0257  0.2105
 1154SOL    HW1 3461   1.385   3.780   6.200  0.2424 -1.4497 -0.2168
 1154SOL    HW2 3462   1.473   3.785   6.323  0.8883 -0.8905 -0.6933
 1155SOL     OW 3463   2.820   0.823   5.332  0.2432  0.9840 -0.2919
 1155SOL    HW1 3464   2.836   0.903   5.383 -0.0311  2.2789 -2.1310
 1155SOL    HW2 3465   2.907   0.787   5.316  0.5775  2.1375 -1.2563
 1156SOL     OW 3466   2.433   3.904   6.799 -0.2685 -0.7257  0.1643
 1156SOL    HW1 3467   2.523   3.872   6.794 -0.8918 -2.5764 -0.0201
 1156SOL    HW2 3468   2.387   3.857   6.730 -1.4172  0.1364  0.3095
 1157SOL     OW 3469   2.435   0.203   5.572  0.1622 -0.5173  0.1783
 1157SOL    HW1 3470   2.395   0.182   5.657 -0.9250 -2.2886 -0.7074
 1157SOL    HW2 3471   2.528   0.183   5.584  0.3724  1.0655  1.4844
 1158SOL     OW 3472   1.858   4.149   5.461  0.2567  0.0003  0.2085
 1158SOL    HW1 3473   1.889   4.092   5.531  1.8817  1.7762  1.0057
 1158SOL    HW2 3474   1.765   4.128   5.453  0.9183 -3.3981 -0.2107
 1159SOL     OW 3475   1.392   4.898   6.469  0.6656 -0.2115 -0.0482
 1159SOL    HW1 3476   1.423   4.892   6.559  0.9309 -2.3492 -0.2423
 1159SOL    HW2 3477   1.445   4.834   6.421 -0.6380 -0.3323 -1.3774
 1160SOL     OW 3478   0.983   4.722   5.432 -0.0149  0.3211 -0.2361
 1160SOL    HW1 3479   0.975   4.735   5.337  1.0755 -0.0308 -0.3935
 1160SOL    HW2 3480   1.077   4.713   5.447 -0.2706 -1.1602  0.6724
 1161SOL     OW 3481   4.527   0.792   7.417 -0.2131 -0.0387  0.5056
 1161SOL    HW1 3482   4.619   0.772   7.401 -0.1615  0.3275  0.3156
 1161SOL    HW2 3483   4.528   0.846   7.496 -0.0542  1.6497 -0.5884
 1162SOL     OW 3484   1.784   0.768   7.245 -0.0400 -0.1195 -0.0360
 1162SOL    HW1 3485   1.867   0.741   7.284 -0.1496  0.0100  0.2974
 1162SOL    HW2 3486   1.808   0.840   7.186 -0.2155  1.8057  2.1078
 1163SOL     OW 3487   3.669   2.745   5.304  0.0311  0.2706  0.2904
 1163SOL    HW1 3488   3.730   2.815   5.283  0.5439 -0.1608  0.3327
 1163SOL    HW2 3489   3.714   2.691   5.368  0.6795 -1.5138 -1.5495
 1164SOL     OW 3490   0.739   0.311   5.140  0.2474 -0.1432  0.0133
 1164SOL    HW1 3491   0.644   0.295   5.139  0.3244 -0.8557  1.2798
 1164SOL    HW2 3492   0.752   0.371   5.214  0.6600  0.9599 -0.9329
 1165SOL     OW 3493   1.206   3.021   7.778 -0.2560  0.7196  0.1443
 1165SOL    HW1 3494   1.194   2.992   7.688 -0.4766  0.7425  0.1681
 1165SOL    HW2 3495   1.170   2.950   7.831 -0.1901  0.7381  0.2146
 1166SOL     OW 3496   2.813   3.388   5.387 -0.0916 -0.1744 -1.0441
 1166SOL    HW1 3497   2.718   3.378   5.382 -0.1588  0.6602 -1.5471
 1166SOL    HW2 3498   2.835   3.447   5.315  0.5609  1.2765  0.2742
 1167SOL     OW 3499   2.944   3.133   6.813 -0.1720 -0.2425 -0.3491
 1167SOL    HW1 3500   3.026   3.124   6.764 -0.0613  3.3767 -1.0740
 1167SOL    HW2 3501   2.971   3.161   6.901 -0.6252  0.5198 -0.4508
 1168SOL     OW 3502   4.071   3.734   6.601  0.2122 -0.0570 -0.6122
 1168SOL    HW1 3503   4.075   3.830   6.598 -1.1788 -0.0252 -2.5658
 1168SOL    HW2 3504   4.087   3.706   6.511 -2.3042 -1.4987 -0.6954
 1169SOL     OW 3505   4.638   4.045   5.634 -0.4518  0.1938  0.1204
 1169SOL    HW1 3506   4.642   4.087   5.720  0.5703  0.1203  0.1217
 1169SOL    HW2 3507   4.642   3.951   5.652  1.5324  0.2011 -0.0540
 1170SOL     OW 3508   2.440   3.262   5.823 -0.2101 -0.1516 -0.1853
 1170SOL    HW1 3509   2.380   3.321   5.867  0.8301 -0.1050  1.2416
 1170SOL    HW2 3510   2.474   3.312   5.749  0.0497  0.7787  0.5399
 1171SOL     OW 3511   0.735   4.712   6.018  0.5249 -0.2507  0.1029
 1171SOL    HW1 3512   0.799   4.734   5.950 -0.6510  1.7908 -0.4448
 1171SOL    HW2 3513   0.788   4.682   6.092  2.0162 -0.0261 -0.8247
 1172SOL     OW 3514   4.516   4.982   5.992  0.3089 -0.0956 -0.2438
 1172SOL    HW1 3515   4.462   5.045   6.038 -1.5685 -1.4975 -0.4351
 1172SOL    HW2 3516   4.456   4.935   5.935  1.8961 -1.0865 -1.1939
 1173SOL     OW 3517   1.685   0.347   6.206 -0.4925  0.3587 -0.0407
 1173SOL    HW1 3518   1.675   0.252   6.209  0.3248  0.1287 -2.4857
 1173SOL    HW2 3519   1.602   0.379   6.171  0.0707  0.2725 -1.5364
 1174SOL     OW 3520   0.725   3.396   6.734 -0.4903 -0.7698 -0.2316
 1174SOL    HW1 3521   0.649   3.342   6.715 -0.8303 -0.4167  0.1129
 1174SOL    HW2 3522   0.748   3.376   6.824 -1.3652  0.5337  0.3159
 1175SOL     OW 3523   1.616   4.624   5.345  0.4463 -0.0030  0.2553
 1175SOL    HW1 3524   1.678   4.677   5.295  0.7756  0.8220  1.4839
 1175SOL    HW2 3525   1.659   4.539   5.353  0.4267 -0.1139 -0.7725
 1176SOL     OW 3526   0.337   1.487   6.291  1.1427 -0.1451  0.0339
 1176SOL    HW1 3527   0.309   1.430   6.363  0.4143  0.4044  0.2072
 1176SOL    HW2 3528   0.373   1.564   6.334  0.4655  0.3011 -0.1772
 1177SOL     OW 3529   2.458   3.935   6.181  0.3850 -0.2208  0.3865
 1177SOL    HW1 3530   2.437   4.009   6.123 -1.7573 -0.0892  1.2548
 1177SOL    HW2 3531   2.516   3.972   6.247  1.6607 -0.0283 -0.7965
 1178SOL     OW 3532   0.860   2.970   7.447 -0.0587  0.0842 -0.2751
 1178SOL    HW1 3533   0.912   2.895   7.416 -0.9645 -0.2203 -1.1212
 1178SOL    HW2 3534   0.773   2.934   7.461 -0.1871  0.7117  0.6052
 1179SOL     OW 3535   0.744   4.105   6.685 -0.1929 -0.0323  0.5258
 1179SOL    HW1 3536   0.786   4.141   6.607  0.7947 -2.0662  0.0564
 1179SOL    HW2 3537   0.705   4.022   6.656 -1.4277  0.0596  1.7920
 1180SOL     OW 3538   3.164   4.825   5.981  0.1052  0.1826 -0.3337
 1180SOL    HW1 3539   3.244   4.786   6.017 -0.0308  1.2992  1.3289
 1180SOL    HW2 3540   3.185   4.918   5.971 -0.6882  0.3255 -0.8071
 1181SOL     OW 3541   3.755   4.723   5.387 -0.0325 -0.0825 -0.4907
 1181SOL    HW1 3542   3.767   4.733   5.481 -1.6100 -0.1123 -0.2579
 1181SOL    HW2 3543   3.843   4.705   5.353  0.3772 -1.4050  1.1400
 1182SOL     OW 3544   4.484   3.670   5.295  0.2496 -0.0114  0.5923
 1182SOL    HW1 3545   4.428   3.613   5.243  1.5569 -0.6223 -0.2131
 1182SOL    HW2 3546   4.500   3.620   5.375 -1.0343  0.5418  1.2135
 1183SOL     OW 3547   2.017   4.335   5.568 -0.0836 -0.4505  0.5857
 1183SOL    HW1 3548   1.942   4.280   5.543  0.0348 -0.7841  0.9454
 1183SOL    HW2 3549   2.079   4.324   5.496 -0.6882  0.4394 -0.0913
 1184SOL     OW 3550   1.990   4.496   8.645 -0.1082 -0.4481  0.4353
 1184SOL    HW1 3551   1.952   4.579   8.615 -0.2512 -0.3363  0.9175
 1184SOL    HW2 3552   1.918   4.450   8.688  0.0797 -0.6300  0.5595
 1185SOL     OW 3553   1.729   3.895   6.697 -0.1497 -0.0759  0.0636
 1185SOL    HW1 3554   1.755   3.921   6.785 -2.1018 -1.4823  1.1359
 1185SOL    HW2 3555   1.635   3.880   6.703 -0.3282 -0.3628 -2.2544
 1186SOL     OW 3556   1.519   1.244   8.201 -0.0517  0.6146  0.4698
 1186SOL    HW1 3557   1.430   1.278   8.188 -1.0245 -1.5801  0.8045
 1186SOL    HW2 3558   1.571   1.284   8.132 -1.7750  0.4408 -0.9941
 1187SOL     OW 3559   0.175   4.315   6.094 -0.7055  0.1433 -0.0956
 1187SOL    HW1 3560   0.123   4.338   6.017 -1.7644  0.2140  0.6203
 1187SOL    HW2 3561   0.126   4.351   6.168  1.4179  2.0528  0.4901
 1188SOL     OW 3562   1.111   0.266   6.575 -0.2410 -0.3420 -0.4109
 1188SOL    HW1 3563   1.124   0.348   6.624 -1.4654  0.2947 -1.0880
 1188SOL    HW2 3564   1.199   0.231   6.562  0.2015  0.0870  1.1875
 1189SOL     OW 3565   0.226   4.453   5.222 -0.3824 -0.0223  0.0518
 1189SOL    HW1 3566   0.243   4.542   5.192  0.1944 -0.4278 -0.8459
 1189SOL    HW2 3567   0.271   4.448   5.307  0.5773  0.1994 -0.4239
 1190SOL     OW 3568   4.986   1.290   5.616 -0.2648  0.1668  0.3855
 1190SOL    HW1 3569   4.902   1.256   5.584 -0.0121  0.5652 -0.7540
 1190SOL    HW2 3570   4.997   1.250   5.702 -1.0291 -0.8783  0.0155
 1191SOL     OW 3571   2.845   2.322   6.277  0.3949 -0.1714 -0.4759
 1191SOL    HW1 3572   2.854   2.387   6.347  0.6170  0.1996 -0.8406
 1191SOL    HW2 3573   2.789   2.365   6.212  1.1258 -0.0670 -1.0440
 1192SOL     OW 3574   2.446   2.798   7.602  0.2436  0.0132  0.3719
 1192SOL    HW1 3575   2.502   2.844   7.539  0.8401 -0.5249  0.5053
 1192SOL    HW2 3576   2.490   2.809   7.686 -1.5858  2.5317  1.1449
 1193SOL     OW 3577   4.616   0.321   6.624  0.4633  0.2204  0.4743
 1193SOL    HW1 3578   4.688   0.323   6.687 -0.1181 -1.6054  1.2485
 1193SOL    HW2 3579   4.547   0.272   6.667 -0.5620  0.3217 -0.9832
 1194SOL     OW 3580   1.820   4.148   5.884 -0.0335 -0.2052 -0.6624
 1194SOL    HW1 3581   1.859   4.231   5.912 -0.1290  0.6519 -2.9202
 1194SOL    HW2 3582   1.727   4.167   5.872 -0.2183 -0.8761 -0.3805
 1195SOL     OW 3583   2.335   4.125   5.972 -0.4141 -0.1634  0.6238
 1195SOL    HW1 3584   2.286   4.046   5.951  0.8301 -0.5548 -1.0179
 1195SOL    HW2 3585   2.329   4.179   5.893 -0.3583  0.9023  1.3366
 1196SOL     OW 3586   0.070   3.319   5.865 -0.2560  0.0277  0.0012
 1196SOL    HW1 3587   0.136   3.352   5.926 -0.4054  0.4022 -0.0343
 1196SOL    HW2 3588   0.010   3.269   5.920  0.2839 -0.6713 -0.0284
 1197SOL     OW 3589   4.573   0.783   4.953 -0.2207  0.6659 -0.1088
 1197SOL    HW1 3590   4.539   0.788   4.864  2.2426  1.0286 -1.1146
 1197SOL    HW2 3591   4.595   0.690   4.965 -0.5503  0.6171  0.1261
 1198SOL     OW 3592   0.706  -0.024   5.368 -0.3385  0.2424  0.4099
 1198SOL    HW1 3593   0.792   0.011   5.392 -0.3686  1.3060 -0.9119
 1198SOL    HW2 3594   0.683   0.022   5.287 -1.0209 -1.8628 -0.6811
 1199SOL     OW 3595   2.336   2.545   5.652 -0.0024  0.0632  0.6884
 1199SOL    HW1 3596   2.337   2.639   5.671 -1.4034 -0.1067  1.7122
 1199SOL    HW2 3597   2.253   2.531   5.607  0.2946 -0.6603  0.3596
 1200SOL     OW 3598   1.911   4.600   6.839 -0.3991 -0.0558 -0.1155
 1200SOL    HW1 3599   1.820   4.630   6.846 -0.7019 -0.6811 -1.1598
 1200SOL    HW2 3600   1.922   4.581   6.746  0.8407  0.1184 -0.0121
 1201SOL     OW 3601   1.494   4.874   5.427 -0.7373 -0.4416 -0.5279
 1201SOL    HW1 3602   1.474   4.881   5.521 -0.7607 -0.6047 -0.5206
 1201SOL    HW2 3603   1.548   4.795   5.420  0.7907  0.5500 -0.4008
 1202SOL     OW 3604   1.644   2.792   6.373 -0.4872 -0.2394 -0.6073
 1202SOL    HW1 3605   1.729   2.754   6.353  0.6362  2.3944 -1.1733
 1202SOL    HW2 3606   1.623   2.759   6.461  0.1414 -2.4428 -1.2140
 1203SOL     OW 3607   0.634   3.477   5.807 -0.0958 -0.4046  0.1313
 1203SOL    HW1 3608   0.638   3.431   5.891  2.1164 -0.0796  0.2760
 1203SOL    HW2 3609   0.695   3.429   5.751  0.0249  0.6076 -0.6307
 1204SOL     OW 3610   2.373   3.704   5.615 -0.6145  0.9224  0.3258
 1204SOL    HW1 3611   2.455   3.752   5.608  0.8579 -1.4541  0.1669
 1204SOL    HW2 3612   2.317   3.759   5.671  2.5455  0.7928  4.0245
 1205SOL     OW 3613   0.904   4.689   7.114 -0.2559  0.4650 -0.0302
 1205SOL    HW1 3614   0.846   4.765   7.105  0.6426  1.1514 -0.2142
 1205SOL    HW2 3615   0.970   4.702   7.045  0.0323 -0.3655  0.0866
 1206SOL     OW 3616   0.928   2.098   5.377  0.1998  0.2099 -0.5002
 1206SOL    HW1 3617   1.009   2.048   5.362 -0.8549 -2.4176  1.7085
 1206SOL    HW2 3618   0.860   2.045   5.335 -0.6040  1.6126 -1.0363
 1207SOL     OW 3619   2.011   1.099   5.708 -0.3361 -0.4401  0.0811
 1207SOL    HW1 3620   2.034   1.188   5.682 -2.5748  0.0412 -0.4497
 1207SOL    HW2 3621   2.056   1.043   5.645  1.1068  0.2894  0.4315
 1208SOL     OW 3622   0.441   4.291   6.205 -0.1718 -0.3963  0.2374
 1208SOL    HW1 3623   0.361   4.273   6.156 -0.6416  0.4214  0.6833
 1208SOL    HW2 3624   0.412   4.340   6.282  0.6257 -1.0829  0.9974
 1209SOL     OW 3625   1.624   0.146   7.542 -0.4824 -0.2840  0.0939
 1209SOL    HW1 3626   1.685   0.209   7.578  0.6214 -1.9216  1.1923
 1209SOL    HW2 3627   1.667   0.061   7.552 -1.7019 -1.2070 -1.7598
 1210SOL     OW 3628   4.803   3.641   6.836  0.0811  0.5603  0.3636
 1210SOL    HW1 3629   4.797   3.715   6.896 -1.1217  1.3574 -0.7026
 1210SOL    HW2 3630   4.799   3.681   6.749  0.3008 -0.7017 -0.2407
 1211SOL     OW 3631   4.648   1.855   5.741  0.1523  0.3818 -0.0534
 1211SOL    HW1 3632   4.626   1.838   5.833  1.0974 -0.8073 -0.0160
 1211SOL    HW2 3633   4.565   1.847   5.694 -0.0821 -0.6225  0.5056
 1212SOL     OW 3634   0.589   5.014   5.858  0.0220 -0.2644 -0.0191
 1212SOL    HW1 3635   0.503   5.015   5.898  0.3626 -1.4052  0.7858
 1212SOL    HW2 3636   0.582   4.949   5.788 -0.1445  0.6388 -0.8651
 1213SOL     OW 3637   0.313   3.681   7.392  0.5514 -0.3146  0.3466
 1213SOL    HW1 3638   0.249   3.718   7.332 -1.3205  0.4658  2.6494
 1213SOL    HW2 3639   0.397   3.710   7.359 -0.5230  1.4834 -0.9602
 1214SOL     OW 3640   4.847   0.113   6.441 -0.0014  0.3751 -0.2722
 1214SOL    HW1 3641   4.785   0.178   6.409  0.7955  0.9254 -0.7353
 1214SOL    HW2 3642   4.803   0.029   6.429 -0.8641  0.7848 -0.0832
 1215SOL     OW 3643   1.829   0.545   9.061  0.6732  0.0855  0.2837
 1215SOL    HW1 3644   1.851   0.625   9.014  0.2893 -0.2680 -0.5166
 1215SOL    HW2 3645   1.912   0.517   9.101  0.8407  0.7906  0.4356
 1216SOL     OW 3646   1.558   2.655   7.978  0.5424 -0.1109  0.2676
 1216SOL    HW1 3647   1.649   2.667   7.952  0.9279 -1.2905  0.9892
 1216SOL    HW2 3648   1.560   2.650   8.073 -0.3261  0.1532  0.3087
 1217SOL     OW 3649   0.129   4.358   6.362  0.9610  0.1951 -0.1198
 1217SOL    HW1 3650   0.201   4.386   6.418  0.1088  0.1583  1.0298
 1217SOL    HW2 3651   0.073   4.435   6.354  0.5410 -0.1012 -0.0663
 1218SOL     OW 3652   3.837   1.108   5.525 -0.0124  0.3214  0.0517
 1218SOL    HW1 3653   3.876   1.036   5.476  0.8675  0.3582  0.6791
 1218SOL    HW2 3654   3.823   1.177   5.460 -0.8535 -0.3933 -0.5529
 1219SOL     OW 3655   0.022   0.452   7.776 -0.1713 -1.0842  0.1723
 1219SOL    HW1 3656   0.082   0.484   7.709  0.2470 -0.9666  0.5968
 1219SOL    HW2 3657  -0.027   0.382   7.733  2.0109 -2.9558  0.5047
 1220SOL     OW 3658   0.361   3.365   7.081  0.1088 -0.1708 -0.1798
 1220SOL    HW1 3659   0.373   3.442   7.025  0.7605  0.9449  1.4051
 1220SOL    HW2 3660   0.317   3.399   7.159  1.9916 -1.0105  1.3429
 1221SOL     OW 3661   0.369   0.061   6.201 -0.3578 -0.2396 -0.2405
 1221SOL    HW1 3662   0.291   0.107   6.231  1.1253  2.0688  0.2986
 1221SOL    HW2 3663   0.442   0.106   6.244  1.5035 -0.2657 -3.0984
 1222SOL     OW 3664   0.580   1.146   7.301  0.0376 -0.1426 -0.4667
 1222SOL    HW1 3665   0.634   1.123   7.226  0.7532 -2.3572  0.6368
 1222SOL    HW2 3666   0.625   1.221   7.341  0.0546  0.5778 -1.7754
 1223SOL     OW 3667   1.116   0.394   6.327  0.7048 -0.4069  0.0077
 1223SOL    HW1 3668   1.051   0.357   6.267 -1.3939  1.4944  0.9630
 1223SOL    HW2 3669   1.116   0.334   6.402  0.9070 -1.0242 -0.4770
 1224SOL     OW 3670   0.859   0.386   7.342 -0.3658 -0.1385 -0.4833
 1224SOL    HW1 3671   0.923   0.406   7.273 -1.5921  0.6292 -1.4261
 1224SOL    HW2 3672   0.776   0.378   7.296 -1.3355  1.0893  0.9870
 1225SOL     OW 3673   1.920   2.657   5.802  0.0665  0.2496  0.2575
 1225SOL    HW1 3674   1.980   2.597   5.758  0.1952  0.3285  0.3259
 1225SOL    HW2 3675   1.833   2.621   5.784  0.1582 -0.1141  0.5342
 1226SOL     OW 3676   0.728   0.922   5.395  0.0332 -0.0390 -0.2195
 1226SOL    HW1 3677   0.734   0.921   5.299  0.1982 -3.0727 -0.2854
 1226SOL    HW2 3678   0.679   1.001   5.415 -0.2635  0.5361 -2.8359
 1227SOL     OW 3679   0.560   4.348   5.161 -0.2499 -0.3050  0.4734
 1227SOL    HW1 3680   0.471   4.314   5.153 -0.4553 -0.0885  1.5970
 1227SOL    HW2 3681   0.596   4.302   5.237  0.9723 -1.1622 -0.5974
 1228SOL     OW 3682   0.620   4.979   7.427  0.0378 -0.1208  0.1602
 1228SOL    HW1 3683   0.586   4.922   7.496 -0.5600  0.9052  0.7421
 1228SOL    HW2 3684   0.574   5.062   7.440  0.2607  0.2379 -1.1919
 1229SOL     OW 3685   3.630   3.897   5.299  0.1442  0.0409  0.1893
 1229SOL    HW1 3686   3.691   3.957   5.256 -2.5702  1.4039 -2.0868
 1229SOL    HW2 3687   3.593   3.844   5.228  1.0800 -3.2023  1.9084
 1230SOL     OW 3688   0.924   4.894   5.900  0.3116  0.4580 -0.1182
 1230SOL    HW1 3689   1.013   4.912   5.933  1.1234 -1.5266 -1.0618
 1230SOL    HW2 3690   0.867   4.939   5.962  1.8921 -0.1463  1.9195
 1231SOL     OW 3691   3.140   1.308   6.552  0.2029 -0.1101  0.2752
 1231SOL    HW1 3692   3.101   1.299   6.465  0.4058  1.2207  0.0294
 1231SOL    HW2 3693   3.234   1.318   6.536  0.2823 -0.2052  0.6666
 1232SOL     OW 3694   0.095   4.921   6.257  0.0917 -0.4966 -0.5018
 1232SOL    HW1 3695   0.045   4.879   6.326  1.0253 -1.2813 -0.2755
 1232SOL    HW2 3696   0.131   5.000   6.298  0.0521 -0.5812 -0.3056
 1233SOL     OW 3697   2.963   2.935   6.439 -0.0410  0.1935  0.3000
 1233SOL    HW1 3698   3.059   2.940   6.433 -0.0282 -0.1744  0.1803
 1233SOL    HW2 3699   2.947   2.895   6.525 -0.1535  2.5918  1.4901
 1234SOL     OW 3700   2.264   0.087   7.201 -0.5799 -0.2609  0.2860
 1234SOL    HW1 3701   2.269   0.028   7.125  3.1027 -1.2503  1.1058
 1234SOL    HW2 3702   2.267   0.175   7.163  1.2783 -0.7386 -0.8106
 1235SOL     OW 3703   0.279   0.538   6.131 -0.5943 -0.1826 -0.1799
 1235SOL    HW1 3704   0.368   0.572   6.145 -0.4033 -0.3783 -0.9111
 1235SOL    HW2 3705   0.223   0.616   6.135 -0.5134 -0.1626  1.2127
 1236SOL     OW 3706   1.891   3.681   8.183 -0.2349  0.1389  0.2058
 1236SOL    HW1 3707   1.929   3.767   8.202  0.4238  0.0125 -0.4740
 1236SOL    HW2 3708   1.879   3.680   8.088 -2.5376  0.3962  0.4430
 1237SOL     OW 3709   4.742   2.971   7.321  0.3474  0.0689 -0.5507
 1237SOL    HW1 3710   4.768   2.907   7.254 -1.5996 -0.5900 -0.7274
 1237SOL    HW2 3711   4.823   3.018   7.341  1.5013 -1.3819 -1.5685
 1238SOL     OW 3712   4.603   3.908   6.498 -0.2633  0.3040 -0.1759
 1238SOL    HW1 3713   4.674   3.848   6.520 -2.4624 -3.5209 -2.3846
 1238SOL    HW2 3714   4.533   3.885   6.560 -0.6172  1.9391  0.0830
 1239SOL     OW 3715   1.825   3.511   6.189  0.4368  0.4385  0.2522
 1239SOL    HW1 3716   1.887   3.438   6.195  0.4699  0.3835 -0.6010
 1239SOL    HW2 3717   1.880   3.587   6.170  0.1844  0.2284 -1.4743
 1240SOL     OW 3718   0.828   0.486   5.413 -0.2883 -0.0152 -0.3770
 1240SOL    HW1 3719   0.911   0.529   5.393 -0.4158 -0.3327 -1.6741
 1240SOL    HW2 3720   0.778   0.552   5.462  0.9494 -0.0511  1.0091
 1241SOL     OW 3721   0.646   0.218   6.748 -0.0910  0.5434  0.2762
 1241SOL    HW1 3722   0.585   0.279   6.791 -1.5586 -0.1757 -0.7016
 1241SOL    HW2 3723   0.601   0.193   6.667  1.2084 -0.5844 -0.1199
 1242SOL     OW 3724   4.726   4.173   5.924 -0.3234 -0.0282 -0.2058
 1242SOL    HW1 3725   4.815   4.138   5.925 -0.3303 -0.0385  0.2460
 1242SOL    HW2 3726   4.720   4.226   6.004  0.6478  3.3808 -2.1608
 1243SOL     OW 3727   3.792   2.456   5.042  0.3786  0.3402 -0.4407
 1243SOL    HW1 3728   3.754   2.412   5.119  0.4330  0.4352 -0.3600
 1243SOL    HW2 3729   3.796   2.387   4.976  0.6822  0.1622 -0.2415
 1244SOL     OW 3730   3.873   1.366   6.292  0.3658  0.0170  0.0364
 1244SOL    HW1 3731   3.933   1.441   6.282  1.5983 -0.7048  1.6509
 1244SOL    HW2 3732   3.793   1.394   6.247  0.2625  2.8827  1.7645
 1245SOL     OW 3733   0.874   4.567   6.774 -0.6188 -0.3081 -0.7267
 1245SOL    HW1 3734   0.909   4.610   6.852 -1.6275  0.2185 -0.5552
 1245SOL    HW2 3735   0.950   4.525   6.734  0.0160 -0.0718  0.2075
 1246SOL     OW 3736   2.660   2.464   6.124  0.1249 -0.3110  0.4350
 1246SOL    HW1 3737   2.642   2.553   6.094 -2.1302 -0.8465  0.0777
 1246SOL    HW2 3738   2.688   2.417   6.046  1.6899  0.1103  0.6902
 1247SOL     OW 3739   0.050   0.633   6.555  0.0081 -0.8389  0.4520
 1247SOL    HW1 3740  -0.019   0.637   6.489 -0.9155 -0.6591  1.3972
 1247SOL    HW2 3741   0.085   0.722   6.560  0.1762 -0.8860  0.1073
 1248SOL     OW 3742   4.865   0.504   5.057  0.4522 -0.3988  0.5418
 1248SOL    HW1 3743   4.948   0.462   5.078  0.2583 -0.2480  1.6976
 1248SOL    HW2 3744   4.800   0.434   5.065  0.4953 -0.6153 -0.7698
 1249SOL     OW 3745   4.349   1.609   5.883 -0.4477 -0.0654  0.3090
 1249SOL    HW1 3746   4.299   1.604   5.965 -0.7381  1.3884  0.2452
 1249SOL    HW2 3747   4.282   1.618   5.815 -0.1403  0.7613  0.1125
 1250SOL     OW 3748   0.441   0.053   5.289 -0.3396  0.4986  0.5304
 1250SOL    HW1 3749   0.440   0.009   5.204 -1.8361  1.8520 -0.1907
 1250SOL    HW2 3750   0.494  -0.005   5.344  0.6336 -0.4423 -1.2772
 1251SOL     OW 3751   3.984   4.382   6.113  0.1739 -0.0826 -0.3462
 1251SOL    HW1 3752   4.049   4.426   6.168 -1.2545  2.2473 -0.3840
 1251SOL    HW2 3753   3.915   4.355   6.173  0.3393 -0.9357 -0.5307
 1252SOL     OW 3754   4.224   4.324   5.840 -0.0614 -0.1885 -0.7693
 1252SOL    HW1 3755   4.319   4.322   5.831 -0.0503 -0.8432 -0.5913
 1252SOL    HW2 3756   4.198   4.408   5.803  0.6378  0.2405 -0.3113
 1253SOL     OW 3757   0.922   3.871   6.323 -0.5036 -0.2660 -0.1860
 1253SOL    HW1 3758   1.003   3.821   6.308 -1.4718 -2.0029  0.0527
 1253SOL    HW2 3759   0.934   3.911   6.409  0.7736  0.9259 -0.8884
 1254SOL     OW 3760   1.046   3.904   5.606 -0.1121 -0.2263 -0.1952
 1254SOL    HW1 3761   1.093   3.916   5.688  0.0719  1.2068 -0.4735
 1254SOL    HW2 3762   0.957   3.935   5.625 -0.4750 -1.2523 -0.1581
 1255SOL     OW 3763   3.637   1.237   5.952  0.3256  0.3060  0.3722
 1255SOL    HW1 3764   3.678   1.175   6.012  1.2419 -0.2821 -0.8182
 1255SOL    HW2 3765   3.696   1.312   5.951  0.8881 -0.1263 -0.5761
 1256SOL     OW 3766   1.140   0.427   7.299 -0.4119 -0.4193 -0.8276
 1256SOL    HW1 3767   1.152   0.519   7.321  0.0536 -0.3346 -1.3954
 1256SOL    HW2 3768   1.140   0.381   7.383 -0.9366  0.1272 -0.5254
 1257SOL     OW 3769   0.802   2.578   5.513 -0.2769  0.1789  0.1161
 1257SOL    HW1 3770   0.757   2.586   5.429  0.2530 -0.2847 -0.2183
 1257SOL    HW2 3771   0.890   2.549   5.490  0.0296  0.5482  0.7980
 1258SOL     OW 3772   4.724   3.789   5.275 -0.1255 -0.1928  0.2328
 1258SOL    HW1 3773   4.633   3.762   5.283 -0.5415  1.5900  2.9781
 1258SOL    HW2 3774   4.771   3.734   5.338 -0.2578  2.0578  2.5023
 1259SOL     OW 3775   1.580   4.710   6.364 -0.1705  0.1966  0.4285
 1259SOL    HW1 3776   1.635   4.740   6.437  0.1561  0.1501  0.2055
 1259SOL    HW2 3777   1.642   4.695   6.292 -0.3437 -0.9010  0.4949
 1260SOL     OW 3778   3.902   4.575   6.803 -0.6051  0.2553 -0.2285
 1260SOL    HW1 3779   3.971   4.635   6.830 -0.0456  0.7316 -2.4730
 1260SOL    HW2 3780   3.822   4.610   6.841  0.3217 -0.2480  2.3421
 1261SOL     OW 3781   1.195   1.412   6.616  0.3846 -0.0458 -0.6222
 1261SOL    HW1 3782   1.116   1.465   6.613 -1.3969 -2.0761  3.0336
 1261SOL    HW2 3783   1.166   1.323   6.595  1.7128 -0.7815  0.4067
 1262SOL     OW 3784   4.702   4.660   6.803 -0.0837  0.6697 -0.7497
 1262SOL    HW1 3785   4.740   4.705   6.727  0.1018  1.1482 -0.3863
 1262SOL    HW2 3786   4.777   4.625   6.850 -0.1404  0.9743 -0.4232
 1263SOL     OW 3787   0.586   3.896   6.586 -0.1886  0.8237 -0.2279
 1263SOL    HW1 3788   0.496   3.927   6.596 -0.0551  0.8465  1.0305
 1263SOL    HW2 3789   0.587   3.853   6.500 -2.2504 -1.9857  0.9882
 1264SOL     OW 3790   0.979   4.809   5.184 -0.0321 -0.1893  0.2251
 1264SOL    HW1 3791   0.977   4.899   5.154  0.9239 -0.1461  0.2689
 1264SOL    HW2 3792   1.066   4.777   5.160 -0.9652 -1.6784 -1.4750
 1265SOL     OW 3793   4.442   3.055   6.261 -0.3103  0.2574  0.5299
 1265SOL    HW1 3794   4.394   3.077   6.180 -1.1058  0.3632  1.0149
 1265SOL    HW2 3795   4.426   2.962   6.272 -0.2227  0.2489  0.5768
 1266SOL     OW 3796   1.522   3.808   7.005 -0.6845 -0.2244  0.2360
 1266SOL    HW1 3797   1.575   3.753   7.062 -3.6301 -2.4640  1.0619
 1266SOL    HW2 3798   1.466   3.746   6.958 -1.3371  1.8654 -1.9126
 1267SOL     OW 3799   1.431   4.239   8.728  0.6103  0.0139 -0.2794
 1267SOL    HW1 3800   1.408   4.146   8.729 -0.5926  0.2938 -0.4306
 1267SOL    HW2 3801   1.446   4.261   8.820  0.3393 -0.2061 -0.1821
 1268SOL     OW 3802   0.892   4.450   8.046 -0.6503  0.4335 -0.0525
 1268SOL    HW1 3803   0.817   4.505   8.070  0.2635  1.2308  1.0295
 1268SOL    HW2 3804   0.959   4.512   8.017 -0.3860 -0.2769 -1.0111
 1269SOL     OW 3805   1.743   3.856   5.871  0.2785  0.2066  0.4868
 1269SOL    HW1 3806   1.666   3.819   5.828  0.1009  0.1916  0.8218
 1269SOL    HW2 3807   1.714   3.940   5.906  0.3665  0.1212  0.7681
 1270SOL     OW 3808   0.433   0.688   5.101 -0.7137 -0.0736 -0.1317
 1270SOL    HW1 3809   0.449   0.667   5.193 -1.5921 -1.1210 -0.2003
 1270SOL    HW2 3810   0.412   0.604   5.061 -1.4913  0.5406 -1.0471
 1271SOL     OW 3811   0.261   4.244   6.631  0.1147 -0.1275 -0.1943
 1271SOL    HW1 3812   0.184   4.260   6.687 -0.6120  1.2112 -1.5313
 1271SOL    HW2 3813   0.336   4.269   6.686 -0.4212 -0.7717  0.8768
 1272SOL     OW 3814   0.163   1.067   8.790  0.4729  1.0129  0.2415
 1272SOL    HW1 3815   0.192   1.036   8.705 -0.3744  1.2348 -0.1440
 1272SOL    HW2 3816   0.067   1.072   8.782 -0.0454 -2.4569  2.3232
 1273SOL     OW 3817   2.448   0.244   5.298 -0.2336 -0.2528  0.1237
 1273SOL    HW1 3818   2.410   0.216   5.381 -0.5352 -0.3303 -0.0389
 1273SOL    HW2 3819   2.449   0.165   5.244  0.4036 -0.3105  0.2160
 1274SOL     OW 3820   0.004   4.895   5.360  0.3477 -0.2390 -0.0202
 1274SOL    HW1 3821   0.076   4.843   5.396  0.8042  0.4695  0.0985
 1274SOL    HW2 3822  -0.048   4.920   5.436  0.9628  0.7250  0.1092
 1275SOL     OW 3823   4.857   0.575   6.319  0.3052 -0.4905  0.3626
 1275SOL    HW1 3824   4.897   0.513   6.257  1.1946 -1.7032  2.0751
 1275SOL    HW2 3825   4.849   0.657   6.269  1.9984 -1.0973 -1.0080
 1276SOL     OW 3826   2.814   4.737   5.405  0.6643  0.0760 -0.5381
 1276SOL    HW1 3827   2.751   4.665   5.413  0.9871 -0.2714 -1.0889
 1276SOL    HW2 3828   2.896   4.694   5.379  0.9721  0.5971 -0.4362
 1277SOL     OW 3829   0.741   0.055   6.088 -0.5687  0.6223 -0.4939
 1277SOL    HW1 3830   0.678   0.058   6.015 -1.0732  0.9761 -0.0483
 1277SOL    HW2 3831   0.704  -0.009   6.149  0.8931 -1.2637 -1.4695
 1278SOL     OW 3832   0.870   2.002   6.621  0.0709  0.2238 -0.4329
 1278SOL    HW1 3833   0.867   1.943   6.546 -1.0002  0.2342 -0.4157
 1278SOL    HW2 3834   0.791   2.055   6.613  0.5787  1.0748  0.0218
 1279SOL     OW 3835   0.371   4.682   8.069 -0.4945  0.6539 -0.2037
 1279SOL    HW1 3836   0.311   4.661   8.141  0.4738 -0.2126  0.3876
 1279SOL    HW2 3837   0.425   4.603   8.059 -1.1366  0.4408 -2.4584
 1280SOL     OW 3838   2.285   4.559   5.480  0.2888  0.0402  0.6521
 1280SOL    HW1 3839   2.259   4.561   5.388  0.2449  0.7085  0.6740
 1280SOL    HW2 3840   2.261   4.471   5.510 -0.3570  0.0583  0.2111
 1281SOL     OW 3841   4.836   0.288   6.805  0.1974  0.8365 -0.4668
 1281SOL    HW1 3842   4.897   0.281   6.879 -0.5237 -0.1833  0.0478
 1281SOL    HW2 3843   4.893   0.292   6.728  0.9497  1.5431  0.0993
 1282SOL     OW 3844   1.450   3.918   6.660 -0.5586 -0.5649  0.1955
 1282SOL    HW1 3845   1.390   3.971   6.713 -1.1378 -0.6212 -0.3864
 1282SOL    HW2 3846   1.399   3.839   6.640 -0.2230 -0.6925 -0.1549
 1283SOL     OW 3847   3.760   3.391   5.073  0.4652  0.1073 -0.0296
 1283SOL    HW1 3848   3.847   3.350   5.073  0.9512  1.0851  1.1245
 1283SOL    HW2 3849   3.748   3.420   4.982  0.9404 -0.8410 -0.4132
 1284SOL     OW 3850   3.738   0.145   4.923  0.0117  0.7698 -0.3492
 1284SOL    HW1 3851   3.679   0.210   4.961 -0.3364  0.4852 -0.4009
 1284SOL    HW2 3852   3.684   0.097   4.860 -0.8722 -2.0994  2.3228
 1285SOL     OW 3853   4.803   4.952   5.558  0.5993  0.5314 -0.1616
 1285SOL    HW1 3854   4.762   5.038   5.554 -0.2215  0.1272 -0.6068
 1285SOL    HW2 3855   4.750   4.902   5.620  1.0959  0.3439  0.1288
 1286SOL     OW 3856   4.482   4.211   6.786  1.0024  0.0299 -0.2866
 1286SOL    HW1 3857   4.463   4.256   6.704  1.8277  0.8089 -0.0695
 1286SOL    HW2 3858   4.475   4.279   6.853 -0.2813 -0.7269  0.3777
 1287SOL     OW 3859   4.478   0.191   5.509 -0.3961  0.5788  0.4831
 1287SOL    HW1 3860   4.470   0.283   5.482  1.4279  0.5006 -0.5014
 1287SOL    HW2 3861   4.549   0.190   5.573  0.3430 -0.2588 -0.3134
 1288SOL     OW 3862   3.998   1.352   7.528  0.5090  0.2782 -0.9566
 1288SOL    HW1 3863   3.951   1.371   7.447  2.0985 -0.3807 -2.0994
 1288SOL    HW2 3864   4.069   1.416   7.530 -1.8318  3.1099  2.1516
 1289SOL     OW 3865   1.687   0.155   8.242  0.3828 -0.0029 -0.3212
 1289SOL    HW1 3866   1.690   0.250   8.232  0.3390 -0.0397 -0.6776
 1289SOL    HW2 3867   1.767   0.134   8.291  0.8619  0.1237 -1.0326
 1290SOL     OW 3868   1.578   4.806   5.935 -0.4370 -0.6031 -0.2103
 1290SOL    HW1 3869   1.541   4.724   5.970  1.3538 -0.8625  1.2651
 1290SOL    HW2 3870   1.649   4.777   5.877  0.2281 -0.1231  0.3421
 1291SOL     OW 3871   1.193   4.074   7.686 -0.2297 -0.0895 -0.0382
 1291SOL    HW1 3872   1.165   4.086   7.595  1.3623  1.3052 -0.4069
 1291SOL    HW2 3873   1.125   4.117   7.738 -0.8234 -0.3330 -0.6044
 1292SOL     OW 3874   3.103   3.383   9.320 -0.0659 -0.1184  0.3331
 1292SOL    HW1 3875   3.031   3.355   9.376 -1.2094 -2.4462 -2.0985
 1292SOL    HW2 3876   3.168   3.313   9.327  0.8977  0.7599  0.5636
 1293SOL     OW 3877   1.389   0.204   8.682 -0.4246  0.4289  0.0103
 1293SOL    HW1 3878   1.375   0.264   8.755  0.7175  0.1409  0.4770
 1293SOL    HW2 3879   1.321   0.137   8.694 -1.9639  1.7751 -0.7303
 1294SOL     OW 3880   0.944   3.722   8.886  0.1187  0.1371  0.8376
 1294SOL    HW1 3881   0.885   3.798   8.891  1.8068  1.7800 -1.6732
 1294SOL    HW2 3882   0.920   3.679   8.804  1.6588  0.2178  0.3207
 1295SOL     OW 3883   3.766   2.428   9.314  0.1875 -0.0762 -0.3681
 1295SOL    HW1 3884   3.675   2.426   9.284 -0.0359  0.5867  0.2299
 1295SOL    HW2 3885   3.790   2.335   9.321 -0.0994 -0.2566 -1.5054
 1296SOL     OW 3886   0.809   4.003   8.817 -0.4850  0.2525  0.3983
 1296SOL    HW1 3887   0.732   4.024   8.765 -0.7956 -0.2331  0.6606
 1296SOL    HW2 3888   0.781   4.013   8.908 -0.3464 -0.2876  0.5029
 1297SOL     OW 3889   4.934   3.393   7.353  0.3636  0.2821  0.0648
 1297SOL    HW1 3890   4.912   3.443   7.274  1.2905  1.4300  0.5099
 1297SOL    HW2 3891   4.908   3.449   7.426  0.5718 -0.2757  0.5774
 1298SOL     OW 3892   1.224   3.845   7.325  0.2244  0.3151 -0.0117
 1298SOL    HW1 3893   1.184   3.790   7.257  0.2751 -1.6286  1.4418
 1298SOL    HW2 3894   1.311   3.807   7.338 -0.1842 -0.0465  1.8613
 1299SOL     OW 3895   1.714   4.528   8.960 -0.3518  0.0118 -0.2706
 1299SOL    HW1 3896   1.691   4.603   8.905 -1.1506 -0.7544 -1.0028
 1299SOL    HW2 3897   1.721   4.454   8.899 -0.9861 -0.7961  0.6163
 1300SOL     OW 3898   3.158   2.198   5.313  0.1662  0.1222  0.2744
 1300SOL    HW1 3899   3.129   2.278   5.267 -0.0005 -0.0001  0.1617
 1300SOL    HW2 3900   3.094   2.187   5.384 -1.4330 -1.3583 -1.2778
 1301SOL     OW 3901   2.171   3.959   7.738 -0.1568  0.6868  0.2844
 1301SOL    HW1 3902   2.153   4.039   7.788  1.3584  1.4082 -0.2564
 1301SOL    HW2 3903   2.163   3.889   7.802  0.3098  1.4547  1.2223
 1302SOL     OW 3904   0.036   3.755   8.538 -0.3534 -0.7608 -0.5938
 1302SOL    HW1 3905  -0.023   3.688   8.572  0.6126 -0.6567  1.4179
 1302SOL    HW2 3906   0.075   3.795   8.616  0.2521  1.1091 -1.7786
 1303SOL     OW 3907   0.511   1.879   8.804  0.2921  0.1292 -0.2738
 1303SOL    HW1 3908   0.506   1.805   8.865  0.1426 -1.1801 -1.8121
 1303SOL    HW2 3909   0.550   1.949   8.856  0.5115 -1.0305  1.2308
 1304SOL     OW 3910   1.426   4.643   8.027 -0.0663 -0.2266 -0.3751
 1304SOL    HW1 3911   1.451   4.591   7.950 -1.1426 -0.2148 -0.7391
 1304SOL    HW2 3912   1.372   4.584   8.079  2.3853 -0.9846  1.4945
 1305SOL     OW 3913   4.906   2.321   5.603 -0.0104  0.1248  0.0314
 1305SOL    HW1 3914   4.870   2.246   5.651 -0.8267  0.2845 -0.3116
 1305SOL    HW2 3915   4.834   2.351   5.548  0.0570  1.6256  0.7048
 1306SOL     OW 3916   4.507   1.133   9.885  0.7183  0.2810  0.5220
 1306SOL    HW1 3917   4.517   1.052   9.835  0.8610  1.0903 -0.8139
 1306SOL    HW2 3918   4.412   1.144   9.893  0.6937  0.1675  0.3947
 1307SOL     OW 3919   1.569   0.465   7.904  0.1454  0.4780  0.4721
 1307SOL    HW1 3920   1.536   0.375   7.913 -1.3381  0.9531  0.1022
 1307SOL    HW2 3921   1.496   0.513   7.865  1.3489  1.5958 -0.4854
 1308SOL     OW 3922   4.570   0.492   6.853 -0.3128 -0.4279 -0.0207
 1308SOL    HW1 3923   4.653   0.444   6.852 -0.3670 -0.5212 -0.0476
 1308SOL    HW2 3924   4.503   0.424   6.855 -0.3761 -0.3489  1.0995
 1309SOL     OW 3925   0.461   0.235   9.250 -0.3670 -0.1325 -0.0814
 1309SOL    HW1 3926   0.383   0.276   9.287 -0.8234 -1.0958  0.0665
 1309SOL    HW2 3927   0.475   0.281   9.167 -1.7340 -0.6332 -0.6273
 1310SOL     OW 3928   2.764   4.397   7.494 -0.3427 -0.1813 -0.4045
 1310SOL    HW1 3929   2.826   4.324   7.501 -0.3375 -0.0568  1.2897
 1310SOL    HW2 3930   2.796   4.462   7.556 -1.7397  0.2006 -0.0409
 1311SOL     OW 3931   0.917   3.522   8.155  0.4252 -0.4159  0.2529
 1311SOL    HW1 3932   0.878   3.563   8.078  1.4637 -2.8291 -1.7053
 1311SOL    HW2 3933   1.005   3.558   8.159  0.0439  0.4608  0.9516
 1312SOL     OW 3934   2.679   3.586   9.261 -0.0681 -0.2223 -0.0026
 1312SOL    HW1 3935   2.653   3.656   9.201 -0.8971  0.0681  0.6871
 1312SOL    HW2 3936   2.597   3.557   9.301  0.2299 -1.7065 -0.3929
 1313SOL     OW 3937   2.120   4.132   8.592  0.3564 -0.1564  0.0903
 1313SOL    HW1 3938   2.050   4.167   8.537  0.4557 -1.8249 -1.1627
 1313SOL    HW2 3939   2.086   4.137   8.681 -1.8585 -1.9406 -0.5671
 1314SOL     OW 3940   2.268   4.327   8.996  0.6288 -0.0964  0.0568
 1314SOL    HW1 3941   2.283   4.377   8.916  0.7377 -1.0957 -0.5631
 1314SOL    HW2 3942   2.348   4.338   9.046  0.6254  0.3975 -0.0325
 1315SOL     OW 3943   0.126   0.267   5.919 -0.0899 -0.5483 -0.3444
 1315SOL    HW1 3944   0.115   0.175   5.942  0.7075 -0.4279  0.6213
 1315SOL    HW2 3945   0.216   0.287   5.946 -1.0617  1.1928  2.0087
 1316SOL     OW 3946   4.897   3.072   8.447 -0.3457 -0.4703 -0.2395
 1316SOL    HW1 3947   4.920   3.099   8.358 -0.9506 -1.7406 -0.8131
 1316SOL    HW2 3948   4.967   3.107   8.501  3.2609 -4.2183 -1.8826
 1317SOL     OW 3949   4.551   2.790   8.102 -0.1466  0.7360 -0.3320
 1317SOL    HW1 3950   4.504   2.792   8.019 -0.2880  0.5990 -0.2559
 1317SOL    HW2 3951   4.506   2.723   8.153  1.2675 -0.7438 -0.9455
 1318SOL     OW 3952   4.167   4.933   7.456 -0.5130  0.8392  0.0299
 1318SOL    HW1 3953   4.171   5.026   7.435 -0.3187  1.0021  0.7633
 1318SOL    HW2 3954   4.230   4.921   7.528 -0.8355  0.2261  0.2238
 1319SOL     OW 3955   0.480   4.386   6.721  0.1734  0.0883  0.4203
 1319SOL    HW1 3956   0.549   4.326   6.749  0.2547  0.2236  0.5093
 1319SOL    HW2 3957   0.526   4.456   6.675  0.1078  0.2459  0.5957
 1320SOL     OW 3958   0.597   4.572   6.967  0.3050  0.4317 -0.0294
 1320SOL    HW1 3959   0.527   4.609   6.912  2.2297  1.1981 -2.1452
 1320SOL    HW2 3960   0.674   4.570   6.909  1.8277 -1.2145  1.9077
 1321SOL     OW 3961   1.451   0.605   7.237 -0.8396 -0.1270 -0.3234
 1321SOL    HW1 3962   1.417   0.516   7.226 -2.1776  0.4159 -0.6856
 1321SOL    HW2 3963   1.525   0.610   7.175 -0.9146 -0.8912 -0.4858
 1322SOL     OW 3964   4.907   0.164   7.259  0.1827  0.3719 -0.3635
 1322SOL    HW1 3965   4.896   0.086   7.314  0.0705 -0.2635 -1.2682
 1322SOL    HW2 3966   4.866   0.235   7.309 -0.6263 -0.3520  0.0139
 1323SOL     OW 3967   0.786   4.837   8.956  0.6105 -0.3816  0.2785
 1323SOL    HW1 3968   0.847   4.799   9.019  0.1391 -1.6579 -0.0078
 1323SOL    HW2 3969   0.714   4.774   8.951  0.6843 -0.3717 -1.6196
 1324SOL     OW 3970   0.707   3.982   7.201  0.1939 -0.7804 -0.2485
 1324SOL    HW1 3971   0.738   4.069   7.177  1.3150 -1.2567 -0.6431
 1324SOL    HW2 3972   0.719   3.930   7.121  0.2260 -1.4551  0.1848
 1325SOL     OW 3973   1.943   4.243   8.086 -0.0368  0.0463 -0.4250
 1325SOL    HW1 3974   1.988   4.217   8.005  0.0102  1.5501 -0.9301
 1325SOL    HW2 3975   1.855   4.268   8.057 -0.9241 -1.9367  0.4145
 1326SOL     OW 3976   4.928   2.586   8.434 -0.1312  0.0729 -0.1268
 1326SOL    HW1 3977   4.914   2.680   8.443  0.4369  0.3626 -1.8543
 1326SOL    HW2 3978   5.006   2.568   8.487  0.2566  0.7401 -0.4595
 1327SOL     OW 3979   3.710   3.296   8.814 -0.2360  0.0662 -0.1285
 1327SOL    HW1 3980   3.785   3.246   8.779 -0.4911  0.6950 -1.6740
 1327SOL    HW2 3981   3.659   3.320   8.736  0.8013  4.3009  0.2414
 1328SOL     OW 3982   1.475   1.911   5.137  0.4341 -0.2735 -0.0021
 1328SOL    HW1 3983   1.438   1.825   5.119  1.1251 -0.5209 -0.3032
 1328SOL    HW2 3984   1.566   1.893   5.163  1.2611  0.4677 -2.1439
 1329SOL     OW 3985   4.973   3.141   8.176  0.1146  0.3397  0.0797
 1329SOL    HW1 3986   4.946   3.087   8.101  0.9197 -0.9063  0.6443
 1329SOL    HW2 3987   4.964   3.231   8.145 -0.3831 -0.1218 -1.2223
 1330SOL     OW 3988   2.009   0.167  10.060 -0.2016  0.1263  0.2511
 1330SOL    HW1 3989   2.086   0.218  10.036  1.0336 -1.3723  0.8250
 1330SOL    HW2 3990   1.965   0.220  10.127  0.1364  1.1464 -0.3151
 1331SOL     OW 3991   0.863   4.765   8.564 -0.8224  0.1492  0.3221
 1331SOL    HW1 3992   0.795   4.699   8.573  0.6597 -1.2855  1.5670
 1331SOL    HW2 3993   0.903   4.747   8.479 -1.2408  0.2632  0.0997
 1332SOL     OW 3994   4.781   3.968   9.516  0.3670 -0.0776  0.5031
 1332SOL    HW1 3995   4.816   3.980   9.605 -1.5090 -2.3188  1.6581
 1332SOL    HW2 3996   4.808   3.880   9.491 -0.7410 -0.2146 -0.3111
 1333SOL     OW 3997   4.766   2.317   6.294 -0.0422  0.2597 -0.5605
 1333SOL    HW1 3998   4.756   2.356   6.207 -1.8769  1.8005  0.2491
 1333SOL    HW2 3999   4.842   2.361   6.332 -0.5128  1.1844 -0.6408
 1334SOL     OW 4000   4.690   4.880   6.350  0.2136  0.1819  0.1156
 1334SOL    HW1 4001   4.613   4.829   6.374  0.6669 -0.0983  1.0303
 1334SOL    HW2 4002   4.708   4.855   6.259  0.1824 -0.9986  0.4123
 1335SOL     OW 4003   0.292   0.383   8.468  0.4455  0.1326 -0.1362
 1335SOL    HW1 4004   0.260   0.309   8.519 -1.0389  1.4093  0.8724
 1335SOL    HW2 4005   0.339   0.437   8.531  0.9142  0.3983 -0.7066
 1336SOL     OW 4006   0.230   3.938   9.168 -0.7432  0.7792 -0.5088
 1336SOL    HW1 4007   0.221   3.926   9.074 -1.0363 -1.5152 -0.2646
 1336SOL    HW2 4008   0.210   3.852   9.205  1.3151  1.0492  1.5186
 1337SOL     OW 4009   4.075   0.489   7.785  0.1807  0.1074 -0.0051
 1337SOL    HW1 4010   4.013   0.562   7.791  0.9914  0.8539 -0.5499
 1337SOL    HW2 4011   4.131   0.498   7.861 -0.7889 -0.9938  0.8873
 1338SOL     OW 4012   0.947   0.941   9.350 -0.0839 -0.6763 -0.7588
 1338SOL    HW1 4013   0.884   0.904   9.412  1.7189 -2.3102  0.2113
 1338SOL    HW2 4014   0.941   1.036   9.363  0.4717 -0.9493  2.2945
 1339SOL     OW 4015   1.863   3.069   8.624 -0.2630 -0.1133 -0.2024
 1339SOL    HW1 4016   1.781   3.024   8.644 -0.3540  0.4460  0.7359
 1339SOL    HW2 4017   1.906   3.013   8.559 -1.3849 -0.4026 -0.7183
 1340SOL     OW 4018   0.135   3.854   7.279  0.4414  0.7281 -0.1117
 1340SOL    HW1 4019   0.139   3.949   7.264 -0.1354  1.1231  1.8443
 1340SOL    HW2 4020   0.043   3.831   7.266  0.4845  0.5403 -0.0843
 1341SOL     OW 4021   1.201   4.207   9.331  0.8255 -0.1591  0.1494
 1341SOL    HW1 4022   1.173   4.127   9.376  0.3856 -0.0096  0.1494
 1341SOL    HW2 4023   1.296   4.197   9.321  0.7578 -0.7325  0.0439
 1342SOL     OW 4024   1.762   3.873   7.529  0.4900 -0.5885  0.2361
 1342SOL    HW1 4025   1.686   3.816   7.545  0.6995 -0.9860 -0.1868
 1342SOL    HW2 4026   1.731   3.938   7.466  0.4019 -0.5391  0.3295
 1343SOL     OW 4027   2.061   4.738   9.356 -0.2244 -0.3830 -0.0333
 1343SOL    HW1 4028   2.013   4.714   9.276  1.3306 -3.0400 -0.2972
 1343SOL    HW2 4029   2.153   4.731   9.331  0.2982 -0.0487  1.6958
 1344SOL     OW 4030   0.066   0.034   8.236 -0.3390 -0.1816  0.1337
 1344SOL    HW1 4031   0.117  -0.035   8.280 -0.1740 -0.7132 -0.8575
 1344SOL    HW2 4032   0.075   0.015   8.142  0.3054  1.6199 -0.2088
 1345SOL     OW 4033   0.302   3.829   6.745 -0.0701  0.7106 -0.2386
 1345SOL    HW1 4034   0.308   3.876   6.828  1.4452  1.0724 -0.5243
 1345SOL    HW2 4035   0.304   3.898   6.678  1.3307  0.3175 -0.6370
 1346SOL     OW 4036   2.210   3.080   8.212 -0.0165 -0.2905  0.1157
 1346SOL    HW1 4037   2.170   2.997   8.183 -1.2594  0.7728 -1.4335
 1346SOL    HW2 4038   2.285   3.054   8.265 -0.1646 -2.4121 -0.6257
 1347SOL     OW 4039   1.282   1.083   7.383 -0.5193  0.1237 -0.0578
 1347SOL    HW1 4040   1.278   1.155   7.321 -0.2313 -1.4406 -1.9895
 1347SOL    HW2 4041   1.327   1.013   7.337  0.7863 -0.7519  2.3516
 1348SOL     OW 4042   1.978   0.318   7.364  0.1416 -0.7263 -0.2691
 1348SOL    HW1 4043   1.884   0.301   7.371  0.1957 -0.9136 -0.0164
 1348SOL    HW2 4044   2.017   0.276   7.440  0.3516 -0.0142  0.0254
 1349SOL     OW 4045   1.005   2.634   6.621  0.5058 -0.0748 -0.0918
 1349SOL    HW1 4046   0.957   2.629   6.539  3.7893  1.2561 -2.2878
 1349SOL    HW2 4047   0.999   2.725   6.648 -0.4313 -0.4720  1.1447
 1350SOL     OW 4048   0.763   4.660   9.797 -0.6249  0.4581 -0.6958
 1350SOL    HW1 4049   0.847   4.673   9.755 -1.3112 -1.0151 -2.6238
 1350SOL    HW2 4050   0.778   4.593   9.863  0.0911  1.5941  0.3398
 1351SOL     OW 4051   3.571   0.692   7.440 -0.3104 -0.1069  0.3569
 1351SOL    HW1 4052   3.650   0.742   7.457 -0.9937  1.0631  0.1761
 1351SOL    HW2 4053   3.601   0.615   7.391  0.5332  1.0974 -1.0876
 1352SOL     OW 4054   2.029   4.872  10.024 -0.0016  0.5484  0.2218
 1352SOL    HW1 4055   2.025   4.854   9.930  0.9296  0.1223  0.2478
 1352SOL    HW2 4056   1.994   4.960  10.034 -0.3194  0.5074 -0.4977
 1353SOL     OW 4057   1.480   0.676   8.212 -0.2152 -0.2940  0.4508
 1353SOL    HW1 4058   1.400   0.646   8.255 -1.3744 -0.1283 -1.4755
 1353SOL    HW2 4059   1.460   0.765   8.184  0.9015 -0.0016  0.5530
 1354SOL     OW 4060   3.409   2.814   8.449 -0.6354 -0.0965  0.2681
 1354SOL    HW1 4061   3.360   2.760   8.511  0.6644 -0.6384  0.8599
 1354SOL    HW2 4062   3.457   2.751   8.395  0.5549  0.4348  0.6752
 1355SOL     OW 4063   0.471   0.492   9.131 -0.1270 -0.7178  0.4088
 1355SOL    HW1 4064   0.415   0.541   9.070  0.7891  2.1903  1.7148
 1355SOL    HW2 4065   0.548   0.468   9.079 -0.3175 -0.2010 -0.1280
 1356SOL     OW 4066   1.085   3.280   6.863  0.0430  0.4117  0.7190
 1356SOL    HW1 4067   1.099   3.368   6.828  1.1614 -0.5046 -1.3233
 1356SOL    HW2 4068   1.174   3.244   6.873 -0.3015  0.0159  3.0686
 1357SOL     OW 4069   1.909   4.681   8.450 -0.0993  0.0469 -0.3226
 1357SOL    HW1 4070   1.935   4.649   8.363  0.3275  0.0853 -0.2136
 1357SOL    HW2 4071   1.816   4.701   8.442 -0.0657  0.0341 -0.7698
 1358SOL     OW 4072   3.401   0.167   9.922 -0.1810  0.0784 -0.0768
 1358SOL    HW1 4073   3.495   0.176   9.938  0.2401 -2.4640 -0.6466
 1358SOL    HW2 4074   3.361   0.240   9.969  2.1045  1.5290 -0.2506
 1359SOL     OW 4075   0.410   2.227   7.761 -0.0780 -0.1476  0.0235
 1359SOL    HW1 4076   0.398   2.318   7.789 -1.5511 -1.0468  2.6782
 1359SOL    HW2 4077   0.504   2.220   7.743 -0.2102  2.3633 -2.4278
 1360SOL     OW 4078   1.319   3.461   6.225 -0.4865  0.4940 -0.1560
 1360SOL    HW1 4079   1.311   3.551   6.257  0.3548  0.5286 -0.0100
 1360SOL    HW2 4080   1.380   3.467   6.152 -1.2376  0.1871 -0.8155
 1361SOL     OW 4081   4.062   1.466   6.875 -0.4231 -0.1319  0.1090
 1361SOL    HW1 4082   4.141   1.514   6.896 -0.2472 -0.1504 -0.4778
 1361SOL    HW2 4083   4.076   1.378   6.910  0.3636 -0.5117 -1.1065
 1362SOL     OW 4084   0.429   0.491   7.459  0.2280 -0.2234 -0.7757
 1362SOL    HW1 4085   0.474   0.554   7.402  0.3089  0.8513  0.4383
 1362SOL    HW2 4086   0.498   0.428   7.483  0.6137  0.3157 -0.4635
 1363SOL     OW 4087   1.843   4.985   7.111  1.0326 -0.1151 -0.1829
 1363SOL    HW1 4088   1.834   4.899   7.069  1.2343 -0.0395 -0.3823
 1363SOL    HW2 4089   1.904   4.969   7.184 -0.4928 -0.5818  1.0363
 1364SOL     OW 4090   1.798   4.253   7.043 -0.2767 -0.0103  0.2417
 1364SOL    HW1 4091   1.764   4.188   6.982 -0.0840 -0.3022  0.4440
 1364SOL    HW2 4092   1.795   4.210   7.129 -1.4042  0.7119  0.5943
 1365SOL     OW 4093   4.788   0.830   7.004 -0.2667 -0.1861  0.1572
 1365SOL    HW1 4094   4.796   0.845   7.099 -0.4926  1.3886 -0.0450
 1365SOL    HW2 4095   4.808   0.737   6.993  1.0231 -0.1223  1.6050
 1366SOL     OW 4096   0.209   3.601   6.602 -0.1902  0.6359  0.0532
 1366SOL    HW1 4097   0.146   3.632   6.537 -0.5847  0.9615  0.5806
 1366SOL    HW2 4098   0.230   3.679   6.654  0.0978  0.3739  0.3358
 1367SOL     OW 4099   2.143   3.787   8.823 -0.0617  0.2836 -0.2089
 1367SOL    HW1 4100   2.050   3.768   8.824 -0.0915  0.4333 -0.0975
 1367SOL    HW2 4101   2.180   3.725   8.759  0.0023 -0.9097  0.9352
 1368SOL     OW 4102   1.133   3.651   8.061 -0.4469 -0.2441  0.5063
 1368SOL    HW1 4103   1.199   3.598   8.017 -0.2000  0.3199  0.1833
 1368SOL    HW2 4104   1.107   3.716   7.996 -1.2393 -0.3899  0.6691
 1369SOL     OW 4105   0.129   4.086   6.325 -0.0024  0.0775 -0.9489
 1369SOL    HW1 4106   0.174   4.088   6.240 -0.6826  1.1045 -1.3047
 1369SOL    HW2 4107   0.130   4.177   6.354 -2.8701  0.3678 -1.5387
 1370SOL     OW 4108   2.026   4.763   9.073  0.2455  0.0710  0.1259
 1370SOL    HW1 4109   2.072   4.782   8.991  1.8927 -1.7299  0.5596
 1370SOL    HW2 4110   1.999   4.672   9.065  0.8613 -0.2897  1.7357
 1371SOL     OW 4111   0.118   3.088   7.130 -0.9608  0.0020 -0.2190
 1371SOL    HW1 4112   0.134   3.171   7.086 -1.0576  0.1150 -0.0406
 1371SOL    HW2 4113   0.161   3.023   7.074  1.4320  0.4456  1.0128
 1372SOL     OW 4114   0.817   0.780   6.493 -0.4985 -0.9648 -0.2546
 1372SOL    HW1 4115   0.824   0.821   6.579 -3.1799 -0.0686 -0.3657
 1372SOL    HW2 4116   0.893   0.811   6.445 -0.0412  0.1921  1.1535
 1373SOL     OW 4117   0.631   4.294   7.422 -0.8453 -0.1131  0.5208
 1373SOL    HW1 4118   0.672   4.268   7.505 -2.1026  0.0173  1.1981
 1373SOL    HW2 4119   0.630   4.390   7.425 -0.5198 -0.0982  0.1683
 1374SOL     OW 4120   3.609   4.255   8.110  0.3039  0.0305  0.0407
 1374SOL    HW1 4121   3.648   4.220   8.030 -1.4218  0.6046 -1.1176
 1374SOL    HW2 4122   3.667   4.328   8.135  0.4419  0.3405 -1.1355
 1375SOL     OW 4123   0.298   1.067   8.500 -0.1262  0.1139 -0.6030
 1375SOL    HW1 4124   0.349   1.117   8.437  0.2387 -0.8545 -1.0945
 1375SOL    HW2 4125   0.236   1.018   8.447 -1.8910  1.5897  0.0168
 1376SOL     OW 4126   0.380   4.151   9.494  0.4370  0.0469  0.2960
 1376SOL    HW1 4127   0.312   4.140   9.560 -0.3056  0.4775 -0.3837
 1376SOL    HW2 4128   0.394   4.245   9.488 -0.6541  0.1544 -1.2677
 1377SOL     OW 4129   1.942   5.028   9.122  0.0740 -0.1387 -0.1043
 1377SOL    HW1 4130   1.977   4.938   9.118 -0.4975 -0.3545 -0.2996
 1377SOL    HW2 4131   1.850   5.017   9.144 -0.6430  0.2386 -2.6326
 1378SOL     OW 4132   3.939   4.423   6.585 -0.4403 -0.1397 -0.1245
 1378SOL    HW1 4133   3.948   4.466   6.670 -2.3509  1.9649 -0.8920
 1378SOL    HW2 4134   3.850   4.387   6.586  0.1422 -1.6492 -0.5989
 1379SOL     OW 4135   0.246   3.963   6.974  0.7539 -0.0101  0.0724
 1379SOL    HW1 4136   0.317   4.024   6.955  0.1425  0.1083 -2.1176
 1379SOL    HW2 4137   0.185   4.012   7.030  1.4850  0.5014  0.4265
 1380SOL     OW 4138   3.524   2.453   8.052  0.2556  0.1779  0.1366
 1380SOL    HW1 4139   3.605   2.403   8.039  0.2972  0.2348  0.1779
 1380SOL    HW2 4140   3.478   2.446   7.968 -0.9235 -2.0429  0.8833
 1381SOL     OW 4141   1.672   1.128   8.395 -0.5823 -0.0581  0.3108
 1381SOL    HW1 4142   1.631   1.188   8.458 -1.1885  0.5609 -0.6421
 1381SOL    HW2 4143   1.629   1.148   8.312 -0.7663 -1.8070 -0.0487
 1382SOL     OW 4144   1.208   1.175   8.376 -0.3297  0.4070  0.3281
 1382SOL    HW1 4145   1.198   1.205   8.285 -2.0695  0.7973  0.6132
 1382SOL    HW2 4146   1.127   1.127   8.394 -0.8750  1.9089  2.2488
 1383SOL     OW 4147   1.164   2.530   9.271  0.1183  0.5662 -0.0022
 1383SOL    HW1 4148   1.088   2.476   9.293  0.0667  0.5536 -0.2149
 1383SOL    HW2 4149   1.231   2.467   9.246  0.5032  0.5164  1.0864
 1384SOL     OW 4150   1.579   4.267   7.567 -0.0268  0.2638 -0.2716
 1384SOL    HW1 4151   1.518   4.207   7.611  1.6701 -0.3680  1.3411
 1384SOL    HW2 4152   1.614   4.321   7.637 -0.3603  2.1498 -1.4907
 1385SOL     OW 4153   4.908   4.222   6.478 -0.0934 -0.3619  0.3680
 1385SOL    HW1 4154   4.986   4.266   6.445  0.2655  0.5797  2.3464
 1385SOL    HW2 4155   4.941   4.151   6.532 -0.6613 -1.3735 -0.5679
 1386SOL     OW 4156   1.462   0.074   7.162 -0.4327 -0.3621 -0.2261
 1386SOL    HW1 4157   1.496   0.162   7.175  0.7668 -0.8682  0.1998
 1386SOL    HW2 4158   1.370   0.080   7.187 -0.2638  0.6768  0.1868
 1387SOL     OW 4159   0.328   4.828   6.094  0.9595  0.4804 -0.0415
 1387SOL    HW1 4160   0.372   4.908   6.122 -1.8873  2.5487 -0.9476
 1387SOL    HW2 4161   0.248   4.826   6.146 -1.2731  0.8680 -3.1667
 1388SOL     OW 4162   0.458   4.123   9.210 -0.2044 -0.5537  0.0366
 1388SOL    HW1 4163   0.450   4.174   9.290  0.6374 -0.2728 -0.0514
 1388SOL    HW2 4164   0.390   4.056   9.218 -0.0907 -0.5689  1.0127
 1389SOL     OW 4165   4.592   3.045   8.363 -0.3757  0.2065 -0.9251
 1389SOL    HW1 4166   4.687   3.044   8.365 -0.3692  0.9437  0.1313
 1389SOL    HW2 4167   4.569   3.137   8.347 -0.8853  0.6437  1.7846
 1390SOL     OW 4168   1.211   4.170   6.142 -0.1069 -0.2291 -0.0536
 1390SOL    HW1 4169   1.245   4.086   6.112 -1.7742 -0.3595 -1.8008
 1390SOL    HW2 4170   1.177   4.152   6.230  1.6698 -0.7435  0.5833
 1391SOL     OW 4171   1.643   1.789   6.897  0.0367  0.6453  0.0857
 1391SOL    HW1 4172   1.663   1.803   6.804  1.4381 -0.4998  0.1689
 1391SOL    HW2 4173   1.619   1.875   6.930  0.9408  1.3586 -1.0240
 1392SOL     OW 4174   0.182   0.199   7.824  0.0886  0.2370  0.1413
 1392SOL    HW1 4175   0.278   0.201   7.827  0.1223 -0.7822  0.2911
 1392SOL    HW2 4176   0.160   0.236   7.738  0.6777 -0.5911 -0.3873
 1393SOL     OW 4177   0.971   4.980   9.857  0.7063 -0.1051 -0.1529
 1393SOL    HW1 4178   0.981   4.897   9.811  0.2014 -0.1811 -0.1283
 1393SOL    HW2 4179   1.005   4.964   9.945  2.4602  0.2683 -0.7072
 1394SOL     OW 4180   1.465   4.856   7.017  0.2130 -0.0164 -0.1285
 1394SOL    HW1 4181   1.476   4.919   7.088  0.7122 -0.8377  0.5344
 1394SOL    HW2 4182   1.385   4.809   7.040  0.8728 -0.9092  0.3930
 1395SOL     OW 4183   1.186   4.471   9.696 -0.1273 -0.0876  0.0417
 1395SOL    HW1 4184   1.118   4.500   9.756 -0.7654  1.3915 -1.3317
 1395SOL    HW2 4185   1.246   4.421   9.751 -1.0551  0.5896  1.7565
 1396SOL     OW 4186   1.659   0.040   8.539  0.1312 -0.6464 -0.0769
 1396SOL    HW1 4187   1.684   0.126   8.572  0.2093 -1.2807  1.6520
 1396SOL    HW2 4188   1.741  -0.001   8.513  0.1623 -0.4147 -0.3430
 1397SOL     OW 4189   3.976   1.180   7.953 -0.1723  0.5609 -0.4303
 1397SOL    HW1 4190   4.064   1.214   7.937 -1.1763  2.4449 -2.5419
 1397SOL    HW2 4191   3.961   1.196   8.046  1.6766  0.1394  0.0014
 1398SOL     OW 4192   1.419   0.522   6.232  0.4595  0.3173  0.1071
 1398SOL    HW1 4193   1.347   0.566   6.185  1.7193  0.8983 -1.3665
 1398SOL    HW2 4194   1.486   0.590   6.241  0.4732  0.0707  2.3606
 1399SOL     OW 4195   1.672   4.016   7.949 -0.6251  0.5576  0.6499
 1399SOL    HW1 4196   1.595   3.966   7.923  0.7495  0.2098 -3.3764
 1399SOL    HW2 4197   1.735   3.950   7.976 -0.1325  0.3589 -0.8900
 1400SOL     OW 4198   3.298   4.153  10.366 -0.2661 -0.5540  0.4132
 1400SOL    HW1 4199   3.351   4.164  10.444  1.5457  2.2788 -1.0314
 1400SOL    HW2 4200   3.360   4.128  10.298 -1.4941 -1.1946 -0.5245
 1401SOL     OW 4201   1.673   3.698   7.239  0.6804  0.1624 -0.1920
 1401SOL    HW1 4202   1.629   3.631   7.292 -0.2451  0.7558 -0.1709
 1401SOL    HW2 4203   1.762   3.701   7.272  0.4060 -0.2314  0.6067
 1402SOL     OW 4204   1.569   1.001   6.591 -0.3064  0.2874  0.3732
 1402SOL    HW1 4205   1.479   1.019   6.616  0.0573 -1.7202  3.7513
 1402SOL    HW2 4206   1.612   1.087   6.592 -1.8533  1.1020 -0.0426
 1403SOL     OW 4207   0.052   2.772   8.227  0.5247 -0.1983  0.3434
 1403SOL    HW1 4208   0.026   2.680   8.221 -0.9968  0.1652  0.9296
 1403SOL    HW2 4209  -0.022   2.821   8.191  1.2077  0.8146  0.2613
 1404SOL     OW 4210   2.079   3.625   6.378 -0.1070  0.1236  0.2403
 1404SOL    HW1 4211   2.011   3.682   6.414  1.8136  1.5768  1.8121
 1404SOL    HW2 4212   2.040   3.537   6.378 -1.7743  0.8115  1.6387
 1405SOL     OW 4213   1.008   4.801   9.119  0.0055  0.0266 -0.6445
 1405SOL    HW1 4214   1.068   4.757   9.179  0.4959 -0.1810 -1.2850
 1405SOL    HW2 4215   0.984   4.882   9.165 -0.4958 -0.6473  0.3061
 1406SOL     OW 4216   4.130   1.956   7.195  0.1183 -0.1680 -0.2313
 1406SOL    HW1 4217   4.089   1.885   7.146 -0.5558  0.6123 -0.8287
 1406SOL    HW2 4218   4.200   1.988   7.138  0.7388 -0.6543  0.2418
 1407SOL     OW 4219   1.764   4.202   9.015  0.1522  0.3221  0.6629
 1407SOL    HW1 4220   1.751   4.147   9.093 -0.2794 -1.7290 -0.7627
 1407SOL    HW2 4221   1.858   4.195   8.997  0.7745  2.9278  2.4030
 1408SOL     OW 4222   0.923   0.114   8.438  0.3397  0.3946 -0.1322
 1408SOL    HW1 4223   0.864   0.065   8.495  0.0847  0.5351 -0.2704
 1408SOL    HW2 4224   1.010   0.081   8.458  0.6791  2.6240  2.6236
 1409SOL     OW 4225   2.639   0.192   8.512 -0.0873  0.1728 -0.1929
 1409SOL    HW1 4226   2.547   0.215   8.519  0.4451  2.6673 -0.3002
 1409SOL    HW2 4227   2.668   0.180   8.603 -0.0463  1.6159  0.0028
 1410SOL     OW 4228   1.967   3.316   6.958 -0.3289 -0.4933  0.3003
 1410SOL    HW1 4229   1.925   3.267   6.887  0.7788  0.4648 -1.0774
 1410SOL    HW2 4230   2.057   3.283   6.961  0.2774  1.0192 -0.2894
 1411SOL     OW 4231   4.544   1.857   8.233  0.2518  0.2566  0.2378
 1411SOL    HW1 4232   4.459   1.816   8.215 -0.1358 -0.0242  2.4771
 1411SOL    HW2 4233   4.578   1.880   8.146 -2.6560  1.5412 -0.6707
 1412SOL     OW 4234   0.052   1.213   7.432 -0.8273  0.1815  0.0287
 1412SOL    HW1 4235   0.131   1.256   7.399 -1.0844  0.8061  0.2050
 1412SOL    HW2 4236   0.067   1.120   7.417 -0.1987  0.3208 -0.2410
 1413SOL     OW 4237   2.067   4.611   8.170  0.3946  0.1285 -0.3511
 1413SOL    HW1 4238   2.003   4.640   8.105 -0.5414 -1.9723 -0.4589
 1413SOL    HW2 4239   2.093   4.691   8.216 -1.0992  1.2609 -1.3812
 1414SOL     OW 4240   3.527   3.945   6.365 -0.7854 -0.0532 -0.6943
 1414SOL    HW1 4241   3.545   3.913   6.453 -1.5304 -0.2886 -0.6203
 1414SOL    HW2 4242   3.611   3.939   6.319 -0.2600  0.5820  0.1466
 1415SOL     OW 4243   4.808   1.889   6.348 -0.2477  0.6841  0.7025
 1415SOL    HW1 4244   4.855   1.934   6.277 -0.2492  0.0719  0.3002
 1415SOL    HW2 4245   4.718   1.883   6.316 -0.4348  1.1549  1.1318
 1416SOL     OW 4246   4.692   2.005   5.149 -0.5656  0.1567 -0.0715
 1416SOL    HW1 4247   4.684   1.916   5.116  0.6087 -0.0826  0.2444
 1416SOL    HW2 4248   4.646   2.059   5.085 -0.0239 -0.5132 -1.0427
 1417SOL     OW 4249   0.741   4.932   7.197 -0.3412  0.5049 -0.0975
 1417SOL    HW1 4250   0.710   5.006   7.144  0.6348  2.9992  2.5401
 1417SOL    HW2 4251   0.685   4.932   7.274  0.8863 -0.2963  0.8397
 1418SOL     OW 4252   2.708   3.327   9.212  0.0601  0.2278  0.5551
 1418SOL    HW1 4253   2.627   3.337   9.262  0.3146  0.8757  0.8523
 1418SOL    HW2 4254   2.745   3.415   9.207  0.0715  0.1727 -0.7431
 1419SOL     OW 4255   4.921   4.981   7.481 -0.5791  0.0818  0.1117
 1419SOL    HW1 4256   4.913   4.890   7.454  0.9618  0.4029 -1.6489
 1419SOL    HW2 4257   4.981   4.979   7.555 -0.8417 -0.3604  0.3130
 1420SOL     OW 4258   3.889   3.736   7.013 -0.4270 -0.2973  0.3528
 1420SOL    HW1 4259   3.959   3.738   7.078 -0.2862 -0.4996  0.2087
 1420SOL    HW2 4260   3.823   3.796   7.047  0.3686  0.9138 -0.1315
 1421SOL     OW 4261   3.412   1.284   6.491 -0.1623  0.2028 -0.1188
 1421SOL    HW1 4262   3.474   1.213   6.474 -1.5632 -1.7729  2.3772
 1421SOL    HW2 4263   3.432   1.350   6.424  2.4775 -1.6848 -1.3586
 1422SOL     OW 4264   4.493   4.396   8.683 -0.2102 -0.0201 -0.8024
 1422SOL    HW1 4265   4.457   4.482   8.704 -2.4481 -0.7039 -1.5418
 1422SOL    HW2 4266   4.478   4.386   8.589 -1.5022 -1.8295 -0.4553
 1423SOL     OW 4267   3.779   3.206   6.651 -0.1105  0.1469  0.4744
 1423SOL    HW1 4268   3.785   3.159   6.734  0.0391 -1.0433 -0.1750
 1423SOL    HW2 4269   3.857   3.261   6.649  1.4052 -1.8925 -0.0528
 1424SOL     OW 4270   1.255   4.913   8.782  0.2860 -0.0816  0.4858
 1424SOL    HW1 4271   1.242   4.818   8.784 -2.6112  0.2452  1.9381
 1424SOL    HW2 4272   1.274   4.937   8.872 -0.0134  0.8278  0.3172
 1425SOL     OW 4273   4.963   4.582   6.249  0.3904  0.0058  0.1976
 1425SOL    HW1 4274   4.934   4.513   6.190 -1.1058 -0.8114  1.7752
 1425SOL    HW2 4275   4.916   4.660   6.220  1.2663  0.1499 -0.9247
 1426SOL     OW 4276   1.748   3.015   8.293 -0.1494 -0.0278  0.1109
 1426SOL    HW1 4277   1.810   2.994   8.363  1.2603  0.9886 -0.7694
 1426SOL    HW2 4278   1.665   3.029   8.337  0.5586 -0.0352  1.5021
 1427SOL     OW 4279   3.941   3.104   5.488  0.0537 -0.4268  0.4171
 1427SOL    HW1 4280   3.859   3.055   5.499 -0.7736  0.3206 -1.8831
 1427SOL    HW2 4281   3.959   3.100   5.394  1.8248  0.7647  0.6636
 1428SOL     OW 4282   0.859   4.341   9.732  0.2415 -0.7201 -0.2603
 1428SOL    HW1 4283   0.839   4.344   9.639  1.7581 -0.8969 -0.6310
 1428SOL    HW2 4284   0.886   4.250   9.748 -0.3339 -0.7828  0.4359
 1429SOL     OW 4285   0.799   3.713   9.634 -0.6328  0.7591  0.1710
 1429SOL    HW1 4286   0.733   3.662   9.587  0.9213  1.5338 -3.1743
 1429SOL    HW2 4287   0.880   3.662   9.625 -0.2360  0.9689  2.1052
 1430SOL     OW 4288   1.015   0.458   8.894 -0.3183  0.3942 -0.6299
 1430SOL    HW1 4289   1.043   0.375   8.856 -2.3775 -0.7029  0.1188
 1430SOL    HW2 4290   1.034   0.450   8.988  0.4116  1.2096 -0.6887
 1431SOL     OW 4291   2.279   0.955   8.405 -0.8923  0.0931 -0.1943
 1431SOL    HW1 4292   2.288   1.048   8.386  0.1726 -0.5015 -3.2326
 1431SOL    HW2 4293   2.369   0.923   8.407 -1.2578 -0.9276  0.5669
 1432SOL     OW 4294   0.686   4.318   9.492 -0.8479  0.1158 -0.3916
 1432SOL    HW1 4295   0.621   4.375   9.533 -2.0839 -0.0864 -1.9643
 1432SOL    HW2 4296   0.714   4.367   9.415 -0.7295 -0.7097 -0.8814
 1433SOL     OW 4297   0.939   0.690   7.106 -0.7194 -0.3447  0.0880
 1433SOL    HW1 4298   1.020   0.733   7.133 -1.5582 -0.2214  2.6760
 1433SOL    HW2 4299   0.966   0.602   7.078  0.4133  0.0980 -0.2476
 1434SOL     OW 4300   1.256   0.519   9.547 -0.3612 -0.5419  0.3496
 1434SOL    HW1 4301   1.320   0.544   9.614  0.3388 -1.2346 -0.0488
 1434SOL    HW2 4302   1.193   0.591   9.546 -0.2028 -0.3652  1.5222
 1435SOL     OW 4303   4.987   4.613   9.189 -0.0563  0.8865 -0.4114
 1435SOL    HW1 4304   4.941   4.581   9.111 -0.4774 -0.9528  0.5450
 1435SOL    HW2 4305   4.975   4.708   9.187 -0.8583  0.7811 -2.0701
 1436SOL     OW 4306   4.368   1.293   8.712  0.5465 -0.5123  0.7521
 1436SOL    HW1 4307   4.350   1.242   8.633  1.3730 -0.6798  0.6620
 1436SOL    HW2 4308   4.450   1.256   8.746  0.1929 -0.4626  1.7002
 1437SOL     OW 4309   0.678   4.582   8.594  0.4882 -0.3959 -0.0521
 1437SOL    HW1 4310   0.594   4.612   8.629  0.6845  0.0272  0.0577
 1437SOL    HW2 4311   0.724   4.546   8.670  1.2499  1.2667  0.3185
 1438SOL     OW 4312   1.619   2.669   8.617 -0.4202  0.9182 -0.7135
 1438SOL    HW1 4313   1.547   2.660   8.554 -0.7868 -0.9804 -0.1131
 1438SOL    HW2 4314   1.576   2.660   8.703  0.5730 -1.1946 -0.3694
 1439SOL     OW 4315   2.407   1.577   8.539  0.2824 -0.1139  0.8382
 1439SOL    HW1 4316   2.386   1.636   8.466  1.4312 -0.3567  0.2828
 1439SOL    HW2 4317   2.331   1.519   8.546 -0.0554  0.2356  0.1454
 1440SOL     OW 4318   2.087   2.477   9.190 -0.2063  0.3875  0.0348
 1440SOL    HW1 4319   2.108   2.384   9.192 -0.1595  0.4018  2.2328
 1440SOL    HW2 4320   2.167   2.518   9.155  0.4775 -0.2469  0.8100
 1441SOL     OW 4321   0.892   3.175   7.839 -0.2832  0.3390  0.2972
 1441SOL    HW1 4322   0.889   3.200   7.932 -1.7095  0.2586  0.2916
 1441SOL    HW2 4323   0.849   3.089   7.837  1.2264 -0.4323 -0.2138
 1442SOL     OW 4324   0.463   2.066   7.969  0.3617 -0.5102  0.1894
 1442SOL    HW1 4325   0.414   2.125   7.912 -0.0743 -0.1468  0.9302
 1442SOL    HW2 4326   0.464   1.983   7.922 -1.3874 -0.6656  0.3579
 1443SOL     OW 4327   2.852   0.219   9.672  0.3824  0.2809 -0.0013
 1443SOL    HW1 4328   2.823   0.198   9.761 -1.6998  2.0873 -0.1731
 1443SOL    HW2 4329   2.804   0.299   9.649  1.2764  0.1791 -2.5604
 1444SOL     OW 4330   0.622   4.385   7.748 -0.5044 -0.0035  0.7713
 1444SOL    HW1 4331   0.685   4.325   7.790  0.2580  1.0146  1.1405
 1444SOL    HW2 4332   0.673   4.465   7.732 -1.1169  0.0731 -0.9908
 1445SOL     OW 4333   1.130   4.581  10.081  0.2599  0.7629 -0.2644
 1445SOL    HW1 4334   1.096   4.499  10.046 -3.8606  1.1957  2.1245
 1445SOL    HW2 4335   1.195   4.555  10.146  1.2373 -0.4007 -1.6636
 1446SOL     OW 4336   4.512   4.730   9.591  0.5366 -0.0272  0.6666
 1446SOL    HW1 4337   4.448   4.703   9.657  0.3877 -2.5352 -0.3939
 1446SOL    HW2 4338   4.574   4.657   9.587  0.8430  0.2803 -1.5513
 1447SOL     OW 4339   4.898   3.492   9.495  0.3182  0.3032 -0.4025
 1447SOL    HW1 4340   4.903   3.398   9.475 -2.4539  0.1548 -0.7590
 1447SOL    HW2 4341   4.835   3.499   9.566  0.6340  1.9193 -0.2367
 1448SOL     OW 4342   0.427   3.356   9.520  0.1952 -0.2888 -0.0904
 1448SOL    HW1 4343   0.335   3.369   9.543 -0.7745  1.3448 -4.0494
 1448SOL    HW2 4344   0.429   3.273   9.474  0.2251  0.5855 -1.7419
 1449SOL     OW 4345   4.379   1.258   9.451 -0.6417 -0.9121 -0.1512
 1449SOL    HW1 4346   4.417   1.287   9.534 -1.4833 -0.2619  0.0189
 1449SOL    HW2 4347   4.356   1.339   9.406 -0.4506 -1.2699 -0.9020
 1450SOL     OW 4348   4.544   3.726   9.815  0.5814  0.0843  0.6720
 1450SOL    HW1 4349   4.584   3.787   9.876  0.8471  0.4488  0.1414
 1450SOL    HW2 4350   4.544   3.772   9.731 -0.4660 -0.1089  0.5495
 1451SOL     OW 4351   0.848   0.256   7.838  0.1293  0.0633 -0.0122
 1451SOL    HW1 4352   0.925   0.309   7.859 -0.2165  0.9102 -0.7727
 1451SOL    HW2 4353   0.775   0.303   7.879 -0.3004  0.7197 -1.4447
 1452SOL     OW 4354   4.634   0.696   8.490  0.1326 -0.5683  0.3949
 1452SOL    HW1 4355   4.668   0.708   8.578 -0.5410 -2.8395  1.0253
 1452SOL    HW2 4356   4.709   0.663   8.440  0.2980 -0.0961  0.3292
 1453SOL     OW 4357   4.220   3.551   6.765  0.1741 -0.5236  0.5084
 1453SOL    HW1 4358   4.169   3.599   6.700  0.7335 -0.9138 -0.2338
 1453SOL    HW2 4359   4.276   3.617   6.805 -1.2237  0.0109  1.6841
 1454SOL     OW 4360   1.325   0.932   9.637  0.4622 -0.0927 -0.3240
 1454SOL    HW1 4361   1.391   0.864   9.650 -0.8520 -1.1243  1.1766
 1454SOL    HW2 4362   1.376   1.013   9.634  1.7223 -0.6578  2.5603
 1455SOL     OW 4363   1.370   4.548   9.506  0.1634  0.3121 -0.4727
 1455SOL    HW1 4364   1.311   4.544   9.581 -0.4666  0.2824 -0.9609
 1455SOL    HW2 4365   1.419   4.466   9.510 -1.0880 -0.4907 -1.0635
 1456SOL     OW 4366   1.666   3.246   7.230 -0.0037  0.6629 -0.2276
 1456SOL    HW1 4367   1.760   3.231   7.239 -0.1578 -0.6137 -0.4884
 1456SOL    HW2 4368   1.625   3.170   7.270 -0.9663  1.5833  0.6061
 1457SOL     OW 4369   2.252   4.053   9.921 -0.0928  0.1648  0.0061
 1457SOL    HW1 4370   2.307   3.975   9.919 -0.6215 -0.2200  0.0851
 1457SOL    HW2 4371   2.261   4.086  10.011  0.5896  0.5360 -0.1941
 1458SOL     OW 4372   0.754   4.730   9.344  0.0256  0.2864 -0.2356
 1458SOL    HW1 4373   0.730   4.776   9.263  0.3108  2.0677  0.6391
 1458SOL    HW2 4374   0.818   4.788   9.386 -2.7828  1.3277  3.0813
 1459SOL     OW 4375   1.987   3.748   9.495 -0.3792  0.3132  0.7279
 1459SOL    HW1 4376   2.067   3.762   9.546 -0.7985 -1.2691  1.8965
 1459SOL    HW2 4377   1.918   3.791   9.546 -0.4216  0.9339  0.1598
 1460SOL     OW 4378   3.824   3.357   7.748 -0.2409  0.0976  0.3141
 1460SOL    HW1 4379   3.880   3.364   7.825 -0.0442  1.8448  0.0496
 1460SOL    HW2 4380   3.802   3.448   7.726 -1.5366 -0.4457 -0.7867
 1461SOL     OW 4381   4.123   4.814   8.823 -0.0851  0.2341  0.2169
 1461SOL    HW1 4382   4.194   4.868   8.859 -1.4945  1.2269  1.6441
 1461SOL    HW2 4383   4.101   4.753   8.894 -0.9267  0.2068 -0.0576
 1462SOL     OW 4384   0.203   3.923   8.884 -0.0703 -0.8922  0.9055
 1462SOL    HW1 4385   0.121   3.959   8.849 -0.8742 -0.9903  2.5990
 1462SOL    HW2 4386   0.215   3.841   8.837 -1.6214 -1.4850  1.4757
 1463SOL     OW 4387   0.181   4.307   8.325 -0.1579 -0.7489  0.0306
 1463SOL    HW1 4388   0.091   4.339   8.316 -0.0072 -0.2139  0.3397
 1463SOL    HW2 4389   0.192   4.247   8.252  0.1552  1.3776 -1.7970
 1464SOL     OW 4390   1.795   2.450   9.225 -0.4384 -1.1554 -0.5624
 1464SOL    HW1 4391   1.748   2.500   9.293 -0.1903 -0.6710 -0.7489
 1464SOL    HW2 4392   1.885   2.480   9.231 -0.7098  0.0733 -2.1861
 1465SOL     OW 4393   1.469   4.142   9.578  0.8539 -0.0231 -0.3446
 1465SOL    HW1 4394   1.540   4.078   9.581  1.4364  0.6016 -0.5356
 1465SOL    HW2 4395   1.487   4.194   9.500  1.5634  1.6779  0.8758
 1466SOL     OW 4396   1.804   3.731   9.858  0.1312  0.1724 -0.1467
 1466SOL    HW1 4397   1.787   3.648   9.814 -0.1138  1.5283 -2.8076
 1466SOL    HW2 4398   1.719   3.757   9.893 -0.4578  0.5641 -1.7527
 1467SOL     OW 4399   2.065   0.262   9.199 -0.0584 -0.1253 -0.2984
 1467SOL    HW1 4400   2.155   0.231   9.211  0.4926  1.8066  1.1906
 1467SOL    HW2 4401   2.015   0.184   9.177  1.7527 -1.4988  0.2302
 1468SOL     OW 4402   1.941   3.361   9.805 -0.4203 -0.0158  0.0710
 1468SOL    HW1 4403   2.023   3.391   9.844 -0.2524 -2.0398  1.4239
 1468SOL    HW2 4404   1.968   3.296   9.740 -0.8862  0.7476 -0.9040
 1469SOL     OW 4405   2.037   0.336   9.737 -0.7891  0.0744 -0.2197
 1469SOL    HW1 4406   1.996   0.278   9.673 -0.4622 -1.8853  1.2626
 1469SOL    HW2 4407   2.077   0.405   9.684 -2.1310 -0.4145 -1.9846
 1470SOL     OW 4408   1.460   0.803   9.381  0.0920 -1.0555  0.3293
 1470SOL    HW1 4409   1.434   0.737   9.445  1.9568 -0.6616  1.5813
 1470SOL    HW2 4410   1.508   0.754   9.314 -0.7801 -1.3016 -0.1229
 1471SOL     OW 4411   4.424   4.376   9.678  0.2853 -0.5097  0.3690
 1471SOL    HW1 4412   4.425   4.458   9.728  0.6295  0.9672 -1.9449
 1471SOL    HW2 4413   4.516   4.355   9.665  0.2018 -0.5035 -0.2418
 1472SOL     OW 4414   0.633   4.067   9.589 -0.5754  0.1893  0.1084
 1472SOL    HW1 4415   0.650   4.158   9.562 -1.7575  0.6053  0.6638
 1472SOL    HW2 4416   0.537   4.061   9.589 -0.5060 -1.0234  0.2127
 1473SOL     OW 4417   1.335   0.789   6.936  0.2004 -0.2588 -0.1312
 1473SOL    HW1 4418   1.428   0.796   6.957  0.1073 -0.6837  0.4491
 1473SOL    HW2 4419   1.334   0.747   6.850  0.5658  0.8194 -0.6779
 1474SOL     OW 4420   0.837   3.181   7.236 -0.0913  0.5743 -0.2110
 1474SOL    HW1 4421   0.840   3.119   7.162  1.5394 -0.3732  0.5777
 1474SOL    HW2 4422   0.829   3.125   7.313 -1.8914  1.5623  0.3642
 1475SOL     OW 4423   1.311   0.371   9.282 -0.2867 -0.2477 -0.3825
 1475SOL    HW1 4424   1.228   0.399   9.243  0.1725  0.2377 -1.0390
 1475SOL    HW2 4425   1.321   0.425   9.359 -1.1430 -1.1255  0.3728
 1476SOL     OW 4426   0.521   3.764   7.242 -0.8142 -0.4513 -0.3265
 1476SOL    HW1 4427   0.597   3.818   7.261  0.3014 -2.7933  2.7835
 1476SOL    HW2 4428   0.528   3.743   7.149  1.0263  1.2645 -0.6199
 1477SOL     OW 4429   3.117   0.513   8.514 -0.2792 -0.6108 -0.0507
 1477SOL    HW1 4430   3.134   0.602   8.483 -0.4995 -0.5705 -0.0586
 1477SOL    HW2 4431   3.068   0.472   8.443 -1.4341 -0.2876  0.5395
 1478SOL     OW 4432   1.593   4.548   9.923  0.1850  0.1496  0.0224
 1478SOL    HW1 4433   1.678   4.517   9.955 -0.1159 -0.0632  0.6238
 1478SOL    HW2 4434   1.557   4.473   9.874 -0.8083 -0.7108  1.9810
 1479SOL     OW 4435   4.385   3.760  10.165 -0.2695 -0.2903  0.5272
 1479SOL    HW1 4436   4.387   3.710  10.246  1.6975  2.0903  2.0857
 1479SOL    HW2 4437   4.292   3.781  10.153 -0.6395 -0.9004  2.0275
 1480SOL     OW 4438   4.694   4.599   8.893 -0.4672 -0.2515 -0.3036
 1480SOL    HW1 4439   4.691   4.627   8.802  0.2502  0.2800 -0.1734
 1480SOL    HW2 4440   4.739   4.514   8.890 -0.1501 -0.0823 -0.4150
 1481SOL     OW 4441   2.167   3.892   9.185  0.2766  0.1154  0.1650
 1481SOL    HW1 4442   2.217   3.928   9.112 -0.1541 -0.4001 -0.3983
 1481SOL    HW2 4443   2.212   3.924   9.263  1.8391 -0.7859 -0.3155
 1482SOL     OW 4444   4.994   3.089   9.445 -0.0661 -0.4461  0.4078
 1482SOL    HW1 4445   5.015   3.125   9.358 -1.3540 -2.7382 -0.9390
 1482SOL    HW2 4446   4.899   3.096   9.452  0.0690  0.3486  2.0028
 1483SOL     OW 4447   2.849   3.743   8.685  0.0912  0.0162 -0.3044
 1483SOL    HW1 4448   2.936   3.705   8.682  1.1514  2.3031 -0.6719
 1483SOL    HW2 4449   2.811   3.709   8.766  0.7270 -2.1233 -0.8344
 1484SOL     OW 4450   1.743   4.254   9.562  0.7822 -0.2478 -0.0448
 1484SOL    HW1 4451   1.779   4.297   9.485 -0.4886  0.3220 -0.3441
 1484SOL    HW2 4452   1.768   4.162   9.552 -0.1076 -0.3440 -1.6007
 1485SOL     OW 4453   1.174   5.020   8.539 -0.4209  0.1400 -0.1793
 1485SOL    HW1 4454   1.254   5.004   8.488  0.0222  0.3877  0.4179
 1485SOL    HW2 4455   1.174   4.951   8.605 -2.8679 -2.4525 -2.6009
 1486SOL     OW 4456   1.708   0.261   9.057 -0.7465  0.3221  0.2569
 1486SOL    HW1 4457   1.613   0.274   9.049 -0.4185  1.8844 -2.6799
 1486SOL    HW2 4458   1.738   0.334   9.111 -1.0117  1.0742 -0.5929
 1487SOL     OW 4459   1.851   3.522   9.215 -0.0179 -0.2132  0.4529
 1487SOL    HW1 4460   1.892   3.581   9.153 -0.7711  0.3190  0.4449
 1487SOL    HW2 4461   1.784   3.575   9.258 -0.6741 -1.0400  0.4886
 1488SOL     OW 4462   4.513   1.994   9.669 -0.1440 -0.5923 -0.3111
 1488SOL    HW1 4463   4.538   2.038   9.587 -0.4478 -1.3563 -0.8209
 1488SOL    HW2 4464   4.481   2.065   9.725  0.7074  0.0385 -0.5974
 1489SOL     OW 4465   4.275   0.337   9.864  0.5592  1.0111 -0.3714
 1489SOL    HW1 4466   4.195   0.369   9.823  0.3009  0.3147 -0.4244
 1489SOL    HW2 4467   4.293   0.400   9.934 -2.2240 -0.8298  2.2571
 1490SOL     OW 4468   2.038   0.963   9.176  0.3710  0.2427 -0.0882
 1490SOL    HW1 4469   2.096   0.917   9.236 -1.1986 -2.9741 -0.8512
 1490SOL    HW2 4470   1.952   0.963   9.219 -0.0736  0.8364 -0.9261
 1491SOL     OW 4471   1.458   0.682   9.667  0.0206 -0.5652 -0.0973
 1491SOL    HW1 4472   1.542   0.639   9.656  0.6300  0.6635 -0.4438
 1491SOL    HW2 4473   1.415   0.634   9.739  0.3571 -2.1420 -0.9129
 1492SOL     OW 4474   4.178   4.891   9.687 -0.2423  0.4703  0.0954
 1492SOL    HW1 4475   4.227   4.911   9.767 -0.0029  1.3490 -0.2655
 1492SOL    HW2 4476   4.101   4.843   9.718 -0.2773  1.0145  0.8833
 1493SOL     OW 4477   0.460   3.314   7.941 -0.2291 -0.4537  0.0455
 1493SOL    HW1 4478   0.466   3.220   7.952 -1.3162 -0.4743  0.5560
 1493SOL    HW2 4479   0.411   3.326   7.860 -0.8487 -0.3412  0.4291
 1494SOL     OW 4480   0.430   3.052   8.907 -0.7439  0.4910 -0.1707
 1494SOL    HW1 4481   0.407   3.083   8.995 -2.0919  1.7195 -0.9184
 1494SOL    HW2 4482   0.348   3.056   8.858 -0.0160 -0.2018 -1.4916
 1495SOL     OW 4483   0.625   4.629   8.932 -0.0622 -0.4088  0.4990
 1495SOL    HW1 4484   0.542   4.594   8.965  0.0015 -1.5788 -0.4948
 1495SOL    HW2 4485   0.691   4.564   8.957  0.4131  0.0571  0.4810
 1496SOL     OW 4486   1.791   1.403   8.330  0.4275  0.0405  0.6184
 1496SOL    HW1 4487   1.713   1.375   8.377  0.4532 -0.1174  0.5669
 1496SOL    HW2 4488   1.759   1.464   8.264  0.1113 -1.3587 -0.5799
 1497SOL     OW 4489   0.367   1.268   8.848  0.2706  0.4360  0.3403
 1497SOL    HW1 4490   0.340   1.178   8.827  0.5374  0.7059 -1.2961
 1497SOL    HW2 4491   0.300   1.323   8.807  0.5220  1.0037  0.6892
 1498SOL     OW 4492   0.013   0.587   9.184  0.6760  1.0223  0.5031
 1498SOL    HW1 4493   0.018   0.660   9.246  0.2786  1.1066  0.4398
 1498SOL    HW2 4494   0.103   0.558   9.174  0.8379  1.4981  0.5408
 1499SOL     OW 4495   2.854   3.992   9.660 -0.0821  0.1650  0.1364
 1499SOL    HW1 4496   2.898   3.949   9.586  0.4149 -0.8801  1.0136
 1499SOL    HW2 4497   2.764   3.961   9.655 -0.0840  0.2113 -0.1230
 1500SOL     OW 4498   1.012   3.985   8.534 -0.2129 -0.0257 -0.5379
 1500SOL    HW1 4499   1.029   3.891   8.544  1.3920  0.3121  0.3156
 1500SOL    HW2 4500   1.047   4.024   8.614  0.8189  1.4851 -1.6714
 1501SOL     OW 4501   2.230   4.436   8.742  0.4137  0.1655  0.0510
 1501SOL    HW1 4502   2.143   4.470   8.723  0.3468 -1.0652 -2.1452
 1501SOL    HW2 4503   2.280   4.450   8.662  1.4249 -1.5474  0.3245
 1502SOL     OW 4504   2.539   4.473   7.346 -0.0382  0.2100 -0.2570
 1502SOL    HW1 4505   2.485   4.412   7.397 -1.9392  2.2995  0.3543
 1502SOL    HW2 4506   2.623   4.474   7.391  0.2476 -2.2982 -0.5888
 1503SOL     OW 4507   1.053   4.718   9.843  0.1299 -0.3464  0.3722
 1503SOL    HW1 4508   1.137   4.756   9.815  0.1169  0.3519  1.2426
 1503SOL    HW2 4509   1.060   4.710   9.938 -0.7650 -0.3314  0.4509
 1504SOL     OW 4510   1.812   0.596   8.725  0.7820 -0.1091  0.5447
 1504SOL    HW1 4511   1.778   0.552   8.802 -1.8044  0.8185  0.0397
 1504SOL    HW2 4512   1.829   0.686   8.753  1.5225 -0.2189  0.4564
 1505SOL     OW 4513   4.781   4.339   8.942 -0.2759 -0.4535 -0.7366
 1505SOL    HW1 4514   4.861   4.331   8.891 -1.0869  0.4849 -2.2397
 1505SOL    HW2 4515   4.808   4.327   9.033  1.2201 -2.2773 -1.3578
 1506SOL     OW 4516   0.615   0.327   9.860  0.3252  0.2770 -0.3425
 1506SOL    HW1 4517   0.618   0.269   9.784  1.2044  0.0991 -0.1944
 1506SOL    HW2 4518   0.686   0.390   9.845  0.7157  0.0460  0.4607
 1507SOL     OW 4519   4.534   4.003   8.115  0.0901 -0.6141 -0.0248
 1507SOL    HW1 4520   4.591   4.010   8.039  1.4992 -0.4090  1.0022
 1507SOL    HW2 4521   4.561   3.921   8.158 -1.5776 -1.4113 -0.4218
 1508SOL     OW 4522   1.265   2.962   9.113 -0.3770  0.5476 -0.3999
 1508SOL    HW1 4523   1.285   2.897   9.046  1.6797 -1.3512  1.8837
 1508SOL    HW2 4524   1.186   2.929   9.156  0.4266 -0.2887  0.4821
 1509SOL     OW 4525   3.148   0.695   8.024  0.2380  0.0939 -0.1223
 1509SOL    HW1 4526   3.188   0.652   8.100  2.0316  2.3779  0.3527
 1509SOL    HW2 4527   3.066   0.647   8.009  0.8655 -1.7789  1.8801
 1510SOL     OW 4528   4.207   4.611   8.315  0.0935  0.6271 -0.3999
 1510SOL    HW1 4529   4.254   4.591   8.235  0.2644 -0.7975  0.0330
 1510SOL    HW2 4530   4.275   4.622   8.381 -0.0348  1.9982 -0.4675
 1511SOL     OW 4531   0.118   4.911   7.666 -0.8474 -0.3082  0.1313
 1511SOL    HW1 4532   0.091   4.933   7.755 -0.2987  1.5343 -0.0994
 1511SOL    HW2 4533   0.185   4.844   7.677 -1.3585 -0.6830  1.0474
 1512SOL     OW 4534   1.354   1.907   9.190 -0.0632  0.2412  0.2024
 1512SOL    HW1 4535   1.387   1.842   9.128 -0.2504  0.7094 -0.3908
 1512SOL    HW2 4536   1.331   1.983   9.136 -1.6891  0.0942  0.6444
 1513SOL     OW 4537   1.169   3.856   9.074 -0.0365  0.0361  0.5490
 1513SOL    HW1 4538   1.199   3.945   9.061  0.3340  0.0163  1.2146
 1513SOL    HW2 4539   1.149   3.823   8.986  0.4112  0.5641  0.2486
 1514SOL     OW 4540   4.605   4.914   9.162  0.2745  0.4502 -0.2637
 1514SOL    HW1 4541   4.626   4.825   9.191 -0.1508 -0.0491 -1.4237
 1514SOL    HW2 4542   4.686   4.964   9.176  0.8179 -0.3477 -0.4732
 1515SOL     OW 4543   2.040   2.124   8.458 -0.5587  0.6311  0.2648
 1515SOL    HW1 4544   2.130   2.103   8.485 -0.0165  2.5791  0.1790
 1515SOL    HW2 4545   1.987   2.052   8.490  0.8012  0.3211  1.9284
 1516SOL     OW 4546   1.257   4.799   7.364  0.1087 -0.5365  0.4684
 1516SOL    HW1 4547   1.175   4.845   7.345  2.7144  3.9237 -1.7869
 1516SOL    HW2 4548   1.287   4.839   7.446  0.6313 -1.1666  0.5860
 1517SOL     OW 4549   0.288   0.140   8.612 -0.2864 -0.3412 -0.3329
 1517SOL    HW1 4550   0.374   0.155   8.652 -0.6716 -0.8305  0.7271
 1517SOL    HW2 4551   0.254   0.062   8.656 -0.9524 -0.6179 -1.2955
 1518SOL     OW 4552   0.065   4.726   6.454  0.2380  0.0754 -0.1693
 1518SOL    HW1 4553   0.034   4.676   6.379 -0.2106  0.0357  0.0425
 1518SOL    HW2 4554   0.097   4.660   6.515  1.9649  0.1574 -0.9033
 1519SOL     OW 4555   1.383   4.463   8.229 -0.0673 -0.5221  0.1263
 1519SOL    HW1 4556   1.344   4.377   8.244  0.6377 -0.9205 -0.2595
 1519SOL    HW2 4557   1.477   4.447   8.231  0.1062 -0.3135 -2.8873
 1520SOL     OW 4558   4.862   4.867   8.558 -0.3468  0.2022  0.3304
 1520SOL    HW1 4559   4.801   4.881   8.486  0.1085 -1.4158 -0.4077
 1520SOL    HW2 4560   4.888   4.956   8.585 -1.8498  0.8666 -0.3277
 1521SOL     OW 4561   1.538   0.209   7.941 -0.3023  0.0301 -0.3361
 1521SOL    HW1 4562   1.573   0.124   7.967  0.0882 -0.6781 -2.8508
 1521SOL    HW2 4563   1.443   0.196   7.938 -0.3333  0.0536  0.4293
 1522SOL     OW 4564   1.018   4.089   9.829  0.3726  0.5880  0.0048
 1522SOL    HW1 4565   1.090   4.060   9.773 -0.2699 -0.2469 -0.4168
 1522SOL    HW2 4566   0.952   4.019   9.822 -1.1095  1.9760 -0.7765
 1523SOL     OW 4567   0.530   0.351   8.309 -0.5088  0.5091 -0.0585
 1523SOL    HW1 4568   0.505   0.388   8.224 -0.9911 -1.2003 -0.7057
 1523SOL    HW2 4569   0.448   0.344   8.358 -0.5910 -0.5146 -0.3065
 1524SOL     OW 4570   1.888   3.700   8.875 -0.0602 -0.3180  0.0734
 1524SOL    HW1 4571   1.826   3.771   8.859 -1.1339 -1.2132  0.1638
 1524SOL    HW2 4572   1.869   3.636   8.807  1.5321 -0.1359 -0.5818
 1525SOL     OW 4573   0.679   4.165   9.050 -0.3222 -0.4081  0.2133
 1525SOL    HW1 4574   0.708   4.256   9.048  0.1412 -0.5317  0.8853
 1525SOL    HW2 4575   0.606   4.165   9.112 -1.1812 -0.2690 -0.7690
 1526SOL     OW 4576   4.230   0.866   9.846 -0.3607 -0.5144 -0.0351
 1526SOL    HW1 4577   4.265   0.863   9.757 -0.2394 -0.9395  0.0228
 1526SOL    HW2 4578   4.179   0.946   9.849 -1.3841 -1.1140 -0.8744
 1527SOL     OW 4579   1.418   3.890   9.229  0.3850  0.2488  0.1785
 1527SOL    HW1 4580   1.335   3.878   9.182  0.1734  0.5316  0.4759
 1527SOL    HW2 4581   1.458   3.803   9.229  0.5281  0.3045 -0.7829
 1528SOL     OW 4582   0.893   0.730   5.685  0.0046 -0.0489 -0.3411
 1528SOL    HW1 4583   0.968   0.677   5.661 -1.2142 -1.0998 -2.0901
 1528SOL    HW2 4584   0.826   0.667   5.710 -0.6245  0.8087  0.1996
 1529SOL     OW 4585   1.157   4.643   6.343 -0.7690  0.1197  0.0021
 1529SOL    HW1 4586   1.151   4.575   6.275 -0.7583  0.7727 -0.6625
 1529SOL    HW2 4587   1.229   4.614   6.399 -0.0494  0.1176 -0.8938
 1530SOL     OW 4588   1.845   1.611   6.129 -0.3823  0.4706 -0.1867
 1530SOL    HW1 4589   1.932   1.573   6.136 -0.5915  0.2245  1.7243
 1530SOL    HW2 4590   1.840   1.674   6.201 -0.7826  2.6723 -2.0104
 1531SOL     OW 4591   1.146   2.109   7.232  0.1495 -0.0391 -0.5161
 1531SOL    HW1 4592   1.139   2.183   7.292 -0.4629  0.7820 -1.5544
 1531SOL    HW2 4593   1.230   2.069   7.252  0.9812  1.5859 -0.6205
 1532SOL     OW 4594   3.500   1.928   5.526 -0.3567 -0.0922 -0.8039
 1532SOL    HW1 4595   3.465   1.977   5.601 -0.5450  1.4430 -1.8645
 1532SOL    HW2 4596   3.423   1.892   5.482 -0.2676 -0.6922 -0.4835
 1533SOL     OW 4597   2.809   1.185   5.377  0.0409  0.2311 -0.2609
 1533SOL    HW1 4598   2.740   1.235   5.332 -0.6031  0.0379  0.4929
 1533SOL    HW2 4599   2.763   1.113   5.420  0.7247  0.0434  0.1801
 1534SOL     OW 4600   4.119   0.593   5.417 -0.1231  0.1803 -0.3416
 1534SOL    HW1 4601   4.115   0.527   5.348  0.4972  0.4386 -0.6263
 1534SOL    HW2 4602   4.212   0.613   5.426 -0.2349  0.4323  0.2986
 1535SOL     OW 4603   2.219   1.325   5.876 -0.4380 -0.2232  0.3105
 1535SOL    HW1 4604   2.255   1.354   5.959 -1.1820  0.7645  0.3054
 1535SOL    HW2 4605   2.291   1.281   5.832  0.8519  1.9174  0.1730
 1536SOL     OW 4606   2.903   0.431   7.119  0.1523 -0.1971 -0.8284
 1536SOL    HW1 4607   2.824   0.406   7.167 -0.4335 -0.3115 -1.8260
 1536SOL    HW2 4608   2.918   0.522   7.142 -0.0311 -0.2928 -0.3178
 1537SOL     OW 4609   0.917   0.850   5.155 -0.5698 -0.4508  0.0359
 1537SOL    HW1 4610   0.962   0.930   5.182 -0.4593  0.1556 -1.8644
 1537SOL    HW2 4611   0.871   0.873   5.075 -1.5993 -1.9632  0.1411
 1538SOL     OW 4612   4.454   2.122   4.923  0.3390 -0.0704 -0.1781
 1538SOL    HW1 4613   4.420   2.148   5.009  0.5064  0.8509 -0.3767
 1538SOL    HW2 4614   4.377   2.096   4.873  0.4122 -2.6059  0.8663
 1539SOL     OW 4615   3.684   4.751   6.403  0.2064  0.1510 -0.6453
 1539SOL    HW1 4616   3.695   4.669   6.354  0.8078  0.2449 -0.6828
 1539SOL    HW2 4617   3.660   4.724   6.491  0.1300 -0.0563 -0.7294
 1540SOL     OW 4618   4.876   1.703   6.091  0.5018  0.5080  0.2520
 1540SOL    HW1 4619   4.851   1.693   6.182  1.4302  0.9276  0.5655
 1540SOL    HW2 4620   4.833   1.784   6.063  0.9208  0.8494  0.5812
 1541SOL     OW 4621   1.222   0.362   7.850  0.2401 -0.5726  0.1681
 1541SOL    HW1 4622   1.269   0.437   7.813 -1.7293  0.5334 -0.2507
 1541SOL    HW2 4623   1.165   0.401   7.918 -1.6038 -1.4848 -0.7862
 1542SOL     OW 4624   4.135   0.470   4.961 -0.2699 -0.3654  0.4196
 1542SOL    HW1 4625   4.226   0.499   4.960 -0.3719  0.0731 -1.6642
 1542SOL    HW2 4626   4.139   0.377   4.985  0.8474 -0.6026 -0.6009
 1543SOL     OW 4627   2.417   0.047   6.248 -0.4660  0.1810  0.3895
 1543SOL    HW1 4628   2.399  -0.045   6.230  1.5867 -0.6547  2.1697
 1543SOL    HW2 4629   2.350   0.073   6.312 -0.0115 -0.6301  1.2220
 1544SOL     OW 4630   3.077   0.063   6.768 -0.5255 -0.0605  0.0287
 1544SOL    HW1 4631   3.047   0.127   6.832 -2.1666  0.0256 -0.7645
 1544SOL    HW2 4632   3.009   0.064   6.700  1.5193  0.4938 -2.1767
 1545SOL     OW 4633   1.872   1.189   6.239  0.0021 -0.0372 -0.3916
 1545SOL    HW1 4634   1.865   1.201   6.144 -1.3397  0.3217 -0.2668
 1545SOL    HW2 4635   1.949   1.240   6.264  1.9106 -2.1689 -1.6064
 1546SOL     OW 4636   2.038   0.379   6.296 -0.6752  0.2606 -0.2680
 1546SOL    HW1 4637   2.057   0.295   6.255  0.8338 -1.1596  2.9672
 1546SOL    HW2 4638   1.944   0.389   6.289 -0.9670 -1.9823 -0.2737
 1547SOL     OW 4639   2.164   4.676   6.860 -0.2017 -0.2284  0.1126
 1547SOL    HW1 4640   2.072   4.648   6.865  0.3333 -1.8448  2.6584
 1547SOL    HW2 4641   2.162   4.769   6.880 -1.1612 -0.7395  2.8428
 1548SOL     OW 4642   4.200   0.496   6.391 -0.0739 -0.4087  0.2171
 1548SOL    HW1 4643   4.244   0.472   6.473 -0.1364 -0.2595  0.2948
 1548SOL    HW2 4644   4.161   0.414   6.360 -1.3452 -0.1780  1.1265
 1549SOL     OW 4645   3.534   1.000   7.772 -0.2700  0.2880 -0.3507
 1549SOL    HW1 4646   3.531   1.047   7.689  0.2903 -0.7809 -1.0063
 1549SOL    HW2 4647   3.444   0.972   7.787 -0.8530  2.5813  0.6827
 1550SOL     OW 4648   2.045   0.133   6.535  0.8049  0.0809  0.5850
 1550SOL    HW1 4649   2.130   0.130   6.581  0.7286  2.9989  1.1156
 1550SOL    HW2 4650   2.048   0.214   6.485 -1.7655  0.4018  0.8268
 1551SOL     OW 4651   1.306   0.892   5.566  0.4347 -0.1270 -0.0535
 1551SOL    HW1 4652   1.227   0.946   5.569 -0.3860 -1.3386  1.9942
 1551SOL    HW2 4653   1.321   0.878   5.472 -2.4938 -0.8616 -0.5238
 1552SOL     OW 4654   4.612   4.837   7.247 -0.1698 -0.5030  0.2769
 1552SOL    HW1 4655   4.531   4.868   7.207  1.3957  3.2380 -0.4918
 1552SOL    HW2 4656   4.619   4.885   7.329  0.6802 -1.7280  0.9572
 1553SOL     OW 4657   4.955   0.576   5.485 -0.4438 -0.2790 -0.7304
 1553SOL    HW1 4658   4.976   0.497   5.535 -2.4209 -1.1000 -1.0854
 1553SOL    HW2 4659   5.033   0.592   5.432  0.1751 -1.7573 -0.3384
 1554SOL     OW 4660   2.883   2.177   5.985 -0.4619 -0.4487 -0.2473
 1554SOL    HW1 4661   2.836   2.255   5.954  0.1363  0.4748  1.0904
 1554SOL    HW2 4662   2.920   2.203   6.070  0.4975 -1.9066 -0.1828
 1555SOL     OW 4663   0.748   0.950   8.004  0.1904 -0.0460  0.0188
 1555SOL    HW1 4664   0.730   0.955   7.910  0.7759  0.9865 -0.0619
 1555SOL    HW2 4665   0.838   0.919   8.009  1.0998  2.3491  0.1001
 1556SOL     OW 4666   4.633   1.153   5.870  0.5250  0.3427  1.0301
 1556SOL    HW1 4667   4.638   1.211   5.794 -1.7031  0.0287  0.5864
 1556SOL    HW2 4668   4.693   1.081   5.850 -0.5622 -0.1045 -0.7944
 1557SOL     OW 4669   2.375   1.191   6.073 -0.1362  0.0512 -0.2646
 1557SOL    HW1 4670   2.441   1.229   6.131 -0.0433 -0.6904  0.1295
 1557SOL    HW2 4671   2.410   1.202   5.985  0.1173  0.4282 -0.1178
 1558SOL     OW 4672   2.439   4.436   6.739  0.0085  0.0318 -0.7673
 1558SOL    HW1 4673   2.414   4.348   6.768  0.6943 -0.2284 -0.9526
 1558SOL    HW2 4674   2.443   4.487   6.819 -1.2398  0.1209 -0.7380
 1559SOL     OW 4675   2.309   2.823   6.750  0.6814  0.0313  0.2537
 1559SOL    HW1 4676   2.223   2.792   6.724  0.9290 -0.4126 -0.0401
 1559SOL    HW2 4677   2.331   2.772   6.828  0.5167  0.4165  0.5571
 1560SOL     OW 4678   4.819   2.098   5.748 -0.2139 -0.1552  0.2743
 1560SOL    HW1 4679   4.842   2.107   5.841  1.0067 -0.5360  0.0282
 1560SOL    HW2 4680   4.757   2.025   5.747 -0.4707  0.0466  0.8271
 1561SOL     OW 4681   2.325   1.229   7.860 -0.1246 -0.4214 -0.8602
 1561SOL    HW1 4682   2.418   1.210   7.872 -0.1163 -0.3673 -0.8402
 1561SOL    HW2 4683   2.283   1.143   7.862 -0.3453 -0.3124  1.4375
 1562SOL     OW 4684   2.544   2.182   7.539  0.0731 -0.1463 -0.0720
 1562SOL    HW1 4685   2.597   2.239   7.484  0.3605 -0.5002 -0.1659
 1562SOL    HW2 4686   2.606   2.147   7.604 -0.3058  0.4663  0.6439
 1563SOL     OW 4687   2.313   1.807   5.180 -0.7945 -0.3753  0.4451
 1563SOL    HW1 4688   2.376   1.845   5.119 -2.0492  1.3179  0.1248
 1563SOL    HW2 4689   2.356   1.811   5.265 -0.3773  0.5778  0.1979
 1564SOL     OW 4690   1.721   1.830   5.199  0.1069  0.2999  0.4172
 1564SOL    HW1 4691   1.798   1.877   5.167 -1.3394  1.4215 -1.6806
 1564SOL    HW2 4692   1.754   1.742   5.220  2.0470  0.9179  0.1885
 1565SOL     OW 4693   2.208   4.327   6.159  0.1829 -0.3084 -0.0329
 1565SOL    HW1 4694   2.252   4.275   6.092  1.7785  2.0758 -0.9854
 1565SOL    HW2 4695   2.256   4.308   6.240  0.7399 -0.3320 -0.3643
 1566SOL     OW 4696   2.887   4.972   6.535 -0.4543  0.0609 -0.2325
 1566SOL    HW1 4697   2.915   4.905   6.474 -1.6171 -0.1437 -0.5674
 1566SOL    HW2 4698   2.800   4.944   6.564  0.5677 -0.5483  2.5595
 1567SOL     OW 4699   2.674   0.620   6.424 -0.2390 -0.3088 -0.1595
 1567SOL    HW1 4700   2.702   0.562   6.494 -0.6923 -0.6710 -0.2751
 1567SOL    HW2 4701   2.754   0.663   6.395  0.2253 -1.4193 -0.5719
 1568SOL     OW 4702   4.163   0.569   7.477  0.0523  0.0571 -0.0774
 1568SOL    HW1 4703   4.206   0.649   7.448 -1.4231  0.7334 -0.4692
 1568SOL    HW2 4704   4.167   0.573   7.573  1.8517 -0.4760 -0.0913
 1569SOL     OW 4705   3.082   0.215   5.368 -0.3663  0.5824  0.2283
 1569SOL    HW1 4706   3.085   0.248   5.458  1.2065  2.6286 -0.4898
 1569SOL    HW2 4707   3.006   0.260   5.329 -0.6216  0.2460  0.3360
 1570SOL     OW 4708   0.172   0.171   7.454  0.3316  0.5791 -0.1476
 1570SOL    HW1 4709   0.233   0.102   7.426  0.1673  0.6068 -0.5713
 1570SOL    HW2 4710   0.093   0.124   7.480  0.2374  0.6059 -0.3884
 1571SOL     OW 4711   2.292   0.768   5.990 -0.4583  0.4235 -0.1694
 1571SOL    HW1 4712   2.208   0.734   5.960 -0.2760  0.5128 -0.7869
 1571SOL    HW2 4713   2.277   0.862   6.004 -0.8514  0.1932  1.1466
 1572SOL     OW 4714   3.057   0.694   5.227  0.2407 -0.5095  0.3094
 1572SOL    HW1 4715   3.119   0.624   5.209  0.1370 -0.3379 -0.7875
 1572SOL    HW2 4716   3.051   0.743   5.145 -0.3943  0.2271  0.7742
 1573SOL     OW 4717   2.061   4.486   5.243 -0.3359  0.5555 -0.4335
 1573SOL    HW1 4718   2.036   4.394   5.241  1.7379 -0.0721 -0.3011
 1573SOL    HW2 4719   1.979   4.533   5.254 -1.3630 -1.3139  0.3531
 1574SOL     OW 4720   2.020   0.656   5.908  0.1619 -0.2167 -0.3049
 1574SOL    HW1 4721   2.055   0.603   5.836 -1.5040 -0.8837 -0.6836
 1574SOL    HW2 4722   1.961   0.597   5.955  1.7309 -0.0106  2.0945
 1575SOL     OW 4723   4.280   1.380   5.329  0.6048  0.5511 -0.6459
 1575SOL    HW1 4724   4.345   1.437   5.370 -0.5430  0.9384  0.7330
 1575SOL    HW2 4725   4.197   1.425   5.342 -0.1061 -0.5443 -1.2061
 1576SOL     OW 4726   2.631   0.434   7.225 -0.3170 -0.2400 -0.4061
 1576SOL    HW1 4727   2.566   0.478   7.171  0.5049  1.5710  0.0000
 1576SOL    HW2 4728   2.607   0.457   7.315  0.1918 -0.5585 -0.1839
 1577SOL     OW 4729   1.158   0.220   8.172 -0.0451 -0.2526  0.4235
 1577SOL    HW1 4730   1.097   0.208   8.100  0.2008  0.1270  0.1496
 1577SOL    HW2 4731   1.226   0.153   8.157 -1.6006 -2.3491  2.0663
 1578SOL     OW 4732   0.027   2.172   5.349  0.4742 -0.6743  0.4491
 1578SOL    HW1 4733  -0.046   2.202   5.296  0.5492 -1.5763 -0.1735
 1578SOL    HW2 4734   0.101   2.225   5.320  0.3670 -0.7052  0.1208
 1579SOL     OW 4735   3.017   1.503   6.649  0.3373 -0.2160 -0.3483
 1579SOL    HW1 4736   3.054   1.423   6.610  1.6533 -0.2818  0.9034
 1579SOL    HW2 4737   2.974   1.472   6.729  0.3778  0.2434 -0.1464
 1580SOL     OW 4738   1.493   0.917   5.911 -0.2032 -0.0478 -1.6002
 1580SOL    HW1 4739   1.452   0.855   5.852 -0.0364 -1.9931  0.2001
 1580SOL    HW2 4740   1.572   0.873   5.942  0.7049  1.6581 -1.3200
 1581SOL     OW 4741   2.985   1.275   5.558 -0.2427 -0.2269  0.1030
 1581SOL    HW1 4742   2.933   1.230   5.491 -0.4102 -0.8993  0.6742
 1581SOL    HW2 4743   3.059   1.312   5.510 -0.8167  0.0528 -0.5919
 1582SOL     OW 4744   1.618   2.177   6.640 -0.0505 -0.2074 -0.5209
 1582SOL    HW1 4745   1.598   2.247   6.577 -0.3523  0.5999  0.4363
 1582SOL    HW2 4746   1.553   2.189   6.709 -0.7009 -2.0203 -0.7518
 1583SOL     OW 4747   2.361   1.193   5.466 -0.2489 -0.0419 -0.4291
 1583SOL    HW1 4748   2.385   1.283   5.444  0.5793  0.2008  1.3328
 1583SOL    HW2 4749   2.268   1.198   5.490  0.0469  0.5390  0.6342
 1584SOL     OW 4750   4.156   1.284   6.049  0.1833  0.0761  0.0177
 1584SOL    HW1 4751   4.216   1.258   5.980 -1.2480 -0.6460 -0.9884
 1584SOL    HW2 4752   4.194   1.247   6.129  0.5940 -1.1598 -0.7308
 1585SOL     OW 4753   1.158   4.951   6.085 -0.7365  0.0862  0.0229
 1585SOL    HW1 4754   1.121   4.950   6.173 -1.5014  2.8244 -0.1760
 1585SOL    HW2 4755   1.252   4.934   6.098 -0.5642  1.9014  1.5759
 1586SOL     OW 4756   4.419   3.013   5.623 -0.2860 -0.1260 -0.3058
 1586SOL    HW1 4757   4.400   3.099   5.584  1.1523 -0.1330 -1.0889
 1586SOL    HW2 4758   4.496   2.982   5.576  1.4807 -0.2215  2.4298
 1587SOL     OW 4759   4.917   2.530   6.874  0.0521  0.6415 -0.3063
 1587SOL    HW1 4760   4.972   2.496   6.802 -0.4204 -0.0688 -0.3451
 1587SOL    HW2 4761   4.832   2.547   6.833 -0.1832  0.3496  0.0550
 1588SOL     OW 4762   3.372   0.750   5.361  0.0305 -0.0097  0.4373
 1588SOL    HW1 4763   3.405   0.832   5.398 -0.3175  1.0339 -1.4302
 1588SOL    HW2 4764   3.319   0.777   5.286 -2.5528 -1.8054  1.4867
 1589SOL     OW 4765   2.911   1.261   5.925  0.1015 -0.0765 -0.1765
 1589SOL    HW1 4766   2.827   1.305   5.940  0.3622  0.7358 -0.9606
 1589SOL    HW2 4767   2.974   1.332   5.915  1.0577 -0.6808  1.1837
 1590SOL     OW 4768   4.563   0.926   6.900  0.5846  0.0547  0.0084
 1590SOL    HW1 4769   4.616   0.924   6.820  0.0847  1.4316 -0.3705
 1590SOL    HW2 4770   4.622   0.892   6.968  1.5301  0.3351 -0.6537
 1591SOL     OW 4771   2.353   1.359   6.564 -0.2964 -0.3894 -0.1531
 1591SOL    HW1 4772   2.353   1.454   6.576 -2.2566 -0.5017  1.1340
 1591SOL    HW2 4773   2.445   1.334   6.573  0.0959  1.2349  0.7793
 1592SOL     OW 4774   2.155   1.046   5.959  0.3191  0.5266  0.3899
 1592SOL    HW1 4775   2.094   1.064   5.888  0.4877  1.2475  0.4199
 1592SOL    HW2 4776   2.184   1.133   5.989  0.8767  0.2121  0.7882
 1593SOL     OW 4777   2.728   3.762   5.785 -0.1673  0.0025 -0.3034
 1593SOL    HW1 4778   2.772   3.680   5.803 -1.4266 -0.5702  0.3054
 1593SOL    HW2 4779   2.684   3.784   5.867 -1.3891  0.2940 -1.0073
 1594SOL     OW 4780   3.662   4.177   7.502  0.5606 -0.0562  0.9233
 1594SOL    HW1 4781   3.746   4.207   7.466  0.5382 -0.4620  0.5319
 1594SOL    HW2 4782   3.604   4.174   7.426 -0.3699  2.0914  1.4691
 1595SOL     OW 4783   1.433   4.582   6.691  0.7962 -0.3287  0.4782
 1595SOL    HW1 4784   1.426   4.492   6.722  0.6258 -0.2532  0.6559
 1595SOL    HW2 4785   1.420   4.575   6.596  1.6664 -0.6010  0.3709
 1596SOL     OW 4786   1.693   4.502   7.130  0.4200  0.6187 -0.9599
 1596SOL    HW1 4787   1.735   4.417   7.114 -0.1154 -0.2398  1.7730
 1596SOL    HW2 4788   1.688   4.542   7.043  0.7299 -2.1146 -2.3512
 1597SOL     OW 4789   3.836   0.974   7.843  0.1419  0.1790  0.9169
 1597SOL    HW1 4790   3.873   1.041   7.900  3.1156  0.3567 -0.9621
 1597SOL    HW2 4791   3.835   1.014   7.756  0.9981 -1.7769 -0.0738
 1598SOL     OW 4792   2.912   3.501   6.409 -0.4627  0.1288  0.3613
 1598SOL    HW1 4793   2.960   3.507   6.326 -0.0409  1.2453  0.6821
 1598SOL    HW2 4794   2.973   3.456   6.468  0.3129  1.7589  0.8384
 1599SOL     OW 4795   1.391   0.684   5.756  0.3111 -0.1792 -0.3004
 1599SOL    HW1 4796   1.434   0.612   5.709  0.2612 -0.0108 -0.6077
 1599SOL    HW2 4797   1.359   0.742   5.687  0.0787 -0.0181 -0.0606
 1600SOL     OW 4798   2.483   4.223   4.881  0.2963 -0.3624 -0.2517
 1600SOL    HW1 4799   2.428   4.212   4.803 -1.3229 -1.6092  0.9832
 1600SOL    HW2 4800   2.423   4.210   4.955  1.8981  0.1123  1.2144
 1601SOL     OW 4801   2.322   3.724   5.350 -0.4468  0.0582 -0.5527
 1601SOL    HW1 4802   2.334   3.721   5.445  0.1599 -2.2629 -0.6507
 1601SOL    HW2 4803   2.364   3.806   5.323 -1.9911  1.5530  1.2987
 1602SOL     OW 4804   3.026   1.388   7.079 -0.3233  1.0231  0.1504
 1602SOL    HW1 4805   3.075   1.470   7.075  0.4286  0.6104  0.7282
 1602SOL    HW2 4806   3.088   1.322   7.048 -1.3319  0.8235 -1.6103
 1603SOL     OW 4807   2.986   4.327   5.832  0.0035 -0.1245  0.6020
 1603SOL    HW1 4808   2.999   4.413   5.872  1.2498 -0.6332  1.3153
 1603SOL    HW2 4809   2.905   4.337   5.782  1.1513  2.0941 -1.0072
 1604SOL     OW 4810   4.159   0.338   5.345 -0.1763  0.0939  0.5800
 1604SOL    HW1 4811   4.243   0.366   5.307 -0.5471  1.3045  0.5968
 1604SOL    HW2 4812   4.166   0.243   5.353  0.7322  0.0474 -0.5477
 1605SOL     OW 4813   1.853   0.170   5.892 -0.3005 -0.7712 -0.1680
 1605SOL    HW1 4814   1.789   0.192   5.960 -0.0171  0.4357 -0.2554
 1605SOL    HW2 4815   1.822   0.217   5.814  0.6384 -0.2150 -0.2233
 1606SOL     OW 4816   3.261   2.902   6.500 -1.0628  0.5324  0.3410
 1606SOL    HW1 4817   3.264   2.830   6.436  0.7162  1.7259 -1.0198
 1606SOL    HW2 4818   3.322   2.875   6.569 -0.4422  0.6773 -0.1395
 1607SOL     OW 4819   2.313   2.315   7.726 -0.5514  0.2726 -0.2647
 1607SOL    HW1 4820   2.378   2.274   7.784 -0.6276 -0.1660 -0.4838
 1607SOL    HW2 4821   2.363   2.343   7.650 -0.3797  1.2222  0.1812
 1608SOL     OW 4822   3.464   1.309   6.750 -0.3758 -0.0466  0.6364
 1608SOL    HW1 4823   3.520   1.386   6.743 -1.0521  0.4169  0.2510
 1608SOL    HW2 4824   3.438   1.289   6.660 -0.2120 -0.7223  0.7330
 1609SOL     OW 4825   2.742   4.793   5.774  0.2790  0.5145  0.2037
 1609SOL    HW1 4826   2.838   4.790   5.771  0.4220  2.8720  0.8902
 1609SOL    HW2 4827   2.721   4.882   5.802 -2.1526  0.3685 -0.8832
 1610SOL     OW 4828   1.054   3.645   7.198  0.1720 -0.2665  0.3474
 1610SOL    HW1 4829   0.977   3.590   7.210 -0.2311  0.4278  0.9815
 1610SOL    HW2 4830   1.055   3.664   7.104 -0.0101 -0.8670  0.2167
 1611SOL     OW 4831   3.130   4.309   8.618  0.2553  0.7469 -0.5477
 1611SOL    HW1 4832   3.129   4.224   8.664  0.2319  1.2220  0.3639
 1611SOL    HW2 4833   3.220   4.340   8.628  0.1132  1.1022 -0.3544
 1612SOL     OW 4834   3.328   1.112   5.144  0.3312  0.0885  1.0425
 1612SOL    HW1 4835   3.301   1.068   5.225 -2.1078 -0.4074  0.0481
 1612SOL    HW2 4836   3.322   1.044   5.077  1.7236  0.6471  0.3061
 1613SOL     OW 4837   1.503   4.410   5.629  0.5678 -0.2779 -0.0988
 1613SOL    HW1 4838   1.542   4.482   5.579 -1.8491  0.3691 -1.1952
 1613SOL    HW2 4839   1.411   4.410   5.603 -0.1243 -1.9393  2.0709
 1614SOL     OW 4840   3.992   1.197   6.472  0.6198 -0.0690 -0.4686
 1614SOL    HW1 4841   4.050   1.165   6.403  0.6564  1.2614 -1.0980
 1614SOL    HW2 4842   3.969   1.286   6.444 -1.2411 -0.3446  0.0718
 1615SOL     OW 4843   2.614   3.924   6.546  0.1766 -0.2558  0.3062
 1615SOL    HW1 4844   2.674   3.852   6.563 -0.5655 -0.8181  0.5940
 1615SOL    HW2 4845   2.623   3.981   6.622 -1.0885 -1.3464  1.3202
 1616SOL     OW 4846   1.889   4.572   6.527  0.3841  0.2216  0.0528
 1616SOL    HW1 4847   1.810   4.627   6.524  0.4525  0.3750  0.8447
 1616SOL    HW2 4848   1.865   4.493   6.480  0.0117  0.5915 -0.3926
 1617SOL     OW 4849   2.277   1.521   5.012 -0.1717 -0.1820 -0.0230
 1617SOL    HW1 4850   2.273   1.579   5.088 -1.7236 -1.2742  0.7952
 1617SOL    HW2 4851   2.194   1.534   4.967  0.4848  0.0015 -1.2243
 1618SOL     OW 4852   2.583   0.182   6.070 -0.7549  0.0269  0.3611
 1618SOL    HW1 4853   2.675   0.159   6.059 -0.1398  2.3962  0.2197
 1618SOL    HW2 4854   2.542   0.101   6.103  1.1888 -1.2920 -0.3096
 1619SOL     OW 4855   0.172   0.666   5.363  0.1580 -0.0768  0.2123
 1619SOL    HW1 4856   0.227   0.627   5.431 -1.8407 -0.5299  1.6677
 1619SOL    HW2 4857   0.209   0.754   5.350 -0.1423  0.5481  2.8983
 1620SOL     OW 4858   2.112   0.189   5.850  0.0596  0.7571  0.1316
 1620SOL    HW1 4859   2.102   0.273   5.805 -1.9993 -0.3538 -1.6660
 1620SOL    HW2 4860   2.023   0.159   5.866  0.7456 -1.0124  0.8779
 1621SOL     OW 4861   3.793   4.828   9.166  0.4615  0.2848 -0.2243
 1621SOL    HW1 4862   3.823   4.769   9.096 -0.0476  0.7453 -0.8508
 1621SOL    HW2 4863   3.727   4.777   9.214  1.9988 -0.6315  0.9894
 1622SOL     OW 4864   3.410   0.187   7.058  0.2874 -0.3394 -0.3310
 1622SOL    HW1 4865   3.465   0.120   7.018  0.3042 -0.2193 -0.5127
 1622SOL    HW2 4866   3.448   0.202   7.144  1.2774  0.6255 -0.9170
 1623SOL     OW 4867   2.547   0.550   6.759 -0.3829 -0.4834  0.1179
 1623SOL    HW1 4868   2.471   0.493   6.755 -0.2559 -0.5877 -1.0849
 1623SOL    HW2 4869   2.594   0.535   6.677  0.0004  0.8684  0.0556
 1624SOL     OW 4870   2.579   1.285   7.645 -0.0077 -0.2663  0.1629
 1624SOL    HW1 4871   2.600   1.216   7.708  0.1594 -0.9846 -0.6462
 1624SOL    HW2 4872   2.655   1.343   7.646  0.0831 -0.3895  0.4704
 1625SOL     OW 4873   3.868   2.340   7.752 -0.2673  0.3704  0.4451
 1625SOL    HW1 4874   3.928   2.376   7.687  1.0154 -1.4471  0.5738
 1625SOL    HW2 4875   3.916   2.343   7.834 -0.6094 -0.4699  0.6820
 1626SOL     OW 4876   1.241   1.633   6.346  0.3078  0.2024 -0.7640
 1626SOL    HW1 4877   1.332   1.610   6.361  0.1510  0.0161 -0.0695
 1626SOL    HW2 4878   1.200   1.551   6.316  0.0653 -0.0756  0.3006
 1627SOL     OW 4879   4.098   1.202   6.951 -0.0525 -0.5771  0.6437
 1627SOL    HW1 4880   4.075   1.115   6.983 -1.4725 -0.3903  0.2150
 1627SOL    HW2 4881   4.192   1.210   6.968 -0.0225 -1.9384  1.2603
 1628SOL     OW 4882   2.522   4.114   7.538 -0.1430 -0.0585 -0.4374
 1628SOL    HW1 4883   2.462   4.161   7.481 -0.7718  0.8055  0.8820
 1628SOL    HW2 4884   2.539   4.175   7.610  0.1866 -1.2970  0.5688
 1629SOL     OW 4885   2.285   2.415   6.066  0.6124  0.1192 -0.7912
 1629SOL    HW1 4886   2.262   2.334   6.111  0.6557 -0.0280 -1.0314
 1629SOL    HW2 4887   2.338   2.387   5.991  0.3480  0.3407 -1.0680
 1630SOL     OW 4888   2.515   0.787   8.375 -0.0800 -0.3735  0.4226
 1630SOL    HW1 4889   2.482   0.711   8.423 -0.2728  0.7428  2.1787
 1630SOL    HW2 4890   2.597   0.810   8.419 -0.1419  0.5664  0.0778
 1631SOL     OW 4891   2.558   0.835   7.546  0.5407 -0.1737  0.2832
 1631SOL    HW1 4892   2.605   0.918   7.538 -0.0610  0.2268  0.7786
 1631SOL    HW2 4893   2.489   0.853   7.610  0.6206 -1.1544  0.6610
 1632SOL     OW 4894   3.265   1.908   5.419  0.6662 -0.4900  0.0752
 1632SOL    HW1 4895   3.206   1.833   5.406 -1.3671  0.6968  1.7957
 1632SOL    HW2 4896   3.236   1.972   5.354  0.1896 -0.0021  0.7546
 1633SOL     OW 4897   1.924   4.949   5.602 -0.1970 -0.3687 -0.5313
 1633SOL    HW1 4898   1.867   4.909   5.668 -0.2650  0.9575  0.2518
 1633SOL    HW2 4899   1.868   5.012   5.558  0.6032  0.8879  0.1840
 1634SOL     OW 4900   3.197   4.399   6.906 -0.2528  0.2558  0.3316
 1634SOL    HW1 4901   3.132   4.409   6.836 -0.8535 -0.6897  0.7321
 1634SOL    HW2 4902   3.146   4.373   6.982  0.6134 -0.6182  0.6267
 1635SOL     OW 4903   2.143   0.423   5.719 -0.1809  0.2759 -0.5870
 1635SOL    HW1 4904   2.235   0.418   5.692 -0.9655 -0.5668 -3.4308
 1635SOL    HW2 4905   2.101   0.476   5.651 -2.1824 -1.1642 -0.5506
 1636SOL     OW 4906   3.579   4.815   5.185 -0.4583 -0.0828  0.3187
 1636SOL    HW1 4907   3.637   4.770   5.247  1.1148  1.0382 -0.2670
 1636SOL    HW2 4908   3.629   4.817   5.103 -3.0649 -2.8734 -1.5362
 1637SOL     OW 4909   3.141   0.211   7.261  0.6255 -0.5305  0.3523
 1637SOL    HW1 4910   3.200   0.239   7.331 -0.3601 -0.9853  1.3818
 1637SOL    HW2 4911   3.142   0.284   7.198 -1.0870  1.4639  2.4578
 1638SOL     OW 4912   1.813   0.464   7.154 -0.4053 -0.4152  0.1504
 1638SOL    HW1 4913   1.898   0.473   7.110 -0.6712 -1.2055 -0.5392
 1638SOL    HW2 4914   1.789   0.553   7.178  0.7815 -0.2102  0.6685
 1639SOL     OW 4915   1.794   0.356   7.603 -0.2297  0.2525  0.1152
 1639SOL    HW1 4916   1.783   0.451   7.594 -0.6233  0.3508  1.4076
 1639SOL    HW2 4917   1.805   0.342   7.697 -1.8510 -1.1388  0.1522
 1640SOL     OW 4918   3.390   4.574   7.675  0.1680 -0.3185  0.1024
 1640SOL    HW1 4919   3.355   4.487   7.693 -1.3723  0.1351 -0.5431
 1640SOL    HW2 4920   3.411   4.573   7.581 -0.4096  0.1639 -0.0433
 1641SOL     OW 4921   2.907   2.001   7.962  0.1572 -0.3114  0.0088
 1641SOL    HW1 4922   2.869   1.932   8.017  0.8903 -1.7432 -1.1928
 1641SOL    HW2 4923   2.991   1.965   7.934  1.7651  2.1329  1.3386
 1642SOL     OW 4924   3.295   4.921   7.435  0.0634 -0.3879 -0.6767
 1642SOL    HW1 4925   3.225   4.982   7.456  0.4967  0.2552 -1.0397
 1642SOL    HW2 4926   3.319   4.943   7.344  0.5960 -0.7249 -0.6248
 1643SOL     OW 4927   3.838   0.888   5.937  0.2619 -0.6430 -0.4175
 1643SOL    HW1 4928   3.878   0.947   5.873 -1.8223 -0.3235 -1.5075
 1643SOL    HW2 4929   3.912   0.846   5.981  1.8142  2.0564 -0.2599
 1644SOL     OW 4930   2.308   0.796   7.046 -0.2270  0.1067  0.5955
 1644SOL    HW1 4931   2.322   0.820   7.137 -0.3647  1.9695  0.1554
 1644SOL    HW2 4932   2.355   0.862   6.996 -0.9294 -0.3448 -0.7120
 1645SOL     OW 4933   4.999   4.875   9.202 -0.1511 -1.2561  0.3285
 1645SOL    HW1 4934   4.911   4.912   9.208 -0.7139 -2.6951  2.0172
 1645SOL    HW2 4935   5.034   4.882   9.291  1.8420  0.1365 -0.4979
 1646SOL     OW 4936   1.686   1.572   7.137 -0.2695  0.1057 -0.2508
 1646SOL    HW1 4937   1.628   1.614   7.074  0.5936 -3.0822 -3.4558
 1646SOL    HW2 4938   1.764   1.626   7.138 -0.1315  0.0076 -2.3353
 1647SOL     OW 4939   2.590   4.125   6.353  0.5667 -0.2248 -0.0520
 1647SOL    HW1 4940   2.569   4.218   6.364  0.9571 -0.1182 -0.2240
 1647SOL    HW2 4941   2.604   4.093   6.442 -1.6011 -0.6038  0.2187
 1648SOL     OW 4942   3.839   0.232   6.376  0.1173 -0.0315  0.0836
 1648SOL    HW1 4943   3.875   0.234   6.465 -0.3126 -0.4982  0.2725
 1648SOL    HW2 4944   3.751   0.195   6.386  0.6100 -1.5227 -0.7129
 1649SOL     OW 4945   0.905   0.817   5.937  0.1830  0.2099  0.0755
 1649SOL    HW1 4946   0.897   0.774   5.852  0.7861  1.2900 -0.5500
 1649SOL    HW2 4947   0.990   0.862   5.934  0.3303  0.0718  1.3411
 1650SOL     OW 4948   3.006   4.569   5.984 -0.6894 -0.1066  0.1893
 1650SOL    HW1 4949   3.066   4.628   5.938  0.1504 -0.2221  1.1055
 1650SOL    HW2 4950   3.063   4.511   6.034 -1.5546  0.8875  2.4728
 1651SOL     OW 4951   1.221   0.746   6.690 -0.5668 -0.2738 -0.7371
 1651SOL    HW1 4952   1.196   0.655   6.707 -1.8895  0.3375  0.9192
 1651SOL    HW2 4953   1.217   0.755   6.595  0.0539 -2.0555 -0.9721
 1652SOL     OW 4954   4.265   1.013   5.708  0.3015 -0.1497 -0.0893
 1652SOL    HW1 4955   4.244   0.919   5.703 -1.1866  0.2202 -1.6127
 1652SOL    HW2 4956   4.262   1.043   5.618  1.6453  1.2177  0.2845
 1653SOL     OW 4957   3.454   2.283   5.089  0.4036 -0.4122 -0.2319
 1653SOL    HW1 4958   3.404   2.363   5.076 -0.3876 -1.1259 -1.7419
 1653SOL    HW2 4959   3.389   2.216   5.107  0.8534 -1.1970 -1.4410
 1654SOL     OW 4960   2.387   3.879   7.058  0.4520 -0.3140  0.3690
 1654SOL    HW1 4961   2.425   3.964   7.081  3.1991 -1.8497  2.0600
 1654SOL    HW2 4962   2.409   3.868   6.966  2.4109 -0.2140  0.7668
 1655SOL     OW 4963   4.329   0.300   6.567  0.4303  0.1518  0.1593
 1655SOL    HW1 4964   4.383   0.241   6.515 -0.4937  1.0328 -1.8802
 1655SOL    HW2 4965   4.275   0.241   6.620 -1.4112 -1.0076 -2.7662
 1656SOL     OW 4966   1.885   2.664   6.307  0.5557  0.1497  0.1754
 1656SOL    HW1 4967   1.928   2.749   6.304  1.7084 -0.3728  1.0449
 1656SOL    HW2 4968   1.911   2.621   6.225  1.1715  0.0919  0.3934
 1657SOL     OW 4969   3.798   0.812   4.878  0.3210  0.2177  0.5262
 1657SOL    HW1 4970   3.889   0.782   4.885 -0.2141 -1.6463  0.0581
 1657SOL    HW2 4971   3.800   0.880   4.811  1.4716  0.6928  1.0235
 1658SOL     OW 4972   3.243   4.366   5.743  0.5067 -0.5004  0.2055
 1658SOL    HW1 4973   3.156   4.333   5.719  0.1610  0.7615 -0.4054
 1658SOL    HW2 4974   3.244   4.455   5.708  2.2118 -0.6383 -0.1706
 1659SOL     OW 4975   4.194   1.710   5.672  0.5088 -0.0286 -0.2737
 1659SOL    HW1 4976   4.099   1.721   5.668  0.3406 -1.1670  0.3724
 1659SOL    HW2 4977   4.212   1.635   5.615  0.9671 -0.1255 -0.0045
 1660SOL     OW 4978   1.001   4.954   7.314 -0.0094 -0.3386  0.4243
 1660SOL    HW1 4979   0.918   4.940   7.270 -0.1238  1.9335 -0.2183
 1660SOL    HW2 4980   0.984   5.024   7.377  1.2646 -0.2541  0.7121
 1661SOL     OW 4981   4.945   3.670   6.419 -0.3920  0.0188  0.3862
 1661SOL    HW1 4982   4.852   3.651   6.409 -0.3135  0.0238 -0.4027
 1661SOL    HW2 4983   4.988   3.586   6.407 -0.2234  0.2122 -0.4231
 1662SOL     OW 4984  -0.014   0.477   6.020  0.2149  0.1153  0.0407
 1662SOL    HW1 4985   0.051   0.547   6.015 -1.2719  1.4430 -1.2617
 1662SOL    HW2 4986   0.011   0.417   5.950  0.6165  0.0804  0.2066
 1663SOL     OW 4987   2.283   2.826   5.702  0.7602  0.3363  0.3667
 1663SOL    HW1 4988   2.279   2.916   5.668  0.4014  0.5667  0.9976
 1663SOL    HW2 4989   2.276   2.837   5.797 -3.1281 -0.5501  0.3377
 1664SOL     OW 4990   2.093   0.609   8.107 -0.0442 -0.1765  0.2530
 1664SOL    HW1 4991   2.084   0.699   8.077 -0.6764 -0.4542 -0.4296
 1664SOL    HW2 4992   2.094   0.615   8.202 -1.1974  0.4641  0.2388
 1665SOL     OW 4993   3.305   4.934   7.163 -0.2584  0.0932 -0.6308
 1665SOL    HW1 4994   3.287   5.017   7.119 -1.3583  1.2332  1.7829
 1665SOL    HW2 4995   3.229   4.880   7.144 -0.4905  0.3898 -0.5528
 1666SOL     OW 4996   1.129   4.911   6.361  0.5592 -0.4925 -0.4010
 1666SOL    HW1 4997   1.217   4.943   6.381  0.7734 -0.1169 -1.8345
 1666SOL    HW2 4998   1.142   4.819   6.337  0.7990 -0.1019 -1.9218
 1667SOL     OW 4999   2.102   1.298   5.533  1.0940 -0.2881 -0.0097
 1667SOL    HW1 5000   2.111   1.393   5.539  1.3388 -0.3912  1.8117
 1667SOL    HW2 5001   2.019   1.285   5.487 -0.1685  0.8626  1.7780
 1668SOL     OW 5002   4.173   1.961   6.046  0.6910 -0.0426 -0.6362
 1668SOL    HW1 5003   4.085   1.995   6.062  0.8988 -0.5651  2.0763
 1668SOL    HW2 5004   4.159   1.876   6.003 -0.0075  0.6506 -1.8478
 1669SOL     OW 5005   0.130   0.744   6.075 -0.5330  0.2215  0.4693
 1669SOL    HW1 5006   0.034   0.751   6.073 -0.4769  1.4705 -2.4129
 1669SOL    HW2 5007   0.160   0.833   6.091  0.1269  0.2611 -0.8723
 1670SOL     OW 5008   1.120   1.205   6.110 -0.7729  0.2553  0.1036
 1670SOL    HW1 5009   1.108   1.110   6.112 -0.6964  0.2568  1.3201
 1670SOL    HW2 5010   1.202   1.219   6.062 -0.7600 -0.2871 -0.0331
 1671SOL     OW 5011   2.099   0.148   6.137 -0.1259 -0.5072 -0.5232
 1671SOL    HW1 5012   2.135   0.160   6.050 -1.6640 -0.9278 -1.2498
 1671SOL    HW2 5013   2.129   0.061   6.164  1.4197  0.1399 -0.0650
 1672SOL     OW 5014   2.103   4.677   7.468  0.2878 -0.4393 -0.4051
 1672SOL    HW1 5015   2.016   4.691   7.432  0.4516 -2.2406 -1.6024
 1672SOL    HW2 5016   2.163   4.701   7.398  0.9245  2.5177  0.9751
 1673SOL     OW 5017   3.184   0.197   8.955 -0.1821 -0.2408 -0.2755
 1673SOL    HW1 5018   3.120   0.229   9.020 -0.4344  0.3531 -0.8054
 1673SOL    HW2 5019   3.225   0.277   8.922  1.3753 -0.6581  0.5881
 1674SOL     OW 5020   1.928   0.160   8.426 -0.3119 -1.1647 -0.0796
 1674SOL    HW1 5021   1.942   0.087   8.485 -1.0832 -1.8408 -0.7147
 1674SOL    HW2 5022   1.964   0.236   8.473 -1.9450 -1.4647  1.7628
 1675SOL     OW 5023   2.448   1.577   7.327 -0.0240 -0.0921  0.5919
 1675SOL    HW1 5024   2.533   1.621   7.333  0.1807 -0.4818  0.6085
 1675SOL    HW2 5025   2.445   1.541   7.238 -1.7332  3.0045 -0.7564
 1676SOL     OW 5026   4.253   1.093   5.450 -0.2040  0.0262 -0.7628
 1676SOL    HW1 5027   4.168   1.049   5.449 -0.1295 -0.1084 -1.3674
 1676SOL    HW2 5028   4.233   1.184   5.427 -0.0030 -0.3454 -2.4806
 1677SOL     OW 5029   3.493   1.915   6.301 -0.4744  0.4503  0.3469
 1677SOL    HW1 5030   3.461   2.005   6.302 -1.0600  0.2467  0.4526
 1677SOL    HW2 5031   3.452   1.875   6.378 -0.2439  0.0858  0.2802
 1678SOL     OW 5032   4.090   2.874   5.296 -0.3608  0.3481  0.6589
 1678SOL    HW1 5033   4.004   2.893   5.258 -1.4466 -2.3832  1.4856
 1678SOL    HW2 5034   4.071   2.852   5.387  0.9491 -1.8545  0.4723
 1679SOL     OW 5035   3.497   0.832   7.193  0.0495 -0.1807  0.2454
 1679SOL    HW1 5036   3.440   0.866   7.263 -1.9531 -2.8041  0.0481
 1679SOL    HW2 5037   3.571   0.792   7.240  0.2057  0.5874  0.6767
 1680SOL     OW 5038   1.703   1.262   5.675  0.0395  0.4989 -0.1861
 1680SOL    HW1 5039   1.766   1.192   5.694 -0.8229 -0.1022  0.5471
 1680SOL    HW2 5040   1.683   1.299   5.761  0.7716  1.9273 -0.6012
 1681SOL     OW 5041   1.659   4.484   7.708  0.0134 -0.2217  0.0142
 1681SOL    HW1 5042   1.627   4.521   7.790 -1.5378  0.3955 -0.8338
 1681SOL    HW2 5043   1.712   4.553   7.669 -1.5324  0.5544 -0.7875
 1682SOL     OW 5044   1.584   3.637   6.115  0.2574 -0.2318 -0.5580
 1682SOL    HW1 5045   1.642   3.567   6.145  1.0035 -0.1088 -1.6366
 1682SOL    HW2 5046   1.634   3.718   6.129 -0.3099  0.0332  0.0091
 1683SOL     OW 5047   2.873   4.615   7.180  0.2640  0.2256  0.1533
 1683SOL    HW1 5048   2.921   4.581   7.255  0.6339  2.0259  0.7776
 1683SOL    HW2 5049   2.850   4.705   7.204 -1.8760  0.0321 -0.8560
 1684SOL     OW 5050   2.935   0.430   5.340  0.2074 -0.2589 -0.3075
 1684SOL    HW1 5051   2.839   0.424   5.333  0.1429 -0.1098  0.3855
 1684SOL    HW2 5052   2.954   0.522   5.319  0.2920 -0.5050 -1.3576
 1685SOL     OW 5053   2.698   3.527   7.313  0.1756  0.4008  1.2750
 1685SOL    HW1 5054   2.643   3.601   7.285 -0.4192 -0.6845 -0.6304
 1685SOL    HW2 5055   2.640   3.451   7.310  1.0588 -0.3317  2.0829
 1686SOL     OW 5056   2.021   0.928   7.158 -0.3509 -0.2202 -0.6475
 1686SOL    HW1 5057   2.059   0.906   7.073 -1.3813  1.6054 -1.6472
 1686SOL    HW2 5058   2.075   1.000   7.191 -0.6352 -0.1607 -0.3049
 1687SOL     OW 5059   3.624   1.532   6.653 -0.2339 -0.0194  0.1122
 1687SOL    HW1 5060   3.640   1.613   6.606 -1.8805  0.0109 -0.4702
 1687SOL    HW2 5061   3.623   1.464   6.585  1.3060 -0.5992  0.6081
 1688SOL     OW 5062   1.983   4.053   6.229  0.2903  0.5767 -0.2568
 1688SOL    HW1 5063   2.005   4.099   6.310 -0.5389 -0.8513  0.8513
 1688SOL    HW2 5064   2.041   3.977   6.228 -1.2904 -0.6989  0.2861
 1689SOL     OW 5065   0.317   0.689   8.918  0.2755 -0.1684  0.3266
 1689SOL    HW1 5066   0.319   0.720   8.827 -0.0842 -0.1920  0.3085
 1689SOL    HW2 5067   0.296   0.596   8.911  1.0304 -0.3515  0.3981
 1690SOL     OW 5068   4.350   0.578   6.672  0.8956  0.0507  0.4260
 1690SOL    HW1 5069   4.435   0.618   6.650  0.3370  0.3137 -1.3993
 1690SOL    HW2 5070   4.373   0.493   6.710  1.9756 -0.6304 -1.6090
 1691SOL     OW 5071   1.606   0.636   7.016 -0.5308 -0.3008 -0.2554
 1691SOL    HW1 5072   1.670   0.704   6.996 -0.2789 -0.0406  1.3292
 1691SOL    HW2 5073   1.641   0.557   6.975 -0.4431  0.3422 -1.4614
 1692SOL     OW 5074   3.544   0.279   5.064  0.3238 -0.2678  0.2084
 1692SOL    HW1 5075   3.469   0.303   5.117  0.5550  1.9756 -0.3939
 1692SOL    HW2 5076   3.609   0.348   5.081  0.8076 -0.0782 -2.1301
 1693SOL     OW 5077   2.903   4.268   6.808  0.4864  0.4597 -0.0327
 1693SOL    HW1 5078   2.860   4.313   6.881 -0.3049 -1.2891  0.6549
 1693SOL    HW2 5079   2.841   4.275   6.736  0.9094  1.4923 -0.3092
 1694SOL     OW 5080   2.165   1.524   5.331 -0.2970 -0.1002 -0.6688
 1694SOL    HW1 5081   2.079   1.549   5.297 -1.1527 -2.1107 -0.0961
 1694SOL    HW2 5082   2.177   1.434   5.302  1.3247 -0.0790 -0.1410
 1695SOL     OW 5083   2.023   4.735   6.350  0.8130 -0.7453  0.2632
 1695SOL    HW1 5084   1.990   4.682   6.422 -0.0664 -1.2973 -0.5288
 1695SOL    HW2 5085   2.074   4.674   6.296  0.1887 -0.6816 -0.4001
 1696SOL     OW 5086   3.448   1.522   5.251  0.1277  0.4974 -0.1679
 1696SOL    HW1 5087   3.390   1.588   5.289  0.3966  0.9235 -0.4726
 1696SOL    HW2 5088   3.441   1.536   5.156  0.2741  0.1609 -0.2308
 1697SOL     OW 5089   3.218   0.454   6.693 -0.2226 -0.0076 -0.1260
 1697SOL    HW1 5090   3.297   0.455   6.746  0.0099 -0.0282 -0.4717
 1697SOL    HW2 5091   3.211   0.542   6.658 -1.1258  0.4053  1.0319
 1698SOL     OW 5092   2.061   1.521   5.789  0.2062 -0.4271 -0.0961
 1698SOL    HW1 5093   2.098   1.594   5.838 -2.8398 -1.0638  3.6307
 1698SOL    HW2 5094   2.117   1.446   5.812  1.4596  0.0794 -1.3718
 1699SOL     OW 5095   3.922   4.939   6.931  0.2402  0.0039 -0.1129
 1699SOL    HW1 5096   3.934   4.850   6.964 -0.2132 -0.0379 -0.0479
 1699SOL    HW2 5097   3.896   4.927   6.840  0.3624  0.0776 -0.1574
 1700SOL     OW 5098   1.371   2.046   6.668  0.4091 -0.2198 -0.1420
 1700SOL    HW1 5099   1.290   2.045   6.720 -0.4076 -0.1529 -1.3885
 1700SOL    HW2 5100   1.385   1.955   6.643  1.7737 -0.5500  1.6033
 1701SOL     OW 5101   0.323   0.910   4.969 -0.2688  0.2562 -0.2608
 1701SOL    HW1 5102   0.345   0.975   5.036 -0.3272  0.7036 -0.6704
 1701SOL    HW2 5103   0.331   0.826   5.014  0.2149  0.5216  0.1616
 1702SOL     OW 5104   2.864   1.049   6.096 -0.7353 -1.1217 -0.8119
 1702SOL    HW1 5105   2.778   1.018   6.070 -1.1657  0.6964 -1.7337
 1702SOL    HW2 5106   2.881   1.125   6.039  1.0439 -0.8473  0.0018
 1703SOL     OW 5107   0.661   1.575   8.059  0.0091 -0.6510  0.4699
 1703SOL    HW1 5108   0.569   1.550   8.047 -0.0191 -0.0130 -0.7652
 1703SOL    HW2 5109   0.657   1.662   8.098  0.1052 -1.0394  1.3718
 1704SOL     OW 5110   1.805   4.744   5.798  0.4091 -0.8034 -0.0798
 1704SOL    HW1 5111   1.867   4.795   5.849  0.7087  0.8990 -2.0116
 1704SOL    HW2 5112   1.857   4.671   5.763  0.5051 -1.2294  0.9194
 1705SOL     OW 5113   3.356   1.763   5.783  0.4412 -0.4144 -0.2972
 1705SOL    HW1 5114   3.427   1.701   5.766 -0.1011 -1.2151  0.2519
 1705SOL    HW2 5115   3.400   1.843   5.811  1.1667 -0.4471 -1.2891
 1706SOL     OW 5116   1.035   1.411   5.935 -0.1088  0.4639  0.4952
 1706SOL    HW1 5117   1.122   1.399   5.973  0.1973  0.4034 -0.2032
 1706SOL    HW2 5118   0.983   1.338   5.970  0.7273 -0.8138 -0.8114
 1707SOL     OW 5119   0.483   0.059   6.565  0.1036  0.3498 -0.0302
 1707SOL    HW1 5120   0.402   0.007   6.570 -0.1102  0.3603 -2.2891
 1707SOL    HW2 5121   0.547  -0.000   6.525  0.2998  1.3107 -1.1819
 1708SOL     OW 5122   2.432   1.447   5.395 -0.3754 -0.2848  0.3793
 1708SOL    HW1 5123   2.363   1.507   5.369 -0.4246 -1.5228 -2.8225
 1708SOL    HW2 5124   2.511   1.502   5.400 -0.8467  0.4591 -0.1038
 1709SOL     OW 5125   4.632   0.591   6.461  0.2665 -0.3256 -0.9763
 1709SOL    HW1 5126   4.718   0.579   6.420  0.5810  0.9612 -0.7620
 1709SOL    HW2 5127   4.633   0.533   6.537  1.4924  0.6314 -0.2211
 1710SOL     OW 5128   1.221   1.264   7.558 -0.1411  0.4488  0.0534
 1710SOL    HW1 5129   1.241   1.194   7.496 -0.1282  1.1367 -0.7546
 1710SOL    HW2 5130   1.302   1.275   7.608  0.7379  1.5071 -1.4835
 1711SOL     OW 5131   0.568   4.303   5.431  0.1724  0.2763 -0.1794
 1711SOL    HW1 5132   0.500   4.286   5.496 -1.4780  2.0892 -1.3722
 1711SOL    HW2 5133   0.649   4.305   5.483 -0.7244 -1.1245  1.3837
 1712SOL     OW 5134   1.637   1.039   5.492  0.1453  0.6266  0.1602
 1712SOL    HW1 5135   1.629   0.958   5.542 -2.9177  0.5637 -0.2639
 1712SOL    HW2 5136   1.616   1.108   5.555  1.0479  0.9681  0.0998
 1713SOL     OW 5137   4.562   1.444   5.807 -0.2531 -0.0988  0.0646
 1713SOL    HW1 5138   4.626   1.511   5.783  0.8916 -0.1526  2.6281
 1713SOL    HW2 5139   4.483   1.493   5.831  0.1316  0.2313  0.6459
 1714SOL     OW 5140   3.872  -0.033   7.714 -0.7198 -0.2899 -0.0617
 1714SOL    HW1 5141   3.812   0.030   7.673 -0.3336  1.2682  1.6326
 1714SOL    HW2 5142   3.901   0.011   7.794  1.0435 -1.8919  0.2321
 1715SOL     OW 5143   1.714   1.844   6.299 -0.1100  0.2896  0.0061
 1715SOL    HW1 5144   1.659   1.849   6.377  2.1766  1.2059  1.6610
 1715SOL    HW2 5145   1.775   1.918   6.307  1.8237 -1.0498 -1.3334
 1716SOL     OW 5146   4.085   4.428   7.018  0.5584  0.2039 -0.2570
 1716SOL    HW1 5147   4.122   4.341   7.036  0.1037 -0.4664 -2.3187
 1716SOL    HW2 5148   4.026   4.414   6.944  2.2285  2.6246 -2.2380
 1717SOL     OW 5149   1.905   3.718   7.722  0.3858 -0.4180 -0.0520
 1717SOL    HW1 5150   1.975   3.670   7.678 -0.3964 -1.7937  0.1179
 1717SOL    HW2 5151   1.871   3.777   7.655  0.2409 -1.3645 -0.8430
 1718SOL     OW 5152   2.844   4.002   5.707 -0.0984 -0.1398 -0.1758
 1718SOL    HW1 5153   2.913   4.012   5.772  0.2167  2.2416 -0.7767
 1718SOL    HW2 5154   2.789   3.932   5.741  0.7130  0.2128  2.0274
 1719SOL     OW 5155   2.569   0.871   6.909 -0.1383 -0.4149  0.4364
 1719SOL    HW1 5156   2.491   0.848   6.858  0.4091 -1.5048  0.0504
 1719SOL    HW2 5157   2.616   0.788   6.920  0.0113 -0.1209  2.3342
 1720SOL     OW 5158   4.295   0.823   5.065  0.3826 -0.0430 -0.1544
 1720SOL    HW1 5159   4.382   0.813   5.027  0.0671 -0.3055 -0.8315
 1720SOL    HW2 5160   4.285   0.917   5.078  0.9495 -0.0497  0.3804
 1721SOL     OW 5161   3.309   0.855   5.097 -0.8278  0.0151  0.5292
 1721SOL    HW1 5162   3.228   0.815   5.067 -0.7695  0.7635 -0.7266
 1721SOL    HW2 5163   3.378   0.801   5.059 -0.7534  0.5101 -0.0626
 1722SOL     OW 5164   1.784   0.061   6.481  0.3092 -0.3612 -0.3243
 1722SOL    HW1 5165   1.781   0.105   6.397  0.2861  0.8251  0.2769
 1722SOL    HW2 5166   1.873   0.076   6.514 -0.1811  0.6900  0.6091
 1723SOL     OW 5167   4.333   1.581   6.652  0.2108 -0.2261  0.2311
 1723SOL    HW1 5168   4.368   1.493   6.635  1.3955  0.2234  0.2555
 1723SOL    HW2 5169   4.264   1.592   6.587  0.1957 -1.0960  0.0858
 1724SOL     OW 5170   1.727   0.430   6.450 -0.1887 -0.0996  0.3997
 1724SOL    HW1 5171   1.688   0.350   6.485 -0.7336  0.9329  2.2653
 1724SOL    HW2 5172   1.705   0.428   6.357 -1.5366 -1.3574  0.7097
 1725SOL     OW 5173   2.643   3.701   5.273  0.5923  0.0225 -0.1181
 1725SOL    HW1 5174   2.602   3.622   5.307  0.6527  0.2685  0.5370
 1725SOL    HW2 5175   2.675   3.676   5.186  1.2037 -0.8711  0.3482
 1726SOL     OW 5176   3.770   0.285   6.872  1.0741  0.1663  0.0325
 1726SOL    HW1 5177   3.794   0.287   6.779 -1.9015  1.4135 -0.8286
 1726SOL    HW2 5178   3.723   0.202   6.882  3.0988 -0.9530  1.0265
 1727SOL     OW 5179   3.375   0.757   5.744  0.0820  0.3765  0.0859
 1727SOL    HW1 5180   3.348   0.837   5.788  2.1684 -0.4335  3.2031
 1727SOL    HW2 5181   3.470   0.754   5.756  0.4292 -1.1946 -2.4337
 1728SOL     OW 5182   4.555   1.405   7.468  0.0156 -0.3284  0.5434
 1728SOL    HW1 5183   4.563   1.341   7.539  1.5652 -2.5762 -1.5170
 1728SOL    HW2 5184   4.466   1.439   7.477 -0.3622 -1.6667  2.6113
 1729SOL     OW 5185   2.407   2.495   6.306 -0.0568 -0.3466  0.0238
 1729SOL    HW1 5186   2.481   2.436   6.292 -0.8127 -1.5603  1.0283
 1729SOL    HW2 5187   2.355   2.489   6.225  0.1873 -0.5660 -0.1175
 1730SOL     OW 5188   4.002   2.715   5.543  0.2781 -0.2672  0.2263
 1730SOL    HW1 5189   3.980   2.755   5.627  0.4825  0.8716 -0.2460
 1730SOL    HW2 5190   3.932   2.651   5.528 -0.9709  1.0388  0.2655
 1731SOL     OW 5191   4.029   4.557   5.911  0.1137  0.0766 -0.1129
 1731SOL    HW1 5192   3.949   4.545   5.859 -0.1021 -1.3913  0.4992
 1731SOL    HW2 5193   4.019   4.497   5.985  1.2090  0.8304  0.6812
 1732SOL     OW 5194   3.030   0.445   5.901  0.2458  0.5293 -0.5268
 1732SOL    HW1 5195   3.053   0.371   5.957  0.4896  0.4916 -0.6731
 1732SOL    HW2 5196   3.112   0.469   5.858  0.4615  1.7028  0.4731
 1733SOL     OW 5197   1.362   1.679   5.087  0.0229 -0.3148 -0.3289
 1733SOL    HW1 5198   1.268   1.658   5.089 -0.3145  0.9337  2.7183
 1733SOL    HW2 5199   1.405   1.595   5.104 -0.1809 -1.5826 -4.8365
 1734SOL     OW 5200   2.794   2.875   8.046  0.3511 -0.1146 -0.6947
 1734SOL    HW1 5201   2.769   2.949   7.990  0.9606 -0.3460 -1.2944
 1734SOL    HW2 5202   2.833   2.812   7.985  0.4945 -0.6214 -0.0835
 1735SOL     OW 5203   4.251   3.253   7.399 -0.3614  0.2358  0.6139
 1735SOL    HW1 5204   4.163   3.272   7.432 -1.3685  1.9648 -2.5814
 1735SOL    HW2 5205   4.299   3.335   7.412  0.1249 -0.0262  0.4838
 1736SOL     OW 5206   0.713   4.610   5.764  0.8046 -0.5475 -0.7806
 1736SOL    HW1 5207   0.631   4.565   5.743 -0.0663  0.4204  0.3525
 1736SOL    HW2 5208   0.718   4.607   5.860  1.1220  1.0024 -0.7217
 1737SOL     OW 5209   3.348   0.157   6.152  0.5491 -0.0448 -0.6013
 1737SOL    HW1 5210   3.383   0.110   6.228  1.3781  0.7571 -0.4625
 1737SOL    HW2 5211   3.425   0.195   6.110  0.0064  0.3007 -1.3130
 1738SOL     OW 5212   3.091   4.463   6.502  0.3385 -0.3786 -0.5026
 1738SOL    HW1 5213   3.078   4.471   6.597  2.5454 -0.3388 -0.1713
 1738SOL    HW2 5214   3.039   4.386   6.478 -2.9195  1.4137  0.0945
 1739SOL     OW 5215   3.057   4.698   7.486  1.0353 -0.0698  0.2689
 1739SOL    HW1 5216   3.073   4.790   7.509  1.9604 -0.3670  0.8751
 1739SOL    HW2 5217   2.984   4.672   7.541 -0.0164  0.6207 -0.7545
 1740SOL     OW 5218   0.817   2.320   5.172  0.0891 -0.2606  0.4941
 1740SOL    HW1 5219   0.765   2.255   5.219  0.0941 -0.8285 -0.2695
 1740SOL    HW2 5220   0.880   2.268   5.122 -1.0185  0.2243 -1.4812
 1741SOL     OW 5221   1.417   4.313   6.742 -1.0867  0.3379  0.1721
 1741SOL    HW1 5222   1.491   4.262   6.710 -0.7779  0.6359  0.4144
 1741SOL    HW2 5223   1.367   4.252   6.797 -0.1092  0.6025  1.3845
 1742SOL     OW 5224   1.067   0.964   6.794  0.0812 -0.7824 -0.1492
 1742SOL    HW1 5225   1.111   0.882   6.772  1.9227  0.3302 -0.8760
 1742SOL    HW2 5226   0.974   0.944   6.791  0.4654 -3.3339  1.7140
 1743SOL     OW 5227   4.482   1.416   5.543  0.7024 -0.4508  0.3254
 1743SOL    HW1 5228   4.544   1.346   5.522  1.7863  0.9262 -1.3503
 1743SOL    HW2 5229   4.487   1.425   5.638 -0.0851 -3.1359  0.7106
 1744SOL     OW 5230   2.298   0.327   7.860 -0.4362 -0.5287  0.1323
 1744SOL    HW1 5231   2.361   0.257   7.844 -1.2053 -1.1542 -0.2012
 1744SOL    HW2 5232   2.350   0.407   7.855  0.5831 -1.0856  1.1713
 1745SOL     OW 5233   3.358   4.099   8.432 -0.5145  0.4314 -0.7416
 1745SOL    HW1 5234   3.353   4.006   8.410  1.1498  0.1011  0.1068
 1745SOL    HW2 5235   3.413   4.102   8.510 -1.6610  2.0329  0.0591
 1746SOL     OW 5236   4.072   1.076   8.971 -0.1578 -0.3124 -0.8485
 1746SOL    HW1 5237   4.057   1.169   8.952 -0.8505 -0.5890 -1.7551
 1746SOL    HW2 5238   4.166   1.069   8.987 -0.1660  0.6092 -0.3507
 1747SOL     OW 5239   2.947   4.545   8.925  0.5090  0.4432  0.3335
 1747SOL    HW1 5240   3.015   4.562   8.990  1.7520 -0.1225 -0.7943
 1747SOL    HW2 5241   2.894   4.475   8.964  1.6743 -0.4008  0.4258
 1748SOL     OW 5242   3.253   0.483   7.149  0.0004 -0.8388  0.1918
 1748SOL    HW1 5243   3.259   0.430   7.070  0.1745 -1.9318  0.9178
 1748SOL    HW2 5244   3.207   0.562   7.122 -0.6708 -1.5571 -0.8184
 1749SOL     OW 5245   4.899   1.177   7.211 -0.5504  0.0805 -0.4812
 1749SOL    HW1 5246   4.815   1.221   7.214 -1.6710 -1.9626 -0.3102
 1749SOL    HW2 5247   4.948   1.214   7.284 -0.8544  2.0676 -1.2335
 1750SOL     OW 5248   3.019   1.050   5.775  0.3611  0.4510  0.1395
 1750SOL    HW1 5249   2.934   1.020   5.808  0.9053 -0.9989  0.2787
 1750SOL    HW2 5250   3.004   1.141   5.750 -1.4517 -0.0113 -0.6082
 1751SOL     OW 5251   3.144   1.163   7.914  0.1583 -0.1792  0.2755
 1751SOL    HW1 5252   3.093   1.226   7.965 -0.1224  0.5309 -0.8473
 1751SOL    HW2 5253   3.184   1.107   7.980 -1.1333 -0.0364  1.2300
 1752SOL     OW 5254   3.235   0.961   8.073 -0.1611 -0.6056  0.1160
 1752SOL    HW1 5255   3.317   0.939   8.117  0.0053 -1.4314 -0.5779
 1752SOL    HW2 5256   3.201   0.877   8.042 -1.6490 -0.3666  1.0126
 1753SOL     OW 5257   1.141   2.270   6.340  0.3257 -0.4082  0.0768
 1753SOL    HW1 5258   1.151   2.180   6.372  0.7178 -0.6432 -0.6835
 1753SOL    HW2 5259   1.047   2.285   6.341  0.3026 -0.5058  1.0496
 1754SOL     OW 5260   2.684   3.190   6.742 -0.2140  0.3409 -0.9632
 1754SOL    HW1 5261   2.655   3.196   6.833  0.2867 -0.6334 -0.7309
 1754SOL    HW2 5262   2.779   3.194   6.747 -0.1628 -0.2051 -1.3992
 1755SOL     OW 5263   2.030   1.630   7.015  0.2391 -0.0217 -0.0758
 1755SOL    HW1 5264   2.000   1.714   6.982 -0.4200 -0.4175 -0.5284
 1755SOL    HW2 5265   2.031   1.573   6.938 -1.4539 -0.9900  0.5547
 1756SOL     OW 5266   2.240   4.745   7.147  0.1201 -0.0135  0.1454
 1756SOL    HW1 5267   2.271   4.800   7.076 -0.5055  1.0020  0.6397
 1756SOL    HW2 5268   2.145   4.740   7.134 -0.1165  0.8849  1.3700
 1757SOL     OW 5269   1.351   0.579   7.712  0.0810 -0.2807 -0.2929
 1757SOL    HW1 5270   1.307   0.651   7.667  1.6461  1.1722  0.3846
 1757SOL    HW2 5271   1.373   0.517   7.642 -2.3884 -0.8043 -0.7316
 1758SOL     OW 5272   3.316   2.995   8.259  0.0712  0.1904 -0.0883
 1758SOL    HW1 5273   3.319   2.947   8.342  1.1394  0.7654  0.2296
 1758SOL    HW2 5274   3.322   2.928   8.192  3.7856 -0.1320  0.3476
 1759SOL     OW 5275   1.943   1.140   6.983  0.3433  0.5754 -0.2745
 1759SOL    HW1 5276   1.943   1.072   7.051 -0.6591  0.6448 -0.1917
 1759SOL    HW2 5277   1.962   1.093   6.902  0.3430  0.3033 -0.1171
 1760SOL     OW 5278   4.107   3.181   9.717  0.8670 -0.1237 -0.1414
 1760SOL    HW1 5279   4.083   3.130   9.795 -1.0058  0.2961 -0.4010
 1760SOL    HW2 5280   4.098   3.272   9.744 -1.0384  0.0378 -1.1494
 1761SOL     OW 5281   2.225   4.412   7.801  0.2953 -0.0278 -0.0406
 1761SOL    HW1 5282   2.240   4.455   7.886  0.9572  0.5899 -0.4544
 1761SOL    HW2 5283   2.313   4.392   7.769  0.2374  2.0749 -1.7466
 1762SOL     OW 5284   3.625   2.825   5.885  0.6445 -0.1229  0.0140
 1762SOL    HW1 5285   3.626   2.907   5.935  0.9064 -0.8813  1.2990
 1762SOL    HW2 5286   3.708   2.826   5.836  0.5650  0.4601 -0.1099
 1763SOL     OW 5287   4.270   1.815   6.824 -0.2359  0.3131  0.5462
 1763SOL    HW1 5288   4.181   1.849   6.821 -0.9032 -1.3919  0.2235
 1763SOL    HW2 5289   4.284   1.774   6.739  0.7633  0.3365  0.6842
 1764SOL     OW 5290   2.748   0.159   8.797  0.0071  0.6822  0.3092
 1764SOL    HW1 5291   2.659   0.162   8.831 -0.5181 -0.2771 -0.9307
 1764SOL    HW2 5292   2.799   0.122   8.870 -0.9553 -0.5793  0.3889
 1765SOL     OW 5293   4.424   1.055   6.548  0.3736  0.2037  0.6805
 1765SOL    HW1 5294   4.351   1.021   6.600 -1.5973  1.3691 -1.1398
 1765SOL    HW2 5295   4.383   1.082   6.465  2.8432  1.2279 -0.2808
 1766SOL     OW 5296   3.890   4.378   9.608 -0.1415 -0.4864 -0.2431
 1766SOL    HW1 5297   3.855   4.426   9.533  0.5566  0.8177  0.2320
 1766SOL    HW2 5298   3.985   4.377   9.595 -0.0706 -0.9348  0.2380
 1767SOL     OW 5299   2.714   2.458   7.173 -0.1911  0.4527 -0.3394
 1767SOL    HW1 5300   2.622   2.480   7.158  0.1806  1.7896 -0.8162
 1767SOL    HW2 5301   2.754   2.541   7.200  0.6098 -0.3884  1.2417
 1768SOL     OW 5302   2.389   0.583   7.920 -0.2384 -0.1003 -0.3606
 1768SOL    HW1 5303   2.448   0.656   7.902 -1.5415  1.2264  0.5231
 1768SOL    HW2 5304   2.405   0.560   8.011 -1.0642  0.2655 -0.1145
 1769SOL     OW 5305   1.273   3.422   7.550  0.5610  0.1754 -0.1793
 1769SOL    HW1 5306   1.331   3.355   7.586 -0.7963 -1.2759 -0.5463
 1769SOL    HW2 5307   1.200   3.426   7.613  0.1670  0.6144 -0.6557
 1770SOL     OW 5308   3.622   2.412   6.341 -0.1889 -0.0870 -0.3272
 1770SOL    HW1 5309   3.697   2.466   6.369 -1.3829  1.0408  0.8434
 1770SOL    HW2 5310   3.639   2.326   6.380  0.7892 -0.0150 -0.5677
 1771SOL     OW 5311   3.649   0.695   5.811 -0.2899 -0.4522  0.3100
 1771SOL    HW1 5312   3.701   0.775   5.820 -0.2532 -0.3463 -0.7175
 1771SOL    HW2 5313   3.653   0.654   5.897  1.1630 -0.2302  0.3797
 1772SOL     OW 5314   2.845   2.661   7.888  0.3737  0.1151  0.1815
 1772SOL    HW1 5315   2.903   2.613   7.947  0.4274 -0.8489 -0.6136
 1772SOL    HW2 5316   2.890   2.660   7.804  0.8004  2.4158  0.3398
 1773SOL     OW 5317   4.915   2.422   9.098  0.3470 -0.1318  0.0255
 1773SOL    HW1 5318   4.925   2.495   9.160  1.1427  1.7518 -2.1539
 1773SOL    HW2 5319   4.825   2.429   9.067  0.4056 -0.0899 -0.1389
 1774SOL     OW 5320   3.163   4.559   9.141 -0.2692  0.2422 -0.3339
 1774SOL    HW1 5321   3.141   4.567   9.234 -1.1951  0.3408 -0.5507
 1774SOL    HW2 5322   3.187   4.467   9.130  3.9725  0.9815  0.8242
 1775SOL     OW 5323   2.664   1.592   7.647 -0.2451  0.3510 -0.3693
 1775SOL    HW1 5324   2.667   1.561   7.737  1.0687  0.4736 -0.3429
 1775SOL    HW2 5325   2.686   1.685   7.653 -4.2986  1.4591 -0.4340
 1776SOL     OW 5326   0.884   4.625   6.256  0.6473 -0.5750 -0.3733
 1776SOL    HW1 5327   0.847   4.605   6.342  0.4191  0.1867 -0.2927
 1776SOL    HW2 5328   0.969   4.663   6.274 -0.0412  1.0749 -0.3897
 1777SOL     OW 5329   4.887   3.989   8.328 -0.2037 -0.3676 -0.0296
 1777SOL    HW1 5330   4.816   3.929   8.348 -0.0982 -0.3318  0.4835
 1777SOL    HW2 5331   4.961   3.957   8.381  0.9752 -1.9592 -2.4562
 1778SOL     OW 5332   3.328   1.149   7.305  0.1208 -0.0501 -0.2848
 1778SOL    HW1 5333   3.350   1.224   7.250 -0.0009  1.4070  1.5548
 1778SOL    HW2 5334   3.258   1.104   7.258 -0.8787  1.8680 -0.7344
 1779SOL     OW 5335   3.441   0.442   8.303 -0.0601 -0.8770  0.5395
 1779SOL    HW1 5336   3.440   0.422   8.209  2.3146 -1.4855  0.5911
 1779SOL    HW2 5337   3.443   0.356   8.346  1.1203 -0.6076  1.0531
 1780SOL     OW 5338   3.366   4.609   9.461 -0.3054 -0.5343  0.6351
 1780SOL    HW1 5339   3.300   4.542   9.442  0.2959 -0.4377 -2.3262
 1780SOL    HW2 5340   3.316   4.688   9.480 -1.1085 -0.5722 -1.1244
 1781SOL     OW 5341   3.423   0.073   8.752 -0.1591 -0.2510 -0.1573
 1781SOL    HW1 5342   3.475   0.108   8.824 -1.9412  1.1369  0.5364
 1781SOL    HW2 5343   3.410   0.147   8.693 -1.8764 -0.3599  0.0400
 1782SOL     OW 5344   3.457   1.293   9.263  0.4221  0.0698 -0.3269
 1782SOL    HW1 5345   3.437   1.309   9.171  0.9095  2.0228 -0.1425
 1782SOL    HW2 5346   3.484   1.378   9.297 -0.4832 -0.4348  1.8321
 1783SOL     OW 5347   2.540   4.848   7.541  0.0962 -0.0751 -0.5823
 1783SOL    HW1 5348   2.461   4.803   7.513  0.2306 -0.5574 -0.2138
 1783SOL    HW2 5349   2.557   4.913   7.473  1.1939 -2.1002 -2.3709
 1784SOL     OW 5350   1.636   1.546   7.588  0.7145 -0.0570 -0.2371
 1784SOL    HW1 5351   1.613   1.632   7.555 -0.8318 -0.8838 -1.4228
 1784SOL    HW2 5352   1.638   1.490   7.510 -0.2840 -1.4954  0.7251
 1785SOL     OW 5353   1.306   1.470   7.211 -0.1647 -0.0176 -0.1023
 1785SOL    HW1 5354   1.388   1.462   7.259 -0.6778  0.4130  0.8676
 1785SOL    HW2 5355   1.298   1.386   7.165 -0.4041 -1.1161  1.8017
 1786SOL     OW 5356   2.993   3.832   6.323  0.2998 -0.2410  0.2554
 1786SOL    HW1 5357   2.937   3.886   6.269  0.4651  2.3006  2.4327
 1786SOL    HW2 5358   3.040   3.776   6.261 -0.4717  1.5553 -2.0812
 1787SOL     OW 5359   3.578   4.671   9.260  0.3321 -0.1077  0.2719
 1787SOL    HW1 5360   3.529   4.640   9.184 -1.1311  0.4132  0.9750
 1787SOL    HW2 5361   3.517   4.663   9.333  1.3624  0.4026  1.2233
 1788SOL     OW 5362   2.884   0.663   5.897 -0.3376  0.1819  0.4409
 1788SOL    HW1 5363   2.798   0.626   5.920 -0.5559 -0.2804 -1.0091
 1788SOL    HW2 5364   2.941   0.586   5.891 -0.1776  0.3365 -0.0393
 1789SOL     OW 5365   2.174   1.050   7.381  0.2634 -0.2395 -0.8927
 1789SOL    HW1 5366   2.236   1.086   7.444 -0.0363 -1.1152 -0.0807
 1789SOL    HW2 5367   2.088   1.064   7.422  0.1108 -1.4392 -0.7722
 1790SOL     OW 5368   1.644   0.434   8.205  0.1000  0.3056  0.0354
 1790SOL    HW1 5369   1.592   0.500   8.252 -0.0292 -0.0155  0.3459
 1790SOL    HW2 5370   1.612   0.439   8.115 -1.8478 -1.1909  0.5629
 1791SOL     OW 5371   2.291   1.773   7.120  0.4792 -0.2839  0.4778
 1791SOL    HW1 5372   2.236   1.702   7.088  0.5325  0.1563 -0.6146
 1791SOL    HW2 5373   2.339   1.735   7.194 -1.8345 -0.4534  1.9958
 1792SOL     OW 5374   1.976   1.766   8.953  0.5176 -0.6832  0.4071
 1792SOL    HW1 5375   1.938   1.807   9.031  0.4582 -0.8868  0.4864
 1792SOL    HW2 5376   2.005   1.679   8.984  0.7477 -0.6558  0.2701
 1793SOL     OW 5377   2.448   0.799   8.100 -0.4412 -0.2532 -0.4659
 1793SOL    HW1 5378   2.439   0.769   8.191 -0.0927  0.1113 -0.3102
 1793SOL    HW2 5379   2.542   0.810   8.088 -0.5939  2.1221 -0.0654
 1794SOL     OW 5380   1.913   1.377   6.571  0.5913 -0.2577  0.0229
 1794SOL    HW1 5381   1.914   1.354   6.478  0.0059 -1.2261  0.2435
 1794SOL    HW2 5382   1.857   1.454   6.576  1.6731  0.6067 -0.5799
 1795SOL     OW 5383   3.310   0.062   7.846 -0.1734 -0.9887 -0.1429
 1795SOL    HW1 5384   3.337   0.022   7.929  1.6959 -1.8329 -1.0874
 1795SOL    HW2 5385   3.321  -0.008   7.781 -0.1072  0.0853 -1.3300
 1796SOL     OW 5386   1.485   2.653   8.864  0.4667 -0.4503  0.2116
 1796SOL    HW1 5387   1.546   2.642   8.937 -1.1167 -0.5899  1.5916
 1796SOL    HW2 5388   1.415   2.591   8.882 -0.4650  0.2422 -0.8840
 1797SOL     OW 5389   4.197   3.959   5.509  0.7546 -1.1487  0.4632
 1797SOL    HW1 5390   4.195   4.050   5.537  1.3089 -1.3436  1.1828
 1797SOL    HW2 5391   4.251   3.958   5.430  0.7368 -0.8573  0.4482
 1798SOL     OW 5392   2.074   0.645   8.399 -0.0047 -0.5854 -0.5862
 1798SOL    HW1 5393   1.997   0.593   8.422  0.3185 -0.4835  0.7672
 1798SOL    HW2 5394   2.060   0.729   8.442 -0.1480  0.2093 -2.1149
 1799SOL     OW 5395   4.142   2.749   7.241  0.0428 -0.7338  0.4235
 1799SOL    HW1 5396   4.095   2.820   7.284  1.1935 -0.3535  1.0991
 1799SOL    HW2 5397   4.218   2.791   7.201 -0.1673 -1.3303 -0.6396
 1800SOL     OW 5398   2.467   0.572   7.040 -0.2362 -0.3581 -0.3450
 1800SOL    HW1 5399   2.432   0.510   6.976 -0.3832 -1.2795  0.6006
 1800SOL    HW2 5400   2.426   0.656   7.017 -0.7002 -0.7824 -1.1161
 1801SOL     OW 5401   2.507   4.748   8.598 -0.6158  0.3344  0.3640
 1801SOL    HW1 5402   2.594   4.757   8.561 -0.0087  2.1581  2.0739
 1801SOL    HW2 5403   2.476   4.662   8.568  2.2337 -0.8872  0.6562
 1802SOL     OW 5404   1.126   0.461   8.065 -0.3721  0.3408  0.2652
 1802SOL    HW1 5405   1.173   0.520   8.125  0.4725  0.1792 -0.2201
 1802SOL    HW2 5406   1.119   0.379   8.114  0.2005  0.2490  0.2053
 1803SOL     OW 5407   1.536   2.485   7.646  0.4329 -0.3888  0.1877
 1803SOL    HW1 5408   1.469   2.484   7.714  1.3378  0.3355  1.1272
 1803SOL    HW2 5409   1.509   2.554   7.586  0.8936  0.6596  1.1651
 1804SOL     OW 5410   1.020   4.200   7.878 -0.1938  0.2742  0.1024
 1804SOL    HW1 5411   0.925   4.192   7.876 -0.2928  1.4942 -0.6633
 1804SOL    HW2 5412   1.037   4.293   7.865  1.0844  0.2419  1.3273
 1805SOL     OW 5413   4.273   0.674   8.700 -0.0855 -0.1426  0.0543
 1805SOL    HW1 5414   4.194   0.707   8.743  0.0759  2.0105 -1.1375
 1805SOL    HW2 5415   4.240   0.611   8.636 -0.7670  0.1542  0.0983
 1806SOL     OW 5416   2.936   3.442   8.281 -0.9671 -0.0991 -0.3889
 1806SOL    HW1 5417   2.971   3.354   8.267  0.6475  0.1143  1.8587
 1806SOL    HW2 5418   2.893   3.437   8.367 -1.6243  1.1046 -0.6298
 1807SOL     OW 5419   0.073   3.714   9.216 -0.3201  0.2483  0.1833
 1807SOL    HW1 5420   0.079   3.621   9.193 -1.4849 -0.0703  1.0831
 1807SOL    HW2 5421  -0.020   3.734   9.211 -0.1236  1.2822  0.3897
 1808SOL     OW 5422   3.150   0.587   7.380  0.0199  0.1839  0.0496
 1808SOL    HW1 5423   3.210   0.661   7.396  1.2191 -0.2218 -2.1337
 1808SOL    HW2 5424   3.200   0.528   7.323 -1.4585 -1.6110  0.5184
 1809SOL     OW 5425   3.005   0.990   7.737 -0.2345  0.5713 -0.2995
 1809SOL    HW1 5426   2.933   1.051   7.720 -0.4325  0.5198  0.3255
 1809SOL    HW2 5427   3.063   1.037   7.797 -0.6338 -0.0238  0.5680
 1810SOL     OW 5428   2.302   1.128   7.603  0.3509  0.2295  0.0934
 1810SOL    HW1 5429   2.235   1.195   7.621 -0.7412 -0.7992 -0.0146
 1810SOL    HW2 5430   2.383   1.166   7.636 -0.2318  1.6286 -0.0112
 1811SOL     OW 5431   3.149   4.131   7.582  0.3047  0.0055 -0.4575
 1811SOL    HW1 5432   3.181   4.044   7.607  1.6294  0.7943  0.8019
 1811SOL    HW2 5433   3.065   4.115   7.541 -0.5899 -1.7059  1.8125
 1812SOL     OW 5434   3.019   3.567   7.580  0.3898  0.1874  0.2397
 1812SOL    HW1 5435   3.033   3.632   7.649  0.6061 -0.4499  0.8001
 1812SOL    HW2 5436   2.924   3.562   7.570  0.3797  0.7467  0.0459
 1813SOL     OW 5437   1.809   1.589   5.855 -0.4160  0.0390 -0.0598
 1813SOL    HW1 5438   1.825   1.617   5.945 -0.7159 -0.1552  0.0549
 1813SOL    HW2 5439   1.887   1.538   5.832 -0.3637  0.0427  0.1083
 1814SOL     OW 5440   2.052   0.997   6.779  0.8814 -0.4744  0.4348
 1814SOL    HW1 5441   2.111   1.071   6.767  2.0649 -1.0097  2.5714
 1814SOL    HW2 5442   2.016   0.980   6.691  0.4920  2.6415 -0.1018
 1815SOL     OW 5443   3.572   2.023   7.183 -0.3202  0.4650  0.0964
 1815SOL    HW1 5444   3.544   1.954   7.243 -0.6322  1.2794  0.9047
 1815SOL    HW2 5445   3.667   2.029   7.195 -0.2873  0.1694  0.0031
 1816SOL     OW 5446   0.153   1.988   7.779  0.0392 -0.4652  0.2009
 1816SOL    HW1 5447   0.136   2.080   7.802 -0.3981 -0.8013  1.3009
 1816SOL    HW2 5448   0.247   1.985   7.759 -0.1605  0.4284 -0.9424
 1817SOL     OW 5449   3.097   1.552   9.258  0.2058 -0.3425 -0.0765
 1817SOL    HW1 5450   3.187   1.583   9.248  0.8629 -1.9063  0.6253
 1817SOL    HW2 5451   3.044   1.617   9.211  1.6532  0.7663 -0.2641
 1818SOL     OW 5452   3.663   0.961   8.059 -0.0104 -0.1604 -0.0935
 1818SOL    HW1 5453   3.636   0.935   7.971 -1.0917 -2.2245  0.7646
 1818SOL    HW2 5454   3.748   0.917   8.072  0.6484  0.9720 -0.4378
 1819SOL     OW 5455   2.008   0.607   7.332 -0.4871 -0.1853  0.0134
 1819SOL    HW1 5456   2.102   0.605   7.352 -0.6527 -0.0019  0.8510
 1819SOL    HW2 5457   1.976   0.521   7.358 -0.6145 -0.1209  0.0702
 1820SOL     OW 5458   1.379   0.059   8.193  0.2480  0.1408 -0.0395
 1820SOL    HW1 5459   1.470   0.086   8.196  0.3069 -0.0962  2.4890
 1820SOL    HW2 5460   1.362   0.019   8.279 -2.7307  1.9548  0.3796
 1821SOL     OW 5461   3.093   1.709   8.377  0.2844 -0.2041  0.0800
 1821SOL    HW1 5462   3.161   1.767   8.342 -1.5043  1.5679 -0.6865
 1821SOL    HW2 5463   3.055   1.758   8.451 -0.3130 -1.0323  0.3404
 1822SOL     OW 5464   2.965   1.868   8.590 -0.0562 -0.1384  0.1333
 1822SOL    HW1 5465   2.912   1.840   8.665 -1.2331  1.3714 -0.0908
 1822SOL    HW2 5466   3.018   1.940   8.623 -1.1781  1.0834 -0.6617
 1823SOL     OW 5467   4.465   2.981   7.432 -0.2383 -0.3450  0.3127
 1823SOL    HW1 5468   4.548   3.019   7.401 -0.3316  0.5958  1.1554
 1823SOL    HW2 5469   4.416   3.056   7.467 -1.3273 -0.9345  0.0994
 1824SOL     OW 5470   2.476   2.848   8.721  0.1749 -0.4364  0.4176
 1824SOL    HW1 5471   2.510   2.914   8.661  0.6528 -1.2105 -0.1744
 1824SOL    HW2 5472   2.417   2.897   8.779  1.1582  0.6641  0.5267
 1825SOL     OW 5473   4.673   2.318   7.318 -0.6778 -0.6136 -0.1957
 1825SOL    HW1 5474   4.706   2.238   7.359 -0.4688 -0.7142 -0.5583
 1825SOL    HW2 5475   4.697   2.310   7.226  0.4656  0.4396 -0.0240
 1826SOL     OW 5476   4.633   0.697   9.022 -0.3057 -0.4590 -0.1897
 1826SOL    HW1 5477   4.674   0.635   9.082  0.9493 -0.8431 -1.4015
 1826SOL    HW2 5478   4.542   0.704   9.053  0.6959  0.7597  2.8510
 1827SOL     OW 5479   4.394   4.725   7.837  0.2372 -0.0944 -0.0292
 1827SOL    HW1 5480   4.322   4.678   7.878 -0.0002  0.0994 -0.2193
 1827SOL    HW2 5481   4.465   4.723   7.901 -0.0459 -0.0087  0.2869
 1828SOL     OW 5482   1.996   0.067   6.843  0.5603 -0.0738  0.3789
 1828SOL    HW1 5483   1.969   0.159   6.848  2.6024  0.5504  0.8665
 1828SOL    HW2 5484   1.979   0.043   6.752  0.2227  0.8555  0.1784
 1829SOL     OW 5485   0.615   4.996   7.949  0.2198  0.2323  0.7817
 1829SOL    HW1 5486   0.673   4.941   8.001  1.3531  0.4216 -0.2291
 1829SOL    HW2 5487   0.540   5.012   8.006 -1.2044 -4.0298  0.4639
 1830SOL     OW 5488   2.642   4.249   5.993 -0.1302 -0.2407  0.2516
 1830SOL    HW1 5489   2.644   4.304   5.914  1.7788 -2.6112 -1.4963
 1830SOL    HW2 5490   2.571   4.187   5.977 -1.3834  0.7640  1.6097
 1831SOL     OW 5491   1.036   4.374   6.651  0.6314 -0.4173  0.3765
 1831SOL    HW1 5492   1.113   4.347   6.602  0.0510 -0.2383 -0.6489
 1831SOL    HW2 5493   0.965   4.320   6.617  0.4026 -1.0622  1.7773
 1832SOL     OW 5494   0.224   1.801   6.287  0.1097 -0.3364 -0.2246
 1832SOL    HW1 5495   0.288   1.868   6.264  0.0563 -0.5322 -0.9831
 1832SOL    HW2 5496   0.191   1.769   6.202 -1.6488  0.3776  0.1574
 1833SOL     OW 5497   0.042   1.956   8.338 -0.1246  0.3149 -0.0138
 1833SOL    HW1 5498   0.035   1.894   8.266 -0.5021 -0.3809  0.6089
 1833SOL    HW2 5499  -0.020   2.026   8.315 -0.8647 -0.3134  0.0279
 1834SOL     OW 5500   3.541   1.216   8.123  0.3239 -0.1901 -0.1047
 1834SOL    HW1 5501   3.606   1.270   8.077  1.2649  0.4742  1.9102
 1834SOL    HW2 5502   3.567   1.126   8.103  1.4029  0.0786  0.0490
 1835SOL     OW 5503   1.533   1.795   7.471  0.0528  0.5665 -0.2756
 1835SOL    HW1 5504   1.443   1.809   7.499  0.1661  3.0562 -0.8638
 1835SOL    HW2 5505   1.533   1.817   7.378  0.6501 -2.7477 -1.1737
 1836SOL     OW 5506   1.471   4.479   7.459 -0.7653  0.3351  0.5846
 1836SOL    HW1 5507   1.540   4.418   7.482 -0.5250  1.0417  1.8523
 1836SOL    HW2 5508   1.498   4.562   7.498 -0.7712  1.4454 -1.5880
 1837SOL     OW 5509   1.649   3.857   8.343 -0.2444  0.0642  0.6911
 1837SOL    HW1 5510   1.743   3.862   8.326 -0.4038  0.6246 -0.1096
 1837SOL    HW2 5511   1.626   3.766   8.323  0.1745 -0.1475  1.1641
 1838SOL     OW 5512   2.899   2.404   9.023  0.1565  0.0415 -0.1052
 1838SOL    HW1 5513   2.828   2.359   8.977  1.2126 -1.2021 -0.5995
 1838SOL    HW2 5514   2.856   2.448   9.097 -1.0298 -1.2903  0.0404
 1839SOL     OW 5515   1.908   2.908   6.730 -0.3722  0.0703  0.8581
 1839SOL    HW1 5516   1.875   2.983   6.681  0.7607  0.4212  0.6025
 1839SOL    HW2 5517   1.900   2.834   6.670 -2.3625 -0.2401  1.4260
 1840SOL     OW 5518   2.166   1.238   6.719 -0.0385 -0.2251 -0.5205
 1840SOL    HW1 5519   2.232   1.281   6.664  1.5357 -0.1252  1.3303
 1840SOL    HW2 5520   2.087   1.290   6.706  0.6512  0.6108 -1.6159
 1841SOL     OW 5521   2.431   0.485   8.177  0.5885 -0.3025 -0.3681
 1841SOL    HW1 5522   2.383   0.504   8.258  0.5471 -0.4557 -0.3578
 1841SOL    HW2 5523   2.520   0.469   8.206  0.8532  0.8678 -0.4723
 1842SOL     OW 5524   1.870   2.671   8.759  0.4242  0.4474 -0.1412
 1842SOL    HW1 5525   1.875   2.604   8.827  1.2350 -0.2313 -0.8411
 1842SOL    HW2 5526   1.777   2.679   8.740  0.2539  0.1065  0.5381
 1843SOL     OW 5527   1.269   0.262   6.933  0.0118  0.2632  0.3207
 1843SOL    HW1 5528   1.358   0.242   6.905  0.1376 -0.4687  1.2033
 1843SOL    HW2 5529   1.243   0.187   6.987 -1.2332  0.3413 -0.1312
 1844SOL     OW 5530   4.961   0.627   8.590 -0.0298  0.3974  0.3821
 1844SOL    HW1 5531   4.961   0.722   8.604  2.3181  0.7604 -1.5388
 1844SOL    HW2 5532   5.003   0.591   8.668 -1.3765  0.8130  1.3538
 1845SOL     OW 5533   0.113   0.961   7.378  0.0136 -0.6535 -0.4782
 1845SOL    HW1 5534   0.096   0.883   7.429  0.7770 -0.6244 -0.1667
 1845SOL    HW2 5535   0.202   0.950   7.345  0.6410  0.6366  0.6364
 1846SOL     OW 5536   4.328   4.959   8.891  0.3222  0.1740 -0.1488
 1846SOL    HW1 5537   4.352   5.028   8.952  0.2878  0.3626 -0.3469
 1846SOL    HW2 5538   4.397   4.959   8.825  0.3497 -0.0147 -0.1210
 1847SOL     OW 5539   2.321   4.657   9.080 -0.0452  0.5199  0.3479
 1847SOL    HW1 5540   2.225   4.652   9.083 -0.0080 -0.7454  0.0813
 1847SOL    HW2 5541   2.349   4.639   9.169 -0.0266 -0.9482  0.0779
 1848SOL     OW 5542   2.198   2.270   8.792 -0.2624  1.0415 -0.2719
 1848SOL    HW1 5543   2.181   2.182   8.826 -1.4031  1.5835  0.6332
 1848SOL    HW2 5544   2.264   2.257   8.724 -0.1309 -0.4620  0.1057
 1849SOL     OW 5545   2.519   2.257   8.408  0.3661  0.2500  0.1791
 1849SOL    HW1 5546   2.580   2.303   8.349  0.7139 -1.4215 -0.8479
 1849SOL    HW2 5547   2.576   2.201   8.461 -0.0715  0.7427  1.1862
 1850SOL     OW 5548   3.465   1.171   7.530  0.0162 -0.2922  0.1156
 1850SOL    HW1 5549   3.413   1.158   7.451  2.0053 -0.6447 -1.2266
 1850SOL    HW2 5550   3.546   1.211   7.499  0.6650  0.0019  2.0539
 1851SOL     OW 5551   3.066   1.984   7.214  0.4033  0.3564  0.3168
 1851SOL    HW1 5552   3.139   2.001   7.154  0.1375 -0.1085 -0.1479
 1851SOL    HW2 5553   3.024   1.905   7.179 -0.2636  0.5640  0.6260
 1852SOL     OW 5554   2.573   4.546   5.422 -0.2962 -0.3073 -0.0611
 1852SOL    HW1 5555   2.485   4.562   5.455  0.1047  3.0803 -0.3470
 1852SOL    HW2 5556   2.563   4.472   5.361 -2.6401 -0.8441  0.8739
 1853SOL     OW 5557   3.464   0.855   8.227 -0.0291  0.8866 -0.5046
 1853SOL    HW1 5558   3.536   0.894   8.178  0.1000  0.9774 -0.2458
 1853SOL    HW2 5559   3.471   0.894   8.314  0.4843 -0.1668 -0.0471
 1854SOL     OW 5560   2.003   1.679   4.975  0.4194 -0.2068 -0.2040
 1854SOL    HW1 5561   2.015   1.718   5.062 -2.1501 -1.7164  0.9517
 1854SOL    HW2 5562   1.952   1.744   4.927  0.3706 -0.0791  0.0175
 1855SOL     OW 5563   4.971   1.803   4.988  0.0372  0.2676 -0.1474
 1855SOL    HW1 5564   5.024   1.731   4.954 -0.4786  0.3332 -1.1024
 1855SOL    HW2 5565   4.888   1.763   5.013  0.1715  0.3358  0.4357
 1856SOL     OW 5566   1.756   2.386   7.992 -0.3166  0.4243  0.0528
 1856SOL    HW1 5567   1.784   2.467   7.948 -1.4281  0.6516 -0.2711
 1856SOL    HW2 5568   1.836   2.335   8.002  0.2952  1.2815 -0.3391
 1857SOL     OW 5569   1.107   2.326   7.421 -0.1620 -0.1421  0.0719
 1857SOL    HW1 5570   1.068   2.295   7.503 -0.6504 -1.0728 -0.5050
 1857SOL    HW2 5571   1.201   2.312   7.433 -0.2974 -1.0173  0.1726
 1858SOL     OW 5572   1.868   2.107   7.625  0.2739 -0.5972 -0.0343
 1858SOL    HW1 5573   1.915   2.163   7.686 -1.6609 -0.9478  1.9259
 1858SOL    HW2 5574   1.896   2.018   7.648 -0.5282 -0.7358  0.4632
 1859SOL     OW 5575   2.991   4.354   8.406 -0.1062  1.1044  0.3247
 1859SOL    HW1 5576   2.901   4.331   8.428 -0.2993  0.3105 -1.1241
 1859SOL    HW2 5577   3.043   4.322   8.479 -0.7480 -0.8344 -0.0150
 1860SOL     OW 5578   2.014   2.307   6.634 -0.2894  0.5447  0.0477
 1860SOL    HW1 5579   1.930   2.297   6.590 -1.9621  1.0047  2.8740
 1860SOL    HW2 5580   2.021   2.402   6.649 -0.5695  0.2819  2.0597
 1861SOL     OW 5581   2.510   2.704   6.567 -0.3600  0.4620  0.1467
 1861SOL    HW1 5582   2.452   2.770   6.604  0.9426  2.0779 -0.5481
 1861SOL    HW2 5583   2.461   2.622   6.573 -1.6558  1.3058  1.9259
 1862SOL     OW 5584   2.051   1.577   7.307 -0.7148 -0.1938  0.3648
 1862SOL    HW1 5585   2.049   1.571   7.211 -0.9280  0.8346  0.2955
 1862SOL    HW2 5586   2.114   1.510   7.333  0.4970  0.5105 -0.5968
 1863SOL     OW 5587   2.048   1.853   7.368 -0.1721  0.5528  0.5798
 1863SOL    HW1 5588   2.043   1.760   7.345 -0.1459  0.3765  1.2519
 1863SOL    HW2 5589   2.120   1.857   7.431 -1.5207  0.6752  2.1643
 1864SOL     OW 5590   3.284   1.526   8.400  0.1967 -0.2170  0.2543
 1864SOL    HW1 5591   3.255   1.491   8.484 -1.6607  2.1268  0.7098
 1864SOL    HW2 5592   3.215   1.587   8.374  1.4324  0.2736 -2.2623
 1865SOL     OW 5593   0.786   2.346   6.952  1.0118  0.2098 -0.3448
 1865SOL    HW1 5594   0.735   2.409   6.901 -1.0415 -0.4903  0.7401
 1865SOL    HW2 5595   0.870   2.340   6.906 -1.2513 -1.8433 -4.8850
 1866SOL     OW 5596   4.629   4.653   7.994 -0.0624  0.1624  0.6941
 1866SOL    HW1 5597   4.683   4.584   7.956 -0.9915 -0.9427  1.3229
 1866SOL    HW2 5598   4.692   4.723   8.016  0.6143  0.5623 -2.0871
 1867SOL     OW 5599   0.893   4.268   8.269  0.9144  0.1259  0.4376
 1867SOL    HW1 5600   0.806   4.259   8.307  0.5689 -0.2155 -0.4164
 1867SOL    HW2 5601   0.878   4.312   8.185  1.4705 -0.6245 -0.0711
 1868SOL     OW 5602   2.021   0.915   8.484  0.1029 -0.2182 -0.9536
 1868SOL    HW1 5603   2.103   0.933   8.439  0.3261 -1.1491 -0.9504
 1868SOL    HW2 5604   2.023   0.968   8.563  1.1312 -0.9303 -0.4859
 1869SOL     OW 5605   3.117   4.506   7.295 -0.6095 -0.9323  0.2442
 1869SOL    HW1 5606   3.106   4.571   7.364 -1.8219  0.6832 -1.3963
 1869SOL    HW2 5607   3.188   4.449   7.327 -0.3692  0.4143  2.2784
 1870SOL     OW 5608   2.205   4.606   6.191  0.2466 -0.5603 -0.1679
 1870SOL    HW1 5609   2.205   4.510   6.189 -0.3033 -0.5625 -1.7039
 1870SOL    HW2 5610   2.297   4.630   6.201  0.7982 -1.2920 -2.7057
 1871SOL     OW 5611   4.710   0.652   8.750 -0.0643 -0.0397  0.7147
 1871SOL    HW1 5612   4.683   0.561   8.763  0.4863 -0.5553 -1.5014
 1871SOL    HW2 5613   4.705   0.691   8.838  0.4744 -2.3970  1.8599
 1872SOL     OW 5614   3.781   3.570   9.431 -0.4013  0.2968  0.1459
 1872SOL    HW1 5615   3.735   3.503   9.381  1.5597 -0.8369 -0.2604
 1872SOL    HW2 5616   3.833   3.618   9.367 -0.4870  1.0957  0.6567
 1873SOL     OW 5617   2.071   2.271   5.837 -0.0313  0.6710  0.2372
 1873SOL    HW1 5618   2.167   2.274   5.842  0.1316 -2.7668  2.3318
 1873SOL    HW2 5619   2.053   2.240   5.748  0.8886  0.2670  0.1730
 1874SOL     OW 5620   0.489   1.580   7.159 -0.6054  0.8789  0.9251
 1874SOL    HW1 5621   0.514   1.540   7.242 -0.4208 -1.7055 -0.3078
 1874SOL    HW2 5622   0.393   1.575   7.157 -0.5448 -0.3498  0.4100
 1875SOL     OW 5623   2.351   0.866   7.714 -0.2544 -0.4622 -0.2056
 1875SOL    HW1 5624   2.307   0.947   7.690  0.8629  0.7615  1.6309
 1875SOL    HW2 5625   2.284   0.813   7.756 -0.4569  0.5611  0.7920
 1876SOL     OW 5626   1.430   4.933   6.143 -0.3594 -0.2166 -0.4443
 1876SOL    HW1 5627   1.485   4.892   6.076  2.2881  2.7956 -0.3390
 1876SOL    HW2 5628   1.441   4.878   6.220 -0.3467 -1.5762 -1.3688
 1877SOL     OW 5629   1.157   1.107   7.784  0.6807  0.1714  0.0605
 1877SOL    HW1 5630   1.087   1.155   7.828 -0.2587 -1.6745  0.6721
 1877SOL    HW2 5631   1.193   1.170   7.722 -0.0537  1.8521  1.2701
 1878SOL     OW 5632   0.350   1.173   7.668 -0.0212  0.0841 -0.2851
 1878SOL    HW1 5633   0.280   1.159   7.731 -1.3288  1.5969 -1.3152
 1878SOL    HW2 5634   0.368   1.086   7.632 -1.1846 -0.3724  0.2102
 1879SOL     OW 5635   2.679   4.075   7.813  0.0601  0.9027 -0.1074
 1879SOL    HW1 5636   2.650   3.992   7.849 -0.7811  0.3755 -1.9097
 1879SOL    HW2 5637   2.772   4.062   7.795  0.4816  1.1454  1.6652
 1880SOL     OW 5638   1.325   1.052   6.730 -0.0293  0.7284 -0.5632
 1880SOL    HW1 5639   1.325   0.965   6.771  1.7548 -0.2131 -2.3771
 1880SOL    HW2 5640   1.255   1.047   6.664  0.7208  0.2579 -1.3549
 1881SOL     OW 5641   1.370   2.391   8.605 -0.2878  0.4751  0.2506
 1881SOL    HW1 5642   1.432   2.381   8.678 -0.0253  0.0212 -0.0325
 1881SOL    HW2 5643   1.317   2.311   8.608 -0.0510  0.2981 -0.2679
 1882SOL     OW 5644   1.964   4.486   9.126  0.4193 -0.5825  0.1763
 1882SOL    HW1 5645   1.902   4.442   9.067  0.3471 -1.7778  1.1074
 1882SOL    HW2 5646   2.046   4.438   9.114  1.3184  1.1696 -1.2639
 1883SOL     OW 5647   1.273   0.549   8.325 -0.5462  0.5759 -0.2387
 1883SOL    HW1 5648   1.295   0.465   8.364 -0.5299 -0.0274 -1.5107
 1883SOL    HW2 5649   1.180   0.560   8.342 -0.5088  0.3955  0.0895
 1884SOL     OW 5650   2.484   2.524   8.062 -0.2248 -0.3244 -0.2296
 1884SOL    HW1 5651   2.420   2.453   8.051 -2.2066  1.5176 -1.4403
 1884SOL    HW2 5652   2.503   2.552   7.973  0.4541  0.7384  0.2401
 1885SOL     OW 5653   1.407   4.929   8.431  0.1812 -0.0622 -0.0586
 1885SOL    HW1 5654   1.482   4.966   8.477  0.9621 -0.5251 -0.9391
 1885SOL    HW2 5655   1.415   4.834   8.444 -1.2059 -0.0367  1.2683
 1886SOL     OW 5656   1.432   3.291   8.637 -0.2420  0.6954 -0.8403
 1886SOL    HW1 5657   1.521   3.320   8.657 -0.1838  0.8392 -1.2852
 1886SOL    HW2 5658   1.393   3.272   8.722 -0.0974  1.5507 -0.5674
 1887SOL     OW 5659   3.813   4.233   9.280 -0.5706 -0.1427  0.2516
 1887SOL    HW1 5660   3.836   4.153   9.233 -1.9157  0.5601 -1.7507
 1887SOL    HW2 5661   3.887   4.291   9.267 -1.0846  0.1890 -1.4687
 1888SOL     OW 5662   2.134   1.664   6.323  0.1319  0.1713  0.1763
 1888SOL    HW1 5663   2.156   1.757   6.331  3.4499 -0.4986  0.4354
 1888SOL    HW2 5664   2.112   1.636   6.412 -1.5230  0.7917 -0.0101
 1889SOL     OW 5665   4.650   0.530   7.135 -0.3280 -0.0936 -0.3128
 1889SOL    HW1 5666   4.608   0.571   7.211  0.2957 -1.9529  1.1240
 1889SOL    HW2 5667   4.577   0.508   7.076 -1.3746 -2.2417  1.6205
 1890SOL     OW 5668   1.062   1.468   8.517  0.3349  0.5888 -0.2376
 1890SOL    HW1 5669   1.024   1.554   8.503  0.6553  0.6565 -0.7140
 1890SOL    HW2 5670   1.041   1.447   8.608  1.2655  1.6801  0.2616
 1891SOL     OW 5671   1.496   3.635   7.992  0.0451 -0.9348 -0.2895
 1891SOL    HW1 5672   1.435   3.562   8.001 -0.1919 -0.8424 -1.0467
 1891SOL    HW2 5673   1.549   3.633   8.071 -1.0587 -0.9226  0.4605
 1892SOL     OW 5674   3.369   2.628   9.016  0.4125  0.4162 -0.3511
 1892SOL    HW1 5675   3.366   2.722   9.038 -1.1793  1.1717 -3.3265
 1892SOL    HW2 5676   3.296   2.590   9.065  0.6792  0.8061  0.3785
 1893SOL     OW 5677   4.337   0.606   6.101 -0.5334 -0.0018 -0.4385
 1893SOL    HW1 5678   4.253   0.562   6.114 -0.8213  0.4098 -0.8612
 1893SOL    HW2 5679   4.314   0.695   6.074  0.0415  0.3932  0.3443
 1894SOL     OW 5680   3.218   1.103   8.439 -0.0761 -0.6493 -0.0168
 1894SOL    HW1 5681   3.212   1.108   8.534  1.1172  2.0152  0.0046
 1894SOL    HW2 5682   3.295   1.156   8.417 -0.0234 -1.5884 -2.4534
 1895SOL     OW 5683   0.521   1.841   7.173  0.4952  0.1605  0.3806
 1895SOL    HW1 5684   0.609   1.863   7.142 -0.0228  0.1712 -1.1540
 1895SOL    HW2 5685   0.513   1.747   7.158  0.3932  0.0789  0.9304
 1896SOL     OW 5686   3.214   0.567   8.252 -0.0547  0.3100 -0.0150
 1896SOL    HW1 5687   3.131   0.520   8.267  0.8260 -1.2897  0.0839
 1896SOL    HW2 5688   3.278   0.519   8.304  0.9232  1.6494  0.0680
 1897SOL     OW 5689   2.519   1.480   8.803 -0.4409 -0.4478  0.1998
 1897SOL    HW1 5690   2.443   1.423   8.790 -0.4358 -0.2016 -1.0968
 1897SOL    HW2 5691   2.528   1.526   8.719  2.5490 -2.1921 -0.5969
 1898SOL     OW 5692   2.308   1.041   8.671  0.7307  0.7216 -0.1522
 1898SOL    HW1 5693   2.252   1.057   8.595  0.3552 -0.4535 -0.1450
 1898SOL    HW2 5694   2.293   0.949   8.694  1.8309  0.6823  0.5351
 1899SOL     OW 5695   3.155   0.141   8.422  0.2662  0.7032 -0.7861
 1899SOL    HW1 5696   3.125   0.135   8.513 -0.2448  0.9586 -0.9301
 1899SOL    HW2 5697   3.233   0.086   8.418 -1.6601 -2.2287 -1.0136
 1900SOL     OW 5698   0.051   3.674   7.024  0.3794  0.3585 -0.4349
 1900SOL    HW1 5699   0.031   3.759   6.986  0.6239  0.9920  0.7857
 1900SOL    HW2 5700   0.133   3.688   7.072  0.4904 -0.6041 -0.3264
 1901SOL     OW 5701   1.017   0.473   8.390  0.0745  0.0486 -0.6472
 1901SOL    HW1 5702   1.083   0.423   8.438  1.0527  3.7030  2.2234
 1901SOL    HW2 5703   0.934   0.445   8.428  0.4531 -0.4187 -0.1364
 1902SOL     OW 5704   3.540   1.391   7.262  0.3527  0.0586 -0.6326
 1902SOL    HW1 5705   3.526   1.349   7.177  1.6710 -1.2020 -0.2612
 1902SOL    HW2 5706   3.588   1.327   7.314 -2.1567 -0.0356  1.8277
 1903SOL     OW 5707   1.771   3.082   7.487  0.3297 -0.0771 -0.6668
 1903SOL    HW1 5708   1.849   3.134   7.507  0.8611 -0.8621 -0.6920
 1903SOL    HW2 5709   1.775   3.007   7.546  0.0242 -0.5434 -1.2256
 1904SOL     OW 5710   3.149   1.649   7.389 -0.5187  0.0740 -0.2285
 1904SOL    HW1 5711   3.167   1.633   7.297 -0.4567 -1.1957 -0.0120
 1904SOL    HW2 5712   3.192   1.577   7.435  0.1984  1.1598  0.8700
 1905SOL     OW 5713   0.034   3.151   6.597 -0.0351  0.2846 -0.0076
 1905SOL    HW1 5714  -0.004   3.134   6.510  2.4249  1.3185 -1.3782
 1905SOL    HW2 5715   0.016   3.243   6.613  0.1302  0.2698  0.2550
 1906SOL     OW 5716   3.398   1.657   9.928  0.0385 -0.1574  0.2125
 1906SOL    HW1 5717   3.418   1.565   9.912  1.0528  0.1938 -0.6733
 1906SOL    HW2 5718   3.304   1.659   9.943 -0.1800 -1.1877 -0.9095
 1907SOL     OW 5719   4.845   3.127   7.604  0.5034 -1.2823 -0.6333
 1907SOL    HW1 5720   4.871   3.135   7.512  0.3635 -1.4270 -0.6884
 1907SOL    HW2 5721   4.924   3.145   7.654  0.2576  0.2271 -0.7393
 1908SOL     OW 5722   1.879   1.194   7.467 -0.5655 -0.2942  0.5531
 1908SOL    HW1 5723   1.839   1.221   7.385 -1.4640  1.2510  1.4634
 1908SOL    HW2 5724   1.848   1.104   7.480 -1.8837  0.0733  0.0852
 1909SOL     OW 5725   2.407   4.607   6.951 -0.1438  0.5939 -0.4313
 1909SOL    HW1 5726   2.318   4.625   6.918 -0.1210  1.2766 -0.1221
 1909SOL    HW2 5727   2.436   4.690   6.988 -0.3225 -0.2372  1.6928
 1910SOL     OW 5728   2.503   4.695   6.218  0.5191 -0.1500 -0.1004
 1910SOL    HW1 5729   2.491   4.741   6.135  0.1461 -0.1357 -0.0425
 1910SOL    HW2 5730   2.596   4.671   6.219  0.2129 -1.5428 -1.2483
 1911SOL     OW 5731   4.369   4.962   9.413  0.3897 -0.3032  0.2084
 1911SOL    HW1 5732   4.381   4.909   9.491  0.0456 -0.6866  0.0019
 1911SOL    HW2 5733   4.376   4.900   9.340 -1.5189 -0.3449  0.0100
 1912SOL     OW 5734   1.840   0.718   5.154  0.1551  0.3224  0.4506
 1912SOL    HW1 5735   1.917   0.666   5.177 -1.4628 -1.4565  2.2243
 1912SOL    HW2 5736   1.863   0.807   5.180  1.9922  0.0595 -0.1127
 1913SOL     OW 5737   2.841   1.897   8.826 -0.3484 -0.4444 -0.1088
 1913SOL    HW1 5738   2.888   1.943   8.895  0.7589 -0.0914 -1.0577
 1913SOL    HW2 5739   2.753   1.884   8.861 -0.2056  0.9107  0.8406
 1914SOL     OW 5740   2.257   3.180   7.758 -0.0897  0.1306  0.9543
 1914SOL    HW1 5741   2.280   3.265   7.721 -0.2784 -0.5461 -0.8045
 1914SOL    HW2 5742   2.335   3.153   7.808  0.4252  0.7961  0.5181
 1915SOL     OW 5743   2.168   0.951   5.419 -0.2431  0.1558  0.0081
 1915SOL    HW1 5744   2.164   0.997   5.334  0.1425 -0.6810 -0.4736
 1915SOL    HW2 5745   2.260   0.959   5.446 -0.6921  1.9104  1.2156
 1916SOL     OW 5746   3.846   0.721   7.816 -0.0305 -0.4331 -0.6502
 1916SOL    HW1 5747   3.755   0.700   7.796 -0.1376  0.5322 -1.3140
 1916SOL    HW2 5748   3.847   0.817   7.822  0.9018 -0.4439 -0.4755
 1917SOL     OW 5749   1.675   3.543   5.681 -0.4445  0.1505 -0.0132
 1917SOL    HW1 5750   1.759   3.526   5.724  0.3780  0.0247 -1.5850
 1917SOL    HW2 5751   1.634   3.611   5.734  0.9458  0.6907  0.4131
 1918SOL     OW 5752   1.010   0.902   5.488  0.2980  0.0261 -0.5919
 1918SOL    HW1 5753   0.932   0.901   5.431  0.0752 -0.2024 -0.2859
 1918SOL    HW2 5754   0.978   0.871   5.573  0.7314 -0.0965 -0.4719
 1919SOL     OW 5755   0.958   0.622   9.380 -0.2384 -0.1968  0.3416
 1919SOL    HW1 5756   0.869   0.632   9.414 -0.1680  0.2579  0.3894
 1919SOL    HW2 5757   1.014   0.656   9.449 -0.0538  0.0026  0.0925
 1920SOL     OW 5758   2.368   3.409   7.676  0.8036  0.3101  0.4153
 1920SOL    HW1 5759   2.422   3.369   7.607  1.9508  0.6858  1.0793
 1920SOL    HW2 5760   2.423   3.478   7.713 -0.1303  0.6905  1.1286
 1921SOL     OW 5761   4.227   4.196   6.566  0.3150  0.4506  0.0329
 1921SOL    HW1 5762   4.286   4.271   6.556  1.0312 -0.3073 -1.9558
 1921SOL    HW2 5763   4.211   4.166   6.476 -0.9816 -0.9996  0.7073
 1922SOL     OW 5764   3.725   0.400   9.467  0.2021  0.3041 -0.2968
 1922SOL    HW1 5765   3.639   0.358   9.460  0.6510 -0.5626 -0.7738
 1922SOL    HW2 5766   3.788   0.329   9.455  1.0056  0.7369  1.1107
 1923SOL     OW 5767   1.400   1.484   8.127 -0.2281 -0.1659 -0.0776
 1923SOL    HW1 5768   1.488   1.520   8.126  0.0837 -0.8451  0.8326
 1923SOL    HW2 5769   1.353   1.535   8.193 -0.2128 -0.4490  0.1586
 1924SOL     OW 5770   3.903   0.390  10.036  0.0578  0.0636 -0.1295
 1924SOL    HW1 5771   3.829   0.336  10.062 -0.0736 -0.1914 -1.0083
 1924SOL    HW2 5772   3.887   0.475  10.077 -0.0596 -0.3634  0.7343
 1925SOL     OW 5773   2.814   1.373   7.280  0.0091 -0.5909  0.3551
 1925SOL    HW1 5774   2.840   1.446   7.336 -0.0063 -2.0557  2.4011
 1925SOL    HW2 5775   2.889   1.359   7.222  0.1537  0.7664  0.1726
 1926SOL     OW 5776   2.758   1.153   6.900 -0.0086  0.2576 -0.4988
 1926SOL    HW1 5777   2.705   1.117   6.828 -0.5752 -0.8435  0.4244
 1926SOL    HW2 5778   2.694   1.171   6.970  0.3850  2.2950 -0.6022
 1927SOL     OW 5779   3.680   5.005   8.993 -0.3480 -0.9241  0.1590
 1927SOL    HW1 5780   3.709   4.914   8.984 -0.3381 -1.0121  1.0466
 1927SOL    HW2 5781   3.648   5.012   9.083  1.8024  0.5299  0.8892
 1928SOL     OW 5782   0.616   1.291   9.674 -0.3002 -0.2087  0.2011
 1928SOL    HW1 5783   0.613   1.197   9.692  0.0189 -0.4619 -0.9966
 1928SOL    HW2 5784   0.526   1.321   9.684 -0.7883 -1.0476 -1.4341
 1929SOL     OW 5785   3.555   2.306   7.184  0.0234 -0.0733  0.1477
 1929SOL    HW1 5786   3.530   2.214   7.190  0.2482 -0.2320 -1.0183
 1929SOL    HW2 5787   3.526   2.345   7.266  0.1447 -1.2350  0.7594
 1930SOL     OW 5788   0.117   2.266   7.832 -0.2981  0.9854 -0.2692
 1930SOL    HW1 5789   0.042   2.308   7.790 -0.4586  0.0262 -0.9588
 1930SOL    HW2 5790   0.186   2.333   7.831 -0.1619  0.8606 -2.4494
 1931SOL     OW 5791   4.230   0.750   8.961  0.7635  0.2105 -0.1437
 1931SOL    HW1 5792   4.278   0.696   9.023  0.7052  0.7966  0.4261
 1931SOL    HW2 5793   4.144   0.762   9.001 -0.0376 -1.1830 -1.3446
 1932SOL     OW 5794   1.991   0.224   5.103 -0.4009 -0.0120  0.4080
 1932SOL    HW1 5795   2.076   0.268   5.097 -0.5625  0.1674 -1.0191
 1932SOL    HW2 5796   1.980   0.182   5.017 -0.9339 -1.5738  1.2116
 1933SOL     OW 5797   4.320   3.317   8.046 -0.1919 -0.7490  0.2492
 1933SOL    HW1 5798   4.389   3.261   8.081  2.1199 -0.1098 -2.8834
 1933SOL    HW2 5799   4.244   3.299   8.102  2.0574 -2.5289  3.0202
 1934SOL     OW 5800   0.366   1.747   5.175  0.2039  0.0958 -0.2326
 1934SOL    HW1 5801   0.298   1.811   5.154 -0.6897 -0.8142 -0.1633
 1934SOL    HW2 5802   0.322   1.681   5.228  1.0044 -0.8071 -0.6576
 1935SOL     OW 5803   3.446   3.077   6.794 -0.0733 -0.2024 -0.5891
 1935SOL    HW1 5804   3.486   3.125   6.867  2.1004 -2.6272  0.0037
 1935SOL    HW2 5805   3.489   3.112   6.716  0.5996 -0.3071 -0.2805
 1936SOL     OW 5806   1.453   1.354   7.687 -0.0988  0.6901  0.6099
 1936SOL    HW1 5807   1.486   1.268   7.711  0.1678  0.3691 -0.7922
 1936SOL    HW2 5808   1.531   1.410   7.687  0.4085  0.1059 -1.9333
 1937SOL     OW 5809   3.498   0.181   8.439 -0.0532 -0.0655  0.0966
 1937SOL    HW1 5810   3.497   0.095   8.481 -0.4734 -0.7856 -1.3429
 1937SOL    HW2 5811   3.591   0.202   8.429  0.0485 -0.2563  0.6165
 1938SOL     OW 5812   2.852   0.137   6.077 -0.5647 -0.2024  0.4125
 1938SOL    HW1 5813   2.859   0.063   6.137  0.5469 -2.8126 -2.6463
 1938SOL    HW2 5814   2.925   0.194   6.100 -1.1699 -0.2136  2.5326
 1939SOL     OW 5815   4.137   3.667   8.192 -0.0118  0.1930 -0.0313
 1939SOL    HW1 5816   4.119   3.630   8.278  0.6956  0.2985  0.1640
 1939SOL    HW2 5817   4.075   3.739   8.182 -0.6377 -0.3330  0.0536
 1940SOL     OW 5818   2.543   0.440   6.268 -0.3441  0.0453 -0.2947
 1940SOL    HW1 5819   2.586   0.362   6.303  0.4614  0.3728 -0.5275
 1940SOL    HW2 5820   2.595   0.513   6.303 -1.7949  0.5562  0.9111
 1941SOL     OW 5821   2.646   0.946   7.187 -0.0932 -0.0648 -0.5471
 1941SOL    HW1 5822   2.567   0.899   7.212 -0.1716 -0.4265 -1.4318
 1941SOL    HW2 5823   2.666   0.915   7.098  1.1628 -0.1513 -0.2643
 1942SOL     OW 5824   3.125   0.620   6.146 -0.6068 -0.2960  0.2818
 1942SOL    HW1 5825   3.075   0.698   6.123  0.9681  1.7089  2.9878
 1942SOL    HW2 5826   3.196   0.617   6.082  0.1094  1.4149  0.9114
 1943SOL     OW 5827   1.085   1.170   6.554 -0.3037 -0.4530  0.1722
 1943SOL    HW1 5828   1.046   1.156   6.640 -0.2283  1.3543  0.5457
 1943SOL    HW2 5829   1.032   1.117   6.494 -0.0489 -2.1335  1.3687
 1944SOL     OW 5830   3.556   0.721   7.814  0.0095  0.0697  0.8937
 1944SOL    HW1 5831   3.545   0.809   7.778  1.5310  0.0082  0.2075
 1944SOL    HW2 5832   3.472   0.678   7.800  0.4726  0.0434 -2.6271
 1945SOL     OW 5833   2.984   1.384   8.954 -0.0335  0.1590  0.2500
 1945SOL    HW1 5834   2.941   1.452   9.007 -2.1587 -0.5605 -0.4531
 1945SOL    HW2 5835   2.922   1.312   8.952  1.4258 -1.1467 -0.4953
 1946SOL     OW 5836   2.178   4.309   5.799  0.5398 -0.1463  0.0552
 1946SOL    HW1 5837   2.127   4.303   5.718 -0.4188 -1.3787  0.7252
 1946SOL    HW2 5838   2.114   4.330   5.867  0.5393 -3.2885  1.1854
 1947SOL     OW 5839   3.380   1.880   7.753  0.0094  0.7444  0.5312
 1947SOL    HW1 5840   3.371   1.898   7.660  2.5586  0.9275  0.2520
 1947SOL    HW2 5841   3.419   1.793   7.758  0.2825  0.9051  1.4153
 1948SOL     OW 5842   2.592   1.436   7.989  0.7710 -0.5679  0.4506
 1948SOL    HW1 5843   2.636   1.355   8.015  1.0152 -0.7129 -0.4004
 1948SOL    HW2 5844   2.543   1.462   8.067  0.3644 -1.7476  0.6143
 1949SOL     OW 5845   1.134   0.296   7.549  0.1623  0.1486 -0.1581
 1949SOL    HW1 5846   1.149   0.295   7.643  3.1151 -0.6258 -0.5413
 1949SOL    HW2 5847   1.075   0.221   7.533  2.8990 -2.3866  0.7317
 1950SOL     OW 5848   1.975   1.859   6.865  0.0264 -0.2401  0.4933
 1950SOL    HW1 5849   1.905   1.909   6.906 -1.8918 -0.8034 -1.8904
 1950SOL    HW2 5850   1.993   1.906   6.784  1.2876 -1.0232  0.3000
 1951SOL     OW 5851   0.986   1.104   7.129 -0.1425  0.1444 -0.3861
 1951SOL    HW1 5852   1.068   1.080   7.086  1.2580  1.7068  1.2818
 1951SOL    HW2 5853   0.993   1.068   7.217 -1.7063 -0.5244 -0.5003
 1952SOL     OW 5854   1.768   0.228   9.820  0.7510 -0.3828 -0.4381
 1952SOL    HW1 5855   1.771   0.137   9.790  0.5835 -0.0846 -1.4109
 1952SOL    HW2 5856   1.848   0.240   9.870  0.8211 -1.0376 -0.3903
 1953SOL     OW 5857   1.763   1.848   9.394 -0.0531  0.1054 -0.5021
 1953SOL    HW1 5858   1.765   1.879   9.303 -3.3753  1.7162 -0.1709
 1953SOL    HW2 5859   1.715   1.765   9.390  2.1513 -1.2776 -0.4226
 1954SOL     OW 5860   4.077   0.355   9.555 -0.7793  0.0373  0.0534
 1954SOL    HW1 5861   4.068   0.408   9.476 -0.3102  0.0196 -0.0119
 1954SOL    HW2 5862   4.023   0.400   9.620 -0.1243  0.7758  0.0931
 1955SOL     OW 5863   3.929   1.761   9.650 -0.2906  0.2882 -0.1980
 1955SOL    HW1 5864   3.843   1.768   9.691 -0.5713  1.5169 -0.9674
 1955SOL    HW2 5865   3.919   1.802   9.565 -0.1580 -3.6142 -2.3448
 1956SOL     OW 5866   1.122   0.823   9.166 -0.2866 -0.4881 -0.4444
 1956SOL    HW1 5867   1.092   0.858   9.250  0.3702  0.6442 -0.6713
 1956SOL    HW2 5868   1.154   0.735   9.187 -3.7786 -1.8723 -0.1797
 1957SOL     OW 5869   4.832   0.668   9.650  0.0501 -0.3706 -0.1506
 1957SOL    HW1 5870   4.765   0.664   9.718  0.5048 -1.6632  0.2420
 1957SOL    HW2 5871   4.827   0.758   9.618 -1.2751 -0.1949  0.4638
 1958SOL     OW 5872   3.123   2.705   7.525  0.1582 -0.1260  0.1310
 1958SOL    HW1 5873   3.141   2.660   7.442  2.2644 -0.4173  0.6957
 1958SOL    HW2 5874   3.112   2.635   7.589  1.4909  0.0859  0.6321
 1959SOL     OW 5875   3.572   3.637   9.209  0.3659 -0.4588 -0.3865
 1959SOL    HW1 5876   3.594   3.709   9.268  1.4700 -1.3178  0.2855
 1959SOL    HW2 5877   3.626   3.653   9.132 -2.3489  1.6696 -2.0833
 1960SOL     OW 5878   2.934   3.200   9.475  0.9791  0.5698  0.0804
 1960SOL    HW1 5879   2.997   3.174   9.542  0.2693  1.1029  0.9860
 1960SOL    HW2 5880   2.921   3.121   9.423  1.4172  0.0845  0.6825
 1961SOL     OW 5881   2.827   0.669   7.732  0.4940 -0.0448 -0.0796
 1961SOL    HW1 5882   2.843   0.612   7.657  1.0671 -0.6647  0.4886
 1961SOL    HW2 5883   2.915   0.700   7.757  0.1034  2.1314 -1.1413
 1962SOL     OW 5884   1.654   3.338   8.304 -0.5761  0.2073 -0.0829
 1962SOL    HW1 5885   1.663   3.337   8.399 -0.7478  4.2759  0.1772
 1962SOL    HW2 5886   1.574   3.289   8.287 -1.9877  1.5179  2.2068
 1963SOL     OW 5887   1.870   3.312   8.492  0.1512  0.0557  0.2786
 1963SOL    HW1 5888   1.851   3.223   8.522  0.2464 -0.3273 -0.7544
 1963SOL    HW2 5889   1.912   3.299   8.407  0.7815  1.0669  0.4276
 1964SOL     OW 5890   0.563   3.875   7.810 -0.2612 -0.2487  0.5581
 1964SOL    HW1 5891   0.559   3.780   7.805  0.9157 -0.3989  1.8210
 1964SOL    HW2 5892   0.644   3.893   7.859 -0.0172  1.4247 -0.3973
 1965SOL     OW 5893   2.716   2.136   6.945  0.1621  0.0636 -0.0048
 1965SOL    HW1 5894   2.688   2.158   7.034  0.3425  1.4632 -0.2736
 1965SOL    HW2 5895   2.762   2.214   6.914 -1.4510  0.3145 -1.9904
 1966SOL     OW 5896   0.633   2.377   9.196  0.8744 -0.2238 -0.5538
 1966SOL    HW1 5897   0.666   2.314   9.260  2.6743  1.6705  0.4817
 1966SOL    HW2 5898   0.699   2.378   9.127  1.0548  0.7430 -0.3847
 1967SOL     OW 5899   3.084   2.201   9.346  0.1852  0.6114 -0.6233
 1967SOL    HW1 5900   3.102   2.182   9.253 -0.0012  2.0391 -0.9692
 1967SOL    HW2 5901   2.992   2.180   9.357  0.6946 -1.6680 -0.1725
 1968SOL     OW 5902   2.665   2.928   9.206 -0.5212 -0.0673  0.0536
 1968SOL    HW1 5903   2.639   2.846   9.163 -0.3097 -0.5593  0.8399
 1968SOL    HW2 5904   2.591   2.951   9.262 -0.0553 -0.4559  0.8556
 1969SOL     OW 5905   3.845   1.743  10.018  0.0673  0.3740 -0.0942
 1969SOL    HW1 5906   3.783   1.687   9.972  0.4539 -0.0405 -0.1252
 1969SOL    HW2 5907   3.792   1.811  10.059 -0.3194  0.4895 -0.7864
 1970SOL     OW 5908   2.965   0.903   9.361 -0.1134 -0.7394  0.5849
 1970SOL    HW1 5909   2.961   0.908   9.266  0.0841 -2.8307  0.4143
 1970SOL    HW2 5910   2.886   0.947   9.391  1.6177  3.4003 -0.2967
 1971SOL     OW 5911   2.687   1.758   8.050  0.2610 -0.2362 -0.1210
 1971SOL    HW1 5912   2.610   1.701   8.052  0.5463 -0.7551 -2.0046
 1971SOL    HW2 5913   2.760   1.699   8.035  0.8495  0.3998  0.2013
 1972SOL     OW 5914   1.290   4.872   8.015 -0.0972  0.2775  0.1489
 1972SOL    HW1 5915   1.357   4.804   8.029 -0.6958 -0.3538  0.0319
 1972SOL    HW2 5916   1.326   4.950   8.055  0.5512 -0.1514  0.4179
 1973SOL     OW 5917   3.692   4.289   9.789 -0.1152  0.4402  0.2830
 1973SOL    HW1 5918   3.651   4.356   9.844 -1.6487  0.3617 -0.7249
 1973SOL    HW2 5919   3.771   4.332   9.755 -0.7334  1.5280  0.1639
 1974SOL     OW 5920   4.905   2.052   9.502 -0.0975  0.0819  0.0615
 1974SOL    HW1 5921   4.887   1.959   9.491 -0.2233  0.0660  0.3752
 1974SOL    HW2 5922   4.824   2.096   9.475 -0.2583  0.0649  0.5067
 1975SOL     OW 5923   4.587   1.794   9.297 -0.6933 -0.1597  0.2388
 1975SOL    HW1 5924   4.563   1.702   9.304 -2.3939  0.1635 -0.9491
 1975SOL    HW2 5925   4.529   1.839   9.359  1.4120 -0.0081  2.2704
 1976SOL     OW 5926   2.888   3.382   7.768 -0.6459  0.2592  0.5218
 1976SOL    HW1 5927   2.908   3.326   7.693 -3.3877  2.3977 -2.0419
 1976SOL    HW2 5928   2.945   3.458   7.758 -1.5015  0.8700  0.1324
 1977SOL     OW 5929   2.089   1.301   9.405  0.1440 -0.1869 -0.3380
 1977SOL    HW1 5930   2.000   1.267   9.406 -0.1189  0.4903  0.4941
 1977SOL    HW2 5931   2.127   1.265   9.325 -0.5910 -1.1807 -0.2624
 1978SOL     OW 5932   2.460   1.117   8.171 -0.2493 -0.7075  0.0159
 1978SOL    HW1 5933   2.426   1.029   8.153 -0.3726 -0.6522 -0.0205
 1978SOL    HW2 5934   2.397   1.176   8.131 -0.2117 -0.5989  0.1158
 1979SOL     OW 5935   2.910   2.781   8.675  0.0141  0.6601 -0.5627
 1979SOL    HW1 5936   2.972   2.841   8.633 -1.7858  1.0540 -2.8464
 1979SOL    HW2 5937   2.950   2.695   8.666  1.8351  1.2261  1.2364
 1980SOL     OW 5938   4.002   1.330   8.857  0.5230  0.6538  0.0732
 1980SOL    HW1 5939   3.911   1.303   8.847  0.7384  0.3848 -1.5071
 1980SOL    HW2 5940   3.997   1.419   8.893 -0.4124  0.9979 -0.8503
 1981SOL     OW 5941   1.211   1.212   9.425  0.0890  0.9258  0.4519
 1981SOL    HW1 5942   1.128   1.179   9.461  0.5062 -0.0420  0.5577
 1981SOL    HW2 5943   1.205   1.194   9.331 -0.2491  1.8166  0.2925
 1982SOL     OW 5944   2.515   4.466   9.514 -0.6640 -0.0415  0.2649
 1982SOL    HW1 5945   2.566   4.508   9.445 -0.1713 -1.0189  0.0256
 1982SOL    HW2 5946   2.511   4.532   9.584  0.3349  0.3022  0.0114
 1983SOL     OW 5947   2.999   0.381   8.317  0.5520 -0.0272 -0.5293
 1983SOL    HW1 5948   3.046   0.299   8.328  0.7143 -0.0500 -1.3289
 1983SOL    HW2 5949   2.907   0.359   8.332  0.7506 -0.0314  0.7980
 1984SOL     OW 5950   3.489   1.620   9.018  0.4070 -0.3723  0.5110
 1984SOL    HW1 5951   3.564   1.563   9.031  0.5883 -0.4384 -0.7337
 1984SOL    HW2 5952   3.521   1.708   9.036  1.1728 -0.2387 -1.3036
 1985SOL     OW 5953   4.128   1.574   9.162  0.2650 -0.5021  0.1197
 1985SOL    HW1 5954   4.156   1.521   9.088 -1.3984 -0.8823 -0.2920
 1985SOL    HW2 5955   4.111   1.661   9.125  0.9301 -0.2528  0.3780
 1986SOL     OW 5956   0.922   2.066   9.717 -0.1583 -0.5120  0.3136
 1986SOL    HW1 5957   0.838   2.094   9.753 -0.8686 -1.9650 -0.1408
 1986SOL    HW2 5958   0.931   1.975   9.743  0.5283 -0.8410 -0.9886
 1987SOL     OW 5959   3.290   1.858   7.483  0.0697  0.0018 -0.3047
 1987SOL    HW1 5960   3.233   1.782   7.471 -0.2970  0.2226  0.0114
 1987SOL    HW2 5961   3.369   1.837   7.433 -0.4084 -0.1740 -0.9975
 1988SOL     OW 5962   0.323   4.576   8.312  0.2992 -0.0219 -0.2564
 1988SOL    HW1 5963   0.285   4.489   8.301 -1.7248  0.8526 -0.5731
 1988SOL    HW2 5964   0.413   4.560   8.338 -0.4299 -2.2065  1.1114
 1989SOL     OW 5965   3.017   4.200  10.295 -0.1602 -0.4162 -0.1058
 1989SOL    HW1 5966   2.985   4.144  10.366  0.1600 -1.4603 -0.7559
 1989SOL    HW2 5967   3.112   4.187  10.297 -0.2340 -1.2956 -1.3771
 1990SOL     OW 5968   3.267   1.399   7.471  0.3186 -0.2878  0.4984
 1990SOL    HW1 5969   3.313   1.334   7.418  0.9524  0.0799  0.5953
 1990SOL    HW2 5970   3.237   1.349   7.548  0.0717 -0.6486  0.1720
 1991SOL     OW 5971   4.151   4.174   7.153  0.0714  0.1514  0.4319
 1991SOL    HW1 5972   4.120   4.099   7.204  1.7961 -0.7222  0.2969
 1991SOL    HW2 5973   4.177   4.135   7.069  1.0287  0.8811  0.3763
 1992SOL     OW 5974   2.874   3.972   9.199  0.1102 -0.1588  0.1109
 1992SOL    HW1 5975   2.939   4.016   9.254  0.4229 -1.4644  0.8247
 1992SOL    HW2 5976   2.804   3.949   9.260 -0.3978  0.0373 -0.3976
 1993SOL     OW 5977   2.380   4.067   8.004 -0.9154 -0.0643 -0.1559
 1993SOL    HW1 5978   2.427   4.032   8.080 -1.4612  0.5559  0.4878
 1993SOL    HW2 5979   2.303   4.011   7.995  0.0541 -1.2788 -1.4065
 1994SOL     OW 5980   0.514   1.138   9.134 -0.4247  0.0107 -0.2075
 1994SOL    HW1 5981   0.457   1.088   9.075 -0.2980 -0.2604 -0.1026
 1994SOL    HW2 5982   0.519   1.084   9.213 -0.2928  0.1945 -0.0905
 1995SOL     OW 5983   1.367   1.778   9.424 -1.3140  0.2091  0.6597
 1995SOL    HW1 5984   1.383   1.684   9.414  2.7800  0.5043  2.4522
 1995SOL    HW2 5985   1.352   1.809   9.335  1.2420 -1.6323 -0.5400
 1996SOL     OW 5986   3.353   3.607   8.460  0.1129  0.2376 -0.3734
 1996SOL    HW1 5987   3.405   3.539   8.417  0.6288  1.0904 -1.1280
 1996SOL    HW2 5988   3.384   3.607   8.551  1.3046  0.5821 -0.7555
 1997SOL     OW 5989   2.284   4.778   8.331  0.6844  0.7341 -0.0889
 1997SOL    HW1 5990   2.325   4.857   8.295  0.3139  0.6926 -0.6250
 1997SOL    HW2 5991   2.316   4.707   8.275  0.9021  0.5251  0.2996
 1998SOL     OW 5992   1.845   2.650   7.939  0.5192 -0.2019 -0.3250
 1998SOL    HW1 5993   1.849   2.743   7.959  0.6273 -0.1043 -0.8089
 1998SOL    HW2 5994   1.923   2.613   7.981  0.6064 -0.0362 -0.3410
 1999SOL     OW 5995   3.510   0.545  10.002 -0.0842  0.9849 -0.1159
 1999SOL    HW1 5996   3.564   0.570   9.927  0.9831  0.4266  0.4427
 1999SOL    HW2 5997   3.425   0.584   9.985  0.0857  0.7133 -1.7138
 2000SOL     OW 5998   3.616   0.336  10.133 -0.3838  0.5412  0.3183
 2000SOL    HW1 5999   3.560   0.405  10.098  0.2470  0.7988 -0.1966
 2000SOL    HW2 6000   3.572   0.307  10.213 -0.3372  2.0009  0.9003
 2001SOL     OW 6001   2.917   0.526   7.962 -0.0687 -0.2464  0.0474
 2001SOL    HW1 6002   2.901   0.530   7.867  1.6371 -1.6903 -0.3469
 2001SOL    HW2 6003   2.956   0.440   7.976  0.8512  0.4258  1.9076
 2002SOL     OW 6004   1.717   1.185   7.228  0.2729 -1.0141  0.1478
 2002SOL    HW1 6005   1.736   1.167   7.136 -0.7180 -1.1136 -0.0422
 2002SOL    HW2 6006   1.670   1.108   7.259 -1.5764  0.0321  0.0652
 2003SOL     OW 6007   2.096   0.827   9.656  0.1645 -0.1302  0.0167
 2003SOL    HW1 6008   2.158   0.840   9.729  1.5318 -1.5103 -0.8311
 2003SOL    HW2 6009   2.043   0.752   9.684 -1.0138  0.8908  0.6290
 2004SOL     OW 6010   3.929   0.834   9.928  0.0255 -0.3411  0.4904
 2004SOL    HW1 6011   3.978   0.876   9.858  0.1411  1.0488  1.3798
 2004SOL    HW2 6012   3.852   0.889   9.941 -0.1153 -0.7047  1.3028
 2005SOL     OW 6013   2.902   1.468   8.662  0.1870  0.0733 -1.0057
 2005SOL    HW1 6014   2.896   1.438   8.753 -0.4505  0.2776 -0.9793
 2005SOL    HW2 6015   2.826   1.429   8.619 -0.5621  1.4850 -1.0109
 2006SOL     OW 6016   3.090   2.557   7.996 -0.5358 -0.7199 -0.1602
 2006SOL    HW1 6017   3.120   2.466   8.004  0.0757 -0.5235 -0.1698
 2006SOL    HW2 6018   3.074   2.585   8.086 -1.1817 -0.9843 -0.1886
 2007SOL     OW 6019   3.008   1.875   9.863  0.1993 -0.2572  0.1328
 2007SOL    HW1 6020   3.070   1.883   9.791  0.0548 -0.3955 -0.0084
 2007SOL    HW2 6021   2.930   1.836   9.824 -0.3332  0.8140  0.1138
 2008SOL     OW 6022   0.985   1.788   9.363  0.1909 -0.1377  0.1208
 2008SOL    HW1 6023   1.054   1.814   9.425  0.6324 -0.6847 -0.1372
 2008SOL    HW2 6024   0.952   1.705   9.398  1.8095 -1.5066 -1.4170
 2009SOL     OW 6025   2.887   0.406   8.709 -1.1421 -0.0278 -0.2805
 2009SOL    HW1 6026   2.973   0.399   8.666 -1.0913  0.8648 -0.3382
 2009SOL    HW2 6027   2.861   0.315   8.724 -0.4747 -0.3228 -0.8375
 2010SOL     OW 6028   0.739   1.816   9.256  0.5988  0.5628  0.4536
 2010SOL    HW1 6029   0.826   1.843   9.286 -0.0220  0.1925  2.7970
 2010SOL    HW2 6030   0.699   1.897   9.224  1.1756  1.1102  1.0658
 2011SOL     OW 6031   3.522   0.995   8.436 -0.3783  0.0116  0.4243
 2011SOL    HW1 6032   3.497   1.083   8.407 -0.9557  0.3275  1.8371
 2011SOL    HW2 6033   3.600   1.009   8.490  0.9130 -0.6140 -1.1742
 2012SOL     OW 6034   2.842   2.155   8.406 -0.2666  0.5707 -0.1921
 2012SOL    HW1 6035   2.826   2.061   8.397 -3.6287  0.9424  0.5947
 2012SOL    HW2 6036   2.824   2.174   8.499  0.3547  1.9874 -0.3342
 2013SOL     OW 6037   4.033   0.812   8.021  0.2539 -0.0043 -0.0747
 2013SOL    HW1 6038   4.007   0.842   7.934  0.8271 -0.3462 -0.3644
 2013SOL    HW2 6039   3.954   0.771   8.056 -0.2228  0.8400 -0.1073
 2014SOL     OW 6040   4.165   3.152   9.462  0.3106  0.8652 -0.6395
 2014SOL    HW1 6041   4.257   3.144   9.439  0.4013  0.4342 -0.1605
 2014SOL    HW2 6042   4.166   3.184   9.553  0.0420 -1.2520  0.1620
 2015SOL     OW 6043   3.758   0.139   9.830 -0.0189 -0.0240  0.0927
 2015SOL    HW1 6044   3.751   0.226   9.789 -1.9808 -0.0256  0.3284
 2015SOL    HW2 6045   3.832   0.147   9.890 -0.5042  1.6946  0.5321
 2016SOL     OW 6046   2.830   4.760   7.893  0.4253  0.1164 -0.5958
 2016SOL    HW1 6047   2.772   4.697   7.937 -1.1551  1.9293  0.0823
 2016SOL    HW2 6048   2.898   4.778   7.958 -0.4410  0.8403  0.1327
 2017SOL     OW 6049   4.897   0.867   9.137 -0.3905  0.3056 -0.0751
 2017SOL    HW1 6050   4.915   0.779   9.104 -0.1432 -0.5913  2.2448
 2017SOL    HW2 6051   4.981   0.896   9.173 -1.1152  0.2143  1.8354
 2018SOL     OW 6052   4.623   1.946   8.998  0.1360 -0.1642 -0.7001
 2018SOL    HW1 6053   4.649   1.887   8.927  1.2976  1.5146 -1.7694
 2018SOL    HW2 6054   4.704   1.960   9.048 -0.1496  0.4049 -0.3968
 2019SOL     OW 6055   2.929   0.120   9.180 -0.1727 -0.3390  0.3914
 2019SOL    HW1 6056   2.953   0.078   9.097  0.7213 -2.9133  1.8214
 2019SOL    HW2 6057   2.837   0.142   9.170 -0.4352 -1.8070 -0.8583
 2020SOL     OW 6058   3.628   4.908   9.738  0.2105  0.2025 -0.0983
 2020SOL    HW1 6059   3.681   4.969   9.790 -0.6704  0.6487  0.2854
 2020SOL    HW2 6060   3.554   4.959   9.708 -1.4019 -1.0293  1.5746
 2021SOL     OW 6061   1.909   0.951   6.385  0.4538 -0.0896  0.3565
 2021SOL    HW1 6062   1.909   0.880   6.321 -0.3082  1.2236 -1.1670
 2021SOL    HW2 6063   1.906   1.031   6.332 -1.3690  1.0372  2.0133
 2022SOL     OW 6064   1.555   0.746   8.464 -0.2838 -0.2983 -0.1862
 2022SOL    HW1 6065   1.647   0.771   8.448 -0.1194 -0.2480  0.7790
 2022SOL    HW2 6066   1.521   0.725   8.377  1.0752 -1.8125 -0.4096
 2023SOL     OW 6067   3.209   4.905   8.858  0.7295 -0.3896 -0.2428
 2023SOL    HW1 6068   3.249   4.992   8.862  1.8141 -0.8116 -1.1203
 2023SOL    HW2 6069   3.264   4.851   8.914  0.9504 -0.8228 -0.8703
 2024SOL     OW 6070   0.938   1.166   9.774  0.2539  0.4742  0.5483
 2024SOL    HW1 6071   0.846   1.141   9.782  0.0078  0.9024 -0.6744
 2024SOL    HW2 6072   0.986   1.097   9.819 -0.6604  0.2063  1.1414
 2025SOL     OW 6073   2.716   0.388   9.181 -0.0970 -0.2423  0.2805
 2025SOL    HW1 6074   2.746   0.430   9.262  1.1700  0.6346 -0.6038
 2025SOL    HW2 6075   2.767   0.430   9.112 -3.3217  1.3419 -1.3806
 2026SOL     OW 6076   3.689   2.165   6.464  0.0666 -0.1229  0.2096
 2026SOL    HW1 6077   3.694   2.073   6.439  2.8293  0.1293 -0.5081
 2026SOL    HW2 6078   3.687   2.164   6.560 -0.3677 -0.9233  0.1979
 2027SOL     OW 6079   3.848   3.535   8.290 -0.0021 -0.3757  0.0044
 2027SOL    HW1 6080   3.853   3.621   8.331  0.0458 -0.8257  0.9753
 2027SOL    HW2 6081   3.813   3.552   8.203 -0.3019  0.5873  0.2974
 2028SOL     OW 6082   2.830   0.113   7.001  0.6550  0.1533  0.3182
 2028SOL    HW1 6083   2.871   0.185   6.953  1.0129  0.0893  0.5277
 2028SOL    HW2 6084   2.879   0.107   7.083  1.1130 -0.8059 -0.0134
 2029SOL     OW 6085   2.695   2.247   8.881 -0.4626  0.2149 -0.0162
 2029SOL    HW1 6086   2.636   2.279   8.813 -1.7316 -0.7999  0.5810
 2029SOL    HW2 6087   2.638   2.222   8.953  0.5701 -1.9552  0.1218
 2030SOL     OW 6088   1.323   0.045   9.277  0.1968 -0.4735  0.2793
 2030SOL    HW1 6089   1.357   0.005   9.197 -1.0583 -1.9302  0.4255
 2030SOL    HW2 6090   1.373   0.126   9.286 -0.2050  0.1796 -2.4359
 2031SOL     OW 6091   2.168   0.840   9.390 -0.1049 -0.1334  0.6829
 2031SOL    HW1 6092   2.240   0.778   9.400  0.0651 -0.3163 -1.3449
 2031SOL    HW2 6093   2.133   0.850   9.479 -0.0994 -3.0448  1.1064
 2032SOL     OW 6094   0.531   4.880   7.706  0.0814 -0.2044 -0.3659
 2032SOL    HW1 6095   0.453   4.826   7.720 -0.7544  1.2906  1.0640
 2032SOL    HW2 6096   0.539   4.933   7.785  1.7636  0.6625 -1.0604
 2033SOL     OW 6097   4.463   3.190   8.605  0.3331  0.0643 -0.1152
 2033SOL    HW1 6098   4.530   3.257   8.622 -0.5890  0.6776  1.2645
 2033SOL    HW2 6099   4.404   3.231   8.541 -0.5467  0.8265  1.1520
 2034SOL     OW 6100   3.127   4.074   8.751 -0.1171 -0.0015  0.6151
 2034SOL    HW1 6101   3.144   3.983   8.727  1.7062 -0.2681  2.6272
 2034SOL    HW2 6102   3.101   4.071   8.843 -0.1447  1.4904  0.6885
 2035SOL     OW 6103   1.746   3.280   9.235 -0.2812 -0.2721 -0.2279
 2035SOL    HW1 6104   1.679   3.261   9.300  0.3036 -0.0790  0.4402
 2035SOL    HW2 6105   1.771   3.371   9.252  0.5970 -0.5397 -0.0647
 2036SOL     OW 6106   3.391   4.054   9.638  0.1850  0.6093  0.0265
 2036SOL    HW1 6107   3.448   4.001   9.693 -0.4549 -0.2024 -0.0738
 2036SOL    HW2 6108   3.445   4.130   9.613  1.0175  0.1520  0.4067
 2037SOL     OW 6109   1.693   2.737   9.397 -0.0709 -0.4184 -0.3224
 2037SOL    HW1 6110   1.691   2.818   9.448  0.8475 -0.2862 -0.4797
 2037SOL    HW2 6111   1.786   2.723   9.377 -0.1764 -1.7010  0.0044
 2038SOL     OW 6112   0.453   0.488  10.008 -0.1298  0.0709 -0.3886
 2038SOL    HW1 6113   0.508   0.423   9.964  0.9438  2.1405 -2.3291
 2038SOL    HW2 6114   0.395   0.521   9.939 -0.7141  1.0564  0.5483
 2039SOL     OW 6115   0.156   1.387   8.713  0.0274  0.1521  0.3832
 2039SOL    HW1 6116   0.160   1.360   8.621  0.0912 -0.3562  0.5310
 2039SOL    HW2 6117   0.083   1.449   8.717  1.1416  1.5518 -0.3511
 2040SOL     OW 6118   2.427   0.698   9.715 -1.0893  0.2774 -0.1947
 2040SOL    HW1 6119   2.401   0.689   9.624 -2.5138  0.9013  0.1272
 2040SOL    HW2 6120   2.504   0.755   9.712 -0.2389 -0.8730 -1.0983
 2041SOL     OW 6121   1.904   1.404   8.774  0.2657 -0.5134  0.3287
 2041SOL    HW1 6122   1.823   1.374   8.816  0.5374 -0.8589  0.6125
 2041SOL    HW2 6123   1.881   1.410   8.681 -0.0939 -0.5817  0.4108
 2042SOL     OW 6124   0.416   2.457   9.325 -0.7486 -0.2400 -0.0727
 2042SOL    HW1 6125   0.487   2.427   9.267 -0.6202  0.1498 -0.1167
 2042SOL    HW2 6126   0.391   2.542   9.290  0.2437  0.6211  1.2437
 2043SOL     OW 6127   3.281   1.709   8.684 -0.4492  0.0035 -0.2025
 2043SOL    HW1 6128   3.296   1.710   8.590 -1.0815 -1.5031 -0.3434
 2043SOL    HW2 6129   3.271   1.802   8.708  2.5674  0.6484 -1.1030
 2044SOL     OW 6130   2.329   2.807   9.532 -0.1634 -0.0795  0.1177
 2044SOL    HW1 6131   2.236   2.832   9.537 -0.1744 -0.1423  0.2380
 2044SOL    HW2 6132   2.328   2.722   9.488 -0.0708  0.4601 -0.9587
 2045SOL     OW 6133   1.239   3.997   9.693 -0.0197 -0.3756  0.3767
 2045SOL    HW1 6134   1.252   3.914   9.648  1.7780 -0.4511  0.9539
 2045SOL    HW2 6135   1.294   4.060   9.647  0.0461  0.0787  1.0427
 2046SOL     OW 6136   2.248   0.598   9.900 -0.0036 -0.2510  0.1533
 2046SOL    HW1 6137   2.204   0.680   9.920  0.7952 -0.1806  1.8498
 2046SOL    HW2 6138   2.332   0.624   9.862 -0.2907 -0.3341 -0.5632
 2047SOL     OW 6139   2.700   1.491   8.282  0.4637 -0.2978 -0.1021
 2047SOL    HW1 6140   2.677   1.414   8.335  0.1217  1.2847  2.1878
 2047SOL    HW2 6141   2.619   1.540   8.274  1.2349  1.2027  0.8996
 2048SOL     OW 6142   2.829   2.529   8.414  0.4274  0.1068  0.4990
 2048SOL    HW1 6143   2.773   2.575   8.476  1.5223  0.4893  1.2395
 2048SOL    HW2 6144   2.769   2.494   8.349 -0.7105  0.0729  1.5341
 2049SOL     OW 6145   2.297   4.517   8.038 -0.6529  0.0191 -0.0393
 2049SOL    HW1 6146   2.365   4.545   8.099 -0.5369 -1.8368  0.7419
 2049SOL    HW2 6147   2.215   4.533   8.084 -0.6410  0.0908 -0.0428
 2050SOL     OW 6148   2.142   3.168   8.613  0.7065  0.1299  0.0164
 2050SOL    HW1 6149   2.048   3.185   8.611  0.3041 -1.3134  2.1781
 2050SOL    HW2 6150   2.149   3.073   8.627  2.4808  0.2018 -0.0954
 2051SOL     OW 6151   1.526   2.098   9.295 -0.3592 -0.2494 -0.3048
 2051SOL    HW1 6152   1.471   2.021   9.287  1.4628 -1.4000 -3.9182
 2051SOL    HW2 6153   1.533   2.114   9.389 -3.8215 -2.1380  0.4056
 2052SOL     OW 6154   4.877   2.326   9.929 -0.3206 -0.2043 -0.3903
 2052SOL    HW1 6155   4.787   2.303   9.954 -0.4677 -0.0565 -0.7733
 2052SOL    HW2 6156   4.920   2.242   9.916 -0.7307 -0.2844 -1.3400
 2053SOL     OW 6157   4.114   2.524   9.110  0.2730 -0.3338  0.0462
 2053SOL    HW1 6158   4.104   2.589   9.180  0.3946 -0.5777  0.2897
 2053SOL    HW2 6159   4.062   2.449   9.139 -0.1886 -0.2065 -0.4151
 2054SOL     OW 6160   4.471   1.333   9.690  0.0814  0.2183  0.1225
 2054SOL    HW1 6161   4.509   1.421   9.696  0.4230  0.0772  0.0953
 2054SOL    HW2 6162   4.523   1.281   9.752 -0.0454  0.0108  0.0555
 2055SOL     OW 6163   0.345   1.422   9.405  0.0350 -0.1309  0.9894
 2055SOL    HW1 6164   0.278   1.486   9.383  0.5824  1.4324  3.4957
 2055SOL    HW2 6165   0.425   1.455   9.364 -0.1636 -0.5907  0.2045
 2056SOL     OW 6166   2.151   2.014   8.917  0.0494  0.1414 -0.1579
 2056SOL    HW1 6167   2.071   2.025   8.864  1.4815 -0.2220 -2.5340
 2056SOL    HW2 6168   2.128   1.944   8.979 -1.4575  0.0105 -0.8081
 2057SOL     OW 6169   1.991   3.403   7.898 -0.2838 -0.4183  0.8316
 2057SOL    HW1 6170   2.058   3.407   7.966  1.7852 -1.4846 -1.0165
 2057SOL    HW2 6171   2.000   3.486   7.851 -0.2188 -0.5974  0.5288
 2058SOL     OW 6172   2.434   3.531   6.388  0.7411  0.0366 -0.3714
 2058SOL    HW1 6173   2.460   3.511   6.298  0.5470 -3.2356  0.1776
 2058SOL    HW2 6174   2.361   3.472   6.405 -1.5755  2.9856  0.9094
 2059SOL     OW 6175   1.923   0.212   8.900  0.5746  0.6220 -0.4151
 2059SOL    HW1 6176   1.966   0.159   8.967  3.5757  1.2624 -1.6936
 2059SOL    HW2 6177   1.852   0.257   8.946  0.9032 -0.9176  1.7070
 2060SOL     OW 6178   4.804   3.373   9.143 -0.2246 -0.4289 -0.2440
 2060SOL    HW1 6179   4.744   3.444   9.167 -0.1782  0.1798 -1.8268
 2060SOL    HW2 6180   4.757   3.323   9.077 -0.0035 -1.5363  0.4118
 2061SOL     OW 6181   1.426   3.590   9.217  0.3353  0.0143  0.1693
 2061SOL    HW1 6182   1.516   3.567   9.242  0.7279  0.8481 -0.4212
 2061SOL    HW2 6183   1.380   3.507   9.212  1.2216 -0.4714 -0.0726
 2062SOL     OW 6184   3.210   0.305   7.772 -0.6451 -0.3050 -0.1530
 2062SOL    HW1 6185   3.215   0.217   7.810 -2.1896  0.2442  1.4539
 2062SOL    HW2 6186   3.120   0.333   7.788  0.2299  2.2255  0.9040
 2063SOL     OW 6187   3.341   3.788   8.059  0.3790 -0.3595 -0.1903
 2063SOL    HW1 6188   3.425   3.800   8.102  0.6391 -1.1969 -0.4482
 2063SOL    HW2 6189   3.318   3.697   8.075 -0.4104 -0.1799 -0.2506
 2064SOL     OW 6190   3.893   3.671   9.208  0.1274 -0.1884  0.0709
 2064SOL    HW1 6191   3.880   3.606   9.139  1.4698  0.1907 -0.5685
 2064SOL    HW2 6192   3.876   3.755   9.165 -1.8202 -0.0784  0.9451
 2065SOL     OW 6193   2.172   3.434   9.968  0.8223  0.3344  0.2337
 2065SOL    HW1 6194   2.248   3.387   9.931  1.3352  0.4971  1.0349
 2065SOL    HW2 6195   2.146   3.379  10.042 -0.9440 -0.6231 -1.0351
 2066SOL     OW 6196   4.323   1.409   9.004 -0.5201  0.3020 -0.2009
 2066SOL    HW1 6197   4.291   1.368   8.923  0.1149 -2.1403  0.6979
 2066SOL    HW2 6198   4.355   1.336   9.057 -0.3421  1.8965  2.0287
 2067SOL     OW 6199   4.020   0.458   9.283  0.6690 -0.0720 -0.0924
 2067SOL    HW1 6200   3.940   0.405   9.285  0.7294 -0.2222 -1.2275
 2067SOL    HW2 6201   4.086   0.400   9.245  0.4026  1.2339 -2.7329
 2068SOL     OW 6202   2.271   1.319   8.697 -0.0002  0.0110  0.3609
 2068SOL    HW1 6203   2.206   1.349   8.633  1.6037  0.2792 -1.2404
 2068SOL    HW2 6204   2.291   1.229   8.670 -0.6365 -0.5518  1.6641
 2069SOL     OW 6205   2.945   5.002   8.919 -0.1168  0.1861 -0.1444
 2069SOL    HW1 6206   2.915   4.917   8.887 -1.0609  0.4432  0.0374
 2069SOL    HW2 6207   3.040   4.993   8.925 -0.2660 -1.1372  0.6504
 2070SOL     OW 6208   1.186   0.751   7.858 -0.2771  0.4033 -0.2052
 2070SOL    HW1 6209   1.244   0.682   7.827 -0.5765 -0.7157  1.5687
 2070SOL    HW2 6210   1.237   0.831   7.852 -0.1853  0.2118 -3.0492
 2071SOL     OW 6211   1.019   2.481   8.163 -0.3101  0.3565 -1.0994
 2071SOL    HW1 6212   0.956   2.409   8.169  1.2214 -0.9703  0.2269
 2071SOL    HW2 6213   1.026   2.514   8.253  0.2084  1.0723 -1.3941
 2072SOL     OW 6214   2.432   1.535   8.203 -0.2426 -0.0333  0.3432
 2072SOL    HW1 6215   2.359   1.511   8.146 -1.3228 -0.9546  2.0379
 2072SOL    HW2 6216   2.405   1.617   8.245  0.5800  0.6832 -0.4786
 2073SOL     OW 6217   0.100   1.427   9.669  0.2701  0.3905 -0.5156
 2073SOL    HW1 6218   0.030   1.369   9.701  0.6713  1.0710  1.8101
 2073SOL    HW2 6219   0.065   1.515   9.678  1.2831  0.7277  0.4305
 2074SOL     OW 6220   2.411   4.944   9.016 -0.6967 -0.6717 -0.7437
 2074SOL    HW1 6221   2.387   4.855   9.041 -0.3634 -0.3534  0.8187
 2074SOL    HW2 6222   2.369   5.000   9.082 -0.3936  0.2863 -1.3323
 2075SOL     OW 6223   3.232   1.272   9.039 -0.0726 -0.1378 -0.2459
 2075SOL    HW1 6224   3.164   1.317   8.989 -0.2192 -0.7805 -0.6400
 2075SOL    HW2 6225   3.195   1.263   9.126  0.2731  1.1915  0.0677
 2076SOL     OW 6226   3.557   4.569   9.665  0.7225  0.1120  0.3055
 2076SOL    HW1 6227   3.475   4.605   9.632  0.2141  0.2532  1.6514
 2076SOL    HW2 6228   3.610   4.554   9.587 -1.0462 -1.1736 -0.7237
 2077SOL     OW 6229   3.616   4.235   8.939  0.3266 -0.1929  0.3851
 2077SOL    HW1 6230   3.547   4.169   8.936 -1.4340  1.5894 -1.2629
 2077SOL    HW2 6231   3.589   4.295   9.008 -0.2738  0.9642 -0.8136
 2078SOL     OW 6232   2.330   1.034   9.798  0.4042  0.3474 -0.4574
 2078SOL    HW1 6233   2.417   1.056   9.830  0.3290 -0.6405  0.4923
 2078SOL    HW2 6234   2.312   1.098   9.729  0.6189  2.5385  1.3916
 2079SOL     OW 6235   3.253   3.532   8.110  0.1865  0.4533 -0.0320
 2079SOL    HW1 6236   3.160   3.554   8.123  0.4681  1.9162 -0.2814
 2079SOL    HW2 6237   3.282   3.498   8.195 -0.4044  0.6789  0.2664
 2080SOL     OW 6238   2.136   1.502   9.569  0.4295 -0.2346  0.1602
 2080SOL    HW1 6239   2.117   1.582   9.519  2.5005  1.1601  1.3885
 2080SOL    HW2 6240   2.114   1.430   9.510 -1.3175  1.2292 -1.0819
 2081SOL     OW 6241   3.309   0.884   9.420 -0.1173 -0.2061 -0.0588
 2081SOL    HW1 6242   3.324   0.880   9.515  0.1478 -0.9023 -0.1212
 2081SOL    HW2 6243   3.218   0.854   9.410  0.3121 -1.5379 -0.1294
 2082SOL     OW 6244   3.570   0.632   8.978 -0.2801  0.9358 -0.1294
 2082SOL    HW1 6245   3.512   0.691   9.026 -0.8977  0.7383 -0.6107
 2082SOL    HW2 6246   3.555   0.652   8.886  1.0765  1.4785 -0.2541
 2083SOL     OW 6247   3.619   1.835   9.079  0.2335 -0.0512  0.2243
 2083SOL    HW1 6248   3.609   1.905   9.144  3.1550  0.1672  0.5846
 2083SOL    HW2 6249   3.708   1.804   9.092  0.1300 -1.5863 -2.1991
 2084SOL     OW 6250   0.717   2.249   8.704  0.3465 -0.1149 -0.0495
 2084SOL    HW1 6251   0.651   2.305   8.664 -0.3683 -0.0895  1.1041
 2084SOL    HW2 6252   0.779   2.230   8.634 -0.6492  0.2221 -1.0497
 2085SOL     OW 6253   4.010   3.905   9.890 -0.1222  0.0278  0.5437
 2085SOL    HW1 6254   3.932   3.960   9.892  0.3451  0.6989  0.5716
 2085SOL    HW2 6255   4.006   3.861   9.804  1.2358  2.7189 -1.0276
 2086SOL     OW 6256   1.106   4.327   9.957  0.7133 -0.5733 -0.0072
 2086SOL    HW1 6257   1.048   4.259   9.924 -0.6171 -0.7680  2.5390
 2086SOL    HW2 6258   1.185   4.280   9.984  2.5244 -0.2547 -3.9420
 2087SOL     OW 6259   2.489   4.331   9.166 -0.1949  0.5169 -0.1987
 2087SOL    HW1 6260   2.510   4.325   9.259  1.5567 -3.8222 -0.6345
 2087SOL    HW2 6261   2.564   4.376   9.127  0.8475 -0.8483  0.1557
 2088SOL     OW 6262   2.559   2.185   7.187  0.3402 -0.4764 -0.0249
 2088SOL    HW1 6263   2.523   2.107   7.228  0.7839 -1.0125 -0.6339
 2088SOL    HW2 6264   2.621   2.220   7.251 -0.3223 -0.2465  0.5122
 2089SOL     OW 6265   4.429   0.391   8.088 -0.3762 -0.2905  0.1474
 2089SOL    HW1 6266   4.346   0.375   8.132 -1.6766  1.4988 -1.5063
 2089SOL    HW2 6267   4.474   0.306   8.089 -2.2048 -1.2883  1.0889
 2090SOL     OW 6268   1.186   3.007   7.487  0.2837  0.2870  0.3469
 2090SOL    HW1 6269   1.143   3.088   7.460 -1.3769 -0.5328  0.3922
 2090SOL    HW2 6270   1.148   2.940   7.431  1.3484 -0.5290  0.5762
 2091SOL     OW 6271   2.173   2.973   7.240  0.1464 -0.0209  0.2442
 2091SOL    HW1 6272   2.193   2.947   7.330 -1.4248  0.2408  0.6923
 2091SOL    HW2 6273   2.087   2.935   7.222 -0.5502  1.7464 -0.3653
 2092SOL     OW 6274   3.181   3.394   9.051 -0.2351 -0.2510  0.3573
 2092SOL    HW1 6275   3.111   3.391   8.986 -0.0614 -0.4972  0.1810
 2092SOL    HW2 6276   3.138   3.381   9.135 -0.6925  1.5984  0.4686
 2093SOL     OW 6277   2.368   4.964   8.640 -0.1209  0.6377 -0.4419
 2093SOL    HW1 6278   2.279   4.947   8.609 -0.7304  3.6582 -0.6066
 2093SOL    HW2 6279   2.419   4.891   8.604 -2.4588 -1.1774 -0.3821
 2094SOL     OW 6280   4.261   0.863   9.354  0.1385 -0.2598 -0.2099
 2094SOL    HW1 6281   4.331   0.916   9.318 -1.3249  2.8129  1.0624
 2094SOL    HW2 6282   4.202   0.846   9.280  0.1675  0.7522 -0.4774
 2095SOL     OW 6283   3.915   0.246   8.669 -0.2332  0.0655 -0.1888
 2095SOL    HW1 6284   4.009   0.224   8.668 -0.3196 -0.3115 -1.1074
 2095SOL    HW2 6285   3.903   0.294   8.751  0.4852 -1.0981  0.6339
 2096SOL     OW 6286   2.815   1.144   7.938  0.1354  0.2324 -0.6961
 2096SOL    HW1 6287   2.842   1.061   7.977 -1.2953 -0.3047 -0.8044
 2096SOL    HW2 6288   2.835   1.210   8.005  2.1285 -0.0488 -0.9619
 2097SOL     OW 6289   4.014   3.223   4.985  0.0383  0.1262 -0.5486
 2097SOL    HW1 6290   3.947   3.154   4.976  0.1025  0.1723 -1.3963
 2097SOL    HW2 6291   4.086   3.194   4.930  0.1645  0.7602 -0.7184
 2098SOL     OW 6292   0.853   2.179   5.646 -0.3472 -0.3911 -0.3409
 2098SOL    HW1 6293   0.918   2.248   5.658 -2.1862  1.6140 -1.2776
 2098SOL    HW2 6294   0.898   2.113   5.593  1.4645  0.0294  0.5963
 2099SOL     OW 6295   2.224   2.618   5.351  0.2622  0.5549  0.3229
 2099SOL    HW1 6296   2.173   2.688   5.311  1.0615 -0.0053 -1.8355
 2099SOL    HW2 6297   2.312   2.629   5.314  0.4731 -1.3981  0.1394
 2100SOL     OW 6298   3.925   3.627   7.517 -0.3388  0.4697  0.2550
 2100SOL    HW1 6299   3.914   3.719   7.541 -1.1297  0.1921  0.9908
 2100SOL    HW2 6300   3.843   3.585   7.541  0.6121 -0.7693  1.5435
 2101SOL     OW 6301   4.343   4.758   6.236  0.6256 -0.1443  0.1038
 2101SOL    HW1 6302   4.371   4.676   6.276 -0.5016 -0.7935 -0.3900
 2101SOL    HW2 6303   4.358   4.745   6.143  1.0456  0.4702  0.0795
 2102SOL     OW 6304   2.584   1.084   7.453  0.0476 -0.0231 -0.0726
 2102SOL    HW1 6305   2.519   1.153   7.442  0.6404  0.3557 -1.3079
 2102SOL    HW2 6306   2.665   1.130   7.477 -0.1287 -0.4974  1.5696
 2103SOL     OW 6307   4.882   1.597   5.351  0.6044 -0.0456  0.1085
 2103SOL    HW1 6308   4.870   1.583   5.445  0.6818 -0.6145  0.0404
 2103SOL    HW2 6309   4.868   1.690   5.338 -0.9519 -0.2128  0.4405
 2104SOL     OW 6310   2.866   3.986   5.118  0.7646 -0.3133 -0.1111
 2104SOL    HW1 6311   2.874   3.918   5.052 -0.0116  1.0167 -1.6414
 2104SOL    HW2 6312   2.834   4.062   5.070  0.9743  0.9465  1.6585
 2105SOL     OW 6313   1.464   2.536   5.920  0.0981  0.2592  0.0625
 2105SOL    HW1 6314   1.466   2.440   5.930  1.6072  0.3041  0.4399
 2105SOL    HW2 6315   1.473   2.570   6.009 -1.7393  0.7841  0.0747
 2106SOL     OW 6316   2.095   2.375   7.114  0.8266 -0.2151  0.1110
 2106SOL    HW1 6317   2.058   2.291   7.142  1.0201 -0.1812  0.4749
 2106SOL    HW2 6318   2.108   2.423   7.196 -0.4735  0.6618 -0.1664
 2107SOL     OW 6319   3.317   3.351   7.114  0.0622  1.0122  0.3985
 2107SOL    HW1 6320   3.306   3.446   7.108  0.8672  1.0316 -1.0484
 2107SOL    HW2 6321   3.378   3.329   7.044  0.6251 -0.4685  1.3098
 2108SOL     OW 6322   2.758   2.738   7.310  0.0702  0.0377  0.6135
 2108SOL    HW1 6323   2.697   2.801   7.349  0.4399  2.0992 -1.8817
 2108SOL    HW2 6324   2.832   2.791   7.281  1.3252 -1.8752  0.1536
 2109SOL     OW 6325   4.812   3.542   5.765 -0.7199  0.4619 -0.3810
 2109SOL    HW1 6326   4.906   3.548   5.745 -0.5545  0.8080  0.4252
 2109SOL    HW2 6327   4.804   3.582   5.852 -1.0239 -2.7799  1.2603
 2110SOL     OW 6328   2.226   2.557   7.788  0.1242  0.3196 -0.1296
 2110SOL    HW1 6329   2.249   2.464   7.789  0.8895  0.4858  1.7912
 2110SOL    HW2 6330   2.277   2.593   7.715  2.8403 -0.1098  1.4307
 2111SOL     OW 6331   4.756   4.342   6.836  0.4668  0.3098 -0.1416
 2111SOL    HW1 6332   4.840   4.335   6.882  2.5973  0.7981 -3.5319
 2111SOL    HW2 6333   4.731   4.434   6.848  0.3698  0.1595  0.9082
 2112SOL     OW 6334   2.816   3.473   5.652  0.3009 -0.3066 -0.0534
 2112SOL    HW1 6335   2.804   3.436   5.564  0.8057 -1.3488  0.2922
 2112SOL    HW2 6336   2.731   3.510   5.674 -0.2373 -1.2670 -0.4425
 2113SOL     OW 6337   4.066   4.977   6.565 -0.3526  0.0208  0.1724
 2113SOL    HW1 6338   4.135   5.039   6.543 -0.0634  0.1524  1.3805
 2113SOL    HW2 6339   4.090   4.897   6.517 -1.0598  0.9890 -1.8777
 2114SOL     OW 6340   3.535   3.496   6.294  0.4389 -0.1659 -0.7557
 2114SOL    HW1 6341   3.449   3.507   6.334  0.7817 -0.2506  0.0110
 2114SOL    HW2 6342   3.568   3.414   6.330  1.1388  0.2182 -0.4954
 2115SOL     OW 6343   3.084   3.400   6.600 -0.0328 -0.1587 -0.1988
 2115SOL    HW1 6344   3.118   3.459   6.667 -0.1240 -1.0649  0.6813
 2115SOL    HW2 6345   3.117   3.313   6.626  1.3526 -0.3240 -2.2824
 2116SOL     OW 6346   3.348   3.893   6.890  0.1592 -0.5298  0.1067
 2116SOL    HW1 6347   3.255   3.917   6.890  0.2588 -0.0385  1.7508
 2116SOL    HW2 6348   3.394   3.977   6.885  0.5276 -0.7318  0.0803
 2117SOL     OW 6349   1.201   2.171   5.859  0.4459 -0.0621  0.0876
 2117SOL    HW1 6350   1.182   2.265   5.850 -3.1963 -0.5096  1.5394
 2117SOL    HW2 6351   1.231   2.162   5.950  0.0173 -0.3727  0.2006
 2118SOL     OW 6352   3.249   4.958   6.325 -0.0791 -0.2530 -0.1304
 2118SOL    HW1 6353   3.264   5.005   6.243 -3.3157 -0.7147 -1.1226
 2118SOL    HW2 6354   3.236   5.026   6.390 -2.2120  0.2867 -1.0401
 2119SOL     OW 6355   3.944   2.180   5.339 -0.2176 -0.0467  0.4260
 2119SOL    HW1 6356   4.021   2.127   5.360  0.7153  1.1342  0.1180
 2119SOL    HW2 6357   3.873   2.142   5.391  0.6097 -1.0451  0.8609
 2120SOL     OW 6358   3.811   4.079   5.204  0.0256  0.5227  0.3231
 2120SOL    HW1 6359   3.865   4.101   5.280 -0.5014 -0.9213  1.1518
 2120SOL    HW2 6360   3.744   4.148   5.201 -0.3966  0.1891  1.6332
 2121SOL     OW 6361   3.826   2.976   5.223 -0.6276  0.2044  0.1948
 2121SOL    HW1 6362   3.768   3.043   5.259  0.4881  1.1046  0.3538
 2121SOL    HW2 6363   3.822   2.989   5.128 -0.1673  0.7199  0.2412
 2122SOL     OW 6364   2.743   2.117   5.441  0.7891  0.1216  0.4570
 2122SOL    HW1 6365   2.801   2.059   5.491 -2.1201 -1.3341  2.4528
 2122SOL    HW2 6366   2.730   2.071   5.358 -0.5317 -1.6414  1.5539
 2123SOL     OW 6367   0.610   2.090   6.303 -0.1037 -0.6061  0.1616
 2123SOL    HW1 6368   0.553   2.049   6.368  0.0217 -0.4622  0.3644
 2123SOL    HW2 6369   0.553   2.109   6.229 -0.2429 -0.7939  0.2209
 2124SOL     OW 6370   2.784   2.833   5.570  0.2757  0.2702  0.4151
 2124SOL    HW1 6371   2.713   2.805   5.627 -0.6823  0.8889 -0.4471
 2124SOL    HW2 6372   2.781   2.929   5.573  0.3893  0.3116 -0.4444
 2125SOL     OW 6373   2.732   4.359   5.734 -0.0011 -0.2163 -0.2533
 2125SOL    HW1 6374   2.708   4.307   5.657  0.0380  0.3662 -0.6646
 2125SOL    HW2 6375   2.657   4.417   5.747 -0.2778 -0.7210  0.5266
 2126SOL     OW 6376   2.829   2.848   5.957  0.6105 -0.0788 -0.0790
 2126SOL    HW1 6377   2.821   2.802   6.041  1.9554  2.9139  1.8827
 2126SOL    HW2 6378   2.745   2.834   5.914 -0.6414 -0.7265  2.3717
 2127SOL     OW 6379   2.690   2.503   6.708 -0.1826  0.4953  0.0757
 2127SOL    HW1 6380   2.607   2.551   6.707 -1.5177 -1.3453  3.6751
 2127SOL    HW2 6381   2.670   2.421   6.663 -0.2020  0.2592  0.5062
 2128SOL     OW 6382   3.144   3.028   7.213  0.0602 -0.5177 -0.1130
 2128SOL    HW1 6383   3.169   2.998   7.126 -0.8112  1.5071 -1.0976
 2128SOL    HW2 6384   3.049   3.027   7.213  0.0472 -0.2798  0.7517
 2129SOL     OW 6385   4.684   2.827   4.912 -0.1678 -0.2219 -0.3705
 2129SOL    HW1 6386   4.741   2.762   4.869 -0.1468  0.0920 -0.8240
 2129SOL    HW2 6387   4.744   2.883   4.961  0.1322  1.1349 -2.1643
 2130SOL     OW 6388   0.913   3.244   8.114  0.0933  0.2956 -0.3395
 2130SOL    HW1 6389   0.960   3.327   8.107 -0.5177  0.6890  0.1390
 2130SOL    HW2 6390   0.821   3.269   8.126  0.0661 -0.4184  1.1514
 2131SOL     OW 6391   4.965   4.898   7.150 -0.1204  0.7698 -0.1001
 2131SOL    HW1 6392   4.882   4.937   7.122  0.2706  1.8993  0.2443
 2131SOL    HW2 6393   4.941   4.840   7.223 -1.2356 -2.6761 -2.9507
 2132SOL     OW 6394   2.710   3.511   5.056 -0.5777 -0.7466 -0.3252
 2132SOL    HW1 6395   2.715   3.420   5.024 -0.3101 -1.0474  0.5570
 2132SOL    HW2 6396   2.798   3.530   5.086 -0.8685 -0.5265  0.3957
 2133SOL     OW 6397   4.829   4.779   6.571 -0.3081 -0.5184 -0.0552
 2133SOL    HW1 6398   4.911   4.752   6.529  0.9139  0.2038  1.7492
 2133SOL    HW2 6399   4.776   4.813   6.499  0.9868 -0.9409 -1.2675
 2134SOL     OW 6400   1.416   1.966   5.416  0.7659 -0.0131 -0.3425
 2134SOL    HW1 6401   1.445   1.950   5.326  2.3341 -1.3085  0.3595
 2134SOL    HW2 6402   1.468   1.906   5.469  0.2899  1.1412  1.5007
 2135SOL     OW 6403   2.718   3.291   6.070 -0.3818 -0.3310  0.3245
 2135SOL    HW1 6404   2.656   3.220   6.087 -1.4805  0.7494  1.0088
 2135SOL    HW2 6405   2.801   3.259   6.104 -1.4395 -0.2520  3.2344
 2136SOL     OW 6406   3.971   3.521   5.323 -0.3224  0.0523  0.1199
 2136SOL    HW1 6407   3.957   3.466   5.400  0.2427  0.9785  0.9123
 2136SOL    HW2 6408   3.895   3.579   5.321  0.8015  1.6578  1.4366
 2137SOL     OW 6409   1.392   2.210   7.804 -0.1969 -0.1005  0.1315
 2137SOL    HW1 6410   1.473   2.163   7.784 -0.9617 -0.9156 -1.2469
 2137SOL    HW2 6411   1.418   2.279   7.864  1.4308 -0.6409  0.0975
 2138SOL     OW 6412   0.183   2.770   6.594  0.1330 -0.5064 -0.1142
 2138SOL    HW1 6413   0.132   2.714   6.653  2.0126 -2.3474 -0.0966
 2138SOL    HW2 6414   0.262   2.791   6.644  0.5743  0.0892 -1.0408
 2139SOL     OW 6415   2.056   2.155   8.073  0.6855 -0.2078 -0.8767
 2139SOL    HW1 6416   2.033   2.074   8.119  0.7515 -0.6088 -1.5488
 2139SOL    HW2 6417   2.086   2.214   8.143 -0.4663 -0.3551 -0.2471
 2140SOL     OW 6418   3.619   2.662   5.044 -0.4322  0.3174 -0.1324
 2140SOL    HW1 6419   3.675   2.585   5.035 -1.5829 -0.7941  1.6055
 2140SOL    HW2 6420   3.622   2.683   5.137 -0.2930  2.3294 -0.5248
 2141SOL     OW 6421   3.702   4.288   5.575 -0.8551 -0.4795  0.4420
 2141SOL    HW1 6422   3.770   4.272   5.509 -2.2089  1.5803 -1.5961
 2141SOL    HW2 6423   3.750   4.321   5.651  0.6804 -2.0739  0.2248
 2142SOL     OW 6424   2.400   2.333   5.808 -0.8764 -0.4262 -0.1875
 2142SOL    HW1 6425   2.464   2.272   5.772 -0.7917 -0.5063  0.0985
 2142SOL    HW2 6426   2.404   2.409   5.749  0.7088  0.2875  0.7892
 2143SOL     OW 6427   1.365   1.478   9.380  0.5929  0.9529  0.0640
 2143SOL    HW1 6428   1.303   1.419   9.423 -0.0166  1.3825 -0.2244
 2143SOL    HW2 6429   1.340   1.476   9.288  0.4151  1.8424  0.0850
 2144SOL     OW 6430   2.872   0.102   7.291  0.1387  0.9130  0.1550
 2144SOL    HW1 6431   2.938   0.169   7.306  2.0155 -0.8092  0.0156
 2144SOL    HW2 6432   2.912   0.021   7.323 -1.4335 -0.4192 -1.0533
 2145SOL     OW 6433   4.107   2.358   7.571  0.2592  0.2357 -0.2553
 2145SOL    HW1 6434   4.105   2.263   7.561  2.1236  0.0321  0.6688
 2145SOL    HW2 6435   4.137   2.391   7.487  2.1238 -0.2558  0.1656
 2146SOL     OW 6436   2.692   3.805   6.068  0.0131  0.1449 -0.2255
 2146SOL    HW1 6437   2.717   3.716   6.091  1.9755  0.0297 -2.3963
 2146SOL    HW2 6438   2.598   3.808   6.081 -0.1907 -2.4410 -0.5940
 2147SOL     OW 6439   2.581   1.774   5.072  0.0834  0.5545 -0.0372
 2147SOL    HW1 6440   2.663   1.753   5.027  0.8701 -0.0615  1.6020
 2147SOL    HW2 6441   2.553   1.691   5.110  0.0175  1.2398  1.4799
 2148SOL     OW 6442   2.781   3.234   5.012 -0.2693 -0.0294 -0.2215
 2148SOL    HW1 6443   2.757   3.176   5.084 -0.6824 -0.0007 -0.3360
 2148SOL    HW2 6444   2.876   3.247   5.023 -0.5142  0.8936  0.9919
 2149SOL     OW 6445   2.275   4.790   5.603 -0.4269 -0.8131 -0.1171
 2149SOL    HW1 6446   2.367   4.788   5.630  0.0687 -0.1154 -1.6771
 2149SOL    HW2 6447   2.256   4.700   5.576 -0.5648 -1.2276  1.2799
 2150SOL     OW 6448   3.954   3.615   7.246 -0.3246 -0.0199  0.3221
 2150SOL    HW1 6449   3.976   3.645   7.334  1.4418 -0.8260  0.1834
 2150SOL    HW2 6450   3.875   3.562   7.257 -0.5474  0.4983  1.2958
 2151SOL     OW 6451   3.000   0.953   5.521  0.1842 -0.0624 -0.1042
 2151SOL    HW1 6452   2.968   1.006   5.594  2.3883 -0.1931  1.0193
 2151SOL    HW2 6453   3.006   0.864   5.555  1.0605 -0.1623 -0.4832
 2152SOL     OW 6454   0.851   4.592   5.084 -0.3999  0.7306 -0.0482
 2152SOL    HW1 6455   0.862   4.683   5.111 -1.2916  0.7105  0.4126
 2152SOL    HW2 6456   0.833   4.545   5.166 -0.4105  0.2203 -0.3427
 2153SOL     OW 6457   2.426   4.805   6.690 -0.3789  0.1401  0.2095
 2153SOL    HW1 6458   2.389   4.774   6.607  1.3679 -1.2749 -0.0781
 2153SOL    HW2 6459   2.416   4.731   6.750  0.2347  0.4237  0.6686
 2154SOL     OW 6460   1.892   4.328   6.437  0.4208  0.3530  0.4582
 2154SOL    HW1 6461   1.953   4.255   6.448  0.6322  0.5126  0.3518
 2154SOL    HW2 6462   1.826   4.296   6.376  1.8385  1.0503 -1.5499
 2155SOL     OW 6463   4.167   3.297   5.215 -0.5927 -0.1184  0.6505
 2155SOL    HW1 6464   4.118   3.269   5.138 -0.5923  1.5711 -0.0057
 2155SOL    HW2 6465   4.114   3.367   5.253  0.4322  0.5245  0.9446
 2156SOL     OW 6466   1.153   1.937   5.256  0.1602 -0.2185 -0.2843
 2156SOL    HW1 6467   1.236   1.965   5.294 -0.1878 -0.1471  0.4456
 2156SOL    HW2 6468   1.137   1.850   5.294 -0.2187 -0.1235 -0.2206
 2157SOL     OW 6469   4.314   4.043   5.029  0.2163  0.1743 -0.0487
 2157SOL    HW1 6470   4.341   3.955   5.056 -1.7374 -1.4247 -2.8647
 2157SOL    HW2 6471   4.274   4.031   4.943  0.0321  3.8910 -0.6466
 2158SOL     OW 6472   3.981   0.947   5.117 -0.1542  0.0313  0.8803
 2158SOL    HW1 6473   3.970   0.861   5.077  0.2333  0.2638  0.2654
 2158SOL    HW2 6474   3.918   1.004   5.071  2.4193  1.0410 -1.6862
 2159SOL     OW 6475   1.751   2.969   5.997 -0.3369 -0.1012 -0.0919
 2159SOL    HW1 6476   1.687   2.974   6.068  0.6681 -0.9726  0.9376
 2159SOL    HW2 6477   1.725   2.893   5.946  0.5547 -1.2828  1.1066
 2160SOL     OW 6478   1.707   0.964   7.527  0.0715  0.1947  0.3136
 2160SOL    HW1 6479   1.770   0.895   7.550 -0.3913 -0.6342 -0.8398
 2160SOL    HW2 6480   1.643   0.920   7.472 -0.4030  1.4955 -0.1920
 2161SOL     OW 6481   2.520   4.728   5.660 -0.4108 -0.2713  0.4242
 2161SOL    HW1 6482   2.590   4.741   5.724 -0.5043  0.3725  0.4023
 2161SOL    HW2 6483   2.565   4.692   5.583 -0.1558 -0.1841  0.5300
 2162SOL     OW 6484   0.440   3.421   5.638  0.5979  0.0124 -0.4592
 2162SOL    HW1 6485   0.509   3.458   5.583 -0.0892  0.1926 -1.2197
 2162SOL    HW2 6486   0.483   3.402   5.722  1.4030  0.7524 -0.6957
 2163SOL     OW 6487   4.836   2.219   5.169  0.4615  0.6103  0.2004
 2163SOL    HW1 6488   4.777   2.152   5.202  1.0272  0.8101  1.7328
 2163SOL    HW2 6489   4.853   2.194   5.078 -1.3463  0.1377 -0.0382
 2164SOL     OW 6490   3.036   0.873   4.997 -0.3419  0.3918 -0.4716
 2164SOL    HW1 6491   3.034   0.968   4.985 -0.9773  0.6139  1.1120
 2164SOL    HW2 6492   2.949   0.843   4.971  0.1323  0.0967 -1.8062
 2165SOL     OW 6493   3.075   2.402   6.955 -0.0505 -0.2523  0.1904
 2165SOL    HW1 6494   2.982   2.406   6.933  0.0677  0.3281 -0.2211
 2165SOL    HW2 6495   3.087   2.316   6.996 -0.5921 -0.6851 -0.5506
 2166SOL     OW 6496   4.044   4.491   5.520 -0.0278  0.0140  0.1528
 2166SOL    HW1 6497   4.127   4.537   5.534 -0.4183  0.4843  0.9268
 2166SOL    HW2 6498   4.069   4.399   5.512  0.8493  0.3801 -2.1300
 2167SOL     OW 6499   2.847   1.424   6.871  0.7664  0.5964 -0.0496
 2167SOL    HW1 6500   2.825   1.331   6.861 -0.9288  0.6989  1.9830
 2167SOL    HW2 6501   2.886   1.430   6.959  2.3696  1.5879 -0.7889
 2168SOL     OW 6502   4.635   2.585   7.354  0.4063  0.0970 -0.4370
 2168SOL    HW1 6503   4.576   2.602   7.281 -1.9493 -0.5935  1.1420
 2168SOL    HW2 6504   4.656   2.492   7.346  0.1230  0.0140 -0.2464
 2169SOL     OW 6505   3.329   2.158   6.327  0.1000  0.4858  0.0167
 2169SOL    HW1 6506   3.245   2.178   6.367 -0.2411  1.5612 -1.1698
 2169SOL    HW2 6507   3.350   2.235   6.274  2.3042  0.6656  1.0254
 2170SOL     OW 6508   3.342   4.642   8.082 -0.2249 -0.4189 -0.1379
 2170SOL    HW1 6509   3.343   4.558   8.037 -0.4281 -0.3790 -0.2220
 2170SOL    HW2 6510   3.313   4.622   8.171  0.2935 -0.5134  0.0097
 2171SOL     OW 6511   2.696   3.120   5.551  0.0836  0.4278  0.2010
 2171SOL    HW1 6512   2.657   3.185   5.493 -1.4386  0.6314  1.3771
 2171SOL    HW2 6513   2.621   3.080   5.596  0.8411 -2.8419 -1.1534
 2172SOL     OW 6514   0.786   1.549   4.944 -0.3584 -0.1016 -0.2599
 2172SOL    HW1 6515   0.706   1.520   4.900 -0.0459 -0.0957 -0.8409
 2172SOL    HW2 6516   0.787   1.644   4.930 -1.1265  0.1562  1.2205
 2173SOL     OW 6517   3.575   2.306   5.913 -0.3001 -0.5656  0.2203
 2173SOL    HW1 6518   3.560   2.367   5.840 -0.7504  0.5391  1.1970
 2173SOL    HW2 6519   3.669   2.287   5.910 -0.2542 -0.2543 -0.4319
 2174SOL     OW 6520   2.862   3.064   7.252 -0.6468  0.6536  0.0848
 2174SOL    HW1 6521   2.806   3.034   7.179 -2.9374  1.8690  1.2352
 2174SOL    HW2 6522   2.868   3.158   7.240  0.6393  0.6354  0.4113
 2175SOL     OW 6523   3.484   4.375   5.417  0.0655 -0.0468 -0.1343
 2175SOL    HW1 6524   3.476   4.465   5.450  0.5972  0.1690 -0.5753
 2175SOL    HW2 6525   3.560   4.339   5.463  1.9744  0.8643 -2.3916
 2176SOL     OW 6526   3.631   3.248   6.410 -0.1768 -0.5156 -0.0208
 2176SOL    HW1 6527   3.672   3.221   6.492 -0.7251  0.7122  0.6964
 2176SOL    HW2 6528   3.559   3.186   6.397 -0.7878 -0.0649  1.0507
 2177SOL     OW 6529   3.633   4.260   5.197 -0.0123 -0.0490 -0.2864
 2177SOL    HW1 6530   3.666   4.348   5.218 -1.2806  0.2063  0.7881
 2177SOL    HW2 6531   3.555   4.250   5.252  0.1466 -1.8848 -0.3370
 2178SOL     OW 6532   3.386   2.162   5.671 -0.6459  0.1811 -0.0386
 2178SOL    HW1 6533   3.322   2.218   5.715  0.7790  0.5375  1.6705
 2178SOL    HW2 6534   3.399   2.203   5.586  0.0358  2.2416  0.9980
 2179SOL     OW 6535   0.401   1.896   7.714 -0.4307  0.0168  0.2588
 2179SOL    HW1 6536   0.475   1.889   7.653 -0.2179 -1.8505  0.6961
 2179SOL    HW2 6537   0.397   1.811   7.757 -1.6498  0.7411  1.6420
 2180SOL     OW 6538   2.227   0.810   6.262  0.5413  0.2545  0.1880
 2180SOL    HW1 6539   2.276   0.785   6.184  0.0910  0.4351 -0.1495
 2180SOL    HW2 6540   2.232   0.905   6.265  0.6018  0.2455  0.4084
 2181SOL     OW 6541   3.352   2.335   5.455  0.3918  0.5504 -0.0749
 2181SOL    HW1 6542   3.310   2.262   5.409  1.7831  0.3942 -1.1481
 2181SOL    HW2 6543   3.292   2.408   5.443  0.6081  0.4545 -1.9824
 2182SOL     OW 6544   3.050   0.847   6.021 -0.7670 -0.1139  1.0151
 2182SOL    HW1 6545   2.987   0.810   5.959 -1.0702  1.2921  0.4409
 2182SOL    HW2 6546   3.006   0.924   6.057 -0.6166 -0.9242  3.0587
 2183SOL     OW 6547   1.672   2.508   5.729 -0.0487  0.1833  0.0018
 2183SOL    HW1 6548   1.600   2.523   5.790  0.4483 -0.1567  0.6944
 2183SOL    HW2 6549   1.670   2.413   5.713 -0.8421  0.4052 -1.3737
 2184SOL     OW 6550   2.665   1.570   5.394  0.5193  0.0291 -0.2916
 2184SOL    HW1 6551   2.739   1.555   5.453 -0.9617  2.1372  2.3296
 2184SOL    HW2 6552   2.688   1.650   5.347  1.0615 -0.8539 -1.5790
 2185SOL     OW 6553   4.281   2.678   5.284 -0.8416 -0.3620 -0.3028
 2185SOL    HW1 6554   4.224   2.755   5.287 -0.0300  0.2617 -0.5934
 2185SOL    HW2 6555   4.358   2.707   5.235 -0.5590 -1.3847 -0.4869
 2186SOL     OW 6556   2.776   2.373   5.573 -0.2387 -0.0646  0.4173
 2186SOL    HW1 6557   2.854   2.319   5.588  1.0408  1.2851 -0.9357
 2186SOL    HW2 6558   2.729   2.329   5.502  1.1531  0.8631 -1.1524
 2187SOL     OW 6559   1.718   2.776   6.934  0.3980  0.2054  0.1662
 2187SOL    HW1 6560   1.789   2.783   6.869  1.5551 -0.2647  1.3337
 2187SOL    HW2 6561   1.750   2.711   6.997 -0.5531  0.8867  1.3782
 2188SOL     OW 6562   0.615   4.841   5.645  0.0440 -0.9164  0.6458
 2188SOL    HW1 6563   0.668   4.769   5.679  1.0070 -0.4727  0.1283
 2188SOL    HW2 6564   0.679   4.900   5.603 -0.7408  0.1554  0.9185
 2189SOL     OW 6565   3.206   1.406   5.434 -0.2467  0.1910  0.3705
 2189SOL    HW1 6566   3.197   1.389   5.340 -0.7024  2.0999  0.0200
 2189SOL    HW2 6567   3.273   1.344   5.463 -0.1948 -0.5373 -1.1886
 2190SOL     OW 6568   4.119   3.630   6.344  0.1363 -0.0868  0.4794
 2190SOL    HW1 6569   4.189   3.565   6.341 -1.5623 -2.1720  2.2514
 2190SOL    HW2 6570   4.039   3.578   6.356 -1.4527  2.2843  0.7700
 2191SOL     OW 6571   3.082   3.543   5.703 -0.2060  0.7401  0.0487
 2191SOL    HW1 6572   3.115   3.471   5.757 -0.0274  0.2434 -0.7002
 2191SOL    HW2 6573   2.992   3.518   5.683  0.1180  0.3124 -0.8969
 2192SOL     OW 6574   1.054   4.119   8.757 -0.0621  0.2472 -0.4818
 2192SOL    HW1 6575   0.977   4.079   8.796 -0.1869  1.5946  0.7215
 2192SOL    HW2 6576   1.110   4.143   8.831  0.6595  0.9612 -1.2210
 2193SOL     OW 6577   2.342   3.531   6.681  0.1281 -0.2233  0.2068
 2193SOL    HW1 6578   2.293   3.457   6.647 -1.8721  0.5731  1.2229
 2193SOL    HW2 6579   2.388   3.567   6.605 -0.4143 -1.3212 -0.6642
 2194SOL     OW 6580   4.158   1.939   5.046  0.1924  0.6441 -0.3260
 2194SOL    HW1 6581   4.147   1.920   4.953 -1.9587 -0.5315  0.0951
 2194SOL    HW2 6582   4.102   2.014   5.063  1.3247  1.4690 -0.1375
 2195SOL     OW 6583   2.846   1.811   7.708  0.2423 -0.2246  0.2313
 2195SOL    HW1 6584   2.888   1.895   7.729  0.1487  0.2047 -1.1948
 2195SOL    HW2 6585   2.868   1.755   7.782  0.2158  1.0860  1.2802
 2196SOL     OW 6586   3.823   0.069   5.200 -0.0222 -0.0583 -0.5413
 2196SOL    HW1 6587   3.844   0.146   5.253 -0.6908  0.0187 -0.3881
 2196SOL    HW2 6588   3.798   0.104   5.115  0.1164 -0.1340 -0.6149
 2197SOL     OW 6589   1.660   2.982   5.410 -0.0789  0.5023  0.1464
 2197SOL    HW1 6590   1.592   2.940   5.463  0.1512  0.3082  0.2875
 2197SOL    HW2 6591   1.682   3.062   5.457  1.2334 -0.4265  1.1732
 2198SOL     OW 6592   4.506   3.367   5.594  0.3235 -0.0319  0.0219
 2198SOL    HW1 6593   4.529   3.460   5.592  0.0640  0.0485  0.7295
 2198SOL    HW2 6594   4.466   3.351   5.508  0.2827  0.5266 -0.0694
 2199SOL     OW 6595   1.865   2.070   6.314  0.1545 -0.2696  0.1566
 2199SOL    HW1 6596   1.897   2.103   6.230 -1.3245 -0.6384 -0.6034
 2199SOL    HW2 6597   1.863   2.147   6.371  1.9214 -0.1690  0.1141
 2200SOL     OW 6598   2.152   3.755   5.815  0.1016 -0.2957  0.2275
 2200SOL    HW1 6599   2.093   3.765   5.740 -0.5349 -0.8936  0.6404
 2200SOL    HW2 6600   2.151   3.840   5.858  0.2674 -0.0262 -0.2945
 2201SOL     OW 6601   3.058   3.050   5.265  0.1366  0.7096 -0.7287
 2201SOL    HW1 6602   2.964   3.035   5.251  0.0654 -1.2517  1.1677
 2201SOL    HW2 6603   3.061   3.104   5.345  0.6093  0.3761 -0.5185
 2202SOL     OW 6604   2.740   1.336   4.913 -0.3800  0.4481  0.3907
 2202SOL    HW1 6605   2.701   1.391   4.845 -0.6935  0.5015  0.6095
 2202SOL    HW2 6606   2.757   1.253   4.870  0.7187  0.9240 -0.1206
 2203SOL     OW 6607   3.048   3.263   5.057  1.0203 -0.4065  0.4913
 2203SOL    HW1 6608   3.100   3.338   5.085 -1.1857  0.4592  2.6700
 2203SOL    HW2 6609   3.069   3.194   5.120 -0.3434 -0.0575  1.3765
 2204SOL     OW 6610   3.494   0.748   6.398 -0.1683 -0.0794 -0.5234
 2204SOL    HW1 6611   3.499   0.654   6.411 -0.5115 -0.0049  0.1902
 2204SOL    HW2 6612   3.568   0.783   6.448 -0.0637  0.0358 -0.7560
 2205SOL     OW 6613   2.318   0.346   6.064  0.0309 -0.3299  0.1724
 2205SOL    HW1 6614   2.258   0.380   6.130 -0.4098 -2.6453  1.0441
 2205SOL    HW2 6615   2.391   0.310   6.114  0.5490 -0.5333 -0.7114
 2206SOL     OW 6616   2.850   1.866   6.442  0.2754  0.1721  0.7496
 2206SOL    HW1 6617   2.806   1.901   6.519  0.9218 -0.9654  1.6689
 2206SOL    HW2 6618   2.892   1.942   6.401  0.4708  0.6943  1.8875
 2207SOL     OW 6619   1.442   1.868   7.157  0.3396  0.0463  0.4816
 2207SOL    HW1 6620   1.423   1.935   7.223  0.4781 -0.3001  0.8781
 2207SOL    HW2 6621   1.491   1.915   7.089  1.9333  0.0209  1.5501
 2208SOL     OW 6622   4.612   2.193   6.721  0.1138  0.2817  0.2175
 2208SOL    HW1 6623   4.648   2.282   6.726  1.9870 -0.3658 -0.7161
 2208SOL    HW2 6624   4.673   2.140   6.773 -0.3096 -0.6527 -0.2281
 2209SOL     OW 6625   2.163   1.325   7.263  0.4437  0.5297 -0.2438
 2209SOL    HW1 6626   2.233   1.316   7.328  1.4494  0.4489 -1.3088
 2209SOL    HW2 6627   2.142   1.235   7.239  0.2894  0.5673 -0.2458
 2210SOL     OW 6628   2.026   2.313   7.405  0.1991  0.6140  0.2456
 2210SOL    HW1 6629   2.104   2.259   7.391 -0.6833 -0.4475 -0.7377
 2210SOL    HW2 6630   2.003   2.298   7.497 -0.3048 -1.0854 -0.1345
 2211SOL     OW 6631   3.806   2.550   8.507  0.0706  0.3695 -0.0426
 2211SOL    HW1 6632   3.758   2.507   8.436 -1.0505  0.9758  0.3324
 2211SOL    HW2 6633   3.834   2.478   8.564  0.6123 -0.0846 -0.8621
 2212SOL     OW 6634   4.081   3.478   5.705  0.0700  0.3024  0.3406
 2212SOL    HW1 6635   4.080   3.572   5.687  1.3320  0.4849  1.0717
 2212SOL    HW2 6636   4.007   3.443   5.656 -0.5386  1.7048  0.2082
 2213SOL     OW 6637   2.731   0.653   6.942  0.0050 -0.2148 -0.0571
 2213SOL    HW1 6638   2.710   0.652   7.035  0.9452  0.9299  0.1888
 2213SOL    HW2 6639   2.671   0.590   6.903  1.1155 -2.4776  1.6346
 2214SOL     OW 6640   2.097   2.543   8.027 -0.1803  0.1358 -0.2221
 2214SOL    HW1 6641   2.149   2.477   8.073 -0.2627  0.7676  0.8070
 2214SOL    HW2 6642   2.146   2.562   7.948  0.6481  0.0026  0.2508
 2215SOL     OW 6643   2.503   3.497   6.108 -0.1459 -0.2276  0.5160
 2215SOL    HW1 6644   2.584   3.458   6.074 -0.4708 -0.2529 -0.2588
 2215SOL    HW2 6645   2.437   3.474   6.043 -0.6549  0.3100  0.8346
 2216SOL     OW 6646   2.390   2.235   6.258 -0.3579  0.2611 -0.7102
 2216SOL    HW1 6647   2.409   2.196   6.344 -0.3950 -0.9834 -1.2458
 2216SOL    HW2 6648   2.470   2.224   6.208 -0.3043  1.0788 -0.8182
 2217SOL     OW 6649   3.578   2.919   7.904  0.2956  0.0364 -0.0106
 2217SOL    HW1 6650   3.506   2.971   7.866 -0.2464 -1.8732 -1.7822
 2217SOL    HW2 6651   3.656   2.950   7.859  0.0974 -0.0409 -0.4191
 2218SOL     OW 6652   4.069   0.417   7.042 -0.4756 -0.4743  0.6597
 2218SOL    HW1 6653   3.975   0.405   7.047 -0.3746 -1.4412  0.3892
 2218SOL    HW2 6654   4.085   0.441   6.950 -0.3216 -1.7586  0.3291
 2219SOL     OW 6655   1.552   1.546   6.126 -0.2575 -0.3598  0.3479
 2219SOL    HW1 6656   1.587   1.509   6.207  0.4486  1.5615  0.9721
 2219SOL    HW2 6657   1.628   1.577   6.078 -0.7783 -0.1909 -0.3894
 2220SOL     OW 6658   2.347   1.905   6.148  0.1042  0.1564 -0.5677
 2220SOL    HW1 6659   2.265   1.864   6.120  0.5633 -0.6813 -0.7055
 2220SOL    HW2 6660   2.319   1.976   6.207 -0.7381  0.2309 -1.0381
 2221SOL     OW 6661   2.874   4.290   8.012  0.0639  0.2484 -0.1045
 2221SOL    HW1 6662   2.920   4.371   7.987  0.5935 -0.1081 -0.3071
 2221SOL    HW2 6663   2.896   4.228   7.943  0.3840 -0.3305  0.5060
 2222SOL     OW 6664   4.470   2.628   6.824  0.7874 -0.4666  0.1630
 2222SOL    HW1 6665   4.377   2.606   6.812  0.7614 -0.0467 -0.4287
 2222SOL    HW2 6666   4.475   2.722   6.808  1.1568 -0.3099  1.1758
 2223SOL     OW 6667   3.318   4.307   7.435 -0.6044  0.4753 -0.6441
 2223SOL    HW1 6668   3.351   4.218   7.424 -0.6737  0.3289  0.2612
 2223SOL    HW2 6669   3.269   4.305   7.517 -0.4614  1.3941 -0.5200
 2224SOL     OW 6670   2.045   1.805   5.223 -0.5535 -0.4264 -0.3582
 2224SOL    HW1 6671   2.138   1.804   5.198 -0.3266 -2.2052  0.3908
 2224SOL    HW2 6672   2.046   1.836   5.314 -0.7545  0.0240 -0.5072
 2225SOL     OW 6673   3.525   3.478   7.446 -0.1053  0.3297  0.6028
 2225SOL    HW1 6674   3.431   3.481   7.463  0.0081 -0.7261  1.5391
 2225SOL    HW2 6675   3.554   3.395   7.485  0.5765 -1.2944 -2.9479
 2226SOL     OW 6676   4.385   3.207   6.475 -0.7526  0.1981 -0.1581
 2226SOL    HW1 6677   4.339   3.277   6.428  0.8423  0.0397 -2.1271
 2226SOL    HW2 6678   4.431   3.159   6.406  1.4286 -0.3243  1.5577
 2227SOL     OW 6679   3.425   1.542   6.355  0.3522 -0.0109  0.8819
 2227SOL    HW1 6680   3.381   1.619   6.391 -1.5965 -0.1363 -1.0180
 2227SOL    HW2 6681   3.430   1.559   6.261  1.0026 -1.6762  0.5719
 2228SOL     OW 6682   3.701   2.167   6.746  0.0573 -0.2820  0.8388
 2228SOL    HW1 6683   3.646   2.118   6.808  1.6348  0.0310  2.5830
 2228SOL    HW2 6684   3.754   2.224   6.802 -0.0913  1.7689 -0.9868
 2229SOL     OW 6685   1.285   2.328   6.709 -0.4191 -0.5249  0.6633
 2229SOL    HW1 6686   1.325   2.312   6.795 -2.7378 -0.2187  1.8744
 2229SOL    HW2 6687   1.306   2.250   6.658  0.4396 -1.0074  1.7076
 2230SOL     OW 6688   2.261   2.487   6.944 -0.0355 -0.3202  0.1027
 2230SOL    HW1 6689   2.193   2.463   7.007 -0.5772 -1.2961 -0.7935
 2230SOL    HW2 6690   2.309   2.405   6.929  0.2218 -0.0558 -0.5610
 2231SOL     OW 6691   3.997   3.999   4.955  0.0656  0.8060 -0.0822
 2231SOL    HW1 6692   3.924   4.050   4.990  0.5207  0.9427  0.6892
 2231SOL    HW2 6693   3.962   3.910   4.944 -1.1616  1.5298 -2.7990
 2232SOL     OW 6694   2.829   4.030   7.022  0.5327 -0.2543  0.5890
 2232SOL    HW1 6695   2.869   4.087   6.956 -0.9217 -0.4330 -0.4944
 2232SOL    HW2 6696   2.823   4.085   7.100  0.5838  0.5749  0.0256
 2233SOL     OW 6697   4.462   0.159   5.120  0.1535 -0.4330  0.7706
 2233SOL    HW1 6698   4.502   0.074   5.134  0.6564 -0.4776 -0.7625
 2233SOL    HW2 6699   4.379   0.141   5.075  0.9396 -0.0624 -0.8807
 2234SOL     OW 6700   3.213   1.168   8.710 -0.0473 -0.3859  0.0229
 2234SOL    HW1 6701   3.211   1.264   8.718  0.1477 -0.2318 -1.4056
 2234SOL    HW2 6702   3.296   1.142   8.750  0.0722  0.0946  0.0957
 2235SOL     OW 6703   2.544   0.803   6.278  0.5010  0.2013  0.6671
 2235SOL    HW1 6704   2.487   0.860   6.329  1.8278  1.7894  0.4543
 2235SOL    HW2 6705   2.580   0.741   6.342  0.1696  0.5474  1.1963
 2236SOL     OW 6706   2.780   4.269   7.212  0.7339  0.5417 -0.0174
 2236SOL    HW1 6707   2.775   4.324   7.290 -0.7834  2.3543 -1.2793
 2236SOL    HW2 6708   2.690   4.270   7.177  0.8921 -1.9413 -0.6762
 2237SOL     OW 6709   2.475   1.828   6.889  0.1421 -0.5183 -0.2162
 2237SOL    HW1 6710   2.428   1.830   6.972  0.0122 -0.9800 -0.2750
 2237SOL    HW2 6711   2.428   1.764   6.836  1.8298 -2.3015  0.3338
 2238SOL     OW 6712   3.820   4.623   5.081 -0.4773 -0.2472  0.1376
 2238SOL    HW1 6713   3.894   4.580   5.038 -1.0756 -0.5577 -0.6062
 2238SOL    HW2 6714   3.847   4.633   5.172  1.3462  1.5837 -0.5376
 2239SOL     OW 6715   0.096   1.410   7.989  0.2532  0.4011 -0.7094
 2239SOL    HW1 6716   0.063   1.483   7.936 -1.2131 -0.8550 -1.6138
 2239SOL    HW2 6717   0.063   1.428   8.077 -1.1111  0.2561 -1.1667
 2240SOL     OW 6718   3.782   3.396   5.860 -0.4182 -0.0031  0.4500
 2240SOL    HW1 6719   3.774   3.371   5.768 -0.4981 -0.0507  0.4698
 2240SOL    HW2 6720   3.736   3.480   5.866 -1.2452 -0.4625  0.6428
 2241SOL     OW 6721   1.909   4.676   5.429 -0.0760  1.0524 -0.1633
 2241SOL    HW1 6722   1.982   4.737   5.420  0.9418 -0.1023  0.0389
 2241SOL    HW2 6723   1.909   4.651   5.521  1.2833 -1.3109 -0.7142
 2242SOL     OW 6724   1.625   2.040   7.014 -0.2954  0.1343 -0.6128
 2242SOL    HW1 6725   1.689   2.058   7.083 -2.6756 -0.4422  1.9014
 2242SOL    HW2 6726   1.608   2.126   6.975  0.6711  0.5821 -0.0892
 2243SOL     OW 6727   1.250   1.701   7.086  0.1002 -0.2062  0.0172
 2243SOL    HW1 6728   1.327   1.749   7.115  0.2397 -1.9631  3.0689
 2243SOL    HW2 6729   1.260   1.614   7.127 -2.9288 -0.8495 -0.4023
 2244SOL     OW 6730   0.474   3.284   6.701  0.6028  0.5432 -0.1171
 2244SOL    HW1 6731   0.498   3.212   6.760  0.8017 -0.2712 -1.1566
 2244SOL    HW2 6732   0.409   3.246   6.642  1.2532  0.9969 -1.1539
 2245SOL     OW 6733   3.432   3.080   6.391 -0.2756 -0.1120 -0.6015
 2245SOL    HW1 6734   3.366   3.022   6.431  1.6426 -1.1095  1.3904
 2245SOL    HW2 6735   3.452   3.039   6.307 -1.3252 -0.4551 -0.7017
 2246SOL     OW 6736   4.121   3.249   6.180  0.2680  0.9350 -0.1647
 2246SOL    HW1 6737   4.062   3.219   6.248 -0.1117  1.9878 -0.0061
 2246SOL    HW2 6738   4.070   3.315   6.132  1.3674  2.0335  0.1197
 2247SOL     OW 6739   4.675   2.465   6.742  0.1375  0.0807  0.0089
 2247SOL    HW1 6740   4.602   2.515   6.778 -0.1770 -0.4213  0.0894
 2247SOL    HW2 6741   4.678   2.489   6.649  0.7356  1.1233  0.2830
 2248SOL     OW 6742   3.306   2.930   6.126  0.2004  0.1222  0.2650
 2248SOL    HW1 6743   3.402   2.927   6.126  0.3215  2.4653  1.3420
 2248SOL    HW2 6744   3.281   2.879   6.203  0.6831  1.0452  1.0499
 2249SOL     OW 6745   2.855   2.596   6.435  0.1122 -0.0606 -0.1769
 2249SOL    HW1 6746   2.916   2.557   6.497 -1.1131 -0.6814  0.6859
 2249SOL    HW2 6747   2.774   2.605   6.485 -0.0574  2.2867 -0.7874
 2250SOL     OW 6748   0.834   2.899   7.743 -0.0290 -0.1120 -0.0447
 2250SOL    HW1 6749   0.884   2.822   7.716  0.8604  0.3338  0.3123
 2250SOL    HW2 6750   0.750   2.890   7.697  0.1387 -1.1795 -0.1717
 2251SOL     OW 6751   4.029   2.412   5.220 -0.2966  0.1042  0.3204
 2251SOL    HW1 6752   3.982   2.455   5.149 -0.5737  0.0321  0.4589
 2251SOL    HW2 6753   3.961   2.371   5.273 -0.0952  0.1563  0.6273
 2252SOL     OW 6754   4.705   2.741   5.990 -0.2002  0.1740  0.4412
 2252SOL    HW1 6755   4.702   2.792   5.909 -0.6376 -0.3475  0.1204
 2252SOL    HW2 6756   4.752   2.661   5.966 -0.3104  0.0262  0.7085
 2253SOL     OW 6757   3.475   4.034   7.649 -0.1582  0.1644 -0.8467
 2253SOL    HW1 6758   3.511   3.971   7.712 -0.7857  2.3411  1.9223
 2253SOL    HW2 6759   3.552   4.077   7.612  0.3062  1.4510  1.4023
 2254SOL     OW 6760   1.774   0.217   7.004 -0.5068 -0.1741  0.0759
 2254SOL    HW1 6761   1.808   0.142   7.054  2.3608  0.0449 -1.3184
 2254SOL    HW2 6762   1.799   0.294   7.056  0.9348 -0.0265 -0.7841
 2255SOL     OW 6763   4.482   4.316   5.168 -0.3684 -0.0387  0.2989
 2255SOL    HW1 6764   4.423   4.257   5.120  0.7754 -1.2580  0.3468
 2255SOL    HW2 6765   4.547   4.258   5.208  2.1485  1.3440 -1.4881
 2256SOL     OW 6766   1.573   0.251   5.942 -0.3233  0.1453  0.0139
 2256SOL    HW1 6767   1.504   0.284   5.999 -1.3077  0.8317 -1.5213
 2256SOL    HW2 6768   1.527   0.215   5.866  0.9258 -1.2672 -0.1213
 2257SOL     OW 6769   0.806   0.779   4.890 -0.3302  0.2771 -0.0530
 2257SOL    HW1 6770   0.733   0.775   4.828 -0.0329  0.2123 -0.4081
 2257SOL    HW2 6771   0.869   0.715   4.857  0.5141  1.3369 -0.5812
 2258SOL     OW 6772   3.050   4.844   5.224  0.0970 -0.1520  0.3843
 2258SOL    HW1 6773   3.066   4.752   5.246  0.0156  0.1766  1.9242
 2258SOL    HW2 6774   2.973   4.842   5.168 -1.2718 -0.9004  2.1911
 2259SOL     OW 6775   0.022   1.621   5.600 -0.8265  0.0924 -0.2763
 2259SOL    HW1 6776   0.107   1.617   5.556 -1.0445  0.5808 -0.7430
 2259SOL    HW2 6777   0.001   1.530   5.620 -0.1730 -0.0298 -0.1139
 2260SOL     OW 6778   3.371   3.365   5.754  0.4743  0.4991 -0.3033
 2260SOL    HW1 6779   3.352   3.458   5.766  1.3596  0.6754 -0.2232
 2260SOL    HW2 6780   3.285   3.322   5.759  0.1808  1.1870  0.7755
 2261SOL     OW 6781   3.890   0.269   5.351  0.4713 -0.3953 -0.6952
 2261SOL    HW1 6782   3.840   0.350   5.355  1.1642  0.0276 -0.1378
 2261SOL    HW2 6783   3.982   0.298   5.349  0.7205 -1.1596 -0.6967
 2262SOL     OW 6784   2.933   1.782   7.063  0.0361 -0.3588  0.1449
 2262SOL    HW1 6785   2.844   1.799   7.094  0.5777  1.9402  0.6393
 2262SOL    HW2 6786   2.925   1.777   6.968 -0.5111  0.9190  0.1040
 2263SOL     OW 6787   3.593   2.079   5.288  0.7150  0.4785 -0.2694
 2263SOL    HW1 6788   3.579   2.007   5.349  0.6978  1.0612  0.4242
 2263SOL    HW2 6789   3.636   2.039   5.212  0.5949 -0.2745  0.0595
 2264SOL     OW 6790   4.575   3.618   4.930  0.0099  0.6065 -0.1301
 2264SOL    HW1 6791   4.620   3.690   4.886 -2.0081  1.8104 -0.3438
 2264SOL    HW2 6792   4.487   3.652   4.947 -1.2804 -2.1195 -0.9767
 2265SOL     OW 6793   2.394   4.029   5.675 -0.0986  1.1446 -0.2170
 2265SOL    HW1 6794   2.467   3.975   5.645  0.0065 -0.6103  2.7865
 2265SOL    HW2 6795   2.316   3.979   5.651 -0.0418  0.1870  1.4310
 2266SOL     OW 6796   2.249   2.162   7.289  0.2919 -0.0777  0.2484
 2266SOL    HW1 6797   2.241   2.109   7.210  0.8098 -1.8079  1.2834
 2266SOL    HW2 6798   2.299   2.106   7.349 -0.8467  0.8205  2.1037
 2267SOL     OW 6799   3.602   3.449   5.614  0.4918 -0.3941  0.1747
 2267SOL    HW1 6800   3.556   3.394   5.678 -0.0844 -0.4623 -0.2892
 2267SOL    HW2 6801   3.532   3.496   5.568  0.9449  0.3023  0.1732
 2268SOL     OW 6802   3.368   1.597   7.666 -0.3996  0.2048 -0.1723
 2268SOL    HW1 6803   3.346   1.515   7.711 -3.1275  0.6866 -0.4454
 2268SOL    HW2 6804   3.349   1.581   7.574 -2.3832  1.4852 -0.0595
 2269SOL     OW 6805   0.087   0.239   5.240 -0.5968  0.3175  0.0300
 2269SOL    HW1 6806  -0.000   0.203   5.229 -0.8376  0.6325  0.8460
 2269SOL    HW2 6807   0.140   0.167   5.273 -0.4642  0.0358 -0.7913
 2270SOL     OW 6808   3.538   0.666   8.431  0.1165  0.1825  0.1139
 2270SOL    HW1 6809   3.513   0.729   8.363  1.9310 -1.0624 -1.8003
 2270SOL    HW2 6810   3.509   0.582   8.397  3.1076 -0.7831 -0.3394
 2271SOL     OW 6811   4.878   4.548   5.000  0.3036  0.2561 -0.1207
 2271SOL    HW1 6812   4.884   4.476   5.062  0.8058  0.9662  0.6670
 2271SOL    HW2 6813   4.787   4.546   4.969  0.1890 -0.4085  0.2495
 2272SOL     OW 6814   2.020   3.249   7.644  0.2832  0.4432 -0.1200
 2272SOL    HW1 6815   2.109   3.215   7.653  0.5489  0.8259 -1.2738
 2272SOL    HW2 6816   2.000   3.285   7.731  1.2544  0.3946  0.1384
 2273SOL     OW 6817   1.947   2.589   5.130 -0.4322 -0.6226  0.3329
 2273SOL    HW1 6818   1.950   2.644   5.052 -0.0064  0.0538  0.7999
 2273SOL    HW2 6819   1.924   2.650   5.201  1.6956 -0.6559  1.1495
 2274SOL     OW 6820   4.618   1.329   7.210 -0.1318  0.4173 -0.5102
 2274SOL    HW1 6821   4.605   1.355   7.302 -0.2457  2.0517 -0.9431
 2274SOL    HW2 6822   4.567   1.249   7.200 -0.2530  0.3012  0.8117
 2275SOL     OW 6823   1.339   3.086   5.379 -0.6871 -0.4511 -0.6671
 2275SOL    HW1 6824   1.413   3.027   5.368  0.2537  0.3406  1.0235
 2275SOL    HW2 6825   1.299   3.059   5.462  0.4151  1.9001  0.7197
 2276SOL     OW 6826   3.437   3.285   5.300 -0.6111 -0.2691  0.5396
 2276SOL    HW1 6827   3.369   3.350   5.318 -2.1482 -2.2727  2.5815
 2276SOL    HW2 6828   3.396   3.224   5.239  0.5021  0.1634 -0.6778
 2277SOL     OW 6829   1.305   3.177   7.137 -0.1734  0.1352 -0.1080
 2277SOL    HW1 6830   1.229   3.137   7.094 -0.1682  1.0721 -1.0226
 2277SOL    HW2 6831   1.269   3.220   7.214 -0.2999 -0.8848  0.4275
 2278SOL     OW 6832   1.944   3.852   6.959  0.5081 -0.3435  0.6453
 2278SOL    HW1 6833   1.999   3.826   7.032  1.2720 -0.4372  0.0463
 2278SOL    HW2 6834   1.897   3.772   6.934  1.4397 -0.7084  0.0176
 2279SOL     OW 6835   3.987   1.763   7.039  0.8432 -0.6428 -0.4535
 2279SOL    HW1 6836   3.963   1.847   7.000 -1.2938 -0.8361  0.3395
 2279SOL    HW2 6837   4.002   1.706   6.964 -0.5028 -0.2933 -1.0102
 2280SOL     OW 6838   3.267   3.858   9.018  0.3173  0.6045 -0.0395
 2280SOL    HW1 6839   3.298   3.777   8.978 -2.3207 -0.4389 -0.1314
 2280SOL    HW2 6840   3.173   3.859   9.002  0.1487  3.3540  0.5935
 2281SOL     OW 6841   0.058   2.536   8.096  0.2925 -0.2059  0.5639
 2281SOL    HW1 6842   0.039   2.581   8.013 -0.5606  1.3832  1.5741
 2281SOL    HW2 6843   0.147   2.502   8.084  0.3509  0.3614 -0.8535
 2282SOL     OW 6844   2.753   2.303   7.404 -0.2124 -0.6074  0.1007
 2282SOL    HW1 6845   2.846   2.282   7.400  0.0088  0.3189  0.1598
 2282SOL    HW2 6846   2.744   2.385   7.355 -0.5978  0.5680  2.0132
 2283SOL     OW 6847   2.407   0.073   6.807  0.4666  0.0006  0.0219
 2283SOL    HW1 6848   2.473   0.143   6.799 -0.3998  0.7079 -1.4172
 2283SOL    HW2 6849   2.420   0.020   6.728 -0.7173  0.1904 -0.3112
 2284SOL     OW 6850   3.088   1.048   6.628  0.0238  0.0355 -0.0829
 2284SOL    HW1 6851   3.110   1.141   6.635  0.3087 -0.1163  1.8364
 2284SOL    HW2 6852   3.160   1.010   6.578  1.2478  0.4904  1.2339
 2285SOL     OW 6853   2.961   1.543   6.118 -0.0629 -0.0582  0.4050
 2285SOL    HW1 6854   3.030   1.584   6.170 -0.2371 -0.1737  0.7265
 2285SOL    HW2 6855   2.988   1.558   6.027 -0.8368  2.0038  0.4793
 2286SOL     OW 6856   2.998   2.127   6.396 -0.1593  0.6195  0.1243
 2286SOL    HW1 6857   2.946   2.167   6.326 -1.4268  0.8043  1.1173
 2286SOL    HW2 6858   2.966   2.169   6.476  2.0150  1.2040  0.7370
 2287SOL     OW 6859   1.936   4.909   5.960 -0.1739 -0.3226 -0.0474
 2287SOL    HW1 6860   2.011   4.914   5.901  1.1337  0.6908  1.5980
 2287SOL    HW2 6861   1.902   4.998   5.962 -1.0837 -0.6609 -0.3470
 2288SOL     OW 6862   2.722   4.561   6.679 -0.1335 -0.2325 -0.0577
 2288SOL    HW1 6863   2.644   4.512   6.705 -1.9769  3.5759  2.6030
 2288SOL    HW2 6864   2.780   4.555   6.755  1.3261 -1.2620 -1.1923
 2289SOL     OW 6865   3.635   4.747   5.684 -0.2056  0.3060  0.2482
 2289SOL    HW1 6866   3.695   4.802   5.735 -0.5053 -1.0698  2.2177
 2289SOL    HW2 6867   3.566   4.807   5.655 -0.0152  1.1687  1.5079
 2290SOL     OW 6868   3.183   2.640   6.113 -0.3056  0.5755  0.4742
 2290SOL    HW1 6869   3.227   2.617   6.195 -0.7839 -0.7258  0.3855
 2290SOL    HW2 6870   3.111   2.697   6.139  0.8148  1.9401  0.7193
 2291SOL     OW 6871   2.285   3.524   7.320 -0.2523  0.3501 -0.3650
 2291SOL    HW1 6872   2.204   3.480   7.345  0.6805  0.2408  2.9430
 2291SOL    HW2 6873   2.262   3.575   7.242 -2.0259 -3.8235 -2.9202
 2292SOL     OW 6874   1.574   0.312   7.262  0.1070  0.5829 -0.9585
 2292SOL    HW1 6875   1.635   0.380   7.232  1.6025  1.3995  3.3021
 2292SOL    HW2 6876   1.621   0.230   7.247  0.6322  0.9167 -1.1636
 2293SOL     OW 6877   2.642   1.937   5.267 -0.1382  0.2392  0.3313
 2293SOL    HW1 6878   2.616   1.876   5.198  2.5545  0.6583 -1.2186
 2293SOL    HW2 6879   2.611   1.896   5.348 -2.6063 -0.7265 -0.9880
 2294SOL     OW 6880   1.408   3.074   5.835 -0.2191 -0.2187  0.1621
 2294SOL    HW1 6881   1.370   2.988   5.852  0.0319 -0.3348  0.1389
 2294SOL    HW2 6882   1.361   3.133   5.893  0.1527 -0.4985  0.7483
 2295SOL     OW 6883   4.444   2.253   5.358  0.1785 -0.3629 -0.1222
 2295SOL    HW1 6884   4.431   2.180   5.298 -2.0447  0.6954 -1.0105
 2295SOL    HW2 6885   4.398   2.327   5.318 -0.1526  0.7762  2.1642
 2296SOL     OW 6886   2.656   0.124   6.380 -0.2062 -0.1566  0.3903
 2296SOL    HW1 6887   2.727   0.063   6.361  0.0635  0.5744 -1.1194
 2296SOL    HW2 6888   2.582   0.092   6.329  0.0788  0.9887 -0.8207
 2297SOL     OW 6889   3.933   4.141   5.434 -0.1319 -0.0888  0.0421
 2297SOL    HW1 6890   4.020   4.175   5.455  0.1524 -0.7472 -0.0628
 2297SOL    HW2 6891   3.910   4.086   5.509 -1.1957  1.4305  0.8782
 2298SOL     OW 6892   3.927   0.673   8.940  0.2214  0.5434 -0.4458
 2298SOL    HW1 6893   3.891   0.693   9.026  1.8814  0.8147  0.2391
 2298SOL    HW2 6894   3.910   0.752   8.888  0.5018  0.9625  0.0928
 2299SOL     OW 6895   0.339   3.864   5.506  0.3812  0.3279  0.7503
 2299SOL    HW1 6896   0.298   3.908   5.432 -0.3671  0.0457  0.9887
 2299SOL    HW2 6897   0.284   3.787   5.522  1.2408 -0.2757  0.8185
 2300SOL     OW 6898   0.407   1.430   7.578 -0.2159  0.0144 -0.7398
 2300SOL    HW1 6899   0.468   1.412   7.506  0.7892 -0.3799  0.1835
 2300SOL    HW2 6900   0.385   1.343   7.613 -0.6866  0.2012 -0.5700
 2301SOL     OW 6901   3.073   0.539   7.628 -0.1594  0.1424  0.3744
 2301SOL    HW1 6902   3.103   0.556   7.539 -0.4468  1.3103  0.4902
 2301SOL    HW2 6903   3.144   0.488   7.667  0.1403 -0.0544 -0.3925
 2302SOL     OW 6904   2.586   4.388   6.467 -0.2206 -0.6160  0.4326
 2302SOL    HW1 6905   2.550   4.443   6.536  1.9407 -0.4366  1.4950
 2302SOL    HW2 6906   2.649   4.444   6.421  0.6704 -1.6273  0.3614
 2303SOL     OW 6907   4.556   4.877   5.203  0.0649  0.3836 -0.1707
 2303SOL    HW1 6908   4.607   4.914   5.131 -0.8182  0.2583 -0.8745
 2303SOL    HW2 6909   4.605   4.800   5.231 -0.2992 -0.3820 -1.5816
 2304SOL     OW 6910   2.122   2.559   6.687 -0.0399 -0.3848 -0.0210
 2304SOL    HW1 6911   2.199   2.524   6.642 -0.0186 -2.0766  1.2657
 2304SOL    HW2 6912   2.136   2.539   6.779 -1.1136  1.0597  0.4955
 2305SOL     OW 6913   4.399   3.098   6.850 -0.3099  0.3471  0.1011
 2305SOL    HW1 6914   4.379   3.172   6.793  0.5194  0.2040 -0.4005
 2305SOL    HW2 6915   4.413   3.138   6.936  0.2627  0.8050 -0.1915
 2306SOL     OW 6916   4.128   4.265   5.103  0.6789  0.3146 -0.1519
 2306SOL    HW1 6917   4.137   4.191   5.043  2.5148  0.3907 -0.0470
 2306SOL    HW2 6918   4.107   4.225   5.188 -1.0454  0.1477 -0.6239
 2307SOL     OW 6919   4.708   3.645   6.014 -0.6741  0.3522 -0.5399
 2307SOL    HW1 6920   4.652   3.619   5.941 -1.3239  0.6971 -0.1669
 2307SOL    HW2 6921   4.685   3.736   6.031  0.8044  0.8680 -1.1181
 2308SOL     OW 6922   1.894   1.133   5.409  0.1946  0.3816  0.3475
 2308SOL    HW1 6923   1.934   1.048   5.388 -0.4838  0.4005 -1.1499
 2308SOL    HW2 6924   1.815   1.111   5.458  0.6930  0.2278  1.1005
 2309SOL     OW 6925   1.934   3.189   7.241  0.3429 -0.2889 -0.2499
 2309SOL    HW1 6926   1.949   3.241   7.162  0.2553  0.0863 -0.0196
 2309SOL    HW2 6927   1.988   3.111   7.229 -1.9579 -1.7163 -2.0952
 2310SOL     OW 6928   2.698   2.974   7.062  0.2690  0.4466  0.0467
 2310SOL    HW1 6929   2.611   3.014   7.068  0.0290 -0.2304  4.7986
 2310SOL    HW2 6930   2.684   2.894   7.012 -2.1664 -0.1455  1.5111
 2311SOL     OW 6931   2.622   4.387  10.065 -0.0758  0.6224  0.5657
 2311SOL    HW1 6932   2.626   4.371   9.971 -0.5724  0.4397  0.5690
 2311SOL    HW2 6933   2.671   4.316  10.105 -2.2860 -1.0002  0.5865
 2312SOL     OW 6934   3.061   3.184   8.363  0.4236  0.3454 -0.0475
 2312SOL    HW1 6935   3.074   3.158   8.272  1.3843 -0.6157  0.3410
 2312SOL    HW2 6936   3.103   3.115   8.414 -0.9431  0.3467  1.1635
 2313SOL     OW 6937   3.793   4.193   6.936  0.0465  0.6267 -0.0050
 2313SOL    HW1 6938   3.870   4.214   6.883 -0.2311  0.3830 -0.5093
 2313SOL    HW2 6939   3.772   4.275   6.982  0.4068  0.7814 -0.1138
 2314SOL     OW 6940   0.159   2.645   6.849 -0.1326 -0.2762 -0.3835
 2314SOL    HW1 6941   0.073   2.609   6.869  0.5426 -0.7867  1.8430
 2314SOL    HW2 6942   0.164   2.726   6.901  0.2972  0.4059 -1.4439
 2315SOL     OW 6943   0.472   3.535   8.217  0.1140 -0.3802 -0.3957
 2315SOL    HW1 6944   0.388   3.516   8.175 -1.3933  2.8115  0.8576
 2315SOL    HW2 6945   0.514   3.598   8.159  1.0008 -0.8180 -0.2559
 2316SOL     OW 6946   1.141   3.300   7.823 -0.2761  0.0475 -0.5703
 2316SOL    HW1 6947   1.046   3.296   7.812 -0.5794 -0.0366  1.6889
 2316SOL    HW2 6948   1.173   3.216   7.792 -1.1135 -0.4998  0.0277
 2317SOL     OW 6949   1.989   3.298   6.526  0.3732 -0.4179 -0.1825
 2317SOL    HW1 6950   2.084   3.297   6.532  0.3917  0.0903 -0.3854
 2317SOL    HW2 6951   1.961   3.357   6.595  0.2659  0.3309 -0.8530
 2318SOL     OW 6952   2.696   3.041   9.618 -0.3125  0.2887  0.7082
 2318SOL    HW1 6953   2.753   3.041   9.696  0.4798 -1.3232  0.1761
 2318SOL    HW2 6954   2.711   3.127   9.578  1.5576  0.0371  0.7564
 2319SOL     OW 6955   2.524   3.112   7.934  0.1566  0.1813 -0.1246
 2319SOL    HW1 6956   2.583   3.160   7.876 -1.6588  1.4021 -1.0550
 2319SOL    HW2 6957   2.506   3.172   8.007 -2.1886  1.0836 -1.3299
 2320SOL     OW 6958   3.369   2.276   8.852 -0.1443 -0.0561  0.1634
 2320SOL    HW1 6959   3.427   2.300   8.779  0.0689  1.6220  0.8419
 2320SOL    HW2 6960   3.289   2.245   8.809 -0.7155  2.5830 -0.8674
 2321SOL     OW 6961   1.891   2.172   8.937  0.4930 -0.3410 -0.3546
 2321SOL    HW1 6962   1.856   2.178   9.026 -1.0952 -0.1088 -0.9691
 2321SOL    HW2 6963   1.944   2.252   8.927 -0.1917  0.1749  0.0248
 2322SOL     OW 6964   4.819   3.428   6.173  0.1070  0.0198  0.5677
 2322SOL    HW1 6965   4.739   3.381   6.197  0.2649 -1.3450 -1.3552
 2322SOL    HW2 6966   4.789   3.497   6.114  0.2967 -0.3825 -0.0132
 2323SOL     OW 6967   2.074   0.361   8.019 -0.3208  0.3982  0.5322
 2323SOL    HW1 6968   2.068   0.451   8.050 -0.9541  0.5206  0.0831
 2323SOL    HW2 6969   2.151   0.359   7.962 -0.1925  0.6075  0.7011
 2324SOL     OW 6970   3.075   0.251   9.514  0.2506  0.0339 -0.4304
 2324SOL    HW1 6971   3.009   0.214   9.573  0.8235 -0.5506 -0.1499
 2324SOL    HW2 6972   3.125   0.312   9.568 -0.2798  0.7537 -0.7338
 2325SOL     OW 6973   2.039   4.201   8.919 -0.4455 -0.3400  0.3544
 2325SOL    HW1 6974   2.103   4.269   8.899 -0.8096  0.2836  1.2147
 2325SOL    HW2 6975   2.040   4.195   9.015 -1.2049 -0.7825  0.3455
 2326SOL     OW 6976   2.134   0.885   6.531  0.9117 -0.1729 -0.1456
 2326SOL    HW1 6977   2.067   0.918   6.472  0.6405 -0.7416 -0.1654
 2326SOL    HW2 6978   2.185   0.824   6.478  0.3864 -1.0304  0.3187
 2327SOL     OW 6979   2.738   4.456   9.160  0.0746 -0.5300 -0.1707
 2327SOL    HW1 6980   2.725   4.504   9.242 -0.7212 -0.8909 -0.0815
 2327SOL    HW2 6981   2.700   4.514   9.093  0.2506 -0.4701 -0.2178
 2328SOL     OW 6982   3.135   2.988   7.537  0.3465  0.6412  0.3938
 2328SOL    HW1 6983   3.118   2.894   7.549 -1.1729  0.9576  1.0649
 2328SOL    HW2 6984   3.185   2.994   7.456  0.5887 -0.7566  0.4202
 2329SOL     OW 6985   3.776   4.224   8.705  0.6712  0.3436  0.2647
 2329SOL    HW1 6986   3.790   4.301   8.650 -1.4257 -0.4265 -1.5000
 2329SOL    HW2 6987   3.721   4.256   8.777 -0.8746  0.3862 -0.8958
 2330SOL     OW 6988   1.524   3.020   6.213  0.5513 -0.0492 -0.0373
 2330SOL    HW1 6989   1.500   2.952   6.276  0.6348  0.8769  1.0447
 2330SOL    HW2 6990   1.535   3.099   6.267 -0.9148  1.1582 -1.4161
 2331SOL     OW 6991   4.430   4.387   6.548 -0.0735  0.0406  0.0383
 2331SOL    HW1 6992   4.398   4.419   6.463 -0.0363  0.3793  0.1535
 2331SOL    HW2 6993   4.525   4.391   6.540 -0.0458 -0.9578 -0.3010
 2332SOL     OW 6994   2.522   3.166   7.237 -0.1251  0.3349 -0.1619
 2332SOL    HW1 6995   2.585   3.196   7.172  0.1353 -0.7875 -0.4460
 2332SOL    HW2 6996   2.498   3.078   7.209 -1.5658  0.6055  0.1310
 2333SOL     OW 6997   2.290   2.752   8.477  0.3011 -0.5947 -0.7866
 2333SOL    HW1 6998   2.318   2.717   8.393  0.5972  0.2056 -1.0216
 2333SOL    HW2 6999   2.363   2.805   8.508  0.5443 -1.5471  0.3819
 2334SOL     OW 7000   3.181   3.939   7.900  0.2769  0.6222  0.0941
 2334SOL    HW1 7001   3.244   3.884   7.946  0.5564  0.7358 -0.1457
 2334SOL    HW2 7002   3.142   3.993   7.968  0.0552  0.1806  0.3204
 2335SOL     OW 7003   1.278   1.778   6.574 -0.1379 -0.1054  0.1018
 2335SOL    HW1 7004   1.216   1.748   6.508 -0.9406  1.5061  0.0845
 2335SOL    HW2 7005   1.234   1.763   6.658  0.7013 -1.7350  0.2928
 2336SOL     OW 7006   2.213   3.752   7.918 -0.6596  0.2849  0.4683
 2336SOL    HW1 7007   2.206   3.777   8.011  0.0355  0.0542  0.5842
 2336SOL    HW2 7008   2.267   3.673   7.918 -1.3942 -0.2334 -0.0589
 2337SOL     OW 7009   2.061   3.414   9.464  0.2398  0.3880 -0.1533
 2337SOL    HW1 7010   2.111   3.462   9.398  0.3755  0.6013  0.1024
 2337SOL    HW2 7011   1.987   3.471   9.484  1.4475  1.4091  1.5891
 2338SOL     OW 7012   3.256   1.249   6.946  0.0643  0.3968  0.2654
 2338SOL    HW1 7013   3.276   1.292   6.863  0.3632  0.5999  0.4420
 2338SOL    HW2 7014   3.305   1.167   6.943  0.3960  0.5912  0.4164
 2339SOL     OW 7015   1.788   2.341   7.273 -0.4178 -0.1746 -0.2494
 2339SOL    HW1 7016   1.768   2.251   7.297 -1.2661  0.2933  0.9393
 2339SOL    HW2 7017   1.875   2.357   7.308 -1.2304  0.1792  1.7441
 2340SOL     OW 7018   3.953   0.315   6.631 -0.2830  1.1130  0.1978
 2340SOL    HW1 7019   3.947   0.410   6.640  3.0670  1.7481 -2.1707
 2340SOL    HW2 7020   4.040   0.293   6.663 -1.2918 -1.3763  1.5286
 2341SOL     OW 7021   2.936   4.047   7.836 -0.5657 -0.4258 -0.0856
 2341SOL    HW1 7022   3.027   4.057   7.809 -0.2494  0.1655  1.1458
 2341SOL    HW2 7023   2.937   3.978   7.902 -0.4891  1.5740  2.1421
 2342SOL     OW 7024   2.602   2.504   9.302 -0.0330 -0.3737 -0.1794
 2342SOL    HW1 7025   2.678   2.554   9.272 -0.2867  1.2269  1.6021
 2342SOL    HW2 7026   2.638   2.445   9.369 -0.1503 -0.6397 -0.3501
 2343SOL     OW 7027   2.936   3.373   7.356  0.0061  0.2664  0.1857
 2343SOL    HW1 7028   2.988   3.407   7.283 -1.0693 -1.4008 -1.4647
 2343SOL    HW2 7029   2.857   3.427   7.356 -0.3023 -0.1748 -0.3672
 2344SOL     OW 7030   2.159   2.996   6.507 -0.0448  0.2955  0.2218
 2344SOL    HW1 7031   2.187   3.088   6.511 -1.2315  0.6238  1.7451
 2344SOL    HW2 7032   2.181   2.960   6.593  3.5157 -1.9040 -1.3602
 2345SOL     OW 7033   2.876   2.087   9.036 -0.1352 -0.0656 -0.3671
 2345SOL    HW1 7034   2.843   2.146   8.968 -1.5427 -1.5295 -1.0121
 2345SOL    HW2 7035   2.965   2.118   9.052 -0.4597  1.5684 -1.4271
 2346SOL     OW 7036   3.816   3.024   7.449  0.5076 -0.0563  0.2653
 2346SOL    HW1 7037   3.747   2.967   7.484 -1.3967  1.1431 -1.2670
 2346SOL    HW2 7038   3.770   3.082   7.388  2.8342  1.1643 -0.4598
 2347SOL     OW 7039   4.057   4.487   7.288 -0.1924  0.1342 -0.2552
 2347SOL    HW1 7040   4.045   4.463   7.196 -0.4299  2.0981 -0.7757
 2347SOL    HW2 7041   4.045   4.581   7.290  0.2259  0.1881  1.7461
 2348SOL     OW 7042   1.501   2.799   9.567  0.2234  0.1151 -0.0524
 2348SOL    HW1 7043   1.417   2.755   9.553  0.1072 -0.6596  2.5445
 2348SOL    HW2 7044   1.562   2.755   9.507 -0.7243 -0.9748 -0.2470
 2349SOL     OW 7045   2.969   3.540   7.101  0.4735  0.1998  0.6830
 2349SOL    HW1 7046   2.997   3.627   7.130  0.5560  0.0326  1.1242
 2349SOL    HW2 7047   2.891   3.556   7.049  0.6590  0.5641  0.5120
 2350SOL     OW 7048   2.494   3.254   9.372  0.5164 -0.4202  0.1659
 2350SOL    HW1 7049   2.492   3.163   9.344  0.8228 -1.0713  2.1352
 2350SOL    HW2 7050   2.413   3.291   9.338 -0.0221 -1.6484  0.0589
 2351SOL     OW 7051   2.579   1.998   8.081 -0.4173  0.4365  0.0413
 2351SOL    HW1 7052   2.651   2.057   8.101 -0.8894  0.4576  1.7840
 2351SOL    HW2 7053   2.620   1.911   8.080 -0.5582  0.2877  2.4368
 2352SOL     OW 7054   0.050   3.405   6.344 -0.1775 -0.3116  0.7835
 2352SOL    HW1 7055  -0.018   3.409   6.277  3.0767 -0.1046 -2.7958
 2352SOL    HW2 7056   0.101   3.328   6.321  2.1359  0.8099  1.9018
 2353SOL     OW 7057   2.995   4.227   6.414  1.1071  0.3972  0.5753
 2353SOL    HW1 7058   2.913   4.204   6.370  1.1232  1.0909  0.1666
 2353SOL    HW2 7059   3.009   4.156   6.477 -0.7619  1.1786  1.9724
 2354SOL     OW 7060   2.720   0.783   9.065  0.6577  0.3536 -0.0178
 2354SOL    HW1 7061   2.748   0.694   9.045 -1.6282 -0.5853  0.6866
 2354SOL    HW2 7062   2.694   0.819   8.980 -2.0315 -1.0444  0.1271
 2355SOL     OW 7063   1.393   4.208   7.352 -0.0998 -0.2565 -0.0968
 2355SOL    HW1 7064   1.469   4.181   7.404 -0.1482  0.4604  0.3615
 2355SOL    HW2 7065   1.388   4.303   7.364  0.4711  0.0777 -2.2340
 2356SOL     OW 7066   1.844   4.849   9.482  0.0179  0.4899 -0.6112
 2356SOL    HW1 7067   1.920   4.818   9.434 -0.9091 -1.2536 -1.0321
 2356SOL    HW2 7068   1.788   4.889   9.416 -0.3831 -0.1586 -0.6694
 2357SOL     OW 7069   2.834   1.196   7.497 -0.0580  0.6513 -0.1894
 2357SOL    HW1 7070   2.870   1.220   7.582  0.1026 -0.2448  0.0116
 2357SOL    HW2 7071   2.818   1.279   7.453 -2.0530  1.2461  1.4932
 2358SOL     OW 7072   2.436   2.454   7.260  0.5561 -0.1072  0.3751
 2358SOL    HW1 7073   2.352   2.498   7.268  0.2904 -0.3498 -0.8303
 2358SOL    HW2 7074   2.415   2.361   7.266  0.8510 -0.1423  0.9061
 2359SOL     OW 7075   3.791   3.193   6.946  0.0951 -0.8766  0.1297
 2359SOL    HW1 7076   3.872   3.236   6.918  0.1061 -0.5164  0.6884
 2359SOL    HW2 7077   3.819   3.137   7.019 -0.2710 -0.1484  0.8548
 2360SOL     OW 7078   1.953   3.977   8.261  0.6283 -0.0906  0.3203
 2360SOL    HW1 7079   1.994   3.983   8.347  0.2682  2.0210  0.4147
 2360SOL    HW2 7080   1.971   4.062   8.220  2.5773 -1.7003 -2.5741
 2361SOL     OW 7081   2.501   4.284   7.799  0.5728 -0.0550  0.5848
 2361SOL    HW1 7082   2.538   4.196   7.796  1.8829  0.4888 -1.6946
 2361SOL    HW2 7083   2.577   4.342   7.792 -0.2915  1.2713  1.7672
 2362SOL     OW 7084   4.542   4.002   9.284 -0.3962  0.1229 -0.3121
 2362SOL    HW1 7085   4.585   4.030   9.202 -0.4950  2.9766  0.5130
 2362SOL    HW2 7086   4.466   3.953   9.255 -0.3223  0.8970 -1.9515
 2363SOL     OW 7087   3.257   3.227   7.339 -0.2175 -0.1012  1.2979
 2363SOL    HW1 7088   3.212   3.152   7.301  0.4229 -0.7712  1.8487
 2363SOL    HW2 7089   3.287   3.278   7.263 -0.4917 -0.4986  0.9231
 2364SOL     OW 7090   3.772   2.081   8.450 -0.0468  0.5359 -0.2062
 2364SOL    HW1 7091   3.852   2.046   8.489  0.5869  1.1201 -0.9472
 2364SOL    HW2 7092   3.740   2.011   8.394 -0.9614 -0.3097  1.2858
 2365SOL     OW 7093   3.798   0.945   9.393  0.5033  0.6242  0.3941
 2365SOL    HW1 7094   3.726   0.945   9.330  0.4691  0.4135  0.4329
 2365SOL    HW2 7095   3.822   0.853   9.402  2.0837  0.8385 -1.0994
 2366SOL     OW 7096   1.780   4.366   8.737 -0.0363  0.1912  0.5015
 2366SOL    HW1 7097   1.782   4.270   8.741 -0.9029  0.0257 -1.5571
 2366SOL    HW2 7098   1.748   4.385   8.649  0.8643  2.4031  0.6025
 2367SOL     OW 7099   4.735   1.559   8.340 -0.1312  0.0031 -0.5758
 2367SOL    HW1 7100   4.654   1.508   8.338 -0.7142  0.9223 -0.8731
 2367SOL    HW2 7101   4.713   1.638   8.389  0.8604 -0.1725  0.1905
 2368SOL     OW 7102   3.299   2.943   5.829 -0.1101  0.1134  0.1053
 2368SOL    HW1 7103   3.216   2.902   5.803 -0.5773  0.1389  1.4911
 2368SOL    HW2 7104   3.297   2.944   5.925  2.0510 -0.9977  0.2323
 2369SOL     OW 7105   1.090   3.690   6.929 -0.0017 -0.1771 -0.1151
 2369SOL    HW1 7106   1.057   3.762   6.875 -0.9402 -0.8151 -0.4165
 2369SOL    HW2 7107   1.133   3.631   6.868  1.1786  0.3477  0.1960
 2370SOL     OW 7108   3.842   2.341   6.905  0.1635  0.0093 -0.2885
 2370SOL    HW1 7109   3.923   2.357   6.953 -0.7119 -1.3752  1.7901
 2370SOL    HW2 7110   3.783   2.411   6.933  0.6653  1.1786 -2.0098
 2371SOL     OW 7111   1.274   2.518   8.108 -0.1338 -0.2648  0.1811
 2371SOL    HW1 7112   1.182   2.520   8.134  0.2631  0.7437  1.6629
 2371SOL    HW2 7113   1.301   2.610   8.108  1.1599 -0.6096  0.9651
 2372SOL     OW 7114   2.793   4.456   6.978  0.4117 -0.2711 -0.5292
 2372SOL    HW1 7115   2.834   4.506   7.049  1.3493 -0.2056 -1.0960
 2372SOL    HW2 7116   2.704   4.438   7.009  0.0853  1.6457 -0.2581
 2373SOL     OW 7117   2.372   4.177   6.799  0.0005  0.3308 -0.1256
 2373SOL    HW1 7118   2.387   4.083   6.789  1.3701  0.4547  0.5683
 2373SOL    HW2 7119   2.309   4.183   6.870 -0.5851 -0.0760 -0.5971
 2374SOL     OW 7120   2.296   1.262   9.603 -0.2877  0.0035 -0.0078
 2374SOL    HW1 7121   2.334   1.344   9.634  0.5343 -0.3198 -0.1155
 2374SOL    HW2 7122   2.206   1.284   9.580 -0.6793  0.4405  1.7784
 2375SOL     OW 7123   3.681   3.589   7.657  0.2107 -0.2094 -0.0042
 2375SOL    HW1 7124   3.617   3.557   7.594  1.8088  1.2911 -2.5722
 2375SOL    HW2 7125   3.642   3.668   7.694 -0.2424 -0.4211 -0.0267
 2376SOL     OW 7126   1.165   1.673   6.843 -0.0896  0.0314 -0.0567
 2376SOL    HW1 7127   1.193   1.707   6.928  1.2686 -0.0305 -0.4612
 2376SOL    HW2 7128   1.183   1.579   6.848  0.2537  0.0716 -0.5166
 2377SOL     OW 7129   2.595   4.583   7.766 -0.0395  0.4141  0.7838
 2377SOL    HW1 7130   2.502   4.573   7.786 -0.6592  0.6803 -1.6920
 2377SOL    HW2 7131   2.600   4.665   7.717  1.6683  0.8926  1.6819
 2378SOL     OW 7132   4.727   1.989   8.682 -0.6692  0.0969 -0.2943
 2378SOL    HW1 7133   4.745   1.939   8.602 -2.2167  3.1416 -2.7500
 2378SOL    HW2 7134   4.633   2.006   8.680 -0.4990  1.5783  1.3604
 2379SOL     OW 7135   0.471   4.591   7.523  0.0215  0.4141  0.2058
 2379SOL    HW1 7136   0.505   4.585   7.612  1.2744  0.0775 -0.2728
 2379SOL    HW2 7137   0.548   4.608   7.469 -0.7118  0.5673 -0.8219
 2380SOL     OW 7138   4.701   3.170   7.070 -0.2151 -0.8729  0.4876
 2380SOL    HW1 7139   4.713   3.240   7.005  1.5291  0.1631  1.8104
 2380SOL    HW2 7140   4.738   3.092   7.029 -1.3549 -0.8294 -0.6654
 2381SOL     OW 7141   1.609   1.510   6.811 -0.2539 -0.0819  0.0068
 2381SOL    HW1 7142   1.690   1.470   6.843 -0.9532 -1.0869  0.5816
 2381SOL    HW2 7143   1.617   1.603   6.834  0.3580 -0.3318  0.8526
 2382SOL     OW 7144   3.308   3.079   7.735 -0.3043  0.1537  0.5012
 2382SOL    HW1 7145   3.394   3.058   7.697  0.1195  1.1198  0.8897
 2382SOL    HW2 7146   3.247   3.069   7.662  0.0744 -0.9121  0.3068
 2383SOL     OW 7147   1.612   1.670   7.891 -0.8580 -0.5163  0.0956
 2383SOL    HW1 7148   1.676   1.600   7.878  1.2891  1.3769 -0.1728
 2383SOL    HW2 7149   1.542   1.650   7.829  0.1682 -1.9111 -0.6630
 2384SOL     OW 7150   4.683   1.785   8.484  0.6087  0.5204 -0.4460
 2384SOL    HW1 7151   4.663   1.800   8.392 -0.5867  0.3687 -0.2304
 2384SOL    HW2 7152   4.597   1.769   8.525  1.3650 -2.6038  0.1298
 2385SOL     OW 7153   4.288   0.641   9.973 -0.4192 -0.2597 -0.3397
 2385SOL    HW1 7154   4.219   0.645  10.039  0.4442  0.2736  0.5494
 2385SOL    HW2 7155   4.285   0.726   9.929 -1.6848 -0.9766 -1.7540
 2386SOL     OW 7156   2.550   3.056   6.125  0.4054 -0.1063 -0.4640
 2386SOL    HW1 7157   2.456   3.057   6.146  0.6162 -3.6396  1.4997
 2386SOL    HW2 7158   2.593   3.052   6.210  2.1367 -1.5895 -1.3523
 2387SOL     OW 7159   4.487   1.067   7.277  0.0581  0.3978 -0.6745
 2387SOL    HW1 7160   4.501   0.972   7.279  2.0819  0.6262 -2.0215
 2387SOL    HW2 7161   4.443   1.086   7.360  1.3845 -1.4561  0.5234
 2388SOL     OW 7162   3.415   4.506   6.799 -0.2470  0.2093  0.0512
 2388SOL    HW1 7163   3.381   4.502   6.710 -1.8301  0.9218  0.5814
 2388SOL    HW2 7164   3.340   4.483   6.854  1.2014 -2.2752  1.1627
 2389SOL     OW 7165   2.717   3.649   7.602  0.1120  0.5197  0.6411
 2389SOL    HW1 7166   2.675   3.618   7.522 -1.0099 -0.7128  1.6582
 2389SOL    HW2 7167   2.665   3.726   7.627  0.1599  0.6139  0.4566
 2390SOL     OW 7168   2.311   1.844   7.759 -0.3070 -1.1670 -0.0456
 2390SOL    HW1 7169   2.357   1.872   7.679  1.2084  0.5522  1.3340
 2390SOL    HW2 7170   2.330   1.751   7.767  2.5828 -0.6642  0.1373
 2391SOL     OW 7171   2.661   2.224   6.644  0.0455  0.1825 -0.1065
 2391SOL    HW1 7172   2.629   2.173   6.569 -1.3115  3.1095 -1.7044
 2391SOL    HW2 7173   2.634   2.173   6.721 -1.2020 -1.4988 -1.5652
 2392SOL     OW 7174   1.054   1.816   6.181 -0.2155  0.1765  0.7495
 2392SOL    HW1 7175   1.076   1.798   6.090  0.0286  1.0692  0.6263
 2392SOL    HW2 7176   1.104   1.752   6.231  0.8031  0.6273  0.3277
 2393SOL     OW 7177   4.266   2.564   6.226 -0.7209 -0.2271  0.6737
 2393SOL    HW1 7178   4.296   2.474   6.216 -1.5460 -0.3618 -0.9747
 2393SOL    HW2 7179   4.173   2.556   6.247 -0.8525  0.2428  0.2793
 2394SOL     OW 7180   3.345   3.045   8.783  0.5135 -0.1128  0.3771
 2394SOL    HW1 7181   3.272   3.085   8.831  0.3033 -0.7537  0.6009
 2394SOL    HW2 7182   3.423   3.074   8.830  0.5781  2.2125 -1.0143
 2395SOL     OW 7183   3.777   0.329   9.146 -0.0337 -0.3838 -0.4558
 2395SOL    HW1 7184   3.778   0.271   9.222 -0.2771 -1.3871 -1.2008
 2395SOL    HW2 7185   3.693   0.312   9.104 -1.5988  2.8585  1.0390
 2396SOL     OW 7186   3.845   1.447   8.567 -0.0265  0.5653 -0.0289
 2396SOL    HW1 7187   3.820   1.461   8.475 -1.0739  1.3059  0.3572
 2396SOL    HW2 7188   3.824   1.530   8.610  0.5584  0.2554  0.8706
 2397SOL     OW 7189   1.920   4.377   7.346  0.1897 -0.0414  0.4940
 2397SOL    HW1 7190   2.009   4.402   7.321  0.0653  1.0065  1.0658
 2397SOL    HW2 7191   1.881   4.456   7.382 -1.2372 -0.2915 -0.4175
 2398SOL     OW 7192   0.115   1.350   6.850 -0.4827  0.3465 -0.3509
 2398SOL    HW1 7193   0.083   1.317   6.765  0.1515  0.3157 -0.5821
 2398SOL    HW2 7194   0.201   1.309   6.861  0.2671  1.7847 -0.5689
 2399SOL     OW 7195   3.509   1.769   7.336  0.2778  0.1215 -0.2752
 2399SOL    HW1 7196   3.587   1.734   7.380  1.0464  2.7586  0.6298
 2399SOL    HW2 7197   3.510   1.727   7.250  2.0153 -0.8022  0.1450
 2400SOL     OW 7198   1.118   1.921   8.750  0.0950 -0.3510  0.3521
 2400SOL    HW1 7199   1.065   1.916   8.670 -0.0928  0.3554  0.4305
 2400SOL    HW2 7200   1.075   1.862   8.811 -1.6464  1.5136  1.0196
 2401SOL     OW 7201   3.525   2.834   6.617 -0.5114  0.3091  0.3442
 2401SOL    HW1 7202   3.591   2.860   6.553 -0.7169 -2.1841 -1.0012
 2401SOL    HW2 7203   3.576   2.801   6.692 -0.2563  3.8256  1.9432
 2402SOL     OW 7204   4.667   3.619   7.818  0.3018 -0.1317 -0.5098
 2402SOL    HW1 7205   4.661   3.703   7.863 -0.9364 -0.0146 -0.8486
 2402SOL    HW2 7206   4.636   3.638   7.729 -0.3630 -1.0116 -0.4785
 2403SOL     OW 7207   2.972   4.887   8.293 -0.3087  0.4376 -0.3727
 2403SOL    HW1 7208   3.029   4.938   8.351 -1.4916  0.1333  1.1533
 2403SOL    HW2 7209   2.884   4.899   8.330 -1.0019 -0.4260 -1.6651
 2404SOL     OW 7210   3.106   4.490   9.421  0.6313 -0.0214  0.1942
 2404SOL    HW1 7211   3.092   4.395   9.426  0.3252 -0.0360 -0.6883
 2404SOL    HW2 7212   3.042   4.527   9.482 -0.2496 -0.3247 -0.5162
 2405SOL     OW 7213   2.655   0.106   9.093 -0.6590 -0.6455 -0.3399
 2405SOL    HW1 7214   2.625   0.197   9.091  1.2866  0.0982  1.0480
 2405SOL    HW2 7215   2.574   0.054   9.086 -1.9659  1.1903  0.2970
 2406SOL     OW 7216   1.022   1.908   7.635 -0.1860  0.0586 -0.8455
 2406SOL    HW1 7217   1.035   1.818   7.664  1.9926  0.1924 -1.2709
 2406SOL    HW2 7218   1.044   1.961   7.712 -2.1939  0.2672 -0.3557
 2407SOL     OW 7219   2.673   2.151   9.591 -0.2214  0.0904  0.6645
 2407SOL    HW1 7220   2.736   2.175   9.659  0.8321 -0.5077 -0.0683
 2407SOL    HW2 7221   2.698   2.062   9.565 -1.4070 -0.1867  0.3872
 2408SOL     OW 7222   1.925   3.656   7.322 -0.4981  0.4286  0.4714
 2408SOL    HW1 7223   2.010   3.692   7.298  0.1744 -0.3897  1.5770
 2408SOL    HW2 7224   1.939   3.562   7.327 -1.3741  0.3172  1.0243
 2409SOL     OW 7225   1.664   4.566   9.214 -0.1849  0.1804 -0.1698
 2409SOL    HW1 7226   1.699   4.544   9.128 -0.4739 -0.3084 -0.1615
 2409SOL    HW2 7227   1.592   4.626   9.196 -0.4118 -0.1249 -0.2848
 2410SOL     OW 7228   3.181   3.699   7.403  0.6233  0.2451  0.1870
 2410SOL    HW1 7229   3.131   3.632   7.450  0.6219  0.0890 -0.0350
 2410SOL    HW2 7230   3.202   3.765   7.470 -1.1955  1.0914 -0.0191
 2411SOL     OW 7231   1.637   2.398   8.240  0.2884  0.2249 -0.4414
 2411SOL    HW1 7232   1.708   2.377   8.300 -1.2021 -3.0154  0.4079
 2411SOL    HW2 7233   1.669   2.370   8.154  1.1972  1.8398 -0.6608
 2412SOL     OW 7234   2.692   3.261   7.013  0.0840 -0.1966  0.0769
 2412SOL    HW1 7235   2.681   3.354   6.990  0.9924 -0.0051  0.3642
 2412SOL    HW2 7236   2.785   3.244   6.997 -0.1027 -1.0954 -0.0815
 2413SOL     OW 7237   1.203   1.014   7.010 -0.0324  0.0708 -0.0295
 2413SOL    HW1 7238   1.167   1.025   6.922  2.7039  0.7116 -1.1858
 2413SOL    HW2 7239   1.236   0.924   7.012 -0.0703  0.0631  0.3504
 2414SOL     OW 7240   1.577   2.417   6.496  0.0157 -0.4555  0.0302
 2414SOL    HW1 7241   1.497   2.441   6.449  0.2925  0.1851 -0.1167
 2414SOL    HW2 7242   1.596   2.492   6.552  0.9793 -0.2464 -0.5526
 2415SOL     OW 7243   2.431   3.577   9.367  0.2253 -0.5041 -0.0997
 2415SOL    HW1 7244   2.370   3.549   9.299 -2.1321  0.2616  1.5752
 2415SOL    HW2 7245   2.405   3.527   9.445  0.5575  1.1167  1.1104
 2416SOL     OW 7246   3.929   1.238   8.205  0.2144  0.2365  0.0099
 2416SOL    HW1 7247   3.883   1.313   8.243 -3.6052 -1.1018 -1.4574
 2416SOL    HW2 7248   3.946   1.181   8.280 -1.1258  0.5441  0.5862
 2417SOL     OW 7249   3.393   3.876   7.214 -0.1720 -0.0836 -0.0184
 2417SOL    HW1 7250   3.324   3.930   7.174 -0.4546  0.1902  0.8275
 2417SOL    HW2 7251   3.346   3.805   7.258  0.2455 -2.0061 -2.4436
 2418SOL     OW 7252   3.084   2.355   8.300 -0.2345  0.0501 -0.4438
 2418SOL    HW1 7253   3.089   2.292   8.228 -1.2903 -0.2852 -0.2381
 2418SOL    HW2 7254   2.993   2.383   8.301 -0.1436  0.3547  0.5241
 2419SOL     OW 7255   2.738   2.065   7.699  0.0551 -0.0086  0.0583
 2419SOL    HW1 7256   2.684   1.987   7.701 -1.2840  0.8807  0.1530
 2419SOL    HW2 7257   2.777   2.070   7.786 -1.1423  0.2800  0.5977
 2420SOL     OW 7258   3.808   2.772   7.738 -0.2943 -0.1129  0.1027
 2420SOL    HW1 7259   3.785   2.758   7.646  0.5838 -3.2281  0.2363
 2420SOL    HW2 7260   3.735   2.736   7.787  0.3644 -0.8690  0.5606
 2421SOL     OW 7261   2.275   2.335   8.084  0.0590  0.6923 -0.4946
 2421SOL    HW1 7262   2.259   2.326   8.178 -2.8357  0.5986 -0.9256
 2421SOL    HW2 7263   2.276   2.245   8.051  1.4612  0.6997 -0.5613
 2422SOL     OW 7264   1.373   1.225   7.130 -0.4010  1.0055 -0.0437
 2422SOL    HW1 7265   1.430   1.252   7.058 -0.8523  0.6824 -0.5333
 2422SOL    HW2 7266   1.301   1.179   7.087  0.2985 -0.9151  0.7249
 2423SOL     OW 7267   0.138   3.854   8.313 -0.5723 -0.1798 -0.1066
 2423SOL    HW1 7268   0.106   3.816   8.395  0.1316 -1.3081 -0.3312
 2423SOL    HW2 7269   0.127   3.784   8.248 -1.2247  0.7295 -1.0232
 2424SOL     OW 7270   3.000   3.213   7.583  0.0737  0.2708 -0.3106
 2424SOL    HW1 7271   3.042   3.130   7.558  0.4945  0.5651 -0.5872
 2424SOL    HW2 7272   2.989   3.260   7.501  0.3910  0.7469 -0.0850
 2425SOL     OW 7273   2.573   2.646   7.838  1.0339  0.3851  0.3802
 2425SOL    HW1 7274   2.519   2.710   7.884 -1.6629  0.7043 -2.8503
 2425SOL    HW2 7275   2.663   2.674   7.856  0.1524  1.7666  3.4180
 2426SOL     OW 7276   2.834   3.404   8.521 -0.3874  0.5586  0.0318
 2426SOL    HW1 7277   2.781   3.362   8.589  2.6795 -1.2761  1.4577
 2426SOL    HW2 7278   2.890   3.465   8.568  2.1155 -1.0609 -0.6860
 2427SOL     OW 7279   3.774   2.908   6.458 -0.3050 -0.2050 -0.4198
 2427SOL    HW1 7280   3.816   2.976   6.405 -0.6854  0.5197  0.1883
 2427SOL    HW2 7281   3.827   2.904   6.537 -1.3184  0.6757  0.3282
 2428SOL     OW 7282   1.263   4.508   9.120 -0.6100  0.2177 -0.1297
 2428SOL    HW1 7283   1.193   4.447   9.097 -1.7105  1.2963  0.2257
 2428SOL    HW2 7284   1.228   4.558   9.194  0.9517  0.0893  0.7516
 2429SOL     OW 7285   1.651   4.719   8.530 -0.4326  0.0240 -0.7217
 2429SOL    HW1 7286   1.633   4.705   8.623 -0.9628 -1.1048 -0.9831
 2429SOL    HW2 7287   1.569   4.700   8.486  0.3965 -1.6626 -1.6165
 2430SOL     OW 7288   4.531   1.968   7.257  0.0540 -0.1725 -0.1137
 2430SOL    HW1 7289   4.625   1.979   7.243  0.3037 -0.2926  1.3220
 2430SOL    HW2 7290   4.513   2.018   7.337 -0.6874 -1.7848  0.7798
 2431SOL     OW 7291   2.814   1.894   8.358  0.3973 -0.1009 -0.3255
 2431SOL    HW1 7292   2.869   1.883   8.436  0.3633  1.3652 -0.0653
 2431SOL    HW2 7293   2.818   1.809   8.314  0.2459 -1.0374  1.3779
 2432SOL     OW 7294   2.244   3.799   9.696 -0.2270  0.0649 -0.1772
 2432SOL    HW1 7295   2.179   3.736   9.728 -0.0137 -0.4074 -0.6602
 2432SOL    HW2 7296   2.304   3.810   9.770  0.0676 -0.7582 -0.2830
 2433SOL     OW 7297   3.431   2.721   8.754 -0.2569 -0.4155 -0.1854
 2433SOL    HW1 7298   3.398   2.683   8.835 -0.5034 -0.6004 -0.3720
 2433SOL    HW2 7299   3.403   2.813   8.759  1.1309 -0.0146  0.6870
 2434SOL     OW 7300   1.315   1.361   8.565 -0.1998  0.3155  0.3241
 2434SOL    HW1 7301   1.283   1.286   8.514  0.6363  0.3801 -0.3167
 2434SOL    HW2 7302   1.235   1.407   8.592 -0.6575  1.0211 -2.0391
 2435SOL     OW 7303  -0.003   0.271   7.021  0.2770  0.7615  0.2399
 2435SOL    HW1 7304   0.089   0.242   7.024 -0.2392 -1.2744 -1.4762
 2435SOL    HW2 7305  -0.043   0.231   7.099 -0.0302 -1.9517 -1.1949
 2436SOL     OW 7306   4.328   1.951   7.543 -0.1999 -0.1111  0.1774
 2436SOL    HW1 7307   4.411   1.997   7.531 -0.1912 -0.3991 -1.0525
 2436SOL    HW2 7308   4.341   1.867   7.499 -1.2381 -0.0259 -0.3249
 2437SOL     OW 7309   4.373   2.778   9.549  0.0278 -0.8579 -0.4150
 2437SOL    HW1 7310   4.423   2.838   9.605  0.2824 -1.7171  0.3049
 2437SOL    HW2 7311   4.438   2.742   9.489 -0.4833  1.1056 -2.2449
 2438SOL     OW 7312   2.513   3.862   7.619 -0.0863 -0.3936 -0.3919
 2438SOL    HW1 7313   2.420   3.848   7.638 -0.0336  1.1775  1.2705
 2438SOL    HW2 7314   2.520   3.955   7.600  1.4078 -0.0988  1.3534
 2439SOL     OW 7315   1.748   3.874   8.714  0.0408  0.0803 -0.1762
 2439SOL    HW1 7316   1.794   3.821   8.649  0.8878  0.8049 -0.1854
 2439SOL    HW2 7317   1.736   3.959   8.672 -2.7847 -0.5137 -0.8098
 2440SOL     OW 7318   2.631   1.228   7.128  0.4037  0.0354 -0.0234
 2440SOL    HW1 7319   2.652   1.140   7.158  1.6221 -0.4043 -1.9794
 2440SOL    HW2 7320   2.697   1.284   7.169 -0.5807  0.1117  1.4926
 2441SOL     OW 7321   3.036   2.223   7.373 -0.4862  0.3656  0.4754
 2441SOL    HW1 7322   3.090   2.221   7.451 -0.1314  0.0781  0.2267
 2441SOL    HW2 7323   3.049   2.138   7.332  1.0306  1.2612 -1.0222
 2442SOL     OW 7324   2.438   1.849   5.867  0.0772 -0.4482  0.2373
 2442SOL    HW1 7325   2.459   1.776   5.926  0.4647 -1.1459 -0.7420
 2442SOL    HW2 7326   2.467   1.927   5.914 -0.7212 -0.8719  1.4814
 2443SOL     OW 7327   1.684   2.934   8.966  0.0416 -0.6643  0.2023
 2443SOL    HW1 7328   1.698   2.924   8.872 -0.3714 -0.0071  0.0613
 2443SOL    HW2 7329   1.666   3.027   8.978  0.2509 -0.7133  0.9563
 2444SOL     OW 7330   4.018   4.750   7.780  0.4292  0.3520 -0.1578
 2444SOL    HW1 7331   3.980   4.837   7.769  2.0614  1.2826  1.0471
 2444SOL    HW2 7332   4.035   4.720   7.690 -1.4408  0.6363 -0.6368
 2445SOL     OW 7333   2.236   2.038   7.032 -0.1181 -0.3467 -0.6306
 2445SOL    HW1 7334   2.270   1.948   7.034 -0.9338 -0.6670  1.2735
 2445SOL    HW2 7335   2.141   2.027   7.038 -0.2177  0.6346 -0.3232
 2446SOL     OW 7336   0.574   0.816   8.504  0.4146  0.0230 -0.1109
 2446SOL    HW1 7337   0.564   0.873   8.428 -0.1946  0.8951  0.6097
 2446SOL    HW2 7338   0.619   0.870   8.568 -0.9175 -0.0079  0.8835
 2447SOL     OW 7339   2.407   3.149   9.070  0.1266 -0.0116  1.1786
 2447SOL    HW1 7340   2.464   3.071   9.068  0.6815  0.2608 -3.0542
 2447SOL    HW2 7341   2.319   3.114   9.080  0.3899 -1.2338 -0.3931
 2448SOL     OW 7342   3.309   4.867   8.318  0.0182  0.1335 -0.3408
 2448SOL    HW1 7343   3.373   4.889   8.385 -0.0240 -2.0163  0.4926
 2448SOL    HW2 7344   3.281   4.778   8.340 -1.4413  0.0959 -2.1020
 2449SOL     OW 7345   4.018   4.443   9.289  0.2435 -0.3457 -0.3439
 2449SOL    HW1 7346   4.079   4.421   9.218 -0.1029 -0.4408 -0.6152
 2449SOL    HW2 7347   4.072   4.491   9.352  0.5469 -0.2241 -0.6883
 2450SOL     OW 7348   3.059   2.704   6.910 -0.2720 -0.5610 -0.2583
 2450SOL    HW1 7349   3.145   2.741   6.929 -1.0485  1.0284  0.3629
 2450SOL    HW2 7350   3.070   2.610   6.923  1.7109 -0.5727 -1.5931
 2451SOL     OW 7351   3.262   4.471  10.074  0.2274 -0.2129 -0.2158
 2451SOL    HW1 7352   3.232   4.537  10.012  2.7582 -1.9120 -3.5418
 2451SOL    HW2 7353   3.195   4.472  10.144 -1.9263  2.9706 -2.0486
 2452SOL     OW 7354   2.582   3.691   8.849 -0.7552  0.1680  0.0214
 2452SOL    HW1 7355   2.541   3.749   8.785 -1.2989 -1.0377 -0.7508
 2452SOL    HW2 7356   2.598   3.747   8.925 -1.1034  1.3638 -0.7594
 2453SOL     OW 7357   4.518   2.812  10.083  0.1677  0.2796  0.2913
 2453SOL    HW1 7358   4.609   2.826  10.056  0.1859 -0.1266  0.1337
 2453SOL    HW2 7359   4.480   2.900  10.088  0.3243  0.3984 -0.5122
 2454SOL     OW 7360   2.605   2.946   7.431 -0.3203  0.2483  0.4687
 2454SOL    HW1 7361   2.557   3.026   7.408  0.2658  0.4471 -0.0970
 2454SOL    HW2 7362   2.693   2.976   7.454  0.2074 -0.3057 -0.7302
 2455SOL     OW 7363   2.009   3.281   9.130  0.3683 -0.4566  0.0297
 2455SOL    HW1 7364   1.917   3.289   9.154 -0.0305 -1.7742 -0.9908
 2455SOL    HW2 7365   2.035   3.370   9.105 -0.5584 -0.0375  0.5028
 2456SOL     OW 7366   1.798   2.596   7.641  0.3521 -0.1626 -0.3212
 2456SOL    HW1 7367   1.718   2.543   7.648 -1.2468  2.2853  2.5496
 2456SOL    HW2 7368   1.843   2.582   7.724  0.6512  1.7061 -0.1221
 2457SOL     OW 7369   3.907   2.133   8.088  0.2100  0.4416  0.2396
 2457SOL    HW1 7370   3.923   2.136   8.183  0.5427 -0.2023  0.2069
 2457SOL    HW2 7371   3.971   2.194   8.051  0.9057 -0.2128  0.3322
 2458SOL     OW 7372   4.512   2.921   9.795  0.3438  0.0725  0.2599
 2458SOL    HW1 7373   4.589   2.880   9.755  0.2478 -1.0645  1.1752
 2458SOL    HW2 7374   4.531   2.921   9.889 -0.0713  1.3100  0.3546
 2459SOL     OW 7375   1.633   4.064   6.933 -0.1838  0.0430  0.6923
 2459SOL    HW1 7376   1.545   4.092   6.905 -0.8138  0.3588  2.7607
 2459SOL    HW2 7377   1.618   3.981   6.979  0.5040  0.4007  1.5824
 2460SOL     OW 7378   3.440   3.253   8.627 -0.2436  0.4190 -0.3499
 2460SOL    HW1 7379   3.515   3.215   8.581 -0.0931  1.8935 -1.3579
 2460SOL    HW2 7380   3.397   3.177   8.668  1.4795 -0.5220 -0.1730
 2461SOL     OW 7381   3.520   3.681   9.626  0.4204  0.8516 -0.3781
 2461SOL    HW1 7382   3.440   3.711   9.583 -0.6711  0.7947  1.5198
 2461SOL    HW2 7383   3.550   3.757   9.677  0.7649  0.4252  0.0614
 2462SOL     OW 7384   2.740   2.731   6.891  0.1161  0.1494 -0.0102
 2462SOL    HW1 7385   2.804   2.711   6.960  0.1582  1.4801  0.3551
 2462SOL    HW2 7386   2.793   2.767   6.820 -0.1587  0.7875  0.1029
 2463SOL     OW 7387   3.359   4.478   6.537  0.7573  0.1046 -0.2050
 2463SOL    HW1 7388   3.372   4.390   6.502  0.1281 -0.3338  0.6252
 2463SOL    HW2 7389   3.267   4.497   6.520  0.9163  0.6581 -0.4793
 2464SOL     OW 7390   1.162   2.789   6.954 -0.5917 -0.0046 -0.2505
 2464SOL    HW1 7391   1.252   2.777   6.984 -0.3716 -0.4085 -1.0362
 2464SOL    HW2 7392   1.168   2.788   6.859 -1.3535  0.5823 -0.3146
 2465SOL     OW 7393   0.916   1.930   7.382  0.1849 -0.5817 -0.6182
 2465SOL    HW1 7394   0.961   1.942   7.465  0.8459 -2.0279 -0.7490
 2465SOL    HW2 7395   0.976   1.967   7.317 -0.9387  1.8731 -0.3932
 2466SOL     OW 7396   1.284   0.109  10.009  0.0608 -0.1053  0.4587
 2466SOL    HW1 7397   1.367   0.077   9.974  0.1761  0.4508  0.2177
 2466SOL    HW2 7398   1.253   0.038  10.066  1.3014  0.1939  1.5408
 2467SOL     OW 7399   3.561   3.792   7.778  0.0062 -0.6823  0.1528
 2467SOL    HW1 7400   3.621   3.847   7.830  1.1105 -1.2622 -0.4733
 2467SOL    HW2 7401   3.508   3.747   7.843  0.6419 -0.5832  0.7573
 2468SOL     OW 7402   3.367   1.469   8.115  0.5278 -0.0781 -0.5840
 2468SOL    HW1 7403   3.357   1.474   8.210  0.7248 -0.0086 -0.5660
 2468SOL    HW2 7404   3.398   1.380   8.098  1.5323  0.2470 -0.4883
 2469SOL     OW 7405   4.894   3.002   9.957 -0.0287 -0.1631  0.3328
 2469SOL    HW1 7406   4.829   3.071   9.955 -0.9537 -1.0191  0.0882
 2469SOL    HW2 7407   4.951   3.020   9.882 -1.2103 -0.5448 -0.6927
 2470SOL     OW 7408   1.789   0.876   8.344  0.0857 -0.3688  0.0911
 2470SOL    HW1 7409   1.873   0.896   8.386  0.5299 -0.6050 -0.6713
 2470SOL    HW2 7410   1.739   0.957   8.350  0.2159 -0.3384  0.8951
 2471SOL     OW 7411   2.912   4.979   5.545  0.9501 -0.3703  0.3174
 2471SOL    HW1 7412   2.968   4.939   5.612  2.4631 -1.6058 -1.5746
 2471SOL    HW2 7413   2.878   4.904   5.496  1.5349  0.5473 -1.5411
 2472SOL     OW 7414   3.408   0.691   6.962 -0.1312 -0.5425 -0.2787
 2472SOL    HW1 7415   3.412   0.735   7.047 -0.8949 -1.8191  0.4572
 2472SOL    HW2 7416   3.318   0.703   6.932 -0.3227 -1.4602 -0.1190
 2473SOL     OW 7417   4.433   4.662   6.881  0.2503 -0.3859 -0.1164
 2473SOL    HW1 7418   4.398   4.702   6.801  1.8407  0.6160 -0.3646
 2473SOL    HW2 7419   4.527   4.654   6.864  0.8014  0.7221  1.9821
 2474SOL     OW 7420   4.403   3.157   7.655 -0.2862  0.3102 -0.6676
 2474SOL    HW1 7421   4.385   3.251   7.648 -0.7170  0.2796 -0.0240
 2474SOL    HW2 7422   4.486   3.153   7.703 -0.7102  0.3425  0.0747
 2475SOL     OW 7423   1.105   2.773   8.655  0.0120 -0.3591  0.5893
 2475SOL    HW1 7424   1.054   2.710   8.705 -0.2254 -0.8981 -0.3033
 2475SOL    HW2 7425   1.161   2.816   8.720  0.1420 -1.4453  1.2250
 2476SOL     OW 7426   4.089   3.488   8.423  0.2232  0.2643  0.0573
 2476SOL    HW1 7427   3.996   3.487   8.400  0.8741  1.9609 -3.3958
 2476SOL    HW2 7428   4.091   3.503   8.517 -2.9612 -1.2730  0.4874
 2477SOL     OW 7429   0.307   3.068   8.161  0.2321 -0.6062 -0.0503
 2477SOL    HW1 7430   0.334   3.042   8.073  1.6532 -0.9270  0.4471
 2477SOL    HW2 7431   0.212   3.062   8.160  0.2409 -0.8705 -1.4743
 2478SOL     OW 7432   4.220   2.518   7.775  0.3808 -0.2452  0.0135
 2478SOL    HW1 7433   4.177   2.603   7.780  1.0169  0.3873 -3.0185
 2478SOL    HW2 7434   4.212   2.493   7.683  1.6221 -2.7200  0.4913
 2479SOL     OW 7435   4.084   3.304   8.165  0.4709 -0.4248  0.1679
 2479SOL    HW1 7436   4.063   3.213   8.188 -0.1707 -0.1778  0.6046
 2479SOL    HW2 7437   4.067   3.353   8.246  3.3049 -0.2480  0.7557
 2480SOL     OW 7438   3.094   2.499   7.710 -0.0710  0.1785 -0.1858
 2480SOL    HW1 7439   3.112   2.551   7.788 -1.6199  3.2384 -1.6711
 2480SOL    HW2 7440   3.023   2.440   7.737  0.4750  0.0717  1.0924
 2481SOL     OW 7441   3.686   3.564   7.253  0.2341 -0.4031 -0.6884
 2481SOL    HW1 7442   3.624   3.527   7.317  1.7611 -0.8319  0.6111
 2481SOL    HW2 7443   3.722   3.641   7.298 -0.5336  0.8105 -2.0866
 2482SOL     OW 7444   4.494   3.124   9.019 -0.3859  0.2467 -0.4211
 2482SOL    HW1 7445   4.446   3.185   9.076  0.0302 -0.0568  0.2780
 2482SOL    HW2 7446   4.436   3.048   9.011 -1.3337  1.0908 -2.0930
 2483SOL     OW 7447   2.421   3.232   8.812 -0.5509 -0.2508 -0.1832
 2483SOL    HW1 7448   2.395   3.154   8.763 -2.8113 -0.0110  0.5352
 2483SOL    HW2 7449   2.397   3.212   8.903  0.7206  0.5265  0.3606
 2484SOL     OW 7450   1.292   1.412   6.060  0.0890 -0.0558  0.5096
 2484SOL    HW1 7451   1.260   1.440   6.146  0.5119 -0.1891  0.7139
 2484SOL    HW2 7452   1.382   1.445   6.056  0.0342  0.0542  0.0651
 2485SOL     OW 7453   3.501   2.447   9.210  0.4894 -0.1231  0.1144
 2485SOL    HW1 7454   3.427   2.458   9.269 -1.0945 -3.0135 -1.1184
 2485SOL    HW2 7455   3.469   2.479   9.126  0.2156 -2.1821 -0.6295
 2486SOL     OW 7456   0.652   1.855   7.544 -0.1114 -0.0902  0.6809
 2486SOL    HW1 7457   0.600   1.905   7.481 -0.1113 -2.4118 -1.2826
 2486SOL    HW2 7458   0.731   1.831   7.496  2.1192  1.9026  3.0659
 2487SOL     OW 7459   3.759   3.924   7.912 -0.0263 -0.0970  1.0634
 2487SOL    HW1 7460   3.847   3.889   7.923  0.2638  0.9038  2.0740
 2487SOL    HW2 7461   3.772   4.011   7.874 -0.5769  0.0237  1.1397
 2488SOL     OW 7462   3.252   3.870   7.619 -0.0976 -0.4779 -0.1054
 2488SOL    HW1 7463   3.238   3.861   7.713 -0.5642  0.8904 -0.0318
 2488SOL    HW2 7464   3.340   3.907   7.611  0.2235 -1.2392 -0.2548
 2489SOL     OW 7465   4.896   3.392   7.746  0.4719  0.2438  0.4340
 2489SOL    HW1 7466   4.881   3.486   7.738  1.0161  0.2535 -0.6650
 2489SOL    HW2 7467   4.814   3.352   7.719  0.3513  0.3989  0.5707
 2490SOL     OW 7468   0.977   1.409   7.072 -0.4662 -0.1081 -0.2330
 2490SOL    HW1 7469   0.884   1.430   7.070 -0.5399 -0.5033 -2.3485
 2490SOL    HW2 7470   0.981   1.325   7.119 -1.3302 -0.7494 -1.2649
 2491SOL     OW 7471   3.891   3.821  10.213  0.0804  0.1802  0.2615
 2491SOL    HW1 7472   3.901   3.904  10.168 -0.4889  0.7317  1.1151
 2491SOL    HW2 7473   3.817   3.835  10.272  2.4296  0.4383  3.4006
 2492SOL     OW 7474   4.919   1.585   9.349  0.2787  0.2120 -0.3388
 2492SOL    HW1 7475   4.898   1.611   9.259 -0.2456 -1.5549 -0.7803
 2492SOL    HW2 7476   5.015   1.577   9.350  0.3688  1.1995 -0.4421
 2493SOL     OW 7477   3.159   1.625   7.120 -0.1907  0.5461  0.3560
 2493SOL    HW1 7478   3.221   1.684   7.079 -0.7094  0.6964 -0.2214
 2493SOL    HW2 7479   3.074   1.666   7.107 -0.8472 -1.3247 -2.0096
 2494SOL     OW 7480   3.714   1.953   8.855  0.4870 -0.0741 -0.1934
 2494SOL    HW1 7481   3.666   1.915   8.928 -0.5809  1.6578  0.0770
 2494SOL    HW2 7482   3.761   2.028   8.893  1.5646 -0.3543 -0.9095
 2495SOL     OW 7483   0.219   2.450   7.101 -0.4356 -0.1803  0.3312
 2495SOL    HW1 7484   0.157   2.428   7.032  0.8027 -1.2941 -0.4719
 2495SOL    HW2 7485   0.301   2.408   7.075  1.0141  2.1501  0.7623
 2496SOL     OW 7486   4.326   1.756   7.354  0.2754 -0.6070 -0.3786
 2496SOL    HW1 7487   4.385   1.820   7.314 -0.5119  0.3562 -0.0398
 2496SOL    HW2 7488   4.294   1.704   7.281 -0.6739  0.7417 -0.9590
 2497SOL     OW 7489   2.982   2.971   7.804  0.1805 -0.2478  0.4519
 2497SOL    HW1 7490   3.029   2.998   7.725  0.1775 -0.2653  0.4442
 2497SOL    HW2 7491   3.046   2.921   7.854  0.2349 -0.0906  0.5412
 2498SOL     OW 7492   4.336   4.707   5.949  0.4014  0.4148 -0.1041
 2498SOL    HW1 7493   4.272   4.637   5.948  1.8132 -0.9666  1.0277
 2498SOL    HW2 7494   4.314   4.761   5.873  0.0163 -1.9321 -1.7665
 2499SOL     OW 7495   1.457   0.393   7.528 -0.5931 -0.4485  0.1673
 2499SOL    HW1 7496   1.511   0.329   7.573  0.6909 -0.6475 -1.5695
 2499SOL    HW2 7497   1.457   0.365   7.436 -2.2796  0.4963 -0.1686
 2500SOL     OW 7498   2.762   2.115   8.660 -0.4155  0.5013  0.1085
 2500SOL    HW1 7499   2.746   2.164   8.740 -0.9942 -0.9073  0.8800
 2500SOL    HW2 7500   2.795   2.030   8.689 -3.7433 -1.3206 -0.9077
 2501SOL     OW 7501   2.390   1.947   9.115 -0.6006  0.2173  0.2717
 2501SOL    HW1 7502   2.323   1.920   9.052 -0.1030 -0.3612 -0.0283
 2501SOL    HW2 7503   2.379   1.887   9.189 -0.0450 -0.2700 -0.0294
 2502SOL     OW 7504   4.452   0.524   8.337 -0.1462  0.0836 -0.2488
 2502SOL    HW1 7505   4.524   0.574   8.377 -0.2275 -0.5540  0.7084
 2502SOL    HW2 7506   4.477   0.517   8.245  1.4592 -0.8337  0.2147
 2503SOL     OW 7507   1.488   0.028   9.859  0.0629  0.1050  0.0435
 2503SOL    HW1 7508   1.466   0.097   9.796  0.3311 -0.4013 -0.6235
 2503SOL    HW2 7509   1.554  -0.024   9.814  1.3117  0.5570  1.3112
 2504SOL     OW 7510   3.085   3.644   8.601 -0.2396 -0.1252  0.3631
 2504SOL    HW1 7511   3.163   3.688   8.635 -1.0344  0.6020  1.3017
 2504SOL    HW2 7512   3.106   3.626   8.510  0.1463  2.1893 -0.0622
 2505SOL     OW 7513   1.404   4.649   8.424  0.7283 -0.1156  0.2660
 2505SOL    HW1 7514   1.372   4.621   8.338  1.5666 -1.0654  0.2449
 2505SOL    HW2 7515   1.385   4.575   8.481  0.5833  0.3345  0.8071
 2506SOL     OW 7516   3.910   1.056   6.690 -0.1216 -0.0141 -0.0237
 2506SOL    HW1 7517   3.961   1.084   6.765  1.5341  0.2116 -1.1772
 2506SOL    HW2 7518   3.947   1.104   6.616 -2.4636  0.6815 -0.8546
 2507SOL     OW 7519   2.012   1.586   5.528  0.3663 -0.0863 -0.3807
 2507SOL    HW1 7520   2.030   1.572   5.621 -2.1597 -0.7350  0.0728
 2507SOL    HW2 7521   2.096   1.570   5.485  0.9800 -2.5783  1.5157
 2508SOL     OW 7522   0.728   2.656   9.557  0.4728 -0.5781  0.4641
 2508SOL    HW1 7523   0.668   2.600   9.607  1.6019 -0.9210  1.4919
 2508SOL    HW2 7524   0.814   2.619   9.574  0.9743 -0.1512 -1.0662
 2509SOL     OW 7525   2.505   2.730   9.106 -0.5692 -0.1551  0.0584
 2509SOL    HW1 7526   2.540   2.648   9.141  0.6153  0.5412  0.5914
 2509SOL    HW2 7527   2.411   2.725   9.121 -0.2022 -0.1020  2.9870
 2510SOL     OW 7528   4.927   4.373   8.257 -0.0738 -0.1315  0.1089
 2510SOL    HW1 7529   4.887   4.457   8.233 -0.9173 -0.7181 -0.5968
 2510SOL    HW2 7530   4.861   4.329   8.310  0.0128 -0.7077 -0.2514
 2511SOL     OW 7531   3.421   4.620   8.805  0.2412  0.4117 -0.3641
 2511SOL    HW1 7532   3.458   4.662   8.728 -1.5714  1.3198 -0.8030
 2511SOL    HW2 7533   3.366   4.549   8.771 -0.3637  0.6459  0.0946
 2512SOL     OW 7534   1.981   1.697   7.975  0.2485 -0.1621  0.0194
 2512SOL    HW1 7535   2.001   1.767   7.912  1.5353 -0.9590 -0.5097
 2512SOL    HW2 7536   1.916   1.643   7.931  0.0225  0.1290 -0.0032
 2513SOL     OW 7537   3.745   3.279   8.521 -0.6382 -0.0426  0.1875
 2513SOL    HW1 7538   3.733   3.184   8.521  0.3140 -0.2026 -1.1951
 2513SOL    HW2 7539   3.679   3.312   8.460 -1.1506  0.2247  0.8771
 2514SOL     OW 7540   2.760   4.676   8.492  0.8002  0.8753  0.0879
 2514SOL    HW1 7541   2.770   4.603   8.431 -3.2100  1.0803 -1.1253
 2514SOL    HW2 7542   2.757   4.753   8.436  1.4574  1.5926  1.0173
 2515SOL     OW 7543   2.782   1.914   6.098  0.0122  0.7758  0.3979
 2515SOL    HW1 7544   2.745   1.946   6.015 -0.2429  1.7974  0.8875
 2515SOL    HW2 7545   2.874   1.943   6.095  0.1523  0.3223  0.2310
 2516SOL     OW 7546   3.514   3.532   7.979  0.1520 -0.4724  0.2667
 2516SOL    HW1 7547   3.510   3.464   7.911  1.3054  1.4589 -1.8841
 2516SOL    HW2 7548   3.426   3.535   8.015 -0.4727 -1.7228 -1.0251
 2517SOL     OW 7549   4.129   2.869   6.918 -0.1168 -0.5388 -0.3009
 2517SOL    HW1 7550   4.215   2.895   6.951 -1.1534 -0.4757  2.6402
 2517SOL    HW2 7551   4.138   2.775   6.901  0.0212 -1.0142  2.0714
 2518SOL     OW 7552   2.418   2.702   6.980  0.1222 -0.5422 -0.5180
 2518SOL    HW1 7553   2.511   2.687   6.995 -0.0909  0.8986  3.2046
 2518SOL    HW2 7554   2.378   2.616   6.985  1.1219 -1.0662 -1.2559
 2519SOL     OW 7555   1.763   4.161   7.360  0.0998  0.6320  0.6378
 2519SOL    HW1 7556   1.808   4.245   7.354 -0.1879  0.9880  2.7354
 2519SOL    HW2 7557   1.693   4.175   7.424  0.3322 -1.3100  1.4009
 2520SOL     OW 7558   2.972   3.635   9.288 -0.3502 -0.0768  0.1795
 2520SOL    HW1 7559   2.903   3.635   9.221 -0.6140 -0.6756  0.4399
 2520SOL    HW2 7560   3.026   3.559   9.267 -0.0679  0.0948  0.2802
 2521SOL     OW 7561   2.803   2.182   8.141  0.8035  0.2767 -0.2001
 2521SOL    HW1 7562   2.834   2.178   8.232  0.6416 -0.1006 -0.1579
 2521SOL    HW2 7563   2.859   2.121   8.094 -0.1747 -0.7994 -0.0231
 2522SOL     OW 7564   3.011   3.874   9.432  0.2101 -0.0150  0.7969
 2522SOL    HW1 7565   2.960   3.798   9.404  1.5000 -1.4099  2.0585
 2522SOL    HW2 7566   3.098   3.860   9.394  0.8103  0.1689  2.0559
 2523SOL     OW 7567   3.849   3.994   9.510  0.2631  0.1168 -0.4805
 2523SOL    HW1 7568   3.762   4.021   9.538  0.5614 -0.0052  0.5803
 2523SOL    HW2 7569   3.907   4.066   9.536  0.4693  0.2629 -1.3072
 2524SOL     OW 7570   3.375   2.771   7.758 -0.0223 -0.2925  0.7013
 2524SOL    HW1 7571   3.445   2.803   7.815 -0.2140 -0.1241  0.8408
 2524SOL    HW2 7572   3.308   2.839   7.761  0.9407  0.8917 -1.5755
 2525SOL     OW 7573   3.958   3.908   8.904 -0.2925  0.0899 -0.4744
 2525SOL    HW1 7574   3.935   3.926   8.813  1.5596 -0.2641 -1.0646
 2525SOL    HW2 7575   4.053   3.923   8.908  0.2769 -3.1157  0.5723
 2526SOL     OW 7576   3.996   1.588   8.872 -0.6508 -0.3231  0.0319
 2526SOL    HW1 7577   4.040   1.673   8.876  0.2702 -0.8108  0.4658
 2526SOL    HW2 7578   3.950   1.589   8.788  0.7517 -0.0645 -0.7657
 2527SOL     OW 7579   3.212   2.604   8.305  0.4336  0.1946 -0.3672
 2527SOL    HW1 7580   3.155   2.527   8.317  0.3976  0.2956  0.1372
 2527SOL    HW2 7581   3.152   2.678   8.304  0.5561  0.3089  0.2506
 2528SOL     OW 7582   2.322   2.014   5.466 -0.3513 -0.0958 -0.1960
 2528SOL    HW1 7583   2.337   2.106   5.444  0.9820 -0.0926  0.6456
 2528SOL    HW2 7584   2.226   2.006   5.469 -0.4876  1.2675 -0.2307
 2529SOL     OW 7585   2.512   4.645   8.232  0.8803  0.2453  0.1581
 2529SOL    HW1 7586   2.510   4.723   8.176  0.6358 -0.7723 -1.2972
 2529SOL    HW2 7587   2.592   4.599   8.206 -0.0374 -1.0303 -0.4973
 2530SOL     OW 7588   2.588   1.879   8.530  0.2945 -0.3784 -0.0339
 2530SOL    HW1 7589   2.595   1.798   8.582 -1.4252 -1.2260 -1.0379
 2530SOL    HW2 7590   2.674   1.887   8.488  0.3561 -1.9675 -0.2831
 2531SOL     OW 7591   1.072   0.199   8.794 -0.4849 -0.3862 -0.0562
 2531SOL    HW1 7592   1.031   0.113   8.800  1.1149 -1.1427  0.2755
 2531SOL    HW2 7593   1.126   0.194   8.715 -0.1105  0.2035  0.1589
 2532SOL     OW 7594   2.805   1.892   9.242 -0.0378  0.1040  0.6411
 2532SOL    HW1 7595   2.876   1.830   9.228 -0.5564 -0.1192 -1.2627
 2532SOL    HW2 7596   2.795   1.936   9.158 -1.5574  0.7607  1.1356
 2533SOL     OW 7597   4.646   4.120   8.999  0.4347 -0.5184  0.0932
 2533SOL    HW1 7598   4.587   4.114   8.923 -0.5143 -0.8479  0.8265
 2533SOL    HW2 7599   4.673   4.212   9.000 -2.0376  0.3008  1.1171
 2534SOL     OW 7600   0.612   3.562   9.481 -0.2111 -0.3716 -0.0103
 2534SOL    HW1 7601   0.566   3.477   9.482  0.5072 -0.7680 -0.0124
 2534SOL    HW2 7602   0.557   3.618   9.425 -0.1693 -1.1417 -0.8582
 2535SOL     OW 7603   3.578   2.324   9.955 -0.4540  0.2851 -0.1811
 2535SOL    HW1 7604   3.561   2.323  10.049 -0.2804  0.2952 -0.1484
 2535SOL    HW2 7605   3.659   2.374   9.946 -0.1543 -0.2095 -0.2806
 2536SOL     OW 7606   4.594   3.512   7.061  0.3684  0.6289  0.0668
 2536SOL    HW1 7607   4.629   3.580   7.119 -2.1211  0.0277  2.4961
 2536SOL    HW2 7608   4.645   3.434   7.083  0.1860  0.6716  0.6696
 2537SOL     OW 7609   3.146   4.216   9.689  0.4107  0.8472 -0.0391
 2537SOL    HW1 7610   3.205   4.289   9.672  1.1754 -0.1130 -1.6578
 2537SOL    HW2 7611   3.202   4.140   9.695 -0.3314  0.3820  2.0726
 2538SOL     OW 7612   4.621   4.111   7.820 -0.5929  0.4094 -0.5622
 2538SOL    HW1 7613   4.612   4.181   7.755  1.1044  1.4290  0.2455
 2538SOL    HW2 7614   4.667   4.152   7.893 -1.5425 -0.9884  0.8785
 2539SOL     OW 7615   3.988   3.886   8.236  0.2502  0.1633  0.0616
 2539SOL    HW1 7616   4.035   3.931   8.166 -0.9155  0.8030 -0.3405
 2539SOL    HW2 7617   3.938   3.955   8.280 -0.8923 -0.5761 -0.0155
 2540SOL     OW 7618   2.891   0.098   9.914 -0.2838  0.1001  0.0853
 2540SOL    HW1 7619   2.829   0.088   9.986  0.7402 -2.5516  0.7180
 2540SOL    HW2 7620   2.969   0.051   9.942  1.1184  1.1521 -1.7434
 2541SOL     OW 7621   1.448   4.114   7.735 -0.0489  0.3149  0.0259
 2541SOL    HW1 7622   1.359   4.095   7.707  0.4339  0.3151 -1.6367
 2541SOL    HW2 7623   1.488   4.028   7.750 -0.0768  0.2829 -0.0847
 2542SOL     OW 7624   2.310   4.600   9.356  0.1772  0.0426  0.1777
 2542SOL    HW1 7625   2.248   4.534   9.387  1.3798 -1.0127  0.4550
 2542SOL    HW2 7626   2.379   4.601   9.422  1.1742  0.1067 -0.8183
 2543SOL     OW 7627   4.564   3.346   8.222  0.3116 -0.6758  0.3829
 2543SOL    HW1 7628   4.607   3.420   8.265  0.2447 -0.9805  0.9912
 2543SOL    HW2 7629   4.589   3.354   8.130  0.2291  0.1526  0.4214
 2544SOL     OW 7630   2.370   3.250   9.855  0.0705  0.7164  0.5137
 2544SOL    HW1 7631   2.375   3.160   9.821 -0.3251  1.0810 -0.5607
 2544SOL    HW2 7632   2.461   3.277   9.865  0.2685  1.0582 -1.6071
 2545SOL     OW 7633   4.320   3.332   8.397 -0.1098  0.2695  0.7517
 2545SOL    HW1 7634   4.382   3.390   8.353  1.5180 -0.4273  2.0440
 2545SOL    HW2 7635   4.235   3.373   8.381  0.6589  1.3188 -0.9780
 2546SOL     OW 7636   1.287   1.456   9.100  0.0093  0.3754  0.2339
 2546SOL    HW1 7637   1.201   1.488   9.129  0.9768  1.1526  2.5291
 2546SOL    HW2 7638   1.329   1.533   9.063  0.1820  0.3237  0.3222
 2547SOL     OW 7639   0.488   2.012   6.811 -0.2775 -0.3592  0.3387
 2547SOL    HW1 7640   0.553   1.951   6.844  0.1144 -0.1078  0.0389
 2547SOL    HW2 7641   0.415   1.956   6.784 -0.4677 -0.5900  1.2928
 2548SOL     OW 7642   2.304   0.105   9.230 -0.4985  0.3460 -0.0423
 2548SOL    HW1 7643   2.356   0.076   9.305 -2.2291 -0.5142  0.8672
 2548SOL    HW2 7644   2.346   0.187   9.203 -0.7471  1.5582  2.8843
 2549SOL     OW 7645   1.315   2.870   8.795 -0.0340  0.5955 -0.6607
 2549SOL    HW1 7646   1.383   2.819   8.838 -1.4805 -0.8951 -0.0075
 2549SOL    HW2 7647   1.324   2.958   8.831  0.5180  0.0339  0.6510
 2550SOL     OW 7648   2.058   3.645   9.826 -0.4813  1.3262 -0.6760
 2550SOL    HW1 7649   2.085   3.580   9.891 -0.7716  0.2433 -1.6131
 2550SOL    HW2 7650   1.975   3.680   9.860  0.0769  1.8087  0.2275
 2551SOL     OW 7651   4.432   3.333   9.169  0.1166 -0.0438 -0.0118
 2551SOL    HW1 7652   4.469   3.309   9.253  1.4010  0.5960 -0.3752
 2551SOL    HW2 7653   4.396   3.420   9.182 -0.4755 -0.3007  0.1006
 2552SOL     OW 7654   3.974   3.293   9.318 -0.0569 -0.9658  0.0980
 2552SOL    HW1 7655   4.049   3.235   9.332 -0.5164 -1.9895 -1.4179
 2552SOL    HW2 7656   3.900   3.233   9.306 -0.9565  0.0073  0.6335
 2553SOL     OW 7657   4.797   0.472   9.999 -0.3729 -0.2223  0.1758
 2553SOL    HW1 7658   4.865   0.512  10.054 -0.9402 -0.2510  0.9031
 2553SOL    HW2 7659   4.790   0.382  10.030  1.6587 -1.3177 -2.1533
 2554SOL     OW 7660   2.711   4.995   8.105 -0.5758 -0.1391 -0.4315
 2554SOL    HW1 7661   2.660   4.923   8.067 -0.9209 -0.0493 -0.1410
 2554SOL    HW2 7662   2.700   4.985   8.200 -1.6169  0.9995 -0.4130
 2555SOL     OW 7663   1.372   0.520   9.880  0.4470 -0.0470  0.0195
 2555SOL    HW1 7664   1.436   0.514   9.951  0.2747 -0.1055  0.1705
 2555SOL    HW2 7665   1.295   0.475   9.914  0.0558  0.7086  0.1462
 2556SOL     OW 7666   4.278   1.558   8.738 -0.0359  0.4968 -0.0556
 2556SOL    HW1 7667   4.293   1.465   8.726 -0.0396  0.7139 -2.0973
 2556SOL    HW2 7668   4.221   1.563   8.815 -1.8163 -1.3530 -1.1537
 2557SOL     OW 7669   3.919   4.151   7.590 -0.0759  0.2290  0.1676
 2557SOL    HW1 7670   3.928   4.243   7.564  0.4926 -0.0973 -0.8278
 2557SOL    HW2 7671   3.906   4.155   7.685  1.7369  1.2540  0.4294
 2558SOL     OW 7672   0.594   2.840   8.838 -0.3957  0.6325  0.4199
 2558SOL    HW1 7673   0.639   2.847   8.923  1.5522  0.6749 -0.5516
 2558SOL    HW2 7674   0.531   2.912   8.838 -2.2680 -0.8283  2.8022
 2559SOL     OW 7675   2.793   3.124   8.404 -0.0535  0.1641 -0.2610
 2559SOL    HW1 7676   2.865   3.096   8.348 -0.4460 -0.9735 -0.2441
 2559SOL    HW2 7677   2.816   3.212   8.432  1.9339 -0.5970  0.7384
 2560SOL     OW 7678   4.026   3.045   8.203 -0.0224 -0.1413 -0.0592
 2560SOL    HW1 7679   3.959   3.021   8.267  2.9804 -2.4959  2.4886
 2560SOL    HW2 7680   4.014   2.983   8.131  0.4698 -1.7638  1.2096
 2561SOL     OW 7681   1.783   0.377   9.460 -0.2619 -0.1890  0.3557
 2561SOL    HW1 7682   1.851   0.429   9.417 -1.4278  1.0257 -0.0987
 2561SOL    HW2 7683   1.826   0.295   9.484  1.1741  0.2870 -0.5095
 2562SOL     OW 7684   3.332   0.029   9.127 -0.2587 -0.2333 -0.2577
 2562SOL    HW1 7685   3.300  -0.060   9.115  0.7410 -0.7461  0.6521
 2562SOL    HW2 7686   3.286   0.081   9.062  1.1127 -1.8942 -2.6914
 2563SOL     OW 7687   1.763   4.087   9.825  0.6221 -0.8844  0.6785
 2563SOL    HW1 7688   1.761   3.998   9.789 -0.2899 -0.5744 -0.0703
 2563SOL    HW2 7689   1.798   4.141   9.754 -0.9471 -0.3109  0.2988
 2564SOL     OW 7690   3.439   0.262   9.311  0.5332 -0.0108 -0.1235
 2564SOL    HW1 7691   3.501   0.189   9.307  0.6279  0.0871 -0.4840
 2564SOL    HW2 7692   3.445   0.303   9.225  2.3479  1.9775  0.8658
 2565SOL     OW 7693   1.246   3.111   9.661 -0.1349 -0.7335  0.1709
 2565SOL    HW1 7694   1.155   3.084   9.647 -0.4096  0.7093 -1.1417
 2565SOL    HW2 7695   1.242   3.172   9.735 -0.3911  0.0023 -0.4372
 2566SOL     OW 7696   0.870   3.529   8.430  1.1459 -0.3316  0.3828
 2566SOL    HW1 7697   0.832   3.517   8.343  2.7643  0.7138 -0.5178
 2566SOL    HW2 7698   0.957   3.489   8.424  1.1346 -0.5975  1.6638
 2567SOL     OW 7699   4.402   3.596   8.114  0.1565 -0.0399  0.3771
 2567SOL    HW1 7700   4.313   3.625   8.136  0.9149  0.7910  2.6772
 2567SOL    HW2 7701   4.392   3.504   8.090 -1.5305  0.4901 -1.2474
 2568SOL     OW 7702   2.956   1.470   9.641 -0.1024 -0.5491 -0.3846
 2568SOL    HW1 7703   3.048   1.494   9.644  0.2485 -1.6915 -1.1328
 2568SOL    HW2 7704   2.915   1.539   9.589  0.2130  0.2897  0.4728
 2569SOL     OW 7705   0.167   2.055   8.570 -0.5569 -0.3886 -0.6616
 2569SOL    HW1 7706   0.122   2.028   8.490 -0.9300 -0.6830 -0.3495
 2569SOL    HW2 7707   0.116   2.129   8.603 -1.3237 -1.2720  0.1651
 2570SOL     OW 7708   1.752   0.738   8.097 -0.2984 -0.2644  0.1020
 2570SOL    HW1 7709   1.699   0.659   8.109 -2.4559  1.0632 -0.1298
 2570SOL    HW2 7710   1.773   0.766   8.186 -0.2477 -0.6248  0.2071
 2571SOL     OW 7711   0.533   1.641   6.425  0.7695 -0.1447  0.9348
 2571SOL    HW1 7712   0.589   1.566   6.404 -1.2656 -1.7339  0.7476
 2571SOL    HW2 7713   0.530   1.643   6.520 -1.5397 -2.3864  1.0469
 2572SOL     OW 7714   2.833   4.001   8.604  0.0879 -0.4540 -0.3828
 2572SOL    HW1 7715   2.814   3.920   8.650  1.5674 -0.8933 -0.4979
 2572SOL    HW2 7716   2.921   3.989   8.567 -0.1592  0.7213 -1.4621
 2573SOL     OW 7717   2.999   3.807   9.009  0.5903 -0.1679  0.6607
 2573SOL    HW1 7718   2.935   3.736   8.999  0.5071  0.1466 -1.7499
 2573SOL    HW2 7719   2.961   3.863   9.076 -0.4860 -1.2260  0.9859
 2574SOL     OW 7720   0.226   0.967   9.610 -0.3635 -0.0849 -0.8073
 2574SOL    HW1 7721   0.200   0.928   9.694  1.2552  0.8310  0.1802
 2574SOL    HW2 7722   0.171   1.045   9.603 -0.3613 -0.0489 -0.4759
 2575SOL     OW 7723   3.829   4.902   9.505  0.5357  0.6085 -0.0586
 2575SOL    HW1 7724   3.894   4.946   9.559 -1.1334  0.9129  1.8606
 2575SOL    HW2 7725   3.746   4.917   9.551 -0.6658 -1.1507 -1.4898
 2576SOL     OW 7726   3.467   4.079  10.160  0.3863 -0.0718  0.0561
 2576SOL    HW1 7727   3.530   4.034  10.104  1.1216 -0.6439  1.2874
 2576SOL    HW2 7728   3.395   4.102  10.102  0.9450 -0.9741 -1.0380
 2577SOL     OW 7729   1.889   4.266   9.982  0.3709  0.3294 -0.1768
 2577SOL    HW1 7730   1.944   4.213  10.041  1.3699  1.4325 -0.0704
 2577SOL    HW2 7731   1.834   4.203   9.938  1.1027 -0.7475  0.3928
 2578SOL     OW 7732   3.316   2.809   6.903 -0.1138 -0.0733 -0.2381
 2578SOL    HW1 7733   3.324   2.734   6.844 -0.3428 -1.2292  1.1552
 2578SOL    HW2 7734   3.393   2.863   6.883 -0.3756 -0.2373 -1.8256
 2579SOL     OW 7735   2.939   3.848   9.886 -0.2634  0.6938 -0.4917
 2579SOL    HW1 7736   2.894   3.878   9.807  0.3397  1.0802 -0.7011
 2579SOL    HW2 7737   3.032   3.865   9.868 -0.0497  0.0651 -0.0083
 2580SOL     OW 7738   3.338   3.215   9.395  0.1790 -0.2470  0.0505
 2580SOL    HW1 7739   3.395   3.292   9.392 -0.1493 -0.0293 -0.8961
 2580SOL    HW2 7740   3.290   3.224   9.478  0.0748  0.6178 -0.0898
 2581SOL     OW 7741   3.040   2.539   8.586 -0.1491 -0.0713 -0.3424
 2581SOL    HW1 7742   3.077   2.460   8.625 -1.1529 -0.4725 -0.1522
 2581SOL    HW2 7743   2.967   2.507   8.533  0.3406  0.5998 -1.4555
 2582SOL     OW 7744   1.776   4.964   9.732  0.2951  0.1669 -0.3866
 2582SOL    HW1 7745   1.750   4.880   9.770  0.8248  0.7971  1.4696
 2582SOL    HW2 7746   1.778   4.948   9.637 -0.5893 -1.6161 -0.1411
 2583SOL     OW 7747   4.011   0.674   9.431  0.2236 -0.6438  0.1021
 2583SOL    HW1 7748   4.078   0.731   9.395 -0.1835  0.1787  0.6078
 2583SOL    HW2 7749   3.996   0.608   9.364 -0.4474  0.7876 -1.2113
 2584SOL     OW 7750   1.883   1.706   8.232  0.3348 -0.6441  0.0809
 2584SOL    HW1 7751   1.905   1.776   8.292  1.9523 -1.5517  0.6005
 2584SOL    HW2 7752   1.933   1.726   8.152 -0.0288 -0.6525 -0.1521
 2585SOL     OW 7753   3.337   3.629   9.854  0.7879 -0.9532  0.2444
 2585SOL    HW1 7754   3.290   3.705   9.820 -0.6094 -1.5147  0.8469
 2585SOL    HW2 7755   3.412   3.619   9.795  0.5454  0.3889 -0.3287
 2586SOL     OW 7756   2.551   3.918   8.663  0.1729  0.1625  0.0193
 2586SOL    HW1 7757   2.549   4.012   8.681  1.0272  0.6071 -1.9451
 2586SOL    HW2 7758   2.602   3.910   8.583  0.4374 -2.0326  0.3454
 2587SOL     OW 7759   2.817   3.665   9.555 -0.3941 -0.6199 -0.0953
 2587SOL    HW1 7760   2.745   3.727   9.548 -2.2381 -2.1848  2.8190
 2587SOL    HW2 7761   2.804   3.605   9.481 -1.8072 -0.5833  0.0945
 2588SOL     OW 7762   0.988   2.481   9.633 -0.2761 -0.0915  0.2432
 2588SOL    HW1 7763   1.055   2.412   9.631  0.1458  0.3099  0.2752
 2588SOL    HW2 7764   0.953   2.478   9.722  2.0182  1.8547  1.3345
 2589SOL     OW 7765   3.140   2.801   9.601  0.0662 -0.5971  0.3268
 2589SOL    HW1 7766   3.095   2.880   9.571 -0.5044 -0.7206  0.8386
 2589SOL    HW2 7767   3.203   2.834   9.666  0.6198 -0.4428 -0.2764
 2590SOL     OW 7768   1.912   3.841   9.128 -0.0151 -0.0975  0.0363
 2590SOL    HW1 7769   2.001   3.873   9.142 -0.3020  0.8143 -0.1904
 2590SOL    HW2 7770   1.913   3.804   9.040  0.1334 -0.0747  0.0280
 2591SOL     OW 7771   1.968   3.058   8.937 -0.1059  0.2539 -0.0183
 2591SOL    HW1 7772   1.974   3.137   8.991  0.1039  0.1271  0.1457
 2591SOL    HW2 7773   1.957   3.091   8.847  0.0626  0.4679  0.0398
 2592SOL     OW 7774   3.947   2.667   8.043 -0.3470  0.7298 -0.4175
 2592SOL    HW1 7775   3.991   2.692   7.962  0.6954 -0.2520 -0.1696
 2592SOL    HW2 7776   3.875   2.730   8.051  1.2757  2.6894 -0.5947
 2593SOL     OW 7777   0.089   2.204   9.611  0.2869  0.2620  0.2697
 2593SOL    HW1 7778   0.039   2.143   9.557  2.0740 -1.5217  0.5108
 2593SOL    HW2 7779   0.131   2.148   9.677  0.1958  2.0578  1.9375
 2594SOL     OW 7780   3.390   4.364   9.726 -0.1952  0.5808  0.2129
 2594SOL    HW1 7781   3.442   4.369   9.806  0.9759  0.0085 -0.4715
 2594SOL    HW2 7782   3.442   4.412   9.661  1.8180 -3.5006 -1.6110
 2595SOL     OW 7783   2.746   4.859   9.795  0.1769 -0.2171 -0.0524
 2595SOL    HW1 7784   2.743   4.764   9.789 -1.1452 -0.1870 -0.2347
 2595SOL    HW2 7785   2.826   4.878   9.844  0.4985 -1.4045 -0.0815
 2596SOL     OW 7786   1.557   2.776   9.172 -0.6324  0.1252  0.6641
 2596SOL    HW1 7787   1.591   2.824   9.248  0.0776  0.1632  0.3265
 2596SOL    HW2 7788   1.567   2.837   9.099  0.0308 -0.4324  0.2783
 2597SOL     OW 7789   1.632   4.718   9.710 -0.2378 -0.2200  0.1917
 2597SOL    HW1 7790   1.593   4.675   9.786 -0.9657  1.7722  1.0265
 2597SOL    HW2 7791   1.716   4.674   9.697 -0.3560 -0.9650  1.7890
 2598SOL     OW 7792   1.927   0.668   9.805 -0.3229 -0.4849 -0.3279
 2598SOL    HW1 7793   1.870   0.700   9.876  0.5504  0.3619  0.0126
 2598SOL    HW2 7794   1.965   0.587   9.840 -1.3258 -1.0799 -0.5741
 2599SOL     OW 7795   3.757   0.669   9.560 -0.1639  0.0517 -0.1746
 2599SOL    HW1 7796   3.852   0.675   9.569 -0.2752  2.2482  0.1179
 2599SOL    HW2 7797   3.742   0.591   9.507  1.8608  0.1585 -0.9664
 2600SOL     OW 7798   3.331   4.127   8.954  0.5912  0.0159  0.3321
 2600SOL    HW1 7799   3.284   4.144   8.872  1.0113 -2.0913 -0.4104
 2600SOL    HW2 7800   3.311   4.036   8.974  0.6450  0.4409  2.5138
 2601SOL     OW 7801   2.479   1.625   9.122 -0.0528  0.2195 -0.1180
 2601SOL    HW1 7802   2.416   1.675   9.174  0.1589 -1.4527  1.8552
 2601SOL    HW2 7803   2.494   1.545   9.172  2.4227 -0.1760 -1.3364
 2602SOL     OW 7804   3.758   1.698   8.681  0.2398 -0.0832  0.1596
 2602SOL    HW1 7805   3.692   1.758   8.647  0.3187  0.2984  0.6647
 2602SOL    HW2 7806   3.801   1.747   8.751  0.8702 -0.4293  0.0220
 2603SOL     OW 7807   1.781   1.009   9.278  0.7519  1.0125  0.0956
 2603SOL    HW1 7808   1.685   1.008   9.289  0.5826  0.0764 -1.2875
 2603SOL    HW2 7809   1.814   1.032   9.365 -0.7268  1.3694  0.6034
 2604SOL     OW 7810   3.342   1.611   9.256 -0.6022  0.2695  0.1523
 2604SOL    HW1 7811   3.371   1.686   9.308  0.9202 -0.3628  0.2738
 2604SOL    HW2 7812   3.403   1.608   9.182 -0.4952 -0.9556  0.2585
 2605SOL     OW 7813   1.842   2.562   7.087  0.0285 -0.2388  0.2318
 2605SOL    HW1 7814   1.795   2.496   7.139 -0.4392  1.2332  1.7871
 2605SOL    HW2 7815   1.929   2.526   7.075 -0.0691 -0.9468  1.4706
 2606SOL     OW 7816   0.985   3.415   8.810  0.7248  0.0716 -0.3117
 2606SOL    HW1 7817   0.929   3.372   8.745  0.9820  1.2865 -1.3892
 2606SOL    HW2 7818   1.075   3.396   8.780  0.8631 -0.1872  0.2587
 2607SOL     OW 7819   3.079   3.077   9.680  0.3664 -0.3566  0.3684
 2607SOL    HW1 7820   3.002   3.070   9.736 -0.4795 -0.9071 -0.8200
 2607SOL    HW2 7821   3.135   3.142   9.724 -1.3505  1.0603  0.5792
 2608SOL     OW 7822   1.726   3.980   9.498 -0.2842  0.5030 -0.3275
 2608SOL    HW1 7823   1.781   4.004   9.423  0.8816 -1.1974 -0.0942
 2608SOL    HW2 7824   1.708   3.887   9.485  1.2683 -0.2733  2.2202
 2609SOL     OW 7825   3.848   2.159   8.971 -0.3947  0.4850  0.4793
 2609SOL    HW1 7826   3.807   2.242   8.997 -0.2186  0.1571  1.8809
 2609SOL    HW2 7827   3.885   2.124   9.052  1.2529 -0.0282 -0.4582
 2610SOL     OW 7828   1.377   3.113   8.879  0.0011  0.5791 -0.1571
 2610SOL    HW1 7829   1.466   3.147   8.894  0.1620  0.5702 -1.0360
 2610SOL    HW2 7830   1.346   3.089   8.966  1.6544 -1.3653 -0.0146
 2611SOL     OW 7831   2.365   3.259   8.423  0.1348  0.1258  0.4450
 2611SOL    HW1 7832   2.302   3.320   8.383  0.2376 -0.7978 -1.2202
 2611SOL    HW2 7833   2.324   3.233   8.505 -1.1875  0.3313 -0.1222
 2612SOL     OW 7834   3.257   4.197   9.998  0.1578 -0.7981 -0.1507
 2612SOL    HW1 7835   3.250   4.286  10.033  0.0392 -0.0923 -1.8780
 2612SOL    HW2 7836   3.195   4.194   9.925  2.3502 -1.2261 -2.1578
 2613SOL     OW 7837   2.941   2.685   9.408 -0.4174  0.3225  0.4557
 2613SOL    HW1 7838   2.864   2.706   9.461 -0.5237 -0.6400  0.7056
 2613SOL    HW2 7839   2.982   2.612   9.453  0.0950  0.1894 -0.2072
 2614SOL     OW 7840   2.397   2.548   9.495 -0.3003  0.3545  0.2088
 2614SOL    HW1 7841   2.454   2.534   9.419 -1.1794 -0.1213 -0.3776
 2614SOL    HW2 7842   2.375   2.460   9.526 -1.6003  0.4835 -0.2639
 2615SOL     OW 7843   1.576   3.092   8.074  0.2091 -0.1467  0.9841
 2615SOL    HW1 7844   1.563   3.078   7.980  0.5309  0.2337  0.8823
 2615SOL    HW2 7845   1.669   3.108   8.084 -0.1718  2.5020  0.9979
 2616SOL     OW 7846   1.108   4.867  10.131 -0.8770 -0.3501 -0.0583
 2616SOL    HW1 7847   1.159   4.786  10.128  0.0047  0.2148 -0.6745
 2616SOL    HW2 7848   1.039   4.849  10.195  0.4203 -0.9486  1.2297
 2617SOL     OW 7849   0.956   1.277   7.845  0.3985  0.6933 -0.3740
 2617SOL    HW1 7850   0.971   1.361   7.889 -1.1962  1.1543 -0.6137
 2617SOL    HW2 7851   0.938   1.301   7.754  1.5603 -0.0746 -0.8305
 2618SOL     OW 7852   3.204   1.288   9.811  0.2751 -0.2436  0.3045
 2618SOL    HW1 7853   3.162   1.362   9.854  1.8023 -0.2518  1.9618
 2618SOL    HW2 7854   3.293   1.287   9.847  0.7159 -2.0785 -0.6843
 2619SOL     OW 7855   3.385   4.810   9.850 -0.4588  0.4445  0.7150
 2619SOL    HW1 7856   3.470   4.772   9.830 -1.2289 -1.5843  1.0476
 2619SOL    HW2 7857   3.378   4.886   9.793  1.2653  0.2357  0.1840
 2620SOL     OW 7858   2.078   4.132   9.721  0.8900  0.1189  0.1462
 2620SOL    HW1 7859   2.105   4.065   9.785  1.0072 -0.5382 -0.5725
 2620SOL    HW2 7860   2.139   4.204   9.736  1.1859 -0.1971  0.5058
 2621SOL     OW 7861   4.998   1.547   9.038 -0.3042 -0.0030 -0.3089
 2621SOL    HW1 7862   4.908   1.577   9.043 -0.6007 -0.7482 -0.9381
 2621SOL    HW2 7863   5.042   1.612   8.983  0.2889  1.9914  2.3238
 2622SOL     OW 7864   1.621   3.214   8.959 -0.6287 -0.3191 -0.2551
 2622SOL    HW1 7865   1.652   3.250   8.876  0.1713 -1.0647 -0.2899
 2622SOL    HW2 7866   1.636   3.284   9.022 -1.7519  0.4657 -0.8095
 2623SOL     OW 7867   2.106   4.412   9.502  0.8081  0.1458 -0.1659
 2623SOL    HW1 7868   2.019   4.416   9.463  0.7464 -0.9420 -0.1644
 2623SOL    HW2 7869   2.107   4.483   9.566 -0.0663  0.1885 -0.1903
 2624SOL     OW 7870   2.048   4.881   9.697  0.7761 -0.4442  0.2124
 2624SOL    HW1 7871   2.061   4.846   9.609 -1.4091 -2.2366  0.5122
 2624SOL    HW2 7872   1.956   4.907   9.699  0.6369 -0.9321  2.1024
 2625SOL     OW 7873   3.738   3.772   8.919  0.1940  0.2700  0.3973
 2625SOL    HW1 7874   3.825   3.813   8.911  0.8082  0.0105  3.9305
 2625SOL    HW2 7875   3.757   3.681   8.943 -1.1001 -0.2578 -0.5207
 2626SOL     OW 7876   4.290   3.873   9.260  0.6275 -0.0442 -0.2264
 2626SOL    HW1 7877   4.265   3.965   9.273  2.4410  0.3744  0.6169
 2626SOL    HW2 7878   4.221   3.823   9.303 -0.3446  0.9217 -0.6163
 2627SOL     OW 7879   4.692   4.187   9.729 -0.1497 -0.1571  0.1455
 2627SOL    HW1 7880   4.756   4.253   9.701  0.2926  0.0973  1.6584
 2627SOL    HW2 7881   4.745   4.112   9.755 -0.6086 -0.7955 -0.7529
 2628SOL     OW 7882   4.682   2.411   9.507  0.5201 -0.4410 -0.4589
 2628SOL    HW1 7883   4.734   2.389   9.585  2.9060  1.3808 -1.4048
 2628SOL    HW2 7884   4.703   2.341   9.444  0.6682 -0.5072 -0.3351
 2629SOL     OW 7885   2.857   0.533   9.870  0.2924  0.4534  0.1445
 2629SOL    HW1 7886   2.778   0.537   9.925  0.5896 -0.4747  0.6569
 2629SOL    HW2 7887   2.902   0.453   9.898  0.8454  0.3690 -0.9312
 2630SOL     OW 7888   2.331   4.274   9.455 -0.5803 -0.4077 -0.1044
 2630SOL    HW1 7889   2.244   4.307   9.477 -0.5801 -0.9340  0.7330
 2630SOL    HW2 7890   2.391   4.336   9.496 -0.5162  0.7206 -1.8063
 2631SOL     OW 7891   2.468   4.611   9.750 -0.0805  0.5321  0.2121
 2631SOL    HW1 7892   2.461   4.676   9.819  1.8251  0.1067  0.8750
 2631SOL    HW2 7893   2.486   4.528   9.796  1.3119  0.2606 -0.7538
 2632SOL     OW 7894   1.757   2.178   9.187  0.2716 -0.3001  0.0603
 2632SOL    HW1 7895   1.754   2.274   9.197 -1.1587 -0.1439 -1.4695
 2632SOL    HW2 7896   1.671   2.148   9.218  1.3155 -1.3417  2.2147
 2633SOL     OW 7897   2.526   4.916  10.084  0.0447  0.2893 -0.4760
 2633SOL    HW1 7898   2.532   4.820  10.079  0.2016  0.2901 -0.3244
 2633SOL    HW2 7899   2.434   4.933  10.104  0.1182  0.1461  0.0026
 2634SOL     OW 7900   4.135   4.444   8.048  0.2916 -0.1362  0.1757
 2634SOL    HW1 7901   4.230   4.455   8.053  0.2177  0.5129  0.2345
 2634SOL    HW2 7902   4.102   4.529   8.018 -0.2863 -0.2891  0.3559
 2635SOL     OW 7903   3.770   4.480   8.170 -0.1875  0.1456  0.0043
 2635SOL    HW1 7904   3.814   4.552   8.215 -0.7483 -0.0499  0.8859
 2635SOL    HW2 7905   3.736   4.519   8.089 -0.7623  0.9473  0.6223
 2636SOL     OW 7906   3.092   1.927   9.434  0.5265 -0.3220 -0.4575
 2636SOL    HW1 7907   3.074   2.015   9.399  2.7506 -0.2230 -1.5709
 2636SOL    HW2 7908   3.135   1.943   9.518  0.3979 -0.3646 -0.3839
 2637SOL     OW 7909   3.150   2.492   9.127 -0.0900 -0.2581 -0.4666
 2637SOL    HW1 7910   3.068   2.497   9.080 -0.1069 -2.5511 -0.7974
 2637SOL    HW2 7911   3.135   2.425   9.195  1.0519  0.3314  0.4110
 2638SOL     OW 7912   4.315   1.521   9.354  0.1427 -0.3326 -0.5136
 2638SOL    HW1 7913   4.262   1.550   9.428 -0.9245 -0.5839 -1.1606
 2638SOL    HW2 7914   4.263   1.542   9.277  1.6536  0.8037 -1.2737
 2639SOL     OW 7915   3.220   3.254   9.867  0.1208 -0.4371 -0.0880
 2639SOL    HW1 7916   3.256   3.328   9.917 -0.5180  0.7896 -1.3617
 2639SOL    HW2 7917   3.219   3.181   9.929 -0.7614  1.0488  1.7549
 2640SOL     OW 7918   3.156   3.270   8.647  0.0028 -0.1506 -0.2417
 2640SOL    HW1 7919   3.232   3.325   8.625 -1.5677  1.5625 -1.7076
 2640SOL    HW2 7920   3.119   3.245   8.562 -2.1103  0.5889  0.4071
 2641SOL     OW 7921   3.462   2.481   7.364  0.1125  0.6330  0.3651
 2641SOL    HW1 7922   3.429   2.438   7.443  0.3168 -1.4743 -0.6268
 2641SOL    HW2 7923   3.383   2.508   7.317 -0.0086  2.0658  1.3167
 2642SOL     OW 7924   2.641   3.951  10.052  0.4536  0.0101  0.1111
 2642SOL    HW1 7925   2.725   3.919  10.020  0.3565  0.3676 -0.5308
 2642SOL    HW2 7926   2.656   4.043  10.073  0.7972 -0.4712  2.1975
 2643SOL     OW 7927   4.904   3.377   9.778  0.0346  0.2970  0.2596
 2643SOL    HW1 7928   4.840   3.448   9.774  0.6872  0.8442 -0.7968
 2643SOL    HW2 7929   4.975   3.412   9.832  0.9399  0.9478 -1.3204
 2644SOL     OW 7930   0.242   2.408   9.728  0.0938 -0.3614 -0.0798
 2644SOL    HW1 7931   0.267   2.380   9.816  1.3261 -2.2384 -0.9494
 2644SOL    HW2 7932   0.197   2.332   9.691  0.2386  0.1344 -1.3243
 2645SOL     OW 7933   2.949   2.132   9.754 -0.5898  0.1080  0.4008
 2645SOL    HW1 7934   2.952   2.060   9.817 -0.5508 -0.6889 -0.4868
 2645SOL    HW2 7935   3.031   2.179   9.768  0.7569 -1.6921 -0.8895
 2646SOL     OW 7936   2.631   3.318   9.821 -0.3486 -0.1080  0.6330
 2646SOL    HW1 7937   2.667   3.293   9.735 -1.3869 -0.1324  0.1843
 2646SOL    HW2 7938   2.706   3.318   9.880  0.0868 -1.9846  0.1340
 2647SOL     OW 7939   2.197   2.726   9.098  0.7606  0.0854  0.6618
 2647SOL    HW1 7940   2.210   2.656   9.034 -1.7612 -1.8248  2.0215
 2647SOL    HW2 7941   2.114   2.766   9.074  0.8376  0.7579  1.4691
 2648SOL     OW 7942   1.104   3.959   9.398  0.2407  0.2612  0.2902
 2648SOL    HW1 7943   1.157   3.879   9.387 -1.6404 -0.9670 -0.3316
 2648SOL    HW2 7944   1.021   3.928   9.433 -0.3804  2.0278  0.4582
 2649SOL     OW 7945   1.709   4.967   9.275 -0.3930  0.0745 -0.3078
 2649SOL    HW1 7946   1.650   4.892   9.284  0.1877 -0.3840 -0.2316
 2649SOL    HW2 7947   1.656   5.042   9.300  0.0813 -0.6968  3.7958
 2650SOL     OW 7948   2.275   2.944   8.879  0.0916 -0.5101 -0.3349
 2650SOL    HW1 7949   2.209   2.917   8.816 -1.6911  1.3285  0.6377
 2650SOL    HW2 7950   2.265   2.882   8.952  0.3679 -1.0168 -0.7143
 2651SOL     OW 7951   3.203   0.545   9.116  0.5287 -0.0481  0.7374
 2651SOL    HW1 7952   3.168   0.592   9.040  2.1189  0.0754  0.0501
 2651SOL    HW2 7953   3.126   0.502   9.154 -0.7675  2.0505  0.6694
 2652SOL     OW 7954   2.107   1.418   8.510  0.1223  0.3837  0.5292
 2652SOL    HW1 7955   2.031   1.362   8.494  0.5249 -0.3615  1.1152
 2652SOL    HW2 7956   2.070   1.501   8.540 -0.4497 -0.0865  1.1510
 2653SOL     OW 7957   3.181   3.872   9.713 -0.3327  0.4445 -0.4723
 2653SOL    HW1 7958   3.158   3.846   9.624  1.0045  0.3073 -0.7912
 2653SOL    HW2 7959   3.255   3.931   9.703 -1.4975  2.1377  0.4367
 2654SOL     OW 7960   0.225   2.274   8.285 -0.0712  0.3564 -0.8244
 2654SOL    HW1 7961   0.303   2.222   8.305 -0.0529  0.4218 -0.7212
 2654SOL    HW2 7962   0.243   2.313   8.200  0.0433  0.4375 -0.7631
 2655SOL     OW 7963   4.776   1.176   9.903  0.2666  0.5956 -0.0647
 2655SOL    HW1 7964   4.755   1.268   9.887 -0.5693  0.6266  1.0642
 2655SOL    HW2 7965   4.692   1.136   9.925  0.5886 -0.4949 -0.7096
 2656SOL     OW 7966   3.887   1.796   9.131  0.4096 -0.2129 -0.4524
 2656SOL    HW1 7967   3.922   1.812   9.043  1.2455 -2.5944 -0.6200
 2656SOL    HW2 7968   3.949   1.841   9.189  0.7699  0.0068 -0.9986
 2657SOL     OW 7969   2.695   3.277   8.719 -0.2221  0.3920  0.1504
 2657SOL    HW1 7970   2.761   3.220   8.757 -0.4307  0.4082  0.5456
 2657SOL    HW2 7971   2.611   3.237   8.744 -0.3658 -0.1330 -1.1136
 2658SOL     OW 7972   3.685   1.241   8.861  0.2562 -0.0776  0.5619
 2658SOL    HW1 7973   3.714   1.153   8.839  2.0550 -0.3256  3.3281
 2658SOL    HW2 7974   3.595   1.246   8.829  1.6947 -0.9563 -4.3826
 2659SOL     OW 7975   1.933   1.544   9.178 -0.3714 -0.1164 -0.0827
 2659SOL    HW1 7976   1.983   1.511   9.103  0.8192 -1.7875  1.3432
 2659SOL    HW2 7977   1.913   1.465   9.230 -0.3948  1.0533  1.7877
 2660SOL     OW 7978   1.962   2.678   9.317 -0.2340 -0.8379 -0.2579
 2660SOL    HW1 7979   2.036   2.620   9.299 -0.1553 -1.1915  1.0751
 2660SOL    HW2 7980   1.952   2.730   9.237  3.1935  1.1451  0.4239
 2661SOL     OW 7981   2.358   1.544   9.699  0.0687  0.1858  0.1053
 2661SOL    HW1 7982   2.317   1.527   9.784  1.7712 -1.3170  0.6726
 2661SOL    HW2 7983   2.285   1.536   9.637 -1.0221  0.2979  1.3131
 2662SOL     OW 7984   2.260   3.910   8.520 -0.1901 -0.3847 -0.2143
 2662SOL    HW1 7985   2.305   3.914   8.605  1.1717  0.7443 -0.9339
 2662SOL    HW2 7986   2.221   3.997   8.509 -2.3213 -1.2476  0.2389
 2663SOL     OW 7987   3.947   2.989   9.529 -0.0885 -0.4593  0.5365
 2663SOL    HW1 7988   4.019   3.046   9.504  0.7215 -1.1140  1.3193
 2663SOL    HW2 7989   3.887   3.046   9.578 -0.0526  0.0604 -0.0128
 2664SOL     OW 7990   3.566   4.118   6.789 -0.3243 -0.1723 -0.2024
 2664SOL    HW1 7991   3.650   4.117   6.835 -0.7050 -0.5041  0.4874
 2664SOL    HW2 7992   3.574   4.045   6.726  1.1800  1.8061 -2.5251
 2665SOL     OW 7993   3.209   1.387   9.463  0.0234  0.1826  0.2562
 2665SOL    HW1 7994   3.159   1.445   9.405 -0.9495 -1.1511 -0.2928
 2665SOL    HW2 7995   3.177   1.299   9.442  0.4299 -0.4434  2.0618
 2666SOL     OW 7996   2.142   3.983   5.182 -0.3507 -0.5458 -0.0798
 2666SOL    HW1 7997   2.079   3.931   5.232 -0.8641 -2.0853 -2.1684
 2666SOL    HW2 7998   2.223   3.931   5.185  0.6441  1.0015  1.8735
 2667SOL     OW 7999   3.723   3.208   5.323 -0.4072 -0.8523  0.1876
 2667SOL    HW1 8000   3.731   3.267   5.248  0.4989 -2.1920 -0.8200
 2667SOL    HW2 8001   3.629   3.197   5.335 -0.5673 -0.3017 -0.4943
 2668SOL     OW 8002   3.244   4.953   5.413  0.5735  0.1131 -0.1704
 2668SOL    HW1 8003   3.195   5.034   5.398  1.2561  0.8400  1.3423
 2668SOL    HW2 8004   3.229   4.901   5.334 -0.7722  1.2530 -0.7032
 2669SOL     OW 8005   2.049   0.502   7.000  0.1895  0.5696  0.1701
 2669SOL    HW1 8006   2.051   0.585   6.952  0.6565 -0.5523 -1.9091
 2669SOL    HW2 8007   2.058   0.436   6.931  0.9871 -1.1586  1.8689
 2670SOL     OW 8008   3.484   4.629   5.478  0.4003  0.3099  0.2636
 2670SOL    HW1 8009   3.529   4.686   5.415  1.5466 -0.9167 -0.0630
 2670SOL    HW2 8010   3.515   4.658   5.564  2.2964 -0.8643  0.0221
 2671SOL     OW 8011   1.095   3.913   6.600  0.6657  0.0222 -0.2667
 2671SOL    HW1 8012   1.067   3.976   6.666  0.9098 -0.2087  0.0615
 2671SOL    HW2 8013   1.053   3.831   6.627  0.6686 -0.0446 -0.4669
 2672SOL     OW 8014   3.540   3.065   8.451 -0.5164 -0.5427  0.1690
 2672SOL    HW1 8015   3.513   3.096   8.365  0.7517 -0.1371 -0.1090
 2672SOL    HW2 8016   3.526   2.971   8.449  1.4144 -0.8395 -1.2371
 2673SOL     OW 8017   2.952   3.590   5.195  0.7116 -0.4246  0.8017
 2673SOL    HW1 8018   2.982   3.640   5.271  1.0287 -0.4615  0.7020
 2673SOL    HW2 8019   3.031   3.579   5.141  0.5834 -0.7912  0.6898
 2674SOL     OW 8020   2.547   4.416   7.065  0.1179  0.2787 -0.0590
 2674SOL    HW1 8021   2.500   4.489   7.023 -0.4430  0.0092  0.0924
 2674SOL    HW2 8022   2.524   4.424   7.158  0.2039  0.0199 -0.0161
 2675SOL     OW 8023   3.062   1.151   4.935 -0.0344 -0.5462  0.0377
 2675SOL    HW1 8024   3.005   1.181   5.006  1.1871 -1.1315  1.3104
 2675SOL    HW2 8025   3.150   1.175   4.963  0.4419 -0.3352 -1.5387
 2676SOL     OW 8026   3.273   3.732   5.251  0.0160  0.2922 -0.2480
 2676SOL    HW1 8027   3.237   3.643   5.249 -0.5485  0.4677  1.0990
 2676SOL    HW2 8028   3.200   3.789   5.226 -0.2463  0.5338  1.0236
 2677SOL     OW 8029   2.118   4.146   7.479 -0.0823 -0.4072  0.1604
 2677SOL    HW1 8030   2.033   4.169   7.514 -0.0502 -1.3138  0.8670
 2677SOL    HW2 8031   2.103   4.066   7.430  0.3068 -0.3986  0.0205
 2678SOL     OW 8032   0.239   3.627   5.596  0.1870  0.5006 -0.3460
 2678SOL    HW1 8033   0.217   3.617   5.689 -0.0924 -0.0118 -0.4612
 2678SOL    HW2 8034   0.293   3.550   5.576  1.0080  1.0762 -0.3871
 2679SOL     OW 8035   3.903   1.222   7.265  0.0074  0.6362  0.6403
 2679SOL    HW1 8036   3.906   1.155   7.197 -0.2263  1.4992 -0.2334
 2679SOL    HW2 8037   3.993   1.252   7.273 -0.1661  1.4177 -0.1989
 2680SOL     OW 8038   2.989   3.231   5.512 -0.1954 -0.0182 -0.5814
 2680SOL    HW1 8039   2.926   3.292   5.474  0.6008  2.1591  1.3282
 2680SOL    HW2 8040   2.939   3.182   5.577 -0.3655  0.1940 -0.5530
 2681SOL     OW 8041   3.391   1.691   6.793 -0.1172  0.1082  0.1509
 2681SOL    HW1 8042   3.440   1.707   6.874  0.8456 -1.0807 -0.1554
 2681SOL    HW2 8043   3.451   1.640   6.738 -1.2789 -0.3850 -0.7217
 2682SOL     OW 8044   4.737   2.396   6.037 -0.0642  0.5317  0.6149
 2682SOL    HW1 8045   4.793   2.453   5.985  0.9589 -1.1281 -0.1773
 2682SOL    HW2 8046   4.657   2.388   5.987  0.2465  0.3447  0.1427
 2683SOL     OW 8047   0.293   3.543   7.657  0.1065 -0.1433  0.2783
 2683SOL    HW1 8048   0.301   3.457   7.614 -0.0028  0.9384 -2.0717
 2683SOL    HW2 8049   0.301   3.606   7.585  2.6500  1.9418  2.1973
 2684SOL     OW 8050   3.536   1.288   7.012  0.2898 -0.1682  0.3252
 2684SOL    HW1 8051   3.490   1.287   6.928  1.0506 -0.6881 -0.0978
 2684SOL    HW2 8052   3.563   1.197   7.026  1.8936  0.2510  0.1436
 2685SOL     OW 8053   2.540   0.677   5.367 -0.2462  0.2444 -0.1602
 2685SOL    HW1 8054   2.567   0.586   5.358  0.3397  0.1535  1.9744
 2685SOL    HW2 8055   2.621   0.727   5.365 -0.5269  0.6854 -0.8570
 2686SOL     OW 8056   1.471   3.819   7.761 -0.0717  0.2191  0.3525
 2686SOL    HW1 8057   1.478   3.784   7.673  0.5640  0.3782  0.3401
 2686SOL    HW2 8058   1.461   3.742   7.817  1.1848  0.0059  0.3125
 2687SOL     OW 8059   3.118   0.448   6.355 -0.5937 -0.0003 -0.0847
 2687SOL    HW1 8060   3.111   0.505   6.431 -0.7443  0.9751 -0.8058
 2687SOL    HW2 8061   3.121   0.508   6.280 -0.4682 -0.9313 -0.8503
 2688SOL     OW 8062   0.613   3.734   6.362  0.1036 -0.0748 -0.5079
 2688SOL    HW1 8063   0.694   3.761   6.319  1.8116 -2.7473  0.7706
 2688SOL    HW2 8064   0.562   3.693   6.293 -0.3925  1.9202 -1.3988
 2689SOL     OW 8065   1.625   3.841   6.397  0.3093 -0.1745 -0.3419
 2689SOL    HW1 8066   1.679   3.767   6.424  1.9677  1.7248  1.9115
 2689SOL    HW2 8067   1.678   3.918   6.416 -2.5770  1.7616  0.4886
 2690SOL     OW 8068   2.673   1.893   7.050 -0.0189 -0.4695  0.1378
 2690SOL    HW1 8069   2.709   1.974   7.015  1.5050  0.2509  3.0311
 2690SOL    HW2 8070   2.595   1.876   6.997  2.9075 -0.6292 -4.7200
 2691SOL     OW 8071   1.742   0.843   5.664  0.2211 -0.2430 -0.0983
 2691SOL    HW1 8072   1.819   0.843   5.607 -0.1330 -2.4505 -0.6891
 2691SOL    HW2 8073   1.777   0.845   5.752  0.7856  3.0211 -0.2774
 2692SOL     OW 8074   1.381   0.270   6.155  0.2400  0.3418  0.8066
 2692SOL    HW1 8075   1.361   0.223   6.236 -0.5674 -1.1537 -0.2115
 2692SOL    HW2 8076   1.359   0.361   6.174 -2.8475 -0.4139  1.3828
 2693SOL     OW 8077   3.154   4.727   7.066  0.5000 -1.1905 -0.1289
 2693SOL    HW1 8078   3.084   4.777   7.024  2.2507  0.0085 -1.7737
 2693SOL    HW2 8079   3.110   4.678   7.136 -1.5764  1.5207  0.6491
 2694SOL     OW 8080   3.370   2.548   5.082  0.5392  0.0876 -0.2182
 2694SOL    HW1 8081   3.320   2.617   5.126  1.6031  0.2237  0.8230
 2694SOL    HW2 8082   3.457   2.585   5.069  0.7040 -0.5339 -1.0256
 2695SOL     OW 8083   4.349   1.052   4.669 -0.1876 -0.3770  0.2445
 2695SOL    HW1 8084   4.294   1.120   4.629 -0.7214  0.4577  2.2919
 2695SOL    HW2 8085   4.389   1.095   4.744  2.1680 -1.3931 -0.3540
 2696SOL     OW 8086   2.879   3.193   5.842  0.1481 -0.6361  0.4090
 2696SOL    HW1 8087   2.805   3.133   5.838 -1.0873  0.7967  0.6747
 2696SOL    HW2 8088   2.847   3.273   5.800  1.8258 -0.2342 -0.1891
 2697SOL     OW 8089   3.789   3.064   4.956  0.2583 -0.6087  0.0975
 2697SOL    HW1 8090   3.816   2.982   4.916  0.5885 -0.8973  0.8961
 2697SOL    HW2 8091   3.693   3.062   4.953  0.2760 -0.4779 -0.9445
 2698SOL     OW 8092   2.742   3.936   5.352 -0.4849  0.0888 -0.3165
 2698SOL    HW1 8093   2.803   3.963   5.283 -0.0116  0.0807  0.0887
 2698SOL    HW2 8094   2.698   3.858   5.317 -0.4901  0.2824 -0.7395
 2699SOL     OW 8095   3.195   0.804   8.425 -0.0236 -0.2358  0.1670
 2699SOL    HW1 8096   3.181   0.755   8.344 -1.2977 -0.7863  0.7029
 2699SOL    HW2 8097   3.189   0.895   8.399  0.7294 -0.3688 -0.5486
 2700SOL     OW 8098   3.150   0.789   6.880  0.1503 -0.6512  0.1538
 2700SOL    HW1 8099   3.202   0.861   6.844 -1.2519  0.6373  0.6103
 2700SOL    HW2 8100   3.071   0.831   6.914 -0.8727 -2.4613  0.1222
 2701SOL     OW 8101   3.417   4.650   7.181  0.3603 -0.5152  0.0215
 2701SOL    HW1 8102   3.368   4.641   7.100  1.2423  0.5209 -0.6516
 2701SOL    HW2 8103   3.433   4.744   7.190 -0.5442 -0.5038  1.9045
 2702SOL     OW 8104   0.895   1.770   6.800  0.2624 -0.3884 -0.1527
 2702SOL    HW1 8105   0.991   1.765   6.791  0.4904  0.7324  1.3313
 2702SOL    HW2 8106   0.879   1.853   6.844 -1.2138 -1.5734  1.7267
 2703SOL     OW 8107   3.827   4.914   6.693  0.2994  0.4527 -0.0935
 2703SOL    HW1 8108   3.781   4.842   6.649  0.7795 -0.1561  0.3909
 2703SOL    HW2 8109   3.879   4.954   6.624 -2.5754  2.5746 -1.2097
 2704SOL     OW 8110   2.225   3.260   8.015  0.2182  0.3007  0.1794
 2704SOL    HW1 8111   2.239   3.192   8.081 -0.5718  0.6183  0.6842
 2704SOL    HW2 8112   2.180   3.216   7.944  2.6499 -0.4746 -0.9831
 2705SOL     OW 8113   4.604   4.517   5.001  0.0255  0.2126 -0.7139
 2705SOL    HW1 8114   4.530   4.578   5.000 -0.4345 -0.2160  1.6633
 2705SOL    HW2 8115   4.567   4.435   5.033  1.5219  0.0259  0.6555
 2706SOL     OW 8116   1.716   0.086   5.485  0.5402  0.5673 -0.1145
 2706SOL    HW1 8117   1.670   0.014   5.441  2.3654 -0.6386 -0.1265
 2706SOL    HW2 8118   1.739   0.146   5.414  1.7451 -0.4050 -0.5844
 2707SOL     OW 8119   1.124   2.386   6.065 -0.1391  0.4785  0.2408
 2707SOL    HW1 8120   1.161   2.475   6.062 -0.8772  0.8471  1.5148
 2707SOL    HW2 8121   1.169   2.344   6.138  0.3673 -0.2860 -0.4973
 2708SOL     OW 8122   3.450   3.596   5.423 -0.5947 -0.1747 -0.3306
 2708SOL    HW1 8123   3.435   3.659   5.352  0.0638 -1.1682 -1.3768
 2708SOL    HW2 8124   3.520   3.539   5.391 -0.7761 -1.0911  0.8313
 2709SOL     OW 8125   1.731   0.066   6.162 -0.1875 -0.6576  0.6982
 2709SOL    HW1 8126   1.667   0.050   6.093 -0.1150 -0.2925  0.5427
 2709SOL    HW2 8127   1.787  -0.012   6.163  0.1904 -0.3987 -0.0681
 2710SOL     OW 8128   3.975   3.896   5.871  0.0058  0.1212  0.6284
 2710SOL    HW1 8129   3.990   3.968   5.933  1.1085  0.6181 -0.1821
 2710SOL    HW2 8130   3.942   3.825   5.926  0.4304  0.7267  1.7151
 2711SOL     OW 8131   1.636   4.345   5.942  0.0160 -0.0104 -0.7739
 2711SOL    HW1 8132   1.649   4.412   5.876 -0.2400  0.0635 -0.7504
 2711SOL    HW2 8133   1.570   4.287   5.905 -0.5745  0.3696 -0.3371
 2712SOL     OW 8134   1.566   2.789   5.878 -0.3540  0.0788  0.5613
 2712SOL    HW1 8135   1.528   2.701   5.871 -0.2804 -0.1696  2.7782
 2712SOL    HW2 8136   1.533   2.835   5.800 -1.5682 -1.4613  0.1060
 2713SOL     OW 8137   0.375   4.201   5.594  0.0295 -0.0139  0.1342
 2713SOL    HW1 8138   0.298   4.163   5.552 -0.5135  1.1273  0.0520
 2713SOL    HW2 8139   0.378   4.159   5.680 -1.8107  1.2546  0.8915
 2714SOL     OW 8140   3.383   1.329   5.964 -0.2717 -0.0674 -0.0395
 2714SOL    HW1 8141   3.476   1.305   5.964 -0.9829 -3.3758 -1.1170
 2714SOL    HW2 8142   3.359   1.329   5.871 -1.7382 -1.1907  0.3058
 2715SOL     OW 8143   2.891   4.921   6.212  0.3474 -0.1552 -0.7973
 2715SOL    HW1 8144   2.872   4.856   6.145 -0.9638  0.5886 -1.1705
 2715SOL    HW2 8145   2.938   4.872   6.280 -2.1573 -1.9518 -0.2298
 2716SOL     OW 8146   3.577   0.184   6.522 -0.0098  0.5638 -0.4332
 2716SOL    HW1 8147   3.550   0.145   6.605  0.7039  1.7060  0.3587
 2716SOL    HW2 8148   3.546   0.122   6.455 -1.6641  0.2399  0.6006
 2717SOL     OW 8149   4.564   3.108   5.087 -0.3214 -0.9135 -0.1894
 2717SOL    HW1 8150   4.563   3.194   5.045 -1.6679 -0.5344  0.5545
 2717SOL    HW2 8151   4.549   3.046   5.016  1.5011 -0.6360 -0.8721
 2718SOL     OW 8152   0.850   4.815   7.523 -0.6080 -0.4357 -0.0063
 2718SOL    HW1 8153   0.839   4.900   7.568 -0.5799 -1.0135  1.1411
 2718SOL    HW2 8154   0.942   4.814   7.496 -0.8086  0.2330 -0.7579
 2719SOL     OW 8155   1.527   3.772   5.714  0.1320 -0.1670  0.2304
 2719SOL    HW1 8156   1.494   3.861   5.720  0.3761 -0.1300  1.1273
 2719SOL    HW2 8157   1.449   3.718   5.703 -0.1863 -0.0074  1.5372
 2720SOL     OW 8158   2.717   0.161   5.544 -0.6031 -0.5187 -0.5009
 2720SOL    HW1 8159   2.761   0.240   5.578 -1.5984 -0.5186  0.8692
 2720SOL    HW2 8160   2.788   0.098   5.531  0.1499  0.4357 -1.1844
 2721SOL     OW 8161   1.200   4.451   6.140  0.3243  0.3803  0.0983
 2721SOL    HW1 8162   1.234   4.367   6.170 -0.2572  0.8022  2.1020
 2721SOL    HW2 8163   1.227   4.456   6.049  0.3347 -1.9871 -0.1022
 2722SOL     OW 8164   0.456   3.864   5.746 -0.1161 -0.0679  0.0191
 2722SOL    HW1 8165   0.461   3.957   5.769  0.7210  0.3163 -1.6119
 2722SOL    HW2 8166   0.406   3.862   5.664  1.8237 -0.7871 -1.1988
 2723SOL     OW 8167   2.133   3.773   7.127  0.2814 -0.1729 -0.9178
 2723SOL    HW1 8168   2.218   3.817   7.128  1.7136 -2.7734  0.4644
 2723SOL    HW2 8169   2.149   3.692   7.079 -1.7302 -0.2775 -1.5087
 2724SOL     OW 8170   3.633   5.030   6.860 -0.0557 -0.0349 -0.1150
 2724SOL    HW1 8171   3.566   4.961   6.867  1.1606 -1.3169 -0.6117
 2724SOL    HW2 8172   3.702   4.991   6.806  2.0499  0.4515  2.0459
 2725SOL     OW 8173   3.045   4.115   6.138  0.2999  0.2114 -0.1869
 2725SOL    HW1 8174   3.128   4.086   6.176 -0.5032 -1.0548  0.6759
 2725SOL    HW2 8175   2.980   4.056   6.175 -0.6823 -0.5642 -2.9051
 2726SOL     OW 8176   4.063   4.754   6.359 -0.4717 -0.7288 -0.8704
 2726SOL    HW1 8177   4.031   4.816   6.293  0.9371 -0.5845 -1.4580
 2726SOL    HW2 8178   4.158   4.764   6.357 -0.3697  1.2416  3.0299
 2727SOL     OW 8179   2.536   0.686   5.910 -0.2831  0.6163 -0.1946
 2727SOL    HW1 8180   2.453   0.722   5.940  0.1996 -0.5080  2.8857
 2727SOL    HW2 8181   2.528   0.591   5.925  1.7709  0.5688  0.9482
 2728SOL     OW 8182   3.414   1.586   6.077  0.3992 -0.0456  0.4266
 2728SOL    HW1 8183   3.392   1.650   6.010  1.7136 -0.0004  0.0107
 2728SOL    HW2 8184   3.412   1.502   6.031  0.8484 -0.0635  0.4375
 2729SOL     OW 8185   2.802   1.900   6.712 -0.0392 -0.5497 -0.1140
 2729SOL    HW1 8186   2.801   1.809   6.740  2.2393 -0.2754  1.0622
 2729SOL    HW2 8187   2.759   1.948   6.783 -0.3414 -0.6012 -0.2631
 2730SOL     OW 8188   1.639   4.749   7.831 -0.1398  0.5991 -0.2108
 2730SOL    HW1 8189   1.674   4.710   7.911 -0.9397 -0.1487 -0.2082
 2730SOL    HW2 8190   1.655   4.842   7.841  2.4338  0.2685 -0.5079
 2731SOL     OW 8191   2.637   1.373   5.663 -0.2687 -0.3982  0.0151
 2731SOL    HW1 8192   2.684   1.393   5.744 -0.1327 -1.5903  0.2409
 2731SOL    HW2 8193   2.699   1.397   5.593  0.4072 -1.2533  0.3002
 2732SOL     OW 8194   0.559   0.626   7.275 -0.2196 -0.6716 -0.2070
 2732SOL    HW1 8195   0.567   0.536   7.244 -0.6443 -0.4004 -1.1685
 2732SOL    HW2 8196   0.561   0.679   7.195  2.1451  0.3602  0.4468
 2733SOL     OW 8197   4.319   4.699   5.097 -0.7244  0.0924  0.3068
 2733SOL    HW1 8198   4.253   4.761   5.066 -2.5560 -0.0779  3.4584
 2733SOL    HW2 8199   4.382   4.753   5.145  0.8472  0.0866 -1.6104
 2734SOL     OW 8200   2.022   0.014   7.319 -0.1409  0.0452  0.6711
 2734SOL    HW1 8201   2.085   0.072   7.276  1.7017 -1.8592  0.6079
 2734SOL    HW2 8202   2.013   0.049   7.407  2.2655 -0.4243  1.1911
 2735SOL     OW 8203   2.035   4.085   6.821 -0.1052  0.5368 -0.0256
 2735SOL    HW1 8204   1.999   4.008   6.864  0.4216  0.4483  0.2729
 2735SOL    HW2 8205   2.032   4.064   6.728 -1.3878  0.7882 -0.0491
 2736SOL     OW 8206   2.653   4.175   5.499  0.0584 -0.2758  0.6320
 2736SOL    HW1 8207   2.682   4.169   5.408  0.9294  0.1420  0.8807
 2736SOL    HW2 8208   2.692   4.099   5.542 -0.5534 -0.6112  0.6142
 2737SOL     OW 8209   2.975   3.777   5.396 -0.6585  0.2102 -0.1760
 2737SOL    HW1 8210   3.007   3.777   5.487 -1.0067  1.2549 -0.0519
 2737SOL    HW2 8211   2.890   3.819   5.400 -1.1718 -0.7248 -0.8365
 2738SOL     OW 8212   3.517   0.429   6.122 -0.5165 -0.1394  0.1806
 2738SOL    HW1 8213   3.579   0.497   6.096 -1.1218 -0.3214 -1.9455
 2738SOL    HW2 8214   3.515   0.433   6.217 -0.3772  2.6690  0.1510
 2739SOL     OW 8215   4.312   2.315   7.160 -0.2951  0.5888  0.2409
 2739SOL    HW1 8216   4.280   2.355   7.241  0.9874  2.5327 -0.1607
 2739SOL    HW2 8217   4.387   2.368   7.135  2.0391 -2.5665  0.0333
 2740SOL     OW 8218   1.815   0.816   6.926 -0.2515  0.4119 -0.4602
 2740SOL    HW1 8219   1.798   0.790   6.836  1.3874 -0.0495 -0.6679
 2740SOL    HW2 8220   1.908   0.797   6.940 -0.2623  1.2740  1.0592
 2741SOL     OW 8221   4.933   4.805   4.975 -0.0476  0.1364 -0.6603
 2741SOL    HW1 8222   4.934   4.709   4.984 -0.9614  0.2590  1.3828
 2741SOL    HW2 8223   5.014   4.834   5.018 -0.3815  0.3391 -0.1638
 2742SOL     OW 8224   2.748   1.663   6.810 -0.6466  0.0787  0.8451
 2742SOL    HW1 8225   2.671   1.661   6.866 -1.9887 -1.6618 -0.9487
 2742SOL    HW2 8226   2.780   1.573   6.809  0.0431  0.3099 -0.2230
 2743SOL     OW 8227   2.922   0.657   6.747  0.5940 -0.0863  0.3453
 2743SOL    HW1 8228   3.010   0.673   6.780  0.4675 -0.1148  0.7037
 2743SOL    HW2 8229   2.868   0.648   6.826  0.5594 -1.7452  0.1800
 2744SOL     OW 8230   3.424   4.725   6.069  0.1568 -0.7136 -0.2432
 2744SOL    HW1 8231   3.459   4.706   6.156  2.7655 -0.1946 -1.0966
 2744SOL    HW2 8232   3.416   4.639   6.027  2.0479 -0.7579 -0.5751
 2745SOL     OW 8233   1.904   0.903   5.877  0.1398 -0.4834  0.1726
 2745SOL    HW1 8234   1.975   0.839   5.883 -0.4154 -1.0578  0.8447
 2745SOL    HW2 8235   1.937   0.970   5.817  1.2865 -0.6668  0.5715
 2746SOL     OW 8236   3.159   4.638   8.342  0.0415  0.1350 -0.2196
 2746SOL    HW1 8237   3.100   4.670   8.411  0.6356 -0.5154  0.6083
 2746SOL    HW2 8238   3.181   4.548   8.369  1.4427  0.3770 -0.4912
 2747SOL     OW 8239   3.645   4.392   6.541 -0.4138  0.1769 -0.0525
 2747SOL    HW1 8240   3.556   4.395   6.504 -0.4058 -0.3000 -0.1137
 2747SOL    HW2 8241   3.631   4.395   6.635 -0.5521 -0.9239 -0.0279
 2748SOL     OW 8242   2.041   3.900   7.364  0.4317  0.1927 -0.2857
 2748SOL    HW1 8243   1.959   3.858   7.388  0.8519 -0.3167  0.2937
 2748SOL    HW2 8244   2.034   3.914   7.269 -0.5103  0.5933 -0.1729
 2749SOL     OW 8245   3.030   4.632   6.728  0.2335 -0.0277  0.0555
 2749SOL    HW1 8246   3.041   4.690   6.804 -0.6445 -0.6506  0.6801
 2749SOL    HW2 8247   2.961   4.673   6.677  0.1836 -0.0895  0.0729
 2750SOL     OW 8248   1.325   4.231   5.216  0.5583  0.0387 -0.4805
 2750SOL    HW1 8249   1.301   4.302   5.275 -1.0961  0.3569 -1.4802
 2750SOL    HW2 8250   1.420   4.224   5.225  0.5512  1.2355  0.8968
 2751SOL     OW 8251   4.036   0.166   4.836 -0.1594 -0.4172 -0.2128
 2751SOL    HW1 8252   3.945   0.156   4.867 -0.4282  0.1738 -0.7778
 2751SOL    HW2 8253   4.047   0.260   4.826  1.5934 -0.1376  2.9396
 2752SOL     OW 8254   3.802   1.612   5.933  0.0505  0.1922 -0.4647
 2752SOL    HW1 8255   3.845   1.528   5.948  0.3236  0.2614 -0.8450
 2752SOL    HW2 8256   3.798   1.652   6.019  0.3334 -0.0159 -0.3511
 2753SOL     OW 8257   1.614   4.622   6.910 -0.4349 -0.1350  0.1430
 2753SOL    HW1 8258   1.583   4.704   6.947  0.1095  0.0215  0.2683
 2753SOL    HW2 8259   1.560   4.608   6.833  0.2033  0.9253 -0.5293
 2754SOL     OW 8260   2.007   3.617   5.479  0.5000  0.5291 -0.3653
 2754SOL    HW1 8261   1.918   3.583   5.486  0.7038 -0.6796 -2.7223
 2754SOL    HW2 8262   2.060   3.554   5.528  0.2499  0.3790 -0.2813
 2755SOL     OW 8263   4.100   3.054   6.392  0.3586 -0.2692 -0.2124
 2755SOL    HW1 8264   4.114   3.076   6.484 -0.3162 -0.0907 -0.1526
 2755SOL    HW2 8265   4.113   2.960   6.387  0.5611 -0.2553  0.0329
 2756SOL     OW 8266   3.950   0.024   7.270  0.4075  0.3173 -0.5623
 2756SOL    HW1 8267   3.992  -0.062   7.269 -0.0343  0.1025 -0.5474
 2756SOL    HW2 8268   4.011   0.079   7.320  1.0176  0.1840 -1.1399
 2757SOL     OW 8269   0.881   5.020   6.915  0.7785 -0.6045 -0.9844
 2757SOL    HW1 8270   0.939   5.009   6.839 -0.2383 -2.5485 -1.5371
 2757SOL    HW2 8271   0.841   4.934   6.927 -1.8255  0.6026 -0.4671
 2758SOL     OW 8272   1.360   4.087   6.871  0.3621  0.2268 -0.2951
 2758SOL    HW1 8273   1.364   4.080   6.967  0.2843 -0.3572 -0.3306
 2758SOL    HW2 8274   1.269   4.069   6.849  0.9819 -2.9336 -0.7002
 2759SOL     OW 8275   3.364   3.715   6.653  0.4412  0.2677  0.5688
 2759SOL    HW1 8276   3.343   3.775   6.725  2.0554  2.7498 -0.8945
 2759SOL    HW2 8277   3.312   3.747   6.579 -2.4725 -3.2149  0.7809
 2760SOL     OW 8278   2.331   0.256   6.434  0.1945  0.4838 -0.9457
 2760SOL    HW1 8279   2.382   0.288   6.509 -1.4436  0.9215  0.0429
 2760SOL    HW2 8280   2.300   0.336   6.391  0.9304  0.2315 -1.9625
 2761SOL     OW 8281   3.467   4.530   7.419  0.2496 -0.3695 -0.6237
 2761SOL    HW1 8282   3.457   4.564   7.330 -1.1153 -0.5878 -0.5737
 2761SOL    HW2 8283   3.414   4.450   7.420 -0.7289  0.2593  0.7097
 2762SOL     OW 8284   2.450   4.891   5.945 -0.0009  0.1379  0.0731
 2762SOL    HW1 8285   2.508   4.926   5.878 -0.6951 -0.8881 -1.1020
 2762SOL    HW2 8286   2.370   4.943   5.938 -0.8937 -1.3324 -1.4243
 2763SOL     OW 8287   3.740   0.068   7.119 -0.2638  0.2454 -0.3573
 2763SOL    HW1 8288   3.742   0.016   7.039 -0.6384 -1.5359  0.7278
 2763SOL    HW2 8289   3.813   0.036   7.171  0.6991  2.1995 -0.4267
 2764SOL     OW 8290   3.661   3.939   5.855 -0.9206 -0.0832  1.0281
 2764SOL    HW1 8291   3.730   3.939   5.788  0.1116  0.7740  2.0443
 2764SOL    HW2 8292   3.608   4.016   5.834 -0.2616  0.5119  1.5088
 2765SOL     OW 8293   3.039   2.177   5.569 -0.1910 -0.2474 -0.2182
 2765SOL    HW1 8294   3.063   2.206   5.657  0.1034 -1.0601 -0.0270
 2765SOL    HW2 8295   3.052   2.083   5.570 -1.9282 -0.5288 -0.5656
 2766SOL     OW 8296   0.842   3.553   6.544 -0.2346  0.6905  0.0566
 2766SOL    HW1 8297   0.790   3.496   6.600 -0.2007  0.9564  0.3608
 2766SOL    HW2 8298   0.825   3.521   6.455  0.4021 -0.2990  0.2744
 2767SOL     OW 8299   2.806   3.816   4.903  0.0579 -0.2068 -0.0631
 2767SOL    HW1 8300   2.822   3.744   4.841  0.7963 -0.6035  0.5602
 2767SOL    HW2 8301   2.711   3.822   4.909 -0.0146 -0.7822 -0.5308
 2768SOL     OW 8302   3.835   3.821   6.760  0.1410 -0.3445 -0.3721
 2768SOL    HW1 8303   3.912   3.792   6.711  0.2461 -0.2130 -0.2861
 2768SOL    HW2 8304   3.855   3.797   6.851  0.4391  0.4183 -0.2248
 2769SOL     OW 8305   2.911   4.037   6.584  0.6708  0.0336  0.5131
 2769SOL    HW1 8306   2.863   3.954   6.590  2.3194 -1.0409 -0.4645
 2769SOL    HW2 8307   2.848   4.103   6.614 -0.8601 -1.4917  0.8194
 2770SOL     OW 8308   4.593   4.084   5.282  0.3685  0.4144  0.4039
 2770SOL    HW1 8309   4.653   4.068   5.355 -0.1239 -2.2657  0.3164
 2770SOL    HW2 8310   4.648   4.077   5.204  0.5556  1.4775  0.4252
 2771SOL     OW 8311   3.162   3.907   6.544  0.1091  0.6758  0.5573
 2771SOL    HW1 8312   3.083   3.920   6.597 -1.0092 -5.7874  1.3627
 2771SOL    HW2 8313   3.130   3.901   6.454 -0.4094 -1.3512  0.8203
 2772SOL     OW 8314   2.560   0.829   5.658  0.0622  0.0945 -0.2399
 2772SOL    HW1 8315   2.528   0.776   5.586  0.7238  0.3200 -0.7144
 2772SOL    HW2 8316   2.543   0.777   5.737 -0.9512 -0.0137 -0.5197
 2773SOL     OW 8317   4.341   0.773   4.732 -0.1377  0.4657 -0.3734
 2773SOL    HW1 8318   4.292   0.717   4.672  0.6678  0.1631 -0.7601
 2773SOL    HW2 8319   4.322   0.862   4.703 -2.3353  0.5142  0.9335
 2774SOL     OW 8320   3.136   3.690   5.968  0.1292  0.0710 -0.5530
 2774SOL    HW1 8321   3.216   3.743   5.964 -0.5564  1.1706 -0.2146
 2774SOL    HW2 8322   3.119   3.667   5.877  0.2870  0.6889 -0.7480
 2775SOL     OW 8323   1.592   4.139   6.636  0.1493  0.2407  0.0680
 2775SOL    HW1 8324   1.547   4.056   6.651  1.2396 -0.1835  1.1414
 2775SOL    HW2 8325   1.667   4.138   6.696  0.2779  1.9355  0.0017
 2776SOL     OW 8326   3.730   1.061   6.156 -0.1552  0.0519  0.1757
 2776SOL    HW1 8327   3.774   1.016   6.083  0.6598  0.3782  0.4595
 2776SOL    HW2 8328   3.658   1.002   6.180 -0.2381 -0.2151 -0.6722
 2777SOL     OW 8329   0.542   0.978   6.627 -0.0023  0.5990 -1.1624
 2777SOL    HW1 8330   0.546   0.986   6.532 -0.6126  0.8410 -1.1721
 2777SOL    HW2 8331   0.450   0.957   6.645  0.1811  0.2249 -0.6499
 2778SOL     OW 8332   3.009   0.050   7.584 -0.0594  0.5521 -0.1145
 2778SOL    HW1 8333   2.997   0.033   7.678 -0.0496  0.9674 -0.0336
 2778SOL    HW2 8334   2.968   0.135   7.570  2.1354  1.7266  0.0404
 2779SOL     OW 8335   3.287   4.384   7.972  0.2098 -0.3416 -0.6774
 2779SOL    HW1 8336   3.291   4.338   7.889 -1.6141 -1.9135  0.0388
 2779SOL    HW2 8337   3.314   4.320   8.037 -0.5186  0.1679  0.1569
 2780SOL     OW 8338   2.713   3.052   6.364  0.1098  0.5912 -0.3584
 2780SOL    HW1 8339   2.717   3.142   6.398 -0.1941  0.5597 -0.2341
 2780SOL    HW2 8340   2.798   3.015   6.386  0.2579  0.8668 -0.4600
 2781SOL     OW 8341   0.035  -0.011   5.956  0.3177  0.0489 -0.4566
 2781SOL    HW1 8342  -0.056   0.019   5.950  0.3843  0.0426 -2.0640
 2781SOL    HW2 8343   0.056  -0.006   6.049 -1.9155 -1.7421  0.2451
 2782SOL     OW 8344   0.929   0.058   6.478  0.8479  0.4214  0.1550
 2782SOL    HW1 8345   0.975   0.025   6.401  2.7307 -0.0011  1.3945
 2782SOL    HW2 8346   0.974   0.140   6.500 -1.3809  1.9834 -0.6932
 2783SOL     OW 8347   1.328  -0.002   5.156  0.6772  0.2919  0.2717
 2783SOL    HW1 8348   1.395   0.045   5.205  1.1264 -1.2219  1.1594
 2783SOL    HW2 8349   1.250   0.052   5.165  1.0023  0.5446  1.8470
 2784SOL     OW 8350   2.737   4.874   6.838  0.3372  0.5547  0.0232
 2784SOL    HW1 8351   2.704   4.957   6.870 -1.2595  0.0670 -0.2356
 2784SOL    HW2 8352   2.721   4.876   6.743  3.0248  1.1171 -0.5107
 2785SOL     OW 8353   2.441   4.361   5.786  0.5852 -0.1619  0.5405
 2785SOL    HW1 8354   2.347   4.351   5.802 -0.0792  2.8745 -0.8229
 2785SOL    HW2 8355   2.459   4.300   5.714 -0.4982 -0.2410  0.3154
 2786SOL     OW 8356   1.600   0.715   7.442  0.0751  0.2100  0.2382
 2786SOL    HW1 8357   1.533   0.671   7.389 -0.9572  2.0894 -0.1051
 2786SOL    HW2 8358   1.667   0.741   7.379  0.5046 -0.5062  0.3872
 2787SOL     OW 8359   0.845   3.377   6.963 -0.1417 -0.3225  0.0934
 2787SOL    HW1 8360   0.925   3.328   6.946 -0.6984 -1.3400  0.3361
 2787SOL    HW2 8361   0.857   3.415   7.050  0.6106  0.6326 -0.4179
 2788SOL     OW 8362   1.711   4.315   7.975 -0.0163  0.6441 -0.1107
 2788SOL    HW1 8363   1.676   4.227   7.958  0.1804  0.3230  1.0523
 2788SOL    HW2 8364   1.674   4.369   7.905 -0.4329 -0.2863 -0.6373
 2789SOL     OW 8365   3.318   4.127   8.124  0.4924 -0.0426 -0.0492
 2789SOL    HW1 8366   3.376   4.057   8.095  2.1137  1.6501 -1.1357
 2789SOL    HW2 8367   3.283   4.097   8.208  0.0498 -2.6947 -1.0990
 2790SOL     OW 8368   2.290   4.207   5.064 -0.1516  0.2043  0.3278
 2790SOL    HW1 8369   2.240   4.288   5.068 -1.9040 -0.6817 -1.8654
 2790SOL    HW2 8370   2.230   4.140   5.096 -0.7563 -0.9653 -2.8803
 2791SOL     OW 8371   2.503   5.001   5.175  0.3948  0.3049 -0.6578
 2791SOL    HW1 8372   2.447   4.942   5.225  0.7792  0.7643  0.3453
 2791SOL    HW2 8373   2.592   4.972   5.194  0.6408  1.6402  0.5044
 2792SOL     OW 8374   3.031   4.567   5.311  0.2431  0.0370  0.4066
 2792SOL    HW1 8375   3.015   4.475   5.330  2.6209 -0.7120 -0.7327
 2792SOL    HW2 8376   3.126   4.572   5.294 -0.2244  2.1563 -2.2781
 2793SOL     OW 8377   2.727   3.592   6.967  0.3639  0.3086 -0.1630
 2793SOL    HW1 8378   2.634   3.569   6.957  0.2807  0.7266 -0.4157
 2793SOL    HW2 8379   2.726   3.670   7.023  0.5701  0.2301 -0.0525
 2794SOL     OW 8380   1.042   3.785   5.339 -0.1955  0.1551  0.1834
 2794SOL    HW1 8381   1.030   3.873   5.376  0.4422  0.4482 -0.2883
 2794SOL    HW2 8382   1.023   3.726   5.412 -3.9299  0.5383 -0.2727
 2795SOL     OW 8383   4.573   4.626   6.452  0.1448  0.5048 -0.0055
 2795SOL    HW1 8384   4.497   4.585   6.411 -0.7060  0.4452  1.5319
 2795SOL    HW2 8385   4.613   4.556   6.504  0.0557  1.0081  0.7681
 2796SOL     OW 8386   1.930   4.718   7.129 -0.2192  0.4006  0.5494
 2796SOL    HW1 8387   1.927   4.634   7.083  1.3929  0.1057  0.9059
 2796SOL    HW2 8388   1.866   4.709   7.200 -0.6165 -0.2287  0.1241
 2797SOL     OW 8389   0.257   0.585   5.788 -0.1745 -0.5545 -0.1740
 2797SOL    HW1 8390   0.221   0.611   5.873 -1.7384 -1.5384 -0.5048
 2797SOL    HW2 8391   0.339   0.540   5.810 -1.4877 -2.5110  1.0173
 2798SOL     OW 8392   3.263   4.172   5.412  0.8565  1.1551 -0.3520
 2798SOL    HW1 8393   3.168   4.183   5.414  0.9183  1.5734  0.6982
 2798SOL    HW2 8394   3.298   4.254   5.446  1.5157  0.1441  1.5686
 2799SOL     OW 8395   4.599   0.218   6.373  0.4836  0.4126  0.0521
 2799SOL    HW1 8396   4.630   0.277   6.304 -0.2614  0.7250 -0.0232
 2799SOL    HW2 8397   4.595   0.273   6.452  0.2653  0.3371  0.0940
 2800SOL     OW 8398   3.722   0.604   6.067 -0.4428 -0.0599 -0.0735
 2800SOL    HW1 8399   3.789   0.546   6.032 -1.1143 -0.6747 -0.3615
 2800SOL    HW2 8400   3.765   0.648   6.141  0.0962 -0.8943  0.1266
 2801SOL     OW 8401   2.910   1.542   7.482 -1.2214  0.9712 -0.0744
 2801SOL    HW1 8402   2.989   1.591   7.463 -0.4989 -0.0253  0.2644
 2801SOL    HW2 8403   2.852   1.605   7.524  0.4447  1.1264  2.2227
 2802SOL     OW 8404   3.222   3.451   5.429 -0.2595  0.0868 -0.0533
 2802SOL    HW1 8405   3.175   3.458   5.512  1.8159 -2.2612  1.4354
 2802SOL    HW2 8406   3.292   3.516   5.435  0.0008 -0.2081  0.1268
 2803SOL     OW 8407   3.893   0.833   6.529  0.3826  0.2391  0.4720
 2803SOL    HW1 8408   3.886   0.917   6.574  1.0539  0.9400 -0.6921
 2803SOL    HW2 8409   3.984   0.827   6.502 -0.0337 -0.0891 -0.9144
 2804SOL     OW 8410   4.648   0.533   4.897 -0.3366 -0.3397 -0.7006
 2804SOL    HW1 8411   4.740   0.555   4.915 -1.1564  1.8652  1.4812
 2804SOL    HW2 8412   4.639   0.442   4.926  0.8113 -0.0325  0.7860
 2805SOL     OW 8413   4.379   0.663   5.463  0.4604  0.1301 -0.1537
 2805SOL    HW1 8414   4.439   0.593   5.437  2.2778  1.1154  1.1231
 2805SOL    HW2 8415   4.426   0.744   5.441  0.4512  0.9588  2.5284
 2806SOL     OW 8416   0.750   3.838   6.957  0.3276  0.2950  0.1016
 2806SOL    HW1 8417   0.691   3.763   6.956  1.3160 -0.5016 -0.2561
 2806SOL    HW2 8418   0.807   3.826   6.881  0.2609  1.6196 -0.1905
 2807SOL     OW 8419   3.324   4.283   7.727  0.0126 -0.2622  0.3976
 2807SOL    HW1 8420   3.247   4.239   7.691  0.2533  0.0593 -0.5374
 2807SOL    HW2 8421   3.397   4.223   7.709  0.5204  0.9320 -1.8668
 2808SOL     OW 8422   2.454   3.671   8.346 -0.3325  0.1106 -0.4319
 2808SOL    HW1 8423   2.517   3.601   8.330 -0.7880 -0.0329 -1.7288
 2808SOL    HW2 8424   2.508   3.747   8.367  0.1610 -0.6282  1.1050
 2809SOL     OW 8425   4.612   3.486   6.656  0.2421  0.0702 -0.1695
 2809SOL    HW1 8426   4.640   3.399   6.627 -1.3681 -0.8089  0.8007
 2809SOL    HW2 8427   4.613   3.481   6.752 -0.1777  1.0303 -0.0990
 2810SOL     OW 8428   2.911   4.141   7.448 -0.3134 -0.3878  0.0596
 2810SOL    HW1 8429   2.927   4.159   7.355  0.4518 -0.0236  0.2477
 2810SOL    HW2 8430   2.864   4.058   7.450 -2.6513  0.8157 -0.7862
 2811SOL     OW 8431   2.203   2.798   7.497 -0.3927  0.1656  0.0414
 2811SOL    HW1 8432   2.292   2.816   7.528  0.5223  0.2840 -2.4057
 2811SOL    HW2 8433   2.150   2.792   7.576  1.9826 -1.0037  1.6373
 2812SOL     OW 8434   2.609   4.256   8.354  0.1635  0.0184  0.1504
 2812SOL    HW1 8435   2.521   4.226   8.375  0.4981 -0.4486  0.9357
 2812SOL    HW2 8436   2.608   4.268   8.259 -0.9269  0.6526  0.2263
 2813SOL     OW 8437   0.932   0.849   8.667  0.1753  0.3399  0.2727
 2813SOL    HW1 8438   1.014   0.806   8.694  0.5622  1.0908  0.3390
 2813SOL    HW2 8439   0.929   0.837   8.572  0.3150  0.2054  0.2847
 2814SOL     OW 8440   2.801   4.530   8.257  0.2178 -0.4705  0.7450
 2814SOL    HW1 8441   2.896   4.523   8.263  0.3387 -0.2923 -0.5959
 2814SOL    HW2 8442   2.772   4.441   8.234 -0.2623 -1.2522  3.8459
 2815SOL     OW 8443   2.050   3.178   9.621 -0.5681 -0.4722 -0.6338
 2815SOL    HW1 8444   2.056   3.259   9.571 -0.8449  0.1944  0.3697
 2815SOL    HW2 8445   2.141   3.156   9.643 -0.5549  0.0922 -0.1086
 2816SOL     OW 8446   2.860   1.383   7.710  0.2917  0.3799 -0.6127
 2816SOL    HW1 8447   2.906   1.406   7.791 -0.5806  2.2537 -0.6054
 2816SOL    HW2 8448   2.885   1.451   7.648 -0.3071 -0.1463 -1.4542
 2817SOL     OW 8449   3.703   4.405   7.083  0.1766  0.2596  0.2767
 2817SOL    HW1 8450   3.626   4.352   7.101  0.1467  0.7461  1.6865
 2817SOL    HW2 8451   3.692   4.483   7.137  0.4280  1.5372 -1.4201
 2818SOL     OW 8452   2.093   4.870   5.422  0.4615 -0.5833 -0.0797
 2818SOL    HW1 8453   2.168   4.830   5.467  1.6501  0.8240 -0.7206
 2818SOL    HW2 8454   2.040   4.907   5.492  2.2165  1.4666  0.2578
 2819SOL     OW 8455   4.973   3.131   9.727  0.5026  0.5440 -0.9449
 2819SOL    HW1 8456   4.921   3.211   9.732  0.7586  0.6431  0.3175
 2819SOL    HW2 8457   4.998   3.125   9.635  0.6043  1.9911 -1.0338
 2820SOL     OW 8458   0.564   4.033   7.594  0.3610  0.2589 -0.4318
 2820SOL    HW1 8459   0.653   4.021   7.561  1.5206  1.8290  1.7817
 2820SOL    HW2 8460   0.567   3.998   7.683 -0.3168  2.9236  0.7394
 2821SOL     OW 8461   1.104   4.919   7.823  0.1467 -0.3464 -1.0888
 2821SOL    HW1 8462   1.164   4.891   7.891 -0.0726 -0.0717 -0.7753
 2821SOL    HW2 8463   1.017   4.900   7.858 -0.0123  0.7499 -0.8358
 2822SOL     OW 8464   4.249   1.085   5.138  0.2124 -0.3103 -0.7097
 2822SOL    HW1 8465   4.153   1.081   5.131  0.1522 -1.2676  0.2783
 2822SOL    HW2 8466   4.268   1.045   5.223  1.4205  1.0250 -0.3123
 2823SOL     OW 8467   3.381   1.037   8.936  0.1553  0.0139  0.1808
 2823SOL    HW1 8468   3.322   1.103   8.972  0.8356  0.3350  0.7132
 2823SOL    HW2 8469   3.345   0.954   8.967 -0.7644  0.1049 -0.5759
 2824SOL     OW 8470   4.704   4.245   7.163 -0.0036  0.1826  0.5313
 2824SOL    HW1 8471   4.685   4.192   7.086 -0.5876 -0.3903  1.0578
 2824SOL    HW2 8472   4.647   4.321   7.154  0.8066  0.7127 -0.2062
 2825SOL     OW 8473   2.588   3.866   5.580 -0.7178  0.0619  0.0878
 2825SOL    HW1 8474   2.649   3.891   5.510  0.3487 -1.3581  0.4703
 2825SOL    HW2 8475   2.641   3.867   5.660 -1.1458 -1.3163  0.4125
 2826SOL     OW 8476   4.178   2.338   8.384  0.0785 -0.2333  0.5667
 2826SOL    HW1 8477   4.108   2.362   8.324 -0.5139  0.4375  1.4965
 2826SOL    HW2 8478   4.234   2.279   8.333 -0.7051 -0.1335 -0.4496
 2827SOL     OW 8479   2.233   4.433   7.208  0.0902  0.3411  0.5191
 2827SOL    HW1 8480   2.274   4.518   7.199 -0.3628  0.5429  0.3430
 2827SOL    HW2 8481   2.165   4.431   7.141 -0.0648 -0.0603  0.6807
 2828SOL     OW 8482   2.190   0.344   9.967  0.3187  0.2310 -0.5090
 2828SOL    HW1 8483   2.224   0.434   9.963 -0.7667  0.6941  0.3237
 2828SOL    HW2 8484   2.143   0.333   9.884 -0.2601  0.7336 -0.2530
 2829SOL     OW 8485   3.390   4.408   6.001  0.6135  0.1647 -0.2895
 2829SOL    HW1 8486   3.372   4.387   5.909  0.6937  0.6571 -0.4221
 2829SOL    HW2 8487   3.313   4.379   6.048  1.5031 -2.2566 -0.1795
 2830SOL     OW 8488   3.043   3.691   8.207  0.0364  0.2822  0.1300
 2830SOL    HW1 8489   2.977   3.740   8.157 -0.4741  0.9179  1.3763
 2830SOL    HW2 8490   2.998   3.611   8.234  0.3353 -0.0960 -0.4674
 2831SOL     OW 8491   3.668   3.882   9.286 -0.4342 -0.2206 -0.1751
 2831SOL    HW1 8492   3.689   3.921   9.201 -0.2159 -1.4162 -0.6939
 2831SOL    HW2 8493   3.715   3.936   9.350  0.4288 -0.0685 -0.9294
 2832SOL     OW 8494   2.485   1.637   6.014  0.2087 -0.0574 -0.0381
 2832SOL    HW1 8495   2.530   1.677   6.088 -0.2279 -1.3397  0.9393
 2832SOL    HW2 8496   2.412   1.588   6.052 -1.4895  1.1724 -1.4928
 2833SOL     OW 8497   1.400   4.363   7.886 -0.5310 -0.3312 -0.3942
 2833SOL    HW1 8498   1.429   4.286   7.837 -1.4527  0.1668 -1.7822
 2833SOL    HW2 8499   1.347   4.326   7.957  0.7303 -1.0605  0.1920
 2834SOL     OW 8500   0.664   0.577   7.843 -0.0965  0.2631  0.5198
 2834SOL    HW1 8501   0.683   0.555   7.752 -0.5538  0.0049  0.4880
 2834SOL    HW2 8502   0.749   0.569   7.887  0.3171  1.3404 -0.0681
 2835SOL     OW 8503   4.368   4.927   7.648  0.3155  0.6277  0.0361
 2835SOL    HW1 8504   4.373   4.994   7.716  0.9779 -0.1416  0.7548
 2835SOL    HW2 8505   4.389   4.845   7.693  0.8405  0.1188 -1.1032
 2836SOL     OW 8506   1.299   4.446   8.579 -0.0319 -0.3258  0.0913
 2836SOL    HW1 8507   1.215   4.420   8.542  0.1811 -0.2506 -0.4443
 2836SOL    HW2 8508   1.328   4.370   8.630 -0.9799  0.0617  1.2707
 2837SOL     OW 8509   1.183   0.649   6.413  0.6174 -0.5458 -0.4297
 2837SOL    HW1 8510   1.136   0.581   6.364 -1.0343  1.4564 -1.7873
 2837SOL    HW2 8511   1.208   0.714   6.347  2.9474 -0.1807  0.6900
 2838SOL     OW 8512   4.359   2.855   9.254 -0.1865 -0.5621  0.0962
 2838SOL    HW1 8513   4.358   2.896   9.168  0.9670  1.2647  0.8915
 2838SOL    HW2 8514   4.432   2.794   9.251 -2.0275 -2.9084 -1.1549
 2839SOL     OW 8515   1.720   4.804   6.577 -0.4043  0.0939  0.5238
 2839SOL    HW1 8516   1.764   4.872   6.527 -0.8035 -1.2325 -1.7593
 2839SOL    HW2 8517   1.695   4.847   6.659 -1.1010  2.8592 -1.0061
 2840SOL     OW 8518   2.446   0.314   9.158 -0.3892  0.3074  0.1553
 2840SOL    HW1 8519   2.393   0.392   9.137  1.3866  1.5178 -0.0646
 2840SOL    HW2 8520   2.532   0.349   9.181  0.8639 -1.6601 -1.2025
 2841SOL     OW 8521   3.831   3.003   9.245  0.0422 -0.1030  0.1128
 2841SOL    HW1 8522   3.826   2.908   9.250  0.0127 -0.0358  1.5047
 2841SOL    HW2 8523   3.840   3.032   9.335  1.0935  1.1719 -0.3682
 2842SOL     OW 8524   1.465   4.734   9.077 -0.3348  0.1630 -0.6126
 2842SOL    HW1 8525   1.457   4.829   9.087  2.2514  0.3274  0.6870
 2842SOL    HW2 8526   1.381   4.699   9.108  0.2028  1.8338  3.1721
 2843SOL     OW 8527   4.400   0.842   8.534  0.2285  0.5175 -0.1212
 2843SOL    HW1 8528   4.343   0.771   8.562  0.7450  0.5698  1.1467
 2843SOL    HW2 8529   4.475   0.798   8.494  0.1083  0.3834 -0.1985
 2844SOL     OW 8530   0.670   2.928   9.482 -0.2516  0.6775 -0.8329
 2844SOL    HW1 8531   0.728   2.948   9.408 -0.2812  0.6516 -0.8637
 2844SOL    HW2 8532   0.681   2.834   9.495  2.2407  1.1673  1.3009
 2845SOL     OW 8533   4.337   4.484   6.320 -0.0534 -0.1870 -0.0573
 2845SOL    HW1 8534   4.342   4.422   6.248 -2.2155 -1.1152  0.5056
 2845SOL    HW2 8535   4.245   4.483   6.347  0.0194  2.5703  0.6191
 2846SOL     OW 8536   4.924   0.128   8.451  0.3070  0.1324  0.3467
 2846SOL    HW1 8537   4.950   0.220   8.458 -0.8910  0.4212  1.3561
 2846SOL    HW2 8538   4.960   0.099   8.367  0.0856  1.7196 -0.3231
 2847SOL     OW 8539   4.116   4.617   8.620  0.1304  0.0199  0.5104
 2847SOL    HW1 8540   4.156   4.676   8.557  0.0972 -0.5306 -0.0322
 2847SOL    HW2 8541   4.108   4.669   8.700 -1.8970  1.4672 -0.5399
 2848SOL     OW 8542   3.458   4.918   5.583  0.1549  0.5287 -0.1051
 2848SOL    HW1 8543   3.526   4.982   5.563  0.5179 -0.2847 -1.6762
 2848SOL    HW2 8544   3.392   4.931   5.515  0.6709 -1.2945 -1.0461
 2849SOL     OW 8545   0.976   3.214   9.257  0.2781 -0.3451  0.0117
 2849SOL    HW1 8546   1.016   3.245   9.176  0.5206 -0.7670 -0.0353
 2849SOL    HW2 8547   0.953   3.294   9.304  0.5749 -0.0948 -0.2575
 2850SOL     OW 8548   0.236   3.828   7.827  0.4069 -0.0971  0.3157
 2850SOL    HW1 8549   0.311   3.830   7.888  0.2966  0.4939  0.4374
 2850SOL    HW2 8550   0.274   3.850   7.742  0.1866  1.3604  0.5837
 2851SOL     OW 8551   2.876   0.036   7.863  0.6078 -0.0468 -1.2274
 2851SOL    HW1 8552   2.867  -0.056   7.835 -1.0415 -0.1198 -0.5696
 2851SOL    HW2 8553   2.802   0.050   7.922 -0.0461  2.1273 -2.4463
 2852SOL     OW 8554   3.359   3.576   8.946 -0.9782  0.0612  0.5234
 2852SOL    HW1 8555   3.300   3.514   8.988 -0.3264  0.5070  2.1822
 2852SOL    HW2 8556   3.425   3.594   9.012  1.1362 -0.5305 -1.2839
 2853SOL     OW 8557   0.995   4.623   8.856 -0.0544 -0.2461 -0.4402
 2853SOL    HW1 8558   1.079   4.631   8.811  1.0184 -0.4343  1.4186
 2853SOL    HW2 8559   1.012   4.655   8.945 -1.8811 -0.5395  0.0585
 2854SOL     OW 8560   0.605   3.516   7.351  0.4533  0.2089 -0.2295
 2854SOL    HW1 8561   0.528   3.468   7.382  0.5511  0.3112  0.1774
 2854SOL    HW2 8562   0.570   3.599   7.319  0.5120  0.7699  1.0835
 2855SOL     OW 8563   3.420   2.148   9.436  0.5879  0.3501  0.1233
 2855SOL    HW1 8564   3.437   2.154   9.530  1.8451  1.0196 -0.1231
 2855SOL    HW2 8565   3.374   2.229   9.414  1.5772  0.8842 -0.0651
 2856SOL     OW 8566   0.386   4.257   7.600  0.1502 -0.2074  0.4763
 2856SOL    HW1 8567   0.444   4.333   7.604  0.7754 -0.4200 -2.3805
 2856SOL    HW2 8568   0.445   4.182   7.592 -0.4886 -0.7461  0.6982
 2857SOL     OW 8569   2.791   3.003   5.188 -0.3695  0.3810  0.4396
 2857SOL    HW1 8570   2.825   2.953   5.114  0.9087  1.8573 -0.0278
 2857SOL    HW2 8571   2.750   2.938   5.245  2.1719 -1.3823  0.4143
 2858SOL     OW 8572   1.539   4.792   9.456  0.0443  0.1474  0.6962
 2858SOL    HW1 8573   1.461   4.736   9.456 -0.0643  0.2877  1.1794
 2858SOL    HW2 8574   1.586   4.766   9.535  1.2107 -0.9066 -0.3049
 2859SOL     OW 8575   2.424   3.070   6.834 -0.2620 -0.4454 -0.3895
 2859SOL    HW1 8576   2.484   3.073   6.759 -1.2046  0.5533 -1.1430
 2859SOL    HW2 8577   2.392   2.980   6.836  0.3090 -0.6595 -0.7620
 2860SOL     OW 8578   2.717   3.953   7.369 -0.3572 -0.2111 -0.2157
 2860SOL    HW1 8579   2.666   3.872   7.371 -1.3368  0.3947  0.4277
 2860SOL    HW2 8580   2.661   4.017   7.414 -1.2344  1.7821 -3.7908
 2861SOL     OW 8581   2.173   4.491   6.607  0.3243  0.1120 -0.1197
 2861SOL    HW1 8582   2.206   4.491   6.697  0.4922  0.1522 -0.1805
 2861SOL    HW2 8583   2.081   4.518   6.615  0.7093  1.5176 -0.0934
 2862SOL     OW 8584   0.164   4.714   7.088  0.2526  0.5808 -0.5674
 2862SOL    HW1 8585   0.211   4.660   7.153  0.1919  2.3300  0.9897
 2862SOL    HW2 8586   0.120   4.781   7.139 -0.8944  1.2487 -2.3423
 2863SOL     OW 8587   4.638   3.866  10.035  0.4226  0.1761  0.0117
 2863SOL    HW1 8588   4.613   3.958  10.048  1.0009  0.7094 -2.1544
 2863SOL    HW2 8589   4.588   3.818  10.100 -1.2920  1.8570  0.0419
 2864SOL     OW 8590   2.594   4.426   8.728 -0.6476 -0.1875 -0.7551
 2864SOL    HW1 8591   2.673   4.450   8.679  0.1920 -1.5945 -0.1680
 2864SOL    HW2 8592   2.593   4.486   8.802  1.0903 -1.4677  0.3850
 2865SOL     OW 8593   3.096   0.144   8.164  0.2685  0.0442  0.1132
 2865SOL    HW1 8594   3.144   0.155   8.246 -0.2115 -2.3529  0.7957
 2865SOL    HW2 8595   3.082   0.049   8.157 -0.1809  0.2355 -2.4758
 2866SOL     OW 8596   0.820   3.972   7.491  0.5919  0.0593 -0.4730
 2866SOL    HW1 8597   0.783   3.947   7.406 -0.2040 -1.4397  0.2822
 2866SOL    HW2 8598   0.905   4.012   7.469 -0.6888  2.1078 -2.1280
 2867SOL     OW 8599   3.465   3.465   9.410 -0.0387 -0.2810  0.1791
 2867SOL    HW1 8600   3.413   3.507   9.479  1.2392  0.6515  0.6246
 2867SOL    HW2 8601   3.505   3.538   9.363  2.0757 -0.9429  0.8348
 2868SOL     OW 8602   2.906   0.256   6.558  0.0584 -0.1534  0.1564
 2868SOL    HW1 8603   2.995   0.228   6.537  0.2283 -1.2913  2.1625
 2868SOL    HW2 8604   2.851   0.201   6.501  0.5846  1.0407 -1.6057
 2869SOL     OW 8605   3.706   4.459   7.750  0.5860  0.5740  0.4835
 2869SOL    HW1 8606   3.612   4.449   7.734  0.4596 -0.9589  1.8918
 2869SOL    HW2 8607   3.718   4.553   7.762 -1.1663  0.6165  2.4075
 2870SOL     OW 8608   1.855   4.435   9.379 -0.0297  0.0829 -0.3680
 2870SOL    HW1 8609   1.781   4.492   9.358  1.9231  3.4040  1.1096
 2870SOL    HW2 8610   1.911   4.437   9.301 -0.7360 -1.3266 -0.9606
 2871SOL     OW 8611   2.384   4.698   7.382 -0.5309  0.2325  0.0185
 2871SOL    HW1 8612   2.441   4.623   7.361 -0.6052  0.0163  0.5637
 2871SOL    HW2 8613   2.355   4.730   7.297 -1.1656 -0.8833 -0.2162
 2872SOL     OW 8614   1.934   3.084   9.353  0.0532  0.5602  0.1124
 2872SOL    HW1 8615   1.918   3.167   9.308 -0.9000  0.5397  0.3789
 2872SOL    HW2 8616   1.865   3.080   9.419  1.0328  0.2876  1.1499
 2873SOL     OW 8617   3.437   4.255   7.060  0.2678 -0.0850  0.2443
 2873SOL    HW1 8618   3.365   4.305   7.021 -0.0089  0.8001  1.8213
 2873SOL    HW2 8619   3.479   4.212   6.985 -0.6166  1.0363 -0.9508
 2874SOL     OW 8620   2.084   2.568   8.500  0.0371  0.1326  0.0454
 2874SOL    HW1 8621   2.013   2.623   8.466  0.6791  0.6518 -0.4961
 2874SOL    HW2 8622   2.159   2.628   8.506  0.9682 -0.8355 -1.2863
 2875SOL     OW 8623   3.507   4.921   7.618 -0.3481 -0.0423  0.4806
 2875SOL    HW1 8624   3.435   4.902   7.558 -0.8425 -0.9829  1.3318
 2875SOL    HW2 8625   3.485   4.872   7.698  0.8418  0.2862  1.0353
 2876SOL     OW 8626   0.758   4.662   7.733  0.1760  0.2056  0.3614
 2876SOL    HW1 8627   0.851   4.638   7.729 -0.4397 -2.3440 -0.7278
 2876SOL    HW2 8628   0.753   4.745   7.684  1.9471  0.7782  1.0509
 2877SOL     OW 8629   4.378   4.653   8.789 -0.5085 -0.3401  0.0562
 2877SOL    HW1 8630   4.310   4.703   8.745  0.1820  0.3141 -0.2972
 2877SOL    HW2 8631   4.460   4.684   8.749 -0.0203 -1.2850  0.2905
 2878SOL     OW 8632   3.313   1.344   7.759  0.2172 -0.2538 -0.0620
 2878SOL    HW1 8633   3.363   1.294   7.695  0.4617  0.6998 -0.6329
 2878SOL    HW2 8634   3.271   1.277   7.814  0.5903 -1.0740 -0.7511
 2879SOL     OW 8635   2.317   4.315   7.429 -0.2118  0.0926 -0.2977
 2879SOL    HW1 8636   2.248   4.250   7.445  0.9864 -0.9478  0.8799
 2879SOL    HW2 8637   2.295   4.353   7.344 -1.7098 -0.8886 -0.3801
 2880SOL     OW 8638   2.891   1.403   9.385 -0.1920  0.3545 -0.5642
 2880SOL    HW1 8639   2.929   1.388   9.472 -0.9076  1.6078 -0.0087
 2880SOL    HW2 8640   2.960   1.447   9.336  0.0591  0.0347 -0.5075
 2881SOL     OW 8641   2.390   4.481   8.483  0.4283 -0.8439 -0.5435
 2881SOL    HW1 8642   2.483   4.467   8.466  0.3903 -0.0240 -1.5525
 2881SOL    HW2 8643   2.354   4.505   8.398 -0.8615 -1.8762 -0.3231
 2882SOL     OW 8644   4.955   3.391   8.115 -0.1750 -0.2620  0.1305
 2882SOL    HW1 8645   4.903   3.444   8.176 -0.8934 -1.4236  0.5651
 2882SOL    HW2 8646   5.046   3.419   8.131 -0.5133  0.6570  0.5144
 2883SOL     OW 8647   4.111   1.751   5.245 -0.2620 -0.1617 -0.6252
 2883SOL    HW1 8648   4.194   1.705   5.234  0.5983 -0.0262  3.5870
 2883SOL    HW2 8649   4.118   1.828   5.190  2.2613 -0.3817 -0.7005
 2884SOL     OW 8650   2.750   1.693   8.664 -0.8417 -0.7550  0.3125
 2884SOL    HW1 8651   2.812   1.622   8.680  0.1345  0.1210  0.5602
 2884SOL    HW2 8652   2.719   1.717   8.751  0.6738  0.6995  0.4936
 2885SOL     OW 8653   1.447   2.839   7.063  0.0936  0.4267  0.0682
 2885SOL    HW1 8654   1.443   2.883   7.148  1.6006 -3.1597  2.2514
 2885SOL    HW2 8655   1.540   2.833   7.043 -0.1279 -0.5081 -0.8047
 2886SOL     OW 8656   4.972   1.029  10.042 -1.0678  0.0973  0.1857
 2886SOL    HW1 8657   4.923   1.076   9.975 -2.4729  0.1673  1.2076
 2886SOL    HW2 8658   5.029   1.094  10.081  0.7170 -0.2164 -1.7335
 2887SOL     OW 8659   1.092   3.158   9.934 -0.5310  0.2943  0.5796
 2887SOL    HW1 8660   1.028   3.089   9.951 -2.5223  1.4133 -1.7102
 2887SOL    HW2 8661   1.135   3.172  10.018 -1.1804 -2.5655  1.5028
 2888SOL     OW 8662   3.579   2.633   6.111 -0.4106  0.3429 -0.4040
 2888SOL    HW1 8663   3.597   2.689   6.035 -0.9145 -1.3292 -1.8000
 2888SOL    HW2 8664   3.665   2.599   6.136 -0.4522 -0.5365 -1.4003
 2889SOL     OW 8665   2.890   4.588   7.681 -0.3093  0.4346 -0.1958
 2889SOL    HW1 8666   2.956   4.559   7.745  0.2370  1.8487 -0.0901
 2889SOL    HW2 8667   2.826   4.636   7.733 -0.4171  0.7020 -0.5765
 2890SOL     OW 8668   2.964   0.925   9.087  0.2193 -0.2082 -0.5621
 2890SOL    HW1 8669   2.887   0.870   9.070  0.8826 -1.8413  1.2276
 2890SOL    HW2 8670   2.976   0.976   9.008 -1.6378 -1.2323 -1.5703
 2891SOL     OW 8671   3.322   0.819   7.449 -0.3334  0.0745  0.0508
 2891SOL    HW1 8672   3.316   0.838   7.543  0.5174  0.5687  0.0234
 2891SOL    HW2 8673   3.408   0.778   7.439  0.2899  1.5053 -0.7347
 2892SOL     OW 8674   1.102   4.071   7.429 -0.2483 -0.0002  0.0881
 2892SOL    HW1 8675   1.126   3.978   7.424  1.8118  0.3662  1.6698
 2892SOL    HW2 8676   1.173   4.117   7.385  0.7900  1.0063  2.6533
 2893SOL     OW 8677   2.269   0.629   7.433 -0.1033 -0.2046  0.0009
 2893SOL    HW1 8678   2.276   0.612   7.527  0.4311 -0.1369 -0.0245
 2893SOL    HW2 8679   2.340   0.691   7.414 -0.7767  0.4937 -0.2815
 2894SOL     OW 8680   3.358   2.562   6.766  0.1711  0.3948 -0.9330
 2894SOL    HW1 8681   3.393   2.495   6.824 -0.3012  0.4073 -0.6264
 2894SOL    HW2 8682   3.404   2.549   6.683  0.3893 -0.0336 -0.7457
 2895SOL     OW 8683   3.316   2.384   7.578  0.0986  0.2927 -0.3332
 2895SOL    HW1 8684   3.239   2.437   7.597 -0.5641  0.8415 -3.7953
 2895SOL    HW2 8685   3.287   2.293   7.589  0.0420  0.5097  1.6666
 2896SOL     OW 8686   2.871   3.840   8.029  0.2336 -0.2148 -0.4375
 2896SOL    HW1 8687   2.797   3.796   7.988 -0.3215  0.4382 -0.1575
 2896SOL    HW2 8688   2.831   3.908   8.085  1.0221 -0.1190  0.0290
 2897SOL     OW 8689   0.580   0.031   9.370 -0.2156  0.0678  0.3252
 2897SOL    HW1 8690   0.536   0.103   9.325  0.8892 -0.1977 -1.2533
 2897SOL    HW2 8691   0.553  -0.047   9.321  0.0404 -0.3867  0.8980
 2898SOL     OW 8692   3.421   4.110   5.760 -0.3253  0.3937  0.9031
 2898SOL    HW1 8693   3.370   4.188   5.736  0.7323  1.3844  1.7689
 2898SOL    HW2 8694   3.447   4.072   5.677 -0.1063  1.4900  0.4483
 2899SOL     OW 8695   4.922   3.958   8.754 -0.3992  0.4335 -0.2269
 2899SOL    HW1 8696   4.949   4.050   8.749 -0.3538  0.4638  0.5699
 2899SOL    HW2 8697   4.835   3.956   8.713 -1.2104  1.1699  1.3754
 2900SOL     OW 8698   3.576   0.633   8.076  0.6866  0.4657 -0.3823
 2900SOL    HW1 8699   3.494   0.661   8.117  1.7727  0.9122  1.5963
 2900SOL    HW2 8700   3.566   0.657   7.984 -1.6351 -0.0592 -0.3340
 2901SOL     OW 8701   3.631   3.442   9.977 -0.3303 -0.7007 -0.6141
 2901SOL    HW1 8702   3.667   3.354   9.990  0.3116 -0.1923  1.3911
 2901SOL    HW2 8703   3.684   3.479   9.906  1.5303 -0.8677  0.6143
 2902SOL     OW 8704   1.070   2.798   7.909 -0.4419  0.2053  0.2433
 2902SOL    HW1 8705   1.023   2.806   7.992 -0.7985 -0.1804  0.0833
 2902SOL    HW2 8706   1.044   2.712   7.875 -0.9957  0.7324 -0.6928
 2903SOL     OW 8707   3.982   1.993   6.318  0.0499  0.1389  0.4662
 2903SOL    HW1 8708   3.963   2.058   6.250 -0.6964 -0.5645 -0.0372
 2903SOL    HW2 8709   4.057   2.028   6.365  0.4754  0.7475 -0.6095
 2904SOL     OW 8710   3.872   0.187   7.896 -0.5947 -0.0774  0.4760
 2904SOL    HW1 8711   3.857   0.118   7.961 -0.9769 -0.5027 -0.0584
 2904SOL    HW2 8712   3.823   0.262   7.929  2.1582  0.9841  2.6381
 2905SOL     OW 8713   4.722   3.323   8.605 -0.2713 -0.3718 -0.3495
 2905SOL    HW1 8714   4.736   3.242   8.555  0.0084 -1.3379  1.2311
 2905SOL    HW2 8715   4.747   3.301   8.694  0.1809  1.5951  0.0518
 2906SOL     OW 8716   4.495   4.373   8.364 -0.2434 -0.4528 -0.2196
 2906SOL    HW1 8717   4.541   4.456   8.352 -2.4945  0.9328  0.0457
 2906SOL    HW2 8718   4.423   4.376   8.301 -1.7056 -1.1540  1.3322
 2907SOL     OW 8719   2.418   0.031   8.382 -0.1375  0.4434  0.9113
 2907SOL    HW1 8720   2.397   0.056   8.472 -0.5968  0.4942  0.7901
 2907SOL    HW2 8721   2.383   0.101   8.328 -0.4431  0.0954  0.6493
 2908SOL     OW 8722   4.408   3.175   7.129  0.8745  0.3749 -0.0222
 2908SOL    HW1 8723   4.499   3.190   7.155  0.6665 -1.4922  2.1787
 2908SOL    HW2 8724   4.356   3.219   7.197  0.1235  0.8311 -0.8716
 2909SOL     OW 8725   2.912   1.627   8.196  0.6358 -0.4361  0.0652
 2909SOL    HW1 8726   2.847   1.565   8.230 -0.9804  1.5154  0.7779
 2909SOL    HW2 8727   2.974   1.639   8.268  0.1912 -0.2440  0.4224
 2910SOL     OW 8728   2.881   2.322   7.794 -0.0457 -0.9062 -0.1807
 2910SOL    HW1 8729   2.819   2.371   7.848 -0.5835  0.5004 -1.9693
 2910SOL    HW2 8730   2.829   2.251   7.756 -0.2069 -0.6172 -0.5074
 2911SOL     OW 8731   1.924   4.980   8.614 -0.3329  0.1250 -0.0922
 2911SOL    HW1 8732   1.863   4.941   8.676 -0.9575  1.1499 -0.0309
 2911SOL    HW2 8733   2.000   4.922   8.614 -0.7773 -0.4692  0.8093
 2912SOL     OW 8734   4.131   2.776   8.218 -0.2102 -0.3231 -0.6280
 2912SOL    HW1 8735   4.110   2.755   8.309  1.3974 -1.9101 -0.5738
 2912SOL    HW2 8736   4.068   2.725   8.166  1.5383 -2.8533 -0.4221
 2913SOL     OW 8737   1.848   2.341   6.409  0.0583  0.0867 -0.0919
 2913SOL    HW1 8738   1.882   2.403   6.344 -1.1589  0.6333 -0.2420
 2913SOL    HW2 8739   1.755   2.360   6.413 -0.2279 -1.3063  0.3650
 2914SOL     OW 8740   2.311   0.518   8.414  0.3376 -0.1958  0.7550
 2914SOL    HW1 8741   2.225   0.561   8.414  0.8638  0.9634 -0.7930
 2914SOL    HW2 8742   2.355   0.553   8.492 -0.8304 -1.4224  2.0334
 2915SOL     OW 8743   1.393   4.518   6.410 -0.3525 -0.4464  0.2566
 2915SOL    HW1 8744   1.435   4.594   6.370 -1.2928  1.0828  2.0087
 2915SOL    HW2 8745   1.465   4.458   6.427  0.3992 -0.0617 -1.3202
 2916SOL     OW 8746   1.637   4.376   8.511 -0.3298 -0.4386 -0.2749
 2916SOL    HW1 8747   1.542   4.365   8.517 -0.1856 -2.0215 -0.6420
 2916SOL    HW2 8748   1.652   4.414   8.425 -0.6855  0.7499  0.1685
 2917SOL     OW 8749   4.988   0.445   9.577 -0.2040  0.4535 -0.1054
 2917SOL    HW1 8750   4.955   0.408   9.495 -0.3048  0.9449 -0.2901
 2917SOL    HW2 8751   4.921   0.508   9.603  0.1526  0.7870  0.0040
 2918SOL     OW 8752   1.428   4.543   7.188 -0.0230  0.2382 -0.1052
 2918SOL    HW1 8753   1.409   4.505   7.274  0.7886 -2.0637 -0.8424
 2918SOL    HW2 8754   1.522   4.530   7.177  0.1595  1.8665 -0.7626
 2919SOL     OW 8755   2.613   3.796   7.914 -0.6445  0.1446  0.9043
 2919SOL    HW1 8756   2.612   3.721   7.973  0.4891 -2.2239 -1.8856
 2919SOL    HW2 8757   2.554   3.773   7.843 -0.1871  1.8604 -0.1072
 2920SOL     OW 8758   3.399   2.788   8.095 -0.5837 -0.6846 -0.4153
 2920SOL    HW1 8759   3.386   2.694   8.103 -0.9387 -0.7290 -1.3942
 2920SOL    HW2 8760   3.487   2.797   8.057 -0.8752 -0.6626 -1.1050
 2921SOL     OW 8761   2.933   0.719   7.236 -0.2458 -0.2090 -0.1510
 2921SOL    HW1 8762   3.008   0.704   7.294  0.6002  1.7855 -0.6227
 2921SOL    HW2 8763   2.919   0.814   7.239 -1.6043 -0.3211 -1.4864
 2922SOL     OW 8764   3.356   4.750   9.034  0.0173  0.6501  0.3460
 2922SOL    HW1 8765   3.380   4.691   8.962 -0.8422  0.6343  0.0662
 2922SOL    HW2 8766   3.289   4.702   9.083  0.3206  0.8213  0.9370
 2923SOL     OW 8767   1.076   2.802   6.285 -0.3929 -0.6274  0.1746
 2923SOL    HW1 8768   1.046   2.807   6.376  1.3207  0.3554  0.7397
 2923SOL    HW2 8769   1.024   2.868   6.239 -1.9922 -1.8154  0.1514
 2924SOL     OW 8770   3.811   3.499   6.784 -0.1817 -0.5675  0.0014
 2924SOL    HW1 8771   3.788   3.540   6.867  1.0053  0.1277  0.0089
 2924SOL    HW2 8772   3.752   3.539   6.721  0.9098  1.1875  0.0180
 2925SOL     OW 8773   3.193   4.048   7.147 -0.2108  0.1215 -0.1525
 2925SOL    HW1 8774   3.171   4.047   7.053 -0.8554 -0.9431 -0.0066
 2925SOL    HW2 8775   3.161   4.133   7.177 -0.5520  0.2252 -0.7753
 2926SOL     OW 8776   0.770   0.205   8.777 -0.0909  0.6016 -0.1454
 2926SOL    HW1 8777   0.844   0.251   8.738  0.2200  0.3670  0.1646
 2926SOL    HW2 8778   0.806   0.122   8.807 -0.6082  0.2282 -0.5299
 2927SOL     OW 8779   2.638   3.795   9.097  0.6889  0.3148 -0.5452
 2927SOL    HW1 8780   2.564   3.849   9.124  0.7394  0.4356 -0.6474
 2927SOL    HW2 8781   2.712   3.856   9.095  1.0694 -0.0599  0.8497
 2928SOL     OW 8782   4.780   4.638   7.105 -0.2207  0.0291 -0.0474
 2928SOL    HW1 8783   4.811   4.599   7.187  1.8605  2.0308  0.2130
 2928SOL    HW2 8784   4.713   4.701   7.133 -0.0069  0.2128  0.0558
 2929SOL     OW 8785   2.548   0.199   7.094  0.5465 -0.7436 -0.4037
 2929SOL    HW1 8786   2.630   0.163   7.058  0.5756 -0.7439 -0.3370
 2929SOL    HW2 8787   2.577   0.264   7.158  0.4981 -0.4379 -0.6837
 2930SOL     OW 8788   1.652   3.610   8.226  0.2879  0.5246 -0.0919
 2930SOL    HW1 8789   1.652   3.517   8.246  0.2155  0.2415 -1.3153
 2930SOL    HW2 8790   1.745   3.633   8.221  0.3090  0.3933 -0.3184
 2931SOL     OW 8791   4.952   4.056   6.056 -0.0828  0.1629 -0.2756
 2931SOL    HW1 8792   5.043   4.074   6.076 -0.4287 -0.2078  1.8555
 2931SOL    HW2 8793   4.941   3.963   6.076 -1.0050  0.2893 -0.1209
 2932SOL     OW 8794   3.546   4.384   8.411  0.1231 -0.2188  0.1393
 2932SOL    HW1 8795   3.471   4.335   8.374  1.2144 -1.6395 -0.2955
 2932SOL    HW2 8796   3.586   4.426   8.335  0.8878 -1.0642  0.0604
 2933SOL     OW 8797   4.271   1.502   9.816  0.1584  0.4093 -0.2106
 2933SOL    HW1 8798   4.315   1.585   9.797 -2.6167  1.8182 -1.0280
 2933SOL    HW2 8799   4.327   1.435   9.777  2.9792  1.7261  1.2723
 2934SOL     OW 8800   2.207   4.220   8.193  0.3267  0.1530  0.0479
 2934SOL    HW1 8801   2.118   4.230   8.158 -0.2666 -0.0050  1.4422
 2934SOL    HW2 8802   2.264   4.239   8.118 -0.8584  1.1546 -0.6583
 2935SOL     OW 8803   0.357   3.940   8.584  0.2205  0.4876  0.0750
 2935SOL    HW1 8804   0.357   3.930   8.489  0.3582  1.4668 -0.0401
 2935SOL    HW2 8805   0.363   3.850   8.618 -1.7456 -0.0370 -0.8023
 2936SOL     OW 8806   2.712   0.070   5.827  0.2436  0.2122  0.2170
 2936SOL    HW1 8807   2.777   0.117   5.879 -0.1543  0.5306  0.4391
 2936SOL    HW2 8808   2.708   0.119   5.744  2.4510 -1.5448 -1.0308
 2937SOL     OW 8809   3.421   2.496   7.806 -0.1259 -0.1678  0.5994
 2937SOL    HW1 8810   3.412   2.591   7.807  3.1448  0.2580  0.6801
 2937SOL    HW2 8811   3.399   2.471   7.716 -1.5479  0.5527  0.7171
 2938SOL     OW 8812   2.131   4.827   8.540 -0.3259 -0.0593  0.3020
 2938SOL    HW1 8813   2.058   4.771   8.514  0.3918 -0.8131 -0.1312
 2938SOL    HW2 8814   2.199   4.809   8.476 -0.0422  1.2655  0.1913
 2939SOL     OW 8815   3.800   4.068   8.358  0.8693 -0.0440 -0.0635
 2939SOL    HW1 8816   3.833   4.158   8.369  0.6206  0.2630 -1.6238
 2939SOL    HW2 8817   3.714   4.079   8.319  0.8152 -0.9644 -0.2149
 2940SOL     OW 8818   3.674   3.868   7.112 -0.5495 -0.0402  0.2150
 2940SOL    HW1 8819   3.581   3.873   7.130 -1.0111 -1.4166 -1.4899
 2940SOL    HW2 8820   3.708   3.955   7.133 -2.6213  1.2115 -1.2525
 2941SOL     OW 8821   1.117   3.790   7.813  0.1117  0.3085 -0.1847
 2941SOL    HW1 8822   1.052   3.779   7.743  2.5140  0.9738 -2.7250
 2941SOL    HW2 8823   1.164   3.870   7.788  2.8655 -0.9449  0.6255
 2942SOL     OW 8824   3.338   4.172   6.675 -0.3418  0.1779 -0.0529
 2942SOL    HW1 8825   3.424   4.155   6.713 -0.5650 -0.6621  0.1138
 2942SOL    HW2 8826   3.354   4.177   6.581 -0.0796  0.2012 -0.0081
 2943SOL     OW 8827   3.416   2.489   6.516 -0.6302 -0.1270 -0.0938
 2943SOL    HW1 8828   3.478   2.464   6.447  1.4554 -1.1939  2.0420
 2943SOL    HW2 8829   3.354   2.416   6.519 -1.3611  0.3975 -1.4546
 2944SOL     OW 8830   2.907   2.760   6.226  0.3190 -0.4509 -0.2094
 2944SOL    HW1 8831   2.900   2.689   6.291  0.1904  0.8195  1.2190
 2944SOL    HW2 8832   2.940   2.835   6.276  2.1781  0.0362 -2.0520
 2945SOL     OW 8833   4.954   3.124   7.342 -0.6212  0.0571  0.1239
 2945SOL    HW1 8834   5.001   3.119   7.259 -0.0395 -0.9835  0.5029
 2945SOL    HW2 8835   4.931   3.217   7.351 -1.2971  0.0746 -1.5116
 2946SOL     OW 8836   2.105   1.288   7.699 -0.1369  0.6100 -0.1091
 2946SOL    HW1 8837   2.089   1.325   7.786  0.8710 -0.1742  0.4403
 2946SOL    HW2 8838   2.025   1.306   7.649 -0.0856  2.5478  0.4540
 2947SOL     OW 8839   3.165   4.735   9.977  0.0170 -0.0203 -0.2729
 2947SOL    HW1 8840   3.225   4.737   9.902  0.3231  0.8559 -0.0222
 2947SOL    HW2 8841   3.201   4.800  10.038 -0.3603 -0.5587  0.5328
 2948SOL     OW 8842   1.772   4.096   8.571 -0.5098 -0.4558 -0.0748
 2948SOL    HW1 8843   1.704   4.163   8.570  0.1103  0.1897 -0.9492
 2948SOL    HW2 8844   1.818   4.107   8.488 -0.0275 -1.5978  0.0181
 2949SOL     OW 8845   1.631   4.753   8.200 -0.4388  0.2263 -0.1076
 2949SOL    HW1 8846   1.677   4.681   8.242  0.8526 -0.3075 -2.2710
 2949SOL    HW2 8847   1.567   4.711   8.142 -1.4849  0.9020  0.5250
 2950SOL     OW 8848   3.639   4.193   9.540 -0.4138  0.2248  0.7437
 2950SOL    HW1 8849   3.656   4.240   9.621  1.6530 -0.2462  0.6351
 2950SOL    HW2 8850   3.691   4.239   9.473 -0.7397 -0.4077  0.0368
 2951SOL     OW 8851   2.524   4.825   7.998 -0.0900 -0.6038  0.0128
 2951SOL    HW1 8852   2.544   4.825   7.904 -0.0342 -1.8222  0.0014
 2951SOL    HW2 8853   2.428   4.834   8.001 -0.2137 -1.6187 -0.2301
 2952SOL     OW 8854   4.226   2.111   5.659 -0.7718 -0.2256 -0.2252
 2952SOL    HW1 8855   4.182   2.100   5.743 -0.3667  1.6350  0.2724
 2952SOL    HW2 8856   4.306   2.159   5.680  0.8885 -2.3706 -1.2909
 2953SOL     OW 8857   1.893   4.083   7.681  0.1137 -0.0835 -0.5619
 2953SOL    HW1 8858   1.948   4.019   7.637 -1.0293 -1.6378  0.1794
 2953SOL    HW2 8859   1.804   4.063   7.652 -0.5544 -0.5239  1.6007
 2954SOL     OW 8860   3.871   4.381   8.438  0.1481 -0.0891 -0.8039
 2954SOL    HW1 8861   3.869   4.389   8.342  1.9857  0.5048 -0.8302
 2954SOL    HW2 8862   3.850   4.468   8.469 -0.7799 -0.3610 -0.6332
 2955SOL     OW 8863   4.292   0.571   9.666  0.3706  0.2112  0.2332
 2955SOL    HW1 8864   4.230   0.594   9.736 -0.0259 -0.0796 -0.0181
 2955SOL    HW2 8865   4.312   0.479   9.682  1.4649  0.5448  0.8643
 2956SOL     OW 8866   2.674   3.309   9.557  0.5950 -0.3401  0.0859
 2956SOL    HW1 8867   2.756   3.339   9.517 -1.1298  2.7226 -1.5698
 2956SOL    HW2 8868   2.615   3.297   9.482 -1.1402 -0.0438  1.3641
 2957SOL     OW 8869   0.819   0.891   6.739  0.0515 -0.0625  0.2002
 2957SOL    HW1 8870   0.794   0.813   6.787 -0.4335 -0.5080 -0.7367
 2957SOL    HW2 8871   0.738   0.940   6.728  0.2110  0.1833  0.0948
 2958SOL     OW 8872   3.329   0.576   7.832 -0.3951  0.2665 -0.2981
 2958SOL    HW1 8873   3.275   0.591   7.910 -1.3300  1.2448 -1.1061
 2958SOL    HW2 8874   3.311   0.486   7.807 -1.3043  0.4329 -0.2765
 2959SOL     OW 8875   1.508   0.934   7.238  0.3755  0.1016  0.0394
 2959SOL    HW1 8876   1.486   0.970   7.152  1.9118 -1.6070 -1.1340
 2959SOL    HW2 8877   1.545   0.847   7.219 -0.6151 -0.9534  2.5297
 2960SOL     OW 8878   4.376   4.658   9.849  0.5847 -0.0008 -0.3854
 2960SOL    HW1 8879   4.458   4.691   9.885  0.1603  1.2215 -0.5047
 2960SOL    HW2 8880   4.310   4.720   9.879 -0.1760 -0.4963 -1.0053
 2961SOL     OW 8881   2.510   1.653   9.482  0.0677 -0.1015 -0.2395
 2961SOL    HW1 8882   2.491   1.601   9.560 -0.4865  0.1674 -0.1895
 2961SOL    HW2 8883   2.543   1.589   9.418  3.6045  0.0833  1.1668
 2962SOL     OW 8884   4.446   1.026   9.256 -0.5711 -0.3518  0.0915
 2962SOL    HW1 8885   4.538   1.001   9.265 -0.3692  0.3438  0.0205
 2962SOL    HW2 8886   4.439   1.110   9.303 -1.2792 -0.6374  0.5134
 2963SOL     OW 8887   4.307   4.959   8.347  1.0324  0.4683 -0.2932
 2963SOL    HW1 8888   4.302   5.053   8.366 -0.5554  0.3750 -0.0710
 2963SOL    HW2 8889   4.235   4.921   8.398  1.2063 -0.7718 -0.9368
 2964SOL     OW 8890   3.435   3.295   9.078  0.2038 -0.0993  0.1138
 2964SOL    HW1 8891   3.413   3.335   9.163 -0.9657  0.4575 -0.4186
 2964SOL    HW2 8892   3.363   3.322   9.021 -0.4425 -2.6466 -0.3826
 2965SOL     OW 8893   2.924   3.569   9.789  0.6196  0.1080  0.2463
 2965SOL    HW1 8894   2.942   3.650   9.837  1.8145  0.7723 -1.2461
 2965SOL    HW2 8895   2.869   3.597   9.715 -0.3202 -0.7229  0.6171
 2966SOL     OW 8896   2.589   1.448   9.300 -0.3409 -0.5551  0.0517
 2966SOL    HW1 8897   2.563   1.356   9.305  0.8158 -1.0087 -1.5779
 2966SOL    HW2 8898   2.677   1.449   9.338 -1.3331  0.3897  2.5048
 2967SOL     OW 8899   3.063   3.935   8.449 -0.0575 -0.6977 -0.0726
 2967SOL    HW1 8900   3.038   3.978   8.367 -0.2188 -1.3731 -0.3957
 2967SOL    HW2 8901   3.153   3.905   8.434  0.1179 -0.3080  0.2155
 2968SOL     OW 8902   3.362   3.430  10.012  0.4725  0.8426  0.3061
 2968SOL    HW1 8903   3.454   3.451  10.029  0.9783  0.0349 -1.1718
 2968SOL    HW2 8904   3.330   3.503   9.960  0.7649  0.3874 -0.5366
 2969SOL     OW 8905   1.095   4.296   9.082 -0.3299  0.0303  0.0970
 2969SOL    HW1 8906   1.161   4.253   9.027 -1.2198  0.6134 -1.4665
 2969SOL    HW2 8907   1.096   4.246   9.163 -0.0418 -1.8217 -0.9914
 2970SOL     OW 8908   0.423   3.094   9.187  0.3845 -0.0269  0.4985
 2970SOL    HW1 8909   0.489   3.156   9.155  0.1825 -0.2368 -0.3552
 2970SOL    HW2 8910   0.448   3.078   9.278  1.0955  0.4466  0.4014
 2971SOL     OW 8911   2.243   3.832   7.525 -0.2939 -0.5466 -0.1174
 2971SOL    HW1 8912   2.178   3.859   7.460  0.6018  1.7102 -0.1617
 2971SOL    HW2 8913   2.225   3.886   7.602 -0.0236 -1.7004  0.7874
 2972SOL     OW 8914   0.820   4.461   9.313  0.7073  0.3403 -0.0539
 2972SOL    HW1 8915   0.801   4.554   9.327 -0.8406 -0.2055  1.8311
 2972SOL    HW2 8916   0.911   4.452   9.340  1.1021  1.4113 -0.9230
 2973SOL     OW 8917   0.273   2.115   9.118 -0.0588 -0.0727  0.0477
 2973SOL    HW1 8918   0.284   2.149   9.207 -2.2455  3.1487 -0.7292
 2973SOL    HW2 8919   0.309   2.184   9.062 -1.4033 -0.6427 -1.5815
 2974SOL     OW 8920   3.466   0.774   9.664 -0.3937  0.3898  0.4050
 2974SOL    HW1 8921   3.523   0.787   9.741  0.7749 -1.2715 -0.1215
 2974SOL    HW2 8922   3.526   0.752   9.593 -1.6150 -0.1189 -0.5056
 2975SOL     OW 8923   2.355   0.219   8.198 -0.4806  0.1345  0.2624
 2975SOL    HW1 8924   2.267   0.248   8.174 -0.2829 -0.2399 -1.0116
 2975SOL    HW2 8925   2.408   0.299   8.198 -0.7420  0.3056  0.6348
 2976SOL     OW 8926   4.723   4.853   9.429 -0.0398  0.0878  0.1089
 2976SOL    HW1 8927   4.757   4.764   9.424  0.5463 -0.2206  4.6456
 2976SOL    HW2 8928   4.628   4.842   9.441 -0.2137  0.2304 -1.0440
 2977SOL     OW 8929   1.913   4.746   8.006  0.3006 -0.2166  0.7943
 2977SOL    HW1 8930   1.944   4.785   7.924 -1.1365 -0.6639  0.0194
 2977SOL    HW2 8931   1.914   4.819   8.068  1.9636 -0.0056  0.5698
 2978SOL     OW 8932   0.018   4.748   7.999  0.4638  0.1900  0.8119
 2978SOL    HW1 8933   0.052   4.683   7.937  1.6047  0.5351  1.0494
 2978SOL    HW2 8934   0.022   4.831   7.951 -2.6898 -0.0774 -0.1555
 2979SOL     OW 8935   2.120   3.567   7.655 -0.3247  0.1405 -0.0489
 2979SOL    HW1 8936   2.172   3.493   7.686  0.2993  0.2890 -0.7113
 2979SOL    HW2 8937   2.183   3.639   7.646 -0.5985  0.2860 -0.9785
 2980SOL     OW 8938   1.617   1.433   7.346 -0.5553 -0.1732  0.3470
 2980SOL    HW1 8939   1.646   1.343   7.328  1.3593  0.1772  1.4258
 2980SOL    HW2 8940   1.635   1.480   7.265  3.2136  0.2638  1.2193
 2981SOL     OW 8941   2.893   3.338   9.920  0.7959 -0.0402 -0.1197
 2981SOL    HW1 8942   2.904   3.420   9.872 -0.8906 -0.5188 -1.4188
 2981SOL    HW2 8943   2.977   3.293   9.910  0.8505  0.3483 -1.7741
 2982SOL     OW 8944   3.775   0.738   9.176  0.4113 -0.1596  0.0297
 2982SOL    HW1 8945   3.724   0.680   9.233  1.3333 -0.5988  0.4376
 2982SOL    HW2 8946   3.711   0.774   9.115 -0.1667 -1.7586 -0.3629
 2983SOL     OW 8947   2.723   3.829   8.407 -0.0216  0.5108  0.6397
 2983SOL    HW1 8948   2.808   3.838   8.363  0.2141 -1.0570  0.7386
 2983SOL    HW2 8949   2.742   3.785   8.489 -0.8644  0.7320  0.9703
 2984SOL     OW 8950   3.065   0.687   9.460 -0.1914 -0.1977 -0.0310
 2984SOL    HW1 8951   3.019   0.710   9.541  0.6945  1.3379  0.0679
 2984SOL    HW2 8952   3.050   0.761   9.401 -0.7864 -1.2715 -1.2945
 2985SOL     OW 8953   3.186   1.088   9.632  0.2077  0.1097 -0.6674
 2985SOL    HW1 8954   3.189   1.142   9.710 -1.1321  0.9036 -1.1321
 2985SOL    HW2 8955   3.100   1.106   9.593 -0.4698 -2.6183 -0.6674
 2986SOL     OW 8956   4.421   3.163   9.698 -0.4383 -0.8482  0.1416
 2986SOL    HW1 8957   4.329   3.147   9.678 -0.5578 -0.5197  0.4035
 2986SOL    HW2 8958   4.448   3.088   9.751 -0.7905 -0.5398  0.7670
 2987SOL     OW 8959   3.441   1.903   9.819  0.3908  0.1364 -0.6328
 2987SOL    HW1 8960   3.472   1.871   9.735  0.2689 -0.6525 -0.3876
 2987SOL    HW2 8961   3.439   1.825   9.875  2.4305  0.9744  0.7098
 2988SOL     OW 8962   3.396   3.790  10.069 -0.4866  0.6680 -0.1440
 2988SOL    HW1 8963   3.383   3.698  10.046 -0.3670 -0.1220  2.5415
 2988SOL    HW2 8964   3.312   3.832  10.051 -1.5218 -0.6583  1.3403
 2989SOL     OW 8965   2.560   0.070   9.860 -0.0900 -0.2558 -0.4928
 2989SOL    HW1 8966   2.603   0.026   9.787 -0.7721 -1.4011 -0.2396
 2989SOL    HW2 8967   2.556   0.004   9.929 -1.6871  0.0021 -0.3018
 2990SOL     OW 8968   2.246   3.762   8.207  0.2367 -0.0800  0.2013
 2990SOL    HW1 8969   2.190   3.783   8.282  1.4259 -2.7041  1.9796
 2990SOL    HW2 8970   2.330   3.738   8.245  0.7559 -2.0064 -1.9075
 2991SOL     OW 8971   2.515   1.092   8.849 -0.2688 -0.4550 -0.2737
 2991SOL    HW1 8972   2.443   1.065   8.792  0.1727  0.9725 -1.5775
 2991SOL    HW2 8973   2.476   1.099   8.936 -1.4270 -0.7493 -0.7566
 2992SOL     OW 8974   1.596   3.742   9.629 -0.0078  0.4104 -0.3087
 2992SOL    HW1 8975   1.650   3.673   9.668 -0.5065 -0.7026 -1.4849
 2992SOL    HW2 8976   1.556   3.786   9.704 -0.2677 -1.0892  0.4882
 2993SOL     OW 8977   4.040   4.226   8.220 -0.4119  0.1006 -0.0798
 2993SOL    HW1 8978   4.103   4.235   8.291 -0.3069 -2.0614  0.1717
 2993SOL    HW2 8979   4.064   4.293   8.156 -0.5596  2.1507  1.9208
 2994SOL     OW 8980   3.816   0.739   7.515  0.1712  0.1592  0.6053
 2994SOL    HW1 8981   3.807   0.742   7.610  0.9463 -0.0653  0.6931
 2994SOL    HW2 8982   3.907   0.713   7.500 -0.4153 -1.6124 -0.1820
 2995SOL     OW 8983   1.010   4.553   8.303 -0.2188 -0.0637  0.5269
 2995SOL    HW1 8984   0.964   4.487   8.251  1.6145 -0.4290 -0.7301
 2995SOL    HW2 8985   1.041   4.506   8.380 -0.9757 -0.0556  0.8535
 2996SOL     OW 8986   3.822   0.644  10.095 -0.4457  0.2536  0.0939
 2996SOL    HW1 8987   3.867   0.719  10.057  0.0010  0.2948  0.7015
 2996SOL    HW2 8988   3.731   0.653  10.066 -0.1986  0.5098 -0.6110
 2997SOL     OW 8989   2.599   4.284   8.108  0.1747 -0.5378 -0.5178
 2997SOL    HW1 8990   2.527   4.260   8.050  1.5457 -0.6808 -2.2105
 2997SOL    HW2 8991   2.677   4.283   8.053  1.2277  1.5765  0.7967
 2998SOL     OW 8992   1.218   4.858   9.493 -0.5575  0.3807 -0.1256
 2998SOL    HW1 8993   1.271   4.917   9.439  1.4947 -0.7820  0.5052
 2998SOL    HW2 8994   1.254   4.868   9.581 -1.7699 -0.0803  0.4399
 2999SOL     OW 8995   2.203   0.235   8.785  0.3687 -0.1530 -0.6229
 2999SOL    HW1 8996   2.280   0.190   8.819  0.0912 -0.0665  0.1280
 2999SOL    HW2 8997   2.128   0.184   8.817  0.0202  1.2137  0.8543
 3000SOL     OW 8998   2.719   1.066   8.583  0.2175  0.2728 -0.2318
 3000SOL    HW1 8999   2.765   1.022   8.511 -0.6368 -1.3674  0.1708
 3000SOL    HW2 9000   2.782   1.129   8.617  1.6751 -0.9471 -0.5763
 3001SOL     OW 9001   2.910   2.798   9.013 -0.1947 -0.5616 -0.1971
 3001SOL    HW1 9002   2.834   2.849   8.987 -0.8662 -0.6088  1.5236
 3001SOL    HW2 9003   2.953   2.774   8.931 -1.3589  0.4845 -1.1399
 3002SOL     OW 9004   4.613   3.611   9.273 -0.1156 -0.3786  0.3263
 3002SOL    HW1 9005   4.654   3.629   9.188 -0.7026  1.6236  0.4132
 3002SOL    HW2 9006   4.519   3.615   9.256 -0.2824  2.3339  1.4239
 3003SOL     OW 9007   1.309   3.680   9.814  0.0465  0.0288 -0.6506
 3003SOL    HW1 9008   1.303   3.706   9.722 -0.8102 -0.4502 -0.7362
 3003SOL    HW2 9009   1.260   3.598   9.819  0.1233  0.0317  0.2237
 3004SOL     OW 9010   4.628   4.767   8.682 -0.1430  0.1951 -0.7632
 3004SOL    HW1 9011   4.597   4.858   8.675 -0.7203  0.0092 -0.6723
 3004SOL    HW2 9012   4.706   4.764   8.627 -0.8037  0.4449 -1.7434
 3005SOL     OW 9013   3.455   2.895   9.036  0.0559  0.5194  0.0671
 3005SOL    HW1 9014   3.390   2.945   9.085 -0.0810 -0.4738  0.9415
 3005SOL    HW2 9015   3.538   2.939   9.053 -0.0907  0.5846  0.6492
 3006SOL     OW 9016   0.795   4.445   9.034  0.6815  0.4299 -0.8149
 3006SOL    HW1 9017   0.780   4.495   9.114 -0.4905 -0.7667 -0.2360
 3006SOL    HW2 9018   0.884   4.411   9.043  0.7311  0.6973 -0.2384
 3007SOL     OW 9019   3.962   4.619  10.007 -0.5206  0.6849  0.1564
 3007SOL    HW1 9020   3.877   4.642   9.969  0.2999  1.6391 -1.2189
 3007SOL    HW2 9021   4.004   4.564   9.941 -0.6678 -1.1517  1.5195
 3008SOL     OW 9022   0.849   3.487   9.372 -0.2300  0.2451  0.8030
 3008SOL    HW1 9023   0.776   3.523   9.422 -0.8030  0.7502 -0.3493
 3008SOL    HW2 9024   0.877   3.560   9.316  0.4036 -0.2871  0.4179
 3009SOL     OW 9025   2.463   0.318   9.901  0.3372  0.0627 -0.2965
 3009SOL    HW1 9026   2.382   0.304   9.951  0.6216  1.8871  0.7654
 3009SOL    HW2 9027   2.502   0.230   9.895 -1.6805 -0.8649 -0.8349
 3010SOL     OW 9028   1.055   3.393   9.615 -0.9085  0.2058  0.5210
 3010SOL    HW1 9029   1.102   3.446   9.551 -0.4846 -0.4728  0.2650
 3010SOL    HW2 9030   0.972   3.371   9.573 -1.9489  2.2268  1.3359
 3011SOL     OW 9031   3.658   1.951  10.089 -0.3405  0.0535  0.3498
 3011SOL    HW1 9032   3.620   1.925  10.005  0.1502  1.4948 -0.3498
 3011SOL    HW2 9033   3.583   1.976  10.142 -0.5342  2.5466 -0.9077
 3012SOL     OW 9034   2.309   2.498   8.963  0.5490  0.0804  0.0303
 3012SOL    HW1 9035   2.261   2.417   8.949 -0.7882  1.0927 -1.5146
 3012SOL    HW2 9036   2.375   2.501   8.893  2.6033 -1.0145  1.7880
 3013SOL     OW 9037   0.299   3.269   9.947  1.1920 -0.1804  0.0180
 3013SOL    HW1 9038   0.231   3.299  10.006  1.1237 -0.8835  0.3105
 3013SOL    HW2 9039   0.340   3.349   9.914  0.1062  0.2588 -0.3087
 3014SOL     OW 9040   3.299   3.845   8.341 -0.2481 -0.7526 -0.2528
 3014SOL    HW1 9041   3.333   3.764   8.380  0.2704 -0.3296  0.1838
 3014SOL    HW2 9042   3.250   3.815   8.264 -0.2149 -1.4965  0.0032
 3015SOL     OW 9043   0.871   4.395   8.764 -0.2285  0.2357  0.0122
 3015SOL    HW1 9044   0.879   4.334   8.837 -0.5600 -0.5880 -0.6212
 3015SOL    HW2 9045   0.874   4.481   8.804 -1.5987 -0.2014  1.1359
 3016SOL     OW 9046   4.817   1.784   9.493  0.0284  0.0140 -0.1495
 3016SOL    HW1 9047   4.750   1.812   9.431 -1.3363 -2.3365  0.1073
 3016SOL    HW2 9048   4.846   1.699   9.459 -0.4035 -1.0990  2.0941
 3017SOL     OW 9049   4.699   3.520   9.704 -0.5192  0.3997 -0.2448
 3017SOL    HW1 9050   4.649   3.596   9.734 -2.4908 -0.8706 -0.1306
 3017SOL    HW2 9051   4.634   3.451   9.695  1.2066 -1.2794 -0.4143
 3018SOL     OW 9052   1.921   4.531   9.947  0.1717  0.2515  0.3044
 3018SOL    HW1 9053   1.903   4.443   9.982 -1.5307  0.7273  0.7192
 3018SOL    HW2 9054   1.914   4.520   9.852 -1.5654  0.2054  0.4040
 3019SOL     OW 9055   3.419   0.304   9.572 -0.4324  0.4461 -0.3080
 3019SOL    HW1 9056   3.372   0.382   9.541 -0.7757  0.2341 -0.3197
 3019SOL    HW2 9057   3.452   0.263   9.492  0.1599  0.8366 -0.2695
 3020SOL     OW 9058   3.743   3.522   9.726 -0.2486 -0.4244  0.7961
 3020SOL    HW1 9059   3.797   3.493   9.652 -0.0768  0.8003  0.4291
 3020SOL    HW2 9060   3.670   3.569   9.686  0.3679  1.1231  1.4242
 3021SOL     OW 9061   4.641   2.498  10.048 -1.3659 -0.4375 -0.0316
 3021SOL    HW1 9062   4.591   2.553  10.107 -1.6777 -0.2720 -0.4507
 3021SOL    HW2 9063   4.714   2.553  10.020 -0.1334 -1.1089  1.6474
 3022SOL     OW 9064   4.647   4.523   9.378 -0.7098  0.1876  0.1839
 3022SOL    HW1 9065   4.735   4.545   9.408 -0.0433 -0.6333 -1.0856
 3022SOL    HW2 9066   4.642   4.427   9.387 -1.6537  0.2737  0.6932
 3023SOL     OW 9067   3.460   1.329   9.883 -0.0949  0.1176  0.2952
 3023SOL    HW1 9068   3.504   1.290   9.959 -0.6589 -1.9351 -0.3803
 3023SOL    HW2 9069   3.512   1.302   9.808 -1.3192 -0.6342 -0.3257
 3024SOL     OW 9070   4.077   3.131   8.949  0.3289  0.2207 -0.1501
 3024SOL    HW1 9071   3.990   3.120   8.987  0.2525  1.7687  0.1988
 3024SOL    HW2 9072   4.062   3.132   8.854 -0.2759  1.9151 -0.0773
 3025SOL     OW 9073   1.955   0.601   9.343 -0.3481 -0.2536  0.1305
 3025SOL    HW1 9074   1.982   0.671   9.402 -1.6113  0.8895 -0.5563
 3025SOL    HW2 9075   2.026   0.594   9.279 -0.5038  0.9419 -0.2055
 3026SOL     OW 9076   4.342   0.206   8.523 -0.7674  0.1905 -0.2628
 3026SOL    HW1 9077   4.289   0.213   8.602 -0.4277  0.2314 -0.0375
 3026SOL    HW2 9078   4.305   0.271   8.463 -1.5318 -0.3900 -0.4370
 3027SOL     OW 9079   4.187   1.063   9.505 -0.3822  0.4609  0.1610
 3027SOL    HW1 9080   4.204   0.995   9.440  2.7700  0.2753  1.0381
 3027SOL    HW2 9081   4.264   1.119   9.503 -1.8611  2.6968  1.1400
 3028SOL     OW 9082   1.688   0.533   9.663  0.2487 -0.1293 -0.2710
 3028SOL    HW1 9083   1.763   0.550   9.720  0.6623 -0.6889 -0.6426
 3028SOL    HW2 9084   1.710   0.452   9.618  0.2629  0.6617 -1.7696
 3029SOL     OW 9085   0.855   0.376   9.619 -0.4697 -0.5188  0.7456
 3029SOL    HW1 9086   0.917   0.444   9.593 -2.0593  0.6594 -0.1801
 3029SOL    HW2 9087   0.896   0.294   9.593  0.4183  0.2676 -0.4230
 3030SOL     OW 9088   1.648   4.418   8.233 -0.0128 -0.1983  0.0752
 3030SOL    HW1 9089   1.656   4.325   8.256  2.1986  0.2066  1.2024
 3030SOL    HW2 9090   1.671   4.422   8.140  1.2277 -0.6652  0.3346
 3031SOL     OW 9091   0.537   0.246   8.662 -0.1629  0.5449 -0.2972
 3031SOL    HW1 9092   0.606   0.235   8.727  0.0453 -0.7045 -0.6876
 3031SOL    HW2 9093   0.568   0.316   8.604  1.7378 -1.2587 -1.6140
 3032SOL     OW 9094   2.608   3.817   9.699 -0.6169 -0.3074  0.0964
 3032SOL    HW1 9095   2.528   3.864   9.677 -0.1972 -0.6345 -2.4198
 3032SOL    HW2 9096   2.581   3.726   9.709 -0.8594 -0.1146  1.4772
 3033SOL     OW 9097   2.589   0.552   9.895  0.7383 -0.2617  0.1401
 3033SOL    HW1 9098   2.547   0.473   9.930  0.1180 -0.3792 -0.8158
 3033SOL    HW2 9099   2.521   0.592   9.840 -0.1324  2.6998  3.0467
 3034SOL     OW 9100   1.002   2.441   8.497  0.6605 -0.4258  0.1379
 3034SOL    HW1 9101   1.015   2.433   8.592  1.4554 -0.1922  0.0519
 3034SOL    HW2 9102   1.084   2.412   8.459  0.7485  0.5731 -0.4480
 3035SOL     OW 9103   4.194   4.074   6.288 -0.7204  0.4054 -0.0630
 3035SOL    HW1 9104   4.133   4.001   6.297  1.1209 -1.0286  1.6585
 3035SOL    HW2 9105   4.281   4.033   6.292  0.4021  2.4681 -1.4732
 3036SOL     OW 9106   2.266   4.877   7.718 -0.1089  0.4280  0.7408
 3036SOL    HW1 9107   2.247   4.930   7.641 -0.5086  0.1625  0.6530
 3036SOL    HW2 9108   2.300   4.795   7.683 -1.4020 -0.1522  0.7884
 3037SOL     OW 9109   1.673   0.626   7.686  0.3460 -0.1268  0.4101
 3037SOL    HW1 9110   1.638   0.652   7.601  1.1285  0.5970  0.2870
 3037SOL    HW2 9111   1.613   0.559   7.718 -0.6089  0.4176 -0.1898
 3038SOL     OW 9112   0.292   2.816   9.888 -0.6373 -0.2347 -0.1601
 3038SOL    HW1 9113   0.212   2.815   9.835 -1.8101  0.0915  1.5163
 3038SOL    HW2 9114   0.262   2.838   9.976  1.4793  1.1884  0.2779
 3039SOL     OW 9115   3.261   3.631   9.517 -0.0215  0.5341 -0.0260
 3039SOL    HW1 9116   3.186   3.571   9.511  0.1344  0.4609 -1.7267
 3039SOL    HW2 9117   3.245   3.696   9.449 -0.5033  2.8792  2.1700
 3040SOL     OW 9118   2.777   0.042  10.141  0.5525 -0.0399  0.1095
 3040SOL    HW1 9119   2.704  -0.018  10.128  0.3582  0.6318 -2.3326
 3040SOL    HW2 9120   2.789   0.044  10.236 -1.5601 -1.3623  0.4791
 3041SOL     OW 9121   3.700   1.593   9.868  0.1615 -0.2514 -0.2143
 3041SOL    HW1 9122   3.605   1.607   9.873  0.2944  0.2542  2.2321
 3041SOL    HW2 9123   3.709   1.506   9.829 -1.2958 -0.2028 -0.7271
 3042SOL     OW 9124   1.659  -0.006   8.837 -0.1836  0.2574 -0.4556
 3042SOL    HW1 9125   1.621   0.021   8.754  0.1287  0.3956 -0.5521
 3042SOL    HW2 9126   1.696   0.074   8.874  0.2310  0.0787 -0.4747
 3043SOL     OW 9127   4.800   0.545   8.018 -0.2629  0.1769 -0.0005
 3043SOL    HW1 9128   4.732   0.607   8.047 -1.5895 -1.7280  1.1893
 3043SOL    HW2 9129   4.801   0.554   7.923 -1.7642  0.7209  0.0004
 3044SOL     OW 9130   4.133   3.729  10.076  0.7594  0.9645 -0.6709
 3044SOL    HW1 9131   4.104   3.766   9.993 -0.5284 -2.4381 -1.9213
 3044SOL    HW2 9132   4.055   3.728  10.131  0.4810 -0.5604 -1.0205
 3045SOL     OW 9133   4.358   4.129   7.513  0.0721 -0.4090 -0.4538
 3045SOL    HW1 9134   4.353   4.202   7.451 -0.9659  0.9579  1.1748
 3045SOL    HW2 9135   4.441   4.141   7.558 -0.0237 -0.3385 -0.2972
 3046SOL     OW 9136   3.136   0.021   9.359  0.6217 -0.4666  0.1107
 3046SOL    HW1 9137   3.160   0.105   9.398 -2.2154 -0.5258  2.3229
 3046SOL    HW2 9138   3.062   0.042   9.302  0.9193 -1.2811 -0.5966
 3047SOL     OW 9139   4.846   0.770   6.079 -0.1308 -0.0650  0.3106
 3047SOL    HW1 9140   4.768   0.749   6.028 -1.3303  0.4515  1.8489
 3047SOL    HW2 9141   4.830   0.858   6.113  1.6026  0.4815 -0.1953
 3048SOL     OW 9142   2.776   4.525   6.338 -0.0922  0.6579 -0.1991
 3048SOL    HW1 9143   2.787   4.447   6.283  0.4960  0.4903  0.1485
 3048SOL    HW2 9144   2.840   4.588   6.305  0.8727  0.2456  0.8257
 3049SOL     OW 9145   3.043   4.779   6.408  0.5482  0.6083 -0.1702
 3049SOL    HW1 9146   3.044   4.683   6.397  1.2879  0.0351  3.6033
 3049SOL    HW2 9147   3.133   4.805   6.388  0.9758  0.1367  1.0711
 3050SOL     OW 9148   4.393   4.550   8.128 -0.8957  0.2863  0.8405
 3050SOL    HW1 9149   4.414   4.489   8.056 -0.0487  0.4500  0.9370
 3050SOL    HW2 9150   4.474   4.599   8.142 -1.7132  1.8180  0.4225
 3051SOL     OW 9151   4.343   1.217   5.866  0.5019  0.1020  0.4822
 3051SOL    HW1 9152   4.309   1.154   5.803  0.4622  1.2315 -0.6460
 3051SOL    HW2 9153   4.437   1.220   5.849  0.4756  0.4903  0.3948
 3052SOL     OW 9154   2.950   1.528   5.205  0.3255  0.4562 -0.1044
 3052SOL    HW1 9155   2.989   1.466   5.145  0.2052  1.4401 -1.2411
 3052SOL    HW2 9156   2.856   1.525   5.186  0.2321  0.4497  0.3455
 3053SOL     OW 9157   3.825   4.753   7.141  0.4770  0.2440 -0.3195
 3053SOL    HW1 9158   3.895   4.701   7.101  1.0620 -1.3725  2.4761
 3053SOL    HW2 9159   3.746   4.702   7.127  0.5962 -0.0553  0.0548
 3054SOL     OW 9160   0.254   0.186   5.600  0.1676  0.6542 -0.0997
 3054SOL    HW1 9161   0.281   0.157   5.687 -0.5865  0.8165  0.1970
 3054SOL    HW2 9162   0.303   0.131   5.539  0.3365  0.2136  0.4325
 3055SOL     OW 9163   3.574   1.984   6.918  0.5713  0.0814  0.2283
 3055SOL    HW1 9164   3.616   1.904   6.889 -0.5734 -0.9489  1.2962
 3055SOL    HW2 9165   3.582   1.983   7.013 -0.9802  0.3196  0.3965
 3056SOL     OW 9166   0.042   2.898   6.385 -0.2085 -0.1286 -0.3086
 3056SOL    HW1 9167   0.086   2.868   6.464  2.9008  0.5020 -1.6278
 3056SOL    HW2 9168   0.004   2.819   6.346 -2.0668 -0.3977  1.8570
 3057SOL     OW 9169   0.203   1.566   7.437  0.3675 -0.8000  0.4530
 3057SOL    HW1 9170   0.180   1.625   7.509  2.0619  1.2373 -0.5884
 3057SOL    HW2 9171   0.267   1.506   7.475  0.6987 -0.2111  0.8394
 3058SOL     OW 9172   3.853   1.311   5.298  0.4657 -0.2514 -0.4130
 3058SOL    HW1 9173   3.784   1.373   5.320  1.2701  1.6226 -2.7102
 3058SOL    HW2 9174   3.825   1.272   5.215  1.7550 -0.0477 -0.9746
 3059SOL     OW 9175   3.911   1.742   5.714 -0.0616  0.1849 -0.4133
 3059SOL    HW1 9176   3.874   1.689   5.644  2.0633 -2.4147  0.2422
 3059SOL    HW2 9177   3.888   1.695   5.795 -2.0006  2.8188  0.6719
 3060SOL     OW 9178   4.378   2.345   6.131  0.8619 -0.0953 -0.2338
 3060SOL    HW1 9179   4.391   2.251   6.135 -1.1741 -0.5077 -1.7700
 3060SOL    HW2 9180   4.398   2.369   6.041 -0.6220  0.5691 -0.4157
 3061SOL     OW 9181   3.557   0.290   7.783 -0.5896  0.8216 -0.5907
 3061SOL    HW1 9182   3.526   0.341   7.708 -0.3623  1.9353  0.0607
 3061SOL    HW2 9183   3.568   0.201   7.748  0.4024  1.5072 -2.1194
 3062SOL     OW 9184   0.585   1.816   8.184 -0.3759  0.0632 -0.8211
 3062SOL    HW1 9185   0.667   1.864   8.171 -0.2113 -0.4589 -1.9280
 3062SOL    HW2 9186   0.574   1.810   8.279 -0.1924  1.8895 -0.6656
 3063SOL     OW 9187   3.302   0.567   5.926 -0.7616 -0.0138  0.0392
 3063SOL    HW1 9188   3.390   0.555   5.962 -0.9658  0.3373  0.6623
 3063SOL    HW2 9189   3.314   0.630   5.855 -0.4547 -0.2315 -0.1063
 3064SOL     OW 9190   1.726   2.428   6.073 -0.2828  0.0864 -0.9253
 3064SOL    HW1 9191   1.660   2.488   6.110  0.5071  0.3448  0.1131
 3064SOL    HW2 9192   1.799   2.485   6.050  0.4574 -0.4554  0.0266
 3065SOL     OW 9193   2.587   1.267   5.262 -0.5542  0.0701 -0.4497
 3065SOL    HW1 9194   2.532   1.231   5.193  0.1265  0.0609 -0.9965
 3065SOL    HW2 9195   2.526   1.313   5.320 -1.3567 -1.4607 -0.0443
 3066SOL     OW 9196   2.670   2.392   8.219 -0.0215  0.7766  0.4531
 3066SOL    HW1 9197   2.702   2.310   8.182  0.4504  0.3845  1.6906
 3066SOL    HW2 9198   2.616   2.431   8.149 -1.2210 -1.1391  0.2497
 3067SOL     OW 9199   0.217   1.606   7.170 -0.4588 -0.4795 -0.7691
 3067SOL    HW1 9200   0.215   1.576   7.261 -0.9237  0.3975 -0.4871
 3067SOL    HW2 9201   0.128   1.591   7.138 -1.0923  1.8141 -0.2141
 3068SOL     OW 9202   0.379   4.436   6.425 -0.1200 -0.3883 -0.7326
 3068SOL    HW1 9203   0.415   4.523   6.444 -0.9052 -0.1524 -0.2785
 3068SOL    HW2 9204   0.399   4.384   6.502  2.2350 -1.2661 -1.8328
 3069SOL     OW 9205   2.181   0.658   7.749  0.4879  0.5874 -0.4206
 3069SOL    HW1 9206   2.250   0.635   7.813  0.8019 -0.0342 -0.9675
 3069SOL    HW2 9207   2.101   0.621   7.786  0.3266  1.8023  0.4996
 3070SOL     OW 9208   0.199   4.648   7.454 -0.6504  1.0472  0.0385
 3070SOL    HW1 9209   0.243   4.598   7.385 -2.3341 -1.0093  0.3411
 3070SOL    HW2 9210   0.269   4.673   7.514  0.2524 -1.7475  0.3111
 3071SOL     OW 9211   3.521   2.481   5.689  0.3972 -0.1584  0.3407
 3071SOL    HW1 9212   3.463   2.501   5.615 -0.5929 -0.7468  0.9258
 3071SOL    HW2 9213   3.481   2.527   5.763  0.4162 -0.9377  0.8450
 3072SOL     OW 9214   0.617   0.942   6.358 -0.8612 -0.8631  0.2189
 3072SOL    HW1 9215   0.650   0.996   6.286 -2.5219 -1.4914 -1.0890
 3072SOL    HW2 9216   0.676   0.866   6.360 -0.6029 -0.6803 -0.2832
 3073SOL     OW 9217   1.051   1.074   5.276 -0.5255 -0.2913 -0.2464
 3073SOL    HW1 9218   1.072   1.018   5.351  0.5949 -1.4976 -1.3812
 3073SOL    HW2 9219   1.122   1.138   5.274 -1.5418  0.8954  0.7624
 3074SOL     OW 9220   0.499   0.320   5.210  0.6147  0.4255 -0.1374
 3074SOL    HW1 9221   0.415   0.365   5.204  0.6952  0.3571 -3.2218
 3074SOL    HW2 9222   0.477   0.235   5.249 -0.9458  0.1092 -1.5639
 3075SOL     OW 9223   4.841   2.968   5.136  0.6506 -0.5630 -0.0822
 3075SOL    HW1 9224   4.932   2.940   5.128  0.8895 -0.7990  2.6357
 3075SOL    HW2 9225   4.847   3.063   5.149  0.5736 -0.6695  0.7617
 3076SOL     OW 9226   4.535   1.132   5.393 -0.0176  0.1367 -0.0685
 3076SOL    HW1 9227   4.548   1.166   5.305 -1.3874  0.1317 -0.2893
 3076SOL    HW2 9228   4.442   1.143   5.410  0.1748 -0.1090  1.2833
 3077SOL     OW 9229   3.149   0.676   6.557 -0.0094  0.2368  0.5046
 3077SOL    HW1 9230   3.064   0.702   6.591 -0.6017 -1.4174  0.3452
 3077SOL    HW2 9231   3.193   0.759   6.537 -1.5271  1.1130  0.6866
 3078SOL     OW 9232   0.791   4.302   5.630  0.1653 -0.1303 -0.5927
 3078SOL    HW1 9233   0.807   4.277   5.721 -0.0995  0.4078 -0.3932
 3078SOL    HW2 9234   0.834   4.387   5.621 -1.1070  0.5384 -0.5267
 3079SOL     OW 9235   2.764   0.811   5.025 -0.4186  0.6253 -0.1853
 3079SOL    HW1 9236   2.676   0.795   4.992 -1.5311  4.6155  0.3829
 3079SOL    HW2 9237   2.756   0.803   5.120  0.0757  0.1741 -0.1742
 3080SOL     OW 9238   2.615   1.046   5.502  0.4263 -0.5594 -0.1416
 3080SOL    HW1 9239   2.530   1.091   5.503  0.7840  0.1961 -1.3806
 3080SOL    HW2 9240   2.601   0.967   5.554 -0.9904 -0.3557 -0.1758
 3081SOL     OW 9241   4.835   1.479   5.938 -0.6635  0.3505 -0.0244
 3081SOL    HW1 9242   4.839   1.551   6.001  0.5991  0.5609 -0.3151
 3081SOL    HW2 9243   4.794   1.517   5.860  0.4129  0.9103 -0.3407
 3082SOL     OW 9244   0.140   1.700   8.450  0.3740 -0.0214 -0.1038
 3082SOL    HW1 9245   0.119   1.778   8.398  1.6952  0.5456  0.1621
 3082SOL    HW2 9246   0.187   1.735   8.526 -1.5045 -0.8287  1.4978
 3083SOL     OW 9247   0.220   2.574   5.932  0.3543  0.3332  0.0763
 3083SOL    HW1 9248   0.223   2.493   5.881  0.3551 -0.1814  0.8792
 3083SOL    HW2 9249   0.276   2.557   6.007  0.7425  1.2588  0.0104
 3084SOL     OW 9250   2.932   2.244   6.617 -0.0141  0.3396  0.2755
 3084SOL    HW1 9251   2.843   2.269   6.641 -0.3377 -0.2198 -0.3190
 3084SOL    HW2 9252   2.983   2.325   6.625 -0.8320  0.9646 -0.6310
 3085SOL     OW 9253   4.768   2.757   5.314 -0.9720  0.0733 -0.2438
 3085SOL    HW1 9254   4.778   2.812   5.237 -0.6998 -0.4261 -0.5727
 3085SOL    HW2 9255   4.788   2.668   5.283 -1.8929 -0.2922  0.1498
 3086SOL     OW 9256   1.523   3.928   7.311 -0.2142  0.0108 -0.1422
 3086SOL    HW1 9257   1.542   3.984   7.236 -2.9242 -1.3174 -1.9657
 3086SOL    HW2 9258   1.558   3.842   7.287  0.0909 -0.1305  0.7411
 3087SOL     OW 9259   3.559   1.545   5.797  0.3234  0.4950 -0.5577
 3087SOL    HW1 9260   3.638   1.587   5.832  1.7935 -2.5571  0.0664
 3087SOL    HW2 9261   3.591   1.488   5.727 -1.4339 -0.4021 -0.6690
 3088SOL     OW 9262   4.875   1.878   5.300 -0.0936  0.0823  0.0941
 3088SOL    HW1 9263   4.810   1.929   5.251  0.9111  1.9847  0.6473
 3088SOL    HW2 9264   4.955   1.929   5.293  0.9171 -1.3311  0.9110
 3089SOL     OW 9265   0.296   4.021   5.031  0.5276 -0.4795 -0.1427
 3089SOL    HW1 9266   0.387   4.036   5.007  0.6986  0.1843  0.8199
 3089SOL    HW2 9267   0.254   4.106   5.017  0.2978 -0.4996  0.3976
 3090SOL     OW 9268   4.090   4.529   5.082  0.1274  0.3995  0.0563
 3090SOL    HW1 9269   4.092   4.433   5.079 -0.6782  0.3949 -0.6416
 3090SOL    HW2 9270   4.180   4.555   5.063  0.6395 -0.2325  1.5209
 3091SOL     OW 9271   4.316   1.064   6.289 -0.8829  0.3142 -0.0810
 3091SOL    HW1 9272   4.373   1.058   6.213  0.8433 -0.2358  1.1973
 3091SOL    HW2 9273   4.235   1.021   6.262 -0.6746  0.9975 -1.8981
 3092SOL     OW 9274   3.845   3.597   8.596 -0.4668 -0.6623 -0.4331
 3092SOL    HW1 9275   3.795   3.520   8.569 -1.4453 -0.3407  0.4267
 3092SOL    HW2 9276   3.810   3.669   8.544 -1.9258 -0.1615  1.1661
 3093SOL     OW 9277   1.536   1.544   5.740  0.3738  0.3834  0.7703
 3093SOL    HW1 9278   1.488   1.614   5.784 -0.7299  0.8785 -1.1308
 3093SOL    HW2 9279   1.628   1.560   5.762  0.3462  3.4262 -0.8524
 3094SOL     OW 9280   2.092   0.740   6.870 -0.2613 -0.2119  0.1588
 3094SOL    HW1 9281   2.083   0.807   6.802 -0.4129 -3.0586 -2.9026
 3094SOL    HW2 9282   2.179   0.754   6.906 -0.1248  1.3666 -0.7085
 3095SOL     OW 9283   4.884   0.715   5.231 -0.1252  0.2917  0.0274
 3095SOL    HW1 9284   4.869   0.644   5.168 -2.0076 -0.6644  1.4271
 3095SOL    HW2 9285   4.917   0.670   5.309 -2.2089  0.7471  1.2499
 3096SOL     OW 9286   4.717   0.278   5.067 -0.1193  0.8213  0.4142
 3096SOL    HW1 9287   4.761   0.219   5.128  0.6050 -1.0225 -1.7223
 3096SOL    HW2 9288   4.624   0.257   5.075  0.1477 -0.9430 -0.5181
 3097SOL     OW 9289   3.223   0.221   6.438 -0.5484  0.3340 -0.4047
 3097SOL    HW1 9290   3.172   0.282   6.385  0.0287  2.3145  1.1839
 3097SOL    HW2 9291   3.240   0.268   6.519  0.1139 -1.9019  0.8583
 3098SOL     OW 9292   4.000   2.496   6.300  0.4901  0.1792  0.1922
 3098SOL    HW1 9293   3.954   2.419   6.268  0.3563 -0.0882  1.0201
 3098SOL    HW2 9294   3.947   2.527   6.373  1.2315  0.2967  0.6872
 3099SOL     OW 9295   3.421   0.309   8.037  0.1073 -0.2116 -0.0791
 3099SOL    HW1 9296   3.342   0.275   7.996 -2.0185  1.9622  1.8829
 3099SOL    HW2 9297   3.479   0.330   7.964 -1.4106 -1.1469 -1.6340
 3100SOL     OW 9298   4.127   2.882   5.850  0.0551 -0.3798 -0.1137
 3100SOL    HW1 9299   4.112   2.814   5.917  0.0851 -1.8948 -1.5846
 3100SOL    HW2 9300   4.219   2.907   5.862 -0.1618  0.0016  0.9374
 3101SOL     OW 9301   0.522   0.447   6.810  0.4203 -0.0418  0.3138
 3101SOL    HW1 9302   0.536   0.518   6.747  2.2355  0.2792  1.0228
 3101SOL    HW2 9303   0.432   0.459   6.840  0.4680  1.5506 -0.1013
 3102SOL     OW 9304   0.240   2.080   5.868  0.3376  0.3390  0.3826
 3102SOL    HW1 9305   0.229   2.023   5.791 -0.4557 -1.7808  1.9639
 3102SOL    HW2 9306   0.218   2.167   5.835 -1.7079 -0.7307 -1.4506
 3103SOL     OW 9307   4.214   0.026   5.000  0.2307 -0.1748 -0.5883
 3103SOL    HW1 9308   4.143  -0.022   5.044  0.9498 -1.4245 -0.7405
 3103SOL    HW2 9309   4.172   0.065   4.923 -0.6490  0.5524  0.2278
 3104SOL     OW 9310   0.145   1.705   6.044 -0.2520  0.1251  0.3950
 3104SOL    HW1 9311   0.052   1.699   6.065 -0.4423  0.8992 -0.1638
 3104SOL    HW2 9312   0.146   1.731   5.952  0.5295 -0.7027  0.1565
 3105SOL     OW 9313   4.274   4.344   7.316 -0.5137  0.0868 -0.0378
 3105SOL    HW1 9314   4.205   4.408   7.333 -0.4889 -0.2252  1.3640
 3105SOL    HW2 9315   4.231   4.276   7.265 -0.8625  0.6020 -0.4452
 3106SOL     OW 9316   3.657   4.519   5.949  0.4908  0.6832 -0.2157
 3106SOL    HW1 9317   3.584   4.458   5.935  0.4682  0.4473  0.8121
 3106SOL    HW2 9318   3.723   4.494   5.884  0.9452 -1.2147  0.9019
 3107SOL     OW 9319   4.663   0.504   5.511  0.1430  0.7018  0.4512
 3107SOL    HW1 9320   4.736   0.539   5.460  0.7649  0.0002  0.8263
 3107SOL    HW2 9321   4.657   0.561   5.587  0.3422  0.7292  0.4475
 3108SOL     OW 9322   3.892   1.881   5.361  0.4606  0.1730  0.3797
 3108SOL    HW1 9323   3.949   1.815   5.320  1.4992  0.9009  0.6106
 3108SOL    HW2 9324   3.952   1.937   5.409 -0.5263  0.6719  1.0454
 3109SOL     OW 9325   2.151   4.958   6.317  0.1982  0.1499  0.0090
 3109SOL    HW1 9326   2.133   4.868   6.342  0.7425 -0.2598 -1.0411
 3109SOL    HW2 9327   2.089   5.010   6.369  1.1810 -0.6528  2.0987
 3110SOL     OW 9328   3.488   4.125   7.315 -0.1531  0.8851  0.3295
 3110SOL    HW1 9329   3.485   4.190   7.244 -3.3816  1.1529  0.5702
 3110SOL    HW2 9330   3.448   4.047   7.277  1.0523 -0.0590  0.9367
 3111SOL     OW 9331   0.807   0.265   7.014 -0.0134  0.4197 -0.2566
 3111SOL    HW1 9332   0.866   0.321   6.963  0.7492  1.2383  1.4536
 3111SOL    HW2 9333   0.833   0.175   6.991  0.3105  0.7641 -1.2788
 3112SOL     OW 9334   4.099   0.096   5.922 -0.1856 -0.5975  0.2005
 3112SOL    HW1 9335   4.148   0.177   5.905  0.1819 -0.9291 -0.3533
 3112SOL    HW2 9336   4.097   0.052   5.837  1.2473 -2.0542  0.8746
 3113SOL     OW 9337   2.893   0.746   6.332 -0.0816  0.1177 -0.5352
 3113SOL    HW1 9338   2.945   0.827   6.336 -0.8267  0.6366 -0.9971
 3113SOL    HW2 9339   2.939   0.690   6.270 -0.5519  0.9345 -1.6447
 3114SOL     OW 9340   4.549   4.482   5.402  0.3284 -0.4966  0.6243
 3114SOL    HW1 9341   4.514   4.443   5.322 -1.7784  2.1431  0.1186
 3114SOL    HW2 9342   4.621   4.537   5.372 -0.0785  0.0324  0.6128
 3115SOL     OW 9343   4.386   0.490   7.793  0.2654 -0.4642  0.4334
 3115SOL    HW1 9344   4.355   0.492   7.884  0.7585  0.9654  0.6052
 3115SOL    HW2 9345   4.341   0.563   7.751  1.1752 -0.1746 -0.0689
 3116SOL     OW 9346   0.114   0.600   6.819  0.0613  0.3047 -0.6194
 3116SOL    HW1 9347   0.027   0.597   6.859 -0.4553 -1.7240 -1.7787
 3116SOL    HW2 9348   0.097   0.608   6.725  1.2013  1.7259 -0.7384
 3117SOL     OW 9349   0.488   0.199   7.503  0.2247 -0.1042 -0.4728
 3117SOL    HW1 9350   0.395   0.222   7.506  0.2810  0.0669  0.0288
 3117SOL    HW2 9351   0.515   0.197   7.595  0.2428 -2.1836 -0.4775
 3118SOL     OW 9352   4.574   4.592   5.896 -0.1722 -0.4189 -0.2514
 3118SOL    HW1 9353   4.550   4.503   5.870  0.8153 -0.4804 -1.0479
 3118SOL    HW2 9354   4.492   4.632   5.925 -1.0783 -0.8779 -2.0380
 3119SOL     OW 9355   0.171   2.344   5.550  0.0575  0.2727  0.3249
 3119SOL    HW1 9356   0.079   2.322   5.540  0.1594 -0.1316  0.2481
 3119SOL    HW2 9357   0.196   2.303   5.634  0.0661  0.7199  0.5422
 3120SOL     OW 9358   4.137   1.585   7.488 -0.2757 -0.0856  0.4069
 3120SOL    HW1 9359   4.166   1.600   7.398 -0.3673 -1.7981  0.0639
 3120SOL    HW2 9360   4.116   1.673   7.521 -0.7996  0.5343 -1.4219
 3121SOL     OW 9361   4.749   4.907   8.105 -0.1404 -0.1738 -0.4373
 3121SOL    HW1 9362   4.843   4.892   8.108 -0.0930  0.0135 -1.0233
 3121SOL    HW2 9363   4.739   4.994   8.067 -0.5394 -0.0614 -0.0823
 3122SOL     OW 9364   2.708   0.387   8.321  0.3782 -0.4060  0.2553
 3122SOL    HW1 9365   2.677   0.336   8.396  1.4802 -0.8919  0.3957
 3122SOL    HW2 9366   2.731   0.321   8.256 -1.1404  0.0246 -0.7722
 3123SOL     OW 9367   2.360   0.804   6.718  0.2144 -0.0333 -0.4917
 3123SOL    HW1 9368   2.371   0.716   6.681  0.2211 -0.2898  0.1189
 3123SOL    HW2 9369   2.327   0.856   6.644  1.5461 -0.2058 -1.2344
 3124SOL     OW 9370   2.440   1.446   7.097 -0.3706  0.6874  0.2160
 3124SOL    HW1 9371   2.492   1.366   7.103 -2.0600 -0.7650 -2.2769
 3124SOL    HW2 9372   2.352   1.415   7.076 -1.6043  3.1587  1.3575
 3125SOL     OW 9373   0.631   0.380   7.181 -0.5412  0.6525 -0.4822
 3125SOL    HW1 9374   0.697   0.345   7.121  0.2224 -1.2417  1.3414
 3125SOL    HW2 9375   0.548   0.358   7.140 -0.0531 -1.6904 -0.3605
 3126SOL     OW 9376   4.407   0.751   7.023 -1.3520  0.1068 -0.1627
 3126SOL    HW1 9377   4.446   0.663   7.023  0.9505  1.0497  0.2985
 3126SOL    HW2 9378   4.454   0.798   6.953 -2.4140  1.0383 -0.2816
 3127SOL     OW 9379   3.677   1.867   6.088 -0.0935  0.0606 -0.0529
 3127SOL    HW1 9380   3.622   1.871   6.010 -0.0755 -2.3259 -0.2753
 3127SOL    HW2 9381   3.616   1.876   6.161 -0.3445  0.5969 -0.3251
 3128SOL     OW 9382   3.925   0.722   6.235 -0.4462  0.1224  0.2559
 3128SOL    HW1 9383   4.012   0.727   6.274  0.0197  2.1829 -0.9152
 3128SOL    HW2 9384   3.873   0.672   6.298  2.0293 -3.0255  0.0312
 3129SOL     OW 9385   2.890   0.985   7.305 -0.4282 -0.0941  0.1119
 3129SOL    HW1 9386   2.805   0.981   7.262 -0.7162 -1.6151  0.7725
 3129SOL    HW2 9387   2.875   1.038   7.383 -0.9935 -1.0899  0.6889
 3130SOL     OW 9388   4.411   0.403   5.249 -0.1094 -0.1810 -0.5741
 3130SOL    HW1 9389   4.466   0.342   5.199 -0.1983 -0.7496  0.0032
 3130SOL    HW2 9390   4.391   0.473   5.188  0.0271 -0.7158 -1.2451
 3131SOL     OW 9391   0.076   3.670   5.902 -0.7068  0.3005  0.1309
 3131SOL    HW1 9392   0.024   3.690   5.980  0.7507 -2.4355  1.9823
 3131SOL    HW2 9393   0.139   3.604   5.932  0.2272 -0.5515 -3.2813
 3132SOL     OW 9394   1.185   3.253   5.987  0.4063 -0.3876  1.0913
 3132SOL    HW1 9395   1.106   3.304   5.966 -0.8585 -2.6052  0.1323
 3132SOL    HW2 9396   1.229   3.304   6.055 -2.7476  0.1350  2.9419
 3133SOL     OW 9397   4.413   0.068   6.460  0.0858  0.6399  0.7806
 3133SOL    HW1 9398   4.499   0.098   6.431 -0.6644  1.2759 -0.9377
 3133SOL    HW2 9399   4.375   0.027   6.383 -0.7008 -0.7291  1.8584
 3134SOL     OW 9400   2.194   1.087   5.199  0.0798  0.1585 -0.1024
 3134SOL    HW1 9401   2.164   1.177   5.213 -1.2233 -0.1250 -0.9117
 3134SOL    HW2 9402   2.265   1.096   5.135 -1.5039  0.4677 -1.9072
 3135SOL     OW 9403   4.433   1.124   4.935 -0.4667  0.1701  0.4230
 3135SOL    HW1 9404   4.522   1.112   4.969 -0.4314 -1.8904 -0.2847
 3135SOL    HW2 9405   4.379   1.137   5.013  0.2398 -0.0904  0.9639
 3136SOL     OW 9406   3.437   0.408   6.859  0.5103 -0.6980  0.0488
 3136SOL    HW1 9407   3.476   0.473   6.916  1.0127 -0.9535  0.0047
 3136SOL    HW2 9408   3.439   0.327   6.910 -1.9215 -0.3204  0.8803
 3137SOL     OW 9409   4.669   4.600   8.338  0.1903 -0.1311 -0.0695
 3137SOL    HW1 9410   4.618   4.673   8.305  1.0775 -0.4749 -2.4537
 3137SOL    HW2 9411   4.755   4.610   8.296  0.1399 -2.8417 -1.0384
 3138SOL     OW 9412   0.490   3.537   6.508  0.7780 -0.2596  0.6299
 3138SOL    HW1 9413   0.543   3.615   6.489  0.4364  0.0582  0.9627
 3138SOL    HW2 9414   0.486   3.534   6.604  2.8637 -2.0852  0.7482
 3139SOL     OW 9415   2.923   4.149   2.986 -0.0841 -0.1819 -0.4240
 3139SOL    HW1 9416   2.949   4.106   2.905  0.6894  0.5122 -0.5617
 3139SOL    HW2 9417   2.912   4.241   2.962  1.1144  0.2264  0.4330
 3140SOL     OW 9418   4.006   3.455   6.028  0.4881  0.4953 -0.7387
 3140SOL    HW1 9419   3.923   3.427   5.988 -1.3596  2.5395  1.3828
 3140SOL    HW2 9420   4.068   3.457   5.954 -2.1211  1.8444 -3.1003
 3141SOL     OW 9421   4.406   2.309   5.623 -0.1414 -0.8004  0.4341
 3141SOL    HW1 9422   4.443   2.271   5.543  1.4369  2.6457 -0.6986
 3141SOL    HW2 9423   4.335   2.365   5.592  0.0706  0.0759  1.4705
 3142SOL     OW 9424   4.103   0.457   6.080  0.2240  0.1996 -0.3141
 3142SOL    HW1 9425   4.104   0.404   6.160  2.6575 -0.5124 -0.7555
 3142SOL    HW2 9426   4.015   0.442   6.043 -0.9900  0.6106  2.2056
 3143SOL     OW 9427   4.381   0.572   4.913  0.0321  0.0231  0.3477
 3143SOL    HW1 9428   4.358   0.659   4.883  1.1942  1.8348  4.0559
 3143SOL    HW2 9429   4.469   0.557   4.880  0.8017  1.4017  1.6639
 3144SOL     OW 9430   4.795   4.454   7.932  0.0553 -0.2858  0.0425
 3144SOL    HW1 9431   4.876   4.461   7.881 -0.6902  2.9129 -0.9375
 3144SOL    HW2 9432   4.810   4.380   7.991  2.5398 -1.6140 -2.0415
 3145SOL     OW 9433   3.470   0.438   6.380 -0.1603 -0.1236 -0.0906
 3145SOL    HW1 9434   3.395   0.380   6.394 -2.0109  2.5569  2.2315
 3145SOL    HW2 9435   3.528   0.422   6.455 -0.1143  0.2086 -0.0514
 3146SOL     OW 9436   4.142   0.140   8.021 -0.7980 -0.4878  0.1202
 3146SOL    HW1 9437   4.215   0.080   8.032  1.6430  2.0590 -0.8162
 3146SOL    HW2 9438   4.145   0.165   7.928 -1.0148  1.7974  0.6662
 3147SOL     OW 9439   2.526   0.429   5.902 -0.1338  0.2545 -0.3845
 3147SOL    HW1 9440   2.545   0.377   5.981  0.9222  1.4059  0.1622
 3147SOL    HW2 9441   2.432   0.415   5.886 -0.5121  0.4348  1.4253
 3148SOL     OW 9442   4.160   0.751   6.362  0.2319  0.3980 -0.4365
 3148SOL    HW1 9443   4.179   0.658   6.374 -0.8773  0.4432  2.3990
 3148SOL    HW2 9444   4.233   0.797   6.403 -0.8532  0.6718  1.2916
 3149SOL     OW 9445   2.500   1.757   6.510  0.4280  0.3548 -0.2312
 3149SOL    HW1 9446   2.572   1.727   6.566  0.2601  2.9892  1.5745
 3149SOL    HW2 9447   2.542   1.778   6.427  1.2205 -0.7747 -0.1495
 3150SOL     OW 9448   3.029   1.669   6.416  0.0357 -0.5420  0.6773
 3150SOL    HW1 9449   3.024   1.619   6.498 -2.0378 -1.8396 -0.1588
 3150SOL    HW2 9450   2.968   1.742   6.429 -1.2750 -1.4522 -0.0970
 3151SOL     OW 9451   0.791   4.002   5.580  0.2821 -0.2192 -0.2011
 3151SOL    HW1 9452   0.725   3.969   5.518 -0.5846 -2.2092  1.6585
 3151SOL    HW2 9453   0.762   4.091   5.600 -0.2911 -0.0945 -1.4743
 3152SOL     OW 9454   3.511   3.111   5.769 -0.1030 -0.2942  0.2135
 3152SOL    HW1 9455   3.460   3.030   5.778 -0.7456  0.0955  0.1603
 3152SOL    HW2 9456   3.451   3.172   5.727  0.9355 -0.3041 -1.3830
 3153SOL     OW 9457   2.334   2.178   6.677  0.3775 -0.1381  0.0206
 3153SOL    HW1 9458   2.367   2.192   6.766  0.8949 -2.7129  0.2924
 3153SOL    HW2 9459   2.239   2.168   6.688  0.1474  1.6056 -0.0406
 3154SOL     OW 9460   0.023   0.003   7.908  0.2351 -0.2992 -0.5259
 3154SOL    HW1 9461  -0.054   0.058   7.924  0.3100 -0.6275  1.1330
 3154SOL    HW2 9462   0.092   0.065   7.883 -0.0597  0.1987 -0.1273
 3155SOL     OW 9463   3.295   0.890   6.472 -0.2628  0.3886 -0.0920
 3155SOL    HW1 9464   3.363   0.832   6.438  0.9420  2.3200 -1.1570
 3155SOL    HW2 9465   3.247   0.919   6.394 -0.2510  1.5103  0.2932
 3156SOL     OW 9466   3.451   4.765   7.856  0.3086  0.2165 -0.4891
 3156SOL    HW1 9467   3.420   4.765   7.946  0.1310  0.2906 -0.5502
 3156SOL    HW2 9468   3.408   4.689   7.816  0.0706  0.4209 -0.6206
 3157SOL     OW 9469   3.683   1.492   5.392  0.0296  0.3121  0.2113
 3157SOL    HW1 9470   3.682   1.575   5.440 -3.2062 -1.7981  4.5090
 3157SOL    HW2 9471   3.595   1.484   5.355  0.8898 -0.4387 -1.8272
 3158SOL     OW 9472   4.400   2.658   5.878  0.1283 -0.3444 -0.1804
 3158SOL    HW1 9473   4.304   2.652   5.882  0.0041  0.7897 -0.8809
 3158SOL    HW2 9474   4.417   2.752   5.874  1.2452 -0.5533 -0.5603
 3159SOL     OW 9475   2.408   2.215   6.931  0.0156 -0.3696  0.1658
 3159SOL    HW1 9476   2.345   2.170   6.986  0.2985 -0.2792  0.5670
 3159SOL    HW2 9477   2.490   2.211   6.980  0.1694  0.0954 -0.0512
 3160SOL     OW 9478   3.947   1.066   5.776 -0.6018  0.0644 -0.0457
 3160SOL    HW1 9479   3.910   1.126   5.712 -1.9033 -0.9646 -0.3067
 3160SOL    HW2 9480   4.025   1.031   5.734 -2.1748 -1.6697 -1.7630
 3161SOL     OW 9481   1.491   3.333   5.335 -0.2674 -0.1602 -0.3907
 3161SOL    HW1 9482   1.485   3.241   5.362  0.2906 -0.2232 -0.4524
 3161SOL    HW2 9483   1.429   3.341   5.263 -2.4765  0.2383  1.4513
 3162SOL     OW 9484   4.749   1.201   5.541 -0.0553 -0.3247  0.7619
 3162SOL    HW1 9485   4.795   1.118   5.528  0.7069  0.3455 -1.2660
 3162SOL    HW2 9486   4.658   1.183   5.516  0.3090 -0.3595 -0.6206
 3163SOL     OW 9487   2.747   4.268   9.360 -0.4371 -0.1662 -0.3289
 3163SOL    HW1 9488   2.835   4.233   9.367 -0.8355 -2.1853 -3.4487
 3163SOL    HW2 9489   2.750   4.326   9.283 -1.6121  0.5042  0.0994
 3164SOL     OW 9490   3.406   2.352   6.151 -0.3860  0.0333  0.3897
 3164SOL    HW1 9491   3.467   2.398   6.209 -0.6221 -0.4646  1.0471
 3164SOL    HW2 9492   3.458   2.332   6.073  0.3619 -0.5858  1.0359
 3165SOL     OW 9493   0.449   2.993   5.127  0.2342  0.3007 -0.2773
 3165SOL    HW1 9494   0.371   3.036   5.162  0.1958 -0.1920  0.2627
 3165SOL    HW2 9495   0.443   3.006   5.033 -0.4702  0.3295 -0.2347
 3166SOL     OW 9496   4.029   4.899   5.169  0.1111  0.3174  0.8147
 3166SOL    HW1 9497   4.026   4.833   5.238  0.2073 -0.1817  0.3524
 3166SOL    HW2 9498   3.948   4.949   5.180  0.9057  1.3531  2.3370
 3167SOL     OW 9499   3.111   4.836   8.607  0.2126  0.1599 -0.7942
 3167SOL    HW1 9500   3.103   4.741   8.599 -1.1034  0.3288 -1.8236
 3167SOL    HW2 9501   3.166   4.849   8.685  1.4251 -1.4474 -1.3269
 3168SOL     OW 9502   3.307   4.564   5.253 -0.5834 -0.0558 -0.8739
 3168SOL    HW1 9503   3.366   4.522   5.315 -2.0111  0.3860  0.8668
 3168SOL    HW2 9504   3.355   4.564   5.170  2.2646  1.1626  0.6329
 3169SOL     OW 9505   4.294   0.770   7.268  0.3037 -0.4026  0.4020
 3169SOL    HW1 9506   4.368   0.788   7.325  0.6446  0.5457 -0.3159
 3169SOL    HW2 9507   4.332   0.764   7.180 -0.3911 -0.4492  0.0987
 3170SOL     OW 9508   5.001   1.145   7.981  0.7421 -0.2408 -0.2673
 3170SOL    HW1 9509   4.951   1.159   8.062  0.2856  1.1105 -0.7443
 3170SOL    HW2 9510   5.048   1.228   7.968  0.7782 -0.4284 -1.3930
 3171SOL     OW 9511   3.575   0.546   5.592  0.1324 -0.4544  0.4814
 3171SOL    HW1 9512   3.618   0.612   5.646  3.0683 -2.4568  0.8342
 3171SOL    HW2 9513   3.485   0.543   5.625 -0.0224  2.9704  0.7058
 3172SOL     OW 9514   0.988   0.085   5.433  0.2854  0.0526 -0.1795
 3172SOL    HW1 9515   0.953   0.019   5.492  1.0945 -1.4288 -1.3003
 3172SOL    HW2 9516   0.980   0.167   5.482  0.9310 -1.0994  2.0080
 3173SOL     OW 9517   3.250   0.222   5.156 -0.0630 -0.3373  0.6581
 3173SOL    HW1 9518   3.173   0.208   5.210 -0.2416 -0.2479  0.4281
 3173SOL    HW2 9519   3.289   0.135   5.146 -0.0179 -0.3499  0.9459
 3174SOL     OW 9520   4.887   2.555   5.881  0.1086  0.3251 -0.0264
 3174SOL    HW1 9521   4.877   2.551   5.785 -0.4678  0.6546  0.0146
 3174SOL    HW2 9522   4.981   2.557   5.895  0.2071 -0.0371 -0.5751
 3175SOL     OW 9523   4.411   1.339   6.547 -0.4613 -0.2035 -0.0082
 3175SOL    HW1 9524   4.496   1.384   6.540 -0.4843 -0.2323 -0.5568
 3175SOL    HW2 9525   4.429   1.263   6.603 -0.0550 -0.3566 -0.3368
 3176SOL     OW 9526   4.479   4.300   5.796  0.2548 -0.0260  0.7091
 3176SOL    HW1 9527   4.538   4.308   5.722 -0.3059  0.2950  0.2901
 3176SOL    HW2 9528   4.536   4.276   5.869  0.7437 -0.8017  0.0823
 3177SOL     OW 9529   3.796   0.672   8.523  0.0347  0.1688  0.0315
 3177SOL    HW1 9530   3.708   0.681   8.484  0.4186  0.8228 -0.7198
 3177SOL    HW2 9531   3.805   0.579   8.542  0.2478 -0.4005 -2.5150
 3178SOL     OW 9532   4.035   1.502   5.402 -0.3542  0.0791 -0.6206
 3178SOL    HW1 9533   3.994   1.569   5.347 -2.5748 -1.2716 -0.7372
 3178SOL    HW2 9534   3.987   1.422   5.381  3.1891 -2.0090 -1.6803
 3179SOL     OW 9535   0.661   2.157   7.650  0.7410  0.1369 -0.2296
 3179SOL    HW1 9536   0.646   2.062   7.643  2.1005 -0.1175  0.0095
 3179SOL    HW2 9537   0.657   2.188   7.560 -0.6305  0.0253 -0.2303
 3180SOL     OW 9538   1.632   0.562   5.612  0.4155  0.1638 -0.1139
 3180SOL    HW1 9539   1.655   0.651   5.641  1.8195 -0.7355  1.7358
 3180SOL    HW2 9540   1.658   0.560   5.519  0.6854  1.5711 -0.0902
 3181SOL     OW 9541   2.764   0.459   6.607 -0.0699  0.0859 -0.4173
 3181SOL    HW1 9542   2.804   0.524   6.664 -0.2746  0.7539 -1.0174
 3181SOL    HW2 9543   2.828   0.387   6.603 -0.3762 -0.3078  1.2170
 3182SOL     OW 9544   1.866   2.902   8.029 -0.1720  0.0930  0.0023
 3182SOL    HW1 9545   1.863   2.988   7.986 -0.4850 -0.1741 -0.5282
 3182SOL    HW2 9546   1.810   2.912   8.106  0.2852  0.5420  0.2770
 3183SOL     OW 9547   0.114   4.478   4.845 -0.1054 -0.0345 -0.3020
 3183SOL    HW1 9548   0.125   4.529   4.765  1.9934  1.3233  0.7664
 3183SOL    HW2 9549   0.028   4.504   4.878  0.3527  1.8795 -0.4771
 3184SOL     OW 9550   4.917   2.619   5.619 -0.0456  0.6018 -0.8346
 3184SOL    HW1 9551   4.965   2.538   5.606  0.0925  0.9315 -2.7420
 3184SOL    HW2 9552   4.959   2.681   5.558 -2.5950  1.0016 -2.3131
 3185SOL     OW 9553   3.191   1.213   6.104  0.1584 -0.5824  0.2761
 3185SOL    HW1 9554   3.127   1.232   6.036  0.4601 -1.2723 -0.2019
 3185SOL    HW2 9555   3.273   1.250   6.072 -0.2222  1.4192  1.4403
 3186SOL     OW 9556   4.655   2.416   5.477  0.2848 -0.5358 -0.2464
 3186SOL    HW1 9557   4.604   2.469   5.538  1.0184 -1.5199  1.2573
 3186SOL    HW2 9558   4.590   2.380   5.417 -0.5668 -0.3379  0.5431
 3187SOL     OW 9559   4.063   0.715   4.980 -0.0651 -0.0812  0.2574
 3187SOL    HW1 9560   4.085   0.624   5.002  2.4168  0.4547  0.2555
 3187SOL    HW2 9561   4.136   0.766   5.013 -2.3449  2.2274  2.1281
 3188SOL     OW 9562   3.556   4.644   8.527 -0.0816 -0.2153 -0.0113
 3188SOL    HW1 9563   3.548   4.557   8.490  3.8035 -1.2230  1.1114
 3188SOL    HW2 9564   3.649   4.665   8.522 -0.9037  4.4167 -1.2248
 3189SOL     OW 9565   3.564   2.988   6.144 -0.4893  0.4322 -0.7261
 3189SOL    HW1 9566   3.581   3.082   6.148  0.2352  0.2548  0.7241
 3189SOL    HW2 9567   3.638   2.948   6.188 -0.3362 -0.8988 -2.1177
 3190SOL     OW 9568   0.275   0.284   6.604  0.1184 -0.1667  0.5581
 3190SOL    HW1 9569   0.332   0.209   6.594 -0.2640 -0.2129 -1.9097
 3190SOL    HW2 9570   0.189   0.247   6.624  0.0673 -0.3784 -0.0263
 3191SOL     OW 9571   4.400   0.213   6.066 -0.3352 -0.0324  0.1913
 3191SOL    HW1 9572   4.486   0.255   6.067 -0.3414  0.0303 -1.0652
 3191SOL    HW2 9573   4.351   0.260   5.999 -0.5430 -1.6407 -0.8232
 3192SOL     OW 9574   3.026   0.293   6.909 -0.5823 -0.0734 -0.2669
 3192SOL    HW1 9575   3.002   0.360   6.973 -0.8714  0.0836 -0.5379
 3192SOL    HW2 9576   3.090   0.336   6.852  0.3016 -0.4678  0.4099
 3193SOL     OW 9577   4.875   1.193   9.664  0.1085 -0.1250 -0.2574
 3193SOL    HW1 9578   4.846   1.184   9.754 -0.4397  0.7845 -0.3314
 3193SOL    HW2 9579   4.824   1.266   9.629  1.7110  0.8540 -0.7077
 3194SOL     OW 9580   4.484   0.677   8.070  0.6007 -0.2312 -0.5573
 3194SOL    HW1 9581   4.418   0.729   8.116  1.1094  0.9019 -1.0706
 3194SOL    HW2 9582   4.441   0.592   8.055 -0.7152  0.4443 -0.7993
 3195SOL     OW 9583   1.272   3.675   8.301  0.4537  0.6226  0.2366
 3195SOL    HW1 9584   1.337   3.607   8.317  0.3524  0.0554 -1.4781
 3195SOL    HW2 9585   1.281   3.693   8.207  1.4096  3.9384  0.8389
 3196SOL     OW 9586   4.066   4.911   8.447  0.0752  0.3733  0.5520
 3196SOL    HW1 9587   4.009   4.912   8.524 -0.1018 -1.3217  0.4838
 3196SOL    HW2 9588   4.017   4.959   8.380 -0.1091  1.1980  1.2719
 3197SOL     OW 9589   4.808   4.489   7.346 -0.2496 -0.1380 -0.6040
 3197SOL    HW1 9590   4.844   4.401   7.331 -0.1779 -0.1688 -0.2707
 3197SOL    HW2 9591   4.720   4.473   7.380  0.4125 -0.1343  1.2055
 3198SOL     OW 9592   3.388   2.897   5.553  0.6860  0.1192 -0.0634
 3198SOL    HW1 9593   3.332   2.974   5.543 -0.8365 -1.0255 -0.8539
 3198SOL    HW2 9594   3.394   2.884   5.648 -1.0128 -0.1109  0.0494
 3199SOL     OW 9595   3.894   1.549   7.821  0.3709 -0.9825  0.6714
 3199SOL    HW1 9596   3.955   1.487   7.780  0.6286 -0.0384 -0.4197
 3199SOL    HW2 9597   3.857   1.598   7.749  1.4824  1.3331  1.5721
 3200SOL     OW 9598   2.996   4.259   5.432 -0.4795  0.1233 -0.2436
 3200SOL    HW1 9599   2.959   4.228   5.514 -0.7704  1.6499  0.2344
 3200SOL    HW2 9600   2.921   4.264   5.372 -0.5962  0.7002 -0.0584
 3201SOL     OW 9601   2.478   0.123   8.832 -0.4240  0.3350  0.7186
 3201SOL    HW1 9602   2.458   0.072   8.754 -0.4161 -1.7951  2.0435
 3201SOL    HW2 9603   2.460   0.064   8.905 -2.1476  2.8128  2.4561
 3202SOL     OW 9604   1.874   2.022   8.686 -0.7273 -0.2527  0.3461
 3202SOL    HW1 9605   1.878   2.043   8.779 -0.2890 -1.0625  0.5170
 3202SOL    HW2 9606   1.855   2.106   8.643 -0.1949  0.2598  1.0965
 3203SOL     OW 9607   3.400   1.963   6.644  0.1986  0.2133 -0.0579
 3203SOL    HW1 9608   3.487   2.001   6.630  1.3087 -2.7115 -2.2705
 3203SOL    HW2 9609   3.412   1.905   6.720  1.0653 -2.1293 -1.8448
 3204SOL     OW 9610   0.146   1.956   7.419 -0.3073  0.3721  0.3061
 3204SOL    HW1 9611   0.173   2.042   7.451  1.1091  0.0066  0.1629
 3204SOL    HW2 9612   0.174   1.955   7.327 -0.0690 -0.3205  0.3749
 3205SOL     OW 9613   3.895   0.407   8.911  0.8694 -0.5295 -0.3891
 3205SOL    HW1 9614   3.912   0.501   8.907 -0.2762 -0.2816  0.1750
 3205SOL    HW2 9615   3.851   0.394   8.995 -1.2910 -1.1529 -1.5255
 3206SOL     OW 9616   1.964   1.642   7.651 -0.0956 -0.2869 -0.5934
 3206SOL    HW1 9617   1.909   1.568   7.626 -1.7376  1.4772 -2.6474
 3206SOL    HW2 9618   2.032   1.645   7.584  1.0747 -0.9512  0.5162
 3207SOL     OW 9619   0.351   0.735   6.853 -0.9997 -0.0436  0.2473
 3207SOL    HW1 9620   0.271   0.682   6.856  0.2641 -2.0937 -0.1579
 3207SOL    HW2 9621   0.327   0.811   6.801 -1.9651 -2.0235 -2.4240
 3208SOL     OW 9622   4.459   0.111   9.841 -0.2864  0.6675 -0.3152
 3208SOL    HW1 9623   4.468   0.110   9.746 -0.2621  0.4578 -0.3121
 3208SOL    HW2 9624   4.391   0.175   9.859 -0.5558  0.4359 -0.5001
 3209SOL     OW 9625   0.844   3.446   7.226  0.4657 -0.2579  0.0110
 3209SOL    HW1 9626   0.760   3.473   7.262  0.7371  0.3764  0.1783
 3209SOL    HW2 9627   0.839   3.350   7.222 -0.2737 -0.2218 -0.0163
 3210SOL     OW 9628   0.328   0.952   9.000 -0.0928 -0.6165 -0.3456
 3210SOL    HW1 9629   0.316   0.858   9.000  0.6180 -0.7197  0.3095
 3210SOL    HW2 9630   0.261   0.985   8.940 -0.0475 -1.5692 -0.9398
 3211SOL     OW 9631   2.792   0.685   8.448  0.4124 -0.1557  1.0617
 3211SOL    HW1 9632   2.723   0.624   8.474 -0.1248 -0.2321 -0.4144
 3211SOL    HW2 9633   2.813   0.659   8.358 -1.1559  2.9593 -0.3410
 3212SOL     OW 9634   4.538   4.121   9.978  0.0208 -0.5576  0.3087
 3212SOL    HW1 9635   4.577   4.144   9.894  0.3874  0.0545  0.6423
 3212SOL    HW2 9636   4.453   4.166   9.978  1.2170  1.8975  1.4486
 3213SOL     OW 9637   0.967   1.299   8.294 -0.2596 -0.0722  1.0668
 3213SOL    HW1 9638   0.972   1.348   8.376 -2.7676 -1.2216  1.9893
 3213SOL    HW2 9639   0.931   1.214   8.319 -0.7291 -0.5995 -1.1916
 3214SOL     OW 9640   0.551   3.594   7.734 -0.5285  0.8223 -0.3145
 3214SOL    HW1 9641   0.465   3.553   7.731 -0.5675  0.8542  0.3899
 3214SOL    HW2 9642   0.594   3.563   7.654 -0.1358 -1.5489  0.7069
 3215SOL     OW 9643   2.656   0.321   7.755  0.1073 -0.7362 -0.0362
 3215SOL    HW1 9644   2.636   0.383   7.825  1.7012 -0.1783 -0.0359
 3215SOL    HW2 9645   2.595   0.249   7.768  0.0670 -0.4257  1.6547
 3216SOL     OW 9646   4.035   0.793   8.587  0.2371  0.3101 -0.4866
 3216SOL    HW1 9647   3.954   0.759   8.548  0.6596 -2.3743  0.7419
 3216SOL    HW2 9648   4.014   0.807   8.679  1.1463 -0.5352 -0.1247
 3217SOL     OW 9649   3.136   3.064   8.982  0.6211 -0.5529  0.0557
 3217SOL    HW1 9650   3.185   3.032   9.058 -0.5553  0.2809  1.2040
 3217SOL    HW2 9651   3.049   3.025   8.990 -0.2223  1.2565  0.4063
 3218SOL     OW 9652   0.156   4.380   9.706  0.5139  0.4604  0.5091
 3218SOL    HW1 9653   0.236   4.385   9.654  0.9042  1.0086  1.1328
 3218SOL    HW2 9654   0.155   4.463   9.755  0.0099  0.0950  1.1302
 3219SOL     OW 9655   3.986   2.449   8.224 -0.1810 -0.5973 -0.5935
 3219SOL    HW1 9656   3.959   2.534   8.189  1.1419 -0.2155 -0.7591
 3219SOL    HW2 9657   3.906   2.411   8.261 -0.8464  0.5885 -0.7721
 3220SOL     OW 9658   0.842   0.410   6.660  0.4134  0.1168  0.0536
 3220SOL    HW1 9659   0.917   0.354   6.680  1.4694  2.0607  2.0959
 3220SOL    HW2 9660   0.766   0.355   6.675  1.3904 -1.5624 -0.8727
 3221SOL     OW 9661   3.542   1.781   9.596 -0.2611 -0.1607  0.4812
 3221SOL    HW1 9662   3.581   1.695   9.578  0.4821  0.2960 -0.1647
 3221SOL    HW2 9663   3.479   1.793   9.525  0.1690  0.1369  0.1416
 3222SOL     OW 9664   5.001   2.689   7.582 -0.1967  0.0135 -0.4334
 3222SOL    HW1 9665   5.003   2.631   7.506 -1.9048 -0.6864  0.0120
 3222SOL    HW2 9666   4.928   2.749   7.566 -2.3427 -1.8020  1.7462
 3223SOL     OW 9667   2.235   0.089   7.500  0.1520 -0.7985  0.3015
 3223SOL    HW1 9668   2.238   0.035   7.421  0.5743 -0.4787  0.0925
 3223SOL    HW2 9669   2.314   0.143   7.495 -1.2673  1.3275 -0.5499
 3224SOL     OW 9670   4.425   1.754   8.883 -0.0918  0.0166 -0.3142
 3224SOL    HW1 9671   4.390   1.676   8.839 -0.6724  0.1744 -0.1310
 3224SOL    HW2 9672   4.494   1.719   8.940 -0.0175 -0.3061 -0.5932
 3225SOL     OW 9673   1.633   3.997   5.389 -0.1363 -0.5770 -0.0493
 3225SOL    HW1 9674   1.677   3.921   5.350  0.2357 -1.1657  1.4503
 3225SOL    HW2 9675   1.542   3.988   5.361  0.1332 -0.8966 -0.8757
 3226SOL     OW 9676   3.012   4.152   8.244 -0.3527 -0.3728  0.4960
 3226SOL    HW1 9677   2.928   4.147   8.199 -0.3655  0.0972  0.4663
 3226SOL    HW2 9678   3.006   4.231   8.297  0.0995 -0.3050  0.4455
 3227SOL     OW 9679   4.227   0.596   7.971  0.1530 -0.4499  0.0484
 3227SOL    HW1 9680   4.210   0.669   7.911  0.0059 -0.4486  0.0901
 3227SOL    HW2 9681   4.187   0.624   8.054  0.5882 -0.3350  0.2220
 3228SOL     OW 9682   0.690   0.659   9.997 -0.4246 -0.0962  0.0665
 3228SOL    HW1 9683   0.763   0.604  10.027 -0.4641 -0.1862 -0.0018
 3228SOL    HW2 9684   0.612   0.606  10.013 -0.4086 -0.3637 -0.6748
 3229SOL     OW 9685   0.653   2.133   7.089  0.0415 -0.2595 -0.0692
 3229SOL    HW1 9686   0.685   2.044   7.103 -2.4541 -1.5113 -1.5319
 3229SOL    HW2 9687   0.726   2.178   7.047  2.1200 -0.8781  2.6031
 3230SOL     OW 9688   3.846   1.738   6.521 -0.4939 -0.1273 -0.2006
 3230SOL    HW1 9689   3.820   1.736   6.429 -0.9718 -0.7582 -0.0560
 3230SOL    HW2 9690   3.916   1.673   6.527  0.6476  1.0265 -0.4302
 3231SOL     OW 9691   2.083   4.156   6.455  0.2488 -0.2841 -0.0238
 3231SOL    HW1 9692   2.147   4.225   6.440  0.6775 -0.7688 -0.4521
 3231SOL    HW2 9693   2.127   4.093   6.511  0.7464 -1.4124 -1.5954
 3232SOL     OW 9694   4.357   2.899   7.132 -0.1144 -0.5829  0.1024
 3232SOL    HW1 9695   4.407   2.908   7.213 -1.3045  0.0697  0.7921
 3232SOL    HW2 9696   4.353   2.988   7.096 -0.5073 -0.6807 -0.1063
 3233SOL     OW 9697   4.111   1.684   7.958 -0.0108  0.2785 -0.6220
 3233SOL    HW1 9698   4.066   1.766   7.977  0.7143  0.4593  0.4051
 3233SOL    HW2 9699   4.041   1.624   7.931 -0.6164  1.0776 -0.8723
 3234SOL     OW 9700   4.860   1.804   6.624 -0.1657 -0.1518 -0.0403
 3234SOL    HW1 9701   4.819   1.852   6.552  0.0323  0.1291  0.0317
 3234SOL    HW2 9702   4.954   1.824   6.616  0.1106 -1.5456 -0.7984
 3235SOL     OW 9703   4.028   5.021   9.256 -0.1955 -0.0479 -0.4859
 3235SOL    HW1 9704   3.943   4.981   9.236 -0.8182  0.5465  0.8960
 3235SOL    HW2 9705   4.051   4.986   9.342  0.2801  0.8908 -0.2212
 3236SOL     OW 9706   4.947   0.097   8.846  0.1633 -0.0593  0.1355
 3236SOL    HW1 9707   4.914   0.009   8.865  0.5892 -0.8158 -2.2276
 3236SOL    HW2 9708   5.033   0.100   8.886  0.0171 -0.5982  0.5018
 3237SOL     OW 9709   2.397   0.345   6.907 -0.2131  0.1282  0.3716
 3237SOL    HW1 9710   2.316   0.295   6.903 -0.8849  1.2055  0.0714
 3237SOL    HW2 9711   2.450   0.300   6.973 -0.6143 -1.2016 -0.1902
 3238SOL     OW 9712   0.219   1.836   6.747 -0.1918  0.2203 -0.1249
 3238SOL    HW1 9713   0.236   1.748   6.780 -0.1523  0.5554  0.7792
 3238SOL    HW2 9714   0.142   1.865   6.796 -0.0103  0.8105 -0.1911
 3239SOL     OW 9715   3.664   0.151   8.161 -0.2100 -0.1235 -0.3087
 3239SOL    HW1 9716   3.698   0.172   8.248 -1.4443  0.6422  0.0014
 3239SOL    HW2 9717   3.623   0.232   8.131 -0.8771 -0.7426 -1.0876
 3240SOL     OW 9718   3.661   2.213   8.025 -0.1217 -0.2432  0.1953
 3240SOL    HW1 9719   3.744   2.180   8.060 -0.3598 -1.2588 -0.1440
 3240SOL    HW2 9720   3.664   2.193   7.932 -0.1736  0.9687 -0.0737
 3241SOL     OW 9721   3.202   2.632   5.727 -0.4250 -0.1777 -0.2058
 3241SOL    HW1 9722   3.151   2.698   5.775  0.5058  0.2060  0.2756
 3241SOL    HW2 9723   3.287   2.632   5.769 -0.5855 -2.1439  0.1972
 3242SOL     OW 9724   4.271   0.847   8.169 -0.1822 -0.0256 -0.1718
 3242SOL    HW1 9725   4.276   0.873   8.261 -0.1639 -1.4799  0.2717
 3242SOL    HW2 9726   4.178   0.851   8.148 -0.2997 -0.5676  0.2037
 3243SOL     OW 9727   0.104   4.971   6.832 -0.2185  0.2541  0.7986
 3243SOL    HW1 9728   0.179   4.991   6.888 -2.2109  0.9894  3.3867
 3243SOL    HW2 9729   0.044   4.922   6.889 -1.0401 -1.8530 -1.6674
 3244SOL     OW 9730   3.049   4.471  10.286  0.3291 -0.6381  0.2864
 3244SOL    HW1 9731   2.956   4.487  10.302  0.3028 -1.2929  0.8203
 3244SOL    HW2 9732   3.057   4.375  10.287  0.8053 -0.6345 -0.9169
 3245SOL     OW 9733   3.082   4.565   8.695  0.1492  0.0865 -0.3336
 3245SOL    HW1 9734   3.102   4.480   8.654 -1.5786 -0.1764 -0.7110
 3245SOL    HW2 9735   3.031   4.542   8.772  0.5529  0.7501  0.1316
 3246SOL     OW 9736   3.281   3.984   6.220 -0.6687  0.3890  0.6489
 3246SOL    HW1 9737   3.289   3.926   6.144 -0.9558 -1.3338  1.8930
 3246SOL    HW2 9738   3.362   3.971   6.269 -1.5873 -0.5369  1.9818
 3247SOL     OW 9739   4.396   0.110   7.861  0.7302  0.9050 -0.0087
 3247SOL    HW1 9740   4.478   0.153   7.834  2.5202 -1.7197  0.7700
 3247SOL    HW2 9741   4.424   0.046   7.927 -1.4533 -2.3140 -1.9521
 3248SOL     OW 9742   2.461   2.062   6.456 -0.2831  0.0948  0.3018
 3248SOL    HW1 9743   2.441   1.972   6.432 -2.0584  0.7219 -0.8204
 3248SOL    HW2 9744   2.416   2.075   6.540  1.3772 -0.5158  1.3228
 3249SOL     OW 9745   2.760   0.614   8.174  0.5033 -0.0442  0.1669
 3249SOL    HW1 9746   2.742   0.534   8.224 -1.8911 -0.0445 -0.5584
 3249SOL    HW2 9747   2.822   0.588   8.107  2.0627 -0.5565  1.7436
 3250SOL     OW 9748   4.520   0.962   7.617 -1.0767 -0.3401 -0.7739
 3250SOL    HW1 9749   4.569   1.043   7.599 -0.3728 -0.4704  0.4305
 3250SOL    HW2 9750   4.551   0.934   7.703 -2.4548 -1.0605 -0.4806
 3251SOL     OW 9751   3.660   1.698   7.685 -0.5515 -0.2631  0.5146
 3251SOL    HW1 9752   3.656   1.646   7.604 -1.3898 -0.7759  0.8732
 3251SOL    HW2 9753   3.591   1.661   7.740 -0.6825  0.7719  1.0571
 3252SOL     OW 9754   4.153   4.062   9.449 -0.0012 -0.1444 -0.2110
 3252SOL    HW1 9755   4.126   4.154   9.450 -0.1339 -0.1790  0.7969
 3252SOL    HW2 9756   4.233   4.060   9.501  0.8042 -0.3889 -1.4142
 3253SOL     OW 9757   1.199   3.928   9.987  0.4154 -0.3962  0.1239
 3253SOL    HW1 9758   1.183   3.962   9.900  0.7114 -0.1476  0.1656
 3253SOL    HW2 9759   1.112   3.902  10.019  0.1134  0.7370  0.2752
 3254SOL     OW 9760   4.459   4.387   7.005  0.0949  0.1988  0.0347
 3254SOL    HW1 9761   4.398   4.368   7.077 -0.2686 -1.6976 -0.7048
 3254SOL    HW2 9762   4.436   4.475   6.976 -0.6758  0.4491  1.3329
 3255SOL     OW 9763   1.693   0.804   9.927 -0.0241 -0.1718 -0.2443
 3255SOL    HW1 9764   1.719   0.853   9.848  1.6810  1.2763  1.1112
 3255SOL    HW2 9765   1.629   0.861   9.970  1.3406  0.5432  0.9180
 3256SOL     OW 9766   3.149   2.310   9.789 -0.2275 -0.2015  0.1909
 3256SOL    HW1 9767   3.164   2.361   9.709  2.1738 -0.8313  0.1463
 3256SOL    HW2 9768   3.235   2.308   9.831 -0.2887 -3.7781  0.4364
 3257SOL     OW 9769   3.973   1.087   7.594 -0.1629  0.5789  0.9898
 3257SOL    HW1 9770   3.968   1.059   7.503  1.9940  1.0720  0.6635
 3257SOL    HW2 9771   4.001   1.179   7.589  0.2964  0.5171  2.1541
 3258SOL     OW 9772   2.512   3.751   7.329 -0.5448  0.3095  0.3012
 3258SOL    HW1 9773   2.434   3.785   7.286 -0.8628  0.7128  1.1690
 3258SOL    HW2 9774   2.489   3.749   7.422  0.4943  0.5021  0.5790
 3259SOL     OW 9775   0.208   0.973   7.942  0.2406 -0.1828  0.0235
 3259SOL    HW1 9776   0.132   1.013   7.900 -0.2786  0.3032  1.3665
 3259SOL    HW2 9777   0.204   0.881   7.917 -0.9240 -0.2139  0.2627
 3260SOL     OW 9778   4.575   1.170   8.787  0.0219 -0.2707 -0.3073
 3260SOL    HW1 9779   4.625   1.203   8.861 -0.4304  0.7520 -0.4454
 3260SOL    HW2 9780   4.535   1.089   8.819 -0.0665  0.0971  0.5258
 3261SOL     OW 9781   0.459   3.650   5.907  1.0035 -0.0272 -0.2885
 3261SOL    HW1 9782   0.494   3.580   5.851 -1.5196 -0.8513 -0.9437
 3261SOL    HW2 9783   0.429   3.717   5.847 -2.2103 -1.1432 -0.1395
 3262SOL     OW 9784   4.756   0.488   9.165 -0.2556  0.2810 -0.4772
 3262SOL    HW1 9785   4.850   0.492   9.148 -0.2101 -0.7969 -0.5387
 3262SOL    HW2 9786   4.748   0.457   9.255 -0.5276 -2.1902 -1.2665
 3263SOL     OW 9787   0.497   1.041   9.589  0.0229  0.7426 -0.4843
 3263SOL    HW1 9788   0.538   0.960   9.617  0.3706  0.9946 -0.2583
 3263SOL    HW2 9789   0.404   1.020   9.581 -0.0373  0.5878  0.5672
 3264SOL     OW 9790   3.276   4.329   8.352 -0.1940  0.2297 -0.0993
 3264SOL    HW1 9791   3.180   4.327   8.355 -0.2122  1.1493  0.1141
 3264SOL    HW2 9792   3.303   4.244   8.386 -0.9021  0.6498  1.6197
 3265SOL     OW 9793   0.434   4.632   5.945 -0.0111  0.1728 -0.1783
 3265SOL    HW1 9794   0.521   4.628   5.985 -0.7228 -0.5386  1.3705
 3265SOL    HW2 9795   0.389   4.701   5.993 -0.5830 -0.0370 -0.4100
 3266SOL     OW 9796   4.418   0.285   6.859  0.1396  0.3912  0.1587
 3266SOL    HW1 9797   4.326   0.260   6.868 -0.0132  1.5043  2.2811
 3266SOL    HW2 9798   4.466   0.202   6.865 -0.6678 -0.0702  0.4535
 3267SOL     OW 9799   4.049   4.693   6.996  0.1377  0.3809 -0.7076
 3267SOL    HW1 9800   4.126   4.730   7.041  0.0121  0.3484 -0.4671
 3267SOL    HW2 9801   4.074   4.603   6.975 -0.2740 -0.0029  0.4254
 3268SOL     OW 9802   3.772   2.362   7.454 -0.4400 -0.1759  0.5594
 3268SOL    HW1 9803   3.785   2.381   7.546 -0.5860 -2.0024  0.9914
 3268SOL    HW2 9804   3.699   2.300   7.452  0.9796 -1.9243 -0.5651
 3269SOL     OW 9805   4.732   0.196   8.652  0.4728 -0.7934  0.0269
 3269SOL    HW1 9806   4.795   0.166   8.718 -0.4232 -2.2312  0.2710
 3269SOL    HW2 9807   4.775   0.178   8.568  0.0583 -2.7207  0.1626
 3270SOL     OW 9808   3.761   0.417   8.024  0.6917  0.3261 -0.0017
 3270SOL    HW1 9809   3.724   0.485   8.080 -0.0477 -0.4466  0.4843
 3270SOL    HW2 9810   3.714   0.426   7.941  0.5786  0.4050  0.0698
 3271SOL     OW 9811   4.506   0.026   8.690  0.5010 -0.3859  0.0019
 3271SOL    HW1 9812   4.554   0.101   8.726 -0.2287 -0.3744  0.9963
 3271SOL    HW2 9813   4.466   0.060   8.610 -0.8006  0.6731  1.0481
 3272SOL     OW 9814   0.134   1.261   9.420 -0.1109 -0.3477  0.4687
 3272SOL    HW1 9815   0.218   1.300   9.396 -0.1894 -0.3518  0.1844
 3272SOL    HW2 9816   0.105   1.313   9.495 -0.3279  0.3128 -0.0570
 3273SOL     OW 9817   1.218   1.244   8.943 -0.3793  0.5582 -0.3060
 3273SOL    HW1 9818   1.230   1.307   9.014 -1.3612  0.1445  0.2602
 3273SOL    HW2 9819   1.156   1.286   8.883  2.5884  2.1320 -2.5043
 3274SOL     OW 9820   0.442   0.278   7.775  0.3073  0.5486 -0.0986
 3274SOL    HW1 9821   0.522   0.275   7.828  1.7055  0.7128 -2.1058
 3274SOL    HW2 9822   0.410   0.368   7.787  1.3883  1.0230 -0.5865
 3275SOL     OW 9823   4.281   1.563   6.979  0.2779 -0.2334  0.0493
 3275SOL    HW1 9824   4.287   1.613   6.897  0.4428  0.1599  0.3022
 3275SOL    HW2 9825   4.364   1.517   6.985  1.2929  1.6342  1.2204
 3276SOL     OW 9826   0.184   4.604   6.719 -1.2730 -0.0939 -0.6887
 3276SOL    HW1 9827   0.108   4.613   6.776  0.1711  0.9993  1.1936
 3276SOL    HW2 9828   0.207   4.511   6.725 -0.2497  0.2577  1.8444
 3277SOL     OW 9829   4.039   1.847   8.915  0.0021  0.2727  0.8201
 3277SOL    HW1 9830   4.025   1.931   8.870  2.7587 -0.3382 -1.5199
 3277SOL    HW2 9831   4.114   1.864   8.972 -0.9941 -0.0209  2.2640
 3278SOL     OW 9832   0.912   1.168   9.489 -0.6219 -0.5613  0.0709
 3278SOL    HW1 9833   0.817   1.164   9.477 -0.5191 -0.5238 -0.8443
 3278SOL    HW2 9834   0.924   1.177   9.584 -1.5428 -0.1830  0.1634
 3279SOL     OW 9835   0.029   1.282   8.973 -0.7498 -0.6264 -0.0423
 3279SOL    HW1 9836   0.035   1.375   8.995 -1.9810 -0.4381 -0.4449
 3279SOL    HW2 9837   0.093   1.270   8.903 -0.7070 -0.0525 -0.1080
 3280SOL     OW 9838   2.903   1.342   8.084  0.1657 -0.7745 -0.1949
 3280SOL    HW1 9839   2.952   1.331   8.166  1.1228  1.1681 -0.4368
 3280SOL    HW2 9840   2.880   1.435   8.083  1.5223 -0.3761 -2.8190
 3281SOL     OW 9841   2.155   4.629  10.031  0.0105 -0.1411  0.5240
 3281SOL    HW1 9842   2.132   4.722  10.040  0.9279  0.1836 -0.2870
 3281SOL    HW2 9843   2.071   4.583  10.032 -0.6101  0.8845 -1.1082
 3282SOL     OW 9844   2.999   4.143   9.016  0.1583 -0.7185 -1.1411
 3282SOL    HW1 9845   2.942   4.084   9.065  0.4320  0.6808  0.9976
 3282SOL    HW2 9846   2.940   4.194   8.960 -0.6913  0.3244  0.6309
 3283SOL     OW 9847   4.320   1.133   8.140 -0.3554  0.3229  0.2364
 3283SOL    HW1 9848   4.326   1.179   8.224 -0.6156  1.5685 -0.4109
 3283SOL    HW2 9849   4.363   1.049   8.156  1.6191  1.4150  1.0067
 3284SOL     OW 9850   4.398   0.706   9.163  0.5527 -0.1786 -0.4995
 3284SOL    HW1 9851   4.437   0.789   9.192 -0.9227  0.5296 -0.4508
 3284SOL    HW2 9852   4.373   0.662   9.244  0.7176 -0.3636 -0.5490
 3285SOL     OW 9853   4.397   4.635   9.298  0.1591 -0.3110  0.0104
 3285SOL    HW1 9854   4.471   4.600   9.348  0.3767 -1.8943 -1.3248
 3285SOL    HW2 9855   4.415   4.608   9.208 -0.9552  1.1872 -0.7026
 3286SOL     OW 9856   4.856   3.608   8.302  0.1604 -0.1500  0.5493
 3286SOL    HW1 9857   4.783   3.574   8.353  0.3291 -0.4627  0.5853
 3286SOL    HW2 9858   4.886   3.684   8.351  0.9164 -0.9795  1.4280
 3287SOL     OW 9859   0.715   1.604   9.098 -0.3859  0.4607 -0.1285
 3287SOL    HW1 9860   0.660   1.535   9.135  0.8052 -0.6143 -0.3141
 3287SOL    HW2 9861   0.711   1.675   9.163  0.1802 -0.6656  1.1789
 3288SOL     OW 9862   0.665   4.644   8.022  0.0926  0.0452 -0.1214
 3288SOL    HW1 9863   0.676   4.731   8.058  1.7649 -0.5432  0.9200
 3288SOL    HW2 9864   0.670   4.656   7.927 -0.3032  1.1307 -0.0177
 3289SOL     OW 9865   3.499   0.396   9.063  0.2047 -0.0015 -0.0842
 3289SOL    HW1 9866   3.407   0.417   9.050 -0.1350 -0.1849  1.8268
 3289SOL    HW2 9867   3.546   0.477   9.042 -0.2711 -0.1556 -1.9398
 3290SOL     OW 9868   2.991   0.688   5.626 -0.3051  0.3056 -0.0695
 3290SOL    HW1 9869   3.060   0.622   5.619 -2.2048 -1.8446  0.3868
 3290SOL    HW2 9870   2.958   0.679   5.715 -1.5677  0.8893 -0.4624
 3291SOL     OW 9871   4.746   0.162   9.859 -0.0938  0.5888  0.6899
 3291SOL    HW1 9872   4.752   0.098   9.931 -0.1337  1.8927  1.8929
 3291SOL    HW2 9873   4.654   0.188   9.858 -0.5330 -0.8076 -1.1432
 3292SOL     OW 9874   0.714   2.805   7.081 -0.1200 -0.1393  0.0722
 3292SOL    HW1 9875   0.715   2.755   7.000 -2.0406  0.8208 -0.6009
 3292SOL    HW2 9876   0.794   2.858   7.078 -0.2146 -0.0361 -1.2611
 3293SOL     OW 9877   3.240   0.748   8.695 -0.2486 -0.1902  0.1568
 3293SOL    HW1 9878   3.233   0.778   8.604  1.2542  0.4140  0.2149
 3293SOL    HW2 9879   3.331   0.720   8.704  0.2344  1.7337  2.0605
 3294SOL     OW 9880   4.522   1.431   6.938 -0.6313  0.0106  0.0828
 3294SOL    HW1 9881   4.586   1.435   6.867 -0.4957 -1.2280  0.1111
 3294SOL    HW2 9882   4.574   1.442   7.018 -0.7802  1.3769  0.0246
 3295SOL     OW 9883   3.993   1.027   9.698 -0.2124  0.4906 -0.5257
 3295SOL    HW1 9884   4.065   1.042   9.637 -1.0906  0.4305 -1.5859
 3295SOL    HW2 9885   3.925   1.090   9.672 -0.0726  1.4808  1.2974
 3296SOL     OW 9886   0.078   4.513   7.854 -0.3022  0.4560 -0.4535
 3296SOL    HW1 9887   0.104   4.442   7.912  3.8053  1.6207 -0.5195
 3296SOL    HW2 9888   0.061   4.471   7.770  1.0901 -0.5965 -0.2491
 3297SOL     OW 9889   4.067   0.245   7.671  0.0500  0.2950 -0.2438
 3297SOL    HW1 9890   4.001   0.203   7.727 -0.4161  0.2725 -0.7997
 3297SOL    HW2 9891   4.076   0.333   7.707  1.2387 -0.3440  1.1070
 3298SOL     OW 9892   4.878   0.569   7.017 -0.0793  0.1117 -0.3347
 3298SOL    HW1 9893   4.912   0.480   7.022 -0.9258 -0.3530 -2.1171
 3298SOL    HW2 9894   4.805   0.571   7.078 -0.8866 -0.8333 -1.2448
 3299SOL     OW 9895   4.013   1.054   8.426  0.0776  0.6368 -0.1975
 3299SOL    HW1 9896   3.984   1.109   8.499  0.8398  0.3733  0.3125
 3299SOL    HW2 9897   4.008   0.965   8.460  0.3273  0.5020 -0.5048
 3300SOL     OW 9898   3.758   3.609   8.048 -0.5580  0.1839 -1.0456
 3300SOL    HW1 9899   3.669   3.575   8.035 -0.8088  0.2423  0.3332
 3300SOL    HW2 9900   3.752   3.702   8.030 -1.1257  0.4503  0.3499
 3301SOL     OW 9901   3.707   0.974   9.880  0.5274 -0.1479  0.2244
 3301SOL    HW1 9902   3.724   1.050   9.936 -0.1339  0.0007  0.2310
 3301SOL    HW2 9903   3.683   1.011   9.796 -0.1501 -0.3430  0.3313
 3302SOL     OW 9904   2.621   0.050   7.375  0.0804  0.3655  0.1284
 3302SOL    HW1 9905   2.570   0.130   7.369 -0.4523  0.1255  1.1996
 3302SOL    HW2 9906   2.712   0.078   7.373 -0.0890  1.1340  1.8018
 3303SOL     OW 9907   4.770   0.142   9.191  0.4089  0.5043 -0.3160
 3303SOL    HW1 9908   4.711   0.177   9.124  0.6022  2.0108  0.2828
 3303SOL    HW2 9909   4.855   0.181   9.171  0.1985  1.9871  1.5470
 3304SOL     OW 9910   3.735   2.323   8.293 -0.1726  0.4949 -0.3797
 3304SOL    HW1 9911   3.726   2.242   8.343  0.5320  1.0739  0.7211
 3304SOL    HW2 9912   3.706   2.300   8.205 -1.0707 -0.6568  0.1841
 3305SOL     OW 9913   4.733   0.242   5.571  0.3588  0.1699  0.2594
 3305SOL    HW1 9914   4.828   0.237   5.578  0.4250 -0.8790 -0.9725
 3305SOL    HW2 9915   4.715   0.331   5.540  1.0610 -0.0655 -0.8884
 3306SOL     OW 9916   1.845   2.027   7.335  0.0678  0.2578  0.1985
 3306SOL    HW1 9917   1.914   1.961   7.334 -0.5307 -0.4011  0.9986
 3306SOL    HW2 9918   1.838   2.053   7.427 -0.5166  0.5770  0.0682
 3307SOL     OW 9919   4.199   1.256   7.228  0.0681 -0.2016  0.4758
 3307SOL    HW1 9920   4.233   1.198   7.296 -1.2008 -1.8962 -0.2455
 3307SOL    HW2 9921   4.244   1.229   7.148 -0.6228 -0.2876  0.1074
 3308SOL     OW 9922   1.573   0.964   6.934 -0.1143 -0.4267 -0.0347
 3308SOL    HW1 9923   1.585   1.038   6.874  0.2756 -0.3936  0.0834
 3308SOL    HW2 9924   1.660   0.927   6.944 -0.2027 -0.5123  0.4119
 3309SOL     OW 9925   3.064   4.729   8.073  0.3862 -0.1962 -0.3673
 3309SOL    HW1 9926   3.157   4.723   8.094  0.4507  2.4272  0.4821
 3309SOL    HW2 9927   3.025   4.772   8.150 -0.9899  1.3995 -1.8787
 3310SOL     OW 9928   4.710   4.944   7.715 -0.4396 -0.1790 -0.5457
 3310SOL    HW1 9929   4.770   4.870   7.708 -0.9535 -0.7251  0.4614
 3310SOL    HW2 9930   4.682   4.961   7.626  0.7675 -0.2841 -0.9598
 3311SOL     OW 9931   4.872   3.981   9.238  0.1656 -0.7076 -0.1903
 3311SOL    HW1 9932   4.927   3.947   9.309 -1.1440 -1.2188  0.6088
 3311SOL    HW2 9933   4.783   3.958   9.263 -0.5333  0.9587 -0.9740
 3312SOL     OW 9934   2.693   1.358   8.535 -0.0583  0.1157 -0.0188
 3312SOL    HW1 9935   2.663   1.328   8.621 -0.2797  0.7319  0.1232
 3312SOL    HW2 9936   2.667   1.289   8.475 -0.5451  0.0110  0.3074
 3313SOL     OW 9937   0.263   0.457   6.996 -0.3645 -0.0493  0.2174
 3313SOL    HW1 9938   0.186   0.455   7.053  0.4254  0.7428  1.3337
 3313SOL    HW2 9939   0.230   0.496   6.914 -1.3745 -0.6833  0.2972
 3314SOL     OW 9940   4.089   2.689   6.041  0.7327  0.4297 -0.1165
 3314SOL    HW1 9941   4.171   2.676   6.088  1.3402  1.4413 -0.8668
 3314SOL    HW2 9942   4.023   2.647   6.096  1.0948  3.0515  2.5724
 3315SOL     OW 9943   4.589   1.623   7.845 -0.0996 -0.0359  0.0478
 3315SOL    HW1 9944   4.661   1.671   7.805 -0.0621 -1.2653 -1.4553
 3315SOL    HW2 9945   4.630   1.544   7.881 -0.8588 -1.6338 -2.3797
 3316SOL     OW 9946   0.365   1.425   9.678  0.6166  0.0258  0.5461
 3316SOL    HW1 9947   0.270   1.424   9.694  0.5159 -1.9086  0.1085
 3316SOL    HW2 9948   0.373   1.425   9.583  1.0519  0.3965  0.5847
 3317SOL     OW 9949   3.255   0.970   6.190 -0.2283  0.1560  0.0407
 3317SOL    HW1 9950   3.222   1.058   6.171  1.4653  0.5914 -1.1389
 3317SOL    HW2 9951   3.187   0.912   6.158 -0.4940  1.0291 -1.0685
 3318SOL     OW 9952   4.826   4.084   8.050 -0.2758  0.2103 -0.2260
 3318SOL    HW1 9953   4.817   3.991   8.033 -1.9437  0.4250 -0.6379
 3318SOL    HW2 9954   4.854   4.089   8.142  1.4624 -0.7122 -0.6634
 3319SOL     OW 9955   4.073   3.975   8.001  0.2806 -0.0806 -0.1288
 3319SOL    HW1 9956   4.107   3.954   7.914  0.9051  0.8280 -0.1233
 3319SOL    HW2 9957   4.087   4.069   8.009  0.3448 -0.1777  1.0027
 3320SOL     OW 9958   1.571   4.726   8.814 -0.2149 -0.0299  0.2120
 3320SOL    HW1 9959   1.625   4.805   8.820 -3.4211  2.5091 -1.1418
 3320SOL    HW2 9960   1.516   4.729   8.893  0.1215 -1.3512  0.5155
 3321SOL     OW 9961   4.859   0.254   7.656  0.0426  0.3112 -0.1432
 3321SOL    HW1 9962   4.816   0.308   7.590 -0.2014  0.0768 -0.1774
 3321SOL    HW2 9963   4.863   0.167   7.616  0.1032  0.2224  0.0569
 3322SOL     OW 9964   4.909   4.659   8.235  0.3545  0.2573  0.3909
 3322SOL    HW1 9965   4.938   4.674   8.145  0.3353  0.0029  0.3407
 3322SOL    HW2 9966   4.987   4.679   8.288 -0.3514  2.9965  0.5497
 3323SOL     OW 9967   4.438   3.943   6.275  0.2089  0.1835  0.3124
 3323SOL    HW1 9968   4.503   3.945   6.346 -0.1312 -0.5869  0.6508
 3323SOL    HW2 9969   4.487   3.911   6.199  0.6095  1.1507  0.1434
 3324SOL     OW 9970   1.863   4.575   9.676  0.1647  0.3737 -0.0285
 3324SOL    HW1 9971   1.956   4.578   9.697 -0.0411 -0.3690  1.1286
 3324SOL    HW2 9972   1.857   4.512   9.604  0.6247  0.9556 -0.5832
 3325SOL     OW 9973   4.832   2.748   7.201  0.7029 -0.0769  1.1343
 3325SOL    HW1 9974   4.909   2.697   7.226  0.0289 -1.2556  0.8744
 3325SOL    HW2 9975   4.763   2.718   7.260 -0.9683 -3.0074 -1.9422
 3326SOL     OW 9976   3.616   0.513   6.603 -0.1578  0.7479  0.6826
 3326SOL    HW1 9977   3.580   0.429   6.632 -0.8411  0.0566 -1.9042
 3326SOL    HW2 9978   3.597   0.574   6.674 -0.6100 -1.0430  2.1542
 3327SOL     OW 9979   3.939   0.435   7.318  0.2477  0.1601  0.0108
 3327SOL    HW1 9980   4.013   0.476   7.363  0.9838 -1.0758 -0.0137
 3327SOL    HW2 9981   3.952   0.341   7.332 -1.4917 -0.0809  0.2526
 3328SOL     OW 9982   3.010   0.992   6.362  0.4555 -0.1138  0.0321
 3328SOL    HW1 9983   2.986   1.044   6.285  1.4187  0.3898  0.0555
 3328SOL    HW2 9984   2.965   1.034   6.435  0.9180  0.4573 -0.0086
 3329SOL     OW 9985   2.224   1.001   8.048  0.0772 -0.0975  0.6897
 3329SOL    HW1 9986   2.271   0.918   8.042  0.6675  0.2616  0.3127
 3329SOL    HW2 9987   2.132   0.977   8.044  0.2617 -0.5662 -1.7240
 3330SOL     OW 9988   3.376   4.108   9.331  0.5143  0.0602 -0.1841
 3330SOL    HW1 9989   3.382   4.194   9.289  0.1353  0.6515  0.9410
 3330SOL    HW2 9990   3.436   4.113   9.406  1.8265 -1.2638 -1.0667
 3331SOL     OW 9991   1.274   0.912   8.919 -0.2941 -0.3941 -0.0197
 3331SOL    HW1 9992   1.260   1.006   8.904 -1.6160 -0.8080 -1.5759
 3331SOL    HW2 9993   1.218   0.891   8.994  1.8773  0.4975  1.9790
 3332SOL     OW 9994   4.559   1.531   9.010  0.1114 -0.1338 -0.1966
 3332SOL    HW1 9995   4.608   1.467   8.959  0.6616 -1.1948  1.5576
 3332SOL    HW2 9996   4.476   1.486   9.030  0.8486 -0.7378  1.7836
 3333SOL     OW 9997   0.214   2.254   9.351 -0.2164  0.2697 -0.2417
 3333SOL    HW1 9998   0.142   2.273   9.410 -2.0821 -1.5731 -1.7887
 3333SOL    HW2 9999   0.267   2.334   9.351 -1.4164  1.1392  2.0623
 3334SOL     OW10000   4.065   1.680  10.137 -0.1031 -0.4962 -0.3300
 3334SOL    HW110001   3.977   1.703  10.105 -0.3071 -0.2830  0.3566
 3334SOL    HW210002   4.059   1.692  10.232  0.1596 -2.1911 -0.0768
 3335SOL     OW10003   2.429   3.828   9.469  0.3142  0.2564 -0.5455
 3335SOL    HW110004   2.354   3.811   9.526  0.7437  3.0147  1.0051
 3335SOL    HW210005   2.435   3.750   9.415 -4.2433  0.2057 -1.4297
 3336SOL     OW10006   0.288   0.820   8.277  0.5302  0.1014 -0.2661
 3336SOL    HW110007   0.353   0.874   8.231  1.2849 -0.3129  0.2886
 3336SOL    HW210008   0.314   0.730   8.257 -0.7054 -0.0780 -1.1729
 3337SOL     OW10009   0.521   4.689   7.210 -0.5653 -0.1050 -0.4380
 3337SOL    HW110010   0.547   4.659   7.122  0.6211  0.7468 -0.3994
 3337SOL    HW210011   0.603   4.713   7.252 -1.2216  0.4373  0.5594
 3338SOL     OW10012   2.343   3.430   9.606 -0.0399  0.0651  0.4888
 3338SOL    HW110013   2.391   3.348   9.594  0.2094 -0.4399  3.8356
 3338SOL    HW210014   2.259   3.415   9.563 -0.4668 -2.5156  1.9954
 3339SOL     OW10015   4.083   1.832   9.860 -0.1202  0.0645 -0.3844
 3339SOL    HW110016   4.051   1.752   9.903 -1.4351  0.6299 -0.2610
 3339SOL    HW210017   4.036   1.834   9.776  1.7592 -0.5642 -1.5083
 3340SOL     OW10018   0.425   0.554   9.728  0.3499  0.7196  0.6280
 3340SOL    HW110019   0.440   0.499   9.652  0.9273  2.9487 -0.9861
 3340SOL    HW210020   0.346   0.603   9.706  0.6555  1.5577  1.3541
 3341SOL     OW10021   1.691   1.632   9.025 -0.1167  0.0183  1.1086
 3341SOL    HW110022   1.778   1.604   9.053  0.1508  0.2081  0.4658
 3341SOL    HW210023   1.706   1.708   8.970 -0.7208  0.3098  1.3365
 3342SOL     OW10024   2.961   2.741   8.209  0.4446 -0.1595  0.3069
 3342SOL    HW110025   2.892   2.795   8.172  0.8198  0.3293  0.3096
 3342SOL    HW210026   2.939   2.733   8.302  1.2098  1.3098  0.6490
 3343SOL     OW10027   4.915   4.292   9.589  0.1514  0.1556 -0.1536
 3343SOL    HW110028   4.997   4.299   9.638 -0.7031  1.9944  1.1876
 3343SOL    HW210029   4.912   4.371   9.535 -0.4931 -0.1547 -0.5917
 3344SOL     OW10030   3.096   4.203   9.412 -0.2507  0.9168  0.4748
 3344SOL    HW110031   3.092   4.178   9.504 -0.1928 -2.9496 -0.3950
 3344SOL    HW210032   3.166   4.149   9.375 -0.9086  1.6227 -2.0297
 3345SOL     OW10033   3.196   4.285   9.141 -0.7493  0.1070  0.3110
 3345SOL    HW110034   3.268   4.247   9.090  0.0051  1.5639  0.2413
 3345SOL    HW210035   3.117   4.247   9.103 -0.1522  0.4403 -1.3501
 3346SOL     OW10036   4.770   3.008   9.157 -0.9475 -0.2053  0.0993
 3346SOL    HW110037   4.834   2.965   9.100 -1.2139 -0.0730 -0.3006
 3346SOL    HW210038   4.730   3.074   9.102 -1.4873 -0.3381  0.3322
 3347SOL     OW10039   3.857   3.550  10.150 -0.0040 -0.0034 -0.1524
 3347SOL    HW110040   3.765   3.529  10.163  0.4328 -0.8884  1.8828
 3347SOL    HW210041   3.866   3.640  10.179  0.1047 -0.5551  1.6507
 3348SOL     OW10042   0.056   0.839   9.829  0.4247 -0.4092  0.3467
 3348SOL    HW110043  -0.023   0.797   9.796 -0.9345  2.1987  0.0021
 3348SOL    HW210044   0.026   0.894   9.902  2.0072  0.2573  0.5459
 3349SOL     OW10045   4.152   2.679   9.366  0.1871 -0.0731 -0.7787
 3349SOL    HW110046   4.178   2.756   9.316  0.6180  1.3098  1.4305
 3349SOL    HW210047   4.227   2.662   9.423 -0.1515 -1.7925 -0.8094
 3350SOL     OW10048   3.626   4.396   9.158  0.1331 -0.5306 -0.4471
 3350SOL    HW110049   3.679   4.329   9.200  0.6479 -0.3183 -0.7517
 3350SOL    HW210050   3.689   4.453   9.113  0.0407  1.9895  2.2722
 3351SOL     OW10051   1.365   4.437  10.173 -0.1547 -0.4294 -0.1216
 3351SOL    HW110052   1.338   4.350  10.146  0.0871 -0.5892  0.1440
 3351SOL    HW210053   1.423   4.468  10.104 -1.0276 -0.0758 -0.7075
 3352SOL     OW10054   1.150   3.189   8.695  0.2250 -0.1376  0.4642
 3352SOL    HW110055   1.057   3.165   8.694 -0.1324  0.7318  3.3641
 3352SOL    HW210056   1.194   3.110   8.727  0.2571 -0.0227  0.7073
 3353SOL     OW10057   4.567   2.190   9.107  0.2946 -0.3020  0.1193
 3353SOL    HW110058   4.586   2.105   9.068  0.7072 -0.5923  0.9293
 3353SOL    HW210059   4.619   2.252   9.055 -0.9701 -0.3461 -1.2781
 3354SOL     OW10060   0.528   4.833   9.200 -0.1319  0.0352 -0.9581
 3354SOL    HW110061   0.499   4.750   9.162  0.9893  0.2635 -2.3915
 3354SOL    HW210062   0.508   4.898   9.133  1.3369  0.5485 -0.9209
 3355SOL     OW10063   2.856   3.046   8.785 -0.3611  0.9437 -0.3608
 3355SOL    HW110064   2.838   2.955   8.761  0.6854  0.4179  0.7245
 3355SOL    HW210065   2.815   3.057   8.871  0.6514  1.0907  0.1087
 3356SOL     OW10066   2.357   2.072   8.598  0.7480  0.0710 -0.1235
 3356SOL    HW110067   2.438   2.023   8.608  1.9169  2.2407  1.8250
 3356SOL    HW210068   2.379   2.143   8.538 -0.6676 -1.0719 -2.1422
 3357SOL     OW10069   3.291   2.405   9.408  0.6099  0.5024 -0.3285
 3357SOL    HW110070   3.268   2.465   9.479 -0.1868  1.0672 -1.0447
 3357SOL    HW210071   3.241   2.326   9.426 -1.3198  1.4122 -1.3994
 3358SOL     OW10072   0.032   0.716   9.406  0.4896 -0.3245 -0.1536
 3358SOL    HW110073  -0.029   0.687   9.473 -0.0706  0.6941 -0.2113
 3358SOL    HW210074   0.119   0.696   9.443  0.1649 -0.6582  0.4463
 3359SOL     OW10075   3.135   1.879   7.916  0.0835  0.0449  0.1742
 3359SOL    HW110076   3.180   1.831   7.847 -3.8059 -2.1991 -1.1030
 3359SOL    HW210077   3.164   1.837   7.997  1.8177  0.1759 -0.3287
 3360SOL     OW10078   0.969   0.548   9.933  0.4400  0.2735 -0.8727
 3360SOL    HW110079   0.952   0.490   9.859 -0.6076  0.8547 -1.1014
 3360SOL    HW210080   1.052   0.516   9.970 -1.6185 -3.5126  1.0679
 3361SOL     OW10081   2.998   1.014   8.836 -0.2109  0.1650  0.1178
 3361SOL    HW110082   2.983   0.968   8.754 -1.5459  1.0196 -0.1370
 3361SOL    HW210083   3.042   1.095   8.810 -0.9588  0.6025  0.1978
 3362SOL     OW10084   1.036   4.377   8.504  0.0685 -0.7272 -0.4226
 3362SOL    HW110085   0.990   4.325   8.438 -0.1511  1.5499 -2.1841
 3362SOL    HW210086   0.989   4.359   8.586  0.9867 -4.4333 -0.5404
 3363SOL     OW10087   3.791   0.236   8.407 -0.2756 -0.4552  0.3929
 3363SOL    HW110088   3.859   0.286   8.363 -2.5473  1.5123 -1.1798
 3363SOL    HW210089   3.824   0.221   8.496  2.3165 -0.0149 -0.4396
 3364SOL     OW10090   4.488   2.834   8.460 -0.1955 -0.2752  0.1483
 3364SOL    HW110091   4.526   2.906   8.409  1.8528 -1.6441 -0.3975
 3364SOL    HW210092   4.418   2.800   8.405  0.1879  0.0180 -0.5320
 3365SOL     OW10093   3.266   0.385   8.709  0.1323 -0.3490 -0.4259
 3365SOL    HW110094   3.209   0.427   8.644  0.0234  0.4815  0.1979
 3365SOL    HW210095   3.354   0.418   8.688 -0.0108  0.5656  0.3318
 3366SOL     OW10096   2.844   4.269   8.832  0.4040 -0.2041 -0.2858
 3366SOL    HW110097   2.843   4.273   8.736  0.8284 -2.3538 -0.4426
 3366SOL    HW210098   2.753   4.286   8.857  0.0466 -0.7429 -1.1611
 3367SOL     OW10099   2.857   1.022   8.330  0.1680 -0.0882  0.2915
 3367SOL    HW110100   2.952   1.008   8.325  0.0386 -0.6078 -1.0137
 3367SOL    HW210101   2.821   0.968   8.260 -1.0611  0.4691  0.4709
 3368SOL     OW10102   1.553   1.949   9.565  0.2878  0.0566  0.0096
 3368SOL    HW110103   1.508   1.876   9.524  1.3251  0.0551 -1.1837
 3368SOL    HW210104   1.646   1.931   9.551  0.5897  1.1327  0.5107
 3369SOL     OW10105   2.716   4.615   9.380  0.2220 -0.2767  0.3798
 3369SOL    HW110106   2.784   4.614   9.448  0.3162  2.4233  0.4517
 3369SOL    HW210107   2.707   4.707   9.357 -1.8080 -0.8132 -1.3008
 3370SOL     OW10108   4.055   0.386   8.131 -0.3286  0.3261 -0.0420
 3370SOL    HW110109   4.093   0.300   8.113 -0.9621 -0.0922  0.5619
 3370SOL    HW210110   3.982   0.393   8.068 -2.1191 -0.8517  1.7614
 3371SOL     OW10111   4.363   0.224   9.524 -0.2838  0.2299 -0.2937
 3371SOL    HW110112   4.275   0.260   9.533 -1.2242 -2.2527  1.7598
 3371SOL    HW210113   4.354   0.151   9.463  0.8700  1.2580 -1.7648
 3372SOL     OW10114   2.383   3.020   9.718  0.0876  0.1891  0.7579
 3372SOL    HW110115   2.353   2.939   9.677 -2.4710  1.7142 -0.5862
 3372SOL    HW210116   2.472   3.032   9.685 -0.1913 -1.0703 -0.5603
 3373SOL     OW10117   3.670   2.655   9.075 -0.3602 -0.1264 -0.0956
 3373SOL    HW110118   3.580   2.686   9.070 -0.1630  0.2677 -1.5380
 3373SOL    HW210119   3.705   2.698   9.154 -0.8356  1.3833 -0.6631
 3374SOL     OW10120   0.199   4.892   8.774 -0.8150 -0.2882 -0.1911
 3374SOL    HW110121   0.169   4.940   8.851 -0.0513 -1.7134  1.0346
 3374SOL    HW210122   0.177   4.801   8.792  1.1616 -0.9204 -0.7542
 3375SOL     OW10123   0.159  -0.001   9.018 -0.6148 -0.4640 -0.3242
 3375SOL    HW110124   0.159   0.080   9.070 -0.0101 -1.3161  1.0360
 3375SOL    HW210125   0.134  -0.069   9.080  0.2200 -1.5231 -1.1276
 3376SOL     OW10126   3.274   0.497   9.438 -0.2349  0.5119  0.2901
 3376SOL    HW110127   3.265   0.435   9.366  0.8459 -0.0282  0.6037
 3376SOL    HW210128   3.197   0.554   9.430 -1.8643 -1.5257  0.6676
 3377SOL     OW10129   2.692   0.874   8.817  0.2907 -0.2943 -0.4521
 3377SOL    HW110130   2.758   0.883   8.748  0.1894  0.1679 -0.4886
 3377SOL    HW210131   2.638   0.953   8.809 -0.0030 -0.4636 -0.1428
 3378SOL     OW10132   4.664   1.922  10.121  0.1694 -0.3954  0.2322
 3378SOL    HW110133   4.627   1.989  10.064  0.4792  0.9151  1.5183
 3378SOL    HW210134   4.739   1.965  10.164  0.3077 -1.5168  1.1639
 3379SOL     OW10135   0.149   1.729   8.854 -0.2268 -0.3164 -0.4390
 3379SOL    HW110136   0.184   1.673   8.785  1.1565  0.3740 -0.3455
 3379SOL    HW210137   0.062   1.754   8.823 -1.0330 -2.7221 -0.3243
 3380SOL     OW10138   3.551   0.606   9.281  0.0561 -0.5122  0.1412
 3380SOL    HW110139   3.504   0.527   9.253  0.0559 -0.5436  0.2276
 3380SOL    HW210140   3.485   0.655   9.331  0.1951 -0.6942  0.5097
 3381SOL     OW10141   1.737   1.053   8.985  0.4197  0.0156 -0.5290
 3381SOL    HW110142   1.663   1.005   8.947 -0.1633  0.1001  0.4510
 3381SOL    HW210143   1.754   1.009   9.068 -0.3811  1.6979  0.5797
 3382SOL     OW10144   2.956   4.562   9.838  0.3334  0.5429 -0.2777
 3382SOL    HW110145   2.927   4.483   9.883 -1.2385  1.7199  0.8540
 3382SOL    HW210146   3.019   4.602   9.898  0.4150  0.6469 -0.4306
 3383SOL     OW10147   0.851   2.675   8.756  0.3992 -0.3658 -0.1901
 3383SOL    HW110148   0.793   2.751   8.762  1.3596  0.3660  0.0474
 3383SOL    HW210149   0.853   2.653   8.663 -0.3215 -0.4627 -0.1900
 3384SOL     OW10150   0.150   1.854   9.731 -0.2307 -0.0157  0.3765
 3384SOL    HW110151   0.093   1.907   9.787 -1.2089 -0.3357 -0.2812
 3384SOL    HW210152   0.096   1.779   9.706  0.5032 -0.3549 -0.2327
 3385SOL     OW10153   1.319   1.538   7.880  0.1694 -0.4802  0.2979
 3385SOL    HW110154   1.352   1.500   7.961  2.1524  1.8931  0.7544
 3385SOL    HW210155   1.346   1.476   7.812  1.0954 -1.0924  1.1906
 3386SOL     OW10156   3.767   4.043   9.918  0.5515 -0.7896 -0.0890
 3386SOL    HW110157   3.801   4.042  10.007  0.5516 -0.4082 -0.0826
 3386SOL    HW210158   3.752   4.136   9.899  0.3122 -0.8869 -0.3934
 3387SOL     OW10159   2.102   0.548   9.071 -0.3363  0.9914  0.3608
 3387SOL    HW110160   2.099   0.515   8.981  0.6599  0.0758  0.6296
 3387SOL    HW210161   2.192   0.579   9.082  0.0222 -0.3370  1.4934
 3388SOL     OW10162   0.630   1.214   8.863  0.4115  0.1520 -0.0560
 3388SOL    HW110163   0.543   1.250   8.848  0.2705  0.0348  0.4673
 3388SOL    HW210164   0.619   1.152   8.935  0.9279  0.1490  0.0257
 3389SOL     OW10165   4.588   0.629   9.847  0.0621  0.3958  0.0557
 3389SOL    HW110166   4.510   0.576   9.829  0.4169  0.0103 -0.4181
 3389SOL    HW210167   4.634   0.581   9.916  1.8182 -1.5461 -2.2440
 3390SOL     OW10168   3.450   2.180   9.744  0.3213  0.0334 -0.3305
 3390SOL    HW110169   3.505   2.242   9.792 -0.2689 -0.2364  0.7408
 3390SOL    HW210170   3.470   2.095   9.783  1.3473 -0.5306 -1.9938
 3391SOL     OW10171   3.955   4.673   9.644  0.3851  0.3490 -0.3595
 3391SOL    HW110172   3.885   4.647   9.704 -0.5262  0.8111 -1.1764
 3391SOL    HW210173   3.909   4.718   9.572  1.6219  1.5774 -0.4261
 3392SOL     OW10174   4.218   1.010   7.692 -0.7982 -0.1511  0.6569
 3392SOL    HW110175   4.133   1.019   7.649 -0.2900 -0.3051 -0.4217
 3392SOL    HW210176   4.230   1.092   7.740 -1.0288  0.3779 -0.1688
 3393SOL     OW10177   3.978   3.430   7.953  0.6687 -0.8020  0.1615
 3393SOL    HW110178   4.034   3.402   8.026  0.7750  0.5320  0.6065
 3393SOL    HW210179   3.911   3.485   7.994  0.6632 -0.1276 -0.7343
 3394SOL     OW10180   3.502   2.376   8.458 -0.4633 -0.3730 -0.4785
 3394SOL    HW110181   3.474   2.451   8.405  0.5432  1.1110  1.0002
 3394SOL    HW210182   3.575   2.339   8.409 -2.5718 -2.0887 -2.5496
 3395SOL     OW10183   3.576   1.652   8.420  0.1256 -0.0538  0.0726
 3395SOL    HW110184   3.541   1.575   8.465  0.5117  0.5377  1.4148
 3395SOL    HW210185   3.501   1.712   8.413 -0.2871 -0.6932 -1.3660
 3396SOL     OW10186   4.672   3.639   9.012 -0.3019 -0.5848  0.2167
 3396SOL    HW110187   4.588   3.653   8.968  0.5560  0.9408 -1.0273
 3396SOL    HW210188   4.714   3.725   9.013  2.2583 -1.7113 -1.3238
 3397SOL     OW10189   4.706   4.496   9.793  0.1082  0.1434  0.3413
 3397SOL    HW110190   4.797   4.511   9.767  0.2635 -2.4086 -0.9066
 3397SOL    HW210191   4.709   4.417   9.846 -1.1032  1.5463  2.6444
 3398SOL     OW10192   2.968   2.953   9.322 -0.5185 -0.4240  0.2678
 3398SOL    HW110193   2.971   2.858   9.334 -0.7032 -0.4914 -0.2048
 3398SOL    HW210194   2.886   2.969   9.276 -1.0163  0.0761  1.2757
 3399SOL     OW10195   4.647   1.259   9.268 -0.6402  0.1656 -0.3660
 3399SOL    HW110196   4.666   1.167   9.284 -2.3704  0.3198  3.7527
 3399SOL    HW210197   4.727   1.294   9.228  0.2843 -2.8864 -1.4575
 3400SOL     OW10198   2.394   3.555   7.994  0.0941  0.3795 -0.6107
 3400SOL    HW110199   2.382   3.469   8.035  1.3712  0.8952  0.9736
 3400SOL    HW210200   2.472   3.545   7.940  0.4381  0.6052 -0.1664
 3401SOL     OW10201   1.794   2.301   8.663  0.1864 -0.5381  0.3432
 3401SOL    HW110202   1.840   2.314   8.580  0.3824 -1.9715  0.1939
 3401SOL    HW210203   1.850   2.343   8.729 -0.2154  1.0392 -0.2772
 3402SOL     OW10204   1.600   2.086   7.679  0.1046  0.2600 -0.1143
 3402SOL    HW110205   1.563   1.999   7.668 -0.3234  0.3290  0.7516
 3402SOL    HW210206   1.688   2.079   7.641  0.6348 -0.9679  1.2714
 3403SOL     OW10207   0.691   0.606   9.513  0.2715 -0.2568  0.7522
 3403SOL    HW110208   0.693   0.514   9.539  2.6274 -0.0341  1.6721
 3403SOL    HW210209   0.610   0.616   9.464 -0.8221 -2.4312  1.9948
 3404SOL     OW10210   2.254   4.963  10.139 -0.0260  0.4118 -0.2226
 3404SOL    HW110211   2.169   4.944  10.101 -0.3949  1.1043  0.2334
 3404SOL    HW210212   2.241   5.043  10.190  0.5135 -0.3386  1.1539
 3405SOL     OW10213   3.321   4.974  10.106 -0.5613  0.2460 -0.2086
 3405SOL    HW110214   3.376   4.897  10.096  0.6549  0.6783  2.1887
 3405SOL    HW210215   3.338   5.027  10.028 -0.5169 -1.3604 -1.3170
 3406SOL     OW10216   2.292   0.071   9.719  0.0326 -0.1361 -0.6908
 3406SOL    HW110217   2.349   0.048   9.792 -0.5676  0.0733 -0.1572
 3406SOL    HW210218   2.218   0.011   9.725  0.3322 -0.6288 -1.5808
 3407SOL     OW10219   0.440   0.554   9.407  0.1495 -0.2024 -0.0883
 3407SOL    HW110220   0.382   0.630   9.406 -0.7570 -0.8638  0.5285
 3407SOL    HW210221   0.457   0.535   9.314  0.1102  0.5378 -0.2487
 3408SOL     OW10222   2.768   4.263   8.561  0.6499  0.0367 -0.3023
 3408SOL    HW110223   2.689   4.251   8.508 -1.1829  0.0670  2.2420
 3408SOL    HW210224   2.793   4.174   8.586 -1.5982  0.1170  2.8546
 3409SOL     OW10225   4.070   0.829   9.169  0.1704  0.6666 -0.1461
 3409SOL    HW110226   4.005   0.763   9.194  0.5233  0.5097  0.3655
 3409SOL    HW210227   4.022   0.888   9.111 -0.1299 -0.0843 -0.6802
 3410SOL     OW10228   3.685   1.066   9.619  0.3386  0.3729 -0.0210
 3410SOL    HW110229   3.733   1.003   9.565 -1.2540  0.1125 -1.1944
 3410SOL    HW210230   3.606   1.086   9.569 -1.7129 -0.5886  2.5901
 3411SOL     OW10231   2.841   0.541   7.440  0.1263 -0.4153  0.0121
 3411SOL    HW110232   2.914   0.493   7.401  1.2108  0.6959  0.6061
 3411SOL    HW210233   2.824   0.612   7.378 -0.8625 -0.9846 -0.4047
 3412SOL     OW10234   2.671   1.076   9.530  0.0654  0.5845 -0.1758
 3412SOL    HW110235   2.658   1.135   9.604  3.5050 -0.5220  1.5449
 3412SOL    HW210236   2.652   0.989   9.564  0.5697  0.1673 -0.9154
 3413SOL     OW10237   0.579   1.575   8.631  0.3328 -0.6759  0.0486
 3413SOL    HW110238   0.569   1.495   8.579  0.8199 -1.1863  0.7108
 3413SOL    HW210239   0.546   1.551   8.718 -1.2856  0.4204 -0.2309
 3414SOL     OW10240   2.833   4.761   8.812  0.6211  0.0432 -0.3048
 3414SOL    HW110241   2.831   4.739   8.719  1.5470  1.5065 -0.7075
 3414SOL    HW210242   2.896   4.700   8.850  0.8901 -0.0007 -0.8116
 3415SOL     OW10243   4.630   2.205  10.016  0.1839 -0.0375  0.0566
 3415SOL    HW110244   4.638   2.298  10.036  1.0304 -0.0815 -0.0514
 3415SOL    HW210245   4.549   2.198   9.966  0.3103  0.6941 -0.2560
 3416SOL     OW10246   3.808   4.449  10.164  0.8762  0.4359  0.1363
 3416SOL    HW110247   3.858   4.444  10.082  1.5392  1.9834  0.4132
 3416SOL    HW210248   3.837   4.531  10.204 -1.1575  0.8681  0.7978
 3417SOL     OW10249   4.132   4.297   8.541 -0.5315 -0.4543  0.5388
 3417SOL    HW110250   4.063   4.340   8.491 -0.7343 -0.5657  0.7207
 3417SOL    HW210251   4.183   4.369   8.578 -1.2987 -0.3505  1.4338
 3418SOL     OW10252   2.687   4.903   9.297  0.1188  0.3948  0.3342
 3418SOL    HW110253   2.717   4.974   9.241  0.6424  0.1125  0.2535
 3418SOL    HW210254   2.669   4.944   9.381 -2.1229  1.1166 -0.4134
 3419SOL     OW10255   3.041   0.358   9.253 -0.7766  0.0247 -0.0006
 3419SOL    HW110256   3.070   0.312   9.332 -0.0835 -0.3733 -0.4744
 3419SOL    HW210257   3.001   0.291   9.199  1.5786 -0.3922 -1.3559
 3420SOL     OW10258   3.899   2.703   8.930 -0.5325 -0.3458 -0.0367
 3420SOL    HW110259   3.855   2.634   8.980 -0.7112 -0.3237 -0.1633
 3420SOL    HW210260   3.828   2.751   8.888 -0.3170 -1.2128 -1.4284
 3421SOL     OW10261   0.130   0.733   7.522 -0.1177 -0.2128 -1.2292
 3421SOL    HW110262   0.145   0.639   7.532  0.2785 -0.3740 -2.9690
 3421SOL    HW210263   0.213   0.773   7.548 -0.3613 -0.3135 -0.2664
 3422SOL     OW10264   4.170   1.603   9.566  0.0276  0.5127 -0.5153
 3422SOL    HW110265   4.200   1.559   9.646 -0.4444 -1.5522 -1.4271
 3422SOL    HW210266   4.075   1.603   9.573 -0.0087  0.4572 -1.0153
 3423SOL     OW10267   2.868   0.294   7.589 -0.0052 -0.3019 -0.6357
 3423SOL    HW110268   2.810   0.288   7.665  2.7870  0.4008  1.6893
 3423SOL    HW210269   2.849   0.381   7.552 -0.6739 -0.2241 -0.1417
 3424SOL     OW10270   4.858   3.978   9.808  0.0868  0.3721  0.1232
 3424SOL    HW110271   4.838   3.969   9.901 -0.6099 -0.9575 -0.1374
 3424SOL    HW210272   4.937   3.927   9.795 -0.9288 -1.1430 -0.3637
 3425SOL     OW10273   4.025   4.129   6.050 -0.3810 -0.1929  0.1997
 3425SOL    HW110274   4.088   4.108   6.119  0.3844 -0.3892 -0.5353
 3425SOL    HW210275   4.014   4.224   6.055 -0.0396 -0.1590  0.3498
 3426SOL     OW10276   1.018   3.611   5.735 -0.0741  0.0076 -0.3672
 3426SOL    HW110277   1.079   3.684   5.734  0.4099 -0.3736  0.5675
 3426SOL    HW210278   0.947   3.638   5.676  0.2234  1.1104 -0.2354
 3427SOL     OW10279   3.702   2.125   5.608  0.2155 -0.8843  0.4101
 3427SOL    HW110280   3.639   2.117   5.537  1.1812 -1.7863 -0.3860
 3427SOL    HW210281   3.688   2.214   5.642  0.0968 -0.2071 -1.2761
 3428SOL     OW10282   4.710   2.802   5.706  0.3188 -0.3890 -0.2038
 3428SOL    HW110283   4.624   2.782   5.669  0.4637  0.2123 -0.8840
 3428SOL    HW210284   4.771   2.749   5.656  0.2656 -1.6324  0.9780
 3429SOL     OW10285   4.123   1.995   5.442 -0.2806  0.2020 -0.1883
 3429SOL    HW110286   4.192   1.971   5.380 -1.6617  0.0355 -1.7200
 3429SOL    HW210287   4.171   2.027   5.519  1.5016 -0.6877 -0.8629
 3430SOL     OW10288   2.926   2.858   6.711 -0.2671  0.1695  0.8827
 3430SOL    HW110289   2.893   2.940   6.746 -1.4582  0.4741 -0.8179
 3430SOL    HW210290   2.992   2.830   6.774 -1.6589  1.0860  2.8467
 3431SOL     OW10291   1.005   2.418   5.726  0.0421 -0.0127 -0.5739
 3431SOL    HW110292   1.007   2.471   5.646  0.6172  0.0923 -0.4978
 3431SOL    HW210293   0.973   2.478   5.794  0.8504  0.2952 -0.4543
 3432SOL     OW10294   0.932   4.511   5.609 -0.3274 -0.3083  0.2991
 3432SOL    HW110295   0.947   4.569   5.535 -0.9631  0.0959  0.4730
 3432SOL    HW210296   0.858   4.550   5.656 -0.3868 -0.9357  0.7541
 3433SOL     OW10297   3.622   2.137   7.487 -0.6267 -0.0960 -0.4022
 3433SOL    HW110298   3.637   2.085   7.566 -2.9403 -1.1640 -0.5720
 3433SOL    HW210299   3.649   2.079   7.415  1.8948  1.0368 -0.4658
 3434SOL     OW10300   2.138   3.696   6.767  0.7233  0.5797 -0.4079
 3434SOL    HW110301   2.210   3.640   6.737 -0.7496 -0.9937 -1.1815
 3434SOL    HW210302   2.120   3.666   6.856  1.5799  1.6075  0.1414
 3435SOL     OW10303   4.799   4.935   6.793  0.2354  0.0243  0.1254
 3435SOL    HW110304   4.814   4.890   6.709  1.7649 -0.0988  0.4302
 3435SOL    HW210305   4.752   4.870   6.846 -0.2447 -0.1030 -0.4419
 3436SOL     OW10306   3.692   0.502   7.242  0.1359  0.1241  0.3991
 3436SOL    HW110307   3.725   0.514   7.153 -1.0525 -0.0526 -0.0830
 3436SOL    HW210308   3.768   0.472   7.291  0.6560 -0.4623 -0.7181
 3437SOL     OW10309   2.455   4.141   7.124 -0.5811 -0.2877  0.1862
 3437SOL    HW110310   2.367   4.177   7.134  0.0060  1.2865  0.1117
 3437SOL    HW210311   2.503   4.211   7.080  0.5364 -1.3871 -0.3807
 3438SOL     OW10312   4.220   2.477   5.493  0.0025  0.0633 -0.5422
 3438SOL    HW110313   4.272   2.557   5.484 -0.2572  0.2754 -0.1650
 3438SOL    HW210314   4.176   2.468   5.409  1.8587 -0.9963 -1.4877
 3439SOL     OW10315   3.465   3.317   6.032 -0.0675 -1.0046 -0.2716
 3439SOL    HW110316   3.451   3.410   6.051  0.8296 -1.0837  0.8731
 3439SOL    HW210317   3.466   3.312   5.936 -3.6453 -0.4095 -0.4775
 3440SOL     OW10318   4.293   3.741   4.953 -0.6060 -0.0321 -0.4104
 3440SOL    HW110319   4.219   3.794   4.924 -0.4560  0.6475  0.3959
 3440SOL    HW210320   4.256   3.680   5.017 -0.0520  2.4934  2.5906
 3441SOL     OW10321   0.638   4.713   5.312 -0.3330  0.0139 -0.3097
 3441SOL    HW110322   0.642   4.693   5.406 -0.2594  0.0507 -0.3051
 3441SOL    HW210323   0.671   4.803   5.305  0.0047 -0.1164 -0.4135
 3442SOL     OW10324   4.602   3.189   5.337 -0.2926  0.4786 -0.2953
 3442SOL    HW110325   4.577   3.107   5.380  2.4305 -0.4542 -0.3280
 3442SOL    HW210326   4.607   3.167   5.244 -0.3921  0.9171 -0.4060
 3443SOL     OW10327   3.340   1.162   5.596 -0.5439  0.3640  0.1581
 3443SOL    HW110328   3.311   1.125   5.680 -2.1867 -0.9543 -0.9172
 3443SOL    HW210329   3.433   1.141   5.593  0.0477  2.2413  2.5077
 3444SOL     OW10330   2.056   2.900   5.871  0.4496 -0.4335 -0.0138
 3444SOL    HW110331   2.091   2.899   5.960 -1.5758  0.0429  0.8453
 3444SOL    HW210332   1.996   2.825   5.868 -0.9613  0.6714 -0.3270
 3445SOL     OW10333   4.695   0.912   5.193 -0.0892  0.6153  0.3520
 3445SOL    HW110334   4.658   0.882   5.110 -0.5776  1.2001  0.3461
 3445SOL    HW210335   4.768   0.853   5.210 -0.2404  0.2344 -0.2870
 3446SOL     OW10336   3.515   0.897   6.151  0.5917  0.0003  0.2966
 3446SOL    HW110337   3.427   0.934   6.162  1.5643  2.2081  1.1248
 3446SOL    HW210338   3.519   0.827   6.216 -0.3501  0.2635  0.6657
 3447SOL     OW10339   0.387   2.484   5.502  0.4916  0.2102  0.2565
 3447SOL    HW110340   0.304   2.436   5.511 -0.4446  1.3008 -1.7310
 3447SOL    HW210341   0.405   2.516   5.590  0.6151 -2.7926  1.4553
 3448SOL     OW10342   3.701   1.247   7.431  0.3298 -0.2129 -0.4197
 3448SOL    HW110343   3.775   1.235   7.371  2.4877  3.5617  1.1020
 3448SOL    HW210344   3.730   1.204   7.512  1.3926  1.9009  0.4161
 3449SOL     OW10345   0.767   2.606   6.098  0.1229 -0.6265 -0.1309
 3449SOL    HW110346   0.830   2.543   6.061 -0.5006 -1.6531  0.5161
 3449SOL    HW210347   0.694   2.552   6.128  0.9887 -0.0369  3.5293
 3450SOL     OW10348   0.434   1.965   6.142  0.8868  0.2552  0.0730
 3450SOL    HW110349   0.399   2.040   6.093 -1.0515 -0.3643  0.4570
 3450SOL    HW210350   0.398   1.888   6.099  2.6565 -0.4956 -0.1571
 3451SOL     OW10351   3.312   3.617   7.015  0.3278 -0.4819 -0.0746
 3451SOL    HW110352   3.386   3.675   6.998  1.0509 -1.0968  0.8651
 3451SOL    HW210353   3.239   3.675   7.036  0.3489  0.1597 -1.6303
 3452SOL     OW10354   1.401   1.897   6.257 -0.2965 -0.5171 -0.2126
 3452SOL    HW110355   1.455   1.908   6.179  1.2977  0.3930  0.9736
 3452SOL    HW210356   1.383   1.803   6.261 -1.5523 -0.4548 -2.3585
 3453SOL     OW10357   0.135   1.320   5.350 -0.6660 -0.1929  0.3771
 3453SOL    HW110358   0.080   1.290   5.423 -0.9770  1.2530  0.7757
 3453SOL    HW210359   0.219   1.278   5.365 -0.6716  0.2018  1.6863
 3454SOL     OW10360   4.672   3.177   6.126  0.3568  0.0099 -0.1596
 3454SOL    HW110361   4.699   3.111   6.062 -0.4823  0.4915 -1.0417
 3454SOL    HW210362   4.597   3.138   6.171 -0.1687  0.3551 -0.7133
 3455SOL     OW10363   3.793   3.153   5.968  0.2368 -0.1330  0.2875
 3455SOL    HW110364   3.702   3.145   5.940 -0.1597  1.6439  0.9487
 3455SOL    HW210365   3.823   3.235   5.929  1.7713 -0.9994 -0.4400
 3456SOL     OW10366   1.503   2.236   6.035  0.4307  0.0008 -0.3603
 3456SOL    HW110367   1.433   2.200   6.089  1.4848 -2.5689 -0.5970
 3456SOL    HW210368   1.565   2.274   6.099  0.1235 -0.1174  0.0095
 3457SOL     OW10369   0.975   3.662   5.109 -0.2032 -0.0732 -0.5266
 3457SOL    HW110370   1.008   3.709   5.185 -1.9521  0.6065 -0.1404
 3457SOL    HW210371   1.053   3.625   5.068  0.9258  0.7869  0.7550
 3458SOL     OW10372   3.182   2.569   5.448 -0.7466  0.0901 -0.3255
 3458SOL    HW110373   3.242   2.626   5.401  1.4672 -2.3306 -0.6490
 3458SOL    HW210374   3.184   2.601   5.538  0.8708  0.2429 -0.3924
 3459SOL     OW10375   4.077   0.733   5.981 -0.2015  0.3480 -0.3257
 3459SOL    HW110376   4.062   0.657   5.924  0.7802  0.5222 -0.8282
 3459SOL    HW210377   4.064   0.698   6.070  1.5041 -0.7461 -0.4646
 3460SOL     OW10378   3.605   3.871   6.640 -0.4729 -0.1675  0.0399
 3460SOL    HW110379   3.692   3.849   6.673 -0.6331 -1.5534 -0.4285
 3460SOL    HW210380   3.547   3.805   6.677 -1.2952  0.5496  0.0826
 3461SOL     OW10381   3.031   4.825   5.743 -0.4387  0.0922  0.2475
 3461SOL    HW110382   3.093   4.825   5.816  0.4204  0.5898 -0.4564
 3461SOL    HW210383   3.069   4.765   5.679 -0.8959  0.0899 -0.0275
 3462SOL     OW10384   3.770   3.096   7.805 -0.2809 -0.4297 -0.1531
 3462SOL    HW110385   3.856   3.054   7.811 -0.0436  0.1248  0.5293
 3462SOL    HW210386   3.789   3.190   7.802 -0.8646 -0.2934  0.1723
 3463SOL     OW10387   4.528   3.528   5.836  0.4972  0.5066 -1.0441
 3463SOL    HW110388   4.437   3.557   5.832  0.2118 -0.4697 -3.7791
 3463SOL    HW210389   4.525   3.437   5.804  2.0693 -0.6686  1.8046
 3464SOL     OW10390   4.594   3.909   7.423  0.1733  0.3877 -0.1868
 3464SOL    HW110391   4.652   3.926   7.497  1.0203 -1.1996 -0.4547
 3464SOL    HW210392   4.516   3.872   7.463  0.0656  0.8152  0.0143
 3465SOL     OW10393   4.407   2.940   5.895  0.7659 -0.2744 -0.2613
 3465SOL    HW110394   4.424   3.020   5.945 -1.3678  0.0993 -0.0379
 3465SOL    HW210395   4.416   2.966   5.803 -2.7626  1.1199 -0.3747
 3466SOL     OW10396   4.757   2.880   6.970 -0.2998  0.1709  0.2551
 3466SOL    HW110397   4.783   2.836   7.052  0.5324  1.4368  0.6922
 3466SOL    HW210398   4.838   2.884   6.919 -0.5885  0.3431 -0.1871
 3467SOL     OW10399   3.923   2.294   6.140  0.8641  0.6334 -0.2821
 3467SOL    HW110400   3.984   2.241   6.088 -0.6721 -1.1329 -0.4298
 3467SOL    HW210401   3.843   2.295   6.087 -0.7061 -1.0630  1.8667
 3468SOL     OW10402   3.486   3.789   5.065 -0.2129  0.5843  0.2639
 3468SOL    HW110403   3.480   3.803   4.970 -0.8076  0.1809  0.2353
 3468SOL    HW210404   3.395   3.780   5.093 -0.0902  1.5190  1.0079
 3469SOL     OW10405   3.592   1.079   5.654 -0.1789 -0.1136 -0.3003
 3469SOL    HW110406   3.679   1.084   5.615  0.7010 -1.2568  1.4223
 3469SOL    HW210407   3.606   1.093   5.747 -1.9842  0.6911 -0.1172
 3470SOL     OW10408   3.161   1.503   7.902  0.1439  0.3484 -0.5522
 3470SOL    HW110409   3.230   1.491   7.968 -0.3231 -1.5293 -0.3532
 3470SOL    HW210410   3.193   1.456   7.825 -0.0465  1.1532 -1.1344
 3471SOL     OW10411   4.297   3.438   6.292  0.0535  0.3328 -0.3373
 3471SOL    HW110412   4.256   3.379   6.229 -1.4155  0.8980  0.0330
 3471SOL    HW210413   4.386   3.450   6.260 -0.1361 -0.7535 -1.3334
 3472SOL     OW10414   3.270   3.149   5.539 -0.3101  0.0413 -0.1669
 3472SOL    HW110415   3.190   3.200   5.527  0.0523  0.5441 -0.4558
 3472SOL    HW210416   3.341   3.213   5.534  0.1879 -0.5694 -1.1874
 3473SOL     OW10417   0.111   2.858   5.093 -0.6409 -0.2429  0.2051
 3473SOL    HW110418   0.198   2.821   5.084 -0.0207  1.4049 -0.9642
 3473SOL    HW210419   0.052   2.788   5.063  0.5297 -0.0909 -2.7560
 3474SOL     OW10420   0.091   2.308   5.846 -0.0455 -0.2590  0.0394
 3474SOL    HW110421   0.061   2.228   5.889 -1.3769 -0.4493 -1.1851
 3474SOL    HW210422   0.012   2.346   5.806  0.8512  0.7773 -0.8233
 3475SOL     OW10423   3.117   2.290   6.090 -0.1658 -0.4574  0.2369
 3475SOL    HW110424   3.057   2.359   6.063 -0.3461 -0.8250 -0.3262
 3475SOL    HW210425   3.172   2.330   6.157 -1.8833 -0.4713  1.7362
 3476SOL     OW10426   4.764   1.044   6.080 -0.0501  0.5841  0.2591
 3476SOL    HW110427   4.718   1.108   6.025 -1.3527  1.3754  2.1593
 3476SOL    HW210428   4.768   1.086   6.166  1.4207 -0.8362  0.9266
 3477SOL     OW10429   3.192   2.119   7.583  0.4886 -0.4349 -0.4485
 3477SOL    HW110430   3.222   2.053   7.521 -1.1392 -1.0077 -0.6537
 3477SOL    HW210431   3.240   2.100   7.664  0.5790 -1.4048 -0.7217
 3478SOL     OW10432   0.607   3.838   5.425 -0.0113 -0.7128  0.1316
 3478SOL    HW110433   0.516   3.858   5.444 -0.1386 -0.9633 -0.2109
 3478SOL    HW210434   0.605   3.791   5.342  0.2421 -2.5550  1.1202
 3479SOL     OW10435   4.452   2.365   7.544  0.1803  0.1138 -0.0877
 3479SOL    HW110436   4.386   2.387   7.479 -0.7746 -1.3730  0.3228
 3479SOL    HW210437   4.535   2.376   7.498 -0.4599 -0.6772 -1.5136
 3480SOL     OW10438   0.599   2.641   6.568 -0.2268  0.1038 -0.2026
 3480SOL    HW110439   0.654   2.713   6.539  0.4678 -1.1835 -2.2901
 3480SOL    HW210440   0.511   2.664   6.536  0.2242 -0.5085 -1.9862
 3481SOL     OW10441   2.044   2.505   5.601 -0.7178 -0.3076  0.3851
 3481SOL    HW110442   2.001   2.419   5.593  0.3426 -0.7243 -1.3805
 3481SOL    HW210443   2.079   2.522   5.514 -0.5868  1.7769  0.8012
 3482SOL     OW10444   4.381   3.349   5.359 -0.5055  0.4365  0.0153
 3482SOL    HW110445   4.305   3.318   5.311 -0.2117  0.9082 -0.7816
 3482SOL    HW210446   4.456   3.311   5.313 -0.1598  1.9079 -0.6978
 3483SOL     OW10447   4.552   1.876   6.888 -0.0475 -0.2037 -0.2777
 3483SOL    HW110448   4.458   1.861   6.903  0.1963 -1.3213  0.2694
 3483SOL    HW210449   4.582   1.795   6.847  0.3783  0.7772 -1.9843
 3484SOL     OW10450   0.854   3.668   6.059 -0.2591  0.0805  0.3654
 3484SOL    HW110451   0.770   3.661   6.105 -0.6237 -0.6286 -0.3832
 3484SOL    HW210452   0.833   3.716   5.979  0.0981  0.0884  0.2757
 3485SOL     OW10453   4.817   0.976   5.770 -0.3668 -0.3989 -0.2301
 3485SOL    HW110454   4.878   0.909   5.739  0.4293 -0.4856  1.3997
 3485SOL    HW210455   4.870   1.055   5.776 -0.9534  0.0420 -0.7745
 3486SOL     OW10456   4.313   4.885   5.721  0.1876  0.5193  0.0610
 3486SOL    HW110457   4.240   4.941   5.695  0.9532  1.1591 -0.7729
 3486SOL    HW210458   4.362   4.871   5.640 -0.8588 -2.7283 -0.1497
 3487SOL     OW10459   4.455   1.868   7.797  0.1767  0.2413 -0.0959
 3487SOL    HW110460   4.496   1.782   7.807  0.5404  0.5398  1.2416
 3487SOL    HW210461   4.457   1.886   7.703  1.5132 -0.5281 -0.2339
 3488SOL     OW10462   3.887   2.923   5.756 -0.5632  0.4990  0.0088
 3488SOL    HW110463   3.895   3.009   5.714 -2.7811  2.4869  3.2474
 3488SOL    HW210464   3.959   2.920   5.819 -1.3580  0.6946  0.9499
 3489SOL     OW10465   4.604   2.049   7.546 -0.4336 -0.8522 -0.1925
 3489SOL    HW110466   4.606   2.121   7.608  0.0712  1.0473 -2.2788
 3489SOL    HW210467   4.688   2.054   7.500 -0.9541 -1.8829 -1.3248
 3490SOL     OW10468   3.106   0.168   5.765 -0.2598  0.5394 -0.4713
 3490SOL    HW110469   3.118   0.243   5.708 -0.4646 -0.1214 -1.3972
 3490SOL    HW210470   3.028   0.124   5.732  1.1942 -1.4357 -1.4926
 3491SOL     OW10471   2.396   1.965   7.431 -0.8096  0.2451  0.2280
 3491SOL    HW110472   2.477   1.923   7.401 -2.0369 -1.3007 -1.1718
 3491SOL    HW210473   2.423   2.023   7.502  1.3800 -0.9320  0.4364
 3492SOL     OW10474   0.532   1.649   5.565 -0.4011  0.1911 -0.6787
 3492SOL    HW110475   0.558   1.618   5.652  0.0023 -0.5982 -1.0645
 3492SOL    HW210476   0.539   1.744   5.570 -0.4586  0.1575  0.1733
 3493SOL     OW10477   3.205   3.443   5.149  0.0366  0.1812  0.1113
 3493SOL    HW110478   3.173   3.432   5.238  0.4356 -0.6840  0.1517
 3493SOL    HW210479   3.296   3.468   5.159  0.2794 -0.6081 -0.0557
 3494SOL     OW10480   4.719   3.259   6.540  0.4514 -0.0040 -0.0257
 3494SOL    HW110481   4.768   3.219   6.468 -0.6627  0.4473 -1.0745
 3494SOL    HW210482   4.657   3.192   6.567 -0.2180  0.3794 -0.5862
 3495SOL     OW10483   1.572   4.316   6.392 -0.5359 -0.1809 -0.0224
 3495SOL    HW110484   1.622   4.297   6.312 -2.4622 -0.5872 -1.1752
 3495SOL    HW210485   1.585   4.239   6.447 -0.6177 -0.6738 -0.6802
 3496SOL     OW10486   0.401   2.786   7.106  0.5148  0.1750 -0.3105
 3496SOL    HW110487   0.493   2.808   7.119  0.1652  1.3271  0.3769
 3496SOL    HW210488   0.365   2.859   7.056 -0.6105  1.1168  1.7453
 3497SOL     OW10489   3.438   3.593   6.054 -0.3201 -0.2429 -0.1208
 3497SOL    HW110490   3.489   3.664   6.015 -2.2609  1.8613  0.8895
 3497SOL    HW210491   3.478   3.579   6.140 -1.4436  1.5479  0.7578
 3498SOL     OW10492   0.646   2.503   7.764  0.0892  0.0253 -0.2594
 3498SOL    HW110493   0.576   2.502   7.698  1.0253  2.4032 -1.3801
 3498SOL    HW210494   0.715   2.448   7.726  0.4030  0.9379 -1.0391
 3499SOL     OW10495   4.875   1.346   7.621 -0.7956 -0.3039  0.4755
 3499SOL    HW110496   4.946   1.298   7.578 -1.4065  0.2879 -1.3268
 3499SOL    HW210497   4.919   1.410   7.676  0.0453 -1.1352  0.7808
 3500SOL     OW10498   3.369   2.685   6.310 -0.3652  0.0079  0.2218
 3500SOL    HW110499   3.453   2.689   6.265 -1.2539 -1.1466 -1.6928
 3500SOL    HW210500   3.390   2.662   6.400  1.5015  2.3235  0.4434
 3501SOL     OW10501   4.568   1.762   5.996  0.1564  0.3560  0.3056
 3501SOL    HW110502   4.558   1.730   6.086  0.8713  0.4768  0.4394
 3501SOL    HW210503   4.490   1.731   5.951 -0.6255  1.0080  1.1656
 3502SOL     OW10504   4.698   2.827   6.410  0.6844 -0.3095 -0.6792
 3502SOL    HW110505   4.622   2.819   6.352  1.0872  0.2471 -1.3026
 3502SOL    HW210506   4.660   2.837   6.498  0.0548 -0.6445 -0.9093
 3503SOL     OW10507   4.326   3.171   6.041  0.2031 -0.5406  0.0979
 3503SOL    HW110508   4.248   3.197   6.089  0.2667 -2.1149  1.1636
 3503SOL    HW210509   4.316   3.210   5.955 -1.1233  0.3537  0.6248
 3504SOL     OW10510   0.423   3.149   5.973  0.2303 -0.4085 -0.1635
 3504SOL    HW110511   0.427   3.088   5.898  1.1205 -2.1357  1.2108
 3504SOL    HW210512   0.350   3.117   6.026  1.6283 -1.2892  1.3316
 3505SOL     OW10513   0.444   1.066   5.158 -0.1327 -0.3379 -0.6157
 3505SOL    HW110514   0.402   1.005   5.219  0.5813 -1.0745 -0.8417
 3505SOL    HW210515   0.518   1.017   5.122  0.7603  0.8314 -0.4375
 3506SOL     OW10516   3.642   3.672   5.860 -0.1587 -0.6681 -0.1419
 3506SOL    HW110517   3.569   3.673   5.797 -2.3288 -2.0238  2.1786
 3506SOL    HW210518   3.657   3.764   5.881 -0.8648 -0.3419 -0.9856
 3507SOL     OW10519   3.684   2.186   5.003  0.0995 -0.2656 -0.1478
 3507SOL    HW110520   3.669   2.093   4.986  0.4451 -0.3178 -0.1575
 3507SOL    HW210521   3.603   2.215   5.047 -1.1180  0.0294 -2.4274
 3508SOL     OW10522   3.373   2.799   5.290  0.3902 -0.2917  0.2471
 3508SOL    HW110523   3.464   2.786   5.317  0.6584  1.0064  0.0013
 3508SOL    HW210524   3.335   2.855   5.357 -0.5103 -1.5216  0.8209
 3509SOL     OW10525   0.594   2.880   7.559  0.1587 -0.5559  1.1244
 3509SOL    HW110526   0.575   2.829   7.480 -0.2803  2.2809 -0.7269
 3509SOL    HW210527   0.525   2.857   7.620  0.3730 -2.6453  0.6560
 3510SOL     OW10528   3.166   3.893   5.062 -0.3397 -0.8720 -0.1977
 3510SOL    HW110529   3.229   3.964   5.046 -1.2736 -0.0101 -0.1642
 3510SOL    HW210530   3.089   3.937   5.098 -1.2286 -1.8058 -0.9016
 3511SOL     OW10531   0.015   2.197   7.322 -0.0095  0.1353  0.2457
 3511SOL    HW110532  -0.047   2.194   7.394 -0.6280  0.9373 -0.2412
 3511SOL    HW210533   0.091   2.243   7.357 -0.1112  0.0917  0.5224
 3512SOL     OW10534   2.239   3.288   6.621 -0.9640  0.7059  0.2755
 3512SOL    HW110535   2.233   3.294   6.717 -1.7681  1.3000  0.1960
 3512SOL    HW210536   2.324   3.248   6.605 -0.2669  1.7475  1.2088
 3513SOL     OW10537   0.469   2.190   5.995  0.1273 -0.3786 -0.2694
 3513SOL    HW110538   0.545   2.204   5.939 -0.6428 -1.1268 -1.5396
 3513SOL    HW210539   0.399   2.164   5.935 -1.3588  1.0184  0.7789
 3514SOL     OW10540   3.122   1.764   6.723 -0.0027  0.2106  0.2181
 3514SOL    HW110541   3.068   1.686   6.714 -0.9859  0.6804  1.6728
 3514SOL    HW210542   3.195   1.736   6.779  0.2196  0.0685 -0.1413
 3515SOL     OW10543   0.978   3.446   5.965 -0.7039 -0.3708  0.0462
 3515SOL    HW110544   0.919   3.513   6.000 -1.8512 -0.8374 -0.9274
 3515SOL    HW210545   1.010   3.483   5.883 -0.1251 -0.3939  0.2542
 3516SOL     OW10546   4.751   4.052   6.294 -0.0767 -0.4046 -0.6950
 3516SOL    HW110547   4.718   4.001   6.367  0.3639 -2.1676 -1.6766
 3516SOL    HW210548   4.805   4.120   6.334 -0.7765 -0.6149  0.6523
 3517SOL     OW10549   1.330   3.683   6.007 -0.5295 -0.6912  0.4412
 3517SOL    HW110550   1.419   3.687   6.041 -0.4071  0.2958  0.0188
 3517SOL    HW210551   1.335   3.619   5.935  0.0565  0.0545 -0.1995
 3518SOL     OW10552   3.982   2.131   5.080 -0.1021 -0.7917 -0.7855
 3518SOL    HW110553   3.904   2.154   5.028  0.5539  1.4679 -0.9002
 3518SOL    HW210554   3.963   2.164   5.167  0.0920 -1.7184 -0.3834
 3519SOL     OW10555   4.054   3.134   6.843  0.5947 -0.2567  0.1443
 3519SOL    HW110556   4.136   3.159   6.802  0.3460  0.2270 -0.0651
 3519SOL    HW210557   4.068   3.044   6.873 -0.0186 -1.6677 -3.2921
 3520SOL     OW10558   1.222   3.547   5.215  0.0057 -0.2760 -0.0760
 3520SOL    HW110559   1.213   3.458   5.180 -1.0285 -0.7468  1.3043
 3520SOL    HW210560   1.146   3.558   5.271  0.4400  1.2797  0.2409
 3521SOL     OW10561   2.997   1.017   6.922 -0.6876 -0.0929  0.2927
 3521SOL    HW110562   3.019   1.053   6.837  1.2283  0.0122  0.7831
 3521SOL    HW210563   2.905   1.039   6.935 -1.1274 -0.4232 -1.8747
 3522SOL     OW10564   4.841   3.066   6.390  0.4717 -0.2927  0.1407
 3522SOL    HW110565   4.777   3.000   6.414  0.3849 -0.3964 -0.3790
 3522SOL    HW210566   4.923   3.018   6.379 -0.1297 -0.8093 -2.9784
 3523SOL     OW10567   3.484   3.533   5.133  0.3191  0.3605  0.0593
 3523SOL    HW110568   3.564   3.479   5.130  0.2398  0.2622 -1.9657
 3523SOL    HW210569   3.516   3.623   5.126  0.3446  0.4791  1.4772
 3524SOL     OW10570   4.875   3.840   5.679  0.0802  0.4338  0.2243
 3524SOL    HW110571   4.950   3.877   5.632  1.0033  0.2282  1.4901
 3524SOL    HW210572   4.912   3.800   5.758 -1.2725 -0.3609  0.5073
 3525SOL     OW10573   3.491   2.345   6.914 -0.0472 -0.3987  0.3055
 3525SOL    HW110574   3.516   2.267   6.866  1.6345 -1.3634  2.5543
 3525SOL    HW210575   3.502   2.321   7.006  0.0761  2.3201  1.0893
 3526SOL     OW10576   3.732   4.542   7.369 -0.1155 -0.2399  0.0574
 3526SOL    HW110577   3.639   4.529   7.386 -0.1368 -2.5631 -1.3350
 3526SOL    HW210578   3.749   4.632   7.395 -3.0795  0.7344 -0.9930
 3527SOL     OW10579   3.817   2.612   6.467 -0.3258 -0.1746  0.1381
 3527SOL    HW110580   3.793   2.604   6.559  1.4246 -1.1080  0.5536
 3527SOL    HW210581   3.836   2.706   6.455  0.3087 -0.1895  0.9745
 3528SOL     OW10582   2.680   4.808   6.569  0.2654 -0.2768  0.3975
 3528SOL    HW110583   2.593   4.807   6.609  0.4249  2.3994  0.9862
 3528SOL    HW210584   2.714   4.720   6.585 -2.1624 -1.3057  0.4392
 3529SOL     OW10585   4.858   3.612   5.426  0.0316  0.1419 -0.3769
 3529SOL    HW110586   4.853   3.521   5.395  0.0532  0.3912 -1.1105
 3529SOL    HW210587   4.776   3.625   5.473 -0.4658  0.0852 -1.2083
 3530SOL     OW10588   2.064   2.798   7.770 -0.0156  0.2988 -0.1423
 3530SOL    HW110589   2.150   2.813   7.808 -0.2969  0.1694  0.5696
 3530SOL    HW210590   2.034   2.716   7.811 -1.2983  1.3574  1.1256
 3531SOL     OW10591   3.756   4.972   6.204 -0.8105  0.3489 -0.4173
 3531SOL    HW110592   3.716   4.920   6.274 -0.4292  1.3333  0.5537
 3531SOL    HW210593   3.699   4.958   6.128 -1.3720 -0.5333  0.1510
 3532SOL     OW10594   3.907   2.001   6.030  0.0846 -0.1631  0.1328
 3532SOL    HW110595   3.885   1.984   5.938  1.5100 -1.9111  0.0616
 3532SOL    HW210596   3.836   1.961   6.080 -0.6385  0.6941 -0.1690
 3533SOL     OW10597   4.353   2.092   6.686  0.0395  0.7820 -0.1082
 3533SOL    HW110598   4.358   2.051   6.772  0.9314 -1.7428 -1.2686
 3533SOL    HW210599   4.443   2.118   6.666 -0.4081  2.9397  0.3362
 3534SOL     OW10600   1.283   2.818   6.718  0.2997 -0.3853  0.2370
 3534SOL    HW110601   1.372   2.847   6.739 -0.3467  0.4847  1.8718
 3534SOL    HW210602   1.240   2.895   6.681  0.1406 -0.7530 -0.3718
 3535SOL     OW10603   4.335   4.260   6.114  0.1107  0.1148 -0.2616
 3535SOL    HW110604   4.314   4.255   6.021 -0.7111 -0.6353 -0.0596
 3535SOL    HW210605   4.263   4.213   6.157  1.7374 -1.7690  0.5584
 3536SOL     OW10606   3.913   2.005   5.760 -0.1876  0.5095  0.1202
 3536SOL    HW110607   3.840   2.027   5.702 -0.8949  0.3273  0.9016
 3536SOL    HW210608   3.932   1.913   5.741  0.4677  0.8201 -0.7391
 3537SOL     OW10609   0.113   1.947   5.193 -0.1046  0.1527 -0.2297
 3537SOL    HW110610   0.133   2.040   5.191 -1.9900  0.5816 -2.0489
 3537SOL    HW210611   0.068   1.930   5.111 -0.4584 -2.2204  0.3800
 3538SOL     OW10612   4.298   3.642   5.839 -0.5510 -0.6997 -0.0726
 3538SOL    HW110613   4.215   3.609   5.804 -0.3054  1.2878 -2.8834
 3538SOL    HW210614   4.273   3.697   5.913 -1.7582 -0.2382 -0.7911
 3539SOL     OW10615   3.804   4.334   6.323 -0.1986 -0.4580  0.5107
 3539SOL    HW110616   3.741   4.372   6.384 -0.2905 -2.3461  1.6524
 3539SOL    HW210617   3.852   4.270   6.374  2.1286  0.3438 -0.5478
 3540SOL     OW10618  -0.016   4.735   5.902 -0.1871  0.0076  1.0513
 3540SOL    HW110619  -0.003   4.826   5.929  0.5927  0.0701  0.5040
 3540SOL    HW210620   0.054   4.686   5.945  0.1061 -0.1395  0.4257
 3541SOL     OW10621   3.494   2.002   5.877 -0.2680 -0.2281  0.1224
 3541SOL    HW110622   3.535   2.049   5.949 -1.8787  0.1570  0.8194
 3541SOL    HW210623   3.477   2.069   5.811 -0.4270 -0.2552  0.1356
 3542SOL     OW10624   2.656   0.882   6.064 -0.4130  0.4091 -0.2640
 3542SOL    HW110625   2.605   0.887   6.145 -2.5082  1.0355 -1.5274
 3542SOL    HW210626   2.621   0.804   6.019  1.1257 -0.2712 -0.3321
 3543SOL     OW10627   4.346   3.303   5.811 -0.0542 -0.2823 -0.3773
 3543SOL    HW110628   4.410   3.305   5.740 -1.2211  1.0629 -1.4280
 3543SOL    HW210629   4.266   3.337   5.773  0.0959  3.8691  2.3758
 3544SOL     OW10630   4.850   2.198   7.540  0.2082  0.6915 -0.5341
 3544SOL    HW110631   4.837   2.271   7.600 -1.4149 -0.2070  0.2983
 3544SOL    HW210632   4.910   2.139   7.586 -0.8894  0.0905  0.1774
 3545SOL     OW10633   3.656   2.549   6.987 -0.0768 -0.1794 -0.6426
 3545SOL    HW110634   3.649   2.559   7.082  1.5918 -0.5989 -0.4445
 3545SOL    HW210635   3.583   2.493   6.963  0.8240 -2.0538  0.7629
 3546SOL     OW10636   3.481   2.992   7.532 -0.0429  0.3605  0.2396
 3546SOL    HW110637   3.456   2.976   7.441 -1.5184 -1.1559  0.8652
 3546SOL    HW210638   3.507   2.906   7.566  1.5085  1.0759  0.9936
 3547SOL     OW10639   0.718   2.885   6.342  0.1510 -0.3183 -0.0458
 3547SOL    HW110640   0.657   2.932   6.284 -1.6648 -2.3786  0.0454
 3547SOL    HW210641   0.731   2.801   6.299 -0.8669 -1.7347  2.2020
 3548SOL     OW10642   4.331   1.822   9.435 -0.0231  0.5139 -0.5699
 3548SOL    HW110643   4.322   1.906   9.480  0.6963 -0.4253  1.4717
 3548SOL    HW210644   4.263   1.766   9.474  0.7020 -0.3694 -0.5252
 3549SOL     OW10645   0.272   2.959   6.144 -0.2710 -0.4079  0.7525
 3549SOL    HW110646   0.189   2.914   6.160  0.4864 -1.4728  1.8374
 3549SOL    HW210647   0.317   2.904   6.081 -0.7845  0.7147 -0.6486
 3550SOL     OW10648   4.340   2.966   6.582 -0.7951  0.2008 -0.5899
 3550SOL    HW110649   4.355   3.046   6.531  1.5086  0.3541  0.2352
 3550SOL    HW210650   4.398   2.974   6.658 -1.3372 -1.7665  0.0990
 3551SOL     OW10651   0.821   3.287   5.695 -0.2232  0.5304  0.6125
 3551SOL    HW110652   0.816   3.192   5.694  0.4379  0.4874  0.8434
 3551SOL    HW210653   0.913   3.307   5.677  0.0746  1.0512  2.4972
 3552SOL     OW10654   0.712   4.303   6.860  0.1331 -0.6159 -0.2282
 3552SOL    HW110655   0.776   4.367   6.828  0.4361 -0.4493  0.6667
 3552SOL    HW210656   0.732   4.223   6.813  0.9281 -0.5326 -0.0512
 3553SOL     OW10657   4.054   4.161   5.725  0.3140  0.6117  0.4882
 3553SOL    HW110658   4.105   4.204   5.793  2.8176 -1.7603  0.2612
 3553SOL    HW210659   4.013   4.086   5.770  0.5588  0.0379 -0.2338
 3554SOL     OW10660   0.978   3.012   6.133 -0.2006 -0.2832  0.2724
 3554SOL    HW110661   0.982   2.960   6.053 -1.9502 -0.9209  0.5597
 3554SOL    HW210662   0.901   3.068   6.122 -0.4539 -0.3552  1.4929
 3555SOL     OW10663   3.723   1.905   5.125  0.3535 -0.5695 -0.1662
 3555SOL    HW110664   3.783   1.837   5.094  1.2148  0.4890 -0.8884
 3555SOL    HW210665   3.753   1.924   5.214  0.5606 -0.6563 -0.2158
 3556SOL     OW10666   4.152   2.802   6.504 -0.0327 -0.6053  0.4990
 3556SOL    HW110667   4.235   2.841   6.534  0.1356 -1.3509  1.0465
 3556SOL    HW210668   4.179   2.738   6.439 -0.3425  0.4629 -0.7222
 3557SOL     OW10669   0.780   3.678   8.650  0.4027  0.3730 -0.6677
 3557SOL    HW110670   0.753   3.764   8.615 -0.6242  0.0162 -0.7870
 3557SOL    HW210671   0.798   3.626   8.572 -1.0107 -0.1482 -0.6681
 3558SOL     OW10672   0.693   2.852   6.010 -0.3734  0.4951 -0.1332
 3558SOL    HW110673   0.598   2.842   6.008 -0.5345  1.6959  0.5753
 3558SOL    HW210674   0.726   2.765   6.033 -1.2114 -0.2159 -1.4827
 3559SOL     OW10675   1.291   4.727   5.089  0.0847  0.2469  0.4057
 3559SOL    HW110676   1.350   4.692   5.022  0.3465  0.0192  0.7514
 3559SOL    HW210677   1.312   4.820   5.093  0.5223  0.1399  0.6281
 3560SOL     OW10678   3.117   2.441   6.633 -0.0505 -0.1590  0.2497
 3560SOL    HW110679   3.177   2.516   6.637  0.0912 -0.0413 -2.4658
 3560SOL    HW210680   3.173   2.366   6.615 -0.5868 -0.0624 -2.2286
 3561SOL     OW10681   0.169   2.273   6.835 -0.2240 -0.6183  0.2679
 3561SOL    HW110682   0.171   2.183   6.866  0.4470 -0.5918  0.3144
 3561SOL    HW210683   0.106   2.272   6.762 -0.6125 -1.0055  0.6002
 3562SOL     OW10684   4.132   0.077   5.645 -0.5914 -0.2305  0.1779
 3562SOL    HW110685   4.041   0.107   5.651 -0.4318  0.4475 -0.6249
 3562SOL    HW210686   4.153   0.085   5.552  0.2345 -0.5546  0.3345
 3563SOL     OW10687   4.357   3.502   7.380  0.1927 -0.2989 -0.1519
 3563SOL    HW110688   4.306   3.522   7.302  0.3966  0.7548 -0.0218
 3563SOL    HW210689   4.314   3.551   7.450  1.7739  1.2053 -0.1660
 3564SOL     OW10690   3.717   3.724   6.384  0.2431 -0.3507 -0.3583
 3564SOL    HW110691   3.660   3.657   6.346 -1.4533  0.9048 -0.1875
 3564SOL    HW210692   3.805   3.696   6.362 -0.5214 -1.1612 -2.8086
 3565SOL     OW10693   4.295   2.372   6.728 -0.7974 -0.4607 -0.3081
 3565SOL    HW110694   4.319   2.286   6.693 -1.3824 -0.4375 -0.7855
 3565SOL    HW210695   4.329   2.434   6.664  0.8472 -0.2540  0.7338
 3566SOL     OW10696   3.291   0.858   7.773 -0.2315  1.0468 -1.0382
 3566SOL    HW110697   3.204   0.897   7.761 -1.7531 -1.6494  0.2858
 3566SOL    HW210698   3.273   0.768   7.801  3.0291 -0.0233 -1.9832
 3567SOL     OW10699   3.682   2.826   7.220 -0.1283 -0.2639  0.3516
 3567SOL    HW110700   3.746   2.871   7.166 -0.6081 -0.4913 -0.4185
 3567SOL    HW210701   3.725   2.744   7.245 -0.1062 -0.4003 -0.1351
 3568SOL     OW10702   4.921   0.912   8.752  0.2589  0.1590 -0.5353
 3568SOL    HW110703   4.873   0.834   8.780 -0.2326  0.0480 -1.6114
 3568SOL    HW210704   4.915   0.972   8.826  1.1942 -1.0468  0.5644
 3569SOL     OW10705   4.233   0.870   6.668  0.2261 -0.0819 -0.4242
 3569SOL    HW110706   4.244   0.775   6.678 -1.0660 -0.1981  0.1197
 3569SOL    HW210707   4.208   0.900   6.756 -1.7528  0.3861 -1.0962
 3570SOL     OW10708   4.307   1.413   7.578 -0.3846 -0.6256 -0.7215
 3570SOL    HW110709   4.307   1.427   7.673  0.9470 -0.9131 -0.6511
 3570SOL    HW210710   4.267   1.491   7.542  0.8889  0.4060 -0.0000
 3571SOL     OW10711   1.158   1.125   9.173  0.2092  0.4286  0.3131
 3571SOL    HW110712   1.141   1.164   9.087 -1.7993  2.1349  1.3885
 3571SOL    HW210713   1.107   1.044   9.173  0.5336  0.2212 -0.2396
 3572SOL     OW10714   4.414   4.383   7.912  0.4012  0.3689 -0.4832
 3572SOL    HW110715   4.396   4.410   7.822 -0.7033 -0.0090 -0.3885
 3572SOL    HW210716   4.405   4.288   7.911  0.9254  0.3117 -0.0873
 3573SOL     OW10717   3.177   2.159   9.076 -0.2440  0.6726 -0.6682
 3573SOL    HW110718   3.268   2.131   9.092 -0.3693  0.5207 -0.1900
 3573SOL    HW210719   3.175   2.184   8.984 -0.4482 -2.2130 -1.5484
 3574SOL     OW10720   0.230   2.809   8.023  0.1992  0.1307  0.1522
 3574SOL    HW110721   0.149   2.784   8.067  0.3344 -0.8779 -0.1400
 3574SOL    HW210722   0.299   2.762   8.071  0.3257 -1.2493 -1.2740
 3575SOL     OW10723   3.174   1.454   8.655  0.1185  0.0844 -0.3013
 3575SOL    HW110724   3.206   1.534   8.697  0.0954 -0.0175 -0.0858
 3575SOL    HW210725   3.081   1.471   8.639  0.7838  1.4900 -3.4855
 3576SOL     OW10726   2.754   4.014   8.180  0.1135 -1.0013  0.0131
 3576SOL    HW110727   2.678   4.055   8.140  1.0911 -0.9133 -1.8948
 3576SOL    HW210728   2.728   3.997   8.271 -1.3888  0.9931  0.0198
 3577SOL     OW10729   4.359   0.560   9.383 -0.0650 -0.5251 -0.2059
 3577SOL    HW110730   4.328   0.475   9.351 -3.4343  0.8264 -0.9314
 3577SOL    HW210731   4.341   0.557   9.477  1.7372 -1.2680  0.1696
 3578SOL     OW10732   0.563   3.192   7.152  0.6040 -0.3324 -0.0697
 3578SOL    HW110733   0.634   3.238   7.197 -0.2253  0.4269  0.5222
 3578SOL    HW210734   0.493   3.258   7.145 -0.7569 -1.5632  1.1155
 3579SOL     OW10735   3.967   2.862   6.685 -0.3359 -0.6480  0.1751
 3579SOL    HW110736   4.018   2.901   6.756 -0.0070 -0.6623 -0.0467
 3579SOL    HW210737   4.033   2.838   6.619 -0.8148  1.7863 -1.3378
 3580SOL     OW10738   1.345   2.058   9.688  0.0271  0.1414  0.0424
 3580SOL    HW110739   1.427   2.021   9.654 -0.4203  0.1916 -1.1120
 3580SOL    HW210740   1.359   2.061   9.783  1.1993 -0.2484 -0.0931
 3581SOL     OW10741   1.225   3.983   6.383 -0.1863  0.0805  0.0986
 3581SOL    HW110742   1.196   3.949   6.468  2.9010  2.8301  2.6032
 3581SOL    HW210743   1.302   3.930   6.361 -1.6109 -1.3383 -1.6695
 3582SOL     OW10744   0.597   2.733   9.140 -0.0443  0.1569 -0.2403
 3582SOL    HW110745   0.547   2.761   9.217 -0.0686  0.1108 -0.2396
 3582SOL    HW210746   0.533   2.727   9.070 -0.3694 -1.6112  0.1709
 3583SOL     OW10747   4.875   3.327   5.134 -0.1007 -0.0994  0.3947
 3583SOL    HW110748   4.853   3.314   5.226 -0.8238 -1.3170  0.0704
 3583SOL    HW210749   4.956   3.378   5.136 -0.7303  0.9144  1.6811
 3584SOL     OW10750   2.807   2.623   9.198  0.0561  0.0752 -0.0962
 3584SOL    HW110751   2.836   2.691   9.137  0.4951 -0.3062 -0.3184
 3584SOL    HW210752   2.851   2.646   9.280  0.7484 -0.3234 -0.3509
 3585SOL     OW10753   3.441   2.207   9.102 -0.0112  0.0241  0.4450
 3585SOL    HW110754   3.430   2.223   9.008  0.0097  0.8731  0.5783
 3585SOL    HW210755   3.482   2.287   9.136  1.8541 -1.0530  0.8540
 3586SOL     OW10756   0.608   1.714   5.285 -0.5605 -0.3553 -0.0923
 3586SOL    HW110757   0.531   1.754   5.243 -1.7276 -1.5485  0.8142
 3586SOL    HW210758   0.572   1.670   5.362  0.9579 -1.5039 -0.0129
 3587SOL     OW10759   0.540   2.678   8.453  0.0855  0.0175  0.0157
 3587SOL    HW110760   0.495   2.762   8.464  1.5627  0.7390  0.7749
 3587SOL    HW210761   0.633   2.700   8.459  0.4706 -1.9275  2.1255
 3588SOL     OW10762   3.008   0.256   7.951 -0.0226  0.0511 -0.0056
 3588SOL    HW110763   3.061   0.218   8.021  0.1502 -0.2113 -0.2782
 3588SOL    HW210764   2.996   0.184   7.888 -1.8938 -0.3356  0.7161
 3589SOL     OW10765   4.350   2.007   5.258 -0.4766 -0.1874 -0.0873
 3589SOL    HW110766   4.301   1.960   5.190  0.1107 -1.1536  0.1394
 3589SOL    HW210767   4.434   1.962   5.262  0.4028  1.3783 -0.3912
 3590SOL     OW10768   4.687   3.564   6.406  0.4682  0.4562 -0.5486
 3590SOL    HW110769   4.593   3.552   6.400  0.3763  1.1598 -0.6129
 3590SOL    HW210770   4.712   3.520   6.488 -0.2752  2.2774  0.7238
 3591SOL     OW10771   4.181   1.875   9.153  0.1998 -0.5065 -0.4307
 3591SOL    HW110772   4.238   1.926   9.096  0.8898 -0.7322  0.0368
 3591SOL    HW210773   4.235   1.857   9.231 -1.0139  0.5873  0.7083
 3592SOL     OW10774   3.804   4.510   8.735 -0.1131 -0.2477 -0.1140
 3592SOL    HW110775   3.895   4.512   8.706 -0.7110  1.8865 -2.1558
 3592SOL    HW210776   3.765   4.588   8.696 -2.1918  0.4280  2.9581
 3593SOL     OW10777   4.071   2.318   7.958 -0.3854  0.6603  0.2191
 3593SOL    HW110778   4.077   2.375   8.035  0.6377  1.7199 -0.5958
 3593SOL    HW210779   4.161   2.309   7.927 -0.6603 -0.5298 -0.3163
 3594SOL     OW10780   2.838   3.034   9.854  0.2452 -0.3112 -0.5387
 3594SOL    HW110781   2.841   3.056   9.947 -1.8091  0.6249 -0.6426
 3594SOL    HW210782   2.823   2.939   9.852  0.0071 -0.2889  0.0769
 3595SOL     OW10783   0.101   2.645   7.244  0.3978  0.1270  0.0458
 3595SOL    HW110784   0.181   2.684   7.281  1.2374 -2.4495  1.2011
 3595SOL    HW210785   0.133   2.581   7.180 -0.8323  0.3292 -0.7918
 3596SOL     OW10786   0.885   2.169   8.504 -0.3541 -0.4114 -0.2195
 3596SOL    HW110787   0.929   2.236   8.451  1.6487  1.2451  3.1901
 3596SOL    HW210788   0.934   2.089   8.486  1.0678  0.3755 -0.0759
 3597SOL     OW10789   2.035   1.891   7.702 -0.1360 -0.3775 -0.0437
 3597SOL    HW110790   1.974   1.819   7.689  0.0419 -0.3256 -1.2382
 3597SOL    HW210791   2.121   1.849   7.708 -0.2874 -0.4994  2.1501
 3598SOL     OW10792   4.819   1.995   7.247 -0.1784 -0.6332  0.1569
 3598SOL    HW110793   4.834   1.901   7.244 -0.0578 -0.6472 -3.2913
 3598SOL    HW210794   4.905   2.034   7.236 -0.0099  0.0444  3.0075
 3599SOL     OW10795   3.898   3.895   7.527 -0.2624  0.4631 -0.0018
 3599SOL    HW110796   3.895   3.988   7.549  1.0529  0.8992 -1.4792
 3599SOL    HW210797   3.813   3.877   7.487 -0.4544  1.0890  0.1136
 3600SOL     OW10798   4.077   1.204   9.946  0.1735 -0.0696 -0.0475
 3600SOL    HW110799   4.098   1.291   9.978  0.2657 -0.2540  0.3944
 3600SOL    HW210800   4.008   1.219   9.881 -0.8127  0.2113  1.0352
 3601SOL     OW10801   2.404   1.300   7.399  0.7251  0.0440 -1.2593
 3601SOL    HW110802   2.409   1.285   7.494 -0.4921 -0.3865 -1.2377
 3601SOL    HW210803   2.428   1.392   7.389  0.2720  0.2703 -0.4453
 3602SOL     OW10804   2.799   3.156   7.904 -0.5827  0.0154  0.3719
 3602SOL    HW110805   2.852   3.088   7.861 -0.5355 -0.2503  0.8526
 3602SOL    HW210806   2.814   3.234   7.851 -1.4027 -0.5740 -0.7733
 3603SOL     OW10807   3.713   4.723   7.842  0.0898 -0.0662  0.0477
 3603SOL    HW110808   3.620   4.742   7.832  0.1235 -0.3259 -0.8428
 3603SOL    HW210809   3.758   4.794   7.796  0.2318 -1.7149 -2.5934
 3604SOL     OW10810   4.653   3.622   7.392 -0.5521  0.3423 -0.1065
 3604SOL    HW110811   4.583   3.558   7.378 -1.9651  2.1255 -1.6496
 3604SOL    HW210812   4.625   3.673   7.467 -0.4653  0.4881 -0.1721
 3605SOL     OW10813   3.711   1.745   6.893  0.5137 -0.2289 -0.4998
 3605SOL    HW110814   3.701   1.671   6.835 -3.8232 -0.5616  0.3330
 3605SOL    HW210815   3.753   1.709   6.972 -0.5765 -1.6016 -0.5110
 3606SOL     OW10816   3.548   3.466   8.347  0.6853 -0.5153  0.0888
 3606SOL    HW110817   3.513   3.394   8.294  0.1224  1.5870 -2.6334
 3606SOL    HW210818   3.640   3.471   8.321  0.9135 -0.7124  0.8509
 3607SOL     OW10819   1.295   4.045   7.124  0.7907  0.4462 -0.1295
 3607SOL    HW110820   1.315   4.117   7.184 -0.0603  1.6386 -1.2119
 3607SOL    HW210821   1.273   3.972   7.181 -0.3329  1.6387  1.0470
 3608SOL     OW10822   3.869   1.738   6.234  0.1371  0.1871 -0.2989
 3608SOL    HW110823   3.789   1.774   6.194 -0.3582 -0.7547 -0.1667
 3608SOL    HW210824   3.919   1.816   6.260  0.3202  0.8416 -2.4048
 3609SOL     OW10825   4.280   2.748   5.584 -0.0243  0.2375  0.0141
 3609SOL    HW110826   4.186   2.734   5.588 -0.0990  0.8173  0.4662
 3609SOL    HW210827   4.290   2.843   5.577  0.5569  0.5024  2.9194
 3610SOL     OW10828   4.243   1.258   7.880  0.3441 -0.3099  0.1094
 3610SOL    HW110829   4.261   1.349   7.906 -0.2323  0.0114 -0.5829
 3610SOL    HW210830   4.293   1.205   7.942  0.3056  0.4724  0.8228
 3611SOL     OW10831   1.542   3.796   9.900 -0.3662 -0.1852 -0.4430
 3611SOL    HW110832   1.466   3.743   9.876 -0.0371 -1.1085  0.4891
 3611SOL    HW210833   1.516   3.841   9.980 -0.7955  1.4597 -1.4321
 3612SOL     OW10834   0.135   1.434   8.432 -0.4268 -0.0912 -0.2739
 3612SOL    HW110835   0.199   1.385   8.380  0.7473  1.3751 -0.2715
 3612SOL    HW210836   0.159   1.526   8.421 -1.9464  0.4454  0.5330
 3613SOL     OW10837   4.084   4.493   6.373  0.0907 -0.2185 -0.4451
 3613SOL    HW110838   4.081   4.588   6.386  2.0574 -0.0955 -0.6048
 3613SOL    HW210839   4.062   4.456   6.458  1.7723  0.4460  0.3127
 3614SOL     OW10840   0.607   1.146   5.509  0.0428 -0.5604 -0.0824
 3614SOL    HW110841   0.670   1.178   5.444  0.0832 -3.0390 -1.3925
 3614SOL    HW210842   0.624   1.199   5.587  3.1144 -0.4559 -0.6977
 3615SOL     OW10843   4.192   1.526   7.226  0.1079  0.5468 -0.4308
 3615SOL    HW110844   4.214   1.535   7.133  2.6597 -1.4569 -0.1135
 3615SOL    HW210845   4.199   1.433   7.244 -0.3059  0.8967  1.8179
 3616SOL     OW10846   2.261   1.504   6.138 -0.3496  0.5284  0.2019
 3616SOL    HW110847   2.205   1.564   6.187 -1.1573 -1.9487  2.5798
 3616SOL    HW210848   2.290   1.440   6.203  1.6336 -0.8496 -1.8820
 3617SOL     OW10849   3.668   3.162   7.259  0.1655 -0.3074 -0.1024
 3617SOL    HW110850   3.655   3.185   7.168  0.8748  1.5794  0.2401
 3617SOL    HW210851   3.579   3.144   7.293 -0.2706  0.6325 -0.7342
 3618SOL     OW10852   4.296   3.793   7.147  0.0227 -0.9385  0.5549
 3618SOL    HW110853   4.222   3.847   7.176 -0.3559 -0.0901 -1.7669
 3618SOL    HW210854   4.268   3.703   7.163 -1.3490 -0.6090  0.1076
 3619SOL     OW10855   4.230   4.082   7.773 -0.4345  0.1309 -0.2418
 3619SOL    HW110856   4.283   4.070   7.694 -0.3667  3.4201 -0.8046
 3619SOL    HW210857   4.171   4.155   7.753 -1.2233  0.3326  2.3638
 3620SOL     OW10858   4.170   1.598   6.086  0.3254  0.2282 -0.3180
 3620SOL    HW110859   4.178   1.508   6.117 -3.1811 -0.3747 -0.6761
 3620SOL    HW210860   4.137   1.647   6.162  0.0441  0.7039 -0.7410
 3621SOL     OW10861   3.670   1.555   7.452 -0.4520 -0.4288  0.1677
 3621SOL    HW110862   3.607   1.508   7.397 -0.9197  1.1264 -0.6980
 3621SOL    HW210863   3.737   1.586   7.391  0.8770 -1.5345  0.9919
 3622SOL     OW10864   4.123   2.249   6.901 -0.3575 -0.0396  0.4117
 3622SOL    HW110865   4.181   2.296   6.841  0.7755 -3.6610 -1.7130
 3622SOL    HW210866   4.176   2.235   6.979  0.2961 -0.0341 -0.0163
 3623SOL     OW10867   3.635   1.845   7.940  0.4773  0.4291  0.2588
 3623SOL    HW110868   3.602   1.909   7.877  0.0560  1.9486  1.9455
 3623SOL    HW210869   3.592   1.763   7.915 -0.6187  1.2505 -0.6961
 3624SOL     OW10870   4.892   2.131   6.009 -0.0362  0.9895 -0.4812
 3624SOL    HW110871   4.967   2.128   6.068  0.5586  0.2773 -1.2620
 3624SOL    HW210872   4.817   2.104   6.063  0.6595 -0.6471 -0.2914
 3625SOL     OW10873   4.827   0.339   8.257 -0.0057  0.2098  0.1871
 3625SOL    HW110874   4.909   0.349   8.305  0.1085  0.9210 -0.1478
 3625SOL    HW210875   4.778   0.419   8.276 -0.3495  0.0803 -0.1342
 3626SOL     OW10876   4.773   4.246   8.426  0.4755  0.1060 -0.6220
 3626SOL    HW110877   4.804   4.159   8.402  1.0910  0.2555 -0.3887
 3626SOL    HW210878   4.679   4.236   8.438  0.6242 -0.6637 -0.0248
 3627SOL     OW10879   4.262   3.175   4.899  0.3191  0.1156  0.6510
 3627SOL    HW110880   4.311   3.251   4.931  0.5151 -0.2555  1.2640
 3627SOL    HW210881   4.329   3.116   4.864 -0.0046  1.2000 -2.0507
 3628SOL     OW10882   1.288   3.355   9.230  0.3478  0.2585 -0.1630
 3628SOL    HW110883   1.303   3.274   9.279 -0.1611  0.3756  0.1950
 3628SOL    HW210884   1.245   3.327   9.150 -0.2260  0.2058  0.1537
 3629SOL     OW10885   4.756   0.309   6.137  0.3874  0.1334  0.8425
 3629SOL    HW110886   4.694   0.382   6.139 -0.9498 -0.9350  0.6364
 3629SOL    HW210887   4.826   0.338   6.079 -1.3861  0.3395 -1.3234
 3630SOL     OW10888   2.614   3.436   8.354  0.3304  0.2277  0.0609
 3630SOL    HW110889   2.539   3.402   8.402  0.7591 -2.8727 -1.2045
 3630SOL    HW210890   2.689   3.421   8.412  0.4500 -0.5424 -0.2796
 3631SOL     OW10891   3.730   1.032   8.653  0.2385  0.6660 -0.1995
 3631SOL    HW110892   3.797   1.099   8.636 -0.8005  2.1897  1.3232
 3631SOL    HW210893   3.774   0.969   8.711  1.3030 -0.1613 -1.8352
 3632SOL     OW10894   1.035   2.318   6.806  0.1516 -0.9292 -0.0089
 3632SOL    HW110895   1.109   2.318   6.867  0.7979  0.1357 -0.7835
 3632SOL    HW210896   1.070   2.353   6.725 -1.4554  0.6225 -0.0809
 3633SOL     OW10897   3.696   2.395   8.973 -0.0917  1.3064  0.0317
 3633SOL    HW110898   3.642   2.380   8.896  1.1260  2.6142 -1.1396
 3633SOL    HW210899   3.682   2.487   8.995 -1.4275  0.6496  2.2164
 3634SOL     OW10900   2.656   3.947   9.337  0.2956 -0.4729 -0.0747
 3634SOL    HW110901   2.640   4.041   9.346  0.0812 -0.4095 -0.9815
 3634SOL    HW210902   2.587   3.906   9.390 -1.4209 -0.1465 -1.9291
 3635SOL     OW10903   3.186   3.127   6.654 -0.1642  0.1465 -0.1107
 3635SOL    HW110904   3.261   3.132   6.713  0.3240 -1.6902 -0.5052
 3635SOL    HW210905   3.214   3.067   6.585 -2.5339 -1.9578  0.5913
 3636SOL     OW10906   1.370   2.254   5.430  0.0752  0.2526 -0.7609
 3636SOL    HW110907   1.277   2.259   5.408 -0.3444 -2.0852  0.1655
 3636SOL    HW210908   1.393   2.163   5.416  1.6431  0.2707  1.2007
 3637SOL     OW10909   0.310   2.050   5.452 -0.0060 -0.1174 -0.3551
 3637SOL    HW110910   0.272   2.027   5.367 -2.0495  0.2177  0.3904
 3637SOL    HW210911   0.235   2.049   5.512  1.2085  0.6211  1.2484
 3638SOL     OW10912   4.768   3.341   6.876  0.1415 -0.2276 -0.8027
 3638SOL    HW110913   4.805   3.324   6.789  2.8249  1.5467 -0.1444
 3638SOL    HW210914   4.773   3.437   6.885  3.4876 -0.5013  2.5939
 3639SOL     OW10915   3.110   2.957   8.613 -0.2602  0.0523  0.1879
 3639SOL    HW110916   3.065   3.034   8.647  0.6606  0.4460  0.5739
 3639SOL    HW210917   3.197   2.962   8.653 -0.1842 -1.1799  0.1954
 3640SOL     OW10918   4.013   3.217   7.570 -0.5735  0.9633  0.2163
 3640SOL    HW110919   3.932   3.166   7.569  0.4824 -1.0367  2.8611
 3640SOL    HW210920   3.997   3.285   7.636 -0.8433  2.0715 -0.9505
 3641SOL     OW10921   3.478   2.571   8.289  0.0105  0.0544  0.5006
 3641SOL    HW110922   3.383   2.573   8.282 -0.1262  0.2039  2.0366
 3641SOL    HW210923   3.507   2.521   8.213 -1.2727  0.2401 -0.1287
 3642SOL     OW10924   3.732   1.477   7.003 -0.1743 -0.7525  0.0422
 3642SOL    HW110925   3.798   1.434   6.949  0.4581  0.5124 -0.2194
 3642SOL    HW210926   3.670   1.407   7.025  1.9678 -2.3267  1.5251
 3643SOL     OW10927   0.387   1.158   8.075  0.5833 -0.0679 -0.0047
 3643SOL    HW110928   0.311   1.119   8.030  0.8709  0.0354 -0.5830
 3643SOL    HW210929   0.431   1.083   8.115  1.7476 -0.5524 -2.0138
 3644SOL     OW10930   3.791   0.533   6.372  0.3219 -0.0480  0.7733
 3644SOL    HW110931   3.724   0.521   6.440 -0.8903 -0.2135 -0.4166
 3644SOL    HW210932   3.822   0.445   6.353 -0.4644 -0.1755  0.0273
 3645SOL     OW10933   4.399   2.935   8.693 -0.1608 -0.5381 -0.3005
 3645SOL    HW110934   4.410   2.892   8.608 -1.3345  1.0091 -1.3023
 3645SOL    HW210935   4.437   3.022   8.681 -0.5220 -0.2250  0.6967
 3646SOL     OW10936   4.833   3.721   9.387  0.1204 -0.2062 -0.5463
 3646SOL    HW110937   4.766   3.681   9.332 -1.6774 -0.1099  1.4588
 3646SOL    HW210938   4.866   3.649   9.441 -0.0327  0.1905  0.0835
 3647SOL     OW10939   4.470   3.079   8.093 -0.0328  0.3466 -0.3925
 3647SOL    HW110940   4.509   3.019   8.157  0.8311 -1.3032 -2.3794
 3647SOL    HW210941   4.541   3.099   8.032 -0.6395  2.4755 -0.5049
 3648SOL     OW10942   3.881   0.591   6.679 -0.3271 -0.2293  0.1586
 3648SOL    HW110943   3.884   0.677   6.637  1.6443 -0.3576 -0.0200
 3648SOL    HW210944   3.787   0.576   6.693 -0.6935  2.5436  1.4654
 3649SOL     OW10945   0.445   2.291   7.081 -0.3109  0.2852  0.2232
 3649SOL    HW110946   0.522   2.234   7.083  0.5458  1.4017 -0.1154
 3649SOL    HW210947   0.380   2.242   7.030 -0.0356 -0.8917  0.9502
 3650SOL     OW10948   0.338   4.980   7.331 -0.1136  0.1475  0.4211
 3650SOL    HW110949   0.348   4.886   7.317  0.1971  0.2543 -0.0861
 3650SOL    HW210950   0.424   5.010   7.359 -0.3549  0.1884  1.1215
 3651SOL     OW10951   3.850   2.702   9.296 -0.0017  0.0757  0.7017
 3651SOL    HW110952   3.848   2.606   9.294  2.2889 -0.0173  0.0009
 3651SOL    HW210953   3.934   2.724   9.336  1.5464  1.6686 -2.9102
 3652SOL     OW10954   0.216   3.097   5.213 -0.5067 -0.4520  0.0321
 3652SOL    HW110955   0.168   3.014   5.209 -1.1063 -0.0692 -1.3382
 3652SOL    HW210956   0.172   3.147   5.282 -0.4511 -1.0674  0.5261
 3653SOL     OW10957   4.854   4.600   5.661 -0.7237 -0.2579 -0.0493
 3653SOL    HW110958   4.879   4.650   5.739  0.6229 -2.9059  1.3259
 3653SOL    HW210959   4.846   4.667   5.592  0.8197  1.8729  1.6807
 3654SOL     OW10960   0.162   0.981   9.229 -0.6492  0.0642  0.0783
 3654SOL    HW110961   0.209   0.980   9.146 -2.2896 -1.7788 -0.8998
 3654SOL    HW210962   0.184   1.066   9.268  1.5006  0.2579 -1.4262
 3655SOL     OW10963   3.332   1.814   8.149 -0.0747 -0.2787  0.3464
 3655SOL    HW110964   3.399   1.881   8.139 -0.5311  0.3034  1.0417
 3655SOL    HW210965   3.380   1.735   8.174  0.2881  0.4124  1.9726
 3656SOL     OW10966   0.217   2.552   8.493  0.3458 -0.4379  0.5414
 3656SOL    HW110967   0.290   2.495   8.470  1.0963  0.3937  0.8377
 3656SOL    HW210968   0.184   2.584   8.409  2.1179  1.3983  0.4878
 3657SOL     OW10969   2.195   3.878   6.221 -0.3450  0.0094  0.0038
 3657SOL    HW110970   2.289   3.894   6.221 -0.2791 -0.3604 -0.2999
 3657SOL    HW210971   2.181   3.816   6.293  0.0740 -2.2819 -1.7883
 3658SOL     OW10972   4.338   2.294   7.812 -0.2466  0.2829  0.0444
 3658SOL    HW110973   4.393   2.283   7.735 -1.2569 -2.1899 -0.4474
 3658SOL    HW210974   4.284   2.370   7.793  0.1222  0.2223 -1.3139
 3659SOL     OW10975   4.154   4.257   5.493 -0.2634  0.0592 -0.3046
 3659SOL    HW110976   4.249   4.257   5.494 -0.2492  1.2118  0.9743
 3659SOL    HW210977   4.128   4.231   5.581 -1.0918  1.1060 -0.2146
 3660SOL     OW10978   2.582   2.137   5.650 -0.1395  0.2902  0.4545
 3660SOL    HW110979   2.620   2.128   5.562  1.7605  0.3014  1.2303
 3660SOL    HW210980   2.515   2.069   5.654  2.1880 -2.1783  0.2128
 3661SOL     OW10981   4.628   2.665   8.621  0.4125  1.0506 -0.1585
 3661SOL    HW110982   4.582   2.710   8.551 -1.2072  0.4727  0.4849
 3661SOL    HW210983   4.721   2.671   8.598 -0.0999  0.4442 -2.5821
 3662SOL     OW10984   2.532   2.412   8.727 -0.2962 -0.1385 -0.0160
 3662SOL    HW110985   2.590   2.486   8.707  0.9327 -0.9282  0.4633
 3662SOL    HW210986   2.458   2.423   8.668  0.5822  0.6361 -1.0232
 3663SOL     OW10987   4.706   2.144   9.366 -0.4248  0.1242  0.2941
 3663SOL    HW110988   4.777   2.111   9.311 -0.2163  2.0562 -0.7168
 3663SOL    HW210989   4.633   2.159   9.305 -0.9076  0.3067  0.9082
 3664SOL     OW10990   1.149   3.302   5.664  0.3488 -0.4293 -0.5516
 3664SOL    HW110991   1.169   3.278   5.755 -3.1061 -0.7464  0.2648
 3664SOL    HW210992   1.179   3.227   5.612 -0.4704 -1.6881  0.7269
 3665SOL     OW10993   3.470   4.921   8.536  0.5803 -0.0900  0.2347
 3665SOL    HW110994   3.427   4.940   8.619 -0.2305 -1.1802  0.0936
 3665SOL    HW210995   3.517   4.839   8.551  1.2143  0.2051 -0.1119
 3666SOL     OW10996   0.905   1.563   7.655 -0.2104  0.5166 -0.5625
 3666SOL    HW110997   0.894   1.560   7.560 -0.3203 -1.6405 -0.5237
 3666SOL    HW210998   0.817   1.582   7.689 -0.3626  0.3414 -0.8569
 3667SOL     OW10999   3.909   1.303   9.160  0.1316  0.1447 -0.0962
 3667SOL    HW111000   3.978   1.366   9.140  0.2773 -0.5071 -1.8469
 3667SOL    HW211001   3.944   1.251   9.232  1.3078  0.1081 -0.6676
 3668SOL     OW11002   4.773   1.563   7.464  0.2527  0.0943  0.0543
 3668SOL    HW111003   4.833   1.497   7.498 -2.1091 -1.5354  1.3364
 3668SOL    HW211004   4.690   1.517   7.455 -1.0960  2.5069 -0.6374
 3669SOL     OW11005   3.610   2.048   9.263  0.0862 -0.3246  0.0823
 3669SOL    HW111006   3.561   2.076   9.341  0.6428 -0.5049  0.5056
 3669SOL    HW211007   3.565   2.091   9.190  0.0493  0.5077  0.5786
 3670SOL     OW11008   2.019   4.436   7.035  0.2747 -0.3820 -0.2574
 3670SOL    HW111009   1.991   4.485   6.957 -1.1782 -0.4442  0.1932
 3670SOL    HW211010   1.943   4.382   7.057  1.3347 -1.7660  0.1233
 3671SOL     OW11011   3.573   4.054   8.590  0.1424 -0.6862  0.2274
 3671SOL    HW111012   3.660   4.093   8.595  0.4453 -1.2856 -0.2650
 3671SOL    HW211013   3.567   4.000   8.669 -0.8269  1.3985  1.6766
 3672SOL     OW11014   4.152   3.661   7.889  0.4063  0.3488  0.1413
 3672SOL    HW111015   4.073   3.607   7.889 -0.0098  0.8578 -2.1159
 3672SOL    HW211016   4.175   3.670   7.982 -1.0676 -1.3945  0.7321
 3673SOL     OW11017   2.500   3.244   8.170 -0.0985  0.3957 -0.1587
 3673SOL    HW111018   2.565   3.302   8.210  0.0223 -0.1713  0.4771
 3673SOL    HW211019   2.437   3.226   8.240 -1.2136  1.3044 -0.8859
 3674SOL     OW11020   0.591   0.906   8.853  0.1939  0.3726 -0.0426
 3674SOL    HW111021   0.523   0.852   8.892  0.1499  0.5406  0.1142
 3674SOL    HW211022   0.646   0.933   8.927  0.8731 -0.3783 -0.2487
 3675SOL     OW11023   0.363   2.383   6.461 -0.0064 -0.5619  0.5100
 3675SOL    HW111024   0.339   2.424   6.544  1.6287  2.4970 -0.3677
 3675SOL    HW211025   0.458   2.371   6.467  0.1768 -0.0133 -1.0042
 3676SOL     OW11026   4.049   1.539   6.535 -0.3851 -0.3074 -0.5114
 3676SOL    HW111027   4.044   1.487   6.455  1.3682 -0.9107 -0.2544
 3676SOL    HW211028   4.078   1.478   6.602  3.4698  1.2231 -0.5464
 3677SOL     OW11029   4.862   2.588   6.475  0.1702 -0.2952 -0.4425
 3677SOL    HW111030   4.837   2.679   6.486 -0.7080 -0.5791 -0.0305
 3677SOL    HW211031   4.935   2.590   6.413 -1.3220  0.5123 -2.2575
 3678SOL     OW11032   4.111   0.102   7.015 -0.0431 -0.4079  0.0961
 3678SOL    HW111033   4.042   0.040   6.992  0.4215 -1.8145  2.1961
 3678SOL    HW211034   4.067   0.170   7.067 -0.6789  1.5261 -2.7714
 3679SOL     OW11035   0.071   1.863   8.016 -0.1499  0.0673  0.0002
 3679SOL    HW111036   0.081   1.923   7.942 -0.0375 -1.8017 -1.5917
 3679SOL    HW211037   0.153   1.871   8.065 -0.4050  1.6574  0.2178
 3680SOL     OW11038   4.980   4.381   7.647 -0.0569  0.1253  0.5349
 3680SOL    HW111039   4.956   4.294   7.682  0.5029 -0.4466 -0.4674
 3680SOL    HW211040   4.985   4.368   7.553  0.3424  1.1908  0.4020
 3681SOL     OW11041   1.234   0.873   6.243  0.2847 -0.0841 -0.8393
 3681SOL    HW111042   1.192   0.854   6.159 -2.7181 -0.5008  0.6078
 3681SOL    HW211043   1.327   0.881   6.222 -0.4239  0.8282 -4.3345
 3682SOL     OW11044   4.430   3.688   6.927 -0.0197 -0.0059 -0.3806
 3682SOL    HW111045   4.479   3.611   6.954  0.4842  0.7437  0.9326
 3682SOL    HW211046   4.380   3.714   7.005  0.1736  1.2436 -0.6464
 3683SOL     OW11047   4.264   3.746   6.116  0.2226 -0.0220  0.1340
 3683SOL    HW111048   4.213   3.692   6.176  1.3591 -1.1555  0.1087
 3683SOL    HW211049   4.316   3.802   6.174 -1.6210  1.7902  0.1688
 3684SOL     OW11050   2.939   0.847   8.605 -0.9655 -0.6182  0.1379
 3684SOL    HW111051   3.030   0.827   8.581 -0.7827  2.3356 -2.3636
 3684SOL    HW211052   2.887   0.794   8.545 -0.7632  0.0209 -0.6192
 3685SOL     OW11053   0.366   0.871   7.602  0.0573 -1.4706 -0.0938
 3685SOL    HW111054   0.397   0.862   7.692  1.3234 -0.6238 -0.4176
 3685SOL    HW211055   0.445   0.861   7.548  0.0896  2.0226 -0.9024
 3686SOL     OW11056   3.903   3.961   6.393  0.4033  0.3497  0.5308
 3686SOL    HW111057   3.833   3.923   6.447  0.6183 -1.1501 -0.2074
 3686SOL    HW211058   3.859   3.989   6.313  0.6967 -1.0849 -0.1601
 3687SOL     OW11059   3.925   2.976   7.067  0.7301  0.0148  0.5038
 3687SOL    HW111060   3.990   2.930   7.014  1.2194 -0.1430  1.2251
 3687SOL    HW211061   3.975   3.010   7.141  0.1894  0.8533  0.4948
 3688SOL     OW11062   3.413   1.397   8.857 -0.1227 -0.2398 -0.2370
 3688SOL    HW111063   3.349   1.356   8.915 -1.4974  0.6734 -1.0325
 3688SOL    HW211064   3.419   1.488   8.888  1.2546 -0.4610  0.1885
 3689SOL     OW11065   3.085   1.284   8.278 -0.1292  0.8935  0.1598
 3689SOL    HW111066   3.102   1.289   8.372 -1.4266 -1.9199  0.6573
 3689SOL    HW211067   3.117   1.197   8.252 -0.7194  1.2024 -1.7852
 3690SOL     OW11068   4.517   2.350   8.466  0.1863 -0.1250 -0.2551
 3690SOL    HW111069   4.505   2.352   8.371  0.2809  2.8842 -0.2951
 3690SOL    HW211070   4.610   2.335   8.478  0.0385 -1.4188 -0.5794
 3691SOL     OW11071   3.557   3.959   8.134 -0.1986  0.2327  0.2336
 3691SOL    HW111072   3.563   4.047   8.172 -0.3201  1.0689 -1.5717
 3691SOL    HW211073   3.641   3.946   8.090 -0.5613 -0.1152 -0.3736
 3692SOL     OW11074   3.629   1.128   6.431 -0.1234 -1.0151 -0.0728
 3692SOL    HW111075   3.713   1.109   6.473  0.0545 -1.3200 -0.5596
 3692SOL    HW211076   3.640   1.097   6.341 -0.1184  0.6436 -0.6700
 3693SOL     OW11077   4.187   1.760   6.376 -0.8299  0.0104  0.0257
 3693SOL    HW111078   4.260   1.778   6.436 -0.2268 -0.2057 -0.6354
 3693SOL    HW211079   4.140   1.842   6.370 -0.7006  0.1246  0.5434
 3694SOL     OW11080   0.355   2.467   6.792  0.3289  0.0013  0.9226
 3694SOL    HW111081   0.305   2.388   6.814  0.6919 -0.6163 -0.3751
 3694SOL    HW211082   0.291   2.538   6.795 -0.8479 -0.8571 -1.3423
 3695SOL     OW11083   0.508   3.054   7.908 -0.5451  0.4921  0.1114
 3695SOL    HW111084   0.586   3.009   7.940 -1.9292 -2.1964 -0.0446
 3695SOL    HW211085   0.471   2.995   7.842 -0.5128  3.5694 -2.9537
 3696SOL     OW11086   4.138   1.975   8.269 -0.2199 -0.1045  0.1338
 3696SOL    HW111087   4.102   1.992   8.357  1.4858 -0.3616  0.9218
 3696SOL    HW211088   4.192   2.052   8.250 -0.3091 -0.2085 -0.5634
 3697SOL     OW11089   4.586   4.263   7.586 -0.4808  0.7427 -0.2548
 3697SOL    HW111090   4.557   4.350   7.559  0.3480  1.7782  1.8698
 3697SOL    HW211091   4.668   4.249   7.538 -0.7870  1.0002 -0.8526
 3698SOL     OW11092   3.276   3.242   7.949  0.0360 -0.7001  0.1860
 3698SOL    HW111093   3.320   3.320   7.917 -0.5824 -0.6346 -0.5253
 3698SOL    HW211094   3.284   3.178   7.878 -1.6689 -0.4253 -0.2895
 3699SOL     OW11095   0.681   2.260   5.849 -0.2463  0.1449  0.1764
 3699SOL    HW111096   0.742   2.241   5.777 -1.4410  1.4011 -1.2151
 3699SOL    HW211097   0.737   2.293   5.920  0.7847  0.4586 -0.7594
 3700SOL     OW11098   3.577   1.969   8.624 -0.5195  0.4754  0.0666
 3700SOL    HW111099   3.591   1.963   8.719 -1.6657  2.4787  0.4316
 3700SOL    HW211100   3.653   2.018   8.592 -0.8865  1.1541  0.2141
 3701SOL     OW11101   1.934   2.865   7.169  0.4006  0.0159  0.0090
 3701SOL    HW111102   1.923   2.773   7.193 -0.4626  0.2877  0.7140
 3701SOL    HW211103   1.846   2.901   7.174  0.5239  0.5812 -1.5781
 3702SOL     OW11104   4.869   0.300   9.387  0.4299 -0.1884 -0.0185
 3702SOL    HW111105   4.897   0.233   9.450 -0.2256 -1.2751 -0.8410
 3702SOL    HW211106   4.783   0.269   9.357 -0.0070  1.1755 -0.2205
 3703SOL     OW11107   4.375   1.683   5.169 -0.6811  0.1888  0.2019
 3703SOL    HW111108   4.455   1.636   5.146  0.0951  2.1312 -1.3206
 3703SOL    HW211109   4.393   1.722   5.254 -0.4620 -0.3347  0.3983
 3704SOL     OW11110   3.831   3.010   6.204 -0.1196  0.1571 -0.1791
 3704SOL    HW111111   3.916   2.966   6.200 -1.0779 -1.7634 -0.6353
 3704SOL    HW211112   3.831   3.070   6.129  0.8382  0.2108 -0.1442
 3705SOL     OW11113   3.574   2.743   7.562 -0.0798 -0.6081  0.3334
 3705SOL    HW111114   3.594   2.663   7.513  0.0194 -0.2034 -0.2910
 3705SOL    HW211115   3.493   2.722   7.609  0.7787 -1.6081  1.4104
 3706SOL     OW11116   0.023   2.212   8.998 -0.4850 -0.7422 -0.1446
 3706SOL    HW111117   0.109   2.210   9.041 -0.0383  0.3642 -0.9408
 3706SOL    HW211118  -0.014   2.296   9.023  0.5073  0.7294 -3.2094
 3707SOL     OW11119   4.426   2.217   9.844  0.1680 -0.1769 -0.1068
 3707SOL    HW111120   4.404   2.296   9.795 -0.7012 -1.0381 -1.1702
 3707SOL    HW211121   4.342   2.175   9.860  0.2875  0.5286  3.0520
 3708SOL     OW11122   2.531   3.563   9.749 -0.6251 -0.1458  0.2777
 3708SOL    HW111123   2.455   3.522   9.706 -1.4200 -1.3713  2.6145
 3708SOL    HW211124   2.571   3.491   9.798 -0.6403  1.3590  2.6591
 3709SOL     OW11125   2.718   0.007   9.555 -0.4975  0.4973  0.6949
 3709SOL    HW111126   2.796   0.062   9.543 -0.5644  0.0956 -2.4822
 3709SOL    HW211127   2.738  -0.046   9.632  1.9524  1.1076  0.5631
 3710SOL     OW11128   0.650   3.067   8.506 -0.6894  0.2736  0.5282
 3710SOL    HW111129   0.609   3.101   8.426 -0.3889 -0.6308 -0.0285
 3710SOL    HW211130   0.591   2.998   8.536  0.7111 -1.6043 -0.7275
 3711SOL     OW11131   1.474   1.150   9.546  0.3822  0.8799 -0.7446
 3711SOL    HW111132   1.535   1.148   9.472  0.0618  1.1818 -1.0165
 3711SOL    HW211133   1.395   1.191   9.512  0.0912  0.6713 -0.3387
 3712SOL     OW11134   4.724   2.849   9.634 -0.1832 -0.1129  0.4294
 3712SOL    HW111135   4.716   2.928   9.581 -2.1842 -1.2592 -1.1019
 3712SOL    HW211136   4.777   2.790   9.581  0.2321 -0.2609  1.0040
 3713SOL     OW11137   4.687   3.776   8.748  0.0604  0.4210 -0.2283
 3713SOL    HW111138   4.729   3.690   8.749  1.8862  1.2601 -1.5424
 3713SOL    HW211139   4.724   3.821   8.824 -0.5357  0.2633  0.1735
 3714SOL     OW11140   1.450   3.579   6.828 -0.4437 -0.2644 -0.6972
 3714SOL    HW111141   1.393   3.527   6.885 -0.8013  0.6045 -0.2343
 3714SOL    HW211142   1.463   3.525   6.750 -0.4299 -1.2307 -0.0423
 3715SOL     OW11143   0.820   2.674   8.477  0.1045  0.6409 -0.2298
 3715SOL    HW111144   0.876   2.597   8.485 -1.1949 -0.3147  0.1560
 3715SOL    HW211145   0.822   2.696   8.385 -0.2148 -0.4490 -0.5206
 3716SOL     OW11146   0.198   3.455   7.285 -0.5538  0.3066  0.1483
 3716SOL    HW111147   0.103   3.457   7.286 -0.5860  1.1214 -1.6888
 3716SOL    HW211148   0.224   3.544   7.306 -0.2707  0.6250 -1.4260
 3717SOL     OW11149   4.732   2.714   8.999 -0.3655 -0.2848 -0.3491
 3717SOL    HW111150   4.730   2.734   9.093 -1.4765  1.3905 -0.6831
 3717SOL    HW211151   4.699   2.625   8.992 -0.0393 -0.5168  0.8643
 3718SOL     OW11152   0.895   2.962   9.319  0.4701  0.3733  0.3213
 3718SOL    HW111153   0.924   3.053   9.322  0.8384  0.2374  1.1440
 3718SOL    HW211154   0.965   2.916   9.273  0.1767  0.5340 -0.3017
 3719SOL     OW11155   3.686   1.426   9.084  0.3755  0.1211 -0.5212
 3719SOL    HW111156   3.776   1.403   9.110  0.1208 -0.5474 -0.2308
 3719SOL    HW211157   3.666   1.367   9.012 -0.4627 -0.9355  0.5537
 3720SOL     OW11158   2.417   3.798   9.934  0.3154 -0.4287 -0.5898
 3720SOL    HW111159   2.492   3.844   9.971  1.3309  1.1758 -4.2034
 3720SOL    HW211160   2.452   3.715   9.901  0.0948 -0.5339 -0.5639
 3721SOL     OW11161   2.004   0.343   6.770  0.0130  0.1680 -0.8149
 3721SOL    HW111162   1.924   0.393   6.757  0.3869  0.6962 -1.1707
 3721SOL    HW211163   2.061   0.371   6.698  0.1338 -0.9935 -1.1914
 3722SOL     OW11164   4.231   2.261   8.850 -0.1838 -0.2857 -0.5948
 3722SOL    HW111165   4.284   2.321   8.798 -0.9780  1.6423  0.6955
 3722SOL    HW211166   4.294   2.216   8.907  0.2543  0.8423 -0.1630
 3723SOL     OW11167   0.406   0.575   7.744  0.0494  0.2523  0.0101
 3723SOL    HW111168   0.491   0.611   7.768 -0.1942  0.8552 -0.0050
 3723SOL    HW211169   0.408   0.567   7.649  0.2446 -0.1381  0.0474
 3724SOL     OW11170   0.978   2.563   7.323  0.1342  0.0630  0.0891
 3724SOL    HW111171   0.896   2.521   7.300 -0.0659  0.6005 -0.1953
 3724SOL    HW211172   1.011   2.514   7.398 -0.1391 -0.5353 -0.1824
 3725SOL     OW11173   3.465   2.042   8.122  0.0553 -0.4901 -0.1519
 3725SOL    HW111174   3.393   2.079   8.071 -1.0693 -0.4078  1.4287
 3725SOL    HW211175   3.542   2.091   8.094 -0.5629 -0.3097 -1.5974
 3726SOL     OW11176   4.007   1.681   8.265 -0.1892  0.3567  0.3069
 3726SOL    HW111177   3.995   1.767   8.305  1.2637  1.2436 -0.9987
 3726SOL    HW211178   4.096   1.683   8.230  0.3820 -2.1992  1.3705
 3727SOL     OW11179   3.165   3.945  10.049 -0.3828  0.2896  0.0660
 3727SOL    HW111180   3.168   4.039  10.034 -0.3699  0.2216 -0.3678
 3727SOL    HW211181   3.072   3.925  10.056 -0.4161  0.2360 -0.4928
 3728SOL     OW11182   4.354   2.299   9.274 -0.4137 -0.2048 -0.2738
 3728SOL    HW111183   4.363   2.392   9.252  0.7954 -0.3235 -0.3350
 3728SOL    HW211184   4.424   2.256   9.226  0.1980 -0.8959  1.1880
 3729SOL     OW11185   3.693   2.841   8.818  0.0272  0.1927  0.2011
 3729SOL    HW111186   3.608   2.798   8.813 -0.4818  0.6256  3.2884
 3729SOL    HW211187   3.683   2.907   8.887  3.0511 -0.2255  1.1809
 3730SOL     OW11188   1.517   3.061   8.489  0.0807  0.3921 -0.0029
 3730SOL    HW111189   1.473   3.133   8.535 -1.5901 -0.7071  0.2068
 3730SOL    HW211190   1.451   3.029   8.427  1.3205 -0.0012 -1.1528
 3731SOL     OW11191   4.972   2.657   9.214 -0.0390 -0.5453 -0.3546
 3731SOL    HW111192   4.990   2.681   9.305 -2.0583 -1.3760  0.3273
 3731SOL    HW211193   5.021   2.720   9.162  1.3527 -0.1906  1.2932
 3732SOL     OW11194   2.177   2.576   7.332 -0.6867 -0.1878 -0.0287
 3732SOL    HW111195   2.152   2.530   7.412 -2.3513 -0.5353 -0.6926
 3732SOL    HW211196   2.180   2.668   7.356 -2.0305 -0.2000  0.2740
 3733SOL     OW11197   1.993   2.409   8.819  0.5148  0.3239  0.3992
 3733SOL    HW111198   2.063   2.344   8.816  0.7310  0.4263  1.9698
 3733SOL    HW211199   2.039   2.493   8.821  0.3207  0.4280  0.5739
 3734SOL     OW11200   0.045   4.197   8.820 -0.5761 -0.4486 -0.0992
 3734SOL    HW111201   0.112   4.237   8.876  0.9608 -2.2137 -0.5732
 3734SOL    HW211202   0.078   4.208   8.731 -2.2097  0.8887 -0.6000
 3735SOL     OW11203   0.382   1.789   9.615 -0.0799 -0.0491 -0.5762
 3735SOL    HW111204   0.298   1.803   9.659 -0.2879  2.0418 -1.5250
 3735SOL    HW211205   0.365   1.809   9.523  1.4662  0.4534 -0.7893
 3736SOL     OW11206   2.670   2.828   8.896 -0.0083 -0.5280  0.2153
 3736SOL    HW111207   2.627   2.768   8.958  0.5001 -1.3357 -0.2003
 3736SOL    HW211208   2.604   2.843   8.828 -0.4238  0.0381  0.7343
 3737SOL     OW11209   3.783   4.540   9.410  0.1747 -0.1014  0.1075
 3737SOL    HW111210   3.703   4.556   9.359  0.6656  0.9428 -0.3699
 3737SOL    HW211211   3.848   4.516   9.344  0.4418 -0.2086  0.4106
 3738SOL     OW11212   2.358   2.071   7.934  0.2978 -0.4487  0.2482
 3738SOL    HW111213   2.339   2.006   7.866  0.4490 -1.1323  0.8521
 3738SOL    HW211214   2.424   2.029   7.990 -0.7281 -0.4035  1.5449
 3739SOL     OW11215   0.887   1.530   9.429 -0.2907 -0.2344  0.4471
 3739SOL    HW111216   0.908   1.522   9.522 -0.8414  0.5130  0.6434
 3739SOL    HW211217   0.810   1.474   9.417 -0.1853 -0.3764  0.4202
 3740SOL     OW11218   3.207   2.529   9.624 -0.1226 -0.0086  0.0799
 3740SOL    HW111219   3.177   2.617   9.603  0.2958 -0.4660 -2.9232
 3740SOL    HW211220   3.270   2.540   9.695 -2.5187  1.6477  2.1440
 3741SOL     OW11221   3.947   1.149   9.439 -0.7027  0.2166  0.2543
 3741SOL    HW111222   4.016   1.101   9.486 -2.1540  0.3529  2.7290
 3741SOL    HW211223   3.889   1.081   9.406  0.3510  0.1176 -1.5461
 3742SOL     OW11224   3.105   3.411   9.635  0.2150 -0.1386  0.7854
 3742SOL    HW111225   3.138   3.365   9.712 -1.1990  0.3496  1.7283
 3742SOL    HW211226   3.036   3.469   9.669 -1.0212 -0.4964 -0.9533
 3743SOL     OW11227   4.720   3.815   8.473  0.5385  0.7286 -0.2258
 3743SOL    HW111228   4.711   3.778   8.561  0.6521  1.4091  0.0764
 3743SOL    HW211229   4.644   3.872   8.463  0.2121  0.1962 -0.8027
 3744SOL     OW11230   3.205   1.653   8.958 -0.0941  0.9579 -0.2816
 3744SOL    HW111231   3.262   1.650   9.036 -0.6112  1.0369  0.1005
 3744SOL    HW211232   3.265   1.635   8.885  0.1445 -0.6787  0.2598
 3745SOL     OW11233   4.191   3.648   7.584 -0.0854  0.0019 -0.3526
 3745SOL    HW111234   4.105   3.651   7.541 -0.4344 -0.3160  0.3119
 3745SOL    HW211235   4.171   3.644   7.677  0.6146 -2.0073 -0.2491
 3746SOL     OW11236   0.242   4.411   8.897  0.1764 -0.6418  0.0719
 3746SOL    HW111237   0.267   4.324   8.929  1.7132 -0.4078 -0.3857
 3746SOL    HW211238   0.278   4.414   8.808 -1.7537 -0.3217 -0.7419
 3747SOL     OW11239   4.358   1.754   9.800 -0.1054 -0.1623 -0.5966
 3747SOL    HW111240   4.269   1.781   9.822  0.5442  1.0855  0.7009
 3747SOL    HW211241   4.394   1.828   9.751  0.2361 -0.6431 -1.0792
 3748SOL     OW11242   4.885   2.677   9.503  0.1532 -0.8121  0.0588
 3748SOL    HW111243   4.858   2.604   9.560  0.5258 -0.0273  1.2776
 3748SOL    HW211244   4.981   2.675   9.506  0.1832  0.8532  1.6358
 3749SOL     OW11245   4.173   0.352   8.939 -0.0687 -0.0013 -0.1996
 3749SOL    HW111246   4.193   0.317   9.026 -1.2140 -3.3374 -1.1290
 3749SOL    HW211247   4.087   0.393   8.949  0.2475  0.5352  0.4221
 3750SOL     OW11248   4.044   1.492   9.953 -0.5184 -0.1945 -0.2685
 3750SOL    HW111249   4.071   1.537  10.033 -1.1927  0.2778 -0.3012
 3750SOL    HW211250   4.121   1.495   9.897  0.4086 -1.7046  0.8504
 3751SOL     OW11251   0.847   0.824   9.590 -0.0238  0.2096 -0.1503
 3751SOL    HW111252   0.792   0.751   9.562  0.9184 -0.1926 -0.9999
 3751SOL    HW211253   0.810   0.850   9.675 -2.8097  1.3018 -1.5727
 3752SOL     OW11254   4.473   3.077   9.366 -0.2227  0.0623  0.0044
 3752SOL    HW111255   4.426   3.004   9.326 -1.8937  1.4205 -0.6907
 3752SOL    HW211256   4.477   3.056   9.459 -1.6424 -0.4383 -0.0269
 3753SOL     OW11257   4.962   2.205   8.275 -0.1801  0.0905  0.0734
 3753SOL    HW111258   5.057   2.217   8.272  0.0936 -1.9047 -2.4225
 3753SOL    HW211259   4.927   2.280   8.226  0.2568 -0.0775 -0.5103
 3754SOL     OW11260   3.088   3.763   7.158  0.0691 -0.8784 -0.1392
 3754SOL    HW111261   3.083   3.859   7.161  1.3500 -0.8013  0.4975
 3754SOL    HW211262   3.120   3.739   7.245  2.1926 -1.6640 -1.0595
 3755SOL     OW11263   0.417   2.101   8.422  0.1931 -0.1439 -0.2115
 3755SOL    HW111264   0.348   2.072   8.480  0.5548  4.0606  2.7693
 3755SOL    HW211265   0.497   2.065   8.459  0.1602  0.3046  0.3069
 3756SOL     OW11266   2.705   1.255   8.791 -0.6167  0.0978 -0.2313
 3756SOL    HW111267   2.658   1.337   8.805 -0.9699 -0.2351  0.6033
 3756SOL    HW211268   2.637   1.188   8.793 -0.4674 -0.1529 -1.9191
 3757SOL     OW11269   0.336   4.174   8.944  0.2240 -0.1061 -0.1180
 3757SOL    HW111270   0.307   4.086   8.923 -2.6435  0.6488  0.2800
 3757SOL    HW211271   0.380   4.166   9.029 -2.3028 -0.8626  1.2243
 3758SOL     OW11272   4.141   2.259   9.399 -0.2551 -0.0616 -0.0325
 3758SOL    HW111273   4.119   2.333   9.455 -2.7673  0.0857 -1.1071
 3758SOL    HW211274   4.223   2.285   9.356 -0.8191  1.8818 -0.0214
 3759SOL     OW11275   2.912   4.593   9.564 -0.3715 -0.1337 -0.0612
 3759SOL    HW111276   2.939   4.568   9.653  0.5870  0.1548 -0.2546
 3759SOL    HW211277   2.941   4.683   9.555 -2.4778  0.6095  0.1022
 3760SOL     OW11278   4.771   1.688   9.097  0.4962  0.1725  0.4378
 3760SOL    HW111279   4.728   1.734   9.169  1.1559  2.2809 -0.4678
 3760SOL    HW211280   4.702   1.634   9.059 -0.4168  0.7343  1.2539
 3761SOL     OW11281   4.706   0.959   9.308  0.1042  0.5186  0.4278
 3761SOL    HW111282   4.758   0.948   9.388 -0.7747 -0.3099  0.9100
 3761SOL    HW211283   4.760   0.922   9.239  0.0922 -0.5497  0.9632
 3762SOL     OW11284   4.392   1.895   8.511 -0.2540  0.2700  0.3199
 3762SOL    HW111285   4.387   1.932   8.423  0.2823 -0.8494 -0.1981
 3762SOL    HW211286   4.386   1.970   8.569 -1.7751  0.9400 -0.6361
 3763SOL     OW11287   4.089   4.598   8.985 -0.2633 -0.2532  0.2424
 3763SOL    HW111288   4.116   4.554   9.066  0.9834  0.6196  0.3341
 3763SOL    HW211289   4.126   4.543   8.915 -0.9363 -0.7511  0.2705
 3764SOL     OW11290   5.008   2.806   9.767  0.1787 -0.2811  0.1978
 3764SOL    HW111291   4.979   2.770   9.684 -0.5927 -2.7165  1.4253
 3764SOL    HW211292   4.934   2.859   9.797  0.7658  1.2776 -0.9570
 3765SOL     OW11293   0.147   2.671   9.453 -0.1894 -0.3590 -0.4065
 3765SOL    HW111294   0.205   2.744   9.475 -0.5888 -0.4517  1.0951
 3765SOL    HW211295   0.201   2.610   9.403  0.6676  0.1184 -0.0659
 3766SOL     OW11296   0.962   0.142   9.623 -0.2948 -0.0482  0.2424
 3766SOL    HW111297   1.057   0.150   9.609 -0.1424 -1.3535  0.4762
 3766SOL    HW211298   0.953   0.116   9.714 -0.9285  0.7077  0.4076
 3767SOL     OW11299   1.294   4.166  10.063 -0.3752 -0.1209 -0.4843
 3767SOL    HW111300   1.390   4.170  10.057 -0.2430 -0.5133  1.0402
 3767SOL    HW211301   1.272   4.077  10.038 -0.1357 -0.6766  1.1772
 3768SOL     OW11302   0.325   2.489   7.807  0.1966  0.3670  0.2370
 3768SOL    HW111303   0.265   2.564   7.811  1.1372  1.1550 -0.1118
 3768SOL    HW211304   0.368   2.497   7.723 -2.2627 -2.6279 -1.5374
 3769SOL     OW11305   3.421   2.798   9.736  0.2696 -0.0495  0.0532
 3769SOL    HW111306   3.417   2.708   9.769 -2.1351 -0.7874 -1.9859
 3769SOL    HW211307   3.500   2.800   9.682 -0.0609 -1.1675 -0.4954
 3770SOL     OW11308   3.560   3.771   8.699  0.4882  0.5805 -0.2767
 3770SOL    HW111309   3.528   3.681   8.692 -0.5585  0.9834 -0.9068
 3770SOL    HW211310   3.627   3.767   8.766  1.5153 -0.9626 -1.3231
 3771SOL     OW11311   3.861   3.027   8.425 -0.7472  0.0089  0.6434
 3771SOL    HW111312   3.782   2.975   8.417 -0.4327 -0.3281 -0.4549
 3771SOL    HW211313   3.909   2.987   8.497 -0.2591 -1.6134 -0.5069
 3772SOL     OW11314   3.397   1.848   8.469  0.6797 -0.3593  0.3021
 3772SOL    HW111315   3.448   1.893   8.536  2.0121 -1.7986  0.3203
 3772SOL    HW211316   3.400   1.906   8.393  1.7069 -0.0448  0.5651
 3773SOL     OW11317   0.621   4.103   8.173  0.0328 -0.0246  0.4134
 3773SOL    HW111318   0.688   4.041   8.200 -0.1545  0.3675  1.8799
 3773SOL    HW211319   0.599   4.151   8.253 -0.7378  1.0558 -0.4120
 3774SOL     OW11320   0.358   4.428   9.507  0.0132 -0.3168 -0.0757
 3774SOL    HW111321   0.317   4.448   9.423  2.1151 -0.5690 -1.2204
 3774SOL    HW211322   0.433   4.488   9.513 -0.6071  0.3511  2.0888
 3775SOL     OW11323   3.668   2.814   9.517 -0.2296 -0.1194 -0.4670
 3775SOL    HW111324   3.639   2.899   9.485 -1.0408  0.0388  0.6451
 3775SOL    HW211325   3.763   2.816   9.507  0.0698  1.9530  1.8913
 3776SOL     OW11326   0.205   1.608   9.293  0.2329 -0.4864 -0.0305
 3776SOL    HW111327   0.206   1.699   9.323  0.2548 -1.0183  1.6945
 3776SOL    HW211328   0.230   1.612   9.201  0.8011  1.1964  0.1739
 3777SOL     OW11329   4.166   2.602   6.862 -0.1590 -0.0298  0.0891
 3777SOL    HW111330   4.201   2.517   6.835 -0.1545  0.2444 -0.7904
 3777SOL    HW211331   4.120   2.583   6.944 -0.4942 -0.9598 -0.2950
 3778SOL     OW11332   0.340   2.449   8.086  0.4255  0.7235 -0.6900
 3778SOL    HW111333   0.354   2.532   8.131  0.5529  0.6833 -0.6536
 3778SOL    HW211334   0.356   2.469   7.994  1.0861  0.6002 -0.6096
 3779SOL     OW11335   4.064   2.743   8.742 -0.0027 -0.0417 -0.3606
 3779SOL    HW111336   4.130   2.677   8.766 -0.1802 -0.2387 -0.4112
 3779SOL    HW211337   3.997   2.735   8.810 -0.2186 -0.1890 -0.5890
 3780SOL     OW11338   0.953   1.692   9.754  0.8501 -0.2418  0.1443
 3780SOL    HW111339   1.040   1.701   9.715  0.3883  1.4214 -0.5672
 3780SOL    HW211340   0.942   1.597   9.764  3.0470 -0.4738  1.0204
 3781SOL     OW11341   3.531   3.900   9.808 -0.7692 -0.4768  0.7938
 3781SOL    HW111342   3.503   3.875   9.896 -1.7801 -0.0786  0.6023
 3781SOL    HW211343   3.609   3.953   9.822 -0.5164 -0.9952  1.4030
 3782SOL     OW11344   0.406   2.845   6.711 -0.1250 -0.0660  0.2252
 3782SOL    HW111345   0.448   2.928   6.734 -0.4079 -0.0272  0.6229
 3782SOL    HW211346   0.476   2.781   6.711  0.2819  0.3367 -1.0611
 3783SOL     OW11347   4.968   1.652   9.748  0.2814 -0.2877 -0.0714
 3783SOL    HW111348   4.946   1.647   9.841 -0.4951  4.4911  0.2841
 3783SOL    HW211349   4.885   1.673   9.705  1.2544  1.8137 -1.1111
 3784SOL     OW11350   3.644   1.120   9.202 -0.1017  1.1207  0.0914
 3784SOL    HW111351   3.721   1.177   9.211 -0.0424  0.7339  3.4067
 3784SOL    HW211352   3.571   1.173   9.234 -0.3115 -0.0557  1.6990
 3785SOL     OW11353   2.317   1.771   9.305  0.1877  0.0472  0.0186
 3785SOL    HW111354   2.226   1.757   9.329  0.1621  1.3910  0.8313
 3785SOL    HW211355   2.367   1.712   9.361 -0.1010  0.3978  0.6536
 3786SOL     OW11356   4.962   2.781   8.675  0.2659  0.6019 -0.0219
 3786SOL    HW111357   4.971   2.690   8.703 -2.0257 -0.5021 -2.3773
 3786SOL    HW211358   4.893   2.817   8.732  0.3824  0.5006  0.1826
 3787SOL     OW11359   3.218   0.839   9.736 -0.3318  0.7733 -0.1329
 3787SOL    HW111360   3.222   0.931   9.709  0.0103  0.5504 -0.8883
 3787SOL    HW211361   3.303   0.803   9.709 -1.5868 -0.5218 -2.8284
 3788SOL     OW11362   0.344   2.744   9.243  0.6334 -0.1954 -0.2017
 3788SOL    HW111363   0.312   2.742   9.153 -1.4776 -2.3747  0.4977
 3788SOL    HW211364   0.286   2.806   9.287 -1.8086 -2.9098  0.6919
 3789SOL     OW11365   0.330   3.760   6.107 -0.0638  0.4184  0.2202
 3789SOL    HW111366   0.390   3.704   6.058 -0.0616  0.9863 -0.4506
 3789SOL    HW211367   0.318   3.716   6.191  0.0479 -0.4999 -0.2399
 3790SOL     OW11368   2.725   3.856   6.802  0.0924  0.7821 -0.2442
 3790SOL    HW111369   2.792   3.912   6.842  0.4246  2.0911 -2.4600
 3790SOL    HW211370   2.764   3.769   6.802  0.3666  0.8717  1.5407
 3791SOL     OW11371   2.908   1.641   7.936 -0.1759 -0.2484 -0.6925
 3791SOL    HW111372   2.916   1.644   8.032 -0.6236 -3.2591 -0.4438
 3791SOL    HW211373   2.991   1.604   7.906 -1.3212 -2.8294 -1.0045
 3792SOL     OW11374   4.642   3.529   8.434  0.1717  0.2828  0.2739
 3792SOL    HW111375   4.561   3.570   8.465  0.6366  0.8637  0.7403
 3792SOL    HW211376   4.667   3.469   8.504  0.6002  0.7440  0.5273
 3793SOL     OW11377   3.074   2.296   8.840 -0.0548 -0.4355  0.0578
 3793SOL    HW111378   2.994   2.324   8.885 -0.2826 -2.6476  1.1492
 3793SOL    HW211379   3.144   2.345   8.882 -0.6097 -0.0381  0.5349
 3794SOL     OW11380   4.380   3.607   9.627  0.5421  0.9172  0.2576
 3794SOL    HW111381   4.291   3.639   9.615  0.6014  1.2757  0.7808
 3794SOL    HW211382   4.404   3.633   9.716  0.9854  0.3772  0.3036
 3795SOL     OW11383   3.151   2.081   8.682 -0.0645  0.2063  0.6039
 3795SOL    HW111384   3.196   2.132   8.615  1.3089  1.1884  2.1837
 3795SOL    HW211385   3.076   2.134   8.707  0.9661  1.2156  1.7387
 3796SOL     OW11386   4.725   1.425   9.871  0.1969 -0.5831  0.1714
 3796SOL    HW111387   4.738   1.483   9.946  0.9313 -1.6297  0.8866
 3796SOL    HW211388   4.698   1.483   9.800 -0.3593  0.4538  1.1980
 3797SOL     OW11389   4.507   2.586   9.359 -1.0917 -0.3332 -0.5105
 3797SOL    HW111390   4.583   2.624   9.317 -1.6451 -0.3086 -1.5074
 3797SOL    HW211391   4.543   2.518   9.417 -0.1637  1.1643  0.7467
 3798SOL     OW11392   3.361   1.833   9.416 -0.6655 -0.1704  0.4714
 3798SOL    HW111393   3.267   1.842   9.406 -0.3070  1.9835 -2.3384
 3798SOL    HW211394   3.394   1.923   9.421  1.3703 -0.7034 -1.3971
 3799SOL     OW11395   1.271   4.113   8.966 -0.7208  0.1017 -0.1905
 3799SOL    HW111396   1.342   4.173   8.989 -1.6254  0.4555  1.9007
 3799SOL    HW211397   1.305   4.064   8.891  1.6114  0.4823  0.5325
 3800SOL     OW11398   2.255   0.866   9.074 -0.1239 -0.1569  0.3666
 3800SOL    HW111399   2.171   0.897   9.108  0.1273  0.8282  0.1228
 3800SOL    HW211400   2.316   0.937   9.092  0.4058 -0.3786 -0.5050
 3801SOL     OW11401   0.265   3.590   9.795 -0.2367 -0.2282  0.2877
 3801SOL    HW111402   0.358   3.590   9.820 -0.3918 -1.4712  0.9426
 3801SOL    HW211403   0.266   3.590   9.700  0.5156 -2.3653  0.2360
 3802SOL     OW11404   4.914   4.155   7.792  0.0537 -0.0962  0.3048
 3802SOL    HW111405   4.925   4.144   7.887  1.1827 -0.7981  0.1052
 3802SOL    HW211406   4.854   4.085   7.767  0.4033 -0.4251  0.3775
 3803SOL     OW11407   0.996   1.561   9.174 -0.3700 -0.1463 -0.0770
 3803SOL    HW111408   0.998   1.493   9.241 -0.7113 -2.0413 -1.9066
 3803SOL    HW211409   0.903   1.571   9.153 -0.2232  0.0242 -0.6527
 3804SOL     OW11410   2.650   0.416   5.383 -0.1098 -0.1257 -0.6925
 3804SOL    HW111411   2.681   0.364   5.457  1.7608 -2.1714 -2.7510
 3804SOL    HW211412   2.570   0.372   5.354 -0.2552  0.0341 -0.5339
 3805SOL     OW11413   2.201   4.176   7.010  0.2789 -0.3780  0.2569
 3805SOL    HW111414   2.175   4.268   7.017 -0.6157 -0.7386  2.5448
 3805SOL    HW211415   2.141   4.139   6.945  1.7124  0.9360 -1.9437
 3806SOL     OW11416   2.949   0.982   4.717  0.0359  0.1907  0.9390
 3806SOL    HW111417   3.018   1.020   4.771  0.7110  1.4325 -0.7020
 3806SOL    HW211418   2.996   0.923   4.657 -0.3543  0.7802  0.0414
 3807SOL     OW11419   4.465   3.710   7.614  0.5900 -0.5746 -0.3479
 3807SOL    HW111420   4.479   3.760   7.695  1.0465  0.7947 -1.2272
 3807SOL    HW211421   4.371   3.696   7.610  0.4002  0.5840 -0.2599
 3808SOL     OW11422   4.620   1.210   6.691 -0.3486  0.0520 -0.0730
 3808SOL    HW111423   4.569   1.131   6.674 -0.3931 -0.1537  0.9533
 3808SOL    HW211424   4.711   1.180   6.694 -0.2366  0.2642 -0.9570
 3809SOL     OW11425   4.823   3.842   6.658 -0.1305 -0.0100  0.2878
 3809SOL    HW111426   4.803   3.917   6.712  0.8476 -0.1548  0.8809
 3809SOL    HW211427   4.884   3.875   6.592  0.4788 -0.3253  0.6880
 3810SOL     OW11428   3.736   1.072   5.059  0.0016 -0.8009  0.4735
 3810SOL    HW111429   3.681   0.994   5.056  0.3164 -1.0460  0.9530
 3810SOL    HW211430   3.674   1.145   5.056 -0.3045 -1.0667  0.2295
 3811SOL     OW11431   0.282   4.750   5.748  0.2278  1.2115 -0.3638
 3811SOL    HW111432   0.206   4.699   5.778 -0.0048  1.6704 -0.1663
 3811SOL    HW211433   0.357   4.695   5.770  0.0670  1.4997  1.0449
 3812SOL     OW11434   4.533   0.442   6.224 -0.0713  0.3102 -0.2686
 3812SOL    HW111435   4.535   0.486   6.309  1.2667  1.0757 -0.6625
 3812SOL    HW211436   4.451   0.470   6.184 -0.3883  0.4808  0.4993
 3813SOL     OW11437   4.024   0.951   5.397 -0.3103  0.2585 -0.2494
 3813SOL    HW111438   4.024   0.967   5.303  1.2486 -0.3666 -0.3816
 3813SOL    HW211439   4.032   0.856   5.406 -0.9844  0.2644  0.5116
 3814SOL     OW11440   4.153   0.848   6.936  0.2117 -0.0554  0.4161
 3814SOL    HW111441   4.231   0.813   6.978  0.0454 -0.4999  0.3579
 3814SOL    HW211442   4.082   0.790   6.965 -0.2089  0.7188  0.9918
 3815SOL     OW11443   3.583   0.030   5.344  0.3295  0.2902 -0.4484
 3815SOL    HW111444   3.555  -0.053   5.306  0.5490  0.4446 -0.9565
 3815SOL    HW211445   3.665   0.051   5.299  1.1475 -0.0248  0.8203
 3816SOL     OW11446   3.138   4.107   6.860  0.9637 -0.0724  0.4792
 3816SOL    HW111447   3.060   4.150   6.825  0.4924 -0.6083  0.8500
 3816SOL    HW211448   3.200   4.106   6.787  0.3889 -0.2028 -0.0116
 3817SOL     OW11449   0.087   4.416   5.846 -0.1918  0.7614  0.0077
 3817SOL    HW111450  -0.002   4.451   5.845 -0.3976  0.3786  1.6370
 3817SOL    HW211451   0.098   4.376   5.759 -1.6423  0.7380 -0.1980
 3818SOL     OW11452   4.995   1.915   6.866 -0.0906 -0.7995  0.4956
 3818SOL    HW111453   4.994   1.975   6.941  0.4958  0.7985 -0.7123
 3818SOL    HW211454   4.904   1.916   6.835  0.4768  2.3665 -1.6043
 3819SOL     OW11455   3.639   4.629   6.941  0.9239  0.2985 -0.2621
 3819SOL    HW111456   3.621   4.540   6.971  2.7472 -0.2099 -0.5670
 3819SOL    HW211457   3.580   4.643   6.867  1.2126 -0.9870 -0.7508
 3820SOL     OW11458   4.669   1.209   5.147 -0.3842  0.1503 -0.3795
 3820SOL    HW111459   4.682   1.125   5.192 -1.9955  0.0613  0.0057
 3820SOL    HW211460   4.741   1.264   5.176 -0.9384 -0.1664  1.7219
 3821SOL     OW11461   2.383   0.854   7.315  0.1168 -0.3397  0.1127
 3821SOL    HW111462   2.449   0.846   7.384  0.5762  0.8115 -0.1696
 3821SOL    HW211463   2.332   0.931   7.339  0.9682  0.7478 -1.3595
 3822SOL     OW11464   1.215   4.464   5.606 -0.4980  0.6633 -0.6624
 3822SOL    HW111465   1.121   4.472   5.618 -0.5027  1.2262 -1.0846
 3822SOL    HW211466   1.227   4.377   5.567 -0.7422  0.1432  0.3666
 3823SOL     OW11467   4.357   1.216   6.934 -0.3394  0.0103  0.4718
 3823SOL    HW111468   4.420   1.287   6.932 -0.5501  0.1819 -0.0188
 3823SOL    HW211469   4.399   1.144   6.887  0.6031 -0.8115  2.4377
 3824SOL     OW11470   0.271   5.002   5.796 -0.5103  0.2109 -0.4189
 3824SOL    HW111471   0.280   4.907   5.790 -0.1120  0.2161  0.0436
 3824SOL    HW211472   0.187   5.016   5.839 -0.4380  0.0599 -0.2280
 3825SOL     OW11473   2.343   4.614   7.665  0.0865  0.9913 -0.3178
 3825SOL    HW111474   2.326   4.627   7.572 -0.9815  0.8151 -0.1609
 3825SOL    HW211475   2.274   4.554   7.694  0.4828  0.9411  0.5573
 3826SOL     OW11476   2.700   1.025   4.839  0.5125 -0.1637 -0.4156
 3826SOL    HW111477   2.774   1.025   4.777  0.5911  1.7617 -0.3837
 3826SOL    HW211478   2.715   0.949   4.894  2.6182  0.2992 -0.2684
 3827SOL     OW11479   4.260   0.748   5.713 -0.4931 -0.2212 -0.0515
 3827SOL    HW111480   4.235   0.656   5.727 -3.8061  0.4880 -0.6387
 3827SOL    HW211481   4.302   0.748   5.628 -0.4745 -1.1904 -0.0574
 3828SOL     OW11482   4.278   4.775   7.119 -1.0536 -0.0197  0.1202
 3828SOL    HW111483   4.312   4.858   7.152 -1.4944 -0.0729  0.7234
 3828SOL    HW211484   4.329   4.757   7.040  0.2288 -0.0541  0.9449
 3829SOL     OW11485   2.104   3.971   5.970 -0.0794  0.3135  0.6869
 3829SOL    HW111486   2.023   4.015   5.995 -0.2684 -0.6991  1.9093
 3829SOL    HW211487   2.145   3.946   6.052  0.9342 -0.1847  0.0519
 3830SOL     OW11488   0.116   4.109   5.478 -0.9345 -0.0096 -0.2124
 3830SOL    HW111489   0.022   4.130   5.473 -0.9216  0.0157 -0.3585
 3830SOL    HW211490   0.127   4.039   5.413 -0.8443  0.0162 -0.2241
 3831SOL     OW11491   0.223   4.009   6.085  0.6925  0.2973  0.6743
 3831SOL    HW111492   0.229   4.019   5.990  0.4399  0.3838  0.6689
 3831SOL    HW211493   0.272   3.928   6.103  0.9375  0.4042  0.4965
 3832SOL     OW11494   4.717   4.668   5.261 -0.8961  0.2992  0.1804
 3832SOL    HW111495   4.792   4.727   5.271  0.2089 -1.1758  1.1237
 3832SOL    HW211496   4.749   4.598   5.204 -2.6121  1.2389 -2.0594
 3833SOL     OW11497   1.364   3.960   5.596 -0.3487 -0.3527 -0.0026
 3833SOL    HW111498   1.292   3.918   5.643 -1.2550 -0.0607 -1.0988
 3833SOL    HW211499   1.343   3.948   5.503 -0.2723  1.8628 -0.3559
 3834SOL     OW11500   0.710   4.081   5.930  0.8155  0.4550  0.2833
 3834SOL    HW111501   0.774   4.086   6.001  1.8859 -0.7703 -0.5690
 3834SOL    HW211502   0.698   3.987   5.915  0.6477  0.6936 -1.2016
 3835SOL     OW11503   0.686   4.371   5.980  0.4203  0.1159  0.1462
 3835SOL    HW111504   0.660   4.359   6.071 -0.4910  0.2076 -0.0981
 3835SOL    HW211505   0.667   4.287   5.939  0.5195  0.1810 -0.0346
 3836SOL     OW11506   1.570   4.004   6.179 -0.0350  0.5331  0.4685
 3836SOL    HW111507   1.572   3.964   6.266  0.9829 -0.1445  0.1601
 3836SOL    HW211508   1.629   4.079   6.186 -1.8150  1.9436  1.0001
 3837SOL     OW11509   4.086   1.793   7.686  0.0272 -0.2044 -0.3255
 3837SOL    HW111510   4.146   1.866   7.668 -0.8998  0.5684 -0.3388
 3837SOL    HW211511   4.108   1.765   7.775  0.0695  0.4086 -0.1369
 3838SOL     OW11512   2.153   4.782   8.819  0.2084  0.5803  0.4110
 3838SOL    HW111513   2.168   4.788   8.725  2.4276 -0.5629  0.6292
 3838SOL    HW211514   2.235   4.749   8.855 -0.7246  0.5387  2.7149
 3839SOL     OW11515   0.383   0.880   5.358  0.4812  0.0075 -0.0349
 3839SOL    HW111516   0.456   0.819   5.369  1.7203  1.2178 -1.1357
 3839SOL    HW211517   0.348   0.891   5.446  2.1707  0.0167  0.6707
 3840SOL     OW11518   4.226   0.392   8.383  0.8943  0.1311  0.2462
 3840SOL    HW111519   4.139   0.431   8.373  1.2203  1.5603  2.4195
 3840SOL    HW211520   4.286   0.461   8.353  1.3421 -0.1584  0.4704
 3841SOL     OW11521   1.209   3.647   6.462  0.0457  0.2712  0.2707
 3841SOL    HW111522   1.157   3.625   6.385 -3.2482  2.9955  1.4638
 3841SOL    HW211523   1.292   3.681   6.426  0.4466 -2.5726 -1.7799
 3842SOL     OW11524   3.032   4.053   5.890 -0.2405  0.1533  0.2910
 3842SOL    HW111525   3.015   4.058   5.984 -0.0040  0.9539  0.3057
 3842SOL    HW211526   3.028   4.144   5.861 -0.1872 -0.0774 -0.4511
 3843SOL     OW11527   1.444   3.748   5.141  0.2058 -0.2783  0.0097
 3843SOL    HW111528   1.387   3.744   5.064  2.6532  0.7384 -2.0351
 3843SOL    HW211529   1.417   3.674   5.195 -1.1253 -1.5520 -2.2453
 3844SOL     OW11530   0.210   4.268   5.025 -0.0504  0.3525  0.2794
 3844SOL    HW111531   0.170   4.318   4.954 -2.1962 -0.5455  0.7949
 3844SOL    HW211532   0.244   4.335   5.085  0.4086  1.1249 -0.7912
 3845SOL     OW11533   2.984   2.493   5.963 -0.3736  0.6651 -0.1081
 3845SOL    HW111534   2.948   2.544   5.890 -1.3103  0.0193 -0.1146
 3845SOL    HW211535   3.035   2.556   6.014  1.8355  0.7797 -2.2894
 3846SOL     OW11536   0.164   0.209   6.305 -0.4274 -0.3727  0.0781
 3846SOL    HW111537   0.168   0.285   6.247 -0.3404 -0.6862 -0.3305
 3846SOL    HW211538   0.133   0.244   6.388 -0.8019  0.0440 -0.2296
 3847SOL     OW11539   4.002   4.658   5.288  0.2725  0.0681  0.2476
 3847SOL    HW111540   4.050   4.603   5.349 -0.8653 -0.7230  0.4499
 3847SOL    HW211541   4.027   4.625   5.201 -1.1802 -1.4867  0.3803
 3848SOL     OW11542   1.175   3.031   5.592  0.1607  0.2298 -0.8139
 3848SOL    HW111543   1.145   2.942   5.569  0.1310  0.1583 -0.5004
 3848SOL    HW211544   1.240   3.017   5.661 -0.6622  0.5143  0.0377
 3849SOL     OW11545   0.156   1.806   5.790  0.5778 -0.2504  0.2039
 3849SOL    HW111546   0.207   1.862   5.732  0.8442 -1.9593 -1.3029
 3849SOL    HW211547   0.103   1.752   5.732 -1.0094 -0.3599  1.6562
 3850SOL     OW11548   3.508   4.751   6.647  0.2520 -0.1913 -0.3240
 3850SOL    HW111549   3.462   4.825   6.685  0.6616 -0.5727  0.9751
 3850SOL    HW211550   3.459   4.674   6.675  0.1725 -0.4607 -1.1568
 3851SOL     OW11551   4.776   0.044   6.039 -0.1225  0.5253  0.0948
 3851SOL    HW111552   4.804   0.121   6.090  0.1307  0.4028  0.1412
 3851SOL    HW211553   4.681   0.043   6.049  0.0884 -1.5161  3.5270
 3852SOL     OW11554   4.976   4.663   6.913 -0.7266  0.3822  0.0898
 3852SOL    HW111555   4.908   4.669   6.980 -1.0172  1.3920 -0.2809
 3852SOL    HW211556   5.056   4.692   6.957 -0.5595 -0.6167  0.4703
 3853SOL     OW11557   4.634   3.113   7.770 -0.6331 -0.0515  0.5447
 3853SOL    HW111558   4.624   3.018   7.780 -0.4988 -0.1435 -0.1172
 3853SOL    HW211559   4.716   3.123   7.721  0.2686  0.4911  2.1072
 3854SOL     OW11560   4.456   4.840   6.642  0.0812 -0.0089 -0.0482
 3854SOL    HW111561   4.446   4.912   6.580 -0.8232 -0.2457 -0.1951
 3854SOL    HW211562   4.503   4.772   6.594  0.0677  0.1087 -0.2253
 3855SOL     OW11563   0.441   4.460   5.675  0.0652  0.1926  0.4353
 3855SOL    HW111564   0.396   4.376   5.663  1.2809 -0.6808  1.7392
 3855SOL    HW211565   0.417   4.488   5.763 -0.4281  1.3091 -0.0325
 3856SOL     OW11566   1.706   3.534   5.415 -0.5008  0.9010  0.2826
 3856SOL    HW111567   1.644   3.466   5.389  0.0907  0.9953 -1.4854
 3856SOL    HW211568   1.697   3.539   5.510 -2.0209 -0.2116  0.2336
 3857SOL     OW11569   2.850   3.736   6.518  0.1215  0.2173  0.5666
 3857SOL    HW111570   2.909   3.782   6.459 -1.2853  1.1121 -0.1856
 3857SOL    HW211571   2.846   3.647   6.483 -1.7651  1.0713 -1.6031
 3858SOL     OW11572   0.199   0.062   7.123 -0.1247 -0.6699  0.3399
 3858SOL    HW111573   0.109   0.034   7.141 -0.3446  0.0730  0.3998
 3858SOL    HW211574   0.249   0.028   7.197 -0.5563 -0.0684  0.9193
 3859SOL     OW11575   3.386   3.699   5.734 -1.0959 -0.1052 -0.1584
 3859SOL    HW111576   3.354   3.759   5.801  2.3461  0.7528  0.8867
 3859SOL    HW211577   3.365   3.742   5.651 -0.0269  1.8914  0.5433
 3860SOL     OW11578   3.556   0.739   5.044 -0.3299  0.2578  0.0316
 3860SOL    HW111579   3.619   0.745   4.972 -0.5342  0.6741 -0.1140
 3860SOL    HW211580   3.576   0.655   5.086  0.0038  0.1625 -0.3099
 3861SOL     OW11581   4.560   2.893   6.787 -0.3549  0.1043  0.0354
 3861SOL    HW111582   4.635   2.898   6.846 -0.7962 -0.5599  0.6717
 3861SOL    HW211583   4.496   2.953   6.825 -0.6480 -0.3408  0.2590
 3862SOL     OW11584   3.879   0.185   5.628 -0.4809  0.2974 -0.0963
 3862SOL    HW111585   3.796   0.139   5.621 -0.4354  0.3079 -0.7776
 3862SOL    HW211586   3.892   0.226   5.542  0.9732 -1.0037 -0.5573
 3863SOL     OW11587   3.602   4.939   5.975 -0.0044 -0.1164  0.2898
 3863SOL    HW111588   3.526   4.984   5.938 -1.8179 -2.6023  0.7065
 3863SOL    HW211589   3.565   4.862   6.019  2.8460 -2.2463 -0.7215
 3864SOL     OW11590   3.616   1.021   7.048 -0.0141 -0.5565  0.0818
 3864SOL    HW111591   3.549   0.965   7.087 -0.8795 -0.6224 -1.3961
 3864SOL    HW211592   3.696   0.970   7.054 -0.2658 -0.8505  1.0984
 3865SOL     OW11593   3.727   3.649   5.358 -0.4032 -0.0755  0.7165
 3865SOL    HW111594   3.760   3.658   5.447  0.3447  3.4307  0.2160
 3865SOL    HW211595   3.667   3.722   5.347  1.6450  1.3431 -2.4726
 3866SOL     OW11596   1.095   3.554   6.695  0.3585 -0.4031 -0.4196
 3866SOL    HW111597   1.151   3.555   6.618 -0.9063 -1.2091 -1.4004
 3866SOL    HW211598   1.006   3.555   6.659 -0.2961  1.6928  1.0857
 3867SOL     OW11599   3.781   4.944   7.993 -0.4928 -0.3481  0.1609
 3867SOL    HW111600   3.738   4.864   7.963  0.6273 -0.9277  0.0435
 3867SOL    HW211601   3.710   4.996   8.032 -1.2807 -1.2856  0.0308
 3868SOL     OW11602   4.598   4.273   6.161 -0.1842 -0.5163 -0.0578
 3868SOL    HW111603   4.507   4.256   6.137 -1.1213  0.2611  2.6139
 3868SOL    HW211604   4.618   4.207   6.227  0.4204  0.6596  0.9827
 3869SOL     OW11605   0.297   3.186   6.525 -0.2010  0.1427  0.2090
 3869SOL    HW111606   0.203   3.171   6.518 -0.5920  2.2988  0.1777
 3869SOL    HW211607   0.323   3.218   6.438  0.1114  1.5394  0.7762
 3870SOL     OW11608   1.414   4.791   5.675 -0.1481  0.2068  0.0374
 3870SOL    HW111609   1.465   4.823   5.750  0.0465  0.6519 -0.2800
 3870SOL    HW211610   1.355   4.726   5.713 -2.1909  2.5434  1.1434
 3871SOL     OW11611   3.779   3.971   5.603 -0.3096  0.2989  0.4319
 3871SOL    HW111612   3.710   3.986   5.539  0.2823  0.2418 -0.2228
 3871SOL    HW211613   3.812   3.884   5.583  0.6588  0.7452  0.0723
 3872SOL     OW11614   3.616   0.138   5.584  0.5284  0.0771 -0.2684
 3872SOL    HW111615   3.614   0.136   5.488 -1.9104  0.1573 -0.2770
 3872SOL    HW211616   3.565   0.215   5.608  0.9888 -0.0169  1.1133
 3873SOL     OW11617   3.275   3.366   6.374 -0.2274  0.0323 -0.2443
 3873SOL    HW111618   3.355   3.312   6.368  1.4604  2.4842 -1.5710
 3873SOL    HW211619   3.256   3.369   6.468  2.4706  0.9259  0.3879
 3874SOL     OW11620   3.009   3.273   7.075  0.0251 -0.1003  0.4139
 3874SOL    HW111621   3.102   3.267   7.098 -0.1575 -1.1843  0.9616
 3874SOL    HW211622   2.992   3.366   7.066  1.5440  0.0724 -1.2674
 3875SOL     OW11623   0.999   0.331   5.582 -0.2944  0.1237  0.2634
 3875SOL    HW111624   1.035   0.412   5.620  1.5239 -0.5813  0.1349
 3875SOL    HW211625   0.922   0.360   5.533  0.2419  1.7717  0.3310
 3876SOL     OW11626   3.251   0.603   5.574 -0.0104  0.0610  0.2412
 3876SOL    HW111627   3.247   0.654   5.493  0.3590 -0.8864 -0.3867
 3876SOL    HW211628   3.298   0.660   5.635 -2.0280  1.6370  0.4744
 3877SOL     OW11629   3.540   3.317   6.928 -0.2029 -0.2581  0.2340
 3877SOL    HW111630   3.633   3.294   6.923 -0.0734  0.3638 -0.2527
 3877SOL    HW211631   3.536   3.410   6.908 -0.8402 -0.0599  1.1664
 3878SOL     OW11632   0.597   0.289   5.803 -0.2604 -0.3764  0.0580
 3878SOL    HW111633   0.619   0.196   5.805  0.4867 -0.2052  1.3691
 3878SOL    HW211634   0.532   0.299   5.873 -0.3643  0.0816 -0.1029
 3879SOL     OW11635   0.372   1.177   6.019  0.3141 -0.1757  0.1540
 3879SOL    HW111636   0.365   1.244   5.951  0.2914 -0.0666  0.2640
 3879SOL    HW211637   0.334   1.218   6.097  2.0030  0.3658  0.7324
 3880SOL     OW11638   0.631   4.486   4.937 -0.2915 -0.0784 -0.0378
 3880SOL    HW111639   0.611   4.433   5.014  2.2310 -0.3302  0.5367
 3880SOL    HW211640   0.712   4.531   4.959 -1.8553  3.4703 -0.8568
 3881SOL     OW11641   3.485   1.637   7.104  0.1724 -0.5092  0.0433
 3881SOL    HW111642   3.450   1.561   7.150  0.2337 -0.7244 -0.2617
 3881SOL    HW211643   3.561   1.604   7.056  0.4955 -0.1495  0.3037
 3882SOL     OW11644   3.126   0.267   6.105  0.3294  0.0715 -0.2981
 3882SOL    HW111645   3.204   0.215   6.088 -0.5791 -0.9030 -1.6714
 3882SOL    HW211646   3.159   0.355   6.125  1.8174 -0.6605  0.5565
 3883SOL     OW11647   4.006   4.291   7.868 -0.2619  0.2044 -0.1343
 3883SOL    HW111648   4.025   4.347   7.793  0.2274 -0.0950 -0.2361
 3883SOL    HW211649   4.064   4.322   7.937  1.8648 -1.7172 -0.9071
 3884SOL     OW11650   3.755   4.222   7.888  0.0621  0.0221 -0.2600
 3884SOL    HW111651   3.723   4.299   7.842 -1.0531 -0.5215 -0.4199
 3884SOL    HW211652   3.849   4.239   7.901 -0.5307  2.3487  1.5919
 3885SOL     OW11653   3.409   2.580   5.923 -0.1575 -0.4902 -0.2909
 3885SOL    HW111654   3.468   2.571   5.998  0.1957 -3.0259 -0.7927
 3885SOL    HW211655   3.323   2.558   5.957 -0.4799  1.0012 -0.0719
 3886SOL     OW11656   3.179   0.350   5.571  0.7548 -0.7592 -0.0141
 3886SOL    HW111657   3.224   0.434   5.572  1.3187 -1.0260 -1.1934
 3886SOL    HW211658   3.236   0.292   5.521 -0.4873 -1.3402 -0.8364
 3887SOL     OW11659   1.302   4.429   5.893 -0.3283  0.2561  0.0612
 3887SOL    HW111660   1.256   4.457   5.814  1.0615  1.1891 -0.4394
 3887SOL    HW211661   1.347   4.349   5.868 -1.6753 -0.7097  0.5782
 3888SOL     OW11662   2.897   2.594   5.721  0.2958 -0.0302  0.0373
 3888SOL    HW111663   2.846   2.547   5.655  0.7826  1.3811 -1.3840
 3888SOL    HW211664   2.923   2.675   5.679  0.8954  0.7880  1.8778
 3889SOL     OW11665   1.571   2.273   5.629  0.0169  0.0885  0.2412
 3889SOL    HW111666   1.491   2.277   5.577  0.1718 -0.6261 -0.0703
 3889SOL    HW211667   1.638   2.243   5.567  0.4687  0.4444  0.5559
 3890SOL     OW11668   4.687   4.960   4.971 -0.5389  0.7760 -0.1247
 3890SOL    HW111669   4.747   4.893   4.938 -1.1019  0.2825 -0.1659
 3890SOL    HW211670   4.690   5.029   4.905  0.6516  1.1655  0.3094
 3891SOL     OW11671   4.161   0.035   5.375 -0.3170 -0.1800  0.5912
 3891SOL    HW111672   4.235  -0.025   5.390  0.1453 -0.0229 -0.8748
 3891SOL    HW211673   4.116  -0.002   5.300  0.4819  1.7306 -0.9148
 3892SOL     OW11674   2.841   1.712   5.830 -0.3674  0.0540  0.0065
 3892SOL    HW111675   2.815   1.804   5.828  0.9103  0.4311 -0.3624
 3892SOL    HW211676   2.902   1.706   5.904 -1.9120 -0.9465  1.2684
 3893SOL     OW11677   4.007   4.700   7.505  0.3241  0.2569 -0.6716
 3893SOL    HW111678   4.065   4.771   7.475  0.0494  1.1224  0.7570
 3893SOL    HW211679   3.919   4.734   7.491  0.1582 -0.4452 -1.4134
 3894SOL     OW11680   4.438   4.919   5.457  0.5513  0.6752  0.1699
 3894SOL    HW111681   4.444   5.014   5.457  0.3909  0.7519 -2.3666
 3894SOL    HW211682   4.493   4.891   5.383  1.5153 -1.3013  1.5330
 3895SOL     OW11683   3.784   2.689   6.754  0.0312 -0.0435  0.7685
 3895SOL    HW111684   3.836   2.769   6.756 -0.5955  0.3568  1.2128
 3895SOL    HW211685   3.773   2.665   6.846 -1.0798  0.2252  0.7247
 3896SOL     OW11686   4.729   2.780   7.536 -0.2562  0.4986 -0.2995
 3896SOL    HW111687   4.691   2.699   7.503  0.3474 -0.1227  0.4834
 3896SOL    HW211688   4.706   2.845   7.470  0.3916 -0.5697 -1.6487
 3897SOL     OW11689   0.059   4.306   8.027 -0.2908 -0.4624  0.1936
 3897SOL    HW111690   0.011   4.336   8.105 -2.4950  0.1046 -1.2777
 3897SOL    HW211691   0.091   4.219   8.051 -0.3319 -0.0363  1.9537
 3898SOL     OW11692   0.937   3.738   9.237 -0.5295  0.4929 -0.1893
 3898SOL    HW111693   0.892   3.811   9.279 -1.3088  0.0732 -0.2773
 3898SOL    HW211694   1.013   3.777   9.196 -0.3164  1.0804  0.7272
 3899SOL     OW11695   3.519   0.352   7.509 -0.2165  0.0173 -0.3953
 3899SOL    HW111696   3.584   0.422   7.512  0.2589 -0.4418  1.5524
 3899SOL    HW211697   3.542   0.300   7.432  0.7899  0.7322 -0.5892
 3900SOL     OW11698   3.756   4.632   9.826  0.2469 -0.0940  0.1335
 3900SOL    HW111699   3.677   4.580   9.812  0.1675 -0.0187  0.2946
 3900SOL    HW211700   3.728   4.723   9.812  0.3702 -0.0888 -0.0863
 3901SOL     OW11701   3.754   3.772   8.422 -0.1517 -0.0054 -0.1198
 3901SOL    HW111702   3.661   3.791   8.432  0.3680  1.7707  2.5138
 3901SOL    HW211703   3.795   3.858   8.418  1.5604 -0.6847  1.4500
 3902SOL     OW11704   4.914   1.308   9.235 -0.3192 -0.2096 -0.1426
 3902SOL    HW111705   4.967   1.333   9.160 -2.0304  1.0068 -1.0306
 3902SOL    HW211706   4.976   1.276   9.299  1.4336  0.7696 -1.2678
 3903SOL     OW11707   0.424   2.838   7.780  0.1451 -0.3066  0.2134
 3903SOL    HW111708   0.344   2.813   7.827  1.0048 -1.2914  1.2026
 3903SOL    HW211709   0.495   2.807   7.836  1.2246  0.4822 -0.6949
 3904SOL     OW11710   2.796   0.556   9.379 -0.3317  0.4189 -0.1756
 3904SOL    HW111711   2.774   0.508   9.459 -0.7118  2.0679  0.7580
 3904SOL    HW211712   2.891   0.556   9.377 -0.3248 -0.3321 -0.1706
 3905SOL     OW11713   2.779   0.256   8.116  0.4353  0.1605 -0.2826
 3905SOL    HW111714   2.745   0.172   8.085 -1.6010  0.9897 -0.5085
 3905SOL    HW211715   2.863   0.266   8.073  0.1732 -1.2219 -1.1941
 3906SOL     OW11716   3.608   3.253   7.585  0.0759  0.6176 -0.3054
 3906SOL    HW111717   3.565   3.168   7.576 -1.5540  0.9763  2.6848
 3906SOL    HW211718   3.691   3.234   7.629 -0.4716  0.5455  0.7371
 3907SOL     OW11719   0.472   3.234   8.639 -0.1399  0.8109  0.6655
 3907SOL    HW111720   0.466   3.315   8.589 -4.4087  0.6690  0.5810
 3907SOL    HW211721   0.540   3.183   8.595 -1.7980  1.7871 -3.4408
 3908SOL     OW11722   1.009   0.008   9.334  0.1000 -0.2220 -0.3800
 3908SOL    HW111723   1.096   0.036   9.306  0.4442 -1.0054 -0.1288
 3908SOL    HW211724   1.023  -0.031   9.420 -0.6474  0.4708  0.0702
 3909SOL     OW11725   4.778   3.849   7.001  0.1831 -0.2063 -0.0735
 3909SOL    HW111726   4.762   3.925   6.944 -0.8456 -0.8788 -0.7092
 3909SOL    HW211727   4.694   3.832   7.042  0.0901 -1.7006 -0.8097
 3910SOL     OW11728   4.034   4.185   6.780  0.1656 -0.5270 -0.2137
 3910SOL    HW111729   4.053   4.186   6.687  0.3096 -0.1576 -0.1825
 3910SOL    HW211730   4.106   4.135   6.819  0.0627 -0.7485 -0.3104
 3911SOL     OW11731   4.084   4.904   6.105  0.4726 -0.1769  0.2353
 3911SOL    HW111732   4.068   4.975   6.042 -0.0085 -0.0445  0.5005
 3911SOL    HW211733   4.111   4.830   6.051  1.0702  0.2290 -0.0408
 3912SOL     OW11734   4.823   4.902   9.985  0.6064 -0.1762 -0.0387
 3912SOL    HW111735   4.882   4.878  10.056  0.6564  1.1288  0.3834
 3912SOL    HW211736   4.881   4.932   9.914  0.5220 -0.7163 -0.3438
 3913SOL     OW11737   0.140   0.061   9.484  0.5727  0.1852  1.0290
 3913SOL    HW111738   0.057   0.038   9.526  0.6058 -0.9997  0.4670
 3913SOL    HW211739   0.207   0.037   9.548  0.5429 -0.0338  0.9775
 3914SOL     OW11740   3.999   3.384   6.632 -0.6298 -0.2047  0.1631
 3914SOL    HW111741   3.948   3.442   6.688 -0.5727  1.6997 -1.6416
 3914SOL    HW211742   4.072   3.356   6.687 -1.8550 -0.3889  1.7581
 3915SOL     OW11743   0.510   3.495   8.531 -0.2807  0.4295 -0.1354
 3915SOL    HW111744   0.592   3.514   8.576 -0.6277  0.4653  0.4878
 3915SOL    HW211745   0.517   3.541   8.448  0.2905  0.5073 -0.0493
 3916SOL     OW11746   3.253   2.988   9.234  0.4062  0.4564  0.1071
 3916SOL    HW111747   3.288   3.058   9.289  0.7570  0.8027 -0.5487
 3916SOL    HW211748   3.182   2.950   9.286  3.3995 -2.1456  2.7765
 3917SOL     OW11749   4.052   3.887   7.264  0.0555 -0.2516 -0.1270
 3917SOL    HW111750   4.041   3.897   7.358  2.1535  2.7260 -0.0681
 3917SOL    HW211751   3.982   3.942   7.227 -0.8796 -1.5580 -0.3806
 3918SOL     OW11752   4.809   1.369   9.496 -0.1847 -0.1403  0.4563
 3918SOL    HW111753   4.777   1.311   9.427 -1.4933  0.8627  0.1805
 3918SOL    HW211754   4.839   1.447   9.450 -1.8409  0.8808  1.0311
 3919SOL     OW11755   3.896   3.373   5.539 -0.4071  0.0839 -0.6760
 3919SOL    HW111756   3.926   3.282   5.542  1.3818  0.6032 -1.3101
 3919SOL    HW211757   3.801   3.367   5.537 -0.3238 -1.7727 -0.8811
 3920SOL     OW11758   4.802   2.886   8.071  0.3387 -0.1018  0.2372
 3920SOL    HW111759   4.787   2.896   7.977 -1.6937 -1.1946  0.3809
 3920SOL    HW211760   4.718   2.855   8.105  1.6912 -2.0292  2.0564
 3921SOL     OW11761   4.940   1.491   7.089 -0.0603 -0.7680 -0.0022
 3921SOL    HW111762   4.959   1.423   7.024 -0.8052 -1.1544  0.1774
 3921SOL    HW211763   4.854   1.468   7.125 -0.0279 -0.1021  0.5392
 3922SOL     OW11764   1.653   3.565   7.779 -0.1823 -0.1858 -0.3955
 3922SOL    HW111765   1.729   3.622   7.774 -0.6748  0.4969 -0.1928
 3922SOL    HW211766   1.593   3.610   7.838 -2.2579  1.0931 -3.2578
 3923SOL     OW11767   4.370   3.490   8.918 -0.1861 -0.1310  0.7344
 3923SOL    HW111768   4.277   3.487   8.939 -0.2799 -0.8593  0.2675
 3923SOL    HW211769   4.402   3.402   8.941  0.2298 -0.1240  0.2034
 3924SOL     OW11770   3.905   1.952   6.677 -0.4351  0.1740  0.0508
 3924SOL    HW111771   3.900   2.020   6.611  2.4556  1.6101  1.1371
 3924SOL    HW211772   3.885   1.871   6.630 -3.3870  1.5762 -1.4017
 3925SOL     OW11773   0.448   2.538   5.221 -0.1920 -0.3326  0.1183
 3925SOL    HW111774   0.437   2.550   5.315  0.2752 -0.3626  0.1791
 3925SOL    HW211775   0.413   2.618   5.182  2.2339  1.0062  0.4768
 3926SOL     OW11776   4.814   0.652   7.459  0.0882  0.0265  0.3490
 3926SOL    HW111777   4.904   0.624   7.474 -0.6193 -2.7127 -0.0140
 3926SOL    HW211778   4.774   0.654   7.546 -0.0524 -0.9492  0.3186
 3927SOL     OW11779   1.767   2.280   6.897 -0.2268 -0.3248 -0.3325
 3927SOL    HW111780   1.805   2.241   6.819  0.2809 -0.5633  0.0260
 3927SOL    HW211781   1.703   2.343   6.864  1.4026  1.0766 -1.0062
 3928SOL     OW11782   0.574   4.124   8.680  0.0626 -0.1566  0.1128
 3928SOL    HW111783   0.550   4.204   8.725 -0.8760  0.5761 -1.5792
 3928SOL    HW211784   0.493   4.073   8.677  0.4094 -0.7312  0.3077
 3929SOL     OW11785   1.791   0.827   6.633  1.0639 -0.0766 -0.0049
 3929SOL    HW111786   1.860   0.853   6.572  1.2226 -0.3362  0.0637
 3929SOL    HW211787   1.719   0.888   6.615  0.8831 -0.5312 -0.8649
 3930SOL     OW11788   0.131   4.212   7.466 -0.0703  0.1800 -0.6007
 3930SOL    HW111789   0.204   4.248   7.516 -0.7219  0.3346  0.2611
 3930SOL    HW211790   0.101   4.136   7.516 -1.6970  1.2143  0.1042
 3931SOL     OW11791   4.543   4.032   8.425 -0.2091 -0.3276  0.1105
 3931SOL    HW111792   4.527   4.073   8.339  1.2353  0.6330  0.2630
 3931SOL    HW211793   4.455   4.015   8.460 -0.8312  0.1292 -1.1541
 3932SOL     OW11794   3.701   3.280   9.205  0.5890 -0.3247  0.6026
 3932SOL    HW111795   3.754   3.359   9.210  2.7160 -1.5167 -1.0819
 3932SOL    HW211796   3.626   3.303   9.151  1.3732  0.4660 -0.1683
 3933SOL     OW11797   1.243   3.077   6.570 -0.1273 -0.0209 -0.2601
 3933SOL    HW111798   1.231   3.164   6.533 -0.5473 -0.5476 -1.4357
 3933SOL    HW211799   1.268   3.022   6.495  0.6846 -0.8052  0.5509
 3934SOL     OW11800   4.843   1.134   8.229  0.3770 -0.5563  0.5280
 3934SOL    HW111801   4.874   1.044   8.238  2.1747  0.0934  1.1366
 3934SOL    HW211802   4.862   1.175   8.313 -1.3980  0.1440  0.6445
 3935SOL     OW11803   4.625   3.743   8.182 -0.3205  0.0311  0.1040
 3935SOL    HW111804   4.664   3.699   8.258 -0.9861 -0.0371  0.4092
 3935SOL    HW211805   4.551   3.687   8.157 -0.1816  0.1147 -0.5264
 3936SOL     OW11806   0.156   2.440   7.445 -0.3425 -0.4195 -0.1519
 3936SOL    HW111807   0.116   2.484   7.370  1.2069  0.5278 -0.4763
 3936SOL    HW211808   0.220   2.503   7.477  1.9569 -2.3787 -0.6041
 3937SOL     OW11809   1.178   0.738   8.758 -0.0711 -0.1680  0.4750
 3937SOL    HW111810   1.251   0.726   8.698  1.4819 -1.1141  2.4273
 3937SOL    HW211811   1.202   0.813   8.812 -1.6036  0.8963 -0.2429
 3938SOL     OW11812   3.909   3.989   8.645  0.3110  0.1487  0.0220
 3938SOL    HW111813   3.879   4.072   8.682 -0.8334 -0.1850 -0.1177
 3938SOL    HW211814   3.945   4.012   8.560 -1.3604  0.3308 -0.6607
 3939SOL     OW11815   3.834   0.171   6.037  0.1583 -0.6789 -0.7164
 3939SOL    HW111816   3.812   0.118   6.114  1.0134  1.5016  1.1464
 3939SOL    HW211817   3.904   0.123   5.993 -0.1404 -1.8266  0.0274
 3940SOL     OW11818   1.971   1.047   8.732 -0.0779  0.0059 -0.2253
 3940SOL    HW111819   1.976   1.097   8.814  0.9528 -0.1509 -0.1845
 3940SOL    HW211820   1.878   1.024   8.724  0.3024 -4.0614  3.3632
 3941SOL     OW11821   4.208   3.974   8.834 -0.1623  0.4572  0.0898
 3941SOL    HW111822   4.208   4.031   8.756 -0.5892 -0.1288 -0.3511
 3941SOL    HW211823   4.280   3.913   8.819 -0.8307 -0.2676 -0.3305
 3942SOL     OW11824   3.739   4.791   7.441  0.1602 -0.2432  0.8631
 3942SOL    HW111825   3.666   4.832   7.487 -0.6775  0.1353 -0.7564
 3942SOL    HW211826   3.764   4.854   7.373  2.5365 -0.0085  1.8386
 3943SOL     OW11827   0.668   3.367   8.120  0.3310 -0.1214  0.0945
 3943SOL    HW111828   0.600   3.360   8.052  0.6405 -0.4073 -0.1962
 3943SOL    HW211829   0.704   3.455   8.109  1.1085 -0.5299 -0.8384
 3944SOL     OW11830   1.122   4.089   8.268  0.0316 -0.3664 -0.1663
 3944SOL    HW111831   1.055   4.158   8.265 -1.0379 -1.3859 -0.2293
 3944SOL    HW211832   1.104   4.042   8.349 -0.1105 -1.4083 -0.7866
 3945SOL     OW11833   1.132   3.576   9.366 -0.2424  0.3053  0.6325
 3945SOL    HW111834   1.190   3.534   9.302 -0.4495 -0.0330  0.6673
 3945SOL    HW211835   1.067   3.622   9.313 -0.4948 -0.0867  0.5975
 3946SOL     OW11836   4.507   3.866   7.827 -0.0197 -0.0772  0.5931
 3946SOL    HW111837   4.560   3.945   7.823 -0.5482  0.2351 -2.8438
 3946SOL    HW211838   4.437   3.887   7.889  1.3223  1.0778  1.8024
 3947SOL     OW11839   0.660   4.843   6.796  0.2328  0.0665  0.1535
 3947SOL    HW111840   0.591   4.800   6.848  0.3049  0.2930  0.4372
 3947SOL    HW211841   0.648   4.936   6.813 -0.5909  0.2651 -1.2685
 3948SOL     OW11842   0.307   3.902   7.578  0.6594  0.6541 -0.4925
 3948SOL    HW111843   0.398   3.931   7.575  1.6886 -1.9587  1.4225
 3948SOL    HW211844   0.306   3.823   7.524 -0.8315  1.3582 -1.5481
 3949SOL     OW11845   3.065   4.293   7.154 -0.2909 -0.2698  0.0336
 3949SOL    HW111846   3.080   4.385   7.171  0.2713 -0.3444 -0.0365
 3949SOL    HW211847   2.970   4.281   7.166 -0.0389 -0.2343  2.6503
 3950SOL     OW11848   3.772   2.859   8.127  0.4945  0.0905  0.1551
 3950SOL    HW111849   3.774   2.863   8.223  1.6341  0.6752  0.1231
 3950SOL    HW211850   3.710   2.927   8.102 -0.2904 -0.4850  0.4844
 3951SOL     OW11851   4.508   4.864   9.973 -0.2547  0.2425 -0.1999
 3951SOL    HW111852   4.478   4.944   9.932 -1.3332  0.2268  0.5243
 3951SOL    HW211853   4.600   4.881   9.996 -0.8820  1.8518  1.3161
 3952SOL     OW11854   4.206   3.520   7.140  0.2824  0.8427  0.2743
 3952SOL    HW111855   4.198   3.521   7.044  0.5394  0.5554  0.2479
 3952SOL    HW211856   4.116   3.529   7.171  0.1323  0.3360 -0.0015
 3953SOL     OW11857   5.015   1.647  10.084 -0.2117 -0.0978 -0.0299
 3953SOL    HW111858   4.921   1.630  10.083 -0.3544  0.6489  0.2016
 3953SOL    HW211859   5.055   1.562  10.068 -0.9604 -0.1453 -1.8756
 3954SOL     OW11860   0.593   0.070   6.976 -0.5065 -0.0827  0.0382
 3954SOL    HW111861   0.639   0.114   6.905 -0.2706 -2.2777 -1.2583
 3954SOL    HW211862   0.525   0.132   7.003  1.1447  1.9252 -0.1594
 3955SOL     OW11863   4.951   3.127   6.028  0.1313 -0.1536  0.1465
 3955SOL    HW111864   4.900   3.166   6.098 -0.5077 -0.5332 -0.0964
 3955SOL    HW211865   4.886   3.084   5.972  0.6845 -0.3612 -0.3508
 3956SOL     OW11866   0.597   2.283   7.389  0.1692 -0.1207  0.2738
 3956SOL    HW111867   0.570   2.197   7.357 -0.4915  1.1424 -2.9067
 3956SOL    HW211868   0.617   2.333   7.310  2.3474  2.1259  2.0766
 3957SOL     OW11869   0.219   4.810   8.385 -0.1707 -0.0869  0.1216
 3957SOL    HW111870   0.158   4.782   8.453 -0.5430 -1.9367 -0.8904
 3957SOL    HW211871   0.271   4.731   8.366  0.7316  0.7216 -0.8804
 3958SOL     OW11872   4.110   0.980   7.331 -0.0769  0.7346 -0.4716
 3958SOL    HW111873   4.171   1.043   7.370 -0.8228  1.3946 -0.3460
 3958SOL    HW211874   4.166   0.911   7.296  0.6135 -0.3413  2.4721
 3959SOL     OW11875   4.244   0.057   6.242 -0.4415  0.1472 -0.2135
 3959SOL    HW111876   4.198   0.011   6.172  1.5462  0.0917 -1.5587
 3959SOL    HW211877   4.307   0.113   6.197  0.1048  0.9790  1.5130
 3960SOL     OW11878   4.707   4.058   6.817 -0.2246 -0.0879  0.0206
 3960SOL    HW111879   4.751   4.143   6.820 -1.1988  0.5936 -2.3360
 3960SOL    HW211880   4.614   4.079   6.819 -0.5058 -1.3054  1.8641
 3961SOL     OW11881   3.850   4.073   7.177 -0.2928  0.0080  0.2815
 3961SOL    HW111882   3.849   4.110   7.088 -2.2823 -1.0076 -0.1767
 3961SOL    HW211883   3.822   4.145   7.233 -2.8698 -0.3263 -0.4453
 3962SOL     OW11884   0.047   3.288   8.633  0.4227 -0.6199  0.0486
 3962SOL    HW111885   0.020   3.340   8.709 -0.2494 -0.0510 -0.5648
 3962SOL    HW211886   0.088   3.351   8.574  0.0998 -0.8773 -0.4602
 3963SOL     OW11887   0.082   3.022   5.496 -0.1733 -0.2258  0.0005
 3963SOL    HW111888  -0.000   3.068   5.512 -0.8063 -0.6699 -1.7430
 3963SOL    HW211889   0.147   3.070   5.548 -0.9460  2.1244 -1.0509
 3964SOL     OW11890   4.028   1.946   8.524  0.2156  0.7570  0.5598
 3964SOL    HW111891   4.020   2.004   8.599  0.6200  1.0010  0.4170
 3964SOL    HW211892   4.043   1.859   8.562 -1.3148  0.5585  0.8018
 3965SOL     OW11893   4.255   4.046   6.920 -0.2961  0.6464 -0.0857
 3965SOL    HW111894   4.321   4.092   6.868  1.4330 -1.9839 -0.3644
 3965SOL    HW211895   4.294   3.962   6.941 -3.9003 -1.5444 -1.1376
 3966SOL     OW11896   0.051   3.817   9.736 -0.0965 -0.4496 -0.0184
 3966SOL    HW111897   0.089   3.789   9.819  0.1442 -1.3816 -0.4392
 3966SOL    HW211898   0.091   3.761   9.670 -1.9607 -1.2701 -0.5122
 3967SOL     OW11899   3.980   4.435   7.611  0.9573  0.4261  0.6517
 3967SOL    HW111900   3.909   4.483   7.654  0.3828  0.6251 -0.4792
 3967SOL    HW211901   4.009   4.493   7.540 -0.2675 -1.1609 -1.2389
 3968SOL     OW11902   0.020   2.455   6.651 -0.1248  0.5012 -0.1574
 3968SOL    HW111903   0.062   2.386   6.600  0.4246  0.3259  0.5094
 3968SOL    HW211904  -0.053   2.484   6.597  0.5649  0.4713 -1.1388
 3969SOL     OW11905   4.481   4.128   8.776 -0.0305 -0.1834 -0.5227
 3969SOL    HW111906   4.499   4.212   8.734  2.1859 -1.4080 -2.2700
 3969SOL    HW211907   4.420   4.085   8.716  0.3703 -0.5510 -0.6759
 3970SOL     OW11908   4.335   3.567   9.915 -0.4468  0.6498  0.0608
 3970SOL    HW111909   4.295   3.612   9.990  1.0120  1.4516  0.4066
 3970SOL    HW211910   4.419   3.612   9.902 -0.0754 -0.3414 -1.2230
 3971SOL     OW11911   2.005   0.983   7.757  0.3067 -0.1111 -0.1168
 3971SOL    HW111912   1.983   1.076   7.751 -2.8961 -0.5754  1.6986
 3971SOL    HW211913   1.957   0.943   7.685  1.0863 -0.4248 -0.4605
 3972SOL     OW11914   4.414   4.730   8.479  0.6086 -0.0639  0.4133
 3972SOL    HW111915   4.497   4.736   8.526  0.5085  0.0780  0.5734
 3972SOL    HW211916   4.411   4.807   8.423 -0.2831  0.9846  1.8289
 3973SOL     OW11917   4.901   3.476   7.109 -0.2659  0.6866 -0.5318
 3973SOL    HW111918   4.935   3.554   7.065  1.2446  0.3193 -0.0862
 3973SOL    HW211919   4.913   3.406   7.046  0.8601  0.3635  0.0040
 3974SOL     OW11920   4.361   2.412   9.675 -0.2694  0.6623 -0.0717
 3974SOL    HW111921   4.325   2.497   9.698  0.2974  1.0036 -0.4222
 3974SOL    HW211922   4.412   2.428   9.596  1.5317  0.4010  0.9936
 3975SOL     OW11923   0.114   3.306   6.946 -0.3952  0.1006  0.2138
 3975SOL    HW111924   0.198   3.334   6.980 -1.9678  2.2125  2.7837
 3975SOL    HW211925   0.096   3.365   6.873  0.2938 -0.3355 -0.3215
 3976SOL     OW11926   3.382   4.374   8.658 -0.1023 -0.2314 -0.6429
 3976SOL    HW111927   3.422   4.324   8.728  1.5709  1.3651 -0.3929
 3976SOL    HW211928   3.430   4.349   8.579 -1.2437 -1.1970 -1.0580
 3977SOL     OW11929   4.072   0.278   6.260  0.2697 -0.3177  0.4785
 3977SOL    HW111930   3.983   0.254   6.288 -0.4433  2.0983  0.5144
 3977SOL    HW211931   4.114   0.194   6.242 -1.9183 -1.5679  0.7294
 3978SOL     OW11932   0.559   0.296   8.017 -0.7934 -0.0564  0.1785
 3978SOL    HW111933   0.621   0.223   8.027 -0.3824 -0.0095 -1.7759
 3978SOL    HW211934   0.478   0.263   8.056  0.1111 -0.5369  1.7574
 3979SOL     OW11935   1.251   4.633   8.781 -0.0508  0.3790  0.1711
 3979SOL    HW111936   1.242   4.572   8.708 -0.7589 -0.4479  0.9417
 3979SOL    HW211937   1.345   4.633   8.801  0.1833  0.7731 -0.8568
 3980SOL     OW11938   0.452   1.964   6.490  0.0105  0.2634  0.0808
 3980SOL    HW111939   0.485   1.875   6.481 -2.6560 -0.7102 -1.4375
 3980SOL    HW211940   0.372   1.955   6.542 -0.2745  1.7782 -0.0288
 3981SOL     OW11941   3.314   2.118   7.880 -0.2409  0.0579 -0.1356
 3981SOL    HW111942   3.293   2.025   7.872 -0.1750  0.0962 -0.9023
 3981SOL    HW211943   3.395   2.128   7.830  1.1685  0.0772  2.0219
 3982SOL     OW11944   3.974   4.939   8.155 -0.0005  0.1085  0.0045
 3982SOL    HW111945   3.916   4.937   8.079  0.5130 -1.5262 -0.3865
 3982SOL    HW211946   4.049   4.992   8.127  0.4896 -1.0183 -0.8889
 3983SOL     OW11947   4.387   3.595   8.525 -0.0178  0.1757 -0.3197
 3983SOL    HW111948   4.322   3.550   8.578  1.6464 -0.3171  1.4265
 3983SOL    HW211949   4.336   3.641   8.458 -2.2209  0.8184  1.6769
 3984SOL     OW11950   0.503   4.029   6.840  0.1789  0.0119  0.5873
 3984SOL    HW111951   0.553   3.981   6.905  0.2922  0.4164  0.8037
 3984SOL    HW211952   0.563   4.040   6.766  0.0926 -0.3366  0.4673
 3985SOL     OW11953   4.184   4.577   9.469 -0.5649  0.1903 -0.3966
 3985SOL    HW111954   4.159   4.669   9.483  0.4727  0.7941 -2.2237
 3985SOL    HW211955   4.260   4.581   9.412 -1.5736 -1.8684 -1.9991
 3986SOL     OW11956   4.623   2.375   8.760 -0.2447 -0.2067  0.6688
 3986SOL    HW111957   4.608   2.447   8.699 -1.8383 -1.1942 -0.1960
 3986SOL    HW211958   4.705   2.336   8.732 -0.8490 -0.5068 -0.7495
 3987SOL     OW11959   4.604   3.924   6.052 -0.2666  0.0903  1.0649
 3987SOL    HW111960   4.629   3.971   5.972  0.2566 -0.4102  0.9291
 3987SOL    HW211961   4.671   3.947   6.115 -1.4875  1.7084  1.8666
 3988SOL     OW11962   0.397   3.357   7.434 -0.3285  0.2251  0.0323
 3988SOL    HW111963   0.399   3.265   7.458  0.1586  0.6595  1.8914
 3988SOL    HW211964   0.323   3.365   7.374 -0.6290 -1.2945  0.1607
 3989SOL     OW11965   4.235   2.049   9.581  0.1671  0.4192 -0.0703
 3989SOL    HW111966   4.212   2.128   9.532  0.0362 -0.0693 -0.8057
 3989SOL    HW211967   4.192   2.060   9.666 -1.9638  0.0077 -1.0248
 3990SOL     OW11968   4.784   3.879   8.992  0.3161  0.1213 -0.1240
 3990SOL    HW111969   4.724   3.953   8.997 -0.0589  0.1048 -2.7485
 3990SOL    HW211970   4.855   3.902   9.052 -0.9170  1.4554  0.9185
 3991SOL     OW11971   2.842   3.547   8.922 -0.0743  0.0734 -0.3107
 3991SOL    HW111972   2.872   3.459   8.898 -0.3734  0.0307 -0.5242
 3991SOL    HW211973   2.747   3.543   8.914 -0.3237 -0.3054  2.0130
 3992SOL     OW11974   0.754   2.975   9.081 -0.1882 -0.2869  0.2635
 3992SOL    HW111975   0.682   2.922   9.114 -0.2725  0.4776  1.3356
 3992SOL    HW211976   0.809   2.991   9.157 -1.0807  2.6209  0.4174
 3993SOL     OW11977   1.906   0.803   8.889 -0.3633 -0.5309  1.0823
 3993SOL    HW111978   1.840   0.860   8.928 -1.1291 -0.5514 -0.1444
 3993SOL    HW211979   1.953   0.859   8.827 -1.4726 -1.3149 -0.5349
 3994SOL     OW11980   1.278   2.468   8.960  0.0478  0.1627  0.6136
 3994SOL    HW111981   1.185   2.452   8.946 -0.0176  0.2718  0.9075
 3994SOL    HW211982   1.298   2.420   9.040  0.0970  0.6622  0.9028
 3995SOL     OW11983   0.386   2.414   8.982  0.1242  0.6067  0.5524
 3995SOL    HW111984   0.346   2.405   8.896  1.0846  0.9945  0.0542
 3995SOL    HW211985   0.370   2.506   9.006  1.7423  1.1165 -0.1957
 3996SOL     OW11986   0.089   3.721   8.024  0.2177 -0.5809 -0.1451
 3996SOL    HW111987   0.146   3.775   7.969  1.6995 -1.3086  0.6143
 3996SOL    HW211988   0.095   3.634   7.985  1.7982 -1.2511  1.4824
 3997SOL     OW11989   0.650   2.740   7.323  0.0364  0.1729 -0.3788
 3997SOL    HW111990   0.588   2.670   7.303  0.8291 -1.3687  2.0983
 3997SOL    HW211991   0.691   2.760   7.239 -1.7043 -0.8323 -1.5366
 3998SOL     OW11992   4.480   3.085  10.103 -0.3023  0.6530 -0.0040
 3998SOL    HW111993   4.510   3.097  10.193 -3.0100 -0.5896  1.2015
 3998SOL    HW211994   4.490   3.171  10.062  0.2035  1.4748  1.7504
 3999SOL     OW11995   0.225   3.123   8.753  0.6955 -0.1929  0.4803
 3999SOL    HW111996   0.151   3.160   8.704  0.8809 -0.1559  0.2264
 3999SOL    HW211997   0.301   3.168   8.717  0.8880 -0.5738  0.4090
 4000SOL     OW11998   3.671   3.046   9.006  0.0194  0.0423 -0.2474
 4000SOL    HW111999   3.734   3.046   9.078  0.4387  0.1255 -0.6053
 4000SOL    HW212000   3.663   3.138   8.981 -1.1017  0.1645  0.5216
 4001SOL     OW12001   0.238   3.406   8.108  0.1934  0.0792  0.0402
 4001SOL    HW112002   0.194   3.408   8.023  0.8339  0.1933 -0.2972
 4001SOL    HW212003   0.322   3.364   8.090  0.5035  0.4735  0.5341
 4002SOL     OW12004   4.278   4.054   8.571 -0.0581 -0.5238  0.0487
 4002SOL    HW112005   4.234   4.126   8.525 -0.2946 -0.0845  0.9482
 4002SOL    HW212006   4.251   3.976   8.524  0.5557  0.0042 -1.2288
 4003SOL     OW12007   3.877   0.935   8.868  0.8976  0.2821  0.1354
 4003SOL    HW112008   3.799   0.948   8.922  1.0312 -0.5242  0.5381
 4003SOL    HW212009   3.942   0.995   8.905  1.2263 -0.7820  1.3894
 4004SOL     OW12010   2.397   0.593   9.046  0.3940  0.4654 -0.5775
 4004SOL    HW112011   2.366   0.679   9.075  1.2409  0.7982 -0.6330
 4004SOL    HW212012   2.438   0.610   8.961  2.5264  0.4255  0.3707
 4005SOL     OW12013   3.515   0.741   8.723  0.0247 -0.0260 -0.3264
 4005SOL    HW112014   3.518   0.835   8.706 -1.8477  0.1160 -0.0666
 4005SOL    HW212015   3.583   0.705   8.666 -0.2374  1.3357 -1.5848
 4006SOL     OW12016   1.333   4.907   7.604  0.5605  0.3678  0.2083
 4006SOL    HW112017   1.248   4.913   7.649  1.1371 -0.5953  1.4894
 4006SOL    HW212018   1.383   4.982   7.636  0.3903  0.6287 -0.1303
 4007SOL     OW12019   1.260   3.514   7.298 -0.8166 -0.0254 -0.5330
 4007SOL    HW112020   1.175   3.542   7.265 -1.8195 -1.2529  0.8325
 4007SOL    HW212021   1.255   3.529   7.392 -0.3948 -2.0947 -0.1237
 4008SOL     OW12022   0.452   2.389   8.502  0.2278 -0.1363 -0.0651
 4008SOL    HW112023   0.525   2.441   8.470 -0.7346  1.2366 -0.1213
 4008SOL    HW212024   0.461   2.305   8.457  1.7834 -0.0255 -0.0172
 4009SOL     OW12025   4.286   2.929   9.011  0.4240 -0.0577  0.6373
 4009SOL    HW112026   4.316   2.899   8.925 -3.5151 -0.8526 -0.6868
 4009SOL    HW212027   4.218   2.994   8.992 -2.2282 -1.9012  2.9393
 4010SOL     OW12028   0.262   2.174   7.521 -0.2223  0.0244  0.6276
 4010SOL    HW112029   0.270   2.262   7.484 -0.2966  0.1365  0.8748
 4010SOL    HW212030   0.320   2.174   7.597  0.4428 -0.4197  0.1301
 4011SOL     OW12031   4.864   0.076   9.596 -0.4152  0.2609 -0.1741
 4011SOL    HW112032   4.788   0.026   9.568 -0.8909  0.7112  0.3017
 4011SOL    HW212033   4.832   0.131   9.668  0.9592 -1.4135  1.8260
 4012SOL     OW12034   0.677   3.157   8.856 -0.0371  0.0492 -0.6348
 4012SOL    HW112035   0.716   3.094   8.917  0.8294  0.3414 -0.8716
 4012SOL    HW212036   0.588   3.124   8.842 -0.2231 -0.0846  0.6847
 4013SOL     OW12037   4.818   0.639   8.289 -0.6334  0.0930  0.2912
 4013SOL    HW112038   4.870   0.719   8.283 -1.3905  0.6030  0.2979
 4013SOL    HW212039   4.836   0.592   8.207 -2.1202  1.5108 -0.9272
 4014SOL     OW12040   3.784   2.481   9.904  0.7307  0.2548  0.4928
 4014SOL    HW112041   3.768   2.562   9.856 -2.5065 -0.1656  0.6472
 4014SOL    HW212042   3.874   2.457   9.883  0.8325  2.3892 -1.8187
 4015SOL     OW12043   3.448   2.947   7.253  0.5788  0.4448 -0.2644
 4015SOL    HW112044   3.533   2.904   7.241 -0.2206 -1.3496  0.2030
 4015SOL    HW212045   3.395   2.917   7.180  0.8464  3.0877 -1.6727
 4016SOL     OW12046   2.238   3.427   8.219 -0.3436 -0.1991 -0.2767
 4016SOL    HW112047   2.200   3.510   8.187  1.1520  0.6168 -0.0263
 4016SOL    HW212048   2.230   3.367   8.144 -3.0479 -0.4258  0.1005
 4017SOL     OW12049   3.922   3.180   8.697 -0.1151  0.1273  0.2241
 4017SOL    HW112050   3.897   3.224   8.616 -1.6827  1.0106  1.1336
 4017SOL    HW212051   3.979   3.108   8.669 -0.4095  0.5598 -1.6148
 4018SOL     OW12052   0.010   0.385   8.459  0.1053  0.6962  0.0811
 4018SOL    HW112053  -0.024   0.468   8.493  0.7496  0.3271  1.7276
 4018SOL    HW212054   0.104   0.389   8.476  0.0377 -0.6833  0.9396
 4019SOL     OW12055   2.590   3.517   7.822  0.0977 -0.2746 -0.9714
 4019SOL    HW112056   2.638   3.528   7.740  2.4764 -0.3912  0.3330
 4019SOL    HW212057   2.657   3.495   7.887 -1.7226 -0.3502  0.9896
 4020SOL     OW12058   2.808   3.073   9.046  0.4232  0.4696 -0.3393
 4020SOL    HW112059   2.791   3.163   9.076  1.5408  0.7232 -0.4062
 4020SOL    HW212060   2.756   3.018   9.104  1.1526  1.0642  0.9320
 4021SOL     OW12061   0.375   3.068   9.747  0.0814 -0.4531  0.3943
 4021SOL    HW112062   0.366   3.135   9.815 -3.0710 -0.0824 -0.2118
 4021SOL    HW212063   0.369   2.985   9.795  2.2823 -0.3561  0.9557
 4022SOL     OW12064   3.407   0.045   9.687 -0.0066 -0.3279 -0.0613
 4022SOL    HW112065   3.380   0.117   9.630  0.5542 -0.1733 -0.1320
 4022SOL    HW212066   3.402   0.081   9.775 -0.9320 -0.5848  0.0050
 4023SOL     OW12067   2.131   0.524   8.778 -0.1432  0.1749  0.5903
 4023SOL    HW112068   2.127   0.429   8.768 -0.1920  0.0912  1.3863
 4023SOL    HW212069   2.066   0.558   8.717 -0.3340 -0.3174  0.5221
 4024SOL     OW12070   4.860   4.258   9.204  0.2005  0.2623 -0.5014
 4024SOL    HW112071   4.789   4.272   9.267  1.2407  0.3402  0.6973
 4024SOL    HW212072   4.861   4.163   9.190 -0.3973  0.3012 -0.8537
 4025SOL     OW12073   0.724   2.892   9.785  0.3211 -1.0309  0.0889
 4025SOL    HW112074   0.659   2.836   9.828  1.5841 -2.3839  0.2956
 4025SOL    HW212075   0.708   2.879   9.692 -0.7809 -0.0371  0.1132
 4026SOL     OW12076   4.372   3.773   8.816 -0.4978 -0.5719 -0.0253
 4026SOL    HW112077   4.349   3.684   8.840 -0.0443 -0.4004  1.0923
 4026SOL    HW212078   4.461   3.767   8.781 -1.1305 -0.8110 -1.6993
 4027SOL     OW12079   1.305   2.625   9.505 -0.5311  0.2721  0.0484
 4027SOL    HW112080   1.226   2.601   9.554  0.0282 -1.6159  0.1351
 4027SOL    HW212081   1.276   2.630   9.414 -0.8630  0.1555  0.1451
 4028SOL     OW12082   0.260   2.752   8.708  0.2059 -0.5692  0.2923
 4028SOL    HW112083   0.264   2.672   8.655  0.7229  0.2507 -0.9635
 4028SOL    HW212084   0.172   2.787   8.694  0.4398 -0.1979 -0.2792
 4029SOL     OW12085   4.529   3.892   9.585  0.5560 -0.0357  0.0739
 4029SOL    HW112086   4.616   3.929   9.575  0.2811  0.2874 -1.4011
 4029SOL    HW212087   4.502   3.870   9.496 -1.2782  0.8287  0.3577
 4030SOL     OW12088   1.187   0.368  10.017 -0.2159 -0.1416  0.2393
 4030SOL    HW112089   1.238   0.290   9.995  0.0591 -0.3014  1.3266
 4030SOL    HW212090   1.128   0.339  10.087 -0.2963  0.5489  0.4682
 4031SOL     OW12091   0.301   3.690   8.726  0.0317 -0.1189  0.2719
 4031SOL    HW112092   0.355   3.661   8.799  0.3820  1.8245  0.8551
 4031SOL    HW212093   0.271   3.610   8.684  0.5173 -1.2733  2.0389
 4032SOL     OW12094   0.699   2.175   9.354 -0.0252 -0.1739 -0.0597
 4032SOL    HW112095   0.663   2.092   9.385  1.4999 -0.8170  0.0842
 4032SOL    HW212096   0.728   2.220   9.433  2.2342 -1.0273 -0.3396
 4033SOL     OW12097   2.253   4.023   9.402 -0.0306  0.4458 -0.5055
 4033SOL    HW112098   2.320   3.959   9.426 -0.6858 -0.0884 -0.0535
 4033SOL    HW212099   2.294   4.108   9.418  0.1525  0.1207  0.8714
 4034SOL     OW12100   3.804   3.513   8.952 -0.2509 -0.1041  0.4212
 4034SOL    HW112101   3.728   3.459   8.930 -1.2621  1.7953 -1.1117
 4034SOL    HW212102   3.876   3.474   8.902 -0.1302 -1.9603  1.9390
 4035SOL     OW12103   4.236   4.096   9.891  0.1048  0.2963  0.6787
 4035SOL    HW112104   4.172   4.041   9.938  0.9124  0.8057  2.4618
 4035SOL    HW212105   4.245   4.054   9.806 -1.6870 -0.4892  0.8227
 4036SOL     OW12106   4.674   4.243   9.410  0.3624  0.2737 -0.2396
 4036SOL    HW112107   4.622   4.165   9.389  0.4845  0.6550 -2.1030
 4036SOL    HW212108   4.737   4.212   9.475  0.1055 -1.0600 -0.5786
 4037SOL     OW12109   4.680   2.793   9.291  0.4916 -0.0577 -0.2667
 4037SOL    HW112110   4.695   2.883   9.261 -2.5178  0.3495 -0.8804
 4037SOL    HW212111   4.758   2.771   9.341  1.7845  2.5081 -0.9969
 4038SOL     OW12112   4.937   3.351   8.873  0.3699  0.1278 -0.0767
 4038SOL    HW112113   4.876   3.277   8.867  0.7916 -0.1122 -1.8460
 4038SOL    HW212114   4.936   3.374   8.966 -1.1597 -0.9170  0.2151
 4039SOL     OW12115   2.844   0.519   8.959 -0.9365  0.3020 -0.2634
 4039SOL    HW112116   2.843   0.492   8.867  0.9467  1.9140 -0.8298
 4039SOL    HW212117   2.923   0.572   8.967 -1.3067  0.5799  2.2018
 4040SOL     OW12118   3.153   1.133   9.345 -0.2098  0.1664  0.1507
 4040SOL    HW112119   3.101   1.089   9.279 -1.7125 -0.4394  1.6541
 4040SOL    HW212120   3.215   1.066   9.375  1.3952  0.8410 -1.5309
 4041SOL     OW12121   4.552   0.906   9.766  0.2080 -0.0802  0.1146
 4041SOL    HW112122   4.579   0.827   9.812  0.4681 -0.2099 -0.2642
 4041SOL    HW212123   4.497   0.876   9.695  1.3761 -0.0344 -0.8422
 4042SOL     OW12124   3.684   0.680   9.833  0.0269 -0.0580  0.0528
 4042SOL    HW112125   3.711   0.769   9.855  2.7718 -1.0984  1.2872
 4042SOL    HW212126   3.714   0.668   9.743 -1.3402  0.5640 -0.5210
 4043SOL     OW12127   4.028   2.434   8.870 -0.1255 -0.3056  0.4520
 4043SOL    HW112128   4.065   2.476   8.948 -1.0293  0.5430  0.4388
 4043SOL    HW212129   4.095   2.371   8.842  1.2900  1.1598  0.4427
 4044SOL     OW12130   4.495   3.311   9.921 -0.2932 -0.4211  0.5644
 4044SOL    HW112131   4.460   3.259   9.849 -0.1840  0.7264 -0.3466
 4044SOL    HW212132   4.459   3.399   9.907 -1.2913 -0.4518  2.6445
 4045SOL     OW12133   2.274   3.556   8.943  0.6048 -0.2259  0.4338
 4045SOL    HW112134   2.246   3.647   8.946 -1.9781 -0.8886 -0.5638
 4045SOL    HW212135   2.331   3.550   8.866  0.4912  0.4677  0.2904
 4046SOL     OW12136   3.971   0.691   7.185 -0.2131  0.1196  0.3417
 4046SOL    HW112137   3.996   0.613   7.135 -2.8189 -0.0493 -0.8972
 4046SOL    HW212138   3.927   0.656   7.263 -0.9040  0.3113  0.0502
 4047SOL     OW12139   2.579   1.078   7.832  0.1879 -0.0837 -0.1108
 4047SOL    HW112140   2.591   0.983   7.834 -0.0431 -0.1180 -0.2165
 4047SOL    HW212141   2.658   1.114   7.871  0.2696 -0.3215 -0.0583
 4048SOL     OW12142   4.164   3.823   8.444 -0.2881 -0.5256 -0.3708
 4048SOL    HW112143   4.090   3.836   8.384 -2.3186  3.9697  2.5647
 4048SOL    HW212144   4.136   3.752   8.502 -0.4769 -1.4889 -1.5884
 4049SOL     OW12145   0.557   0.911   9.293 -0.1272  0.3719 -0.4727
 4049SOL    HW112146   0.628   0.850   9.274 -1.8551 -1.5724 -1.0650
 4049SOL    HW212147   0.505   0.866   9.361  0.0375  2.4419  1.1178
 4050SOL     OW12148   1.336   3.784   9.537  0.0622 -0.2007 -0.0198
 4050SOL    HW112149   1.349   3.737   9.454  1.4020 -0.3291  0.2469
 4050SOL    HW212150   1.418   3.830   9.552 -0.2668  0.0489  1.1036
 4051SOL     OW12151   3.781   0.156   9.370 -0.1411 -0.2758 -0.4531
 4051SOL    HW112152   3.864   0.113   9.389  0.1405  0.4974  0.1098
 4051SOL    HW212153   3.717   0.085   9.372  0.3136 -0.6863  0.4528
 4052SOL     OW12154   4.656   1.932   7.990 -0.2286 -0.4905 -0.5665
 4052SOL    HW112155   4.588   1.944   7.924  1.3764 -0.1137 -2.2323
 4052SOL    HW212156   4.725   1.883   7.945  1.0219  0.0060  0.7281
 4053SOL     OW12157   4.768   3.241  10.010 -0.0582  0.1666 -0.7389
 4053SOL    HW112158   4.808   3.283   9.934  0.1777  0.5458 -0.4077
 4053SOL    HW212159   4.675   3.262  10.003 -0.2768 -1.0138 -1.7038
 4054SOL     OW12160   1.075   4.449   9.425 -0.4645  0.4150 -0.0629
 4054SOL    HW112161   1.124   4.372   9.395 -0.9292  0.0282  0.1542
 4054SOL    HW212162   1.101   4.459   9.517 -0.7568  0.2365  0.0398
 4055SOL     OW12163   3.261   3.855   9.332 -0.0845 -0.2006  0.1359
 4055SOL    HW112164   3.263   3.833   9.239  0.1184 -1.3733  0.4014
 4055SOL    HW212165   3.302   3.941   9.337 -2.6099  1.2088 -1.1724
   5.00000   5.00000  15.00000
