Water Slab for Clausius-Clapeyron Phase 1 in water
12165
    1SOL     OW    1   1.618   0.953   4.749  0.5885  0.3316  0.2716
    1SOL    HW1    2   1.599   0.963   4.842  1.7773  3.0991  0.3309
    1SOL    HW2    3   1.546   0.999   4.705  2.0642  2.6891  0.1076
    2SOL     OW    4   0.664   0.683   6.564 -0.7137  0.7556 -0.1398
    2SOL    HW1    5   0.703   0.755   6.515 -0.0277 -0.8415 -2.1249
    2SOL    HW2    6   0.575   0.712   6.583 -0.0434  2.6267  0.3577
    3SOL     OW    7   4.781   3.743   6.166  0.0889 -0.6051 -0.1455
    3SOL    HW1    8   4.755   3.685   6.095  0.7526 -4.2107  2.2931
    3SOL    HW2    9   4.701   3.791   6.188 -0.2742  0.1380 -2.7976
    4SOL     OW   10   1.361   0.467   6.798 -0.0624  0.4195 -0.2592
    4SOL    HW1   11   1.421   0.414   6.745  0.5713 -1.0414  1.8244
    4SOL    HW2   12   1.291   0.407   6.824  0.2483  0.7546  1.4849
    5SOL     OW   13   1.913   2.295   5.555  0.5996 -0.4937  0.0379
    5SOL    HW1   14   1.952   2.380   5.536  1.5633 -0.9689 -0.2375
    5SOL    HW2   15   1.957   2.235   5.493  0.7204 -1.3612  0.9352
    6SOL     OW   16   2.126   1.277   5.085 -0.2710  0.3718 -0.1209
    6SOL    HW1   17   2.211   1.320   5.091 -0.6066  0.9129  1.0697
    6SOL    HW2   18   2.145   1.184   5.099  0.2772  0.2917 -1.2688
    7SOL     OW   19   1.988   1.949   5.093  0.0867  0.1439  0.2248
    7SOL    HW1   20   2.063   1.960   5.034 -1.0508  0.0006 -1.3038
    7SOL    HW2   21   1.991   1.857   5.119 -0.8633 -0.4839 -1.7219
    8SOL     OW   22   1.688   0.544   7.191  0.4575 -0.2233  0.3634
    8SOL    HW1   23   1.625   0.568   7.123 -1.2020  2.1327  2.5058
    8SOL    HW2   24   1.662   0.456   7.218  0.3570 -0.6842 -1.1536
    9SOL     OW   25   2.522   4.293   6.584 -0.4932  0.4853  0.0144
    9SOL    HW1   26   2.492   4.289   6.675  0.0418  0.7838  0.2122
    9SOL    HW2   27   2.611   4.328   6.590  0.4291 -1.6076 -0.4297
   10SOL     OW   28   1.044   0.743   5.479 -0.0601 -0.1020  0.1854
   10SOL    HW1   29   0.977   0.700   5.426 -1.7742  1.4916  0.9444
   10SOL    HW2   30   1.126   0.703   5.451 -1.2167 -1.4952 -1.4256
   11SOL     OW   31   0.062   0.027   6.141 -0.0507 -0.0881  0.0884
   11SOL    HW1   32  -0.023   0.019   6.184  0.1162 -0.9472  0.2911
   11SOL    HW2   33   0.115  -0.041   6.183  0.5504  0.0474 -0.4543
   12SOL     OW   34   0.122   0.649   6.488  0.5791 -0.2009  0.1021
   12SOL    HW1   35   0.146   0.726   6.538  0.5494  0.3040 -0.6471
   12SOL    HW2   36   0.039   0.672   6.446 -0.6391 -1.4783  1.6988
   13SOL     OW   37   3.590   3.574   5.407  0.1492 -0.4318  0.1640
   13SOL    HW1   38   3.665   3.524   5.442  0.9299  1.5548  1.4805
   13SOL    HW2   39   3.515   3.544   5.459  0.6179 -0.2355  0.9694
   14SOL     OW   40   4.838   3.557   5.361  0.5905  0.1175 -0.3798
   14SOL    HW1   41   4.822   3.532   5.452  0.4307  0.5526 -0.2830
   14SOL    HW2   42   4.846   3.653   5.364  0.7540  0.1189 -0.7974
   15SOL     OW   43   3.670   0.391   6.003 -0.5757  0.1336 -0.7718
   15SOL    HW1   44   3.583   0.430   5.995 -0.0556  1.3461 -0.7054
   15SOL    HW2   45   3.672   0.352   6.090 -0.5752  1.3598 -0.2056
   16SOL     OW   46   4.768   4.718   7.479  0.2607 -0.2880  0.1874
   16SOL    HW1   47   4.726   4.640   7.516  0.2855 -0.8799 -0.9845
   16SOL    HW2   48   4.697   4.781   7.469  0.4195  0.2551  2.1210
   17SOL     OW   49   0.150   0.892   6.648 -0.4539  0.1096  0.4707
   17SOL    HW1   50   0.144   0.877   6.743 -0.5216 -1.1531  0.2772
   17SOL    HW2   51   0.081   0.956   6.630 -0.0470  0.8275  1.3555
   18SOL     OW   52   4.025   4.507   5.601 -0.0398 -0.0883  0.1098
   18SOL    HW1   53   4.005   4.600   5.594 -1.8018 -0.5136 -1.0163
   18SOL    HW2   54   3.991   4.481   5.686 -2.0263 -0.2174 -0.6666
   19SOL     OW   55   2.745   0.769   5.861 -0.2772 -0.8670 -0.4205
   19SOL    HW1   56   2.824   0.783   5.914  0.6749 -1.4487 -1.6172
   19SOL    HW2   57   2.727   0.675   5.871 -1.0016 -0.6859  0.0611
   20SOL     OW   58   0.252   0.403   5.739  0.0846 -0.0810  0.2781
   20SOL    HW1   59   0.320   0.427   5.801 -0.0994  0.9134  0.0995
   20SOL    HW2   60   0.297   0.397   5.655  0.3040 -1.2808  0.4576
   21SOL     OW   61   2.182   1.586   5.741  0.1956 -0.2887 -0.1317
   21SOL    HW1   62   2.203   1.495   5.762  2.2520  0.4789  1.4301
   21SOL    HW2   63   2.190   1.591   5.645 -0.0884 -1.7611 -0.2554
   22SOL     OW   64   1.406   1.654   7.757  0.2691  0.1074  0.2390
   22SOL    HW1   65   1.461   1.620   7.827  0.6903 -1.6306 -0.8919
   22SOL    HW2   66   1.345   1.714   7.801  0.6313 -0.8149  2.0533
   23SOL     OW   67   0.095   4.797   6.481  0.3580  0.5206  0.0496
   23SOL    HW1   68   0.152   4.824   6.408 -0.3809 -0.5222 -0.9463
   23SOL    HW2   69   0.010   4.836   6.460  0.1018  0.0878  0.2850
   24SOL     OW   70   2.429   1.960   4.889 -1.2612  0.8679 -0.3753
   24SOL    HW1   71   2.469   2.037   4.929  0.2607 -0.7129  1.3482
   24SOL    HW2   72   2.489   1.934   4.819 -0.4346 -0.1377  0.6690
   25SOL     OW   73   3.940   1.866   7.176  0.5135  0.2144 -0.0036
   25SOL    HW1   74   3.974   1.934   7.118  1.3322  0.1685  0.4160
   25SOL    HW2   75   3.867   1.908   7.221  1.2804  0.9697  0.5660
   26SOL     OW   76   0.589   1.391   8.118 -0.4128  0.5629  0.2587
   26SOL    HW1   77   0.582   1.484   8.097 -0.4408  0.9396  1.8580
   26SOL    HW2   78   0.635   1.388   8.201  0.9688 -0.9548 -0.5062
   27SOL     OW   79   2.284   1.944   5.949 -0.2989 -1.0009 -0.0861
   27SOL    HW1   80   2.363   1.928   5.897 -1.6549 -2.1976 -1.8773
   27SOL    HW2   81   2.300   2.029   5.992  0.9881 -0.0576 -2.2871
   28SOL     OW   82   0.794   0.837   9.244  0.1769 -0.0389  0.4261
   28SOL    HW1   83   0.738   0.907   9.210  1.1372 -0.0867 -1.3778
   28SOL    HW2   84   0.826   0.792   9.166  1.6589 -0.8468  1.4528
   29SOL     OW   85   1.564   4.036   5.589 -0.5505 -0.6586 -0.1926
   29SOL    HW1   86   1.536   3.945   5.575 -0.1766 -0.7712 -0.2249
   29SOL    HW2   87   1.660   4.032   5.588 -0.5248 -0.1492 -0.9344
   30SOL     OW   88   0.685   0.367   5.309  0.2240 -0.3185 -0.0690
   30SOL    HW1   89   0.648   0.307   5.244  2.3324 -2.4544  0.5596
   30SOL    HW2   90   0.730   0.310   5.372  0.5204  1.8227  1.8152
   31SOL     OW   91   2.521   0.440   5.141  0.2371  0.8634 -0.2688
   31SOL    HW1   92   2.508   0.529   5.172  1.4768  1.8513 -2.3397
   31SOL    HW2   93   2.573   0.450   5.061  0.2795 -1.7125 -0.6505
   32SOL     OW   94   3.708   1.163   5.766 -0.6033  0.3701 -0.1549
   32SOL    HW1   95   3.759   1.243   5.752  0.7506 -0.2724  0.9107
   32SOL    HW2   96   3.716   1.115   5.684  1.3668 -0.1561  0.2922
   33SOL     OW   97   2.867   1.352   5.460  0.0158 -0.1131 -0.2556
   33SOL    HW1   98   2.848   1.277   5.517 -0.9167 -0.0551 -0.4768
   33SOL    HW2   99   2.908   1.416   5.519  0.8443 -0.7924 -0.0713
   34SOL     OW  100   0.356   1.471   5.925  0.5422 -0.5263 -0.4868
   34SOL    HW1  101   0.372   1.505   6.013  1.8339 -0.4789 -0.7262
   34SOL    HW2  102   0.314   1.544   5.878 -1.8957 -1.1343  0.5659
   35SOL     OW  103   4.656   1.295   7.125  0.5414  0.0621  1.2229
   35SOL    HW1  104   4.578   1.283   7.069  1.1292 -3.2819  0.9053
   35SOL    HW2  105   4.623   1.283   7.214  0.6020 -0.9584  1.1165
   36SOL     OW  106   1.343   0.339   9.184  0.2776  0.1247  0.2471
   36SOL    HW1  107   1.400   0.400   9.137  0.3951 -0.5489 -0.5233
   36SOL    HW2  108   1.403   0.285   9.235  0.2669 -0.0583  0.0669
   37SOL     OW  109   2.832   1.441   7.032 -0.6264 -0.3799  0.3544
   37SOL    HW1  110   2.888   1.369   7.002  0.7837  0.3922  1.0405
   37SOL    HW2  111   2.754   1.435   6.977  0.9173 -0.3209 -2.0018
   38SOL     OW  112   0.045   3.681   4.926 -0.2791  0.2155 -0.0887
   38SOL    HW1  113   0.037   3.770   4.960 -0.2221  0.1684  0.0473
   38SOL    HW2  114  -0.012   3.628   4.981  0.5178 -0.0227  0.5327
   39SOL     OW  115   1.258   3.650   7.106  0.2161  0.2999  0.1854
   39SOL    HW1  116   1.292   3.620   7.021  0.9645 -1.2844  0.9991
   39SOL    HW2  117   1.170   3.683   7.086  1.0747  1.7286 -1.4894
   40SOL     OW  118   1.292   3.123   5.924  0.0480 -0.0895  0.3459
   40SOL    HW1  119   1.353   3.179   5.875  0.5711 -0.0852  0.9876
   40SOL    HW2  120   1.310   3.035   5.892  0.4968 -0.1045  0.6339
   41SOL     OW  121   4.036   1.876   6.519  0.4850  0.4122  0.1706
   41SOL    HW1  122   3.946   1.906   6.519  1.2803  3.0561 -0.2981
   41SOL    HW2  123   4.062   1.876   6.611  0.8095  2.4349  0.1086
   42SOL     OW  124   0.716   3.537   5.113 -0.0207 -0.0112  0.3759
   42SOL    HW1  125   0.763   3.597   5.172 -0.2806 -0.6911  1.2887
   42SOL    HW2  126   0.785   3.488   5.070  0.2651  1.7217 -1.2819
   43SOL     OW  127   0.780   0.954   5.330  0.2474  0.2557  0.1312
   43SOL    HW1  128   0.774   0.981   5.239  1.2062  0.9857  0.2606
   43SOL    HW2  129   0.730   0.873   5.335  0.1908  0.2033 -1.0453
   44SOL     OW  130   1.739   1.453   5.074 -0.3102 -0.4373 -0.2149
   44SOL    HW1  131   1.806   1.416   5.016 -0.2535  1.0360 -1.1451
   44SOL    HW2  132   1.696   1.377   5.113  0.4984 -1.4432 -1.2262
   45SOL     OW  133   1.877   4.984   5.063 -0.0371  0.0548 -0.0550
   45SOL    HW1  134   1.878   4.888   5.061 -2.6927 -0.1186  1.6505
   45SOL    HW2  135   1.804   5.009   5.007 -0.5511  0.9415  0.9671
   46SOL     OW  136   3.901   4.844   5.366 -0.1508 -0.0421 -0.0870
   46SOL    HW1  137   3.897   4.856   5.461 -1.6698 -0.9402 -0.0025
   46SOL    HW2  138   3.969   4.778   5.353  0.8187  0.8743  0.2812
   47SOL     OW  139   4.702   3.876   6.502  0.0536  0.2056  0.1141
   47SOL    HW1  140   4.702   3.780   6.496  1.3245  0.2279 -0.5988
   47SOL    HW2  141   4.671   3.894   6.590  1.0504 -0.9194  0.7322
   48SOL     OW  142   2.865   0.691   4.661 -0.6838 -0.4406  0.3750
   48SOL    HW1  143   2.773   0.686   4.634 -0.5325  0.6006 -0.3933
   48SOL    HW2  144   2.914   0.680   4.579 -0.1833  1.2735  0.4123
   49SOL     OW  145   1.015   0.322   7.666 -0.7654 -0.8042  0.1401
   49SOL    HW1  146   1.084   0.304   7.730 -0.4753 -1.1152 -0.2602
   49SOL    HW2  147   0.937   0.335   7.719 -1.0823 -3.5230  0.4662
   50SOL     OW  148   3.590   3.246   5.546  0.6602 -0.0203 -0.5315
   50SOL    HW1  149   3.671   3.297   5.541 -0.0639  1.5058  1.5620
   50SOL    HW2  150   3.520   3.312   5.546 -0.3659 -1.0026  1.6293
   51SOL     OW  151   4.777   3.464   6.811 -0.3273  0.3344 -0.6055
   51SOL    HW1  152   4.730   3.423   6.739 -0.1319 -0.2468 -0.4099
   51SOL    HW2  153   4.733   3.547   6.824 -2.5934 -0.9934  0.8536
   52SOL     OW  154   1.489   1.567   5.268  0.2562  0.6730 -0.5174
   52SOL    HW1  155   1.404   1.611   5.268 -1.1478 -1.6962  1.9028
   52SOL    HW2  156   1.510   1.553   5.176 -3.2565 -0.8221 -1.2543
   53SOL     OW  157   4.494   2.596   5.314 -0.0105  0.4378  0.0819
   53SOL    HW1  158   4.541   2.680   5.309 -0.0786  0.4388 -0.7188
   53SOL    HW2  159   4.425   2.603   5.248  0.8504 -0.7703 -1.0019
   54SOL     OW  160   3.414   3.148   5.362  0.7404 -0.3466  0.1781
   54SOL    HW1  161   3.486   3.199   5.401  1.2506  1.1785 -2.4928
   54SOL    HW2  162   3.454   3.065   5.337  1.2524 -0.0199 -0.1051
   55SOL     OW  163   2.678   0.497   5.841 -0.0028  0.7828  0.7031
   55SOL    HW1  164   2.612   0.456   5.898 -2.1997  2.4805 -0.4438
   55SOL    HW2  165   2.680   0.442   5.763  1.0825 -0.0801  1.3060
   56SOL     OW  166   4.337   0.846   6.030 -0.2430 -0.3986  0.6303
   56SOL    HW1  167   4.391   0.769   6.011 -3.4013 -2.4401 -0.9875
   56SOL    HW2  168   4.321   0.886   5.944 -0.9400  0.4243  1.1222
   57SOL     OW  169   1.882   3.542   7.972  0.7783  0.4647 -0.2098
   57SOL    HW1  170   1.868   3.448   7.983  1.6509 -0.0757 -2.8925
   57SOL    HW2  171   1.799   3.574   7.935  0.1204  1.0087  1.6203
   58SOL     OW  172   4.789   0.782   5.311 -0.5180  0.5445  0.1096
   58SOL    HW1  173   4.772   0.756   5.220 -1.1499 -0.4475  0.4984
   58SOL    HW2  174   4.798   0.700   5.358 -0.0270  1.0523  0.9249
   59SOL     OW  175   4.234   4.947   5.049 -0.3146  0.1071  0.5053
   59SOL    HW1  176   4.185   5.030   5.051 -1.3136 -0.4621  0.2476
   59SOL    HW2  177   4.168   4.881   5.030  0.6393 -0.6428 -0.3039
   60SOL     OW  178   3.938   4.725   6.725  0.2539 -0.0101  0.4071
   60SOL    HW1  179   4.024   4.690   6.748  0.5332 -0.7731 -1.6100
   60SOL    HW2  180   3.955   4.816   6.700  0.1055  0.5020  2.0578
   61SOL     OW  181   4.638   1.403   7.407  0.6413 -0.0211  0.0373
   61SOL    HW1  182   4.638   1.493   7.440  0.3803 -0.0618  0.1540
   61SOL    HW2  183   4.730   1.376   7.408  0.6761  0.1115  0.3637
   62SOL     OW  184   4.842   4.623   5.599  0.4925 -0.1350 -0.8216
   62SOL    HW1  185   4.884   4.558   5.544 -0.0237 -0.2763 -1.0533
   62SOL    HW2  186   4.825   4.697   5.541  2.4477  0.8550 -0.2421
   63SOL     OW  187   1.863   1.071   5.455 -0.5018 -0.3174  0.3112
   63SOL    HW1  188   1.903   1.085   5.541  0.9577 -1.6230 -0.1153
   63SOL    HW2  189   1.888   1.148   5.404  2.2874 -1.4606 -0.1991
   64SOL     OW  190   1.194   0.761   6.012  0.2952  0.2644  0.8208
   64SOL    HW1  191   1.166   0.704   6.083  0.2802 -1.9012 -0.8206
   64SOL    HW2  192   1.164   0.848   6.038 -1.4013 -0.7516  2.5549
   65SOL     OW  193   1.036   0.724   6.818 -0.4280 -0.1981  0.1752
   65SOL    HW1  194   0.968   0.662   6.790 -0.3557  0.4098 -1.4696
   65SOL    HW2  195   1.054   0.700   6.909 -1.3259 -1.7408 -0.0120
   66SOL     OW  196   0.291   2.832   6.436  0.3110  0.3054  0.1919
   66SOL    HW1  197   0.243   2.765   6.486  0.5860 -1.5128 -1.8374
   66SOL    HW2  198   0.223   2.876   6.385  0.0812  1.9255  1.7726
   67SOL     OW  199   4.786   0.855   9.004  0.6016 -0.0035 -0.0733
   67SOL    HW1  200   4.851   0.802   9.049  1.8419  1.9999  0.6119
   67SOL    HW2  201   4.827   0.879   8.921  0.3251  0.4276 -0.0912
   68SOL     OW  202   3.425   0.036   5.006 -0.2644  0.6033  0.1259
   68SOL    HW1  203   3.500   0.044   4.947 -1.0097  1.5477 -0.7380
   68SOL    HW2  204   3.440   0.103   5.073  0.8175 -0.7809  1.3237
   69SOL     OW  205   0.148   0.355   7.184  0.2011  0.2915  0.4530
   69SOL    HW1  206   0.059   0.351   7.151  1.1106 -1.1476 -2.1542
   69SOL    HW2  207   0.139   0.345   7.279 -2.3429 -0.7266  0.1847
   70SOL     OW  208   2.003   3.417   5.106  0.1221  0.4515 -0.1648
   70SOL    HW1  209   2.034   3.456   5.188  1.8402 -1.6565  0.2774
   70SOL    HW2  210   2.070   3.439   5.042 -0.8653  1.4816 -0.8969
   71SOL     OW  211   2.352   0.231   6.603  0.6552 -0.1388  0.1930
   71SOL    HW1  212   2.351   0.290   6.678 -5.3074 -1.8410  1.9603
   71SOL    HW2  213   2.398   0.153   6.634 -1.1264 -0.5472  1.9461
   72SOL     OW  214   0.126   0.279   7.658 -0.2532 -0.4544 -0.2864
   72SOL    HW1  215   0.173   0.361   7.649 -0.7612 -0.2047 -0.7268
   72SOL    HW2  216   0.157   0.242   7.741 -1.1276  0.9011  0.6923
   73SOL     OW  217   3.345   3.668   4.915  0.0088 -0.1909 -0.0987
   73SOL    HW1  218   3.420   3.715   4.879 -0.6454 -0.0227 -1.2950
   73SOL    HW2  219   3.369   3.651   5.006  0.7959  1.3676  0.0272
   74SOL     OW  220   0.061   3.079   5.197  0.2412 -0.4977 -0.3250
   74SOL    HW1  221   0.005   3.137   5.145  0.3756  0.3752  0.4584
   74SOL    HW2  222   0.141   3.130   5.212  0.3554 -0.8714  0.4045
   75SOL     OW  223   3.734   3.699   6.191 -0.2345  0.4037  0.0467
   75SOL    HW1  224   3.691   3.755   6.255 -1.7086 -0.4509 -0.1521
   75SOL    HW2  225   3.662   3.660   6.141  0.8402  0.3537 -1.5331
   76SOL     OW  226   2.911   0.014   4.941 -0.4584 -0.7540  0.1037
   76SOL    HW1  227   2.847   0.085   4.946  0.6282  0.1952  1.0544
   76SOL    HW2  228   2.939   0.013   4.849 -0.7472 -0.1941  0.0048
   77SOL     OW  229   4.619   2.909   7.370  0.2355  0.2634 -0.5858
   77SOL    HW1  230   4.610   2.815   7.356 -2.0771  0.1647  1.0683
   77SOL    HW2  231   4.697   2.918   7.425 -0.9468 -1.0091  1.4178
   78SOL     OW  232   0.876   1.407   4.863  0.1403  0.2705 -0.3366
   78SOL    HW1  233   0.880   1.467   4.937  0.5239  2.4961 -2.0472
   78SOL    HW2  234   0.784   1.382   4.857  0.4970 -2.3398  2.5572
   79SOL     OW  235   1.988   1.682   5.210  0.3338 -0.2654 -0.2676
   79SOL    HW1  236   1.916   1.629   5.176 -0.2355  1.2538 -1.4938
   79SOL    HW2  237   2.019   1.633   5.287 -0.6962 -1.9384 -0.8720
   80SOL     OW  238   1.055   0.815   6.544 -0.2399 -0.6403  0.1367
   80SOL    HW1  239   1.051   0.785   6.634  0.1774 -0.4570  0.2183
   80SOL    HW2  240   1.145   0.796   6.516 -0.5233 -1.2338 -0.4296
   81SOL     OW  241   1.905   1.310   5.292  0.0841 -0.1415  0.1005
   81SOL    HW1  242   1.843   1.277   5.227 -0.4372  0.2604  0.3862
   81SOL    HW2  243   1.986   1.325   5.243  0.4269 -2.0877  0.0201
   82SOL     OW  244   1.066   4.875   6.259 -0.4782  0.1465  0.3075
   82SOL    HW1  245   1.059   4.834   6.173  1.8366 -0.5912  0.3963
   82SOL    HW2  246   1.041   4.807   6.321  0.4958 -0.2128  0.3192
   83SOL     OW  247   2.545   3.272   6.179 -0.6543  0.4205  0.1494
   83SOL    HW1  248   2.471   3.253   6.121  0.3270 -0.6064 -0.8162
   83SOL    HW2  249   2.585   3.187   6.197 -0.1916  0.8673  1.3306
   84SOL     OW  250   2.377   3.656   5.190  0.4262 -0.0128 -0.3279
   84SOL    HW1  251   2.464   3.637   5.153  0.2918  2.2019 -1.9646
   84SOL    HW2  252   2.381   3.748   5.216 -1.4556  0.1570 -0.5113
   85SOL     OW  253   1.680   4.335   5.627  0.0866 -0.2553  0.4688
   85SOL    HW1  254   1.587   4.354   5.613  0.5514  1.6525 -0.3028
   85SOL    HW2  255   1.684   4.300   5.716 -1.1573  1.3990  1.2397
   86SOL     OW  256   3.836   2.884   6.012 -0.0862 -0.0678  0.0658
   86SOL    HW1  257   3.755   2.839   6.035  0.4100  0.3490  3.0275
   86SOL    HW2  258   3.902   2.846   6.071  1.8454 -0.1534 -2.0040
   87SOL     OW  259   0.838   4.002   6.300 -0.1684  0.0713 -1.1022
   87SOL    HW1  260   0.900   4.072   6.323 -0.7588  0.6424 -1.2009
   87SOL    HW2  261   0.760   4.049   6.268 -0.6880 -0.6231 -0.8850
   88SOL     OW  262   1.803   3.838   6.998  0.0214 -0.1876 -0.3009
   88SOL    HW1  263   1.806   3.927   7.034  0.9311 -0.3036 -0.0508
   88SOL    HW2  264   1.892   3.805   7.011  0.1732 -0.5071 -1.9826
   89SOL     OW  265   0.823   4.700   5.983  0.3144 -0.1413  0.5329
   89SOL    HW1  266   0.862   4.612   5.984  1.0040  0.1270 -0.6817
   89SOL    HW2  267   0.896   4.759   5.998 -0.0815  0.2503  0.9439
   90SOL     OW  268   0.705   1.876   6.483  0.7584 -0.0710  0.4353
   90SOL    HW1  269   0.702   1.927   6.564  0.8733 -0.6015  0.7762
   90SOL    HW2  270   0.616   1.842   6.472 -0.9497  4.4592 -2.6004
   91SOL     OW  271   2.067   2.166   5.339 -0.5316  0.2958  0.3685
   91SOL    HW1  272   2.073   2.070   5.333  1.2809  0.3747  0.3966
   91SOL    HW2  273   2.088   2.197   5.251 -1.2971  0.6620  0.3144
   92SOL     OW  274   3.032   4.178   5.531  0.3068 -0.8035 -0.0056
   92SOL    HW1  275   3.104   4.117   5.548 -0.0463 -1.0460  0.6810
   92SOL    HW2  276   2.968   4.158   5.600  0.8963  1.4444  1.2962
   93SOL     OW  277   1.320   1.369   6.022 -0.3246 -0.0904  0.5027
   93SOL    HW1  278   1.334   1.323   5.939 -0.1084  0.1887  0.3802
   93SOL    HW2  279   1.401   1.420   6.035 -0.9605  1.0635  0.1100
   94SOL     OW  280   0.604   1.719   7.391 -0.1945  0.1656  0.5110
   94SOL    HW1  281   0.682   1.709   7.445  0.1887  1.6332  0.2775
   94SOL    HW2  282   0.536   1.670   7.438  1.0216 -1.8536  0.2768
   95SOL     OW  283   1.236   4.036   8.844 -0.0617  0.3516 -0.9117
   95SOL    HW1  284   1.205   3.977   8.913  3.1626 -1.1787 -0.5497
   95SOL    HW2  285   1.225   4.123   8.880  1.9581 -0.4073  1.9233
   96SOL     OW  286   2.340   2.586   6.434  0.0161  0.3380 -0.1983
   96SOL    HW1  287   2.322   2.492   6.442 -1.5344  0.6419  0.3207
   96SOL    HW2  288   2.335   2.603   6.340  0.5899 -0.1416 -0.3213
   97SOL     OW  289   3.132   1.402   5.612  0.0014  0.9538 -0.2913
   97SOL    HW1  290   3.165   1.423   5.525  0.0194 -0.1014 -0.5523
   97SOL    HW2  291   3.147   1.308   5.622 -5.0824 -0.2970 -1.4472
   98SOL     OW  292   3.188   2.886   6.294  0.6715 -0.4355  0.0500
   98SOL    HW1  293   3.158   2.904   6.383 -0.0171 -1.2181 -0.0078
   98SOL    HW2  294   3.176   2.969   6.248  0.5250 -0.1709  0.5548
   99SOL     OW  295   1.038   0.625   7.402  0.2348  0.3138 -0.6108
   99SOL    HW1  296   1.125   0.618   7.441  0.5361 -0.2942 -1.3541
   99SOL    HW2  297   0.991   0.549   7.436 -0.3088  1.1214  0.4914
  100SOL     OW  298   4.904   0.400   7.076  0.0089  0.1401 -0.2244
  100SOL    HW1  299   4.901   0.389   6.981 -0.3988 -2.5501  0.0361
  100SOL    HW2  300   4.827   0.453   7.097  0.4705  1.3308 -1.4248
  101SOL     OW  301   0.188   1.988   5.864  0.6936  0.4021 -0.2326
  101SOL    HW1  302   0.164   1.943   5.945 -0.7620  1.7153  0.1234
  101SOL    HW2  303   0.113   2.046   5.846  2.3461  2.4918 -0.7737
  102SOL     OW  304   3.513   0.419   4.870  0.5259 -0.2912 -0.3051
  102SOL    HW1  305   3.539   0.429   4.961 -0.4386 -0.1372 -0.0408
  102SOL    HW2  306   3.564   0.344   4.839  1.0973 -0.1428  0.2636
  103SOL     OW  307   4.818   4.996   5.770 -0.8039 -0.0481  0.2568
  103SOL    HW1  308   4.855   4.914   5.803 -0.6728 -0.1314 -0.0953
  103SOL    HW2  309   4.860   5.064   5.822 -1.0921 -0.2147  0.7168
  104SOL     OW  310   1.827   1.816   6.538 -0.1883  0.4490 -0.2568
  104SOL    HW1  311   1.815   1.850   6.449  0.0767  2.4570  0.4175
  104SOL    HW2  312   1.738   1.812   6.574 -0.3298 -0.6894 -0.6978
  105SOL     OW  313   4.620   0.487   6.857  0.3562 -0.3836  0.1239
  105SOL    HW1  314   4.570   0.469   6.936 -0.1027  2.2378  0.5280
  105SOL    HW2  315   4.554   0.488   6.787  0.2370  0.4381  0.2372
  106SOL     OW  316   1.275   0.055   6.204 -0.0882 -0.8219  0.3662
  106SOL    HW1  317   1.212  -0.017   6.208  0.3614 -1.1709  1.3683
  106SOL    HW2  318   1.247   0.116   6.272  0.3072 -0.7002  0.4233
  107SOL     OW  319   2.330   1.742   5.008  0.2897 -0.4102 -0.1353
  107SOL    HW1  320   2.354   1.821   4.959 -2.0557  0.8771  0.6255
  107SOL    HW2  321   2.259   1.703   4.957 -0.4748 -0.4341  0.9012
  108SOL     OW  322   1.352   0.819   6.536 -0.6967 -0.2476 -0.0150
  108SOL    HW1  323   1.423   0.755   6.547  0.4609  1.0942  0.5874
  108SOL    HW2  324   1.364   0.853   6.448 -0.3603  0.2143  0.2011
  109SOL     OW  325   2.363   0.905   7.094  0.0332 -1.2382  0.1670
  109SOL    HW1  326   2.402   0.932   7.010 -1.1905 -0.7487 -0.2589
  109SOL    HW2  327   2.274   0.878   7.071  0.2283 -2.7370  1.0576
  110SOL     OW  328   3.293   2.966   5.874  0.6246  0.2447  0.4692
  110SOL    HW1  329   3.335   3.017   5.943  2.9227  0.6756 -1.1538
  110SOL    HW2  330   3.353   2.971   5.800 -1.5105 -0.6082 -1.4325
  111SOL     OW  331   0.963   4.438   7.221  0.5660  0.0566  0.4128
  111SOL    HW1  332   1.019   4.510   7.251 -0.8276  0.9337  1.0351
  111SOL    HW2  333   0.957   4.452   7.126  1.2720  0.0275  0.3548
  112SOL     OW  334   2.017   3.128   5.381 -0.0669  0.2954 -0.4156
  112SOL    HW1  335   2.112   3.136   5.370  0.1257 -0.3632  0.5971
  112SOL    HW2  336   1.981   3.200   5.330  1.0288  1.1892  0.0229
  113SOL     OW  337   0.437   0.342   7.329 -0.0054  0.7777  0.0483
  113SOL    HW1  338   0.346   0.319   7.313 -0.2150 -0.1215  2.1212
  113SOL    HW2  339   0.459   0.405   7.261 -2.4066  1.6162 -0.0465
  114SOL     OW  340   0.450   0.096   6.409 -0.2851  0.1081 -0.0462
  114SOL    HW1  341   0.492   0.086   6.495  1.2808  0.7043 -0.6999
  114SOL    HW2  342   0.494   0.170   6.370  0.7081 -1.5727 -2.3213
  115SOL     OW  343   1.250   4.594   7.112 -0.3468 -0.1844 -0.0614
  115SOL    HW1  344   1.286   4.517   7.066  1.2260  1.0449 -0.9901
  115SOL    HW2  345   1.228   4.655   7.042 -0.4801  0.6748  0.7177
  116SOL     OW  346   0.972   0.060   5.144 -0.5998 -0.4858  0.1322
  116SOL    HW1  347   1.014   0.128   5.092 -3.0182 -0.7445 -2.3793
  116SOL    HW2  348   1.033  -0.015   5.139  0.4957  0.3776  0.0689
  117SOL     OW  349   1.166   4.845   5.054  0.2842 -0.3449 -0.0993
  117SOL    HW1  350   1.253   4.860   5.016  0.6915  1.2304  1.3099
  117SOL    HW2  351   1.129   4.773   5.003  1.5550  0.3677 -2.1309
  118SOL     OW  352   1.303   2.590   5.947  0.3919  0.1031 -0.2567
  118SOL    HW1  353   1.375   2.544   5.904  1.3387 -0.8200  2.1371
  118SOL    HW2  354   1.236   2.599   5.879  2.3890  0.2361 -2.3305
  119SOL     OW  355   4.880   0.757   6.116 -0.4337 -0.5971  0.0406
  119SOL    HW1  356   4.907   0.842   6.150 -0.9728 -0.9372  1.3684
  119SOL    HW2  357   4.870   0.771   6.022 -0.6866  0.8527  0.2595
  120SOL     OW  358   0.647   3.029   5.410 -0.2326  0.1139  0.3130
  120SOL    HW1  359   0.593   2.994   5.339  0.7065 -2.4657  0.7830
  120SOL    HW2  360   0.698   3.099   5.369 -0.8324 -0.2724 -1.1585
  121SOL     OW  361   2.617   4.820   6.199 -0.0083  0.0902  0.3249
  121SOL    HW1  362   2.634   4.750   6.136  0.0437 -0.0250  0.4664
  121SOL    HW2  363   2.667   4.895   6.165 -1.1605  0.4806 -0.5834
  122SOL     OW  364   4.025   0.193   5.467 -0.0483 -0.0003 -0.1178
  122SOL    HW1  365   4.042   0.278   5.426  0.0634  0.5213  0.9732
  122SOL    HW2  366   4.104   0.142   5.452  0.5004  0.6391  0.5387
  123SOL     OW  367   1.875   2.296   6.122 -0.2489 -0.1437  0.0870
  123SOL    HW1  368   1.909   2.385   6.124 -0.9173  0.1910 -1.7148
  123SOL    HW2  369   1.920   2.255   6.048 -2.5523 -0.1509 -1.3990
  124SOL     OW  370   1.450   4.139   5.269 -0.5598  0.3780  0.4766
  124SOL    HW1  371   1.419   4.128   5.359 -1.2081  0.8570  0.3252
  124SOL    HW2  372   1.542   4.162   5.277 -0.8890  1.5820  1.0837
  125SOL     OW  373   3.802   2.986   7.346  0.2233  0.3316 -0.4672
  125SOL    HW1  374   3.763   2.905   7.314 -1.6515  0.9148  0.1887
  125SOL    HW2  375   3.753   3.055   7.302  1.0564  1.1115 -0.1959
  126SOL     OW  376   0.724   1.051   7.220  0.2723  0.6531 -0.0577
  126SOL    HW1  377   0.767   1.123   7.266 -1.5299  1.5601  0.2861
  126SOL    HW2  378   0.730   1.074   7.128  0.8416  0.5619 -0.0511
  127SOL     OW  379   1.824   3.984   7.519 -0.1070  0.3205 -0.0942
  127SOL    HW1  380   1.733   3.966   7.497 -0.3344  0.0579  1.0181
  127SOL    HW2  381   1.827   3.982   7.614  0.7735  1.7628 -0.0537
  128SOL     OW  382   0.086   2.537   5.246  0.2160 -0.0254  0.1796
  128SOL    HW1  383   0.031   2.515   5.321  3.1561 -1.6719  2.0388
  128SOL    HW2  384   0.153   2.595   5.281  0.6828  0.6295 -1.6465
  129SOL     OW  385   2.714   1.033   5.220 -0.5097 -0.0355  0.2084
  129SOL    HW1  386   2.778   1.003   5.284 -0.0487 -0.1202 -0.2876
  129SOL    HW2  387   2.758   1.102   5.172 -1.4435  1.2485  1.1066
  130SOL     OW  388   4.014   1.345   5.643  0.1229 -0.0051 -0.5485
  130SOL    HW1  389   4.063   1.300   5.712  0.1146  0.1118 -0.4645
  130SOL    HW2  390   4.080   1.395   5.596 -0.1300  1.5534  0.6558
  131SOL     OW  391   0.611   1.276   5.285 -0.2094  0.5095  0.1676
  131SOL    HW1  392   0.647   1.267   5.373  1.4146 -0.6979 -0.5703
  131SOL    HW2  393   0.674   1.331   5.238 -1.7834  2.3898  0.0874
  132SOL     OW  394   1.242   3.486   4.920  0.2810  0.0177 -0.0934
  132SOL    HW1  395   1.323   3.533   4.941 -0.1013  0.8346 -0.4372
  132SOL    HW2  396   1.246   3.474   4.826  0.7659 -1.3844  0.0830
  133SOL     OW  397   1.878   4.804   7.034  0.0001 -0.0625  0.8376
  133SOL    HW1  398   1.959   4.793   6.985 -0.3007 -1.1371  0.5594
  133SOL    HW2  399   1.875   4.897   7.055 -0.5954  0.7824 -2.4662
  134SOL     OW  400   0.487   3.400   5.719 -0.1070  0.1837 -0.4716
  134SOL    HW1  401   0.583   3.398   5.718 -0.0831  1.1378 -0.5432
  134SOL    HW2  402   0.462   3.322   5.668  0.6084 -0.6961  0.4763
  135SOL     OW  403   3.052   0.610   5.934  0.2655 -0.3439  0.6509
  135SOL    HW1  404   3.008   0.695   5.934 -0.7069 -0.8092 -0.9094
  135SOL    HW2  405   3.135   0.626   5.890 -0.0696 -0.2655  0.0397
  136SOL     OW  406   1.539   1.721   5.843  0.0604  0.3073  0.2249
  136SOL    HW1  407   1.496   1.673   5.772  0.8453 -0.4775  0.2510
  136SOL    HW2  408   1.568   1.803   5.803  1.0043 -0.3734 -0.5479
  137SOL     OW  409   1.618   1.095   7.637 -0.0175 -0.4275 -0.1174
  137SOL    HW1  410   1.667   1.176   7.623  0.7727 -0.9224 -0.3309
  137SOL    HW2  411   1.556   1.116   7.706 -0.2347  0.5241 -0.5856
  138SOL     OW  412   3.929   3.006   5.766  0.3743 -0.1347 -0.0939
  138SOL    HW1  413   3.901   2.965   5.848  1.0636 -0.2177  0.1054
  138SOL    HW2  414   3.858   3.066   5.744  0.6101  0.6083  1.0819
  139SOL     OW  415   4.661   4.742   6.601 -0.3557 -0.3686  0.6170
  139SOL    HW1  416   4.639   4.759   6.692  2.4363  1.6129  1.0380
  139SOL    HW2  417   4.693   4.652   6.600  0.6093 -0.0597  1.8592
  140SOL     OW  418   4.320   4.640   7.634  0.2272 -0.4188 -0.2380
  140SOL    HW1  419   4.250   4.575   7.637  1.0800 -1.3668 -0.4053
  140SOL    HW2  420   4.388   4.599   7.580  0.8550  0.5378 -0.1830
  141SOL     OW  421   1.991   0.232   5.642  0.5082  0.5176  0.0767
  141SOL    HW1  422   1.910   0.205   5.685 -0.6289  1.1206 -1.5793
  141SOL    HW2  423   1.962   0.276   5.562  2.4925  0.1730 -0.8921
  142SOL     OW  424   4.491   3.554   5.460  0.7939 -0.7785  0.4368
  142SOL    HW1  425   4.470   3.499   5.385  0.3497 -1.1342  0.8130
  142SOL    HW2  426   4.547   3.623   5.425 -0.5643 -0.1071 -0.5024
  143SOL     OW  427   1.079   1.228   6.122  0.1807 -0.4980  0.1540
  143SOL    HW1  428   1.095   1.136   6.146  1.5794 -0.0881  0.8651
  143SOL    HW2  429   1.166   1.267   6.116 -0.4059  0.8391  0.0306
  144SOL     OW  430   4.798   2.729   6.599  0.4634  0.1919 -0.0756
  144SOL    HW1  431   4.810   2.698   6.689  1.6121  0.5195 -0.1112
  144SOL    HW2  432   4.710   2.697   6.575  0.5984 -0.8720  0.7578
  145SOL     OW  433   3.606   4.037   6.055 -0.2122 -0.4557  0.3161
  145SOL    HW1  434   3.642   4.115   6.012 -0.6803 -1.1227 -1.3370
  145SOL    HW2  435   3.674   3.971   6.045 -0.1406 -0.4995  1.0278
  146SOL     OW  436   1.040   1.630   5.015 -0.1080 -0.3731 -0.0554
  146SOL    HW1  437   1.013   1.721   5.027 -1.7912 -0.4609 -2.3837
  146SOL    HW2  438   1.124   1.637   4.969 -0.3726  0.0235 -0.4929
  147SOL     OW  439   1.582   0.822   5.430  0.1294  0.0977  0.2839
  147SOL    HW1  440   1.639   0.807   5.505  1.1424 -0.4442 -0.5668
  147SOL    HW2  441   1.507   0.765   5.446 -0.1177  0.6987  1.3385
  148SOL     OW  442   3.936   0.692   6.262 -0.1287 -0.4957  0.1722
  148SOL    HW1  443   3.920   0.683   6.168 -1.8452 -0.9606  0.4682
  148SOL    HW2  444   3.852   0.669   6.303  0.3020  0.6245  1.7781
  149SOL     OW  445   2.605   0.642   4.570 -0.2945 -0.6226 -0.1780
  149SOL    HW1  446   2.554   0.678   4.642 -1.1782 -0.0817 -1.0456
  149SOL    HW2  447   2.543   0.636   4.497  0.9215  0.2804 -1.3397
  150SOL     OW  448   1.003   1.026   6.790 -0.2043 -0.1768  0.3833
  150SOL    HW1  449   1.057   1.103   6.810 -0.0623 -0.6535  1.9369
  150SOL    HW2  450   1.060   0.969   6.739 -0.5023  0.9863 -1.3149
  151SOL     OW  451   1.059   0.510   5.157 -0.2515 -0.2603 -0.1601
  151SOL    HW1  452   1.113   0.582   5.126  0.2651 -0.5237  0.1236
  151SOL    HW2  453   0.987   0.553   5.204 -1.3776  0.1791 -2.1497
  152SOL     OW  454   1.029   2.446   6.229 -0.0796 -0.3460  0.1902
  152SOL    HW1  455   1.088   2.475   6.159  0.4307 -2.2761 -0.2262
  152SOL    HW2  456   0.954   2.504   6.222  0.3724  0.0982 -1.3745
  153SOL     OW  457   3.974   0.731   5.954 -0.6812  0.3248  0.0310
  153SOL    HW1  458   3.914   0.796   5.916  0.3499  1.9538  1.0550
  153SOL    HW2  459   4.057   0.777   5.963  0.2541 -1.3261  0.3101
  154SOL     OW  460   4.632   1.099   5.742 -0.3536  0.0653 -0.6030
  154SOL    HW1  461   4.725   1.110   5.764  0.1305 -2.0957 -1.3222
  154SOL    HW2  462   4.628   1.121   5.648 -0.3357 -0.9520 -0.8460
  155SOL     OW  463   2.243   0.619   4.879 -0.3972 -0.3657  0.5389
  155SOL    HW1  464   2.262   0.534   4.839  0.9261  0.7371 -1.3539
  155SOL    HW2  465   2.329   0.660   4.889 -1.0499  0.9835  0.8164
  156SOL     OW  466   2.497   1.658   5.217  0.1156  0.5779  0.7904
  156SOL    HW1  467   2.456   1.701   5.142  1.1096  2.2692  1.1657
  156SOL    HW2  468   2.458   1.700   5.293 -3.0137 -3.0379  1.4808
  157SOL     OW  469   0.794   0.561   7.033 -0.0958 -0.4001 -0.4161
  157SOL    HW1  470   0.884   0.534   7.053 -0.1072  0.6472  1.1498
  157SOL    HW2  471   0.790   0.560   6.937  2.0864  1.0977 -0.5820
  158SOL     OW  472   3.906   4.076   5.502 -0.5583 -0.1311 -0.2910
  158SOL    HW1  473   3.930   4.077   5.409  1.1269  0.4939  0.1151
  158SOL    HW2  474   3.815   4.048   5.502 -0.7645  0.3691 -2.1718
  159SOL     OW  475   2.310   2.947   7.276  0.5516 -0.1874  0.5090
  159SOL    HW1  476   2.373   2.891   7.232  0.9974  1.0509 -0.4871
  159SOL    HW2  477   2.306   3.026   7.222 -2.4541 -0.5325  0.0649
  160SOL     OW  478   4.376   1.328   6.986  0.5068 -0.2006 -0.4092
  160SOL    HW1  479   4.378   1.358   7.077  2.4210  0.9413 -0.7785
  160SOL    HW2  480   4.284   1.305   6.970 -0.4977  2.4976  0.8982
  161SOL     OW  481   2.573   2.227   5.330  0.4384 -0.4841  0.4299
  161SOL    HW1  482   2.536   2.314   5.346 -0.7261 -0.7430 -0.6485
  161SOL    HW2  483   2.505   2.167   5.359  0.4977 -0.9966 -0.4597
  162SOL     OW  484   2.314   2.736   5.913  0.3411 -0.4075  0.6730
  162SOL    HW1  485   2.309   2.776   5.827  0.4282 -1.7420  0.0253
  162SOL    HW2  486   2.282   2.647   5.900  0.9445 -0.8216  1.8909
  163SOL     OW  487   2.390   0.540   6.575  0.3008 -0.2095 -0.6450
  163SOL    HW1  488   2.453   0.501   6.515 -0.0779 -2.6645  0.4629
  163SOL    HW2  489   2.378   0.475   6.644 -2.0142  0.9825  0.1811
  164SOL     OW  490   0.034   3.727   6.271 -0.2509  0.2247  0.5498
  164SOL    HW1  491   0.029   3.723   6.367 -1.1646 -2.4396  0.4524
  164SOL    HW2  492  -0.057   3.732   6.243  0.0386  1.8557 -0.2289
  165SOL     OW  493   4.765   1.365   5.975 -0.2327 -0.8247 -0.0089
  165SOL    HW1  494   4.819   1.327   5.905 -0.7617  0.8099 -1.3605
  165SOL    HW2  495   4.695   1.410   5.929 -1.0742 -0.4048  1.6343
  166SOL     OW  496   0.795   0.362   6.038 -0.1200 -0.2664 -0.3924
  166SOL    HW1  497   0.797   0.458   6.038 -0.5429 -0.2491  0.1421
  166SOL    HW2  498   0.808   0.338   5.946  0.9183  0.2704 -0.3991
  167SOL     OW  499   1.697   4.435   4.806  0.6245 -0.4564 -0.3255
  167SOL    HW1  500   1.694   4.526   4.775 -0.2525 -0.1428  0.6274
  167SOL    HW2  501   1.607   4.415   4.830  1.0415 -1.1202  0.7351
  168SOL     OW  502   2.712   1.748   5.636  0.0956 -0.5977 -0.4139
  168SOL    HW1  503   2.647   1.698   5.685 -0.2888 -0.1134 -0.4250
  168SOL    HW2  504   2.765   1.791   5.703 -0.6864  0.3961 -0.3991
  169SOL     OW  505   0.993   0.496   6.240 -0.1091 -0.5311  0.3162
  169SOL    HW1  506   0.908   0.522   6.206 -0.4452 -1.2187  0.6159
  169SOL    HW2  507   0.991   0.518   6.333  0.9544  1.7077 -0.1138
  170SOL     OW  508   1.635   4.727   4.795 -0.4989  0.1596 -0.3230
  170SOL    HW1  509   1.645   4.803   4.739 -3.1330 -0.1729 -1.4022
  170SOL    HW2  510   1.685   4.748   4.874  1.4317  1.5934 -1.8322
  171SOL     OW  511   1.325   1.130   5.039 -0.2021  0.2387  0.1027
  171SOL    HW1  512   1.349   1.178   5.118 -1.8801 -0.3310  0.9956
  171SOL    HW2  513   1.260   1.185   4.996 -1.9999 -1.0617  1.0376
  172SOL     OW  514   0.968   0.174   6.648 -0.3559 -0.9833  0.1569
  172SOL    HW1  515   0.931   0.106   6.592  1.4675 -2.2682  0.4203
  172SOL    HW2  516   0.947   0.256   6.604  0.8025 -1.9278 -2.3000
  173SOL     OW  517   0.354   0.883   5.269 -0.3014 -0.3040  0.2110
  173SOL    HW1  518   0.421   0.856   5.206 -0.1980 -0.4971  0.4010
  173SOL    HW2  519   0.394   0.956   5.316 -1.0199  0.9892 -1.0953
  174SOL     OW  520   0.065   0.359   8.257 -0.1894  0.2786  0.2103
  174SOL    HW1  521   0.057   0.448   8.222  0.6418  0.4477  0.4311
  174SOL    HW2  522  -0.014   0.314   8.227 -0.8546  1.2221  0.4870
  175SOL     OW  523   4.615   0.987   5.358  0.6302 -0.0329 -0.1869
  175SOL    HW1  524   4.532   0.952   5.390  1.0773 -2.0452 -1.1073
  175SOL    HW2  525   4.675   0.912   5.358  1.9995  1.0049 -1.0642
  176SOL     OW  526   3.921   3.148   5.303  0.5195  0.2389 -0.0377
  176SOL    HW1  527   4.012   3.171   5.283  1.4004 -2.5247  0.4739
  176SOL    HW2  528   3.871   3.188   5.231  2.3870 -0.1072 -1.6224
  177SOL     OW  529   1.378   4.911   6.854  0.1299 -0.5576 -0.4032
  177SOL    HW1  530   1.301   4.932   6.801  1.1536 -1.0863 -2.2006
  177SOL    HW2  531   1.452   4.921   6.793  1.4338 -0.6313  1.1037
  178SOL     OW  532   1.104   4.839   5.958 -0.3158  0.2173  0.2273
  178SOL    HW1  533   1.136   4.903   5.895 -2.0862  1.6505  0.7019
  178SOL    HW2  534   1.177   4.777   5.968  0.6975  0.9771 -1.7829
  179SOL     OW  535   3.431   4.762   5.864 -0.0273  0.1008 -0.1211
  179SOL    HW1  536   3.480   4.844   5.867 -0.6759  0.5053 -0.3780
  179SOL    HW2  537   3.441   4.725   5.952 -1.1558  1.3181  0.5537
  180SOL     OW  538   1.226   3.445   5.240 -0.5313  0.3921 -0.5635
  180SOL    HW1  539   1.220   3.469   5.148 -0.7927  0.2481 -0.5864
  180SOL    HW2  540   1.220   3.529   5.287 -1.6540  0.3668 -0.6366
  181SOL     OW  541   1.732   0.938   6.026  0.0972 -0.6608 -0.5009
  181SOL    HW1  542   1.700   0.851   6.048 -0.4086 -0.6352 -1.0891
  181SOL    HW2  543   1.674   0.998   6.073 -0.1065 -0.6320 -0.7833
  182SOL     OW  544   0.812   3.335   6.097  0.5821  0.2068  0.5741
  182SOL    HW1  545   0.721   3.327   6.126  0.3801 -0.1476 -0.1167
  182SOL    HW2  546   0.863   3.344   6.177 -0.1814  1.7362  0.9221
  183SOL     OW  547   2.386   1.380   6.094  0.1539 -0.0285 -0.1838
  183SOL    HW1  548   2.389   1.294   6.136  2.2306 -0.0150 -0.2381
  183SOL    HW2  549   2.310   1.375   6.035 -0.1658 -1.5720  0.3205
  184SOL     OW  550   0.355   0.012   6.777  0.4139 -0.2446  0.2030
  184SOL    HW1  551   0.295   0.075   6.738 -0.7612 -1.5905 -0.2286
  184SOL    HW2  552   0.305  -0.069   6.783  2.5543 -1.8197 -1.4153
  185SOL     OW  553   0.916   0.259   7.095  0.0745  0.0745  0.2340
  185SOL    HW1  554   0.821   0.255   7.097  0.0610 -0.0373 -0.2981
  185SOL    HW2  555   0.945   0.170   7.115  0.0291 -0.1970 -0.8190
  186SOL     OW  556   1.887   1.036   6.525 -0.1327  0.0632  1.1256
  186SOL    HW1  557   1.879   0.941   6.515 -0.1612  0.2338 -0.6751
  186SOL    HW2  558   1.821   1.072   6.466  0.9518  1.2189  0.5781
  187SOL     OW  559   2.683   0.855   4.998 -0.3309 -0.1632 -0.4286
  187SOL    HW1  560   2.708   0.898   5.079  0.3567  0.8953 -1.1748
  187SOL    HW2  561   2.761   0.862   4.942 -0.3979 -1.8877 -0.7835
  188SOL     OW  562   2.348   0.397   6.799 -0.2030  0.1266  0.3136
  188SOL    HW1  563   2.409   0.451   6.849 -1.1442  2.1306 -0.5742
  188SOL    HW2  564   2.270   0.391   6.855 -0.3973  0.4004  0.0784
  189SOL     OW  565   3.210   0.094   4.813 -0.0229  0.4125  0.3039
  189SOL    HW1  566   3.262   0.052   4.882 -0.4917 -0.2570  0.2657
  189SOL    HW2  567   3.197   0.184   4.843  0.9872  0.5354  0.4010
  190SOL     OW  568   0.317   0.275   9.134  0.5775  0.5179 -0.2585
  190SOL    HW1  569   0.382   0.292   9.202 -0.3689 -0.7709  1.0301
  190SOL    HW2  570   0.341   0.190   9.098 -0.1998  0.1710  0.0163
  191SOL     OW  571   2.245   1.963   6.991  0.5375 -0.1321  0.6289
  191SOL    HW1  572   2.339   1.960   6.975  0.6829 -0.1926  1.4286
  191SOL    HW2  573   2.237   1.995   7.081 -0.2181  0.1995  0.4511
  192SOL     OW  574   1.039   3.993   7.007 -0.1591  0.3686 -0.2893
  192SOL    HW1  575   1.011   4.070   7.055 -0.1155  1.2284 -1.5941
  192SOL    HW2  576   1.041   3.923   7.072 -0.5631  1.3787  0.8341
  193SOL     OW  577   2.060   4.991   6.138 -0.0455 -0.1891 -0.2577
  193SOL    HW1  578   2.015   4.925   6.087 -0.8625 -0.7189  1.0854
  193SOL    HW2  579   2.148   4.996   6.100 -0.4791 -0.8861 -1.3785
  194SOL     OW  580   0.784   1.302   5.540  0.4111  0.2294 -0.3569
  194SOL    HW1  581   0.804   1.357   5.616 -0.3375  0.7744 -0.5425
  194SOL    HW2  582   0.809   1.214   5.567 -1.5214  0.0980  1.2401
  195SOL     OW  583   0.994   1.954   5.575 -0.0656  0.7248 -0.5520
  195SOL    HW1  584   1.000   1.981   5.484  0.4811  1.5346 -0.2907
  195SOL    HW2  585   0.954   1.867   5.572 -4.9293  2.6123 -1.3095
  196SOL     OW  586   2.659   3.161   6.540 -0.4560 -0.0579  0.2870
  196SOL    HW1  587   2.620   3.240   6.503  0.4442  0.3495  0.1757
  196SOL    HW2  588   2.726   3.135   6.477 -2.6850 -2.6615 -1.2004
  197SOL     OW  589   0.244   0.383   6.419 -0.2507 -0.3115  0.2612
  197SOL    HW1  590   0.197   0.455   6.460  0.0795 -0.3880  0.7966
  197SOL    HW2  591   0.281   0.334   6.493  0.0030 -0.6994 -0.1160
  198SOL     OW  592   0.449   4.441   5.997 -0.1751 -0.6660 -0.2791
  198SOL    HW1  593   0.377   4.409   6.052 -0.1292  0.3398  0.3961
  198SOL    HW2  594   0.424   4.531   5.975  0.1576 -0.8129 -1.3208
  199SOL     OW  595   0.114   4.490   5.867 -0.3533 -0.9228  0.5505
  199SOL    HW1  596   0.161   4.423   5.917  0.7351  0.2763  1.1831
  199SOL    HW2  597   0.024   4.485   5.900 -0.4284 -2.4011  0.2136
  200SOL     OW  598   0.760   2.381   7.731  0.0290 -0.5316  0.4828
  200SOL    HW1  599   0.729   2.379   7.821 -2.4450  0.2677 -0.2768
  200SOL    HW2  600   0.722   2.303   7.690 -0.3351  0.0315 -0.2871
  201SOL     OW  601   1.784   0.086   5.758  0.0582  0.0033  0.0288
  201SOL    HW1  602   1.764   0.075   5.851 -2.6051 -1.7551 -0.6301
  201SOL    HW2  603   1.711   0.044   5.713  1.6225  0.1645 -2.8848
  202SOL     OW  604   1.764   2.941   6.825  0.2588 -0.4374 -0.0917
  202SOL    HW1  605   1.730   3.022   6.863  0.5654 -0.3471 -0.0081
  202SOL    HW2  606   1.855   2.937   6.854  0.4083 -0.5247 -0.5630
  203SOL     OW  607   4.779   0.749   6.792  0.9506 -0.0842  0.2801
  203SOL    HW1  608   4.723   0.692   6.845  0.6034  0.3128  0.3465
  203SOL    HW2  609   4.779   0.709   6.705  0.8833 -0.3057  0.3822
  204SOL     OW  610   4.206   2.836   5.334 -0.6565  0.0305  0.1883
  204SOL    HW1  611   4.173   2.901   5.396 -1.6169 -1.0697  0.8567
  204SOL    HW2  612   4.298   2.825   5.358 -0.8195  0.1879  0.9046
  205SOL     OW  613   0.795   4.160   9.431 -0.2573  0.0832 -1.2681
  205SOL    HW1  614   0.797   4.087   9.493 -1.4479  2.1443  1.4160
  205SOL    HW2  615   0.712   4.151   9.386 -0.1349 -0.5267 -1.3793
  206SOL     OW  616   2.234   3.987   7.608 -0.3114  0.3927  0.0377
  206SOL    HW1  617   2.177   4.005   7.682  1.0179  0.9515  0.9698
  206SOL    HW2  618   2.261   3.896   7.620  0.7589  0.8043  0.8738
  207SOL     OW  619   4.539   4.118   7.048 -0.2412  0.0512 -0.1914
  207SOL    HW1  620   4.575   4.129   7.136  0.8438  1.8735 -0.8038
  207SOL    HW2  621   4.611   4.076   6.999 -0.6885 -0.5739 -0.3244
  208SOL     OW  622   0.400   1.196   8.168 -0.3958  0.5905  0.4106
  208SOL    HW1  623   0.444   1.276   8.138 -1.1210  0.9682  0.3247
  208SOL    HW2  624   0.471   1.134   8.182  0.3101  1.6417  1.7403
  209SOL     OW  625   3.684   4.890   4.853 -0.2922  0.2046 -0.1000
  209SOL    HW1  626   3.724   4.872   4.938 -0.4274  0.5908  0.0471
  209SOL    HW2  627   3.645   4.807   4.827 -0.7070  0.2160  0.4634
  210SOL     OW  628   1.704   1.501   5.467  0.0895  0.2449  0.1858
  210SOL    HW1  629   1.631   1.493   5.406  0.1294  2.7916 -0.2912
  210SOL    HW2  630   1.773   1.447   5.429 -0.5630  0.1667 -0.9232
  211SOL     OW  631   1.936   4.386   5.549 -0.0734  0.1270 -0.6251
  211SOL    HW1  632   1.982   4.449   5.604  1.4069 -1.2734 -0.1832
  211SOL    HW2  633   1.859   4.361   5.600  0.3313  0.1943  0.0354
  212SOL     OW  634   0.444   1.628   5.426 -0.5492 -0.1673  0.0587
  212SOL    HW1  635   0.354   1.658   5.441 -0.7971 -0.3186 -1.0758
  212SOL    HW2  636   0.435   1.553   5.367  0.3152 -0.2673  0.0343
  213SOL     OW  637   0.036   1.218   7.235 -0.1610 -0.1738 -0.3719
  213SOL    HW1  638  -0.046   1.180   7.264 -1.7902  1.8483 -1.9964
  213SOL    HW2  639   0.039   1.200   7.140 -0.2385  2.2397 -0.8941
  214SOL     OW  640   0.430   0.385   5.513  0.6819  0.3124 -0.4673
  214SOL    HW1  641   0.519   0.412   5.490  0.5883  0.4603 -0.6578
  214SOL    HW2  642   0.442   0.304   5.563  0.8900  0.0033 -1.0040
  215SOL     OW  643   4.298   3.811   7.120 -0.1158 -0.1096 -0.8082
  215SOL    HW1  644   4.375   3.865   7.138 -0.2488  0.4990 -1.9715
  215SOL    HW2  645   4.332   3.722   7.113  0.0123 -0.3700  1.8622
  216SOL     OW  646   0.243   0.317   7.935  0.3629 -0.6917 -0.2735
  216SOL    HW1  647   0.254   0.225   7.958 -1.8818 -0.7888  0.7082
  216SOL    HW2  648   0.149   0.333   7.945  1.0422  2.5196  2.8262
  217SOL     OW  649   4.896   0.793   7.979 -0.0918  0.8886 -0.5618
  217SOL    HW1  650   4.976   0.743   7.962 -1.0446 -0.4024 -1.4367
  217SOL    HW2  651   4.874   0.832   7.894 -0.8853  0.4678 -0.5599
  218SOL     OW  652   1.314   1.172   7.514  0.2832 -0.2629  0.0199
  218SOL    HW1  653   1.287   1.111   7.445 -0.2119  0.0685 -0.0875
  218SOL    HW2  654   1.358   1.243   7.467  0.2884 -0.2251  0.0816
  219SOL     OW  655   1.656   0.604   9.469 -0.1557  0.3489  0.6698
  219SOL    HW1  656   1.717   0.534   9.446 -1.3534 -0.1332 -1.2896
  219SOL    HW2  657   1.712   0.677   9.497  1.2421 -0.5021  0.1872
  220SOL     OW  658   4.381   1.242   6.559 -0.5968  0.0826 -0.2463
  220SOL    HW1  659   4.350   1.278   6.476  0.3321  1.6833  0.0678
  220SOL    HW2  660   4.306   1.249   6.618 -0.4692  1.4391 -0.2252
  221SOL     OW  661   0.805   4.636   8.003  0.0740  0.2600 -0.2864
  221SOL    HW1  662   0.771   4.567   8.061  0.3750 -0.8004 -1.3199
  221SOL    HW2  663   0.850   4.588   7.933  1.9304  1.5555 -0.0536
  222SOL     OW  664   0.472   2.533   8.195 -0.0557 -0.1657 -0.0475
  222SOL    HW1  665   0.445   2.619   8.229 -1.5554  0.1648 -1.9126
  222SOL    HW2  666   0.459   2.473   8.269 -1.2037  0.8397  0.5969
  223SOL     OW  667   0.095   1.060   8.668  0.3074 -0.2587 -0.9735
  223SOL    HW1  668   0.161   0.996   8.642  0.7871 -0.0312 -0.3342
  223SOL    HW2  669   0.068   1.102   8.586  1.3765  0.0551 -1.1775
  224SOL     OW  670   2.935   2.396   6.222 -0.8517 -0.3368  0.0897
  224SOL    HW1  671   2.971   2.319   6.267 -1.6505 -0.5611  0.3658
  224SOL    HW2  672   2.907   2.453   6.293 -0.0305  0.3323 -0.1122
  225SOL     OW  673   0.931   2.582   7.649  0.5463 -0.1363 -0.7203
  225SOL    HW1  674   0.886   2.517   7.704  1.2309 -0.5466 -0.6286
  225SOL    HW2  675   0.861   2.635   7.611  0.0328 -0.1844  0.1354
  226SOL     OW  676   1.843   2.078   7.655 -0.1911  0.1365  0.6422
  226SOL    HW1  677   1.771   2.092   7.593 -0.1151  1.4186  0.8185
  226SOL    HW2  678   1.833   1.987   7.683 -0.1271 -0.5519 -1.3894
  227SOL     OW  679   3.299   4.903   6.968 -0.2616 -0.4668 -0.0337
  227SOL    HW1  680   3.376   4.889   6.913 -0.7643  1.2264 -1.2530
  227SOL    HW2  681   3.329   4.882   7.057  1.5740  0.0461 -0.4817
  228SOL     OW  682   0.520   5.005   6.984 -0.2558  0.5461  0.0618
  228SOL    HW1  683   0.461   5.023   6.911 -1.7392 -0.2932  1.0074
  228SOL    HW2  684   0.584   4.944   6.948  0.3027  1.7480 -1.0844
  229SOL     OW  685   0.992   1.337   6.870  0.0464 -0.5693 -0.0089
  229SOL    HW1  686   1.001   1.349   6.964  0.3043  0.8185 -0.1845
  229SOL    HW2  687   0.902   1.363   6.851  0.8007  1.9356 -0.4889
  230SOL     OW  688   0.705   2.090   7.150  0.1753 -0.4977 -0.6508
  230SOL    HW1  689   0.736   2.180   7.142  1.6925 -1.0392 -1.0744
  230SOL    HW2  690   0.738   2.061   7.235 -0.3037 -0.6708 -0.5180
  231SOL     OW  691   2.932   3.189   7.374  0.0384 -0.2526 -0.5064
  231SOL    HW1  692   2.853   3.225   7.334  1.4597  2.9411 -0.6641
  231SOL    HW2  693   2.976   3.143   7.303 -0.4875  0.0412 -1.0338
  232SOL     OW  694   0.310   1.896   7.560 -0.6813  0.1258 -0.7763
  232SOL    HW1  695   0.307   1.865   7.470 -0.9038  1.0274 -1.0891
  232SOL    HW2  696   0.355   1.980   7.555 -0.0865 -0.1288  0.0498
  233SOL     OW  697   0.353   1.871  10.128  0.0484  0.4154 -0.5015
  233SOL    HW1  698   0.413   1.845  10.058  0.5090  0.6254 -0.1912
  233SOL    HW2  699   0.325   1.788  10.168  1.1677  0.3452  0.2013
  234SOL     OW  700   1.922   1.320   4.914 -0.2088  0.5451  0.0711
  234SOL    HW1  701   2.004   1.293   4.956 -0.3664  0.9447  0.6362
  234SOL    HW2  702   1.909   1.256   4.844 -0.0917 -0.2881  0.8035
  235SOL     OW  703   1.546   0.247   9.325 -0.2036 -0.0090  0.1704
  235SOL    HW1  704   1.625   0.274   9.280  0.0704 -1.2791 -0.1631
  235SOL    HW2  705   1.572   0.168   9.374 -1.2324 -0.4020  0.1124
  236SOL     OW  706   3.108   3.318   7.536  0.1890 -0.2114 -0.2047
  236SOL    HW1  707   3.061   3.383   7.588  1.6306  0.3151  0.4709
  236SOL    HW2  708   3.046   3.294   7.466 -2.8584 -2.7741  2.9943
  237SOL     OW  709   4.937   0.891   7.730 -0.2845 -0.7604 -0.2338
  237SOL    HW1  710   4.889   0.973   7.722 -0.2819 -0.4935  1.9712
  237SOL    HW2  711   5.029   0.916   7.720 -0.3366 -0.6497 -0.4453
  238SOL     OW  712   1.162   4.972   6.661  0.5418  0.2754 -0.2612
  238SOL    HW1  713   1.210   4.996   6.582  0.7373 -0.1346 -0.2731
  238SOL    HW2  714   1.079   5.018   6.654 -0.4576 -1.6296 -1.9175
  239SOL     OW  715   2.371   0.866   7.936 -0.2782  1.4660  0.3637
  239SOL    HW1  716   2.397   0.951   7.901  0.8230  0.4178 -1.4788
  239SOL    HW2  717   2.291   0.844   7.889 -0.4840  1.3979  0.7391
  240SOL     OW  718   2.509   1.193   5.334  0.3282 -1.0887 -0.7657
  240SOL    HW1  719   2.584   1.142   5.304  0.8020 -0.4857 -0.6311
  240SOL    HW2  720   2.547   1.260   5.391 -0.3412 -0.9263 -0.5019
  241SOL     OW  721   0.725   0.850   9.703 -0.1848 -0.0264 -0.1369
  241SOL    HW1  722   0.758   0.764   9.675  2.4188  0.6403  0.6316
  241SOL    HW2  723   0.777   0.872   9.779 -1.5372  1.8134  0.3187
  242SOL     OW  724   1.398   2.094   8.171  0.2006  0.2626  0.0255
  242SOL    HW1  725   1.444   2.018   8.205 -0.3411 -0.9579 -1.8377
  242SOL    HW2  726   1.320   2.102   8.227  0.6184 -0.0798  0.6714
  243SOL     OW  727   0.331   2.403   8.423  0.3270  0.0968  0.0762
  243SOL    HW1  728   0.387   2.352   8.481  0.3540 -1.4249 -1.2184
  243SOL    HW2  729   0.254   2.348   8.410  0.0989  0.6316 -0.9305
  244SOL     OW  730   3.768   0.571   7.290 -0.2304 -0.3115 -0.1927
  244SOL    HW1  731   3.830   0.632   7.329 -0.2156  0.0882 -0.8221
  244SOL    HW2  732   3.778   0.491   7.341 -0.4073  0.2754  0.7789
  245SOL     OW  733   4.648   2.684   8.209  0.8192 -0.3549  0.0038
  245SOL    HW1  734   4.593   2.751   8.169  1.1275  0.5745  1.0961
  245SOL    HW2  735   4.596   2.604   8.203 -0.6015  0.4592  0.8095
  246SOL     OW  736   1.417   1.656   7.228  0.0613 -0.2606  0.2938
  246SOL    HW1  737   1.495   1.685   7.180  1.6745 -0.0684  2.8816
  246SOL    HW2  738   1.446   1.578   7.275 -2.3003 -2.1740 -1.1881
  247SOL     OW  739   4.667   2.695  10.041 -0.0122 -0.4709  0.3436
  247SOL    HW1  740   4.662   2.784  10.005 -2.0496 -0.4188  0.6161
  247SOL    HW2  741   4.746   2.695  10.094  1.2910  0.4466 -1.4763
  248SOL     OW  742   4.812   1.220   9.300  0.4399  0.2642  0.2097
  248SOL    HW1  743   4.814   1.210   9.205 -0.9974  1.3371  0.0328
  248SOL    HW2  744   4.879   1.285   9.319  2.1085 -1.3853  0.1780
  249SOL     OW  745   0.893   2.097   5.804  1.1237  0.2052  0.6647
  249SOL    HW1  746   0.895   2.021   5.863  3.3704 -0.7900 -0.5725
  249SOL    HW2  747   0.922   2.063   5.720 -1.2360  1.7559 -0.9003
  250SOL     OW  748   0.903   1.923   6.879  0.9733  0.1205 -0.4036
  250SOL    HW1  749   0.909   1.842   6.829  0.1401  0.2511 -0.7197
  250SOL    HW2  750   0.890   1.894   6.969  1.6508 -0.1023 -0.3700
  251SOL     OW  751   0.603   1.850   7.019  0.0508 -0.2147  0.7697
  251SOL    HW1  752   0.606   1.770   7.071  1.8224 -0.7984 -0.1684
  251SOL    HW2  753   0.625   1.920   7.081 -0.5405 -0.5561  1.3771
  252SOL     OW  754   4.808   4.745   7.934 -0.4054  0.8221  0.2803
  252SOL    HW1  755   4.713   4.745   7.932 -0.3972  2.1015 -1.1647
  252SOL    HW2  756   4.835   4.774   7.847  1.3076  0.9030  0.7899
  253SOL     OW  757   0.225   2.239   8.083 -0.1635 -0.5168  0.2013
  253SOL    HW1  758   0.147   2.202   8.042 -0.3973 -0.5664  0.6730
  253SOL    HW2  759   0.191   2.311   8.137  0.1663 -0.2824  0.0962
  254SOL     OW  760   1.727   0.138   6.259  0.6433 -0.5425 -0.1120
  254SOL    HW1  761   1.728   0.093   6.175  2.9879  0.1089 -0.5293
  254SOL    HW2  762   1.812   0.183   6.262 -0.7682  2.3147  1.0641
  255SOL     OW  763   2.047   4.220   8.268 -0.0749 -0.3405 -0.2061
  255SOL    HW1  764   2.049   4.259   8.355  1.1536  2.1490 -1.2689
  255SOL    HW2  765   2.137   4.193   8.251 -0.2438 -0.5344 -0.8398
  256SOL     OW  766   1.135   4.107   5.827  0.2104 -0.3784 -0.2714
  256SOL    HW1  767   1.126   4.097   5.922  1.0104 -0.8801 -0.2372
  256SOL    HW2  768   1.229   4.108   5.812  0.1705  2.3967 -0.8209
  257SOL     OW  769   2.555   4.977   9.131 -0.0807  0.7929  0.5444
  257SOL    HW1  770   2.532   4.927   9.210 -1.5641  0.6587  0.0574
  257SOL    HW2  771   2.575   5.065   9.163 -0.0962  0.5891  1.1281
  258SOL     OW  772   0.049   0.001   8.167  0.2107  0.0510  0.1363
  258SOL    HW1  773   0.009   0.003   8.080 -0.3023 -1.0940  0.3374
  258SOL    HW2  774   0.020   0.083   8.208 -1.9424 -0.7184  0.2650
  259SOL     OW  775   4.485   0.307   7.018  0.4181 -0.1895  0.2926
  259SOL    HW1  776   4.567   0.264   7.041  0.1228 -0.8352  0.1488
  259SOL    HW2  777   4.458   0.267   6.935 -1.5242 -2.1023  1.7519
  260SOL     OW  778   0.469   4.444   7.363 -0.3348 -0.0278 -0.6643
  260SOL    HW1  779   0.423   4.485   7.435  0.3026  0.4926 -0.5396
  260SOL    HW2  780   0.406   4.442   7.291 -0.6552  0.3641 -0.3953
  261SOL     OW  781   0.449   4.647   6.288 -0.4453  0.1473 -0.1882
  261SOL    HW1  782   0.508   4.605   6.351 -0.5298 -2.1247 -1.5396
  261SOL    HW2  783   0.506   4.682   6.221 -0.5022  0.2971 -0.1598
  262SOL     OW  784   0.468   4.145   9.630 -0.1540 -0.0882  0.4187
  262SOL    HW1  785   0.404   4.092   9.582 -1.6470  0.9222  1.2178
  262SOL    HW2  786   0.535   4.082   9.658 -1.7718 -1.5566  1.2049
  263SOL     OW  787   1.058   3.114   7.606  0.2521 -0.3079 -0.1405
  263SOL    HW1  788   1.017   3.200   7.618 -1.3588 -1.3411  3.1254
  263SOL    HW2  789   0.990   3.060   7.566  0.9037 -0.3540 -1.2233
  264SOL     OW  790   1.022   4.338   8.606  0.3375 -0.4963  0.2130
  264SOL    HW1  791   0.963   4.280   8.558 -0.7081  0.7357 -0.0362
  264SOL    HW2  792   1.109   4.314   8.576 -0.0390 -2.0550  0.2536
  265SOL     OW  793   4.847   0.504   7.746  0.1647  0.1261 -0.4327
  265SOL    HW1  794   4.790   0.580   7.760  0.4939  0.4066 -0.6083
  265SOL    HW2  795   4.831   0.479   7.655 -1.5980 -1.3900  0.2334
  266SOL     OW  796   0.597   4.041   4.979  0.4105  0.5357  0.3666
  266SOL    HW1  797   0.507   4.041   4.948  0.8322  0.5244 -0.9175
  266SOL    HW2  798   0.591   4.064   5.072 -1.1165 -1.9455  0.9698
  267SOL     OW  799   0.593   0.119   8.093  0.7056 -0.6041  0.4169
  267SOL    HW1  800   0.633   0.094   8.176  1.7807 -0.1915  0.0368
  267SOL    HW2  801   0.574   0.035   8.050 -1.7246 -0.9053  1.8836
  268SOL     OW  802   0.274   0.096   7.435 -0.5643  0.1107  0.3753
  268SOL    HW1  803   0.221   0.059   7.364  0.5550  1.2497 -1.1078
  268SOL    HW2  804   0.221   0.168   7.469 -0.4760  0.5287 -0.3485
  269SOL     OW  805   0.225   0.651   5.426 -0.2171 -0.3123 -0.5781
  269SOL    HW1  806   0.300   0.592   5.432  0.7914  1.1080  1.6667
  269SOL    HW2  807   0.254   0.721   5.367  0.9050  1.0473  1.4667
  270SOL     OW  808   1.361   0.229   6.531  0.2490  0.3540 -0.9974
  270SOL    HW1  809   1.279   0.208   6.486 -0.0176  1.8981 -1.2853
  270SOL    HW2  810   1.366   0.324   6.530  0.3252  0.4973  2.0850
  271SOL     OW  811   0.097   0.210   9.856 -0.3354 -0.3304  0.9451
  271SOL    HW1  812   0.063   0.226   9.944  0.1531  1.7893  0.7995
  271SOL    HW2  813   0.169   0.149   9.869  1.6217  2.0881  2.4928
  272SOL     OW  814   1.573   1.973   6.622  0.0774  0.0496 -0.0125
  272SOL    HW1  815   1.492   1.924   6.636  1.3406 -2.1723  0.0008
  272SOL    HW2  816   1.579   1.983   6.527  0.2820 -0.7326 -0.0916
  273SOL     OW  817   0.130   4.683   8.273 -0.3353 -0.3532 -0.1106
  273SOL    HW1  818   0.213   4.729   8.275 -1.5934  2.0696  1.5067
  273SOL    HW2  819   0.145   4.603   8.324  1.1487 -0.3129 -0.4641
  274SOL     OW  820   1.680   1.199   5.153 -0.0871  0.0643  0.4212
  274SOL    HW1  821   1.590   1.198   5.188 -0.5172 -0.6225 -0.6506
  274SOL    HW2  822   1.690   1.114   5.111  0.5821  0.6518 -0.6612
  275SOL     OW  823   1.692   0.736   5.211  0.2925 -0.1093  0.4996
  275SOL    HW1  824   1.765   0.789   5.178 -0.7726  0.7335 -0.5771
  275SOL    HW2  825   1.655   0.788   5.282 -1.8296  1.5523 -1.6527
  276SOL     OW  826   3.598   0.642   9.645 -0.8037 -0.3111  0.3559
  276SOL    HW1  827   3.626   0.732   9.632 -0.3587 -0.3767  0.8473
  276SOL    HW2  828   3.540   0.624   9.571  0.0717 -0.0231 -0.4114
  277SOL     OW  829   1.148   4.803   6.961  0.1929 -0.2285  0.0762
  277SOL    HW1  830   1.233   4.847   6.968 -0.0489  0.7026 -2.0493
  277SOL    HW2  831   1.138   4.786   6.867 -1.9128 -0.4513  0.3037
  278SOL     OW  832   0.571   2.077   9.942  0.2249 -0.4199 -0.0700
  278SOL    HW1  833   0.514   2.043   9.872  2.0257 -1.8817 -0.9265
  278SOL    HW2  834   0.617   2.150   9.902  0.9010 -0.9540 -0.3004
  279SOL     OW  835   2.382   1.884   7.441  0.1436  0.6126 -0.4310
  279SOL    HW1  836   2.408   1.966   7.481 -1.3140  0.2940  1.3009
  279SOL    HW2  837   2.383   1.902   7.347 -0.4882  2.7226 -0.0870
  280SOL     OW  838   0.747   0.423   9.124 -0.0996 -0.5944 -0.8403
  280SOL    HW1  839   0.787   0.444   9.208  1.0670 -1.0496 -1.2663
  280SOL    HW2  840   0.691   0.347   9.142  2.0202 -2.2532 -0.9192
  281SOL     OW  841   1.747   3.923   7.766  0.1398  0.2639 -0.1837
  281SOL    HW1  842   1.716   3.836   7.788 -1.0728  0.7611  0.1467
  281SOL    HW2  843   1.736   3.974   7.846 -1.8226  1.4135 -1.1024
  282SOL     OW  844   2.717   0.876  10.072 -0.4844  0.0603  0.0056
  282SOL    HW1  845   2.653   0.899  10.005 -1.2598 -0.0512  0.6927
  282SOL    HW2  846   2.677   0.803  10.120 -0.0366  0.2644  0.7149
  283SOL     OW  847   4.988   1.330   8.630 -0.3586 -0.2154  0.3268
  283SOL    HW1  848   5.037   1.326   8.713 -1.0122  0.9775  0.7962
  283SOL    HW2  849   4.951   1.419   8.629 -0.9189 -0.4528 -0.9278
  284SOL     OW  850   1.248   4.805   8.774  0.4762 -0.4292  0.0247
  284SOL    HW1  851   1.223   4.759   8.855 -0.3149 -0.8326 -0.4330
  284SOL    HW2  852   1.165   4.819   8.728  0.8569  0.3288 -0.4423
  285SOL     OW  853   1.843   1.690   9.584  0.3370  0.2758  0.4344
  285SOL    HW1  854   1.935   1.710   9.599  0.4056 -0.2645  0.7407
  285SOL    HW2  855   1.837   1.674   9.490  0.7423 -0.6108  0.5514
  286SOL     OW  856   3.463   1.057   7.760  0.0437 -0.4270  0.0646
  286SOL    HW1  857   3.472   1.131   7.700 -2.6600  0.4862  0.6342
  286SOL    HW2  858   3.466   1.096   7.847 -3.1086 -0.5850  0.3660
  287SOL     OW  859   1.188   4.840   7.547  0.6255 -0.7366  0.1467
  287SOL    HW1  860   1.148   4.914   7.593  1.9925  0.4298 -0.4751
  287SOL    HW2  861   1.234   4.791   7.614 -0.3837 -1.1178  0.5815
  288SOL     OW  862   2.356   2.069   5.415 -0.3023  0.4003  0.2111
  288SOL    HW1  863   2.354   1.974   5.428 -0.0931 -0.0614 -2.5773
  288SOL    HW2  864   2.286   2.087   5.352  0.1830  1.9827  0.0764
  289SOL     OW  865   1.707   4.637   5.593  0.0918 -0.5751  0.2509
  289SOL    HW1  866   1.730   4.685   5.673 -0.9041  0.9067 -0.3131
  289SOL    HW2  867   1.721   4.545   5.616 -1.2873 -0.2895  2.5450
  290SOL     OW  868   4.947   0.162   5.960 -0.1071 -0.5381  0.2420
  290SOL    HW1  869   5.003   0.127   6.029 -0.5277 -0.6635  0.5202
  290SOL    HW2  870   4.991   0.241   5.931 -0.3469 -0.0330  1.2271
  291SOL     OW  871   3.959   2.764   7.796 -0.4939 -0.2991 -0.4331
  291SOL    HW1  872   3.902   2.797   7.726 -0.5108  0.5138 -0.0393
  291SOL    HW2  873   3.901   2.712   7.851 -0.3189 -1.6761 -1.4712
  292SOL     OW  874   1.890   0.073   7.479 -0.4627  0.1328 -0.4622
  292SOL    HW1  875   1.827   0.089   7.549  0.9367  2.5403  0.3722
  292SOL    HW2  876   1.886   0.152   7.424  0.7425 -0.3112 -1.2341
  293SOL     OW  877   3.918   1.278   7.976  0.0573 -0.8645 -0.2858
  293SOL    HW1  878   3.886   1.362   8.009 -0.5448 -0.6871 -1.2756
  293SOL    HW2  879   4.013   1.286   7.977  0.0005  0.2158 -1.2773
  294SOL     OW  880   0.682   2.254   7.464 -0.4087 -0.0309 -0.3787
  294SOL    HW1  881   0.600   2.208   7.485 -1.0386  0.3385 -1.8526
  294SOL    HW2  882   0.653   2.341   7.437  0.5927  0.5100  0.2703
  295SOL     OW  883   4.455   3.402   9.904  0.0701  0.2237  0.1321
  295SOL    HW1  884   4.426   3.492   9.917  1.4892  1.1219 -2.2641
  295SOL    HW2  885   4.539   3.397   9.951 -0.1483  0.0553  0.5064
  296SOL     OW  886   4.131   4.979   8.656 -0.1342  0.6056  0.1992
  296SOL    HW1  887   4.147   5.026   8.574  0.7242  0.9886  0.5691
  296SOL    HW2  888   4.037   4.963   8.657  0.1880 -2.8269 -2.7289
  297SOL     OW  889   4.129   0.909   7.267 -0.4485  0.5038 -0.1048
  297SOL    HW1  890   4.190   0.981   7.250 -1.1757  0.9452 -0.9075
  297SOL    HW2  891   4.058   0.923   7.205 -1.1689 -0.2458  0.5366
  298SOL     OW  892   2.358   4.740   7.859 -0.2033  0.4597 -0.3482
  298SOL    HW1  893   2.337   4.824   7.818  0.3611  0.8535  0.1453
  298SOL    HW2  894   2.276   4.690   7.856 -0.4724  0.9217 -0.8893
  299SOL     OW  895   4.714   3.420   9.989 -0.6203 -0.5892  0.0380
  299SOL    HW1  896   4.723   3.512   9.964 -1.2556 -0.7474 -0.8703
  299SOL    HW2  897   4.756   3.372   9.917  0.6714 -1.0000  1.0293
  300SOL     OW  898   1.069   4.131   5.335  0.4158  0.8092  0.0548
  300SOL    HW1  899   1.022   4.209   5.304 -1.2739 -0.7544 -1.6767
  300SOL    HW2  900   1.024   4.107   5.416  0.8543  1.5178  0.5225
  301SOL     OW  901   1.033   0.191   8.897 -0.0264  0.3166  0.6000
  301SOL    HW1  902   1.036   0.102   8.932 -0.4088 -0.0972 -0.3969
  301SOL    HW2  903   0.940   0.215   8.902  0.2228  1.1210  1.9531
  302SOL     OW  904   2.592   0.642   7.847 -0.1026 -0.6172 -0.2534
  302SOL    HW1  905   2.558   0.698   7.777  0.5937 -0.3184 -0.3613
  302SOL    HW2  906   2.518   0.586   7.871 -0.4055 -0.5944 -1.0951
  303SOL     OW  907   1.153   1.276   5.689  0.5056  0.3187  0.7219
  303SOL    HW1  908   1.121   1.220   5.618  0.1685  1.6193 -0.1973
  303SOL    HW2  909   1.172   1.216   5.761  0.9127 -1.0472 -0.4908
  304SOL     OW  910   0.859   0.517   9.363  0.1182 -1.0074  0.1308
  304SOL    HW1  911   0.954   0.513   9.367  0.2622  1.4636  2.4417
  304SOL    HW2  912   0.840   0.565   9.282  1.0816  0.9761  0.9906
  305SOL     OW  913   0.074   3.207   6.541  0.1076  0.1031 -0.1875
  305SOL    HW1  914   0.017   3.132   6.524 -0.7457  1.0266 -1.6057
  305SOL    HW2  915   0.141   3.173   6.601 -1.7769 -1.0768  1.3822
  306SOL     OW  916   4.263   0.729   6.968  0.2952 -0.1605 -0.1107
  306SOL    HW1  917   4.245   0.644   6.927 -1.1603 -0.4894  1.1007
  306SOL    HW2  918   4.329   0.710   7.035  0.9447 -0.0647 -0.7115
  307SOL     OW  919   1.891   2.193   6.362  0.0706  0.7836 -0.2375
  307SOL    HW1  920   1.896   2.248   6.284  0.5016  0.5071 -0.4044
  307SOL    HW2  921   1.940   2.114   6.340  1.9818  1.5539  1.0016
  308SOL     OW  922   0.984   4.271   7.688 -0.3335 -0.3737 -0.2088
  308SOL    HW1  923   0.941   4.316   7.615  1.6185  0.3547 -0.9779
  308SOL    HW2  924   1.056   4.222   7.648 -0.9674 -2.3375  0.9149
  309SOL     OW  925   2.439   2.567   8.677  0.1375 -0.3333 -0.5074
  309SOL    HW1  926   2.420   2.505   8.607  3.0893 -2.1569  0.1605
  309SOL    HW2  927   2.401   2.527   8.755  2.0408 -1.4167 -0.0771
  310SOL     OW  928   4.708   0.922   7.011 -0.1590 -0.0709 -0.3334
  310SOL    HW1  929   4.636   0.969   6.968  1.1324  1.0584 -1.3607
  310SOL    HW2  930   4.722   0.845   6.956  0.9263  0.9284 -1.4989
  311SOL     OW  931   0.202   1.024   7.671 -0.6965  0.2741 -0.9907
  311SOL    HW1  932   0.288   0.990   7.696 -1.3006 -0.4291  0.2659
  311SOL    HW2  933   0.190   0.994   7.580  0.3391  0.3227 -1.1564
  312SOL     OW  934   4.556   4.076   9.255 -0.2015 -0.7041  0.2266
  312SOL    HW1  935   4.514   4.156   9.223  0.0849 -0.9261 -0.7587
  312SOL    HW2  936   4.648   4.099   9.264  0.1139 -1.2546 -1.3090
  313SOL     OW  937   0.834   3.649   9.088 -0.3618  0.1998  0.4434
  313SOL    HW1  938   0.911   3.653   9.031  0.2932  2.1392  1.3405
  313SOL    HW2  939   0.870   3.634   9.175 -0.7481  2.6546  1.1239
  314SOL     OW  940   1.570   0.468   5.850 -0.5494 -0.1863 -0.1166
  314SOL    HW1  941   1.571   0.559   5.819 -0.3766  0.2983  1.2387
  314SOL    HW2  942   1.662   0.448   5.867 -0.7840  0.2670  1.9574
  315SOL     OW  943   0.569   0.380   8.074  0.5729 -0.1227 -0.2770
  315SOL    HW1  944   0.495   0.397   8.132  0.7185 -1.5270  0.3577
  315SOL    HW2  945   0.572   0.285   8.065  0.9163  0.0217 -2.1426
  316SOL     OW  946   1.652   0.060   9.008  0.0568  0.2068  0.1240
  316SOL    HW1  947   1.569   0.092   9.044  0.3492  2.4812 -1.0477
  316SOL    HW2  948   1.641   0.064   8.913  1.3058  0.0136 -0.0493
  317SOL     OW  949   1.587   2.200   7.845  0.3024  0.1617  0.7843
  317SOL    HW1  950   1.678   2.221   7.868  0.2144  1.4864  0.0080
  317SOL    HW2  951   1.591   2.110   7.813  1.1695 -0.1300  1.6438
  318SOL     OW  952   4.526   1.693   7.439  0.3333 -0.3353  0.2956
  318SOL    HW1  953   4.538   1.765   7.376 -0.3056 -1.2495 -0.9302
  318SOL    HW2  954   4.607   1.691   7.490  1.9079 -0.9764 -2.0448
  319SOL     OW  955   1.234   4.087   7.347  0.0173  0.1214 -0.0915
  319SOL    HW1  956   1.273   4.141   7.278  0.6014  0.1072  0.2120
  319SOL    HW2  957   1.225   4.147   7.421 -0.3577  0.0712 -0.0945
  320SOL     OW  958   0.036   4.930   6.939 -0.4350  0.2965  0.1692
  320SOL    HW1  959   0.078   4.881   6.868 -2.3785 -1.6608  0.2626
  320SOL    HW2  960  -0.026   4.987   6.894  0.8966  1.7782  0.1408
  321SOL     OW  961   4.996   4.680   7.296 -0.0868  0.2076 -0.1042
  321SOL    HW1  962   4.923   4.686   7.358  0.3762 -3.1468  1.0033
  321SOL    HW2  963   5.066   4.639   7.346  0.9250 -1.0366 -2.3806
  322SOL     OW  964   4.411   0.339   7.559 -0.4978  0.6853  0.0522
  322SOL    HW1  965   4.354   0.352   7.483  0.0146  0.1522 -0.4265
  322SOL    HW2  966   4.493   0.381   7.535 -0.0243 -0.3024 -0.0732
  323SOL     OW  967   1.138   0.357   5.525 -0.3741 -0.0867  0.8137
  323SOL    HW1  968   1.206   0.403   5.576 -0.0242  1.7215 -1.1567
  323SOL    HW2  969   1.180   0.275   5.498 -0.0047 -0.3122  2.0106
  324SOL     OW  970   4.903   1.451   7.022 -0.0213 -0.0152  0.7329
  324SOL    HW1  971   4.846   1.523   6.992  0.2136 -0.9027 -2.1746
  324SOL    HW2  972   4.849   1.403   7.085 -1.5355  0.6930  0.0439
  325SOL     OW  973   0.588   4.419   6.925 -0.1545  0.1359 -0.2919
  325SOL    HW1  974   0.639   4.481   6.873  0.1394 -1.2096 -1.6962
  325SOL    HW2  975   0.515   4.470   6.959  0.6769  1.4941 -0.4562
  326SOL     OW  976   0.701   1.332   9.756 -0.5497 -0.8858  0.2274
  326SOL    HW1  977   0.791   1.361   9.740 -0.4549 -1.5295 -0.4712
  326SOL    HW2  978   0.656   1.410   9.787  0.3149 -0.6170  0.8531
  327SOL     OW  979   4.168   1.720   8.870  0.0121 -0.0499 -0.1678
  327SOL    HW1  980   4.165   1.758   8.782 -1.5576 -0.4691 -0.3173
  327SOL    HW2  981   4.221   1.641   8.859 -0.1346 -0.0770 -0.7355
  328SOL     OW  982   1.013   1.283   7.166  0.5333  0.3364  0.1811
  328SOL    HW1  983   0.944   1.270   7.231  1.9373 -0.8171  1.5259
  328SOL    HW2  984   1.018   1.198   7.121 -1.1750  1.4384 -2.3019
  329SOL     OW  985   0.193   0.722   6.019 -0.1798 -0.0727 -0.4489
  329SOL    HW1  986   0.154   0.761   5.940 -0.6998 -0.6344 -0.4782
  329SOL    HW2  987   0.117   0.703   6.075  0.1400 -0.2759 -0.0849
  330SOL     OW  988   4.758   0.194   7.451 -0.1647  0.3989 -0.2484
  330SOL    HW1  989   4.703   0.272   7.449  1.4531  1.6082  0.1419
  330SOL    HW2  990   4.743   0.152   7.366 -0.1787  1.7966 -0.9691
  331SOL     OW  991   0.371   3.548   6.260  0.3446  0.3022  0.0879
  331SOL    HW1  992   0.315   3.477   6.293 -0.6009  1.1722  0.3852
  331SOL    HW2  993   0.349   3.553   6.167  0.7014 -0.0379 -0.0212
  332SOL     OW  994   0.455   2.816   7.730 -0.0085  0.0223  0.2036
  332SOL    HW1  995   0.372   2.771   7.743  0.1158 -0.2483  0.0847
  332SOL    HW2  996   0.432   2.908   7.723 -0.4967 -0.1974 -1.4978
  333SOL     OW  997   0.760   0.672   8.092 -0.1369  0.1022 -0.6109
  333SOL    HW1  998   0.845   0.630   8.102  0.0649  0.6606  0.1182
  333SOL    HW2  999   0.727   0.682   8.182  0.2814  2.4192 -0.6551
  334SOL     OW 1000   2.469   0.510   9.217  0.6121  0.5908  0.0342
  334SOL    HW1 1001   2.520   0.561   9.280  0.8449  0.7393 -0.2692
  334SOL    HW2 1002   2.455   0.570   9.144  1.5284 -0.0038 -0.6538
  335SOL     OW 1003   4.712   3.966   6.774 -0.2354 -0.2218  0.0804
  335SOL    HW1 1004   4.689   3.887   6.822 -0.1193 -1.1663 -1.3589
  335SOL    HW2 1005   4.802   3.986   6.802 -0.0393 -0.9609  0.0062
  336SOL     OW 1006   4.050   0.056   5.971  0.2605  0.3764 -0.0912
  336SOL    HW1 1007   4.115  -0.011   5.989  1.3543  1.5874  0.7053
  336SOL    HW2 1008   4.032   0.095   6.056 -2.2474 -0.5245 -0.1401
  337SOL     OW 1009   1.257   2.435  10.317  0.1482  0.3765 -0.1467
  337SOL    HW1 1010   1.199   2.366  10.284  0.5692  0.1413 -0.3925
  337SOL    HW2 1011   1.216   2.463  10.399  1.0910 -1.6474  1.0771
  338SOL     OW 1012   0.651   0.720   5.504  0.0188 -0.0542 -0.2619
  338SOL    HW1 1013   0.656   0.676   5.589  2.8631  1.8159  0.7068
  338SOL    HW2 1014   0.630   0.811   5.526 -1.0361  0.0972 -1.7582
  339SOL     OW 1015   4.609   0.351   8.261 -0.0725  0.2969  0.5326
  339SOL    HW1 1016   4.595   0.436   8.304 -0.0975  1.3299 -1.4185
  339SOL    HW2 1017   4.632   0.373   8.171 -1.9603 -1.7928 -0.5696
  340SOL     OW 1018   0.720   2.784   7.638  0.2001  0.2347  0.6719
  340SOL    HW1 1019   0.626   2.766   7.650  0.1520 -0.6644 -0.8176
  340SOL    HW2 1020   0.755   2.782   7.727 -1.0875 -0.0705  1.2059
  341SOL     OW 1021   3.116   3.115   7.166 -0.1851  0.7596  0.0317
  341SOL    HW1 1022   3.202   3.157   7.172  0.9296 -1.5511  3.9106
  341SOL    HW2 1023   3.125   3.052   7.094  1.5263  0.4055  0.4993
  342SOL     OW 1024   3.558   0.056   6.080 -0.3865  0.1297 -0.3330
  342SOL    HW1 1025   3.564   0.145   6.113  0.3606  0.0178 -0.1536
  342SOL    HW2 1026   3.631   0.010   6.121  0.3457 -0.1068 -1.8436
  343SOL     OW 1027   3.243   0.832   7.881 -0.0162 -0.1614  0.3640
  343SOL    HW1 1028   3.322   0.873   7.848 -0.2185  0.4279  0.6017
  343SOL    HW2 1029   3.253   0.833   7.976 -0.2268 -0.2480  0.3883
  344SOL     OW 1030   0.155   4.668   8.906  0.0199 -0.1691  0.4271
  344SOL    HW1 1031   0.230   4.712   8.946  1.5751 -2.1794 -0.1472
  344SOL    HW2 1032   0.086   4.675   8.972  0.7075  1.5988  1.0241
  345SOL     OW 1033   4.871   3.918   5.375  0.3779  0.0270 -0.1072
  345SOL    HW1 1034   4.850   4.010   5.390 -0.1150 -0.0569 -0.2551
  345SOL    HW2 1035   4.872   3.879   5.463  1.1349  0.2832  0.0006
  346SOL     OW 1036   0.042   3.738   9.681  0.1818 -0.1403 -0.0028
  346SOL    HW1 1037  -0.049   3.761   9.698 -0.4170 -1.2454 -1.4981
  346SOL    HW2 1038   0.077   3.813   9.633  0.3561  0.6690  1.3236
  347SOL     OW 1039   0.113   1.477   7.767  0.0448 -0.0171 -0.4883
  347SOL    HW1 1040   0.131   1.571   7.770 -1.7833  0.3841  2.5990
  347SOL    HW2 1041   0.190   1.436   7.808  0.9031  0.0464 -1.9566
  348SOL     OW 1042   1.099   1.158   8.066  0.2850 -0.0079  0.3574
  348SOL    HW1 1043   1.056   1.095   8.008 -0.1292  1.1062 -0.5832
  348SOL    HW2 1044   1.191   1.131   8.069 -0.3195 -2.1449  2.0241
  349SOL     OW 1045   0.091   2.452   7.874  0.1868  0.3273 -0.3657
  349SOL    HW1 1046   0.005   2.486   7.848  0.4855  0.8948 -0.6500
  349SOL    HW2 1047   0.101   2.478   7.965 -0.3085 -0.5088 -0.0658
  350SOL     OW 1048   1.524   0.659   6.208 -0.2997 -0.0555 -0.0291
  350SOL    HW1 1049   1.591   0.621   6.150  0.6150 -0.1575  1.0624
  350SOL    HW2 1050   1.450   0.598   6.202  0.9393 -1.7957  1.2851
  351SOL     OW 1051   0.286   3.883   7.926 -0.1790  0.4773  0.1967
  351SOL    HW1 1052   0.265   3.841   8.009 -1.8358 -0.6825 -0.7459
  351SOL    HW2 1053   0.227   3.958   7.921  0.5364  1.0676  0.4412
  352SOL     OW 1054   1.347   4.701   5.936 -0.7993 -0.1121  0.1855
  352SOL    HW1 1055   1.350   4.614   5.975 -4.9583 -0.1884  0.7480
  352SOL    HW2 1056   1.379   4.688   5.846  1.5126 -1.4845  1.1032
  353SOL     OW 1057   3.507   4.194   7.211  0.2825 -0.0705 -0.0893
  353SOL    HW1 1058   3.433   4.178   7.153  0.4767  2.2589 -1.1231
  353SOL    HW2 1059   3.533   4.107   7.242 -1.8724 -1.0862 -0.9163
  354SOL     OW 1060   0.310   1.050   6.889 -0.1441  0.2152 -0.2315
  354SOL    HW1 1061   0.328   1.083   6.977  1.4029 -1.0372 -0.0278
  354SOL    HW2 1062   0.217   1.066   6.876 -0.2629  1.0316  1.3649
  355SOL     OW 1063   0.696   1.469   6.737 -0.4724  0.0841  0.7825
  355SOL    HW1 1064   0.657   1.382   6.726 -2.0921  0.8654  0.0295
  355SOL    HW2 1065   0.719   1.496   6.648 -1.2814  0.9879  0.8333
  356SOL     OW 1066   0.349   1.316   7.587  0.5093  0.9539  0.0936
  356SOL    HW1 1067   0.295   1.237   7.580  1.2324  0.4840 -0.4638
  356SOL    HW2 1068   0.361   1.329   7.681  0.1234  0.5737  0.1992
  357SOL     OW 1069   3.349   2.883   9.536 -0.4640  0.0665  1.1925
  357SOL    HW1 1070   3.256   2.901   9.521 -0.8738 -2.5211 -0.0116
  357SOL    HW2 1071   3.352   2.830   9.616 -0.5999 -3.1040 -0.7171
  358SOL     OW 1072   3.713   1.237   6.603  0.2260  0.7443  0.0258
  358SOL    HW1 1073   3.646   1.294   6.641 -0.1949 -0.1723  0.7112
  358SOL    HW2 1074   3.663   1.171   6.555  0.3705 -1.6790  2.9034
  359SOL     OW 1075   4.604   1.880   7.252  0.7844 -0.4382 -0.4229
  359SOL    HW1 1076   4.592   1.846   7.163 -1.2715 -0.8533 -0.0432
  359SOL    HW2 1077   4.699   1.887   7.262  1.0957 -1.1162 -2.3710
  360SOL     OW 1078   4.461   0.043   6.909 -0.1744  0.2570  0.3824
  360SOL    HW1 1079   4.454   0.006   6.997  0.7999 -0.6776  0.0887
  360SOL    HW2 1080   4.495  -0.029   6.856 -2.1113  0.3451 -1.0722
  361SOL     OW 1081   4.582   1.833   8.935 -0.6788 -0.4994 -0.4982
  361SOL    HW1 1082   4.553   1.745   8.912  0.7503 -0.8113 -1.2253
  361SOL    HW2 1083   4.571   1.884   8.856 -1.0985 -0.1267 -0.2016
  362SOL     OW 1084   2.179   0.527   5.407 -0.9194 -0.1508  0.5422
  362SOL    HW1 1085   2.147   0.602   5.358  0.2691  0.9192  1.3251
  362SOL    HW2 1086   2.154   0.451   5.354 -1.2580  0.8445 -0.7839
  363SOL     OW 1087   0.541   1.855   9.513 -0.2050  0.6819  0.0918
  363SOL    HW1 1088   0.623   1.901   9.495 -1.1256  2.3948  0.0740
  363SOL    HW2 1089   0.508   1.895   9.593 -0.7443 -0.4062  0.4350
  364SOL     OW 1090   1.096   2.067   8.793 -0.1263 -0.4630  0.1054
  364SOL    HW1 1091   1.043   2.049   8.715  1.1292 -0.3203 -0.8152
  364SOL    HW2 1092   1.173   2.011   8.784  1.1547  1.2184  0.0312
  365SOL     OW 1093   0.577   4.016   6.716  0.2068 -0.2785  0.4739
  365SOL    HW1 1094   0.663   3.974   6.729 -1.0629 -3.0510  0.6234
  365SOL    HW2 1095   0.556   4.053   6.801  1.4775  0.9561  0.2879
  366SOL     OW 1096   3.139   0.898   8.697  0.2814 -0.1617  0.0987
  366SOL    HW1 1097   3.132   0.803   8.695  1.3365 -0.2567  0.4447
  366SOL    HW2 1098   3.073   0.928   8.634  2.0722 -1.2479 -2.4396
  367SOL     OW 1099   0.654   1.570  10.118  0.2251 -0.6732 -0.3870
  367SOL    HW1 1100   0.675   1.662  10.137  2.4713 -1.3345  0.7130
  367SOL    HW2 1101   0.560   1.564  10.131  0.1066  1.3696  0.0413
  368SOL     OW 1102   0.954   4.566   6.963 -0.0877 -0.3480 -0.0074
  368SOL    HW1 1103   0.947   4.581   6.869 -0.3429  0.1324  0.0827
  368SOL    HW2 1104   1.021   4.628   6.992 -0.3406 -0.1697  0.1981
  369SOL     OW 1105   1.183   4.647   6.611 -0.8871 -0.0860  0.3999
  369SOL    HW1 1106   1.249   4.610   6.552 -1.4290  0.3626 -0.5133
  369SOL    HW2 1107   1.107   4.663   6.554 -1.8414 -0.7168  1.4438
  370SOL     OW 1108   2.223   2.613   9.604 -0.3288  0.3784  0.2372
  370SOL    HW1 1109   2.181   2.579   9.525 -0.3918 -0.4842  0.6330
  370SOL    HW2 1110   2.186   2.700   9.615  0.8227  1.1664 -1.5551
  371SOL     OW 1111   0.387   0.525   5.984 -0.0054 -0.0082 -0.3591
  371SOL    HW1 1112   0.399   0.489   6.071  0.0144  1.1796  0.1566
  371SOL    HW2 1113   0.310   0.581   5.991 -0.2679 -0.2430 -1.2223
  372SOL     OW 1114   3.325   2.481   9.383 -0.0516  0.0294 -0.2828
  372SOL    HW1 1115   3.320   2.438   9.468 -1.7973 -0.4633 -0.5899
  372SOL    HW2 1116   3.346   2.572   9.403 -0.2799 -0.1164  0.6689
  373SOL     OW 1117   2.440   2.804   7.497  0.6712 -0.7045  0.2651
  373SOL    HW1 1118   2.408   2.873   7.439  0.1991 -0.6124  0.6366
  373SOL    HW2 1119   2.533   2.822   7.506  0.1627  1.3216  2.2772
  374SOL     OW 1120   1.016   2.341   7.586  0.2002 -0.0898 -0.6347
  374SOL    HW1 1121   0.988   2.432   7.589  0.2190 -0.1067  0.0772
  374SOL    HW2 1122   0.945   2.292   7.626  0.6872 -0.2641  0.0202
  375SOL     OW 1123   2.962   4.643   6.368 -0.2112 -0.3954  0.3736
  375SOL    HW1 1124   2.960   4.733   6.401 -0.6980  0.3737 -1.6160
  375SOL    HW2 1125   2.870   4.618   6.360 -0.1137 -0.4954 -0.5145
  376SOL     OW 1126   0.084   4.626   7.564 -0.3265 -0.2743  0.3577
  376SOL    HW1 1127   0.046   4.696   7.618 -0.7326 -0.8375  0.8070
  376SOL    HW2 1128   0.131   4.570   7.625  0.2706 -0.2267 -0.0471
  377SOL     OW 1129   0.569   4.303   5.533  0.4874  0.8602  0.1269
  377SOL    HW1 1130   0.531   4.227   5.488  0.1868  0.6258  0.7611
  377SOL    HW2 1131   0.494   4.345   5.576  0.9404  0.2284  1.6324
  378SOL     OW 1132   0.717   1.368   8.947  0.3660  0.2352  0.4210
  378SOL    HW1 1133   0.684   1.307   9.014 -0.8568  0.0422 -0.3160
  378SOL    HW2 1134   0.776   1.316   8.894  0.2612  0.0086  0.5239
  379SOL     OW 1135   0.650   2.092   6.011  0.2868 -0.0604 -0.1512
  379SOL    HW1 1136   0.684   2.034   6.080  0.4705 -1.9584 -1.7355
  379SOL    HW2 1137   0.585   2.039   5.965  0.4278  1.0201 -1.6615
  380SOL     OW 1138   1.783   0.422   9.945 -0.1732 -0.7258  0.1201
  380SOL    HW1 1139   1.737   0.501   9.915 -0.0168 -0.1897  1.2705
  380SOL    HW2 1140   1.872   0.451   9.964 -0.2935 -1.0286  1.2003
  381SOL     OW 1141   3.393   0.496   7.302 -0.8192  0.8149  0.1918
  381SOL    HW1 1142   3.380   0.482   7.208  0.6361 -0.9504  0.2103
  381SOL    HW2 1143   3.306   0.481   7.341 -1.0651 -0.1565 -0.7035
  382SOL     OW 1144   0.712   0.940   7.475  0.3443 -0.3270 -0.5870
  382SOL    HW1 1145   0.708   0.974   7.386  0.5197 -0.5986 -0.7001
  382SOL    HW2 1146   0.646   0.870   7.477  1.0434 -1.0114 -0.8087
  383SOL     OW 1147   0.842   1.726   8.134 -0.2335  0.0043 -0.2199
  383SOL    HW1 1148   0.920   1.672   8.122 -0.3572  0.2304 -2.4172
  383SOL    HW2 1149   0.867   1.790   8.201  1.6574  0.3574 -1.1759
  384SOL     OW 1150   3.639   0.541   7.046 -0.6985  0.1070 -0.0133
  384SOL    HW1 1151   3.732   0.564   7.041 -0.8218  0.7846  0.5962
  384SOL    HW2 1152   3.622   0.532   7.140 -0.8565 -1.7262 -0.1714
  385SOL     OW 1153   1.286   0.581   5.806 -0.1824 -0.0215  0.2524
  385SOL    HW1 1154   1.298   0.499   5.855 -0.4782  0.6907  1.5526
  385SOL    HW2 1155   1.233   0.636   5.863 -1.5884  0.4158 -1.3925
  386SOL     OW 1156   3.896   0.032   8.136  0.5222  0.6325 -0.1737
  386SOL    HW1 1157   3.989   0.033   8.118  0.9218 -1.2419  1.3954
  386SOL    HW2 1158   3.886   0.079   8.219 -0.0601  1.5805 -0.7668
  387SOL     OW 1159   0.252   1.993   7.913 -0.0653  0.5222  0.3208
  387SOL    HW1 1160   0.300   1.966   7.991  3.4448 -0.1726 -1.8775
  387SOL    HW2 1161   0.277   2.084   7.898  0.5313  0.1932 -0.7992
  388SOL     OW 1162   1.302   1.302   7.135  0.0557 -0.4181  0.2693
  388SOL    HW1 1163   1.320   1.208   7.139  0.2278 -0.7239 -3.5254
  388SOL    HW2 1164   1.206   1.308   7.136 -0.0066 -0.8438 -1.0577
  389SOL     OW 1165   0.920   0.263   8.097  0.0661  0.3361 -0.8496
  389SOL    HW1 1166   0.997   0.220   8.134  0.6118 -0.1555 -2.4316
  389SOL    HW2 1167   0.875   0.194   8.048 -0.0790  1.1291 -1.8743
  390SOL     OW 1168   0.624   2.940   5.124  0.3829 -0.0484 -0.0352
  390SOL    HW1 1169   0.606   3.031   5.100  3.0773  0.9235  1.2074
  390SOL    HW2 1170   0.553   2.915   5.183  0.2167  1.6658  0.5231
  391SOL     OW 1171   1.885   0.190   8.748 -0.2995  0.5797  0.8716
  391SOL    HW1 1172   1.971   0.205   8.709 -0.1838 -0.2602  0.7948
  391SOL    HW2 1173   1.826   0.183   8.674 -0.6386  2.1929  0.9381
  392SOL     OW 1174   2.763   4.787   7.184 -0.1179 -0.1220 -0.0164
  392SOL    HW1 1175   2.727   4.763   7.269  2.0503  0.6494  1.2027
  392SOL    HW2 1176   2.745   4.881   7.177  1.6488  0.2879  0.6485
  393SOL     OW 1177   2.338   0.893   6.493 -0.0902 -0.1972 -0.2051
  393SOL    HW1 1178   2.259   0.941   6.468 -0.7006 -1.5154 -0.9214
  393SOL    HW2 1179   2.312   0.843   6.571  0.6783  0.9491  0.8223
  394SOL     OW 1180   4.042   4.203   7.711  0.0079  0.5347  0.0127
  394SOL    HW1 1181   3.993   4.220   7.791  0.9031  1.9145  0.2952
  394SOL    HW2 1182   4.077   4.114   7.722 -0.0687  0.6291  1.0486
  395SOL     OW 1183   2.166   1.231   7.153 -0.6135 -0.1185 -0.3083
  395SOL    HW1 1184   2.166   1.237   7.058 -1.9747  0.7815 -0.2756
  395SOL    HW2 1185   2.259   1.229   7.177 -0.2457  0.3882 -1.6043
  396SOL     OW 1186   0.238   1.597   7.205  0.0166 -0.4343  0.1388
  396SOL    HW1 1187   0.228   1.581   7.111 -0.1040 -0.9910  0.2415
  396SOL    HW2 1188   0.152   1.574   7.243 -0.4536  1.2880  0.2030
  397SOL     OW 1189   0.689   1.812   8.672  0.4490 -0.0190 -0.5742
  397SOL    HW1 1190   0.633   1.772   8.606 -1.0565  1.4207 -0.2300
  397SOL    HW2 1191   0.685   1.752   8.747 -1.5912  0.5960 -0.1347
  398SOL     OW 1192   1.416   2.892   7.006 -0.1262  0.9721 -0.1190
  398SOL    HW1 1193   1.466   2.823   6.963 -2.3046  0.2049 -1.6041
  398SOL    HW2 1194   1.407   2.961   6.939 -2.3575  0.3776 -0.5174
  399SOL     OW 1195   0.740   1.350   8.350 -0.3093  0.2405  0.5517
  399SOL    HW1 1196   0.801   1.282   8.323  0.3071  1.4242 -1.2327
  399SOL    HW2 1197   0.714   1.325   8.439  1.4738 -1.1867  0.7385
  400SOL     OW 1198   4.928   4.823   7.683 -0.3010 -0.5355 -0.0688
  400SOL    HW1 1199   4.965   4.907   7.654 -0.7350  0.0584  1.0500
  400SOL    HW2 1200   4.870   4.797   7.612 -0.4392  0.2969 -0.2760
  401SOL     OW 1201   1.543   0.440   9.020 -0.2089  0.0846  0.4844
  401SOL    HW1 1202   1.583   0.527   9.013 -0.4303  0.0612 -1.9260
  401SOL    HW2 1203   1.615   0.379   9.006 -0.5261 -0.0060 -0.9799
  402SOL     OW 1204   3.719   0.354   9.142 -0.1896 -0.4925 -0.0252
  402SOL    HW1 1205   3.688   0.372   9.231  0.5156 -0.0246  0.1402
  402SOL    HW2 1206   3.714   0.438   9.098  0.4492 -0.4877 -0.1057
  403SOL     OW 1207   3.024   3.511   9.626  0.0029  0.3140 -0.1397
  403SOL    HW1 1208   2.943   3.482   9.669 -1.4437  2.5302 -1.1554
  403SOL    HW2 1209   3.027   3.459   9.545 -0.5624  0.3962 -0.2220
  404SOL     OW 1210   1.872   0.389   6.020  0.1102  0.5415 -0.2437
  404SOL    HW1 1211   1.962   0.355   6.024 -0.4561 -0.9067  0.9285
  404SOL    HW2 1212   1.862   0.418   5.929  1.5610  0.1713 -0.5517
  405SOL     OW 1213   4.381   1.105   7.960  1.1189 -0.2246  0.1191
  405SOL    HW1 1214   4.434   1.030   7.986  0.6161 -0.7278 -0.2985
  405SOL    HW2 1215   4.430   1.181   7.993  1.3831 -0.7508  0.9852
  406SOL     OW 1216   0.624   2.719   8.028  0.5725 -0.1222  0.6227
  406SOL    HW1 1217   0.581   2.653   8.082 -1.6359  3.6651  4.0227
  406SOL    HW2 1218   0.559   2.744   7.963  0.8721 -0.2735  0.2594
  407SOL     OW 1219   1.763   0.150   6.976 -0.0121  0.5599  0.1357
  407SOL    HW1 1220   1.769   0.213   7.048 -0.0674  0.6095  0.0956
  407SOL    HW2 1221   1.669   0.137   6.963 -0.0058 -0.1025  0.6540
  408SOL     OW 1222   0.959   1.470   8.541  0.2524 -0.8031  0.2550
  408SOL    HW1 1223   0.974   1.385   8.499  0.6675  0.0521 -1.4416
  408SOL    HW2 1224   0.864   1.476   8.552 -0.0040 -0.5902 -1.7232
  409SOL     OW 1225   4.292   0.553   7.718 -0.0897  0.4846  0.5979
  409SOL    HW1 1226   4.305   0.483   7.654  0.0856  2.4011 -1.6078
  409SOL    HW2 1227   4.197   0.570   7.715 -0.2709 -0.1916  1.7877
  410SOL     OW 1228   0.628   3.129   7.066 -0.4964  0.0215 -0.1866
  410SOL    HW1 1229   0.586   3.082   6.994 -1.8380  0.8423  0.0256
  410SOL    HW2 1230   0.606   3.079   7.144 -0.8007  0.2595 -0.1163
  411SOL     OW 1231   4.900   2.718   9.723 -0.3703 -0.3627  0.6601
  411SOL    HW1 1232   4.934   2.632   9.700  0.0937 -0.5467  1.9435
  411SOL    HW2 1233   4.975   2.777   9.713 -0.6231 -0.1367  0.0254
  412SOL     OW 1234   2.285   0.011   5.992  0.2496  0.1986  0.0261
  412SOL    HW1 1235   2.309  -0.047   5.919 -0.0938 -1.3404  1.0863
  412SOL    HW2 1236   2.366   0.055   6.016  0.6765 -0.3748 -0.3455
  413SOL     OW 1237   0.115   0.984   9.172 -0.8860 -0.0793  0.1970
  413SOL    HW1 1238   0.206   1.015   9.171  0.3098 -3.2751 -0.1176
  413SOL    HW2 1239   0.073   1.030   9.099  0.5718  1.0583  0.0266
  414SOL     OW 1240   1.760   4.249   5.881  0.2675 -0.3415  0.6042
  414SOL    HW1 1241   1.834   4.282   5.931  0.3006 -1.0552  1.0281
  414SOL    HW2 1242   1.704   4.205   5.945  0.3066 -1.2538  0.0314
  415SOL     OW 1243   4.526   0.640   8.332  0.0411  0.5556  0.8500
  415SOL    HW1 1244   4.453   0.701   8.325  0.5993  1.2107  0.6149
  415SOL    HW2 1245   4.542   0.610   8.243 -0.4262 -0.1718  1.0082
  416SOL     OW 1246   5.007   0.951   6.297 -0.4609  0.0653 -0.1752
  416SOL    HW1 1247   4.978   1.042   6.295  1.0082  0.6250  1.4020
  416SOL    HW2 1248   4.962   0.913   6.372  0.7042  0.1816  0.6102
  417SOL     OW 1249   1.220   0.605   8.328  0.2570  0.5469 -0.0731
  417SOL    HW1 1250   1.255   0.674   8.272 -1.8493  3.3878  1.7790
  417SOL    HW2 1251   1.293   0.581   8.385  0.4579  3.2989  0.9999
  418SOL     OW 1252   1.046   1.587   8.309  0.5351 -0.1947  0.4654
  418SOL    HW1 1253   1.017   1.527   8.240  1.8897 -0.4728  0.1040
  418SOL    HW2 1254   0.999   1.560   8.387 -1.9892  0.8996 -0.5672
  419SOL     OW 1255   2.922   2.324   5.316 -0.4436  0.3697 -0.3375
  419SOL    HW1 1256   2.846   2.269   5.301 -0.6738  0.3290  0.8537
  419SOL    HW2 1257   2.993   2.262   5.335 -0.4089  0.4439 -0.2228
  420SOL     OW 1258   3.467   1.954   6.296  0.8738  0.2084  0.2494
  420SOL    HW1 1259   3.404   2.023   6.318  0.4607 -0.4247  1.0721
  420SOL    HW2 1260   3.490   1.914   6.379  0.7279 -0.9867 -0.2585
  421SOL     OW 1261   1.040   0.810   8.433  0.3122 -0.2488 -0.0164
  421SOL    HW1 1262   1.094   0.876   8.390  1.2820 -1.0105 -0.0163
  421SOL    HW2 1263   1.070   0.727   8.396  0.5423 -0.8540  1.4425
  422SOL     OW 1264   0.037   1.828   7.011  0.6002  0.0539  0.0842
  422SOL    HW1 1265   0.101   1.899   7.022  0.7114 -0.0302 -0.0169
  422SOL    HW2 1266   0.089   1.756   6.976  0.2790  0.2506 -0.8086
  423SOL     OW 1267   2.715   3.403   7.178 -0.3887  0.6742  0.0371
  423SOL    HW1 1268   2.710   3.309   7.191 -2.4201  0.6796 -0.2408
  423SOL    HW2 1269   2.624   3.433   7.189 -0.1140  2.3264 -1.6933
  424SOL     OW 1270   0.022   1.473   7.308 -0.2649  0.2326  0.4421
  424SOL    HW1 1271   0.044   1.385   7.279 -0.9290 -0.0824  0.8847
  424SOL    HW2 1272  -0.045   1.461   7.375  1.3993  0.9061  2.3585
  425SOL     OW 1273   3.121   1.117   7.524 -0.1124 -0.3638  0.1041
  425SOL    HW1 1274   3.117   1.022   7.517  0.5558 -0.3665 -0.2870
  425SOL    HW2 1275   3.139   1.133   7.617  1.9862 -0.7109 -0.1896
  426SOL     OW 1276   0.888   2.095   7.739  0.0638 -0.2659  0.4265
  426SOL    HW1 1277   0.979   2.079   7.713 -0.9586 -1.2847 -3.1151
  426SOL    HW2 1278   0.872   2.033   7.810  1.9710 -0.4222  0.7693
  427SOL     OW 1279   3.060   2.823   9.465  0.3980 -0.1788 -0.1331
  427SOL    HW1 1280   3.011   2.799   9.544  0.2574  0.7722  0.0723
  427SOL    HW2 1281   3.010   2.784   9.394  1.1073 -1.9751  0.2972
  428SOL     OW 1282   0.196   3.875   9.109  0.0841 -0.2311 -0.1960
  428SOL    HW1 1283   0.165   3.935   9.041 -1.3868 -0.4383  0.2452
  428SOL    HW2 1284   0.274   3.918   9.145 -1.1421  1.6525  0.3661
  429SOL     OW 1285   0.565   1.663   8.093  0.2376  0.8135  0.4880
  429SOL    HW1 1286   0.658   1.675   8.110  0.1321  1.8249  0.3889
  429SOL    HW2 1287   0.551   1.700   8.006 -0.6003  2.4288  1.2757
  430SOL     OW 1288   2.203   1.607   8.895 -0.1167  0.3869 -0.1240
  430SOL    HW1 1289   2.245   1.561   8.968  2.2527  1.0634 -0.9790
  430SOL    HW2 1290   2.155   1.679   8.937  2.4014  1.6650  0.8039
  431SOL     OW 1291   3.198   0.762   9.653  0.1515 -0.2353 -0.3743
  431SOL    HW1 1292   3.117   0.803   9.621  0.2288  0.9034  0.7879
  431SOL    HW2 1293   3.226   0.705   9.582 -0.8847  0.4798 -1.3954
  432SOL     OW 1294   4.816   1.269  10.142 -0.1753 -1.0064  0.4212
  432SOL    HW1 1295   4.755   1.243  10.072  0.4802  1.8182 -1.3863
  432SOL    HW2 1296   4.878   1.197  10.147 -0.4048 -1.4476 -1.7810
  433SOL     OW 1297   1.115   2.093   9.425  0.5547  0.0080  0.1848
  433SOL    HW1 1298   1.041   2.140   9.388  0.9976  0.2652 -0.3930
  433SOL    HW2 1299   1.174   2.078   9.351  1.0414 -0.2631  0.6156
  434SOL     OW 1300   4.026   3.872   8.329  0.2462  0.6081  0.0042
  434SOL    HW1 1301   4.070   3.944   8.374  1.1923 -0.6355  1.1087
  434SOL    HW2 1302   4.095   3.810   8.307 -0.6934 -0.5381  0.1469
  435SOL     OW 1303   4.301   3.106   9.214 -0.1509 -0.7556  0.5358
  435SOL    HW1 1304   4.233   3.054   9.257 -1.7892  0.9543  0.1334
  435SOL    HW2 1305   4.260   3.190   9.196  1.7957  0.0305 -0.6074
  436SOL     OW 1306   1.887   1.083   7.981  0.5561  0.2759 -0.5362
  436SOL    HW1 1307   1.905   1.000   8.025  1.2831 -0.4316 -2.0716
  436SOL    HW2 1308   1.860   1.058   7.893  0.4205  1.6719 -0.9150
  437SOL     OW 1309   1.603   2.238   9.826  0.5852 -0.2472  0.1240
  437SOL    HW1 1310   1.601   2.156   9.875  2.1016 -0.4231 -0.0460
  437SOL    HW2 1311   1.670   2.224   9.759  1.4806  1.4084  0.6223
  438SOL     OW 1312   0.705   0.543  10.245  0.4274  0.2422 -0.6086
  438SOL    HW1 1313   0.775   0.547  10.179  0.3529 -0.1983 -0.7145
  438SOL    HW2 1314   0.624   0.551  10.195  0.3747  0.0411 -0.5542
  439SOL     OW 1315   3.289   3.285   9.640 -0.0532  0.0187 -0.1910
  439SOL    HW1 1316   3.343   3.362   9.658 -0.1887 -0.0362  0.4853
  439SOL    HW2 1317   3.201   3.321   9.628  0.2973  0.2516 -2.5518
  440SOL     OW 1318   1.434   2.839   8.403  0.2668  0.1234 -0.1503
  440SOL    HW1 1319   1.361   2.902   8.404 -0.2678 -0.4889  0.4630
  440SOL    HW2 1320   1.402   2.766   8.350  0.4459 -0.1189  0.0684
  441SOL     OW 1321   3.860   0.600   9.486  1.2611 -0.6220 -0.4780
  441SOL    HW1 1322   3.856   0.676   9.544 -1.1554  0.0746 -1.4218
  441SOL    HW2 1323   3.881   0.527   9.544  1.5080  0.4290  0.8180
  442SOL     OW 1324   3.666   0.889   9.263 -0.2463  0.3165  0.3197
  442SOL    HW1 1325   3.634   0.978   9.280 -0.5156  0.1491  0.6990
  442SOL    HW2 1326   3.614   0.834   9.321 -0.8612 -0.2224 -0.7151
  443SOL     OW 1327   4.905   4.381   9.588  0.1084  0.0432 -0.6171
  443SOL    HW1 1328   4.817   4.418   9.590 -0.2615 -0.8314  0.5808
  443SOL    HW2 1329   4.960   4.450   9.626 -0.7910 -0.9983  2.9734
  444SOL     OW 1330   2.366   3.128   8.667 -0.4018  0.1296  0.2146
  444SOL    HW1 1331   2.398   3.218   8.661 -0.6444  0.1736 -0.6969
  444SOL    HW2 1332   2.271   3.136   8.656 -0.3892 -0.2578 -0.2307
  445SOL     OW 1333   2.510   0.414   7.715  0.5454  0.0471 -0.1468
  445SOL    HW1 1334   2.580   0.379   7.660  0.1748  0.2997 -0.8042
  445SOL    HW2 1335   2.431   0.372   7.680  0.3743 -0.2908  0.6333
  446SOL     OW 1336   4.659   2.763   9.578  0.5062  0.0302 -0.4578
  446SOL    HW1 1337   4.747   2.760   9.615  1.7242 -1.4457 -3.2153
  446SOL    HW2 1338   4.665   2.824   9.505 -0.7447 -0.1293 -0.7165
  447SOL     OW 1339   0.348   0.851   7.907 -0.4831  0.2347  0.5129
  447SOL    HW1 1340   0.309   0.777   7.859 -0.4589 -0.1347  1.0452
  447SOL    HW2 1341   0.440   0.827   7.916  0.1448  1.6228 -1.7123
  448SOL     OW 1342   0.984   2.040   9.879 -0.4506 -0.3610 -0.3478
  448SOL    HW1 1343   1.079   2.036   9.894 -0.4257 -1.8845 -0.7753
  448SOL    HW2 1344   0.973   2.102   9.807  0.4601 -1.9670 -1.9438
  449SOL     OW 1345   2.479   0.603   6.956  0.5084  0.0394 -0.1156
  449SOL    HW1 1346   2.552   0.596   7.018  2.5273 -0.1518 -2.3418
  449SOL    HW2 1347   2.493   0.687   6.912  0.5780 -0.8437 -1.8969
  450SOL     OW 1348   4.325   1.760  10.241  0.3272  0.2793  0.3055
  450SOL    HW1 1349   4.294   1.676  10.209 -0.4839  0.7416 -0.1453
  450SOL    HW2 1350   4.257   1.822  10.216  0.8097  1.0369  0.8275
  451SOL     OW 1351   2.953   2.358   8.492 -0.4731  0.3988  0.2875
  451SOL    HW1 1352   3.044   2.333   8.509 -0.1055  1.0157 -0.6796
  451SOL    HW2 1353   2.930   2.415   8.565 -0.6722 -1.1287  1.4609
  452SOL     OW 1354   2.391   1.965   9.031  0.4522 -0.5250 -0.3552
  452SOL    HW1 1355   2.302   1.930   9.033 -0.2641  1.1488  2.0846
  452SOL    HW2 1356   2.380   2.060   9.041  2.4894 -0.1269 -1.2676
  453SOL     OW 1357   0.975   4.292   8.265 -0.4728  0.4120  0.0841
  453SOL    HW1 1358   0.902   4.267   8.208 -0.3462  0.0104  0.0985
  453SOL    HW2 1359   0.958   4.246   8.347 -1.2687  1.8738  0.7889
  454SOL     OW 1360   4.971   0.313   7.921 -0.6459  0.0688  0.1356
  454SOL    HW1 1361   4.937   0.228   7.895  0.1307 -0.5098  0.9654
  454SOL    HW2 1362   4.913   0.376   7.878 -2.1253 -0.8754  0.6932
  455SOL     OW 1363   2.996   1.710   8.343  0.4305 -0.3372 -0.1723
  455SOL    HW1 1364   3.039   1.785   8.302  0.7283 -1.4469 -1.9715
  455SOL    HW2 1365   2.924   1.748   8.393 -0.5466  1.0601 -2.4912
  456SOL     OW 1366   3.756   1.543   9.610 -0.7923  0.9596 -0.2113
  456SOL    HW1 1367   3.823   1.595   9.565 -1.2944  0.8944 -1.0612
  456SOL    HW2 1368   3.804   1.468   9.646 -0.1441  1.7373  0.5945
  457SOL     OW 1369   0.362   3.303   9.244 -0.3001  0.1670  0.4361
  457SOL    HW1 1370   0.358   3.395   9.217 -0.3805  0.0635  0.0837
  457SOL    HW2 1371   0.395   3.257   9.166  0.6291  0.0159  0.9071
  458SOL     OW 1372   0.421   0.039   9.014  0.1160  0.1073  0.2609
  458SOL    HW1 1373   0.414  -0.057   9.020  0.0701  0.1835  2.3932
  458SOL    HW2 1374   0.468   0.055   8.933  2.1327 -1.8528  0.9326
  459SOL     OW 1375   1.484   1.378   8.089  0.0886  0.3128 -0.2447
  459SOL    HW1 1376   1.504   1.434   8.014  0.5379  2.7500  1.5605
  459SOL    HW2 1377   1.418   1.428   8.139  2.4793  0.6620  2.8795
  460SOL     OW 1378   0.733   2.354   9.525  0.3616 -0.5469 -0.4077
  460SOL    HW1 1379   0.678   2.427   9.496  1.7831 -0.1402 -2.3332
  460SOL    HW2 1380   0.715   2.285   9.461  1.5788 -0.6212 -0.6964
  461SOL     OW 1381   1.370   0.802   8.202  0.1968  0.4398  0.2998
  461SOL    HW1 1382   1.393   0.875   8.146  2.7836 -0.1626  0.4541
  461SOL    HW2 1383   1.363   0.840   8.290  0.2771  0.7022  0.1941
  462SOL     OW 1384   3.576   2.397   9.713  0.4790 -0.6581  0.1989
  462SOL    HW1 1385   3.512   2.360   9.652 -0.4943  1.4572 -0.1860
  462SOL    HW2 1386   3.534   2.393   9.799 -1.5619  3.1112 -0.3728
  463SOL     OW 1387   0.887   0.934   8.716  0.3169 -0.0591 -0.1120
  463SOL    HW1 1388   0.853   0.871   8.652  1.1653 -0.8376  0.1878
  463SOL    HW2 1389   0.958   0.888   8.760  0.7828  1.0160  0.3041
  464SOL     OW 1390   2.358   1.424   9.036 -0.4872 -0.4619 -0.1261
  464SOL    HW1 1391   2.299   1.360   9.075 -1.4332 -0.6779 -1.8144
  464SOL    HW2 1392   2.436   1.373   9.012 -1.4406 -1.1430 -1.9280
  465SOL     OW 1393   3.941   1.850   8.241 -0.1213  0.7750 -0.6319
  465SOL    HW1 1394   3.981   1.764   8.237  1.2012  1.4148 -2.4815
  465SOL    HW2 1395   3.847   1.833   8.251  0.3482 -0.7786  1.8551
  466SOL     OW 1396   4.195   3.282   8.312  0.6061 -0.4115  0.0342
  466SOL    HW1 1397   4.283   3.248   8.329  1.5996  2.0672  0.3233
  466SOL    HW2 1398   4.151   3.212   8.264  2.3450 -2.1606  0.8487
  467SOL     OW 1399   2.673   0.238   9.201 -0.2778 -0.7852  0.2248
  467SOL    HW1 1400   2.606   0.267   9.263  0.0881 -2.6355  1.5470
  467SOL    HW2 1401   2.726   0.175   9.249  1.2443 -0.8287 -1.3907
  468SOL     OW 1402   2.316   0.709   8.619 -0.3914 -0.6543  0.5391
  468SOL    HW1 1403   2.410   0.698   8.603 -0.5514  1.1964 -2.3930
  468SOL    HW2 1404   2.274   0.649   8.557 -1.1580  0.0048  0.4097
  469SOL     OW 1405   1.821   4.099   8.661  0.1218 -0.5621  0.1143
  469SOL    HW1 1406   1.815   4.168   8.727  0.3036 -1.6027  1.2513
  469SOL    HW2 1407   1.872   4.030   8.703 -3.1723 -3.0229  0.4766
  470SOL     OW 1408   4.443   3.761   9.580 -0.1742  0.4482 -0.0294
  470SOL    HW1 1409   4.471   3.670   9.569 -1.4435  0.3124 -3.5679
  470SOL    HW2 1410   4.439   3.795   9.490 -2.3174  3.1824  0.9766
  471SOL     OW 1411   2.122   3.219   9.710  0.6287 -0.0079  0.1605
  471SOL    HW1 1412   2.193   3.283   9.719  1.1643 -0.8491  2.6459
  471SOL    HW2 1413   2.166   3.136   9.695  0.0545 -0.2740 -0.0944
  472SOL     OW 1414   2.822   1.213   9.764  0.3437 -0.6949 -0.3060
  472SOL    HW1 1415   2.743   1.231   9.816  1.7176 -0.2132  1.7314
  472SOL    HW2 1416   2.840   1.295   9.718  0.0878 -0.5700 -0.1857
  473SOL     OW 1417   2.343   0.279   9.214  0.8555  0.2774 -0.3496
  473SOL    HW1 1418   2.376   0.368   9.221 -0.9046  1.0920 -1.8178
  473SOL    HW2 1419   2.358   0.254   9.123 -0.8544  0.0302 -0.6065
  474SOL     OW 1420   1.727   4.942   8.108 -0.1197 -0.0248  0.0057
  474SOL    HW1 1421   1.767   4.885   8.173 -0.7516 -0.6150 -0.1118
  474SOL    HW2 1422   1.643   4.901   8.089 -0.7842  1.1805  0.2424
  475SOL     OW 1423   4.690   3.944   8.344 -0.0157 -0.2152 -0.3997
  475SOL    HW1 1424   4.620   4.000   8.310  0.8565  0.3243 -1.3682
  475SOL    HW2 1425   4.715   3.890   8.269  0.9840 -0.0063 -0.2218
  476SOL     OW 1426   2.130   0.560   8.005 -0.1419  0.6251 -0.2567
  476SOL    HW1 1427   2.055   0.502   8.000 -0.1047  0.6621 -1.2776
  476SOL    HW2 1428   2.150   0.583   7.915  2.9792 -1.8128 -0.3916
  477SOL     OW 1429   4.839   4.595   8.168 -0.6343  0.0216  0.0060
  477SOL    HW1 1430   4.830   4.634   8.081 -0.6446  1.4294  0.6146
  477SOL    HW2 1431   4.873   4.666   8.223  0.2725 -1.1012  0.9520
  478SOL     OW 1432   0.410   3.871   8.442  0.3911 -0.1234  0.4892
  478SOL    HW1 1433   0.394   3.781   8.415  0.8823 -0.0545 -0.0439
  478SOL    HW2 1434   0.467   3.907   8.374  1.3757  0.1543  1.4404
  479SOL     OW 1435   1.504   1.996   8.530 -0.4257  0.3635 -0.7433
  479SOL    HW1 1436   1.598   1.983   8.539 -0.4160 -0.1919 -1.5814
  479SOL    HW2 1437   1.494   2.087   8.502 -0.1264  0.3372 -0.9339
  480SOL     OW 1438   2.927   2.438   9.723  0.2084  0.2772 -0.4739
  480SOL    HW1 1439   2.912   2.527   9.691 -1.2399 -0.1212 -0.9778
  480SOL    HW2 1440   2.841   2.396   9.718  0.3951 -0.5070  1.8001
  481SOL     OW 1441   0.731   2.357   9.822 -0.1044  0.0467 -0.4601
  481SOL    HW1 1442   0.799   2.307   9.777 -0.4639 -0.1738 -0.7551
  481SOL    HW2 1443   0.778   2.398   9.895  0.9663  2.1551 -2.2094
  482SOL     OW 1444   1.075   2.748   9.279 -0.1179  0.8111 -1.2956
  482SOL    HW1 1445   1.099   2.695   9.203  0.5564  0.5185 -0.8890
  482SOL    HW2 1446   1.158   2.766   9.323 -0.6447 -0.4652  0.3092
  483SOL     OW 1447   1.737   1.395   9.691  0.9562  0.2318  0.1872
  483SOL    HW1 1448   1.715   1.481   9.655 -0.8133 -0.2972 -0.1106
  483SOL    HW2 1449   1.763   1.413   9.782  1.3691  1.1496 -0.1061
  484SOL     OW 1450   1.434   2.237   7.627 -0.1850  0.2218  0.1044
  484SOL    HW1 1451   1.482   2.227   7.710 -1.0053 -2.5214  0.3510
  484SOL    HW2 1452   1.498   2.213   7.560 -0.0973  0.4558  0.1036
  485SOL     OW 1453   1.201   0.075   9.859 -0.3100 -0.0567 -0.3542
  485SOL    HW1 1454   1.206   0.100   9.767  0.3068 -1.5390 -0.7652
  485SOL    HW2 1455   1.274   0.120   9.901  0.4286 -0.6781 -0.9447
  486SOL     OW 1456   2.854   2.976   8.097 -0.4689 -0.2681 -0.3455
  486SOL    HW1 1457   2.822   2.931   8.019  1.0228 -1.2773 -0.4181
  486SOL    HW2 1458   2.775   2.995   8.148 -1.2359 -2.1351 -0.7601
  487SOL     OW 1459   2.748   3.965   8.691 -0.1849 -0.5659  0.2225
  487SOL    HW1 1460   2.708   3.909   8.624 -0.5149 -1.0148  0.7817
  487SOL    HW2 1461   2.674   4.012   8.730 -0.0618 -0.7263  0.6529
  488SOL     OW 1462   3.645   1.838   8.312  0.3975 -0.2284 -0.1248
  488SOL    HW1 1463   3.556   1.802   8.319  0.1041  0.1924 -1.5140
  488SOL    HW2 1464   3.653   1.895   8.389  0.1719 -1.7167  1.0416
  489SOL     OW 1465  -0.026   2.658   9.995  0.1787  0.1265 -0.3644
  489SOL    HW1 1466   0.061   2.689  10.018 -0.2960  1.9309 -0.8140
  489SOL    HW2 1467  -0.028   2.659   9.899  0.1496 -1.4130 -0.4052
  490SOL     OW 1468   0.846   0.338   8.398 -0.2470 -0.1417  0.0003
  490SOL    HW1 1469   0.867   0.401   8.329 -1.1766  0.5735  0.3378
  490SOL    HW2 1470   0.894   0.259   8.374 -1.7372 -0.4526 -2.3319
  491SOL     OW 1471   0.035   0.413   7.435 -0.2825  0.4438 -0.0899
  491SOL    HW1 1472  -0.016   0.493   7.449 -0.7200  0.0906  0.3798
  491SOL    HW2 1473   0.073   0.393   7.521  0.5411  0.6197 -0.3994
  492SOL     OW 1474   1.626   2.066   9.284  0.2412  0.2323 -0.1104
  492SOL    HW1 1475   1.545   2.042   9.239  0.8788 -1.0345 -0.6321
  492SOL    HW2 1476   1.669   2.127   9.225 -0.8145  1.7879  0.6641
  493SOL     OW 1477   0.276   3.947   9.944  0.2344  0.2553 -0.1913
  493SOL    HW1 1478   0.333   3.957  10.020  2.3590  1.2743 -1.8196
  493SOL    HW2 1479   0.285   3.855   9.919  0.2013  0.1279  0.2556
  494SOL     OW 1480   0.907   1.966   8.569  0.8231 -0.3667 -0.4452
  494SOL    HW1 1481   0.941   1.910   8.500  2.7028  0.1884 -0.0196
  494SOL    HW2 1482   0.840   1.913   8.613  1.3479 -1.6304 -1.1260
  495SOL     OW 1483   2.731   0.219   8.910 -0.4437 -0.0531 -0.2220
  495SOL    HW1 1484   2.658   0.217   8.972 -1.4669  0.0178 -1.3930
  495SOL    HW2 1485   2.733   0.131   8.872  1.6948 -0.8789  1.5568
  496SOL     OW 1486   0.529   2.977   8.047 -0.0610 -0.0438 -0.1983
  496SOL    HW1 1487   0.609   2.927   8.033  2.0414  3.0080 -0.0273
  496SOL    HW2 1488   0.510   3.016   7.962  0.4574  1.6667  0.4294
  497SOL     OW 1489   4.968   1.644   9.482 -0.7580 -0.1468  0.0018
  497SOL    HW1 1490   4.946   1.721   9.430  0.3347  0.0715 -0.1516
  497SOL    HW2 1491   5.006   1.679   9.563 -3.0024 -0.4614  1.2793
  498SOL     OW 1492   0.809   0.084   7.357 -0.2729  0.1790 -0.4719
  498SOL    HW1 1493   0.721   0.046   7.363  0.3031 -1.0063  1.1812
  498SOL    HW2 1494   0.853   0.032   7.289 -0.6323  0.3510 -0.8426
  499SOL     OW 1495   1.880   4.774  10.135  0.0330 -0.4963 -0.1515
  499SOL    HW1 1496   1.964   4.808  10.166  0.1258 -1.8170  1.1715
  499SOL    HW2 1497   1.816   4.805  10.199 -0.4556  0.2609 -0.9953
  500SOL     OW 1498   2.130   1.731   7.404  0.3483 -0.0432  0.1759
  500SOL    HW1 1499   2.155   1.802   7.464 -0.1891  1.3675 -1.2051
  500SOL    HW2 1500   2.203   1.670   7.408  1.0261  0.7830  1.0988
  501SOL     OW 1501   3.944   2.558   9.373  0.4566 -0.3892 -0.0832
  501SOL    HW1 1502   4.000   2.504   9.317 -1.2815 -1.8081 -0.5597
  501SOL    HW2 1503   3.855   2.535   9.347 -0.3796  2.2041  0.2589
  502SOL     OW 1504   4.929   1.145  10.394 -0.4629  0.1412  0.2509
  502SOL    HW1 1505   4.866   1.108  10.456 -1.4437 -0.9459 -1.3229
  502SOL    HW2 1506   4.889   1.228  10.366 -0.2739  0.3725  0.6555
  503SOL     OW 1507   2.522   2.711   9.949  0.3113  0.1779  0.5225
  503SOL    HW1 1508   2.461   2.637   9.944 -0.3800  0.7821 -0.2264
  503SOL    HW2 1509   2.469   2.787   9.925  1.7452  0.5139 -1.8197
  504SOL     OW 1510   0.276   0.402   8.488  0.2421  0.2089 -0.6243
  504SOL    HW1 1511   0.326   0.322   8.473 -0.4239 -0.4187  0.4128
  504SOL    HW2 1512   0.207   0.401   8.421 -1.7280 -1.7463  1.2810
  505SOL     OW 1513   0.615   4.132   9.098 -0.1866  0.7355  0.2408
  505SOL    HW1 1514   0.693   4.180   9.125  0.7945 -1.0948  0.8643
  505SOL    HW2 1515   0.609   4.059   9.161 -1.6942  0.1476 -0.5322
  506SOL     OW 1516   2.447   0.808   9.886 -0.1982  0.0815  0.7035
  506SOL    HW1 1517   2.389   0.876   9.919 -2.0956 -0.3402 -1.5231
  506SOL    HW2 1518   2.477   0.840   9.801  1.2267 -0.6348  0.9007
  507SOL     OW 1519   1.295   1.012   9.512  0.1322  0.1141  0.0584
  507SOL    HW1 1520   1.376   0.968   9.539 -0.6871 -0.6765  1.3224
  507SOL    HW2 1521   1.279   1.077   9.581  0.0161  0.6933 -0.5077
  508SOL     OW 1522   0.750   4.733   9.049  0.0980  0.0061  0.5111
  508SOL    HW1 1523   0.697   4.742   8.970 -0.3632 -0.8830  0.7056
  508SOL    HW2 1524   0.716   4.799   9.109 -1.3781 -1.0598  0.9296
  509SOL     OW 1525   2.624   0.128   9.534 -0.2182 -0.7244  0.2169
  509SOL    HW1 1526   2.674   0.087   9.463 -0.3852  0.9876 -0.9406
  509SOL    HW2 1527   2.679   0.118   9.611  0.8672 -0.8911 -0.5647
  510SOL     OW 1528   1.091   3.690   5.331  0.3231 -0.5576  0.2802
  510SOL    HW1 1529   1.007   3.655   5.305 -0.0223 -0.0801  0.7235
  510SOL    HW2 1530   1.107   3.762   5.270 -0.0371 -0.0473  0.7837
  511SOL     OW 1531   2.412   4.555  10.069 -0.2861 -0.3724 -0.2956
  511SOL    HW1 1532   2.356   4.609  10.124  0.6128  1.1467 -0.8342
  511SOL    HW2 1533   2.501   4.581  10.091  0.1912 -1.7418 -0.4752
  512SOL     OW 1534   4.703   2.534   8.590 -0.3345  0.3305 -0.0170
  512SOL    HW1 1535   4.615   2.529   8.629 -0.4423  1.4358 -0.1005
  512SOL    HW2 1536   4.758   2.570   8.660 -0.0669  0.2314 -0.1746
  513SOL     OW 1537   0.264   3.136   8.736  0.4454 -0.0481  0.2517
  513SOL    HW1 1538   0.187   3.100   8.780 -0.9270  1.5492 -0.7118
  513SOL    HW2 1539   0.314   3.178   8.805  0.9654 -1.8760  1.0395
  514SOL     OW 1540   0.457   1.998   9.292 -0.1083  0.1278  0.4492
  514SOL    HW1 1541   0.465   1.932   9.362 -0.9749 -0.7950 -0.2896
  514SOL    HW2 1542   0.372   1.980   9.252 -0.0259  1.2358 -0.2622
  515SOL     OW 1543   4.567   1.642  10.067 -0.1861  0.2712  0.1258
  515SOL    HW1 1544   4.639   1.600  10.113 -0.6222  0.2598  0.8027
  515SOL    HW2 1545   4.509   1.675  10.136 -2.3255 -2.2052 -0.3503
  516SOL     OW 1546   1.458   2.271  10.233  0.3039  0.0609  0.7320
  516SOL    HW1 1547   1.390   2.332  10.262 -0.7042 -1.6788  2.2915
  516SOL    HW2 1548   1.540   2.318  10.249 -0.4493  1.7922 -0.1711
  517SOL     OW 1549   2.398   2.245   9.418 -0.2588 -0.6362 -0.4203
  517SOL    HW1 1550   2.478   2.218   9.372  0.6152  0.5199  0.3346
  517SOL    HW2 1551   2.426   2.319   9.472 -2.0908  0.5065 -0.9481
  518SOL     OW 1552   4.417   2.611   9.554 -0.8322 -0.4702  0.3692
  518SOL    HW1 1553   4.374   2.645   9.633  0.6919 -1.1641  1.5520
  518SOL    HW2 1554   4.510   2.624   9.570 -0.1647 -4.2392  0.5197
  519SOL     OW 1555   0.976   1.319   9.285 -0.3056 -0.3136  0.1375
  519SOL    HW1 1556   0.934   1.405   9.298  0.5905  0.3985 -1.3914
  519SOL    HW2 1557   0.914   1.257   9.323 -2.0040  0.8371 -0.5905
  520SOL     OW 1558   3.972   3.618   8.826 -0.0460 -0.3860  0.0379
  520SOL    HW1 1559   4.064   3.599   8.845 -0.1908  1.8315  3.9438
  520SOL    HW2 1560   3.923   3.543   8.859  0.2362 -0.4832  0.2347
  521SOL     OW 1561   1.150   1.090   9.942 -0.0034  0.5492  0.2521
  521SOL    HW1 1562   1.080   1.025   9.933  0.6375 -0.1755  0.3507
  521SOL    HW2 1563   1.106   1.169   9.973 -0.4079 -0.6901  3.1444
  522SOL     OW 1564   0.921   1.581   9.281 -0.2432 -0.2336  0.1735
  522SOL    HW1 1565   0.925   1.631   9.363  0.1961  0.0368 -0.0075
  522SOL    HW2 1566   0.903   1.646   9.214  0.9826 -0.2061 -0.1483
  523SOL     OW 1567   1.029   3.332   8.892  0.1866 -0.2069  0.5462
  523SOL    HW1 1568   0.957   3.337   8.954 -0.0298 -0.0734  0.2842
  523SOL    HW2 1569   1.086   3.405   8.916 -0.8034  0.9558 -0.5455
  524SOL     OW 1570   3.754   1.157   8.816  0.0947  0.2270 -0.2014
  524SOL    HW1 1571   3.806   1.077   8.825  0.2537  0.3150 -0.3429
  524SOL    HW2 1572   3.779   1.210   8.892 -0.2157  0.0271  0.0447
  525SOL     OW 1573   0.185   4.190   7.829 -0.0813  0.1062 -0.3301
  525SOL    HW1 1574   0.171   4.118   7.767  0.1660  0.2169 -0.5172
  525SOL    HW2 1575   0.127   4.170   7.902 -0.6138  0.1346 -0.7375
  526SOL     OW 1576   2.279   4.848   9.978 -0.4034  0.4671  0.2625
  526SOL    HW1 1577   2.318   4.817   9.897  1.5903  0.7148  1.0602
  526SOL    HW2 1578   2.307   4.939   9.985 -0.1152  0.3166  1.4298
  527SOL     OW 1579   2.046   1.136   8.447  0.2403  0.5950  0.1606
  527SOL    HW1 1580   2.114   1.077   8.482  0.5186  1.7845  1.7131
  527SOL    HW2 1581   2.058   1.132   8.352 -2.0184 -4.5750 -0.2382
  528SOL     OW 1582   3.121   2.456   8.844 -0.1463 -0.5021 -0.0912
  528SOL    HW1 1583   3.144   2.545   8.868  0.6082 -0.3946 -1.1372
  528SOL    HW2 1584   3.067   2.466   8.766  2.0435 -1.0093 -1.7775
  529SOL     OW 1585   2.675   2.615   8.518 -0.3973 -0.6588 -0.0939
  529SOL    HW1 1586   2.594   2.588   8.561 -0.6488  0.4364  0.1405
  529SOL    HW2 1587   2.647   2.675   8.448  0.2698  0.6242  0.7037
  530SOL     OW 1588   0.877   0.504  10.036  0.2786  0.0609 -0.0635
  530SOL    HW1 1589   0.800   0.489   9.981 -0.6605  0.5737  1.0684
  530SOL    HW2 1590   0.933   0.561   9.984 -0.4272  0.2482 -0.6309
  531SOL     OW 1591   2.564   2.615   9.286  0.4071  0.0947 -0.1848
  531SOL    HW1 1592   2.565   2.576   9.198 -2.3311  0.9948 -0.7107
  531SOL    HW2 1593   2.655   2.639   9.303  1.0657 -0.4484 -2.6019
  532SOL     OW 1594   1.196   0.271   8.683 -0.4617 -0.1445 -0.4487
  532SOL    HW1 1595   1.171   0.240   8.770 -1.5339  1.5747 -0.1028
  532SOL    HW2 1596   1.211   0.365   8.694 -0.0473  0.0039 -2.0114
  533SOL     OW 1597   4.399   4.569   9.853 -0.2994  0.0417 -0.1048
  533SOL    HW1 1598   4.420   4.500   9.916  1.7186  0.6943  0.0258
  533SOL    HW2 1599   4.417   4.529   9.768 -1.0539 -0.2037 -0.1519
  534SOL     OW 1600   0.040   1.009  10.159 -0.1385 -0.2551 -0.0959
  534SOL    HW1 1601   0.136   1.002  10.157 -0.1606 -0.5019 -1.9561
  534SOL    HW2 1602   0.023   1.071  10.230  1.3543 -0.7774  0.7697
  535SOL     OW 1603   2.377   1.405   8.577  0.0548 -0.3430 -0.1332
  535SOL    HW1 1604   2.424   1.403   8.494  0.1450  0.9955 -0.1408
  535SOL    HW2 1605   2.443   1.429   8.642 -0.1995 -0.4902  0.1846
  536SOL     OW 1606   3.850   1.128   9.531 -0.5983 -0.6258 -0.0798
  536SOL    HW1 1607   3.900   1.120   9.450 -0.9896 -0.8466 -0.3040
  536SOL    HW2 1608   3.854   1.222   9.552 -1.2471 -0.4171 -0.8442
  537SOL     OW 1609   0.720   4.833   9.963 -0.0203 -0.4992 -0.0514
  537SOL    HW1 1610   0.771   4.795   9.892  0.0730  0.5795 -0.5933
  537SOL    HW2 1611   0.781   4.841  10.036 -0.3377 -2.4145  0.4650
  538SOL     OW 1612   1.667   0.932   8.550  0.8772 -0.0318  0.0878
  538SOL    HW1 1613   1.676   0.990   8.475 -1.9182 -0.6479 -0.8450
  538SOL    HW2 1614   1.718   0.855   8.527  0.5373  0.0332 -0.9128
  539SOL     OW 1615   3.871   1.557   9.116 -0.7006 -0.9681 -0.4294
  539SOL    HW1 1616   3.954   1.585   9.155 -1.8999 -0.2344  1.7595
  539SOL    HW2 1617   3.894   1.482   9.063  1.7238  0.6193 -1.8115
  540SOL     OW 1618   1.596   0.374   7.818 -0.3668  0.5269  0.1539
  540SOL    HW1 1619   1.511   0.399   7.779 -1.0286 -1.0263  0.5245
  540SOL    HW2 1620   1.572   0.323   7.895  0.9387  1.8453  1.4804
  541SOL     OW 1621   1.365   3.001   9.706  0.1173 -0.3815  0.4720
  541SOL    HW1 1622   1.369   3.006   9.611  0.0031 -2.7472  0.2893
  541SOL    HW2 1623   1.450   3.033   9.736  0.0538  0.6428 -0.3877
  542SOL     OW 1624   4.577   4.135   8.137  0.1603 -0.1948  0.6470
  542SOL    HW1 1625   4.620   4.209   8.180 -1.2927  1.8273 -1.1337
  542SOL    HW2 1626   4.484   4.156   8.142 -0.1732 -0.7760 -1.7836
  543SOL     OW 1627   4.316   1.329   9.179 -0.0479 -0.0305 -1.1820
  543SOL    HW1 1628   4.390   1.356   9.233 -0.7639 -0.9301  0.3244
  543SOL    HW2 1629   4.334   1.237   9.160 -0.5485 -0.1319 -1.1716
  544SOL     OW 1630   3.544   1.892   8.610 -0.3942 -0.1684 -0.2122
  544SOL    HW1 1631   3.506   1.827   8.669 -2.1848  0.2394 -0.8640
  544SOL    HW2 1632   3.590   1.953   8.668  0.6539 -1.5607  0.4645
  545SOL     OW 1633   2.941   4.830   6.043  0.3600 -0.2954 -0.2212
  545SOL    HW1 1634   2.937   4.847   5.949  2.6111 -0.3848 -0.3800
  545SOL    HW2 1635   3.018   4.879   6.073  0.6335 -1.5577  1.2702
  546SOL     OW 1636   4.633   2.821   8.461  0.2725  0.0344 -0.0351
  546SOL    HW1 1637   4.699   2.752   8.475 -0.2085 -0.6137 -0.8549
  546SOL    HW2 1638   4.622   2.824   8.366  0.1519  1.1286  0.0118
  547SOL     OW 1639   1.645   5.007   6.038  0.0154  0.3741  0.5137
  547SOL    HW1 1640   1.639   4.924   6.086 -0.0727 -1.0492 -1.7996
  547SOL    HW2 1641   1.571   5.004   5.977  0.6765  1.6466 -0.3789
  548SOL     OW 1642   0.936   2.021   9.021  0.1268 -0.5371  0.3381
  548SOL    HW1 1643   0.853   2.068   9.018  0.4168  0.0351  1.0250
  548SOL    HW2 1644   0.978   2.039   8.937  0.9216  1.7317  1.1521
  549SOL     OW 1645   3.730   2.127   8.421  0.5899  0.5567 -0.1995
  549SOL    HW1 1646   3.700   2.145   8.511 -0.1552 -0.3640 -0.2457
  549SOL    HW2 1647   3.814   2.173   8.414  0.4967  0.9219  0.8541
  550SOL     OW 1648   0.970   0.882   9.456 -0.4657  0.3399 -0.5347
  550SOL    HW1 1649   0.898   0.853   9.399  0.7948 -0.9493 -1.5381
  550SOL    HW2 1650   1.040   0.907   9.396  0.7032 -0.5381  0.4173
  551SOL     OW 1651   1.595   4.644   8.836 -0.2458  0.0709 -0.8587
  551SOL    HW1 1652   1.510   4.642   8.879  0.2955  0.2225  0.2558
  551SOL    HW2 1653   1.654   4.601   8.897  1.0759  2.6275 -0.1716
  552SOL     OW 1654   1.205   0.045   8.276 -0.1983 -0.7763 -0.2304
  552SOL    HW1 1655   1.246  -0.026   8.326  1.2235  0.0320 -0.1946
  552SOL    HW2 1656   1.171   0.003   8.198 -0.8618 -1.7660  0.5748
  553SOL     OW 1657   0.177   1.852   9.356 -0.3803 -0.5296  0.5369
  553SOL    HW1 1658   0.199   1.806   9.436 -0.2108  0.2196  0.9281
  553SOL    HW2 1659   0.160   1.942   9.383  1.8690  0.3035 -0.5364
  554SOL     OW 1660   3.336   0.314   8.491 -0.3893 -0.0499  0.5877
  554SOL    HW1 1661   3.315   0.377   8.560  3.0716  2.0940 -0.0543
  554SOL    HW2 1662   3.325   0.363   8.410  0.2252 -0.9703 -0.0772
  555SOL     OW 1663   1.392   2.420   9.769 -0.0936 -0.2819  0.5100
  555SOL    HW1 1664   1.478   2.395   9.803 -0.9262 -1.2935  1.9547
  555SOL    HW2 1665   1.343   2.338   9.765 -1.4861  0.4952  1.1794
  556SOL     OW 1666   1.146   1.850   9.573  0.1116  0.1504  0.3598
  556SOL    HW1 1667   1.135   1.933   9.526  1.6740 -0.2266 -0.7608
  556SOL    HW2 1668   1.059   1.812   9.575 -0.6033  1.7314  0.7403
  557SOL     OW 1669   1.124   1.669   9.964 -0.0434  0.1120  0.0992
  557SOL    HW1 1670   1.061   1.733  10.000 -0.0873  0.1861 -0.1085
  557SOL    HW2 1671   1.202   1.721   9.947  1.1525 -0.4705  3.0814
  558SOL     OW 1672   3.282   1.456   9.744  0.1092  0.0328 -0.0434
  558SOL    HW1 1673   3.328   1.394   9.686 -1.4399 -0.8432 -0.4125
  558SOL    HW2 1674   3.257   1.403   9.819 -2.3287 -0.1853 -0.9239
  559SOL     OW 1675   3.091   3.559   9.297 -0.4436 -0.5055  0.5983
  559SOL    HW1 1676   3.059   3.595   9.215  0.6480 -0.4420  0.1836
  559SOL    HW2 1677   3.095   3.465   9.282 -0.6248 -0.5353  0.7255
  560SOL     OW 1678   1.092   0.839   9.679  0.5928 -0.3292 -0.5621
  560SOL    HW1 1679   1.184   0.858   9.659  0.4778  1.5269  0.5116
  560SOL    HW2 1680   1.049   0.840   9.594  1.5158 -1.0397 -1.0621
  561SOL     OW 1681   1.829   0.867   9.860  0.0708  0.0594 -0.1992
  561SOL    HW1 1682   1.890   0.915   9.916  2.5257 -1.0023 -1.8315
  561SOL    HW2 1683   1.769   0.934   9.827 -0.0384  1.0477  1.8652
  562SOL     OW 1684   3.235   2.087   8.374  0.2038 -0.3938 -0.2140
  562SOL    HW1 1685   3.141   2.095   8.357  0.6913 -0.1602 -3.2484
  562SOL    HW2 1686   3.255   1.996   8.352  1.0943  0.2336 -2.1711
  563SOL     OW 1687   0.918   2.249   9.669  0.5097 -0.4191  0.5909
  563SOL    HW1 1688   0.852   2.290   9.614 -0.0845 -1.6857  0.3152
  563SOL    HW2 1689   0.998   2.299   9.652 -0.4421  1.4104  1.2600
  564SOL     OW 1690   3.996   0.374   9.153  0.0421 -0.3435 -0.1007
  564SOL    HW1 1691   4.059   0.335   9.214 -0.6370  1.9345  2.2224
  564SOL    HW2 1692   3.911   0.346   9.186 -0.2988 -0.1068 -0.7726
  565SOL     OW 1693   0.392   1.055   9.174 -0.2254 -0.5438  0.2179
  565SOL    HW1 1694   0.390   1.088   9.264  2.3749  1.7380 -0.4270
  565SOL    HW2 1695   0.412   0.962   9.183  0.8414 -0.1885  2.0225
  566SOL     OW 1696   1.559   0.972   8.825 -0.0299  0.1168  0.1182
  566SOL    HW1 1697   1.610   0.950   8.747  1.2839 -0.9000  1.2070
  566SOL    HW2 1698   1.488   0.908   8.827  0.7115 -0.7192  0.4402
  567SOL     OW 1699   0.819   4.211   8.082 -0.3541 -0.4056  0.1974
  567SOL    HW1 1700   0.790   4.158   8.007 -1.0446 -0.7649  0.7077
  567SOL    HW2 1701   0.760   4.287   8.082 -1.3173 -1.1216  1.2195
  568SOL     OW 1702   4.825   0.014   8.526  0.2799 -0.2866  0.1341
  568SOL    HW1 1703   4.753   0.077   8.520  0.5192 -0.0092  0.1557
  568SOL    HW2 1704   4.891   0.058   8.580  1.1351  0.1163 -1.1903
  569SOL     OW 1705   3.057   4.522   9.770  0.5239  0.0304 -0.2384
  569SOL    HW1 1706   3.017   4.607   9.752  0.2945 -0.5415 -3.0106
  569SOL    HW2 1707   2.983   4.463   9.786  0.4103 -0.2678 -1.6712
  570SOL     OW 1708   4.842   0.157   8.257  0.0837 -0.3981 -0.4668
  570SOL    HW1 1709   4.817   0.071   8.223 -1.1459 -0.7041  1.0484
  570SOL    HW2 1710   4.761   0.191   8.296  1.0861  0.4119  1.0110
  571SOL     OW 1711   0.407   1.416   8.761  0.0198 -0.3651 -0.8339
  571SOL    HW1 1712   0.406   1.337   8.816 -1.4715  0.0392 -0.2205
  571SOL    HW2 1713   0.452   1.482   8.814  0.6917 -0.6170 -1.0822
  572SOL     OW 1714   3.008   1.633   5.775  0.5500  0.1036  0.2304
  572SOL    HW1 1715   3.090   1.642   5.824  1.6449  0.8930 -1.6295
  572SOL    HW2 1716   2.956   1.709   5.800  0.9557  0.3189  0.4298
  573SOL     OW 1717   1.997   0.994   6.014 -0.2760  0.1318  0.1811
  573SOL    HW1 1718   2.000   1.061   6.081 -0.8853  0.5889 -0.2346
  573SOL    HW2 1719   1.906   0.964   6.013 -0.1567 -0.2382 -0.0782
  574SOL     OW 1720   4.769   0.576   6.569 -0.1705  0.4180  0.1470
  574SOL    HW1 1721   4.808   0.544   6.488  0.1113 -2.2920  1.2459
  574SOL    HW2 1722   4.676   0.589   6.548 -0.0758 -0.1319 -0.6325
  575SOL     OW 1723   0.819   0.847   6.414 -0.4593  0.3438  0.1039
  575SOL    HW1 1724   0.829   0.915   6.348 -0.1451  0.8770  0.6894
  575SOL    HW2 1725   0.904   0.844   6.458 -0.2544 -0.8890 -0.3479
  576SOL     OW 1726   2.274   2.411   5.162  0.5811 -0.2797  0.3394
  576SOL    HW1 1727   2.340   2.422   5.094 -0.2317 -1.0157 -0.5842
  576SOL    HW2 1728   2.191   2.427   5.118 -0.0175 -1.5253  0.9577
  577SOL     OW 1729   0.354   2.144   5.344 -0.1233  0.5195  0.0939
  577SOL    HW1 1730   0.417   2.122   5.275 -2.0913 -1.7787 -1.1307
  577SOL    HW2 1731   0.352   2.240   5.345  1.0868  0.6369 -2.0114
  578SOL     OW 1732   1.008   2.346   5.545 -0.4481 -0.0419  0.4496
  578SOL    HW1 1733   1.085   2.325   5.599 -0.1211  0.1092  0.0453
  578SOL    HW2 1734   1.035   2.422   5.494 -0.3124 -0.9239 -0.8384
  579SOL     OW 1735   1.956   3.425   5.909  0.2959  0.3213  0.2890
  579SOL    HW1 1736   1.879   3.376   5.882  1.4387  0.0557 -2.8197
  579SOL    HW2 1737   1.997   3.369   5.976 -1.6455  0.0635  1.3535
  580SOL     OW 1738   2.518   4.042   7.536 -0.1510 -0.3576  0.1642
  580SOL    HW1 1739   2.438   4.045   7.588 -0.4149 -0.3484 -0.2406
  580SOL    HW2 1740   2.520   4.126   7.490 -0.2580 -0.6338 -0.3446
  581SOL     OW 1741   0.935   3.744   7.076  0.5134 -0.3551 -0.2215
  581SOL    HW1 1742   0.855   3.701   7.045 -1.0000  0.1830  2.6608
  581SOL    HW2 1743   0.948   3.710   7.165  0.8339  2.9525  1.1343
  582SOL     OW 1744   1.558   2.490   7.507  0.1254  0.0939  0.1810
  582SOL    HW1 1745   1.524   2.408   7.543  0.2479  0.5764  1.4166
  582SOL    HW2 1746   1.494   2.515   7.441  0.2175 -1.1241 -0.4139
  583SOL     OW 1747   0.948   4.911   8.957 -0.5540 -0.0777  0.0758
  583SOL    HW1 1748   0.938   4.865   9.041  0.0031 -0.3792 -0.0211
  583SOL    HW2 1749   0.858   4.936   8.933 -0.7860 -0.5218  0.4637
  584SOL     OW 1750   2.963   2.165   5.905  0.1444 -0.2070  0.5090
  584SOL    HW1 1751   2.892   2.117   5.948 -0.9244  0.7345 -0.1591
  584SOL    HW2 1752   2.922   2.205   5.829  1.2033  1.0815  0.5841
  585SOL     OW 1753   1.061   2.022   7.995 -0.3577  0.0733 -0.8952
  585SOL    HW1 1754   1.063   2.117   7.982  2.1351  0.0473 -1.1806
  585SOL    HW2 1755   1.045   2.011   8.088  1.5320  0.8962 -0.4265
  586SOL     OW 1756   1.925   4.970   6.779 -0.5424  0.2480 -0.5830
  586SOL    HW1 1757   1.847   4.915   6.779  0.2491 -0.9425  1.1523
  586SOL    HW2 1758   1.900   5.048   6.828 -1.1854  0.7675 -1.6940
  587SOL     OW 1759   4.078   1.816   6.800  0.1357 -0.4370  0.0853
  587SOL    HW1 1760   4.050   1.904   6.825 -1.6217 -0.5443 -1.3205
  587SOL    HW2 1761   4.050   1.760   6.873 -1.6801 -0.2437 -0.4093
  588SOL     OW 1762   0.358   1.652   7.746 -0.1824 -0.0476  0.5039
  588SOL    HW1 1763   0.370   1.665   7.652 -1.4752  0.7069  0.4232
  588SOL    HW2 1764   0.275   1.695   7.766 -0.7296 -1.5658  1.7059
  589SOL     OW 1765   1.097   3.086   6.974 -0.5528  0.2281  0.1566
  589SOL    HW1 1766   1.181   3.087   6.928  0.5709 -0.0573  2.0807
  589SOL    HW2 1767   1.120   3.065   7.064 -2.6602  0.6419  0.8389
  590SOL     OW 1768   0.318   1.921   6.986  0.5451  0.6338  0.1543
  590SOL    HW1 1769   0.398   1.876   6.961  0.0028  0.3243 -1.1042
  590SOL    HW2 1770   0.330   2.011   6.954 -0.2529  0.1743 -1.5716
  591SOL     OW 1771   4.753   4.661   7.085 -0.2882 -0.3135  0.2079
  591SOL    HW1 1772   4.829   4.678   7.141 -0.9592 -0.0263  1.0476
  591SOL    HW2 1773   4.686   4.723   7.115 -0.7386 -0.2948 -0.7748
  592SOL     OW 1774   1.656   0.792   9.045  0.2410  0.3831  0.3040
  592SOL    HW1 1775   1.640   0.845   8.966  0.4406  0.6153  0.4170
  592SOL    HW2 1776   1.712   0.847   9.099  3.9167 -1.4084 -1.2873
  593SOL     OW 1777   0.637   2.722   9.853  0.1685 -0.4368 -0.1976
  593SOL    HW1 1778   0.679   2.780   9.917  0.4641  0.4534 -1.1752
  593SOL    HW2 1779   0.694   2.724   9.777 -2.1301  1.7941 -2.0572
  594SOL     OW 1780   4.911   2.971   6.514  1.1425  0.2106 -0.0211
  594SOL    HW1 1781   4.874   2.891   6.551  0.3563  0.5897  0.0270
  594SOL    HW2 1782   4.871   2.979   6.428  1.0747  0.6486  0.0485
  595SOL     OW 1783   4.020   2.734   4.971 -0.0445  0.1583 -0.0389
  595SOL    HW1 1784   3.981   2.821   4.973  2.5128  1.5956 -3.2262
  595SOL    HW2 1785   3.965   2.685   4.909  0.8573  0.9636 -1.5501
  596SOL     OW 1786   4.145   3.018   5.529  0.0764 -0.5926 -0.2988
  596SOL    HW1 1787   4.192   2.987   5.606  0.0074  0.2318  0.0819
  596SOL    HW2 1788   4.053   2.999   5.548 -0.0539  0.5901  0.3016
  597SOL     OW 1789   1.366   3.972   5.027  0.4693  0.4443 -0.3851
  597SOL    HW1 1790   1.383   4.046   5.085 -2.6734  1.0040 -0.0140
  597SOL    HW2 1791   1.282   3.937   5.057  1.9222 -3.5577 -0.3257
  598SOL     OW 1792   2.909   3.083   5.085  0.1030 -0.2970  0.3160
  598SOL    HW1 1793   2.920   3.178   5.091  2.0590 -0.5677  2.1324
  598SOL    HW2 1794   2.997   3.047   5.097 -0.8412 -2.3865  1.8311
  599SOL     OW 1795   1.100   2.157   7.121 -0.5294 -0.5705 -0.5315
  599SOL    HW1 1796   1.129   2.181   7.209 -2.3492 -0.9598  0.2251
  599SOL    HW2 1797   1.009   2.187   7.117 -0.8543 -1.6208 -1.8544
  600SOL     OW 1798   2.605   4.069   5.479  0.2271  0.1266 -0.1733
  600SOL    HW1 1799   2.589   4.120   5.399 -1.7558 -1.0695 -0.6129
  600SOL    HW2 1800   2.654   3.993   5.449  0.5364  0.2670 -0.0302
  601SOL     OW 1801   1.269   3.064   9.237  0.4961 -0.1013  0.0179
  601SOL    HW1 1802   1.355   3.061   9.193  0.0635 -0.7029 -0.8368
  601SOL    HW2 1803   1.268   2.985   9.291  0.9703  0.5642  1.0243
  602SOL     OW 1804   1.997   4.897   5.632  0.0427 -0.8294 -0.2040
  602SOL    HW1 1805   1.994   4.984   5.671 -2.4784 -0.1423 -1.7136
  602SOL    HW2 1806   2.042   4.910   5.548 -2.6202 -0.3326 -1.6551
  603SOL     OW 1807   0.982   2.500   5.886 -0.4311 -0.6936 -0.5710
  603SOL    HW1 1808   0.940   2.475   5.803  0.3070 -0.9607 -0.8705
  603SOL    HW2 1809   0.909   2.512   5.947 -0.8741 -4.7340 -0.0454
  604SOL     OW 1810   0.362   2.294   5.680 -0.5752 -0.6119 -0.9687
  604SOL    HW1 1811   0.289   2.240   5.712 -0.5392  0.4906  1.1277
  604SOL    HW2 1812   0.440   2.246   5.707 -0.5335 -0.7524 -1.3397
  605SOL     OW 1813   3.960   4.244   7.953 -0.1668 -0.5482  0.1144
  605SOL    HW1 1814   3.950   4.158   7.993  0.6840 -0.6089  0.2180
  605SOL    HW2 1815   4.004   4.296   8.019 -0.8744  0.0365  0.1313
  606SOL     OW 1816   3.312   1.166   5.633 -0.1254 -0.0456  0.7835
  606SOL    HW1 1817   3.356   1.240   5.590  0.3976  0.6307  2.3942
  606SOL    HW2 1818   3.383   1.105   5.652  0.0146  0.5994  2.4940
  607SOL     OW 1819   0.609   4.118   5.897  0.0322 -0.1627 -0.5137
  607SOL    HW1 1820   0.561   4.156   5.971  0.0761 -1.3283  0.1349
  607SOL    HW2 1821   0.630   4.193   5.841  1.3701  0.9915  1.4154
  608SOL     OW 1822   3.080   2.663   7.520  0.1887 -0.0277  0.2779
  608SOL    HW1 1823   3.168   2.634   7.547  0.8844  0.5758 -1.2614
  608SOL    HW2 1824   3.094   2.750   7.482 -1.0994  0.1107  0.0858
  609SOL     OW 1825   1.560   4.062   6.567  0.2869 -0.1254 -0.6617
  609SOL    HW1 1826   1.618   4.006   6.516 -1.3285 -1.0129 -1.6004
  609SOL    HW2 1827   1.584   4.047   6.658  0.1551 -2.0720 -0.9138
  610SOL     OW 1828   4.633   1.890   7.841 -0.5938 -0.6874  0.1850
  610SOL    HW1 1829   4.674   1.888   7.755 -1.8464  0.7217 -0.4916
  610SOL    HW2 1830   4.574   1.815   7.842  0.1660 -1.2977  0.2323
  611SOL     OW 1831   0.380   3.007   5.898  0.8755 -0.1876 -0.3968
  611SOL    HW1 1832   0.474   3.024   5.909  1.1869 -2.4896  1.1634
  611SOL    HW2 1833   0.354   2.962   5.978 -1.2565 -0.8464 -1.3839
  612SOL     OW 1834   0.406   3.552   5.989 -0.9249 -0.1257  0.2491
  612SOL    HW1 1835   0.395   3.641   5.954 -3.1513 -0.0713  0.9090
  612SOL    HW2 1836   0.448   3.503   5.918 -2.3929  0.7558 -1.3040
  613SOL     OW 1837   1.136   3.065   7.275  0.3466  0.5244 -0.0232
  613SOL    HW1 1838   1.145   3.051   7.369  0.2639 -0.4373 -0.1528
  613SOL    HW2 1839   1.213   3.117   7.251 -0.0517  1.4897  0.7068
  614SOL     OW 1840   1.517   1.942   7.742  0.0412  0.5333 -0.0739
  614SOL    HW1 1841   1.459   1.910   7.812  0.9465 -1.9047 -0.3170
  614SOL    HW2 1842   1.490   1.893   7.665  1.2450  0.6735 -0.6050
  615SOL     OW 1843   4.637   0.688   6.234 -0.0217 -0.0236 -0.3104
  615SOL    HW1 1844   4.581   0.655   6.163 -0.3673  0.2616 -0.1743
  615SOL    HW2 1845   4.726   0.677   6.201 -0.1964  0.6109 -1.0141
  616SOL     OW 1846   1.289   1.751   5.298  0.7063  0.1775  0.0429
  616SOL    HW1 1847   1.268   1.793   5.215 -0.7018  1.4363  0.9632
  616SOL    HW2 1848   1.207   1.754   5.348  1.7820  0.5960  1.9155
  617SOL     OW 1849   4.744   0.507   5.889  0.2422  0.3841  0.6251
  617SOL    HW1 1850   4.820   0.454   5.912  0.4050  0.0569 -0.5823
  617SOL    HW2 1851   4.780   0.589   5.857  0.3538 -0.8700 -2.9302
  618SOL     OW 1852   4.356   1.387   7.239 -0.3547  0.7281 -0.1582
  618SOL    HW1 1853   4.388   1.301   7.269  0.4043  0.8242 -0.6692
  618SOL    HW2 1854   4.395   1.450   7.299  1.3798  0.9447 -1.4190
  619SOL     OW 1855   0.946   0.781   5.856 -0.4891 -0.3228  0.2332
  619SOL    HW1 1856   0.934   0.706   5.798 -0.5373 -1.0124  1.1193
  619SOL    HW2 1857   1.021   0.758   5.911 -0.6272  0.1913  0.6508
  620SOL     OW 1858   1.611   1.419   7.339  0.1176  0.0592 -0.4367
  620SOL    HW1 1859   1.602   1.445   7.430 -0.0963 -0.3957 -0.3221
  620SOL    HW2 1860   1.705   1.415   7.323  0.1909  1.9787 -0.7871
  621SOL     OW 1861   2.309   2.365   6.875 -0.5787 -0.3524  0.5859
  621SOL    HW1 1862   2.392   2.344   6.831 -1.8397 -3.3285 -0.6436
  621SOL    HW2 1863   2.244   2.310   6.831 -3.1777  1.5445  1.8070
  622SOL     OW 1864   4.886   2.195   6.415 -0.3203  1.0012 -0.1413
  622SOL    HW1 1865   4.973   2.234   6.430 -0.8276  1.9711  0.3975
  622SOL    HW2 1866   4.896   2.104   6.442  0.5035  1.1225  0.0132
  623SOL     OW 1867   0.018   2.905   5.427  0.1634 -0.0498  0.0839
  623SOL    HW1 1868   0.056   2.952   5.352 -1.3902  0.6079 -0.3594
  623SOL    HW2 1869  -0.046   2.967   5.463 -2.4211 -1.9408 -0.8709
  624SOL     OW 1870   3.432   4.725   4.867  0.0433 -0.8396 -0.2743
  624SOL    HW1 1871   3.444   4.685   4.953  1.0777  0.6330  0.3093
  624SOL    HW2 1872   3.392   4.810   4.886  1.7956  0.2197 -1.0581
  625SOL     OW 1873   0.760   1.695   5.371 -0.8909 -0.2245 -0.6276
  625SOL    HW1 1874   0.677   1.654   5.392 -1.5684  2.2426  2.2437
  625SOL    HW2 1875   0.740   1.788   5.365  1.5051  0.3581 -0.6779
  626SOL     OW 1876   4.924   2.995   5.863  0.4200 -0.0206 -0.1885
  626SOL    HW1 1877   4.906   3.036   5.778  1.2837 -0.0412 -0.3973
  626SOL    HW2 1878   4.973   2.916   5.841 -1.7521 -1.5417  0.1792
  627SOL     OW 1879   0.398   4.439   5.710  0.3813  0.1669 -0.0496
  627SOL    HW1 1880   0.426   4.410   5.796  1.7148 -1.0556 -0.8431
  627SOL    HW2 1881   0.374   4.531   5.722  0.1748 -0.0897  1.6799
  628SOL     OW 1882   2.300   3.724   7.002  0.0305  0.1083 -0.2240
  628SOL    HW1 1883   2.274   3.695   7.089  2.8408  0.2657  0.7878
  628SOL    HW2 1884   2.394   3.741   7.010  0.0002  2.0650 -2.7737
  629SOL     OW 1885   1.829   2.638   9.414  0.5806 -0.1449 -0.0519
  629SOL    HW1 1886   1.775   2.666   9.488 -1.4706  0.9888 -1.8719
  629SOL    HW2 1887   1.777   2.569   9.371  1.1407  0.1082 -1.1601
  630SOL     OW 1888   2.083   3.645   5.758 -0.2208 -0.2029 -0.4735
  630SOL    HW1 1889   2.175   3.667   5.773 -0.3511  0.3932 -0.5441
  630SOL    HW2 1890   2.062   3.582   5.827  0.3362 -0.6048 -0.6623
  631SOL     OW 1891   1.395   2.068   5.544 -0.2512 -0.1478  0.0378
  631SOL    HW1 1892   1.491   2.062   5.538 -0.3279 -1.2069 -0.1973
  631SOL    HW2 1893   1.373   2.023   5.626 -0.5376  0.2354  0.1735
  632SOL     OW 1894   1.434   3.900   6.338 -0.4986  0.3965 -0.0709
  632SOL    HW1 1895   1.516   3.875   6.379  0.4651  1.4967 -1.2615
  632SOL    HW2 1896   1.442   3.869   6.248 -1.1589  0.9982 -0.3448
  633SOL     OW 1897   4.490   4.462   6.739  0.5503  0.4044  0.1961
  633SOL    HW1 1898   4.524   4.458   6.828  1.7884 -0.3841 -0.2937
  633SOL    HW2 1899   4.434   4.385   6.731 -1.6576  1.8094  1.0690
  634SOL     OW 1900   0.273   0.351   6.912 -0.0463 -0.2442 -0.1513
  634SOL    HW1 1901   0.227   0.326   6.993 -1.5314  0.6536 -0.6860
  634SOL    HW2 1902   0.305   0.440   6.929 -1.1554  0.3070 -0.8489
  635SOL     OW 1903   2.412   3.487   6.564 -0.4826 -0.8580 -0.6341
  635SOL    HW1 1904   2.341   3.446   6.515 -1.1313  0.7415 -1.1094
  635SOL    HW2 1905   2.368   3.554   6.618  0.2285 -2.3344  1.9609
  636SOL     OW 1906   2.056   3.076   6.726 -0.2157 -0.3088  0.7592
  636SOL    HW1 1907   2.047   3.027   6.808  0.4582 -1.1111  0.3750
  636SOL    HW2 1908   1.976   3.057   6.678  0.1789 -1.3462  0.4743
  637SOL     OW 1909   4.811   2.227   5.724  0.1006 -0.1581 -0.0669
  637SOL    HW1 1910   4.798   2.215   5.630  0.0740 -0.7357  0.0111
  637SOL    HW2 1911   4.723   2.240   5.760 -0.1641 -2.3144  0.2077
  638SOL     OW 1912   0.835   3.092   6.657  0.2475 -0.0129 -0.8923
  638SOL    HW1 1913   0.896   3.085   6.583 -0.2811  1.5595 -1.5181
  638SOL    HW2 1914   0.862   3.171   6.703  0.7862 -1.1653  0.8513
  639SOL     OW 1915   1.338   1.604   4.858  0.5481 -0.8688  0.1197
  639SOL    HW1 1916   1.353   1.619   4.764  1.6410  2.3874  0.6691
  639SOL    HW2 1917   1.425   1.614   4.897 -0.2272  0.2046  1.6636
  640SOL     OW 1918   3.409   1.240   6.686  0.3064  0.0499  0.5942
  640SOL    HW1 1919   3.431   1.238   6.593  0.8588 -1.2256  0.7308
  640SOL    HW2 1920   3.325   1.194   6.692  1.3987 -2.0110  0.9681
  641SOL     OW 1921   2.406   4.266   6.810  0.4737  0.4607 -0.2282
  641SOL    HW1 1922   2.374   4.225   6.891  0.8402 -1.2598 -0.9027
  641SOL    HW2 1923   2.326   4.288   6.762  0.2549  1.4358  0.5599
  642SOL     OW 1924   2.060   1.993   6.310 -0.4941 -1.3171  0.2168
  642SOL    HW1 1925   2.136   1.960   6.357 -0.7485 -1.3007  0.6374
  642SOL    HW2 1926   2.047   1.929   6.239  0.8250 -0.5202 -0.8021
  643SOL     OW 1927   1.935   2.593   6.664 -0.2250  0.0511 -0.3472
  643SOL    HW1 1928   1.852   2.610   6.620 -0.2727 -0.2234 -0.3655
  643SOL    HW2 1929   1.930   2.500   6.689  0.8858 -0.5126 -2.0731
  644SOL     OW 1930   0.882   1.673   6.416 -0.7113  0.1220 -0.4022
  644SOL    HW1 1931   0.818   1.727   6.464 -1.0695  0.2500 -1.0204
  644SOL    HW2 1932   0.835   1.643   6.338 -0.1630 -0.1766 -0.6217
  645SOL     OW 1933   0.427   4.597   6.998  0.5377 -0.5129 -0.0841
  645SOL    HW1 1934   0.357   4.661   7.010  0.5214 -0.3417 -1.0315
  645SOL    HW2 1935   0.508   4.646   7.014  0.5071 -0.3667 -0.3843
  646SOL     OW 1936   1.821   0.964   6.970  0.2607  0.2311  0.1981
  646SOL    HW1 1937   1.835   1.003   6.884  1.2204 -0.6505 -0.0631
  646SOL    HW2 1938   1.726   0.958   6.979  0.1002 -1.9213 -1.8737
  647SOL     OW 1939   0.724   1.615   6.173 -0.4305 -0.3929 -0.1345
  647SOL    HW1 1940   0.681   1.629   6.088 -1.3416  1.3860  0.5703
  647SOL    HW2 1941   0.794   1.552   6.154 -1.0024 -0.5180 -2.0711
  648SOL     OW 1942   2.071   0.615   5.149  1.2847 -0.1955 -0.4815
  648SOL    HW1 1943   2.032   0.693   5.186  0.6225 -0.6177 -0.2696
  648SOL    HW2 1944   2.116   0.645   5.070  0.0581  0.2235 -1.0380
  649SOL     OW 1945   0.953   1.366   7.803  0.4157 -0.2034 -0.2818
  649SOL    HW1 1946   0.885   1.424   7.770 -0.0425 -1.2419 -1.1935
  649SOL    HW2 1947   0.992   1.327   7.725 -0.0065 -1.9390  0.3365
  650SOL     OW 1948   2.129   4.569   4.722 -0.1752 -0.0465  0.0707
  650SOL    HW1 1949   2.041   4.540   4.697 -0.6189  1.7228 -0.5574
  650SOL    HW2 1950   2.117   4.608   4.809  0.2967 -1.0955  0.6296
  651SOL     OW 1951   3.302   2.430   7.123  0.1977  0.1344 -0.0172
  651SOL    HW1 1952   3.355   2.351   7.117 -0.5336 -0.2460 -2.3227
  651SOL    HW2 1953   3.213   2.402   7.100 -0.2107  1.4891 -0.1833
  652SOL     OW 1954   2.385   3.351   6.840  0.4744 -0.0008 -0.4393
  652SOL    HW1 1955   2.427   3.432   6.868  1.4972 -0.5534 -0.3371
  652SOL    HW2 1956   2.408   3.342   6.747  0.7020 -0.3738 -0.3509
  653SOL     OW 1957   1.605   1.116   5.484 -0.2555 -0.1175 -0.2177
  653SOL    HW1 1958   1.699   1.099   5.476 -0.1132  0.3744  0.3978
  653SOL    HW2 1959   1.566   1.028   5.491 -0.2025 -0.5682 -3.7623
  654SOL     OW 1960   4.376   0.475   5.346  0.4544 -0.1270  0.3464
  654SOL    HW1 1961   4.438   0.404   5.332 -0.7454 -0.8642 -1.5910
  654SOL    HW2 1962   4.371   0.483   5.441  1.6519 -1.6966  0.5939
  655SOL     OW 1963   0.763   0.055   6.833 -0.0093  0.5160 -0.4882
  655SOL    HW1 1964   0.818   0.057   6.912  0.0160  0.2225 -0.4992
  655SOL    HW2 1965   0.795   0.129   6.781  0.1152  0.5829 -0.3205
  656SOL     OW 1966   2.167   1.503   5.356  0.1394  0.5070 -0.2181
  656SOL    HW1 1967   2.220   1.494   5.277  0.4699 -1.5469  0.1592
  656SOL    HW2 1968   2.176   1.418   5.400 -1.6851  0.8706  0.9833
  657SOL     OW 1969   3.546   1.975   5.266  0.0368  0.1395  0.5741
  657SOL    HW1 1970   3.594   2.014   5.339 -1.1590 -0.0817  1.5161
  657SOL    HW2 1971   3.584   1.888   5.255  0.6074  0.3897  0.5478
  658SOL     OW 1972   0.878   2.938   7.489  0.0348  0.0206  0.1881
  658SOL    HW1 1973   0.827   2.895   7.558  0.3481 -0.2160  0.2724
  658SOL    HW2 1974   0.856   2.889   7.410 -0.1464  0.1464  0.1597
  659SOL     OW 1975   2.799   2.453   5.701  0.1312 -0.0530 -0.7139
  659SOL    HW1 1976   2.848   2.480   5.778  1.2010 -1.7710 -0.7303
  659SOL    HW2 1977   2.808   2.357   5.699  0.1207 -0.0669 -2.9313
  660SOL     OW 1978   4.447   2.119   6.366  0.0520  0.7388  0.4585
  660SOL    HW1 1979   4.471   2.118   6.459 -1.7450  2.4842  1.0007
  660SOL    HW2 1980   4.401   2.036   6.353  2.9470 -1.0108  0.2471
  661SOL     OW 1981   2.784   4.388   6.633 -0.4877  0.5211 -0.8600
  661SOL    HW1 1982   2.778   4.392   6.729 -3.5741 -1.3160 -0.8357
  661SOL    HW2 1983   2.847   4.456   6.610  0.8373  0.6309  2.4876
  662SOL     OW 1984   0.360   3.754   7.216  0.1872 -0.0250 -0.3146
  662SOL    HW1 1985   0.455   3.750   7.203  0.3123 -0.4442  0.6861
  662SOL    HW2 1986   0.336   3.668   7.249 -0.3597  0.4435  0.5529
  663SOL     OW 1987   2.910   4.057   7.539 -0.7228 -0.2788  0.0106
  663SOL    HW1 1988   2.848   4.033   7.470  0.4223  1.3938 -1.7054
  663SOL    HW2 1989   2.856   4.096   7.608 -1.7920 -1.0086 -0.3933
  664SOL     OW 1990   0.502   1.114   6.282 -0.1897 -0.5917 -0.3625
  664SOL    HW1 1991   0.472   1.032   6.244  0.1934 -0.3908 -1.1389
  664SOL    HW2 1992   0.551   1.156   6.211 -1.7515  1.0509 -0.5390
  665SOL     OW 1993   2.543   3.938   5.047 -0.0674 -0.2515 -0.6927
  665SOL    HW1 1994   2.492   4.018   5.058 -1.7879 -1.0982 -1.9858
  665SOL    HW2 1995   2.515   3.903   4.962 -0.0963 -2.7175  0.2366
  666SOL     OW 1996   2.092   4.632   5.651 -0.1280 -0.3747  0.5357
  666SOL    HW1 1997   2.048   4.715   5.669  1.2607  0.8972 -1.4522
  666SOL    HW2 1998   2.103   4.632   5.556  2.0184 -1.7155  0.7250
  667SOL     OW 1999   2.676   2.800   8.243  0.0826  0.0248  0.1238
  667SOL    HW1 2000   2.607   2.847   8.195 -0.4911 -0.9464 -0.0279
  667SOL    HW2 2001   2.698   2.727   8.186 -0.6350 -1.1717  1.3331
  668SOL     OW 2002   2.369   0.401   4.746  0.7379  0.0927 -0.6426
  668SOL    HW1 2003   2.357   0.310   4.720  1.8668  0.0726 -1.1768
  668SOL    HW2 2004   2.461   0.406   4.772  0.8228  1.1927 -1.1090
  669SOL     OW 2005   1.696   3.024   5.963 -0.0038 -0.2704  0.0253
  669SOL    HW1 2006   1.612   2.980   5.972 -1.6404  2.3622 -1.1627
  669SOL    HW2 2007   1.691   3.099   6.022  0.2554  1.5565 -2.1485
  670SOL     OW 2008   2.078   1.686   6.784  0.3934 -0.4647 -0.3440
  670SOL    HW1 2009   2.029   1.604   6.779 -1.1897  0.3976  0.3005
  670SOL    HW2 2010   2.016   1.752   6.754  1.2957  0.6310  0.1594
  671SOL     OW 2011   0.889   3.181   7.245  0.2862 -0.7456 -0.3068
  671SOL    HW1 2012   0.835   3.142   7.315  0.4470 -0.9196 -0.2794
  671SOL    HW2 2013   0.973   3.137   7.253  0.2818 -0.8205 -0.6613
  672SOL     OW 2014   0.739   0.314   5.722  0.6030 -0.2046  0.1618
  672SOL    HW1 2015   0.660   0.260   5.712  0.5096 -0.0661  0.1558
  672SOL    HW2 2016   0.782   0.308   5.636  2.3260 -2.9622  1.0594
  673SOL     OW 2017   2.625   3.013   5.101 -0.2213  0.0368 -0.1168
  673SOL    HW1 2018   2.637   2.921   5.125 -0.4181 -0.2633 -1.1357
  673SOL    HW2 2019   2.711   3.040   5.068 -0.8348 -0.6026 -2.4292
  674SOL     OW 2020   3.128   2.950   7.462 -0.1581 -0.2017  0.5510
  674SOL    HW1 2021   3.203   2.940   7.404 -2.4035 -1.6515 -2.3544
  674SOL    HW2 2022   3.095   3.038   7.445  2.8223  2.0057  4.6325
  675SOL     OW 2023   4.815   2.626   6.859 -0.3250  0.1092  0.0611
  675SOL    HW1 2024   4.907   2.635   6.882  0.1329 -1.0286 -1.2040
  675SOL    HW2 2025   4.767   2.654   6.937  1.0972 -0.2171  1.0710
  676SOL     OW 2026   1.992   2.240   4.968  0.6886 -0.0051  0.0677
  676SOL    HW1 2027   1.902   2.220   4.945 -0.0513  0.7151  2.1168
  676SOL    HW2 2028   2.041   2.160   4.947 -0.9907 -1.5731  1.7842
  677SOL     OW 2029   1.431   1.157   5.857 -0.2439 -0.0218 -0.0400
  677SOL    HW1 2030   1.518   1.194   5.872 -0.8302  1.9143 -0.9930
  677SOL    HW2 2031   1.443   1.099   5.782  0.5561 -1.2717  1.0110
  678SOL     OW 2032   0.934   2.536   5.193  0.2886  0.3413 -0.5058
  678SOL    HW1 2033   0.882   2.471   5.240  1.8460  0.8152  2.0610
  678SOL    HW2 2034   0.944   2.500   5.105 -1.1930 -1.5301  0.0210
  679SOL     OW 2035   2.143   1.076   6.575 -0.1508  0.1178  0.0076
  679SOL    HW1 2036   2.184   1.085   6.661 -0.2897  1.8658 -0.0656
  679SOL    HW2 2037   2.050   1.065   6.593 -0.2933  1.2863  0.1095
  680SOL     OW 2038   0.642   0.305   6.259  0.1546 -0.3958  0.1648
  680SOL    HW1 2039   0.597   0.387   6.279  0.2592 -0.4003  0.4223
  680SOL    HW2 2040   0.674   0.316   6.170 -1.7223 -0.9825 -0.6413
  681SOL     OW 2041   2.327   0.299   5.694  0.2068 -0.0070  0.3944
  681SOL    HW1 2042   2.288   0.287   5.607  1.1690  1.3357 -0.2552
  681SOL    HW2 2043   2.382   0.222   5.706 -0.1977 -0.3704 -0.0261
  682SOL     OW 2044   4.283   2.482   6.562 -0.1230 -0.5434 -0.5131
  682SOL    HW1 2045   4.238   2.430   6.495  0.1878 -0.0922 -1.0860
  682SOL    HW2 2046   4.220   2.551   6.585 -0.6517 -1.3250  0.4642
  683SOL     OW 2047   1.063   2.190   6.010 -0.1455  0.5451 -0.2244
  683SOL    HW1 2048   1.013   2.162   5.933 -0.7793  2.6644 -0.6377
  683SOL    HW2 2049   0.998   2.226   6.070  0.5709  0.7165  0.4681
  684SOL     OW 2050   4.828   1.513   7.765  0.3421  0.0138 -0.4301
  684SOL    HW1 2051   4.919   1.488   7.780  0.3210  0.1504 -0.0838
  684SOL    HW2 2052   4.802   1.560   7.844  0.3982  1.2026 -1.0988
  685SOL     OW 2053   4.422   2.776   6.815 -0.3540  0.6311  0.2494
  685SOL    HW1 2054   4.436   2.836   6.888 -0.0317 -2.7153  3.2357
  685SOL    HW2 2055   4.504   2.727   6.808 -1.3093 -0.9715 -0.4533
  686SOL     OW 2056   2.191   3.013   8.010  0.1155 -0.3345  0.5313
  686SOL    HW1 2057   2.207   3.092   7.959 -0.4430 -0.1038  0.7091
  686SOL    HW2 2058   2.255   2.950   7.977  0.1041 -0.0293 -0.0941
  687SOL     OW 2059   2.003   0.300   7.344  0.1025  0.1613 -0.0916
  687SOL    HW1 2060   1.991   0.333   7.255  2.8766 -1.0379 -1.0349
  687SOL    HW2 2061   2.091   0.329   7.368 -0.3701 -0.0159  2.0798
  688SOL     OW 2062   0.240   1.262   6.272 -0.8477 -0.0143  0.0296
  688SOL    HW1 2063   0.219   1.236   6.182 -1.6259 -1.9065  0.7223
  688SOL    HW2 2064   0.330   1.232   6.285 -0.1118  1.7980 -0.6422
  689SOL     OW 2065   0.679   1.576   5.896 -0.3377  0.2398 -0.2343
  689SOL    HW1 2066   0.621   1.504   5.923  0.0780  0.0759  0.2450
  689SOL    HW2 2067   0.642   1.607   5.814  0.0697 -1.2277 -0.9996
  690SOL     OW 2068   1.335   3.243   7.547 -0.3760  0.2844  0.1545
  690SOL    HW1 2069   1.263   3.190   7.581 -0.4711  0.4648  0.2365
  690SOL    HW2 2070   1.378   3.187   7.483 -0.4095  0.0680  0.3180
  691SOL     OW 2071   3.907   3.336   5.098  0.4221 -0.0013 -0.1337
  691SOL    HW1 2072   3.984   3.393   5.088  1.0425 -0.8394 -0.2114
  691SOL    HW2 2073   3.839   3.379   5.046  0.8063  0.7954  0.0028
  692SOL     OW 2074   1.081   0.494   6.544 -0.7129 -1.0832  1.0542
  692SOL    HW1 2075   1.173   0.519   6.541 -1.2458  1.0832 -2.1195
  692SOL    HW2 2076   1.039   0.562   6.597 -1.0753  0.9616 -1.6167
  693SOL     OW 2077   3.509   1.870  14.832  0.1635  0.0801  0.0303
  693SOL    HW1 2078   3.440   1.906  14.888 -0.4012 -0.7548 -0.1007
  693SOL    HW2 2079   3.530   1.785  14.872  0.7249  0.0858 -0.2467
  694SOL     OW 2080   1.032   1.852   5.845 -0.6447  0.3725 -0.1217
  694SOL    HW1 2081   1.113   1.876   5.890  0.1371 -1.2782 -0.5579
  694SOL    HW2 2082   1.048   1.874   5.753 -1.3436  1.5656  0.0239
  695SOL     OW 2083   5.001   1.670   6.217  0.0741  0.0762 -0.1073
  695SOL    HW1 2084   5.051   1.621   6.283  0.3766 -0.3013 -0.6156
  695SOL    HW2 2085   4.946   1.729   6.269 -0.6286 -1.1019  0.5454
  696SOL     OW 2086   2.734   2.434   4.889 -0.1612 -0.0763 -0.1032
  696SOL    HW1 2087   2.753   2.476   4.805 -1.1398  1.3501  0.3613
  696SOL    HW2 2088   2.816   2.442   4.938  0.2537 -0.4503 -0.7167
  697SOL     OW 2089   0.517   2.016   5.593 -0.6737 -0.0753 -0.0675
  697SOL    HW1 2090   0.555   2.080   5.654  0.5440 -1.1942  0.3943
  697SOL    HW2 2091   0.455   2.067   5.541 -0.8596  1.1704  1.2951
  698SOL     OW 2092   0.151   1.567   6.960  0.1313  0.3170 -0.0693
  698SOL    HW1 2093   0.192   1.483   6.936 -1.3684 -0.7524  0.9113
  698SOL    HW2 2094   0.057   1.550   6.953 -0.2046  1.8211  0.5198
  699SOL     OW 2095   1.106   1.905   5.091 -0.3375 -0.4839  0.8575
  699SOL    HW1 2096   1.094   1.975   5.155 -0.8842 -2.0873  2.5942
  699SOL    HW2 2097   1.097   1.949   5.006  1.4839  1.9019  1.7862
  700SOL     OW 2098   3.559   4.989   5.767 -0.2865  0.1388 -0.2567
  700SOL    HW1 2099   3.625   5.054   5.790 -0.6715 -0.1051  1.6752
  700SOL    HW2 2100   3.600   4.938   5.697  1.8622 -0.3750  1.2625
  701SOL     OW 2101   1.935   3.840   6.541 -0.3508 -0.3520 -0.1117
  701SOL    HW1 2102   2.004   3.872   6.599  0.4318  1.0823 -1.7466
  701SOL    HW2 2103   1.981   3.786   6.476 -1.0198 -0.8013 -0.2250
  702SOL     OW 2104   4.895   1.172   5.763 -0.1312 -0.3644  0.0084
  702SOL    HW1 2105   4.936   1.164   5.849 -0.6309  1.0872  0.4222
  702SOL    HW2 2106   4.966   1.157   5.701  0.5398 -0.0809  0.6927
  703SOL     OW 2107   1.396   2.896   5.742  0.1731 -0.3266 -0.0135
  703SOL    HW1 2108   1.388   2.946   5.661 -0.0343  0.4043  0.4436
  703SOL    HW2 2109   1.471   2.839   5.727  0.5021  0.2178 -0.5074
  704SOL     OW 2110   0.778   4.261   7.061 -0.5024 -0.2621 -0.6497
  704SOL    HW1 2111   0.696   4.310   7.059 -0.8523 -0.8410 -0.8538
  704SOL    HW2 2112   0.800   4.255   7.154 -1.6536 -1.6478 -0.4341
  705SOL     OW 2113   3.224   2.440   5.645 -0.3591  0.1966  0.1384
  705SOL    HW1 2114   3.203   2.532   5.661  1.5713  0.6931  0.1344
  705SOL    HW2 2115   3.247   2.406   5.731  1.7661  0.5699 -0.2065
  706SOL     OW 2116   1.449   3.357   5.800 -0.9027 -0.1603  0.3592
  706SOL    HW1 2117   1.542   3.340   5.780 -1.2931 -2.0180  0.0099
  706SOL    HW2 2118   1.452   3.415   5.876  0.5453  0.1642  0.1013
  707SOL     OW 2119   2.397   4.350   5.572  0.6674 -0.1783  0.3401
  707SOL    HW1 2120   2.304   4.332   5.557  1.2536 -2.5145 -0.9948
  707SOL    HW2 2121   2.425   4.282   5.634  1.6723 -0.1224 -0.0251
  708SOL     OW 2122   3.290   2.817   7.069 -0.3470 -0.2017 -0.1793
  708SOL    HW1 2123   3.224   2.774   7.015 -0.5545  1.1727 -1.0785
  708SOL    HW2 2124   3.373   2.783   7.037 -0.5503 -0.9977  0.1099
  709SOL     OW 2125   4.476   0.345   7.831  0.0050 -0.5400 -0.1222
  709SOL    HW1 2126   4.481   0.276   7.765  3.2458  0.6430 -1.3297
  709SOL    HW2 2127   4.413   0.408   7.795  2.0011  0.2963 -2.4770
  710SOL     OW 2128   3.715   2.131   5.979  0.6100 -0.1868 -0.3286
  710SOL    HW1 2129   3.699   2.055   6.036  0.1325  0.5125  0.4987
  710SOL    HW2 2130   3.628   2.152   5.944  1.1366 -1.6507 -2.7286
  711SOL     OW 2131   4.301   4.650   7.171  0.5099 -0.4772 -0.1627
  711SOL    HW1 2132   4.371   4.587   7.156  0.6536 -0.7325  1.3718
  711SOL    HW2 2133   4.332   4.704   7.244 -0.5011 -0.0067 -0.0611
  712SOL     OW 2134   2.491   4.108   5.735 -0.6229  0.1352  0.1892
  712SOL    HW1 2135   2.571   4.075   5.776 -1.1346 -0.9176  0.3759
  712SOL    HW2 2136   2.512   4.111   5.642  0.3696  2.0363  0.4169
  713SOL     OW 2137   1.584   3.701   5.280  0.5044 -0.2727 -0.1249
  713SOL    HW1 2138   1.550   3.626   5.328 -0.1776  0.5214  0.6626
  713SOL    HW2 2139   1.582   3.773   5.343  0.1665  0.6477 -1.1553
  714SOL     OW 2140   1.023   2.253   6.442 -0.1010  0.7956 -0.5443
  714SOL    HW1 2141   0.997   2.321   6.380 -0.3926  2.0180  0.8588
  714SOL    HW2 2142   1.102   2.214   6.404 -0.7355  0.9379 -2.0667
  715SOL     OW 2143   4.386   0.920   5.750  0.5352 -0.2204  0.3103
  715SOL    HW1 2144   4.430   1.004   5.736  0.0391 -0.1459 -0.8761
  715SOL    HW2 2145   4.430   0.859   5.692  1.2179 -0.9273  1.5272
  716SOL     OW 2146   1.392   2.459   6.786 -0.1104  0.4908 -0.1562
  716SOL    HW1 2147   1.460   2.470   6.720 -0.2746 -0.6814 -0.5380
  716SOL    HW2 2148   1.334   2.392   6.750 -0.4980  0.2153  0.9439
  717SOL     OW 2149   0.187   4.572   6.342  0.2036 -0.5196 -0.8093
  717SOL    HW1 2150   0.278   4.596   6.322  0.0768  1.0543  0.3293
  717SOL    HW2 2151   0.157   4.640   6.402 -1.0808 -2.1689  0.5070
  718SOL     OW 2152   4.179   1.065   6.266 -0.3135 -0.0393  0.3154
  718SOL    HW1 2153   4.273   1.080   6.278 -0.2669 -0.7981  0.9869
  718SOL    HW2 2154   4.158   1.111   6.185  0.3348  1.3930  0.9276
  719SOL     OW 2155   0.275   0.510   7.577  0.1547 -0.1552 -0.9789
  719SOL    HW1 2156   0.262   0.583   7.517 -1.1917  0.4771  0.0330
  719SOL    HW2 2157   0.330   0.546   7.646 -1.3271  0.2590  0.0416
  720SOL     OW 2158   4.463   0.313   6.302 -0.4431 -0.7005 -0.5698
  720SOL    HW1 2159   4.416   0.278   6.226 -2.6168  0.2124  0.2794
  720SOL    HW2 2160   4.469   0.407   6.285  0.6728 -0.7414 -0.4320
  721SOL     OW 2161   1.589   1.887   5.240  0.4539 -0.3887  0.0821
  721SOL    HW1 2162   1.521   1.953   5.248 -0.5378 -1.2686 -0.7199
  721SOL    HW2 2163   1.595   1.848   5.328  0.0364 -0.1903  0.2000
  722SOL     OW 2164   1.312   4.145   6.343  0.3502 -0.2475 -0.2529
  722SOL    HW1 2165   1.387   4.201   6.325 -0.1685  0.4044 -0.3948
  722SOL    HW2 2166   1.349   4.057   6.351  1.1445  0.0898 -0.1835
  723SOL     OW 2167   1.369   3.586   6.849 -0.1747 -0.5507  0.4997
  723SOL    HW1 2168   1.459   3.615   6.862 -0.0767 -1.5370  2.4266
  723SOL    HW2 2169   1.363   3.563   6.756  0.9976  1.2743 -0.0698
  724SOL     OW 2170   1.316   1.901   6.613 -0.3691 -0.5558 -0.2899
  724SOL    HW1 2171   1.231   1.919   6.653  0.3499  2.1692  0.1981
  724SOL    HW2 2172   1.299   1.907   6.519 -0.1098  4.3637 -0.2682
  725SOL     OW 2173   1.286   4.094   5.482  0.1314 -0.9196  0.5304
  725SOL    HW1 2174   1.275   4.001   5.499  0.7431 -1.5738 -2.1875
  725SOL    HW2 2175   1.215   4.116   5.422  1.3649 -0.2142 -0.7119
  726SOL     OW 2176   1.303   2.804   6.299 -1.1307  0.2360 -0.3497
  726SOL    HW1 2177   1.306   2.869   6.369 -2.1298 -0.3284  0.2410
  726SOL    HW2 2178   1.300   2.720   6.344 -0.3389 -0.2090 -1.0979
  727SOL     OW 2179   1.809   1.804   6.075 -0.1316  0.6609  0.2727
  727SOL    HW1 2180   1.775   1.889   6.046 -2.4225 -0.6059 -1.0691
  727SOL    HW2 2181   1.864   1.775   6.002 -2.8405 -0.8244 -1.3564
  728SOL     OW 2182   2.106   3.330   6.143  0.5272  0.0410 -0.1159
  728SOL    HW1 2183   2.100   3.423   6.165  0.6176 -0.0683  0.3892
  728SOL    HW2 2184   2.200   3.312   6.139  0.5102  0.0319 -0.4753
  729SOL     OW 2185   0.263   0.842   6.345 -0.3944  0.0775 -0.4855
  729SOL    HW1 2186   0.189   0.904   6.343  0.9011  2.0753  2.9365
  729SOL    HW2 2187   0.230   0.768   6.397 -1.5657 -1.7417 -3.5849
  730SOL     OW 2188   2.517   3.213   5.247  0.1531 -0.0746  0.4800
  730SOL    HW1 2189   2.542   3.134   5.200 -0.3587 -0.9637  1.6446
  730SOL    HW2 2190   2.536   3.193   5.339 -0.9487  0.7575  0.9090
  731SOL     OW 2191   1.661   3.359   6.516 -0.0974  1.0609 -0.2963
  731SOL    HW1 2192   1.579   3.321   6.486 -0.0502  0.7834 -0.0823
  731SOL    HW2 2193   1.634   3.432   6.572 -0.3053 -0.8178  2.2212
  732SOL     OW 2194   0.765   0.007   6.218 -0.5609  0.8102 -0.5585
  732SOL    HW1 2195   0.853   0.044   6.219 -0.8599  1.7501  2.5262
  732SOL    HW2 2196   0.709   0.077   6.253 -0.9180 -2.4367  7.6122
  733SOL     OW 2197   3.403   4.478   5.355 -0.0495 -0.0611 -0.1399
  733SOL    HW1 2198   3.475   4.534   5.384  0.4359  0.0774 -1.5374
  733SOL    HW2 2199   3.423   4.392   5.390 -0.8559  0.6048  2.1295
  734SOL     OW 2200   2.499   2.210   6.479  0.5449  0.2092  0.0527
  734SOL    HW1 2201   2.407   2.223   6.456  1.1551  1.2328 -2.0639
  734SOL    HW2 2202   2.513   2.116   6.467 -0.5459 -0.2589  1.9347
  735SOL     OW 2203   2.316   3.416   5.332 -0.4288  0.0031 -0.4805
  735SOL    HW1 2204   2.353   3.471   5.263  1.3297  1.0079  1.2070
  735SOL    HW2 2205   2.372   3.338   5.333  0.3291  0.5529  0.6290
  736SOL     OW 2206   1.648   2.170   4.929 -0.3058 -0.6645  0.4695
  736SOL    HW1 2207   1.705   2.101   4.964 -1.2518 -2.8590 -1.9869
  736SOL    HW2 2208   1.570   2.123   4.899 -1.0542  1.5158 -1.2430
  737SOL     OW 2209   3.699   1.059   6.979  0.4803  0.2826 -0.2344
  737SOL    HW1 2210   3.635   1.014   6.923 -1.0576  0.9618  0.9018
  737SOL    HW2 2211   3.714   0.998   7.051 -1.2538  1.3156  1.0687
  738SOL     OW 2212   0.457   2.201   7.199 -0.5893 -0.6475 -0.3717
  738SOL    HW1 2213   0.439   2.207   7.106  0.9886  2.7604 -0.6029
  738SOL    HW2 2214   0.549   2.175   7.204 -0.8438 -1.4734  0.2827
  739SOL     OW 2215   1.146   2.908   6.767 -0.1885 -0.3618  0.3329
  739SOL    HW1 2216   1.149   2.814   6.783 -0.6785 -0.1835  1.5974
  739SOL    HW2 2217   1.088   2.942   6.835 -2.6466  0.4779 -2.0216
  740SOL     OW 2218   0.134   2.305   6.540 -0.4886 -0.0635 -0.9435
  740SOL    HW1 2219   0.229   2.291   6.536  0.2765  3.6332  0.0081
  740SOL    HW2 2220   0.113   2.299   6.633 -0.8594  0.5031 -0.9819
  741SOL     OW 2221   2.714   2.014   5.979  0.2224  0.6670 -0.0550
  741SOL    HW1 2222   2.626   2.033   6.012  0.8111  2.1297  0.8024
  741SOL    HW2 2223   2.754   1.959   6.046  0.4831  1.3248  0.3369
  742SOL     OW 2224   0.884   4.348   7.449  0.0039  0.5099 -0.0351
  742SOL    HW1 2225   0.815   4.288   7.420  1.0826 -0.5899 -0.4023
  742SOL    HW2 2226   0.924   4.380   7.368  0.8058  0.0758  0.1819
  743SOL     OW 2227   1.147   1.799   6.321 -0.0555 -0.6487  0.2502
  743SOL    HW1 2228   1.143   1.721   6.265  1.8171 -0.8586  0.3395
  743SOL    HW2 2229   1.094   1.778   6.397  0.0771 -1.6661  0.0671
  744SOL     OW 2230   0.451   3.342   5.381 -0.1909  0.2344  0.2759
  744SOL    HW1 2231   0.360   3.316   5.398 -0.3563  0.0994 -0.7214
  744SOL    HW2 2232   0.502   3.264   5.403 -0.3308  0.2695  0.7260
  745SOL     OW 2233   0.747   2.434   6.933 -0.2126 -0.7986  0.5317
  745SOL    HW1 2234   0.759   2.348   6.894  0.4864  0.1614 -1.5257
  745SOL    HW2 2235   0.751   2.495   6.859 -0.8250  1.0041  1.8956
  746SOL     OW 2236   1.231   3.825   5.524 -0.0567  0.5000  0.4229
  746SOL    HW1 2237   1.193   3.761   5.464  1.7063 -0.9381  0.7486
  746SOL    HW2 2238   1.167   3.834   5.594 -1.0974  0.4281 -0.4957
  747SOL     OW 2239   1.662   2.167   5.510 -0.2858  0.0468  0.1049
  747SOL    HW1 2240   1.729   2.210   5.563  0.3231 -1.4002  0.5405
  747SOL    HW2 2241   1.663   2.214   5.427 -0.1467  1.3218  0.8052
  748SOL     OW 2242   2.146   2.737   6.555  0.0312  0.1312  0.3555
  748SOL    HW1 2243   2.222   2.681   6.566 -0.9845 -1.5715 -0.8067
  748SOL    HW2 2244   2.074   2.687   6.593 -0.3130  2.4772  3.1390
  749SOL     OW 2245   1.176   0.963   5.223 -0.7796  0.0472  0.0878
  749SOL    HW1 2246   1.229   1.004   5.155 -0.5993 -0.6491 -0.1951
  749SOL    HW2 2247   1.093   1.011   5.220  0.1115  1.7495  1.1437
  750SOL     OW 2248   1.181   2.306   6.684  0.5827  0.6033  0.4994
  750SOL    HW1 2249   1.170   2.232   6.744  1.1220  0.2406  0.1589
  750SOL    HW2 2250   1.124   2.284   6.610  0.5350  0.6604  0.5195
  751SOL     OW 2251   1.947   3.852   5.621  0.6402  0.2403 -0.1941
  751SOL    HW1 2252   1.955   3.764   5.657 -0.9590 -0.3134 -1.0561
  751SOL    HW2 2253   1.877   3.893   5.672  0.2969  0.4344 -0.8040
  752SOL     OW 2254   2.716   2.755   6.238 -0.1319  0.3361 -0.9902
  752SOL    HW1 2255   2.709   2.719   6.149  0.2501  0.0170 -0.8921
  752SOL    HW2 2256   2.635   2.805   6.249  0.5922  1.8572 -2.1679
  753SOL     OW 2257   0.450   2.552   7.510 -0.1094 -0.2380  0.1238
  753SOL    HW1 2258   0.545   2.550   7.501 -0.1621  1.3663 -1.0274
  753SOL    HW2 2259   0.435   2.550   7.605  1.0796  0.0487  0.3269
  754SOL     OW 2260   0.918   4.285   5.172 -0.7860  0.3491  0.0459
  754SOL    HW1 2261   0.843   4.330   5.209 -1.3783  0.5865 -1.3520
  754SOL    HW2 2262   0.881   4.225   5.108  0.2301  1.3926 -1.6237
  755SOL     OW 2263   0.879   1.134   8.220  0.0868  0.0490 -0.4388
  755SOL    HW1 2264   0.948   1.154   8.156  1.5380 -0.1123  1.0211
  755SOL    HW2 2265   0.926   1.115   8.301 -1.6954  0.0363  0.6414
  756SOL     OW 2266   2.462   2.156   6.056  0.1934  0.5835 -0.0832
  756SOL    HW1 2267   2.490   2.215   5.986  0.0525  0.9844  0.1977
  756SOL    HW2 2268   2.514   2.183   6.131  0.0945  0.3754  0.0587
  757SOL     OW 2269   0.750   4.583   8.392 -0.1282  0.0570  0.4216
  757SOL    HW1 2270   0.744   4.488   8.382 -1.8958 -0.0807  2.1828
  757SOL    HW2 2271   0.820   4.595   8.456 -1.1554 -0.2273  1.6439
  758SOL     OW 2272   1.217   1.431   5.344  0.2183  0.0313  0.0468
  758SOL    HW1 2273   1.194   1.500   5.282  0.3284  1.3054  1.3885
  758SOL    HW2 2274   1.221   1.475   5.429  0.8090 -1.5270  0.8586
  759SOL     OW 2275   1.264   0.699   5.194 -0.7588  0.2087 -0.2189
  759SOL    HW1 2276   1.257   0.702   5.290  0.9541  2.1944 -0.0749
  759SOL    HW2 2277   1.232   0.784   5.165  0.0313  0.1728 -1.2706
  760SOL     OW 2278   0.043   0.867   6.919 -0.1889 -0.0485 -1.1081
  760SOL    HW1 2279  -0.050   0.846   6.909 -0.2102 -0.7036  0.1919
  760SOL    HW2 2280   0.044   0.957   6.954 -0.2240  0.8426 -3.2741
  761SOL     OW 2281   3.358   2.155   7.068 -0.4160  1.1312  0.5452
  761SOL    HW1 2282   3.264   2.160   7.087 -0.3938 -1.3785  1.6794
  761SOL    HW2 2283   3.378   2.062   7.070  2.0501  1.5805 -0.0929
  762SOL     OW 2284   1.174   0.263   7.872 -0.2825  0.0295  0.1365
  762SOL    HW1 2285   1.216   0.344   7.899  3.7993 -2.0462  0.8103
  762SOL    HW2 2286   1.157   0.216   7.954 -1.0403 -0.4910 -0.3078
  763SOL     OW 2287   0.320   2.960   7.103  0.2907 -0.2109 -0.9966
  763SOL    HW1 2288   0.337   2.887   7.044 -1.2430 -0.8692 -0.6598
  763SOL    HW2 2289   0.283   3.028   7.048 -1.3842 -0.9177 -0.8150
  764SOL     OW 2290   2.347   3.207   6.004  0.7144  0.0112 -0.4295
  764SOL    HW1 2291   2.305   3.228   5.921 -1.4570  1.5479  0.9438
  764SOL    HW2 2292   2.295   3.136   6.040 -0.0735  1.1447  0.7629
  765SOL     OW 2293   1.235   4.320   7.035 -0.3824 -0.5633  0.5545
  765SOL    HW1 2294   1.254   4.333   6.942  0.9571 -1.9299  0.6035
  765SOL    HW2 2295   1.150   4.363   7.048 -0.6040 -0.3557 -1.2909
  766SOL     OW 2296   2.981   2.469   5.075  0.4529 -0.3426 -0.4805
  766SOL    HW1 2297   2.965   2.451   5.168 -0.3135 -0.2579 -0.5910
  766SOL    HW2 2298   3.076   2.462   5.066  0.4558 -1.2665  0.1190
  767SOL     OW 2299   1.817   3.146   7.538  0.1819  0.5342 -0.5566
  767SOL    HW1 2300   1.772   3.219   7.581 -1.3598 -0.2959 -0.6869
  767SOL    HW2 2301   1.772   3.068   7.570  2.0064 -0.4157 -0.1682
  768SOL     OW 2302   1.931   4.480   4.921  0.2205 -0.2082  0.7725
  768SOL    HW1 2303   1.928   4.439   5.007 -2.5934 -0.5071  0.6284
  768SOL    HW2 2304   1.850   4.453   4.879  0.7799  1.2244 -1.3901
  769SOL     OW 2305   0.936   3.479   5.525 -0.2961 -0.1930 -0.4309
  769SOL    HW1 2306   1.004   3.546   5.522 -0.9690  0.7369  2.0971
  769SOL    HW2 2307   0.981   3.397   5.504  0.7318  0.8736 -2.6507
  770SOL     OW 2308   4.941   2.997   7.092  0.1151 -0.5177 -0.1636
  770SOL    HW1 2309   4.861   3.036   7.056  0.1202 -0.9712 -0.6828
  770SOL    HW2 2310   4.977   2.947   7.019  0.9272 -0.2361  0.0409
  771SOL     OW 2311   3.353   0.863   6.177 -0.4764  0.1397  0.2520
  771SOL    HW1 2312   3.394   0.852   6.091 -1.8054  1.7310 -0.6400
  771SOL    HW2 2313   3.421   0.904   6.230 -0.4213  1.5360 -0.8233
  772SOL     OW 2314   1.876   1.076   4.761 -0.4233 -0.1336 -0.2505
  772SOL    HW1 2315   1.924   0.997   4.736  0.4447 -0.1135  1.2185
  772SOL    HW2 2316   1.786   1.047   4.773 -0.4331 -0.5592 -1.2198
  773SOL     OW 2317   2.126   3.239   6.926  0.2320 -0.2585 -0.3491
  773SOL    HW1 2318   2.184   3.314   6.911  0.9098 -0.5938  0.5025
  773SOL    HW2 2319   2.113   3.201   6.840  1.4540 -0.2976 -0.5336
  774SOL     OW 2320   4.827   3.458   5.646  0.5273 -0.2270  0.2704
  774SOL    HW1 2321   4.818   3.400   5.722 -0.5891  0.3643  0.6002
  774SOL    HW2 2322   4.897   3.519   5.671 -0.0359  0.1543  0.9587
  775SOL     OW 2323   1.370   4.707   4.857  0.7600  0.2504  0.1322
  775SOL    HW1 2324   1.373   4.616   4.887 -0.2824  0.3800  0.6954
  775SOL    HW2 2325   1.454   4.721   4.813  0.7927 -1.0856 -0.2817
  776SOL     OW 2326   1.200   1.210   6.722  0.1098 -0.0276  0.1630
  776SOL    HW1 2327   1.265   1.253   6.777 -1.1138 -1.8108  3.2392
  776SOL    HW2 2328   1.122   1.265   6.728 -0.0075 -0.1940  0.1993
  777SOL     OW 2329   0.349   1.469   6.651  0.2046 -0.3617  0.4973
  777SOL    HW1 2330   0.427   1.524   6.657  0.2964 -0.4477  0.1700
  777SOL    HW2 2331   0.379   1.390   6.604  0.0629 -0.6619  0.9055
  778SOL     OW 2332   1.608   1.470   5.943  0.1383 -0.0742 -0.3990
  778SOL    HW1 2333   1.665   1.430   5.877 -0.6063 -0.1773 -0.9874
  778SOL    HW2 2334   1.588   1.557   5.908 -0.9722 -0.4531 -0.7496
  779SOL     OW 2335   1.435   4.691   5.660 -0.6125 -0.0917  0.4523
  779SOL    HW1 2336   1.402   4.630   5.593 -2.3754 -0.0763  1.2511
  779SOL    HW2 2337   1.529   4.694   5.645 -0.8158 -1.0014 -1.2719
  780SOL     OW 2338   4.186   1.730   5.715  0.0706  0.3146 -0.1299
  780SOL    HW1 2339   4.104   1.775   5.734  0.5053  1.3408 -0.6106
  780SOL    HW2 2340   4.243   1.798   5.680  1.2669 -0.3007  0.5784
  781SOL     OW 2341   0.269   3.193   6.964 -0.2749 -0.1287  0.2113
  781SOL    HW1 2342   0.324   3.251   6.911  1.4235 -1.6942  0.1503
  781SOL    HW2 2343   0.221   3.252   7.022 -0.0403  1.4431 -1.1063
  782SOL     OW 2344   2.714   0.449   5.381  0.2274 -0.0668 -0.0703
  782SOL    HW1 2345   2.673   0.405   5.307  0.6678 -2.1350  0.8388
  782SOL    HW2 2346   2.797   0.482   5.347 -0.5181  0.8856 -1.0013
  783SOL     OW 2347   0.814   3.650   5.340  0.1356 -0.0334 -0.2458
  783SOL    HW1 2348   0.783   3.573   5.389 -0.3100  0.5638  0.4259
  783SOL    HW2 2349   0.829   3.717   5.407 -0.8749  0.9304 -0.9389
  784SOL     OW 2350   1.643   4.519   5.177  0.0549  0.0882  0.0379
  784SOL    HW1 2351   1.601   4.469   5.107  1.5103  0.4994 -1.1703
  784SOL    HW2 2352   1.658   4.455   5.246 -0.4142 -0.5662 -0.4494
  785SOL     OW 2353   2.306   1.051   6.131 -0.2464 -0.2049  0.2446
  785SOL    HW1 2354   2.271   0.964   6.144 -0.4726 -0.3220 -1.0397
  785SOL    HW2 2355   2.229   1.109   6.130 -0.1404 -0.0570  0.5955
  786SOL     OW 2356   0.822   1.755   7.616 -0.6907 -0.1050 -0.5960
  786SOL    HW1 2357   0.913   1.780   7.629 -0.0936 -1.5047 -1.7760
  786SOL    HW2 2358   0.772   1.828   7.651  0.8886  0.9787 -0.4827
  787SOL     OW 2359   1.083   1.851   7.622  0.0667  0.1723 -0.8631
  787SOL    HW1 2360   1.099   1.937   7.661 -0.3742  0.5563 -1.5163
  787SOL    HW2 2361   1.100   1.863   7.529  3.9752 -1.4233 -0.5804
  788SOL     OW 2362   0.001   4.531   6.838  0.6462  0.0943 -0.1981
  788SOL    HW1 2363   0.002   4.593   6.911  0.9256  0.8245 -0.8052
  788SOL    HW2 2364   0.092   4.503   6.829  1.0684  1.7588 -1.6887
  789SOL     OW 2365   2.786   0.082   7.163 -0.2725  0.1264  0.2063
  789SOL    HW1 2366   2.697   0.115   7.163  0.0274  0.9883  0.9788
  789SOL    HW2 2367   2.818   0.100   7.251  1.6985  2.7402 -0.9271
  790SOL     OW 2368   4.209   2.402   7.203 -0.1884  0.5259 -0.1263
  790SOL    HW1 2369   4.223   2.321   7.154  2.1588  1.7402 -1.6277
  790SOL    HW2 2370   4.255   2.389   7.285  1.4214  0.8056 -0.9509
  791SOL     OW 2371   1.547   3.984   8.184 -0.4724  0.7637 -0.2686
  791SOL    HW1 2372   1.576   3.897   8.211 -3.2940 -0.9100 -2.0656
  791SOL    HW2 2373   1.590   4.044   8.245 -1.3816 -2.1599  3.6207
  792SOL     OW 2374   0.817   2.009   7.413  0.1803 -0.4812  0.3840
  792SOL    HW1 2375   0.796   2.099   7.438 -3.5007 -0.4743 -1.9715
  792SOL    HW2 2376   0.777   1.956   7.482 -0.0880 -0.3359  0.3431
  793SOL     OW 2377   1.822   1.249   9.365  0.6769 -0.1338 -0.4453
  793SOL    HW1 2378   1.773   1.270   9.286  0.5573  1.6157  0.0610
  793SOL    HW2 2379   1.768   1.280   9.437  2.3122  1.5243  0.1446
  794SOL     OW 2380   1.753   2.606   8.748 -0.0573  0.1373 -0.2330
  794SOL    HW1 2381   1.678   2.547   8.738 -1.7028  2.0432  0.1672
  794SOL    HW2 2382   1.720   2.691   8.719  1.4790  1.3903  1.4825
  795SOL     OW 2383   4.527   3.811   9.335  0.3681  0.2135 -0.2649
  795SOL    HW1 2384   4.619   3.785   9.327  0.6679  1.6740 -3.1200
  795SOL    HW2 2385   4.527   3.904   9.311 -1.7766  0.4461  0.4581
  796SOL     OW 2386   3.951   3.828   6.958 -1.0027  0.5053  0.5329
  796SOL    HW1 2387   3.959   3.815   7.053 -2.8559  0.4832  0.7296
  796SOL    HW2 2388   3.889   3.761   6.930  0.0615  0.0500 -0.8548
  797SOL     OW 2389   0.704   3.620   7.389  0.2404 -0.1350  0.3199
  797SOL    HW1 2390   0.683   3.567   7.312  1.0438 -0.1090  0.0806
  797SOL    HW2 2391   0.796   3.644   7.378  0.3268 -0.0174  1.2178
  798SOL     OW 2392   2.948   1.997   6.988  0.6287  0.3181  0.6060
  798SOL    HW1 2393   3.028   1.997   6.936  0.4768  1.9263  0.3439
  798SOL    HW2 2394   2.913   1.908   6.978  1.5668  0.0549 -0.5297
  799SOL     OW 2395   1.418   1.244   5.272  0.2450 -0.5140 -0.2756
  799SOL    HW1 2396   1.457   1.214   5.353 -0.7341  0.3059  0.5281
  799SOL    HW2 2397   1.354   1.310   5.299  0.6397  0.5350 -1.7895
  800SOL     OW 2398   3.742   4.175   7.523  0.3119  0.5582 -0.4387
  800SOL    HW1 2399   3.759   4.269   7.516  0.6405  0.3526 -3.2529
  800SOL    HW2 2400   3.805   4.134   7.463  0.0300 -1.4733  0.5437
  801SOL     OW 2401   2.053   3.971   8.778 -0.3432 -0.6135  0.7889
  801SOL    HW1 2402   2.129   3.927   8.816 -0.3362 -1.1293  0.1972
  801SOL    HW2 2403   1.986   3.964   8.846 -0.6088 -2.3143  0.4057
  802SOL     OW 2404   0.157   4.603   7.958  0.3237 -0.0298 -0.8220
  802SOL    HW1 2405   0.160   4.612   8.053  0.7915 -0.9432 -0.7468
  802SOL    HW2 2406   0.212   4.674   7.925 -0.6954  0.9551 -0.4626
  803SOL     OW 2407   0.746   2.153   6.858  0.0670  0.2448 -0.4035
  803SOL    HW1 2408   0.659   2.120   6.878 -0.5104  2.4835  1.2006
  803SOL    HW2 2409   0.802   2.075   6.858 -1.5736 -1.0015  0.6217
  804SOL     OW 2410   1.986   3.232   8.628  0.0829  0.2414  0.1819
  804SOL    HW1 2411   1.943   3.235   8.543 -0.1219 -0.5414  0.2501
  804SOL    HW2 2412   1.944   3.301   8.679  0.1419  0.6511 -0.3117
  805SOL     OW 2413   2.435   2.790   4.938  0.2222 -0.2074 -0.4789
  805SOL    HW1 2414   2.445   2.788   4.843 -2.7032  1.3167 -0.9482
  805SOL    HW2 2415   2.483   2.868   4.965  1.6374 -1.0207 -0.5697
  806SOL     OW 2416   1.318   0.530   8.838 -0.1011  1.0411  0.3157
  806SOL    HW1 2417   1.226   0.509   8.855 -0.1798  0.2631 -0.9381
  806SOL    HW2 2418   1.364   0.499   8.916 -0.4619 -2.1921 -0.5992
  807SOL     OW 2419   3.741   4.134   6.457  0.1587  0.2701 -0.5038
  807SOL    HW1 2420   3.824   4.179   6.474  0.1828  0.1538 -0.3091
  807SOL    HW2 2421   3.762   4.041   6.466 -0.1437  0.2644  0.2373
  808SOL     OW 2422   1.660   3.630   7.853  0.3281  0.5962 -0.1263
  808SOL    HW1 2423   1.589   3.672   7.902  1.2612  0.0143  1.8220
  808SOL    HW2 2424   1.615   3.583   7.782 -1.0150  2.0637 -0.3202
  809SOL     OW 2425   0.568   2.585   7.087 -0.3178  0.0613 -0.3570
  809SOL    HW1 2426   0.596   2.516   7.026  1.0460  1.0541 -0.8935
  809SOL    HW2 2427   0.474   2.592   7.073 -0.5255 -1.7653 -0.1993
  810SOL     OW 2428   4.420   2.925   7.191  0.0890 -0.1990 -0.4255
  810SOL    HW1 2429   4.335   2.887   7.214  0.0316  0.4031  0.3754
  810SOL    HW2 2430   4.479   2.897   7.262  0.3649  0.0740 -0.5460
  811SOL     OW 2431   3.356   4.313   6.991  0.1931  0.1873  0.7999
  811SOL    HW1 2432   3.343   4.403   6.961 -1.7877  0.2935  1.8132
  811SOL    HW2 2433   3.276   4.292   7.039  0.1569 -2.4808 -0.2797
  812SOL     OW 2434   0.529   3.780   8.021 -0.6164 -0.1161  0.3718
  812SOL    HW1 2435   0.451   3.821   7.985 -0.2979 -0.9431 -1.3620
  812SOL    HW2 2436   0.594   3.850   8.024 -1.4622  0.6334  2.0600
  813SOL     OW 2437   0.870   1.092   9.660 -0.1992  0.1197  0.3428
  813SOL    HW1 2438   0.867   1.013   9.607  0.4964  0.6934 -0.5847
  813SOL    HW2 2439   0.802   1.149   9.621 -0.5623  0.0594  0.8781
  814SOL     OW 2440   1.944   2.286   9.359 -0.2163  0.4167  0.0699
  814SOL    HW1 2441   1.890   2.310   9.434  0.4153  3.2627 -0.2416
  814SOL    HW2 2442   2.009   2.226   9.394 -3.0541 -2.6272  0.5726
  815SOL     OW 2443   0.659   0.583   7.677 -0.3259 -0.5864 -0.3032
  815SOL    HW1 2444   0.672   0.587   7.582 -0.6412  1.4813 -0.3051
  815SOL    HW2 2445   0.574   0.540   7.687 -0.9099  0.3510 -1.0398
  816SOL     OW 2446   2.223   2.989   6.517 -0.5413  0.3742 -0.1289
  816SOL    HW1 2447   2.198   2.897   6.529  1.3315 -0.2064 -0.3604
  816SOL    HW2 2448   2.179   3.035   6.589 -1.3372 -0.7220  0.1189
  817SOL     OW 2449   3.725   3.243   5.788 -0.4550  0.2192 -0.3265
  817SOL    HW1 2450   3.682   3.209   5.709 -1.1610  0.1250  0.0956
  817SOL    HW2 2451   3.660   3.232   5.857  0.0623  0.5605  0.2156
  818SOL     OW 2452   4.536   3.017   7.604  0.1238 -1.1876  0.6668
  818SOL    HW1 2453   4.576   2.982   7.524  0.5491 -1.0122  0.7995
  818SOL    HW2 2454   4.452   2.972   7.610 -0.2830 -0.5999 -0.3270
  819SOL     OW 2455   4.855   4.274   8.935 -0.0491 -0.7307 -0.6258
  819SOL    HW1 2456   4.832   4.288   8.843  0.6762  2.4413 -0.4138
  819SOL    HW2 2457   4.779   4.304   8.984  1.1893  1.9362 -0.1614
  820SOL     OW 2458   0.231   3.899   6.357 -0.2371  0.3084  0.0140
  820SOL    HW1 2459   0.304   3.843   6.381 -0.0869  0.9934  1.2431
  820SOL    HW2 2460   0.175   3.844   6.303  0.6451 -0.5526 -0.0438
  821SOL     OW 2461   4.466   2.173   8.465  0.3938  0.2154  0.5474
  821SOL    HW1 2462   4.552   2.214   8.466 -0.1246  1.3267  0.6358
  821SOL    HW2 2463   4.406   2.241   8.496 -0.5488 -0.4733  0.2877
  822SOL     OW 2464   0.696   0.356   6.846  0.4112  0.3656  0.5474
  822SOL    HW1 2465   0.632   0.333   6.778  1.2545  2.0188 -0.8963
  822SOL    HW2 2466   0.660   0.320   6.927 -2.1052  0.8219 -0.2906
  823SOL     OW 2467   0.939   1.167   8.505 -0.1190 -0.4845 -0.6247
  823SOL    HW1 2468   0.920   1.097   8.567 -0.3271  0.1527  0.0574
  823SOL    HW2 2469   1.034   1.171   8.501 -0.0929 -0.0286  0.2550
  824SOL     OW 2470   2.664   1.437   5.933 -0.6021 -0.4882  0.3706
  824SOL    HW1 2471   2.723   1.512   5.925  0.2559 -1.2621 -0.8606
  824SOL    HW2 2472   2.588   1.472   5.979  1.0102  0.4198  2.5586
  825SOL     OW 2473   4.293   3.469   9.623 -0.0419  0.1662 -0.5570
  825SOL    HW1 2474   4.373   3.479   9.674  0.2343 -0.8430 -0.7599
  825SOL    HW2 2475   4.240   3.545   9.645  0.8551  0.6993 -0.2017
  826SOL     OW 2476   2.773   2.842   7.868 -0.4175  0.1162  0.0269
  826SOL    HW1 2477   2.808   2.816   7.783  0.7782 -1.3926  0.9318
  826SOL    HW2 2478   2.745   2.760   7.908 -2.1036  0.9387  0.6284
  827SOL     OW 2479   0.450   1.202   8.955  0.4434  0.2214  0.2293
  827SOL    HW1 2480   0.513   1.156   8.900 -1.8664  0.6989 -3.1820
  827SOL    HW2 2481   0.416   1.136   9.015  1.3776 -0.9929 -0.5457
  828SOL     OW 2482   1.065   2.771   5.802  0.4294 -0.4454  0.0762
  828SOL    HW1 2483   1.109   2.750   5.720 -1.4367 -2.1931 -0.5614
  828SOL    HW2 2484   1.028   2.688   5.831 -2.4666  0.8791  0.4956
  829SOL     OW 2485   1.363   3.218   7.207  0.0761 -0.0343 -0.6308
  829SOL    HW1 2486   1.426   3.190   7.273 -0.6462  0.2727  0.2163
  829SOL    HW2 2487   1.416   3.244   7.131  0.9065 -0.5723 -0.2405
  830SOL     OW 2488   4.056   1.636   7.064  0.5867 -0.2695  0.2086
  830SOL    HW1 2489   4.009   1.702   7.115  0.3426  1.5303 -2.1636
  830SOL    HW2 2490   4.004   1.556   7.074 -1.2415  0.8527  0.2283
  831SOL     OW 2491   4.943   3.539   8.922  0.0643  0.2015 -0.4631
  831SOL    HW1 2492   5.033   3.521   8.948  0.1322  1.6645  0.4189
  831SOL    HW2 2493   4.902   3.453   8.915  0.9634 -0.3971  1.1952
  832SOL     OW 2494   2.884   1.252   7.720  0.3271 -0.0031  0.1918
  832SOL    HW1 2495   2.975   1.274   7.742  0.2151  0.6354  0.0466
  832SOL    HW2 2496   2.852   1.329   7.673 -0.1697 -0.3862 -0.1088
  833SOL     OW 2497   1.962   1.820   8.151  0.3453 -0.0670  0.8386
  833SOL    HW1 2498   1.917   1.736   8.157  1.2057 -0.5781  0.2705
  833SOL    HW2 2499   1.909   1.871   8.090  0.8984 -0.9168 -0.3850
  834SOL     OW 2500   0.991   1.739   9.075 -0.2422 -0.3015  0.8287
  834SOL    HW1 2501   1.084   1.751   9.058  0.1513 -1.6468  1.8495
  834SOL    HW2 2502   0.953   1.827   9.070  0.6850  0.0417 -1.6554
  835SOL     OW 2503   1.492   2.440   9.005 -0.1288 -0.0166  0.5523
  835SOL    HW1 2504   1.448   2.360   9.033 -3.5443  1.8137  1.0609
  835SOL    HW2 2505   1.518   2.423   8.915 -2.3338 -1.2199  0.0605
  836SOL     OW 2506   0.535   3.520   7.698 -0.0847 -0.1963 -0.3007
  836SOL    HW1 2507   0.449   3.556   7.678 -0.4215 -0.3379  0.8244
  836SOL    HW2 2508   0.582   3.522   7.615 -1.0598  0.1904 -0.8551
  837SOL     OW 2509   3.305   4.593   6.955  0.1704  0.1094 -0.4106
  837SOL    HW1 2510   3.383   4.632   6.916 -0.8721 -0.7978 -3.7066
  837SOL    HW2 2511   3.238   4.662   6.948  0.4050  0.6542  1.8155
  838SOL     OW 2512   1.772   3.379   8.850 -0.6244 -0.2105  0.7595
  838SOL    HW1 2513   1.718   3.383   8.770 -3.0982  1.2539  2.3509
  838SOL    HW2 2514   1.835   3.450   8.840 -0.4022 -0.5322 -0.2170
  839SOL     OW 2515   1.812   4.552   6.924 -0.2344  0.0339 -0.5265
  839SOL    HW1 2516   1.839   4.498   6.998 -0.1156  0.8158  0.0055
  839SOL    HW2 2517   1.815   4.642   6.956 -1.0670  0.3251 -1.1981
  840SOL     OW 2518   3.890   0.915   8.871 -0.3848  0.3157  0.8515
  840SOL    HW1 2519   3.958   0.899   8.805 -0.2789 -1.6986  1.3866
  840SOL    HW2 2520   3.937   0.919   8.954 -0.8430 -0.6080  1.1721
  841SOL     OW 2521   1.955   1.917   7.009  0.3451 -0.4928 -0.0546
  841SOL    HW1 2522   2.047   1.942   7.000  0.3588 -0.3963  0.3205
  841SOL    HW2 2523   1.918   1.928   6.922  1.0675 -2.0652 -0.5963
  842SOL     OW 2524   0.848   0.056   9.205 -0.8922 -0.6216  0.2288
  842SOL    HW1 2525   0.905   0.093   9.272 -1.3698 -1.1815  0.9632
  842SOL    HW2 2526   0.835  -0.035   9.231 -0.3641 -1.1107 -1.1181
  843SOL     OW 2527   0.336   3.866   6.795 -0.5128 -0.2105 -0.1428
  843SOL    HW1 2528   0.418   3.916   6.800  0.5811 -1.7926 -1.1140
  843SOL    HW2 2529   0.365   3.775   6.790 -2.3997 -0.8907  0.5248
  844SOL     OW 2530   4.450   2.230   9.721  0.2073 -0.0269 -0.2813
  844SOL    HW1 2531   4.368   2.279   9.730 -0.2262 -1.0367  1.9289
  844SOL    HW2 2532   4.462   2.187   9.806  3.0770  0.1290 -0.4803
  845SOL     OW 2533   2.470   2.410   8.452 -0.2680  0.5371 -0.1414
  845SOL    HW1 2534   2.534   2.466   8.408 -0.2407  1.1167  0.6158
  845SOL    HW2 2535   2.521   2.335   8.483 -0.5088 -0.5755 -2.2164
  846SOL     OW 2536   0.346   4.125   7.503  0.0781  0.2241 -0.2636
  846SOL    HW1 2537   0.357   4.049   7.561  0.5732 -0.4511 -1.2212
  846SOL    HW2 2538   0.389   4.100   7.422  1.2992  2.0015 -0.2127
  847SOL     OW 2539   1.144   0.283   6.839 -0.6514 -0.3767  0.2797
  847SOL    HW1 2540   1.103   0.221   6.900 -1.2765  0.2717  0.5343
  847SOL    HW2 2541   1.091   0.278   6.760 -2.1367  1.4711  1.0794
  848SOL     OW 2542   0.020   0.712   9.152 -0.6275  0.4276 -0.0678
  848SOL    HW1 2543   0.035   0.655   9.227 -0.5689  0.0805 -0.3388
  848SOL    HW2 2544   0.090   0.777   9.155 -0.5923  0.3773  0.1430
  849SOL     OW 2545   4.077   3.041   8.171  0.1908 -0.6319 -0.1665
  849SOL    HW1 2546   3.997   3.063   8.221  0.8246 -1.2598  1.1720
  849SOL    HW2 2547   4.061   2.953   8.137  1.2320 -1.8318  2.2108
  850SOL     OW 2548   0.477   1.626   6.869  0.1635  0.5167 -0.1423
  850SOL    HW1 2549   0.571   1.617   6.858  0.3208  1.7610 -0.0352
  850SOL    HW2 2550   0.456   1.571   6.945  0.4876 -1.1770 -1.2338
  851SOL     OW 2551   2.580   1.011   6.147 -0.2203  0.1686  0.1943
  851SOL    HW1 2552   2.487   1.031   6.140 -0.7875 -1.6194  1.7290
  851SOL    HW2 2553   2.584   0.937   6.208  2.1622 -0.1846 -0.2879
  852SOL     OW 2554   4.773   4.566   6.368 -0.1394 -0.4905  0.5201
  852SOL    HW1 2555   4.834   4.550   6.440  0.2730 -2.5860 -0.2179
  852SOL    HW2 2556   4.687   4.571   6.409  0.2655  0.0502  1.3215
  853SOL     OW 2557   4.257   4.100   8.841  0.4998 -0.3202  0.5375
  853SOL    HW1 2558   4.277   4.041   8.914 -0.5687 -0.0328  1.0804
  853SOL    HW2 2559   4.220   4.177   8.883 -1.2240 -0.6218 -0.3649
  854SOL     OW 2560   2.872   4.317   9.814  0.5324 -0.7400 -0.4903
  854SOL    HW1 2561   2.892   4.270   9.895  1.1673 -2.1929 -1.4459
  854SOL    HW2 2562   2.876   4.250   9.745 -1.2069  0.2140 -1.5881
  855SOL     OW 2563   2.251   2.387   7.138  0.2525  0.4292  0.1914
  855SOL    HW1 2564   2.168   2.434   7.130  0.7496  1.3489  0.2895
  855SOL    HW2 2565   2.288   2.387   7.050 -0.3446 -0.9454 -0.0832
  856SOL     OW 2566   3.407   3.404   8.219  0.0572  0.0604  0.1077
  856SOL    HW1 2567   3.440   3.415   8.130 -0.8788 -1.5166 -0.4618
  856SOL    HW2 2568   3.483   3.377   8.270  0.0295 -2.0636 -0.8825
  857SOL     OW 2569   1.841   1.347   6.401  0.7051 -0.3255  0.4635
  857SOL    HW1 2570   1.903   1.276   6.382  0.2065 -0.0160 -3.0134
  857SOL    HW2 2571   1.763   1.324   6.349 -0.8270  1.0175  2.0539
  858SOL     OW 2572   1.593   1.383   6.200 -0.3373 -0.0982 -0.3692
  858SOL    HW1 2573   1.535   1.431   6.260  1.1026 -0.2422  1.2090
  858SOL    HW2 2574   1.587   1.431   6.117 -0.5880  1.5487  0.5593
  859SOL     OW 2575   2.458   1.573   5.638 -0.0139 -0.0010  0.2330
  859SOL    HW1 2576   2.501   1.543   5.557 -0.7224  0.7522 -0.4466
  859SOL    HW2 2577   2.460   1.497   5.696  1.0531 -0.3782 -0.2654
  860SOL     OW 2578   0.147   0.383   8.765 -0.4300 -0.0540 -0.1237
  860SOL    HW1 2579   0.214   0.398   8.698 -0.2913 -0.2608 -0.0343
  860SOL    HW2 2580   0.073   0.437   8.738  0.1200  0.9205  0.3015
  861SOL     OW 2581   2.058   1.478   8.085  0.8704  0.3976  0.7364
  861SOL    HW1 2582   2.104   1.430   8.016 -0.0348 -1.9003  1.6442
  861SOL    HW2 2583   2.094   1.443   8.167 -1.0177 -0.0346  1.4378
  862SOL     OW 2584   2.117   2.743   7.240  0.6189 -0.4199  0.0959
  862SOL    HW1 2585   2.030   2.782   7.232  1.1798  0.9953  0.5330
  862SOL    HW2 2586   2.175   2.817   7.257  2.0295 -1.2457 -0.8785
  863SOL     OW 2587   0.502   2.317   8.861 -0.6275 -0.0390 -0.4641
  863SOL    HW1 2588   0.436   2.355   8.918 -0.7270  0.0587 -0.6410
  863SOL    HW2 2589   0.584   2.356   8.889 -0.8995  1.4112 -1.5524
  864SOL     OW 2590   4.824   2.526   8.358 -0.0803 -0.2744 -0.3060
  864SOL    HW1 2591   4.781   2.518   8.444  0.9818  1.2692  0.4028
  864SOL    HW2 2592   4.775   2.594   8.313  0.2963 -0.0232 -0.3384
  865SOL     OW 2593   1.388   2.035   7.361 -0.1077 -0.0615 -0.1457
  865SOL    HW1 2594   1.365   2.122   7.328 -0.7387 -0.4553 -0.7779
  865SOL    HW2 2595   1.304   1.989   7.368  0.3612 -1.2306 -1.6296
  866SOL     OW 2596   3.380   1.211   7.107  0.3060  0.1746 -0.7453
  866SOL    HW1 2597   3.379   1.139   7.170 -0.5646  1.3250  0.6065
  866SOL    HW2 2598   3.349   1.171   7.026  2.6247 -1.6171 -0.8475
  867SOL     OW 2599   4.722   1.914   7.582  0.3472 -0.7542  0.0633
  867SOL    HW1 2600   4.659   1.950   7.519  0.9125  3.0586  1.3813
  867SOL    HW2 2601   4.805   1.912   7.534  0.1448 -1.1083 -0.2759
  868SOL     OW 2602   1.303   3.333   6.936  0.3801  0.3351 -0.8130
  868SOL    HW1 2603   1.252   3.384   6.999 -0.1386 -1.5520  0.3979
  868SOL    HW2 2604   1.374   3.391   6.909  2.3024  0.4407  3.6134
  869SOL     OW 2605   0.826   3.544   7.826  0.6062 -0.4553 -0.3195
  869SOL    HW1 2606   0.751   3.596   7.798 -1.0304 -1.9470  1.0157
  869SOL    HW2 2607   0.862   3.508   7.745 -1.1572 -1.0250 -0.8821
  870SOL     OW 2608   1.640   1.665   7.046 -0.3650  0.2614 -0.1390
  870SOL    HW1 2609   1.618   1.738   6.987  2.0384  0.2608 -1.1455
  870SOL    HW2 2610   1.719   1.694   7.091 -0.2040 -1.1561  0.5239
  871SOL     OW 2611   1.353   1.673   8.484  0.5072  0.2403  0.0779
  871SOL    HW1 2612   1.421   1.740   8.471  0.2706  0.6160  0.7413
  871SOL    HW2 2613   1.341   1.669   8.579 -0.1358 -0.0956 -0.0132
  872SOL     OW 2614   0.707   2.457   9.001 -0.0525  0.0309  0.0083
  872SOL    HW1 2615   0.757   2.468   9.082 -0.2367 -1.0074  0.2782
  872SOL    HW2 2616   0.677   2.545   8.979  3.1146  1.0062 -0.9873
  873SOL     OW 2617   2.171   1.878   5.329  0.2187 -0.1548 -0.4318
  873SOL    HW1 2618   2.107   1.823   5.284  0.8868 -0.3603 -1.1405
  873SOL    HW2 2619   2.246   1.821   5.343 -0.3407 -0.4180  1.9187
  874SOL     OW 2620   0.209   0.226   6.664 -0.0242  0.0487 -0.3916
  874SOL    HW1 2621   0.213   0.273   6.748  1.4709 -0.8781  0.0880
  874SOL    HW2 2622   0.115   0.213   6.649 -0.3914  1.4961  0.4039
  875SOL     OW 2623   3.133   4.105   7.114 -0.1059 -0.2153  0.1969
  875SOL    HW1 2624   3.132   4.020   7.158 -0.4736 -0.5565 -0.4522
  875SOL    HW2 2625   3.160   4.085   7.025  0.4154  0.4382  0.2044
  876SOL     OW 2626   1.585   4.511   7.236  0.1618 -0.5998 -0.4444
  876SOL    HW1 2627   1.545   4.546   7.157 -0.2354  0.1206  0.0642
  876SOL    HW2 2628   1.661   4.566   7.252 -0.8453  0.5073  0.7349
  877SOL     OW 2629   1.621   2.772   8.587  0.5740 -0.2264  0.3950
  877SOL    HW1 2630   1.538   2.774   8.539  0.2906 -1.3538  0.7917
  877SOL    HW2 2631   1.688   2.760   8.520  0.2948 -0.5536  0.1746
  878SOL     OW 2632   4.843   3.526   8.595  0.0018  0.2416 -0.9052
  878SOL    HW1 2633   4.855   3.570   8.678  1.9153 -2.2296  0.2616
  878SOL    HW2 2634   4.902   3.571   8.534  1.1089  0.0191 -0.0236
  879SOL     OW 2635   4.181   3.576   7.421 -0.2938  0.2896 -0.1003
  879SOL    HW1 2636   4.234   3.532   7.486 -1.7797  0.3004  1.1842
  879SOL    HW2 2637   4.131   3.506   7.379  0.1794  0.3518 -0.7765
  880SOL     OW 2638   0.872   2.547   8.219 -0.3729  0.1106 -0.0421
  880SOL    HW1 2639   0.873   2.641   8.199  0.7165 -0.2349 -1.7436
  880SOL    HW2 2640   0.963   2.520   8.212 -0.5540 -0.9428  1.2525
  881SOL     OW 2641   1.240   2.736   8.643 -0.7202 -0.2329 -0.0092
  881SOL    HW1 2642   1.229   2.796   8.717  0.1091 -0.4483  0.2971
  881SOL    HW2 2643   1.162   2.751   8.589 -0.1696  1.6656 -0.3507
  882SOL     OW 2644   3.756   1.416   5.635  0.2942 -0.4340  0.4088
  882SOL    HW1 2645   3.745   1.511   5.628  0.4042 -0.4760 -0.3887
  882SOL    HW2 2646   3.850   1.403   5.647  0.3658 -0.4799 -0.1945
  883SOL     OW 2647   4.584   2.349   6.553  0.9144 -0.3110  0.0562
  883SOL    HW1 2648   4.646   2.374   6.484  0.4761  0.5925 -0.0146
  883SOL    HW2 2649   4.515   2.414   6.548  0.4577 -0.7276  0.8099
  884SOL     OW 2650   4.762   3.869   9.657  0.5041  0.0284  0.6164
  884SOL    HW1 2651   4.758   3.857   9.562  0.4759 -0.2928  0.6556
  884SOL    HW2 2652   4.775   3.963   9.669 -0.5625  0.2298  0.3203
  885SOL     OW 2653   2.079   2.099   8.173  0.0339 -0.3592 -0.1165
  885SOL    HW1 2654   2.079   2.064   8.083 -1.1238 -2.7901  0.7319
  885SOL    HW2 2655   2.125   2.033   8.224 -1.2953 -0.1490  1.4334
  886SOL     OW 2656   0.542   4.051   8.275 -0.3808  0.0908 -0.4248
  886SOL    HW1 2657   0.551   4.027   8.182  2.5324 -0.3193 -0.1500
  886SOL    HW2 2658   0.582   4.138   8.281  0.0794 -0.1688  0.5187
  887SOL     OW 2659   0.747   3.110   9.083  0.2740 -0.2802 -0.2532
  887SOL    HW1 2660   0.814   3.042   9.084  0.5655  0.0045 -0.3203
  887SOL    HW2 2661   0.795   3.192   9.089  0.0867  0.0397 -2.2103
  888SOL     OW 2662   4.294   4.374   7.874  0.4125  0.7038 -0.6593
  888SOL    HW1 2663   4.260   4.361   7.785  0.9157 -0.9028 -0.6537
  888SOL    HW2 2664   4.389   4.384   7.862  0.2973  2.4838 -0.4408
  889SOL     OW 2665   4.622   4.916   7.776 -0.0602  0.1826 -0.4586
  889SOL    HW1 2666   4.532   4.950   7.775 -0.7948 -1.5589  1.3148
  889SOL    HW2 2667   4.612   4.821   7.776  1.8747 -0.0954 -2.4895
  890SOL     OW 2668   1.638   4.282   7.516 -0.2586  0.6021  0.2643
  890SOL    HW1 2669   1.564   4.241   7.470  0.1831  0.5641 -0.4210
  890SOL    HW2 2670   1.647   4.231   7.597 -0.7036  0.3358  0.1508
  891SOL     OW 2671   4.973   3.956   6.067 -0.7913 -0.0731  0.5268
  891SOL    HW1 2672   4.972   3.995   6.155 -1.6182 -0.8091  0.8563
  891SOL    HW2 2673   4.934   3.869   6.079  0.6509 -0.8574 -0.2646
  892SOL     OW 2674   1.963   1.880   9.262 -0.0702  0.2473  0.1177
  892SOL    HW1 2675   1.917   1.807   9.304 -1.0725  0.6279 -0.2830
  892SOL    HW2 2676   1.897   1.948   9.255  0.5959  0.8442 -0.4014
  893SOL     OW 2677   3.826   1.536   7.914  0.0148 -0.0601 -0.1872
  893SOL    HW1 2678   3.805   1.468   7.850 -2.0159 -1.0600  1.4343
  893SOL    HW2 2679   3.789   1.617   7.876  1.3690 -0.0222 -1.5482
  894SOL     OW 2680   0.675   3.852   8.536  0.1830  0.7673  0.0293
  894SOL    HW1 2681   0.716   3.926   8.491  2.7009 -0.7547 -0.3973
  894SOL    HW2 2682   0.581   3.870   8.533  0.4195  2.0951 -3.3841
  895SOL     OW 2683   4.346   3.760   8.290  0.0189  0.4724 -0.0861
  895SOL    HW1 2684   4.287   3.691   8.261 -1.7832  1.3561  1.2304
  895SOL    HW2 2685   4.412   3.715   8.343  0.1080 -0.4562 -0.9637
  896SOL     OW 2686   0.282   1.962   9.057  0.6520 -1.2525  0.3303
  896SOL    HW1 2687   0.201   2.006   9.028  0.7284 -0.7562  0.8501
  896SOL    HW2 2688   0.323   1.933   8.976 -0.0269 -1.4707  0.0519
  897SOL     OW 2689   0.275   1.674   9.180  0.0010 -0.2227  0.6863
  897SOL    HW1 2690   0.356   1.686   9.130 -0.4982 -0.4133 -0.1986
  897SOL    HW2 2691   0.255   1.760   9.214  0.4824 -0.1367  0.7671
  898SOL     OW 2692   0.321   2.037   6.354 -0.0966 -0.8088  0.1147
  898SOL    HW1 2693   0.344   2.093   6.427  0.3582 -0.0991 -0.5603
  898SOL    HW2 2694   0.376   2.067   6.281 -0.7331 -1.3117 -0.5974
  899SOL     OW 2695   0.212   4.433   7.147 -0.0447 -0.1839  0.1767
  899SOL    HW1 2696   0.259   4.500   7.197  0.1958 -0.1561 -0.0867
  899SOL    HW2 2697   0.194   4.474   7.062 -1.1667  0.0583  0.5184
  900SOL     OW 2698   0.701   2.878   6.880  0.5733  0.1226 -0.4645
  900SOL    HW1 2699   0.747   2.854   6.799 -0.8069 -2.4747 -0.5751
  900SOL    HW2 2700   0.762   2.857   6.950  0.2046 -1.9581 -0.6849
  901SOL     OW 2701   2.682   2.889   7.024  0.1143 -0.3921 -0.6781
  901SOL    HW1 2702   2.642   2.915   6.941 -0.1544  0.0279 -0.4195
  901SOL    HW2 2703   2.622   2.824   7.060 -0.2617  0.1323 -0.3584
  902SOL     OW 2704   4.936   1.762   9.231  0.0250 -0.1291 -0.3827
  902SOL    HW1 2705   5.028   1.785   9.245  0.2676 -1.7481  0.9740
  902SOL    HW2 2706   4.924   1.769   9.136  1.8865 -1.0174 -0.7381
  903SOL     OW 2707   0.371   4.702   7.778  0.4910  0.1748 -0.1565
  903SOL    HW1 2708   0.336   4.750   7.703 -1.0920  0.0954  0.4781
  903SOL    HW2 2709   0.410   4.623   7.740 -0.1842  0.1936 -0.9204
  904SOL     OW 2710   1.409   1.698   6.102 -0.5548  0.5878  0.7731
  904SOL    HW1 2711   1.455   1.731   6.025  0.9903  1.1565  1.8822
  904SOL    HW2 2712   1.335   1.757   6.114 -1.3040  0.0038 -0.7127
  905SOL     OW 2713   3.585   4.584   8.290 -0.0516 -0.2174  0.4951
  905SOL    HW1 2714   3.509   4.543   8.248 -0.0002 -0.2249  0.4081
  905SOL    HW2 2715   3.549   4.657   8.339 -0.4279 -1.5978  2.3835
  906SOL     OW 2716   4.913   3.044   8.637 -0.2261  0.1125  0.4223
  906SOL    HW1 2717   4.988   3.038   8.697 -0.7106  0.1423  1.0453
  906SOL    HW2 2718   4.913   3.134   8.607  0.7937 -0.2287 -0.6565
  907SOL     OW 2719   2.858   2.247   7.503 -0.8246  0.2548 -0.1368
  907SOL    HW1 2720   2.925   2.305   7.465  0.2243 -0.0804  1.1087
  907SOL    HW2 2721   2.848   2.176   7.439 -0.0507  0.3645 -0.3887
  908SOL     OW 2722   1.584   2.274   6.121  0.5962  0.2499 -0.3566
  908SOL    HW1 2723   1.570   2.368   6.105  0.7673  0.1984 -0.8218
  908SOL    HW2 2724   1.675   2.268   6.149  0.3450  0.3193  0.5138
  909SOL     OW 2725   1.543   2.964   7.617 -0.6971 -0.1712  0.1996
  909SOL    HW1 2726   1.613   2.961   7.682  0.8237 -4.3374 -1.2940
  909SOL    HW2 2727   1.486   2.891   7.640 -3.0573  1.4045 -0.2961
  910SOL     OW 2728   2.674   3.104   7.851 -0.2319 -0.0929  0.5365
  910SOL    HW1 2729   2.710   3.016   7.859  1.1575  0.5447  1.8280
  910SOL    HW2 2730   2.724   3.144   7.779  0.8692  0.4057  1.5504
  911SOL     OW 2731   2.168   0.762  10.082 -0.1673 -0.2515  0.1305
  911SOL    HW1 2732   2.248   0.730  10.125 -0.9999 -0.2087  1.7647
  911SOL    HW2 2733   2.182   0.856  10.073 -0.9921  0.1928  2.7014
  912SOL     OW 2734   2.358   3.752   6.446  0.5420 -0.0563 -0.6594
  912SOL    HW1 2735   2.446   3.763   6.410 -0.2489 -0.6168 -2.9336
  912SOL    HW2 2736   2.346   3.657   6.450 -0.1553  0.0170 -0.9359
  913SOL     OW 2737   1.579   0.604   6.551 -0.0946  0.7531  0.2114
  913SOL    HW1 2738   1.623   0.596   6.467  3.0349  2.5864  1.4869
  913SOL    HW2 2739   1.582   0.516   6.589 -0.9462  0.0577 -1.2579
  914SOL     OW 2740   0.907   3.154   9.382 -0.2735 -0.8341  0.0505
  914SOL    HW1 2741   0.964   3.098   9.435 -2.3649 -0.6081  2.8210
  914SOL    HW2 2742   0.827   3.103   9.371 -2.0235  1.1753  2.1572
  915SOL     OW 2743   1.522   1.636   9.301  0.3623  0.1246 -0.3374
  915SOL    HW1 2744   1.484   1.661   9.385 -0.5053  0.3808 -0.7990
  915SOL    HW2 2745   1.447   1.628   9.242  0.5945 -3.0168 -0.3734
  916SOL     OW 2746   0.620   1.288   8.589 -0.5382  0.2481 -0.4437
  916SOL    HW1 2747   0.660   1.223   8.646 -0.0122 -0.0663 -1.1613
  916SOL    HW2 2748   0.540   1.315   8.635  0.1275  0.3645  0.6584
  917SOL     OW 2749   4.925   0.873   8.770  0.2115 -0.0637  0.1413
  917SOL    HW1 2750   4.992   0.916   8.718 -0.7462  0.9006 -0.3406
  917SOL    HW2 2751   4.953   0.781   8.775  0.0910 -0.3382 -2.5688
  918SOL     OW 2752   0.097   0.309  10.110 -0.3800 -0.1677 -0.1218
  918SOL    HW1 2753   0.123   0.262  10.190  1.9393  0.8120 -0.2070
  918SOL    HW2 2754   0.016   0.354  10.134 -1.1079 -1.8691  0.8474
  919SOL     OW 2755   3.251   0.042   7.281 -0.2849 -0.2816  0.5122
  919SOL    HW1 2756   3.316   0.053   7.351  0.7776  0.8083 -0.6025
  919SOL    HW2 2757   3.264  -0.048   7.251  0.6905 -0.0927  0.3416
  920SOL     OW 2758   2.664   2.561   9.027  0.2518  0.0379  0.0252
  920SOL    HW1 2759   2.737   2.519   8.981  1.5236  0.2082  1.7961
  920SOL    HW2 2760   2.670   2.653   9.001 -0.3572 -0.2118 -1.0811
  921SOL     OW 2761   0.700   2.526   7.343 -0.2839 -0.6422  0.0285
  921SOL    HW1 2762   0.793   2.516   7.321  0.3095  1.2178  1.4422
  921SOL    HW2 2763   0.661   2.563   7.264  0.0401 -1.9162 -0.7579
  922SOL     OW 2764   4.573   1.715   8.601 -0.1340  0.2645 -0.8693
  922SOL    HW1 2765   4.598   1.736   8.511  0.5399  0.6795 -0.5991
  922SOL    HW2 2766   4.513   1.785   8.626 -0.7313 -0.1404 -1.1673
  923SOL     OW 2767   0.937   2.583   7.209  0.6993 -0.0922  0.2923
  923SOL    HW1 2768   1.029   2.600   7.187  0.5498  0.4078  0.0522
  923SOL    HW2 2769   0.890   2.660   7.178  0.1808 -0.3946  0.3173
  924SOL     OW 2770   1.783   2.577   7.363  0.1311  0.0846  0.0143
  924SOL    HW1 2771   1.747   2.663   7.343 -2.3756 -1.1178 -1.1299
  924SOL    HW2 2772   1.718   2.536   7.419  1.3702 -1.0417  0.6963
  925SOL     OW 2773   0.937   2.418  10.054 -0.4283 -0.3575 -0.0556
  925SOL    HW1 2774   1.012   2.412   9.994 -0.8100 -1.7917 -0.4470
  925SOL    HW2 2775   0.929   2.511  10.074  0.1539  0.0797 -1.6841
  926SOL     OW 2776   0.132   0.893   7.421 -0.4325 -0.6432 -0.4747
  926SOL    HW1 2777   0.062   0.939   7.375  2.0033  1.9402 -1.9000
  926SOL    HW2 2778   0.146   0.814   7.369 -1.0619 -0.2882 -1.2084
  927SOL     OW 2779   0.791   4.557   6.725  0.4634  0.3766 -0.6531
  927SOL    HW1 2780   0.856   4.613   6.683 -1.1585  2.7914 -0.1609
  927SOL    HW2 2781   0.723   4.544   6.658 -0.0314  0.5622 -0.2007
  928SOL     OW 2782   1.949   0.489   8.881  0.0141  0.1339  0.0582
  928SOL    HW1 2783   1.887   0.422   8.910  0.5964 -0.3451  0.2134
  928SOL    HW2 2784   1.895   0.567   8.867 -0.5869 -0.2070  0.4266
  929SOL     OW 2785   0.504   4.637   9.619  0.0042 -0.2199 -0.0403
  929SOL    HW1 2786   0.481   4.550   9.653  2.1892 -0.6774  0.4069
  929SOL    HW2 2787   0.586   4.624   9.573 -0.4670  1.3360 -1.4273
  930SOL     OW 2788   0.591   3.189   8.181 -0.2185 -0.1346 -0.1038
  930SOL    HW1 2789   0.565   3.100   8.155  1.0189 -0.7075  0.5325
  930SOL    HW2 2790   0.544   3.205   8.262  0.5799 -0.7655  0.5022
  931SOL     OW 2791   1.878   2.448   7.772  0.4718 -0.3497  0.2520
  931SOL    HW1 2792   1.920   2.504   7.837  0.0298  1.4884 -0.9679
  931SOL    HW2 2793   1.810   2.503   7.733 -0.9319 -2.1951 -0.0723
  932SOL     OW 2794   4.853   4.480   7.657  0.2081  0.3259  0.2222
  932SOL    HW1 2795   4.925   4.531   7.620  0.1214 -1.0042 -1.9290
  932SOL    HW2 2796   4.856   4.397   7.610 -0.7318 -1.0221  2.3928
  933SOL     OW 2797   4.144   2.031   8.318  0.1687  0.4202 -0.6192
  933SOL    HW1 2798   4.222   1.977   8.335 -0.4310  0.2932  2.2983
  933SOL    HW2 2799   4.099   1.986   8.247  0.1291 -2.5827  1.0979
  934SOL     OW 2800   3.965   1.948   7.593 -0.0546  0.6232 -0.5692
  934SOL    HW1 2801   3.903   2.004   7.640 -1.2075 -0.1531 -1.1514
  934SOL    HW2 2802   4.049   1.967   7.635 -0.6294  1.8385  0.0954
  935SOL     OW 2803   4.181   3.575   8.205  0.3481 -0.0309 -0.1073
  935SOL    HW1 2804   4.115   3.579   8.136  0.9841 -0.4601 -0.7558
  935SOL    HW2 2805   4.171   3.488   8.243  1.4756 -0.6577 -1.1785
  936SOL     OW 2806   0.116   4.128   9.797  0.3435  0.2200  0.0169
  936SOL    HW1 2807   0.147   4.218   9.809  1.0560  0.0548 -0.4898
  936SOL    HW2 2808   0.162   4.078   9.864  0.8034  0.0540 -0.4195
  937SOL     OW 2809   0.937   3.377   5.053 -0.3486 -0.3804 -0.0711
  937SOL    HW1 2810   0.910   3.351   4.965  0.2200  0.0452 -0.3698
  937SOL    HW2 2811   1.032   3.365   5.054 -0.0087  1.8454 -0.2924
  938SOL     OW 2812   0.530   4.916   8.377 -0.3636 -0.3595 -0.2373
  938SOL    HW1 2813   0.623   4.911   8.353 -0.2989 -0.9663  0.1057
  938SOL    HW2 2814   0.515   5.008   8.398 -0.1266 -0.0394 -1.4061
  939SOL     OW 2815   0.425   0.827   7.539  0.2137 -0.1328  0.1219
  939SOL    HW1 2816   0.431   0.733   7.521 -0.8390 -0.0789 -0.6176
  939SOL    HW2 2817   0.395   0.866   7.457 -0.5513  0.6818  0.7670
  940SOL     OW 2818   0.248   1.869   7.296  0.0118 -0.0958  0.2229
  940SOL    HW1 2819   0.248   1.775   7.277  1.5918 -0.0359 -0.2619
  940SOL    HW2 2820   0.281   1.909   7.215 -1.7066  1.0025  0.0098
  941SOL     OW 2821   0.842   3.615   8.577  1.1604  0.0133 -0.0561
  941SOL    HW1 2822   0.910   3.632   8.512  0.0392 -0.1049 -1.2973
  941SOL    HW2 2823   0.775   3.681   8.561  1.9010  1.5356  2.5905
  942SOL     OW 2824   0.691   4.920   8.819  0.4565 -1.3628  0.2374
  942SOL    HW1 2825   0.628   4.991   8.826  1.1968 -0.5823 -0.6807
  942SOL    HW2 2826   0.644   4.851   8.772  0.1393 -0.9592 -0.0521
  943SOL     OW 2827   4.888   4.074   8.521  0.0158  0.1723  0.4071
  943SOL    HW1 2828   4.833   4.066   8.443 -2.0641  0.5497  1.7493
  943SOL    HW2 2829   4.910   3.983   8.543  0.4764  0.0513 -0.4944
  944SOL     OW 2830   1.394   4.280   7.245  0.5991 -0.0517 -0.3503
  944SOL    HW1 2831   1.340   4.302   7.169  0.4649  2.0368  0.2938
  944SOL    HW2 2832   1.470   4.337   7.238 -0.3170  1.6051  2.0544
  945SOL     OW 2833   1.071   2.470   9.538 -0.0321  0.2180 -0.1404
  945SOL    HW1 2834   1.128   2.546   9.555  0.4993  0.0934 -1.2542
  945SOL    HW2 2835   1.073   2.460   9.443 -2.6470  0.7516 -0.3167
  946SOL     OW 2836   0.474   1.005   8.507  0.5510  0.2528 -0.3086
  946SOL    HW1 2837   0.527   1.018   8.429  1.2894  0.5053  0.2223
  946SOL    HW2 2838   0.536   1.013   8.580  0.1126 -1.2057  0.2653
  947SOL     OW 2839   0.847   4.802   7.241 -0.4078  0.5541  0.2069
  947SOL    HW1 2840   0.931   4.775   7.277 -0.0106  2.1386  0.5346
  947SOL    HW2 2841   0.782   4.750   7.289  0.3195  0.0568  0.6648
  948SOL     OW 2842   0.977   4.153   7.241 -0.5744 -0.0435  0.5500
  948SOL    HW1 2843   1.027   4.085   7.287 -0.5783  0.2839  1.0556
  948SOL    HW2 2844   0.994   4.233   7.292 -1.1118  0.1953  0.3606
  949SOL     OW 2845   0.586   3.476   8.578  0.1005  0.0411  0.3148
  949SOL    HW1 2846   0.668   3.515   8.607 -1.9451  3.2203  2.3968
  949SOL    HW2 2847   0.557   3.423   8.652 -0.0410 -0.6287 -0.2052
  950SOL     OW 2848   2.201   2.981   6.060  0.5854  0.3992  0.0457
  950SOL    HW1 2849   2.205   2.886   6.048  2.2996  0.2483  1.4271
  950SOL    HW2 2850   2.109   3.003   6.044 -0.0539 -1.6325  0.5699
  951SOL     OW 2851   1.316   0.791   9.036  0.0111 -0.1625 -0.1866
  951SOL    HW1 2852   1.332   0.747   9.119 -3.3010 -0.1757  0.5829
  951SOL    HW2 2853   1.366   0.873   9.042  4.1883 -2.4067 -0.5845
  952SOL     OW 2854   4.857   0.166   9.437 -0.3167  0.5424 -0.7039
  952SOL    HW1 2855   4.914   0.193   9.364 -1.2316 -0.6743 -1.9233
  952SOL    HW2 2856   4.778   0.134   9.394 -0.9703 -0.0017  0.8624
  953SOL     OW 2857   1.158   1.610   6.844  0.2315  0.3614 -0.5561
  953SOL    HW1 2858   1.220   1.652   6.903  0.1666 -0.6550  0.2681
  953SOL    HW2 2859   1.198   1.526   6.822 -0.2390  0.2692 -1.0968
  954SOL     OW 2860   3.446   0.705   8.369 -0.1759  0.1962 -0.1021
  954SOL    HW1 2861   3.510   0.677   8.434  1.6136  0.7317 -1.5523
  954SOL    HW2 2862   3.403   0.623   8.342  0.5543 -0.3089  0.2292
  955SOL     OW 2863   1.365   1.032   9.126 -0.2847 -0.1693  0.5377
  955SOL    HW1 2864   1.334   1.060   9.212 -0.8701 -1.2713  0.7135
  955SOL    HW2 2865   1.373   1.113   9.076  2.9997  0.8780  2.4875
  956SOL     OW 2866   1.550   2.555   5.784  0.1021 -0.3811  0.2205
  956SOL    HW1 2867   1.590   2.638   5.757  0.7422 -0.0192  2.1683
  956SOL    HW2 2868   1.586   2.490   5.724  0.9506  0.4704 -0.2116
  957SOL     OW 2869   3.761   1.061   7.553  0.4801 -0.0618  0.2830
  957SOL    HW1 2870   3.819   1.115   7.499 -0.3040 -0.2873 -0.8371
  957SOL    HW2 2871   3.783   1.083   7.643  1.1129  1.1036 -0.1419
  958SOL     OW 2872   1.900   0.700   7.276  0.1976 -0.2153  0.8411
  958SOL    HW1 2873   1.819   0.661   7.245  0.7395  0.1218 -1.1435
  958SOL    HW2 2874   1.875   0.787   7.307 -0.1231  0.2264 -0.5633
  959SOL     OW 2875   3.851   4.913   9.171 -0.7938 -0.1707 -0.1797
  959SOL    HW1 2876   3.848   4.837   9.230  0.2274  0.3063  0.4976
  959SOL    HW2 2877   3.888   4.983   9.223 -3.4559  1.3819 -0.2024
  960SOL     OW 2878   0.594   0.654   8.642 -0.1287 -0.2244 -0.5008
  960SOL    HW1 2879   0.666   0.706   8.606  0.8934 -0.1284  1.5182
  960SOL    HW2 2880   0.634   0.607   8.716 -1.7517 -1.5308 -0.4061
  961SOL     OW 2881   0.483   3.288   6.778  0.1279  0.8510  0.3856
  961SOL    HW1 2882   0.529   3.204   6.770 -1.7384 -0.1569 -0.5669
  961SOL    HW2 2883   0.495   3.329   6.693 -1.0399  0.3901 -0.0139
  962SOL     OW 2884   1.546   1.907   6.917 -0.3097  0.2686 -0.1448
  962SOL    HW1 2885   1.453   1.916   6.941 -0.6378  0.3272 -1.3631
  962SOL    HW2 2886   1.548   1.926   6.823  0.6297 -1.7069 -0.5739
  963SOL     OW 2887   2.715   4.037   5.898  0.1011 -0.3135  0.3334
  963SOL    HW1 2888   2.744   3.946   5.886  0.7778 -0.0955  0.2790
  963SOL    HW2 2889   2.653   4.033   5.970 -0.4572 -0.9360 -0.1624
  964SOL     OW 2890   1.053   3.616   8.395  0.2799 -0.0484  0.1785
  964SOL    HW1 2891   1.083   3.676   8.326 -2.5202  1.8102  0.4002
  964SOL    HW2 2892   1.121   3.622   8.463  0.8198  1.7441 -0.4545
  965SOL     OW 2893   0.098   3.482   9.517 -0.3529 -0.0999 -0.0581
  965SOL    HW1 2894   0.053   3.497   9.433  0.7725 -0.3514 -0.7187
  965SOL    HW2 2895   0.070   3.556   9.571 -0.6180  0.4045 -0.8556
  966SOL     OW 2896   4.851   4.397   7.911 -0.1097 -0.1992  0.3957
  966SOL    HW1 2897   4.859   4.479   7.960  0.5851  0.5235 -0.8549
  966SOL    HW2 2898   4.863   4.423   7.819  0.5535 -1.7538  0.0060
  967SOL     OW 2899   0.670   1.944   8.354  0.4033  0.4256  0.0747
  967SOL    HW1 2900   0.698   2.024   8.309  1.6999  0.4018  0.7851
  967SOL    HW2 2901   0.583   1.925   8.318  1.1679  0.6750 -2.0706
  968SOL     OW 2902   1.360   2.701   7.295  0.3506  0.1161  0.1403
  968SOL    HW1 2903   1.301   2.662   7.360  0.3858  0.7436  0.5618
  968SOL    HW2 2904   1.318   2.784   7.271  2.0231  1.6046  1.9900
  969SOL     OW 2905   3.463   3.485   9.741  0.3502  0.0854  0.0709
  969SOL    HW1 2906   3.404   3.560   9.745 -0.1058 -0.2682  0.0516
  969SOL    HW2 2907   3.549   3.522   9.720  0.1894  0.6303  0.3838
  970SOL     OW 2908   2.398   3.110   7.710  0.0030 -0.3914  0.4001
  970SOL    HW1 2909   2.444   3.115   7.626 -0.3164 -0.9132  0.1890
  970SOL    HW2 2910   2.464   3.134   7.775  0.4237 -0.5949  0.0518
  971SOL     OW 2911   2.235   1.741   8.089 -0.3334 -0.0733  0.1349
  971SOL    HW1 2912   2.232   1.779   8.001 -0.8449  0.6862  0.4748
  971SOL    HW2 2913   2.144   1.739   8.118 -0.1009  0.3673  0.9337
  972SOL     OW 2914   3.935   4.369   6.207  0.7227  0.2948  0.4917
  972SOL    HW1 2915   3.898   4.310   6.273 -0.3436  1.8284  1.3229
  972SOL    HW2 2916   4.007   4.319   6.168  0.8273 -0.9807  2.2094
  973SOL     OW 2917   1.364   1.125   8.086  0.4144 -0.7454  0.2316
  973SOL    HW1 2918   1.441   1.072   8.064  0.7678 -0.3317  0.4754
  973SOL    HW2 2919   1.391   1.215   8.068 -0.5084 -0.7114 -1.1418
  974SOL     OW 2920   3.974   0.414   8.838 -0.2197  0.3087  0.3387
  974SOL    HW1 2921   3.923   0.471   8.896  1.6070  0.3150  2.0228
  974SOL    HW2 2922   4.020   0.354   8.897 -0.6178 -1.7071 -1.2883
  975SOL     OW 2923   1.895   2.194   7.940 -0.0903  0.0041 -0.3145
  975SOL    HW1 2924   1.903   2.241   7.857 -2.1304  0.8245 -0.1128
  975SOL    HW2 2925   1.910   2.261   8.007  0.6729 -0.4586 -0.0165
  976SOL     OW 2926   4.283   3.432   6.120 -0.4122 -0.6354 -0.8996
  976SOL    HW1 2927   4.283   3.434   6.025  3.6898 -3.4331 -1.2136
  976SOL    HW2 2928   4.337   3.507   6.145 -2.7797  1.0672 -0.5012
  977SOL     OW 2929   0.181   2.295   7.591  0.5914 -0.0442 -0.0448
  977SOL    HW1 2930   0.146   2.212   7.625 -1.7383  0.1780 -1.7039
  977SOL    HW2 2931   0.159   2.359   7.659 -1.7583 -0.0463 -0.7109
  978SOL     OW 2932   1.944   2.305   6.626  0.2240 -0.0063 -0.2434
  978SOL    HW1 2933   1.934   2.231   6.686 -1.3670 -0.0695 -0.5450
  978SOL    HW2 2934   1.933   2.267   6.539  0.3412  0.4326 -0.4507
  979SOL     OW 2935   0.590   4.320   8.863  0.3902  0.2077  0.0158
  979SOL    HW1 2936   0.512   4.367   8.891 -1.2124 -2.6676  0.7752
  979SOL    HW2 2937   0.617   4.269   8.940  3.7837  1.9488  0.1499
  980SOL     OW 2938   0.521   2.792   9.149  0.0847  0.6752  0.0892
  980SOL    HW1 2939   0.432   2.821   9.128 -1.6302 -2.5877  1.9918
  980SOL    HW2 2940   0.541   2.834   9.233 -2.9437 -3.8106  3.5637
  981SOL     OW 2941   4.358   3.931   9.004  0.0513 -0.4963  0.2891
  981SOL    HW1 2942   4.451   3.910   9.008 -0.2293 -1.9895 -0.1182
  981SOL    HW2 2943   4.327   3.921   9.094  0.3865  0.6283  0.5443
  982SOL     OW 2944   1.014   2.797   8.472 -0.0732  0.2443 -0.1781
  982SOL    HW1 2945   1.065   2.858   8.419  0.6011 -0.1551  0.0053
  982SOL    HW2 2946   0.932   2.843   8.489  0.1915  0.8612 -0.5380
  983SOL     OW 2947   1.568   0.941   8.062 -0.9035 -0.2356  0.0169
  983SOL    HW1 2948   1.623   0.925   8.139  0.3823  1.1548 -0.5519
  983SOL    HW2 2949   1.620   0.908   7.989 -1.2103  0.3045 -0.4494
  984SOL     OW 2950   0.910   1.428   6.111  0.1590  0.2418  0.5098
  984SOL    HW1 2951   0.969   1.353   6.121  0.2265  0.2690  0.3154
  984SOL    HW2 2952   0.835   1.392   6.063  0.1708  0.2878  0.4567
  985SOL     OW 2953   1.449   4.460   9.680  0.5087  0.4224  0.4467
  985SOL    HW1 2954   1.437   4.555   9.685 -3.6115  0.3561 -3.0686
  985SOL    HW2 2955   1.414   4.427   9.763 -1.5678  1.8755  0.2228
  986SOL     OW 2956   0.167   2.558   8.108  0.3908  0.1896  0.3959
  986SOL    HW1 2957   0.098   2.528   8.167 -0.9548  0.5680 -0.9030
  986SOL    HW2 2958   0.242   2.575   8.165 -0.2082 -1.3280  1.7105
  987SOL     OW 2959   1.447   4.512   7.516  0.0143 -0.2748  0.3718
  987SOL    HW1 2960   1.528   4.461   7.506  0.7242  0.3905  2.2331
  987SOL    HW2 2961   1.459   4.588   7.459  0.4585 -0.4593  0.2181
  988SOL     OW 2962   1.976   2.587   8.564  0.1842 -0.0392 -0.7137
  988SOL    HW1 2963   1.906   2.584   8.629  0.1614  1.1982 -0.6435
  988SOL    HW2 2964   2.027   2.665   8.588  1.7617 -1.0706 -0.5890
  989SOL     OW 2965   2.333   1.570   7.302  0.3353 -0.5037  0.7249
  989SOL    HW1 2966   2.307   1.547   7.212 -0.3568  0.2175  0.7281
  989SOL    HW2 2967   2.423   1.602   7.294 -0.4647  1.7157 -0.0922
  990SOL     OW 2968   1.379   2.772   7.732 -0.3874 -0.2435  0.0865
  990SOL    HW1 2969   1.365   2.678   7.742  0.9572 -0.7930 -2.5109
  990SOL    HW2 2970   1.447   2.793   7.797  1.0316 -1.6064 -0.8776
  991SOL     OW 2971   1.180   2.999   8.348 -0.1679  0.2450  0.1210
  991SOL    HW1 2972   1.162   3.093   8.343  0.3555  0.2912 -1.6762
  991SOL    HW2 2973   1.166   2.967   8.258  1.4392 -1.0386  0.2703
  992SOL     OW 2974   4.817   1.878   5.484 -0.4118  0.1358 -0.0420
  992SOL    HW1 2975   4.894   1.935   5.476 -0.6328  0.3816 -0.4985
  992SOL    HW2 2976   4.750   1.923   5.433 -1.0409  0.2291  0.8541
  993SOL     OW 2977   0.399   3.299   9.538 -0.0001  0.4967 -0.1489
  993SOL    HW1 2978   0.352   3.309   9.455  1.5009  1.7400 -0.8939
  993SOL    HW2 2979   0.483   3.262   9.515  0.7308  1.5458  0.6951
  994SOL     OW 2980   1.308   3.895   8.021  0.0046  0.5833 -0.3009
  994SOL    HW1 2981   1.385   3.891   8.077  0.2729 -1.6863 -0.7173
  994SOL    HW2 2982   1.249   3.829   8.057 -0.8932  0.8891 -1.1679
  995SOL     OW 2983   4.646   3.566   7.397  0.7148 -0.2276  0.0408
  995SOL    HW1 2984   4.651   3.659   7.419 -0.7207 -0.4091  1.2421
  995SOL    HW2 2985   4.615   3.524   7.477 -0.3354 -1.5107 -1.0018
  996SOL     OW 2986   3.319   0.999   9.780  0.0971 -0.0338  0.0813
  996SOL    HW1 2987   3.297   0.909   9.756  0.1936 -0.9691  3.0686
  996SOL    HW2 2988   3.241   1.032   9.823  0.8148  0.5025  1.0026
  997SOL     OW 2989   2.614   1.015   9.646 -0.4353  0.1595 -0.1363
  997SOL    HW1 2990   2.674   1.076   9.602 -0.6499  0.9915  0.6873
  997SOL    HW2 2991   2.668   0.939   9.667 -0.4073 -0.4172 -2.1107
  998SOL     OW 2992   1.312   1.920   8.729 -0.4872  0.0373 -0.5767
  998SOL    HW1 2993   1.302   1.825   8.726 -0.0478 -0.0691  0.8960
  998SOL    HW2 2994   1.381   1.938   8.665  0.6692 -0.8393  0.3880
  999SOL     OW 2995   2.522   1.162   9.330 -0.4497 -0.0468  0.3209
  999SOL    HW1 2996   2.432   1.176   9.359 -0.5711  0.2850 -0.1843
  999SOL    HW2 2997   2.533   1.067   9.330 -1.1467 -0.1472 -0.5869
 1000SOL     OW 2998   4.244   3.487   8.991 -0.2949  0.6414  0.4093
 1000SOL    HW1 2999   4.182   3.494   9.063  1.7556 -0.1295  2.3689
 1000SOL    HW2 3000   4.326   3.459   9.032  1.3620  1.5275 -2.0287
 1001SOL     OW 3001   0.609   0.187   9.143  0.0569 -0.1543  0.7455
 1001SOL    HW1 3002   0.537   0.130   9.117 -0.9476  0.9027  1.1345
 1001SOL    HW2 3003   0.679   0.127   9.168 -1.5107 -1.2649  2.7288
 1002SOL     OW 3004   2.254   4.456   9.526 -0.0509  0.2907  0.1896
 1002SOL    HW1 3005   2.258   4.519   9.598  0.2159 -2.0721  2.3774
 1002SOL    HW2 3006   2.164   4.423   9.527  0.4277 -1.0760  0.6901
 1003SOL     OW 3007   0.340   2.418   9.082 -0.3124  1.1428  0.5315
 1003SOL    HW1 3008   0.292   2.497   9.055 -1.4272  0.1755 -0.4285
 1003SOL    HW2 3009   0.320   2.408   9.175 -0.4483  1.7904  0.5766
 1004SOL     OW 3010   0.629   4.137   8.638  0.4532 -0.4445  0.1327
 1004SOL    HW1 3011   0.686   4.066   8.667  0.8452 -0.6051 -0.9906
 1004SOL    HW2 3012   0.634   4.202   8.708  1.6804 -0.6476  0.2464
 1005SOL     OW 3013   2.661   2.986   8.650 -0.3981 -0.2886 -0.1231
 1005SOL    HW1 3014   2.702   2.978   8.564 -0.5438  1.1781 -0.3451
 1005SOL    HW2 3015   2.580   3.034   8.633 -0.0050  0.7788  0.9548
 1006SOL     OW 3016   2.151   2.230   8.484 -0.3291  0.3508 -0.4999
 1006SOL    HW1 3017   2.117   2.149   8.447  0.6982 -1.1630  1.6341
 1006SOL    HW2 3018   2.236   2.206   8.520 -0.3846  2.1499  0.9907
 1007SOL     OW 3019   0.486   3.139   9.053 -0.2383 -0.1362 -0.2937
 1007SOL    HW1 3020   0.580   3.124   9.068 -0.0413  0.4505 -0.8605
 1007SOL    HW2 3021   0.457   3.062   9.004  0.3025  0.3560 -1.4340
 1008SOL     OW 3022   2.941   2.309   9.433 -0.5024  0.8502 -0.1451
 1008SOL    HW1 3023   2.931   2.215   9.418  0.9676  0.8641 -1.5119
 1008SOL    HW2 3024   3.003   2.315   9.506  1.6036  0.6768 -1.8158
 1009SOL     OW 3025   4.763   2.075  10.091 -0.1777  0.2044 -0.0862
 1009SOL    HW1 3026   4.796   2.161  10.064  1.7730 -0.3148  0.4640
 1009SOL    HW2 3027   4.835   2.036  10.141 -1.9191 -0.7639  1.8302
 1010SOL     OW 3028   0.549   1.952   6.756  0.0604  0.2099 -0.1526
 1010SOL    HW1 3029   0.580   1.908   6.835 -0.1680  0.6346  0.1761
 1010SOL    HW2 3030   0.474   1.899   6.728 -0.4915  0.6294  0.4943
 1011SOL     OW 3031   0.790   1.855   9.802  0.0249 -0.4443 -0.5220
 1011SOL    HW1 3032   0.847   1.897   9.867 -0.5919 -0.1037 -0.1979
 1011SOL    HW2 3033   0.714   1.912   9.795  0.0372 -0.5235 -1.4899
 1012SOL     OW 3034   4.951   2.274   9.769 -0.3389  0.3258 -0.0890
 1012SOL    HW1 3035   5.036   2.319   9.767 -0.1599  0.2349  2.6087
 1012SOL    HW2 3036   4.913   2.298   9.853 -3.8503  1.7771 -1.8604
 1013SOL     OW 3037   0.332   0.247   8.214 -0.2679 -0.0535  0.6142
 1013SOL    HW1 3038   0.250   0.297   8.211 -0.2736 -0.1067 -0.9428
 1013SOL    HW2 3039   0.321   0.180   8.147  1.3724  0.4629 -0.2150
 1014SOL     OW 3040   3.604   0.953   9.722 -0.1497 -0.2654  0.2500
 1014SOL    HW1 3041   3.656   1.022   9.762 -0.9341  0.5391 -0.0944
 1014SOL    HW2 3042   3.514   0.972   9.747 -0.4905 -0.5806 -0.6858
 1015SOL     OW 3043   3.292   2.017   8.998 -0.2496  0.0802 -0.3826
 1015SOL    HW1 3044   3.369   1.964   8.980 -0.4673 -0.2744 -0.2772
 1015SOL    HW2 3045   3.306   2.051   9.086  0.0248  0.4394 -0.5603
 1016SOL     OW 3046   1.365   3.084   6.190  0.2315 -0.6844  0.6218
 1016SOL    HW1 3047   1.354   3.131   6.108  0.8387 -3.2699 -1.0510
 1016SOL    HW2 3048   1.309   3.007   6.182  0.7009 -1.2796  2.4492
 1017SOL     OW 3049   1.084   2.348   8.509  0.0027 -0.3292  0.1557
 1017SOL    HW1 3050   1.054   2.263   8.542 -1.2630  0.5758  1.4651
 1017SOL    HW2 3051   1.011   2.381   8.457 -0.5183  0.9942  1.6570
 1018SOL     OW 3052   2.558   1.669   8.479  0.1554 -0.3478 -0.2087
 1018SOL    HW1 3053   2.588   1.718   8.402 -0.5168  0.9543  0.3281
 1018SOL    HW2 3054   2.568   1.577   8.454 -0.6120  0.0376 -2.0811
 1019SOL     OW 3055   4.613   0.487   9.646 -0.0557  0.7571 -0.0627
 1019SOL    HW1 3056   4.582   0.418   9.705 -0.7114  0.5076 -0.6829
 1019SOL    HW2 3057   4.612   0.567   9.700  0.6753  0.3050  0.6480
 1020SOL     OW 3058   4.109   0.710   8.716  0.0293  0.3332 -0.3439
 1020SOL    HW1 3059   4.067   0.747   8.638 -0.9640 -1.2019 -0.5973
 1020SOL    HW2 3060   4.053   0.636   8.740  1.8614 -0.9598  0.1640
 1021SOL     OW 3061   2.093   4.244   9.756  0.0716  0.0554 -0.3808
 1021SOL    HW1 3062   2.176   4.282   9.785 -1.0230  2.1052  0.2855
 1021SOL    HW2 3063   2.053   4.312   9.702 -1.4169 -0.6650 -0.2418
 1022SOL     OW 3064   4.645   3.470   7.882  0.1325 -0.1266  0.1408
 1022SOL    HW1 3065   4.660   3.560   7.852  0.3895 -0.2381 -0.0625
 1022SOL    HW2 3066   4.552   3.469   7.908 -0.0987 -0.0304 -0.6574
 1023SOL     OW 3067   1.419   0.669   7.849  0.6848 -0.4685  0.7559
 1023SOL    HW1 3068   1.497   0.680   7.795  0.3170 -1.6950 -0.0614
 1023SOL    HW2 3069   1.388   0.759   7.865 -1.8002  0.1666 -4.9974
 1024SOL     OW 3070   1.738   1.801   8.792 -0.2983  0.2078  0.1824
 1024SOL    HW1 3071   1.730   1.849   8.709 -0.2699  0.0585  0.0934
 1024SOL    HW2 3072   1.770   1.867   8.854 -1.0893  0.5205  0.2678
 1025SOL     OW 3073   0.887   2.182   8.383 -0.1848  0.0484  0.2111
 1025SOL    HW1 3074   0.801   2.222   8.375 -0.3911 -0.4372 -0.0169
 1025SOL    HW2 3075   0.881   2.126   8.461  0.1495  0.5741  0.6203
 1026SOL     OW 3076   1.258   1.825   7.932 -0.3931 -0.0658  0.5673
 1026SOL    HW1 3077   1.306   1.870   8.002 -0.2155 -0.2429  0.5603
 1026SOL    HW2 3078   1.176   1.874   7.924 -0.6460 -0.3681  1.2622
 1027SOL     OW 3079   3.968   4.265   9.446  0.2663 -0.0314  0.2633
 1027SOL    HW1 3080   3.916   4.329   9.495  1.2387  0.3897  0.7966
 1027SOL    HW2 3081   3.905   4.199   9.417 -1.0405  1.9392 -1.6513
 1028SOL     OW 3082   4.014   4.147   7.425 -0.5248  0.6583 -0.4756
 1028SOL    HW1 3083   4.097   4.111   7.394  0.4721  2.7408 -0.4224
 1028SOL    HW2 3084   4.033   4.176   7.515 -0.8099  2.5682 -0.9897
 1029SOL     OW 3085   1.109   2.435   9.245 -0.1670 -0.5023 -0.1945
 1029SOL    HW1 3086   1.185   2.392   9.285 -0.3911  0.3470  1.1976
 1029SOL    HW2 3087   1.146   2.491   9.177  0.6200  0.9445  1.3649
 1030SOL     OW 3088   1.703   2.644   7.695  0.2367 -0.3339  0.9060
 1030SOL    HW1 3089   1.659   2.688   7.768 -1.3156 -0.4169  0.0622
 1030SOL    HW2 3090   1.632   2.609   7.641  1.2471  0.7642 -1.2976
 1031SOL     OW 3091   1.401   0.519   8.552 -0.0442 -0.4404 -0.3741
 1031SOL    HW1 3092   1.471   0.464   8.588 -0.9247 -0.6165  1.1588
 1031SOL    HW2 3093   1.337   0.525   8.623 -0.1854  2.2015 -0.6277
 1032SOL     OW 3094   0.646   1.614   9.861 -0.3777 -0.5395 -0.2469
 1032SOL    HW1 3095   0.680   1.702   9.847  0.3776 -0.8314 -0.2856
 1032SOL    HW2 3096   0.642   1.605   9.957  0.7733 -0.9121 -0.2175
 1033SOL     OW 3097   3.105   2.744   8.727 -0.2105  0.1956  0.1527
 1033SOL    HW1 3098   3.068   2.827   8.757  0.0109  0.5954 -0.6447
 1033SOL    HW2 3099   3.190   2.739   8.770  0.0999  0.7611 -0.3724
 1034SOL     OW 3100   3.368   1.733   7.281 -0.0865 -0.5787 -0.4689
 1034SOL    HW1 3101   3.288   1.782   7.264 -0.0471 -0.3720 -0.0791
 1034SOL    HW2 3102   3.345   1.674   7.354 -0.2539 -1.4411 -1.1967
 1035SOL     OW 3103   4.334   4.423   8.666 -0.0575  0.3456 -0.0974
 1035SOL    HW1 3104   4.275   4.490   8.632  0.5212  1.6277  1.2933
 1035SOL    HW2 3105   4.343   4.360   8.595 -1.4354  1.2094 -1.0820
 1036SOL     OW 3106   1.188   2.643   6.875 -0.4770  0.2547 -0.6460
 1036SOL    HW1 3107   1.277   2.623   6.905 -0.0576  1.5706 -0.9549
 1036SOL    HW2 3108   1.177   2.589   6.796  0.2039  0.4028 -0.8479
 1037SOL     OW 3109   3.932   3.996   8.092  0.3169  0.6046 -0.1451
 1037SOL    HW1 3110   3.842   4.026   8.105  0.6696  1.4672  0.4656
 1037SOL    HW2 3111   3.959   3.966   8.179 -0.3609 -2.6025 -0.9190
 1038SOL     OW 3112   3.456   3.061   7.391 -0.1388  0.4656  0.6260
 1038SOL    HW1 3113   3.399   3.138   7.390 -0.6550  0.0848  0.4359
 1038SOL    HW2 3114   3.531   3.086   7.337 -0.7104  0.5266 -0.1461
 1039SOL     OW 3115   4.815   0.506   8.806  0.2486  0.3278  0.4618
 1039SOL    HW1 3116   4.811   0.541   8.717  0.0050  0.9686  0.7219
 1039SOL    HW2 3117   4.784   0.415   8.797 -2.5600  1.1985  0.3069
 1040SOL     OW 3118   1.083   1.537   9.737  0.0690  0.7500 -0.2586
 1040SOL    HW1 3119   1.068   1.558   9.829 -2.5476  1.6317 -0.8129
 1040SOL    HW2 3120   1.025   1.595   9.689 -2.8214 -3.3156 -2.2431
 1041SOL     OW 3121   2.993   4.531   7.978 -0.0967 -0.0350  0.1807
 1041SOL    HW1 3122   2.952   4.523   7.892 -1.5766 -1.7425  0.9852
 1041SOL    HW2 3123   3.087   4.532   7.960 -0.3383  2.7910 -1.6408
 1042SOL     OW 3124   1.690   4.518   9.503 -0.0277  0.2216  0.5490
 1042SOL    HW1 3125   1.635   4.585   9.462  0.9594 -0.6323 -2.3955
 1042SOL    HW2 3126   1.756   4.568   9.551 -1.8478  1.2623  2.0856
 1043SOL     OW 3127   3.324   3.731   9.836 -0.4476 -0.5942 -0.0338
 1043SOL    HW1 3128   3.315   3.703   9.927 -1.4463 -1.8849 -0.5078
 1043SOL    HW2 3129   3.238   3.718   9.798  0.3740 -1.8136 -1.6170
 1044SOL     OW 3130   4.740   1.345  10.438  0.2576  0.2948 -0.0021
 1044SOL    HW1 3131   4.711   1.413  10.378  0.6349  2.2040  1.8604
 1044SOL    HW2 3132   4.722   1.380  10.525  0.3225 -2.0807  1.0566
 1045SOL     OW 3133   1.966   1.067   8.714 -0.0050 -0.2056 -0.3697
 1045SOL    HW1 3134   1.972   1.101   8.625  1.7937  0.5315 -0.0219
 1045SOL    HW2 3135   2.000   0.978   8.707 -1.4029 -0.7354 -0.6756
 1046SOL     OW 3136   1.740   2.511   9.118  0.1115  0.5910 -0.8948
 1046SOL    HW1 3137   1.753   2.606   9.120 -1.6245  0.9313 -2.4681
 1046SOL    HW2 3138   1.647   2.500   9.095 -0.2014 -1.5164  0.9799
 1047SOL     OW 3139   4.220   3.853   9.890  0.3999  0.2317  0.7418
 1047SOL    HW1 3140   4.218   3.784   9.956  0.7466 -0.7167 -0.2016
 1047SOL    HW2 3141   4.202   3.933   9.938 -0.2686 -0.5443  1.8388
 1048SOL     OW 3142   1.318   3.632   9.416  0.3471 -0.0263 -0.0563
 1048SOL    HW1 3143   1.390   3.622   9.478  0.8875 -1.0864 -0.8364
 1048SOL    HW2 3144   1.346   3.584   9.338 -0.9527  0.0494 -0.5933
 1049SOL     OW 3145   0.124   1.393   8.872  0.5431  0.0115 -0.0457
 1049SOL    HW1 3146   0.064   1.428   8.937  0.4045  2.2897 -1.2874
 1049SOL    HW2 3147   0.194   1.458   8.866  1.3912 -0.9433 -1.0259
 1050SOL     OW 3148   2.269   1.653   8.393 -0.6283 -0.8796  0.5699
 1050SOL    HW1 3149   2.293   1.661   8.301 -1.5535 -1.5311  0.2609
 1050SOL    HW2 3150   2.353   1.652   8.439 -0.1784  0.2240 -0.1848
 1051SOL     OW 3151   2.024   3.612   9.517  0.0935 -0.3065 -0.8216
 1051SOL    HW1 3152   1.989   3.699   9.500 -3.2713 -1.4440 -0.3296
 1051SOL    HW2 3153   2.019   3.603   9.613 -1.5638 -1.7313 -1.0043
 1052SOL     OW 3154   1.114   3.305   9.246  0.1408 -0.2293  0.0904
 1052SOL    HW1 3155   1.186   3.246   9.225 -0.2573  0.0917 -2.4446
 1052SOL    HW2 3156   1.052   3.250   9.295  1.7459 -0.6761  1.6939
 1053SOL     OW 3157   1.537   3.610   9.621  0.1719  0.4596  0.3239
 1053SOL    HW1 3158   1.580   3.660   9.552 -1.2449  0.4198 -0.6373
 1053SOL    HW2 3159   1.581   3.638   9.701  3.3076 -1.0609 -0.7079
 1054SOL     OW 3160   1.734   1.612   8.464 -0.4105 -0.2204  0.7670
 1054SOL    HW1 3161   1.828   1.607   8.483 -0.4641  1.4421  1.6415
 1054SOL    HW2 3162   1.696   1.539   8.513  0.2124  0.2823  2.0325
 1055SOL     OW 3163   2.616   1.927   9.432  0.2367 -0.3373  0.4982
 1055SOL    HW1 3164   2.699   1.885   9.456  0.0324 -0.6440  0.6732
 1055SOL    HW2 3165   2.637   1.980   9.355  0.5715 -0.4963  0.4800
 1056SOL     OW 3166   0.585   3.094   9.943 -0.0272 -0.3559  0.0550
 1056SOL    HW1 3167   0.532   3.036   9.888 -0.4772 -0.0682  0.1772
 1056SOL    HW2 3168   0.598   3.172   9.889 -0.5217 -0.0479  0.3725
 1057SOL     OW 3169   0.903   1.663   6.759  0.1437 -0.5447 -0.0956
 1057SOL    HW1 3170   0.960   1.609   6.813  0.2121  0.2956  0.7096
 1057SOL    HW2 3171   0.824   1.610   6.746 -0.1456 -0.5233  1.4010
 1058SOL     OW 3172   0.301   2.524   9.536 -0.5897 -0.5412  0.0327
 1058SOL    HW1 3173   0.396   2.510   9.531 -0.6020 -0.4830 -0.4387
 1058SOL    HW2 3174   0.269   2.499   9.449 -1.1497 -1.6159  0.5254
 1059SOL     OW 3175   4.028   3.406   7.742  0.3450 -0.1746  0.5552
 1059SOL    HW1 3176   3.989   3.329   7.699  1.9590 -1.4986  1.3780
 1059SOL    HW2 3177   4.122   3.394   7.731  0.6886  0.7720  2.2359
 1060SOL     OW 3178   0.979   0.975   7.918  0.1209 -0.4940  0.6129
 1060SOL    HW1 3179   0.979   0.887   7.882 -0.5985  0.4092 -1.7301
 1060SOL    HW2 3180   0.910   1.021   7.871  0.2043  1.2370  2.0626
 1061SOL     OW 3181   0.673   0.236   8.604  0.5273 -0.0790 -0.1996
 1061SOL    HW1 3182   0.744   0.261   8.545 -1.7357  3.5061 -1.7789
 1061SOL    HW2 3183   0.594   0.244   8.551 -1.3268 -0.7949  2.2652
 1062SOL     OW 3184   2.087   3.018   8.259  0.0200  0.0515 -0.1392
 1062SOL    HW1 3185   2.072   2.978   8.174 -1.6489  1.3802 -0.5335
 1062SOL    HW2 3186   2.102   3.111   8.239 -0.5024  0.3985  1.0063
 1063SOL     OW 3187   1.170   2.349   8.172 -0.2858  0.4875  0.0081
 1063SOL    HW1 3188   1.191   2.268   8.219  0.4732 -0.0402 -1.2159
 1063SOL    HW2 3189   1.116   2.321   8.099 -1.5131  1.3172  0.5691
 1064SOL     OW 3190   1.311   2.479   8.640  0.2612  0.3897  0.0224
 1064SOL    HW1 3191   1.296   2.574   8.636 -0.5978  0.2337 -0.6560
 1064SOL    HW2 3192   1.269   2.445   8.561 -1.0530 -0.7781  1.1847
 1065SOL     OW 3193   0.634   4.452   9.125 -0.3568 -0.9811 -0.3021
 1065SOL    HW1 3194   0.672   4.540   9.113  1.0561 -1.6106 -0.6565
 1065SOL    HW2 3195   0.552   4.455   9.077  1.0425 -0.7258 -2.8376
 1066SOL     OW 3196   2.231   2.663   7.653 -0.8742 -0.0393 -0.0764
 1066SOL    HW1 3197   2.304   2.702   7.605 -1.8830 -0.8607 -2.4114
 1066SOL    HW2 3198   2.268   2.584   7.692  0.1599  1.0509  1.2676
 1067SOL     OW 3199   4.966   1.949   6.483 -0.0906  0.1147  0.1198
 1067SOL    HW1 3200   4.898   1.892   6.448  1.6794 -1.0607 -1.6131
 1067SOL    HW2 3201   5.015   1.893   6.543  0.8007  0.2163 -0.5038
 1068SOL     OW 3202   4.872   1.856   7.950 -0.0996  0.4439  0.2415
 1068SOL    HW1 3203   4.799   1.893   7.901 -0.2576 -0.5326 -0.3029
 1068SOL    HW2 3204   4.837   1.775   7.987  0.3777  0.5496  0.9311
 1069SOL     OW 3205   4.500   2.151   9.993 -0.0831 -0.0185  0.0774
 1069SOL    HW1 3206   4.535   2.240   9.998  1.5994 -0.3059 -3.3487
 1069SOL    HW2 3207   4.574   2.095  10.016  0.0132 -0.5515 -1.4265
 1070SOL     OW 3208   0.075   1.442   8.363  0.3910 -0.3084 -0.0424
 1070SOL    HW1 3209   0.091   1.349   8.375  2.0524 -0.4346 -2.5667
 1070SOL    HW2 3210   0.109   1.483   8.443  1.5293 -1.7170  0.2293
 1071SOL     OW 3211   0.342   1.378   7.876  0.4639 -0.7305  0.6378
 1071SOL    HW1 3212   0.334   1.320   7.952 -0.5603 -0.3663  0.8248
 1071SOL    HW2 3213   0.404   1.445   7.904  1.0807 -1.3117  0.6887
 1072SOL     OW 3214   2.630   2.189   8.112 -0.6953  0.0853  0.6500
 1072SOL    HW1 3215   2.664   2.227   8.193  1.3016  1.4662 -0.7508
 1072SOL    HW2 3216   2.535   2.201   8.118 -0.9999 -2.5001  4.0269
 1073SOL     OW 3217   0.168   2.743   8.715 -0.3407 -0.4898  0.1772
 1073SOL    HW1 3218   0.175   2.649   8.697 -0.2575 -0.8169  1.7945
 1073SOL    HW2 3219   0.143   2.782   8.631 -0.6628 -1.9907 -0.4443
 1074SOL     OW 3220   1.113   3.098   8.630  0.0494  0.0156 -0.8238
 1074SOL    HW1 3221   1.127   3.188   8.601  0.3666  0.0520 -0.5604
 1074SOL    HW2 3222   1.089   3.051   8.550  1.7213 -0.0487 -1.3267
 1075SOL     OW 3223   2.953   1.992   8.504 -0.5299 -0.2113 -0.2515
 1075SOL    HW1 3224   2.879   1.932   8.517  0.2202 -0.8555  1.3212
 1075SOL    HW2 3225   2.981   2.015   8.593  3.7065 -3.2163 -0.5408
 1076SOL     OW 3226   3.644   2.722   9.155 -0.8681  0.0682  0.1832
 1076SOL    HW1 3227   3.723   2.752   9.110 -1.9062  1.3552 -0.8568
 1076SOL    HW2 3228   3.633   2.783   9.228 -0.2686 -0.8428  1.0674
 1077SOL     OW 3229   0.862   2.551   8.548 -0.1128 -0.3151  0.3550
 1077SOL    HW1 3230   0.923   2.622   8.528  1.0311 -0.8844  1.7001
 1077SOL    HW2 3231   0.776   2.594   8.550  0.4635  0.8911  0.4277
 1078SOL     OW 3232   3.936   3.094   8.824 -0.2035  0.0397 -0.2046
 1078SOL    HW1 3233   3.929   3.006   8.863  1.0179  0.2403  0.5231
 1078SOL    HW2 3234   4.017   3.092   8.774 -0.0794  0.8091 -0.0446
 1079SOL     OW 3235   3.144   3.835   8.352  0.1027 -0.4586  0.5313
 1079SOL    HW1 3236   3.157   3.911   8.296  1.6572 -2.1289 -1.5509
 1079SOL    HW2 3237   3.182   3.762   8.303  2.7858 -1.9076  4.2735
 1080SOL     OW 3238   4.844   1.045   8.063 -0.0584 -0.3073  0.6470
 1080SOL    HW1 3239   4.935   1.072   8.065  0.2864 -1.3454 -0.0892
 1080SOL    HW2 3240   4.847   0.949   8.065 -1.2173 -0.4071  3.2970
 1081SOL     OW 3241   3.329   2.488   6.788  0.2526 -0.3195 -0.1962
 1081SOL    HW1 3242   3.321   2.496   6.883 -1.3735 -0.5615 -0.2861
 1081SOL    HW2 3243   3.326   2.394   6.771 -1.0985 -0.2258 -0.5810
 1082SOL     OW 3244   1.933   3.570   7.093  0.1049 -0.1498 -0.2530
 1082SOL    HW1 3245   1.959   3.605   7.008  0.4523 -1.7396 -0.8421
 1082SOL    HW2 3246   1.930   3.475   7.080  1.2259 -0.5274  1.7809
 1083SOL     OW 3247   0.689   2.732   8.336 -0.1269  0.0181 -0.0814
 1083SOL    HW1 3248   0.705   2.715   8.244  0.2525 -1.1038  0.1771
 1083SOL    HW2 3249   0.685   2.645   8.377 -2.5532  0.3777  0.6041
 1084SOL     OW 3250   1.451   1.350   9.352  0.1722  0.4127 -0.2070
 1084SOL    HW1 3251   1.371   1.299   9.355 -1.4447  2.8014  0.1405
 1084SOL    HW2 3252   1.450   1.400   9.433  1.8862  0.7080 -0.3371
 1085SOL     OW 3253   1.449   1.786   8.139  0.2548 -0.0611 -0.3441
 1085SOL    HW1 3254   1.373   1.730   8.153  0.3909 -0.4639 -1.1560
 1085SOL    HW2 3255   1.511   1.731   8.091  1.3597  0.0352  0.9307
 1086SOL     OW 3256   0.355   1.378   9.182 -0.6868  0.2208 -0.3409
 1086SOL    HW1 3257   0.270   1.387   9.139 -0.6684  0.5521 -0.3097
 1086SOL    HW2 3258   0.403   1.316   9.127 -1.9796 -2.3142  1.1976
 1087SOL     OW 3259   4.965   3.270   9.306  0.1584  0.4663  0.0076
 1087SOL    HW1 3260   4.988   3.355   9.270 -0.8810  0.1210 -1.5477
 1087SOL    HW2 3261   5.017   3.208   9.255 -0.0935  0.0749  0.2233
 1088SOL     OW 3262   0.144   0.654   7.788 -0.3997 -0.0103  0.0156
 1088SOL    HW1 3263   0.095   0.627   7.711 -0.2994 -1.3376  0.3918
 1088SOL    HW2 3264   0.113   0.596   7.858 -0.3644  1.0472  0.9376
 1089SOL     OW 3265   0.104   3.699   9.315  0.2063  0.0781 -0.2398
 1089SOL    HW1 3266   0.024   3.671   9.271  0.2606 -0.1799 -0.1725
 1089SOL    HW2 3267   0.144   3.761   9.254 -1.4062  2.3301  0.8421
 1090SOL     OW 3268   0.310   0.624   8.641 -0.0076 -0.4486 -0.0273
 1090SOL    HW1 3269   0.310   0.570   8.562  0.1830 -2.0124  0.9979
 1090SOL    HW2 3270   0.403   0.634   8.663 -0.0952 -0.9420  0.5877
 1091SOL     OW 3271   4.844  -0.027   9.636 -0.0874  0.1795 -0.5874
 1091SOL    HW1 3272   4.861   0.046   9.576 -1.9454  0.2426 -1.1171
 1091SOL    HW2 3273   4.752  -0.015   9.661  0.1189 -0.9435  0.7841
 1092SOL     OW 3274   0.274   0.556   9.008 -0.2134 -0.0602 -0.5160
 1092SOL    HW1 3275   0.321   0.473   9.018  0.6710  0.1774 -2.2444
 1092SOL    HW2 3276   0.201   0.536   8.949  0.4589  0.5137 -1.5771
 1093SOL     OW 3277   0.447   3.137   7.785 -0.3290 -0.1679 -0.8912
 1093SOL    HW1 3278   0.519   3.165   7.728  1.1101  2.1410  1.8128
 1093SOL    HW2 3279   0.375   3.195   7.762 -0.3913 -0.5155 -1.6088
 1094SOL     OW 3280   1.816   3.505   9.359 -0.4584  0.5035  0.3884
 1094SOL    HW1 3281   1.835   3.559   9.282 -0.9911  0.7837  0.4519
 1094SOL    HW2 3282   1.891   3.520   9.417 -0.2504  0.6080  0.0951
 1095SOL     OW 3283   0.688   1.930   9.155 -0.3221  0.1174 -0.2936
 1095SOL    HW1 3284   0.687   1.922   9.059 -1.0879 -0.0916 -0.2754
 1095SOL    HW2 3285   0.596   1.939   9.179 -0.0455  1.5692  0.3123
 1096SOL     OW 3286   4.432   4.064   7.732  0.1151  0.3129 -0.0305
 1096SOL    HW1 3287   4.465   4.127   7.796  2.5939  0.9030 -1.7606
 1096SOL    HW2 3288   4.414   4.116   7.654  0.8536 -0.8793 -1.0376
 1097SOL     OW 3289   5.002   2.904   6.808  0.2546  0.0062  0.2574
 1097SOL    HW1 3290   4.926   2.900   6.750  0.6440 -1.8913 -0.1969
 1097SOL    HW2 3291   5.069   2.948   6.756  0.2942 -0.7815 -0.3748
 1098SOL     OW 3292   0.146   0.183   9.581 -0.0443 -0.1798 -0.0958
 1098SOL    HW1 3293   0.126   0.217   9.668  2.8662 -0.8861  0.9793
 1098SOL    HW2 3294   0.141   0.088   9.590 -0.1367 -0.2515 -0.8310
 1099SOL     OW 3295   1.116   2.608   9.036 -0.3356 -0.2013  0.2416
 1099SOL    HW1 3296   1.087   2.544   8.971  0.1798  0.0225 -0.2147
 1099SOL    HW2 3297   1.145   2.683   8.985  1.8504 -0.7206  0.6078
 1100SOL     OW 3298   1.144   2.528   9.869 -0.3601 -0.2838 -0.6105
 1100SOL    HW1 3299   1.233   2.495   9.854 -0.7674 -1.0354 -1.4849
 1100SOL    HW2 3300   1.150   2.622   9.853  0.2176 -0.3711 -0.9519
 1101SOL     OW 3301   3.546   1.182   8.012 -0.0424 -0.1187  0.0893
 1101SOL    HW1 3302   3.544   1.276   7.995 -3.4563 -0.2288 -0.8839
 1101SOL    HW2 3303   3.568   1.174   8.105  0.5616  1.6008  0.1239
 1102SOL     OW 3304   4.168   4.066  10.085  0.1154 -0.2155 -0.1559
 1102SOL    HW1 3305   4.172   4.154  10.047  0.8014 -0.9380 -1.8697
 1102SOL    HW2 3306   4.167   4.081  10.180 -0.3932  1.6431 -0.4026
 1103SOL     OW 3307   1.757   2.281   9.582  0.0533 -0.2237 -0.1574
 1103SOL    HW1 3308   1.731   2.193   9.553 -1.2109 -0.3866  1.3643
 1103SOL    HW2 3309   1.832   2.265   9.640 -0.2379 -0.3249  0.1971
 1104SOL     OW 3310   4.877   2.760   9.291 -0.4922  0.4994  0.3992
 1104SOL    HW1 3311   4.845   2.671   9.306 -0.4147  0.6390  1.4818
 1104SOL    HW2 3312   4.798   2.811   9.275 -0.6683  0.4901  1.1881
 1105SOL     OW 3313   1.388   4.617   8.353 -0.4152 -0.4695  0.2434
 1105SOL    HW1 3314   1.322   4.685   8.358 -0.4531 -0.5841  2.0229
 1105SOL    HW2 3315   1.365   4.567   8.275 -0.7151  1.1865 -0.7747
 1106SOL     OW 3316   1.318   2.510   7.732  0.0165 -0.1560 -0.4956
 1106SOL    HW1 3317   1.284   2.514   7.821 -2.2025  1.6013 -1.3347
 1106SOL    HW2 3318   1.334   2.417   7.716 -0.1832 -0.5639  1.4845
 1107SOL     OW 3319   3.825   0.969   9.940 -0.2139 -0.4057 -0.2230
 1107SOL    HW1 3320   3.842   1.016  10.022  0.4496 -0.3191 -0.4100
 1107SOL    HW2 3321   3.872   0.886   9.950  0.1542 -0.2480 -0.6617
 1108SOL     OW 3322   3.811   3.416   9.131  0.0805 -0.4585  0.0486
 1108SOL    HW1 3323   3.878   3.483   9.140  1.0320 -1.2740 -0.6751
 1108SOL    HW2 3324   3.824   3.381   9.043  2.3745 -4.3614  1.6363
 1109SOL     OW 3325   1.974   4.244   7.576  0.6528 -0.1780 -0.5403
 1109SOL    HW1 3326   1.939   4.165   7.535  0.8359  0.0523 -1.1538
 1109SOL    HW2 3327   2.009   4.214   7.660 -1.7922 -0.2819  0.5282
 1110SOL     OW 3328   0.187   3.953   9.561 -0.8228  0.5164  0.0445
 1110SOL    HW1 3329   0.121   3.976   9.496 -2.8241 -1.6074  1.1650
 1110SOL    HW2 3330   0.167   4.010   9.636 -1.5500 -0.2310  0.4395
 1111SOL     OW 3331   3.319   1.859   7.716 -0.5391  0.0086 -0.1986
 1111SOL    HW1 3332   3.362   1.927   7.767  2.2830 -0.9608 -1.0426
 1111SOL    HW2 3333   3.340   1.881   7.625  0.9207 -2.1535 -0.4711
 1112SOL     OW 3334   0.391   4.414   9.733  0.3052 -0.1706 -0.6645
 1112SOL    HW1 3335   0.425   4.326   9.718  1.6896  0.0877  0.6296
 1112SOL    HW2 3336   0.350   4.410   9.819  2.3343  0.9005  0.4449
 1113SOL     OW 3337   1.278   1.789   9.053 -0.3400  0.6084 -0.3947
 1113SOL    HW1 3338   1.325   1.798   8.970 -0.4389  0.1936 -0.4977
 1113SOL    HW2 3339   1.282   1.695   9.072  0.6983  0.8448  0.6612
 1114SOL     OW 3340   4.863   1.859   7.234  0.7681  0.3743 -0.5888
 1114SOL    HW1 3341   4.920   1.826   7.303  0.0694 -1.0870 -0.6702
 1114SOL    HW2 3342   4.904   1.829   7.153  0.8041  0.8341 -0.7464
 1115SOL     OW 3343   3.847   3.011   7.721  0.1245 -0.0581  0.2363
 1115SOL    HW1 3344   3.779   2.946   7.706 -0.2001  0.4079 -0.3340
 1115SOL    HW2 3345   3.834   3.040   7.811 -2.3999  2.2565 -0.7548
 1116SOL     OW 3346   4.119   0.676   9.784 -0.4331 -0.2379 -0.3665
 1116SOL    HW1 3347   4.163   0.735   9.844 -0.0614 -0.6545 -0.2294
 1116SOL    HW2 3348   4.026   0.692   9.800 -0.3381 -0.0199 -0.0104
 1117SOL     OW 3349   1.425   0.242   9.975  0.2646 -0.4945  0.2696
 1117SOL    HW1 3350   1.349   0.256  10.032  0.5596 -1.9425  1.0418
 1117SOL    HW2 3351   1.432   0.324   9.925 -1.3582 -0.0548  0.6958
 1118SOL     OW 3352   4.765   2.208   8.472  0.3128  0.5869  0.0441
 1118SOL    HW1 3353   4.733   2.229   8.384  0.9116 -0.7513 -0.5195
 1118SOL    HW2 3354   4.830   2.139   8.458  0.6870  0.6148  1.5103
 1119SOL     OW 3355   4.573   3.677   8.500  0.1771  0.8403 -0.4764
 1119SOL    HW1 3356   4.611   3.765   8.490  0.8959  0.5078 -0.7050
 1119SOL    HW2 3357   4.618   3.641   8.576  0.1450  0.5267 -0.6067
 1120SOL     OW 3358   0.918   2.190   9.278 -0.6519 -0.5992 -0.0357
 1120SOL    HW1 3359   0.828   2.212   9.253 -0.7496 -2.3567 -1.3817
 1120SOL    HW2 3360   0.971   2.262   9.242 -1.4587  0.2923  0.5074
 1121SOL     OW 3361   2.817   1.783   8.089 -0.1867  0.4421 -0.6498
 1121SOL    HW1 3362   2.815   1.806   8.182  1.6165 -0.6855 -0.2846
 1121SOL    HW2 3363   2.760   1.848   8.047  1.4578  3.0215  0.8056
 1122SOL     OW 3364   3.051   2.505   9.293 -0.1388 -0.1229  0.2043
 1122SOL    HW1 3365   3.138   2.467   9.308 -0.7941 -1.3150  1.1817
 1122SOL    HW2 3366   2.991   2.445   9.337 -1.5245  0.3669 -0.9360
 1123SOL     OW 3367   0.773   2.900   8.853  0.0515 -0.1625  0.4099
 1123SOL    HW1 3368   0.771   2.979   8.798 -0.4578 -0.6721 -0.3258
 1123SOL    HW2 3369   0.861   2.898   8.889 -0.2665  1.3896  1.4085
 1124SOL     OW 3370   1.414   0.754   8.754 -0.1774 -0.4262  0.3154
 1124SOL    HW1 3371   1.391   0.732   8.663  0.8472 -0.3790  0.0321
 1124SOL    HW2 3372   1.372   0.686   8.806 -0.9301 -0.3512 -0.1734
 1125SOL     OW 3373   1.296   3.929   9.438 -0.1003 -0.9053 -0.1201
 1125SOL    HW1 3374   1.203   3.950   9.443 -0.6187 -1.6191 -3.8220
 1125SOL    HW2 3375   1.300   3.835   9.457  0.4936 -0.2456  3.6974
 1126SOL     OW 3376   4.476   4.322   9.989 -0.0164  0.0025  0.0179
 1126SOL    HW1 3377   4.539   4.349  10.055 -1.0286 -0.1931  1.0822
 1126SOL    HW2 3378   4.514   4.244   9.950  1.0395  0.6640 -0.3216
 1127SOL     OW 3379   1.321   2.322   9.384 -0.5783  0.1073 -0.3771
 1127SOL    HW1 3380   1.382   2.288   9.319  1.5428  0.8845  1.1263
 1127SOL    HW2 3381   1.312   2.251   9.448 -0.1502  0.5038  0.1252
 1128SOL     OW 3382   0.471   2.851  10.164 -0.0958  0.6843 -0.2652
 1128SOL    HW1 3383   0.553   2.820  10.202  0.4674  1.9154 -0.4292
 1128SOL    HW2 3384   0.492   2.938  10.129 -1.8245  1.6464  0.9730
 1129SOL     OW 3385   0.996   4.434   7.901  0.6122  0.1377  0.1668
 1129SOL    HW1 3386   1.025   4.384   7.825  0.6685 -0.1944  0.4065
 1129SOL    HW2 3387   0.960   4.369   7.960 -1.7827  0.6218 -0.6221
 1130SOL     OW 3388   3.230   3.201   8.239 -0.0382  0.4935 -0.2220
 1130SOL    HW1 3389   3.156   3.221   8.181  0.0559  0.7118 -0.2656
 1130SOL    HW2 3390   3.294   3.270   8.222  0.6877 -0.3593 -1.0645
 1131SOL     OW 3391   2.074   2.991   8.682 -0.1571 -0.0965 -0.5161
 1131SOL    HW1 3392   2.013   2.944   8.738  0.4174  2.1387  2.2471
 1131SOL    HW2 3393   2.030   3.075   8.664  1.7046  1.2931  0.9943
 1132SOL     OW 3394   1.286   2.104  10.060 -0.8304  0.0588  0.9844
 1132SOL    HW1 3395   1.370   2.136  10.093 -0.8136  0.3791  0.6355
 1132SOL    HW2 3396   1.221   2.146  10.117 -0.8595  1.4912 -0.0600
 1133SOL     OW 3397   1.824   3.885   8.908  0.4361 -0.6941  0.6351
 1133SOL    HW1 3398   1.775   3.895   8.989  0.9410 -1.2131  1.0207
 1133SOL    HW2 3399   1.787   3.806   8.868 -0.6092  0.2069 -0.2393
 1134SOL     OW 3400   1.870   2.017   8.958  0.1272 -0.7649 -0.6212
 1134SOL    HW1 3401   1.928   2.079   8.913  1.3529 -1.4006  0.0261
 1134SOL    HW2 3402   1.825   2.070   9.024 -1.4026  0.0964 -2.2877
 1135SOL     OW 3403   2.472   2.473   9.529 -0.1172  0.0378  0.6434
 1135SOL    HW1 3404   2.385   2.498   9.560 -1.1067 -0.2778 -1.6792
 1135SOL    HW2 3405   2.492   2.537   9.461  1.6261  0.2548  1.3059
 1136SOL     OW 3406   4.855   4.112   9.704  0.5066 -0.2155 -0.0607
 1136SOL    HW1 3407   4.839   4.195   9.660  0.0309 -1.1957 -1.8569
 1136SOL    HW2 3408   4.942   4.122   9.744  0.7003  0.9390 -0.7243
 1137SOL     OW 3409   4.765   3.036   9.737 -0.0402  0.4626 -0.4533
 1137SOL    HW1 3410   4.790   3.106   9.676  0.6085  0.3872 -0.2831
 1137SOL    HW2 3411   4.841   2.978   9.739  1.4361  2.2201  2.9725
 1138SOL     OW 3412   2.236   0.987   9.964  0.2763 -0.1050  0.0389
 1138SOL    HW1 3413   2.322   1.029   9.957  0.3937 -0.5727 -1.6091
 1138SOL    HW2 3414   2.191   1.011   9.883 -1.5147  0.8705  1.2437
 1139SOL     OW 3415   4.870   2.646   7.833 -0.1719  0.0404 -0.0356
 1139SOL    HW1 3416   4.835   2.700   7.904 -1.0752 -0.5410 -0.0221
 1139SOL    HW2 3417   4.903   2.709   7.769 -0.7370  0.6032  0.2141
 1140SOL     OW 3418   4.262   3.398   8.730 -0.3022 -0.1384 -0.2204
 1140SOL    HW1 3419   4.252   3.429   8.820  1.2228  1.2419 -0.4867
 1140SOL    HW2 3420   4.351   3.364   8.727  0.3926  1.7087 -1.7200
 1141SOL     OW 3421   4.127   3.160   8.637  0.2953  0.5967 -0.2675
 1141SOL    HW1 3422   4.176   3.235   8.672  0.5998  0.2126  0.1301
 1141SOL    HW2 3423   4.088   3.193   8.556  0.5258  1.1528 -0.1555
 1142SOL     OW 3424   0.922   1.467  10.065  0.3486 -0.5675 -0.8750
 1142SOL    HW1 3425   0.965   1.527  10.005 -0.4842 -0.1267 -1.0433
 1142SOL    HW2 3426   0.839   1.509  10.086 -1.6725 -2.9270 -3.3206
 1143SOL     OW 3427   0.935   4.972   5.543  0.1829  0.4403 -0.0465
 1143SOL    HW1 3428   0.954   4.892   5.494 -0.0358 -0.5173  1.3729
 1143SOL    HW2 3429   1.005   4.978   5.608  0.9078  2.1092 -0.9037
 1144SOL     OW 3430   3.917   3.568   7.206  0.0799 -0.3401  0.5190
 1144SOL    HW1 3431   3.968   3.486   7.205 -1.2532 -1.2122 -1.3234
 1144SOL    HW2 3432   3.827   3.539   7.220 -0.5454  0.7136 -1.1820
 1145SOL     OW 3433   3.464   2.966   5.649 -0.4713  0.4445  0.0743
 1145SOL    HW1 3434   3.503   2.933   5.568 -1.3113 -0.3644 -0.0118
 1145SOL    HW2 3435   3.443   3.057   5.631  1.6977  1.0476  0.2454
 1146SOL     OW 3436   0.549   4.711   5.293  0.3306 -0.2041 -0.1170
 1146SOL    HW1 3437   0.594   4.795   5.296 -0.3577  0.1636  0.2329
 1146SOL    HW2 3438   0.528   4.699   5.200  0.9262 -0.2624 -0.2448
 1147SOL     OW 3439   0.256   0.229   6.149 -0.3947  0.0714 -0.1032
 1147SOL    HW1 3440   0.199   0.153   6.161 -1.0854  0.6713  0.4628
 1147SOL    HW2 3441   0.266   0.265   6.237 -0.4237  0.8861 -0.4336
 1148SOL     OW 3442   1.539   4.984   5.666 -0.2319  0.2801  0.2843
 1148SOL    HW1 3443   1.459   4.977   5.718 -2.0701  0.7908 -2.2645
 1148SOL    HW2 3444   1.535   4.910   5.605  1.4095  0.1629  0.2713
 1149SOL     OW 3445   4.992   2.197   6.062  0.2933  0.2723  0.1188
 1149SOL    HW1 3446   5.003   2.157   6.149  0.6796 -2.2447 -1.0133
 1149SOL    HW2 3447   4.898   2.217   6.057  0.1248 -0.2927  0.8057
 1150SOL     OW 3448   2.918   4.792   5.766 -0.0766 -0.2968  0.0226
 1150SOL    HW1 3449   2.854   4.742   5.716  1.5670 -1.4786 -1.0131
 1150SOL    HW2 3450   3.000   4.780   5.718  1.0943  0.4869  1.7296
 1151SOL     OW 3451   1.372   4.370   5.133 -0.2538  0.0888 -0.4378
 1151SOL    HW1 3452   1.300   4.408   5.183  0.0521 -1.6297  1.4004
 1151SOL    HW2 3453   1.405   4.299   5.187  0.7757 -1.2383 -2.6539
 1152SOL     OW 3454   0.771   3.454   5.734  0.2045 -0.3513 -0.0837
 1152SOL    HW1 3455   0.842   3.461   5.798 -0.0666 -0.8941  0.2810
 1152SOL    HW2 3456   0.813   3.468   5.649  0.4365  1.2594  0.2549
 1153SOL     OW 3457   3.961   2.120   5.730 -0.1302  0.4860  0.1884
 1153SOL    HW1 3458   3.879   2.165   5.709 -0.4394  0.5997  1.5314
 1153SOL    HW2 3459   3.980   2.145   5.821  1.3368  0.3680 -0.0586
 1154SOL     OW 3460   2.019   3.980   7.931 -0.3690 -0.0718 -0.0728
 1154SOL    HW1 3461   2.053   3.930   8.005  0.6606 -2.3502 -1.9350
 1154SOL    HW2 3462   1.936   3.937   7.909  0.4833 -1.0030 -1.6478
 1155SOL     OW 3463   3.961   1.706   6.324  0.0950 -0.2792  0.5121
 1155SOL    HW1 3464   3.973   1.755   6.405  0.3716  0.4899  0.0198
 1155SOL    HW2 3465   3.877   1.662   6.335  0.5367 -0.8926  1.5674
 1156SOL     OW 3466   0.370   2.429   7.845  0.0562  0.3426  0.3283
 1156SOL    HW1 3467   0.410   2.463   7.925 -1.6476  0.3299  1.2466
 1156SOL    HW2 3468   0.278   2.415   7.869 -0.0654 -1.5870 -1.0579
 1157SOL     OW 3469   1.190   2.039   5.341  0.1500 -0.2880  0.7409
 1157SOL    HW1 3470   1.186   2.107   5.408  1.9743  1.7037 -1.0204
 1157SOL    HW2 3471   1.261   1.982   5.369  0.1983 -0.0895  1.0320
 1158SOL     OW 3472   1.494   4.554   6.964 -0.6712  0.7234  0.2938
 1158SOL    HW1 3473   1.408   4.545   6.922 -2.2426 -0.2547  3.4589
 1158SOL    HW2 3474   1.548   4.488   6.922 -3.1811 -2.7334  1.9954
 1159SOL     OW 3475   1.878   1.268   5.935 -0.4744 -0.0018  0.2370
 1159SOL    HW1 3476   1.803   1.250   5.992 -1.8018  3.4936 -0.1616
 1159SOL    HW2 3477   1.840   1.272   5.847 -0.3486  3.6322  0.2075
 1160SOL     OW 3478   4.532   1.790   7.027  0.3776 -0.6584  0.3875
 1160SOL    HW1 3479   4.570   1.868   6.988 -1.9613  0.6291  0.5055
 1160SOL    HW2 3480   4.469   1.758   6.963  0.4197 -1.7564  0.8568
 1161SOL     OW 3481   4.511   3.603   7.101  0.0360 -0.7450 -0.7538
 1161SOL    HW1 3482   4.543   3.577   7.187  0.3642 -1.4765 -1.0871
 1161SOL    HW2 3483   4.534   3.529   7.044  0.8642  0.2138 -1.7006
 1162SOL     OW 3484   1.431   2.480   7.084  0.2141 -0.9011  0.3967
 1162SOL    HW1 3485   1.399   2.475   6.994 -1.5023  0.5356  0.8708
 1162SOL    HW2 3486   1.525   2.494   7.076  0.0532 -0.6452 -1.1663
 1163SOL     OW 3487   0.077   3.471   6.709  0.0555  0.0636 -0.4633
 1163SOL    HW1 3488  -0.003   3.441   6.753 -1.1523  2.4369 -0.8827
 1163SOL    HW2 3489   0.068   3.439   6.619 -0.5533  0.4845 -0.5606
 1164SOL     OW 3490   1.984   1.066   5.717  0.0285 -0.4440 -0.1288
 1164SOL    HW1 3491   2.068   1.043   5.678  1.7987  1.5022  2.2870
 1164SOL    HW2 3492   2.004   1.133   5.782 -3.5743  1.0235 -0.2817
 1165SOL     OW 3493   1.686   3.035   5.485 -0.0367 -0.1537 -0.4606
 1165SOL    HW1 3494   1.768   3.028   5.437  0.1295 -1.7668  0.0109
 1165SOL    HW2 3495   1.626   3.078   5.424  0.6841 -0.4794 -1.4185
 1166SOL     OW 3496   1.168   2.602   7.501  0.1500  0.1845 -0.0372
 1166SOL    HW1 3497   1.228   2.566   7.567  0.6434 -0.0060 -0.5797
 1166SOL    HW2 3498   1.085   2.614   7.547  1.1330  2.4500  1.3432
 1167SOL     OW 3499   4.550   4.676   8.757 -0.2476 -0.0396  0.2265
 1167SOL    HW1 3500   4.474   4.733   8.765  0.1786  0.5199  0.3677
 1167SOL    HW2 3501   4.610   4.707   8.826  0.2165 -0.2922 -0.0618
 1168SOL     OW 3502   0.611   0.590   5.802  0.0167  0.1914  0.1937
 1168SOL    HW1 3503   0.554   0.567   5.875 -0.2874 -0.3935 -0.2214
 1168SOL    HW2 3504   0.666   0.513   5.790  0.3507  0.4461  0.0740
 1169SOL     OW 3505   0.118   3.353   5.303  0.4773  0.2786  0.2225
 1169SOL    HW1 3506   0.040   3.389   5.345  0.0005  0.9146 -1.1609
 1169SOL    HW2 3507   0.148   3.422   5.243  1.5817 -0.2982  0.0798
 1170SOL     OW 3508   1.523   3.963   7.384  0.3289  0.3431  0.1942
 1170SOL    HW1 3509   1.488   3.875   7.371  1.3676  0.0929 -1.1038
 1170SOL    HW2 3510   1.450   4.012   7.421  0.2226 -1.4771  2.6645
 1171SOL     OW 3511   0.057   3.206   5.548 -0.2699  0.9481  0.4959
 1171SOL    HW1 3512   0.097   3.205   5.461 -1.9527  0.2936 -0.3230
 1171SOL    HW2 3513   0.130   3.221   5.608  1.7507 -3.1810 -0.5982
 1172SOL     OW 3514   2.243   2.858   5.669 -0.1160 -0.1960 -0.3905
 1172SOL    HW1 3515   2.315   2.885   5.613 -1.0815  0.5778 -1.3101
 1172SOL    HW2 3516   2.164   2.891   5.625 -0.9123  0.7204  1.5716
 1173SOL     OW 3517   4.854   4.922   6.408 -0.3789  0.2319 -0.2620
 1173SOL    HW1 3518   4.786   4.862   6.438  0.6854 -1.0845 -0.4203
 1173SOL    HW2 3519   4.806   5.000   6.381 -1.7412 -0.2910  0.5371
 1174SOL     OW 3520   3.369   2.157   5.499 -0.1808  0.1735  0.1655
 1174SOL    HW1 3521   3.456   2.172   5.461 -0.3734  1.6782  0.2547
 1174SOL    HW2 3522   3.357   2.229   5.560 -1.6184  0.1542 -0.0634
 1175SOL     OW 3523   4.556   4.544   5.970  0.4348 -0.1108  0.3008
 1175SOL    HW1 3524   4.516   4.589   6.045 -2.9111 -1.5421 -0.4479
 1175SOL    HW2 3525   4.545   4.605   5.897 -1.6008 -0.9317 -0.1404
 1176SOL     OW 3526   3.095   4.364   4.836 -0.0808 -0.4221 -0.1284
 1176SOL    HW1 3527   3.042   4.435   4.870 -0.8702 -0.6044 -0.9440
 1176SOL    HW2 3528   3.059   4.346   4.749 -1.6338 -3.5514  0.9983
 1177SOL     OW 3529   3.178   3.580   5.343 -0.2048 -0.2688 -0.2089
 1177SOL    HW1 3530   3.174   3.605   5.435  1.0111 -0.3440 -0.1174
 1177SOL    HW2 3531   3.160   3.486   5.343  3.4169 -1.1241  0.4532
 1178SOL     OW 3532   3.578   3.689   6.572  0.5642 -0.4407  0.0643
 1178SOL    HW1 3533   3.510   3.693   6.639  0.6245  0.7488  0.0755
 1178SOL    HW2 3534   3.660   3.687   6.621  0.6062  0.3702  0.0397
 1179SOL     OW 3535   4.245   2.635   5.150 -0.3382 -0.5171  0.2827
 1179SOL    HW1 3536   4.207   2.654   5.065  0.7866  0.5410 -0.0066
 1179SOL    HW2 3537   4.222   2.710   5.204 -0.0586 -0.6379  0.5738
 1180SOL     OW 3538   1.667   3.890   5.084  0.0613  0.1052  0.7140
 1180SOL    HW1 3539   1.656   3.821   5.149  0.8623  0.1786  0.9295
 1180SOL    HW2 3540   1.577   3.919   5.066 -0.1694  0.1393  1.8424
 1181SOL     OW 3541   0.768   1.514   7.710 -0.4716  0.2909 -0.3653
 1181SOL    HW1 3542   0.794   1.592   7.661 -0.3917  0.8167  0.4934
 1181SOL    HW2 3543   0.703   1.546   7.773  0.1662 -0.1702  0.5541
 1182SOL     OW 3544   1.483   3.786   5.547 -0.3510  0.2458  0.1316
 1182SOL    HW1 3545   1.398   3.828   5.537 -0.5655 -0.4380 -1.1604
 1182SOL    HW2 3546   1.463   3.693   5.562  0.1516  0.2767  1.1039
 1183SOL     OW 3547   3.324   0.535   8.644  0.3705  0.2229  0.5955
 1183SOL    HW1 3548   3.398   0.595   8.641  0.3483  0.3737  2.2994
 1183SOL    HW2 3549   3.283   0.551   8.729 -0.5419 -1.1280  0.4421
 1184SOL     OW 3550   2.053   4.729   6.820 -0.4188 -0.4276 -0.0986
 1184SOL    HW1 3551   2.035   4.819   6.795 -2.6068 -1.0425 -0.9539
 1184SOL    HW2 3552   2.109   4.695   6.749 -2.8537 -0.8291 -1.9622
 1185SOL     OW 3553   2.770   3.175   5.820 -0.2994 -0.4194 -1.0411
 1185SOL    HW1 3554   2.678   3.165   5.845  0.3871 -1.0036  1.5077
 1185SOL    HW2 3555   2.802   3.086   5.809  0.4140 -0.3060 -0.0151
 1186SOL     OW 3556   2.041   4.431   5.872  0.2532 -0.1968  0.3682
 1186SOL    HW1 3557   2.105   4.362   5.856 -0.5073 -0.6766 -0.7892
 1186SOL    HW2 3558   2.073   4.506   5.822  0.0747 -0.3454  0.0254
 1187SOL     OW 3559   0.701   3.599   7.004  0.3068  0.1031  0.4618
 1187SOL    HW1 3560   0.608   3.579   6.990 -0.0226  0.2883  2.1490
 1187SOL    HW2 3561   0.739   3.518   7.036  0.5837  0.2121  0.4132
 1188SOL     OW 3562   2.172   4.693   5.385  0.0568  0.7820 -0.1092
 1188SOL    HW1 3563   2.263   4.714   5.364  0.5929 -0.8215  0.4881
 1188SOL    HW2 3564   2.123   4.726   5.310  1.3270  0.1489 -1.2735
 1189SOL     OW 3565   3.955   3.436   5.772  0.8710  0.4262  0.7770
 1189SOL    HW1 3566   3.959   3.490   5.851 -0.9530  0.9780  0.5506
 1189SOL    HW2 3567   3.929   3.349   5.803  1.0099  0.4196  0.8739
 1190SOL     OW 3568   0.947   1.066   5.097  0.6821 -0.4126  0.1403
 1190SOL    HW1 3569   0.860   1.076   5.059  0.8759 -1.0187 -0.4940
 1190SOL    HW2 3570   1.000   1.134   5.054  0.6455 -0.3837  0.1409
 1191SOL     OW 3571   4.430   1.259   5.982  0.4665 -0.2993 -0.2775
 1191SOL    HW1 3572   4.499   1.197   5.958  0.5368 -0.1668 -0.4156
 1191SOL    HW2 3573   4.427   1.321   5.910 -1.6040 -1.8138 -1.6015
 1192SOL     OW 3574   1.058   4.144   6.447  0.2143 -0.1744 -0.4887
 1192SOL    HW1 3575   1.048   4.142   6.542 -0.0168 -0.4634 -0.5175
 1192SOL    HW2 3576   1.152   4.154   6.433  0.2283  0.0706 -0.2302
 1193SOL     OW 3577   3.481   3.989   5.271  0.1437 -0.7795 -0.1979
 1193SOL    HW1 3578   3.391   3.958   5.275 -0.0686 -0.1616 -0.0984
 1193SOL    HW2 3579   3.475   4.075   5.230  0.7699 -1.0390 -0.8515
 1194SOL     OW 3580   1.866   3.862   4.816  0.4951 -0.8028  0.1435
 1194SOL    HW1 3581   1.835   3.884   4.728  1.5568  0.9567  0.1550
 1194SOL    HW2 3582   1.794   3.888   4.874 -0.0401 -1.5772 -0.1604
 1195SOL     OW 3583   2.503   4.790   4.853  0.2771 -0.7767 -0.4852
 1195SOL    HW1 3584   2.559   4.752   4.920  1.6639 -2.1650 -2.2983
 1195SOL    HW2 3585   2.513   4.731   4.778 -2.8315 -0.4802 -1.2663
 1196SOL     OW 3586   1.635   3.205   6.141  0.1944  0.2992  0.0849
 1196SOL    HW1 3587   1.578   3.178   6.213 -1.2752 -1.0283 -1.4860
 1196SOL    HW2 3588   1.607   3.294   6.121 -0.2798  0.2154  0.3369
 1197SOL     OW 3589   0.887   0.265   5.445 -0.3013 -0.1734  0.0916
 1197SOL    HW1 3590   0.918   0.176   5.460 -1.1886 -0.3744  0.7927
 1197SOL    HW2 3591   0.965   0.319   5.456 -0.4897 -0.4109  4.1137
 1198SOL     OW 3592   1.357   1.966   5.799 -0.2316 -0.5586 -0.0470
 1198SOL    HW1 3593   1.324   1.949   5.887 -1.6656 -0.1723 -0.4816
 1198SOL    HW2 3594   1.451   1.979   5.810 -0.7151  1.9482  1.7782
 1199SOL     OW 3595   2.588   0.761   6.422 -0.4761 -0.5174 -0.2335
 1199SOL    HW1 3596   2.503   0.797   6.447  0.2060  0.4760  0.7938
 1199SOL    HW2 3597   2.567   0.683   6.371 -2.0005 -0.0036 -0.4628
 1200SOL     OW 3598   2.816   3.411   5.695 -0.0280 -0.0238  0.6795
 1200SOL    HW1 3599   2.749   3.456   5.746  1.5110  1.2702  1.6435
 1200SOL    HW2 3600   2.810   3.319   5.722 -1.8411 -0.0737  0.2175
 1201SOL     OW 3601   2.675   0.460   4.897  0.1048  0.3668 -0.7159
 1201SOL    HW1 3602   2.680   0.365   4.888 -1.2507  0.2822 -0.7847
 1201SOL    HW2 3603   2.766   0.489   4.893  0.5474 -0.9299 -0.6136
 1202SOL     OW 3604   0.606   4.792   6.112 -0.1557  0.0888  0.0271
 1202SOL    HW1 3605   0.671   4.762   6.048 -1.8569 -1.5825 -1.0326
 1202SOL    HW2 3606   0.649   4.865   6.157  1.5249  0.6616 -2.2887
 1203SOL     OW 3607   1.355   3.005   5.465  0.8375  0.6878 -0.4963
 1203SOL    HW1 3608   1.286   2.952   5.425 -1.4878  3.2380 -0.2376
 1203SOL    HW2 3609   1.388   3.059   5.393  1.3431  0.7045 -0.2568
 1204SOL     OW 3610   4.074   4.473   6.828 -0.2264  0.4114  0.3632
 1204SOL    HW1 3611   4.086   4.536   6.899  1.9631  1.0483 -0.4807
 1204SOL    HW2 3612   4.120   4.395   6.857  0.6973  0.6828 -0.3386
 1205SOL     OW 3613   3.048   4.188   6.184  0.3101  0.3780  1.0097
 1205SOL    HW1 3614   3.054   4.095   6.163  0.1972  0.1414  1.9765
 1205SOL    HW2 3615   3.136   4.212   6.212  0.8056  1.0149 -0.8959
 1206SOL     OW 3616   2.851   4.217   5.192 -0.4354 -0.0417 -0.4461
 1206SOL    HW1 3617   2.819   4.208   5.282 -0.0774  1.8144 -0.0832
 1206SOL    HW2 3618   2.946   4.203   5.199 -0.2225  1.3388 -0.2812
 1207SOL     OW 3619   0.727   0.232   9.620  0.8458  0.3048  0.2869
 1207SOL    HW1 3620   0.644   0.188   9.606  1.0184 -0.3420  1.2154
 1207SOL    HW2 3621   0.776   0.173   9.678  3.3068 -1.0695 -2.8351
 1208SOL     OW 3622   1.667   4.530   6.108 -0.4191 -0.2510 -0.7239
 1208SOL    HW1 3623   1.668   4.614   6.154 -0.3729 -0.9976  0.6974
 1208SOL    HW2 3624   1.623   4.549   6.025  1.5534  1.6468 -1.4389
 1209SOL     OW 3625   1.555   3.192   5.286  0.6258 -0.7234  0.5771
 1209SOL    HW1 3626   1.645   3.223   5.294  0.6174 -0.3251 -0.6645
 1209SOL    HW2 3627   1.508   3.264   5.243 -0.1021 -1.2331  0.4939
 1210SOL     OW 3628   2.246   3.596   6.178  0.5078  0.9160 -0.3598
 1210SOL    HW1 3629   2.176   3.657   6.202 -0.5133  0.8878 -2.9728
 1210SOL    HW2 3630   2.302   3.646   6.118  0.8107 -0.0924 -0.9352
 1211SOL     OW 3631   0.396   3.225   7.522  0.4888  0.3774  0.7270
 1211SOL    HW1 3632   0.427   3.161   7.459 -0.9332 -0.3730  0.7655
 1211SOL    HW2 3633   0.314   3.190   7.555  0.9661  0.9555  2.6894
 1212SOL     OW 3634   0.132   3.062   7.560  0.4415  0.0534 -0.0843
 1212SOL    HW1 3635   0.124   3.064   7.465  3.0712 -0.9854 -0.4193
 1212SOL    HW2 3636   0.100   2.975   7.585 -2.2294  1.0744  0.2953
 1213SOL     OW 3637   2.613   2.641   6.009 -0.1887  0.0361  0.2980
 1213SOL    HW1 3638   2.566   2.600   6.082 -0.6306  0.9571  0.5511
 1213SOL    HW2 3639   2.564   2.614   5.931 -0.0265 -0.5276  0.3905
 1214SOL     OW 3640   2.369   3.637   5.799 -0.0077  0.2164  0.0232
 1214SOL    HW1 3641   2.379   3.680   5.884 -1.1872  0.2015  0.1798
 1214SOL    HW2 3642   2.417   3.694   5.739  0.7502  0.2878  0.6710
 1215SOL     OW 3643   4.387   3.449   5.858  0.2374 -0.5693  0.1119
 1215SOL    HW1 3644   4.322   3.516   5.838 -0.8729 -1.4551  0.6908
 1215SOL    HW2 3645   4.355   3.370   5.815 -0.2549 -1.5751  2.1959
 1216SOL     OW 3646   0.212   4.192   6.346  0.2185  0.4436  0.8813
 1216SOL    HW1 3647   0.273   4.121   6.327 -0.1621  0.8155 -2.5269
 1216SOL    HW2 3648   0.125   4.155   6.329 -0.0166  1.5034 -0.4418
 1217SOL     OW 3649   4.188   4.430   9.389  0.1597 -0.2794 -0.2218
 1217SOL    HW1 3650   4.254   4.362   9.403  1.5135  1.0405  0.1526
 1217SOL    HW2 3651   4.107   4.392   9.424  1.0230 -1.4152  0.6441
 1218SOL     OW 3652   0.830   0.561   6.721  0.0465  0.1665 -0.0208
 1218SOL    HW1 3653   0.768   0.591   6.654  1.8445 -0.1848 -1.9672
 1218SOL    HW2 3654   0.806   0.470   6.737 -1.0409  0.5490  0.6349
 1219SOL     OW 3655   2.258   0.438   7.361 -0.0082 -0.3263  0.6331
 1219SOL    HW1 3656   2.331   0.499   7.349 -0.7566  0.2191 -1.6497
 1219SOL    HW2 3657   2.185   0.493   7.389 -0.2033 -0.4621  0.3969
 1220SOL     OW 3658   3.028   3.278   5.277 -0.2879  0.4322  0.0758
 1220SOL    HW1 3659   2.972   3.329   5.335 -0.7288  1.0521 -0.8655
 1220SOL    HW2 3660   3.045   3.197   5.324 -2.2206  0.1029  0.2781
 1221SOL     OW 3661   1.131   0.131   5.886 -0.2399 -0.3620  0.4566
 1221SOL    HW1 3662   1.166   0.218   5.908  0.5932 -0.7552  0.7012
 1221SOL    HW2 3663   1.161   0.115   5.797 -0.4111 -0.3913  0.4043
 1222SOL     OW 3664   2.171   1.005   5.109  0.3922  0.4174 -0.0038
 1222SOL    HW1 3665   2.265   1.004   5.093  0.1589  1.4924 -1.8037
 1222SOL    HW2 3666   2.133   0.965   5.031 -0.6529 -0.1602  0.7767
 1223SOL     OW 3667   3.784   0.072   5.342 -0.5256  0.7607  0.2905
 1223SOL    HW1 3668   3.822  -0.015   5.331 -2.1586 -0.0694  0.7384
 1223SOL    HW2 3669   3.844   0.117   5.401 -0.2235 -0.4782  0.9697
 1224SOL     OW 3670   1.919   0.118   8.357 -0.3342 -0.2227 -0.3536
 1224SOL    HW1 3671   1.985   0.133   8.425  0.6173  1.6133 -1.5829
 1224SOL    HW2 3672   1.856   0.059   8.397  1.9245 -1.8890  0.9680
 1225SOL     OW 3673   3.047   3.066   5.751  0.0578 -0.6155  0.4649
 1225SOL    HW1 3674   3.074   3.059   5.660 -1.1094 -0.2709  0.0859
 1225SOL    HW2 3675   3.126   3.044   5.801  0.3846 -2.0246 -0.6225
 1226SOL     OW 3676   1.636   4.873   5.427  0.1690  0.3047 -0.6113
 1226SOL    HW1 3677   1.659   4.791   5.470 -1.3453  1.3660  2.6026
 1226SOL    HW2 3678   1.720   4.915   5.409  0.9834 -1.9699 -2.6277
 1227SOL     OW 3679   2.515   0.932   5.532 -0.5627  0.0262  0.4394
 1227SOL    HW1 3680   2.535   0.961   5.443  0.3911 -0.3024  0.5391
 1227SOL    HW2 3681   2.527   0.837   5.530 -1.3776 -0.0914  0.7086
 1228SOL     OW 3682   1.318   3.694   6.016  0.4798 -0.4720  0.0548
 1228SOL    HW1 3683   1.265   3.650   6.083 -0.3061  0.4118  0.0229
 1228SOL    HW2 3684   1.295   3.649   5.935  0.1157 -0.3841  0.1093
 1229SOL     OW 3685   2.881   3.776   5.829  0.0409  0.3418 -0.1301
 1229SOL    HW1 3686   2.944   3.705   5.822  0.5254  0.8209 -0.7011
 1229SOL    HW2 3687   2.848   3.788   5.740 -0.7374  0.2095  0.1299
 1230SOL     OW 3688   2.092   3.770   4.970  0.6509  0.5302  0.6665
 1230SOL    HW1 3689   2.024   3.798   4.908  0.2050 -3.4782 -0.9462
 1230SOL    HW2 3690   2.174   3.785   4.924  0.5783  1.0238  0.6878
 1231SOL     OW 3691   3.948   4.270   6.588 -0.7059  0.0325 -0.1493
 1231SOL    HW1 3692   3.939   4.258   6.683 -1.4604  0.1909 -0.1871
 1231SOL    HW2 3693   3.949   4.365   6.576 -1.8344  0.0363 -0.3788
 1232SOL     OW 3694   2.481   0.075   5.744  0.3136 -0.1840  0.3682
 1232SOL    HW1 3695   2.565   0.069   5.698 -0.3890  1.3634 -1.2490
 1232SOL    HW2 3696   2.447  -0.015   5.744  0.3806 -0.2870 -2.1819
 1233SOL     OW 3697   0.424   3.488   6.561  0.3096  0.2390 -0.1922
 1233SOL    HW1 3698   0.424   3.495   6.465 -0.7523  2.2527 -0.1195
 1233SOL    HW2 3699   0.516   3.498   6.585  0.9629 -2.7097 -1.0333
 1234SOL     OW 3700   4.740   3.611   6.396 -0.0432 -0.0821 -0.4131
 1234SOL    HW1 3701   4.721   3.519   6.411 -0.8410 -0.1064 -1.5295
 1234SOL    HW2 3702   4.750   3.619   6.301 -1.1721  1.1915 -0.4501
 1235SOL     OW 3703   1.490   3.502   5.468  0.3198  0.0536 -0.7151
 1235SOL    HW1 3704   1.537   3.489   5.551  0.0646  1.8379 -0.2510
 1235SOL    HW2 3705   1.427   3.430   5.465  0.8263 -0.4630  0.2713
 1236SOL     OW 3706   2.613   0.428   7.094  0.1083 -0.2364 -0.4310
 1236SOL    HW1 3707   2.700   0.389   7.107 -0.5531 -1.6556 -0.0492
 1236SOL    HW2 3708   2.586   0.395   7.008  0.1618  0.6538 -0.7994
 1237SOL     OW 3709   0.508   3.185   5.084 -0.3152  0.2998 -0.0663
 1237SOL    HW1 3710   0.520   3.258   5.145  1.9270  0.0310 -0.0962
 1237SOL    HW2 3711   0.461   3.223   5.010  0.6300  1.7135  0.0113
 1238SOL     OW 3712   4.516   4.682   7.863  0.6231  0.3297 -0.2047
 1238SOL    HW1 3713   4.487   4.631   7.938  0.5143  1.4183  0.5097
 1238SOL    HW2 3714   4.440   4.686   7.805  0.0669  1.1698  0.5656
 1239SOL     OW 3715   0.262   3.748   5.347 -0.9131  0.4386 -0.2359
 1239SOL    HW1 3716   0.280   3.686   5.418  0.4569 -1.0592 -1.8161
 1239SOL    HW2 3717   0.245   3.694   5.271  0.9559  1.9316 -1.8465
 1240SOL     OW 3718   4.303   0.406   5.914 -0.3099  0.5830 -0.1438
 1240SOL    HW1 3719   4.217   0.412   5.872 -1.1028 -0.5339  1.1990
 1240SOL    HW2 3720   4.307   0.315   5.945  1.3526  0.6347 -0.1517
 1241SOL     OW 3721   1.689   3.873   6.417  0.4866  0.3114  0.6516
 1241SOL    HW1 3722   1.770   3.837   6.454  1.1263 -0.5722 -1.4771
 1241SOL    HW2 3723   1.716   3.917   6.337 -1.1768 -0.3830 -0.3470
 1242SOL     OW 3724   0.825   3.211   5.275 -0.3263  0.4165 -0.3916
 1242SOL    HW1 3725   0.850   3.252   5.193  1.2132 -0.9593 -0.6522
 1242SOL    HW2 3726   0.897   3.232   5.335 -1.2145  1.0234  0.5121
 1243SOL     OW 3727   4.386   1.316   6.282 -0.2247 -0.4788 -0.6074
 1243SOL    HW1 3728   4.361   1.302   6.191 -1.7831 -3.1750  0.1048
 1243SOL    HW2 3729   4.461   1.257   6.295 -0.8921 -1.1903  0.1482
 1244SOL     OW 3730   3.097   4.929   7.569 -0.2418 -0.6240 -0.3764
 1244SOL    HW1 3731   3.107   4.835   7.586  2.9822 -0.3107  0.0151
 1244SOL    HW2 3732   3.142   4.971   7.642 -3.6103  1.4133  0.7635
 1245SOL     OW 3733   2.434   3.952   6.711  0.7011  0.3388 -0.1940
 1245SOL    HW1 3734   2.381   3.967   6.632 -0.0414  1.8919  0.5605
 1245SOL    HW2 3735   2.449   4.039   6.747  0.8321 -0.3518  1.5154
 1246SOL     OW 3736   2.458   4.619   5.579  0.0359  0.5787  0.0460
 1246SOL    HW1 3737   2.446   4.525   5.568 -0.6221  0.7477 -0.7855
 1246SOL    HW2 3738   2.446   4.634   5.673  0.6312 -0.2208  0.2607
 1247SOL     OW 3739   2.319   0.236   5.069 -0.2477  0.3496  0.2691
 1247SOL    HW1 3740   2.369   0.184   5.007 -0.5838 -2.3961  2.1120
 1247SOL    HW2 3741   2.374   0.312   5.087  0.4129  0.5772 -2.3374
 1248SOL     OW 3742   0.305   3.595   6.777 -0.5567  0.1195 -0.0211
 1248SOL    HW1 3743   0.215   3.563   6.776 -0.5406  0.0799 -0.3868
 1248SOL    HW2 3744   0.351   3.540   6.713 -0.3567  0.3850 -0.1057
 1249SOL     OW 3745   2.862   3.526   6.539  0.1904 -0.0717 -0.3995
 1249SOL    HW1 3746   2.778   3.533   6.494 -0.1163  1.8940  0.3959
 1249SOL    HW2 3747   2.845   3.468   6.613 -0.6162  0.7205  0.0466
 1250SOL     OW 3748   4.723   3.218   7.473 -0.3407 -0.0291  0.2755
 1250SOL    HW1 3749   4.741   3.130   7.505  0.4418  0.1012  0.2066
 1250SOL    HW2 3750   4.672   3.205   7.393 -0.4772 -0.4087  0.4238
 1251SOL     OW 3751   2.385   4.470   4.731 -0.4288  0.8705 -0.4811
 1251SOL    HW1 3752   2.396   4.429   4.817  3.1030 -0.8057 -1.5395
 1251SOL    HW2 3753   2.296   4.505   4.733 -1.0429 -0.3815  3.2774
 1252SOL     OW 3754   0.605   2.821   5.737 -0.2615  0.1678  0.6453
 1252SOL    HW1 3755   0.608   2.850   5.828  0.9954 -0.8123  0.9436
 1252SOL    HW2 3756   0.691   2.844   5.702 -0.6220  0.2532 -0.2058
 1253SOL     OW 3757   4.838   4.002   7.698 -0.5865  0.4141  0.5077
 1253SOL    HW1 3758   4.931   3.993   7.720 -0.7896  0.0080  1.2338
 1253SOL    HW2 3759   4.795   4.019   7.782 -1.3521 -0.8366  0.3922
 1254SOL     OW 3760   3.999   3.130   6.126 -0.0707 -0.2638  0.3004
 1254SOL    HW1 3761   3.906   3.110   6.131  0.1370 -1.2186  0.4653
 1254SOL    HW2 3762   4.018   3.134   6.032 -0.6831  2.0005  0.2042
 1255SOL     OW 3763   2.176   0.530   7.044 -0.0493  0.2813 -0.3150
 1255SOL    HW1 3764   2.141   0.619   7.053 -1.0316 -0.0608 -0.6754
 1255SOL    HW2 3765   2.271   0.541   7.054 -0.3194  0.9930  2.7392
 1256SOL     OW 3766   1.160   1.580   7.631  0.0804  0.1465  0.1297
 1256SOL    HW1 3767   1.248   1.612   7.651 -0.2353 -0.8581  4.0573
 1256SOL    HW2 3768   1.103   1.655   7.648  0.0236  0.2892 -0.6556
 1257SOL     OW 3769   2.743   4.803   5.016  0.1685 -0.1193 -0.3070
 1257SOL    HW1 3770   2.704   4.845   5.093 -2.1526 -1.8460 -0.4306
 1257SOL    HW2 3771   2.805   4.868   4.982  2.3049  0.2614  3.6803
 1258SOL     OW 3772   2.127   4.165   5.543  0.2983 -0.7361  0.2300
 1258SOL    HW1 3773   2.171   4.152   5.459  0.9806  1.4815  0.1812
 1258SOL    HW2 3774   2.055   4.225   5.524  0.8639  0.3256  1.3172
 1259SOL     OW 3775   3.054   1.669   5.481  0.5030 -0.0986 -0.4410
 1259SOL    HW1 3776   2.960   1.665   5.464 -0.1003  3.3598  1.2545
 1259SOL    HW2 3777   3.065   1.629   5.567 -0.2254  3.0951  1.2904
 1260SOL     OW 3778   1.938   2.594   6.151 -0.4694 -0.0929  0.7508
 1260SOL    HW1 3779   1.883   2.672   6.151  0.2087  0.4383 -1.0011
 1260SOL    HW2 3780   2.022   2.624   6.188  0.1440  0.3271 -0.9008
 1261SOL     OW 3781   3.134   4.174   5.235  0.3016 -0.3586 -0.9281
 1261SOL    HW1 3782   3.177   4.112   5.176  1.7882  0.7620 -1.0829
 1261SOL    HW2 3783   3.128   4.127   5.318 -2.0186 -2.0435 -1.9327
 1262SOL     OW 3784   4.606   4.205   5.312 -0.6028 -0.5100  0.4264
 1262SOL    HW1 3785   4.616   4.197   5.407  2.3706  0.1710  0.2919
 1262SOL    HW2 3786   4.664   4.278   5.289  2.1352 -3.2529 -2.3059
 1263SOL     OW 3787   0.782   3.652   6.732  0.4272  0.6086  0.4686
 1263SOL    HW1 3788   0.783   3.661   6.827  1.3460  1.5040  0.3955
 1263SOL    HW2 3789   0.774   3.742   6.700 -0.1625  0.2902 -0.2975
 1264SOL     OW 3790   0.972   2.787   8.164  0.1213  0.0448  0.5641
 1264SOL    HW1 3791   0.966   2.855   8.098 -0.4511 -0.5224  0.0206
 1264SOL    HW2 3792   1.066   2.771   8.174  0.1823 -0.5258 -0.7979
 1265SOL     OW 3793   2.052   1.346   5.631 -0.3510  0.5112 -0.0542
 1265SOL    HW1 3794   1.989   1.413   5.658 -0.6246  0.5184 -0.6900
 1265SOL    HW2 3795   2.077   1.370   5.542 -0.7012 -0.4031 -0.4193
 1266SOL     OW 3796   0.140   1.203   6.561 -0.4837  0.0505  0.0125
 1266SOL    HW1 3797   0.167   1.114   6.538 -0.3306  0.9332 -3.8866
 1266SOL    HW2 3798   0.221   1.244   6.593 -0.6136 -1.1683  2.1283
 1267SOL     OW 3799   0.742   3.792   5.581  0.0878  0.0628  0.0708
 1267SOL    HW1 3800   0.795   3.777   5.659 -1.3200 -0.3138  0.9969
 1267SOL    HW2 3801   0.657   3.819   5.615  0.0028  1.8196 -1.3923
 1268SOL     OW 3802   1.374   4.329   7.791 -0.0461 -0.1048 -0.1639
 1268SOL    HW1 3803   1.357   4.306   7.882 -3.8718 -1.5338 -1.0627
 1268SOL    HW2 3804   1.452   4.278   7.767  0.8734  0.1054  2.1803
 1269SOL     OW 3805   4.105   3.170   5.870 -0.7274 -0.0159  0.1790
 1269SOL    HW1 3806   4.179   3.187   5.811 -1.1128 -0.1404 -0.3461
 1269SOL    HW2 3807   4.052   3.106   5.824  0.2100 -2.0177  1.7112
 1270SOL     OW 3808   2.355   4.136   5.060  0.3578  0.1861 -0.5582
 1270SOL    HW1 3809   2.346   4.200   4.989 -1.2334 -0.0436 -0.5982
 1270SOL    HW2 3810   2.395   4.186   5.131  0.6320  0.8023 -1.1242
 1271SOL     OW 3811   2.733   4.694   5.597  0.3739 -0.3469 -0.1717
 1271SOL    HW1 3812   2.659   4.640   5.570  0.4037 -0.1744 -0.6050
 1271SOL    HW2 3813   2.695   4.780   5.612  0.2464 -0.5817  0.9542
 1272SOL     OW 3814   1.291   0.983   7.330 -0.0621 -0.1942  0.2644
 1272SOL    HW1 3815   1.324   1.008   7.243  0.5796  1.5309  0.9510
 1272SOL    HW2 3816   1.207   0.940   7.312 -0.7577  1.6013 -1.1745
 1273SOL     OW 3817   4.083   2.496   6.902 -0.5241 -0.2493  1.5499
 1273SOL    HW1 3818   4.151   2.429   6.911 -0.4324 -0.3579  0.2387
 1273SOL    HW2 3819   4.001   2.446   6.907 -0.5037 -1.0915 -2.5848
 1274SOL     OW 3820   3.052   4.944   5.142  0.3985 -0.2885 -0.0305
 1274SOL    HW1 3821   3.007   4.976   5.064 -0.4442 -0.9921  0.1559
 1274SOL    HW2 3822   3.080   4.856   5.120 -0.6743 -0.8512  0.7744
 1275SOL     OW 3823   3.844   4.018   5.867 -0.3185  1.0135  0.2291
 1275SOL    HW1 3824   3.935   4.041   5.852  0.1740 -0.4674  0.8311
 1275SOL    HW2 3825   3.804   4.024   5.780  0.4824  1.0726 -0.1448
 1276SOL     OW 3826   4.475   2.936   5.554 -0.1417 -0.3703  0.0480
 1276SOL    HW1 3827   4.553   2.884   5.573  0.8878  1.4602  1.1523
 1276SOL    HW2 3828   4.416   2.918   5.628  1.2309  1.7996  1.8103
 1277SOL     OW 3829   1.324   0.141   5.390  0.2760 -0.0059  0.7604
 1277SOL    HW1 3830   1.418   0.157   5.392  0.3786 -0.4203 -0.0600
 1277SOL    HW2 3831   1.289   0.211   5.334  0.1774 -0.1774  0.6047
 1278SOL     OW 3832   0.182   3.560   5.133  0.1423 -0.0264  0.4614
 1278SOL    HW1 3833   0.153   3.597   5.050 -2.1861 -0.4053  1.0303
 1278SOL    HW2 3834   0.271   3.530   5.117 -0.9038 -1.9624 -2.5302
 1279SOL     OW 3835   0.572   3.289   6.233  0.0519  0.2928  0.1907
 1279SOL    HW1 3836   0.581   3.223   6.302  1.5220  1.7267  1.4600
 1279SOL    HW2 3837   0.498   3.343   6.261 -1.5174 -1.0989 -1.1406
 1280SOL     OW 3838   2.923   3.692   7.824  0.0498  0.1258 -0.2750
 1280SOL    HW1 3839   2.844   3.745   7.814 -0.3908 -0.0984  1.6508
 1280SOL    HW2 3840   2.995   3.755   7.816 -0.3583  0.5500 -0.6920
 1281SOL     OW 3841   1.582   0.308   7.288 -0.5113 -0.2196 -0.3013
 1281SOL    HW1 3842   1.539   0.267   7.363 -0.8546  0.0428 -0.3480
 1281SOL    HW2 3843   1.510   0.331   7.229 -0.3657  0.7429 -0.1220
 1282SOL     OW 3844   3.510   3.608   6.038 -0.2843 -0.1453  0.0444
 1282SOL    HW1 3845   3.445   3.540   6.055  0.1592 -0.4167  0.6927
 1282SOL    HW2 3846   3.459   3.689   6.029 -0.7142 -0.3687  0.4623
 1283SOL     OW 3847   2.783   4.338   4.952 -0.3479  0.6103 -0.0245
 1283SOL    HW1 3848   2.687   4.333   4.953 -0.4525  1.9173  1.4823
 1283SOL    HW2 3849   2.810   4.287   5.029  0.1129  0.8039 -0.0562
 1284SOL     OW 3850   0.389   0.146   5.925  0.1614 -0.0518  0.2955
 1284SOL    HW1 3851   0.363   0.056   5.941  2.1172 -0.3848  2.1260
 1284SOL    HW2 3852   0.347   0.196   5.994 -4.4512  1.3535 -3.0647
 1285SOL     OW 3853   2.555   4.255   5.283  0.1807  0.7140  0.0240
 1285SOL    HW1 3854   2.612   4.327   5.309 -0.6236  1.0209  1.0067
 1285SOL    HW2 3855   2.471   4.275   5.324 -0.7108  0.3874 -1.5647
 1286SOL     OW 3856   4.232   3.134   7.472 -0.3201  0.0202 -1.3425
 1286SOL    HW1 3857   4.298   3.135   7.402  0.6086  1.6962 -0.4975
 1286SOL    HW2 3858   4.186   3.217   7.463 -0.5434  0.0199 -0.2843
 1287SOL     OW 3859   2.256   2.351   7.956  0.4622 -0.1637 -0.1810
 1287SOL    HW1 3860   2.272   2.445   7.961  0.0460 -0.1256  0.5631
 1287SOL    HW2 3861   2.296   2.316   8.036  1.7930 -0.8072 -1.0870
 1288SOL     OW 3862   4.971   0.938   9.387  0.2776 -0.3464 -0.0132
 1288SOL    HW1 3863   5.028   0.961   9.313 -0.5679  3.7203  0.3483
 1288SOL    HW2 3864   4.893   0.900   9.346 -0.7685  3.0467 -1.5989
 1289SOL     OW 3865   3.510   3.744   9.065  0.7382  0.0457 -0.8981
 1289SOL    HW1 3866   3.501   3.826   9.017  0.5783  1.3053  1.1936
 1289SOL    HW2 3867   3.439   3.744   9.128  2.7936  0.0624  1.5739
 1290SOL     OW 3868   3.276   4.188   5.823 -0.1709 -0.1817 -0.2701
 1290SOL    HW1 3869   3.323   4.122   5.772  0.3284 -2.0924  2.4239
 1290SOL    HW2 3870   3.183   4.167   5.809 -0.0606 -0.3975 -0.7029
 1291SOL     OW 3871   1.575   3.716   6.935 -0.2161 -0.7489  0.7508
 1291SOL    HW1 3872   1.519   3.792   6.948 -1.7482 -1.4222 -1.4734
 1291SOL    HW2 3873   1.664   3.751   6.937 -0.8095  0.7949  1.5047
 1292SOL     OW 3874   0.609   3.331   8.836 -0.3200 -0.1289 -0.3270
 1292SOL    HW1 3875   0.590   3.296   8.923 -0.4882  0.0546 -0.2890
 1292SOL    HW2 3876   0.629   3.423   8.851  0.8679 -0.3673 -0.3370
 1293SOL     OW 3877   0.969   2.977   9.137 -0.1182  0.2509 -0.9036
 1293SOL    HW1 3878   1.042   3.000   9.079  0.1395 -0.1474 -0.7429
 1293SOL    HW2 3879   0.992   2.891   9.171 -0.6863  0.1055 -0.8815
 1294SOL     OW 3880   1.713   4.079   9.584  0.0740 -0.1199 -0.4538
 1294SOL    HW1 3881   1.664   4.117   9.657  1.2481 -0.6669  0.6635
 1294SOL    HW2 3882   1.692   4.135   9.509 -1.3986  0.2708  0.2193
 1295SOL     OW 3883   3.786   0.465   8.220  0.6508 -0.0907 -0.1305
 1295SOL    HW1 3884   3.811   0.557   8.231  1.5390  0.0340 -2.5300
 1295SOL    HW2 3885   3.705   0.468   8.169 -0.5224 -0.6524  1.6100
 1296SOL     OW 3886   0.881   4.221   8.999  0.2533 -0.6189 -0.4482
 1296SOL    HW1 3887   0.971   4.188   9.010  0.1035 -0.2931  3.1821
 1296SOL    HW2 3888   0.892   4.314   8.980  0.6897 -0.7167 -0.6849
 1297SOL     OW 3889   4.078   0.118   7.574 -0.3946 -0.2134 -0.6644
 1297SOL    HW1 3890   4.076   0.036   7.622 -0.3837  1.0410  1.6666
 1297SOL    HW2 3891   4.095   0.184   7.642 -0.8194  1.7458 -2.3764
 1298SOL     OW 3892   4.614   4.939   7.486 -0.4050  0.4377 -0.3570
 1298SOL    HW1 3893   4.523   4.967   7.474 -0.8669 -0.8609 -0.0147
 1298SOL    HW2 3894   4.642   4.981   7.567 -0.6914  0.8737 -0.4825
 1299SOL     OW 3895   0.239   3.476   7.421  0.0867  0.4600  0.3063
 1299SOL    HW1 3896   0.227   3.388   7.387 -3.4219  0.2775  1.5811
 1299SOL    HW2 3897   0.305   3.466   7.490 -1.1304 -1.5049  1.2907
 1300SOL     OW 3898   0.462   0.466   7.825 -0.0394  0.4620 -0.5933
 1300SOL    HW1 3899   0.395   0.424   7.880 -0.3178  0.4291 -0.9584
 1300SOL    HW2 3900   0.540   0.466   7.880 -0.1872 -0.0200 -0.3727
 1301SOL     OW 3901   1.824   3.053   9.197  0.2918 -0.1009 -0.1506
 1301SOL    HW1 3902   1.847   3.114   9.267  0.2934  1.3545 -1.3686
 1301SOL    HW2 3903   1.830   3.105   9.117 -0.4089 -1.5292 -1.1751
 1302SOL     OW 3904   2.487   0.100   7.116 -0.3367 -0.6031  0.2045
 1302SOL    HW1 3905   2.435   0.043   7.171  0.3560 -0.1100  1.3975
 1302SOL    HW2 3906   2.435   0.180   7.108 -0.6773 -0.8700 -0.3181
 1303SOL     OW 3907   4.347   0.708   8.841 -0.1276 -0.2635  0.7541
 1303SOL    HW1 3908   4.313   0.681   8.926 -2.6513 -0.7350 -0.2940
 1303SOL    HW2 3909   4.269   0.724   8.788  1.3338  1.1905 -1.1477
 1304SOL     OW 3910   0.408   4.886   7.189 -0.2344  0.1150 -0.0402
 1304SOL    HW1 3911   0.443   4.938   7.117  2.4453 -1.0869  0.2596
 1304SOL    HW2 3912   0.453   4.919   7.267 -2.5479  0.9179  1.0537
 1305SOL     OW 3913   2.185   2.062   4.888 -0.0155  0.2680  0.4102
 1305SOL    HW1 3914   2.247   1.989   4.888 -0.3558 -0.0289  0.8125
 1305SOL    HW2 3915   2.240   2.141   4.892  0.3677 -0.0210  4.1009
 1306SOL     OW 3916   2.908   3.396   8.885  0.1425 -0.1601  0.1745
 1306SOL    HW1 3917   2.958   3.357   8.956  0.7888  0.5396  0.1087
 1306SOL    HW2 3918   2.973   3.419   8.819 -0.1169  1.6385  0.4904
 1307SOL     OW 3919   1.122   3.384   8.635  0.2476 -0.2438 -0.2733
 1307SOL    HW1 3920   1.068   3.371   8.712  0.5419  1.1437  0.2006
 1307SOL    HW2 3921   1.179   3.458   8.658  0.1161  0.4106 -1.9292
 1308SOL     OW 3922   3.039   1.058   9.860  0.8437 -0.0481 -0.0277
 1308SOL    HW1 3923   2.953   1.093   9.835 -0.3456 -1.7681  1.4507
 1308SOL    HW2 3924   3.020   0.992   9.926  3.3169 -0.6374  0.1819
 1309SOL     OW 3925   0.630   0.220   7.100  0.0687  0.1917  0.1135
 1309SOL    HW1 3926   0.582   0.147   7.060  0.2395  0.1566 -0.0278
 1309SOL    HW2 3927   0.603   0.219   7.192 -1.1961  0.9668 -0.2249
 1310SOL     OW 3928   1.254   0.493   6.190  0.2776 -0.1111 -0.0012
 1310SOL    HW1 3929   1.292   0.406   6.186  0.1039 -0.1475 -1.3152
 1310SOL    HW2 3930   1.161   0.478   6.203  0.1201 -0.1805 -1.0587
 1311SOL     OW 3931   4.747   0.079   9.172  0.0520 -0.5751 -0.4254
 1311SOL    HW1 3932   4.818   0.043   9.119  0.0751 -0.7822 -0.2561
 1311SOL    HW2 3933   4.679   0.103   9.109  1.1196  1.6917 -0.8322
 1312SOL     OW 3934   2.059   3.570   8.357 -0.4890  0.0732  0.3916
 1312SOL    HW1 3935   2.155   3.569   8.355 -0.4901  0.3761 -1.7995
 1312SOL    HW2 3936   2.037   3.659   8.385 -0.0778  0.8730 -1.6478
 1313SOL     OW 3937   4.866   0.394   9.613  0.3371  0.2538 -0.2188
 1313SOL    HW1 3938   4.858   0.324   9.549  2.3967 -0.4445  0.1999
 1313SOL    HW2 3939   4.777   0.427   9.625 -0.5887 -1.8310 -0.9362
 1314SOL     OW 3940   4.927   2.907   7.749 -0.2907  0.3522  0.4430
 1314SOL    HW1 3941   4.991   2.915   7.820  0.1734  1.8945 -0.0940
 1314SOL    HW2 3942   4.845   2.939   7.786  0.1220  1.8795  0.1122
 1315SOL     OW 3943   0.758   2.365   8.015 -0.6455  1.0400 -0.6222
 1315SOL    HW1 3944   0.760   2.414   8.097 -0.6552  0.2059 -0.1127
 1315SOL    HW2 3945   0.850   2.355   7.991 -0.6769  3.1189 -1.8630
 1316SOL     OW 3946   1.838   2.852   7.547 -0.9376  0.0767 -0.0096
 1316SOL    HW1 3947   1.832   2.762   7.579  0.9159 -0.8718 -2.0605
 1316SOL    HW2 3948   1.778   2.855   7.472 -1.6336  0.8386  0.5586
 1317SOL     OW 3949   0.829   4.054   5.769  0.1712 -0.1180 -0.2932
 1317SOL    HW1 3950   0.753   4.042   5.826  0.3997  0.5482  0.1644
 1317SOL    HW2 3951   0.905   4.039   5.825  0.4028  0.7388 -0.3585
 1318SOL     OW 3952   0.864   4.764   8.226 -0.2491  0.4334  0.2333
 1318SOL    HW1 3953   0.806   4.719   8.287  1.1006 -1.9817 -0.1662
 1318SOL    HW2 3954   0.842   4.727   8.141 -0.2875  1.8634 -0.4137
 1319SOL     OW 3955   3.784   2.761   5.633  0.1028  0.4612 -0.2034
 1319SOL    HW1 3956   3.871   2.762   5.673  0.4642  1.4134 -0.9653
 1319SOL    HW2 3957   3.790   2.825   5.562 -1.0433  0.0904 -0.6529
 1320SOL     OW 3958   0.403   4.460   7.647 -0.2698  0.5049 -0.0740
 1320SOL    HW1 3959   0.320   4.429   7.685  0.9328 -1.9599  0.6996
 1320SOL    HW2 3960   0.465   4.390   7.664  1.8558  2.0048 -1.2406
 1321SOL     OW 3961   4.343   2.490   6.180  0.2035 -0.3692  0.2116
 1321SOL    HW1 3962   4.415   2.541   6.217  0.0103 -0.2751  0.4598
 1321SOL    HW2 3963   4.336   2.413   6.237 -0.3367 -0.0417  0.5945
 1322SOL     OW 3964   1.852   0.201   5.350  0.9768 -0.2877 -0.5418
 1322SOL    HW1 3965   1.789   0.270   5.332  1.0349  0.3971  1.5423
 1322SOL    HW2 3966   1.922   0.214   5.286  0.3097  0.6831 -1.0953
 1323SOL     OW 3967   0.583   4.384   9.374  0.1761  0.7105 -0.7652
 1323SOL    HW1 3968   0.639   4.428   9.438 -0.8286  0.7039  0.1295
 1323SOL    HW2 3969   0.613   4.418   9.289 -0.2727  2.7769 -0.1388
 1324SOL     OW 3970   4.802   3.830   9.378 -0.2017  0.5315 -0.1839
 1324SOL    HW1 3971   4.847   3.764   9.325 -2.8556 -0.3802 -1.4851
 1324SOL    HW2 3972   4.860   3.906   9.375  0.9944 -0.3596 -2.2394
 1325SOL     OW 3973   1.638   0.358   8.305  0.5746  0.4974  0.3307
 1325SOL    HW1 3974   1.607   0.436   8.259 -3.5256 -2.0021 -1.7693
 1325SOL    HW2 3975   1.691   0.311   8.240 -0.8973 -0.5916 -0.1290
 1326SOL     OW 3976   3.272   4.419   6.028  0.0655  0.0351  0.1515
 1326SOL    HW1 3977   3.204   4.471   6.071  1.5485  0.9788  1.4205
 1326SOL    HW2 3978   3.229   4.386   5.948 -1.5609  1.4013  0.4029
 1327SOL     OW 3979   1.317   1.559   8.224  0.1059 -0.3735 -0.0831
 1327SOL    HW1 3980   1.343   1.569   8.315  0.9049  1.6415 -0.4825
 1327SOL    HW2 3981   1.222   1.544   8.228 -0.0082  0.4669  1.0635
 1328SOL     OW 3982   0.527   3.400   7.269  0.0906 -0.2874  0.5799
 1328SOL    HW1 3983   0.516   3.441   7.183 -1.0974  0.8790  1.2477
 1328SOL    HW2 3984   0.492   3.312   7.258 -0.5985  0.0478  0.0108
 1329SOL     OW 3985   1.827   2.233   8.257 -0.0069  0.6112 -0.1617
 1329SOL    HW1 3986   1.893   2.190   8.201 -0.1062 -0.8206  0.7703
 1329SOL    HW2 3987   1.879   2.278   8.323  0.1139 -1.6267  1.3873
 1330SOL     OW 3988   1.123   4.834   9.496 -0.2008  0.5177  0.6416
 1330SOL    HW1 3989   1.174   4.905   9.457  2.3501 -1.6071 -0.2033
 1330SOL    HW2 3990   1.154   4.829   9.586  0.6264 -0.3093  0.3309
 1331SOL     OW 3991   4.291   2.710   9.791  0.1220  0.2248 -0.3966
 1331SOL    HW1 3992   4.251   2.750   9.868  1.7160  0.3029  0.4279
 1331SOL    HW2 3993   4.220   2.708   9.726 -1.6633 -1.1332  1.4729
 1332SOL     OW 3994   3.526   4.528   7.202 -0.7490 -0.8345  0.3680
 1332SOL    HW1 3995   3.525   4.540   7.107  2.9584 -1.5517  0.0954
 1332SOL    HW2 3996   3.507   4.436   7.216 -1.1481 -0.7602  0.3154
 1333SOL     OW 3997   2.222   0.063   6.860 -0.0191  0.2469  0.2779
 1333SOL    HW1 3998   2.175   0.038   6.939  0.5699  1.7394  1.1461
 1333SOL    HW2 3999   2.211   0.158   6.855 -0.4042  0.1521 -1.6867
 1334SOL     OW 4000   0.776   3.874   6.539  0.0649 -0.1904  0.7778
 1334SOL    HW1 4001   0.815   3.953   6.502  1.3722 -0.7503  0.9157
 1334SOL    HW2 4002   0.698   3.858   6.485  0.6327  0.3300 -0.2154
 1335SOL     OW 4003   4.836   4.185   7.495  0.1492 -0.2037  0.4505
 1335SOL    HW1 4004   4.922   4.153   7.467  0.6209 -0.2899  1.9206
 1335SOL    HW2 4005   4.815   4.133   7.572 -0.0552  1.5202  1.6138
 1336SOL     OW 4006   1.838   4.349   7.316  0.3433 -0.7142  0.2628
 1336SOL    HW1 4007   1.848   4.444   7.319  0.6981 -0.6368 -1.9950
 1336SOL    HW2 4008   1.777   4.330   7.388 -0.1739  1.2746  0.4220
 1337SOL     OW 4009   3.467   1.493   6.230  0.2120  0.6506 -0.4822
 1337SOL    HW1 4010   3.409   1.567   6.217 -0.3013  0.0601 -1.6794
 1337SOL    HW2 4011   3.535   1.503   6.164  0.4049  0.3182 -0.3408
 1338SOL     OW 4012   3.930   1.365   9.698  0.8578 -0.5513  0.5712
 1338SOL    HW1 4013   3.993   1.301   9.730  1.3434 -1.1808 -1.4715
 1338SOL    HW2 4014   3.978   1.414   9.631 -0.4584 -0.1993 -0.1471
 1339SOL     OW 4015   0.085   0.260   9.300 -0.0506 -0.4840 -0.0269
 1339SOL    HW1 4016   0.137   0.218   9.368  0.3213 -1.0368 -0.6562
 1339SOL    HW2 4017   0.138   0.256   9.221 -0.3884  0.3505 -0.3169
 1340SOL     OW 4018   0.583   0.955   5.605  0.0239  0.2344  1.0854
 1340SOL    HW1 4019   0.612   1.045   5.589  1.5414 -0.3847  0.0457
 1340SOL    HW2 4020   0.595   0.942   5.699  1.1224  0.7036  1.0233
 1341SOL     OW 4021   3.795   4.965   7.627  0.2315 -0.3287 -0.4536
 1341SOL    HW1 4022   3.873   4.918   7.656 -0.3277  0.0397  1.8591
 1341SOL    HW2 4023   3.750   4.988   7.708 -2.8823 -1.4831 -1.7140
 1342SOL     OW 4024   1.720   4.077   7.989 -1.2326  0.4514  0.1850
 1342SOL    HW1 4025   1.788   4.131   8.029 -1.0695  0.5179 -0.1828
 1342SOL    HW2 4026   1.664   4.052   8.062 -0.3805 -0.2433  0.6182
 1343SOL     OW 4027   1.397   0.158   7.744  0.7248  0.3098 -0.0502
 1343SOL    HW1 4028   1.309   0.171   7.779  0.3450  2.7294 -1.6350
 1343SOL    HW2 4029   1.451   0.139   7.821 -0.9507 -0.0038  1.1069
 1344SOL     OW 4030   1.466   0.875   6.797 -0.9752  0.6063  0.1990
 1344SOL    HW1 4031   1.516   0.956   6.788  0.3022 -0.3726 -3.9416
 1344SOL    HW2 4032   1.411   0.872   6.718 -0.9208 -2.5173  0.1381
 1345SOL     OW 4033   1.202   3.487   5.826 -0.1781 -0.5979  0.2298
 1345SOL    HW1 4034   1.127   3.428   5.833  0.2151 -1.1534 -0.1051
 1345SOL    HW2 4035   1.277   3.428   5.814  0.1801 -0.0160 -0.4538
 1346SOL     OW 4036   0.530   0.535   7.124  0.4347  0.5701  0.9857
 1346SOL    HW1 4037   0.576   0.619   7.134  1.0316  0.2209  1.2154
 1346SOL    HW2 4038   0.596   0.476   7.087 -0.4115  0.6046 -0.6747
 1347SOL     OW 4039   0.438   4.462   8.200  0.6752 -0.1105 -0.3250
 1347SOL    HW1 4040   0.430   4.557   8.189 -0.9058 -0.2142 -0.3126
 1347SOL    HW2 4041   0.361   4.437   8.252  1.1199 -1.3854 -0.2386
 1348SOL     OW 4042   3.188   4.460   9.080  0.0385 -0.6411  0.8818
 1348SOL    HW1 4043   3.106   4.433   9.122 -0.0914 -1.2213  0.2665
 1348SOL    HW2 4044   3.215   4.383   9.030 -0.1339  0.2276 -0.6057
 1349SOL     OW 4045   0.651   4.215   7.389 -0.3298  0.0239  0.5475
 1349SOL    HW1 4046   0.618   4.142   7.337  0.6769  1.1270 -1.7592
 1349SOL    HW2 4047   0.576   4.273   7.399 -0.6039 -0.3393  0.6429
 1350SOL     OW 4048   4.543   4.828   8.529  0.6617 -0.1044  0.1785
 1350SOL    HW1 4049   4.560   4.863   8.616  1.4199  1.4607 -0.5408
 1350SOL    HW2 4050   4.447   4.821   8.524  0.4443  1.9838  0.3853
 1351SOL     OW 4051   0.928   2.840   6.250  0.3127 -0.3830  0.0126
 1351SOL    HW1 4052   0.865   2.895   6.204  0.3887 -0.1670  0.1631
 1351SOL    HW2 4053   1.012   2.859   6.208  0.6550  0.9556  1.1967
 1352SOL     OW 4054   3.840   2.823   8.532  0.3850  0.0194  0.1568
 1352SOL    HW1 4055   3.806   2.829   8.442  0.7824  1.1340  0.0634
 1352SOL    HW2 4056   3.931   2.796   8.521 -0.1433 -1.9896  0.3582
 1353SOL     OW 4057   3.437   4.457   9.655 -0.2526 -0.0636 -0.3544
 1353SOL    HW1 4058   3.418   4.416   9.739 -0.8980 -0.1372 -0.5364
 1353SOL    HW2 4059   3.352   4.470   9.614  0.1074 -0.8359 -1.3809
 1354SOL     OW 4060   4.642   1.075   9.782 -0.1949  0.4962  0.0295
 1354SOL    HW1 4061   4.723   1.077   9.731 -0.4141 -1.0055 -0.4325
 1354SOL    HW2 4062   4.577   1.038   9.722 -1.2440  1.6964  0.3833
 1355SOL     OW 4063   0.195   3.498   8.970 -0.6506  0.5472 -0.0050
 1355SOL    HW1 4064   0.232   3.516   8.884  0.3514  2.6516  0.8002
 1355SOL    HW2 4065   0.271   3.496   9.029 -1.4676  0.9116  1.0884
 1356SOL     OW 4066   2.031   2.833   7.767 -0.0130  0.5376  0.2230
 1356SOL    HW1 4067   1.960   2.851   7.705  0.8895 -1.0223 -1.3654
 1356SOL    HW2 4068   2.100   2.795   7.713  0.2156 -2.5283  2.4052
 1357SOL     OW 4069   4.207   4.934   9.777 -0.1531  0.1749  0.5308
 1357SOL    HW1 4070   4.184   4.995   9.847 -1.2229  0.1690  0.1912
 1357SOL    HW2 4071   4.144   4.951   9.707  0.6072 -0.1465 -0.2545
 1358SOL     OW 4072   3.282   4.787   9.852 -0.0354 -0.0476  0.1357
 1358SOL    HW1 4073   3.320   4.818   9.770  0.0412 -1.4533 -0.3806
 1358SOL    HW2 4074   3.356   4.749   9.900 -0.2191  0.0626  0.5092
 1359SOL     OW 4075   0.224   0.032   8.581 -0.1694 -0.2767  0.2618
 1359SOL    HW1 4076   0.202  -0.061   8.570  3.3215 -1.6920  3.2336
 1359SOL    HW2 4077   0.162   0.064   8.646 -1.7414 -0.2837 -1.1691
 1360SOL     OW 4078   4.515   3.932   7.285  0.2803 -0.0197  0.5331
 1360SOL    HW1 4079   4.604   3.966   7.278 -0.4997  1.8920 -1.2518
 1360SOL    HW2 4080   4.506   3.907   7.377  2.6087 -0.2087  0.7715
 1361SOL     OW 4081   2.705   5.006   5.579  0.3082  0.5434 -0.7676
 1361SOL    HW1 4082   2.645   4.961   5.519  1.2068  0.7396 -1.8512
 1361SOL    HW2 4083   2.779   5.030   5.524  1.4318  0.2214  0.5743
 1362SOL     OW 4084   4.883   4.587   8.915  0.2074 -0.1341  0.0472
 1362SOL    HW1 4085   4.818   4.559   8.851 -0.2152 -0.0336  0.4262
 1362SOL    HW2 4086   4.832   4.625   8.986  0.7367  0.9965 -0.1566
 1363SOL     OW 4087   1.345   3.782   8.390  0.6905  0.4255  0.1074
 1363SOL    HW1 4088   1.326   3.859   8.445  1.7481  0.3869  0.5381
 1363SOL    HW2 4089   1.290   3.794   8.313  0.6936  1.5170  0.2619
 1364SOL     OW 4090   0.056   2.061   9.494  0.7540  0.1316 -0.3148
 1364SOL    HW1 4091   0.072   2.135   9.553 -0.7538 -0.6574  1.1290
 1364SOL    HW2 4092  -0.021   2.087   9.444 -0.1080 -0.6471  0.5726
 1365SOL     OW 4093   0.393   1.786   8.265  0.1153  0.0542  0.3560
 1365SOL    HW1 4094   0.379   1.871   8.224  1.9262  0.6954  0.9691
 1365SOL    HW2 4095   0.451   1.739   8.204 -0.9543 -0.8200 -0.0341
 1366SOL     OW 4096   0.601   4.365   8.435 -0.1620 -0.0985 -0.2163
 1366SOL    HW1 4097   0.560   4.284   8.466  1.0625 -1.7141 -2.5333
 1366SOL    HW2 4098   0.546   4.394   8.363  0.5321 -0.0182 -0.7240
 1367SOL     OW 4099   2.595   4.497   9.277 -0.5472 -0.2914 -0.6776
 1367SOL    HW1 4100   2.640   4.505   9.193  0.0332  2.7151 -0.1960
 1367SOL    HW2 4101   2.555   4.582   9.291 -2.8809 -1.5391  0.9247
 1368SOL     OW 4102   0.932   4.677   6.457  1.0166 -0.0413 -0.1011
 1368SOL    HW1 4103   0.988   4.605   6.428  0.7994 -1.6288  3.0148
 1368SOL    HW2 4104   0.848   4.660   6.413  0.9057 -1.8601  0.7011
 1369SOL     OW 4105   0.510   0.160   5.681  0.1865  0.1668  0.1555
 1369SOL    HW1 4106   0.566   0.082   5.671 -0.0992  0.0971 -0.9388
 1369SOL    HW2 4107   0.470   0.149   5.768  0.2062 -0.8744  0.0467
 1370SOL     OW 4108   0.999   3.434   6.604 -0.0127 -0.5556 -0.1465
 1370SOL    HW1 4109   0.926   3.495   6.596  0.0452 -0.5379 -0.5300
 1370SOL    HW2 4110   0.979   3.383   6.682 -0.6647 -0.8707 -0.5175
 1371SOL     OW 4111   0.102   1.988  10.090  0.2691  0.1416 -0.2960
 1371SOL    HW1 4112   0.184   1.956  10.129 -0.4147 -3.3357 -1.3696
 1371SOL    HW2 4113   0.124   2.075  10.056  2.6869  0.5235  1.8950
 1372SOL     OW 4114   0.594   5.000   6.623 -0.1649  0.2487 -0.7393
 1372SOL    HW1 4115   0.527   5.006   6.691  0.3452 -2.0001  0.0537
 1372SOL    HW2 4116   0.676   4.984   6.670  0.1909 -1.4951 -1.8225
 1373SOL     OW 4117   1.919   4.590   5.347 -0.2511  0.1044  0.0552
 1373SOL    HW1 4118   1.911   4.675   5.391 -0.8141 -0.7786  1.7376
 1373SOL    HW2 4119   1.928   4.527   5.419  0.7594 -1.2134 -1.1704
 1374SOL     OW 4120   1.606   4.174   7.751 -0.0385 -0.7887 -0.1725
 1374SOL    HW1 4121   1.654   4.183   7.833  1.7443 -1.0348 -1.1328
 1374SOL    HW2 4122   1.572   4.085   7.754  0.3155 -0.9203  0.1578
 1375SOL     OW 4123   0.007   1.382   9.429 -0.3761 -0.3083  0.0320
 1375SOL    HW1 4124  -0.015   1.469   9.463 -0.6843 -1.2310  2.3927
 1375SOL    HW2 4125   0.042   1.335   9.504  0.6917 -1.9443 -1.4249
 1376SOL     OW 4126   0.296   2.786   9.598  0.1656 -0.2960  0.2429
 1376SOL    HW1 4127   0.312   2.696   9.569  2.0370 -0.0360  0.3812
 1376SOL    HW2 4128   0.216   2.812   9.552  1.3487 -0.9262 -2.3744
 1377SOL     OW 4129   2.603   2.782   9.678 -0.6946 -0.3829  0.5092
 1377SOL    HW1 4130   2.543   2.837   9.628  1.2670 -0.1358 -1.7742
 1377SOL    HW2 4131   2.570   2.785   9.767 -2.8065  1.4426 -0.2486
 1378SOL     OW 4132   0.977   3.379   6.301  0.2263  0.1356 -0.0492
 1378SOL    HW1 4133   1.050   3.430   6.268 -0.2511  1.2746  0.5991
 1378SOL    HW2 4134   0.984   3.384   6.396 -1.7583  1.9533  0.0896
 1379SOL     OW 4135   1.161   4.128   6.111  0.0792 -0.3058 -0.2290
 1379SOL    HW1 4136   1.071   4.110   6.136  0.2817  0.6733  1.2930
 1379SOL    HW2 4137   1.211   4.122   6.192  1.5761 -1.7358 -1.1664
 1380SOL     OW 4138   2.016   4.276   8.549  0.1247 -0.3593  0.6324
 1380SOL    HW1 4139   2.079   4.301   8.617 -2.2080  1.8761  2.1353
 1380SOL    HW2 4140   2.000   4.183   8.565  0.8041 -0.2496  2.1522
 1381SOL     OW 4141   3.611   0.075   9.129 -0.3141 -0.5915 -0.0351
 1381SOL    HW1 4142   3.636   0.165   9.110  0.2409 -0.1812  2.2968
 1381SOL    HW2 4143   3.693   0.025   9.123 -0.2208 -0.5396  0.6982
 1382SOL     OW 4144   2.444   2.726   7.148  0.0631  0.1354 -0.2499
 1382SOL    HW1 4145   2.438   2.646   7.200  1.5733 -0.9680 -1.6685
 1382SOL    HW2 4146   2.417   2.700   7.060  1.2738  0.9777 -0.8990
 1383SOL     OW 4147   0.814   3.297   8.043  0.5877  0.0579  0.0938
 1383SOL    HW1 4148   0.736   3.266   8.089  1.0167  0.0072  0.8024
 1383SOL    HW2 4149   0.781   3.363   7.982  0.2178  1.6355  1.9005
 1384SOL     OW 4150   0.329   3.367   8.178 -0.1406  0.2087  0.7431
 1384SOL    HW1 4151   0.389   3.358   8.105 -1.4808 -0.8658 -0.2782
 1384SOL    HW2 4152   0.366   3.311   8.247  0.7386  0.6528  0.6406
 1385SOL     OW 4153   4.371   0.011   7.813  0.0855 -0.7884  0.1229
 1385SOL    HW1 4154   4.277   0.025   7.801 -0.1687 -1.0073  1.6798
 1385SOL    HW2 4155   4.381  -0.008   7.906  1.7890  0.1379  0.1721
 1386SOL     OW 4156   3.540   3.829   7.656 -0.3035 -0.3180 -0.1013
 1386SOL    HW1 4157   3.601   3.874   7.714  0.1024 -1.4341  0.3619
 1386SOL    HW2 4158   3.511   3.753   7.706  0.0541 -1.3073 -1.3550
 1387SOL     OW 4159   1.367   0.947   8.509  0.1883 -0.1705 -0.2489
 1387SOL    HW1 4160   1.377   0.905   8.594  0.4622 -1.9480 -1.1124
 1387SOL    HW2 4161   1.445   1.001   8.499 -0.5963  1.3475  1.2697
 1388SOL     OW 4162   2.024   4.046   9.958  0.9064 -0.7227 -0.3512
 1388SOL    HW1 4163   2.030   4.120   9.897  1.4958 -0.6012 -0.1552
 1388SOL    HW2 4164   2.057   4.081  10.041  0.8007 -1.0941 -0.1496
 1389SOL     OW 4165   1.699   0.457   5.304  0.7154  0.1634 -0.3097
 1389SOL    HW1 4166   1.612   0.435   5.272  1.4873 -2.3262 -0.8605
 1389SOL    HW2 4167   1.711   0.549   5.281 -1.4909  0.3634 -0.8055
 1390SOL     OW 4168   4.675   0.278   8.580  0.4192 -0.3361  0.1981
 1390SOL    HW1 4169   4.614   0.323   8.638 -0.1719 -1.9720  0.9106
 1390SOL    HW2 4170   4.691   0.339   8.509 -1.9727  0.1970  0.0480
 1391SOL     OW 4171   1.363   0.456   7.171  0.0634 -0.3772 -0.0347
 1391SOL    HW1 4172   1.384   0.499   7.088  0.1533  0.9603  0.6699
 1391SOL    HW2 4173   1.362   0.526   7.236 -0.6200 -1.3069  1.0039
 1392SOL     OW 4174   1.740   4.392   8.379 -0.2088 -0.2971 -0.3364
 1392SOL    HW1 4175   1.718   4.474   8.335 -1.3170 -0.7519 -0.6736
 1392SOL    HW2 4176   1.733   4.412   8.472 -1.3238 -0.1951 -0.4190
 1393SOL     OW 4177   2.319   0.190   6.355  0.2610 -0.4157  0.0007
 1393SOL    HW1 4178   2.357   0.102   6.362  1.8474  0.2499  0.3788
 1393SOL    HW2 4179   2.356   0.237   6.430  0.0942  0.7866 -0.6546
 1394SOL     OW 4180   0.848   3.918   5.010 -0.0022 -0.1438 -0.6035
 1394SOL    HW1 4181   0.836   3.830   4.975 -0.7050 -1.5172  2.6606
 1394SOL    HW2 4182   0.762   3.959   5.003 -0.3616 -0.7282  0.1847
 1395SOL     OW 4183   0.526   0.594   7.433  0.2296 -0.0637 -0.6895
 1395SOL    HW1 4184   0.594   0.598   7.366  0.1313  0.8156 -0.7523
 1395SOL    HW2 4185   0.473   0.519   7.409  0.1856  0.2472 -1.6172
 1396SOL     OW 4186   0.772   3.355   7.079 -0.2121  0.7065 -0.3713
 1396SOL    HW1 4187   0.703   3.295   7.052 -0.0843  0.6024 -0.4687
 1396SOL    HW2 4188   0.834   3.301   7.128 -0.3525  0.8591 -0.0148
 1397SOL     OW 4189   4.323   1.536   7.759 -0.1679 -0.1430  0.2175
 1397SOL    HW1 4190   4.329   1.443   7.738  1.6019 -0.2306  0.9383
 1397SOL    HW2 4191   4.330   1.580   7.674 -1.4238 -0.6458 -0.1715
 1398SOL     OW 4192   3.284   0.298   7.616 -0.0918 -0.2428 -0.0991
 1398SOL    HW1 4193   3.205   0.308   7.563 -1.9637 -0.0984  2.4895
 1398SOL    HW2 4194   3.278   0.369   7.680  1.3635 -1.1194  1.0686
 1399SOL     OW 4195   0.468   0.636   8.062  0.3086 -0.0932  0.1651
 1399SOL    HW1 4196   0.413   0.611   7.987 -0.4715 -0.0873  0.7225
 1399SOL    HW2 4197   0.536   0.569   8.065 -0.1776 -0.6006 -0.0060
 1400SOL     OW 4198   1.582   3.321   7.100 -0.2458  0.0956 -0.1242
 1400SOL    HW1 4199   1.594   3.400   7.152 -1.8259 -0.5163  1.2171
 1400SOL    HW2 4200   1.672   3.290   7.083  0.3281  0.9504  1.2187
 1401SOL     OW 4201   2.323   3.039   8.965 -0.4829 -0.2605 -0.5840
 1401SOL    HW1 4202   2.229   3.030   8.952 -0.6288  0.2933  0.0079
 1401SOL    HW2 4203   2.359   3.045   8.877 -1.2327  1.5435 -0.8188
 1402SOL     OW 4204   1.570   2.403   8.695 -0.1581 -0.2578  0.5601
 1402SOL    HW1 4205   1.480   2.426   8.675 -0.4222  0.1267  2.0960
 1402SOL    HW2 4206   1.593   2.336   8.629 -1.3637  0.0257 -0.1701
 1403SOL     OW 4207   1.525   3.207   9.395  0.1476  0.2532  0.1684
 1403SOL    HW1 4208   1.512   3.256   9.477  1.6294 -0.6382  0.9838
 1403SOL    HW2 4209   1.527   3.275   9.327  2.5351  1.4586  1.3159
 1404SOL     OW 4210   4.382   4.815   7.399  0.0312 -0.4638  0.3577
 1404SOL    HW1 4211   4.287   4.820   7.387  0.0413  0.9124  0.6694
 1404SOL    HW2 4212   4.394   4.789   7.490 -0.0730  0.6835  0.7194
 1405SOL     OW 4213   3.083   0.238   8.044 -0.2987  0.3861  0.3313
 1405SOL    HW1 4214   3.082   0.255   8.138 -0.3944 -0.1709  0.4319
 1405SOL    HW2 4215   3.170   0.201   8.028  0.6332  2.6087 -0.1934
 1406SOL     OW 4216   0.573   3.062   6.719 -0.2228 -0.5238 -0.1830
 1406SOL    HW1 4217   0.667   3.082   6.720 -0.3005 -0.0715 -1.1084
 1406SOL    HW2 4218   0.565   2.984   6.773  0.5816 -0.1083  0.5757
 1407SOL     OW 4219   4.251   2.657   9.311 -0.0516 -0.4481 -0.2888
 1407SOL    HW1 4220   4.313   2.652   9.384  0.3807  1.1519 -0.5184
 1407SOL    HW2 4221   4.171   2.615   9.345  0.4632 -0.6207  0.7502
 1408SOL     OW 4222   0.139   3.144   9.149 -0.0218 -0.6094 -0.0605
 1408SOL    HW1 4223   0.183   3.061   9.132  0.8973  0.0073 -0.7394
 1408SOL    HW2 4224   0.207   3.201   9.182 -0.6285 -0.0748  0.2984
 1409SOL     OW 4225   0.676   1.608   9.504 -0.2605  0.0229  0.7001
 1409SOL    HW1 4226   0.645   1.595   9.414  2.0161 -0.2125 -0.1195
 1409SOL    HW2 4227   0.627   1.683   9.536 -1.3198 -0.0594 -0.6482
 1410SOL     OW 4228   3.834   3.251   6.606  0.3485  0.2851  0.2709
 1410SOL    HW1 4229   3.926   3.262   6.629  0.4159  2.7814 -0.8645
 1410SOL    HW2 4230   3.818   3.316   6.538 -1.6906 -1.7109 -1.3124
 1411SOL     OW 4231   1.856   3.551   5.419 -0.5074 -0.1657 -0.1433
 1411SOL    HW1 4232   1.846   3.629   5.364  0.3509  1.4469  1.8368
 1411SOL    HW2 4233   1.939   3.565   5.465 -0.4788 -2.1292  0.4966
 1412SOL     OW 4234   4.728   4.385   7.334  0.3746 -0.6922 -0.1619
 1412SOL    HW1 4235   4.789   4.415   7.266  1.2981 -0.1484  0.8707
 1412SOL    HW2 4236   4.771   4.308   7.372 -1.8114 -3.3331 -2.5536
 1413SOL     OW 4237   0.359   3.619   8.308 -0.1747 -0.2833  0.1634
 1413SOL    HW1 4238   0.285   3.663   8.267  0.7447  0.8696 -0.3155
 1413SOL    HW2 4239   0.345   3.526   8.288 -2.3708 -0.3381  1.5491
 1414SOL     OW 4240   3.738   3.591   9.389 -0.0437  0.4418  0.1381
 1414SOL    HW1 4241   3.767   3.527   9.324 -0.0255  0.3340  0.2527
 1414SOL    HW2 4242   3.740   3.675   9.342  2.1596  0.7209  0.6298
 1415SOL     OW 4243   0.443   0.885   8.908  0.1131  0.0147  0.3241
 1415SOL    HW1 4244   0.423   0.864   8.999 -2.1749  1.2078  0.1535
 1415SOL    HW2 4245   0.368   0.853   8.858 -0.7617  3.1677 -0.5807
 1416SOL     OW 4246   2.231   4.852   4.661  0.4899 -0.3586  0.0695
 1416SOL    HW1 4247   2.214   4.841   4.754  0.3473  1.6846  0.3293
 1416SOL    HW2 4248   2.284   4.776   4.637  0.9935 -0.6335  1.9209
 1417SOL     OW 4249   4.609   0.856   7.447 -0.7713  0.0775  0.1051
 1417SOL    HW1 4250   4.572   0.883   7.532  1.4205 -0.2329  1.2250
 1417SOL    HW2 4251   4.535   0.816   7.401 -1.9569 -0.0652  1.9952
 1418SOL     OW 4252   1.855   1.414   6.872 -0.2511 -0.6640 -0.2854
 1418SOL    HW1 4253   1.811   1.385   6.792 -2.7654 -0.2606  0.8719
 1418SOL    HW2 4254   1.786   1.418   6.938  1.9374 -2.1798  2.2928
 1419SOL     OW 4255   0.115   4.679   7.038 -0.1120  0.0157  0.6295
 1419SOL    HW1 4256   0.100   4.690   7.132 -2.7892 -2.0438  0.5797
 1419SOL    HW2 4257   0.073   4.755   6.999 -0.0146  0.2865  1.0359
 1420SOL     OW 4258   0.396   2.907   8.901 -0.0578 -0.0598 -0.5795
 1420SOL    HW1 4259   0.375   2.882   8.811  0.6923  0.1733 -0.8280
 1420SOL    HW2 4260   0.441   2.830   8.937 -1.0293 -0.4368 -0.1559
 1421SOL     OW 4261   0.651   3.587   8.883 -0.2853  0.5426 -0.1683
 1421SOL    HW1 4262   0.599   3.662   8.853 -3.8849 -0.8149  1.9644
 1421SOL    HW2 4263   0.691   3.617   8.964 -0.3812  0.6311 -0.1530
 1422SOL     OW 4264   0.786   4.093   7.785 -0.4480 -0.8578 -0.6208
 1422SOL    HW1 4265   0.815   4.015   7.739 -0.0655 -1.3922  0.5022
 1422SOL    HW2 4266   0.858   4.156   7.772 -0.9495 -0.5036 -1.8998
 1423SOL     OW 4267   1.164   2.871   6.091 -0.3340  0.6274 -0.0675
 1423SOL    HW1 4268   1.230   2.841   6.153 -0.3570 -0.2900 -0.4702
 1423SOL    HW2 4269   1.160   2.802   6.024 -1.6921  0.6615 -0.0546
 1424SOL     OW 4270   3.083   4.451   5.428 -0.1087 -0.2010 -0.2214
 1424SOL    HW1 4271   3.065   4.357   5.432 -1.1703 -0.0508 -1.0542
 1424SOL    HW2 4272   3.172   4.456   5.394 -0.3544 -0.8998 -1.0087
 1425SOL     OW 4273   2.506   2.980   8.106  0.8947  0.5285  0.0957
 1425SOL    HW1 4274   2.546   3.063   8.132  2.8881 -0.9745  2.1858
 1425SOL    HW2 4275   2.451   2.955   8.181  0.2980 -0.0677 -0.5160
 1426SOL     OW 4276   1.732   3.974   9.251 -0.4000 -0.5880  0.5242
 1426SOL    HW1 4277   1.822   4.003   9.268  0.5363 -1.6338 -2.1185
 1426SOL    HW2 4278   1.684   4.055   9.232  0.9894 -0.2294 -1.8821
 1427SOL     OW 4279   0.748   3.959   6.945 -0.2856 -0.0070  0.2296
 1427SOL    HW1 4280   0.740   4.039   6.996  1.0824 -0.2968  0.9404
 1427SOL    HW2 4281   0.842   3.945   6.936 -0.4990 -0.9319 -0.8575
 1428SOL     OW 4282   0.642   0.545   8.915  0.0885 -0.7981 -0.1905
 1428SOL    HW1 4283   0.578   0.598   8.964  2.7329  2.7557 -0.1950
 1428SOL    HW2 4284   0.705   0.517   8.981  0.2367 -1.5701 -0.6500
 1429SOL     OW 4285   4.245   1.166  10.210  0.2214  0.1313 -0.4098
 1429SOL    HW1 4286   4.261   1.251  10.250 -0.8844  0.7007 -1.1096
 1429SOL    HW2 4287   4.323   1.114  10.230  0.2688  0.8135  1.2955
 1430SOL     OW 4288   4.757   1.328   8.424  0.4245  0.1866 -0.5433
 1430SOL    HW1 4289   4.669   1.363   8.439 -0.7192 -2.2464 -1.0731
 1430SOL    HW2 4290   4.796   1.323   8.511 -0.0821  0.9452 -0.2580
 1431SOL     OW 4291   1.478   0.517  10.118  0.6097 -0.0325 -0.2501
 1431SOL    HW1 4292   1.466   0.608  10.091 -0.3140  0.0607  0.4442
 1431SOL    HW2 4293   1.556   0.488  10.070 -0.1016  0.5855 -1.8473
 1432SOL     OW 4294   1.827   0.408   9.552 -0.2626  0.1298 -0.5444
 1432SOL    HW1 4295   1.853   0.474   9.616 -3.0621  0.6518  0.2029
 1432SOL    HW2 4296   1.804   0.332   9.606  0.3533 -0.5321 -1.1990
 1433SOL     OW 4297   1.047   0.490   8.829 -0.3013  0.0297 -0.2164
 1433SOL    HW1 4298   1.000   0.415   8.865 -0.1919  0.4586  0.8710
 1433SOL    HW2 4299   0.991   0.521   8.758 -0.6393 -0.7130 -0.2855
 1434SOL     OW 4300   4.570   1.331   9.339  0.3299  0.0459 -0.3856
 1434SOL    HW1 4301   4.632   1.260   9.324 -0.3040 -0.3744 -1.1039
 1434SOL    HW2 4302   4.574   1.348   9.433  1.3997 -0.0911 -0.3973
 1435SOL     OW 4303   0.247   4.926   9.526 -0.1194 -0.2839  0.3830
 1435SOL    HW1 4304   0.245   4.870   9.603 -1.6588  0.7902  1.1596
 1435SOL    HW2 4305   0.341   4.941   9.510  0.2935 -2.2584  0.7060
 1436SOL     OW 4306   1.420   4.420   8.858 -0.3503  0.1473 -0.5407
 1436SOL    HW1 4307   1.362   4.345   8.847 -0.8966  0.4798  0.0024
 1436SOL    HW2 4308   1.449   4.441   8.769 -1.2562  0.1180 -0.8590
 1437SOL     OW 4309   2.417   4.775   8.730  0.0358 -0.2975  0.6538
 1437SOL    HW1 4310   2.414   4.859   8.776  1.1510  0.3256 -0.3672
 1437SOL    HW2 4311   2.501   4.775   8.684  0.1428 -2.0494  0.7561
 1438SOL     OW 4312   2.427   1.703   8.788  0.0463  0.0045 -0.3127
 1438SOL    HW1 4313   2.479   1.626   8.768  0.9608  0.2364  1.0234
 1438SOL    HW2 4314   2.347   1.669   8.828  1.3102 -0.2452  2.1559
 1439SOL     OW 4315   1.218   0.055   9.394  0.5150 -0.3457  0.2373
 1439SOL    HW1 4316   1.135   0.102   9.382  0.1132 -1.6514 -3.5453
 1439SOL    HW2 4317   1.276   0.119   9.436 -2.1565  0.7972  2.5245
 1440SOL     OW 4318   0.616   0.864   7.980 -0.6707 -0.5470 -0.4258
 1440SOL    HW1 4319   0.668   0.887   7.904 -2.3806 -1.9159 -2.1295
 1440SOL    HW2 4320   0.659   0.786   8.016 -0.7224 -0.8265 -0.9582
 1441SOL     OW 4321   0.109   1.209   9.619  0.3470 -0.5097 -0.1305
 1441SOL    HW1 4322   0.138   1.186   9.707  1.7949  0.1517 -0.3907
 1441SOL    HW2 4323   0.027   1.162   9.607  0.0511 -0.4929  1.6162
 1442SOL     OW 4324   3.327   2.287   9.911 -0.3083  0.2271  0.0432
 1442SOL    HW1 4325   3.295   2.377   9.908 -1.2069 -0.0752  0.2466
 1442SOL    HW2 4326   3.410   2.292   9.959  1.0037  1.3127 -2.1678
 1443SOL     OW 4327   1.369   3.703   7.810 -0.5879  0.0756 -0.1735
 1443SOL    HW1 4328   1.279   3.678   7.833 -0.0923 -0.4456  1.3182
 1443SOL    HW2 4329   1.417   3.697   7.892  0.2365  3.0954 -0.3191
 1444SOL     OW 4330   1.133   2.099   8.275  0.5800  0.9207  0.5305
 1444SOL    HW1 4331   1.121   2.013   8.314  2.8622  0.7827  1.1055
 1444SOL    HW2 4332   1.059   2.151   8.306 -0.8289 -0.7932  0.1857
 1445SOL     OW 4333   4.897   4.663   8.550  0.1876 -0.2302 -0.1070
 1445SOL    HW1 4334   4.866   4.579   8.582  1.1379 -1.6646 -2.6348
 1445SOL    HW2 4335   4.818   4.717   8.544 -0.9640 -1.9235 -1.1330
 1446SOL     OW 4336   1.168   4.348   9.507  0.1474  0.1656 -0.1877
 1446SOL    HW1 4337   1.260   4.350   9.531  0.3950 -1.2497 -0.9392
 1446SOL    HW2 4338   1.159   4.418   9.442  0.8284 -0.0892 -0.5605
 1447SOL     OW 4339   4.641   4.543   9.036 -0.1941 -0.1709  0.6759
 1447SOL    HW1 4340   4.595   4.475   8.987  1.6807 -0.3841 -0.9113
 1447SOL    HW2 4341   4.629   4.519   9.128 -4.1348  0.4517  0.4567
 1448SOL     OW 4342   4.593   4.917   8.283 -0.3690 -0.1355  0.0853
 1448SOL    HW1 4343   4.679   4.895   8.247  0.4857  2.0035  0.6832
 1448SOL    HW2 4344   4.589   4.871   8.366 -0.8311 -2.1417 -0.9855
 1449SOL     OW 4345   3.897   3.847   8.702 -0.1460  0.2238  0.2648
 1449SOL    HW1 4346   3.871   3.795   8.627 -0.7452  0.7130  0.1215
 1449SOL    HW2 4347   3.951   3.788   8.755 -0.5013 -0.4187 -0.0761
 1450SOL     OW 4348   4.681   0.589   7.519  0.9397  0.4103  0.0868
 1450SOL    HW1 4349   4.744   0.661   7.515 -0.6215  1.8806  0.5002
 1450SOL    HW2 4350   4.605   0.627   7.562 -0.6828 -0.9359 -1.4317
 1451SOL     OW 4351   0.513   0.555  10.032  0.2854  0.3954  0.1831
 1451SOL    HW1 4352   0.425   0.533  10.002  0.8657  0.4259 -1.6251
 1451SOL    HW2 4353   0.570   0.492   9.988  1.1474  0.0506  1.7241
 1452SOL     OW 4354   3.124   2.095   9.582 -0.2485  0.0032  0.1173
 1452SOL    HW1 4355   3.188   2.029   9.609  1.6870  1.3513 -0.9924
 1452SOL    HW2 4356   3.094   2.134   9.665  0.5559 -0.4826  0.6500
 1453SOL     OW 4357   3.721   2.002   9.779 -0.3419 -0.3589 -0.0892
 1453SOL    HW1 4358   3.629   1.976   9.774 -0.6208  0.1688  1.6804
 1453SOL    HW2 4359   3.769   1.929   9.738 -1.4965 -0.8969 -0.5179
 1454SOL     OW 4360   1.344   0.032   8.627  0.0642 -0.2449 -0.0123
 1454SOL    HW1 4361   1.314  -0.048   8.669 -2.7751  0.0642 -1.2061
 1454SOL    HW2 4362   1.290   0.102   8.665  2.0974  1.0767  0.6162
 1455SOL     OW 4363   4.722   3.329   8.916  0.4316 -0.0417 -0.2884
 1455SOL    HW1 4364   4.699   3.269   8.846 -0.3689 -0.4999  0.3490
 1455SOL    HW2 4365   4.752   3.272   8.988 -2.0828  0.1201  0.9991
 1456SOL     OW 4366   1.562   4.295   9.451  0.2362 -0.1360 -0.1057
 1456SOL    HW1 4367   1.616   4.374   9.458  1.5596 -1.1369  2.5452
 1456SOL    HW2 4368   1.499   4.302   9.522 -2.1156  0.1643 -2.0880
 1457SOL     OW 4369   3.386   2.349   9.108 -0.7680  0.9234  0.1941
 1457SOL    HW1 4370   3.297   2.312   9.112  0.0686 -1.3954 -1.0710
 1457SOL    HW2 4371   3.430   2.313   9.185  0.1571 -1.1699 -1.2331
 1458SOL     OW 4372   4.272   1.452   8.937 -0.1690  0.5930  0.2123
 1458SOL    HW1 4373   4.276   1.443   9.032 -3.2131  0.2771  0.3937
 1458SOL    HW2 4374   4.226   1.375   8.907  0.8806  0.6083 -1.5925
 1459SOL     OW 4375   1.452   3.495   7.611  0.5064  0.7909  0.2204
 1459SOL    HW1 4376   1.388   3.425   7.595 -0.2834  1.7307 -0.8744
 1459SOL    HW2 4377   1.400   3.567   7.648  0.9566  1.4927 -0.4882
 1460SOL     OW 4378   0.911   3.865   7.678 -0.1222 -0.1995  0.3476
 1460SOL    HW1 4379   0.983   3.919   7.712 -0.7099  0.4424  0.5946
 1460SOL    HW2 4380   0.955   3.797   7.626  0.6874 -0.1217  0.9076
 1461SOL     OW 4381   4.890   1.577   9.810 -0.3030  0.1770 -0.2538
 1461SOL    HW1 4382   4.817   1.514   9.812  0.7642 -1.1142 -0.4716
 1461SOL    HW2 4383   4.857   1.651   9.760 -1.4219 -0.4383 -0.4597
 1462SOL     OW 4384   4.701   1.048   8.750  0.5871  0.2968 -0.1976
 1462SOL    HW1 4385   4.775   0.988   8.759 -1.1811 -1.7559  1.5756
 1462SOL    HW2 4386   4.638   1.002   8.696 -0.9681  0.3332  1.5071
 1463SOL     OW 4387   0.082   1.473   9.170  0.1788  0.3049  0.5993
 1463SOL    HW1 4388   0.149   1.541   9.178 -1.5987  2.1198  0.5903
 1463SOL    HW2 4389   0.059   1.451   9.260  0.2013  0.2731  0.5968
 1464SOL     OW 4390   0.847   3.330   9.601  0.7202 -0.1123  0.0289
 1464SOL    HW1 4391   0.855   3.276   9.522 -0.6849 -0.4860  0.1053
 1464SOL    HW2 4392   0.934   3.328   9.640  1.5624  0.4151 -1.7080
 1465SOL     OW 4393   4.232   1.095   8.587 -0.1770 -0.2245  0.6687
 1465SOL    HW1 4394   4.311   1.050   8.559  1.3017  2.0991  0.8633
 1465SOL    HW2 4395   4.179   1.104   8.507  0.7341  0.0563  0.0832
 1466SOL     OW 4396   4.188   4.304   9.939 -0.2043  0.2771  0.4072
 1466SOL    HW1 4397   4.150   4.379   9.893  0.1582  1.4630  1.9193
 1466SOL    HW2 4398   4.271   4.338   9.974  0.8347 -1.3705 -0.3446
 1467SOL     OW 4399   3.373   3.511   8.696 -0.2873  0.2353  0.9755
 1467SOL    HW1 4400   3.424   3.445   8.650  1.8540  1.1897  1.8428
 1467SOL    HW2 4401   3.395   3.593   8.654 -2.4437  0.5499  0.3177
 1468SOL     OW 4402   1.608   3.274   8.441 -0.1903  0.1814 -0.0404
 1468SOL    HW1 4403   1.609   3.212   8.514  1.0991  0.8030  0.5108
 1468SOL    HW2 4404   1.674   3.240   8.380 -0.1324  0.5148 -0.1651
 1469SOL     OW 4405   4.924   3.273   8.523  0.3065 -0.0245  0.1171
 1469SOL    HW1 4406   4.929   3.363   8.555  0.9129  0.2804 -0.7978
 1469SOL    HW2 4407   4.988   3.270   8.452 -1.6644 -0.3984 -1.7239
 1470SOL     OW 4408   1.969   0.143  10.065 -0.5667 -0.1470  0.1480
 1470SOL    HW1 4409   1.901   0.107  10.009  0.9942 -0.2411 -1.8177
 1470SOL    HW2 4410   1.992   0.072  10.125  0.7260 -1.6686 -2.0168
 1471SOL     OW 4411   4.754   1.528  10.216  0.6254  0.3805  1.0010
 1471SOL    HW1 4412   4.832   1.584  10.216  1.9774 -1.3887 -0.4418
 1471SOL    HW2 4413   4.787   1.441  10.196 -1.8302 -0.2727 -0.6521
 1472SOL     OW 4414   3.415   2.098   9.272 -0.4461 -0.0322  0.0173
 1472SOL    HW1 4415   3.459   2.014   9.266 -0.4694 -0.0117 -0.4671
 1472SOL    HW2 4416   3.450   2.137   9.352 -0.5731 -0.5774  0.3399
 1473SOL     OW 4417   4.851   2.051   8.156 -0.3614 -0.1192 -0.5387
 1473SOL    HW1 4418   4.770   2.102   8.155 -0.5277 -0.3697 -1.4682
 1473SOL    HW2 4419   4.866   2.029   8.064  1.7174  1.3894 -0.6259
 1474SOL     OW 4420   3.844   4.512   9.241 -0.0869 -0.7965  0.0499
 1474SOL    HW1 4421   3.895   4.441   9.280 -1.2882 -1.7618 -0.0899
 1474SOL    HW2 4422   3.850   4.496   9.147  0.3077 -0.2280 -0.0256
 1475SOL     OW 4423   0.387   4.740   9.044 -0.6042  0.2674  0.2097
 1475SOL    HW1 4424   0.453   4.690   8.996 -1.1443  1.0060 -1.3606
 1475SOL    HW2 4425   0.378   4.693   9.127 -0.6685 -1.9283 -0.9545
 1476SOL     OW 4426   0.367   1.581   9.980  0.4407 -0.2559 -0.2513
 1476SOL    HW1 4427   0.408   1.609   9.899  1.2313 -1.0951 -0.1497
 1476SOL    HW2 4428   0.280   1.551   9.954  0.5643 -0.2027 -0.7356
 1477SOL     OW 4429   1.790   0.214   8.117  0.0045 -0.0781 -0.0372
 1477SOL    HW1 4430   1.784   0.123   8.087  2.9363 -0.4746  0.2022
 1477SOL    HW2 4431   1.814   0.207   8.210  1.0199  0.8795 -0.1993
 1478SOL     OW 4432   4.061   2.663  10.107  0.4726 -0.0848 -0.4139
 1478SOL    HW1 4433   4.043   2.570  10.099  1.1260 -0.1312 -1.4595
 1478SOL    HW2 4434   4.156   2.671  10.098  0.5802  0.5640  0.9616
 1479SOL     OW 4435   2.908   1.447   9.107  0.1843  0.6917  0.1754
 1479SOL    HW1 4436   2.944   1.455   9.195 -1.8458  1.7444  0.9845
 1479SOL    HW2 4437   2.903   1.353   9.091 -1.8795  0.3436  2.3418
 1480SOL     OW 4438   4.615   4.994   8.774  0.3270  0.4001 -0.0794
 1480SOL    HW1 4439   4.520   5.003   8.764  0.2314 -1.1362 -0.8579
 1480SOL    HW2 4440   4.626   4.949   8.857  0.4520  1.3673  0.4514
 1481SOL     OW 4441   3.762   2.303   9.287  0.3018 -0.5382  0.3555
 1481SOL    HW1 4442   3.786   2.210   9.281 -0.2911 -0.7868  1.5898
 1481SOL    HW2 4443   3.756   2.320   9.381  2.2784  1.2681  0.2191
 1482SOL     OW 4444   3.786   3.708   9.146 -0.5828 -0.1698 -0.6551
 1482SOL    HW1 4445   3.695   3.695   9.117  0.0298 -0.1560 -2.7492
 1482SOL    HW2 4446   3.817   3.781   9.092  0.7316 -0.2998 -0.0947
 1483SOL     OW 4447   0.963   2.879   9.787 -0.3490  0.6258  0.0113
 1483SOL    HW1 4448   0.888   2.823   9.769 -1.4047  2.0319 -0.1380
 1483SOL    HW2 4449   0.930   2.942   9.851  1.0432  0.5931  0.7913
 1484SOL     OW 4450   2.661   2.385   9.688  0.3503 -0.4437  0.0417
 1484SOL    HW1 4451   2.593   2.404   9.624 -0.9506  0.3475  1.5849
 1484SOL    HW2 4452   2.687   2.295   9.670 -1.0471 -0.7355 -0.6147
 1485SOL     OW 4453   0.211   4.396   9.931 -0.5590 -0.4458 -0.0454
 1485SOL    HW1 4454   0.154   4.467   9.900  1.1749  0.9618 -0.1811
 1485SOL    HW2 4455   0.183   4.382  10.022  0.5582  2.1277  0.7991
 1486SOL     OW 4456   2.427   0.427   7.979 -0.4248  0.2591  0.4793
 1486SOL    HW1 4457   2.464   0.395   7.897  0.5114  1.6346  0.3472
 1486SOL    HW2 4458   2.350   0.371   7.994 -0.3599 -0.2807 -1.0933
 1487SOL     OW 4459   4.131   3.888   6.527 -0.4262 -0.3847  0.2913
 1487SOL    HW1 4460   4.127   3.802   6.569 -0.1231 -0.9894 -0.8811
 1487SOL    HW2 4461   4.040   3.906   6.502 -0.3280 -0.9238 -0.5121
 1488SOL     OW 4462   3.535   1.505   9.102  0.3080 -0.0747 -0.0730
 1488SOL    HW1 4463   3.516   1.413   9.081  0.3032  0.2561 -1.6335
 1488SOL    HW2 4464   3.627   1.506   9.126  0.0422 -0.6458  1.0285
 1489SOL     OW 4465   4.338   1.291   9.875 -0.0616 -0.2953  0.2110
 1489SOL    HW1 4466   4.252   1.272   9.839 -0.5734  0.7251  0.8519
 1489SOL    HW2 4467   4.336   1.385   9.896  2.0925  0.3851 -2.1397
 1490SOL     OW 4468   0.487   0.078   8.763  0.1116  0.4697 -0.3742
 1490SOL    HW1 4469   0.403   0.068   8.719  0.9727 -1.7667 -1.7015
 1490SOL    HW2 4470   0.543   0.123   8.699  0.2630  0.8863  0.0417
 1491SOL     OW 4471   4.938   0.079   7.601  0.4146 -0.1576  0.2356
 1491SOL    HW1 4472   4.871   0.117   7.545 -0.1740 -1.8974 -0.3000
 1491SOL    HW2 4473   5.010   0.142   7.599 -1.0450  1.6069  0.5741
 1492SOL     OW 4474   0.998   0.174   9.386  0.1085 -0.3000 -0.1676
 1492SOL    HW1 4475   1.021   0.266   9.376  1.5509 -0.5932  0.3087
 1492SOL    HW2 4476   0.952   0.170   9.470 -0.5024  0.0604 -0.4712
 1493SOL     OW 4477   0.689   2.059   8.812  0.0994  0.1263 -0.0001
 1493SOL    HW1 4478   0.696   2.150   8.783  0.5293 -0.2255 -1.0540
 1493SOL    HW2 4479   0.677   2.009   8.731 -1.8737 -0.6009  0.6827
 1494SOL     OW 4480   0.137   0.756   9.516 -0.2380  0.6813 -0.1991
 1494SOL    HW1 4481   0.102   0.823   9.457 -1.1305 -0.9901 -1.6531
 1494SOL    HW2 4482   0.098   0.674   9.485  1.1296 -0.5859  1.2744
 1495SOL     OW 4483   4.061   4.346   8.171  0.2790  0.3791 -0.1368
 1495SOL    HW1 4484   4.061   4.302   8.256 -0.3746 -0.3693 -0.5105
 1495SOL    HW2 4485   4.062   4.439   8.192  0.3844  0.1999  0.6830
 1496SOL     OW 4486   2.917   3.583   8.580 -0.4027 -0.5098 -0.5141
 1496SOL    HW1 4487   2.974   3.508   8.595 -0.7063 -0.7514 -0.5596
 1496SOL    HW2 4488   2.939   3.645   8.649 -0.8098 -1.0309  0.0927
 1497SOL     OW 4489   1.166   4.808   9.787  0.0626 -0.4269  0.0677
 1497SOL    HW1 4490   1.195   4.897   9.803  0.5661 -0.5036 -0.3831
 1497SOL    HW2 4491   1.243   4.754   9.802 -0.6714 -0.9863  2.0726
 1498SOL     OW 4492   1.698   2.996   7.948  0.6617 -0.1493 -0.4808
 1498SOL    HW1 4493   1.684   3.000   8.042  2.6012 -1.5567 -0.0674
 1498SOL    HW2 4494   1.771   3.056   7.931 -2.0554  3.0902 -1.7683
 1499SOL     OW 4495   4.027   4.938   7.027  0.4890 -0.0048  0.7244
 1499SOL    HW1 4496   4.090   4.974   6.965 -2.2444  3.5653 -0.3163
 1499SOL    HW2 4497   4.030   4.996   7.102 -1.0190 -0.1539  0.9384
 1500SOL     OW 4498   4.988   4.311   8.187  0.3065  0.2305  0.7881
 1500SOL    HW1 4499   4.974   4.384   8.127  2.3942  1.2774  1.4753
 1500SOL    HW2 4500   4.960   4.345   8.272 -0.9239 -0.6206  0.7503
 1501SOL     OW 4501   1.032   4.630   9.074  0.2785 -0.1087 -0.3603
 1501SOL    HW1 4502   1.029   4.557   9.012  1.7339  2.3627 -3.6354
 1501SOL    HW2 4503   0.942   4.661   9.080 -0.2102 -1.5694  0.4339
 1502SOL     OW 4504   0.543   1.550   9.268  0.8601 -0.1151 -0.1763
 1502SOL    HW1 4505   0.481   1.478   9.265  0.3000  0.2808  1.0854
 1502SOL    HW2 4506   0.532   1.595   9.184  0.3842 -0.8199 -0.4968
 1503SOL     OW 4507   2.724   0.773   9.748 -0.5933 -0.4664 -0.3109
 1503SOL    HW1 4508   2.721   0.685   9.711 -0.5613 -0.9319  0.7615
 1503SOL    HW2 4509   2.714   0.760   9.843 -1.1043  0.7180 -0.1816
 1504SOL     OW 4510   0.938   4.795   9.304 -0.0379  0.1536 -0.4180
 1504SOL    HW1 4511   0.994   4.782   9.227 -0.8991  0.2741 -1.0830
 1504SOL    HW2 4512   0.999   4.812   9.376  0.7841  0.0313 -1.0725
 1505SOL     OW 4513   0.146   1.463   9.880 -0.2041 -0.5788  0.0811
 1505SOL    HW1 4514   0.056   1.493   9.883  0.0612  0.1542  1.2765
 1505SOL    HW2 4515   0.139   1.367   9.873 -1.0735 -0.5708  0.7193
 1506SOL     OW 4516   0.785   0.263   8.874 -0.0035  0.2317  0.0138
 1506SOL    HW1 4517   0.726   0.295   8.941  0.2508 -2.6619  1.7906
 1506SOL    HW2 4518   0.732   0.260   8.794 -0.4994  3.1146  0.1435
 1507SOL     OW 4519   4.412   4.772   9.204 -0.3482  0.5324 -0.1556
 1507SOL    HW1 4520   4.484   4.811   9.155  0.1242  0.2996  0.3405
 1507SOL    HW2 4521   4.438   4.780   9.296 -0.7302  0.0037  0.0057
 1508SOL     OW 4522   0.837   2.498   9.246 -0.4671 -0.5765 -0.2019
 1508SOL    HW1 4523   0.930   2.474   9.245 -0.4373 -0.4504 -0.5370
 1508SOL    HW2 4524   0.829   2.556   9.322  0.1506  1.0299 -1.2997
 1509SOL     OW 4525   0.883   0.686   9.010  0.5629  0.2116 -0.2519
 1509SOL    HW1 4526   0.837   0.641   8.939  1.2482  1.1497 -1.3230
 1509SOL    HW2 4527   0.975   0.686   8.983  0.8027  0.8084  0.5244
 1510SOL     OW 4528   0.115   3.732   8.154  0.3543  0.4838  0.3903
 1510SOL    HW1 4529   0.050   3.674   8.116  1.0240  0.1431 -0.2614
 1510SOL    HW2 4530   0.081   3.820   8.137  0.1244  0.3124 -0.0664
 1511SOL     OW 4531   3.870   4.930   8.673 -0.0305 -0.1259  0.1162
 1511SOL    HW1 4532   3.794   4.985   8.652 -0.0699 -0.6245 -1.1853
 1511SOL    HW2 4533   3.838   4.840   8.665  0.4602 -0.3414  0.5050
 1512SOL     OW 4534   1.804   1.828   9.847  0.5813  0.0944 -0.0564
 1512SOL    HW1 4535   1.900   1.819   9.850  0.7220  0.4455 -1.9894
 1512SOL    HW2 4536   1.779   1.785   9.764 -0.7629  1.2728 -0.2911
 1513SOL     OW 4537   1.653   1.026   9.748 -0.3272 -0.4015 -0.3269
 1513SOL    HW1 4538   1.671   1.120   9.739 -0.1417 -0.2407  1.4475
 1513SOL    HW2 4539   1.560   1.022   9.772 -0.2291 -0.6518  0.0110
 1514SOL     OW 4540   3.148   3.899   8.616  0.2178 -0.4981 -0.4477
 1514SOL    HW1 4541   3.152   3.866   8.527 -0.5634 -1.5555 -0.1192
 1514SOL    HW2 4542   3.231   3.946   8.629  0.4969 -0.6614 -1.5882
 1515SOL     OW 4543   2.574   3.238   8.099  0.1047 -0.2155  0.2976
 1515SOL    HW1 4544   2.563   3.333   8.097  1.9383  0.0612  0.8719
 1515SOL    HW2 4545   2.611   3.217   8.013 -0.9112 -0.5204 -0.0752
 1516SOL     OW 4546   0.332   1.469   9.489  0.0938  0.1592  0.3284
 1516SOL    HW1 4547   0.346   1.489   9.396 -0.9202  1.8070  0.4914
 1516SOL    HW2 4548   0.259   1.407   9.489  0.0504  0.2065  0.0267
 1517SOL     OW 4549   0.414   3.899   9.440 -0.4280 -0.3942  0.2363
 1517SOL    HW1 4550   0.319   3.906   9.454 -0.2201 -1.3395  2.5990
 1517SOL    HW2 4551   0.448   3.865   9.522  2.2437  1.6359  0.1106
 1518SOL     OW 4552   0.120   4.069   8.927 -0.0845 -0.1741  0.0762
 1518SOL    HW1 4553   0.044   4.126   8.918  0.6287  1.2071  2.0690
 1518SOL    HW2 4554   0.189   4.111   8.875  0.6990  1.4277  2.2236
 1519SOL     OW 4555   1.093   3.012   9.518  0.6327  0.7353  0.4086
 1519SOL    HW1 4556   1.112   2.923   9.487 -3.0721 -0.2909  0.6670
 1519SOL    HW2 4557   1.073   3.001   9.611 -2.9627  1.1547 -0.1825
 1520SOL     OW 4558   1.160   4.521   6.329 -0.7463 -0.0241 -0.2067
 1520SOL    HW1 4559   1.252   4.532   6.352 -0.7953  0.4056 -0.2004
 1520SOL    HW2 4560   1.161   4.478   6.243 -0.5613 -1.5555  0.5278
 1521SOL     OW 4561   2.490   1.521   9.669  0.5999  0.0405 -0.5206
 1521SOL    HW1 4562   2.479   1.541   9.576 -1.7594  1.6486  0.0231
 1521SOL    HW2 4563   2.475   1.426   9.675  0.7842 -0.0800 -1.7600
 1522SOL     OW 4564   4.792   0.722   9.340  0.5167  0.1130  0.0915
 1522SOL    HW1 4565   4.833   0.668   9.406 -0.8753  0.4793  1.2991
 1522SOL    HW2 4566   4.782   0.664   9.264  0.2245 -0.9186  0.9065
 1523SOL     OW 4567   3.758   0.234   9.815 -0.4674  0.4162 -0.1275
 1523SOL    HW1 4568   3.806   0.179   9.877 -0.9086 -0.2938 -0.3950
 1523SOL    HW2 4569   3.721   0.171   9.753  1.3018  1.1684 -2.0833
 1524SOL     OW 4570   1.093   3.264   8.370  0.6709 -0.6967  0.3802
 1524SOL    HW1 4571   1.106   3.342   8.424 -0.0246  0.4396 -1.0407
 1524SOL    HW2 4572   1.004   3.271   8.337  2.1945  0.8668 -4.1555
 1525SOL     OW 4573   3.564   1.160   9.395  0.0904  0.1171  0.2165
 1525SOL    HW1 4574   3.647   1.143   9.440 -0.6134  0.1629  1.5705
 1525SOL    HW2 4575   3.509   1.202   9.461 -1.1797 -0.3569 -0.5117
 1526SOL     OW 4576   4.649   3.363   8.487  0.3002 -0.0591  0.0511
 1526SOL    HW1 4577   4.675   3.452   8.509 -1.1545  0.7142 -1.1957
 1526SOL    HW2 4578   4.728   3.310   8.504  2.0693  1.8493 -1.6506
 1527SOL     OW 4579   3.539   3.523   7.158  0.1106 -0.2870 -0.3159
 1527SOL    HW1 4580   3.453   3.482   7.155  0.2434 -0.5449 -0.6351
 1527SOL    HW2 4581   3.542   3.565   7.244 -0.5653  0.2399 -0.5458
 1528SOL     OW 4582   4.217   3.199   5.351 -0.1825 -0.3689 -0.4145
 1528SOL    HW1 4583   4.311   3.182   5.347 -0.3428 -1.0727 -1.9133
 1528SOL    HW2 4584   4.194   3.184   5.442  1.5771  2.2616  0.5839
 1529SOL     OW 4585   2.861   0.519   5.154  0.5968 -0.9633  0.0672
 1529SOL    HW1 4586   2.904   0.587   5.102  0.7204 -1.6012 -0.6941
 1529SOL    HW2 4587   2.917   0.442   5.141 -0.2412 -1.5422 -0.1396
 1530SOL     OW 4588   3.350   0.515   7.787  0.1367 -0.4752 -0.2144
 1530SOL    HW1 4589   3.418   0.514   7.720  1.7326  0.9696  1.2924
 1530SOL    HW2 4590   3.326   0.607   7.796 -0.6871 -0.7522  0.5737
 1531SOL     OW 4591   1.332   4.543   5.446 -0.1181  0.3597  0.6507
 1531SOL    HW1 4592   1.254   4.530   5.391  0.3732 -1.0477  0.2388
 1531SOL    HW2 4593   1.393   4.590   5.389  0.1715 -0.5788  0.1610
 1532SOL     OW 4594   3.314   2.679   6.171 -0.2079  0.6343 -0.1266
 1532SOL    HW1 4595   3.325   2.629   6.252  1.1477  0.3539 -0.4732
 1532SOL    HW2 4596   3.262   2.755   6.197  0.1125  0.4903  0.9871
 1533SOL     OW 4597   3.286   0.803   4.823  0.0641  0.1130  0.6563
 1533SOL    HW1 4598   3.268   0.742   4.752  0.2259 -0.0588  0.7612
 1533SOL    HW2 4599   3.368   0.772   4.861  1.0083  1.3152 -0.3007
 1534SOL     OW 4600   3.320   0.940   5.153  0.0451  0.0374 -0.0359
 1534SOL    HW1 4601   3.235   0.901   5.171 -0.2579  0.2090 -1.0644
 1534SOL    HW2 4602   3.309   0.987   5.070  1.6269 -1.5026 -1.1867
 1535SOL     OW 4603   2.716   1.666   6.361 -0.0847 -0.1598 -0.4092
 1535SOL    HW1 4604   2.796   1.614   6.371 -0.1755  0.0580  1.9693
 1535SOL    HW2 4605   2.648   1.612   6.402 -0.4959  1.0892  0.5907
 1536SOL     OW 4606   2.440   3.491   8.729  0.0360 -0.7596 -0.2444
 1536SOL    HW1 4607   2.503   3.546   8.682 -0.3416 -0.2233 -0.1363
 1536SOL    HW2 4608   2.372   3.472   8.665 -1.3973  1.4448  0.4968
 1537SOL     OW 4609   4.433   3.678   6.152  0.0073  0.2925  0.0325
 1537SOL    HW1 4610   4.409   3.718   6.236 -1.0699 -0.2818  0.0217
 1537SOL    HW2 4611   4.467   3.750   6.099 -2.0789  1.2700 -0.0731
 1538SOL     OW 4612   3.285   1.071   8.053  0.0670  0.6483 -0.2556
 1538SOL    HW1 4613   3.231   1.138   8.096  0.0927  1.2575 -1.1432
 1538SOL    HW2 4614   3.373   1.110   8.050 -0.1602  1.0972 -1.8390
 1539SOL     OW 4615   2.940   0.470   4.792  0.2820  0.5317 -0.5407
 1539SOL    HW1 4616   3.034   0.457   4.799  0.2176 -0.2773 -1.0346
 1539SOL    HW2 4617   2.930   0.558   4.754  0.7820  1.3450  1.1181
 1540SOL     OW 4618   4.041   2.493   6.150  0.1680  0.1768 -0.1328
 1540SOL    HW1 4619   4.117   2.462   6.199 -1.7274 -0.9345  2.3296
 1540SOL    HW2 4620   4.003   2.414   6.112 -0.5027  0.5238 -0.1976
 1541SOL     OW 4621   0.979   4.477   5.970  0.2399  0.1417 -0.4458
 1541SOL    HW1 4622   1.063   4.447   6.003  0.0893  0.0241 -0.1661
 1541SOL    HW2 4623   0.974   4.441   5.881  0.3711 -0.0629 -0.3704
 1542SOL     OW 4624   3.814   0.504   4.804  0.2800  0.4309  0.1568
 1542SOL    HW1 4625   3.864   0.563   4.747  0.3807 -0.5658 -0.8113
 1542SOL    HW2 4626   3.722   0.527   4.786  0.2916 -0.1896 -0.7842
 1543SOL     OW 4627   1.722   3.677   5.935 -0.7377  0.0615  0.5537
 1543SOL    HW1 4628   1.796   3.738   5.939 -1.7788  1.3690  0.7206
 1543SOL    HW2 4629   1.741   3.621   5.860  1.3828 -0.9728  1.7917
 1544SOL     OW 4630   3.528   0.103   5.417  0.5383  0.5748  0.0608
 1544SOL    HW1 4631   3.490   0.016   5.415  0.7319  0.4428  1.3902
 1544SOL    HW2 4632   3.616   0.091   5.382  1.0338 -0.0339  1.4421
 1545SOL     OW 4633   1.220   1.964   6.053 -0.5835  0.2140 -0.0187
 1545SOL    HW1 4634   1.173   2.047   6.062  1.7264  1.4751  1.5751
 1545SOL    HW2 4635   1.204   1.918   6.136  1.9376  1.3132  1.2081
 1546SOL     OW 4636   3.849   3.878   6.587 -0.1461  0.0169 -0.0638
 1546SOL    HW1 4637   3.840   3.793   6.630 -1.3463 -0.9374 -2.0612
 1546SOL    HW2 4638   3.858   3.940   6.659 -0.0777 -1.6950  1.4822
 1547SOL     OW 4639   3.396   0.338   5.350  0.2686 -0.3568  0.0918
 1547SOL    HW1 4640   3.374   0.350   5.442  1.3454  0.1745  0.2997
 1547SOL    HW2 4641   3.419   0.245   5.342 -0.1872 -0.4862  0.2764
 1548SOL     OW 4642   4.638   2.856   6.005 -0.4318 -0.2180  0.4195
 1548SOL    HW1 4643   4.571   2.790   5.986 -0.4399 -0.2644  0.6094
 1548SOL    HW2 4644   4.599   2.938   5.975 -0.7513 -0.1820  0.9247
 1549SOL     OW 4645   3.517   0.739   5.021 -0.5551 -0.0241 -0.3049
 1549SOL    HW1 4646   3.540   0.650   5.049 -0.0092  0.1056 -0.3453
 1549SOL    HW2 4647   3.510   0.789   5.103  1.7976  0.5422 -0.3957
 1550SOL     OW 4648   0.780   0.629   6.164 -0.3292 -0.0893 -0.5710
 1550SOL    HW1 4649   0.820   0.694   6.221  0.8849  2.5118 -3.9946
 1550SOL    HW2 4650   0.686   0.635   6.184  0.0749  0.3226  1.4105
 1551SOL     OW 4651   3.449   2.050   7.870 -0.5122 -0.1769  0.5928
 1551SOL    HW1 4652   3.503   2.027   7.946 -0.3262 -1.8782 -0.0016
 1551SOL    HW2 4653   3.367   2.082   7.907  0.1740  0.5821  1.4990
 1552SOL     OW 4654   2.391   0.557   5.609  0.4058  0.2571 -0.1314
 1552SOL    HW1 4655   2.310   0.562   5.557 -0.6091  2.7928  1.4978
 1552SOL    HW2 4656   2.385   0.472   5.653  0.2092 -0.9604 -2.3574
 1553SOL     OW 4657   2.644   1.009   5.757  0.2988 -0.4456  0.1186
 1553SOL    HW1 4658   2.593   0.994   5.677 -0.2926  0.4016  0.3222
 1553SOL    HW2 4659   2.659   0.922   5.793 -2.5862 -0.6668  1.0251
 1554SOL     OW 4660   4.723   2.756   5.497  0.1441  0.0635 -0.9887
 1554SOL    HW1 4661   4.673   2.781   5.419  1.1108  0.0284 -1.6306
 1554SOL    HW2 4662   4.804   2.808   5.492  0.6579 -0.6774 -0.5359
 1555SOL     OW 4663   1.410   0.883   6.278  0.3119  0.6563  0.2647
 1555SOL    HW1 4664   1.463   0.811   6.244  0.2111  0.7478 -0.0894
 1555SOL    HW2 4665   1.473   0.937   6.327  0.4345  0.4607  0.3248
 1556SOL     OW 4666   1.564   0.995   4.994 -0.1245  0.5024 -0.1662
 1556SOL    HW1 4667   1.486   1.050   5.001 -0.7823 -0.3923 -0.2452
 1556SOL    HW2 4668   1.544   0.919   5.048  1.0218  0.6110  0.4438
 1557SOL     OW 4669   2.190   1.348   5.902 -0.1335 -0.2370  0.9303
 1557SOL    HW1 4670   2.110   1.377   5.946  0.4692  0.6717  1.4659
 1557SOL    HW2 4671   2.187   1.253   5.906 -2.3675 -0.3561 -1.1761
 1558SOL     OW 4672   4.507   3.137   5.361  0.7870 -0.3388 -0.2079
 1558SOL    HW1 4673   4.559   3.207   5.400 -0.2059  0.6797 -0.6802
 1558SOL    HW2 4674   4.511   3.066   5.426  2.2889 -0.0810  0.0038
 1559SOL     OW 4675   3.254   0.510   5.638  0.2065 -0.3653 -0.3398
 1559SOL    HW1 4676   3.299   0.448   5.696  1.0011  0.1610 -0.3752
 1559SOL    HW2 4677   3.319   0.578   5.621 -1.4699  2.0353  1.9565
 1560SOL     OW 4678   3.559   4.392   5.743  0.3808  0.2014 -0.1258
 1560SOL    HW1 4679   3.467   4.384   5.770  0.5853 -2.1896  0.0462
 1560SOL    HW2 4680   3.609   4.379   5.824  0.8893  0.6543 -0.3630
 1561SOL     OW 4681   1.007   2.313   7.924  0.4353 -0.5784  0.1611
 1561SOL    HW1 4682   1.007   2.300   7.829  0.6931 -0.1225  0.0978
 1561SOL    HW2 4683   1.043   2.401   7.936 -0.0339 -0.4490  0.6558
 1562SOL     OW 4684   0.249   4.732   9.712 -0.1610 -0.1927 -0.3970
 1562SOL    HW1 4685   0.259   4.638   9.697 -1.3901 -0.3674 -0.2057
 1562SOL    HW2 4686   0.336   4.761   9.741 -0.3914 -1.8065  2.2520
 1563SOL     OW 4687   2.891   2.107   7.815  0.5912 -0.0036  0.0958
 1563SOL    HW1 4688   2.890   2.064   7.729 -0.9002  0.9839 -0.4249
 1563SOL    HW2 4689   2.853   2.042   7.874  0.9546 -0.4279 -0.1333
 1564SOL     OW 4690   3.806   3.639   6.729  0.1410 -0.2373  0.3679
 1564SOL    HW1 4691   3.768   3.619   6.815  0.8928  0.1461  0.8023
 1564SOL    HW2 4692   3.878   3.576   6.720 -0.3634 -0.7302 -0.2917
 1565SOL     OW 4693   3.242   3.928   5.088  0.2194  0.0146 -0.1410
 1565SOL    HW1 4694   3.323   3.946   5.041  0.1805 -1.6151 -0.9205
 1565SOL    HW2 4695   3.195   3.866   5.032 -1.2767  0.4220  0.5983
 1566SOL     OW 4696   3.005   0.492   5.565 -0.3025  0.2030  0.6152
 1566SOL    HW1 4697   3.096   0.487   5.593  0.1546 -0.4320 -0.8982
 1566SOL    HW2 4698   2.961   0.543   5.633  1.6407  2.6005  0.1807
 1567SOL     OW 4699   4.153   1.508   5.480  0.0494  0.3428 -0.0767
 1567SOL    HW1 4700   4.135   1.525   5.387 -0.7101  1.1042  0.1943
 1567SOL    HW2 4701   4.153   1.594   5.520  0.2744  0.0069  0.6590
 1568SOL     OW 4702   2.500   4.862   5.492 -0.0418 -0.4139 -0.4455
 1568SOL    HW1 4703   2.412   4.883   5.459  0.0184 -1.7417 -1.5093
 1568SOL    HW2 4704   2.496   4.770   5.517  1.6935 -1.2361 -2.8701
 1569SOL     OW 4705   3.409   4.243   5.187  0.9445 -0.5047 -0.2593
 1569SOL    HW1 4706   3.330   4.205   5.225  0.7504 -0.9492 -1.0897
 1569SOL    HW2 4707   3.385   4.262   5.096  1.4643  0.3491 -0.2305
 1570SOL     OW 4708   2.005   0.636   6.765 -0.5436  0.1920 -0.1277
 1570SOL    HW1 4709   2.049   0.605   6.845 -1.2777 -2.0317 -0.5006
 1570SOL    HW2 4710   2.071   0.687   6.720  0.7734 -0.7277  0.6609
 1571SOL     OW 4711   3.959   3.717   5.287  0.4500  0.3297  0.0315
 1571SOL    HW1 4712   4.002   3.696   5.204  0.4126  1.8103 -0.3888
 1571SOL    HW2 4713   3.874   3.755   5.261 -0.3901 -0.9489  0.8055
 1572SOL     OW 4714   0.124   2.498   5.649 -0.3310 -0.2970  0.1855
 1572SOL    HW1 4715   0.114   2.471   5.558 -0.9929  1.8439 -0.4347
 1572SOL    HW2 4716   0.088   2.426   5.700 -0.3296 -1.3508 -1.2555
 1573SOL     OW 4717   3.062   0.870   5.172  1.1024  0.0778  0.0398
 1573SOL    HW1 4718   3.020   0.925   5.106  3.0840  1.3567 -0.2269
 1573SOL    HW2 4719   3.016   0.890   5.253  0.3341  0.4433 -0.4789
 1574SOL     OW 4720   2.444   1.551   6.377  0.2590  0.0726 -0.1718
 1574SOL    HW1 4721   2.382   1.537   6.305  2.4384 -0.9234 -1.9592
 1574SOL    HW2 4722   2.474   1.463   6.400  1.4877  0.5718  0.1997
 1575SOL     OW 4723   4.384   4.947   6.030  0.0873  0.0607 -0.0746
 1575SOL    HW1 4724   4.408   4.879   6.093  0.2703 -0.0419 -0.2549
 1575SOL    HW2 4725   4.444   4.934   5.957  0.6715  0.9233  0.2328
 1576SOL     OW 4726   3.122   0.510   7.965 -0.7524  1.0434 -0.4820
 1576SOL    HW1 4727   3.078   0.425   7.967 -0.2081  0.7728  1.3602
 1576SOL    HW2 4728   3.182   0.505   7.891  0.2397 -0.6896  0.4057
 1577SOL     OW 4729   1.563   1.005   6.464  0.0298  0.3203  0.7856
 1577SOL    HW1 4730   1.529   0.949   6.534 -0.2030  0.4437  0.7736
 1577SOL    HW2 4731   1.523   1.090   6.481 -0.8122  0.1089 -0.0654
 1578SOL     OW 4732   2.265   4.731   6.143  0.4503 -0.1333  0.6255
 1578SOL    HW1 4733   2.306   4.815   6.163 -2.0372  0.6808  3.2021
 1578SOL    HW2 4734   2.306   4.669   6.204 -1.0841  0.4172  2.3274
 1579SOL     OW 4735   2.870   0.808   5.635 -0.3354  0.2560 -0.2244
 1579SOL    HW1 4736   2.814   0.790   5.710 -1.2251  0.3475 -0.8513
 1579SOL    HW2 4737   2.818   0.782   5.559  0.5722  0.1055 -0.8101
 1580SOL     OW 4738   2.143   0.426   5.928 -0.7474 -0.0467  0.4111
 1580SOL    HW1 4739   2.150   0.367   5.853  0.9714  0.5511  0.0476
 1580SOL    HW2 4740   2.138   0.514   5.889  1.5013  0.3761  0.9652
 1581SOL     OW 4741   4.265   4.639   5.888 -0.6902 -0.0437 -0.2620
 1581SOL    HW1 4742   4.199   4.665   5.952 -0.2870 -0.1450  0.2044
 1581SOL    HW2 4743   4.267   4.544   5.892  0.3041 -0.0124  0.5978
 1582SOL     OW 4744   3.559   1.181   6.000 -0.2620  0.3816 -0.0879
 1582SOL    HW1 4745   3.597   1.192   5.913  1.4329  1.3767  0.7204
 1582SOL    HW2 4746   3.473   1.221   5.994 -0.1225  0.5426 -1.2686
 1583SOL     OW 4747   4.236   4.251   6.857 -0.5899 -0.1030  0.0887
 1583SOL    HW1 4748   4.232   4.283   6.947 -4.1486  1.7727 -0.5531
 1583SOL    HW2 4749   4.216   4.157   6.864  0.0314 -0.1628  1.2853
 1584SOL     OW 4750   3.644   1.900   6.086  0.4668  0.3191 -0.9185
 1584SOL    HW1 4751   3.606   1.866   6.005  0.3028  1.5817 -1.3858
 1584SOL    HW2 4752   3.570   1.915   6.143  0.6691 -1.8099  0.0000
 1585SOL     OW 4753   2.366   4.415   8.011 -0.0040  0.0709  0.3198
 1585SOL    HW1 4754   2.397   4.454   7.929  2.4881 -1.7080  0.3223
 1585SOL    HW2 4755   2.399   4.473   8.079  0.2248  0.1012  0.1825
 1586SOL     OW 4756   0.314   1.274   5.602 -0.2915  0.1181 -0.0898
 1586SOL    HW1 4757   0.387   1.329   5.631  0.2218 -0.7243  0.2464
 1586SOL    HW2 4758   0.239   1.333   5.602 -0.1235  0.4185  2.0002
 1587SOL     OW 4759   2.431   1.023   5.046  0.1269  0.3617 -0.3099
 1587SOL    HW1 4760   2.499   0.957   5.033 -0.1680  0.2821 -1.6527
 1587SOL    HW2 4761   2.473   1.106   5.020  0.1876  0.5534  0.3906
 1588SOL     OW 4762   1.246   2.282   5.654  0.1427  0.1526 -0.5373
 1588SOL    HW1 4763   1.287   2.198   5.631  1.7994  1.1418 -1.3586
 1588SOL    HW2 4764   1.272   2.298   5.744  1.7887  0.8584 -1.1095
 1589SOL     OW 4765   2.025   2.917   6.939  0.0719 -0.0205 -0.5185
 1589SOL    HW1 4766   1.982   2.917   7.024 -1.4484 -0.7379 -1.2602
 1589SOL    HW2 4767   2.060   2.829   6.929  0.8380  0.2607 -0.3558
 1590SOL     OW 4768   3.745   0.593   6.627  0.3751 -0.1594 -0.4993
 1590SOL    HW1 4769   3.720   0.654   6.557  0.1140  0.8683  0.4703
 1590SOL    HW2 4770   3.667   0.584   6.681  0.3710 -1.4731 -0.6844
 1591SOL     OW 4771   0.451   0.976   7.269  0.0808  0.4303 -0.1737
 1591SOL    HW1 4772   0.540   1.011   7.266  1.2238 -2.2768 -0.7122
 1591SOL    HW2 4773   0.395   1.053   7.259  2.3749  1.9935 -2.1628
 1592SOL     OW 4774   0.419   2.141   6.606  0.1785 -0.3638  0.0544
 1592SOL    HW1 4775   0.480   2.208   6.575 -0.0243 -0.5954 -0.8804
 1592SOL    HW2 4776   0.475   2.067   6.631  0.4313  0.2716  1.4588
 1593SOL     OW 4777   4.420   1.826   5.195  0.1583 -0.3837 -0.2669
 1593SOL    HW1 4778   4.428   1.731   5.183  2.2205 -0.0537 -2.2460
 1593SOL    HW2 4779   4.358   1.836   5.267 -0.1681 -3.2175 -0.0340
 1594SOL     OW 4780   3.224   0.438   4.886  0.7683 -0.3418  0.1224
 1594SOL    HW1 4781   3.207   0.404   4.974  0.6212 -1.3725 -0.2933
 1594SOL    HW2 4782   3.319   0.446   4.880  0.7343  0.7850  0.7442
 1595SOL     OW 4783   2.518   0.685   4.894  0.6449 -0.3638  0.0919
 1595SOL    HW1 4784   2.565   0.764   4.922  0.4522  0.3522 -1.5250
 1595SOL    HW2 4785   2.585   0.617   4.894  1.1472  0.1198  0.0706
 1596SOL     OW 4786   1.783   4.618   7.611  0.1500  0.4690  0.5997
 1596SOL    HW1 4787   1.702   4.669   7.609 -0.5152 -0.5830 -0.7349
 1596SOL    HW2 4788   1.820   4.629   7.523  0.0288 -1.2575  0.3072
 1597SOL     OW 4789   3.170   0.754   9.083 -0.6215  0.1046  0.3798
 1597SOL    HW1 4790   3.169   0.849   9.078  0.2368  0.1814  1.3228
 1597SOL    HW2 4791   3.263   0.731   9.078 -0.7812 -0.6446  0.7643
 1598SOL     OW 4792   4.382   3.445   4.821  0.0692  0.0617 -0.5534
 1598SOL    HW1 4793   4.393   3.533   4.858  4.1831 -0.8647  0.9309
 1598SOL    HW2 4794   4.375   3.460   4.726 -0.1595  1.9836 -0.2758
 1599SOL     OW 4795   3.675   4.591   5.319 -0.4767 -0.1861 -0.1071
 1599SOL    HW1 4796   3.716   4.539   5.388 -0.7858 -1.1129 -0.5983
 1599SOL    HW2 4797   3.685   4.681   5.348  0.8998 -0.4450  0.3390
 1600SOL     OW 4798   0.716   2.363   5.266  0.3197 -0.6705  0.1272
 1600SOL    HW1 4799   0.654   2.368   5.339  2.0342 -1.6197  1.7436
 1600SOL    HW2 4800   0.662   2.340   5.190 -1.4850  0.0265  1.1424
 1601SOL     OW 4801   4.413   4.240   5.590  0.1458 -0.6561 -0.2807
 1601SOL    HW1 4802   4.403   4.335   5.582  0.3173 -0.7111 -1.2857
 1601SOL    HW2 4803   4.325   4.205   5.576  0.0837 -0.6412  0.0830
 1602SOL     OW 4804   2.682   1.274   6.232  0.1362  0.6974  0.5423
 1602SOL    HW1 4805   2.686   1.332   6.155  1.3694 -1.2513 -0.9791
 1602SOL    HW2 4806   2.639   1.195   6.199 -1.3679  0.6206  2.5247
 1603SOL     OW 4807   2.662   2.232   6.221 -0.1901 -0.8828  0.0409
 1603SOL    HW1 4808   2.628   2.242   6.310 -0.7657 -0.2827 -0.2338
 1603SOL    HW2 4809   2.738   2.289   6.217  0.3158 -1.5272  0.3853
 1604SOL     OW 4810   0.990   0.071   7.587 -0.4170 -0.2110  0.1004
 1604SOL    HW1 4811   1.003   0.155   7.630 -1.2547 -0.0722  0.0905
 1604SOL    HW2 4812   0.905   0.079   7.543 -1.7820 -1.9312  2.2185
 1605SOL     OW 4813   4.198   4.541   6.255  0.5324  0.3320 -0.1199
 1605SOL    HW1 4814   4.180   4.567   6.345 -1.3417 -1.8501  0.2079
 1605SOL    HW2 4815   4.221   4.448   6.260 -1.3236 -0.3017 -2.0241
 1606SOL     OW 4816   2.773   2.524   6.397 -0.5324 -0.0049  0.2131
 1606SOL    HW1 4817   2.726   2.535   6.480 -1.0635 -0.3851 -0.0274
 1606SOL    HW2 4818   2.736   2.591   6.339 -0.4234  0.0214  0.1737
 1607SOL     OW 4819   3.867   4.874   5.652 -0.5094 -0.1734  0.1699
 1607SOL    HW1 4820   3.960   4.861   5.670 -0.0988  0.9155 -1.0185
 1607SOL    HW2 4821   3.846   4.960   5.691 -0.2079  1.0492 -2.1809
 1608SOL     OW 4822   2.674   0.150   7.409  0.3461  0.4125  1.1912
 1608SOL    HW1 4823   2.586   0.139   7.446 -0.3477  0.9662 -0.2214
 1608SOL    HW2 4824   2.731   0.101   7.469 -1.4782 -4.0436 -0.2354
 1609SOL     OW 4825   4.111   1.388   6.345 -0.1673  0.3279 -0.0595
 1609SOL    HW1 4826   4.191   1.355   6.306 -0.4852  0.1014 -0.5386
 1609SOL    HW2 4827   4.063   1.310   6.373 -0.4621  0.4304 -0.2684
 1610SOL     OW 4828   0.896   1.378   5.786 -0.2005 -0.3165 -0.2072
 1610SOL    HW1 4829   0.908   1.472   5.798 -0.3654 -0.5106  1.9007
 1610SOL    HW2 4830   0.971   1.351   5.732  0.1867  0.9060 -0.3129
 1611SOL     OW 4831   2.266   4.427   4.988 -0.3726  0.3839  0.0450
 1611SOL    HW1 4832   2.183   4.428   4.940 -0.4452  1.1651  0.1755
 1611SOL    HW2 4833   2.241   4.435   5.080 -0.1776  0.1665  0.1149
 1612SOL     OW 4834   3.643   4.178   4.961 -0.7082 -1.0272 -0.0471
 1612SOL    HW1 4835   3.710   4.227   4.914 -0.1106 -1.7929 -0.0058
 1612SOL    HW2 4836   3.628   4.229   5.040 -1.0733 -0.2046 -0.6315
 1613SOL     OW 4837   3.952   4.419   5.163 -0.2972 -0.5962 -0.4898
 1613SOL    HW1 4838   3.862   4.388   5.175  0.2478 -1.9883  0.2361
 1613SOL    HW2 4839   3.994   4.401   5.247 -0.2118  3.3755  0.5263
 1614SOL     OW 4840   2.377   1.407   5.179  0.2507 -0.5239 -0.2457
 1614SOL    HW1 4841   2.412   1.351   5.248  0.8329 -0.6392 -0.6237
 1614SOL    HW2 4842   2.416   1.492   5.195 -0.9251 -0.1032  0.5517
 1615SOL     OW 4843   0.855   1.046   6.228  0.5935 -0.2302  0.4685
 1615SOL    HW1 4844   0.891   1.118   6.279 -0.8924  1.3303 -0.5674
 1615SOL    HW2 4845   0.824   1.087   6.147  0.3679 -2.1684 -0.4860
 1616SOL     OW 4846   4.083   0.637   8.056 -0.2757  0.3714  0.3629
 1616SOL    HW1 4847   4.042   0.552   8.043 -0.4270  0.8279 -3.0706
 1616SOL    HW2 4848   4.016   0.691   8.098 -1.7878 -0.0792 -1.3413
 1617SOL     OW 4849   0.732   1.241   6.010 -0.0325 -0.5833 -0.1796
 1617SOL    HW1 4850   0.763   1.248   5.919  0.3715  0.5414  0.0252
 1617SOL    HW2 4851   0.669   1.169   6.008 -0.7745  0.0411 -1.5752
 1618SOL     OW 4852   0.158   2.176   7.212  0.6929 -0.1081  0.1798
 1618SOL    HW1 4853   0.153   2.256   7.161  1.3388  0.5516  1.1046
 1618SOL    HW2 4854   0.248   2.146   7.201  0.3653 -0.9041 -0.4265
 1619SOL     OW 4855   4.168   2.132   6.047 -0.3164  0.5504 -0.0448
 1619SOL    HW1 4856   4.251   2.168   6.015 -1.1117  2.3267 -0.2527
 1619SOL    HW2 4857   4.192   2.049   6.086  1.0879 -0.7326 -3.2246
 1620SOL     OW 4858   4.412   0.110   5.685  0.4762  0.1247  0.7243
 1620SOL    HW1 4859   4.462   0.191   5.681  0.7413 -0.0689 -0.2373
 1620SOL    HW2 4860   4.332   0.132   5.733 -0.1905  1.3524 -0.8665
 1621SOL     OW 4861   2.995   0.053   4.646  0.6839 -0.6706 -0.2636
 1621SOL    HW1 4862   2.931   0.124   4.653  0.6818 -0.7916  1.3092
 1621SOL    HW2 4863   3.079   0.096   4.665  0.8557 -0.8539 -0.5962
 1622SOL     OW 4864   2.431   0.935   6.829 -0.3635  0.3092 -0.3235
 1622SOL    HW1 4865   2.523   0.922   6.806 -0.2701  0.1227  0.1486
 1622SOL    HW2 4866   2.405   1.012   6.779 -0.6010 -0.9633 -2.2614
 1623SOL     OW 4867   1.370   2.225   6.286  0.1688 -0.0167  0.8983
 1623SOL    HW1 4868   1.317   2.304   6.281  0.2764  0.0999  1.5498
 1623SOL    HW2 4869   1.439   2.239   6.221 -1.1598 -0.6214 -0.7060
 1624SOL     OW 4870   1.970   1.622   5.924  0.1693 -0.0337  0.1475
 1624SOL    HW1 4871   1.934   1.615   5.835 -0.1032  0.5575  0.2065
 1624SOL    HW2 4872   2.064   1.629   5.912  0.2344 -1.1138 -0.0372
 1625SOL     OW 4873   2.470   2.134   5.662  0.0533  0.8328 -0.2942
 1625SOL    HW1 4874   2.423   2.122   5.579 -2.4063  2.1843  0.7859
 1625SOL    HW2 4875   2.459   2.227   5.682  2.3655  0.9876  0.6053
 1626SOL     OW 4876   2.227   4.676   6.603  0.1007  0.0150 -0.2987
 1626SOL    HW1 4877   2.263   4.761   6.628  1.1086 -0.5836  0.3488
 1626SOL    HW2 4878   2.302   4.617   6.603 -0.4718 -0.7496 -1.3845
 1627SOL     OW 4879   2.165   0.536   6.435  0.0006 -0.1272  0.4892
 1627SOL    HW1 4880   2.236   0.558   6.495 -0.3515 -0.4450  1.0343
 1627SOL    HW2 4881   2.205   0.479   6.369  0.2791 -0.1816  0.7055
 1628SOL     OW 4882   4.135   4.009   5.846 -0.0534  0.7031 -0.0025
 1628SOL    HW1 4883   4.134   3.949   5.921 -0.8225  1.4577  0.6106
 1628SOL    HW2 4884   4.228   4.031   5.835  0.1448  0.0510  0.2844
 1629SOL     OW 4885   0.826   1.248   7.379 -0.9906 -0.1495  0.0163
 1629SOL    HW1 4886   0.752   1.301   7.409 -0.2743  0.2380  1.1596
 1629SOL    HW2 4887   0.879   1.235   7.457  0.4109  0.0047 -0.8818
 1630SOL     OW 4888   5.009   0.667   7.139 -0.7642  0.0377  0.3555
 1630SOL    HW1 4889   4.971   0.582   7.118 -2.4351  0.6970  0.6013
 1630SOL    HW2 4890   5.003   0.717   7.058 -0.1151  0.0620  0.3145
 1631SOL     OW 4891   1.856   0.750   6.552  0.0248 -0.1166 -0.2463
 1631SOL    HW1 4892   1.769   0.711   6.545 -0.2452  0.0720  1.6605
 1631SOL    HW2 4893   1.900   0.701   6.622  1.0578  0.5037 -0.4314
 1632SOL     OW 4894   2.246   0.978   5.577 -0.7410  0.0915 -0.1271
 1632SOL    HW1 4895   2.253   0.939   5.664 -0.0214  1.9262  0.6839
 1632SOL    HW2 4896   2.335   0.974   5.542 -0.8988 -0.0487 -0.5190
 1633SOL     OW 4897   1.319   4.187   8.039 -0.0840  0.0199  0.2064
 1633SOL    HW1 4898   1.404   4.185   8.082  0.3493 -0.4381 -0.6552
 1633SOL    HW2 4899   1.287   4.097   8.045 -0.3250  0.1021  0.1546
 1634SOL     OW 4900   1.187   1.408   6.376  0.2913 -0.2426 -0.0510
 1634SOL    HW1 4901   1.153   1.446   6.296 -1.7711 -1.5574  0.1236
 1634SOL    HW2 4902   1.177   1.477   6.442  0.6875  0.3696 -0.6294
 1635SOL     OW 4903   2.579   2.619   5.648  0.6419  0.1542  0.0851
 1635SOL    HW1 4904   2.641   2.687   5.676  2.0568 -0.9397 -0.2700
 1635SOL    HW2 4905   2.635   2.548   5.616 -0.8168 -0.9030 -0.1910
 1636SOL     OW 4906   0.587   4.112   5.269 -0.0211  0.6618 -0.7084
 1636SOL    HW1 4907   0.551   4.024   5.278  0.5564  0.5790  1.6219
 1636SOL    HW2 4908   0.674   4.106   5.310  0.9694  1.8015 -2.5305
 1637SOL     OW 4909   4.549   1.021   6.482 -0.2723 -0.3478  0.1140
 1637SOL    HW1 4910   4.500   1.019   6.400  1.5845  0.0615 -1.0611
 1637SOL    HW2 4911   4.498   1.079   6.539 -0.3340  1.4026 -1.6266
 1638SOL     OW 4912   1.465   2.305   7.283  0.1055  0.2058 -0.0926
 1638SOL    HW1 4913   1.558   2.327   7.288 -0.4760  2.6741  1.8124
 1638SOL    HW2 4914   1.437   2.337   7.197  0.8980 -0.0788 -0.4672
 1639SOL     OW 4915   2.624   0.333   5.620 -0.1385 -0.1896  0.0170
 1639SOL    HW1 4916   2.645   0.240   5.623 -0.8326 -0.4560 -1.9487
 1639SOL    HW2 4917   2.682   0.368   5.553 -0.1146  0.7507  0.5112
 1640SOL     OW 4918   2.006   3.531   8.792  0.2293  0.4410  0.6924
 1640SOL    HW1 4919   1.999   3.611   8.739  1.3242 -0.7756 -1.4122
 1640SOL    HW2 4920   2.096   3.531   8.823  1.4045 -1.6033 -2.2720
 1641SOL     OW 4921   2.396   3.790   6.040 -0.3014 -0.4216  0.4524
 1641SOL    HW1 4922   2.490   3.775   6.048 -0.1751  0.0693 -0.0731
 1641SOL    HW2 4923   2.378   3.864   6.097 -0.2325 -0.0280 -0.0279
 1642SOL     OW 4924   3.273   4.390   6.512 -0.1088  0.5398 -0.3291
 1642SOL    HW1 4925   3.294   4.362   6.423  1.9549 -0.9503  0.5305
 1642SOL    HW2 4926   3.358   4.412   6.550 -1.0297  1.8311  1.0805
 1643SOL     OW 4927   1.379   1.205   6.500 -0.4820 -0.0259 -0.6049
 1643SOL    HW1 4928   1.316   1.239   6.437 -0.9030 -0.1762 -0.2670
 1643SOL    HW2 4929   1.328   1.189   6.579 -0.3067 -1.4572 -0.7522
 1644SOL     OW 4930   3.453   1.924   5.596 -0.2800  0.2961 -0.3111
 1644SOL    HW1 4931   3.548   1.928   5.582 -0.3823  0.0386 -1.1141
 1644SOL    HW2 4932   3.421   2.009   5.566 -0.4691 -0.1642 -1.4730
 1645SOL     OW 4933   2.715   4.903   8.902 -0.0808 -0.4570 -0.3406
 1645SOL    HW1 4934   2.799   4.878   8.940  0.0368 -0.9820 -0.9319
 1645SOL    HW2 4935   2.666   4.942   8.975  1.1467  1.0419 -0.2780
 1646SOL     OW 4936   3.175   4.919   6.418 -0.2367  1.1980 -0.1161
 1646SOL    HW1 4937   3.176   4.898   6.324 -0.9044  0.7473 -0.0325
 1646SOL    HW2 4938   3.086   4.895   6.447  0.8235 -1.5951  1.2495
 1647SOL     OW 4939   3.199   1.782   5.288 -0.0785  0.0976 -0.3189
 1647SOL    HW1 4940   3.176   1.767   5.379  2.0915  4.0116  1.1201
 1647SOL    HW2 4941   3.267   1.717   5.269  2.1558  1.4942  2.2470
 1648SOL     OW 4942   3.576   0.338   7.434  0.0474  0.2994  0.1159
 1648SOL    HW1 4943   3.515   0.401   7.395 -0.2021 -0.1641 -0.2651
 1648SOL    HW2 4944   3.645   0.329   7.369  0.0661  0.1623  0.1540
 1649SOL     OW 4945   1.798   0.768   4.812 -0.1933  0.2352 -0.4491
 1649SOL    HW1 4946   1.748   0.687   4.804  0.4974 -0.0862 -1.8115
 1649SOL    HW2 4947   1.743   0.834   4.769 -0.3699  0.3265 -0.0917
 1650SOL     OW 4948   1.082   3.249   5.411  0.5219  0.9500  0.3508
 1650SOL    HW1 4949   1.148   3.230   5.478  0.9661  1.2551  0.0007
 1650SOL    HW2 4950   1.124   3.311   5.352 -0.5726  2.3346  0.9475
 1651SOL     OW 4951   1.957   3.041   5.884 -0.3111  0.6768  0.5535
 1651SOL    HW1 4952   1.866   3.050   5.912  0.0827  2.8689  1.3577
 1651SOL    HW2 4953   1.970   3.112   5.821  0.2656 -1.0153 -1.3614
 1652SOL     OW 4954   3.900   1.416   7.143 -0.8837 -0.1765  0.0257
 1652SOL    HW1 4955   3.811   1.388   7.166 -0.7286 -0.8764 -0.1965
 1652SOL    HW2 4956   3.951   1.401   7.223 -1.0530  0.6637  0.3016
 1653SOL     OW 4957   3.441   3.996   4.890 -0.2459 -0.0264 -0.2248
 1653SOL    HW1 4958   3.429   4.058   4.818  0.2605 -0.2920 -0.5402
 1653SOL    HW2 4959   3.529   4.012   4.922  0.4763 -1.5884 -1.2965
 1654SOL     OW 4960   3.752   4.377   4.804  0.4594 -0.2851 -0.2695
 1654SOL    HW1 4961   3.754   4.452   4.864  1.1205 -1.0023  0.6428
 1654SOL    HW2 4962   3.664   4.380   4.766  0.1630  0.4358  0.4249
 1655SOL     OW 4963   4.776   0.289   6.409  0.0492  0.2938 -0.5321
 1655SOL    HW1 4964   4.784   0.232   6.333 -1.8606 -2.1242  0.9294
 1655SOL    HW2 4965   4.686   0.321   6.406  0.2690  1.0039  0.1562
 1656SOL     OW 4966   3.306   1.428   5.405 -0.4559  0.5734 -0.0160
 1656SOL    HW1 4967   3.390   1.403   5.445 -0.4375  1.5874  0.6193
 1656SOL    HW2 4968   3.322   1.516   5.371 -1.1445  0.6044 -0.2643
 1657SOL     OW 4969   3.191   0.030   5.518  0.0639  0.2728  0.2167
 1657SOL    HW1 4970   3.099   0.030   5.494  0.3414  0.7398 -0.8939
 1657SOL    HW2 4971   3.238   0.048   5.437  1.1983 -0.9341  0.5491
 1658SOL     OW 4972   2.821   4.384   5.643  0.5445 -0.3003  0.1880
 1658SOL    HW1 4973   2.904   4.413   5.681 -0.3031  0.8070  1.2762
 1658SOL    HW2 4974   2.821   4.420   5.555  1.9237 -1.7127 -0.4357
 1659SOL     OW 4975   3.804   3.457   5.517  0.1185  0.0326  0.1761
 1659SOL    HW1 4976   3.873   3.462   5.583  0.0694  2.6451  0.1603
 1659SOL    HW2 4977   3.848   3.429   5.437  0.8778  0.2030  0.5244
 1660SOL     OW 4978   2.387   0.178   5.372  0.1700 -0.3021  0.1711
 1660SOL    HW1 4979   2.429   0.263   5.385 -1.5096  0.6040 -0.0410
 1660SOL    HW2 4980   2.385   0.165   5.277 -2.2939  0.9226 -0.0140
 1661SOL     OW 4981   2.113   0.244   8.580  0.2192 -0.7184  0.6499
 1661SOL    HW1 4982   2.150   0.306   8.642 -1.3343  0.1623  0.7569
 1661SOL    HW2 4983   2.188   0.194   8.547  1.1450 -0.7921  2.7465
 1662SOL     OW 4984   3.561   3.034   5.063 -0.2466 -0.3246 -0.4328
 1662SOL    HW1 4985   3.513   3.115   5.047 -0.3928 -0.4586 -0.6880
 1662SOL    HW2 4986   3.499   2.965   5.041  0.1160 -0.4966 -0.9422
 1663SOL     OW 4987   1.298   0.636   5.512 -0.2428  0.0179  0.0714
 1663SOL    HW1 4988   1.283   0.669   5.601  1.2506  0.2107  0.2691
 1663SOL    HW2 4989   1.340   0.550   5.525  3.2972  1.5170 -0.3411
 1664SOL     OW 4990   0.963   1.304   5.301 -0.6121  0.0685  0.0098
 1664SOL    HW1 4991   1.058   1.306   5.302 -0.5515  3.0762  1.6891
 1664SOL    HW2 4992   0.938   1.292   5.393 -1.7927  1.1608 -0.1346
 1665SOL     OW 4993   2.783   2.103   6.490 -0.2287  0.3080 -0.3672
 1665SOL    HW1 4994   2.721   2.144   6.550  0.9111  0.5520  0.6857
 1665SOL    HW2 4995   2.734   2.032   6.449 -1.2285  0.5733  0.3372
 1666SOL     OW 4996   2.527   4.373   5.005 -0.0912  0.0948  0.3642
 1666SOL    HW1 4997   2.441   4.414   5.001 -0.5756 -0.6419  2.0315
 1666SOL    HW2 4998   2.563   4.401   5.089  1.1133  0.0153 -0.1056
 1667SOL     OW 4999   0.216   1.138   8.357  0.3832  0.6641  1.0975
 1667SOL    HW1 5000   0.272   1.173   8.288  1.0164 -0.1685  1.1715
 1667SOL    HW2 5001   0.268   1.068   8.397 -0.8775 -0.4375  0.8770
 1668SOL     OW 5002   1.799   0.657   6.087 -0.5386 -0.2337 -0.0469
 1668SOL    HW1 5003   1.792   0.565   6.060 -2.1958 -1.6104  4.1314
 1668SOL    HW2 5004   1.849   0.653   6.169  0.2060  2.7810 -0.2530
 1669SOL     OW 5005   3.531   2.890   5.401  0.1502  0.2710 -0.6408
 1669SOL    HW1 5006   3.479   2.817   5.435 -1.1462  1.7845  0.7274
 1669SOL    HW2 5007   3.620   2.854   5.395 -0.6322 -1.7583 -1.1232
 1670SOL     OW 5008   2.331   4.844   5.804 -0.3632  0.4397 -0.0214
 1670SOL    HW1 5009   2.338   4.749   5.814  1.6123  0.2671 -2.2538
 1670SOL    HW2 5010   2.259   4.857   5.743  0.1069  0.2990 -0.6074
 1671SOL     OW 5011   2.826   0.591   6.546  0.0269 -0.4657  0.1897
 1671SOL    HW1 5012   2.872   0.640   6.479  0.6621 -1.9911 -0.5448
 1671SOL    HW2 5013   2.753   0.549   6.501 -2.4858  2.2023  1.3995
 1672SOL     OW 5014   3.179   4.030   6.869 -0.1686 -0.0002 -0.0801
 1672SOL    HW1 5015   3.273   4.018   6.885 -0.5628 -3.0320  0.4497
 1672SOL    HW2 5016   3.175   4.074   6.784  1.7653 -2.3405 -1.5059
 1673SOL     OW 5017   0.531   0.280   7.599 -0.1562  0.0890  0.2044
 1673SOL    HW1 5018   0.522   0.313   7.510 -1.5335 -1.4403 -0.2608
 1673SOL    HW2 5019   0.451   0.308   7.644  0.2702  0.3638  0.8164
 1674SOL     OW 5020   2.624   0.406   6.125 -0.2660  0.2535 -0.3426
 1674SOL    HW1 5021   2.530   0.389   6.119 -0.1215 -1.0111  0.5365
 1674SOL    HW2 5022   2.665   0.322   6.105  0.7210  1.0119 -1.6084
 1675SOL     OW 5023   2.077   0.855   4.892 -0.7338 -0.0120 -0.5452
 1675SOL    HW1 5024   1.986   0.828   4.892 -0.3684 -1.3274 -1.4295
 1675SOL    HW2 5025   2.122   0.791   4.837  0.6803  0.7659 -0.3627
 1676SOL     OW 5026   2.694   0.342   6.836  0.2286 -0.1709  0.7344
 1676SOL    HW1 5027   2.762   0.409   6.821  0.2163 -0.2109  0.4959
 1676SOL    HW2 5028   2.699   0.286   6.759  0.5648 -0.7279  1.1540
 1677SOL     OW 5029   3.718   0.433   5.363 -0.8476  0.3858  0.1554
 1677SOL    HW1 5030   3.716   0.523   5.396 -0.8185  0.1955  0.6905
 1677SOL    HW2 5031   3.631   0.399   5.383 -0.8142  0.2553  0.0744
 1678SOL     OW 5032   4.367   1.067   9.117  1.0433  0.0186  0.0537
 1678SOL    HW1 5033   4.288   1.018   9.093 -0.1078  2.4840 -1.6476
 1678SOL    HW2 5034   4.433   1.000   9.133 -1.3926 -2.1845  1.7883
 1679SOL     OW 5035   1.739   1.921   5.015 -0.2937 -0.1089 -0.4401
 1679SOL    HW1 5036   1.823   1.948   5.051 -1.5529  1.2577  1.6813
 1679SOL    HW2 5037   1.690   1.886   5.089 -1.1873 -2.0618 -1.8649
 1680SOL     OW 5038   3.810   4.380   5.515 -0.5632  0.4134  0.3944
 1680SOL    HW1 5039   3.880   4.438   5.545 -0.1500 -0.3905  1.0065
 1680SOL    HW2 5040   3.840   4.292   5.537 -1.2045 -0.0418 -0.4754
 1681SOL     OW 5041   1.805   1.607   8.182 -0.9267  0.1498  0.4291
 1681SOL    HW1 5042   1.775   1.581   8.269 -0.5163  2.0540  1.1884
 1681SOL    HW2 5043   1.871   1.542   8.159  1.4990  1.4748  3.0959
 1682SOL     OW 5044   4.150   4.272   5.072 -0.3591 -0.1265  0.2696
 1682SOL    HW1 5045   4.079   4.337   5.070 -1.2783 -1.0332  1.7330
 1682SOL    HW2 5046   4.156   4.246   5.164  1.5192 -0.4955  0.0834
 1683SOL     OW 5047   4.446   1.018   6.227  0.5051  0.3610  0.3914
 1683SOL    HW1 5048   4.533   1.025   6.187  0.4927 -0.3923  0.2239
 1683SOL    HW2 5049   4.399   0.955   6.173 -0.0841  0.6099  0.6031
 1684SOL     OW 5050   1.889   0.907   5.167  0.4028 -0.5186 -0.0062
 1684SOL    HW1 5051   1.958   0.969   5.141 -0.1505  0.5054  0.8842
 1684SOL    HW2 5052   1.885   0.914   5.262 -1.2153 -0.2324 -0.0768
 1685SOL     OW 5053   2.639   1.789   7.088  0.1933 -0.7123  0.6551
 1685SOL    HW1 5054   2.709   1.755   7.033 -0.0854 -0.7140  0.2959
 1685SOL    HW2 5055   2.559   1.751   7.051 -0.2223  0.9409 -0.2536
 1686SOL     OW 5056   2.165   2.246   7.404  0.1282 -0.5687 -0.5221
 1686SOL    HW1 5057   2.099   2.253   7.473  1.6221  0.8037  0.8594
 1686SOL    HW2 5058   2.197   2.335   7.392  2.0376 -1.2413 -0.8041
 1687SOL     OW 5059   1.377   4.504   6.487  0.1671 -0.0447  0.4987
 1687SOL    HW1 5060   1.465   4.477   6.460 -0.3437 -1.5350  0.2700
 1687SOL    HW2 5061   1.337   4.425   6.524 -1.9149 -0.0789 -1.5559
 1688SOL     OW 5062   4.887   1.286   7.503 -0.0893  0.5785  0.0192
 1688SOL    HW1 5063   4.944   1.219   7.465 -2.9057 -1.9283 -0.1243
 1688SOL    HW2 5064   4.921   1.298   7.592 -0.0574 -1.8761  0.4179
 1689SOL     OW 5065   2.743   0.664   6.153  0.0909  0.2901 -0.1984
 1689SOL    HW1 5066   2.681   0.715   6.100  0.2829  1.1154  0.3494
 1689SOL    HW2 5067   2.707   0.576   6.155 -0.1320  0.3289 -1.3730
 1690SOL     OW 5068   3.256   3.688   7.143  0.2952  0.6602  0.2056
 1690SOL    HW1 5069   3.276   3.772   7.185  0.2733  1.7998 -1.9163
 1690SOL    HW2 5070   3.189   3.710   7.077 -0.6589 -1.2797  0.4652
 1691SOL     OW 5071   4.254   3.777   5.180  0.2935 -0.4827  0.0281
 1691SOL    HW1 5072   4.313   3.813   5.247  1.0643 -1.0254 -0.3491
 1691SOL    HW2 5073   4.282   3.819   5.098 -1.0797  0.6919  0.1229
 1692SOL     OW 5074   1.304   2.258   5.921 -0.2261 -0.3260  0.1648
 1692SOL    HW1 5075   1.217   2.227   5.947  0.5651 -3.1206 -0.1041
 1692SOL    HW2 5076   1.356   2.253   6.001 -0.2863  1.4083  0.3435
 1693SOL     OW 5077   3.421   0.261   5.622 -0.2000  0.3541 -0.3020
 1693SOL    HW1 5078   3.475   0.248   5.700 -0.1364 -0.9121 -0.5300
 1693SOL    HW2 5079   3.459   0.201   5.557 -0.7418  0.8118 -1.0479
 1694SOL     OW 5080   3.592   0.179   4.760 -0.1034  0.0388 -0.5518
 1694SOL    HW1 5081   3.649   0.110   4.793  2.3956  1.3460 -1.8310
 1694SOL    HW2 5082   3.556   0.144   4.679  0.5081 -0.1003 -0.7739
 1695SOL     OW 5083   1.570   2.732   6.860 -0.1695 -0.3837  0.3629
 1695SOL    HW1 5084   1.643   2.787   6.832 -0.0938 -0.7972 -0.2672
 1695SOL    HW2 5085   1.569   2.659   6.798 -0.4100 -0.9765  1.0478
 1696SOL     OW 5086   0.609   1.387   7.493  0.5740 -0.2429 -0.0058
 1696SOL    HW1 5087   0.648   1.441   7.561 -0.0973 -0.3268  0.4575
 1696SOL    HW2 5088   0.523   1.364   7.527  0.4467 -0.7501 -0.6433
 1697SOL     OW 5089   3.744   2.520   7.197  0.4988 -0.4531  0.7110
 1697SOL    HW1 5090   3.755   2.464   7.120 -1.4600  1.0325 -0.7504
 1697SOL    HW2 5091   3.834   2.540   7.225  1.4458  0.7623 -2.6237
 1698SOL     OW 5092   3.243   3.549   6.843  0.5730  0.3388  0.1218
 1698SOL    HW1 5093   3.187   3.576   6.916  0.1525  1.2050 -0.5005
 1698SOL    HW2 5094   3.203   3.589   6.766  0.8068 -0.8561 -0.6492
 1699SOL     OW 5095   3.190   2.848   7.718 -0.1407  0.0346 -0.2499
 1699SOL    HW1 5096   3.278   2.870   7.688 -0.4655  1.9648  0.0848
 1699SOL    HW2 5097   3.132   2.880   7.648 -0.5999 -1.2328 -0.4768
 1700SOL     OW 5098   2.641   3.418   6.425  0.5768  0.1095 -0.1670
 1700SOL    HW1 5099   2.563   3.464   6.456  0.2438  0.5120 -1.5134
 1700SOL    HW2 5100   2.609   3.358   6.358  1.2899 -0.5557  0.0625
 1701SOL     OW 5101   1.834   0.460   5.766 -0.1774  0.8666 -0.1493
 1701SOL    HW1 5102   1.905   0.516   5.736  1.0103 -1.2041 -1.4607
 1701SOL    HW2 5103   1.792   0.430   5.685  0.2704 -1.3516  0.3559
 1702SOL     OW 5104   2.927   0.986   5.397  0.3695 -0.2505  0.4625
 1702SOL    HW1 5105   2.938   0.903   5.443  0.7810  0.0373  0.8995
 1702SOL    HW2 5106   2.967   1.051   5.455  0.3583  0.2052 -0.0277
 1703SOL     OW 5107   1.453   0.645   6.981 -0.5256  0.2835 -0.2964
 1703SOL    HW1 5108   1.500   0.698   6.916 -0.1647  1.1214  0.6276
 1703SOL    HW2 5109   1.401   0.584   6.928  0.0213  0.7094 -1.3687
 1704SOL     OW 5110   2.927   4.558   4.919 -0.4759 -0.2272  0.3361
 1704SOL    HW1 5111   2.860   4.627   4.923 -0.5780 -0.2893 -0.2203
 1704SOL    HW2 5112   2.880   4.478   4.944 -0.1170  0.0533  2.0336
 1705SOL     OW 5113   2.956   1.197   6.459 -0.7057  0.1964  0.2129
 1705SOL    HW1 5114   2.906   1.261   6.409 -2.3791 -0.8558  0.4497
 1705SOL    HW2 5115   2.991   1.136   6.394 -0.1790  0.6213  0.0918
 1706SOL     OW 5116   1.504   0.508   5.143  0.8954  0.0725  0.5550
 1706SOL    HW1 5117   1.582   0.562   5.135  0.0705  1.3849  1.0871
 1706SOL    HW2 5118   1.438   0.551   5.090  0.6110 -1.2315 -0.1982
 1707SOL     OW 5119   3.106   3.509   4.863  0.5132  0.4835 -0.7863
 1707SOL    HW1 5120   3.159   3.584   4.890  1.1430 -0.0843 -0.4160
 1707SOL    HW2 5121   3.162   3.461   4.802  1.1813 -1.0977  0.9645
 1708SOL     OW 5122   4.775   3.292   5.856 -0.1211 -0.4466 -0.5159
 1708SOL    HW1 5123   4.722   3.215   5.879 -1.5350  0.5846 -0.2027
 1708SOL    HW2 5124   4.850   3.288   5.916 -1.1219 -0.6069  0.7797
 1709SOL     OW 5125   4.682   1.112   6.115  0.4491  0.4577 -0.5164
 1709SOL    HW1 5126   4.686   1.207   6.101  0.7529  0.0375 -4.1494
 1709SOL    HW2 5127   4.769   1.081   6.091  0.3847 -0.8013  0.7341
 1710SOL     OW 5128   3.373   4.560   5.092 -0.4021 -0.1417  0.4807
 1710SOL    HW1 5129   3.351   4.481   5.044  1.8061 -0.6341  0.2114
 1710SOL    HW2 5130   3.389   4.530   5.182 -0.8107  0.2066  0.6753
 1711SOL     OW 5131   3.097   1.094   8.908  0.1490 -0.3548 -0.1233
 1711SOL    HW1 5132   3.167   1.147   8.869  1.7972 -1.4818  1.1084
 1711SOL    HW2 5133   3.103   1.010   8.863 -0.9730 -0.2159 -0.5545
 1712SOL     OW 5134   4.287   2.267   5.649 -0.0633 -0.5926  0.2714
 1712SOL    HW1 5135   4.224   2.206   5.610 -2.8509  0.1398  3.1986
 1712SOL    HW2 5136   4.233   2.328   5.700  2.8865  1.8962  0.6992
 1713SOL     OW 5137   2.796   1.050   5.995  0.0695  0.6123  0.3926
 1713SOL    HW1 5138   2.757   1.048   5.908 -1.3185  3.0069  0.8835
 1713SOL    HW2 5139   2.722   1.063   6.055  1.0304 -0.5523  1.9132
 1714SOL     OW 5140   4.417   3.923   5.397  0.3114  0.2284 -0.2110
 1714SOL    HW1 5141   4.392   4.015   5.406 -0.2117  0.3109 -2.0503
 1714SOL    HW2 5142   4.374   3.879   5.470 -1.1023  1.1593 -0.4468
 1715SOL     OW 5143   2.321   1.174   6.747 -0.0438 -0.2563 -0.1971
 1715SOL    HW1 5144   2.365   1.258   6.735 -1.1593  0.3665 -0.0098
 1715SOL    HW2 5145   2.254   1.191   6.814  0.5489 -1.6073  0.7928
 1716SOL     OW 5146   1.251   0.062   5.639  0.4802  0.2931  0.6499
 1716SOL    HW1 5147   1.242   0.062   5.544  2.9324  0.8740  0.3492
 1716SOL    HW2 5148   1.343   0.083   5.654  0.3622 -0.6713  3.1472
 1717SOL     OW 5149   4.919   4.189   5.473 -0.1405 -0.1646  0.1022
 1717SOL    HW1 5150   5.012   4.198   5.454  0.1590 -1.8742  0.6058
 1717SOL    HW2 5151   4.909   4.221   5.562  0.2660 -1.3668  0.6015
 1718SOL     OW 5152   4.913   1.415   5.410 -0.1041  0.8186 -0.7424
 1718SOL    HW1 5153   4.913   1.325   5.376 -0.3293  0.4574  0.1966
 1718SOL    HW2 5154   4.940   1.407   5.501  0.1181  1.7391 -0.7141
 1719SOL     OW 5155   3.190   1.812   6.891  0.3615  0.4212 -0.1816
 1719SOL    HW1 5156   3.276   1.805   6.932 -0.1927  0.9759  1.1160
 1719SOL    HW2 5157   3.142   1.734   6.919  0.4848  0.0080 -1.0660
 1720SOL     OW 5158   2.591   4.642   4.627  0.3819 -0.0641 -0.4325
 1720SOL    HW1 5159   2.545   4.558   4.639  0.8591 -0.1482  1.0461
 1720SOL    HW2 5160   2.680   4.617   4.604  0.4513  0.0359 -0.2751
 1721SOL     OW 5161   3.920   4.134   5.225 -0.4337  0.5368 -0.0270
 1721SOL    HW1 5162   3.926   4.081   5.145 -0.0819 -2.8510  2.0363
 1721SOL    HW2 5163   3.836   4.180   5.217 -0.7972 -0.3595 -1.9678
 1722SOL     OW 5164   3.637   4.011   5.487 -0.1209  0.5473  0.1924
 1722SOL    HW1 5165   3.639   3.952   5.562 -0.1133 -0.5775 -0.6604
 1722SOL    HW2 5166   3.561   3.982   5.436 -1.5744  2.8089  0.9162
 1723SOL     OW 5167   4.872   2.131   7.137  1.0439 -0.6719 -0.7252
 1723SOL    HW1 5168   4.961   2.143   7.104  2.3336  0.1287  2.5628
 1723SOL    HW2 5169   4.875   2.047   7.183  1.1048  0.6683  1.9193
 1724SOL     OW 5170   2.062   0.327   5.181  0.3186  0.0086  0.5185
 1724SOL    HW1 5171   2.154   0.318   5.156  1.3286 -0.1569  3.8198
 1724SOL    HW2 5172   2.046   0.421   5.185  0.6617  0.0536  0.8725
 1725SOL     OW 5173   0.880   0.381   7.427 -0.3963  0.0327  0.5934
 1725SOL    HW1 5174   0.878   0.309   7.364  1.9420  1.1031 -0.8194
 1725SOL    HW2 5175   0.933   0.348   7.500  2.2130  0.7993 -0.8397
 1726SOL     OW 5176   3.632   1.052   6.273  0.3159 -0.1421  0.6929
 1726SOL    HW1 5177   3.725   1.034   6.285  0.4560 -0.4777 -0.7230
 1726SOL    HW2 5178   3.627   1.095   6.188 -0.9681 -1.3599  0.1229
 1727SOL     OW 5179   3.766   1.905   6.878  0.3765 -0.2335  0.0015
 1727SOL    HW1 5180   3.782   1.905   6.784  1.2110  0.3619  0.1231
 1727SOL    HW2 5181   3.813   1.829   6.911 -0.1115 -0.5761 -0.0890
 1728SOL     OW 5182   3.031   2.180   6.515 -0.0016  0.2584 -0.1784
 1728SOL    HW1 5183   2.952   2.135   6.486  0.7589 -0.7606 -0.7368
 1728SOL    HW2 5184   3.004   2.271   6.525 -0.9185  0.2005 -1.7012
 1729SOL     OW 5185   0.168   3.671   7.612  0.3089 -0.3662 -0.3408
 1729SOL    HW1 5186   0.168   3.595   7.553  0.0502 -0.8129  0.2207
 1729SOL    HW2 5187   0.148   3.634   7.698  0.6327  0.2838  0.0202
 1730SOL     OW 5188   2.529   2.221   4.878  0.6227  0.1782 -1.5163
 1730SOL    HW1 5189   2.450   2.274   4.873 -0.1526 -0.9470 -1.6481
 1730SOL    HW2 5190   2.601   2.284   4.875 -0.2474  1.1744 -2.2169
 1731SOL     OW 5191   3.163   3.031   5.188  0.2175 -0.1997  0.4938
 1731SOL    HW1 5192   3.231   2.980   5.144  0.3344  0.4773 -0.1301
 1731SOL    HW2 5193   3.208   3.110   5.217 -0.4320  0.5663 -0.5187
 1732SOL     OW 5194   2.191   0.054   5.490  1.2271 -0.1236  0.2510
 1732SOL    HW1 5195   2.268   0.084   5.443 -0.1217 -1.1202 -2.8138
 1732SOL    HW2 5196   2.146   0.134   5.517  1.7411  0.4993 -0.6930
 1733SOL     OW 5197   0.436   1.816   6.444  0.3396 -0.3202  0.1733
 1733SOL    HW1 5198   0.375   1.801   6.517 -0.4416 -0.4248 -0.4943
 1733SOL    HW2 5199   0.394   1.885   6.392  0.8345 -0.3343 -0.2478
 1734SOL     OW 5200   1.526   0.894   7.448  0.3567 -0.3197  0.3348
 1734SOL    HW1 5201   1.449   0.922   7.399  1.5152  0.4541 -1.1177
 1734SOL    HW2 5202   1.527   0.950   7.526 -0.0179  0.3459 -0.1304
 1735SOL     OW 5203   0.611   3.659   6.275  0.1536 -0.1307  0.0847
 1735SOL    HW1 5204   0.531   3.609   6.258 -0.5284  0.4249  1.4110
 1735SOL    HW2 5205   0.604   3.735   6.217  0.0416 -0.4165 -0.2789
 1736SOL     OW 5206   4.062   4.642   5.314  0.3050  0.2103 -0.1665
 1736SOL    HW1 5207   4.036   4.577   5.249  1.2001 -0.5832  0.2480
 1736SOL    HW2 5208   4.148   4.612   5.345 -0.3853  0.1970  1.8528
 1737SOL     OW 5209   4.442   3.411   5.210 -0.0813  0.1367 -0.3514
 1737SOL    HW1 5210   4.490   3.462   5.144 -0.6992 -0.5358 -1.3502
 1737SOL    HW2 5211   4.409   3.335   5.162 -0.6442 -0.3152  0.7229
 1738SOL     OW 5212   3.593   0.985   6.529  0.0823  0.2570  0.6838
 1738SOL    HW1 5213   3.599   1.000   6.434  0.8497  0.3358  0.7387
 1738SOL    HW2 5214   3.524   0.919   6.538  1.2600 -1.1640 -0.1056
 1739SOL     OW 5215   0.967   0.527   8.176  0.0490 -0.6276  0.2974
 1739SOL    HW1 5216   0.960   0.445   8.127  1.3279 -0.2618 -0.5427
 1739SOL    HW2 5217   1.061   0.540   8.188 -0.1295  0.7600  0.3318
 1740SOL     OW 5218   3.263   0.090   9.634 -0.0091 -0.3952 -0.0178
 1740SOL    HW1 5219   3.289   0.164   9.580  1.9072 -2.6208 -2.4187
 1740SOL    HW2 5220   3.335   0.078   9.696 -1.4590  1.1479  2.1116
 1741SOL     OW 5221   1.645   2.508   6.613 -0.5164 -0.1045  0.4292
 1741SOL    HW1 5222   1.633   2.534   6.522 -1.1964 -1.6241  0.0594
 1741SOL    HW2 5223   1.636   2.413   6.613  2.0723 -0.4220  1.7077
 1742SOL     OW 5224   1.498   4.851   7.963 -0.1449 -0.0342  0.4600
 1742SOL    HW1 5225   1.460   4.840   7.875  0.0531 -0.6835  0.4495
 1742SOL    HW2 5226   1.520   4.762   7.990  1.9348  0.3592  0.2167
 1743SOL     OW 5227   4.546   1.960   6.037  0.1256 -0.1194 -0.5268
 1743SOL    HW1 5228   4.604   2.009   6.096 -0.0314 -1.6555  1.0068
 1743SOL    HW2 5229   4.589   1.874   6.029  0.3700  0.1854 -3.0724
 1744SOL     OW 5230   2.099   1.268   9.151 -0.5231 -0.1231 -0.2416
 1744SOL    HW1 5231   2.106   1.182   9.110 -1.0603  0.1156 -0.8641
 1744SOL    HW2 5232   2.023   1.309   9.108 -0.7256  0.3775  0.5583
 1745SOL     OW 5233   3.636   3.211   7.244  0.5161  0.4392  0.1781
 1745SOL    HW1 5234   3.651   3.276   7.313  1.2968  0.5408 -0.0756
 1745SOL    HW2 5235   3.626   3.263   7.165 -2.0593  0.4360  0.4194
 1746SOL     OW 5236   2.251   1.316   7.945  0.5621 -0.1569 -0.1730
 1746SOL    HW1 5237   2.262   1.395   7.892  1.9245  0.8226  1.4432
 1746SOL    HW2 5238   2.214   1.252   7.886  0.2972  1.4227 -1.7987
 1747SOL     OW 5239   3.255   3.724   6.443 -0.0293  0.4699 -0.2696
 1747SOL    HW1 5240   3.195   3.703   6.514  2.8756 -1.4712  1.8472
 1747SOL    HW2 5241   3.295   3.807   6.468 -0.3197  0.7147 -0.6083
 1748SOL     OW 5242   4.444   4.702   6.165  0.0087 -0.4368 -0.1124
 1748SOL    HW1 5243   4.360   4.656   6.173 -1.2230  1.6956  0.0512
 1748SOL    HW2 5244   4.470   4.720   6.255  0.2014 -0.3528 -0.1844
 1749SOL     OW 5245   3.957   1.750   9.511 -0.2450  0.8797  0.2598
 1749SOL    HW1 5246   4.035   1.768   9.458 -1.7534  4.0680 -1.1600
 1749SOL    HW2 5247   3.979   1.782   9.598  0.4924  0.4527  0.2397
 1750SOL     OW 5248   2.361   1.843   9.429 -0.1362 -0.7417 -0.8509
 1750SOL    HW1 5249   2.363   1.751   9.456 -1.4697 -0.6219 -0.2833
 1750SOL    HW2 5250   2.453   1.871   9.436  0.1205 -1.7088  0.0841
 1751SOL     OW 5251   0.643   1.869  10.134 -0.6291  0.1215  0.2247
 1751SOL    HW1 5252   0.623   1.875  10.227 -1.8533 -1.6096  0.1357
 1751SOL    HW2 5253   0.616   1.953  10.098  0.2378  0.9655  1.4653
 1752SOL     OW 5254   0.427   0.778   9.174  0.3209  0.6057 -0.3409
 1752SOL    HW1 5255   0.359   0.714   9.152  1.0748 -0.5140  0.4494
 1752SOL    HW2 5256   0.488   0.729   9.229  1.4405  1.7617 -0.5218
 1753SOL     OW 5257   2.706   1.063   6.875 -0.1160  0.3700  0.4380
 1753SOL    HW1 5258   2.707   1.060   6.970 -1.6271  0.1951  0.4630
 1753SOL    HW2 5259   2.665   1.146   6.853 -2.2648 -0.7441 -0.0121
 1754SOL     OW 5260   3.034   0.847   7.502 -0.7425 -0.2494 -0.0429
 1754SOL    HW1 5261   2.991   0.848   7.588  0.7088  2.5024  0.8060
 1754SOL    HW2 5262   3.114   0.797   7.516 -1.1454 -0.9336 -0.1703
 1755SOL     OW 5263   0.437   0.366   9.380  0.0922  0.0484  0.1258
 1755SOL    HW1 5264   0.433   0.461   9.368 -0.4822  0.1000  0.6372
 1755SOL    HW2 5265   0.529   0.344   9.370  0.0679  0.4826 -1.2738
 1756SOL     OW 5266   1.261   0.681   9.398  0.0309 -0.0630 -0.1959
 1756SOL    HW1 5267   1.318   0.724   9.334 -2.8161  0.5165 -2.5603
 1756SOL    HW2 5268   1.203   0.751   9.428 -0.7649 -1.0352  0.5672
 1757SOL     OW 5269   1.216   1.194   9.301  0.3985  0.0671 -0.0753
 1757SOL    HW1 5270   1.132   1.238   9.314  2.1563  3.6216  0.4763
 1757SOL    HW2 5271   1.228   1.142   9.380 -0.2520  1.5131  1.0267
 1758SOL     OW 5272   2.122   1.149   7.782  0.4544 -0.0489  0.8398
 1758SOL    HW1 5273   2.055   1.082   7.796  1.1377 -0.4758  2.2691
 1758SOL    HW2 5274   2.162   1.127   7.698  2.2909 -2.9632  2.3114
 1759SOL     OW 5275   2.037   4.238   6.097 -0.9577 -0.6140 -0.3959
 1759SOL    HW1 5276   2.020   4.306   6.161 -0.3585  0.2238 -1.1011
 1759SOL    HW2 5277   2.054   4.285   6.015  1.4779 -1.4865 -0.4825
 1760SOL     OW 5278   2.031   0.800   9.189 -0.5233 -0.1328  0.5559
 1760SOL    HW1 5279   1.994   0.885   9.168 -0.7416  0.1134  1.8840
 1760SOL    HW2 5280   1.997   0.779   9.276  1.7657 -0.2767  1.4874
 1761SOL     OW 5281   1.867   2.591   8.223 -0.1034  0.6966 -0.0107
 1761SOL    HW1 5282   1.931   2.617   8.156  0.3507  0.6882  0.4150
 1761SOL    HW2 5283   1.913   2.527   8.276 -0.9771 -0.4550 -0.6063
 1762SOL     OW 5284   3.555   0.637   5.662  0.0973  0.2466 -0.1150
 1762SOL    HW1 5285   3.637   0.639   5.710 -0.8820  0.1095  1.6216
 1762SOL    HW2 5286   3.582   0.636   5.570  2.0395 -0.5786  0.4084
 1763SOL     OW 5287   2.144   1.412   6.618  0.0220 -1.1392 -0.6210
 1763SOL    HW1 5288   2.066   1.468   6.616 -0.2098 -1.2699  1.6496
 1763SOL    HW2 5289   2.145   1.369   6.533 -1.5849 -0.0739 -1.2394
 1764SOL     OW 5290   3.020   1.285   6.854 -0.4790  0.1279 -0.0800
 1764SOL    HW1 5291   3.051   1.242   6.934 -0.4306 -0.5235 -0.4452
 1764SOL    HW2 5292   3.047   1.226   6.783  0.8321  1.4349 -0.7122
 1765SOL     OW 5293   3.694   0.216   7.668 -0.6590 -0.4051 -0.4264
 1765SOL    HW1 5294   3.643   0.252   7.595 -0.5201  0.6411 -0.0158
 1765SOL    HW2 5295   3.760   0.161   7.625  2.0844  3.3145 -1.5125
 1766SOL     OW 5296   4.831   0.998   7.290 -0.1040 -0.6006 -0.3005
 1766SOL    HW1 5297   4.780   0.975   7.212 -1.4031  2.5561 -0.5646
 1766SOL    HW2 5298   4.767   0.996   7.361 -0.3232  1.7148 -0.3409
 1767SOL     OW 5299   1.427   1.772   9.536 -0.1843  0.1258 -0.1864
 1767SOL    HW1 5300   1.337   1.802   9.538 -0.0816  0.4916 -0.7001
 1767SOL    HW2 5301   1.470   1.818   9.608 -0.5790 -0.6465  0.5591
 1768SOL     OW 5302   0.108   2.238   8.432 -0.5883 -0.2535  0.0964
 1768SOL    HW1 5303   0.111   2.162   8.375 -0.2669 -0.2643  0.1264
 1768SOL    HW2 5304   0.058   2.209   8.508  2.5770 -1.6278  1.8394
 1769SOL     OW 5305   3.711   4.405   6.827 -0.3574  0.0471 -0.4851
 1769SOL    HW1 5306   3.698   4.498   6.842  1.3758  0.3286 -0.4782
 1769SOL    HW2 5307   3.749   4.372   6.909 -0.1638 -0.4765 -0.7791
 1770SOL     OW 5308   1.775   0.475   7.497 -0.2568 -0.1111  0.2160
 1770SOL    HW1 5309   1.741   0.388   7.476 -0.0246 -0.7868  2.3919
 1770SOL    HW2 5310   1.801   0.512   7.412 -3.0520 -0.9584 -1.1280
 1771SOL     OW 5311   1.486   1.962   9.724  0.6684  0.7229  0.6056
 1771SOL    HW1 5312   1.526   1.976   9.810  3.1185  0.1299 -0.3780
 1771SOL    HW2 5313   1.548   1.998   9.662  0.2035 -1.1823 -1.0683
 1772SOL     OW 5314   0.466   0.339   6.684  0.0866  0.6197 -0.5962
 1772SOL    HW1 5315   0.400   0.273   6.703 -0.4024  0.8113 -1.5528
 1772SOL    HW2 5316   0.417   0.421   6.677  0.2911  0.6484 -2.0330
 1773SOL     OW 5317   1.946   0.388   7.973  0.2578  0.4818 -0.0489
 1773SOL    HW1 5318   1.928   0.364   7.882 -0.3029  1.9935 -0.3640
 1773SOL    HW2 5319   1.898   0.323   8.024 -0.1162  0.1207 -0.8408
 1774SOL     OW 5320   3.600   1.885   9.340  0.4478  0.3149 -0.1020
 1774SOL    HW1 5321   3.655   1.950   9.384  0.7494  0.3025 -0.4538
 1774SOL    HW2 5322   3.651   1.859   9.264  0.4093 -0.4691  0.1322
 1775SOL     OW 5323   0.111   3.253   7.769 -0.0659 -0.2333 -0.0109
 1775SOL    HW1 5324   0.105   3.203   7.688 -1.2877 -1.3099  0.7080
 1775SOL    HW2 5325   0.021   3.266   7.796  0.2658  1.4892  0.3824
 1776SOL     OW 5326   4.423   0.208   6.533 -0.2005 -0.0426  0.0389
 1776SOL    HW1 5327   4.457   0.119   6.524  1.0321  0.3484  0.6375
 1776SOL    HW2 5328   4.439   0.249   6.447 -0.8555 -0.4118 -0.2666
 1777SOL     OW 5329   3.622   4.463   6.186  0.5364 -0.4464  0.5420
 1777SOL    HW1 5330   3.545   4.412   6.159  1.5019 -1.6162 -0.1205
 1777SOL    HW2 5331   3.675   4.401   6.236  1.2966  0.1879  0.5349
 1778SOL     OW 5332   3.626   1.863   7.628 -0.2894  0.2999 -0.1747
 1778SOL    HW1 5333   3.677   1.816   7.563 -0.2566  2.3875 -1.7455
 1778SOL    HW2 5334   3.548   1.893   7.582 -0.6049  1.2382  0.9012
 1779SOL     OW 5335   2.047   4.881   7.404 -0.4487  0.2950  0.1685
 1779SOL    HW1 5336   1.985   4.950   7.427 -1.2796 -1.1682  2.7162
 1779SOL    HW2 5337   2.104   4.873   7.480  2.1519  0.7064 -1.5953
 1780SOL     OW 5338   2.278   1.139   7.565  0.5403 -0.0525  0.0012
 1780SOL    HW1 5339   2.296   1.105   7.477  0.6098 -1.0430  0.3824
 1780SOL    HW2 5340   2.305   1.231   7.561  2.0611 -0.4909 -0.5661
 1781SOL     OW 5341   4.169   3.693   6.710  0.3206  0.1720 -0.2833
 1781SOL    HW1 5342   4.110   3.624   6.740  1.5611 -1.1928 -0.8332
 1781SOL    HW2 5343   4.151   3.768   6.766 -0.2524 -0.9925  1.1236
 1782SOL     OW 5344   2.819   4.979   7.566  0.1151 -0.1975  0.4125
 1782SOL    HW1 5345   2.775   4.980   7.651 -0.1715 -0.6918  0.2733
 1782SOL    HW2 5346   2.906   4.944   7.584  1.1498  2.3765  0.9972
 1783SOL     OW 5347   3.425   0.721   6.588 -0.1493 -0.5805 -0.6428
 1783SOL    HW1 5348   3.457   0.659   6.654 -0.1536 -0.0784 -0.1562
 1783SOL    HW2 5349   3.417   0.669   6.508 -1.0597 -1.4286 -0.0160
 1784SOL     OW 5350   1.394   1.318   8.605  0.2948 -0.1462  0.2595
 1784SOL    HW1 5351   1.371   1.227   8.623  0.9266 -0.6126 -1.1996
 1784SOL    HW2 5352   1.345   1.340   8.526  1.8154  0.0572 -0.6699
 1785SOL     OW 5353   3.452   2.296   8.027  0.2592  0.4591  0.2165
 1785SOL    HW1 5354   3.377   2.264   7.978 -1.4493 -0.8306  3.3802
 1785SOL    HW2 5355   3.461   2.235   8.100  3.5953  1.3381  0.7410
 1786SOL     OW 5356   2.539   4.751   6.735  0.7352  0.0765  0.0255
 1786SOL    HW1 5357   2.496   4.702   6.805 -0.1109 -0.0975 -0.6090
 1786SOL    HW2 5358   2.633   4.732   6.747  0.5591 -0.3736  0.7789
 1787SOL     OW 5359   2.250   4.250   5.879 -0.4084  0.1348 -0.4630
 1787SOL    HW1 5360   2.311   4.309   5.923 -1.3849  0.0499  1.0972
 1787SOL    HW2 5361   2.299   4.170   5.863  0.7611  1.1128 -2.0670
 1788SOL     OW 5362   4.025   0.381   7.033 -0.0144 -0.2797 -0.2541
 1788SOL    HW1 5363   4.012   0.465   7.077  2.0133 -1.3772  2.7760
 1788SOL    HW2 5364   4.086   0.400   6.962  0.5387  0.7959  0.4850
 1789SOL     OW 5365   1.601   1.129   6.853 -0.8828 -0.4716 -0.1339
 1789SOL    HW1 5366   1.637   1.184   6.922  2.3903 -1.4565 -0.8651
 1789SOL    HW2 5367   1.580   1.190   6.782 -1.9938  0.2808  0.8042
 1790SOL     OW 5368   2.878   1.873   5.819 -0.5298 -0.1646 -0.1397
 1790SOL    HW1 5369   2.822   1.915   5.884  0.9501 -0.1231  1.1753
 1790SOL    HW2 5370   2.967   1.887   5.852  0.5446  2.1642 -3.5040
 1791SOL     OW 5371   1.558   0.598   8.175 -0.2231  0.0559 -0.8584
 1791SOL    HW1 5372   1.484   0.660   8.175  0.7111  1.2229 -0.3929
 1791SOL    HW2 5373   1.607   0.620   8.096 -0.0707 -0.3349 -0.8723
 1792SOL     OW 5374   1.153   2.112   7.707 -0.1548  0.2709 -0.1112
 1792SOL    HW1 5375   1.211   2.147   7.775  0.6015  0.9436 -1.0692
 1792SOL    HW2 5376   1.178   2.159   7.627  0.1969 -1.7014 -1.2546
 1793SOL     OW 5377   1.758   1.915   8.538 -0.2441  0.0521  0.5218
 1793SOL    HW1 5378   1.743   1.823   8.514 -0.1143  0.3815 -0.9105
 1793SOL    HW2 5379   1.829   1.943   8.481 -1.8329  1.7025 -0.7658
 1794SOL     OW 5380   1.579   3.061   8.618 -0.0013  0.1101 -1.5766
 1794SOL    HW1 5381   1.607   2.970   8.626 -0.8716  0.0504  2.0850
 1794SOL    HW2 5382   1.484   3.058   8.619 -0.0463  1.0578 -1.6612
 1795SOL     OW 5383   2.700   0.479   9.661  0.0015  0.1735 -0.2118
 1795SOL    HW1 5384   2.740   0.426   9.592 -2.0591 -0.9821 -0.5980
 1795SOL    HW2 5385   2.624   0.428   9.689 -0.5052  1.6933  1.3355
 1796SOL     OW 5386   1.272   0.263   9.638 -0.7161 -0.1161  0.2117
 1796SOL    HW1 5387   1.331   0.295   9.570 -2.0313 -1.2118 -1.5225
 1796SOL    HW2 5388   1.232   0.343   9.673  0.9099  0.5511  0.6272
 1797SOL     OW 5389   3.402   1.297   8.400  0.0471  0.1718 -0.0349
 1797SOL    HW1 5390   3.350   1.249   8.465 -1.6884  0.0832 -1.4206
 1797SOL    HW2 5391   3.484   1.247   8.394 -1.3452 -2.1634 -0.7695
 1798SOL     OW 5392   0.007   4.852   9.826  0.1030 -0.0316 -0.1482
 1798SOL    HW1 5393  -0.039   4.914   9.769 -1.2490 -1.1366 -0.3081
 1798SOL    HW2 5394   0.065   4.906   9.879  0.8479  1.1139 -2.0337
 1799SOL     OW 5395   4.561   4.388   7.917  0.8998  0.4035  0.3075
 1799SOL    HW1 5396   4.592   4.359   8.003  0.4537 -2.4746 -0.3826
 1799SOL    HW2 5397   4.637   4.378   7.860  1.0143  1.6938  0.1974
 1800SOL     OW 5398   2.924   0.724   6.328 -0.1452  0.1533  0.3859
 1800SOL    HW1 5399   2.858   0.705   6.261 -0.5040 -1.0976  1.0518
 1800SOL    HW2 5400   2.937   0.819   6.325 -2.1391  0.4526  0.3864
 1801SOL     OW 5401   4.020   3.476   6.781 -0.3411 -0.3827 -0.3250
 1801SOL    HW1 5402   4.059   3.424   6.851  0.0661  0.0256 -0.2456
 1801SOL    HW2 5403   4.043   3.429   6.701 -1.0802 -1.0281 -0.1802
 1802SOL     OW 5404   1.997   2.511   7.161  0.5796 -0.3390 -0.2610
 1802SOL    HW1 5405   1.924   2.495   7.221 -0.0248 -0.4779 -1.0140
 1802SOL    HW2 5406   2.034   2.594   7.190 -0.1107 -0.0839 -0.0883
 1803SOL     OW 5407   2.467   1.626   6.924 -0.3255  0.2689 -0.3302
 1803SOL    HW1 5408   2.441   1.592   6.839  0.6021 -0.3253 -0.3866
 1803SOL    HW2 5409   2.388   1.619   6.978  0.1593 -3.4394  0.1172
 1804SOL     OW 5410   2.105   2.762   8.934  0.4238 -0.3929  0.8339
 1804SOL    HW1 5411   2.191   2.720   8.933 -0.1861 -1.7339  1.1214
 1804SOL    HW2 5412   2.067   2.735   9.018 -0.1076  0.5530  0.9134
 1805SOL     OW 5413   1.022   3.904   9.241 -0.8829 -0.5022 -0.1468
 1805SOL    HW1 5414   0.958   3.857   9.295  0.9938 -0.3308  2.4118
 1805SOL    HW2 5415   1.051   3.976   9.297  3.2720 -1.9571 -0.1308
 1806SOL     OW 5416   1.618   1.994   9.956 -0.4894  0.3022  0.1287
 1806SOL    HW1 5417   1.593   1.990  10.048 -0.9236  0.6491  0.0292
 1806SOL    HW2 5418   1.685   1.927   9.947 -2.5014 -1.8152  0.0333
 1807SOL     OW 5419   2.863   0.314   9.455 -0.3531 -0.1594  0.4034
 1807SOL    HW1 5420   2.902   0.379   9.397  0.3271 -0.4517  0.5234
 1807SOL    HW2 5421   2.938   0.266   9.491 -0.8559 -1.3428 -0.0769
 1808SOL     OW 5422   2.308   0.310   7.123 -0.2786  0.5940 -0.4437
 1808SOL    HW1 5423   2.239   0.341   7.065 -2.6895  0.3605  2.1184
 1808SOL    HW2 5424   2.294   0.357   7.206  1.1698 -1.1873  0.9019
 1809SOL     OW 5425   1.338   1.127   8.830  0.2153 -0.2806  0.2065
 1809SOL    HW1 5426   1.360   1.215   8.861 -0.5222  0.0439 -0.1840
 1809SOL    HW2 5427   1.418   1.076   8.846  0.4159  0.2809  1.0874
 1810SOL     OW 5428   0.607   0.791   7.152 -0.5060 -0.1309 -0.7144
 1810SOL    HW1 5429   0.534   0.846   7.182 -0.5901  0.8491 -2.5874
 1810SOL    HW2 5430   0.685   0.836   7.185 -0.6647 -0.2636 -0.1385
 1811SOL     OW 5431   3.457   3.394   6.771  0.1868 -0.5257 -0.0254
 1811SOL    HW1 5432   3.425   3.379   6.683  1.9419  0.4186 -0.8773
 1811SOL    HW2 5433   3.407   3.469   6.803 -0.2773 -0.7093 -0.3179
 1812SOL     OW 5434   1.156   0.763   7.149 -0.2133  0.0119  0.0422
 1812SOL    HW1 5435   1.211   0.740   7.224  1.0946  0.2264 -0.8124
 1812SOL    HW2 5436   1.096   0.688   7.140  2.1957 -1.9609 -1.0365
 1813SOL     OW 5437   3.517   0.247   7.897  0.3938  0.3220  0.0072
 1813SOL    HW1 5438   3.528   0.341   7.909  4.5400  0.0168 -0.0198
 1813SOL    HW2 5439   3.567   0.226   7.818  1.0022 -2.0818  0.9296
 1814SOL     OW 5440   1.332   3.954   8.590  0.8760 -0.6869  1.1556
 1814SOL    HW1 5441   1.425   3.977   8.595  0.5802  1.1955 -0.6652
 1814SOL    HW2 5442   1.287   4.037   8.601 -0.4653 -1.0701 -0.9770
 1815SOL     OW 5443   0.761   4.884   7.787  0.0867 -0.1218 -0.2589
 1815SOL    HW1 5444   0.838   4.827   7.788 -1.0670 -1.7545 -0.7102
 1815SOL    HW2 5445   0.794   4.968   7.754  1.8436 -0.4828  0.4779
 1816SOL     OW 5446   2.106   0.628   7.447 -0.6906 -0.4402 -0.2260
 1816SOL    HW1 5447   2.061   0.629   7.532  0.3779  1.8394  0.3854
 1816SOL    HW2 5448   2.044   0.668   7.386 -0.7214 -0.2727 -0.0854
 1817SOL     OW 5449   2.503   2.228   7.214 -0.2115 -0.0549  0.3986
 1817SOL    HW1 5450   2.421   2.273   7.194  0.5734  0.6142 -1.5905
 1817SOL    HW2 5451   2.561   2.296   7.248  0.5207  0.2226 -1.2815
 1818SOL     OW 5452   4.645   4.150   6.063 -0.0717  0.2853 -0.2637
 1818SOL    HW1 5453   4.696   4.211   6.118 -0.2209 -0.8997  1.2463
 1818SOL    HW2 5454   4.704   4.128   5.991  1.8218 -1.4036  1.6756
 1819SOL     OW 5455   4.421   1.959   8.641  0.1316 -0.4609 -0.0200
 1819SOL    HW1 5456   4.408   2.034   8.699 -0.2089 -1.5003  1.2956
 1819SOL    HW2 5457   4.430   1.997   8.554  0.3871  1.1276  0.6757
 1820SOL     OW 5458   2.435   1.250   7.168  0.3451  0.3331 -0.1358
 1820SOL    HW1 5459   2.471   1.243   7.257 -0.6375 -0.7005  0.2157
 1820SOL    HW2 5460   2.496   1.200   7.114  1.8451  2.3186 -0.3668
 1821SOL     OW 5461   3.159   3.842   7.911  0.4091 -0.1968 -0.1716
 1821SOL    HW1 5462   3.200   3.915   7.865  0.2713 -0.3613 -0.5689
 1821SOL    HW2 5463   3.208   3.832   7.992 -0.3086  1.0911  0.4446
 1822SOL     OW 5464   3.232   4.991   7.784  0.2175 -0.1887 -0.0315
 1822SOL    HW1 5465   3.223   5.059   7.851 -0.7086 -0.2801 -0.0440
 1822SOL    HW2 5466   3.258   4.913   7.832 -0.3973 -0.2406  0.2325
 1823SOL     OW 5467   3.935   0.382   6.545  0.1589 -0.5765 -0.1289
 1823SOL    HW1 5468   3.862   0.326   6.571 -0.2003 -0.1627 -0.2412
 1823SOL    HW2 5469   3.917   0.467   6.586  0.3368 -0.3376 -0.5365
 1824SOL     OW 5470   0.161  -0.026   8.943 -0.0283  0.3749 -0.1389
 1824SOL    HW1 5471   0.137   0.034   8.872  0.6834 -0.5523 -1.1910
 1824SOL    HW2 5472   0.245   0.007   8.975  0.2707  0.0550 -0.5892
 1825SOL     OW 5473   1.573   4.302   8.156  0.1640 -0.4538  0.0823
 1825SOL    HW1 5474   1.657   4.300   8.110  0.1239 -1.0673  0.0190
 1825SOL    HW2 5475   1.596   4.314   8.249  0.3646 -1.2929  0.1473
 1826SOL     OW 5476   2.355   3.216   8.288 -0.5558  0.3983 -0.4287
 1826SOL    HW1 5477   2.337   3.128   8.321 -1.9500  0.9238  0.2448
 1826SOL    HW2 5478   2.436   3.206   8.237 -0.2475 -1.0987  0.3134
 1827SOL     OW 5479   4.534   0.773   5.562 -0.5517 -0.2102  0.2057
 1827SOL    HW1 5480   4.619   0.738   5.587  0.0504  0.6553 -0.5894
 1827SOL    HW2 5481   4.508   0.721   5.485  1.4507  2.4800 -2.5145
 1828SOL     OW 5482   2.015   4.946   7.923 -0.4459 -0.5516 -0.6024
 1828SOL    HW1 5483   1.977   5.032   7.945  2.6502  0.7342  0.2508
 1828SOL    HW2 5484   2.035   4.907   8.008  1.0027 -0.7018 -0.9890
 1829SOL     OW 5485   4.269   1.842   5.444 -0.2541 -0.0647 -0.5045
 1829SOL    HW1 5486   4.339   1.883   5.494  0.1242  0.5163 -1.4960
 1829SOL    HW2 5487   4.197   1.905   5.446 -0.7880 -0.6666  0.5270
 1830SOL     OW 5488   3.955   1.121   8.415 -0.2107  0.0007  0.3875
 1830SOL    HW1 5489   4.023   1.188   8.407 -0.8004  0.3608 -2.6847
 1830SOL    HW2 5490   3.879   1.168   8.449  0.1697  0.2572  0.9058
 1831SOL     OW 5491   3.267   3.110   8.652  0.2048  0.0109 -0.0016
 1831SOL    HW1 5492   3.271   3.114   8.748  0.8405  0.1934 -0.0311
 1831SOL    HW2 5493   3.185   3.063   8.633 -1.6777  2.7818  0.5983
 1832SOL     OW 5494   1.443   0.268   6.191  0.0231 -0.1229 -0.0365
 1832SOL    HW1 5495   1.414   0.177   6.192 -0.9934  0.1814 -0.5176
 1832SOL    HW2 5496   1.525   0.267   6.241  0.8229 -1.5567 -1.2830
 1833SOL     OW 5497   1.479   0.151   6.960  0.1445  0.1365 -0.2837
 1833SOL    HW1 5498   1.414   0.082   6.944  1.7476 -1.4696 -0.1236
 1833SOL    HW2 5499   1.431   0.218   7.009 -1.0083 -1.7634  1.3384
 1834SOL     OW 5500   3.068   1.135   9.568  0.3578  0.1304  0.0346
 1834SOL    HW1 5501   3.019   1.216   9.556  1.9867  1.2462  0.6563
 1834SOL    HW2 5502   3.072   1.123   9.663  1.7095  0.3456  0.0228
 1835SOL     OW 5503   4.493   2.029   6.621 -0.7242  0.3374 -0.2608
 1835SOL    HW1 5504   4.524   1.956   6.568 -0.0855 -0.1196  0.7237
 1835SOL    HW2 5505   4.573   2.070   6.654 -1.0922 -0.4199  1.7235
 1836SOL     OW 5506   0.070   2.019   8.292  0.0510 -0.0775 -0.5726
 1836SOL    HW1 5507   0.073   1.924   8.276 -1.8188  0.0147 -1.7033
 1836SOL    HW2 5508  -0.010   2.048   8.250 -0.2201  1.7953  1.1006
 1837SOL     OW 5509   4.210   4.281   6.500 -0.0847  0.1708  0.6411
 1837SOL    HW1 5510   4.263   4.203   6.515  0.2804  0.2575 -0.1264
 1837SOL    HW2 5511   4.121   4.255   6.521  0.1208 -0.2801  0.9593
 1838SOL     OW 5512   4.182   0.866   9.391 -0.6303 -0.4447  0.2547
 1838SOL    HW1 5513   4.262   0.834   9.349 -1.2673  0.1910 -1.5147
 1838SOL    HW2 5514   4.111   0.832   9.337 -1.6626 -1.8628  2.3811
 1839SOL     OW 5515   2.420   2.943   8.365 -0.4425 -0.5336  0.0735
 1839SOL    HW1 5516   2.337   2.926   8.410 -1.4606 -2.7273 -2.3191
 1839SOL    HW2 5517   2.477   2.871   8.391  0.1483  0.0564  0.4300
 1840SOL     OW 5518   0.323   0.629   6.971  0.2749 -0.3805 -0.2936
 1840SOL    HW1 5519   0.410   0.617   7.007  0.5563  0.1097 -0.7939
 1840SOL    HW2 5520   0.300   0.720   6.992 -0.5421 -0.8035  0.7295
 1841SOL     OW 5521   3.973   4.499   5.875 -0.1679 -0.2069  0.1530
 1841SOL    HW1 5522   4.060   4.461   5.865 -0.4033 -0.4710 -1.1009
 1841SOL    HW2 5523   3.988   4.582   5.921  0.4938 -1.1793  1.7428
 1842SOL     OW 5524   0.673   4.697   7.029 -0.3312  0.3098  0.5219
 1842SOL    HW1 5525   0.715   4.739   7.104  0.2674  0.4065  0.1447
 1842SOL    HW2 5526   0.745   4.680   6.968 -0.7257 -0.2953  0.2165
 1843SOL     OW 5527   0.445   4.200   6.863  0.5178 -0.4456  0.0542
 1843SOL    HW1 5528   0.500   4.271   6.898  1.1250 -0.9152  0.0626
 1843SOL    HW2 5529   0.401   4.239   6.788  1.2822 -0.2214 -0.2803
 1844SOL     OW 5530   1.803   4.576   9.038  0.3155  0.0045 -0.1841
 1844SOL    HW1 5531   1.823   4.585   9.132 -5.1108 -1.8513  1.5140
 1844SOL    HW2 5532   1.848   4.495   9.012 -1.3156 -1.8093  2.1685
 1845SOL     OW 5533   4.212   4.366   5.849  0.2887  0.2927 -0.0135
 1845SOL    HW1 5534   4.284   4.310   5.878  1.2065  1.3746 -0.1364
 1845SOL    HW2 5535   4.134   4.310   5.856  0.9620 -0.5461  1.2410
 1846SOL     OW 5536   3.882   2.797   9.782 -0.0116  0.0145 -0.1920
 1846SOL    HW1 5537   3.942   2.758   9.718 -1.4676 -0.1145 -1.5336
 1846SOL    HW2 5538   3.815   2.840   9.729 -1.4625 -0.3966  1.2498
 1847SOL     OW 5539   1.851   1.009   7.725 -0.0694 -0.1587 -0.5843
 1847SOL    HW1 5540   1.765   1.033   7.690  0.3629  0.1114 -1.4915
 1847SOL    HW2 5541   1.906   0.997   7.647  0.8120  0.0499 -0.0055
 1848SOL     OW 5542   1.565   1.123   6.118  0.0966  0.2292  0.0598
 1848SOL    HW1 5543   1.477   1.124   6.082  1.6270  3.1676 -4.4119
 1848SOL    HW2 5544   1.575   1.207   6.163  0.2294 -0.7745  2.0282
 1849SOL     OW 5545   1.892   2.168   7.144 -0.3894  0.2333 -0.1000
 1849SOL    HW1 5546   1.978   2.209   7.151  0.0485 -0.3120 -1.7357
 1849SOL    HW2 5547   1.909   2.084   7.101 -1.4117 -1.1824  2.1090
 1850SOL     OW 5548   3.132   1.866   7.300 -0.4412 -0.0225 -0.4445
 1850SOL    HW1 5549   3.125   1.819   7.383  1.0935  0.2443 -0.1411
 1850SOL    HW2 5550   3.046   1.909   7.290 -1.6832 -2.3580 -0.4648
 1851SOL     OW 5551   2.323   4.396   9.842 -0.0390  0.0775 -0.8409
 1851SOL    HW1 5552   2.342   4.453   9.917 -0.1737 -0.1406 -0.6420
 1851SOL    HW2 5553   2.405   4.349   9.826 -0.1275 -0.1569 -0.5914
 1852SOL     OW 5554   3.597   0.630   9.937 -0.4048  0.2369  0.2451
 1852SOL    HW1 5555   3.510   0.611   9.972 -0.0964  0.0624  0.9313
 1852SOL    HW2 5556   3.587   0.620   9.842 -0.6217 -1.9718  0.4402
 1853SOL     OW 5557   1.224   1.161   8.432 -0.0045  0.3920 -0.4772
 1853SOL    HW1 5558   1.232   1.146   8.338  0.1775 -1.3273 -0.2139
 1853SOL    HW2 5559   1.268   1.087   8.472  1.1462  1.7969  1.0058
 1854SOL     OW 5560   1.517   0.251   8.541 -0.4455  0.6205 -0.2533
 1854SOL    HW1 5561   1.533   0.253   8.447  2.7517 -0.5828  0.1550
 1854SOL    HW2 5562   1.455   0.179   8.554  0.1861 -0.1396 -1.3367
 1855SOL     OW 5563   2.459   1.888   5.740 -0.3150 -0.6339  0.2890
 1855SOL    HW1 5564   2.434   1.857   5.653  0.4715 -0.1776 -0.1095
 1855SOL    HW2 5565   2.484   1.979   5.727 -1.6890 -0.0853  1.2805
 1856SOL     OW 5566   3.655   4.060   8.115 -0.2746 -1.0812 -0.5589
 1856SOL    HW1 5567   3.642   4.148   8.150  1.9300 -0.5728 -0.8604
 1856SOL    HW2 5568   3.569   4.019   8.120 -1.2100  0.8567  0.2153
 1857SOL     OW 5569   0.766   3.948   8.949 -0.0103 -0.4210 -0.5721
 1857SOL    HW1 5570   0.751   4.041   8.934  1.3114 -0.3346 -1.5703
 1857SOL    HW2 5571   0.753   3.936   9.043 -1.3764  0.5189 -0.6098
 1858SOL     OW 5572   2.257   4.054   6.142 -0.9563 -0.0687 -0.3552
 1858SOL    HW1 5573   2.180   4.103   6.112 -0.2011  2.6714  1.7012
 1858SOL    HW2 5574   2.232   4.020   6.228  0.0304  0.7660  0.2937
 1859SOL     OW 5575   2.853   0.942   8.602 -0.2259  0.1096  0.3196
 1859SOL    HW1 5576   2.837   1.000   8.528 -1.4612  0.3797  0.7883
 1859SOL    HW2 5577   2.790   0.968   8.668  1.5158  0.5563  1.8977
 1860SOL     OW 5578   1.824   4.352   8.050  0.2883 -0.0898  0.6573
 1860SOL    HW1 5579   1.790   4.393   7.971  0.4663 -1.4895 -0.1826
 1860SOL    HW2 5580   1.913   4.387   8.058  0.1316  0.3638  0.4851
 1861SOL     OW 5581   2.727   2.806   5.746 -0.4669 -0.2174 -0.3684
 1861SOL    HW1 5582   2.793   2.803   5.814  1.6640 -1.5144 -2.3721
 1861SOL    HW2 5583   2.652   2.851   5.787  0.7824 -0.7068  2.6627
 1862SOL     OW 5584   4.684   4.434   6.951  0.0901  0.1551  0.3015
 1862SOL    HW1 5585   4.728   4.511   6.988  1.8254  0.0787 -1.4271
 1862SOL    HW2 5586   4.750   4.364   6.957  0.3612  0.0709 -2.5338
 1863SOL     OW 5587   1.956   1.466   6.156  0.4240 -0.5993 -0.7059
 1863SOL    HW1 5588   1.954   1.505   6.069  2.3200  0.1659 -0.4500
 1863SOL    HW2 5589   1.910   1.528   6.212  1.8702  0.4456 -0.6304
 1864SOL     OW 5590   2.630   2.116   8.591 -0.0959 -0.1482 -0.1482
 1864SOL    HW1 5591   2.553   2.058   8.589 -0.4377  0.3267 -1.0095
 1864SOL    HW2 5592   2.665   2.104   8.679 -0.8268 -0.8034  0.0757
 1865SOL     OW 5593   3.167   1.593   8.662  0.5737 -0.0865  0.4198
 1865SOL    HW1 5594   3.168   1.653   8.736  0.8943 -0.8254  1.0178
 1865SOL    HW2 5595   3.165   1.651   8.585 -0.6586  0.6806  0.9960
 1866SOL     OW 5596   0.035   3.565   6.022 -0.0422  0.0061 -0.4128
 1866SOL    HW1 5597   0.042   3.475   6.054 -0.5219  0.5132  1.2365
 1866SOL    HW2 5598   0.062   3.619   6.096  0.1074  1.2320 -1.3277
 1867SOL     OW 5599   0.565   4.322   6.390  0.1140 -0.5876 -0.5060
 1867SOL    HW1 5600   0.549   4.234   6.422  1.9112 -0.9741 -0.5830
 1867SOL    HW2 5601   0.574   4.313   6.295  1.3144 -0.5071 -0.4130
 1868SOL     OW 5602   2.439   1.521   8.088  0.7315 -0.0331 -0.5962
 1868SOL    HW1 5603   2.384   1.594   8.060  0.8230  0.4453  0.4119
 1868SOL    HW2 5604   2.403   1.444   8.044 -0.4798  0.3435 -0.2874
 1869SOL     OW 5605   0.900   4.454   9.487 -0.2653  0.0566  0.1152
 1869SOL    HW1 5606   0.859   4.372   9.461  1.6289 -0.3321 -1.9058
 1869SOL    HW2 5607   0.991   4.431   9.505  0.0437  1.5465  0.6049
 1870SOL     OW 5608   2.367   0.213   7.492 -0.1187  0.1129  0.0288
 1870SOL    HW1 5609   2.292   0.222   7.552  1.0081  0.7348  1.4079
 1870SOL    HW2 5610   2.376   0.300   7.452  0.6032  0.3998  0.7958
 1871SOL     OW 5611   1.985   4.067   9.276  0.4672  0.2579 -0.1664
 1871SOL    HW1 5612   1.984   4.163   9.276  0.1610  0.2563  0.5089
 1871SOL    HW2 5613   2.057   4.043   9.334  1.6442  0.0679 -1.6297
 1872SOL     OW 5614   2.981   0.925  10.110  0.4241  0.3801  0.4625
 1872SOL    HW1 5615   2.887   0.911  10.101  0.3075  1.5780 -0.3821
 1872SOL    HW2 5616   3.003   0.890  10.196 -0.9639  0.8891  1.0417
 1873SOL     OW 5617   0.552   4.998   7.385 -0.0208 -0.1150 -0.2069
 1873SOL    HW1 5618   0.498   5.059   7.435 -0.8271 -1.4623  0.6378
 1873SOL    HW2 5619   0.576   4.930   7.447 -0.7131 -1.6341 -1.5267
 1874SOL     OW 5620   1.374   1.357   6.864  0.8566  0.2949 -0.1909
 1874SOL    HW1 5621   1.374   1.331   6.957  1.9248  1.3264  0.1236
 1874SOL    HW2 5622   1.453   1.410   6.854  0.7039  0.2851 -1.6832
 1875SOL     OW 5623   1.885   3.248   9.399 -0.0301 -0.4000 -0.4094
 1875SOL    HW1 5624   1.860   3.340   9.407 -0.9397 -0.6301 -0.4619
 1875SOL    HW2 5625   1.869   3.211   9.486 -2.1877 -1.0736 -1.0148
 1876SOL     OW 5626   4.107   4.527   6.530  0.1934 -0.1428  0.3793
 1876SOL    HW1 5627   4.077   4.513   6.620  1.2072 -0.2722  0.7131
 1876SOL    HW2 5628   4.149   4.445   6.506  1.2070  0.3699  0.3208
 1877SOL     OW 5629   3.265   4.645   9.317 -0.2652  0.2423 -0.7901
 1877SOL    HW1 5630   3.273   4.604   9.231  2.5577  0.5426 -0.7785
 1877SOL    HW2 5631   3.235   4.574   9.374 -3.7036  0.4083 -2.1746
 1878SOL     OW 5632   2.426   0.912   8.828 -0.2614 -0.0651  0.1257
 1878SOL    HW1 5633   2.405   0.989   8.775 -0.0735 -0.1595 -0.0836
 1878SOL    HW2 5634   2.486   0.861   8.774 -0.6932 -0.5529  0.1064
 1879SOL     OW 5635   3.398   2.992   7.952  0.4556 -0.2124 -0.2945
 1879SOL    HW1 5636   3.303   3.000   7.959  0.2560 -2.3226 -0.1594
 1879SOL    HW2 5637   3.414   2.980   7.858  0.6147  0.2702 -0.3327
 1880SOL     OW 5638   4.310   1.036   8.290  0.5500 -0.0491 -0.1741
 1880SOL    HW1 5639   4.225   0.992   8.281  0.1926  0.7318 -0.8144
 1880SOL    HW2 5640   4.353   0.991   8.362 -0.3680 -0.5357  0.0911
 1881SOL     OW 5641   4.631   4.904   5.436  0.3890  0.2699  0.0589
 1881SOL    HW1 5642   4.600   4.921   5.347 -0.2450  0.9740  0.4023
 1881SOL    HW2 5643   4.559   4.856   5.478  0.6073  0.1070  0.2527
 1882SOL     OW 5644   1.774   0.945   8.253 -0.1204 -0.3599 -0.0589
 1882SOL    HW1 5645   1.811   0.901   8.329 -1.2928 -0.7356  0.3136
 1882SOL    HW2 5646   1.783   1.038   8.271  0.2447 -0.4482  0.2143
 1883SOL     OW 5647   2.560   4.676   7.625  0.5988 -0.2855 -0.1118
 1883SOL    HW1 5648   2.551   4.765   7.658  1.3372 -0.3571  0.3210
 1883SOL    HW2 5649   2.533   4.620   7.698  0.7720 -0.4219 -0.1498
 1884SOL     OW 5650   0.436   0.157   8.459  0.2387  0.0700 -0.5756
 1884SOL    HW1 5651   0.404   0.180   8.371  1.4187  1.3729 -0.7000
 1884SOL    HW2 5652   0.368   0.100   8.494 -1.0993  0.8829 -1.6866
 1885SOL     OW 5653   1.233   4.282   7.535  0.2248 -0.3095  0.5890
 1885SOL    HW1 5654   1.263   4.352   7.476  1.3097  0.6079  2.1605
 1885SOL    HW2 5655   1.275   4.301   7.619 -0.9873 -1.7783  1.5922
 1886SOL     OW 5656   4.543   3.799   5.804  0.1489 -0.2386  0.1297
 1886SOL    HW1 5657   4.595   3.721   5.825 -1.1047 -0.9593  0.6915
 1886SOL    HW2 5658   4.483   3.769   5.736  1.3942  0.9772 -1.6013
 1887SOL     OW 5659   3.443   2.786   6.481  0.5752  0.3213 -0.3822
 1887SOL    HW1 5660   3.396   2.814   6.560 -0.1816  0.0401 -0.7275
 1887SOL    HW2 5661   3.414   2.696   6.467  0.4426  0.4847 -1.1751
 1888SOL     OW 5662   2.380   4.976   7.328  0.1365  0.0837  1.0140
 1888SOL    HW1 5663   2.381   5.058   7.378 -2.0247  0.8470 -0.0676
 1888SOL    HW2 5664   2.461   4.932   7.353  0.4375  1.6567  3.0870
 1889SOL     OW 5665   3.952   1.321   8.951  0.2122  0.0569 -0.5381
 1889SOL    HW1 5666   3.921   1.353   8.867  1.2460  1.8313 -0.2836
 1889SOL    HW2 5667   4.019   1.256   8.928 -0.0577 -0.0485 -1.0589
 1890SOL     OW 5668   1.661   4.295   9.115 -0.3035  0.4719  0.0970
 1890SOL    HW1 5669   1.595   4.229   9.095  0.1469 -1.2517  3.5538
 1890SOL    HW2 5670   1.611   4.376   9.124 -1.4206 -0.0947 -0.7182
 1891SOL     OW 5671   2.424   3.581   8.303 -0.5801  0.0172 -0.8363
 1891SOL    HW1 5672   2.483   3.539   8.367  1.0269 -1.4279 -3.1020
 1891SOL    HW2 5673   2.448   3.673   8.305 -0.6352  0.0300  0.6635
 1892SOL     OW 5674   3.032   2.182   9.873 -0.0070  0.2574  0.5988
 1892SOL    HW1 5675   3.116   2.191   9.917 -0.0842 -2.1820  1.3955
 1892SOL    HW2 5676   3.003   2.272   9.858  2.0121  1.1498  1.6785
 1893SOL     OW 5677   3.405   3.880   6.031  0.0151  0.3651 -0.0507
 1893SOL    HW1 5678   3.332   3.927   6.070  0.4674  0.0180  1.2469
 1893SOL    HW2 5679   3.482   3.932   6.053  0.4694 -0.7253  1.0505
 1894SOL     OW 5680   2.392   4.894   6.352  0.2164 -0.7061  0.1657
 1894SOL    HW1 5681   2.471   4.876   6.302  0.0425 -1.6985  0.2327
 1894SOL    HW2 5682   2.423   4.908   6.442  0.5221  1.0264 -0.1693
 1895SOL     OW 5683   2.001   1.866   8.427 -0.0462 -0.4626 -0.5370
 1895SOL    HW1 5684   1.998   1.785   8.478 -3.6542 -0.3483 -0.3300
 1895SOL    HW2 5685   1.992   1.837   8.336  2.7229 -0.4233 -0.9196
 1896SOL     OW 5686   2.875   1.452   6.367  0.2759 -0.4376 -0.0602
 1896SOL    HW1 5687   2.968   1.447   6.389  0.2479  0.2597  0.2611
 1896SOL    HW2 5688   2.867   1.408   6.282  1.5088  2.3777 -1.7885
 1897SOL     OW 5689   1.841   3.282   9.692  0.0262 -0.6819  0.1363
 1897SOL    HW1 5690   1.872   3.366   9.656 -0.2622 -0.8628 -0.5602
 1897SOL    HW2 5691   1.921   3.237   9.718  0.3181 -0.8149 -0.9122
 1898SOL     OW 5692   1.796   0.171   6.611  0.1259 -0.3417  0.2027
 1898SOL    HW1 5693   1.827   0.081   6.616  0.8675 -0.3088 -2.3400
 1898SOL    HW2 5694   1.875   0.224   6.625 -0.0500 -0.1072  0.3120
 1899SOL     OW 5695   4.046   0.437   6.296  0.1510 -0.2305  0.4405
 1899SOL    HW1 5696   4.032   0.530   6.279  0.8982  0.3454  2.6396
 1899SOL    HW2 5697   4.012   0.423   6.384  1.3430 -1.7065  0.7095
 1900SOL     OW 5698   4.869   3.536   5.075  0.0033  0.5862  0.2926
 1900SOL    HW1 5699   4.836   3.554   5.164 -0.4462  0.5144  0.1396
 1900SOL    HW2 5700   4.916   3.454   5.083  0.0094  0.6069  0.4777
 1901SOL     OW 5701   0.664   1.269   9.196 -0.3879  0.1663 -0.2800
 1901SOL    HW1 5702   0.631   1.355   9.223 -0.6363 -0.5527  1.8377
 1901SOL    HW2 5703   0.694   1.228   9.277  1.5954 -0.9915 -1.5166
 1902SOL     OW 5704   1.647   2.786   5.693 -0.1995 -0.0132 -0.2449
 1902SOL    HW1 5705   1.652   2.835   5.611 -1.2579 -0.3287 -0.5153
 1902SOL    HW2 5706   1.738   2.783   5.724 -0.0425  1.8807 -0.3435
 1903SOL     OW 5707   3.220   1.164   8.550  0.0907  0.1495  0.3184
 1903SOL    HW1 5708   3.144   1.209   8.586 -0.9573 -2.9492  2.4056
 1903SOL    HW2 5709   3.286   1.171   8.618  1.2237  1.4949 -0.8491
 1904SOL     OW 5710   1.139   4.763   8.344 -0.0603  0.3342 -0.4147
 1904SOL    HW1 5711   1.082   4.700   8.299  0.5446  0.0177 -0.7691
 1904SOL    HW2 5712   1.106   4.767   8.433 -0.1412 -0.4577 -0.4014
 1905SOL     OW 5713   2.898   2.494   5.967 -0.7082  0.0703  0.7131
 1905SOL    HW1 5714   2.929   2.584   5.966 -1.7408  0.4566 -0.5192
 1905SOL    HW2 5715   2.914   2.463   6.056  1.0373  0.9651  0.7394
 1906SOL     OW 5716   0.219   4.412   8.349  0.4029  0.5354  0.3407
 1906SOL    HW1 5717   0.160   4.357   8.297 -0.0768  1.9303 -0.6567
 1906SOL    HW2 5718   0.176   4.420   8.434 -0.2055  0.4926  0.0405
 1907SOL     OW 5719   2.463   1.139   8.226  0.1144  0.3941 -0.0792
 1907SOL    HW1 5720   2.449   1.134   8.131  0.7026 -0.3496 -0.1362
 1907SOL    HW2 5721   2.400   1.077   8.263 -1.8883  2.4689  0.2423
 1908SOL     OW 5722   3.907   2.400   8.820  0.1074  0.3263  0.3495
 1908SOL    HW1 5723   3.869   2.418   8.905  0.8418 -0.2467  0.8185
 1908SOL    HW2 5724   3.863   2.459   8.760 -0.4617  0.6918  1.1195
 1909SOL     OW 5725   4.136   3.649   5.789  0.1977  0.4912 -0.6065
 1909SOL    HW1 5726   4.077   3.673   5.860  0.0607  0.7792 -0.8152
 1909SOL    HW2 5727   4.104   3.698   5.713  1.7274  2.0472 -0.3273
 1910SOL     OW 5728   4.336   4.126   5.234 -0.1364 -0.5150  0.1327
 1910SOL    HW1 5729   4.425   4.113   5.268 -0.0864  0.6775  0.5193
 1910SOL    HW2 5730   4.306   4.039   5.210  0.9091 -1.0144  0.5900
 1911SOL     OW 5731   0.975   1.088   9.083  0.3350  0.3712  0.3186
 1911SOL    HW1 5732   1.004   1.164   9.134 -0.1655 -1.0609  2.8914
 1911SOL    HW2 5733   0.880   1.088   9.092  0.4239 -1.7040  2.3049
 1912SOL     OW 5734   3.344   3.351   6.518 -0.0561 -0.0594 -0.2976
 1912SOL    HW1 5735   3.398   3.272   6.518  0.4166  0.2589  0.2236
 1912SOL    HW2 5736   3.394   3.415   6.468 -1.2058 -0.5765 -2.2193
 1913SOL     OW 5737   2.779   1.522   7.574  0.5803  0.1464 -0.0972
 1913SOL    HW1 5738   2.809   1.512   7.484 -0.5833  0.2617 -0.5139
 1913SOL    HW2 5739   2.696   1.568   7.567 -0.7703 -1.9989  0.8519
 1914SOL     OW 5740   2.572   1.461   8.770  0.9321  0.1948  0.0696
 1914SOL    HW1 5741   2.638   1.410   8.722  0.2800 -0.7972  0.2010
 1914SOL    HW2 5742   2.606   1.465   8.860  2.1291  2.0134 -0.4083
 1915SOL     OW 5743   3.096   2.238   7.082  0.1687 -0.7601  0.2277
 1915SOL    HW1 5744   3.027   2.283   7.033  1.3899  0.4847 -0.4408
 1915SOL    HW2 5745   3.058   2.224   7.169 -0.7005  0.5441  0.1014
 1916SOL     OW 5746   3.103   0.283   6.308  0.0095  0.5343  0.8713
 1916SOL    HW1 5747   3.073   0.335   6.233 -0.5505  1.4122  1.6835
 1916SOL    HW2 5748   3.154   0.212   6.269 -0.1694  1.0444 -0.3335
 1917SOL     OW 5749   2.197   0.535   7.699 -0.1157 -0.3662  0.3576
 1917SOL    HW1 5750   2.157   0.449   7.693  0.6940 -0.9642  2.6078
 1917SOL    HW2 5751   2.274   0.530   7.642 -0.9932 -0.5208 -0.8565
 1918SOL     OW 5752   4.107   0.941   6.744  0.0021 -0.5789 -0.3022
 1918SOL    HW1 5753   4.026   0.988   6.723  0.3819  0.2704  0.0732
 1918SOL    HW2 5754   4.078   0.854   6.771 -0.7122 -0.6460 -1.2011
 1919SOL     OW 5755   0.667   1.578   7.147  0.1255  0.0959  0.4734
 1919SOL    HW1 5756   0.761   1.592   7.157  0.1614 -0.1197  0.4454
 1919SOL    HW2 5757   0.632   1.581   7.236 -0.0721  1.7701  0.3613
 1920SOL     OW 5758   3.479   1.312   7.644  0.6168  0.4088  0.1367
 1920SOL    HW1 5759   3.564   1.351   7.624  0.1901  1.3220  0.0710
 1920SOL    HW2 5760   3.418   1.386   7.649  0.0495 -0.1020  1.3897
 1921SOL     OW 5761   1.248   0.356  10.134  0.5928  0.6780  0.2022
 1921SOL    HW1 5762   1.186   0.378  10.204 -0.7633 -1.0210 -0.4035
 1921SOL    HW2 5763   1.322   0.415  10.149 -1.6883  3.8039  0.1351
 1922SOL     OW 5764   3.443   2.779   9.805  0.2045  0.1853  0.0958
 1922SOL    HW1 5765   3.511   2.778   9.872  2.1341  3.6521 -1.4981
 1922SOL    HW2 5766   3.418   2.872   9.797 -2.0583 -0.4725 -1.9634
 1923SOL     OW 5767   0.911   1.547   7.283  0.2311 -0.2726 -0.1946
 1923SOL    HW1 5768   0.988   1.576   7.331  0.5006 -0.0111 -0.7736
 1923SOL    HW2 5769   0.913   1.452   7.288 -0.5101 -0.2492  1.4962
 1924SOL     OW 5770   3.036   2.415   7.375  0.0597 -0.0541 -0.3213
 1924SOL    HW1 5771   3.011   2.460   7.294  0.8096  1.0635  0.0484
 1924SOL    HW2 5772   3.073   2.483   7.430 -1.1965 -0.6412  1.3196
 1925SOL     OW 5773   3.593   4.883   6.451 -0.9237 -0.2460  0.5711
 1925SOL    HW1 5774   3.613   4.805   6.502 -1.3309 -1.9127 -1.6426
 1925SOL    HW2 5775   3.504   4.908   6.477 -0.9233 -0.7359  1.0417
 1926SOL     OW 5776   1.293   0.283   8.206 -0.4525 -0.1993 -0.7463
 1926SOL    HW1 5777   1.327   0.307   8.293 -0.8461 -1.2157 -0.2942
 1926SOL    HW2 5778   1.277   0.189   8.212 -1.0941 -0.1626 -1.7235
 1927SOL     OW 5779   1.910   4.343   9.257  0.2598  0.5223  0.5220
 1927SOL    HW1 5780   1.922   4.438   9.256  0.3944  0.5075 -0.0958
 1927SOL    HW2 5781   1.816   4.332   9.244  0.5564  0.5699 -2.6087
 1928SOL     OW 5782   3.656   1.654   7.042 -0.1587  0.1280 -0.4565
 1928SOL    HW1 5783   3.699   1.633   6.959 -1.1705  0.8963 -1.2036
 1928SOL    HW2 5784   3.631   1.569   7.078 -0.2606 -0.1862 -1.2485
 1929SOL     OW 5785   2.685   1.879   8.313  0.0063 -0.3241  0.3486
 1929SOL    HW1 5786   2.621   1.940   8.276  1.2157  0.9487  0.3023
 1929SOL    HW2 5787   2.683   1.897   8.407  1.3048  0.7677  0.2014
 1930SOL     OW 5788   2.041   3.299   8.189  0.2809 -0.0309 -0.4630
 1930SOL    HW1 5789   2.055   3.384   8.233  1.1807 -0.2205 -0.3540
 1930SOL    HW2 5790   2.087   3.308   8.106 -0.7641  0.0495 -1.0399
 1931SOL     OW 5791   1.189   2.252   7.371  0.1260 -0.6494 -0.0460
 1931SOL    HW1 5792   1.148   2.303   7.441  1.5471  0.9638 -0.3156
 1931SOL    HW2 5793   1.278   2.288   7.363  1.4146 -3.5147  0.0427
 1932SOL     OW 5794   4.352   2.217   8.786 -0.2297 -0.3773 -0.1125
 1932SOL    HW1 5795   4.273   2.259   8.750 -0.1478 -0.7032 -0.6858
 1932SOL    HW2 5796   4.321   2.135   8.823 -0.0888 -0.7781 -0.8497
 1933SOL     OW 5797   2.639   3.468   7.786  0.2562 -0.4828  0.0848
 1933SOL    HW1 5798   2.601   3.450   7.872 -1.2180  0.1179 -0.4150
 1933SOL    HW2 5799   2.707   3.533   7.803  2.6844 -3.0951  1.2984
 1934SOL     OW 5800   1.761   4.431   7.813  0.4849  0.2666 -0.7799
 1934SOL    HW1 5801   1.780   4.503   7.752 -0.6174  1.2853  0.0164
 1934SOL    HW2 5802   1.701   4.374   7.765 -1.1124  1.5414 -0.4157
 1935SOL     OW 5803   2.629   0.740   6.719  0.1345 -0.2024  0.2605
 1935SOL    HW1 5804   2.597   0.755   6.629  0.9767 -0.0682 -0.0231
 1935SOL    HW2 5805   2.696   0.673   6.710  0.0097 -0.4127  0.8416
 1936SOL     OW 5806   2.306   0.451   8.300 -0.2501  1.0694 -0.0513
 1936SOL    HW1 5807   2.257   0.477   8.378  1.2004  2.4215  0.4546
 1936SOL    HW2 5808   2.337   0.533   8.262  1.1752  0.3047 -0.6325
 1937SOL     OW 5809   3.676   4.628   7.739 -0.4275 -0.1214 -0.1426
 1937SOL    HW1 5810   3.669   4.550   7.683 -0.8790 -0.5193  0.4537
 1937SOL    HW2 5811   3.770   4.635   7.758 -0.3342 -0.2863 -0.5298
 1938SOL     OW 5812   3.062   3.098   6.875  0.1684  0.3403 -0.6830
 1938SOL    HW1 5813   3.090   3.153   6.801  1.4694 -0.4878 -0.8304
 1938SOL    HW2 5814   3.077   3.153   6.952  0.4279  0.5973 -0.9123
 1939SOL     OW 5815   1.960   0.835   8.418  0.1680 -0.2534  0.1953
 1939SOL    HW1 5816   1.987   0.788   8.339  1.2793  0.7914 -0.0868
 1939SOL    HW2 5817   2.023   0.908   8.425 -1.2195  0.9291  0.8420
 1940SOL     OW 5818   3.911   4.354   7.277  0.0681  0.4273 -0.1733
 1940SOL    HW1 5819   3.921   4.276   7.332 -2.0567  0.8225  0.8662
 1940SOL    HW2 5820   3.901   4.426   7.339 -2.4742  0.8793 -0.9730
 1941SOL     OW 5821   4.946   0.140   6.595 -0.0501  0.6701 -0.6811
 1941SOL    HW1 5822   4.912   0.216   6.548 -1.6285  1.4492  1.5747
 1941SOL    HW2 5823   4.961   0.075   6.527 -3.0593  1.4068 -2.2330
 1942SOL     OW 5824   2.400   0.282   8.938  0.8895  0.1192  0.0106
 1942SOL    HW1 5825   2.332   0.328   8.888  1.5278 -0.8137 -1.8018
 1942SOL    HW2 5826   2.414   0.201   8.890  0.4652 -1.5919  2.5985
 1943SOL     OW 5827   4.756   4.542   9.302 -0.1636  0.2282  0.0699
 1943SOL    HW1 5828   4.845   4.544   9.337  0.4108 -1.3947 -1.1848
 1943SOL    HW2 5829   4.707   4.488   9.364 -0.1206  0.5817  0.4157
 1944SOL     OW 5830   3.850   2.591   7.548  0.0070 -0.5251  0.0656
 1944SOL    HW1 5831   3.900   2.562   7.472  0.4754 -0.5002  0.3579
 1944SOL    HW2 5832   3.853   2.517   7.609 -0.3939 -0.5583  0.0506
 1945SOL     OW 5833   2.028   0.944   7.518  0.6058  0.2907 -0.4316
 1945SOL    HW1 5834   2.099   0.946   7.453  1.6045 -1.6510  0.5224
 1945SOL    HW2 5835   1.950   0.969   7.469  1.6466  0.7271 -1.9355
 1946SOL     OW 5836   4.160   3.488   5.116 -0.0326 -0.5035  0.3305
 1946SOL    HW1 5837   4.234   3.434   5.146  0.6090 -1.2062 -2.2382
 1946SOL    HW2 5838   4.201   3.566   5.078 -0.5361 -0.9455 -1.2174
 1947SOL     OW 5839   1.387   3.811   8.800 -0.1609  0.6322 -0.5597
 1947SOL    HW1 5840   1.385   3.889   8.745  3.4402  0.9017 -0.5212
 1947SOL    HW2 5841   1.347   3.838   8.882 -0.2284  2.0133 -1.0254
 1948SOL     OW 5842   2.938   4.616   6.819 -0.0054  0.4356  0.1097
 1948SOL    HW1 5843   2.874   4.667   6.770  0.0654 -1.1626 -1.7973
 1948SOL    HW2 5844   2.991   4.574   6.751 -0.2227 -2.3524  1.5355
 1949SOL     OW 5845   3.447   1.675   5.395 -0.2969  0.3230  0.7531
 1949SOL    HW1 5846   3.529   1.689   5.347 -0.8670  1.7790  0.1332
 1949SOL    HW2 5847   3.445   1.746   5.460 -0.6248 -0.2668  1.4031
 1950SOL     OW 5848   2.938   3.351   7.039 -0.2530 -0.4736  0.0681
 1950SOL    HW1 5849   2.999   3.360   7.112 -0.7156 -0.1164  0.4146
 1950SOL    HW2 5850   2.853   3.373   7.075 -0.1137  2.6285 -1.2281
 1951SOL     OW 5851   3.876   0.332   8.577 -0.2931 -0.5291  0.6033
 1951SOL    HW1 5852   3.941   0.363   8.639  1.2844 -0.6945 -0.8726
 1951SOL    HW2 5853   3.822   0.270   8.627  1.9540 -1.9360  1.4400
 1952SOL     OW 5854   1.921   1.593   9.077  0.2679 -0.5029  0.0309
 1952SOL    HW1 5855   1.937   1.641   8.996  1.6611 -1.7741 -0.4982
 1952SOL    HW2 5856   1.902   1.504   9.049  1.5881 -1.1694  1.0916
 1953SOL     OW 5857   1.090   0.786   8.817 -0.3132  0.2595 -0.6069
 1953SOL    HW1 5858   1.176   0.798   8.858  0.6870 -1.6157 -1.9780
 1953SOL    HW2 5859   1.089   0.694   8.791 -1.8314  0.7979 -2.6699
 1954SOL     OW 5860   2.281   0.540   9.519  0.2628  0.0355 -0.7517
 1954SOL    HW1 5861   2.264   0.569   9.609  0.5126  1.7714 -1.2176
 1954SOL    HW2 5862   2.373   0.564   9.503  0.7120 -1.6750 -0.9939
 1955SOL     OW 5863   2.139   1.729   9.532 -0.1175 -1.2735 -0.3895
 1955SOL    HW1 5864   2.174   1.665   9.470 -0.6388 -1.3325 -0.6257
 1955SOL    HW2 5865   2.209   1.794   9.541  0.2481 -1.6534 -0.4709
 1956SOL     OW 5866   3.613   3.162   9.098 -0.1586  0.6613  0.1887
 1956SOL    HW1 5867   3.706   3.160   9.075 -0.0592 -1.5565  0.5764
 1956SOL    HW2 5868   3.608   3.220   9.174  0.9333  0.6527  0.2804
 1957SOL     OW 5869   3.338   2.552   7.367  0.6996 -0.5786 -0.1561
 1957SOL    HW1 5870   3.338   2.528   7.275 -1.3290  0.4114 -0.4692
 1957SOL    HW2 5871   3.355   2.646   7.368 -0.4955 -0.3448  0.3578
 1958SOL     OW 5872   2.375   2.295   8.199  0.0636 -0.3518  0.2970
 1958SOL    HW1 5873   2.327   2.229   8.250  0.5395 -0.6854  0.3248
 1958SOL    HW2 5874   2.411   2.355   8.265  0.5633 -0.7053  0.3603
 1959SOL     OW 5875   2.861   2.708   9.634  0.2503  0.1631  0.8966
 1959SOL    HW1 5876   2.781   2.754   9.660  0.8686  1.1085  1.2031
 1959SOL    HW2 5877   2.838   2.665   9.551 -0.0028  2.1041 -0.1051
 1960SOL     OW 5878   4.107   2.529   7.801 -0.3582  0.5381  0.4027
 1960SOL    HW1 5879   4.053   2.605   7.781  1.0671  0.6311 -4.6482
 1960SOL    HW2 5880   4.179   2.563   7.854 -1.4167  1.9480  0.9855
 1961SOL     OW 5881   2.980   0.752   8.435 -0.5896 -0.3547 -0.2326
 1961SOL    HW1 5882   2.937   0.804   8.502  0.3975  1.6616 -1.0741
 1961SOL    HW2 5883   2.918   0.751   8.362  0.3201  1.8488 -1.1347
 1962SOL     OW 5884   1.751   4.849   9.167  0.0471 -0.2040 -0.0898
 1962SOL    HW1 5885   1.796   4.792   9.104  0.6878 -0.3158  0.4541
 1962SOL    HW2 5886   1.727   4.926   9.115 -1.9203 -1.4405 -1.1335
 1963SOL     OW 5887   2.767   0.364   8.305 -0.6574 -0.1011 -0.2333
 1963SOL    HW1 5888   2.839   0.306   8.281 -0.0432 -0.1281  1.5290
 1963SOL    HW2 5889   2.800   0.452   8.287 -0.5677 -0.1609 -0.3638
 1964SOL     OW 5890   2.488   1.093   9.856  0.3964  0.1830 -0.2168
 1964SOL    HW1 5891   2.553   1.062   9.792 -0.6054 -0.3543 -0.9986
 1964SOL    HW2 5892   2.434   1.154   9.807 -0.6420 -0.5556 -0.0229
 1965SOL     OW 5893   1.887   4.491   8.709  0.0217  0.7101  0.2223
 1965SOL    HW1 5894   1.862   4.443   8.787 -0.1263 -0.2562 -0.4095
 1965SOL    HW2 5895   1.925   4.425   8.651  0.2481  1.4354 -0.4763
 1966SOL     OW 5896   2.123   1.057   8.956  0.2133 -0.1427  0.0695
 1966SOL    HW1 5897   2.200   1.001   8.954  1.1359  1.0529  0.6823
 1966SOL    HW2 5898   2.087   1.052   8.868  0.8852 -0.8456 -0.1753
 1967SOL     OW 5899   1.631   1.614   7.959  0.2207 -0.1059 -0.3047
 1967SOL    HW1 5900   1.674   1.614   8.044 -1.9836 -1.4976  0.9132
 1967SOL    HW2 5901   1.682   1.552   7.906  0.3419 -0.9537  0.7678
 1968SOL     OW 5902   0.490   1.266   9.620 -0.3677 -0.4559  0.7504
 1968SOL    HW1 5903   0.463   1.348   9.579  2.0691 -0.0283 -0.1968
 1968SOL    HW2 5904   0.538   1.292   9.699  1.0259 -0.8532  0.0867
 1969SOL     OW 5905   0.700   1.166   9.451 -0.0281  0.0387  0.5892
 1969SOL    HW1 5906   0.640   1.093   9.466 -1.3712  0.9753 -0.0300
 1969SOL    HW2 5907   0.667   1.236   9.506 -0.1257  0.8911 -0.5086
 1970SOL     OW 5908   4.607   0.872   9.183 -0.0938 -0.3260  0.1374
 1970SOL    HW1 5909   4.670   0.876   9.111 -0.3198 -1.8600 -0.1741
 1970SOL    HW2 5910   4.651   0.821   9.251 -0.5581 -0.4085  0.3791
 1971SOL     OW 5911   3.094   0.929   7.218  0.1128 -0.2676  0.3641
 1971SOL    HW1 5912   3.072   0.847   7.174 -0.1442  0.0133 -0.0339
 1971SOL    HW2 5913   3.065   0.916   7.308 -2.0637  0.2114 -0.1984
 1972SOL     OW 5914   2.967   0.342   8.748 -0.0455 -0.7742 -0.3275
 1972SOL    HW1 5915   2.886   0.292   8.751  0.0446 -0.9492 -0.7842
 1972SOL    HW2 5916   2.967   0.383   8.662  0.9176 -1.7182 -0.7875
 1973SOL     OW 5917   3.523   1.716   7.867 -0.6679 -0.0273 -0.2399
 1973SOL    HW1 5918   3.534   1.787   7.803  0.3933 -0.3177 -0.3930
 1973SOL    HW2 5919   3.468   1.754   7.935  1.7359  1.7517  0.8539
 1974SOL     OW 5920   2.678   0.648   9.044 -0.0397 -0.3739  0.1019
 1974SOL    HW1 5921   2.691   0.584   8.974  0.1712  1.1333 -1.2945
 1974SOL    HW2 5922   2.724   0.611   9.119  1.9462 -0.8599 -1.2870
 1975SOL     OW 5923   2.750   2.121   9.615  0.6581 -1.4000 -0.0234
 1975SOL    HW1 5924   2.683   2.078   9.562  1.7697  0.5432 -3.2952
 1975SOL    HW2 5925   2.833   2.097   9.574  1.4193  2.2455 -1.0008
 1976SOL     OW 5926   4.812   2.203   8.870  0.0388  0.0317 -0.7333
 1976SOL    HW1 5927   4.818   2.206   8.775 -0.4840 -0.2519 -0.7814
 1976SOL    HW2 5928   4.849   2.118   8.894 -1.6604 -0.8001 -0.8631
 1977SOL     OW 5929   4.420   0.261   9.216 -0.1048 -0.2271  0.7128
 1977SOL    HW1 5930   4.346   0.318   9.234 -0.4140  0.0835 -1.3217
 1977SOL    HW2 5931   4.496   0.311   9.246 -0.3693  1.3495 -0.9990
 1978SOL     OW 5932   1.048   1.007   7.100 -0.7243 -0.0178  0.2314
 1978SOL    HW1 5933   1.029   0.968   7.185  1.2828 -0.6614  0.4555
 1978SOL    HW2 5934   1.096   0.938   7.053 -0.4499  0.8661 -0.8355
 1979SOL     OW 5935   3.348   2.520   8.353 -0.0911  0.3247 -0.2856
 1979SOL    HW1 5936   3.260   2.522   8.314 -0.3489  0.3168  0.2980
 1979SOL    HW2 5937   3.334   2.491   8.443  0.8082 -2.7006 -1.0186
 1980SOL     OW 5938   4.346   0.295   8.094 -0.1675 -0.4977  0.7423
 1980SOL    HW1 5939   4.401   0.260   8.164  3.1395  0.4035 -1.2040
 1980SOL    HW2 5940   4.408   0.324   8.026 -3.0788  0.5295 -1.7145
 1981SOL     OW 5941   1.128   0.450   9.344  0.1178 -0.3757  0.3200
 1981SOL    HW1 5942   1.169   0.404   9.271  1.3238  1.1754 -0.0537
 1981SOL    HW2 5943   1.186   0.525   9.359 -0.5719 -0.2067  2.3302
 1982SOL     OW 5944   4.496   4.548   8.402  0.1322  0.7227  0.5425
 1982SOL    HW1 5945   4.468   4.462   8.433 -3.1247  0.7354 -1.8610
 1982SOL    HW2 5946   4.472   4.608   8.472 -1.3699  0.1045  0.5855
 1983SOL     OW 5947   2.281   3.431   8.133  0.4121 -0.0780 -0.5265
 1983SOL    HW1 5948   2.326   3.364   8.184 -0.0948 -1.3430 -1.6725
 1983SOL    HW2 5949   2.338   3.508   8.136  1.2585 -0.7362  0.3706
 1984SOL     OW 5950   2.711   3.395   9.297  0.3040  0.4709  0.0273
 1984SOL    HW1 5951   2.788   3.374   9.244  1.4012  2.2361  0.8291
 1984SOL    HW2 5952   2.636   3.383   9.238  1.2459 -0.4739 -1.0130
 1985SOL     OW 5953   3.364   1.233   9.582  0.5083  0.1508  0.7576
 1985SOL    HW1 5954   3.362   1.164   9.648 -0.9940  1.0262  1.6836
 1985SOL    HW2 5955   3.295   1.209   9.521  0.1105  0.7277  0.9788
 1986SOL     OW 5956   2.215   0.425   8.760 -0.0544  0.2066 -0.2963
 1986SOL    HW1 5957   2.298   0.464   8.785 -0.6377  0.1024  2.0566
 1986SOL    HW2 5958   2.150   0.494   8.776 -0.6288 -0.3624 -0.1100
 1987SOL     OW 5959   3.775   1.062   7.854  0.5100  0.0840  0.2566
 1987SOL    HW1 5960   3.691   1.075   7.898  0.6955  2.1599  0.1222
 1987SOL    HW2 5961   3.826   1.140   7.877  1.7197 -0.2314 -1.1838
 1988SOL     OW 5962   2.672   1.375   9.403 -0.4061 -0.6531 -0.1882
 1988SOL    HW1 5963   2.618   1.308   9.362  1.6139 -0.4793 -3.4827
 1988SOL    HW2 5964   2.681   1.442   9.336  0.9707  1.0064  1.5568
 1989SOL     OW 5965   0.417   2.889   9.822  0.2045  0.5801 -0.2692
 1989SOL    HW1 5966   0.449   2.802   9.847 -0.4844  0.7949  1.5093
 1989SOL    HW2 5967   0.397   2.881   9.728 -0.2445 -1.3188 -0.0598
 1990SOL     OW 5968   3.277   2.419   7.660  0.2417  0.2052 -0.2712
 1990SOL    HW1 5969   3.329   2.392   7.585  1.4155  1.1658  0.1617
 1990SOL    HW2 5970   3.214   2.348   7.673  0.6563 -0.4152 -1.5536
 1991SOL     OW 5971   2.675   1.094   8.771  0.0923  0.3605  0.9647
 1991SOL    HW1 5972   2.719   1.179   8.777  0.1720  0.3717  0.3044
 1991SOL    HW2 5973   2.595   1.112   8.721  0.8106 -0.2092 -0.4480
 1992SOL     OW 5974   4.102   0.508   8.381 -1.2154 -0.2487 -0.2706
 1992SOL    HW1 5975   4.037   0.542   8.443  0.0754  0.3232  0.8341
 1992SOL    HW2 5976   4.090   0.413   8.383 -0.3718 -0.3584  1.8879
 1993SOL     OW 5977   1.729   5.002   8.518 -0.3235 -1.1070  0.2866
 1993SOL    HW1 5978   1.747   4.933   8.581 -0.4444 -1.3309  0.0751
 1993SOL    HW2 5979   1.650   5.045   8.551  0.1046 -0.6748  0.7500
 1994SOL     OW 5980   0.627   3.507   8.203 -0.0971  0.5246 -0.4689
 1994SOL    HW1 5981   0.537   3.537   8.214 -0.2605 -0.6266  2.0163
 1994SOL    HW2 5982   0.625   3.415   8.227  1.8802  0.6664  0.4764
 1995SOL     OW 5983   2.390   2.885   9.188  0.6156  0.7896 -0.1820
 1995SOL    HW1 5984   2.416   2.798   9.159  3.2529  1.5002 -0.2108
 1995SOL    HW2 5985   2.371   2.932   9.108  0.8174  0.6989 -0.2842
 1996SOL     OW 5986   0.479   4.843   9.823 -0.1740 -0.6286  0.5041
 1996SOL    HW1 5987   0.516   4.779   9.763 -0.1601 -1.1828  1.0933
 1996SOL    HW2 5988   0.548   4.860   9.887 -0.0432  0.2636  0.1413
 1997SOL     OW 5989   2.140   1.397   8.338  0.8082  0.4538 -0.2289
 1997SOL    HW1 5990   2.220   1.432   8.376  0.1814  2.3757 -0.5573
 1997SOL    HW2 5991   2.105   1.339   8.405  1.9108  0.4563  0.3639
 1998SOL     OW 5992   3.301   1.506   7.681  0.2455  0.3174 -0.4211
 1998SOL    HW1 5993   3.283   1.466   7.766 -3.9978 -0.7138 -1.5931
 1998SOL    HW2 5994   3.328   1.596   7.702  0.3926 -0.2289  1.9958
 1999SOL     OW 5995   1.183   0.472   9.809  0.5435  0.0060  0.2250
 1999SOL    HW1 5996   1.131   0.551   9.796 -0.1517 -0.6894 -1.4555
 1999SOL    HW2 5997   1.204   0.472   9.903  0.0359  1.8381  0.3682
 2000SOL     OW 5998   1.139   0.265   6.355  0.3730 -0.2032 -0.3323
 2000SOL    HW1 5999   1.074   0.248   6.287 -0.6479 -0.5228  0.6958
 2000SOL    HW2 6000   1.096   0.327   6.414  0.7233 -0.9573  0.7423
 2001SOL     OW 6001   0.856   0.718   7.822 -0.3060  0.5021 -0.0398
 2001SOL    HW1 6002   0.832   0.708   7.914  0.8226 -0.9622  0.1282
 2001SOL    HW2 6003   0.792   0.664   7.775  1.0444 -1.3846  0.1973
 2002SOL     OW 6004   1.799   0.318   9.054 -0.0951 -0.2646 -0.0981
 2002SOL    HW1 6005   1.779   0.225   9.044  3.0882 -0.8228 -2.9345
 2002SOL    HW2 6006   1.850   0.323   9.135 -1.6796 -0.6274  0.9698
 2003SOL     OW 6007   2.205   4.956   9.099  0.0887 -0.2436  0.1403
 2003SOL    HW1 6008   2.186   4.961   9.193 -0.2646 -1.1266  0.1213
 2003SOL    HW2 6009   2.233   4.866   9.085  1.5184  0.2484 -0.3581
 2004SOL     OW 6010   2.763   4.714   7.855 -0.0097  0.3222  0.6153
 2004SOL    HW1 6011   2.735   4.635   7.809  1.0556  0.3460 -0.1265
 2004SOL    HW2 6012   2.842   4.742   7.808 -0.7338  2.2016  0.4421
 2005SOL     OW 6013   1.305   2.165   9.652 -0.3427  0.2160  0.5369
 2005SOL    HW1 6014   1.216   2.141   9.629  0.0185  0.1519 -0.8704
 2005SOL    HW2 6015   1.333   2.097   9.714 -1.3501  0.4128  1.2338
 2006SOL     OW 6016   0.194   1.552   8.600  0.4918  0.3675 -0.7220
 2006SOL    HW1 6017   0.172   1.608   8.674 -1.2210 -0.0545 -0.8613
 2006SOL    HW2 6018   0.252   1.485   8.637  0.5804  0.8124 -0.0309
 2007SOL     OW 6019   3.081   3.007   9.119  0.0323  0.0999 -0.2876
 2007SOL    HW1 6020   3.137   2.933   9.094 -1.0166 -0.6410 -0.5274
 2007SOL    HW2 6021   3.076   3.002   9.214  1.4664  0.9977 -0.1546
 2008SOL     OW 6022   4.217   3.522   9.945 -0.3702  0.0561 -0.7623
 2008SOL    HW1 6023   4.132   3.482   9.927 -0.6765  0.9568 -1.3959
 2008SOL    HW2 6024   4.250   3.475  10.021 -2.3024  0.9112  0.7008
 2009SOL     OW 6025   4.618   4.134   9.857  0.4316  0.0795  0.7122
 2009SOL    HW1 6026   4.573   4.049   9.857  0.4501  0.0581  1.6660
 2009SOL    HW2 6027   4.702   4.117   9.816 -0.9623  0.4527 -2.6545
 2010SOL     OW 6028   3.444   1.684   8.790  0.1384  0.2283  0.2313
 2010SOL    HW1 6029   3.506   1.649   8.854 -0.3118 -0.1255  0.4819
 2010SOL    HW2 6030   3.365   1.701   8.841  0.0025  0.6002 -0.1012
 2011SOL     OW 6031   3.981   3.257   9.856  0.4246 -0.6941  1.1476
 2011SOL    HW1 6032   4.038   3.180   9.854 -0.7976 -1.6388  1.1727
 2011SOL    HW2 6033   3.893   3.221   9.851 -0.1557  0.7723  0.0104
 2012SOL     OW 6034   2.410   1.128   8.656  0.0414 -0.1162  0.5478
 2012SOL    HW1 6035   2.348   1.072   8.609  0.9329  0.3537 -1.2708
 2012SOL    HW2 6036   2.376   1.216   8.644  1.0178  0.1475 -0.4667
 2013SOL     OW 6037   1.268   0.555   7.594 -0.1416  0.2144 -0.2064
 2013SOL    HW1 6038   1.227   0.615   7.657 -1.0598 -1.3611  0.7646
 2013SOL    HW2 6039   1.334   0.508   7.645 -0.1518 -0.3274 -0.6792
 2014SOL     OW 6040   4.612   2.942   9.949 -0.6794  0.0816 -0.5389
 2014SOL    HW1 6041   4.677   2.975   9.886 -1.9342 -0.1196 -1.9693
 2014SOL    HW2 6042   4.534   2.994   9.932 -1.6048 -1.2249 -0.4133
 2015SOL     OW 6043   3.859   2.063   8.060  0.4955 -0.5046  0.1631
 2015SOL    HW1 6044   3.769   2.032   8.072  0.3736 -0.0818  0.3559
 2015SOL    HW2 6045   3.911   2.011   8.122  0.0892  0.6464  1.5108
 2016SOL     OW 6046   4.658   0.712   9.813  0.1358  0.3301  0.1874
 2016SOL    HW1 6047   4.672   0.704   9.908  0.4854 -0.0881  0.1013
 2016SOL    HW2 6048   4.659   0.806   9.797 -3.2554  0.6761  1.0943
 2017SOL     OW 6049   2.880   1.242  10.107 -0.0747  0.7182 -0.3841
 2017SOL    HW1 6050   2.958   1.290  10.078  1.2482  0.4899  2.4947
 2017SOL    HW2 6051   2.912   1.155  10.130 -1.4962  0.1064 -0.6323
 2018SOL     OW 6052   3.710   4.505   8.054 -0.5488 -0.1761  0.1292
 2018SOL    HW1 6053   3.738   4.503   8.145 -0.6464 -0.6648  0.1498
 2018SOL    HW2 6054   3.646   4.576   8.050 -0.9561 -0.5149  0.5610
 2019SOL     OW 6055   3.488   2.640   7.711 -0.3204  0.4295 -0.1157
 2019SOL    HW1 6056   3.419   2.584   7.675  0.7828 -1.2436  0.2441
 2019SOL    HW2 6057   3.479   2.631   7.806  1.1368 -0.8319 -0.0603
 2020SOL     OW 6058   3.368   3.541   8.967 -0.2675 -0.2611 -0.5481
 2020SOL    HW1 6059   3.437   3.606   8.981 -0.4381 -0.0782 -0.5703
 2020SOL    HW2 6060   3.377   3.516   8.875 -0.5969  0.1763 -0.6977
 2021SOL     OW 6061   4.440   4.293   8.429  0.0727  0.1244  0.2354
 2021SOL    HW1 6062   4.477   4.207   8.447  0.1384  0.1654  0.3035
 2021SOL    HW2 6063   4.371   4.278   8.365 -0.6038 -0.1136  1.0004
 2022SOL     OW 6064   0.435   0.166   9.641 -0.2618  0.2110 -0.1695
 2022SOL    HW1 6065   0.408   0.245   9.688  2.2724  1.1942 -0.1842
 2022SOL    HW2 6066   0.383   0.167   9.560  0.8157  2.8053 -0.9205
 2023SOL     OW 6067   3.156   1.792   8.840 -0.2603 -0.9383 -0.0335
 2023SOL    HW1 6068   3.188   1.790   8.930 -0.9718 -0.0698  0.2587
 2023SOL    HW2 6069   3.116   1.878   8.831  1.1178 -0.4073 -1.6616
 2024SOL     OW 6070   2.360   2.899   9.829 -0.0205  0.4855 -0.4592
 2024SOL    HW1 6071   2.354   2.993   9.842 -1.2213  0.0902  3.0544
 2024SOL    HW2 6072   2.287   2.878   9.770 -0.9329  1.6101  0.2133
 2025SOL     OW 6073   3.241   0.294   5.952  0.6229 -0.3648 -0.1063
 2025SOL    HW1 6074   3.233   0.253   5.866 -0.2852 -0.2705 -0.0760
 2025SOL    HW2 6075   3.235   0.222   6.015 -1.4327 -0.1843 -0.0346
 2026SOL     OW 6076   3.695   0.536   8.928  0.2679 -0.4343  0.0459
 2026SOL    HW1 6077   3.750   0.549   8.850 -1.1327 -0.4901 -0.9915
 2026SOL    HW2 6078   3.681   0.624   8.962  1.1920 -0.4419  0.4668
 2027SOL     OW 6079   3.282   2.568   9.841 -0.0271  0.0880 -0.2168
 2027SOL    HW1 6080   3.217   2.634   9.863 -1.1500 -0.5136 -1.5968
 2027SOL    HW2 6081   3.365   2.617   9.835 -0.8222  1.3781 -1.1870
 2028SOL     OW 6082   2.644   2.053   9.937  0.3830 -0.4036  0.5391
 2028SOL    HW1 6083   2.663   2.132   9.987 -1.4187  0.9376 -0.7436
 2028SOL    HW2 6084   2.679   2.071   9.849 -2.1373  0.0438 -0.4421
 2029SOL     OW 6085   3.196   4.844   9.493 -0.1303  0.2574  0.2763
 2029SOL    HW1 6086   3.261   4.913   9.495 -0.0576  0.1843  0.4565
 2029SOL    HW2 6087   3.244   4.765   9.469  0.1581 -0.1232  1.9880
 2030SOL     OW 6088   3.144   1.686   9.517  0.0725 -0.3406 -0.0764
 2030SOL    HW1 6089   3.153   1.647   9.605 -1.0006  1.9657  1.1529
 2030SOL    HW2 6090   3.178   1.775   9.527  0.0527 -0.0629 -2.0698
 2031SOL     OW 6091   2.019   2.623   7.935 -0.5590  0.4560  0.1663
 2031SOL    HW1 6092   2.008   2.702   7.882 -0.4217  0.9757  0.8841
 2031SOL    HW2 6093   2.110   2.627   7.964 -1.2482  1.5324  2.4623
 2032SOL     OW 6094   0.687   1.012   9.094  0.2028 -0.3811 -0.2849
 2032SOL    HW1 6095   0.618   1.066   9.135 -2.7121 -2.4092 -2.1075
 2032SOL    HW2 6096   0.641   0.961   9.028  3.7628 -1.0872 -2.4784
 2033SOL     OW 6097   4.294   1.691   7.560 -0.6784 -0.7623 -0.3251
 2033SOL    HW1 6098   4.225   1.731   7.508 -0.4154 -3.3222 -2.8419
 2033SOL    HW2 6099   4.373   1.698   7.506  0.3948 -0.5913  1.1922
 2034SOL     OW 6100   3.876   0.428   9.682  0.1114 -0.3245 -0.1773
 2034SOL    HW1 6101   3.808   0.368   9.712  0.0550  0.4020  1.2277
 2034SOL    HW2 6102   3.881   0.496   9.749  1.9868 -0.1635 -0.4007
 2035SOL     OW 6103   4.072   1.120   9.327 -0.4125  0.6286  0.0538
 2035SOL    HW1 6104   4.120   1.040   9.348 -1.4822 -0.0819 -0.1460
 2035SOL    HW2 6105   4.139   1.179   9.291  0.7765  0.6022  2.0813
 2036SOL     OW 6106   1.812   0.812   9.526  0.2195  0.5964 -0.0369
 2036SOL    HW1 6107   1.898   0.773   9.509 -0.0167 -0.2982  0.7753
 2036SOL    HW2 6108   1.830   0.887   9.583  0.3783 -0.1634  0.9308
 2037SOL     OW 6109   2.109   1.715   6.316  0.2018  0.7036 -0.1035
 2037SOL    HW1 6110   2.040   1.672   6.367  0.3083  2.0998  1.2810
 2037SOL    HW2 6111   2.137   1.648   6.253 -1.6608 -0.2412  0.0095
 2038SOL     OW 6112   2.928   1.172   9.104  0.4215 -0.2746  0.4640
 2038SOL    HW1 6113   2.883   1.088   9.110 -0.2328  0.1594  1.9655
 2038SOL    HW2 6114   2.967   1.171   9.016 -3.3755 -0.2286 -1.4396
 2039SOL     OW 6115   2.871   1.801   9.431  0.2650  0.1374  0.0697
 2039SOL    HW1 6116   2.872   1.745   9.509 -0.2660  0.4992  0.3436
 2039SOL    HW2 6117   2.957   1.789   9.391 -0.3821 -2.1615 -0.8002
 2040SOL     OW 6118   2.413   0.605   8.940 -0.0834 -0.0881 -0.0198
 2040SOL    HW1 6119   2.318   0.600   8.937 -0.1931  1.6360 -0.5207
 2040SOL    HW2 6120   2.435   0.680   8.885  1.5434 -0.2486  0.3553
 2041SOL     OW 6121   1.789   0.946   9.257  0.3196 -0.0900  0.2743
 2041SOL    HW1 6122   1.770   0.919   9.347  0.5524 -0.8014  0.1224
 2041SOL    HW2 6123   1.808   1.039   9.263  0.9842 -0.2688  1.0655
 2042SOL     OW 6124   2.016   2.417   8.358 -1.2012 -0.8616 -0.3834
 2042SOL    HW1 6125   2.007   2.484   8.426 -0.6314  0.7798 -1.8339
 2042SOL    HW2 6126   2.087   2.360   8.389 -0.2286  0.4812 -0.0627
 2043SOL     OW 6127   4.136   0.920   9.653 -0.6789 -0.4262 -0.6576
 2043SOL    HW1 6128   4.125   0.825   9.664  0.3494 -0.7308 -1.9658
 2043SOL    HW2 6129   4.154   0.931   9.559  0.0723  0.9745 -0.3737
 2044SOL     OW 6130   4.562   0.749   7.727  0.2123  0.0133  0.2137
 2044SOL    HW1 6131   4.489   0.707   7.773  0.1599 -0.0855  0.0426
 2044SOL    HW2 6132   4.593   0.816   7.787 -1.8495  2.0192 -0.7782
 2045SOL     OW 6133   1.869   4.784   8.363 -0.3296 -0.2632 -0.3058
 2045SOL    HW1 6134   1.837   4.827   8.442  0.7668 -0.6892  0.3923
 2045SOL    HW2 6135   1.803   4.717   8.344  0.3482 -1.5022  1.4273
 2046SOL     OW 6136   3.166   0.589   8.862 -0.1500  0.1192 -0.0828
 2046SOL    HW1 6137   3.149   0.637   8.943  0.0504 -0.6513  0.4194
 2046SOL    HW2 6138   3.086   0.541   8.845 -0.1787  0.2511 -0.3272
 2047SOL     OW 6139   4.267   2.036   9.157  0.0068 -0.1870  0.4448
 2047SOL    HW1 6140   4.253   2.022   9.251  0.8256  0.5160  0.6739
 2047SOL    HW2 6141   4.186   2.078   9.128 -1.1849 -2.3711  0.3676
 2048SOL     OW 6142   1.595   2.468   9.413  0.0397  0.5808 -0.1454
 2048SOL    HW1 6143   1.502   2.447   9.421 -0.0077 -0.1097 -2.0133
 2048SOL    HW2 6144   1.636   2.421   9.486 -1.0132  0.6110  0.5023
 2049SOL     OW 6145   2.545   0.869   9.304 -0.2289 -0.1402  0.1913
 2049SOL    HW1 6146   2.543   0.826   9.219  0.3325  1.5137 -0.7049
 2049SOL    HW2 6147   2.638   0.868   9.329 -0.1824  0.6512  0.0812
 2050SOL     OW 6148   3.139   0.156   9.201  0.1042 -0.2662  0.0462
 2050SOL    HW1 6149   3.133   0.062   9.190  0.6431 -0.3823  0.6876
 2050SOL    HW2 6150   3.093   0.192   9.125  1.0166 -1.0278 -0.9095
 2051SOL     OW 6151   3.045   1.435   8.300 -0.1683  0.1098  0.0341
 2051SOL    HW1 6152   3.036   1.499   8.372 -1.3478 -0.4964  0.4385
 2051SOL    HW2 6153   3.006   1.478   8.224 -2.3126 -0.6514  0.6491
 2052SOL     OW 6154   2.662   0.477   8.828 -0.5540  0.1581  0.3020
 2052SOL    HW1 6155   2.699   0.393   8.856  1.2703  0.5250 -0.8463
 2052SOL    HW2 6156   2.625   0.458   8.741 -1.7548  0.1613  0.7925
 2053SOL     OW 6157   2.319   1.681   9.836  0.5384  0.3076  0.2583
 2053SOL    HW1 6158   2.346   1.767   9.867  1.8980 -0.1036  0.2898
 2053SOL    HW2 6159   2.384   1.658   9.769 -0.4959 -0.1912 -0.6070
 2054SOL     OW 6160   2.597   1.550   9.201 -1.4421  0.1000 -0.1813
 2054SOL    HW1 6161   2.628   1.626   9.151  1.7544 -1.4311 -0.8061
 2054SOL    HW2 6162   2.543   1.501   9.139 -1.5926  0.7026 -0.5299
 2055SOL     OW 6163   2.977   1.874   9.874  0.3296 -0.4577  0.1216
 2055SOL    HW1 6164   2.973   1.969   9.865  0.4581 -0.4908 -0.3078
 2055SOL    HW2 6165   2.907   1.852   9.935  1.2365  0.0572  1.3758
 2056SOL     OW 6166   3.363   4.876   8.036 -0.6203 -0.3870 -0.2646
 2056SOL    HW1 6167   3.438   4.836   7.990 -0.3348 -1.0786  0.7675
 2056SOL    HW2 6168   3.383   4.865   8.129 -1.2040  0.9689  0.0433
 2057SOL     OW 6169   2.462   4.336   8.974 -0.3151  0.0587 -0.3157
 2057SOL    HW1 6170   2.449   4.428   8.949  0.9557  0.8828  1.7667
 2057SOL    HW2 6171   2.523   4.302   8.909 -1.6440  0.3226 -1.7591
 2058SOL     OW 6172   2.495   3.254   9.105 -1.0248  0.2683  0.0407
 2058SOL    HW1 6173   2.572   3.262   9.049 -0.0778 -0.3809  1.1951
 2058SOL    HW2 6174   2.446   3.182   9.067  0.0369 -0.7286  0.4929
 2059SOL     OW 6175   2.516   4.023   9.270  0.2480  0.2563  0.4572
 2059SOL    HW1 6176   2.498   3.930   9.259  1.7606 -0.0638  0.4696
 2059SOL    HW2 6177   2.526   4.035   9.365 -0.3047  0.5068  0.4862
 2060SOL     OW 6178   4.028   0.105   9.403  0.5765  0.4771 -0.2013
 2060SOL    HW1 6179   4.052   0.185   9.451 -1.3909  1.9120 -1.4902
 2060SOL    HW2 6180   4.108   0.082   9.355  1.2821  1.4707  0.4426
 2061SOL     OW 6181   2.540   4.778   9.337 -0.5630  0.7124 -0.2123
 2061SOL    HW1 6182   2.627   4.807   9.363 -0.2027 -0.4290 -0.1166
 2061SOL    HW2 6183   2.496   4.756   9.419 -1.1215  1.7215 -0.2191
 2062SOL     OW 6184   2.586   0.733   8.712 -0.2723 -0.0348  0.1774
 2062SOL    HW1 6185   2.650   0.718   8.643  0.4575  1.1460  0.5731
 2062SOL    HW2 6186   2.602   0.664   8.776 -0.1350 -0.3998 -0.2512
 2063SOL     OW 6187   2.565   1.750   9.017 -0.6984  0.0372  0.2118
 2063SOL    HW1 6188   2.524   1.720   8.936 -1.1089 -0.3652  0.5648
 2063SOL    HW2 6189   2.503   1.812   9.054 -0.7138 -0.1165  0.4435
 2064SOL     OW 6190   2.107   1.138   8.173  0.3065 -0.6700  0.1598
 2064SOL    HW1 6191   2.132   1.227   8.152  0.0741 -0.5312  0.4607
 2064SOL    HW2 6192   2.053   1.110   8.099 -0.5762 -0.1545  0.5842
 2065SOL     OW 6193   2.986   0.804   7.830 -0.3604 -0.1998 -0.1065
 2065SOL    HW1 6194   3.081   0.793   7.835 -0.5557 -1.8090  0.8294
 2065SOL    HW2 6195   2.958   0.810   7.921 -1.2691 -0.9758 -0.3206
 2066SOL     OW 6196   4.116   4.606   9.772 -0.6174 -0.1749 -0.4824
 2066SOL    HW1 6197   4.208   4.616   9.795 -1.2828  1.8377  1.7387
 2066SOL    HW2 6198   4.095   4.687   9.725 -1.6131  0.1840  0.5347
 2067SOL     OW 6199   3.255   1.759   9.884 -0.4539  0.4336 -0.0646
 2067SOL    HW1 6200   3.177   1.815   9.881 -0.8286 -0.0800 -0.0853
 2067SOL    HW2 6201   3.222   1.672   9.861  0.2655  0.3653 -0.8842
 2068SOL     OW 6202   2.729   2.356   9.969 -0.0587 -0.4027  0.2649
 2068SOL    HW1 6203   2.734   2.428  10.032 -2.8498 -0.4094  0.6170
 2068SOL    HW2 6204   2.723   2.399   9.884 -0.2667 -0.2465  0.3574
 2069SOL     OW 6205   4.863   1.820   8.978 -0.3796  0.7485  0.3621
 2069SOL    HW1 6206   4.770   1.841   8.987 -0.6212  0.1857 -0.6582
 2069SOL    HW2 6207   4.888   1.854   8.892 -0.0888 -0.5949 -0.1169
 2070SOL     OW 6208   0.140   4.775   8.640 -0.2699 -0.6969  0.3260
 2070SOL    HW1 6209   0.114   4.751   8.729 -2.8722  0.8060  0.0654
 2070SOL    HW2 6210   0.063   4.756   8.586 -0.2076  2.1010 -0.9032
 2071SOL     OW 6211   2.582   4.795   8.028  0.3058 -0.5239 -0.2586
 2071SOL    HW1 6212   2.496   4.787   7.987  0.3747  0.2955 -0.5803
 2071SOL    HW2 6213   2.640   4.741   7.974  0.2933  0.1347 -0.9465
 2072SOL     OW 6214   0.162   1.193   9.918  0.0095 -0.2764  0.1349
 2072SOL    HW1 6215   0.231   1.132   9.945  0.3366  0.7282  1.7353
 2072SOL    HW2 6216   0.080   1.148   9.940  0.2467 -0.1796  1.2872
 2073SOL     OW 6217   1.555   1.605   8.888 -0.2924  0.3278  0.1422
 2073SOL    HW1 6218   1.596   1.544   8.949 -0.3308 -1.0432 -1.1699
 2073SOL    HW2 6219   1.627   1.637   8.833 -0.4703  0.5033  0.0082
 2074SOL     OW 6220   0.200   3.409   9.898 -0.1088 -0.1827  0.2366
 2074SOL    HW1 6221   0.157   3.375   9.821 -4.0091 -0.2139  2.2100
 2074SOL    HW2 6222   0.233   3.332   9.944 -0.2758 -0.3916  0.0037
 2075SOL     OW 6223   4.862   3.599   9.226 -0.1420 -0.0047  0.3680
 2075SOL    HW1 6224   4.778   3.568   9.258 -0.0006 -1.1082 -0.2664
 2075SOL    HW2 6225   4.859   3.584   9.131 -0.0182  1.8869  0.0350
 2076SOL     OW 6226   2.592   3.793   8.414 -0.0571  0.2399  0.0466
 2076SOL    HW1 6227   2.681   3.808   8.385  0.6166 -0.5525  1.5533
 2076SOL    HW2 6228   2.548   3.877   8.403  1.3741  1.1425  0.9046
 2077SOL     OW 6229   1.763   4.757   8.650  0.1698  0.2652  0.2261
 2077SOL    HW1 6230   1.698   4.733   8.715 -0.4875 -1.7042 -1.0631
 2077SOL    HW2 6231   1.823   4.683   8.648  2.1493  1.7582  0.9313
 2078SOL     OW 6232   1.339   2.611   8.211 -0.2555 -0.6175  0.9748
 2078SOL    HW1 6233   1.430   2.601   8.182  0.5840  0.6900  2.9530
 2078SOL    HW2 6234   1.302   2.523   8.204  0.6581 -0.8697 -1.3565
 2079SOL     OW 6235   1.905   1.363   8.970  0.1325  0.2032 -0.3103
 2079SOL    HW1 6236   1.812   1.353   8.994 -1.1079  3.3839 -3.0347
 2079SOL    HW2 6237   1.918   1.302   8.898  0.7852 -1.5880  1.2542
 2080SOL     OW 6238   3.003   1.370   8.651 -0.6417  0.5404  0.7569
 2080SOL    HW1 6239   3.065   1.441   8.634  0.0327  0.0738  1.1937
 2080SOL    HW2 6240   3.028   1.338   8.738 -1.7027  0.5446  1.0669
 2081SOL     OW 6241   2.849   3.172   9.698 -0.0523  0.4416 -0.1551
 2081SOL    HW1 6242   2.770   3.124   9.672  0.0612  0.4737 -0.5685
 2081SOL    HW2 6243   2.827   3.265   9.684 -0.6907  0.6211  1.7640
 2082SOL     OW 6244   1.836   1.471   7.856  0.2771  0.6733  0.0931
 2082SOL    HW1 6245   1.844   1.544   7.795  0.6786  1.2236  0.7820
 2082SOL    HW2 6246   1.909   1.483   7.917  1.2779 -1.1511 -0.6504
 2083SOL     OW 6247   3.937   0.716   7.427  0.1112  0.5194 -0.2455
 2083SOL    HW1 6248   3.969   0.805   7.411 -2.5075  2.0283  2.0588
 2083SOL    HW2 6249   3.990   0.684   7.500 -0.4681  1.1754  0.4845
 2084SOL     OW 6250   2.304   4.163   9.111  0.2434  0.1237  0.2103
 2084SOL    HW1 6251   2.346   4.228   9.055  0.0117 -0.2957 -0.4577
 2084SOL    HW2 6252   2.372   4.138   9.174  0.7775 -0.0406 -0.4262
 2085SOL     OW 6253   3.677   0.272   6.273  0.0748 -0.1813  0.3297
 2085SOL    HW1 6254   3.722   0.245   6.352 -1.0071 -1.5650  0.5165
 2085SOL    HW2 6255   3.584   0.268   6.295 -0.2067  1.0174 -0.5200
 2086SOL     OW 6256   2.984   1.562   8.064 -0.4519 -0.3107  0.5122
 2086SOL    HW1 6257   2.962   1.535   7.975 -2.2473  0.4304  0.6792
 2086SOL    HW2 6258   2.921   1.632   8.084  1.1130  0.8110  1.7136
 2087SOL     OW 6259   2.454   2.137   7.514  0.1797  0.2196  0.0929
 2087SOL    HW1 6260   2.380   2.145   7.455  0.3234  1.1301  0.0238
 2087SOL    HW2 6261   2.452   2.217   7.566 -1.0798 -1.3454  2.6736
 2088SOL     OW 6262   2.223   1.252   6.395 -0.0400  0.4713 -0.0309
 2088SOL    HW1 6263   2.180   1.191   6.455  1.1340 -0.8095 -0.4346
 2088SOL    HW2 6264   2.303   1.278   6.442  0.7919 -0.3938 -0.9203
 2089SOL     OW 6265   1.167   2.009   9.149 -0.0957 -0.8114 -0.0801
 2089SOL    HW1 6266   1.080   2.005   9.110 -0.4543  1.1019  0.4213
 2089SOL    HW2 6267   1.210   1.929   9.119 -2.0354 -1.8623 -0.2644
 2090SOL     OW 6268   4.102   0.302   9.600 -0.2801  0.0476  0.8774
 2090SOL    HW1 6269   4.019   0.336   9.634  0.9174  1.5923  2.4189
 2090SOL    HW2 6270   4.168   0.332   9.662  1.3131 -2.3651  0.5072
 2091SOL     OW 6271   1.106   4.720   7.890  0.0141 -0.0067 -0.0447
 2091SOL    HW1 6272   1.124   4.646   7.948 -1.9087  0.0402  0.6627
 2091SOL    HW2 6273   1.045   4.685   7.826 -1.2290  1.0490  0.5368
 2092SOL     OW 6274   4.560   0.820   8.722  0.2845 -0.0658 -0.1698
 2092SOL    HW1 6275   4.643   0.819   8.771  0.4866  0.8194 -0.4829
 2092SOL    HW2 6276   4.497   0.779   8.782  0.3030  1.8477  1.2931
 2093SOL     OW 6277   1.696   1.995   9.542 -0.2379 -0.5531  0.1896
 2093SOL    HW1 6278   1.658   2.002   9.454  0.6525  0.9972 -0.1107
 2093SOL    HW2 6279   1.741   1.911   9.542  0.4623 -0.2061 -1.1456
 2094SOL     OW 6280   2.281   2.344   8.833 -0.4073  0.1003  0.0854
 2094SOL    HW1 6281   2.331   2.278   8.882  0.6973 -0.7240 -2.0221
 2094SOL    HW2 6282   2.189   2.323   8.851 -0.0552 -1.2614  0.3952
 2095SOL     OW 6283   2.852   2.675   9.332 -0.2949  0.0426 -0.3410
 2095SOL    HW1 6284   2.841   2.741   9.264  1.8846  0.1029 -0.7281
 2095SOL    HW2 6285   2.930   2.626   9.305 -1.4505 -2.2800  0.2928
 2096SOL     OW 6286   1.009   0.911   7.363 -0.0856  0.1577  0.7622
 2096SOL    HW1 6287   0.926   0.937   7.404  0.0927  0.8550  0.6929
 2096SOL    HW2 6288   1.007   0.815   7.362 -0.5581  0.1584  1.4442
 2097SOL     OW 6289   4.677   1.705   5.675  0.2434 -0.0575 -0.2744
 2097SOL    HW1 6290   4.746   1.759   5.637  0.8619 -0.5317  0.1467
 2097SOL    HW2 6291   4.636   1.662   5.600  1.0919 -0.5605 -0.4612
 2098SOL     OW 6292   1.971   1.680   7.166  0.6296  0.1436  0.9414
 2098SOL    HW1 6293   1.976   1.758   7.110 -1.1894 -0.4683 -0.1460
 2098SOL    HW2 6294   2.002   1.711   7.251  1.6038  1.6057  0.1060
 2099SOL     OW 6295   1.632   2.006   5.733 -0.3695 -0.2920 -0.3644
 2099SOL    HW1 6296   1.717   1.962   5.726 -0.2253 -0.1605  0.4492
 2099SOL    HW2 6297   1.642   2.086   5.681  0.1435 -0.0721  0.0690
 2100SOL     OW 6298   3.301   4.266   6.268 -0.4408  0.5525 -0.3971
 2100SOL    HW1 6299   3.389   4.229   6.262 -1.0146 -0.8931 -0.2596
 2100SOL    HW2 6300   3.295   4.324   6.192  0.9115  1.3374  0.0640
 2101SOL     OW 6301   3.956   1.859   5.781 -0.3327 -0.0522  0.1548
 2101SOL    HW1 6302   3.918   1.848   5.868 -1.9997 -2.7408 -0.7961
 2101SOL    HW2 6303   3.942   1.952   5.760 -4.8572 -0.3627  0.7013
 2102SOL     OW 6304   3.700   1.642   6.336 -0.0395 -0.0382  0.2679
 2102SOL    HW1 6305   3.637   1.691   6.389 -0.2535 -0.1467  0.1135
 2102SOL    HW2 6306   3.650   1.610   6.262  0.7044  1.9691 -1.1921
 2103SOL     OW 6307   2.013   1.978   5.935 -0.0734  0.4975 -0.0508
 2103SOL    HW1 6308   2.016   2.060   5.885  0.0378  0.1970 -0.5510
 2103SOL    HW2 6309   2.105   1.953   5.943 -0.1827 -0.5689 -1.5934
 2104SOL     OW 6310   4.016   1.556   6.593 -0.1648 -0.2767 -0.3482
 2104SOL    HW1 6311   4.075   1.626   6.620 -0.9922  0.4786 -0.4371
 2104SOL    HW2 6312   4.043   1.535   6.504  0.3065 -0.3142 -0.2003
 2105SOL     OW 6313   4.182   1.745   6.146  0.0639  0.1389  0.2194
 2105SOL    HW1 6314   4.136   1.683   6.202  1.3393 -1.6846 -0.6081
 2105SOL    HW2 6315   4.132   1.745   6.064  1.7002 -2.3437 -0.9158
 2106SOL     OW 6316   2.632   3.244   5.510 -0.1343  0.3206  0.1809
 2106SOL    HW1 6317   2.672   3.331   5.506  2.0509 -0.6633 -1.5643
 2106SOL    HW2 6318   2.693   3.191   5.559 -0.2009 -0.7973 -0.8997
 2107SOL     OW 6319   3.298   3.698   5.702  0.1608  0.3049 -0.0375
 2107SOL    HW1 6320   3.366   3.761   5.728  1.8622 -2.3211  2.4398
 2107SOL    HW2 6321   3.233   3.703   5.772 -0.6305  0.5427 -0.7726
 2108SOL     OW 6322   2.393   3.603   7.791  0.0138 -0.2611  0.2716
 2108SOL    HW1 6323   2.348   3.529   7.832  0.9619 -1.9012 -1.5318
 2108SOL    HW2 6324   2.340   3.623   7.714 -0.2323  0.9826  0.7407
 2109SOL     OW 6325   4.298   1.973   8.901 -0.2312 -0.1876  0.4724
 2109SOL    HW1 6326   4.303   1.984   8.996 -1.3914  1.0952  0.4068
 2109SOL    HW2 6327   4.251   1.890   8.889  0.1218 -0.4730  0.9936
 2110SOL     OW 6328   0.610   1.029   8.192  0.3464  0.3072 -0.7127
 2110SOL    HW1 6329   0.614   1.000   8.101  0.6066  0.1351 -0.6471
 2110SOL    HW2 6330   0.692   1.078   8.205 -0.2474  1.4016 -0.9308
 2111SOL     OW 6331   0.452   3.489   7.001  0.5810 -0.0027  0.1337
 2111SOL    HW1 6332   0.412   3.561   6.953  0.9365  0.8220  1.0327
 2111SOL    HW2 6333   0.454   3.416   6.939  4.3610  1.9755 -2.4604
 2112SOL     OW 6334   2.217   3.965   6.383  0.3135  0.5906 -0.1596
 2112SOL    HW1 6335   2.251   3.878   6.400 -0.8709  0.0144 -0.5807
 2112SOL    HW2 6336   2.188   3.997   6.469 -0.3545  0.0573 -0.1723
 2113SOL     OW 6337   3.985   2.302   7.671 -0.0646  0.4548  0.2460
 2113SOL    HW1 6338   3.937   2.233   7.717  1.0197 -1.2891 -1.1387
 2113SOL    HW2 6339   3.997   2.370   7.738 -2.6510  0.1199  1.1868
 2114SOL     OW 6340   1.276   4.474   8.146 -0.2508  0.0749  0.1095
 2114SOL    HW1 6341   1.295   4.383   8.122  0.8087 -0.1178  1.5532
 2114SOL    HW2 6342   1.181   4.477   8.155 -0.2104 -1.2388  1.3079
 2115SOL     OW 6343   1.873   0.438   6.284 -0.0565 -0.5617 -0.3369
 2115SOL    HW1 6344   1.955   0.392   6.303 -0.5127 -1.5779 -0.7618
 2115SOL    HW2 6345   1.864   0.432   6.189 -0.8383 -0.8139 -0.2472
 2116SOL     OW 6346   1.801   3.635   7.424 -0.0828 -0.4677  0.1750
 2116SOL    HW1 6347   1.752   3.716   7.442  2.1726  0.7573  1.1389
 2116SOL    HW2 6348   1.749   3.591   7.356 -0.7743  2.3755 -1.3214
 2117SOL     OW 6349   4.431   3.688   4.904 -0.5962  0.1198  0.3962
 2117SOL    HW1 6350   4.500   3.660   4.964  1.1803  1.5731 -0.8429
 2117SOL    HW2 6351   4.437   3.784   4.904 -2.0065  0.2392 -0.4674
 2118SOL     OW 6352   4.426   1.559   5.264 -0.1415  0.1741  0.0895
 2118SOL    HW1 6353   4.487   1.533   5.333 -0.2863 -0.1007  0.1135
 2118SOL    HW2 6354   4.345   1.513   5.285 -0.0716 -0.2169 -0.4791
 2119SOL     OW 6355   3.475   2.653   5.540  0.0057 -0.6761  0.5677
 2119SOL    HW1 6356   3.524   2.571   5.538  0.0077 -0.7217  1.6380
 2119SOL    HW2 6357   3.469   2.674   5.633 -0.5682  0.1953  0.3414
 2120SOL     OW 6358   3.493   1.296   6.422 -0.4784 -0.5862  0.1975
 2120SOL    HW1 6359   3.495   1.223   6.361 -1.1243  0.2508 -0.8630
 2120SOL    HW2 6360   3.492   1.374   6.367  0.6534  0.2509  1.3104
 2121SOL     OW 6361   3.404   3.555   5.177 -0.1386 -0.0852 -0.1843
 2121SOL    HW1 6362   3.466   3.554   5.251 -0.6891  1.0788  0.3189
 2121SOL    HW2 6363   3.319   3.571   5.217 -0.4241  0.7257 -1.0749
 2122SOL     OW 6364   3.960   1.548   7.570  0.6369 -0.3640  0.3414
 2122SOL    HW1 6365   4.037   1.564   7.625 -1.0748  0.5722  2.5804
 2122SOL    HW2 6366   3.960   1.621   7.508  0.6296  0.6099  1.4516
 2123SOL     OW 6367   4.638   2.794   7.044  0.2265 -0.1986 -0.2363
 2123SOL    HW1 6368   4.621   2.714   7.095 -0.6279 -0.8817 -1.5300
 2123SOL    HW2 6369   4.564   2.851   7.062  0.3202 -0.1100 -0.1232
 2124SOL     OW 6370   2.202   1.602   7.021 -0.4829 -0.0832  0.9914
 2124SOL    HW1 6371   2.125   1.591   7.077 -1.3383  1.4891  0.1951
 2124SOL    HW2 6372   2.167   1.629   6.937  0.7422 -2.8039 -0.5186
 2125SOL     OW 6373   2.725   2.507   6.692 -0.5780 -0.0374  0.0147
 2125SOL    HW1 6374   2.729   2.498   6.787 -0.8114  1.3957  0.1957
 2125SOL    HW2 6375   2.691   2.596   6.679 -1.1893 -0.4631 -1.4063
 2126SOL     OW 6376   4.854   3.118   8.030 -0.3670 -0.4808  0.2130
 2126SOL    HW1 6377   4.919   3.053   8.005 -1.5107 -0.8975 -1.9192
 2126SOL    HW2 6378   4.772   3.084   7.995 -1.5154  0.6938  1.6387
 2127SOL     OW 6379   3.919   1.804   6.046  0.3568 -0.5978  0.2576
 2127SOL    HW1 6380   3.825   1.823   6.045  0.1771 -1.4216 -0.8121
 2127SOL    HW2 6381   3.948   1.828   6.134 -0.6116  0.8091  0.2246
 2128SOL     OW 6382   2.426   3.142   5.676 -0.6870 -0.1380  0.0561
 2128SOL    HW1 6383   2.382   3.219   5.711 -0.8995 -0.0133 -0.4769
 2128SOL    HW2 6384   2.489   3.177   5.613  0.3694 -0.2974  0.9981
 2129SOL     OW 6385   2.661   4.884   5.259  0.2582  0.6552  0.2055
 2129SOL    HW1 6386   2.738   4.830   5.271  1.6796  2.5210 -0.0072
 2129SOL    HW2 6387   2.612   4.875   5.341  0.1982 -1.2532 -0.0064
 2130SOL     OW 6388   3.212   1.790   7.976  0.0654 -0.2426  0.0994
 2130SOL    HW1 6389   3.197   1.803   7.883 -0.7845  1.2945  0.4243
 2130SOL    HW2 6390   3.124   1.786   8.014  0.3593  2.2511  1.2051
 2131SOL     OW 6391   1.428   4.399   5.886  0.0309 -0.3379 -0.2117
 2131SOL    HW1 6392   1.410   4.445   5.804  0.0145 -1.8906 -1.1186
 2131SOL    HW2 6393   1.448   4.310   5.859  3.0016 -0.2345  1.2235
 2132SOL     OW 6394   2.122   2.476   5.605  0.0601  0.3134 -0.0550
 2132SOL    HW1 6395   2.212   2.444   5.592 -1.0281 -2.6173 -1.4652
 2132SOL    HW2 6396   2.115   2.489   5.699  1.8350  0.1964  0.1423
 2133SOL     OW 6397   3.828   2.726   6.989  0.0041  0.3394 -0.2492
 2133SOL    HW1 6398   3.844   2.756   6.899  1.8766  0.3120  0.0321
 2133SOL    HW2 6399   3.913   2.695   7.019 -0.8000 -0.5239  1.2341
 2134SOL     OW 6400   3.507   0.789   7.323 -0.0324 -0.1990 -0.0471
 2134SOL    HW1 6401   3.431   0.730   7.327 -0.8862  0.8376 -0.4173
 2134SOL    HW2 6402   3.471   0.875   7.344  1.0070  0.3550 -0.4707
 2135SOL     OW 6403   3.850   2.992   5.002 -0.2564 -0.0659  0.2645
 2135SOL    HW1 6404   3.765   3.036   4.999  0.2033  0.8383  0.1101
 2135SOL    HW2 6405   3.898   3.036   5.072  0.2147 -0.3329  0.1203
 2136SOL     OW 6406   2.861   1.728   6.937  0.5528  0.0533  1.0319
 2136SOL    HW1 6407   2.851   1.710   6.843 -0.2769  2.2317  0.6481
 2136SOL    HW2 6408   2.913   1.654   6.970  1.6496 -0.3128 -1.2989
 2137SOL     OW 6409   1.343   0.504   6.510  0.1662  0.6977 -0.1853
 2137SOL    HW1 6410   1.346   0.503   6.414  1.2186 -0.0857 -0.1769
 2137SOL    HW2 6411   1.418   0.558   6.535 -0.2080  1.0387  0.1976
 2138SOL     OW 6412   3.873   2.346   6.595  0.0218 -0.1786 -0.1341
 2138SOL    HW1 6413   3.809   2.275   6.589  0.3106 -0.5182  0.6238
 2138SOL    HW2 6414   3.937   2.314   6.659  0.8519  0.2286 -0.7494
 2139SOL     OW 6415   1.131   2.051   6.794 -0.0959 -0.0598 -0.4564
 2139SOL    HW1 6416   1.055   1.993   6.803  0.7763 -1.4006 -1.2967
 2139SOL    HW2 6417   1.187   2.029   6.868  0.9892 -1.5405 -1.6514
 2140SOL     OW 6418   3.626   1.537   5.998  0.8848 -0.3423  0.2375
 2140SOL    HW1 6419   3.710   1.530   5.953  0.4639  0.6706 -0.7833
 2140SOL    HW2 6420   3.562   1.546   5.927 -0.2225 -2.1003  0.9557
 2141SOL     OW 6421   4.674   3.582   5.949  0.3176 -0.1399 -0.3641
 2141SOL    HW1 6422   4.735   3.516   5.915  0.1553  0.1566 -1.2770
 2141SOL    HW2 6423   4.588   3.550   5.922  0.0905 -0.4221  0.6856
 2142SOL     OW 6424   3.422   2.720   5.028  0.0315  0.2533 -0.0366
 2142SOL    HW1 6425   3.368   2.644   5.051 -3.2786  1.8114 -1.8178
 2142SOL    HW2 6426   3.495   2.684   4.979 -1.5077 -1.8182 -0.9634
 2143SOL     OW 6427   2.028   3.758   6.252  0.0359  0.4745 -0.5242
 2143SOL    HW1 6428   1.976   3.678   6.241 -1.0877  1.0694  0.3052
 2143SOL    HW2 6429   1.964   3.829   6.247  0.7563  1.2225  0.5897
 2144SOL     OW 6430   0.853   2.808   6.663  0.2376 -0.1209  0.4995
 2144SOL    HW1 6431   0.867   2.763   6.580  0.9066  0.0450  0.5172
 2144SOL    HW2 6432   0.887   2.897   6.649  1.0034 -0.3002  1.1623
 2145SOL     OW 6433   4.250   3.321   6.975 -0.1470  0.0809  0.6708
 2145SOL    HW1 6434   4.268   3.260   7.047 -0.6201  0.6761  1.3073
 2145SOL    HW2 6435   4.160   3.301   6.948  0.3560 -0.7943 -0.4201
 2146SOL     OW 6436   2.614   3.808   6.313  0.3453  0.0092  0.8984
 2146SOL    HW1 6437   2.596   3.892   6.356 -0.8506 -0.7928  2.0282
 2146SOL    HW2 6438   2.621   3.830   6.220  1.5585  1.5738  1.3257
 2147SOL     OW 6439   0.961   0.575   5.701  0.3648 -0.0111  0.5092
 2147SOL    HW1 6440   0.988   0.641   5.637  1.3810  0.5085  1.4385
 2147SOL    HW2 6441   0.965   0.492   5.654 -5.3724  0.7266 -2.1970
 2148SOL     OW 6442   2.437   1.965   7.184 -0.1943 -0.3504 -0.0113
 2148SOL    HW1 6443   2.498   1.924   7.123 -1.5122 -3.1125  0.3959
 2148SOL    HW2 6444   2.471   2.054   7.195  0.7732 -0.0831 -3.7947
 2149SOL     OW 6445   4.647   2.379   5.506 -0.2897 -0.0234  0.3235
 2149SOL    HW1 6446   4.648   2.473   5.523  1.8872 -0.2780  2.0270
 2149SOL    HW2 6447   4.610   2.341   5.585  0.1062 -0.6542  0.2108
 2150SOL     OW 6448   2.675   3.595   5.488 -0.0528  0.7246 -0.1334
 2150SOL    HW1 6449   2.605   3.601   5.554  0.9164 -2.2648  1.3387
 2150SOL    HW2 6450   2.630   3.568   5.408 -0.8503  1.3014  0.0996
 2151SOL     OW 6451   1.627   4.833   7.451  0.1929  0.3910 -0.4525
 2151SOL    HW1 6452   1.653   4.925   7.462  0.0947  0.4018 -0.3158
 2151SOL    HW2 6453   1.588   4.830   7.364 -1.2874  0.8219  0.1661
 2152SOL     OW 6454   2.343   1.833   6.723 -0.2045 -0.1118 -0.4724
 2152SOL    HW1 6455   2.342   1.923   6.754  0.0032  0.5781 -2.3639
 2152SOL    HW2 6456   2.283   1.787   6.781 -0.3448  1.2436  0.5002
 2153SOL     OW 6457   4.087   3.302   6.593 -0.1750  0.3352  0.0298
 2153SOL    HW1 6458   4.097   3.306   6.498 -0.1767  1.2714  0.0559
 2153SOL    HW2 6459   4.126   3.219   6.618 -1.6715 -0.7071 -0.9670
 2154SOL     OW 6460   3.740   3.789   7.410 -0.3456 -0.2880 -0.1261
 2154SOL    HW1 6461   3.827   3.785   7.450 -0.3268 -0.8204 -0.2165
 2154SOL    HW2 6462   3.751   3.851   7.337  0.7307 -2.4893 -1.9427
 2155SOL     OW 6463   3.271   2.451   5.054  0.1363 -0.4843 -0.2334
 2155SOL    HW1 6464   3.267   2.460   5.149 -1.0057  0.8913 -0.3752
 2155SOL    HW2 6465   3.350   2.398   5.038  1.4325  0.8393  1.3737
 2156SOL     OW 6466   1.638   0.382   6.398  0.0863  0.0826  0.6096
 2156SOL    HW1 6467   1.704   0.413   6.336  0.5296 -0.7714  0.6420
 2156SOL    HW2 6468   1.678   0.306   6.440 -1.9305 -2.2977 -1.4381
 2157SOL     OW 6469   3.419   0.501   6.004 -0.0705 -0.1475  0.1883
 2157SOL    HW1 6470   3.392   0.575   5.949  0.5024 -1.2653 -1.6873
 2157SOL    HW2 6471   3.340   0.447   6.012  0.3172 -0.9783 -1.2516
 2158SOL     OW 6472   4.160   3.286   6.303  0.0968 -0.3657  0.4322
 2158SOL    HW1 6473   4.102   3.234   6.249 -0.7730  0.8633  0.1300
 2158SOL    HW2 6474   4.205   3.344   6.242  0.3566 -0.1161  0.8496
 2159SOL     OW 6475   4.761   1.505   6.416 -0.0844 -0.1054  0.1564
 2159SOL    HW1 6476   4.743   1.415   6.390 -0.9887  0.3647 -0.8918
 2159SOL    HW2 6477   4.838   1.498   6.473  1.2113 -1.2990 -1.6504
 2160SOL     OW 6478   1.775   2.828   6.140  0.6815  0.1522 -0.3099
 2160SOL    HW1 6479   1.716   2.868   6.204  2.9388  2.3286  0.5580
 2160SOL    HW2 6480   1.768   2.883   6.063  0.9080 -0.1239 -0.5308
 2161SOL     OW 6481   4.651   1.258   6.355  0.3080  0.3495  0.6906
 2161SOL    HW1 6482   4.727   1.222   6.308 -0.2061 -0.7955  0.7037
 2161SOL    HW2 6483   4.619   1.185   6.408 -1.4350  0.4953 -0.0980
 2162SOL     OW 6484   4.853   2.715   5.918 -0.2204  0.1492  0.4732
 2162SOL    HW1 6485   4.772   2.759   5.942 -0.5393 -0.4449  0.5271
 2162SOL    HW2 6486   4.871   2.656   5.991  0.2816  0.3030  0.4785
 2163SOL     OW 6487   3.596   2.489   6.746 -0.0031  0.0246 -0.4234
 2163SOL    HW1 6488   3.503   2.501   6.764 -0.1858 -0.0896 -1.2238
 2163SOL    HW2 6489   3.613   2.545   6.669  0.3099 -0.8459 -1.0069
 2164SOL     OW 6490   1.144   1.086   5.490 -0.4032  0.0446  0.2580
 2164SOL    HW1 6491   1.059   1.046   5.506 -0.4241 -0.6552 -1.3653
 2164SOL    HW2 6492   1.184   1.030   5.423  0.3334  1.6897 -0.7360
 2165SOL     OW 6493   3.277   0.087   5.779  0.7542 -0.7359  0.6294
 2165SOL    HW1 6494   3.233   0.062   5.697  0.2316  0.7266  0.4359
 2165SOL    HW2 6495   3.370   0.073   5.762  0.5246 -2.1108  0.4034
 2166SOL     OW 6496   1.939   3.224   5.678 -0.3861  0.0320 -0.3863
 2166SOL    HW1 6497   1.922   3.161   5.608 -0.0181 -0.2202 -0.2519
 2166SOL    HW2 6498   1.982   3.297   5.635  0.6401 -0.5007 -0.2901
 2167SOL     OW 6499   4.664   2.007   6.955  0.3155 -0.2685  0.5927
 2167SOL    HW1 6500   4.659   2.079   6.891 -2.3769 -0.2645  0.6958
 2167SOL    HW2 6501   4.716   2.043   7.027  2.7434  0.0078 -1.1645
 2168SOL     OW 6502   3.901   0.805   5.348  0.1149  0.0848 -0.2293
 2168SOL    HW1 6503   3.826   0.865   5.349  0.1281  0.0997  0.1695
 2168SOL    HW2 6504   3.896   0.762   5.263 -0.4699 -0.0662 -0.1250
 2169SOL     OW 6505   2.718   0.558   7.463 -0.1998 -0.1751  0.2299
 2169SOL    HW1 6506   2.814   0.561   7.468 -0.1472  2.4529 -0.7599
 2169SOL    HW2 6507   2.689   0.572   7.554  0.3495 -0.6029  0.4763
 2170SOL     OW 6508   3.320   3.314   7.371  0.1759 -0.2654 -0.1325
 2170SOL    HW1 6509   3.255   3.317   7.441 -0.6458  0.2415 -0.8967
 2170SOL    HW2 6510   3.394   3.364   7.406  0.6065 -1.7231  1.1537
 2171SOL     OW 6511   0.367   1.574   6.189  0.0435  0.5831  0.1714
 2171SOL    HW1 6512   0.410   1.637   6.246 -1.0669  1.0058  0.5481
 2171SOL    HW2 6513   0.293   1.541   6.240  0.8064 -1.3110  0.1287
 2172SOL     OW 6514   3.111   1.494   6.422 -0.4588 -0.0033 -0.0258
 2172SOL    HW1 6515   3.139   1.585   6.434  0.6935  0.1453 -3.0403
 2172SOL    HW2 6516   3.193   1.444   6.429 -0.9830 -0.7597  0.8987
 2173SOL     OW 6517   3.443   2.522   6.361 -0.1226  0.4026 -0.1188
 2173SOL    HW1 6518   3.538   2.508   6.355  0.2192  1.7667  1.4017
 2173SOL    HW2 6519   3.414   2.460   6.427 -0.1822  0.3599 -0.1861
 2174SOL     OW 6520   3.782   1.954   6.568  0.0011 -0.1163 -0.8069
 2174SOL    HW1 6521   3.733   2.030   6.600 -0.6933 -1.2923  1.0847
 2174SOL    HW2 6522   3.715   1.889   6.546  0.6272 -1.0145 -0.1335
 2175SOL     OW 6523   4.371   2.131   7.259 -0.4013 -0.6246  0.5338
 2175SOL    HW1 6524   4.355   2.041   7.231  0.3498 -0.8468  0.7737
 2175SOL    HW2 6525   4.315   2.143   7.335 -1.1573 -0.5942 -0.0207
 2176SOL     OW 6526   3.717   0.789   7.577  0.3451 -0.2232 -0.3497
 2176SOL    HW1 6527   3.705   0.884   7.576 -1.5418 -0.4103  0.4487
 2176SOL    HW2 6528   3.789   0.773   7.516 -1.1208  1.4934 -2.6826
 2177SOL     OW 6529   1.595   2.608   6.365  0.3867 -0.2842  0.2913
 2177SOL    HW1 6530   1.595   2.558   6.283 -0.6728  0.1780 -0.0050
 2177SOL    HW2 6531   1.606   2.699   6.337  2.9385 -0.3304  0.8594
 2178SOL     OW 6532   3.950   1.848   5.265  0.7157  0.8930  0.0122
 2178SOL    HW1 6533   3.940   1.898   5.185  0.6317 -0.0917 -0.6100
 2178SOL    HW2 6534   3.916   1.905   5.334 -0.7248  1.1334 -0.8607
 2179SOL     OW 6535   2.775   0.930   9.029 -0.0425  0.3951 -0.4382
 2179SOL    HW1 6536   2.731   0.931   8.945 -2.5237 -0.7660  0.7530
 2179SOL    HW2 6537   2.764   0.840   9.061 -1.3018  1.3665  2.1324
 2180SOL     OW 6538   2.608   0.677   5.495  0.0381 -0.6164 -0.1959
 2180SOL    HW1 6539   2.655   0.600   5.462 -1.0574 -0.9500 -1.0179
 2180SOL    HW2 6540   2.528   0.642   5.533 -0.5355  0.1222 -0.6963
 2181SOL     OW 6541   3.747   0.619   5.841 -0.4283  0.7152  0.7609
 2181SOL    HW1 6542   3.733   0.527   5.862  0.7542  0.4683  0.5420
 2181SOL    HW2 6543   3.827   0.643   5.888  0.8379  0.8507 -1.3350
 2182SOL     OW 6544   2.565   1.939   6.432 -0.4106 -0.2885  0.6818
 2182SOL    HW1 6545   2.586   1.911   6.521 -0.9420 -0.7053  0.6863
 2182SOL    HW2 6546   2.498   1.877   6.403  0.4641 -0.7817 -0.3775
 2183SOL     OW 6547   3.523   4.284   5.492 -0.2226 -0.6080  0.3381
 2183SOL    HW1 6548   3.533   4.338   5.571 -0.0601 -0.6201  0.3264
 2183SOL    HW2 6549   3.609   4.243   5.481 -0.3056 -0.7597  0.2672
 2184SOL     OW 6550   4.131   2.146   7.364 -0.0941  0.4751  0.3390
 2184SOL    HW1 6551   4.035   2.138   7.366 -0.1774  1.3318  0.1002
 2184SOL    HW2 6552   4.160   2.104   7.445 -0.7062  0.5734  0.6162
 2185SOL     OW 6553   3.222   1.229   5.037 -0.6138 -0.3281  0.0441
 2185SOL    HW1 6554   3.137   1.256   5.071 -0.2676 -0.5175  1.1088
 2185SOL    HW2 6555   3.279   1.304   5.054 -0.1790 -0.8384  0.9501
 2186SOL     OW 6556   2.667   2.778   6.601  0.0519  0.4387 -0.1387
 2186SOL    HW1 6557   2.646   2.850   6.660 -0.3457 -0.0773  0.3624
 2186SOL    HW2 6558   2.702   2.820   6.522  3.6744  1.0878  1.5920
 2187SOL     OW 6559   3.812   2.621   6.506  0.2016 -0.2056  0.6356
 2187SOL    HW1 6560   3.823   2.526   6.509  0.2262 -0.2264 -0.0005
 2187SOL    HW2 6561   3.771   2.637   6.422  1.2351  0.4584  0.2460
 2188SOL     OW 6562   1.178   2.621   6.466  0.0215 -0.2144  0.0716
 2188SOL    HW1 6563   1.107   2.675   6.499  0.1922  0.6763 -0.9608
 2188SOL    HW2 6564   1.137   2.563   6.402 -0.0676 -0.9787  0.7934
 2189SOL     OW 6565   2.097   1.225   6.160  0.8302 -0.1456 -0.5565
 2189SOL    HW1 6566   2.140   1.243   6.244 -0.6018 -0.8016  0.3542
 2189SOL    HW2 6567   2.045   1.303   6.142 -0.0552 -0.6015 -0.0419
 2190SOL     OW 6568   3.453   4.923   8.732 -0.4779  0.4179  0.0181
 2190SOL    HW1 6569   3.541   4.956   8.715  0.0555 -0.4640  0.9188
 2190SOL    HW2 6570   3.406   4.935   8.650  0.7327  0.1411 -0.7375
 2191SOL     OW 6571   0.132   3.500   7.914 -0.4382  0.2144  0.6892
 2191SOL    HW1 6572   0.219   3.493   7.954  0.7629  2.1491 -1.3111
 2191SOL    HW2 6573   0.118   3.415   7.871  0.6660  0.0347  0.6623
 2192SOL     OW 6574   3.941  -0.014   6.636 -0.0827 -0.0681  0.4001
 2192SOL    HW1 6575   3.859   0.013   6.593 -0.3596 -3.6288 -1.6390
 2192SOL    HW2 6576   3.975   0.067   6.674 -2.3953  2.3882 -2.2976
 2193SOL     OW 6577   3.064   3.768   6.948 -0.1807  0.4073 -0.4086
 2193SOL    HW1 6578   2.999   3.770   7.018  0.6414  0.0243  0.3907
 2193SOL    HW2 6579   3.087   3.860   6.934 -2.0158  0.7216 -1.8260
 2194SOL     OW 6580   4.478   2.019   5.501 -0.4369 -0.0751 -0.2217
 2194SOL    HW1 6581   4.535   2.029   5.577  0.9211 -0.6439 -1.1194
 2194SOL    HW2 6582   4.442   2.107   5.486  1.0774  0.5606 -0.2851
 2195SOL     OW 6583   0.995   3.306   5.894 -0.1010  0.3476  0.3936
 2195SOL    HW1 6584   0.914   3.313   5.945 -0.4486  0.2004 -0.1373
 2195SOL    HW2 6585   1.017   3.213   5.896 -0.9172  0.1058 -0.9499
 2196SOL     OW 6586   1.313   3.979   7.004 -0.3239  0.1826 -0.2309
 2196SOL    HW1 6587   1.225   3.977   6.969 -0.0213 -2.3070 -1.0664
 2196SOL    HW2 6588   1.301   3.985   7.099 -1.3266  1.1787 -0.4065
 2197SOL     OW 6589   2.572   1.672   6.070 -0.0367 -0.0962  0.2438
 2197SOL    HW1 6590   2.477   1.675   6.069 -0.0338  0.1209  0.5134
 2197SOL    HW2 6591   2.595   1.647   6.160  0.1756  0.6701  0.4145
 2198SOL     OW 6592   3.126   3.660   7.457 -0.2908  0.0639 -0.6021
 2198SOL    HW1 6593   3.156   3.737   7.504  1.6008 -0.7250 -0.4099
 2198SOL    HW2 6594   3.177   3.659   7.376  0.6656 -1.6087 -0.0416
 2199SOL     OW 6595   3.812   3.445   6.375 -0.0671 -0.1463  0.7079
 2199SOL    HW1 6596   3.772   3.523   6.336 -0.1627 -0.2811  0.5353
 2199SOL    HW2 6597   3.904   3.449   6.347 -0.0869 -0.1303  0.6455
 2200SOL     OW 6598   2.109   3.667   5.242  0.0878 -0.5403 -0.9337
 2200SOL    HW1 6599   2.202   3.655   5.257  0.3440  0.9414 -1.1109
 2200SOL    HW2 6600   2.102   3.690   5.149 -0.1444  1.5894 -0.4579
 2201SOL     OW 6601   0.838   1.735   5.669 -0.3481  0.7269 -0.3685
 2201SOL    HW1 6602   0.744   1.744   5.654 -0.0630  1.5772 -1.7605
 2201SOL    HW2 6603   0.847   1.740   5.764 -1.6812  0.8336 -0.2229
 2202SOL     OW 6604   2.595   1.454   5.415 -0.0756 -0.4522  0.4110
 2202SOL    HW1 6605   2.680   1.432   5.453  0.5956  4.1546  2.2855
 2202SOL    HW2 6606   2.613   1.529   5.358 -2.8253  0.5128  0.6491
 2203SOL     OW 6607   2.984   4.138   5.799 -0.2597 -0.2072 -0.5396
 2203SOL    HW1 6608   2.904   4.089   5.818  0.1862 -1.0847 -0.8797
 2203SOL    HW2 6609   2.963   4.228   5.823 -2.0709 -0.0099 -2.5814
 2204SOL     OW 6610   0.594   2.356   6.407  0.3012  0.0191 -0.7698
 2204SOL    HW1 6611   0.623   2.361   6.316 -0.3596 -0.3145 -1.0052
 2204SOL    HW2 6612   0.670   2.322   6.455  0.6755  0.2744 -1.1826
 2205SOL     OW 6613   2.848   2.775   5.498  0.5253 -0.0547 -0.2338
 2205SOL    HW1 6614   2.917   2.715   5.528  0.1570 -0.9923 -1.2252
 2205SOL    HW2 6615   2.804   2.802   5.578  0.7993 -0.9842  0.2498
 2206SOL     OW 6616   2.127   4.567   7.072 -0.7008  0.4157 -0.1487
 2206SOL    HW1 6617   2.120   4.591   6.980 -0.5766 -1.2217 -0.6110
 2206SOL    HW2 6618   2.194   4.625   7.107 -1.9375  2.2477 -0.6390
 2207SOL     OW 6619   4.591   2.630   5.688  0.0934  0.6439  0.4850
 2207SOL    HW1 6620   4.648   2.680   5.630  0.6859 -0.2962  0.2299
 2207SOL    HW2 6621   4.647   2.606   5.762  0.1696 -0.6148  0.0460
 2208SOL     OW 6622   0.245   4.191   7.085  0.0554  0.3960 -0.3505
 2208SOL    HW1 6623   0.237   4.280   7.120  1.2256  0.4191 -0.1261
 2208SOL    HW2 6624   0.322   4.194   7.029  1.2437 -0.9258  1.1104
 2209SOL     OW 6625   3.187   0.386   5.174  0.3655  0.6081 -0.5084
 2209SOL    HW1 6626   3.262   0.395   5.232  1.1542 -0.6602 -1.2905
 2209SOL    HW2 6627   3.113   0.373   5.233  0.9198  0.8245  0.2488
 2210SOL     OW 6628   2.160   4.674   8.379 -0.2260  0.0775 -0.1361
 2210SOL    HW1 6629   2.146   4.715   8.464  0.6314 -1.3658  0.7292
 2210SOL    HW2 6630   2.091   4.608   8.372  0.7065 -0.9543  0.2025
 2211SOL     OW 6631   1.628   2.986   7.140  0.0786 -0.0111  0.3953
 2211SOL    HW1 6632   1.562   2.954   7.079  0.8076 -1.8668  0.5160
 2211SOL    HW2 6633   1.609   3.079   7.149 -1.9259 -0.3057 -0.2924
 2212SOL     OW 6634   4.342   3.738   5.613  0.1231 -0.0923 -0.1554
 2212SOL    HW1 6635   4.359   3.674   5.544 -1.6527 -1.8832  0.9454
 2212SOL    HW2 6636   4.274   3.698   5.667 -1.5463  3.0198  0.2918
 2213SOL     OW 6637   2.265   0.732   6.746  0.0793 -0.5925 -0.3440
 2213SOL    HW1 6638   2.312   0.660   6.705  1.1251 -2.5060  3.7609
 2213SOL    HW2 6639   2.333   0.783   6.791 -1.1501 -0.1082  1.0451
 2214SOL     OW 6640   3.323   2.231   6.791  0.3727 -0.1559 -0.0448
 2214SOL    HW1 6641   3.320   2.201   6.882  0.4424 -0.8190 -0.2588
 2214SOL    HW2 6642   3.258   2.177   6.746 -0.0285  0.5136 -0.2982
 2215SOL     OW 6643   2.065   4.315   7.152 -0.1395  0.2190 -0.1851
 2215SOL    HW1 6644   1.994   4.318   7.217  1.0046  2.6616  1.0870
 2215SOL    HW2 6645   2.082   4.407   7.132  0.7249 -0.4132 -2.7244
 2216SOL     OW 6646   2.394   2.401   5.633 -0.5838 -0.1851 -0.6048
 2216SOL    HW1 6647   2.450   2.469   5.669  2.1771 -2.6715  0.1907
 2216SOL    HW2 6648   2.407   2.407   5.538  0.7290 -0.4392 -0.4557
 2217SOL     OW 6649   2.819   2.925   8.450 -0.0945  0.5603  0.3657
 2217SOL    HW1 6650   2.770   2.883   8.380  0.0901  1.4326 -0.3055
 2217SOL    HW2 6651   2.909   2.892   8.440 -0.0926  0.5968  0.2596
 2218SOL     OW 6652   1.757   1.661   6.291  0.0014  0.9610  0.2668
 2218SOL    HW1 6653   1.765   1.714   6.211 -0.5234  0.8738  0.1551
 2218SOL    HW2 6654   1.663   1.654   6.306  0.0324 -0.4767 -0.0722
 2219SOL     OW 6655   3.879   0.331   5.661 -0.2273  0.0708 -0.1384
 2219SOL    HW1 6656   3.893   0.278   5.583 -0.4551  0.8311 -0.7138
 2219SOL    HW2 6657   3.841   0.413   5.628 -0.0266  0.5330  0.7351
 2220SOL     OW 6658   3.946   3.532   7.993  0.4148  0.0637 -0.3525
 2220SOL    HW1 6659   3.864   3.580   7.990  0.2641 -0.1036  0.6777
 2220SOL    HW2 6660   3.964   3.508   7.902 -1.4680 -1.2398 -0.4228
 2221SOL     OW 6661   3.754   3.117   7.968 -0.0425  0.2229  0.2264
 2221SOL    HW1 6662   3.785   3.196   8.011 -0.9562  1.5407 -1.4346
 2221SOL    HW2 6663   3.707   3.069   8.036  1.3204  0.6085  1.4876
 2222SOL     OW 6664   1.424   2.158   5.175  0.1527 -0.2944  0.6402
 2222SOL    HW1 6665   1.453   2.205   5.097  0.7300 -2.0712 -0.2706
 2222SOL    HW2 6666   1.329   2.168   5.175  0.2295  0.4979  0.2354
 2223SOL     OW 6667   2.898   2.726   5.004  0.7043 -0.2568 -0.1523
 2223SOL    HW1 6668   2.922   2.640   5.038  1.7306  0.7553  1.9533
 2223SOL    HW2 6669   2.981   2.774   4.999  0.1503  0.6375 -1.1866
 2224SOL     OW 6670   2.389   2.531   6.170 -0.3965  0.2014  0.4414
 2224SOL    HW1 6671   2.357   2.605   6.119 -0.9578 -0.7081 -0.5636
 2224SOL    HW2 6672   2.342   2.455   6.135 -0.0053 -0.6069  1.5956
 2225SOL     OW 6673   4.041   0.132   5.104  0.3605 -0.3432 -0.1252
 2225SOL    HW1 6674   4.043   0.133   5.200  1.8021  1.8618 -0.1093
 2225SOL    HW2 6675   4.003   0.216   5.080 -0.6891 -1.1796 -1.5195
 2226SOL     OW 6676   3.639   2.169   6.658  0.4885 -0.3946  0.4310
 2226SOL    HW1 6677   3.590   2.102   6.704 -1.4959  0.3517 -0.4741
 2226SOL    HW2 6678   3.572   2.224   6.617  2.0476  1.5906  0.3683
 2227SOL     OW 6679   0.432   2.807   8.552  0.0039  0.9704  0.2921
 2227SOL    HW1 6680   0.490   2.874   8.588 -0.4077  1.0483  0.8268
 2227SOL    HW2 6681   0.477   2.724   8.569  0.7356  1.1301 -0.7866
 2228SOL     OW 6682   3.359   2.930   6.771 -0.0086 -0.0520 -0.0285
 2228SOL    HW1 6683   3.274   2.927   6.814  0.1903  0.1090  0.3953
 2228SOL    HW2 6684   3.420   2.898   6.838  0.3063  0.1838 -0.2007
 2229SOL     OW 6685   2.926   1.568   5.168 -0.2942  0.5323  0.2745
 2229SOL    HW1 6686   2.971   1.578   5.252 -1.4970  1.0290  0.8790
 2229SOL    HW2 6687   2.870   1.645   5.162 -2.8857 -1.1984  0.7022
 2230SOL     OW 6688   0.585   0.766   5.172 -0.0669 -0.3047  0.2913
 2230SOL    HW1 6689   0.615   0.697   5.114  0.2355 -0.3711  0.5237
 2230SOL    HW2 6690   0.563   0.720   5.254 -1.1250 -0.3069  0.0188
 2231SOL     OW 6691   2.863   1.298   5.167  0.0359 -0.0772 -0.5341
 2231SOL    HW1 6692   2.857   1.392   5.147 -1.2397 -0.4904 -2.3220
 2231SOL    HW2 6693   2.854   1.294   5.262  0.1737  1.6141 -0.4085
 2232SOL     OW 6694   0.795   1.145   6.482 -0.1511 -0.2403  0.4463
 2232SOL    HW1 6695   0.727   1.102   6.431  1.5131 -2.5190 -0.0513
 2232SOL    HW2 6696   0.807   1.089   6.559  1.6984 -0.4444  0.0785
 2233SOL     OW 6697   1.424   3.098   6.807 -0.0658 -0.8384  0.0138
 2233SOL    HW1 6698   1.456   3.117   6.719 -1.1017  0.4211 -0.1204
 2233SOL    HW2 6699   1.375   3.177   6.833 -2.3259 -2.3095  0.5309
 2234SOL     OW 6700   3.521   3.529   6.379  0.1584 -0.6859 -0.1577
 2234SOL    HW1 6701   3.468   3.596   6.337 -0.1190 -1.1337 -0.5372
 2234SOL    HW2 6702   3.559   3.572   6.455 -1.7080 -0.6630  0.8185
 2235SOL     OW 6703   1.450   1.645   5.583 -0.1955  0.1849  0.0630
 2235SOL    HW1 6704   1.479   1.592   5.509 -1.2749 -0.8233  0.3248
 2235SOL    HW2 6705   1.393   1.712   5.543  0.9518  0.9992 -0.2386
 2236SOL     OW 6706   2.269   1.696   6.006 -0.6634  0.1293 -0.7670
 2236SOL    HW1 6707   2.265   1.791   5.995  0.9498  0.3294  0.0717
 2236SOL    HW2 6708   2.303   1.664   5.923  0.6546  0.4947 -0.3820
 2237SOL     OW 6709   2.441   0.083   8.112 -0.0906 -0.0584 -1.0373
 2237SOL    HW1 6710   2.464   0.003   8.064 -2.1017 -1.7222  0.5618
 2237SOL    HW2 6711   2.478   0.071   8.199 -0.4402  0.7373 -0.7619
 2238SOL     OW 6712   4.144   3.367   7.284  0.0041  0.1230 -0.5539
 2238SOL    HW1 6713   4.093   3.299   7.239  2.3753 -2.2165  0.0292
 2238SOL    HW2 6714   4.234   3.352   7.255  0.9739  1.3736  1.5753
 2239SOL     OW 6715   3.268   2.513   5.974  0.2768 -0.2237 -0.5192
 2239SOL    HW1 6716   3.195   2.459   6.006  0.7999 -0.8519 -0.3707
 2239SOL    HW2 6717   3.303   2.554   6.053 -0.0591  0.2654 -0.6203
 2240SOL     OW 6718   3.207   2.103   5.785  0.1212  0.1212  0.4851
 2240SOL    HW1 6719   3.119   2.116   5.821 -0.6609 -0.4728 -1.1094
 2240SOL    HW2 6720   3.192   2.056   5.703  2.0671 -1.9119  1.1912
 2241SOL     OW 6721   1.600   0.204   5.506 -0.3493 -0.2983  0.3519
 2241SOL    HW1 6722   1.672   0.168   5.453 -0.4901  1.5685 -1.2134
 2241SOL    HW2 6723   1.597   0.147   5.583  2.1180 -1.0663 -0.0166
 2242SOL     OW 6724   2.665   0.163   4.953 -0.4183  0.5525  0.3058
 2242SOL    HW1 6725   2.601   0.114   4.901 -0.0063 -1.3483  1.5025
 2242SOL    HW2 6726   2.631   0.160   5.042  1.4570 -0.7839  1.0269
 2243SOL     OW 6727   3.711   3.665   6.982  0.1556 -0.0711  0.3420
 2243SOL    HW1 6728   3.633   3.710   6.951  0.7230  0.2475 -0.6682
 2243SOL    HW2 6729   3.679   3.606   7.050 -0.7303  1.1637  1.0241
 2244SOL     OW 6730   2.594   2.368   5.891  0.2932 -0.5456  0.3275
 2244SOL    HW1 6731   2.653   2.395   5.962 -0.2385  2.5349 -0.2451
 2244SOL    HW2 6732   2.643   2.386   5.811 -0.3090 -0.8479 -0.1188
 2245SOL     OW 6733   3.352   1.468   5.862 -0.3166  0.0670 -0.2278
 2245SOL    HW1 6734   3.327   1.401   5.926  1.7431 -0.1699  0.4215
 2245SOL    HW2 6735   3.303   1.446   5.783 -1.5363 -0.7298  0.7197
 2246SOL     OW 6736   1.882   2.004   6.757  0.6916  0.0571 -0.3023
 2246SOL    HW1 6737   1.787   2.000   6.748  0.5467  1.0068  0.6715
 2246SOL    HW2 6738   1.915   1.950   6.685 -0.5958 -0.9007 -0.2091
 2247SOL     OW 6739   4.612   3.592   5.079 -0.0406 -0.4379  0.0028
 2247SOL    HW1 6740   4.623   3.662   5.143 -0.3800 -0.3723 -0.0051
 2247SOL    HW2 6741   4.700   3.557   5.065  0.1944  0.2553 -0.2926
 2248SOL     OW 6742   3.935   2.412   5.328 -0.5547  0.7931 -0.4416
 2248SOL    HW1 6743   4.021   2.407   5.287 -0.4863 -0.2023 -0.2127
 2248SOL    HW2 6744   3.945   2.475   5.399  0.8390 -1.4340  1.4851
 2249SOL     OW 6745   2.813   0.122   6.341  0.1290 -0.2714 -0.1700
 2249SOL    HW1 6746   2.871   0.198   6.347 -1.4853  1.3606 -2.6824
 2249SOL    HW2 6747   2.778   0.126   6.252 -3.1131 -1.6227  0.8731
 2250SOL     OW 6748   2.779   4.294   6.175 -0.5443  0.6139 -0.4860
 2250SOL    HW1 6749   2.861   4.249   6.191 -1.7414 -1.6281 -0.2007
 2250SOL    HW2 6750   2.776   4.305   6.080 -0.1727  0.1482 -0.5577
 2251SOL     OW 6751   2.468   2.489   5.365 -0.3670  0.4108  0.6345
 2251SOL    HW1 6752   2.401   2.467   5.299  2.2319 -2.4677 -1.3226
 2251SOL    HW2 6753   2.484   2.583   5.352  0.1105 -0.0344 -3.0547
 2252SOL     OW 6754   3.620   1.612  14.885 -0.3162 -0.0270  0.5286
 2252SOL    HW1 6755   3.629   1.573  14.799 -0.5026  0.0169  0.4889
 2252SOL    HW2 6756   3.635   1.540  14.946 -1.2971 -0.3026  0.4552
 2253SOL     OW 6757   2.296   3.973   7.348 -0.2577  0.7287  0.0049
 2253SOL    HW1 6758   2.294   3.960   7.443 -1.2155 -1.4242 -0.2313
 2253SOL    HW2 6759   2.207   4.002   7.326 -0.2874  0.4108 -0.3033
 2254SOL     OW 6760   1.208   0.052   7.376  0.2089 -0.1152 -0.1188
 2254SOL    HW1 6761   1.120   0.050   7.414  0.7937 -0.3029  1.2900
 2254SOL    HW2 6762   1.238  -0.039   7.381  0.3617 -0.1070 -0.8896
 2255SOL     OW 6763   1.793   4.136   8.278 -0.0390 -0.1161 -0.2468
 2255SOL    HW1 6764   1.785   4.225   8.313  0.2825  0.5196 -1.6819
 2255SOL    HW2 6765   1.884   4.129   8.249  0.5626 -1.7253  1.8024
 2256SOL     OW 6766   2.305   3.049   5.324  0.1229 -0.1052 -0.4832
 2256SOL    HW1 6767   2.299   2.954   5.312  1.2506 -0.1554 -0.7900
 2256SOL    HW2 6768   2.353   3.079   5.247 -0.8499  0.8162 -0.7460
 2257SOL     OW 6769   2.809   3.815   5.542  0.2169  0.4007  0.7324
 2257SOL    HW1 6770   2.772   3.728   5.527 -1.0631  0.4479  3.1279
 2257SOL    HW2 6771   2.841   3.842   5.457 -1.2719 -1.5378 -0.5340
 2258SOL     OW 6772   1.318   3.265   5.570  0.2816  0.2786  0.1886
 2258SOL    HW1 6773   1.339   3.172   5.573  0.4198  0.2915 -0.2653
 2258SOL    HW2 6774   1.347   3.299   5.655 -0.9031 -0.3122  0.8509
 2259SOL     OW 6775   2.247   0.948   8.475  0.1637  0.5538 -1.2907
 2259SOL    HW1 6776   2.302   0.913   8.405  1.2556  1.5881 -0.9663
 2259SOL    HW2 6777   2.248   0.880   8.542 -0.1303 -0.0400 -1.8732
 2260SOL     OW 6778   2.858   3.679   6.297  0.2353 -0.1308 -0.1510
 2260SOL    HW1 6779   2.764   3.696   6.291  0.1419 -0.6319 -0.1330
 2260SOL    HW2 6780   2.871   3.647   6.386  0.5661  0.7854  0.1404
 2261SOL     OW 6781   4.355   3.210   7.223 -0.0191  0.1071 -0.3137
 2261SOL    HW1 6782   4.365   3.116   7.211  0.4223 -0.0127  0.8577
 2261SOL    HW2 6783   4.437   3.247   7.190  0.4307 -0.0628  0.5708
 2262SOL     OW 6784   1.987   3.620   6.837 -0.3636  0.1912 -0.0285
 2262SOL    HW1 6785   1.949   3.559   6.774 -1.6917  1.4847 -0.5492
 2262SOL    HW2 6786   2.050   3.671   6.785  0.1922 -0.2342  0.2262
 2263SOL     OW 6787   4.933   1.209   6.346 -0.5612 -0.3304  0.3500
 2263SOL    HW1 6788   4.996   1.276   6.318 -1.6478  0.9255  0.7765
 2263SOL    HW2 6789   4.950   1.198   6.439 -0.8998 -0.0426  0.4500
 2264SOL     OW 6790   2.322   3.683   7.544  0.0099  0.4228  0.1407
 2264SOL    HW1 6791   2.237   3.661   7.505  0.4156  0.9365 -1.0774
 2264SOL    HW2 6792   2.375   3.605   7.528  0.1524  0.6029 -0.2724
 2265SOL     OW 6793   2.470   2.789   5.334 -0.0464  0.4848 -0.0221
 2265SOL    HW1 6794   2.551   2.776   5.286  0.5437 -2.0641  1.4459
 2265SOL    HW2 6795   2.498   2.807   5.424 -0.8972 -3.1684  1.1675
 2266SOL     OW 6796   3.529   3.244   5.988 -0.4919 -0.5307  0.6807
 2266SOL    HW1 6797   3.450   3.217   6.035 -1.1283  2.6450  1.6834
 2266SOL    HW2 6798   3.593   3.261   6.056  0.4788 -1.2749 -0.0209
 2267SOL     OW 6799   0.996   3.033   5.916  0.0294 -0.4031 -0.0334
 2267SOL    HW1 6800   1.076   3.033   5.969 -0.0595  0.1704  0.1061
 2267SOL    HW2 6801   1.007   2.958   5.858  2.3865  1.6793 -2.5584
 2268SOL     OW 6802   1.932   4.210   6.932 -0.5840  0.0648 -0.0837
 2268SOL    HW1 6803   2.006   4.243   6.983  0.8089 -3.1886  0.2771
 2268SOL    HW2 6804   1.872   4.173   6.997 -0.2574 -1.4106 -0.5838
 2269SOL     OW 6805   3.680   2.518   5.693 -0.1394 -0.3399 -0.1138
 2269SOL    HW1 6806   3.689   2.609   5.664  1.9258 -0.8341 -1.2868
 2269SOL    HW2 6807   3.642   2.523   5.780 -2.2464  1.4978 -1.0395
 2270SOL     OW 6808   4.363   3.768   6.392  0.9309 -0.2509 -0.2342
 2270SOL    HW1 6809   4.375   3.696   6.454 -4.0431 -2.4890 -1.3657
 2270SOL    HW2 6810   4.307   3.830   6.439  0.3041 -0.0893 -1.1582
 2271SOL     OW 6811   0.916   4.312   6.815 -0.0913 -0.0652  0.5421
 2271SOL    HW1 6812   0.893   4.402   6.793  0.5154 -0.2366 -0.9606
 2271SOL    HW2 6813   0.884   4.300   6.904 -1.1919  1.2770  0.3723
 2272SOL     OW 6814   1.359   4.680   7.738 -0.2928  0.0296 -0.2204
 2272SOL    HW1 6815   1.280   4.629   7.756 -1.1369 -1.1490 -5.5899
 2272SOL    HW2 6816   1.412   4.623   7.682  1.3870  3.0213 -1.9287
 2273SOL     OW 6817   2.264   0.420   6.204  0.0051 -0.8510 -0.4793
 2273SOL    HW1 6818   2.241   0.394   6.115  1.9350 -1.9704 -0.7118
 2273SOL    HW2 6819   2.265   0.338   6.253  1.2363 -0.5642  0.0013
 2274SOL     OW 6820   3.298   4.037   5.542 -0.2312 -0.3320 -0.3627
 2274SOL    HW1 6821   3.364   3.994   5.597 -1.6634 -1.1582  0.7654
 2274SOL    HW2 6822   3.312   4.131   5.558 -0.7592 -0.5430  1.6621
 2275SOL     OW 6823   1.278   1.936   7.011  0.2306  0.0315 -0.1637
 2275SOL    HW1 6824   1.286   1.874   7.083 -1.4241 -0.8618 -0.7076
 2275SOL    HW2 6825   1.226   2.008   7.046  0.0688 -0.0420 -0.2543
 2276SOL     OW 6826   4.483   2.386   7.669 -0.0244  0.3913  0.3688
 2276SOL    HW1 6827   4.568   2.343   7.665 -0.0064  0.4893 -0.5888
 2276SOL    HW2 6828   4.423   2.319   7.703  0.4133  0.2916  0.9425
 2277SOL     OW 6829   1.492   2.258   6.580 -0.4379 -0.2055  0.1162
 2277SOL    HW1 6830   1.500   2.167   6.608 -1.3145  0.3228  2.3018
 2277SOL    HW2 6831   1.434   2.255   6.505 -0.8265 -1.4225  0.4425
 2278SOL     OW 6832   3.460   3.756   6.848  0.0477 -0.2579  0.9502
 2278SOL    HW1 6833   3.389   3.697   6.872  0.0736 -0.4197  0.6285
 2278SOL    HW2 6834   3.438   3.839   6.891 -0.5543 -0.1827  0.5034
 2279SOL     OW 6835   2.622   3.757   6.748  0.3010  0.6445  0.3419
 2279SOL    HW1 6836   2.539   3.804   6.736  0.2007  0.3840 -0.0183
 2279SOL    HW2 6837   2.686   3.809   6.699  0.0179 -0.0601 -0.8409
 2280SOL     OW 6838   3.153   4.194   8.993  0.5597  0.6401 -0.1704
 2280SOL    HW1 6839   3.242   4.200   8.957  0.9522 -1.2447  0.3882
 2280SOL    HW2 6840   3.132   4.101   8.988 -1.5449  1.0949 -0.6120
 2281SOL     OW 6841   1.118   3.786   7.495 -0.1149  0.4919 -0.5435
 2281SOL    HW1 6842   1.196   3.741   7.527 -1.1860 -0.6586  0.5180
 2281SOL    HW2 6843   1.149   3.876   7.478  1.5241 -0.0338 -0.5446
 2282SOL     OW 6844   0.055   2.222   6.903 -0.2035 -0.4384  0.0814
 2282SOL    HW1 6845   0.077   2.305   6.945 -0.7656  0.4385 -1.2789
 2282SOL    HW2 6846  -0.033   2.236   6.866 -0.0157 -1.3874 -0.7741
 2283SOL     OW 6847   4.766   0.845   6.462 -0.4441 -0.6871  0.8319
 2283SOL    HW1 6848   4.729   0.766   6.423 -0.4111 -0.3485  0.0893
 2283SOL    HW2 6849   4.696   0.910   6.455 -0.1587 -0.3982  0.5810
 2284SOL     OW 6850   2.976   3.303   5.985  0.9079  0.4300  1.0190
 2284SOL    HW1 6851   2.955   3.248   5.910 -0.1280 -0.6630  2.0711
 2284SOL    HW2 6852   2.912   3.374   5.981  0.7995  0.3270  0.9194
 2285SOL     OW 6853   1.204   2.839   8.938  0.5119 -0.2162  0.3505
 2285SOL    HW1 6854   1.299   2.828   8.943  0.8490  1.4959 -1.1440
 2285SOL    HW2 6855   1.190   2.933   8.944 -1.2128 -0.5085  1.6619
 2286SOL     OW 6856   4.287   2.049   7.575  0.0853  0.2139 -0.7137
 2286SOL    HW1 6857   4.257   2.009   7.656  0.7513  0.6247 -0.2616
 2286SOL    HW2 6858   4.379   2.026   7.569  0.4842  1.6639 -0.4434
 2287SOL     OW 6859   4.534   2.265   5.736 -0.5437  0.2649 -0.1246
 2287SOL    HW1 6860   4.447   2.267   5.695 -0.4690 -1.0985 -0.3739
 2287SOL    HW2 6861   4.515   2.266   5.830 -0.8615 -0.5063 -0.1722
 2288SOL     OW 6862   1.981   3.884   5.963 -0.1706 -0.6499 -0.2542
 2288SOL    HW1 6863   2.004   3.937   5.886  0.7605  1.4297  1.3705
 2288SOL    HW2 6864   2.059   3.831   5.980  0.0774 -0.1995 -0.0025
 2289SOL     OW 6865   2.721   2.547   6.989  0.1734 -0.3336 -0.4578
 2289SOL    HW1 6866   2.729   2.517   7.080  1.5643  2.3747  0.4681
 2289SOL    HW2 6867   2.631   2.577   6.982  0.2713  0.2127  0.3570
 2290SOL     OW 6868   3.945   2.270   6.034 -0.0233 -0.1228  0.3906
 2290SOL    HW1 6869   4.019   2.214   6.058 -0.6277 -0.5953  1.2148
 2290SOL    HW2 6870   3.877   2.210   6.004 -1.3466 -0.0653  3.0032
 2291SOL     OW 6871   1.248   3.466   6.465 -0.0161  0.4013 -0.0118
 2291SOL    HW1 6872   1.204   3.447   6.548  0.1201 -1.1403 -0.2576
 2291SOL    HW2 6873   1.267   3.560   6.469  0.7987  0.2080  2.1125
 2292SOL     OW 6874   1.591   3.947   8.632 -0.1118  0.1370  0.0030
 2292SOL    HW1 6875   1.620   3.874   8.687 -0.8856  1.5221  2.3727
 2292SOL    HW2 6876   1.660   4.013   8.642  0.2161  0.0612 -1.5238
 2293SOL     OW 6877   1.571   4.104   6.036 -0.1979 -0.4395 -0.1435
 2293SOL    HW1 6878   1.583   4.159   6.114  4.3628  0.3193 -1.1353
 2293SOL    HW2 6879   1.568   4.015   6.070 -0.7590 -0.0098  1.0048
 2294SOL     OW 6880   2.736   4.646   6.027 -0.1780 -0.0331 -0.3788
 2294SOL    HW1 6881   2.775   4.558   6.032 -0.7596 -0.2513  0.6036
 2294SOL    HW2 6882   2.810   4.705   6.038  0.3229 -0.3759 -1.7572
 2295SOL     OW 6883   3.061   2.954   6.546  0.1766 -0.2745  0.0536
 2295SOL    HW1 6884   3.006   3.031   6.532  1.2560  0.3762 -0.7221
 2295SOL    HW2 6885   3.025   2.913   6.625  0.1963  1.5707  1.0663
 2296SOL     OW 6886   2.733   1.272   5.690 -0.0671  0.5387 -0.6507
 2296SOL    HW1 6887   2.712   1.186   5.727 -0.2767  1.1015  0.6076
 2296SOL    HW2 6888   2.713   1.334   5.761  1.4661  1.4973 -1.0144
 2297SOL     OW 6889   3.708   3.825   5.683 -0.4390  0.3193 -0.1591
 2297SOL    HW1 6890   3.803   3.822   5.696 -0.7160  0.2045  2.4004
 2297SOL    HW2 6891   3.678   3.739   5.712 -1.2372 -0.2256 -2.4197
 2298SOL     OW 6892   2.505   0.554   7.314 -0.1371  0.3045 -0.1856
 2298SOL    HW1 6893   2.584   0.529   7.361 -0.3364 -0.5208 -0.2735
 2298SOL    HW2 6894   2.519   0.521   7.225  0.1286  1.6229 -0.6438
 2299SOL     OW 6895   0.978   1.412   8.071 -0.1129  0.8813  0.1646
 2299SOL    HW1 6896   1.020   1.328   8.085 -0.7509  0.4946 -0.2179
 2299SOL    HW2 6897   0.956   1.413   7.977  0.0766  1.5605  0.1156
 2300SOL     OW 6898   0.469   3.144   5.616 -0.2763  0.5847 -0.2152
 2300SOL    HW1 6899   0.536   3.084   5.583 -0.5186  1.0818 -1.6928
 2300SOL    HW2 6900   0.387   3.111   5.581 -0.6130  0.8626  0.2947
 2301SOL     OW 6901   1.729   2.324   7.299 -0.2083  0.3117 -0.2869
 2301SOL    HW1 6902   1.784   2.278   7.235  0.2473 -0.1834  0.4448
 2301SOL    HW2 6903   1.780   2.401   7.323 -0.2206  0.3067 -0.2455
 2302SOL     OW 6904   3.398   3.443   5.576  0.9821  0.3638 -0.2427
 2302SOL    HW1 6905   3.388   3.518   5.636 -0.6090 -0.0023 -0.0200
 2302SOL    HW2 6906   3.316   3.395   5.584  0.6507  0.3731 -2.8480
 2303SOL     OW 6907   2.745   4.476   5.276  0.4153  0.4184 -0.0224
 2303SOL    HW1 6908   2.766   4.547   5.336 -0.9453  0.6166  0.2504
 2303SOL    HW2 6909   2.830   4.449   5.239  0.9105  2.4962 -0.5144
 2304SOL     OW 6910   3.272   0.038   5.258  0.0346  0.0852 -0.2190
 2304SOL    HW1 6911   3.210   0.052   5.187 -0.6552  0.2218  0.3981
 2304SOL    HW2 6912   3.301  -0.052   5.247  1.5755  0.7379 -1.9316
 2305SOL     OW 6913   3.718   2.231   5.690  0.3500 -0.4992 -0.4396
 2305SOL    HW1 6914   3.718   2.325   5.674  2.0153 -0.3274  0.3338
 2305SOL    HW2 6915   3.682   2.222   5.779 -1.5422 -0.7934 -1.1778
 2306SOL     OW 6916   0.113   1.010   5.360  0.2967 -0.2204 -0.3475
 2306SOL    HW1 6917   0.186   0.949   5.349 -0.2691 -0.9090 -0.4129
 2306SOL    HW2 6918   0.141   1.090   5.316  0.5401 -0.8770 -1.4149
 2307SOL     OW 6919   3.689   1.681   5.257  0.1135  0.6361  0.3463
 2307SOL    HW1 6920   3.699   1.591   5.226 -3.3545 -1.0757  3.3419
 2307SOL    HW2 6921   3.778   1.716   5.261  1.5265 -2.3449 -1.6912
 2308SOL     OW 6922   1.002   3.999   8.665  0.0903  0.0242  0.3797
 2308SOL    HW1 6923   1.085   4.010   8.711 -0.8582  0.3101  2.1038
 2308SOL    HW2 6924   0.981   3.906   8.675  0.1431 -0.0231  0.0519
 2309SOL     OW 6925   1.704   3.696   8.724  0.2492 -0.0606 -0.4582
 2309SOL    HW1 6926   1.756   3.707   8.644 -1.1566  0.3831 -1.3510
 2309SOL    HW2 6927   1.643   3.625   8.704  1.1747 -1.3041  0.9550
 2310SOL     OW 6928   1.861   0.343   7.719 -0.5998 -0.1038  0.1325
 2310SOL    HW1 6929   1.773   0.335   7.754 -1.5194 -3.1167 -2.4646
 2310SOL    HW2 6930   1.850   0.381   7.632  0.5315 -1.2014 -0.5351
 2311SOL     OW 6931   0.498   2.514   9.958  0.3061  0.1061 -0.2912
 2311SOL    HW1 6932   0.543   2.563   9.889  0.3663  0.9141  0.3016
 2311SOL    HW2 6933   0.568   2.488  10.019 -0.0859  2.3896  1.2600
 2312SOL     OW 6934   4.747   3.118   9.093  0.0532 -0.3996  0.0511
 2312SOL    HW1 6935   4.711   3.091   9.178  0.3183  0.2890  0.3883
 2312SOL    HW2 6936   4.781   3.037   9.055 -0.9729 -0.8933  0.1499
 2313SOL     OW 6937   0.608   4.763   7.548 -0.3822 -0.2703 -0.5032
 2313SOL    HW1 6938   0.677   4.711   7.506  2.4483  2.0320  0.9643
 2313SOL    HW2 6939   0.651   4.805   7.623 -2.3436  4.2499 -1.5729
 2314SOL     OW 6940   4.100   2.242   7.994  0.2345 -1.0201 -0.0895
 2314SOL    HW1 6941   4.039   2.311   7.968  1.7001  0.6556  0.6960
 2314SOL    HW2 6942   4.049   2.186   8.052 -0.9920 -0.5871 -0.7237
 2315SOL     OW 6943   0.486   4.022   6.458 -0.0895 -0.2160 -0.2243
 2315SOL    HW1 6944   0.400   3.979   6.460  0.4085 -1.2335  0.7476
 2315SOL    HW2 6945   0.504   4.044   6.549  0.2599  0.8838 -0.5514
 2316SOL     OW 6946   3.873   0.136   8.919 -0.1221 -0.0892  0.4101
 2316SOL    HW1 6947   3.805   0.074   8.893  0.2575 -0.7270  0.9022
 2316SOL    HW2 6948   3.954   0.086   8.914  0.6071  1.1994 -2.1068
 2317SOL     OW 6949   1.548   4.593   8.004 -0.2193  0.2785  0.8473
 2317SOL    HW1 6950   1.476   4.540   8.039 -1.0320  1.7381  1.4495
 2317SOL    HW2 6951   1.581   4.541   7.930 -1.9874 -0.3698  0.4617
 2318SOL     OW 6952   4.530   1.570   8.880  0.7968  0.1908  0.3826
 2318SOL    HW1 6953   4.452   1.538   8.926  0.7360  0.2418  0.3150
 2318SOL    HW2 6954   4.566   1.491   8.838  1.5934 -0.1102  1.5821
 2319SOL     OW 6955   0.196   2.658   8.991 -0.1475  0.3269  0.0221
 2319SOL    HW1 6956   0.189   2.691   8.902 -1.3099 -1.5604 -0.6305
 2319SOL    HW2 6957   0.114   2.612   9.007  0.3086  0.0554  1.8305
 2320SOL     OW 6958   3.148   1.176   8.292 -0.1185  0.8666  0.3290
 2320SOL    HW1 6959   3.130   1.267   8.316  0.9970  1.2246 -0.1402
 2320SOL    HW2 6960   3.208   1.145   8.360 -0.2866  0.5570  0.3370
 2321SOL     OW 6961   3.003   0.076   9.513  0.2101  0.4058 -0.0996
 2321SOL    HW1 6962   2.999  -0.011   9.472 -1.3274  0.3988 -0.0024
 2321SOL    HW2 6963   3.095   0.089   9.533  0.6097 -0.7681 -1.0590
 2322SOL     OW 6964   2.939   2.270   6.835 -0.3650 -0.3740 -0.4328
 2322SOL    HW1 6965   2.989   2.195   6.867  0.3722 -0.4043 -1.5856
 2322SOL    HW2 6966   2.983   2.295   6.754 -0.4466  1.4692  0.0544
 2323SOL     OW 6967   1.491   1.540   7.532  0.9151  0.4260 -0.2535
 2323SOL    HW1 6968   1.494   1.621   7.481  5.2097  0.0752 -0.8824
 2323SOL    HW2 6969   1.463   1.567   7.619 -0.8888  1.9663 -1.2280
 2324SOL     OW 6970   2.202   4.297   6.625 -0.4231  0.5848  0.0391
 2324SOL    HW1 6971   2.222   4.314   6.533 -0.5744 -0.4219 -0.1917
 2324SOL    HW2 6972   2.152   4.373   6.654 -0.1612  1.0222 -0.6388
 2325SOL     OW 6973   0.925   3.421   7.581  0.2470 -0.2203 -0.5312
 2325SOL    HW1 6974   0.976   3.433   7.500 -0.6982 -0.6499 -1.2029
 2325SOL    HW2 6975   0.850   3.368   7.554 -0.6397  0.5326  0.4191
 2326SOL     OW 6976   2.860   1.920   7.616 -0.2641  0.2115 -0.6540
 2326SOL    HW1 6977   2.801   1.850   7.646  2.6057 -2.4012 -0.6070
 2326SOL    HW2 6978   2.811   1.965   7.548 -2.4120 -1.6172 -0.4435
 2327SOL     OW 6979   3.270   4.899   8.324 -0.5353 -0.3919 -0.0624
 2327SOL    HW1 6980   3.214   4.975   8.340 -0.6606 -0.4290 -0.3258
 2327SOL    HW2 6981   3.211   4.832   8.292 -0.2316 -0.1908 -1.0900
 2328SOL     OW 6982   2.404   4.719   7.189  0.1318 -0.2702  0.4039
 2328SOL    HW1 6983   2.392   4.812   7.208  1.7510 -0.0677  0.5662
 2328SOL    HW2 6984   2.414   4.678   7.275  0.0783 -0.5036  0.3011
 2329SOL     OW 6985   2.914   2.080   7.251  0.7888  0.5630  0.2409
 2329SOL    HW1 6986   2.926   2.043   7.164  3.7020  0.8161  0.4205
 2329SOL    HW2 6987   2.847   2.026   7.292  2.1969 -2.1471 -0.7966
 2330SOL     OW 6988   2.773   1.934   5.011  0.0017  0.1317 -0.3935
 2330SOL    HW1 6989   2.786   2.027   4.997 -0.8028 -0.0940 -3.1685
 2330SOL    HW2 6990   2.862   1.897   5.010  0.2126  0.5299 -2.6792
 2331SOL     OW 6991   3.089   0.176   8.932  0.5492 -0.5409 -0.2436
 2331SOL    HW1 6992   3.036   0.228   8.873  0.7316  2.8458  2.2875
 2331SOL    HW2 6993   3.179   0.205   8.915  0.7549 -0.6412  0.6455
 2332SOL     OW 6994   3.562   4.207   6.267 -0.2882  0.3865 -0.1721
 2332SOL    HW1 6995   3.610   4.191   6.348  1.5626  1.6543 -0.9523
 2332SOL    HW2 6996   3.587   4.134   6.210 -1.5765 -0.4956  0.3549
 2333SOL     OW 6997   4.770   4.042   7.217  0.4093 -0.4789 -0.4823
 2333SOL    HW1 6998   4.787   4.096   7.140 -1.0731  1.2012  0.3086
 2333SOL    HW2 6999   4.850   4.049   7.270  0.0808  1.3635 -0.1730
 2334SOL     OW 7000   2.227   1.886   7.870  0.2855  0.2399  0.2097
 2334SOL    HW1 7001   2.278   1.867   7.791  0.1058 -0.1190  0.1770
 2334SOL    HW2 7002   2.196   1.976   7.858 -2.0434 -0.6886 -1.4320
 2335SOL     OW 7003   1.520   3.331   8.130  0.1736 -0.1991 -0.0097
 2335SOL    HW1 7004   1.612   3.315   8.109 -0.3812 -3.3538 -0.5576
 2335SOL    HW2 7005   1.502   3.273   8.203 -1.0567  1.5278  1.1421
 2336SOL     OW 7006   1.869   3.877   8.378  0.1354 -0.4895  0.3353
 2336SOL    HW1 7007   1.783   3.873   8.336  0.4428 -1.9669 -0.1940
 2336SOL    HW2 7008   1.885   3.971   8.390 -0.5144 -0.0605 -1.7341
 2337SOL     OW 7009   3.383   1.767   8.198 -0.1391  0.2129  0.1707
 2337SOL    HW1 7010   3.311   1.761   8.134  1.2653 -2.8116 -1.3572
 2337SOL    HW2 7011   3.406   1.676   8.215  3.4302  1.0536  0.4564
 2338SOL     OW 7012   3.315   1.735   6.212  0.3644  0.1613  0.4434
 2338SOL    HW1 7013   3.372   1.810   6.228 -0.5255  0.4750  2.4818
 2338SOL    HW2 7014   3.246   1.743   6.278 -1.9317 -0.3245 -1.7389
 2339SOL     OW 7015   2.232   2.158   7.778  0.0031  0.0945  0.5356
 2339SOL    HW1 7016   2.157   2.174   7.722  1.4000  1.8784 -0.9635
 2339SOL    HW2 7017   2.222   2.220   7.850 -1.7718 -2.1720  2.4011
 2340SOL     OW 7018   2.987   3.261   7.998  0.4678 -0.1986 -0.2217
 2340SOL    HW1 7019   3.041   3.231   7.924 -1.3530 -0.5576 -1.4828
 2340SOL    HW2 7020   2.933   3.185   8.020 -1.0131  0.7617 -0.4362
 2341SOL     OW 7021   3.450   4.595   9.048  0.2480 -0.3294 -0.1919
 2341SOL    HW1 7022   3.379   4.542   9.012  0.5836 -1.2714  0.5011
 2341SOL    HW2 7023   3.465   4.559   9.135 -1.0147  2.3178  1.2272
 2342SOL     OW 7024   3.958   1.846   9.764 -0.2410  0.0208 -0.2494
 2342SOL    HW1 7025   3.933   1.765   9.807  0.8781 -0.9934 -1.4220
 2342SOL    HW2 7026   3.993   1.901   9.835  1.0142 -1.3824  0.2777
 2343SOL     OW 7027   4.143   1.381   5.895 -0.2782 -0.0131 -0.3194
 2343SOL    HW1 7028   4.198   1.443   5.847  0.4740 -0.1184  0.3936
 2343SOL    HW2 7029   4.073   1.435   5.932 -1.0117  0.0355 -1.7076
 2344SOL     OW 7030   3.561   0.187   7.039 -0.4641  0.3658 -0.3655
 2344SOL    HW1 7031   3.648   0.166   7.005 -0.2073 -0.1965  0.5944
 2344SOL    HW2 7032   3.511   0.214   6.963  0.5996  0.8451 -0.9098
 2345SOL     OW 7033   2.784   3.903   6.592  0.3059 -0.3613 -0.3489
 2345SOL    HW1 7034   2.713   3.953   6.553 -1.0946 -2.4095 -0.5498
 2345SOL    HW2 7035   2.863   3.939   6.552 -0.7768  0.3147 -1.9948
 2346SOL     OW 7036   3.222   0.670   7.503  0.7524  0.3964 -0.2636
 2346SOL    HW1 7037   3.291   0.622   7.549 -1.7367 -1.3816  1.9749
 2346SOL    HW2 7038   3.167   0.602   7.465 -1.5990  1.4820  0.9810
 2347SOL     OW 7039   3.392   3.946   8.926  0.2946  0.4722 -0.3754
 2347SOL    HW1 7040   3.389   3.976   8.835 -0.7808 -0.1613 -0.5617
 2347SOL    HW2 7041   3.304   3.915   8.944  0.0691  2.0256  1.3950
 2348SOL     OW 7042   3.552   2.956   8.861  0.2157 -0.2284 -0.0846
 2348SOL    HW1 7043   3.560   3.018   8.789 -0.1458  0.6727  0.6336
 2348SOL    HW2 7044   3.545   3.011   8.939 -0.7795 -1.1439  0.5017
 2349SOL     OW 7045   4.478   4.638   8.129  0.1372 -0.9344 -0.0440
 2349SOL    HW1 7046   4.522   4.638   8.214 -1.2525 -0.1244  0.7028
 2349SOL    HW2 7047   4.423   4.561   8.130 -0.5747 -0.4286  0.1722
 2350SOL     OW 7048   2.030   0.533  10.007 -0.0103 -0.1497 -0.0177
 2350SOL    HW1 7049   2.100   0.505   9.948  0.4692 -1.2931  1.0401
 2350SOL    HW2 7050   2.064   0.612  10.049 -0.0887  0.2941 -0.7759
 2351SOL     OW 7051   2.455   2.833   7.871  0.1003 -0.1113  0.3317
 2351SOL    HW1 7052   2.424   2.881   7.794 -0.7610  1.4699  1.6030
 2351SOL    HW2 7053   2.497   2.899   7.926  0.4087 -1.1385  1.3851
 2352SOL     OW 7054   1.008   0.404  10.307  0.1786 -0.4381 -0.0305
 2352SOL    HW1 7055   0.994   0.413  10.212 -0.0402 -0.5090 -0.0051
 2352SOL    HW2 7056   0.922   0.418  10.345  0.6788  2.0802  0.3372
 2353SOL     OW 7057   0.713   1.902   6.201  0.4786  0.6640 -0.6286
 2353SOL    HW1 7058   0.720   1.807   6.193  0.9561  0.7430 -1.2671
 2353SOL    HW2 7059   0.763   1.924   6.279 -1.4295  0.1930  0.8011
 2354SOL     OW 7060   0.932   4.466   8.844  0.1228  0.4015  0.5759
 2354SOL    HW1 7061   0.859   4.507   8.798 -0.2786 -0.2832  0.5888
 2354SOL    HW2 7062   0.963   4.397   8.784  0.7766  0.7009  0.5598
 2355SOL     OW 7063   2.844   3.356   6.773  0.3220 -0.5664 -0.4760
 2355SOL    HW1 7064   2.757   3.318   6.782  0.0813  0.3086  1.4188
 2355SOL    HW2 7065   2.872   3.373   6.863  0.7486  2.8718 -1.1025
 2356SOL     OW 7066   4.867   3.268   6.985  0.5603 -0.6052 -0.5569
 2356SOL    HW1 7067   4.836   3.329   6.919 -1.2323  0.0619  0.8174
 2356SOL    HW2 7068   4.962   3.279   6.985  0.5748 -0.2604 -2.6111
 2357SOL     OW 7069   2.534   3.550   8.994  0.4103 -0.3211 -0.2124
 2357SOL    HW1 7070   2.569   3.470   8.954  0.8866 -0.6770  0.8706
 2357SOL    HW2 7071   2.455   3.569   8.944  0.4361 -1.3225 -0.6623
 2358SOL     OW 7072   1.628   2.141   7.474  0.1923  0.7580  0.1167
 2358SOL    HW1 7073   1.648   2.230   7.445 -3.7910  1.5960 -0.5538
 2358SOL    HW2 7074   1.575   2.104   7.403  0.4069 -1.6081  1.0928
 2359SOL     OW 7075   4.580   2.604   8.925 -0.5802 -0.2181 -0.3093
 2359SOL    HW1 7076   4.560   2.572   9.013  1.6300 -0.8627  0.0391
 2359SOL    HW2 7077   4.523   2.554   8.867  0.7772 -2.8901  0.4712
 2360SOL     OW 7078   1.408   4.950   9.611 -0.2540  0.2363  0.3800
 2360SOL    HW1 7079   1.484   5.001   9.581 -0.1923 -0.5042 -0.8059
 2360SOL    HW2 7080   1.366   5.005   9.676  0.9344  0.9461  0.5761
 2361SOL     OW 7081   3.549   1.771   6.533  0.6307  0.0503  0.0369
 2361SOL    HW1 7082   3.517   1.813   6.613  1.5032  0.7706  0.0277
 2361SOL    HW2 7083   3.500   1.689   6.528 -0.7232  0.8020  0.3568
 2362SOL     OW 7084   0.629   1.032   8.745  0.6504  0.3047 -0.8061
 2362SOL    HW1 7085   0.576   0.967   8.793  0.2435  1.0861 -0.1746
 2362SOL    HW2 7086   0.720   1.005   8.762  0.4867 -0.0441 -0.4563
 2363SOL     OW 7087   2.489   4.592   5.841  0.0981  0.4573  0.1071
 2363SOL    HW1 7088   2.439   4.553   5.913  2.5071 -0.7577  1.2426
 2363SOL    HW2 7089   2.561   4.638   5.883  0.4034  1.5432 -1.4890
 2364SOL     OW 7090   2.951   1.269   6.126  0.2868  0.2848 -0.0019
 2364SOL    HW1 7091   2.907   1.184   6.132  0.0282  0.4374  0.3173
 2364SOL    HW2 7092   2.972   1.280   6.033 -1.4939  0.7856 -0.3804
 2365SOL     OW 7093   3.130   2.166   7.670  0.0054  0.4779 -0.3526
 2365SOL    HW1 7094   3.037   2.165   7.648 -0.3171  0.0187  0.9218
 2365SOL    HW2 7095   3.135   2.121   7.755  1.8697 -3.6362 -2.3133
 2366SOL     OW 7096   3.819   0.620   8.708  0.4515 -0.4030 -0.4367
 2366SOL    HW1 7097   3.852   0.688   8.649 -0.4709  1.1524  0.7806
 2366SOL    HW2 7098   3.751   0.576   8.657 -1.1581  1.6801 -0.2548
 2367SOL     OW 7099   2.488   4.953   7.635 -0.2693 -0.4373 -0.1672
 2367SOL    HW1 7100   2.562   4.986   7.685 -1.4146 -0.6813  1.8018
 2367SOL    HW2 7101   2.413   5.003   7.667 -1.3555 -1.9261 -0.2645
 2368SOL     OW 7102   3.467   3.813   8.164 -0.2546  0.3958 -0.0481
 2368SOL    HW1 7103   3.404   3.885   8.163 -0.3620  0.3280 -2.0051
 2368SOL    HW2 7104   3.428   3.748   8.221 -1.1907  1.0201  0.0530
 2369SOL     OW 7105   2.047   4.105   5.791 -0.2874  0.8089  0.3518
 2369SOL    HW1 7106   2.076   4.081   5.703  0.4337 -0.9794  1.0328
 2369SOL    HW2 7107   2.113   4.167   5.823 -0.1489  0.8872 -0.0884
 2370SOL     OW 7108   3.862   2.219   7.407  0.5446 -0.3501  0.1462
 2370SOL    HW1 7109   3.882   2.259   7.492  0.8400  1.1439 -0.5896
 2370SOL    HW2 7110   3.784   2.265   7.377  0.5271 -0.7639 -0.4546
 2371SOL     OW 7111   2.814   0.054   5.851  0.1621  0.2169  0.2544
 2371SOL    HW1 7112   2.868  -0.025   5.854 -2.0682 -1.3710  1.7080
 2371SOL    HW2 7113   2.782   0.058   5.760  1.2086  0.1591 -0.1333
 2372SOL     OW 7114   2.850   4.438   7.433 -0.2113 -0.3062  0.1406
 2372SOL    HW1 7115   2.880   4.444   7.343  1.0368  0.0230  0.5658
 2372SOL    HW2 7116   2.925   4.403   7.481 -1.3014 -1.7844  0.8354
 2373SOL     OW 7117   1.571   4.720   6.533  0.4929 -0.8264 -0.2761
 2373SOL    HW1 7118   1.536   4.804   6.502  1.6780  0.0173  0.5702
 2373SOL    HW2 7119   1.495   4.662   6.535 -0.9944  1.0290  1.8776
 2374SOL     OW 7120   3.017   4.680   7.725  0.0317 -0.2763 -0.0481
 2374SOL    HW1 7121   3.034   4.688   7.631 -2.5259  1.5927 -0.4767
 2374SOL    HW2 7122   2.957   4.606   7.732 -1.2785  0.7221 -0.2095
 2375SOL     OW 7123   1.638   1.390   7.041  0.1006  0.0718  0.1864
 2375SOL    HW1 7124   1.634   1.482   7.066 -0.5049  0.1979 -0.3620
 2375SOL    HW2 7125   1.605   1.343   7.118  0.9643  0.2681  0.6829
 2376SOL     OW 7126   4.969   3.829   8.616  0.3237 -0.2463  0.6238
 2376SOL    HW1 7127   4.952   3.849   8.708  0.2524 -1.0793  0.8022
 2376SOL    HW2 7128   5.060   3.855   8.603  0.4176 -0.3698  1.0024
 2377SOL     OW 7129   0.460   3.086   7.286 -0.0947  0.2814  0.3668
 2377SOL    HW1 7130   0.400   3.051   7.221 -1.0981 -0.4280  1.6251
 2377SOL    HW2 7131   0.474   3.013   7.347 -0.6920  1.4583  1.9687
 2378SOL     OW 7132   3.611   1.961   8.063  0.4241  0.0664 -0.3040
 2378SOL    HW1 7133   3.590   1.869   8.075 -1.3684  0.0374 -2.7995
 2378SOL    HW2 7134   3.587   2.002   8.146  0.1142 -1.5336  0.4417
 2379SOL     OW 7135   4.447   3.142   6.677  0.0325  0.3632  0.1685
 2379SOL    HW1 7136   4.493   3.226   6.674  1.1566 -0.2524 -0.8020
 2379SOL    HW2 7137   4.500   3.086   6.733  1.2380 -0.7368 -1.9368
 2380SOL     OW 7138   2.980   2.733   5.932  0.5444 -0.2588 -0.3954
 2380SOL    HW1 7139   3.062   2.762   5.894  0.1557  1.3298 -0.0943
 2380SOL    HW2 7140   2.956   2.802   5.994 -0.8643 -0.8282 -0.2651
 2381SOL     OW 7141   0.176   4.697   6.025  0.4217  0.2604  0.5332
 2381SOL    HW1 7142   0.163   4.630   5.958  2.8821 -1.1343  1.3130
 2381SOL    HW2 7143   0.102   4.688   6.084 -0.4493 -0.2082 -0.5984
 2382SOL     OW 7144   1.672   1.367   6.624 -0.1704 -0.0292 -0.2882
 2382SOL    HW1 7145   1.586   1.400   6.600  1.0371  3.0564 -0.8846
 2382SOL    HW2 7146   1.728   1.390   6.549  1.2409 -1.8857  0.1035
 2383SOL     OW 7147   2.463   1.831   5.455 -0.7650  0.0719 -0.0017
 2383SOL    HW1 7148   2.506   1.756   5.497 -1.3352 -0.0122  0.4429
 2383SOL    HW2 7149   2.532   1.871   5.402 -0.3282 -0.4859  0.1272
 2384SOL     OW 7150   4.084   1.767   7.420  0.6115  0.1193  0.0294
 2384SOL    HW1 7151   4.032   1.831   7.470 -0.4193  0.5735 -1.5559
 2384SOL    HW2 7152   4.075   1.795   7.329  2.1437 -0.9024 -0.4757
 2385SOL     OW 7153   2.086   3.802   9.791  0.3906 -0.9525 -0.0450
 2385SOL    HW1 7154   2.022   3.824   9.724 -3.2177  0.1964  3.3477
 2385SOL    HW2 7155   2.081   3.875   9.854  2.8470 -2.3177  1.9385
 2386SOL     OW 7156   3.448   2.957   7.657  0.1618  0.1128  0.6073
 2386SOL    HW1 7157   3.527   2.902   7.655  0.2436  0.2364  0.3978
 2386SOL    HW2 7158   3.437   2.985   7.567 -0.9659 -1.1078  0.3281
 2387SOL     OW 7159   2.883   4.443   7.729 -0.4006 -0.1070  0.0904
 2387SOL    HW1 7160   2.925   4.357   7.739 -1.2682 -0.7310 -1.2399
 2387SOL    HW2 7161   2.852   4.443   7.638 -1.5971  1.0812  0.4787
 2388SOL     OW 7162   2.985   3.635   9.049  0.0496  0.0474  0.2384
 2388SOL    HW1 7163   2.974   3.560   8.991 -0.1529  0.1230  0.1791
 2388SOL    HW2 7164   2.929   3.703   9.011 -0.1777  0.0582  0.5895
 2389SOL     OW 7165   4.114   2.075   5.508  0.1662 -0.6415  0.0779
 2389SOL    HW1 7166   4.047   2.070   5.440  0.9163 -0.1555 -0.7219
 2389SOL    HW2 7167   4.065   2.086   5.590 -0.7301 -0.6130 -0.4529
 2390SOL     OW 7168   0.765   0.908   6.821 -0.1752  0.1122  0.0542
 2390SOL    HW1 7169   0.783   0.816   6.797  1.1423  0.3837 -0.0871
 2390SOL    HW2 7170   0.852   0.947   6.829 -0.6109  0.7150  2.7103
 2391SOL     OW 7171   3.210   2.126   8.008  0.0762 -0.4593  0.0798
 2391SOL    HW1 7172   3.153   2.178   8.065  1.7404 -1.4301  2.8253
 2391SOL    HW2 7173   3.205   2.037   8.043 -0.3900 -1.6249 -2.6521
 2392SOL     OW 7174   3.352   4.267   7.483 -0.0003  0.2212  0.0429
 2392SOL    HW1 7175   3.396   4.192   7.445 -2.5780 -0.9119 -0.9547
 2392SOL    HW2 7176   3.332   4.324   7.408  1.0545  1.4583  0.6608
 2393SOL     OW 7177   3.029   2.715   9.865 -0.0900  0.4500  0.3384
 2393SOL    HW1 7178   3.009   2.725   9.772  0.5472 -0.3109  0.1032
 2393SOL    HW2 7179   2.945   2.728   9.910 -1.0432 -2.0232 -0.5655
 2394SOL     OW 7180   2.968   4.100   6.456  0.0163 -0.2505  0.1385
 2394SOL    HW1 7181   3.019   4.031   6.414  1.5067 -0.0177  1.4496
 2394SOL    HW2 7182   2.952   4.163   6.386  0.8378 -0.7375 -0.5112
 2395SOL     OW 7183   1.989   4.475   6.224  0.0383  0.0656 -0.0016
 2395SOL    HW1 7184   1.966   4.460   6.316  0.4827 -2.5187 -0.2455
 2395SOL    HW2 7185   1.907   4.506   6.184  0.2513  2.8765  1.5259
 2396SOL     OW 7186   3.159   3.280   6.717  0.4806 -0.0242  0.2946
 2396SOL    HW1 7187   3.235   3.314   6.669  0.2890 -0.4073 -0.3000
 2396SOL    HW2 7188   3.137   3.349   6.780  0.8504  0.4172 -0.0511
 2397SOL     OW 7189   1.790   4.128   7.155  0.4487 -0.2147 -0.1780
 2397SOL    HW1 7190   1.810   4.198   7.218  2.2907 -0.9622  0.1580
 2397SOL    HW2 7191   1.695   4.125   7.151  0.3012  0.7039  1.6348
 2398SOL     OW 7192   4.629   3.294   7.179 -0.2186 -0.2986 -0.2241
 2398SOL    HW1 7193   4.667   3.286   7.091  1.1487 -0.8377  0.3862
 2398SOL    HW2 7194   4.679   3.365   7.220  1.0132 -1.8211  1.0087
 2399SOL     OW 7195   2.731   3.076   6.260 -0.7570 -0.1753 -0.0101
 2399SOL    HW1 7196   2.766   2.992   6.229 -1.1512  0.6596 -3.0247
 2399SOL    HW2 7197   2.808   3.125   6.287 -0.2715 -0.6834 -0.4312
 2400SOL     OW 7198   2.993   0.870   5.975 -0.3539  0.5640  0.3381
 2400SOL    HW1 7199   3.067   0.923   5.947 -1.2000  1.6774  0.1436
 2400SOL    HW2 7200   2.924   0.933   5.997 -1.5341 -0.4432 -0.2848
 2401SOL     OW 7201   0.367   3.564   8.726 -0.4846 -0.1389 -0.8870
 2401SOL    HW1 7202   0.321   3.593   8.647 -0.8279 -1.6142 -1.2599
 2401SOL    HW2 7203   0.455   3.540   8.696 -0.1717  0.5769 -0.5670
 2402SOL     OW 7204   2.250   1.213   9.381  0.2953  0.4488 -0.0197
 2402SOL    HW1 7205   2.243   1.298   9.425  0.1874  1.1706 -1.3643
 2402SOL    HW2 7206   2.216   1.229   9.293 -0.1730 -1.1159 -0.1596
 2403SOL     OW 7207   1.435   3.334   9.617 -0.0286  0.5117 -0.2931
 2403SOL    HW1 7208   1.477   3.420   9.617 -1.4575  1.2313 -0.5334
 2403SOL    HW2 7209   1.341   3.352   9.616 -0.4847 -0.9887  2.4425
 2404SOL     OW 7210   0.015   4.271   9.349  0.5921  0.2155 -0.3654
 2404SOL    HW1 7211   0.106   4.298   9.345  1.3367 -1.9984  0.3027
 2404SOL    HW2 7212  -0.017   4.309   9.432  0.9730  0.7352 -0.4491
 2405SOL     OW 7213   1.315   4.560   9.065  0.4341 -0.0414 -0.9417
 2405SOL    HW1 7214   1.323   4.503   8.988 -0.3350  2.2946 -2.8822
 2405SOL    HW2 7215   1.221   4.573   9.075  0.6178  1.3155 -0.9032
 2406SOL     OW 7216   1.590   1.792   7.448 -0.0086 -0.4124 -0.1919
 2406SOL    HW1 7217   1.512   1.844   7.425  0.4691 -0.4938 -2.1429
 2406SOL    HW2 7218   1.661   1.833   7.399  0.7994 -1.5886 -0.0390
 2407SOL     OW 7219   2.892   3.523   7.585 -0.1893 -0.1759  0.1483
 2407SOL    HW1 7220   2.879   3.575   7.665  0.3948 -0.5507  0.4925
 2407SOL    HW2 7221   2.962   3.567   7.539 -2.1402  1.4997 -1.4195
 2408SOL     OW 7222   3.238   2.138   6.362  0.5870 -0.4399 -0.0208
 2408SOL    HW1 7223   3.161   2.140   6.419 -0.1504 -0.6961 -0.9689
 2408SOL    HW2 7224   3.203   2.154   6.274  1.3003 -2.6224 -0.7649
 2409SOL     OW 7225   3.313   0.724   5.838  0.1347 -0.1132 -0.5957
 2409SOL    HW1 7226   3.264   0.794   5.796 -0.7500 -0.2753  0.1146
 2409SOL    HW2 7227   3.398   0.724   5.796 -0.0859  0.9533 -1.0545
 2410SOL     OW 7228   2.745   0.959   7.126 -0.2956  0.1201 -0.4981
 2410SOL    HW1 7229   2.676   0.915   7.176 -1.4322  0.1394 -1.9733
 2410SOL    HW2 7230   2.793   0.888   7.083 -1.2387  0.2107 -1.7529
 2411SOL     OW 7231   2.583   4.001   7.859 -0.1534  0.1142  0.9382
 2411SOL    HW1 7232   2.491   3.990   7.834  0.3656 -0.4021 -0.8556
 2411SOL    HW2 7233   2.620   3.913   7.857  0.6007  0.4237  0.7234
 2412SOL     OW 7234   2.029   2.263   7.636  0.2514  0.6063 -0.4493
 2412SOL    HW1 7235   1.970   2.187   7.633  2.2064 -1.1335  1.6910
 2412SOL    HW2 7236   1.972   2.337   7.657 -1.3095 -0.8668  0.8238
 2413SOL     OW 7237   2.830   1.844   6.174  0.4837 -0.0999  0.1897
 2413SOL    HW1 7238   2.786   1.797   6.245 -2.0201 -1.2011 -1.9365
 2413SOL    HW2 7239   2.868   1.776   6.119  3.8437  0.7918  1.1997
 2414SOL     OW 7240   3.671   2.780   7.233 -0.1366  0.1042  0.5321
 2414SOL    HW1 7241   3.704   2.768   7.144 -1.9553  1.1656 -0.3515
 2414SOL    HW2 7242   3.667   2.692   7.269 -1.5935 -0.6836 -1.3228
 2415SOL     OW 7243   4.581   2.117   7.967 -0.2806 -0.3905  0.5462
 2415SOL    HW1 7244   4.488   2.111   7.988 -0.9424  1.1459 -1.5987
 2415SOL    HW2 7245   4.599   2.040   7.913 -0.3276 -0.6671  0.9291
 2416SOL     OW 7246   4.936   0.710   7.540  0.5427 -0.4995 -0.1439
 2416SOL    HW1 7247   4.940   0.777   7.608  1.7170 -2.2534  1.6465
 2416SOL    HW2 7248   4.989   0.744   7.469  0.8571  0.5969  0.5930
 2417SOL     OW 7249   1.942   3.145   7.907  0.0199 -0.0679 -0.4743
 2417SOL    HW1 7250   2.028   3.173   7.876  0.7317 -1.4992  0.0868
 2417SOL    HW2 7251   1.954   3.053   7.931 -1.2018  0.1951  1.3860
 2418SOL     OW 7252   2.301   2.013   8.391 -0.0653  0.6144 -0.0345
 2418SOL    HW1 7253   2.243   1.941   8.415 -1.4040  1.2162 -1.2519
 2418SOL    HW2 7254   2.351   2.032   8.470 -0.6463 -0.7484  0.6932
 2419SOL     OW 7255   0.052   2.992   8.887  0.1498 -0.4785 -0.2182
 2419SOL    HW1 7256   0.141   2.958   8.893  0.0415 -1.1892 -1.8914
 2419SOL    HW2 7257  -0.003   2.922   8.924  0.3360  0.6584  2.4330
 2420SOL     OW 7258   2.937   0.837   4.863 -0.0562 -0.0635 -0.2951
 2420SOL    HW1 7259   3.023   0.868   4.834  0.1485 -0.1648  0.2039
 2420SOL    HW2 7260   2.905   0.785   4.789  0.7463 -0.8556 -0.1098
 2421SOL     OW 7261   4.218   0.417   6.851  0.5940 -0.0834 -0.5951
 2421SOL    HW1 7262   4.191   0.339   6.802  2.7963 -0.3680 -1.4704
 2421SOL    HW2 7263   4.305   0.437   6.817 -0.1907  3.2434 -0.9616
 2422SOL     OW 7264   4.456   4.138   9.501 -0.3071  0.2345  0.3708
 2422SOL    HW1 7265   4.482   4.085   9.426 -1.6600  0.4305 -0.2777
 2422SOL    HW2 7266   4.444   4.076   9.573  0.6126 -0.0049  0.3214
 2423SOL     OW 7267   4.153   1.514   8.035 -0.1050  0.0743  0.4809
 2423SOL    HW1 7268   4.186   1.525   7.946 -0.1192 -1.1591  0.3013
 2423SOL    HW2 7269   4.218   1.458   8.078 -0.4802  0.0465  1.0245
 2424SOL     OW 7270   2.982   1.056   5.657 -0.0692  0.5023  0.6265
 2424SOL    HW1 7271   2.937   0.971   5.667  2.7555 -1.1438  0.4035
 2424SOL    HW2 7272   3.038   1.062   5.734 -0.5533  2.4430  0.8631
 2425SOL     OW 7273   1.713   4.772   6.227 -0.1909  0.0686 -0.1378
 2425SOL    HW1 7274   1.791   4.739   6.272 -0.7920 -2.4498 -0.7974
 2425SOL    HW2 7275   1.655   4.799   6.298  1.7053  3.3079  0.3488
 2426SOL     OW 7276   3.002   4.363   8.199  0.3452  0.4357  0.0296
 2426SOL    HW1 7277   3.046   4.408   8.127  1.5803 -1.0869 -0.2056
 2426SOL    HW2 7278   3.024   4.415   8.277  1.0038  0.7338 -0.3480
 2427SOL     OW 7279   4.978   2.354   8.172  0.3969  0.4316 -0.7090
 2427SOL    HW1 7280   4.898   2.311   8.144  1.8102 -1.8591 -1.5186
 2427SOL    HW2 7281   4.960   2.383   8.261 -1.2980 -0.0614 -0.8540
 2428SOL     OW 7282   3.656   4.087   7.768 -0.6442 -0.5039 -0.6136
 2428SOL    HW1 7283   3.699   4.125   7.691 -0.1756 -1.0987 -0.6524
 2428SOL    HW2 7284   3.716   4.019   7.798  0.4275  1.4018  1.8343
 2429SOL     OW 7285   4.204   0.093   6.884 -0.0086  0.0006 -0.5853
 2429SOL    HW1 7286   4.298   0.088   6.901 -0.1821 -2.6944 -0.0414
 2429SOL    HW2 7287   4.198   0.095   6.788  0.5931  1.4261 -0.6195
 2430SOL     OW 7288   2.962   2.180   8.084  0.2686  0.0970  0.3078
 2430SOL    HW1 7289   2.926   2.196   7.997  0.8038  0.3736  0.1401
 2430SOL    HW2 7290   2.934   2.255   8.136 -1.5318 -0.8703  0.8525
 2431SOL     OW 7291   4.828   1.481   8.886  0.6173 -0.3182 -0.1243
 2431SOL    HW1 7292   4.802   1.391   8.902  0.9058 -0.6101 -1.1834
 2431SOL    HW2 7293   4.815   1.526   8.969  1.7524 -1.6380  0.8166
 2432SOL     OW 7294   1.324   1.612   8.750 -0.3025  0.3946  0.0127
 2432SOL    HW1 7295   1.405   1.624   8.798 -0.6672  0.0002  0.7466
 2432SOL    HW2 7296   1.300   1.521   8.765 -0.1985  0.1267 -1.2972
 2433SOL     OW 7297   4.189   2.828   7.949  0.5297  0.3758  0.2112
 2433SOL    HW1 7298   4.110   2.809   7.899  0.8751 -1.8958  0.4238
 2433SOL    HW2 7299   4.260   2.823   7.885  0.7142  0.2514  0.4264
 2434SOL     OW 7300   1.112   1.131   6.437 -0.1586  0.0114 -0.0905
 2434SOL    HW1 7301   1.116   1.219   6.398  0.7468 -0.6568 -1.5987
 2434SOL    HW2 7302   1.120   1.146   6.531  1.6040  1.4696 -0.4191
 2435SOL     OW 7303   1.618   0.701   5.711 -0.4836 -0.3770  0.8718
 2435SOL    HW1 7304   1.697   0.755   5.722 -1.9451  2.0719  0.2269
 2435SOL    HW2 7305   1.557   0.735   5.777 -1.4452 -1.3247  0.4903
 2436SOL     OW 7306   3.054   4.758   8.198  0.3238  0.4336  0.2053
 2436SOL    HW1 7307   2.965   4.792   8.202  0.7921  1.8830 -0.9557
 2436SOL    HW2 7308   3.058   4.710   8.115  0.0441 -1.4693  1.2344
 2437SOL     OW 7309   1.769   1.283   8.170 -0.5957 -0.1585 -0.2224
 2437SOL    HW1 7310   1.822   1.227   8.112  0.8034  0.4413  0.4150
 2437SOL    HW2 7311   1.694   1.309   8.116  1.2750  1.4140 -2.2943
 2438SOL     OW 7312   3.000   2.456   6.616  0.0271 -0.3359  0.1818
 2438SOL    HW1 7313   2.906   2.463   6.634  0.1502 -0.7679  1.0986
 2438SOL    HW2 7314   3.022   2.535   6.568 -0.6779  0.1150  0.5819
 2439SOL     OW 7315   2.068   4.883   8.192  0.3063 -0.0999 -0.6234
 2439SOL    HW1 7316   2.026   4.952   8.243 -0.0805 -0.1019 -0.9377
 2439SOL    HW2 7317   2.040   4.802   8.234  0.3229 -0.0850 -0.5840
 2440SOL     OW 7318   2.543   0.822   7.663 -0.2403  0.5079  0.0363
 2440SOL    HW1 7319   2.490   0.899   7.682 -0.4289  0.8631 -1.8192
 2440SOL    HW2 7320   2.615   0.855   7.609  0.2804 -0.4484  0.1252
 2441SOL     OW 7321   4.245   2.428   9.842 -0.1512 -0.2906  0.2403
 2441SOL    HW1 7322   4.223   2.410   9.933  1.4139  0.8335  0.8910
 2441SOL    HW2 7323   4.252   2.523   9.837  2.1810 -0.4287 -0.4089
 2442SOL     OW 7324   1.892   3.289   7.075  0.8108  0.3145  0.2780
 2442SOL    HW1 7325   1.915   3.277   7.167  0.2219 -0.2876  0.3550
 2442SOL    HW2 7326   1.971   3.263   7.027  1.0194  0.3468  0.6037
 2443SOL     OW 7327   0.676   3.504   6.503 -0.5073  0.1279  0.3296
 2443SOL    HW1 7328   0.671   3.548   6.418 -0.3708 -0.0012  0.2534
 2443SOL    HW2 7329   0.721   3.567   6.560 -0.3611  0.1118  0.2346
 2444SOL     OW 7330   1.629   3.509   6.734  0.7786  0.4497  0.0667
 2444SOL    HW1 7331   1.686   3.572   6.779  1.5998  0.3761 -0.8491
 2444SOL    HW2 7332   1.657   3.424   6.768 -0.5730  0.5468  1.5781
 2445SOL     OW 7333   3.547   3.612   7.399 -0.0036 -0.1455  0.0331
 2445SOL    HW1 7334   3.613   3.681   7.390 -0.3797  0.1109 -0.8813
 2445SOL    HW2 7335   3.497   3.638   7.476  1.3361 -0.6777  1.1210
 2446SOL     OW 7336   3.456   0.936   8.244  0.0593  0.5815 -0.7743
 2446SOL    HW1 7337   3.389   0.934   8.176 -0.3112  4.1951 -0.7198
 2446SOL    HW2 7338   3.436   0.861   8.301 -0.8171 -1.3488 -3.4468
 2447SOL     OW 7339   1.074   3.603   7.961  0.0124 -0.9633  0.3019
 2447SOL    HW1 7340   1.126   3.523   7.963 -0.8287 -1.5295  1.3558
 2447SOL    HW2 7341   1.006   3.586   7.895  0.7261 -0.5020 -0.5673
 2448SOL     OW 7342   1.744   1.129   8.907  0.3395  0.4960 -0.1860
 2448SOL    HW1 7343   1.667   1.072   8.905  0.7756 -0.1655  0.7943
 2448SOL    HW2 7344   1.808   1.086   8.850  0.2826  0.5778 -0.3096
 2449SOL     OW 7345   3.992   3.020   7.079 -0.3890 -0.3266 -0.1058
 2449SOL    HW1 7346   3.921   2.993   7.136 -1.7275  0.4995 -1.3180
 2449SOL    HW2 7347   4.028   2.938   7.045  0.4915 -0.8321  1.9161
 2450SOL     OW 7348   4.103   2.765   8.449  0.9229 -0.2180 -0.3506
 2450SOL    HW1 7349   4.073   2.746   8.360 -1.7780  0.9594  0.2077
 2450SOL    HW2 7350   4.173   2.829   8.438  1.0900 -0.5954 -1.6358
 2451SOL     OW 7351   3.088   0.492   8.499 -0.1479 -0.5194  0.6858
 2451SOL    HW1 7352   3.042   0.576   8.490 -1.6986 -1.4130 -0.2456
 2451SOL    HW2 7353   3.174   0.515   8.532 -0.8912  1.3569  1.4657
 2452SOL     OW 7354   2.794   3.235   7.618 -0.0115  0.1236  0.2357
 2452SOL    HW1 7355   2.866   3.222   7.556 -2.1582 -0.6302 -2.2823
 2452SOL    HW2 7356   2.806   3.325   7.650  2.3102 -0.1641  0.3308
 2453SOL     OW 7357   1.657   1.181   8.431 -0.2785  0.0862  0.1582
 2453SOL    HW1 7358   1.682   1.249   8.492  1.6130 -0.3996 -0.0214
 2453SOL    HW2 7359   1.698   1.207   8.348 -1.0866 -0.3260 -0.3855
 2454SOL     OW 7360   3.715   2.007   7.313 -0.6923 -0.1679 -0.2786
 2454SOL    HW1 7361   3.673   2.036   7.233 -1.4327 -0.3120  0.0509
 2454SOL    HW2 7362   3.761   2.085   7.345 -1.0012  0.0922 -0.4581
 2455SOL     OW 7363   1.973   2.887   5.522 -0.0695 -0.4501  0.4056
 2455SOL    HW1 7364   1.985   2.970   5.477 -3.4024  0.1655  0.3543
 2455SOL    HW2 7365   2.024   2.824   5.472  1.9895  1.3916  0.0412
 2456SOL     OW 7366   2.962   3.773   8.787 -0.0317  0.3135  0.1088
 2456SOL    HW1 7367   2.887   3.832   8.791 -0.7521 -0.6447  1.8346
 2456SOL    HW2 7368   3.024   3.817   8.729 -1.3024  1.8453 -0.1556
 2457SOL     OW 7369   3.766   3.005   6.502  0.9344  0.0721 -0.4242
 2457SOL    HW1 7370   3.782   3.085   6.551  1.1165  0.4121 -1.0310
 2457SOL    HW2 7371   3.769   2.935   6.568  2.5044  0.3755 -0.1340
 2458SOL     OW 7372   1.614   3.761   8.319  0.1240  0.5153  0.2967
 2458SOL    HW1 7373   1.532   3.737   8.360  0.3636 -1.3747 -0.2270
 2458SOL    HW2 7374   1.676   3.693   8.346  1.3348  1.4831  0.0811
 2459SOL     OW 7375   3.747   2.836   8.291 -0.3050  0.1848 -0.0899
 2459SOL    HW1 7376   3.787   2.848   8.205 -1.7131  2.2803 -0.5307
 2459SOL    HW2 7377   3.678   2.771   8.277  0.4422 -0.6179 -0.1608
 2460SOL     OW 7378   2.865   2.057   9.347  0.2490  0.2668 -0.3984
 2460SOL    HW1 7379   2.888   2.070   9.255 -3.5791 -0.2291 -1.6064
 2460SOL    HW2 7380   2.883   1.965   9.364 -0.4277 -0.0293 -1.1938
 2461SOL     OW 7381   4.803   3.317   8.229  0.7216  0.1996 -0.1117
 2461SOL    HW1 7382   4.844   3.244   8.182  1.1319 -0.0703  0.6346
 2461SOL    HW2 7383   4.762   3.276   8.305 -0.2493  0.5809 -0.4140
 2462SOL     OW 7384   3.525   2.743   5.807 -0.1214  0.1373 -0.1578
 2462SOL    HW1 7385   3.543   2.826   5.763  0.0226  0.2857  0.1785
 2462SOL    HW2 7386   3.529   2.764   5.900 -1.5714  0.0699 -0.0556
 2463SOL     OW 7387   2.924   2.876   6.769  0.0127  0.2561  0.4305
 2463SOL    HW1 7388   2.840   2.922   6.767  0.0571  0.3285 -0.0155
 2463SOL    HW2 7389   2.979   2.927   6.828  0.5030  1.5648 -1.0846
 2464SOL     OW 7390   3.787   4.199   8.493 -0.3715 -0.3358 -0.5155
 2464SOL    HW1 7391   3.869   4.190   8.541 -0.1343  0.6818 -0.7150
 2464SOL    HW2 7392   3.783   4.121   8.437  0.3555 -0.4889 -0.3598
 2465SOL     OW 7393   2.967   3.032   8.766  0.2245 -0.2148 -0.3339
 2465SOL    HW1 7394   2.966   3.127   8.775  0.4847 -0.2021 -0.4319
 2465SOL    HW2 7395   2.886   3.012   8.719 -0.7211 -0.2134  1.2550
 2466SOL     OW 7396   1.793   2.238   9.147  0.6783  0.5744 -0.5588
 2466SOL    HW1 7397   1.841   2.263   9.226  1.2899  2.4864 -1.4897
 2466SOL    HW2 7398   1.756   2.320   9.114 -4.3178 -0.8076  0.6992
 2467SOL     OW 7399   3.962   4.586   7.477  0.4845 -0.4811  0.1511
 2467SOL    HW1 7400   3.876   4.582   7.436  0.8173 -1.1669 -0.5132
 2467SOL    HW2 7401   3.951   4.644   7.552 -0.3519  0.1024 -0.4068
 2468SOL     OW 7402   2.893   2.565   8.680  0.6481  0.0202  0.9978
 2468SOL    HW1 7403   2.931   2.653   8.687  1.2677 -0.1200 -0.1886
 2468SOL    HW2 7404   2.814   2.577   8.627  2.1035 -0.4318 -1.4568
 2469SOL     OW 7405   0.125   1.730   8.296 -0.0296  0.0891  0.0729
 2469SOL    HW1 7406   0.106   1.637   8.307 -0.8052  0.1222 -0.8785
 2469SOL    HW2 7407   0.221   1.735   8.301  0.2534 -1.1641 -2.5017
 2470SOL     OW 7408   1.949   1.376   7.235 -0.2435 -0.4174  0.2193
 2470SOL    HW1 7409   2.030   1.329   7.214  0.6569  0.9516  0.4835
 2470SOL    HW2 7410   1.957   1.459   7.187 -1.2623 -0.0511  0.6533
 2471SOL     OW 7411   2.189   3.238   7.848  0.1134  0.5484  0.2249
 2471SOL    HW1 7412   2.273   3.209   7.813  0.0919  1.5215 -0.6675
 2471SOL    HW2 7413   2.193   3.333   7.843 -1.6047  0.5892 -1.2052
 2472SOL     OW 7414   3.146   2.692   6.863  0.1136 -0.4352 -0.0461
 2472SOL    HW1 7415   3.082   2.750   6.823  0.4375  0.6401  0.9584
 2472SOL    HW2 7416   3.167   2.629   6.794 -3.0444 -1.7239  0.0201
 2473SOL     OW 7417   2.757   3.891   6.955  0.4436 -0.2559 -0.0341
 2473SOL    HW1 7418   2.724   3.847   6.877  0.2569 -0.1313 -0.0266
 2473SOL    HW2 7419   2.736   3.983   6.942 -1.2804 -0.4627  0.9967
 2474SOL     OW 7420   1.147   3.763   8.187  0.2471 -0.2528 -0.3553
 2474SOL    HW1 7421   1.117   3.698   8.124  0.7359 -0.6912 -0.1434
 2474SOL    HW2 7422   1.077   3.828   8.191  0.0373 -0.4323 -1.0506
 2475SOL     OW 7423   3.605   1.412   6.809  0.3905  0.3868  0.2480
 2475SOL    HW1 7424   3.626   1.414   6.902  1.2823 -1.0350  0.0930
 2475SOL    HW2 7425   3.528   1.355   6.803  0.3117  0.5054  0.1128
 2476SOL     OW 7426   4.444   3.722   8.042  0.2293  0.1689 -0.0655
 2476SOL    HW1 7427   4.467   3.758   8.128  1.5539  1.2828 -0.8463
 2476SOL    HW2 7428   4.502   3.767   7.981 -1.7660  0.5783 -1.7764
 2477SOL     OW 7429   2.054   4.246   9.012  0.6122  0.2465  0.0629
 2477SOL    HW1 7430   1.999   4.253   9.090  0.6275  2.2586 -0.0728
 2477SOL    HW2 7431   2.142   4.227   9.047  0.3669 -0.2349  0.4345
 2478SOL     OW 7432   2.804   1.740   5.399  0.4798 -0.1207  0.0036
 2478SOL    HW1 7433   2.775   1.820   5.356  0.8600 -0.1248 -0.2573
 2478SOL    HW2 7434   2.782   1.753   5.492 -0.6892 -0.2674 -0.2316
 2479SOL     OW 7435   1.778   1.946   7.987 -0.0332 -0.2042  0.0187
 2479SOL    HW1 7436   1.792   1.894   7.908 -0.0729  0.5812 -0.5143
 2479SOL    HW2 7437   1.812   2.032   7.965  1.5743 -0.4171  1.4480
 2480SOL     OW 7438   0.019   1.223   7.735 -0.2343  0.3000  0.6800
 2480SOL    HW1 7439   0.066   1.289   7.786 -1.2616  0.1793  1.8474
 2480SOL    HW2 7440   0.081   1.151   7.725  0.9928  1.4772 -0.8150
 2481SOL     OW 7441   1.881   3.996   6.204  0.6022  0.1618 -0.3852
 2481SOL    HW1 7442   1.931   4.076   6.216  1.9949 -0.7255 -0.0652
 2481SOL    HW2 7443   1.892   3.973   6.112  0.4693  0.1665 -0.4029
 2482SOL     OW 7444   3.419   1.822   7.027 -0.0314 -0.5603 -0.2786
 2482SOL    HW1 7445   3.500   1.777   7.003 -1.0314 -2.0236 -1.0838
 2482SOL    HW2 7446   3.397   1.786   7.113 -0.2167 -0.7532 -0.4044
 2483SOL     OW 7447   2.560   3.139   7.494 -0.3649 -0.3635 -0.1584
 2483SOL    HW1 7448   2.633   3.184   7.538  0.5429  0.5459 -2.4217
 2483SOL    HW2 7449   2.598   3.058   7.462 -0.5948 -0.3140 -0.5582
 2484SOL     OW 7450   0.879   2.319   7.161  0.2664 -0.4673 -0.7068
 2484SOL    HW1 7451   0.894   2.408   7.194 -0.5072 -0.6384  0.1519
 2484SOL    HW2 7452   0.837   2.332   7.075  1.9343 -0.0213 -1.4980
 2485SOL     OW 7453   3.257   1.308   6.053  0.2261 -0.1289  0.3141
 2485SOL    HW1 7454   3.178   1.269   6.090  0.7775 -0.6127  1.0137
 2485SOL    HW2 7455   3.319   1.309   6.126  0.7917  0.4573 -0.1654
 2486SOL     OW 7456   2.801   1.384   6.635 -0.2406 -0.0305  0.0061
 2486SOL    HW1 7457   2.846   1.302   6.658  0.1815  0.0543 -0.4994
 2486SOL    HW2 7458   2.804   1.387   6.539 -1.4110 -0.0659 -0.0522
 2487SOL     OW 7459   2.674   2.327   7.891  0.4847 -0.0618 -0.3635
 2487SOL    HW1 7460   2.666   2.294   7.981 -1.9985  0.9643 -0.1239
 2487SOL    HW2 7461   2.740   2.271   7.851  2.2656 -0.0807  2.2850
 2488SOL     OW 7462   3.404   0.946   8.769  0.5909  0.0705 -0.2207
 2488SOL    HW1 7463   3.320   0.905   8.746  0.6761 -1.0429  1.3273
 2488SOL    HW2 7464   3.382   1.037   8.789 -0.1295 -0.0433 -0.4561
 2489SOL     OW 7465   3.288   2.929   8.337 -0.0447  0.0651 -0.5790
 2489SOL    HW1 7466   3.295   3.024   8.337 -1.0651  0.1453 -1.1729
 2489SOL    HW2 7467   3.374   2.899   8.368  0.5625  1.1459 -1.1739
 2490SOL     OW 7468   2.431   3.451   7.232  0.1348  0.5274  0.2514
 2490SOL    HW1 7469   2.373   3.526   7.221  0.6326  0.9302  0.2981
 2490SOL    HW2 7470   2.452   3.450   7.326  0.8498  0.8821  0.0981
 2491SOL     OW 7471   3.471   3.255   8.540 -0.2478 -0.4404 -0.0817
 2491SOL    HW1 7472   3.546   3.207   8.505  0.6939  0.0682  1.1657
 2491SOL    HW2 7473   3.404   3.188   8.554  0.4091 -1.1072 -0.0640
 2492SOL     OW 7474   3.917   4.404   9.001  0.1987 -0.1091  0.0853
 2492SOL    HW1 7475   4.010   4.382   9.005  0.0833 -0.3864  1.9753
 2492SOL    HW2 7476   3.873   4.319   8.997 -0.0303 -0.0589  1.2751
 2493SOL     OW 7477   1.069   4.120   9.378  0.3153  0.0446  0.2100
 2493SOL    HW1 7478   0.981   4.149   9.353 -0.2184  0.3529  2.2489
 2493SOL    HW2 7479   1.094   4.179   9.450  2.1888 -0.0619 -0.3023
 2494SOL     OW 7480   3.336   3.231   7.042  0.3608 -0.1964 -0.2456
 2494SOL    HW1 7481   3.324   3.279   6.960  0.5317 -0.9964 -0.7526
 2494SOL    HW2 7482   3.397   3.161   7.019 -1.4634 -1.9268 -0.0544
 2495SOL     OW 7483   0.292   3.048   8.471 -0.2516 -0.3015 -0.2074
 2495SOL    HW1 7484   0.268   3.060   8.563 -0.7428 -1.5916 -0.1451
 2495SOL    HW2 7485   0.339   2.965   8.469 -1.5447 -1.0563 -1.3122
 2496SOL     OW 7486   4.013   1.593   8.235 -0.3630 -0.0995 -0.1074
 2496SOL    HW1 7487   4.071   1.589   8.310  0.6711  1.9705 -0.7116
 2496SOL    HW2 7488   4.065   1.560   8.162 -0.0291  1.3500 -0.5681
 2497SOL     OW 7489   2.639   3.740   7.829 -0.4449  0.0305 -0.5789
 2497SOL    HW1 7490   2.644   3.739   7.924 -0.2694  0.8728 -0.5701
 2497SOL    HW2 7491   2.563   3.686   7.808 -1.8195  1.5950  0.1557
 2498SOL     OW 7492   0.604   4.069   6.183 -0.2936  0.0179 -0.3625
 2498SOL    HW1 7493   0.570   4.020   6.258 -1.4524 -0.6779 -1.3120
 2498SOL    HW2 7494   0.603   4.006   6.111  0.4137  0.7902 -1.0750
 2499SOL     OW 7495   2.573   0.500   8.566 -0.0156 -0.3383 -0.0690
 2499SOL    HW1 7496   2.643   0.447   8.530 -1.1443 -2.0130  0.0568
 2499SOL    HW2 7497   2.495   0.472   8.519 -0.4232  2.7022 -1.4591
 2500SOL     OW 7498   4.604   1.482   8.222 -0.1727 -0.6552  0.5311
 2500SOL    HW1 7499   4.628   1.390   8.210 -0.4892 -0.6761  0.0140
 2500SOL    HW2 7500   4.568   1.486   8.311  0.8850 -0.7995  0.9733
 2501SOL     OW 7501   3.726   1.459   5.110  0.0181  0.2843 -0.0476
 2501SOL    HW1 7502   3.660   1.427   5.049  1.6916  0.1602 -1.8895
 2501SOL    HW2 7503   3.805   1.410   5.088  0.7419  0.3573  2.1391
 2502SOL     OW 7504   2.352   4.695   6.924 -0.8687 -0.6503  0.5886
 2502SOL    HW1 7505   2.375   4.694   7.017  0.3902  0.3375  0.3111
 2502SOL    HW2 7506   2.328   4.786   6.907 -1.0267 -0.8159 -0.0780
 2503SOL     OW 7507   2.383   4.576   8.214  0.4927 -0.0893  0.2081
 2503SOL    HW1 7508   2.433   4.536   8.285  0.7184  0.5214  0.4005
 2503SOL    HW2 7509   2.326   4.639   8.257  0.7072  0.3614 -0.1600
 2504SOL     OW 7510   2.383   1.983   8.735 -0.3652 -0.2293 -0.3461
 2504SOL    HW1 7511   2.394   1.893   8.765  3.3800  0.1804 -0.1373
 2504SOL    HW2 7512   2.346   2.030   8.810  0.3437 -1.0246  0.5122
 2505SOL     OW 7513   2.706   2.922   7.453 -0.2775  0.2048  0.3548
 2505SOL    HW1 7514   2.755   2.860   7.507 -0.1216 -0.5821 -0.6615
 2505SOL    HW2 7515   2.747   2.916   7.366  2.2509  4.4011  0.9796
 2506SOL     OW 7516   4.623   3.509   9.302  0.6066 -0.1165  0.0084
 2506SOL    HW1 7517   4.562   3.492   9.230  0.4774 -1.4165  0.3961
 2506SOL    HW2 7518   4.577   3.477   9.380  1.3403 -0.0881  0.4575
 2507SOL     OW 7519   3.323   2.206   7.430  0.0557 -0.1132 -0.4405
 2507SOL    HW1 7520   3.293   2.163   7.511  0.6133 -2.4061 -1.3715
 2507SOL    HW2 7521   3.250   2.262   7.405 -0.9341 -0.8695  0.6220
 2508SOL     OW 7522   3.971   1.507   9.954 -0.2859 -0.8834  0.4276
 2508SOL    HW1 7523   3.910   1.570   9.917 -0.7364 -1.0384  0.8988
 2508SOL    HW2 7524   3.960   1.429   9.899 -0.3773 -0.8477  0.3945
 2509SOL     OW 7525   2.855   1.094   7.953  0.2942 -0.1323 -0.3781
 2509SOL    HW1 7526   2.868   1.070   7.861  1.9746 -0.7275 -0.0237
 2509SOL    HW2 7527   2.824   1.184   7.950  1.2788  0.2043 -1.5100
 2510SOL     OW 7528   2.248   3.686   7.250  0.5784  0.1366  0.2511
 2510SOL    HW1 7529   2.277   3.770   7.285 -0.4296  0.4312  0.4077
 2510SOL    HW2 7530   2.184   3.654   7.313  0.0423 -0.1604 -0.4287
 2511SOL     OW 7531   1.951   0.604   9.738 -0.1490  0.8272 -0.3186
 2511SOL    HW1 7532   2.043   0.627   9.744  0.2725 -0.4356 -1.5030
 2511SOL    HW2 7533   1.905   0.681   9.770  1.2538  2.1748 -1.4177
 2512SOL     OW 7534   4.822   3.375   9.703  0.2650  0.4430  0.0123
 2512SOL    HW1 7535   4.815   3.317   9.628 -0.1971 -1.3699  1.3886
 2512SOL    HW2 7536   4.910   3.413   9.696  0.3712  0.0060 -1.2196
 2513SOL     OW 7537   2.281   3.663   6.742 -0.0001 -0.1278  0.4734
 2513SOL    HW1 7538   2.293   3.661   6.837  0.4064  0.1323  0.4292
 2513SOL    HW2 7539   2.263   3.755   6.722 -3.0038 -0.5779  0.6316
 2514SOL     OW 7540   1.854   3.174   8.362 -0.5287  0.0394  0.1740
 2514SOL    HW1 7541   1.929   3.216   8.320  0.0150  1.2876  2.2387
 2514SOL    HW2 7542   1.858   3.083   8.333  0.9766  0.3866 -0.8313
 2515SOL     OW 7543   1.072   0.492   7.068 -0.5513  0.0645  0.0284
 2515SOL    HW1 7544   1.125   0.465   6.993  0.5716  0.0237  0.8153
 2515SOL    HW2 7545   1.032   0.411   7.099 -2.0496  0.2518 -1.2491
 2516SOL     OW 7546   2.556   4.075   8.108  0.1766 -0.0632 -0.1523
 2516SOL    HW1 7547   2.592   4.065   8.020  0.7580  2.5560 -0.3078
 2516SOL    HW2 7548   2.630   4.109   8.160 -1.1279  2.2515  0.3320
 2517SOL     OW 7549   1.913   1.584   7.605  0.1240  0.0896  0.1451
 2517SOL    HW1 7550   1.946   1.592   7.516  1.4227  0.7873  0.6652
 2517SOL    HW2 7551   1.882   1.494   7.611 -1.8064  0.5580 -1.5829
 2518SOL     OW 7552   2.628   3.520   8.062 -0.1216 -0.1257  0.4242
 2518SOL    HW1 7553   2.709   3.520   8.112 -0.5742 -0.6418  1.1763
 2518SOL    HW2 7554   2.597   3.611   8.065  0.7548  0.2151 -0.4286
 2519SOL     OW 7555   4.519   2.592   7.164  0.0690  0.2470 -0.2025
 2519SOL    HW1 7556   4.493   2.582   7.255 -1.0421 -1.1955 -0.6433
 2519SOL    HW2 7557   4.523   2.503   7.130 -2.6224  0.8416 -2.3869
 2520SOL     OW 7558   1.559   3.458   8.689  0.1332  0.4314 -0.0311
 2520SOL    HW1 7559   1.507   3.453   8.770 -0.9777 -1.4520 -0.7828
 2520SOL    HW2 7560   1.505   3.414   8.624  1.8455  0.1939 -1.3573
 2521SOL     OW 7561   2.013   1.618   8.539  0.1051 -0.0429 -0.2830
 2521SOL    HW1 7562   2.026   1.532   8.578  1.6600 -0.0665 -0.7896
 2521SOL    HW2 7563   2.093   1.634   8.489 -0.5934  1.2572 -1.0321
 2522SOL     OW 7564   5.022   2.742   8.454  0.2489  0.0900  0.3649
 2522SOL    HW1 7565   4.962   2.802   8.410 -1.3126 -1.3864  0.3722
 2522SOL    HW2 7566   4.979   2.657   8.447  2.7963 -1.2217 -0.4487
 2523SOL     OW 7567   1.139   3.285   9.571  0.4747  0.8134  0.2386
 2523SOL    HW1 7568   1.141   3.327   9.485  0.0672  0.1877 -0.0846
 2523SOL    HW2 7569   1.158   3.192   9.553  1.5351  0.8685  0.9563
 2524SOL     OW 7570   3.795   3.931   8.937  0.2092 -0.2939  0.5176
 2524SOL    HW1 7571   3.778   3.919   8.843  0.7849  0.7888  0.2676
 2524SOL    HW2 7572   3.708   3.943   8.975 -0.2089 -2.5784  0.4314
 2525SOL     OW 7573   4.743   3.699   9.868  0.0420 -0.2784  0.2622
 2525SOL    HW1 7574   4.818   3.750   9.900 -0.8808  1.1092  0.3082
 2525SOL    HW2 7575   4.733   3.727   9.776 -0.0616 -0.8996  0.0815
 2526SOL     OW 7576   4.675   4.816   8.977 -0.1040  0.0076 -0.2545
 2526SOL    HW1 7577   4.646   4.741   9.030 -0.1302  1.6153  2.1616
 2526SOL    HW2 7578   4.769   4.820   8.992  0.0409 -0.0646 -1.1177
 2527SOL     OW 7579   2.867   4.108   8.480 -0.2258 -0.3058  0.3326
 2527SOL    HW1 7580   2.855   4.049   8.554  0.8761 -1.5411 -0.4433
 2527SOL    HW2 7581   2.933   4.171   8.510  1.1007 -1.5125  0.0274
 2528SOL     OW 7582   3.866   0.680   9.893  0.3730 -0.0831 -0.2159
 2528SOL    HW1 7583   3.838   0.738   9.823 -1.5645  0.7954  1.1914
 2528SOL    HW2 7584   3.784   0.652   9.935  1.4026 -1.7169  0.7923
 2529SOL     OW 7585   0.191   3.942   8.571  0.1000  0.2543 -0.2022
 2529SOL    HW1 7586   0.276   3.907   8.546  0.5446  1.4047 -0.3840
 2529SOL    HW2 7587   0.211   4.012   8.633 -0.6293  1.1281 -0.9072
 2530SOL     OW 7588   3.039   0.300   8.321 -0.2241  0.3984 -0.4265
 2530SOL    HW1 7589   3.060   0.365   8.389 -2.6769  2.2104 -1.2380
 2530SOL    HW2 7590   3.022   0.219   8.370 -1.5870  1.5632  1.1706
 2531SOL     OW 7591   1.301   3.604   8.620  0.2884 -0.3032  0.5377
 2531SOL    HW1 7592   1.330   3.644   8.702 -1.5156  1.8829  0.1936
 2531SOL    HW2 7593   1.336   3.662   8.552 -1.9547  0.5110  0.0038
 2532SOL     OW 7594   4.655   2.868   9.177  0.2148  0.7724 -0.8806
 2532SOL    HW1 7595   4.693   2.852   9.090  2.7066  2.1647 -0.1637
 2532SOL    HW2 7596   4.563   2.845   9.168  0.6949 -0.4962 -3.4888
 2533SOL     OW 7597   3.801   1.394   6.232 -0.5738  0.6864  0.2031
 2533SOL    HW1 7598   3.860   1.325   6.262  0.5928  1.3845 -0.4036
 2533SOL    HW2 7599   3.784   1.447   6.309 -0.1089  0.6893  0.3047
 2534SOL     OW 7600   2.343   2.223   9.068 -0.0433  0.0887  0.1145
 2534SOL    HW1 7601   2.411   2.268   9.118 -1.1487  0.1304  1.6292
 2534SOL    HW2 7602   2.263   2.238   9.117 -0.4130 -4.2792  1.2515
 2535SOL     OW 7603   0.284   4.342   9.410  0.5577 -0.6191  0.0570
 2535SOL    HW1 7604   0.335   4.367   9.487 -0.3753 -0.1912  0.5514
 2535SOL    HW2 7605   0.345   4.293   9.355  2.0387  1.4499 -0.2389
 2536SOL     OW 7606   4.700   0.349   9.240  0.4884 -0.1412 -0.3246
 2536SOL    HW1 7607   4.716   0.401   9.161  0.1005 -0.4515 -0.6113
 2536SOL    HW2 7608   4.754   0.271   9.230  2.6307  1.0640  1.0218
 2537SOL     OW 7609   3.130   2.054   6.737 -0.5129  1.0656 -0.3442
 2537SOL    HW1 7610   3.114   1.959   6.736 -0.3262  1.0168  0.4571
 2537SOL    HW2 7611   3.093   2.085   6.655 -0.4251  0.2724 -0.7004
 2538SOL     OW 7612   2.853   3.944   9.158  0.1749  0.0831  0.1662
 2538SOL    HW1 7613   2.793   4.005   9.116  1.6291  1.6674  0.2609
 2538SOL    HW2 7614   2.798   3.891   9.215 -1.0542  1.9535  0.8006
 2539SOL     OW 7615   4.515   1.938   9.666  0.2645 -0.1544  0.0354
 2539SOL    HW1 7616   4.573   2.014   9.660 -1.2039  0.9646 -0.5907
 2539SOL    HW2 7617   4.516   1.899   9.579  1.2294 -1.0376  0.4293
 2540SOL     OW 7618   3.853   0.824   9.661  0.3972 -0.4064  0.1655
 2540SOL    HW1 7619   3.787   0.893   9.663  1.5662  0.7364  0.7504
 2540SOL    HW2 7620   3.929   0.865   9.619  0.7968 -1.6485 -0.3751
 2541SOL     OW 7621   2.527   3.143   6.939  0.0138 -0.4880  0.1503
 2541SOL    HW1 7622   2.468   3.136   7.015  1.2887 -1.7406  1.0558
 2541SOL    HW2 7623   2.487   3.212   6.885 -1.7305 -0.6002  1.2166
 2542SOL     OW 7624   2.403   0.872   9.584  0.5717 -0.2713 -0.3890
 2542SOL    HW1 7625   2.470   0.939   9.571  0.4456 -0.4339 -2.1002
 2542SOL    HW2 7626   2.433   0.798   9.531 -0.2405 -0.8733 -0.0223
 2543SOL     OW 7627  -0.005   4.006   9.380  0.1799 -0.0600  0.1700
 2543SOL    HW1 7628  -0.012   4.102   9.381  1.2066  0.0302  1.5254
 2543SOL    HW2 7629   0.037   3.986   9.296 -2.8954  0.3678 -1.6618
 2544SOL     OW 7630   3.660   2.397   7.676  0.1703 -0.0105 -0.1710
 2544SOL    HW1 7631   3.623   2.478   7.710  0.6682 -0.4721  1.5577
 2544SOL    HW2 7632   3.643   2.400   7.582  0.4276  2.2299 -0.1965
 2545SOL     OW 7633   3.405   4.309   8.955 -0.3738  0.1308 -0.4614
 2545SOL    HW1 7634   3.480   4.359   8.922  1.6657 -2.0349  0.5915
 2545SOL    HW2 7635   3.421   4.300   9.049 -1.7314 -0.7468 -0.2807
 2546SOL     OW 7636   2.396   1.752   7.684 -0.2622 -0.2738  0.1303
 2546SOL    HW1 7637   2.491   1.745   7.693 -0.1345 -2.3317 -2.0257
 2546SOL    HW2 7638   2.382   1.795   7.600 -1.2672  0.2568  0.5424
 2547SOL     OW 7639   2.781   1.786  10.041  0.0727 -0.0643  0.2418
 2547SOL    HW1 7640   2.722   1.860  10.024  1.2964  0.7096 -0.7898
 2547SOL    HW2 7641   2.732   1.730  10.101 -1.9573  0.2489 -1.0278
 2548SOL     OW 7642   4.137   3.677   9.694 -0.6346 -0.6140 -1.2438
 2548SOL    HW1 7643   4.132   3.718   9.780  2.0194 -0.4464 -1.0696
 2548SOL    HW2 7644   4.175   3.744   9.638  2.1963 -2.1254 -1.3446
 2549SOL     OW 7645   1.610   3.664   9.011 -0.1072  0.2627  0.2500
 2549SOL    HW1 7646   1.529   3.670   8.961  0.7039  1.7298 -0.9979
 2549SOL    HW2 7647   1.663   3.599   8.965 -0.4279 -0.4318  0.8526
 2550SOL     OW 7648   1.626   2.958   8.224  0.4916 -0.2888  0.0002
 2550SOL    HW1 7649   1.693   2.904   8.267  1.3710  1.3198  0.7748
 2550SOL    HW2 7650   1.558   2.969   8.291  0.5462 -0.0567  0.0194
 2551SOL     OW 7651   2.115   1.871   9.000 -0.2315  0.1267  0.3512
 2551SOL    HW1 7652   2.033   1.915   8.977 -0.3040 -0.7375 -1.1741
 2551SOL    HW2 7653   2.105   1.850   9.093 -1.0100  1.5328  0.6122
 2552SOL     OW 7654   2.278   1.269   9.751 -0.2097 -0.5439 -0.5107
 2552SOL    HW1 7655   2.250   1.180   9.731 -1.4918 -0.2841  0.0594
 2552SOL    HW2 7656   2.232   1.324   9.687 -0.5033 -0.1726  0.0072
 2553SOL     OW 7657   2.889   1.459   9.567  0.0275 -0.1172 -0.2797
 2553SOL    HW1 7658   2.888   1.549   9.599 -0.0128  0.0107 -0.6359
 2553SOL    HW2 7659   2.823   1.457   9.498 -0.6556 -0.6690  0.3748
 2554SOL     OW 7660   4.032   4.091   8.651 -0.1617  0.4483 -0.0921
 2554SOL    HW1 7661   3.987   4.011   8.681  0.0842  0.2358 -0.2795
 2554SOL    HW2 7662   4.120   4.084   8.689  0.6742 -0.5865 -2.0604
 2555SOL     OW 7663   1.752   3.547   8.445 -0.3648 -0.0395  0.6844
 2555SOL    HW1 7664   1.840   3.527   8.476 -0.6974  0.1178  1.7435
 2555SOL    HW2 7665   1.702   3.467   8.460 -0.0776 -0.6661 -1.3098
 2556SOL     OW 7666   4.323   2.606   8.351 -0.6321 -0.2793 -0.5434
 2556SOL    HW1 7667   4.234   2.640   8.352 -0.4625  0.2261 -1.2112
 2556SOL    HW2 7668   4.350   2.606   8.443 -1.8544 -1.9544 -0.1383
 2557SOL     OW 7669   2.682   3.331   8.699  0.3008 -0.1467  0.6500
 2557SOL    HW1 7670   2.733   3.385   8.761  1.0963  2.7031 -2.2039
 2557SOL    HW2 7671   2.637   3.395   8.643  1.9735 -2.2797 -3.5732
 2558SOL     OW 7672   2.533   4.325   8.362 -0.3271 -0.0371 -0.0093
 2558SOL    HW1 7673   2.615   4.290   8.325 -0.8296 -0.2249 -0.9804
 2558SOL    HW2 7674   2.465   4.292   8.304 -0.9032  1.9013 -0.4903
 2559SOL     OW 7675   3.633   1.154   8.262  0.1911  0.4489 -0.2781
 2559SOL    HW1 7676   3.569   1.085   8.278  0.8383 -0.7215 -2.3098
 2559SOL    HW2 7677   3.689   1.153   8.339  1.8927 -3.3413 -1.3201
 2560SOL     OW 7678   3.714   2.789   7.656 -0.1568 -0.2794  0.4152
 2560SOL    HW1 7679   3.765   2.727   7.605 -0.8429  0.5595 -1.3848
 2560SOL    HW2 7680   3.638   2.739   7.687 -0.0704 -0.6506  0.0320
 2561SOL     OW 7681   0.908   3.936   8.188  0.6655  0.4957  0.0690
 2561SOL    HW1 7682   0.890   3.848   8.155  1.5283  0.2758  0.1423
 2561SOL    HW2 7683   0.862   3.994   8.127  1.0625  0.0359 -0.6918
 2562SOL     OW 7684   2.030   3.362   7.578 -0.8005  0.2755 -0.4229
 2562SOL    HW1 7685   1.975   3.291   7.610 -0.6842 -0.7580 -2.3219
 2562SOL    HW2 7686   2.106   3.318   7.539  0.5864  1.5904  0.6773
 2563SOL     OW 7687   0.629   2.234   9.237 -0.5221 -0.1001  0.1327
 2563SOL    HW1 7688   0.605   2.274   9.153 -1.9200  1.2699  1.1350
 2563SOL    HW2 7689   0.583   2.150   9.237 -0.6281 -0.0446 -0.4235
 2564SOL     OW 7690   3.031   3.244   9.509  0.8557 -0.1682  0.2459
 2564SOL    HW1 7691   3.088   3.183   9.464  0.5536  0.6137 -1.2469
 2564SOL    HW2 7692   2.966   3.189   9.552  0.3220 -0.9135 -1.4411
 2565SOL     OW 7693   0.834   3.150   8.763  0.2323 -0.2701 -0.0703
 2565SOL    HW1 7694   0.928   3.149   8.747  0.6553 -2.3575  1.9833
 2565SOL    HW2 7695   0.810   3.242   8.760  2.6676  0.4805  0.8828
 2566SOL     OW 7696   3.399   0.328   6.335  0.2662 -0.1054 -0.1171
 2566SOL    HW1 7697   3.305   0.309   6.337  0.3852 -0.7032  1.0130
 2566SOL    HW2 7698   3.406   0.417   6.370  0.0229  0.5570 -1.6628
 2567SOL     OW 7699   2.243   3.514   9.393  1.0936 -0.4206  0.7795
 2567SOL    HW1 7700   2.164   3.530   9.444  1.2603  1.0727  0.6090
 2567SOL    HW2 7701   2.217   3.528   9.302  1.2371 -1.2692  0.5996
 2568SOL     OW 7702   1.687   0.116   7.649 -0.1855  0.5932 -0.1167
 2568SOL    HW1 7703   1.669   0.121   7.742  1.4232 -1.9430  0.4532
 2568SOL    HW2 7704   1.603   0.131   7.606 -1.6277 -1.2217  1.8859
 2569SOL     OW 7705   4.199   3.067   9.533 -0.0895 -0.1732 -0.6232
 2569SOL    HW1 7706   4.273   3.006   9.526 -0.2567 -0.3766 -0.6358
 2569SOL    HW2 7707   4.239   3.154   9.528  0.4832 -0.1853  2.0200
 2570SOL     OW 7708   3.624   3.371   7.441  0.5937 -0.5005 -0.0933
 2570SOL    HW1 7709   3.630   3.466   7.425 -1.6749 -0.3044 -0.1429
 2570SOL    HW2 7710   3.621   3.363   7.536 -0.6647 -0.3487 -0.0959
 2571SOL     OW 7711   3.688   2.463   8.379  0.3279  0.2741  0.5590
 2571SOL    HW1 7712   3.645   2.388   8.336  0.1039  0.6357  0.1393
 2571SOL    HW2 7713   3.634   2.538   8.354 -0.1683  0.4205  1.9854
 2572SOL     OW 7714   1.802   2.788   8.391 -0.0127  0.3597 -0.0717
 2572SOL    HW1 7715   1.891   2.789   8.427 -0.4450 -1.4878  1.2171
 2572SOL    HW2 7716   1.805   2.718   8.325 -0.2854  0.9579 -0.7324
 2573SOL     OW 7717   2.337   0.061  10.161  0.2957 -0.2966 -0.7709
 2573SOL    HW1 7718   2.287   0.143  10.161  0.6642 -0.0544 -1.5979
 2573SOL    HW2 7719   2.428   0.090  10.153  0.3652 -0.8034 -2.0530
 2574SOL     OW 7720   1.793   2.783   9.176  0.2906 -0.3973  0.2294
 2574SOL    HW1 7721   1.853   2.764   9.248  1.8140 -0.0305 -0.8910
 2574SOL    HW2 7722   1.813   2.874   9.151 -0.2933 -0.4788 -0.5847
 2575SOL     OW 7723   1.449   2.747   9.008  0.0146 -0.4013  0.1655
 2575SOL    HW1 7724   1.435   2.724   9.099 -0.9216 -1.3791 -0.2071
 2575SOL    HW2 7725   1.467   2.664   8.964  0.9499  0.1114 -0.4616
 2576SOL     OW 7726   2.651   1.092   7.724  0.4970  0.7676  0.0423
 2576SOL    HW1 7727   2.684   1.018   7.673  0.0380  0.8074 -0.3185
 2576SOL    HW2 7728   2.720   1.158   7.718 -0.2417  1.4265 -1.9674
 2577SOL     OW 7729   2.692   3.128   7.205 -0.5702 -0.5733  0.4959
 2577SOL    HW1 7730   2.645   3.129   7.121 -1.1473  0.3786  0.8145
 2577SOL    HW2 7731   2.742   3.047   7.203  1.1484  0.4181 -1.7138
 2578SOL     OW 7732   2.876   3.774   8.342 -0.0414 -0.1577 -0.1863
 2578SOL    HW1 7733   2.887   3.686   8.306 -0.6803 -0.7276  0.9393
 2578SOL    HW2 7734   2.963   3.800   8.372 -0.0869 -1.0221  0.7703
 2579SOL     OW 7735   2.545   1.313   6.485 -0.0625  0.1618  0.5809
 2579SOL    HW1 7736   2.552   1.222   6.514 -1.6256 -0.6563 -1.3214
 2579SOL    HW2 7737   2.605   1.319   6.411 -0.3344  0.5030  0.3813
 2580SOL     OW 7738   2.386   1.938   9.948  0.1702  0.1438  0.0612
 2580SOL    HW1 7739   2.475   1.974   9.948  0.1626  0.1773  1.0420
 2580SOL    HW2 7740   2.330   2.013   9.967  0.2066 -0.4536  2.8878
 2581SOL     OW 7741   4.999   0.516   9.415 -0.7371 -0.5226  0.0553
 2581SOL    HW1 7742   5.034   0.441   9.367  1.8746 -0.2538  1.3980
 2581SOL    HW2 7743   4.947   0.477   9.486 -0.8124 -0.9957 -0.2544
 2582SOL     OW 7744   3.436   1.931   6.742  0.1481  0.7622  0.0493
 2582SOL    HW1 7745   3.466   1.896   6.826 -1.9659  1.2798  1.0768
 2582SOL    HW2 7746   3.366   1.992   6.764  1.3410  3.0590 -1.9188
 2583SOL     OW 7747   4.591   3.482   9.576 -0.0250  0.5267 -0.1277
 2583SOL    HW1 7748   4.634   3.439   9.649 -0.7189  2.2001  1.3576
 2583SOL    HW2 7749   4.659   3.490   9.509  0.5168 -1.3877  0.1461
 2584SOL     OW 7750   1.309   2.242   7.930  0.7692  0.3893  0.1000
 2584SOL    HW1 7751   1.402   2.241   7.910  0.1395  0.4605 -3.5027
 2584SOL    HW2 7752   1.304   2.217   8.022  4.3570  1.3080  0.6860
 2585SOL     OW 7753   1.884   4.513   6.487  0.3204 -0.1858  0.2552
 2585SOL    HW1 7754   1.866   4.606   6.501 -3.5045 -0.8739  0.8370
 2585SOL    HW2 7755   1.916   4.482   6.572 -3.0643 -0.2414  1.6488
 2586SOL     OW 7756   0.867   3.753   9.403  0.5131 -0.1920  0.8553
 2586SOL    HW1 7757   0.797   3.737   9.466 -0.5998 -1.2058 -0.5689
 2586SOL    HW2 7758   0.898   3.666   9.378  1.0301  0.1907  0.0964
 2587SOL     OW 7759   2.878   4.328   9.130  0.1072  0.5439  0.1930
 2587SOL    HW1 7760   2.894   4.308   9.037 -3.3465  1.0890 -0.6489
 2587SOL    HW2 7761   2.803   4.273   9.153  1.7621 -0.7129  3.2124
 2588SOL     OW 7762   3.007   0.057   8.405 -0.6867  0.9366  0.1907
 2588SOL    HW1 7763   2.966  -0.006   8.346 -0.7172  1.1794 -0.0530
 2588SOL    HW2 7764   2.958   0.050   8.487  0.6631 -0.8836  0.8962
 2589SOL     OW 7765   2.370   1.576   9.417  0.4347  0.5195  0.1727
 2589SOL    HW1 7766   2.295   1.557   9.360  1.3527  3.2125 -2.1600
 2589SOL    HW2 7767   2.447   1.558   9.363  1.3691  2.3076  0.8228
 2590SOL     OW 7768   1.496   3.163   8.894  0.1991  0.2463 -0.4284
 2590SOL    HW1 7769   1.527   3.087   8.945 -0.6582  0.3028  0.1930
 2590SOL    HW2 7770   1.555   3.167   8.819  1.4567  0.1095  0.5166
 2591SOL     OW 7771   4.207   3.911   9.521  0.3996  0.8801  0.1306
 2591SOL    HW1 7772   4.148   3.945   9.454  0.1867  0.0606 -0.1051
 2591SOL    HW2 7773   4.219   3.984   9.582  0.9519  1.7857 -1.0203
 2592SOL     OW 7774   3.511   2.174   8.273 -0.2682  0.1791  0.3446
 2592SOL    HW1 7775   3.578   2.154   8.338  0.0619 -0.1869 -0.0982
 2592SOL    HW2 7776   3.438   2.210   8.323  0.4768  1.1446  0.7795
 2593SOL     OW 7777   0.484   3.770   7.507 -0.0724  0.0696 -0.3567
 2593SOL    HW1 7778   0.427   3.789   7.433 -0.0048  1.1078 -0.1480
 2593SOL    HW2 7779   0.552   3.714   7.470  0.1648  0.8740 -1.1729
 2594SOL     OW 7780   2.503   4.354   9.518  0.4604 -0.4208  0.8117
 2594SOL    HW1 7781   2.413   4.379   9.540  0.4136 -1.0396  1.3394
 2594SOL    HW2 7782   2.518   4.393   9.432  0.1059  0.7207  1.2489
 2595SOL     OW 7783   2.884   2.889   7.210  0.0686 -0.2880  0.7349
 2595SOL    HW1 7784   2.925   2.802   7.205  2.6286  0.8961 -0.9937
 2595SOL    HW2 7785   2.814   2.886   7.145 -0.0837 -1.1369  0.9194
 2596SOL     OW 7786   3.561   0.539   8.027  0.0751  0.3743 -0.1918
 2596SOL    HW1 7787   3.553   0.622   7.982 -1.3448 -0.5619 -1.7620
 2596SOL    HW2 7788   3.489   0.539   8.091  0.6974  0.7470  0.5285
 2597SOL     OW 7789   1.437   3.809   9.150  0.0343 -0.3892 -0.2408
 2597SOL    HW1 7790   1.449   3.835   9.241 -2.2551  0.1655 -0.0289
 2597SOL    HW2 7791   1.510   3.751   9.131  1.6614  1.0509  1.3205
 2598SOL     OW 7792   2.128   3.079   9.415  0.0498 -0.2436 -0.2842
 2598SOL    HW1 7793   2.049   3.131   9.399  0.0565 -0.4690 -1.0861
 2598SOL    HW2 7794   2.200   3.140   9.399  0.0689  0.3703  1.8139
 2599SOL     OW 7795   2.226   2.273   9.865  0.0448 -0.1038 -0.3720
 2599SOL    HW1 7796   2.272   2.355   9.850  0.6296 -0.2561  0.5147
 2599SOL    HW2 7797   2.196   2.278   9.956 -0.6882 -0.5038 -0.5790
 2600SOL     OW 7798   2.697   3.799   9.326  0.3716  0.4560  0.0161
 2600SOL    HW1 7799   2.727   3.750   9.402 -1.3040  0.5507  0.7883
 2600SOL    HW2 7800   2.608   3.766   9.310  0.2779  1.2234 -1.2198
 2601SOL     OW 7801   1.159   4.194   9.094  0.6613  0.6781  0.1013
 2601SOL    HW1 7802   1.193   4.261   9.154 -0.8172  0.4595  1.2275
 2601SOL    HW2 7803   1.173   4.112   9.141 -1.6805  0.6066  0.7657
 2602SOL     OW 7804   4.788   1.989   9.317  0.1533 -0.5486  0.6683
 2602SOL    HW1 7805   4.805   1.895   9.309 -1.6743 -1.0183  1.6651
 2602SOL    HW2 7806   4.709   2.004   9.266 -0.9495 -0.0695  2.4126
 2603SOL     OW 7807   3.084   1.436   9.382 -0.0678 -0.0476 -0.4982
 2603SOL    HW1 7808   3.019   1.448   9.452 -0.7433  0.6958 -1.2266
 2603SOL    HW2 7809   3.152   1.501   9.402  1.8465 -2.5272  1.7320
 2604SOL     OW 7810   2.495   4.094   9.531 -0.3605 -0.2126 -0.3227
 2604SOL    HW1 7811   2.503   4.055   9.618 -1.9228 -0.2342 -0.1579
 2604SOL    HW2 7812   2.494   4.188   9.546 -0.9265 -0.2232 -0.2818
 2605SOL     OW 7813   4.302   1.567   8.325 -0.3920 -0.1999  0.9081
 2605SOL    HW1 7814   4.339   1.655   8.316 -1.8872  0.5181  1.5217
 2605SOL    HW2 7815   4.373   1.516   8.363  0.9353  0.3945 -0.6507
 2606SOL     OW 7816   1.988   2.524   9.035 -0.0582 -0.2572 -0.1943
 2606SOL    HW1 7817   1.901   2.490   9.059 -1.5371  2.8571 -0.6082
 2606SOL    HW2 7818   1.982   2.542   8.942  1.6231 -1.3616 -0.5650
 2607SOL     OW 7819   0.265   2.880   9.187 -0.1014 -0.8632 -0.0847
 2607SOL    HW1 7820   0.191   2.886   9.248 -1.0756 -0.2374 -1.2959
 2607SOL    HW2 7821   0.249   2.800   9.137  0.3826 -1.0598  0.0636
 2608SOL     OW 7822   4.508   1.371   9.626  0.3756 -0.0634  0.0191
 2608SOL    HW1 7823   4.431   1.318   9.605  1.8280 -1.9275 -0.8492
 2608SOL    HW2 7824   4.558   1.317   9.687  1.5378  0.5983 -0.3206
 2609SOL     OW 7825   3.959   4.877   9.568 -0.3543 -0.5334  0.1060
 2609SOL    HW1 7826   3.963   4.957   9.515  0.1955 -0.1510  0.7186
 2609SOL    HW2 7827   3.910   4.815   9.513  2.4035 -1.0292 -2.0115
 2610SOL     OW 7828   2.655   1.720   7.757  0.1160  0.1008  0.1141
 2610SOL    HW1 7829   2.685   1.778   7.826  0.5018  0.4279 -0.3169
 2610SOL    HW2 7830   2.648   1.634   7.799  0.7385  0.2129  0.4671
 2611SOL     OW 7831   0.338   3.569   9.445  0.1532 -0.1766  0.1415
 2611SOL    HW1 7832   0.280   3.619   9.388 -1.3962  1.7246  3.1204
 2611SOL    HW2 7833   0.281   3.507   9.489  1.0169 -0.5840  0.7192
 2612SOL     OW 7834   0.544   1.659   8.490  0.2529  0.2694 -0.1486
 2612SOL    HW1 7835   0.557   1.566   8.476  1.2154  0.5541 -1.3780
 2612SOL    HW2 7836   0.517   1.692   8.404  1.7812  1.3924 -0.2536
 2613SOL     OW 7837   2.632   1.614   7.307  0.2792 -0.0337 -0.3392
 2613SOL    HW1 7838   2.650   1.646   7.219 -0.2279 -1.2657 -0.9066
 2613SOL    HW2 7839   2.706   1.557   7.327  0.3776  0.2175  0.0342
 2614SOL     OW 7840   3.088   2.795   8.436 -0.4975 -0.2240 -0.1033
 2614SOL    HW1 7841   3.145   2.854   8.388 -2.6928  1.2548 -1.0333
 2614SOL    HW2 7842   3.102   2.818   8.528 -0.4684  0.9666 -0.3874
 2615SOL     OW 7843   2.122   3.513   7.803  0.7888 -0.1371 -0.3400
 2615SOL    HW1 7844   2.089   3.476   7.721 -0.7248 -1.4297  0.7884
 2615SOL    HW2 7845   2.043   3.539   7.851  1.3451 -2.3501  2.0192
 2616SOL     OW 7846   3.821   3.128   8.306 -0.2585  0.3000  0.1157
 2616SOL    HW1 7847   3.826   3.167   8.394 -0.0004 -1.9416  1.1552
 2616SOL    HW2 7848   3.751   3.063   8.313  1.0611 -1.2913 -0.7180
 2617SOL     OW 7849   4.839   4.170   9.188  0.2102 -0.0662 -0.6196
 2617SOL    HW1 7850   4.873   4.194   9.102  1.9815  0.5687  0.2045
 2617SOL    HW2 7851   4.906   4.200   9.250 -0.1823 -2.0309  0.8767
 2618SOL     OW 7852   1.465   4.725   9.794 -0.1937 -0.4689 -0.1542
 2618SOL    HW1 7853   1.522   4.776   9.852  0.1476  0.2673 -1.1100
 2618SOL    HW2 7854   1.465   4.774   9.712 -1.1383 -1.1810 -0.5934
 2619SOL     OW 7855   2.430   1.921   8.177 -0.0282  0.1521  0.1764
 2619SOL    HW1 7856   2.375   1.965   8.242 -0.4902 -0.8132  0.4513
 2619SOL    HW2 7857   2.371   1.862   8.131  0.5434 -0.0335 -0.3305
 2620SOL     OW 7858   2.743   2.211   8.372  0.5377 -0.3120  0.5476
 2620SOL    HW1 7859   2.696   2.165   8.442  1.7041 -1.9017  0.3421
 2620SOL    HW2 7860   2.821   2.247   8.414  0.0179  0.8677  0.5415
 2621SOL     OW 7861   2.162   2.129   9.463  0.1260  0.1463 -0.0323
 2621SOL    HW1 7862   2.244   2.174   9.442 -0.5765  1.9405  0.8506
 2621SOL    HW2 7863   2.180   2.036   9.446  2.0682  0.5919 -0.6269
 2622SOL     OW 7864   4.105   4.594   8.295  0.6689 -0.0209  0.3178
 2622SOL    HW1 7865   4.120   4.579   8.388  1.7933 -0.8796  0.0118
 2622SOL    HW2 7866   4.017   4.633   8.291 -0.8662 -2.9766  1.5177
 2623SOL     OW 7867   2.854   4.949   8.644 -0.3341 -0.2585 -0.1380
 2623SOL    HW1 7868   2.908   4.870   8.636  1.0360  0.5799  0.3455
 2623SOL    HW2 7869   2.818   4.945   8.733 -1.4351 -1.0190 -0.5985
 2624SOL     OW 7870   3.032   1.953   8.242 -0.1777  0.3344  0.4187
 2624SOL    HW1 7871   2.998   1.972   8.329  1.4571  0.1678  1.1335
 2624SOL    HW2 7872   3.008   2.029   8.189 -0.6487  0.7114  1.1621
 2625SOL     OW 7873   3.870   4.938   7.359 -0.1532  0.5577  0.5736
 2625SOL    HW1 7874   3.948   4.995   7.363 -0.6335  1.2483  0.3242
 2625SOL    HW2 7875   3.828   4.949   7.444 -0.6062  1.1139  0.2885
 2626SOL     OW 7876   2.153   0.299   9.808 -0.5212 -0.0356  0.2157
 2626SOL    HW1 7877   2.131   0.357   9.735  0.1752  1.8910  1.4514
 2626SOL    HW2 7878   2.069   0.276   9.847 -0.9262 -1.4058 -1.3766
 2627SOL     OW 7879   2.111   0.721   8.228 -0.1236 -0.2042  0.0092
 2627SOL    HW1 7880   2.195   0.764   8.208 -0.5745  0.7481  0.0965
 2627SOL    HW2 7881   2.096   0.663   8.154 -0.1696  0.8402 -0.8296
 2628SOL     OW 7882   2.593   4.450   7.814 -0.5595  0.2821  0.2297
 2628SOL    HW1 7883   2.551   4.383   7.759 -1.8229  1.9147 -0.9218
 2628SOL    HW2 7884   2.685   4.426   7.814 -0.7986 -0.8261 -1.1069
 2629SOL     OW 7885   0.055   4.851   7.930  0.3261  0.0218  1.0747
 2629SOL    HW1 7886  -0.007   4.801   7.983 -1.8134  2.3591  0.9481
 2629SOL    HW2 7887   0.060   4.802   7.847 -1.6448 -0.0895  0.9661
 2630SOL     OW 7888   3.691   2.046   8.784  0.4855 -0.3658  0.1840
 2630SOL    HW1 7889   3.783   2.069   8.790  0.2797  1.3263 -2.1012
 2630SOL    HW2 7890   3.645   2.115   8.831  0.2287  0.7356 -1.6006
 2631SOL     OW 7891   0.443   0.648   9.425  0.2060  0.5728  0.7910
 2631SOL    HW1 7892   0.500   0.724   9.436 -0.4657  0.8156  3.0755
 2631SOL    HW2 7893   0.399   0.638   9.509 -1.3250 -1.0802 -0.1263
 2632SOL     OW 7894   0.650   3.518   9.276  0.1345 -0.3828  0.3391
 2632SOL    HW1 7895   0.683   3.429   9.268  2.7218  0.3833  1.1789
 2632SOL    HW2 7896   0.649   3.535   9.371 -2.5864 -0.2209  0.3615
 2633SOL     OW 7897   2.073   1.803   9.870  0.3748  0.0872  0.4773
 2633SOL    HW1 7898   2.147   1.745   9.887 -0.0656 -0.0867  1.9622
 2633SOL    HW2 7899   2.111   1.891   9.866  0.7536 -0.0771  0.4823
 2634SOL     OW 7900   2.014   4.688   9.887  0.0807  0.2097  0.0914
 2634SOL    HW1 7901   2.098   4.683   9.932  0.3570 -1.5859 -0.5477
 2634SOL    HW2 7902   1.949   4.694   9.957  0.6269 -0.3720  0.6588
 2635SOL     OW 7903   1.449   4.497   8.611 -0.2770 -0.6149 -0.1512
 2635SOL    HW1 7904   1.439   4.530   8.521  1.3695 -0.7888 -0.4306
 2635SOL    HW2 7905   1.526   4.543   8.644 -1.4232  0.1719  1.5505
 2636SOL     OW 7906   2.093   1.393   8.689  0.2971  0.5752  0.0188
 2636SOL    HW1 7907   2.093   1.462   8.755 -0.0276  0.6667 -0.0709
 2636SOL    HW2 7908   2.178   1.400   8.646  0.5253  0.4827  0.4602
 2637SOL     OW 7909   0.033   4.937   9.339  0.1125  0.1009 -0.1728
 2637SOL    HW1 7910  -0.036   4.926   9.405 -1.5638  1.9336 -1.5099
 2637SOL    HW2 7911   0.111   4.959   9.390 -0.8914  0.5260  1.2535
 2638SOL     OW 7912   4.415   3.288   9.464 -0.8274 -0.0366  0.2698
 2638SOL    HW1 7913   4.479   3.312   9.531 -0.8948  1.0615 -0.0411
 2638SOL    HW2 7914   4.335   3.334   9.490 -0.6787  0.9152 -0.9022
 2639SOL     OW 7915   1.230   2.994   7.795 -0.3498 -0.1832 -0.2089
 2639SOL    HW1 7916   1.175   3.033   7.726 -1.1893 -2.3093 -0.8335
 2639SOL    HW2 7917   1.263   2.913   7.756  0.4694 -0.6469  1.3682
 2640SOL     OW 7918   2.710   2.505   7.550  0.3771 -0.0733 -0.1330
 2640SOL    HW1 7919   2.774   2.446   7.510  0.1885 -0.4179  0.0676
 2640SOL    HW2 7920   2.657   2.448   7.606  1.6874  0.6305  1.9134
 2641SOL     OW 7921   3.420   2.612   9.090  0.8105  0.4306 -0.1498
 2641SOL    HW1 7922   3.416   2.516   9.099  1.5309  0.4928  1.0897
 2641SOL    HW2 7923   3.503   2.636   9.131 -0.0210  1.7315  0.8331
 2642SOL     OW 7924   3.836   3.279   8.533  0.4003  0.3261 -0.5002
 2642SOL    HW1 7925   3.910   3.340   8.532  1.5232 -0.9368  0.8832
 2642SOL    HW2 7926   3.767   3.326   8.581  1.5510  0.2500  1.3385
 2643SOL     OW 7927   0.623   3.293   9.782 -0.2357  0.3695  0.6327
 2643SOL    HW1 7928   0.691   3.307   9.717 -1.9990 -2.1348 -2.0673
 2643SOL    HW2 7929   0.561   3.364   9.767 -1.0945 -0.6814 -1.2891
 2644SOL     OW 7930   2.778   4.108   9.560 -0.3783 -0.3040 -0.0998
 2644SOL    HW1 7931   2.684   4.112   9.546 -0.2334  0.9601 -0.8470
 2644SOL    HW2 7932   2.813   4.185   9.515  0.8545  0.0798  1.4197
 2645SOL     OW 7933   2.117   2.837   9.211  0.2674 -0.5879  0.4365
 2645SOL    HW1 7934   2.213   2.842   9.206  0.2556  0.2245  0.9124
 2645SOL    HW2 7935   2.094   2.896   9.282 -0.6383 -0.2060 -0.1611
 2646SOL     OW 7936   4.214   1.987   9.631  0.1878  0.1757 -0.1002
 2646SOL    HW1 7937   4.193   1.957   9.719 -1.1793  0.9939 -0.1254
 2646SOL    HW2 7938   4.309   1.998   9.632  0.1849  0.2745  1.2959
 2647SOL     OW 7939   0.368   0.996   9.926  0.1718 -0.5169  0.8138
 2647SOL    HW1 7940   0.440   0.946   9.964 -0.8360 -0.1635  3.3918
 2647SOL    HW2 7941   0.404   1.033   9.845  1.9347 -2.7050  0.5095
 2648SOL     OW 7942   3.529   1.672   9.538 -0.3576  0.2811  0.1402
 2648SOL    HW1 7943   3.604   1.612   9.537  1.6307  2.5741  0.6690
 2648SOL    HW2 7944   3.538   1.723   9.457 -0.3846  1.6304  0.9560
 2649SOL     OW 7945   3.645   0.515   9.353  0.6775 -0.3431  0.1429
 2649SOL    HW1 7946   3.626   0.444   9.414  0.8765  0.2606  0.9159
 2649SOL    HW2 7947   3.716   0.565   9.394  1.2974 -0.3322 -0.9082
 2650SOL     OW 7948   4.518   1.269   8.729 -0.1274  0.1254  0.0012
 2650SOL    HW1 7949   4.573   1.191   8.722 -1.5248 -0.7698 -2.2173
 2650SOL    HW2 7950   4.464   1.254   8.807 -0.8884 -1.5477 -0.7945
 2651SOL     OW 7951   2.648   3.595   8.575 -0.1090 -0.2737  0.2008
 2651SOL    HW1 7952   2.744   3.591   8.570 -0.1536 -0.3986 -0.7308
 2651SOL    HW2 7953   2.625   3.675   8.528 -0.3473  1.0700  2.4635
 2652SOL     OW 7954   3.651   0.467   8.526  0.1061  0.0333 -0.1993
 2652SOL    HW1 7955   3.739   0.430   8.530  0.2714  0.4757  0.2918
 2652SOL    HW2 7956   3.605   0.411   8.464  0.1907 -1.3101  0.9214
 2653SOL     OW 7957   2.661   4.196   9.106  0.0836  0.0894 -0.0321
 2653SOL    HW1 7958   2.632   4.138   9.176  1.0383  0.8088  0.9955
 2653SOL    HW2 7959   2.581   4.237   9.074 -0.1614  1.8140  2.5267
 2654SOL     OW 7960   0.152   1.110   7.996 -0.8818 -0.5153  0.2692
 2654SOL    HW1 7961   0.190   1.169   8.060 -1.0364  0.9647 -0.9399
 2654SOL    HW2 7962   0.215   1.038   7.988  0.5968  0.7800 -0.0783
 2655SOL     OW 7963   0.269   0.482   9.994  0.2733 -0.0392 -0.0493
 2655SOL    HW1 7964   0.214   0.557   9.972  2.1180  1.4413  0.0804
 2655SOL    HW2 7965   0.221   0.434  10.061 -0.8457  1.1734  0.0396
 2656SOL     OW 7966   2.631   1.293   9.973 -0.6222  0.6691  0.2720
 2656SOL    HW1 7967   2.565   1.225   9.960  0.5218 -0.0834 -2.1085
 2656SOL    HW2 7968   2.686   1.260  10.044 -0.7035 -0.4248 -0.1548
 2657SOL     OW 7969   2.145   3.945   9.048 -0.3669  0.0543  0.2002
 2657SOL    HW1 7970   2.059   3.973   9.078 -0.2138  1.9521 -0.9212
 2657SOL    HW2 7971   2.206   4.008   9.088  0.4572 -0.8852  0.4839
 2658SOL     OW 7972   3.028   2.030   8.766  0.4957 -0.3334  0.5197
 2658SOL    HW1 7973   3.111   2.075   8.754  1.1826 -1.3877  1.1345
 2658SOL    HW2 7974   2.984   2.078   8.835  0.5572  0.2867  0.1281
 2659SOL     OW 7975   2.924   4.165  10.054 -0.6705 -0.0649 -0.5953
 2659SOL    HW1 7976   2.972   4.157  10.136 -0.0342  2.0255 -0.6949
 2659SOL    HW2 7977   2.978   4.120   9.989 -0.5443 -0.6262 -0.1117
 2660SOL     OW 7978   4.797   1.821   9.697  0.3088  0.3366 -0.0343
 2660SOL    HW1 7979   4.736   1.791   9.629 -3.3300  0.3599  2.9373
 2660SOL    HW2 7980   4.810   1.914   9.677  0.2643  0.1029 -1.2730
 2661SOL     OW 7981   1.581   2.335   8.419  0.3431  0.3525  0.2967
 2661SOL    HW1 7982   1.652   2.280   8.388 -0.4870 -0.1864 -0.7127
 2661SOL    HW2 7983   1.545   2.376   8.340 -1.2735 -0.3879  0.6043
 2662SOL     OW 7984   3.695   3.582   9.652 -0.3046 -0.3027 -0.0011
 2662SOL    HW1 7985   3.720   3.561   9.562 -0.5993  2.2221 -0.7384
 2662SOL    HW2 7986   3.760   3.537   9.706  0.7254 -0.7325 -1.5401
 2663SOL     OW 7987   2.868   2.435   8.978  0.0132  0.3928 -0.1413
 2663SOL    HW1 7988   2.958   2.460   8.959 -0.5698  2.1848 -0.7176
 2663SOL    HW2 7989   2.867   2.340   8.971  1.9028  0.3253  0.1251
 2664SOL     OW 7990   2.247   3.195   7.464  0.1642  0.7812 -0.3137
 2664SOL    HW1 7991   2.274   3.151   7.383  0.2414  0.4412 -0.1050
 2664SOL    HW2 7992   2.266   3.132   7.533  0.6442  1.2951  0.0346
 2665SOL     OW 7993   2.741   2.621  10.083 -0.0423 -0.6302 -0.0945
 2665SOL    HW1 7994   2.773   2.705  10.116  1.8282 -1.3686  0.0764
 2665SOL    HW2 7995   2.659   2.643  10.038  0.1989  1.2159  0.2898
 2666SOL     OW 7996   3.485   3.103   6.567 -0.0569  0.0813  0.2098
 2666SOL    HW1 7997   3.449   3.056   6.642  2.1927 -2.0180  0.0751
 2666SOL    HW2 7998   3.561   3.052   6.540 -0.3145  1.1809 -3.0586
 2667SOL     OW 7999   4.081   1.406   7.334  0.1276 -0.1337 -0.8116
 2667SOL    HW1 8000   4.072   1.476   7.398  0.7136 -0.4152 -0.4122
 2667SOL    HW2 8001   4.160   1.429   7.285  0.3311 -0.5299 -0.6666
 2668SOL     OW 8002   3.862   2.897   5.415  0.2687 -0.5068  0.3374
 2668SOL    HW1 8003   3.930   2.870   5.354  1.1589  0.6853  0.7675
 2668SOL    HW2 8004   3.851   2.991   5.400 -1.2646 -0.6495  0.3156
 2669SOL     OW 8005   3.738   4.803   5.134 -0.1579 -0.2561  0.0327
 2669SOL    HW1 8006   3.657   4.770   5.173 -1.0891  1.9056  0.0754
 2669SOL    HW2 8007   3.792   4.829   5.208 -0.5565  0.7540 -0.0075
 2670SOL     OW 8008   2.232   3.343   6.442 -0.2702 -0.0926  0.1783
 2670SOL    HW1 8009   2.176   3.332   6.364 -0.6901 -0.3416  0.5106
 2670SOL    HW2 8010   2.234   3.257   6.482  0.5153 -0.1283  0.0717
 2671SOL     OW 8011   3.690   4.325   5.226 -0.4621  0.0263 -0.6814
 2671SOL    HW1 8012   3.598   4.300   5.227 -0.9458  1.6091 -1.3164
 2671SOL    HW2 8013   3.688   4.421   5.224  1.2194  0.1283  0.4263
 2672SOL     OW 8014   3.657   2.361   6.178 -0.0909  0.0306 -0.3562
 2672SOL    HW1 8015   3.717   2.291   6.151 -0.5049  0.0399 -1.3254
 2672SOL    HW2 8016   3.599   2.373   6.103 -0.1817  1.2483 -0.1043
 2673SOL     OW 8017   2.957   0.900   6.824  0.0580 -0.7424 -0.1303
 2673SOL    HW1 8018   2.892   0.965   6.853  1.7666  1.0244 -0.0430
 2673SOL    HW2 8019   2.906   0.820   6.810 -1.8949  0.1587  1.2923
 2674SOL     OW 8020   2.006   3.741   8.115  0.4611 -0.0886  0.1550
 2674SOL    HW1 8021   1.994   3.734   8.210  0.0410 -0.2206  0.0946
 2674SOL    HW2 8022   1.981   3.655   8.081 -0.8553  0.4181 -0.2170
 2675SOL     OW 8023   3.172   3.949   7.555  0.1439  0.4403 -0.0491
 2675SOL    HW1 8024   3.084   3.966   7.522  0.1388  1.5361  0.4792
 2675SOL    HW2 8025   3.187   4.018   7.620  0.8618 -0.5481  0.8774
 2676SOL     OW 8026   2.615   3.521   5.830 -0.2635  0.1788 -0.0369
 2676SOL    HW1 8027   2.521   3.521   5.812 -0.0812  1.5789 -1.2014
 2676SOL    HW2 8028   2.621   3.515   5.925 -1.4793 -1.1706 -0.0116
 2677SOL     OW 8029   2.875   0.069   5.389  0.3450 -0.3416 -0.0585
 2677SOL    HW1 8030   2.867   0.029   5.302 -1.1099  0.1344 -0.1868
 2677SOL    HW2 8031   2.915   0.154   5.373 -2.0735  0.7842 -0.6654
 2678SOL     OW 8032   3.183   0.754   5.490 -0.2758  0.4174 -0.2949
 2678SOL    HW1 8033   3.147   0.727   5.575  0.8902 -0.1866  0.0261
 2678SOL    HW2 8034   3.122   0.717   5.426  0.4640 -1.7944  0.1899
 2679SOL     OW 8035   4.500   3.092   5.954  0.1281  0.2724 -0.4732
 2679SOL    HW1 8036   4.476   3.145   5.878  0.8343  1.3354  0.0211
 2679SOL    HW2 8037   4.424   3.099   6.012 -0.7391 -1.1855 -1.3842
 2680SOL     OW 8038   2.620   0.417   6.428 -0.0804  0.1349 -0.2164
 2680SOL    HW1 8039   2.614   0.325   6.454  2.4151  0.0367  0.2616
 2680SOL    HW2 8040   2.648   0.415   6.337  0.3642  0.3944 -0.0912
 2681SOL     OW 8041   4.311   3.089   6.162 -0.0042  0.0274  0.4668
 2681SOL    HW1 8042   4.244   3.157   6.171 -1.0441 -0.7185 -1.0673
 2681SOL    HW2 8043   4.360   3.092   6.244 -1.0748  1.5067  1.0953
 2682SOL     OW 8044   4.745   2.403   6.326  0.1952  0.0766 -0.0281
 2682SOL    HW1 8045   4.801   2.338   6.370  1.0166 -0.3929 -1.6596
 2682SOL    HW2 8046   4.679   2.350   6.280 -1.1227  0.5919  1.2143
 2683SOL     OW 8047   2.008   4.730   6.029  0.1602 -0.5991  0.3453
 2683SOL    HW1 8048   1.945   4.685   6.085  0.3323 -0.5722  0.5614
 2683SOL    HW2 8049   2.093   4.696   6.057  0.4225  0.9762  1.5489
 2684SOL     OW 8050   3.525   1.787   5.878 -0.5491  0.1371  0.4333
 2684SOL    HW1 8051   3.483   1.702   5.868  1.6143 -0.9390 -0.2318
 2684SOL    HW2 8052   3.496   1.837   5.802 -0.9724 -0.4165  0.2258
 2685SOL     OW 8053   3.008   2.672   6.462  0.1002 -0.2439  0.7230
 2685SOL    HW1 8054   3.045   2.743   6.409 -0.6219  0.2759  0.9027
 2685SOL    HW2 8055   2.921   2.656   6.424  0.0737 -0.7279  0.9732
 2686SOL     OW 8056   3.146   2.208   6.115  0.3225 -0.3947  1.1655
 2686SOL    HW1 8057   3.059   2.243   6.098  0.3464 -0.3908  1.0535
 2686SOL    HW2 8058   3.176   2.175   6.031  0.7389  0.3041  1.0294
 2687SOL     OW 8059   3.927   1.519   6.017 -0.1854  0.6268 -0.3639
 2687SOL    HW1 8060   3.888   1.489   6.099  0.8723 -1.0687 -0.4191
 2687SOL    HW2 8061   3.913   1.613   6.016 -1.5902  0.4623  1.0119
 2688SOL     OW 8062   2.281   4.156   7.033  0.0976  0.1708  0.0192
 2688SOL    HW1 8063   2.219   4.214   7.077 -0.5110  0.3775 -1.0787
 2688SOL    HW2 8064   2.243   4.069   7.042 -0.9467  0.4214 -1.5744
 2689SOL     OW 8065   3.113   4.709   5.038  0.3579  0.0184  0.3244
 2689SOL    HW1 8066   3.197   4.663   5.041 -0.0731 -1.1084 -2.2332
 2689SOL    HW2 8067   3.051   4.644   5.005 -1.7900  0.5711  2.8751
 2690SOL     OW 8068   2.046   0.220   6.278 -0.0751  0.0238  0.0079
 2690SOL    HW1 8069   2.128   0.201   6.322  0.8970 -0.0650 -1.7504
 2690SOL    HW2 8070   2.019   0.137   6.240 -0.7213  0.1675  0.1376
 2691SOL     OW 8071   4.364   1.737   6.825 -0.5021  0.0773  0.2093
 2691SOL    HW1 8072   4.358   1.689   6.743  3.8744  0.9607 -0.8766
 2691SOL    HW2 8073   4.307   1.812   6.814 -0.5433 -0.1953 -1.7357
 2692SOL     OW 8074   4.544   2.308   7.097  0.1766 -0.6234 -0.0308
 2692SOL    HW1 8075   4.475   2.247   7.121 -1.0933  0.4203 -0.8615
 2692SOL    HW2 8076   4.584   2.269   7.020  0.1727 -0.9930  0.1535
 2693SOL     OW 8077   0.409   3.124   6.495 -0.2712 -0.3197  0.0162
 2693SOL    HW1 8078   0.417   3.046   6.440 -0.1815 -0.0299 -0.3871
 2693SOL    HW2 8079   0.473   3.112   6.565 -0.9213 -1.0512  0.4941
 2694SOL     OW 8080   2.681   4.167   6.919  0.3394 -0.4765  0.6610
 2694SOL    HW1 8081   2.753   4.214   6.962  0.4596 -1.7562  1.9288
 2694SOL    HW2 8082   2.616   4.235   6.900  1.5228  0.5679  0.2239
 2695SOL     OW 8083   3.175   3.319   5.627  0.2384 -0.4072  0.1255
 2695SOL    HW1 8084   3.171   3.245   5.566 -1.9108  0.1564 -0.5049
 2695SOL    HW2 8085   3.131   3.288   5.706 -0.3936  0.0762 -0.0283
 2696SOL     OW 8086   2.513   4.033   7.192 -0.2243  0.3791  0.6307
 2696SOL    HW1 8087   2.473   4.103   7.140 -1.4922 -1.5387 -1.1712
 2696SOL    HW2 8088   2.449   4.016   7.262 -1.1583 -0.6144 -0.4263
 2697SOL     OW 8089   3.709   3.769   5.252 -0.0505  0.0204 -0.3238
 2697SOL    HW1 8090   3.676   3.694   5.301  1.1994 -1.2294 -1.3250
 2697SOL    HW2 8091   3.645   3.838   5.268 -1.5677 -1.4362  0.1321
 2698SOL     OW 8092   2.480   3.569   9.614 -0.0931 -0.1199 -0.4508
 2698SOL    HW1 8093   2.444   3.483   9.633 -1.2882  0.4907  0.1275
 2698SOL    HW2 8094   2.416   3.610   9.556 -1.0529  1.4527  1.5816
 2699SOL     OW 8095   1.850   1.590   5.679 -0.5377  0.2389  0.2358
 2699SOL    HW1 8096   1.857   1.685   5.686  1.1903  0.1411  0.2744
 2699SOL    HW2 8097   1.812   1.576   5.592  1.7357  0.9587 -0.9646
 2700SOL     OW 8098   3.645   0.190   5.097 -0.1669 -0.3193 -0.3219
 2700SOL    HW1 8099   3.719   0.233   5.053  0.2613 -0.0083  0.6911
 2700SOL    HW2 8100   3.684   0.142   5.169 -0.7934 -1.4257 -0.6966
 2701SOL     OW 8101   0.061   0.582   5.624  0.3784  0.0679 -0.4129
 2701SOL    HW1 8102   0.112   0.512   5.665 -1.8971 -3.2184 -2.7076
 2701SOL    HW2 8103   0.120   0.619   5.558  1.2304 -0.4957  0.0174
 2702SOL     OW 8104   4.113   4.343   5.382  0.0164 -0.2943 -0.1207
 2702SOL    HW1 8105   4.150   4.263   5.418  0.2499  0.0247  0.3620
 2702SOL    HW2 8106   4.099   4.400   5.458  1.9349  0.9756 -0.6451
 2703SOL     OW 8107   0.516   2.394   5.487  0.2241  0.0831 -0.1688
 2703SOL    HW1 8108   0.459   2.367   5.559 -2.5351  1.9797 -1.4734
 2703SOL    HW2 8109   0.515   2.490   5.491  1.0046  0.2060 -1.9815
 2704SOL     OW 8110   4.153   4.422   7.580  0.3363 -0.5644 -0.3553
 2704SOL    HW1 8111   4.077   4.466   7.541 -0.2429 -1.5379 -0.3563
 2704SOL    HW2 8112   4.116   4.368   7.650  1.1946  0.0070  0.5805
 2705SOL     OW 8113   2.848   2.743   7.603  0.6738  0.0157  0.4049
 2705SOL    HW1 8114   2.795   2.663   7.604  0.5858  0.0682  1.9361
 2705SOL    HW2 8115   2.934   2.714   7.569  0.1945 -0.3966 -0.5044
 2706SOL     OW 8116   4.455   3.646   6.655  0.1025  0.1314  0.3402
 2706SOL    HW1 8117   4.366   3.626   6.684 -0.8057  0.7179 -1.7608
 2706SOL    HW2 8118   4.462   3.741   6.665 -0.3373  0.3921 -1.4065
 2707SOL     OW 8119   4.931   2.576   6.165 -0.0512 -0.5240 -0.0359
 2707SOL    HW1 8120   4.960   2.595   6.254 -4.1523 -1.1594  1.6432
 2707SOL    HW2 8121   4.898   2.486   6.169 -0.2225 -0.6325 -2.2750
 2708SOL     OW 8122   2.251   4.432   5.261  0.1709 -0.2820  0.1306
 2708SOL    HW1 8123   2.205   4.510   5.290 -0.3751 -0.0636 -1.2364
 2708SOL    HW2 8124   2.183   4.364   5.260  0.5637 -0.6959  0.9768
 2709SOL     OW 8125   4.101   0.472   5.313 -0.4662  0.1796 -0.1999
 2709SOL    HW1 8126   4.087   0.564   5.335 -0.4837  0.4921 -1.4645
 2709SOL    HW2 8127   4.196   0.461   5.315 -0.3551  0.6763 -1.7202
 2710SOL     OW 8128   2.787   4.068   7.241  0.0911  0.4531  0.4015
 2710SOL    HW1 8129   2.731   4.062   7.164  2.0314 -1.4027 -0.9587
 2710SOL    HW2 8130   2.764   3.990   7.293  0.1112  0.6939  0.7752
 2711SOL     OW 8131   3.168   1.397   7.444  0.2886  0.3297  0.0396
 2711SOL    HW1 8132   3.155   1.306   7.470 -0.2945 -0.1380 -1.7616
 2711SOL    HW2 8133   3.205   1.439   7.522 -0.8926 -1.0741  1.4426
 2712SOL     OW 8134   1.568   2.949   6.576 -0.2543 -0.4304 -0.2736
 2712SOL    HW1 8135   1.479   2.927   6.548 -0.8388 -0.2679  1.3459
 2712SOL    HW2 8136   1.591   2.879   6.637  0.4569 -0.0934 -0.1475
 2713SOL     OW 8137   2.691   3.894   5.285 -0.1607 -0.1427 -0.0806
 2713SOL    HW1 8138   2.775   3.850   5.267 -0.4712 -0.4365 -0.8590
 2713SOL    HW2 8139   2.662   3.925   5.199 -0.4667  0.6559  0.3081
 2714SOL     OW 8140   2.597   4.039   6.462  0.2755  0.1978  0.5128
 2714SOL    HW1 8141   2.573   4.119   6.417 -2.3143  1.1470  3.2346
 2714SOL    HW2 8142   2.568   4.053   6.553  3.6188 -2.1534  2.1652
 2715SOL     OW 8143   3.728   4.592   7.384  0.3960 -0.2894 -0.0832
 2715SOL    HW1 8144   3.682   4.572   7.302  3.5296 -2.8908 -1.4586
 2715SOL    HW2 8145   3.687   4.536   7.449  2.3488 -3.8951 -1.6540
 2716SOL     OW 8146   3.038   3.564   5.820  0.0160 -0.1632  0.5880
 2716SOL    HW1 8147   3.097   3.496   5.852  2.2459  0.7095 -1.3888
 2716SOL    HW2 8148   2.965   3.515   5.782  0.6274 -1.3935  0.9163
 2717SOL     OW 8149   3.211   1.688   5.942 -0.2952  0.5827 -0.4569
 2717SOL    HW1 8150   3.254   1.605   5.919 -0.3647  0.6889 -0.9822
 2717SOL    HW2 8151   3.244   1.708   6.029 -0.8771 -0.3974  0.0115
 2718SOL     OW 8152   3.810   4.577   4.999 -0.4773 -0.0504 -0.2523
 2718SOL    HW1 8153   3.888   4.540   5.039  1.0020  3.0634 -0.0407
 2718SOL    HW2 8154   3.783   4.647   5.057 -2.1371  0.3867 -1.4582
 2719SOL     OW 8155   1.625   2.268   8.104  1.0586  0.2347  0.0462
 2719SOL    HW1 8156   1.548   2.212   8.116 -0.9579  3.0374  1.2224
 2719SOL    HW2 8157   1.695   2.222   8.150  0.1221 -2.3356 -0.9228
 2720SOL     OW 8158   2.135   2.166   6.834 -0.7997  0.3778 -0.1578
 2720SOL    HW1 8159   2.169   2.118   6.909 -0.7364 -0.0453 -0.4571
 2720SOL    HW2 8160   2.048   2.129   6.818 -1.3792  1.3752  0.5287
 2721SOL     OW 8161   1.816   3.144   6.580 -0.0738 -0.0326 -0.5132
 2721SOL    HW1 8162   1.755   3.070   6.581 -0.1453 -0.0576  2.2560
 2721SOL    HW2 8163   1.760   3.221   6.566 -0.5564 -0.2011  0.3837
 2722SOL     OW 8164   1.428   1.553   6.322 -0.2309  0.9025  0.2100
 2722SOL    HW1 8165   1.348   1.501   6.326 -0.0888  0.7367  1.3427
 2722SOL    HW2 8166   1.416   1.611   6.247 -1.6659  1.2818  0.7102
 2723SOL     OW 8167   3.816   0.280   7.287  0.2064 -0.4859  0.1317
 2723SOL    HW1 8168   3.906   0.247   7.281  0.2577 -0.1272 -1.7688
 2723SOL    HW2 8169   3.771   0.241   7.213 -0.7509  0.6633  0.0761
 2724SOL     OW 8170   4.219   2.873   6.011  0.4195  0.1412 -0.1848
 2724SOL    HW1 8171   4.243   2.949   6.065  0.1170  0.6972 -0.8111
 2724SOL    HW2 8172   4.125   2.863   6.025  0.5528 -0.4357  0.2897
 2725SOL     OW 8173   0.548   1.049   5.989  0.2209  0.1901 -0.1301
 2725SOL    HW1 8174   0.494   0.991   6.042 -0.7688  0.9011 -0.3372
 2725SOL    HW2 8175   0.611   0.991   5.946 -0.0412 -0.5863  0.5247
 2726SOL     OW 8176   2.684   3.110   8.912 -0.1342  0.1128 -0.1923
 2726SOL    HW1 8177   2.633   3.031   8.892 -1.8079  0.5281  2.0040
 2726SOL    HW2 8178   2.711   3.144   8.827  1.3725 -3.2183 -1.2173
 2727SOL     OW 8179   3.383   0.806   7.068 -0.6413 -0.1675  0.6488
 2727SOL    HW1 8180   3.424   0.880   7.024 -0.1047 -1.7013 -1.6544
 2727SOL    HW2 8181   3.456   0.759   7.109 -0.7829 -0.1535  0.9157
 2728SOL     OW 8182   2.109   4.885   6.384 -0.0276 -0.2821 -0.1944
 2728SOL    HW1 8183   2.115   4.920   6.295 -1.1828  0.1431 -0.1296
 2728SOL    HW2 8184   2.188   4.832   6.395  1.0551  1.1570 -0.8076
 2729SOL     OW 8185   2.687   3.733   6.045 -0.7305 -0.9570  0.0534
 2729SOL    HW1 8186   2.682   3.640   6.067 -1.3811 -1.2023 -1.0890
 2729SOL    HW2 8187   2.737   3.737   5.963 -1.0871 -0.3383 -0.1420
 2730SOL     OW 8188   3.366   3.085   6.119  0.1889 -0.0899  0.1266
 2730SOL    HW1 8189   3.429   3.053   6.184 -0.3517 -0.8472  0.2898
 2730SOL    HW2 8190   3.296   3.125   6.171  1.1721  2.0405 -0.0848
 2731SOL     OW 8191   0.518   2.734   6.324 -0.3616  0.2061  0.3855
 2731SOL    HW1 8192   0.454   2.796   6.361 -0.3822  0.2431  0.2868
 2731SOL    HW2 8193   0.479   2.707   6.241  0.5760  1.5987 -0.5555
 2732SOL     OW 8194   1.383   4.859   7.234  0.1041  0.0258 -0.0075
 2732SOL    HW1 8195   1.345   4.943   7.209 -0.3723 -0.0338  0.4931
 2732SOL    HW2 8196   1.453   4.844   7.170  0.0759  0.7135 -0.2041
 2733SOL     OW 8197   3.358   4.351   4.936  0.5079  0.0198 -0.1731
 2733SOL    HW1 8198   3.404   4.408   4.873 -0.1824  1.5062  0.6118
 2733SOL    HW2 8199   3.279   4.323   4.889 -0.4425  1.8187  0.2623
 2734SOL     OW 8200   1.194   1.523   5.609 -0.6105  0.4740  0.7220
 2734SOL    HW1 8201   1.283   1.551   5.632  0.0799  0.1535 -1.2722
 2734SOL    HW2 8202   1.189   1.433   5.639 -0.7460  0.8891  1.9922
 2735SOL     OW 8203   4.015   3.692   6.258  0.0571  0.5859  0.9333
 2735SOL    HW1 8204   3.928   3.713   6.292  0.4407  0.3575  2.0815
 2735SOL    HW2 8205   4.070   3.765   6.286 -0.3072  2.3309 -2.3581
 2736SOL     OW 8206   2.216   4.099   5.295  0.4582  0.4250 -0.0632
 2736SOL    HW1 8207   2.240   4.106   5.203 -0.9935  0.2443 -0.4879
 2736SOL    HW2 8208   2.147   4.033   5.297  0.6255  0.2568  1.1967
 2737SOL     OW 8209   2.240   4.374   6.333  0.0238 -0.8562  0.3416
 2737SOL    HW1 8210   2.167   4.411   6.285 -0.2684 -0.5550  1.0106
 2737SOL    HW2 8211   2.313   4.433   6.315 -0.1172 -0.6709  0.3779
 2738SOL     OW 8212   4.269   0.252   7.170 -0.6324 -0.3364 -0.1224
 2738SOL    HW1 8213   4.360   0.238   7.141 -0.3472 -0.3175  0.7298
 2738SOL    HW2 8214   4.229   0.301   7.098  0.3559  0.6528 -0.0451
 2739SOL     OW 8215   2.891   4.741   5.284 -0.1370 -0.5288  0.2884
 2739SOL    HW1 8216   2.979   4.767   5.313 -0.5797 -0.3380  1.5129
 2739SOL    HW2 8217   2.901   4.726   5.190  1.0137  0.3469  0.2357
 2740SOL     OW 8218   2.275   3.349   8.514 -0.6356  0.1105  0.5166
 2740SOL    HW1 8219   2.317   3.344   8.428 -3.1644 -0.6478 -0.7687
 2740SOL    HW2 8220   2.181   3.350   8.495 -1.3342 -1.4729  3.2980
 2741SOL     OW 8221   3.916   1.206   5.390  0.1114 -0.2214 -0.0577
 2741SOL    HW1 8222   3.905   1.265   5.465  0.4833 -0.6266  0.3215
 2741SOL    HW2 8223   3.995   1.157   5.410  0.6999  0.2602 -1.1270
 2742SOL     OW 8224   2.160   2.686   5.417  0.1637 -0.5138 -0.6079
 2742SOL    HW1 8225   2.254   2.704   5.424 -0.2581  1.2962  1.9159
 2742SOL    HW2 8226   2.151   2.597   5.452  0.7909 -0.0099  0.9329
 2743SOL     OW 8227   0.454   0.510   6.271  0.1718  0.0189  0.4971
 2743SOL    HW1 8228   0.395   0.466   6.332 -1.2404 -0.4240 -1.0881
 2743SOL    HW2 8229   0.424   0.600   6.269  1.3670  0.4774  1.7493
 2744SOL     OW 8230   2.462   2.610   6.890  0.7752 -0.0806 -0.2594
 2744SOL    HW1 8231   2.377   2.568   6.879  1.1200 -0.9870  0.3848
 2744SOL    HW2 8232   2.459   2.686   6.832 -1.3171  1.2079  1.3912
 2745SOL     OW 8233   2.939   3.012   5.407  0.4006 -0.2626 -0.3150
 2745SOL    HW1 8234   2.916   2.980   5.320 -0.9190  0.1477 -0.1439
 2745SOL    HW2 8235   2.939   2.933   5.462 -3.5210 -0.0895  0.2484
 2746SOL     OW 8236   0.367   2.881   5.210  0.0567 -0.3617 -0.3170
 2746SOL    HW1 8237   0.308   2.866   5.136 -0.7966 -0.5116  0.3688
 2746SOL    HW2 8238   0.359   2.802   5.263 -0.2999  0.2451  0.5631
 2747SOL     OW 8239   2.734   3.450   6.089  0.7603 -0.1639 -0.9883
 2747SOL    HW1 8240   2.812   3.459   6.145  0.4308  0.1521 -0.5750
 2747SOL    HW2 8241   2.681   3.383   6.131  1.0355 -0.7393 -1.5438
 2748SOL     OW 8242   3.443   3.934   5.759 -0.2064 -0.1804 -0.3304
 2748SOL    HW1 8243   3.463   3.891   5.842  0.6632 -4.3399 -2.4163
 2748SOL    HW2 8244   3.525   3.931   5.710 -1.2703 -0.2564 -2.2305
 2749SOL     OW 8245   1.892   4.106   5.412 -0.7163  0.3757  0.2912
 2749SOL    HW1 8246   1.948   4.084   5.486 -0.2180  0.2850 -0.1065
 2749SOL    HW2 8247   1.918   4.046   5.343 -1.0600  0.5724 -0.0163
 2750SOL     OW 8248   1.092   3.385   7.279 -0.2125 -0.3804 -0.6833
 2750SOL    HW1 8249   1.175   3.341   7.262  0.3387  0.8179 -1.2162
 2750SOL    HW2 8250   1.026   3.316   7.270  0.6683 -1.2224 -0.8483
 2751SOL     OW 8251   3.169   2.777   5.496 -0.1590 -0.4542 -0.2338
 2751SOL    HW1 8252   3.123   2.699   5.466  0.6774 -0.8548 -0.5150
 2751SOL    HW2 8253   3.194   2.756   5.586  0.3258 -0.6426 -0.4069
 2752SOL     OW 8254   4.533   1.832   6.455  0.2759  0.2621  0.3201
 2752SOL    HW1 8255   4.444   1.861   6.436 -0.0210  1.0282  2.5712
 2752SOL    HW2 8256   4.526   1.738   6.466  0.0208  0.1357 -0.8380
 2753SOL     OW 8257   1.422   4.978   5.139  0.4747  0.6592 -0.5006
 2753SOL    HW1 8258   1.344   5.030   5.159 -0.3639 -0.1980 -1.4595
 2753SOL    HW2 8259   1.407   4.894   5.184  0.7460  0.4138 -0.8656
 2754SOL     OW 8260   3.388   2.174   5.149  0.3528 -0.2803 -0.0818
 2754SOL    HW1 8261   3.300   2.160   5.183 -0.3845 -0.9066 -2.1211
 2754SOL    HW2 8262   3.439   2.101   5.184 -0.3220 -0.7725 -0.1138
 2755SOL     OW 8263   4.223   2.313   6.358 -0.2317 -0.1428 -0.9071
 2755SOL    HW1 8264   4.275   2.235   6.343 -1.4905 -0.8536 -1.7989
 2755SOL    HW2 8265   4.141   2.280   6.394 -0.1939  0.9206  0.2094
 2756SOL     OW 8266   1.491   3.657   5.002  0.4202 -0.1064  0.2852
 2756SOL    HW1 8267   1.560   3.655   5.068 -0.5090  1.7907  1.3740
 2756SOL    HW2 8268   1.519   3.725   4.941 -0.1903  0.2514  0.4006
 2757SOL     OW 8269   4.319   2.304   9.226 -0.1265 -0.1985 -0.2698
 2757SOL    HW1 8270   4.340   2.232   9.167  2.0057  1.7308 -2.0815
 2757SOL    HW2 8271   4.387   2.301   9.292 -1.9182 -1.7190  1.6332
 2758SOL     OW 8272   3.163   2.606   7.859 -0.4109  0.1536  0.4749
 2758SOL    HW1 8273   3.158   2.688   7.811 -0.6638  0.6485  1.3243
 2758SOL    HW2 8274   3.193   2.542   7.795 -0.9103  0.7576 -0.3764
 2759SOL     OW 8275   1.334   0.926   7.831 -0.0966 -0.2218 -0.1337
 2759SOL    HW1 8276   1.344   1.021   7.819  0.9409 -0.0283  1.9021
 2759SOL    HW2 8277   1.252   0.905   7.787 -0.0484  1.5054 -1.1411
 2760SOL     OW 8278   3.507   4.510   4.726 -0.5204  0.0511  0.0878
 2760SOL    HW1 8279   3.485   4.580   4.787 -2.5788  2.3346 -2.9967
 2760SOL    HW2 8280   3.484   4.544   4.640 -0.3614 -3.9538 -1.7871
 2761SOL     OW 8281   3.748   2.349   6.927  0.1813 -0.3671  0.2097
 2761SOL    HW1 8282   3.694   2.399   6.866 -0.0177 -0.4559  0.3096
 2761SOL    HW2 8283   3.825   2.323   6.877  1.9225  2.7857  0.9902
 2762SOL     OW 8284   2.037   0.672   5.848 -0.0818 -0.1179 -1.1124
 2762SOL    HW1 8285   2.114   0.725   5.825 -0.5444  0.6771 -0.8391
 2762SOL    HW2 8286   1.963   0.730   5.836 -0.6094 -0.7335 -0.8846
 2763SOL     OW 8287   2.906   4.901   6.483 -0.0512 -0.0127 -0.1276
 2763SOL    HW1 8288   2.865   4.965   6.425 -0.6755 -0.3450 -0.0567
 2763SOL    HW2 8289   2.871   4.921   6.570  1.1999  0.7518  0.2236
 2764SOL     OW 8290   0.657   2.358   6.103 -0.1874  0.1774  0.2861
 2764SOL    HW1 8291   0.574   2.373   6.058  0.4174  0.1499 -0.8985
 2764SOL    HW2 8292   0.697   2.284   6.056  0.5217  0.2183  0.8039
 2765SOL     OW 8293   4.563   3.901   6.041 -0.2967  0.4670 -0.2138
 2765SOL    HW1 8294   4.539   3.900   5.948 -2.0808  1.4200  0.2050
 2765SOL    HW2 8295   4.591   3.991   6.058  0.0165  0.2992  0.1864
 2766SOL     OW 8296   3.033   4.282   8.571 -0.5200  0.1704  0.2544
 2766SOL    HW1 8297   3.060   4.357   8.518 -0.1146 -1.3751 -1.8820
 2766SOL    HW2 8298   3.115   4.243   8.601 -0.5778 -0.8027 -0.7683
 2767SOL     OW 8299   2.896   3.451   5.431 -0.1269  0.0502 -0.1257
 2767SOL    HW1 8300   2.882   3.436   5.524 -2.2255 -1.9268 -0.6634
 2767SOL    HW2 8301   2.864   3.540   5.416 -1.2972 -0.1979  0.7827
 2768SOL     OW 8302   3.279   2.493   5.364 -0.1323  0.2896  0.0202
 2768SOL    HW1 8303   3.251   2.455   5.447  0.4360  0.7813  0.4442
 2768SOL    HW2 8304   3.321   2.576   5.388  0.2929  0.3007 -0.7252
 2769SOL     OW 8305   0.088   0.885   8.232  0.6412  0.4681  0.5712
 2769SOL    HW1 8306   0.082   0.971   8.272 -0.3272 -0.2501  2.0574
 2769SOL    HW2 8307   0.180   0.861   8.242  0.4678  0.3664  2.3553
 2770SOL     OW 8308   0.068   2.298   5.411 -0.0974  0.0274  0.2015
 2770SOL    HW1 8309  -0.017   2.254   5.403 -0.8018  1.2967  0.3775
 2770SOL    HW2 8310   0.132   2.228   5.402 -1.0730 -0.6688 -2.4235
 2771SOL     OW 8311   2.240   1.225   5.417 -0.2787  0.2949  0.5898
 2771SOL    HW1 8312   2.234   1.161   5.489 -0.9776 -1.8351 -1.2390
 2771SOL    HW2 8313   2.327   1.210   5.379 -0.2346  0.8387  0.4645
 2772SOL     OW 8314   2.268   3.354   5.769  0.4259  0.5703  0.2159
 2772SOL    HW1 8315   2.195   3.382   5.715  1.3477  0.0058 -1.3673
 2772SOL    HW2 8316   2.294   3.433   5.817 -0.7594  0.9365  0.2783
 2773SOL     OW 8317   2.720   4.999   7.821  0.1102  0.2834 -0.4711
 2773SOL    HW1 8318   2.719   4.916   7.868 -1.7138  0.0746 -0.8052
 2773SOL    HW2 8319   2.740   5.065   7.888 -0.0976 -0.2470  0.1164
 2774SOL     OW 8320   2.416   2.827   6.335  0.1652 -0.2700 -0.1270
 2774SOL    HW1 8321   2.363   2.892   6.381 -0.1914 -0.7800  0.1907
 2774SOL    HW2 8322   2.421   2.753   6.395  2.9510  0.5096  0.7434
 2775SOL     OW 8323   1.765   0.610   6.904 -0.1690 -0.1277  0.1337
 2775SOL    HW1 8324   1.834   0.622   6.838  0.0277  2.0602  0.6503
 2775SOL    HW2 8325   1.696   0.563   6.858  1.9899 -3.3790 -0.1280
 2776SOL     OW 8326   4.417   4.308   6.023 -0.1158  0.4532 -0.1809
 2776SOL    HW1 8327   4.479   4.238   6.044 -1.0838 -0.5252 -0.4818
 2776SOL    HW2 8328   4.471   4.386   6.014  1.0743 -0.3678 -0.4079
 2777SOL     OW 8329   3.826   0.110   5.799 -0.3237 -0.0522 -0.3863
 2777SOL    HW1 8330   3.894   0.081   5.860  0.5050  1.3371 -0.5857
 2777SOL    HW2 8331   3.861   0.191   5.762 -1.9813  0.5461 -0.7246
 2778SOL     OW 8332   1.498   3.626   8.078  0.4918  0.4581  0.0712
 2778SOL    HW1 8333   1.501   3.531   8.085 -0.5818  0.4520  0.7390
 2778SOL    HW2 8334   1.543   3.658   8.156  1.9760  0.5307 -0.7785
 2779SOL     OW 8335   0.058   2.277   5.793  0.1329 -0.1733 -0.2517
 2779SOL    HW1 8336  -0.032   2.251   5.771 -0.9348  2.0999  0.9441
 2779SOL    HW2 8337   0.073   2.241   5.880  0.1416 -0.0919 -0.2186
 2780SOL     OW 8338   1.577   0.330   6.682 -0.0966 -0.0265 -0.0129
 2780SOL    HW1 8339   1.522   0.260   6.645  1.0585 -1.4127  0.8285
 2780SOL    HW2 8340   1.660   0.287   6.703  0.6615  1.6229  0.4901
 2781SOL     OW 8341   2.774   4.431   6.917  0.2896 -0.2971 -0.5170
 2781SOL    HW1 8342   2.705   4.487   6.954  0.1714 -0.3413 -0.6683
 2781SOL    HW2 8343   2.852   4.485   6.918  1.0636 -1.2615  2.6793
 2782SOL     OW 8344   0.830   2.794   7.877 -0.1418  0.4940  0.6330
 2782SOL    HW1 8345   0.780   2.773   7.956 -2.4917  2.3902 -0.2093
 2782SOL    HW2 8346   0.848   2.888   7.884  1.7380  0.2189 -0.0013
 2783SOL     OW 8347   3.777   4.032   7.217 -0.3277  0.2322  0.9559
 2783SOL    HW1 8348   3.860   3.985   7.224 -0.4910 -0.4170 -0.9574
 2783SOL    HW2 8349   3.795   4.106   7.160 -1.2943 -0.5938 -0.4831
 2784SOL     OW 8350   1.168   0.990   6.201  0.4724 -0.4728 -0.4829
 2784SOL    HW1 8351   1.118   1.017   6.278 -0.0633  0.5724 -1.1743
 2784SOL    HW2 8352   1.250   0.957   6.237 -0.0141 -0.5849  0.5746
 2785SOL     OW 8353   1.256   4.389   6.090  0.6925  0.2272 -0.0414
 2785SOL    HW1 8354   1.236   4.296   6.100  0.5155  0.2843  0.1572
 2785SOL    HW2 8355   1.325   4.392   6.024 -0.0625  0.0253 -0.8606
 2786SOL     OW 8356   1.707   3.381   7.657 -0.3296 -0.2976  0.2625
 2786SOL    HW1 8357   1.731   3.460   7.608 -0.2100 -0.5817 -0.1429
 2786SOL    HW2 8358   1.611   3.385   7.663 -0.2032  1.0106  2.1808
 2787SOL     OW 8359   2.580   4.260   7.416  0.2667  0.4905 -0.1488
 2787SOL    HW1 8360   2.610   4.231   7.330 -1.3744  1.6601 -1.1685
 2787SOL    HW2 8361   2.629   4.341   7.431  0.7482  0.1486  0.1598
 2788SOL     OW 8362   2.990   4.736   7.050 -0.1630 -0.1682 -0.0190
 2788SOL    HW1 8363   2.907   4.721   7.095  0.0886 -1.0697  0.1700
 2788SOL    HW2 8364   2.989   4.675   6.976  0.7850 -0.9824  0.6064
 2789SOL     OW 8365   0.659   4.872   5.583 -0.1911  0.6936  0.2144
 2789SOL    HW1 8366   0.732   4.899   5.528  1.6168  1.5566  2.8327
 2789SOL    HW2 8367   0.677   4.781   5.605  0.7603  1.2199  1.7411
 2790SOL     OW 8368   2.212   3.859   5.477 -0.0305  0.2448  0.0298
 2790SOL    HW1 8369   2.228   3.952   5.460 -0.1774  0.1641 -0.5434
 2790SOL    HW2 8370   2.136   3.858   5.535  0.0081  0.4800  0.0858
 2791SOL     OW 8371   4.868   3.225   5.048 -0.0662  0.0487 -0.7132
 2791SOL    HW1 8372   4.840   3.294   4.988  0.2086 -0.3967 -1.3689
 2791SOL    HW2 8373   4.790   3.171   5.061 -0.0218 -0.0891 -1.0051
 2792SOL     OW 8374   1.414   0.382   5.604 -0.0902 -0.1463 -0.1760
 2792SOL    HW1 8375   1.476   0.319   5.567  0.1906  0.2009 -0.2936
 2792SOL    HW2 8376   1.468   0.444   5.652 -0.4891 -0.8779  1.2689
 2793SOL     OW 8377   4.172   2.116   5.061  0.5583  0.3050 -0.8066
 2793SOL    HW1 8378   4.267   2.106   5.069  0.3398 -1.4412  0.0807
 2793SOL    HW2 8379   4.148   2.175   5.132  0.6202 -2.1601  1.4498
 2794SOL     OW 8380   3.106   3.396   6.389  0.9796 -0.2737  0.4760
 2794SOL    HW1 8381   3.039   3.461   6.410  0.2305 -0.9583  0.2512
 2794SOL    HW2 8382   3.178   3.415   6.450  0.6985  0.6373  0.5366
 2795SOL     OW 8383   0.433   0.841   6.574 -0.0473 -0.0145  0.2858
 2795SOL    HW1 8384   0.419   0.837   6.479 -1.0501 -2.4255  0.4417
 2795SOL    HW2 8385   0.345   0.846   6.611  0.2829 -0.1028  1.1035
 2796SOL     OW 8386   2.175   4.789   4.933 -0.2067  0.2680 -0.3439
 2796SOL    HW1 8387   2.169   4.862   4.994 -1.0987 -1.2007  1.4433
 2796SOL    HW2 8388   2.269   4.773   4.924  0.1022  2.4936 -1.9663
 2797SOL     OW 8389   3.508   4.660   8.721  0.3457 -0.1314 -0.3922
 2797SOL    HW1 8390   3.567   4.641   8.793 -1.8877 -1.5213  1.2040
 2797SOL    HW2 8391   3.482   4.751   8.734 -1.2305 -0.7939  1.5906
 2798SOL     OW 8392   2.942   3.505   5.099 -0.2209 -0.3365  0.2505
 2798SOL    HW1 8393   2.985   3.506   5.013  0.1882 -0.5932  0.4512
 2798SOL    HW2 8394   2.985   3.434   5.146 -0.3314 -0.0879  0.7268
 2799SOL     OW 8395   1.654   2.052   6.400 -0.2708  0.1413  0.2886
 2799SOL    HW1 8396   1.597   2.084   6.330 -0.1174 -2.5108 -1.1799
 2799SOL    HW2 8397   1.714   2.125   6.417 -0.8867  1.2023 -1.7218
 2800SOL     OW 8398   4.765   0.614   5.519  0.5283  0.1549  0.1976
 2800SOL    HW1 8399   4.740   0.522   5.513  0.7172  0.0024  1.3826
 2800SOL    HW2 8400   4.854   0.612   5.555  0.2144  0.7998  1.0700
 2801SOL     OW 8401   2.876   3.619   7.220 -0.2343 -0.2282  0.3550
 2801SOL    HW1 8402   2.936   3.558   7.263  1.9587  0.2955 -1.7554
 2801SOL    HW2 8403   2.799   3.565   7.198  0.2074 -1.3848  1.5255
 2802SOL     OW 8404   3.175   1.066   4.813  0.1203  0.5205  0.2603
 2802SOL    HW1 8405   3.220   0.983   4.828  0.4381  0.9025  1.5680
 2802SOL    HW2 8406   3.200   1.120   4.887 -1.9923  0.9714  0.7114
 2803SOL     OW 8407   4.014   2.760   6.149 -0.5428  0.1293  0.3274
 2803SOL    HW1 8408   4.048   2.771   6.238  2.1222  2.7773 -0.8567
 2803SOL    HW2 8409   4.018   2.666   6.133  0.6709 -0.2201  2.3745
 2804SOL     OW 8410   1.790   3.335   5.274 -0.2080  0.8016  0.4761
 2804SOL    HW1 8411   1.796   3.406   5.339 -1.5759  1.7306 -0.3538
 2804SOL    HW2 8412   1.833   3.370   5.196  1.3198 -0.2656  0.8029
 2805SOL     OW 8413   4.202   3.823   6.061  0.2899 -0.1669  0.1104
 2805SOL    HW1 8414   4.291   3.788   6.068  0.0800 -0.9981 -1.1716
 2805SOL    HW2 8415   4.145   3.747   6.076 -0.2214  0.3542  0.8972
 2806SOL     OW 8416   3.756   3.572   4.997  0.1627 -0.0317 -0.8905
 2806SOL    HW1 8417   3.664   3.546   4.994  0.7721 -2.3488 -2.5627
 2806SOL    HW2 8418   3.757   3.652   5.050 -3.0290  1.0476 -2.2124
 2807SOL     OW 8419   2.784   4.843   9.596 -0.3395  0.2850  0.2960
 2807SOL    HW1 8420   2.828   4.786   9.534 -0.2260  0.9210 -0.2237
 2807SOL    HW2 8421   2.846   4.853   9.668  0.2129  0.8303 -0.2349
 2808SOL     OW 8422   0.298   4.135   9.174  0.3881  0.2972 -0.7280
 2808SOL    HW1 8423   0.244   4.158   9.099 -0.5997 -1.1985 -0.5052
 2808SOL    HW2 8424   0.388   4.138   9.140  0.0205  0.5263 -1.7199
 2809SOL     OW 8425   2.757   4.227   8.265 -0.3899 -0.1223  0.1215
 2809SOL    HW1 8426   2.831   4.277   8.231  0.4571 -1.5415 -0.1930
 2809SOL    HW2 8427   2.793   4.179   8.340 -0.1615 -2.9770 -1.6537
 2810SOL     OW 8428   2.833   2.822   9.098  0.9252 -0.2318  0.7065
 2810SOL    HW1 8429   2.793   2.825   9.011 -1.7782  0.7685  1.8823
 2810SOL    HW2 8430   2.890   2.899   9.101  0.6012  0.0470  0.0095
 2811SOL     OW 8431   0.271   3.118   9.934  0.1905  0.1023 -0.2714
 2811SOL    HW1 8432   0.231   3.071  10.008 -0.3905  0.9857 -0.0155
 2811SOL    HW2 8433   0.340   3.059   9.903 -0.7015 -1.0451 -0.1284
 2812SOL     OW 8434   4.060   3.899   7.208  0.2394  0.0407 -0.8102
 2812SOL    HW1 8435   4.063   3.853   7.292  0.1756 -0.7195 -1.2155
 2812SOL    HW2 8436   4.143   3.876   7.165  0.6507  1.0993 -0.6150
 2813SOL     OW 8437   1.633   0.076   9.518  0.0857 -0.1659  0.2419
 2813SOL    HW1 8438   1.711   0.052   9.467  0.2227  0.9988 -0.1128
 2813SOL    HW2 8439   1.666   0.136   9.586 -0.7882  2.2106 -1.3168
 2814SOL     OW 8440   0.909   3.036   7.979 -0.3220 -0.2299  0.0892
 2814SOL    HW1 8441   0.875   3.125   7.972 -0.2142 -0.1616  0.4363
 2814SOL    HW2 8442   1.002   3.045   7.958 -0.1115 -0.1102  1.0327
 2815SOL     OW 8443   0.442   3.995   7.711  0.0840  0.4500  0.3498
 2815SOL    HW1 8444   0.477   3.921   7.662  0.4991  1.0251 -0.2548
 2815SOL    HW2 8445   0.389   3.956   7.780  0.1821 -0.4017 -0.0420
 2816SOL     OW 8446   4.729   4.300   6.276 -0.1870 -0.4400  0.4261
 2816SOL    HW1 8447   4.749   4.371   6.336 -1.9702  1.3266 -0.9164
 2816SOL    HW2 8448   4.692   4.231   6.332 -0.2165  0.4575  1.5539
 2817SOL     OW 8449   2.081   4.225   7.815  0.0360 -0.2115  0.0504
 2817SOL    HW1 8450   2.049   4.302   7.863 -2.3247 -1.2397  0.2864
 2817SOL    HW2 8451   2.061   4.152   7.873  0.0992 -1.2015 -1.1559
 2818SOL     OW 8452   2.754   4.956   6.753  0.2805  0.2072  0.2377
 2818SOL    HW1 8453   2.824   4.988   6.811  0.1529 -2.1033  1.7734
 2818SOL    HW2 8454   2.676   5.002   6.783  0.0267 -1.6175  2.6611
 2819SOL     OW 8455   3.444   0.858   9.465  0.1485 -0.1210 -0.5496
 2819SOL    HW1 8456   3.466   0.910   9.542  2.9621 -0.1508 -1.2298
 2819SOL    HW2 8457   3.357   0.890   9.438 -0.2053  0.9623  1.6828
 2820SOL     OW 8458   1.793   4.137   5.129 -0.1072 -0.0298  0.0204
 2820SOL    HW1 8459   1.742   4.058   5.145 -0.1182  0.1165  0.7220
 2820SOL    HW2 8460   1.885   4.110   5.140 -0.1815  0.5674  2.7276
 2821SOL     OW 8461   1.322   0.662   7.342 -0.2507  0.3204  0.9367
 2821SOL    HW1 8462   1.386   0.729   7.366 -1.0788  1.4948 -0.0011
 2821SOL    HW2 8463   1.326   0.598   7.413  2.4476 -0.0296  0.5782
 2822SOL     OW 8464   0.950   0.170   6.126 -0.3535 -0.6133  0.0849
 2822SOL    HW1 8465   0.905   0.245   6.087 -0.0504  0.8391  2.3326
 2822SOL    HW2 8466   1.004   0.135   6.055 -0.2274  1.5313 -0.9612
 2823SOL     OW 8467   1.663   1.401   9.126  0.3631  0.2870  0.1255
 2823SOL    HW1 8468   1.624   1.412   9.212 -1.8213 -0.1106 -0.7616
 2823SOL    HW2 8469   1.593   1.364   9.072  1.7491  0.2756 -1.7551
 2824SOL     OW 8470   3.448   0.073   8.493  0.5189 -0.1478 -0.2234
 2824SOL    HW1 8471   3.408   0.160   8.498 -0.9808 -0.7683 -0.7240
 2824SOL    HW2 8472   3.382   0.019   8.447 -0.2284 -2.4221  3.1588
 2825SOL     OW 8473   3.029   3.876   6.288  0.0379 -0.0752 -0.3183
 2825SOL    HW1 8474   3.071   3.840   6.366  0.1718 -2.6023 -1.4893
 2825SOL    HW2 8475   2.960   3.814   6.266 -0.9417  1.3352 -1.4302
 2826SOL     OW 8476   1.648   4.662   8.264 -0.3829  0.1917  0.4962
 2826SOL    HW1 8477   1.567   4.638   8.309 -0.2204 -1.9307 -0.2609
 2826SOL    HW2 8478   1.627   4.655   8.171  0.2525  1.1467  0.2663
 2827SOL     OW 8479   4.916   3.744   7.160  0.2210 -0.0211 -0.4985
 2827SOL    HW1 8480   4.851   3.811   7.182  1.2033  0.9177 -0.4052
 2827SOL    HW2 8481   5.000   3.784   7.180  0.7982 -2.4051  2.8826
 2828SOL     OW 8482   2.883   1.708   9.681 -0.4230 -0.4250  0.1477
 2828SOL    HW1 8483   2.839   1.651   9.744 -1.2707 -1.2877 -1.1569
 2828SOL    HW2 8484   2.921   1.778   9.734 -2.2485 -0.3713  1.4845
 2829SOL     OW 8485   4.711   0.386   8.015  0.0509  0.7105 -0.0634
 2829SOL    HW1 8486   4.754   0.304   7.989  2.7538  1.8770  0.4743
 2829SOL    HW2 8487   4.636   0.393   7.956  1.1751 -0.9267 -1.8021
 2830SOL     OW 8488   2.528   2.512   7.332  0.0357  0.0421 -0.6515
 2830SOL    HW1 8489   2.582   2.520   7.411  1.2959  0.6025 -1.5489
 2830SOL    HW2 8490   2.438   2.512   7.365  0.5523 -1.5001  0.9389
 2831SOL     OW 8491   2.325   3.222   7.119  0.1628  0.0564 -0.2250
 2831SOL    HW1 8492   2.256   3.234   7.055 -1.0251  0.4471  1.0746
 2831SOL    HW2 8493   2.360   3.310   7.134  1.0035 -0.1422 -0.9035
 2832SOL     OW 8494   3.551   3.258   8.847  0.3766  0.4721  0.3467
 2832SOL    HW1 8495   3.464   3.237   8.812  0.1114  1.2367  0.5328
 2832SOL    HW2 8496   3.543   3.248   8.942  0.2219  1.4536  0.4484
 2833SOL     OW 8497   2.374   0.861   8.202  0.0462 -0.2503 -0.0433
 2833SOL    HW1 8498   2.375   0.894   8.112  1.4820  1.1329  0.4398
 2833SOL    HW2 8499   2.422   0.778   8.198  1.6301  0.6490 -0.2802
 2834SOL     OW 8500   3.718   3.953   8.370 -0.6001  0.2846 -0.5917
 2834SOL    HW1 8501   3.677   3.956   8.284 -0.5092  0.6478 -0.6233
 2834SOL    HW2 8502   3.745   3.862   8.381  2.0417  0.7749 -2.1971
 2835SOL     OW 8503   1.540   4.390   6.759 -0.3328  0.4310  0.1575
 2835SOL    HW1 8504   1.588   4.308   6.760  1.3168  1.3105 -1.4552
 2835SOL    HW2 8505   1.546   4.422   6.669 -0.4787  2.5443  0.8203
 2836SOL     OW 8506   1.198   4.939   8.027  0.2458  0.2137  0.1318
 2836SOL    HW1 8507   1.166   4.873   7.965  0.3842 -0.0329  0.3220
 2836SOL    HW2 8508   1.285   4.908   8.052 -1.0963 -1.6387  3.1710
 2837SOL     OW 8509   2.336   4.724   9.147  0.3216 -0.2628  0.1901
 2837SOL    HW1 8510   2.420   4.754   9.183 -0.1077 -0.8303  1.6891
 2837SOL    HW2 8511   2.358   4.641   9.103  0.4384 -0.7895  1.2061
 2838SOL     OW 8512   2.870   1.007   8.241 -0.5371 -0.4168  0.2799
 2838SOL    HW1 8513   2.869   1.040   8.151 -0.0758  2.3051  1.1758
 2838SOL    HW2 8514   2.957   1.031   8.274 -1.2291  0.0110  1.8922
 2839SOL     OW 8515   4.398   4.899   8.075 -0.0719  0.4858 -0.7294
 2839SOL    HW1 8516   4.463   4.911   8.145 -0.2259  0.6132 -0.6079
 2839SOL    HW2 8517   4.406   4.806   8.052 -2.2185 -0.4120  1.6601
 2840SOL     OW 8518   2.398   2.656   9.012 -0.1052  0.5691  0.0273
 2840SOL    HW1 8519   2.485   2.617   9.003 -0.4397 -0.8899  2.4131
 2840SOL    HW2 8520   2.341   2.584   9.038 -1.8528  1.7001 -0.4223
 2841SOL     OW 8521   0.240   2.714   5.413 -0.0096  0.1436  0.4100
 2841SOL    HW1 8522   0.313   2.713   5.474 -1.2034  2.0214  2.0100
 2841SOL    HW2 8523   0.174   2.769   5.456 -1.8623 -0.4345 -1.5254
 2842SOL     OW 8524   0.371   3.625   5.566 -0.4365 -0.0590 -0.6828
 2842SOL    HW1 8525   0.386   3.665   5.652 -1.3197  0.0978 -0.5885
 2842SOL    HW2 8526   0.396   3.533   5.578 -2.3398 -0.4946  0.3123
 2843SOL     OW 8527   3.645   0.631   6.179 -0.1578 -0.4173  0.0627
 2843SOL    HW1 8528   3.620   0.675   6.097  0.8348 -1.0993 -0.6357
 2843SOL    HW2 8529   3.576   0.567   6.193 -0.0061 -0.7457 -0.6195
 2844SOL     OW 8530   1.798   1.807   7.713  0.2347  0.0146 -1.0225
 2844SOL    HW1 8531   1.716   1.791   7.666 -0.8629 -0.8614  1.0562
 2844SOL    HW2 8532   1.858   1.740   7.680 -0.8391 -1.2655 -0.4767
 2845SOL     OW 8533   3.536   3.500   7.998  0.3116  0.3637 -0.2365
 2845SOL    HW1 8534   3.526   3.518   7.905 -0.0922 -2.9394 -0.9556
 2845SOL    HW2 8535   3.626   3.524   8.018  0.6247  0.4479 -1.6741
 2846SOL     OW 8536   2.538   3.552   6.905  0.1743  0.2160 -0.6943
 2846SOL    HW1 8537   2.580   3.594   6.829  1.4167  0.7554  0.2560
 2846SOL    HW2 8538   2.567   3.603   6.980  0.0001 -1.0682  0.2894
 2847SOL     OW 8539   2.932   4.798   9.362  0.6222  0.4253  0.3379
 2847SOL    HW1 8540   3.019   4.801   9.402  1.0571 -1.5414 -0.3793
 2847SOL    HW2 8541   2.942   4.743   9.285 -0.9777  1.2963 -0.5516
 2848SOL     OW 8542   2.186   0.819   5.327 -1.0352  0.3101 -0.2884
 2848SOL    HW1 8543   2.182   0.879   5.252 -0.2954  0.3603 -0.2902
 2848SOL    HW2 8544   2.183   0.876   5.403  1.5228  0.5429 -0.2682
 2849SOL     OW 8545   3.481   2.562   7.974 -0.2929  0.3158 -0.1464
 2849SOL    HW1 8546   3.490   2.478   8.019  0.1221  1.0932  1.2821
 2849SOL    HW2 8547   3.388   2.584   7.983 -0.0593  0.8934  1.2107
 2850SOL     OW 8548   2.991   3.860   7.202 -0.0091 -0.1806  0.7033
 2850SOL    HW1 8549   2.953   3.778   7.233 -1.7170  0.7199  1.0991
 2850SOL    HW2 8550   2.918   3.921   7.198  1.2934  1.4814  0.9154
 2851SOL     OW 8551   1.562   3.133   7.385 -0.0358  0.0339  0.5452
 2851SOL    HW1 8552   1.574   3.201   7.451 -2.1216  0.1235  0.8885
 2851SOL    HW2 8553   1.576   3.051   7.432 -1.7215  0.0893  1.1769
 2852SOL     OW 8554   3.270   2.204   8.812  0.4091 -0.3637  0.9031
 2852SOL    HW1 8555   3.222   2.280   8.846 -0.7161 -0.8262  0.3874
 2852SOL    HW2 8556   3.293   2.153   8.890  2.6320  1.2955  1.4196
 2853SOL     OW 8557   4.418   3.936   6.673  0.1326  0.1803 -0.4868
 2853SOL    HW1 8558   4.454   3.981   6.749  0.3517 -0.0241 -0.4655
 2853SOL    HW2 8559   4.337   3.982   6.653 -0.9491 -0.9464  1.0581
 2854SOL     OW 8560   3.091   4.579   6.115 -0.0933 -0.4386 -0.5705
 2854SOL    HW1 8561   3.054   4.586   6.203  0.3622  0.2089 -0.4297
 2854SOL    HW2 8562   3.046   4.647   6.064  0.0358 -0.4531 -0.7035
 2855SOL     OW 8563   0.846   3.357   9.115 -0.4818  0.9298  0.6886
 2855SOL    HW1 8564   0.918   3.354   9.178  1.0073  1.1671 -0.9310
 2855SOL    HW2 8565   0.828   3.451   9.104 -0.4228  0.9110  0.4229
 2856SOL     OW 8566   2.465   3.423   7.505  0.5835  0.0850  0.0258
 2856SOL    HW1 8567   2.485   3.330   7.508 -0.8626 -0.2330  1.0701
 2856SOL    HW2 8568   2.542   3.466   7.542  1.3845 -0.6496 -0.7411
 2857SOL     OW 8569   0.924   3.870   5.988  0.0741 -0.3253  0.3320
 2857SOL    HW1 8570   0.884   3.783   5.988 -1.4094  0.2946 -1.2854
 2857SOL    HW2 8571   0.902   3.906   6.074 -2.4977 -0.2379 -0.2791
 2858SOL     OW 8572   2.337   4.192   8.582 -0.3811 -0.3033  0.2461
 2858SOL    HW1 8573   2.271   4.222   8.644  0.7946 -0.1722  1.4611
 2858SOL    HW2 8574   2.383   4.272   8.556 -0.7201 -0.3858 -0.6478
 2859SOL     OW 8575   1.525   4.156   7.038 -0.1141 -0.0645  0.7647
 2859SOL    HW1 8576   1.458   4.088   7.042  0.2964 -0.4147  2.4274
 2859SOL    HW2 8577   1.475   4.238   7.041 -0.5087 -0.3202  1.5619
 2860SOL     OW 8578   2.340   4.194   8.190  0.0944 -0.4752  0.0724
 2860SOL    HW1 8579   2.321   4.258   8.122 -1.8104 -1.6465 -0.5651
 2860SOL    HW2 8580   2.403   4.134   8.150 -0.2492 -0.5847 -0.3045
 2861SOL     OW 8581   2.141   2.844   8.461 -0.1454 -0.8804 -0.1836
 2861SOL    HW1 8582   2.127   2.895   8.541 -2.2677 -1.7941  0.0926
 2861SOL    HW2 8583   2.097   2.894   8.392 -1.4730 -1.8539 -0.0715
 2862SOL     OW 8584   2.608   4.849   7.408  0.1616  0.2875 -0.5176
 2862SOL    HW1 8585   2.662   4.897   7.470  0.0137  0.5781 -0.6150
 2862SOL    HW2 8586   2.568   4.779   7.461  0.2232  0.3885 -0.3378
 2863SOL     OW 8587   2.070   4.449   8.019  0.8234 -0.0639 -0.4908
 2863SOL    HW1 8588   2.127   4.414   8.087 -1.1564  0.4236  1.5565
 2863SOL    HW2 8589   2.129   4.484   7.952  2.8497 -0.5881  0.9502
 2864SOL     OW 8590   3.846   3.627   7.723  0.4033  0.1936 -0.4485
 2864SOL    HW1 8591   3.867   3.687   7.652  1.5030 -0.4218 -0.6590
 2864SOL    HW2 8592   3.898   3.548   7.705 -1.0963 -0.8810 -0.2415
 2865SOL     OW 8593   2.948   3.755   5.210  0.0565 -0.3536 -0.1309
 2865SOL    HW1 8594   3.044   3.762   5.207  0.1793 -0.9820  1.2852
 2865SOL    HW2 8595   2.931   3.662   5.193 -0.1151 -0.7335  1.8549
 2866SOL     OW 8596   1.259   2.993   6.523 -0.1141  0.7725 -0.5777
 2866SOL    HW1 8597   1.230   2.961   6.608  1.3847  1.8556  0.3848
 2866SOL    HW2 8598   1.180   3.033   6.485 -0.7265  0.5727  0.4422
 2867SOL     OW 8599   2.402   4.950   6.610 -0.2383  0.6944  0.3390
 2867SOL    HW1 8600   2.460   4.890   6.657 -0.3792 -1.7569 -2.3706
 2867SOL    HW2 8601   2.330   4.967   6.672 -0.2824 -2.1168  1.1767
 2868SOL     OW 8602   1.030   0.156   8.487  0.3035 -0.9956 -0.4150
 2868SOL    HW1 8603   1.063   0.197   8.566  0.2005  0.7386 -1.2249
 2868SOL    HW2 8604   1.107   0.118   8.444  0.4418 -1.4293  0.2095
 2869SOL     OW 8605   0.126   3.971   7.646 -0.1789 -0.1806 -0.2455
 2869SOL    HW1 8606   0.118   3.994   7.553 -0.8914  0.3095 -0.0660
 2869SOL    HW2 8607   0.181   3.892   7.645  2.7548  1.7106 -0.8213
 2870SOL     OW 8608   2.473   2.853   9.435  0.2461  0.1023  0.2328
 2870SOL    HW1 8609   2.506   2.763   9.436  0.2628  0.1063  0.0642
 2870SOL    HW2 8610   2.450   2.869   9.344 -0.8635 -0.1241  0.4637
 2871SOL     OW 8611   0.399   2.484   6.504 -0.3351 -0.0379  0.2506
 2871SOL    HW1 8612   0.477   2.429   6.508  0.6009  1.2923  1.6197
 2871SOL    HW2 8613   0.417   2.548   6.436  0.0888  0.6929  1.0339
 2872SOL     OW 8614   3.858   4.166   9.088 -0.4811 -0.2872  0.2053
 2872SOL    HW1 8615   3.816   4.138   9.169 -0.2273  0.8681  0.7439
 2872SOL    HW2 8616   3.868   4.085   9.038  1.5929 -1.4551  2.3203
 2873SOL     OW 8617   0.563   2.543   9.391 -0.3108 -0.0198 -0.0013
 2873SOL    HW1 8618   0.640   2.598   9.379  0.0803 -0.5593 -0.0213
 2873SOL    HW2 8619   0.536   2.520   9.302  0.1131 -0.6479  0.0242
 2874SOL     OW 8620   0.926   4.808   6.758 -0.2452  0.8345 -0.2443
 2874SOL    HW1 8621   0.863   4.863   6.804 -0.3116  0.1400  0.5186
 2874SOL    HW2 8622   0.931   4.845   6.670 -1.7614  0.8568 -0.3412
 2875SOL     OW 8623   1.903   2.917   7.186 -0.8152 -0.1690  0.4139
 2875SOL    HW1 8624   1.808   2.926   7.182 -1.0061 -1.5702  1.1194
 2875SOL    HW2 8625   1.935   3.002   7.215 -1.6098  1.1430 -2.2719
 2876SOL     OW 8626   2.138   3.457   5.533 -0.3836  0.0237  0.1795
 2876SOL    HW1 8627   2.165   3.544   5.561  0.5031 -0.5679  1.2619
 2876SOL    HW2 8628   2.198   3.435   5.462 -0.6623  0.3162 -0.1516
 2877SOL     OW 8629   0.800   2.986   8.407 -0.1204 -0.7816  0.4542
 2877SOL    HW1 8630   0.786   2.949   8.320  1.4763 -0.7454  0.1427
 2877SOL    HW2 8631   0.822   3.078   8.390 -0.6808 -0.5532  0.9641
 2878SOL     OW 8632   2.434   4.025   8.386  0.1023 -0.3102 -0.3705
 2878SOL    HW1 8633   2.443   4.082   8.309 -0.7940 -1.1985 -1.1747
 2878SOL    HW2 8634   2.393   4.081   8.452 -1.1424 -0.0950 -1.2813
 2879SOL     OW 8635   4.430   0.157   8.336  0.3371  0.3007  0.4895
 2879SOL    HW1 8636   4.474   0.232   8.375  0.7355  1.7127 -2.4426
 2879SOL    HW2 8637   4.500   0.095   8.316  0.4971  0.7613 -0.4157
 2880SOL     OW 8638   2.075   2.537   9.376 -0.3574  0.2238  0.6761
 2880SOL    HW1 8639   1.995   2.589   9.367 -0.3036  0.2788  0.5105
 2880SOL    HW2 8640   2.044   2.446   9.380 -0.4187  0.2333  0.4422
 2881SOL     OW 8641   1.398   1.203   7.767 -0.4464 -0.1416 -0.5113
 2881SOL    HW1 8642   1.362   1.285   7.801  0.4515 -0.7341  2.1478
 2881SOL    HW2 8643   1.361   1.195   7.679 -0.9965  2.8040 -0.6440
 2882SOL     OW 8644   0.883   4.714   9.786  0.3215  0.2172  0.0585
 2882SOL    HW1 8645   0.820   4.655   9.744 -0.1254  0.6179  0.1608
 2882SOL    HW2 8646   0.958   4.714   9.727  0.7415 -1.2309  0.5396
 2883SOL     OW 8647   3.056   4.282   7.586 -0.0803 -0.0619 -0.2266
 2883SOL    HW1 8648   3.008   4.200   7.574  1.3207 -0.7458 -1.3202
 2883SOL    HW2 8649   3.146   4.261   7.562  0.1924  1.9461 -1.1071
 2884SOL     OW 8650   3.595   0.790   7.877 -0.6325 -0.0783 -0.4290
 2884SOL    HW1 8651   3.656   0.758   7.811  0.4176  1.9836 -0.5377
 2884SOL    HW2 8652   3.553   0.866   7.835 -1.7873 -0.2469  0.3888
 2885SOL     OW 8653   2.366   2.513   9.842  0.1324  0.0371  0.1071
 2885SOL    HW1 8654   2.295   2.559   9.797  1.8974  1.4607 -1.4371
 2885SOL    HW2 8655   2.433   2.503   9.774  1.9397 -0.0157  1.8289
 2886SOL     OW 8656   2.243   3.604   8.881  0.0098  0.5554 -0.4220
 2886SOL    HW1 8657   2.282   3.691   8.886  0.5863  0.2704  0.2810
 2886SOL    HW2 8658   2.305   3.553   8.829 -0.2805  0.5382 -0.7540
 2887SOL     OW 8659   3.342   4.037   7.803  0.6293 -0.4403 -0.7227
 2887SOL    HW1 8660   3.392   4.002   7.729  1.1533  0.3074 -0.7413
 2887SOL    HW2 8661   3.363   4.131   7.804  0.0502 -0.3047 -0.0751
 2888SOL     OW 8662   3.543   3.051   6.941 -0.1065 -0.1937  0.3084
 2888SOL    HW1 8663   3.596   3.124   6.908 -2.0165  0.2402 -2.0891
 2888SOL    HW2 8664   3.597   2.974   6.926  0.4288  0.3609 -0.7725
 2889SOL     OW 8665   0.871   3.082   9.949 -0.1143  0.0973  0.1605
 2889SOL    HW1 8666   0.863   3.166   9.904 -0.9008  0.1597  0.3957
 2889SOL    HW2 8667   0.785   3.068   9.988  0.8180  0.5596  2.5396
 2890SOL     OW 8668   2.781   1.849   8.867 -0.1527 -0.2938  0.0353
 2890SOL    HW1 8669   2.696   1.828   8.904  0.1570 -1.3825  0.1683
 2890SOL    HW2 8670   2.839   1.779   8.898  0.8346  0.5281  0.1081
 2891SOL     OW 8671   4.503   4.522   7.416  0.2502 -0.5101 -0.0263
 2891SOL    HW1 8672   4.516   4.539   7.322  0.5034  0.3039  0.1438
 2891SOL    HW2 8673   4.532   4.432   7.428  1.1973 -0.2972 -0.5557
 2892SOL     OW 8674   1.890   4.787   6.476  0.3884  0.0234  0.1814
 2892SOL    HW1 8675   1.838   4.867   6.474  1.8993  1.0441  0.4975
 2892SOL    HW2 8676   1.979   4.815   6.453  1.7664 -0.9096  3.7504
 2893SOL     OW 8677   0.468   3.492   9.714 -0.6730 -0.0775  0.1567
 2893SOL    HW1 8678   0.428   3.444   9.642 -0.3898 -2.4020  1.4424
 2893SOL    HW2 8679   0.395   3.512   9.773 -0.5877 -0.2659  0.3280
 2894SOL     OW 8680   2.223   2.463   9.148  0.1863 -0.6866  0.2379
 2894SOL    HW1 8681   2.137   2.470   9.105  0.2146 -1.6266  0.0182
 2894SOL    HW2 8682   2.210   2.506   9.233 -1.3030 -3.1163  1.3419
 2895SOL     OW 8683   0.413   4.647   9.357 -0.3597 -0.2253 -0.6666
 2895SOL    HW1 8684   0.431   4.556   9.381  0.6407 -0.2029 -1.2803
 2895SOL    HW2 8685   0.430   4.696   9.438  1.9005 -0.2772 -1.0400
 2896SOL     OW 8686   3.267   2.673   8.100 -0.3361  0.0801  1.0651
 2896SOL    HW1 8687   3.279   2.763   8.131  1.5158  0.0847  0.4299
 2896SOL    HW2 8688   3.216   2.682   8.020 -0.8572  0.4849  1.4340
 2897SOL     OW 8689   3.760   4.256   7.069  0.3611  0.0633  0.3791
 2897SOL    HW1 8690   3.667   4.255   7.092 -0.1786  0.5677 -1.5819
 2897SOL    HW2 8691   3.801   4.311   7.135 -0.5416 -0.9481  1.8451
 2898SOL     OW 8692   2.805   0.796   9.352  0.4864 -0.2966 -0.0469
 2898SOL    HW1 8693   2.877   0.856   9.371  1.0677 -0.5803 -1.2811
 2898SOL    HW2 8694   2.846   0.720   9.311 -0.3262 -1.2473  0.8172
 2899SOL     OW 8695   0.861   4.085   8.442  0.0770  0.2369  0.6943
 2899SOL    HW1 8696   0.879   4.043   8.359  1.9907  2.3615 -0.0615
 2899SOL    HW2 8697   0.917   4.040   8.505 -0.0910 -0.2586  0.4871
 2900SOL     OW 8698   2.335   0.106   8.454 -0.4994  1.1184 -0.3568
 2900SOL    HW1 8699   2.299   0.108   8.365  2.8034 -2.3388 -2.0497
 2900SOL    HW2 8700   2.421   0.148   8.445  0.0360  0.3870  1.0810
 2901SOL     OW 8701   2.118   1.407   9.586  0.1589  0.3299 -0.3544
 2901SOL    HW1 8702   2.127   1.493   9.628  1.1610  0.1472 -0.1801
 2901SOL    HW2 8703   2.024   1.391   9.585  0.0839  0.1454  2.2808
 2902SOL     OW 8704   2.872   3.447   8.211 -0.1204 -0.4530 -0.0926
 2902SOL    HW1 8705   2.910   3.456   8.298  0.4509 -0.6232 -0.3202
 2902SOL    HW2 8706   2.946   3.424   8.155 -0.1644  1.4046 -0.9552
 2903SOL     OW 8707   2.173   0.814   7.743  0.9298  0.1084  0.2385
 2903SOL    HW1 8708   2.160   0.862   7.661  1.1704  0.2702  0.2941
 2903SOL    HW2 8709   2.155   0.723   7.721  1.2426  0.1181 -0.0528
 2904SOL     OW 8710   3.128   4.613   8.837 -0.1133  0.0403  0.0526
 2904SOL    HW1 8711   3.192   4.560   8.790  1.8757  1.2041  1.3182
 2904SOL    HW2 8712   3.130   4.579   8.926 -0.4715  0.8109  0.3580
 2905SOL     OW 8713   3.030   4.646   7.460 -0.1367  0.9645 -0.0217
 2905SOL    HW1 8714   2.940   4.646   7.429 -0.5347 -2.0026  0.8460
 2905SOL    HW2 8715   3.083   4.650   7.381 -1.0676 -0.1432 -0.7201
 2906SOL     OW 8716   1.542   0.152   7.978  0.2957 -0.3982  0.4795
 2906SOL    HW1 8717   1.517   0.062   7.997  1.5827 -1.0692 -0.8539
 2906SOL    HW2 8718   1.606   0.174   8.046  0.8046 -0.8946  0.1731
 2907SOL     OW 8719   1.952   4.401   6.737 -0.3581 -0.2199  0.2145
 2907SOL    HW1 8720   1.904   4.460   6.795  1.3536  0.3314  1.1372
 2907SOL    HW2 8721   1.961   4.320   6.788 -0.2188 -0.2794  0.0961
 2908SOL     OW 8722   2.900   0.522   6.822  0.3747  0.5388  0.4838
 2908SOL    HW1 8723   2.881   0.535   6.729  1.5929  0.4776  0.2000
 2908SOL    HW2 8724   2.995   0.534   6.829  0.6322 -1.5389  1.3373
 2909SOL     OW 8725   0.114   2.992   7.291 -0.6174  0.8122  0.2239
 2909SOL    HW1 8726   0.195   2.962   7.248 -1.0023  0.0866 -0.0132
 2909SOL    HW2 8727   0.046   2.980   7.224 -1.1306  0.1877  0.8450
 2910SOL     OW 8728   2.146   2.021   7.238  0.0770 -0.7466 -0.0038
 2910SOL    HW1 8729   2.162   2.107   7.278 -1.0369 -0.1379 -0.8035
 2910SOL    HW2 8730   2.161   1.959   7.309 -0.4617  0.2050  0.9783
 2911SOL     OW 8731   2.247   0.223   7.999 -0.3258 -0.0324  0.0955
 2911SOL    HW1 8732   2.317   0.173   8.040  1.8573  1.0083 -2.0869
 2911SOL    HW2 8733   2.180   0.231   8.067  0.1240 -3.9184  1.2393
 2912SOL     OW 8734   2.483   4.236   6.320 -0.2325 -0.2326 -0.7372
 2912SOL    HW1 8735   2.388   4.248   6.316 -0.1549  0.8815  0.2664
 2912SOL    HW2 8736   2.510   4.277   6.402  0.9039 -2.1700 -0.0552
 2913SOL     OW 8737   2.106   2.635   6.893  0.2537  0.4947 -0.1493
 2913SOL    HW1 8738   2.055   2.589   6.959  1.1302 -0.8602 -0.3677
 2913SOL    HW2 8739   2.063   2.612   6.810  2.6675 -2.9447 -0.6385
 2914SOL     OW 8740   2.161   0.212   8.252  0.6972 -0.1022 -0.0643
 2914SOL    HW1 8741   2.081   0.236   8.299 -0.6069  1.5089 -2.8408
 2914SOL    HW2 8742   2.221   0.285   8.269  0.2605  0.4346 -0.7879
 2915SOL     OW 8743   3.666   4.618   9.660  0.0292 -0.1054 -0.0819
 2915SOL    HW1 8744   3.576   4.588   9.668 -0.4038  0.3916 -2.3691
 2915SOL    HW2 8745   3.663   4.687   9.594  1.9509  0.5730  0.4585
 2916SOL     OW 8746   0.323   4.582   8.700  0.0278 -0.3840  0.2449
 2916SOL    HW1 8747   0.273   4.663   8.709 -0.7714 -0.7758 -0.5194
 2916SOL    HW2 8748   0.368   4.591   8.616 -0.6195 -1.0053 -0.1860
 2917SOL     OW 8749   4.479   2.437   8.195 -0.3422  0.4178  0.0562
 2917SOL    HW1 8750   4.426   2.487   8.258 -0.7889  0.7714 -0.5830
 2917SOL    HW2 8751   4.426   2.437   8.115 -0.8399 -1.9815  0.3204
 2918SOL     OW 8752   2.528   4.769   9.617 -0.1486  0.4717 -0.1333
 2918SOL    HW1 8753   2.603   4.828   9.614 -0.5038  1.0303  1.0787
 2918SOL    HW2 8754   2.565   4.683   9.633  0.3047  0.5487 -0.7330
 2919SOL     OW 8755   2.621   4.453   8.598  0.3071  0.1148 -0.3602
 2919SOL    HW1 8756   2.625   4.548   8.599  2.3794  0.0784  0.0697
 2919SOL    HW2 8757   2.588   4.431   8.510 -0.0588  1.2054 -0.5052
 2920SOL     OW 8758   3.339   3.039   9.821 -0.2598  0.2784  0.1661
 2920SOL    HW1 8759   3.355   3.132   9.836  1.8276  0.3368 -1.9675
 2920SOL    HW2 8760   3.243   3.031   9.819 -0.4911  2.5832 -0.7056
 2921SOL     OW 8761   2.080   0.294   6.903 -0.2699 -0.2246 -0.1551
 2921SOL    HW1 8762   2.006   0.302   6.964 -1.0155  0.0293 -1.0856
 2921SOL    HW2 8763   2.042   0.303   6.816  0.2733 -3.6161 -0.9082
 2922SOL     OW 8764   0.736   4.671   9.450 -0.4405 -0.6870 -0.2519
 2922SOL    HW1 8765   0.798   4.601   9.469  1.0993  0.5069 -0.6579
 2922SOL    HW2 8766   0.786   4.736   9.400 -1.3859  1.3599  1.2862
 2923SOL     OW 8767   2.697   3.031   6.761  0.4273 -0.2274 -0.3119
 2923SOL    HW1 8768   2.688   3.087   6.684 -0.5754 -1.1327 -0.8888
 2923SOL    HW2 8769   2.639   3.070   6.826 -0.0548 -0.4330 -0.6159
 2924SOL     OW 8770   0.135   3.256   9.674  0.1532 -0.4810 -0.3753
 2924SOL    HW1 8771   0.104   3.306   9.599 -0.8418 -2.4020 -1.3086
 2924SOL    HW2 8772   0.230   3.268   9.673 -0.0659  1.6593 -0.3071
 2925SOL     OW 8773   0.975   0.010  10.020  0.2769 -0.5517 -0.0725
 2925SOL    HW1 8774   0.989   0.076  10.088  0.9937 -1.5265  0.7588
 2925SOL    HW2 8775   1.049   0.021   9.960 -1.3393  1.6004 -1.8681
 2926SOL     OW 8776   3.361   4.884   6.618 -0.2356  0.1944  0.2083
 2926SOL    HW1 8777   3.289   4.895   6.556 -1.8926  1.6282  2.2319
 2926SOL    HW2 8778   3.331   4.816   6.678  1.2334 -0.9975 -0.3430
 2927SOL     OW 8779   1.404   0.205   7.460 -0.2179  0.1227 -0.5792
 2927SOL    HW1 8780   1.407   0.202   7.556 -0.4626  2.8661 -0.4029
 2927SOL    HW2 8781   1.339   0.139   7.436  0.0324 -0.7954  1.1208
 2928SOL     OW 8782   1.911   1.312   7.658 -0.5071 -0.3327 -0.6818
 2928SOL    HW1 8783   1.987   1.265   7.694 -1.8660 -3.0689 -1.0721
 2928SOL    HW2 8784   1.858   1.333   7.735 -0.4193 -0.4524 -0.5870
 2929SOL     OW 8785   3.504   4.740   6.210 -0.1475  0.0869 -0.2879
 2929SOL    HW1 8786   3.558   4.782   6.277 -0.1872  1.2274 -0.9455
 2929SOL    HW2 8787   3.521   4.646   6.221 -0.6488  0.1968  1.7147
 2930SOL     OW 8788   3.365   3.968   6.505  0.5224  0.5268  0.0844
 2930SOL    HW1 8789   3.399   3.975   6.594 -0.1589  1.4837  0.2886
 2930SOL    HW2 8790   3.315   4.049   6.492 -1.2732 -0.6045 -0.3546
 2931SOL     OW 8791   2.786   0.673   8.257 -0.0178  0.9463  0.0507
 2931SOL    HW1 8792   2.693   0.653   8.249  0.1425  0.9238 -2.3963
 2931SOL    HW2 8793   2.800   0.751   8.203  1.9865 -1.2932 -2.9901
 2932SOL     OW 8794   2.557   0.618   9.480 -0.4839 -0.4883  0.0535
 2932SOL    HW1 8795   2.606   0.688   9.437 -1.0041  0.3716  0.8294
 2932SOL    HW2 8796   2.619   0.577   9.539 -0.6476  0.5415  0.9708
 2933SOL     OW 8797   4.176   4.597   9.177 -0.1020 -0.0959  0.4575
 2933SOL    HW1 8798   4.240   4.668   9.177 -0.3886  0.2205 -1.6760
 2933SOL    HW2 8799   4.189   4.553   9.261  0.8299  1.7972  1.3634
 2934SOL     OW 8800   2.100   0.812   8.791 -0.5248  0.9564 -0.5713
 2934SOL    HW1 8801   2.189   0.809   8.757  0.0083  1.4144  0.7364
 2934SOL    HW2 8802   2.104   0.765   8.874 -1.3588  1.5009 -0.2084
 2935SOL     OW 8803   3.970   4.735   7.730 -0.1935  0.4000  0.3262
 2935SOL    HW1 8804   4.033   4.789   7.778  0.0656  0.2805  0.1232
 2935SOL    HW2 8805   3.962   4.655   7.782  1.9388 -0.8007 -1.0178
 2936SOL     OW 8806   3.729   4.856   8.934  0.1962 -0.2137  0.0635
 2936SOL    HW1 8807   3.793   4.888   8.997  0.9902 -2.9153  0.7425
 2936SOL    HW2 8808   3.656   4.824   8.987 -1.0037  1.2415 -0.6336
 2937SOL     OW 8809   1.815   0.716   8.752  0.0194 -0.1145  0.7684
 2937SOL    HW1 8810   1.889   0.776   8.756 -1.1755  1.4656  0.2137
 2937SOL    HW2 8811   1.790   0.714   8.660  0.2316 -1.7627  0.7167
 2938SOL     OW 8812   2.532   4.022   6.111 -0.4181  0.7695  0.6779
 2938SOL    HW1 8813   2.442   4.040   6.138  0.2387  2.7101  1.6851
 2938SOL    HW2 8814   2.585   4.088   6.155  1.5269 -0.3334  0.1131
 2939SOL     OW 8815   0.587   4.665   8.813 -0.1009  0.1763  0.5653
 2939SOL    HW1 8816   0.494   4.651   8.798 -0.3129  0.9340  1.1532
 2939SOL    HW2 8817   0.630   4.616   8.742 -0.9538  0.2005  0.0220
 2940SOL     OW 8818   3.339   3.334   9.148 -0.0301  0.0025 -0.5262
 2940SOL    HW1 8819   3.416   3.326   9.204 -0.5808  1.8307  0.5830
 2940SOL    HW2 8820   3.355   3.415   9.098 -0.4159 -0.5887 -1.6318
 2941SOL     OW 8821   2.077   3.613   7.447  0.2872 -0.3486  0.0887
 2941SOL    HW1 8822   2.076   3.523   7.480 -1.6647 -0.6179 -0.5705
 2941SOL    HW2 8823   1.985   3.639   7.446  0.5248  0.6813 -2.3192
 2942SOL     OW 8824   3.190   4.765   5.712 -0.1126  0.2892 -0.0996
 2942SOL    HW1 8825   3.277   4.750   5.750 -0.3504  0.7798  0.6639
 2942SOL    HW2 8826   3.200   4.847   5.663  0.4422 -0.8045 -1.9387
 2943SOL     OW 8827   3.459   3.544   7.741  0.3907  0.5011 -0.2775
 2943SOL    HW1 8828   3.371   3.516   7.765 -0.6348  2.7333 -1.1954
 2943SOL    HW2 8829   3.507   3.462   7.727 -1.2880 -0.7715  1.0198
 2944SOL     OW 8830   3.250   4.603   7.965 -0.1313 -0.4793 -0.2569
 2944SOL    HW1 8831   3.286   4.691   7.977 -1.9746  0.4168 -0.9906
 2944SOL    HW2 8832   3.257   4.587   7.871 -0.3451 -0.8599 -0.2069
 2945SOL     OW 8833   1.879   3.696   9.163 -0.2827 -0.2715  0.3372
 2945SOL    HW1 8834   1.865   3.772   9.220  0.9394  0.2282  0.0118
 2945SOL    HW2 8835   1.834   3.719   9.081 -0.2276 -0.0576  0.3659
 2946SOL     OW 8836   2.014   3.971   7.305 -0.0162  0.7403 -0.0005
 2946SOL    HW1 8837   1.954   3.963   7.379 -0.8866 -1.0635 -0.8308
 2946SOL    HW2 8838   1.972   4.035   7.246 -0.7606  0.0746 -0.2130
 2947SOL     OW 8839   1.235   3.391   7.871 -0.0961 -0.5610  0.0926
 2947SOL    HW1 8840   1.179   3.344   7.933  0.2596 -1.2803 -0.1141
 2947SOL    HW2 8841   1.310   3.333   7.859 -0.3511 -0.6355 -1.3211
 2948SOL     OW 8842   2.924   4.617   9.179  0.2099  0.3087 -0.4449
 2948SOL    HW1 8843   2.958   4.625   9.090 -0.6243 -0.5444 -0.8540
 2948SOL    HW2 8844   2.893   4.527   9.186  0.8561  0.1561  0.9361
 2949SOL     OW 8845   0.088   4.388   9.073  0.1450  0.2338 -0.2648
 2949SOL    HW1 8846   0.012   4.414   9.020  0.8469 -0.3890 -1.6339
 2949SOL    HW2 8847   0.052   4.367   9.159 -0.9405  2.0506 -0.2173
 2950SOL     OW 8848   1.493   1.300   9.716 -0.2471 -0.2001 -0.6014
 2950SOL    HW1 8849   1.584   1.328   9.718 -0.4663  0.8365  3.0506
 2950SOL    HW2 8850   1.446   1.375   9.680  0.1188  0.2400 -0.1761
 2951SOL     OW 8851   3.070   2.536   8.315 -0.7672 -0.1203  0.2243
 2951SOL    HW1 8852   3.084   2.630   8.324  1.7718 -0.4627  0.6909
 2951SOL    HW2 8853   3.010   2.513   8.386  0.7179  0.7811  1.8486
 2952SOL     OW 8854   4.534   0.482   9.398  0.0750  0.1887  0.4334
 2952SOL    HW1 8855   4.604   0.427   9.362  0.9935  1.1069  0.8070
 2952SOL    HW2 8856   4.541   0.472   9.493  0.2449  0.9396  0.5062
 2953SOL     OW 8857   0.242   4.956   9.929 -0.3786  0.2161  0.3397
 2953SOL    HW1 8858   0.294   4.902   9.871 -1.9380 -2.1195  0.9461
 2953SOL    HW2 8859   0.278   4.940  10.017 -1.5263 -0.7793  0.6593
 2954SOL     OW 8860   2.720   2.596   7.991  0.3371  0.2951  0.2269
 2954SOL    HW1 8861   2.682   2.531   7.932  1.0275 -0.0973  0.2008
 2954SOL    HW2 8862   2.802   2.557   8.020 -0.1330  0.3420  1.7116
 2955SOL     OW 8863   4.861   0.398  10.192 -0.7423 -0.3380  0.1347
 2955SOL    HW1 8864   4.829   0.441  10.113  0.4044  0.1409 -0.0946
 2955SOL    HW2 8865   4.864   0.469  10.257  0.7681 -0.1242 -0.1303
 2956SOL     OW 8866   2.646   2.322   9.190  0.2942 -0.4980 -0.8165
 2956SOL    HW1 8867   2.653   2.384   9.117 -0.7068  1.3755  0.5769
 2956SOL    HW2 8868   2.714   2.349   9.251 -0.2116 -0.7089 -0.1475
 2957SOL     OW 8869   1.440   0.805   9.938  0.6018 -0.0905 -0.0567
 2957SOL    HW1 8870   1.406   0.879   9.888 -1.0224 -0.6194  0.2032
 2957SOL    HW2 8871   1.393   0.809  10.022  0.0832 -1.7031 -0.2420
 2958SOL     OW 8872   3.805   4.737   9.401  0.1631  0.1716 -0.0343
 2958SOL    HW1 8873   3.850   4.673   9.346 -1.8468 -0.6508 -0.8133
 2958SOL    HW2 8874   3.712   4.723   9.384 -0.5329  0.5824  2.8319
 2959SOL     OW 8875   3.192   0.972   9.400 -0.9116  0.8688 -0.0307
 2959SOL    HW1 8876   3.185   1.024   9.320 -2.8090  1.0296  0.1955
 2959SOL    HW2 8877   3.147   1.024   9.467  1.6013  1.2559  1.4522
 2960SOL     OW 8878   1.905   3.197   8.991  0.0395 -0.3978 -0.5012
 2960SOL    HW1 8879   1.974   3.253   9.027 -0.9380  0.6468 -0.1943
 2960SOL    HW2 8880   1.859   3.253   8.929 -1.2957 -0.6829  0.1944
 2961SOL     OW 8881   1.384   1.077   9.828  0.9300 -0.3251  0.3750
 2961SOL    HW1 8882   1.295   1.084   9.863  0.9823  0.9759  0.3187
 2961SOL    HW2 8883   1.399   1.161   9.784  1.9515 -0.7763 -0.1823
 2962SOL     OW 8884   0.293   2.872   8.082  0.1792  0.3459  0.4558
 2962SOL    HW1 8885   0.296   2.817   8.160 -0.1934  0.2684  0.4186
 2962SOL    HW2 8886   0.370   2.929   8.090 -1.6153  2.7189  2.6470
 2963SOL     OW 8887   3.785   4.685   6.959  0.0116 -0.1408  0.6235
 2963SOL    HW1 8888   3.834   4.700   6.878 -0.6767  2.0583  0.5402
 2963SOL    HW2 8889   3.846   4.710   7.029 -0.1156  0.0367  0.6703
 2964SOL     OW 8890   2.019   2.256   9.661  0.6624  0.0360 -0.2086
 2964SOL    HW1 8891   2.088   2.287   9.720  0.1283  0.8766 -0.0119
 2964SOL    HW2 8892   2.063   2.192   9.604  1.4567  0.1067  0.3081
 2965SOL     OW 8893   1.522   3.459   9.221 -0.7436 -0.0762  0.4250
 2965SOL    HW1 8894   1.607   3.497   9.246 -0.9787  0.2163  0.7934
 2965SOL    HW2 8895   1.524   3.456   9.126 -0.6760  0.7677  0.3945
 2966SOL     OW 8896   2.549   1.231   9.015 -0.2187  0.1130  0.1457
 2966SOL    HW1 8897   2.608   1.228   9.090  0.5130 -0.8951 -0.4387
 2966SOL    HW2 8898   2.581   1.163   8.956 -1.4003  0.1812 -0.6256
 2967SOL     OW 8899   1.307   2.642   9.594  0.2648 -0.1960  0.0688
 2967SOL    HW1 8900   1.294   2.691   9.675 -0.5779 -0.6517  0.2248
 2967SOL    HW2 8901   1.337   2.556   9.623  0.7175 -0.1157 -0.1505
 2968SOL     OW 8902   4.488   4.807   9.467 -0.5836 -0.5804  0.2033
 2968SOL    HW1 8903   4.577   4.812   9.433 -0.8502 -1.0590 -0.6040
 2968SOL    HW2 8904   4.484   4.873   9.536  0.4928 -0.7941  0.4860
 2969SOL     OW 8905   2.035   4.679   8.879 -0.1604 -0.1407  0.0130
 2969SOL    HW1 8906   2.011   4.770   8.894 -3.9733 -1.3488  2.7530
 2969SOL    HW2 8907   1.976   4.649   8.810  0.6356 -0.7084 -0.4423
 2970SOL     OW 8908   4.417   0.739   9.313  0.3539  0.0650 -0.0392
 2970SOL    HW1 8909   4.470   0.662   9.334  1.6283  1.1468  0.8430
 2970SOL    HW2 8910   4.481   0.809   9.295 -0.7626  1.2927  0.6058
 2971SOL     OW 8911   1.757   3.980   5.774 -0.1007 -0.2934 -0.3379
 2971SOL    HW1 8912   1.798   4.065   5.789  1.2374 -0.9786  0.0384
 2971SOL    HW2 8913   1.701   3.966   5.850  0.6894 -0.3187  0.2533
 2972SOL     OW 8914   3.179   4.198   9.430 -0.3104  0.5636 -0.4040
 2972SOL    HW1 8915   3.143   4.119   9.390 -0.1237 -0.6723  1.7308
 2972SOL    HW2 8916   3.226   4.167   9.507 -1.2773  2.8627  1.2322
 2973SOL     OW 8917   2.822   4.884   8.223  0.4638  1.2120 -0.5166
 2973SOL    HW1 8918   2.773   4.922   8.150 -0.0461  1.0411 -0.2602
 2973SOL    HW2 8919   2.761   4.825   8.266  1.1408  0.3636 -0.6863
 2974SOL     OW 8920   2.216   0.687   9.770 -0.7895 -0.3161  0.2169
 2974SOL    HW1 8921   2.198   0.775   9.736 -1.9388 -0.7554 -0.4032
 2974SOL    HW2 8922   2.288   0.699   9.831 -0.4522  0.9469 -0.3809
 2975SOL     OW 8923   3.586   3.308   9.337 -0.7973  0.0899 -0.6928
 2975SOL    HW1 8924   3.679   3.326   9.349 -0.6569  0.1934 -1.8323
 2975SOL    HW2 8925   3.559   3.265   9.418 -0.1383  1.5194  0.3184
 2976SOL     OW 8926   2.167   0.626   8.993  0.0941 -0.3952  0.0513
 2976SOL    HW1 8927   2.097   0.561   8.997  0.7472 -1.0693  1.0823
 2976SOL    HW2 8928   2.161   0.672   9.077 -0.1884  0.7018 -0.5597
 2977SOL     OW 8929   1.533   2.711   9.262 -0.4381  0.5832 -0.2862
 2977SOL    HW1 8930   1.570   2.625   9.280 -0.4139  0.9729  1.8039
 2977SOL    HW2 8931   1.609   2.769   9.257 -0.5096  0.6421 -0.7314
 2978SOL     OW 8932   3.278   3.997   8.133 -0.0891 -0.1465 -0.0355
 2978SOL    HW1 8933   3.196   4.046   8.141  0.2316  0.7717 -1.8017
 2978SOL    HW2 8934   3.314   4.024   8.049  2.6143  0.3617  1.1707
 2979SOL     OW 8935   3.793   2.118   7.729 -0.3006 -0.2649 -0.0666
 2979SOL    HW1 8936   3.713   2.066   7.719  0.1443 -1.7417  2.9589
 2979SOL    HW2 8937   3.762   2.207   7.746 -1.3782 -0.8760  1.3521
 2980SOL     OW 8938   2.830   4.315   9.402  0.0969 -0.6821 -0.2904
 2980SOL    HW1 8939   2.899   4.331   9.337 -0.8319 -0.9468 -1.3897
 2980SOL    HW2 8940   2.754   4.365   9.369 -1.1981 -2.8818 -0.8657
 2981SOL     OW 8941   0.894   0.541   8.622 -0.7876 -0.0680 -0.0087
 2981SOL    HW1 8942   0.852   0.476   8.566  2.5014 -0.5802 -2.1651
 2981SOL    HW2 8943   0.894   0.621   8.570 -0.6882  0.3800  0.6730
 2982SOL     OW 8944   1.432   4.121   9.289 -0.9875 -0.7888  0.2373
 2982SOL    HW1 8945   1.474   4.183   9.349  0.4272 -1.7187  0.2381
 2982SOL    HW2 8946   1.368   4.076   9.342 -2.2078  0.7935  0.1894
 2983SOL     OW 8947   3.649   0.798   8.986 -0.1028  0.5251  0.0047
 2983SOL    HW1 8948   3.710   0.856   8.940 -2.0544  1.9710 -0.8978
 2983SOL    HW2 8949   3.638   0.837   9.072 -1.6142  1.7427 -0.6892
 2984SOL     OW 8950   4.071   2.919   7.432  0.4336 -0.0070  0.4253
 2984SOL    HW1 8951   3.976   2.924   7.423  0.4566  0.1676  0.2829
 2984SOL    HW2 8952   4.097   3.006   7.461  0.5738  0.0156  0.2375
 2985SOL     OW 8953   1.377   0.135   8.997  0.6979 -0.1811 -0.1151
 2985SOL    HW1 8954   1.298   0.081   9.001  0.9909 -0.5700  0.9362
 2985SOL    HW2 8955   1.367   0.198   9.068  0.5698  0.8921 -1.0498
 2986SOL     OW 8956   3.940   1.171  10.109  0.0604 -0.4050  0.0973
 2986SOL    HW1 8957   4.032   1.179  10.131 -0.4495  0.4316  2.1567
 2986SOL    HW2 8958   3.893   1.205  10.186 -1.9573 -0.1136 -1.1756
 2987SOL     OW 8959   1.150   3.587   8.924 -0.2686 -0.0189 -0.3948
 2987SOL    HW1 8960   1.210   3.653   8.960  0.6231 -0.2865 -1.3369
 2987SOL    HW2 8961   1.085   3.638   8.877  0.0269  0.2264 -0.5446
 2988SOL     OW 8962   3.801   2.313   9.551  0.3659 -0.2326  0.1195
 2988SOL    HW1 8963   3.883   2.331   9.598  0.3215 -0.2811  0.2153
 2988SOL    HW2 8964   3.732   2.338   9.612  0.2891  1.8831 -0.7604
 2989SOL     OW 8965   2.867   1.601   8.901 -0.6331 -0.1201 -0.1918
 2989SOL    HW1 8966   2.954   1.585   8.863 -0.5464  1.4536 -0.7131
 2989SOL    HW2 8967   2.867   1.549   8.981  1.2613  0.7698  0.4456
 2990SOL     OW 8968   2.214   0.312  10.119 -0.6338 -0.0405  0.3034
 2990SOL    HW1 8969   2.141   0.278  10.067 -0.2505  0.5630 -0.6529
 2990SOL    HW2 8970   2.172   0.365  10.187 -1.1152 -0.4219  0.3125
 2991SOL     OW 8971   1.548   4.527   9.207  0.0418 -0.1007 -0.2695
 2991SOL    HW1 8972   1.532   4.601   9.265  1.4677  2.2198 -2.5997
 2991SOL    HW2 8973   1.484   4.537   9.136  0.6710 -0.7142 -0.9548
 2992SOL     OW 8974   1.952   4.615   9.291  0.2442  0.6213 -0.2743
 2992SOL    HW1 8975   2.047   4.631   9.293  0.7081 -1.6715  2.6833
 2992SOL    HW2 8976   1.920   4.658   9.370 -0.9303  0.0210 -0.4131
 2993SOL     OW 8977   3.474   3.693   9.453 -0.0130  0.5000 -0.0337
 2993SOL    HW1 8978   3.538   3.624   9.438 -0.1888 -0.4226  2.8454
 2993SOL    HW2 8979   3.478   3.709   9.547 -0.2446  4.2147 -0.5104
 2994SOL     OW 8980   4.697   0.580   7.186 -0.3064 -0.3819 -0.0697
 2994SOL    HW1 8981   4.620   0.636   7.190  0.7628  1.1483  0.1717
 2994SOL    HW2 8982   4.763   0.627   7.238  0.7072 -1.7610 -0.0626
 2995SOL     OW 8983   4.609   1.607   9.596 -0.0728 -0.2116  0.4098
 2995SOL    HW1 8984   4.692   1.581   9.635 -0.6306 -0.4823  1.4545
 2995SOL    HW2 8985   4.551   1.533   9.611 -0.7701  0.3485  0.5535
 2996SOL     OW 8986   0.043   4.588   9.342 -0.0410 -0.2485 -0.1916
 2996SOL    HW1 8987   0.095   4.559   9.417  0.8000  1.6823  0.0254
 2996SOL    HW2 8988   0.103   4.583   9.268 -0.4550 -0.8151 -0.4989
 2997SOL     OW 8989   4.491   2.358   9.433 -0.4153  0.1852 -0.3867
 2997SOL    HW1 8990   4.443   2.438   9.454  1.4239  0.9407  1.2743
 2997SOL    HW2 8991   4.519   2.324   9.518  1.8319 -0.2632 -1.2282
 2998SOL     OW 8992   0.125   3.232   8.328 -0.2405 -0.0601  0.1885
 2998SOL    HW1 8993   0.190   3.181   8.376 -0.2771  0.9604  1.3628
 2998SOL    HW2 8994   0.174   3.276   8.258 -0.1891 -1.5640 -0.7771
 2999SOL     OW 8995   2.663   4.556   9.686  0.1086 -0.2789 -0.7899
 2999SOL    HW1 8996   2.616   4.474   9.669 -0.6828 -0.1729  0.7640
 2999SOL    HW2 8997   2.752   4.528   9.708  1.0957 -0.4543 -4.3143
 3000SOL     OW 8998   0.476   2.307   9.710 -0.3013  0.3807  0.1004
 3000SOL    HW1 8999   0.439   2.355   9.785  0.0416 -0.7131  1.0048
 3000SOL    HW2 9000   0.569   2.326   9.713  0.0104 -1.0933  1.0973
 3001SOL     OW 9001   2.949   0.377   7.586 -0.2228 -0.0596  0.1830
 3001SOL    HW1 9002   2.898   0.443   7.632 -1.1102 -0.4677 -0.1969
 3001SOL    HW2 9003   2.959   0.305   7.649  0.5375  0.3158  0.5122
 3002SOL     OW 9004   0.619   4.881   9.248  0.0771  0.4308  0.6673
 3002SOL    HW1 9005   0.584   4.948   9.306  1.9897  0.3880  1.9707
 3002SOL    HW2 9006   0.587   4.799   9.285 -0.8511  0.5189  0.0865
 3003SOL     OW 9007   4.856   3.303   7.831  0.1605  0.4851 -0.4442
 3003SOL    HW1 9008   4.874   3.265   7.917 -1.8902  1.2366  0.3864
 3003SOL    HW2 9009   4.786   3.366   7.848  2.0113  3.1433 -2.1164
 3004SOL     OW 9010   1.920   3.857   9.566 -0.4054 -0.2489 -0.3797
 3004SOL    HW1 9011   1.958   3.944   9.576 -1.2254  0.2235 -1.2821
 3004SOL    HW2 9012   1.828   3.873   9.548 -1.1461 -1.3795  2.0129
 3005SOL     OW 9013   0.849   2.634   9.696 -0.6696 -0.4318  0.1353
 3005SOL    HW1 9014   0.925   2.600   9.744  0.9660 -0.2846 -2.1809
 3005SOL    HW2 9015   0.850   2.586   9.613 -2.7095  0.1100 -0.2468
 3006SOL     OW 9016   0.926   3.751   8.788 -0.8131  0.4607  0.5214
 3006SOL    HW1 9017   0.869   3.694   8.736 -1.1033  1.9637 -0.8836
 3006SOL    HW2 9018   0.866   3.816   8.826 -0.8002 -1.2085  3.7863
 3007SOL     OW 9019   2.366   0.073   9.367 -0.2614  0.0276 -1.1426
 3007SOL    HW1 9020   2.427   0.107   9.432 -0.2952  0.1468 -1.1709
 3007SOL    HW2 9021   2.362   0.142   9.300 -1.0430  0.3889 -0.7400
 3008SOL     OW 9022   0.710   3.579   9.551  0.1549 -0.3194 -0.1967
 3008SOL    HW1 9023   0.641   3.575   9.617 -0.3687 -1.0213 -0.7693
 3008SOL    HW2 9024   0.771   3.510   9.577  0.0570 -0.4556 -0.3300
 3009SOL     OW 9025   0.787   0.795   8.510 -0.0874 -0.7025 -0.6748
 3009SOL    HW1 9026   0.875   0.799   8.474  0.6281 -0.9053  0.9717
 3009SOL    HW2 9027   0.730   0.781   8.434  1.2669 -0.3325 -1.7817
 3010SOL     OW 9028   2.016   4.936   8.852  0.8263  0.3076  0.3824
 3010SOL    HW1 9029   1.952   5.004   8.829  0.2920  0.0502  1.0851
 3010SOL    HW2 9030   2.068   4.976   8.922  1.5980  0.6074 -0.3601
 3011SOL     OW 9031   2.112   4.907  10.164 -0.0854  0.2500 -0.2276
 3011SOL    HW1 9032   2.191   4.954  10.192 -0.9394  0.9875  1.0125
 3011SOL    HW2 9033   2.137   4.869  10.079  2.0598 -0.6903  0.7352
 3012SOL     OW 9034   1.180   4.031   7.814  0.4955 -0.5049 -0.1698
 3012SOL    HW1 9035   1.216   4.104   7.864  0.5460 -0.2861 -0.5203
 3012SOL    HW2 9036   1.229   3.954   7.844 -0.5812 -0.6594  1.2983
 3013SOL     OW 9037   4.611   4.367   9.484 -0.6349 -0.0717  0.8320
 3013SOL    HW1 9038   4.528   4.410   9.504 -1.6039 -1.2947 -0.3429
 3013SOL    HW2 9039   4.595   4.274   9.503 -0.1589 -0.5830 -1.0622
 3014SOL     OW 9040   1.412   3.431   8.923 -0.2213  0.4773  0.5255
 3014SOL    HW1 9041   1.432   3.340   8.906 -1.9626  0.4098 -1.5158
 3014SOL    HW2 9042   1.319   3.440   8.901 -0.2166  2.6381  1.1448
 3015SOL     OW 9043   0.442   0.500   9.735  0.0676  0.3543  0.5596
 3015SOL    HW1 9044   0.424   0.587   9.699 -0.4181 -0.0968 -0.3122
 3015SOL    HW2 9045   0.362   0.476   9.782 -0.3613 -0.2182 -0.4310
 3016SOL     OW 9046   2.288   4.885   9.600  0.4093 -0.2329  0.7935
 3016SOL    HW1 9047   2.372   4.840   9.604  2.0524  2.5157 -0.2703
 3016SOL    HW2 9048   2.290   4.945   9.675 -0.5655 -0.0774  0.7050
 3017SOL     OW 9049   2.847   0.372   7.260  0.2742  0.0160 -0.4409
 3017SOL    HW1 9050   2.889   0.293   7.227 -0.3606 -0.4181 -0.2525
 3017SOL    HW2 9051   2.806   0.344   7.343 -1.1474  0.1609 -1.0548
 3018SOL     OW 9052   1.641   0.675   9.828  0.5632 -0.3609 -0.2280
 3018SOL    HW1 9053   1.568   0.716   9.874  0.4054 -2.7964  1.8972
 3018SOL    HW2 9054   1.718   0.726   9.854 -0.0998  1.1400 -1.0854
 3019SOL     OW 9055   3.755   4.891   9.754  0.7451 -0.0316 -0.1234
 3019SOL    HW1 9056   3.843   4.872   9.721  0.4766 -0.4979 -0.5886
 3019SOL    HW2 9057   3.725   4.809   9.792  0.6718  0.2439  0.4283
 3020SOL     OW 9058   4.930   2.225   9.280  0.2768  0.0404  0.0436
 3020SOL    HW1 9059   4.875   2.147   9.290 -1.2126  0.8820 -1.2735
 3020SOL    HW2 9060   4.869   2.295   9.257  2.0795  0.5080 -4.1000
 3021SOL     OW 9061   3.027   4.805   9.732 -0.4836 -0.0226 -0.0264
 3021SOL    HW1 9062   3.094   4.776   9.795 -0.8578 -1.0991 -0.0929
 3021SOL    HW2 9063   3.075   4.857   9.668 -0.0391  0.8236  0.9606
 3022SOL     OW 9064   1.619   3.141   9.769  0.9227  0.4258 -0.3483
 3022SOL    HW1 9065   1.567   3.203   9.719  1.4634  0.9693 -0.2448
 3022SOL    HW2 9066   1.703   3.185   9.783  0.7671  0.3048  1.0788
 3023SOL     OW 9067   3.952   2.454   8.112  0.0182  0.2698 -0.3393
 3023SOL    HW1 9068   3.969   2.405   8.193 -1.4418  1.0389  0.4825
 3023SOL    HW2 9069   3.865   2.423   8.085  0.4636  0.0721 -1.6012
 3024SOL     OW 9070   2.123   1.468   9.885  0.0369 -0.4809 -0.1079
 3024SOL    HW1 9071   2.184   1.539   9.905 -0.1556  0.2549 -1.8853
 3024SOL    HW2 9072   2.180   1.394   9.862  0.2880  0.0532 -1.2729
 3025SOL     OW 9073   1.777   3.284   8.063 -0.5495  0.2021 -0.1443
 3025SOL    HW1 9074   1.818   3.271   7.977  0.3771  1.8417  0.0079
 3025SOL    HW2 9075   1.835   3.239   8.124 -0.7358 -0.2262 -0.2806
 3026SOL     OW 9076   4.454   4.849   9.863  0.2568  0.4095  0.0758
 3026SOL    HW1 9077   4.363   4.860   9.835  1.1792  1.4556 -2.8829
 3026SOL    HW2 9078   4.462   4.755   9.881 -2.1320  0.7005  3.6942
 3027SOL     OW 9079   0.641   4.404   8.042  0.0027 -0.0538  0.2205
 3027SOL    HW1 9080   0.583   4.405   8.118  0.3152 -0.0104  0.4598
 3027SOL    HW2 9081   0.587   4.369   7.971  0.1656 -1.6257  0.8391
 3028SOL     OW 9082   1.281   4.318   8.500  0.1538  0.9003 -0.4190
 3028SOL    HW1 9083   1.324   4.397   8.535  0.2837  1.2396 -1.3117
 3028SOL    HW2 9084   1.276   4.334   8.405  0.3175 -0.2366 -0.6266
 3029SOL     OW 9085   0.362   0.764   9.672  0.1044  0.2260 -0.8823
 3029SOL    HW1 9086   0.415   0.840   9.647 -1.4417  2.1152  1.1950
 3029SOL    HW2 9087   0.278   0.778   9.628 -0.7417  0.6444  0.7955
 3030SOL     OW 9088   1.828   4.281   8.861 -0.0120 -0.4074  0.2691
 3030SOL    HW1 9089   1.898   4.272   8.925  0.2852  1.1258  0.2028
 3030SOL    HW2 9090   1.748   4.267   8.911  0.2769 -0.7278  0.6517
 3031SOL     OW 9091   2.973   0.602   9.263 -0.1283  0.1528  0.3376
 3031SOL    HW1 9092   2.947   0.520   9.221 -0.0605 -0.7346  1.9289
 3031SOL    HW2 9093   3.034   0.642   9.202 -0.7501 -0.6008 -0.8211
 3032SOL     OW 9094   1.827   4.866   9.432 -0.0281  0.0106 -0.0207
 3032SOL    HW1 9095   1.917   4.899   9.432 -0.7355  2.0785  1.0821
 3032SOL    HW2 9096   1.801   4.868   9.340  0.7256  0.2851 -0.2408
 3033SOL     OW 9097   2.140   4.814   8.612 -0.5382 -0.3617 -0.2659
 3033SOL    HW1 9098   2.105   4.838   8.698 -1.6527 -1.2670 -0.4440
 3033SOL    HW2 9099   2.229   4.784   8.630 -0.4844  0.2156  0.4602
 3034SOL     OW 9100   2.333   3.859   8.839  0.4237 -0.5031 -0.2554
 3034SOL    HW1 9101   2.310   3.881   8.930 -0.4664 -3.3690  0.3060
 3034SOL    HW2 9102   2.373   3.939   8.805 -1.3375  1.4643  1.9099
 3035SOL     OW 9103   3.405   2.231   9.572  0.7275  0.0027  0.0691
 3035SOL    HW1 9104   3.320   2.265   9.544  0.3492 -0.1198  1.0560
 3035SOL    HW2 9105   3.385   2.168   9.640  1.5661 -0.6299 -0.2485
 3036SOL     OW 9106   0.797   5.013   8.326 -0.1851 -0.3034  0.0592
 3036SOL    HW1 9107   0.858   5.033   8.397 -0.2624 -0.9686  0.3173
 3036SOL    HW2 9108   0.834   4.936   8.283 -0.0283  0.2108 -0.7640
 3037SOL     OW 9109   0.621   4.024   7.996  0.2507  0.0197 -0.2257
 3037SOL    HW1 9110   0.669   4.018   7.914  2.1465 -0.4389  0.8743
 3037SOL    HW2 9111   0.577   4.109   7.991  2.2295  1.0799 -0.7426
 3038SOL     OW 9112   3.968   2.193   8.643  0.0368  0.5242 -0.4721
 3038SOL    HW1 9113   3.968   2.150   8.729 -2.1629  0.0948 -0.6233
 3038SOL    HW2 9114   3.938   2.282   8.661 -0.0176  0.5641 -0.7556
 3039SOL     OW 9115   4.435   3.988   8.658 -0.2662  0.3654 -0.3599
 3039SOL    HW1 9116   4.524   3.968   8.685  0.2130  1.8320 -0.7490
 3039SOL    HW2 9117   4.387   4.001   8.740 -0.1499 -0.5008 -0.1494
 3040SOL     OW 9118   2.342   0.084   9.825 -0.3885  0.5716 -0.0778
 3040SOL    HW1 9119   2.261   0.133   9.840 -0.0291  0.9534  0.7284
 3040SOL    HW2 9120   2.398   0.146   9.777 -0.3872  0.4938 -0.1764
 3041SOL     OW 9121   0.898   1.185  10.096 -0.2052  0.5785 -0.3605
 3041SOL    HW1 9122   0.886   1.159  10.188 -0.1917 -0.3479 -0.6143
 3041SOL    HW2 9123   0.899   1.281  10.099  2.2233  0.6176  0.9584
 3042SOL     OW 9124   3.338   2.041   9.754  0.9814 -0.5526 -0.0452
 3042SOL    HW1 9125   3.352   2.108   9.820 -1.0149  0.1715 -0.3077
 3042SOL    HW2 9126   3.356   1.958   9.799 -2.2220 -0.2429  2.0836
 3043SOL     OW 9127   4.267   2.656   8.626  0.2412  0.3377 -0.3301
 3043SOL    HW1 9128   4.195   2.696   8.578 -0.7522 -0.3318  0.5662
 3043SOL    HW2 9129   4.326   2.729   8.647 -0.4600  0.9841 -0.5785
 3044SOL     OW 9130   2.120   1.564   9.313 -0.5339 -0.1610  0.1820
 3044SOL    HW1 9131   2.077   1.514   9.243 -0.4614  0.3911 -0.2687
 3044SOL    HW2 9132   2.075   1.649   9.312 -0.8931 -0.3327  1.1720
 3045SOL     OW 9133   2.118   3.945   7.049  0.1597  0.3624  0.1843
 3045SOL    HW1 9134   2.107   3.907   7.136 -1.6045  1.0856  0.3152
 3045SOL    HW2 9135   2.180   3.887   7.005  0.1905 -0.6676  1.5263
 3046SOL     OW 9136   0.772   4.983   9.737  0.6461 -0.0557  0.4223
 3046SOL    HW1 9137   0.808   4.895   9.730 -0.4225 -0.4878  0.1947
 3046SOL    HW2 9138   0.752   4.994   9.831  1.4041  0.2098  0.5594
 3047SOL     OW 9139   2.758   0.171   6.080 -0.0649 -0.4611 -0.1429
 3047SOL    HW1 9140   2.767   0.128   5.995  2.2061  0.2763 -0.3278
 3047SOL    HW2 9141   2.837   0.224   6.090 -0.1000 -0.7484  2.5730
 3048SOL     OW 9142   0.231   3.246   5.784  0.5005 -0.3690  1.1115
 3048SOL    HW1 9143   0.251   3.160   5.822 -0.4665 -2.3655 -2.3895
 3048SOL    HW2 9144   0.307   3.300   5.805  2.0712 -2.6962  1.8297
 3049SOL     OW 9145   3.606   3.873   6.362  0.2613  0.0539  0.1162
 3049SOL    HW1 9146   3.613   3.814   6.438  1.5409  0.7895  0.6065
 3049SOL    HW2 9147   3.542   3.938   6.387  0.8010  0.3884  0.6471
 3050SOL     OW 9148   5.009   1.781   5.975 -0.0363 -0.0399  0.2036
 3050SOL    HW1 9149   5.019   1.727   6.053  1.9087  0.6745  0.5063
 3050SOL    HW2 9150   4.929   1.832   5.991 -1.2883 -1.9641  0.3934
 3051SOL     OW 9151   4.656   2.988   8.665 -0.1600 -0.3714 -0.4019
 3051SOL    HW1 9152   4.751   3.000   8.672  0.2240 -3.2080  0.4415
 3051SOL    HW2 9153   4.645   2.924   8.595 -1.2484 -1.7959  1.0054
 3052SOL     OW 9154   1.128   1.615   6.555 -0.1561  0.0718  0.5968
 3052SOL    HW1 9155   1.125   1.661   6.639  0.7127  0.9659  0.1596
 3052SOL    HW2 9156   1.038   1.620   6.522 -0.6713 -0.8744  1.7480
 3053SOL     OW 9157   0.260   4.479   6.802  0.0562 -0.5489  0.3748
 3053SOL    HW1 9158   0.345   4.515   6.827 -0.1984  1.9542 -1.9035
 3053SOL    HW2 9159   0.278   4.425   6.725 -0.3150 -0.8309  0.4820
 3054SOL     OW 9160   3.855   0.299   4.948  0.2047  0.4547 -0.0164
 3054SOL    HW1 9161   3.870   0.385   4.909 -0.1526  0.6965  0.3700
 3054SOL    HW2 9162   3.836   0.242   4.874 -1.2190  1.0697 -0.1599
 3055SOL     OW 9163   3.001   1.350   5.866  0.0773  0.5117  0.1226
 3055SOL    HW1 9164   2.938   1.298   5.816 -1.7503  0.6670  2.1652
 3055SOL    HW2 9165   3.039   1.410   5.801  0.7639 -1.9144 -1.8754
 3056SOL     OW 9166   3.398   1.429   8.633 -0.0969  0.3027 -0.4127
 3056SOL    HW1 9167   3.399   1.415   8.538 -0.8467  1.0583 -0.5387
 3056SOL    HW2 9168   3.359   1.516   8.645  0.6259  0.5102  0.5552
 3057SOL     OW 9169   0.762   1.186   6.961 -0.1764  0.1459 -0.8295
 3057SOL    HW1 9170   0.698   1.140   6.906 -0.1026 -1.4770  0.3997
 3057SOL    HW2 9171   0.846   1.146   6.939  0.1660  0.9402 -1.0253
 3058SOL     OW 9172   0.419   2.822   6.884  0.5248  0.2887 -0.7029
 3058SOL    HW1 9173   0.503   2.842   6.926  0.3780 -0.4506 -0.0300
 3058SOL    HW2 9174   0.425   2.730   6.861 -0.1147  0.2246 -0.6211
 3059SOL     OW 9175   1.543   0.004   6.598  0.1488 -0.0147  0.0709
 3059SOL    HW1 9176   1.453   0.022   6.572 -0.2630  0.6727  1.7932
 3059SOL    HW2 9177   1.585   0.090   6.597  1.6211 -0.6414 -3.3775
 3060SOL     OW 9178   1.593   2.576   6.088  0.4708  0.5408  0.4612
 3060SOL    HW1 9179   1.658   2.645   6.101 -0.5736  1.9352 -1.1801
 3060SOL    HW2 9180   1.567   2.585   5.997 -2.0213  0.0732  1.0510
 3061SOL     OW 9181   4.556   2.628   7.834  0.3310 -0.7836 -0.0123
 3061SOL    HW1 9182   4.515   2.545   7.811  1.3503 -1.4960  0.6260
 3061SOL    HW2 9183   4.649   2.607   7.840  0.5376  0.2845  0.6771
 3062SOL     OW 9184   0.908   2.871   7.068  0.1142 -0.5980 -0.4577
 3062SOL    HW1 9185   0.889   2.957   7.031 -1.5621 -0.4235  0.6633
 3062SOL    HW2 9186   0.998   2.878   7.100 -0.8119  1.7329  2.0379
 3063SOL     OW 9187   3.843   0.945   6.634  0.6007 -0.2781 -0.0744
 3063SOL    HW1 9188   3.765   0.995   6.611  0.7801  0.1605  0.2463
 3063SOL    HW2 9189   3.890   0.932   6.552  0.1903 -0.5500 -0.2696
 3064SOL     OW 9190   4.419   2.697   5.977  0.0605  0.0339  0.0068
 3064SOL    HW1 9191   4.375   2.615   6.000 -1.2398  1.1279  1.7104
 3064SOL    HW2 9192   4.357   2.766   6.002  0.6179  1.5584 -2.4197
 3065SOL     OW 9193   3.964   1.122   7.137 -0.3074  0.6827  0.2137
 3065SOL    HW1 9194   3.992   1.184   7.069  0.9846  1.4465  1.4014
 3065SOL    HW2 9195   3.875   1.097   7.110  0.8179 -0.5327 -2.7902
 3066SOL     OW 9196   2.222   0.909   5.841 -0.1929  0.2577  0.5873
 3066SOL    HW1 9197   2.138   0.905   5.886 -0.3008  0.5849  0.4179
 3066SOL    HW2 9198   2.287   0.896   5.910 -0.3376  1.2176  0.9178
 3067SOL     OW 9199   1.969   4.364   5.188  0.4060  0.0235  0.3985
 3067SOL    HW1 9200   1.893   4.307   5.172  1.3265 -1.1654  0.1307
 3067SOL    HW2 9201   1.936   4.432   5.246 -1.0576 -0.0491 -0.3088
 3068SOL     OW 9202   1.622  -0.010   4.928  0.0453 -0.4428 -0.0008
 3068SOL    HW1 9203   1.550  -0.023   4.991  1.8445  1.2259  2.6151
 3068SOL    HW2 9204   1.589   0.057   4.868 -0.7153  0.0750  0.9537
 3069SOL     OW 9205   4.873   1.119   5.422 -0.6679 -0.4068  0.1443
 3069SOL    HW1 9206   4.790   1.081   5.392 -0.2770 -2.1469  1.0731
 3069SOL    HW2 9207   4.938   1.051   5.404  0.5380  0.8375 -0.3630
 3070SOL     OW 9208   2.454   0.270   5.944 -0.4986 -0.5386  0.0526
 3070SOL    HW1 9209   2.390   0.325   5.898 -1.1787 -0.2780  1.2577
 3070SOL    HW2 9210   2.464   0.193   5.888 -0.8525  0.0249 -0.8120
 3071SOL     OW 9211   3.995   0.180   6.199 -0.0637  0.4626  0.1092
 3071SOL    HW1 9212   4.049   0.253   6.230 -0.7480  1.3191 -0.6464
 3071SOL    HW2 9213   3.905   0.210   6.213 -0.3530 -0.4219  0.1775
 3072SOL     OW 9214   1.891   4.898   5.327 -0.3961 -0.2905  0.3208
 3072SOL    HW1 9215   1.890   4.907   5.232  0.5224 -1.0158  0.2233
 3072SOL    HW2 9216   1.916   4.985   5.359 -1.2634  0.1161 -0.0507
 3073SOL     OW 9217   4.166   4.259   6.126  0.0060 -0.0814 -0.1689
 3073SOL    HW1 9218   4.247   4.293   6.086  0.3332  1.6349  1.8165
 3073SOL    HW2 9219   4.192   4.174   6.162  0.7199  0.1039 -0.2246
 3074SOL     OW 9220   1.279   4.493   6.810 -0.0601 -0.0388 -0.5382
 3074SOL    HW1 9221   1.222   4.545   6.753 -2.1600 -0.3342  1.1774
 3074SOL    HW2 9222   1.351   4.466   6.753 -0.9040  1.4925 -2.4621
 3075SOL     OW 9223   4.335   1.641   5.942  0.3343  0.2539  0.8912
 3075SOL    HW1 9224   4.321   1.717   5.998 -1.7603 -0.1169  0.9869
 3075SOL    HW2 9225   4.280   1.658   5.865  1.8707 -0.0002 -0.3090
 3076SOL     OW 9226   4.100   2.648   5.525  0.5141  0.0229  0.2616
 3076SOL    HW1 9227   4.157   2.576   5.552 -0.2614 -1.0556 -0.8901
 3076SOL    HW2 9228   4.140   2.682   5.445 -1.2961 -1.9052 -1.5945
 3077SOL     OW 9229   2.268   1.870   6.450  0.0676  0.2995 -0.4699
 3077SOL    HW1 9230   2.225   1.798   6.405  0.9049 -0.2128 -0.4694
 3077SOL    HW2 9231   2.287   1.837   6.538  0.5468  0.4716 -0.5008
 3078SOL     OW 9232   4.943   4.336   5.697  0.3642  0.1977  0.3560
 3078SOL    HW1 9233   5.036   4.351   5.714  0.3361  1.1746 -0.2893
 3078SOL    HW2 9234   4.898   4.403   5.748 -0.1065 -1.2524  1.9507
 3079SOL     OW 9235   1.570   1.656   4.976 -0.1935  0.0080  0.2256
 3079SOL    HW1 9236   1.625   1.609   5.039 -0.9208  0.7684  1.4477
 3079SOL    HW2 9237   1.607   1.744   4.972 -1.6438  0.7109  1.5160
 3080SOL     OW 9238   3.490   0.960   5.644 -0.6551  0.1876 -0.3366
 3080SOL    HW1 9239   3.522   0.889   5.588  1.4332  0.5363  0.3080
 3080SOL    HW2 9240   3.570   0.999   5.681 -1.8758  0.4632  2.2776
 3081SOL     OW 9241   3.408   1.527   6.548 -0.1763  0.2941  0.7557
 3081SOL    HW1 9242   3.410   1.439   6.509 -1.7434 -0.1252  1.5305
 3081SOL    HW2 9243   3.436   1.514   6.638 -0.3116  0.6096  0.8439
 3082SOL     OW 9244   3.096   0.409   6.535  0.0720 -0.1662  0.0784
 3082SOL    HW1 9245   3.065   0.498   6.520 -0.0550  0.2154  2.2305
 3082SOL    HW2 9246   3.079   0.363   6.453  1.7985  2.2139 -1.7532
 3083SOL     OW 9247   4.364   3.255   5.002 -0.2569 -0.0624  0.4345
 3083SOL    HW1 9248   4.371   3.316   4.928 -0.0550  0.3629  0.7976
 3083SOL    HW2 9249   4.277   3.216   4.994  0.1510 -0.7920 -0.6144
 3084SOL     OW 9250   0.728   4.959   5.232 -0.0167 -0.5522  0.6890
 3084SOL    HW1 9251   0.729   5.035   5.290 -1.2369  1.4866 -1.7886
 3084SOL    HW2 9252   0.811   4.962   5.185  0.6559 -1.7925  1.7100
 3085SOL     OW 9253   4.391   4.522   5.596  0.2325  0.9732 -0.4405
 3085SOL    HW1 9254   4.343   4.532   5.678 -0.3275  3.3527 -0.9736
 3085SOL    HW2 9255   4.478   4.558   5.614  0.6817 -0.1038 -0.4256
 3086SOL     OW 9256   4.778   1.769   6.364 -0.2083 -0.2885  0.1398
 3086SOL    HW1 9257   4.772   1.676   6.384 -0.7887 -0.6549 -1.5782
 3086SOL    HW2 9258   4.688   1.801   6.369 -0.1638 -0.0737 -0.3659
 3087SOL     OW 9259   1.964   2.532   5.860  0.1510 -0.3296  0.4227
 3087SOL    HW1 9260   1.946   2.613   5.811  0.3002 -0.1127  0.7209
 3087SOL    HW2 9261   1.975   2.561   5.950  0.5152 -0.6483  0.4840
 3088SOL     OW 9262   4.574   4.857   7.162 -0.3614 -0.4027 -0.1156
 3088SOL    HW1 9263   4.525   4.838   7.243  1.0113 -1.6812  0.4537
 3088SOL    HW2 9264   4.653   4.902   7.192  0.0921 -0.7646 -0.7468
 3089SOL     OW 9265   3.963   0.841   7.828  0.1840  0.2766 -0.4833
 3089SOL    HW1 9266   4.032   0.874   7.885 -1.9588  0.1247  2.4250
 3089SOL    HW2 9267   3.893   0.907   7.833 -0.7281 -0.5517 -1.6091
 3090SOL     OW 9268   0.880   2.866   5.207  0.5348  0.5488 -0.0815
 3090SOL    HW1 9269   0.798   2.895   5.168  0.6601 -1.2330 -1.8592
 3090SOL    HW2 9270   0.857   2.788   5.257  1.1298 -0.1190 -0.8012
 3091SOL     OW 9271   2.515   0.074   6.836 -0.5070  0.3588 -0.2988
 3091SOL    HW1 9272   2.423   0.047   6.847 -0.0675 -0.5370  1.5199
 3091SOL    HW2 9273   2.549   0.081   6.925  1.1068  1.0548 -0.9317
 3092SOL     OW 9274   4.362   2.526   5.588 -0.8442 -0.2482 -0.6545
 3092SOL    HW1 9275   4.416   2.482   5.653 -2.8460 -1.8411  0.0263
 3092SOL    HW2 9276   4.423   2.581   5.539  1.0240 -0.4252  1.3485
 3093SOL     OW 9277   4.627   2.177   6.189 -0.5440 -0.0519 -0.8507
 3093SOL    HW1 9278   4.583   2.148   6.269  1.9809  1.0978  1.1006
 3093SOL    HW2 9279   4.704   2.120   6.181  0.6185  1.4585 -0.9475
 3094SOL     OW 9280   3.100   0.979   6.345 -0.3991  0.5109 -0.0894
 3094SOL    HW1 9281   3.111   0.937   6.430  1.2835  1.9557  0.4513
 3094SOL    HW2 9282   3.164   0.934   6.288  0.7795  1.6805  0.2677
 3095SOL     OW 9283   4.350   4.709   6.512  0.1493 -0.3570  0.2231
 3095SOL    HW1 9284   4.287   4.648   6.549  0.2354 -0.2395  0.5597
 3095SOL    HW2 9285   4.430   4.658   6.500 -0.1866 -0.6779 -0.7959
 3096SOL     OW 9286   1.120   0.256   5.010  0.3323 -0.1310 -0.4169
 3096SOL    HW1 9287   1.171   0.284   5.086 -1.8931 -0.2140  1.2350
 3096SOL    HW2 9288   1.067   0.333   4.987  0.6866 -0.2352 -1.6519
 3097SOL     OW 9289   0.065   1.741   6.662  0.6729 -0.8625  0.4452
 3097SOL    HW1 9290   0.009   1.772   6.733 -1.3749  0.1874 -1.5134
 3097SOL    HW2 9291   0.043   1.649   6.652  2.3355 -1.5476  2.2777
 3098SOL     OW 9292   0.039   3.284   5.969  0.3664 -0.2321 -0.8221
 3098SOL    HW1 9293   0.035   3.198   6.011  0.5362 -1.4649 -3.1512
 3098SOL    HW2 9294   0.129   3.289   5.937  0.3105  0.7809 -0.8297
 3099SOL     OW 9295   0.066   4.016   8.099 -0.0645  0.2209 -0.0439
 3099SOL    HW1 9296  -0.010   4.073   8.115 -0.2809 -0.2416  0.6277
 3099SOL    HW2 9297   0.137   4.056   8.150 -0.4596 -0.6162  1.2036
 3100SOL     OW 9298   1.885   1.880   5.716  0.1946  0.3679  0.1025
 3100SOL    HW1 9299   1.934   1.884   5.798  1.4199 -0.7624 -0.5366
 3100SOL    HW2 9300   1.952   1.887   5.648 -0.7780  1.0471 -0.8208
 3101SOL     OW 9301   1.430   3.265   6.404  0.0919  0.2388 -0.2886
 3101SOL    HW1 9302   1.373   3.340   6.420 -0.0680  0.5867 -2.2995
 3101SOL    HW2 9303   1.373   3.198   6.368  0.7153  0.1638 -1.1718
 3102SOL     OW 9304   0.852   0.585   5.323  0.3300  0.0808  0.4564
 3102SOL    HW1 9305   0.792   0.629   5.383  1.6476  0.2818  1.6730
 3102SOL    HW2 9306   0.819   0.495   5.318 -2.8265  1.1694 -2.6126
 3103SOL     OW 9307   4.541   1.479   5.799  0.2116  0.5337 -0.0077
 3103SOL    HW1 9308   4.448   1.492   5.781 -0.0530 -0.5890  0.4579
 3103SOL    HW2 9309   4.585   1.550   5.753 -0.7528  0.1086 -1.6500
 3104SOL     OW 9310   0.128   2.792   7.543  0.2507 -0.1710 -0.0716
 3104SOL    HW1 9311   0.079   2.712   7.522 -0.1034 -0.1378  0.6269
 3104SOL    HW2 9312   0.156   2.780   7.634 -2.3272  1.7680  1.0653
 3105SOL     OW 9313   4.649   4.153   6.473  0.1877 -0.4122  0.3332
 3105SOL    HW1 9314   4.693   4.166   6.557  0.4668  1.1228 -0.0124
 3105SOL    HW2 9315   4.620   4.062   6.474  0.8334 -0.6212  1.7791
 3106SOL     OW 9316   0.265   4.910   6.301  0.1053  0.3534  0.1362
 3106SOL    HW1 9317   0.297   4.857   6.228 -0.5860  0.5515 -0.3319
 3106SOL    HW2 9318   0.339   4.964   6.326  1.2076 -1.6349  1.4141
 3107SOL     OW 9319   0.341   1.777   6.690  0.6350 -0.3133 -0.5899
 3107SOL    HW1 9320   0.248   1.753   6.698  0.4089  0.9357  1.1272
 3107SOL    HW2 9321   0.385   1.727   6.758  0.9696  0.2632 -0.3748
 3108SOL     OW 9322   3.136   0.587   6.217  0.1289 -0.2882 -0.1098
 3108SOL    HW1 9323   3.071   0.645   6.256 -0.9251 -1.1960 -0.4462
 3108SOL    HW2 9324   3.101   0.567   6.130  1.4978  0.1950 -0.8103
 3109SOL     OW 9325   0.395   1.583   7.451  0.2497  0.8080 -0.0392
 3109SOL    HW1 9326   0.366   1.577   7.360  0.1057  1.1840 -0.0191
 3109SOL    HW2 9327   0.367   1.501   7.491  1.8515 -0.1471 -0.7695
 3110SOL     OW 9328   0.080   3.767   6.880 -0.2590  0.3611  0.8295
 3110SOL    HW1 9329   0.145   3.752   6.812 -0.2217 -3.7584  1.5343
 3110SOL    HW2 9330   0.073   3.683   6.926 -3.8418  1.4953  2.7647
 3111SOL     OW 9331   0.164   1.494   6.382 -0.2052  0.0216  0.4342
 3111SOL    HW1 9332   0.225   1.485   6.456  0.7547 -1.1055 -0.4497
 3111SOL    HW2 9333   0.183   1.419   6.326 -1.3101  0.5371 -0.6839
 3112SOL     OW 9334   4.320   0.993   6.890  0.2380  0.1338  0.2912
 3112SOL    HW1 9335   4.235   1.020   6.856  0.7487  0.2400 -0.9529
 3112SOL    HW2 9336   4.309   0.899   6.908  0.2178 -0.1772 -1.1536
 3113SOL     OW 9337   4.082   1.013   5.458 -0.1913 -0.5864 -0.7756
 3113SOL    HW1 9338   4.158   0.960   5.485 -0.0633 -0.9185 -1.7377
 3113SOL    HW2 9339   4.021   0.949   5.421 -0.9065 -0.3043 -0.0955
 3114SOL     OW 9340   3.086   2.126   5.387 -0.8802 -0.0487 -0.4710
 3114SOL    HW1 9341   3.068   2.034   5.407 -0.7845 -0.2883 -1.3987
 3114SOL    HW2 9342   3.181   2.135   5.399 -0.6467 -0.4672 -1.7445
 3115SOL     OW 9343   4.427   0.441   6.676  0.3851 -0.0637 -0.2746
 3115SOL    HW1 9344   4.419   0.488   6.593  2.0587 -1.3834 -1.2441
 3115SOL    HW2 9345   4.411   0.350   6.654  0.4693 -0.3940  0.9472
 3116SOL     OW 9346   1.363   0.433   7.983  0.3657 -0.1385  0.5306
 3116SOL    HW1 9347   1.374   0.526   7.964  2.5609 -0.8263 -2.2022
 3116SOL    HW2 9348   1.381   0.425   8.077  2.7870  1.8921  0.3323
 3117SOL     OW 9349   0.413   0.871   6.140  0.2543  0.2033  0.1119
 3117SOL    HW1 9350   0.355   0.849   6.213  0.3988 -1.0170 -0.1196
 3117SOL    HW2 9351   0.366   0.841   6.062 -0.3306  2.3489 -0.4288
 3118SOL     OW 9352   0.901   4.425   5.477  1.0148 -0.7553 -0.0980
 3118SOL    HW1 9353   0.837   4.396   5.413  0.4132 -0.0737  0.1884
 3118SOL    HW2 9354   0.858   4.496   5.525  1.9077 -0.4105  0.2245
 3119SOL     OW 9355   0.870   2.171   5.395  0.6027  0.0722 -0.6197
 3119SOL    HW1 9356   0.839   2.242   5.340  0.3169 -0.7760 -1.5864
 3119SOL    HW2 9357   0.917   2.215   5.467 -0.0752  1.2359 -0.8624
 3120SOL     OW 9358   0.129   1.067   5.643 -0.6386  0.6365  0.4908
 3120SOL    HW1 9359   0.218   1.102   5.639 -0.3304 -0.1386  0.3943
 3120SOL    HW2 9360   0.112   1.034   5.555  0.2668 -2.2436  1.2752
 3121SOL     OW 9361   3.964   0.921   6.391  0.3149 -1.0406 -0.2541
 3121SOL    HW1 9362   3.978   0.833   6.358  0.8983 -0.9767 -0.1841
 3121SOL    HW2 9363   4.038   0.972   6.358  0.7813 -0.9128  0.9037
 3122SOL     OW 9364   4.979   4.621   6.196 -0.7844  0.1270 -0.3405
 3122SOL    HW1 9365   4.909   4.615   6.260  0.4824  2.1649  1.3718
 3122SOL    HW2 9366   5.059   4.601   6.245  0.0968  0.3783 -1.6083
 3123SOL     OW 9367   2.393   0.660   6.236 -0.3617 -0.6577 -0.0428
 3123SOL    HW1 9368   2.348   0.576   6.230 -0.8414 -0.4263  0.2621
 3123SOL    HW2 9369   2.327   0.725   6.213  0.3572 -0.4408 -1.6323
 3124SOL     OW 9370   4.303   2.840   6.575  0.0752  0.3117  0.1363
 3124SOL    HW1 9371   4.358   2.820   6.651 -0.2129 -0.6871  0.0898
 3124SOL    HW2 9372   4.232   2.777   6.580 -1.5008  2.0267  0.6010
 3125SOL     OW 9373   0.447   1.256   6.528 -0.7439 -0.4803  0.4571
 3125SOL    HW1 9374   0.467   1.225   6.440  0.6886 -0.7623  0.8565
 3125SOL    HW2 9375   0.482   1.189   6.586  1.0932  1.1235  1.3028
 3126SOL     OW 9376   0.499   2.318   5.056  0.3414 -0.2887  0.7451
 3126SOL    HW1 9377   0.454   2.253   5.003 -2.1514  0.7173  1.5196
 3126SOL    HW2 9378   0.444   2.396   5.051  3.0439  1.7528  0.0896
 3127SOL     OW 9379   4.298   0.179   6.135  0.6553 -0.2050  0.2837
 3127SOL    HW1 9380   4.306   0.098   6.084  0.8825 -1.2115  1.8305
 3127SOL    HW2 9381   4.217   0.168   6.184 -0.5959  1.6064 -1.2322
 3128SOL     OW 9382   2.690   1.964   5.281  0.0810 -0.2919 -0.1160
 3128SOL    HW1 9383   2.713   1.947   5.190 -0.0492 -2.2124  0.1762
 3128SOL    HW2 9384   2.643   2.048   5.278 -1.2227 -1.0092 -2.0437
 3129SOL     OW 9385   1.447   0.851   5.900 -0.5229 -0.4691  0.2911
 3129SOL    HW1 9386   1.371   0.794   5.906 -0.6743 -0.1799  1.3919
 3129SOL    HW2 9387   1.423   0.929   5.950  0.0051  0.1944 -0.4643
 3130SOL     OW 9388   0.454   3.490   5.158 -0.1422  0.6034 -0.6164
 3130SOL    HW1 9389   0.541   3.524   5.138  0.0044  0.0600 -0.9510
 3130SOL    HW2 9390   0.466   3.434   5.235 -0.0018 -0.2127 -1.2082
 3131SOL     OW 9391   4.843   4.495   5.939  0.0877  0.2740 -0.1145
 3131SOL    HW1 9392   4.868   4.581   5.971  1.6117 -0.3087  0.3344
 3131SOL    HW2 9393   4.753   4.483   5.972  0.5646  0.8858  1.5140
 3132SOL     OW 9394   2.416   1.444   6.708  0.3055 -0.4305 -0.2039
 3132SOL    HW1 9395   2.467   1.411   6.634  0.7534 -0.4753  0.1208
 3132SOL    HW2 9396   2.328   1.459   6.671  0.1045 -1.8791 -0.3928
 3133SOL     OW 9397   2.817   1.654   6.687  0.4950  0.3042 -0.3075
 3133SOL    HW1 9398   2.727   1.672   6.659  0.1856 -2.2483 -1.2299
 3133SOL    HW2 9399   2.825   1.559   6.680  3.2753  0.4668 -0.1981
 3134SOL     OW 9400   3.208   3.063   5.520  0.1368  0.3595  0.6941
 3134SOL    HW1 9401   3.288   3.068   5.467 -0.3456  1.0754  0.0113
 3134SOL    HW2 9402   3.168   2.980   5.496  0.0200  0.5907  0.0674
 3135SOL     OW 9403   1.748   3.964   4.573 -0.0827  0.1763 -0.0806
 3135SOL    HW1 9404   1.734   4.058   4.584 -1.2267  0.4330 -2.7946
 3135SOL    HW2 9405   1.790   3.956   4.488  0.6537 -1.7619  0.4113
 3136SOL     OW 9406   0.804   2.598   6.080 -0.0601 -0.3127  0.0283
 3136SOL    HW1 9407   0.749   2.675   6.064 -0.1238 -0.2173  0.6531
 3136SOL    HW2 9408   0.743   2.524   6.078  0.2232 -0.5561 -2.1195
 3137SOL     OW 9409   4.062   0.905   8.261 -0.1188  0.1713  0.4324
 3137SOL    HW1 9410   3.997   0.963   8.299 -0.5401  1.2965 -1.8416
 3137SOL    HW2 9411   4.048   0.911   8.167  0.8251 -2.4906  0.0395
 3138SOL     OW 9412   0.369   4.162   5.704  0.7139  0.2832 -0.0135
 3138SOL    HW1 9413   0.328   4.159   5.617 -0.6572  3.1310  0.4000
 3138SOL    HW2 9414   0.362   4.254   5.730  2.1373 -0.2596  2.6491
 3139SOL     OW 9415   0.328   2.524   5.087  0.2094  0.0361  0.5555
 3139SOL    HW1 9416   0.296   2.577   5.013 -1.0254  0.0593  1.0747
 3139SOL    HW2 9417   0.248   2.491   5.128  0.9199 -0.7911  1.2921
 3140SOL     OW 9418   3.054   1.820   6.637  0.3695 -0.3236 -0.0385
 3140SOL    HW1 9419   3.124   1.775   6.685  0.3067  0.5115  0.8678
 3140SOL    HW2 9420   2.974   1.774   6.663  0.3785 -0.1064  0.3927
 3141SOL     OW 9421   4.796   4.241   6.700  0.5953 -0.3368  0.2421
 3141SOL    HW1 9422   4.891   4.234   6.687  0.8671 -0.5232  2.0123
 3141SOL    HW2 9423   4.779   4.189   6.779 -0.7826  0.8182  0.7427
 3142SOL     OW 9424   3.565   0.486   5.140  0.2419 -0.8244 -0.1607
 3142SOL    HW1 9425   3.642   0.459   5.189 -0.4458 -0.1722  1.3417
 3142SOL    HW2 9426   3.496   0.427   5.170 -0.1780 -0.4675 -0.4067
 3143SOL     OW 9427   4.101   1.331   6.958  0.3898 -0.3094 -0.0922
 3143SOL    HW1 9428   4.032   1.286   6.909 -1.1147 -0.0668  1.6853
 3143SOL    HW2 9429   4.054   1.384   7.022  2.2238 -1.0521  2.0107
 3144SOL     OW 9430   4.581   0.341   5.707  0.1479 -1.0346  0.5695
 3144SOL    HW1 9431   4.625   0.403   5.767 -1.8742  0.8521  0.2317
 3144SOL    HW2 9432   4.646   0.325   5.639  0.9612  0.3094  0.9706
 3145SOL     OW 9433   4.804   1.273   6.806 -0.2102 -0.3484 -0.0294
 3145SOL    HW1 9434   4.802   1.332   6.881 -0.1844  0.8451 -0.9316
 3145SOL    HW2 9435   4.712   1.248   6.792 -0.2762 -0.1706  0.0880
 3146SOL     OW 9436   4.568   1.497   6.726 -0.3483 -0.0397 -0.1933
 3146SOL    HW1 9437   4.473   1.511   6.726 -0.6961 -1.7641 -2.3252
 3146SOL    HW2 9438   4.577   1.404   6.702  1.8371 -0.8028  3.0370
 3147SOL     OW 9439   4.106   2.774   6.998  0.4489 -0.4091  0.3941
 3147SOL    HW1 9440   4.137   2.746   7.084  2.3832 -0.2118 -0.1855
 3147SOL    HW2 9441   4.134   2.704   6.939  1.4171  0.6290 -0.4243
 3148SOL     OW 9442   4.297   3.687   7.829  0.3029  0.6329 -0.2612
 3148SOL    HW1 9443   4.285   3.592   7.833 -0.5838  0.6447 -1.8680
 3148SOL    HW2 9444   4.342   3.709   7.910  0.7264 -1.1940  0.0387
 3149SOL     OW 9445   1.677   4.860   6.775 -0.1197  0.3253 -0.7167
 3149SOL    HW1 9446   1.657   4.767   6.773  0.5389  0.0514  1.8283
 3149SOL    HW2 9447   1.613   4.900   6.717 -1.9169 -1.4819 -0.1039
 3150SOL     OW 9448   3.966   0.421   5.968 -0.2994 -0.0887 -0.1788
 3150SOL    HW1 9449   3.878   0.420   6.005 -0.7138 -0.0928 -1.1300
 3150SOL    HW2 9450   4.019   0.373   6.031 -0.7951  0.6433  0.8316
 3151SOL     OW 9451   4.643   1.214   8.174  0.3725  0.2232 -1.0673
 3151SOL    HW1 9452   4.667   1.190   8.263 -0.9768  0.5235 -0.6126
 3151SOL    HW2 9453   4.707   1.168   8.119 -0.5814 -2.4196 -0.1301
 3152SOL     OW 9454   2.501   2.938   5.834 -0.1212  0.4141 -0.6316
 3152SOL    HW1 9455   2.467   3.015   5.789 -0.5782 -0.9808 -2.8317
 3152SOL    HW2 9456   2.423   2.886   5.854  0.2531  0.0631 -0.0717
 3153SOL     OW 9457   3.986   3.779   7.527 -0.6805  0.3607 -0.1577
 3153SOL    HW1 9458   4.051   3.834   7.569 -0.9104  0.6144 -0.1291
 3153SOL    HW2 9459   4.034   3.700   7.501 -0.2922  0.6892 -0.4432
 3154SOL     OW 9460   4.196   3.072   6.672 -0.1748  0.0488  0.5863
 3154SOL    HW1 9461   4.203   2.997   6.613  0.5547 -0.3874  1.2129
 3154SOL    HW2 9462   4.285   3.108   6.677 -0.1048 -0.2430  1.8233
 3155SOL     OW 9463   4.589   1.244   5.491 -0.3528 -0.1427  0.3453
 3155SOL    HW1 9464   4.593   1.175   5.424 -2.2008  0.6481 -0.6530
 3155SOL    HW2 9465   4.653   1.309   5.463  0.2058 -0.6790  0.3698
 3156SOL     OW 9466   4.939   4.406   7.169 -0.1972 -0.0959  0.3954
 3156SOL    HW1 9467   4.984   4.487   7.145  0.8547 -0.7878 -0.0629
 3156SOL    HW2 9468   5.007   4.351   7.209 -0.8204 -0.8501  0.4503
 3157SOL     OW 9469   1.040   4.099   6.704 -0.3245  0.0111  0.0429
 3157SOL    HW1 9470   0.993   4.169   6.749 -3.0834 -1.0296 -0.9898
 3157SOL    HW2 9471   1.018   4.020   6.753  0.5269 -0.5113 -0.3856
 3158SOL     OW 9472   1.141   1.289   4.939  0.2830 -0.2347  0.5311
 3158SOL    HW1 9473   1.051   1.305   4.911  0.8517 -0.2188 -1.3848
 3158SOL    HW2 9474   1.192   1.359   4.898  1.3515 -1.0051  0.5145
 3159SOL     OW 9475   1.319   2.476   6.209 -0.0996 -0.2391  0.1559
 3159SOL    HW1 9476   1.399   2.526   6.225  0.3313 -1.3366  1.5795
 3159SOL    HW2 9477   1.281   2.517   6.131  2.0111  0.0909 -0.7616
 3160SOL     OW 9478   2.155   0.830   6.161  0.1639  0.3285  0.9694
 3160SOL    HW1 9479   2.091   0.852   6.093  1.7525  0.0004 -0.6977
 3160SOL    HW2 9480   2.103   0.789   6.231 -1.5548  0.9614  0.1112
 3161SOL     OW 9481   4.628   3.808   5.246  0.8670  1.0453 -0.1170
 3161SOL    HW1 9482   4.701   3.865   5.270  1.6347 -0.7923  2.3417
 3161SOL    HW2 9483   4.555   3.838   5.300  1.1629  0.0062  0.8892
 3162SOL     OW 9484  -0.028   4.776   5.841 -0.3465 -0.2260 -0.0539
 3162SOL    HW1 9485   0.031   4.790   5.915 -0.1037  1.0822 -0.4521
 3162SOL    HW2 9486   0.012   4.703   5.793  1.3601  1.0031 -0.6394
 3163SOL     OW 9487   4.876   0.049   5.464 -0.0618 -0.5138 -0.3376
 3163SOL    HW1 9488   4.872   0.028   5.557 -2.3376  1.7730  0.2123
 3163SOL    HW2 9489   4.803   0.000   5.425  0.0532 -0.4338 -0.6579
 3164SOL     OW 9490   4.085   2.078   7.065  0.4066 -0.6014 -0.1741
 3164SOL    HW1 9491   4.073   2.122   7.149  1.0106 -1.8639  0.6058
 3164SOL    HW2 9492   4.164   2.026   7.076  0.1035 -1.3399 -1.2887
 3165SOL     OW 9493   4.244   5.017   5.370  0.2286 -0.1940  0.4423
 3165SOL    HW1 9494   4.272   4.967   5.294 -1.1240 -1.9463  1.0263
 3165SOL    HW2 9495   4.318   5.013   5.430  0.2264 -1.3662  0.3952
 3166SOL     OW 9496   2.952   1.598   6.079 -0.3730 -0.7592  0.0634
 3166SOL    HW1 9497   2.996   1.559   6.155 -0.6259 -0.4334  0.3781
 3166SOL    HW2 9498   2.970   1.536   6.007  0.9275 -0.4587  0.0909
 3167SOL     OW 9499   3.177   0.275   7.153 -0.5337  0.2971 -0.1471
 3167SOL    HW1 9500   3.173   0.257   7.059 -1.5145 -1.6006  0.1957
 3167SOL    HW2 9501   3.210   0.194   7.192 -2.0428  0.3110  1.2881
 3168SOL     OW 9502   1.682   1.337   5.707  0.0594  0.1343  0.3252
 3168SOL    HW1 9503   1.646   1.278   5.640 -0.5817  0.4536  0.3829
 3168SOL    HW2 9504   1.694   1.420   5.662  3.3038 -0.6298 -0.4391
 3169SOL     OW 9505   4.349   4.193   4.915 -0.1091  0.3237 -0.1528
 3169SOL    HW1 9506   4.279   4.210   4.978 -0.2155  1.1551 -0.4906
 3169SOL    HW2 9507   4.344   4.265   4.853  0.8566  0.2320 -0.3562
 3170SOL     OW 9508   1.074   1.183   8.834 -0.9956 -0.5716  0.2505
 3170SOL    HW1 9509   1.031   1.123   8.895 -0.8809  0.1787  1.0815
 3170SOL    HW2 9510   1.160   1.143   8.819 -0.9184 -0.6255  0.7987
 3171SOL     OW 9511   4.008   2.230   6.828  0.5251  0.6149 -0.2624
 3171SOL    HW1 9512   4.022   2.195   6.915  1.2581 -0.2272 -0.7009
 3171SOL    HW2 9513   4.086   2.203   6.779 -0.4428 -0.0107 -1.5120
 3172SOL     OW 9514   4.918   4.086   6.309  0.8502 -0.2838 -0.2186
 3172SOL    HW1 9515   4.874   4.027   6.370  0.3681 -0.6676 -0.9243
 3172SOL    HW2 9516   4.867   4.167   6.312  0.9466 -0.2300  0.0278
 3173SOL     OW 9517   3.420   0.875   5.383  0.1033 -0.1138  0.4959
 3173SOL    HW1 9518   3.340   0.846   5.427  0.4174 -0.1887  1.0274
 3173SOL    HW2 9519   3.390   0.929   5.311 -0.4804 -1.2387 -0.1234
 3174SOL     OW 9520   4.847   0.767   5.832  0.0533 -0.2340 -0.8208
 3174SOL    HW1 9521   4.932   0.809   5.816 -0.2549  0.4686 -0.6492
 3174SOL    HW2 9522   4.783   0.834   5.811 -0.4795 -0.8921 -1.3509
 3175SOL     OW 9523   4.523   4.509   6.480 -0.3417 -0.0666  0.4379
 3175SOL    HW1 9524   4.471   4.433   6.454 -0.0370 -0.6392  1.4526
 3175SOL    HW2 9525   4.541   4.496   6.573  0.6030  0.7196  0.3885
 3176SOL     OW 9526   0.700   1.471   6.467  0.4161  0.1545  0.0532
 3176SOL    HW1 9527   0.761   1.397   6.470  0.4684  0.2209  0.9074
 3176SOL    HW2 9528   0.661   1.466   6.379 -0.2888 -1.4717  0.4075
 3177SOL     OW 9529   4.840   3.073   5.573  0.4333 -0.3442 -0.5274
 3177SOL    HW1 9530   4.761   3.127   5.571 -0.5643 -1.7065  0.2184
 3177SOL    HW2 9531   4.912   3.136   5.571 -0.6722  1.0341  0.5749
 3178SOL     OW 9532   2.940   0.397   6.088  0.7822  0.2023 -0.2545
 3178SOL    HW1 9533   2.855   0.412   6.046  1.6222  2.8503 -1.2641
 3178SOL    HW2 9534   2.998   0.462   6.047  2.1716  1.7251  3.6300
 3179SOL     OW 9535   4.292   0.749   5.392  0.5199  0.1129 -0.0367
 3179SOL    HW1 9536   4.283   0.703   5.308 -2.6524  0.2750  0.0886
 3179SOL    HW2 9537   4.293   0.679   5.457  2.4905  0.0103 -0.1279
 3180SOL     OW 9538   4.358   2.320   5.380 -0.3955  0.6614  0.6406
 3180SOL    HW1 9539   4.435   2.368   5.349 -0.2846 -0.2389 -0.5191
 3180SOL    HW2 9540   4.350   2.345   5.473  3.2594 -1.7373  1.7993
 3181SOL     OW 9541   4.857   4.204   6.998 -0.2790  0.3247 -0.0378
 3181SOL    HW1 9542   4.924   4.267   7.025 -0.4454  1.2721 -1.6654
 3181SOL    HW2 9543   4.906   4.135   6.954 -0.2112  0.0064  0.5342
 3182SOL     OW 9544   0.349   2.539   5.790 -0.0149  0.2059  0.2516
 3182SOL    HW1 9545   0.267   2.538   5.742 -0.9977 -0.6167  1.8720
 3182SOL    HW2 9546   0.368   2.447   5.808 -1.0275  0.5167  3.5362
 3183SOL     OW 9547   2.248   0.116   4.679 -0.5626  0.2272  0.1569
 3183SOL    HW1 9548   2.236   0.028   4.642  1.3717 -1.1574  2.4842
 3183SOL    HW2 9549   2.182   0.170   4.636 -3.0760 -2.7667 -0.1010
 3184SOL     OW 9550   1.111   4.855   5.350 -0.3443  0.4656  1.6499
 3184SOL    HW1 9551   1.204   4.837   5.366 -0.3741 -1.6073 -0.1392
 3184SOL    HW2 9552   1.106   4.875   5.257 -1.4964  2.4314  2.0771
 3185SOL     OW 9553   0.222   1.461   5.391 -0.1637 -0.1206 -0.1281
 3185SOL    HW1 9554   0.228   1.409   5.311 -0.1113  0.4780 -0.5199
 3185SOL    HW2 9555   0.129   1.480   5.401 -0.3009 -1.0767  0.5354
 3186SOL     OW 9556   3.574   0.673   5.370 -0.1382  0.2661 -0.1802
 3186SOL    HW1 9557   3.524   0.747   5.405 -0.0218  0.9102 -1.3426
 3186SOL    HW2 9558   3.537   0.659   5.283 -1.4805 -2.2988  0.6861
 3187SOL     OW 9559   4.866   2.365   6.742  0.2934  0.3662  0.0684
 3187SOL    HW1 9560   4.840   2.383   6.652  1.5127 -0.6178 -0.5169
 3187SOL    HW2 9561   4.860   2.449   6.786 -1.9586  0.5407 -0.4774
 3188SOL     OW 9562   4.154   0.186   6.606 -0.3201  0.2954  0.1739
 3188SOL    HW1 9563   4.234   0.192   6.553  0.7703 -0.6796  1.6395
 3188SOL    HW2 9564   4.093   0.246   6.563  1.4491  1.6841 -0.5362
 3189SOL     OW 9565   0.149   2.717   6.038  0.0270 -0.4095 -0.2624
 3189SOL    HW1 9566   0.137   2.718   5.943  1.4001  0.6069 -0.4387
 3189SOL    HW2 9567   0.065   2.684   6.071 -0.4642 -0.8258 -1.8128
 3190SOL     OW 9568   1.115   1.920   7.352  0.2770 -0.0283 -0.4822
 3190SOL    HW1 9569   1.061   1.864   7.297 -1.5543  1.1221  0.0686
 3190SOL    HW2 9570   1.059   1.995   7.373  2.2039  1.3877 -0.1427
 3191SOL     OW 9571   4.242   0.684   9.112  0.1885  0.7395 -0.2154
 3191SOL    HW1 9572   4.178   0.624   9.149 -0.3164  1.8112  0.7050
 3191SOL    HW2 9573   4.298   0.707   9.186  0.0471  1.8062 -0.4270
 3192SOL     OW 9574   4.174   1.193   8.861  0.8338  0.0709  0.1410
 3192SOL    HW1 9575   4.236   1.137   8.907  0.5745 -0.5484 -0.2511
 3192SOL    HW2 9576   4.168   1.155   8.773 -0.2790 -0.0084  0.2465
 3193SOL     OW 9577   4.218   1.801   9.433 -0.2019  0.2010 -0.3141
 3193SOL    HW1 9578   4.313   1.799   9.444 -0.4039 -1.0444  1.6390
 3193SOL    HW2 9579   4.185   1.831   9.517 -1.5168  2.8795 -1.6470
 3194SOL     OW 9580   1.182   1.596   7.347  0.2373 -0.1750  0.2448
 3194SOL    HW1 9581   1.253   1.631   7.293  1.8689 -1.5813  1.3771
 3194SOL    HW2 9582   1.207   1.618   7.437 -1.1827 -0.0238  0.6309
 3195SOL     OW 9583   3.636   3.658   8.802  0.4651 -0.9959  0.4291
 3195SOL    HW1 9584   3.732   3.656   8.803  0.5112  0.4291  1.3058
 3195SOL    HW2 9585   3.610   3.575   8.841  1.2810 -2.4078 -1.8441
 3196SOL     OW 9586   4.832   0.075   7.865 -0.0254  0.0414 -0.0954
 3196SOL    HW1 9587   4.872   0.068   7.778  1.1939 -0.9922  0.5029
 3196SOL    HW2 9588   4.753   0.022   7.859  0.3858 -0.5584 -0.4216
 3197SOL     OW 9589   4.811   1.589   8.032 -0.1328 -0.0260  0.2723
 3197SOL    HW1 9590   4.744   1.555   8.092  1.2503 -2.1340  0.7446
 3197SOL    HW2 9591   4.893   1.575   8.078  0.6660  3.0461 -0.0509
 3198SOL     OW 9592   0.604   2.587   8.604 -0.5476 -0.7386 -0.0668
 3198SOL    HW1 9593   0.584   2.604   8.697 -3.8267 -1.7733 -0.4336
 3198SOL    HW2 9594   0.587   2.493   8.593  0.7362 -0.8308 -1.5369
 3199SOL     OW 9595   2.179   1.011   9.678 -0.7442 -0.2574  0.3446
 3199SOL    HW1 9596   2.242   0.957   9.631  0.0605  0.9172  0.0392
 3199SOL    HW2 9597   2.108   1.026   9.615  1.1655  2.8541 -1.2954
 3200SOL     OW 9598   1.052   2.586   7.919  0.1818  0.2983 -0.0127
 3200SOL    HW1 9599   1.024   2.658   7.976 -1.0457 -0.9530  1.0482
 3200SOL    HW2 9600   1.044   2.621   7.830 -0.0827  1.5732  0.4987
 3201SOL     OW 9601   3.616   1.339   7.072  0.0873 -0.1848 -0.6325
 3201SOL    HW1 9602   3.658   1.275   7.015 -0.1739 -1.5942  0.6739
 3201SOL    HW2 9603   3.527   1.306   7.083  0.2837 -0.2623  0.9807
 3202SOL     OW 9604   1.918   1.549   6.548  0.2482  0.0995  0.4340
 3202SOL    HW1 9605   1.881   1.482   6.491 -0.5309  0.0802  0.9512
 3202SOL    HW2 9606   1.873   1.630   6.523  0.4854  0.2418  0.4670
 3203SOL     OW 9607   2.570   1.065   6.533 -0.1624  0.1231  0.5113
 3203SOL    HW1 9608   2.482   1.031   6.550 -0.4324  0.7378  0.3570
 3203SOL    HW2 9609   2.628   0.990   6.547 -0.9700 -1.2730 -2.6125
 3204SOL     OW 9610   3.160   0.681   6.876  0.0657 -0.1263 -0.1767
 3204SOL    HW1 9611   3.128   0.770   6.858 -0.4749  0.1269  1.8369
 3204SOL    HW2 9612   3.230   0.694   6.940  1.2712 -1.0500 -1.2446
 3205SOL     OW 9613   3.934   0.814   8.538 -0.2854  0.2157  0.1915
 3205SOL    HW1 9614   3.899   0.901   8.559  1.5498  0.9366  0.4060
 3205SOL    HW2 9615   3.937   0.812   8.443  2.6023  1.7005  0.1476
 3206SOL     OW 9616   4.718   0.178   7.077 -0.1338 -0.0773  0.1022
 3206SOL    HW1 9617   4.791   0.238   7.095  1.0254 -1.1169 -0.9220
 3206SOL    HW2 9618   4.747   0.095   7.115 -0.3757 -0.7285 -1.1238
 3207SOL     OW 9619   4.556   1.999   9.146 -0.0271 -0.1457 -0.2185
 3207SOL    HW1 9620   4.568   1.944   9.068 -0.5033 -0.8195  0.1684
 3207SOL    HW2 9621   4.462   2.000   9.160  0.1288 -1.2953  1.2128
 3208SOL     OW 9622   3.625   4.708   5.606 -0.3400  0.1258 -0.0103
 3208SOL    HW1 9623   3.714   4.717   5.639  0.4369 -1.2069 -1.6399
 3208SOL    HW2 9624   3.579   4.656   5.673  0.4689 -0.3134  0.2108
 3209SOL     OW 9625   0.159   1.740   8.866 -0.2649  0.3210 -0.2678
 3209SOL    HW1 9626   0.198   1.820   8.901 -1.7377  1.1614 -0.4731
 3209SOL    HW2 9627   0.078   1.730   8.916 -0.6372 -0.4285 -1.0202
 3210SOL     OW 9628   2.965   1.130   7.104 -0.0343  0.1356 -0.1801
 3210SOL    HW1 9629   2.879   1.089   7.097 -1.6484  2.9589  1.4505
 3210SOL    HW2 9630   3.014   1.073   7.164 -0.9391 -1.1588 -0.6251
 3211SOL     OW 9631   0.284   4.295   6.615  0.0426 -0.4247 -0.1285
 3211SOL    HW1 9632   0.256   4.297   6.524 -0.4416  1.2351  0.0200
 3211SOL    HW2 9633   0.229   4.229   6.657 -1.0708  0.1700 -0.6381
 3212SOL     OW 9634   3.699   1.737   7.358 -0.9939  0.8827  0.4427
 3212SOL    HW1 9635   3.732   1.826   7.364  0.6066  0.3418 -0.0040
 3212SOL    HW2 9636   3.673   1.727   7.267  4.2158 -0.8044 -1.2148
 3213SOL     OW 9637   4.004   2.333   9.729 -0.2297  0.2146 -0.3869
 3213SOL    HW1 9638   3.949   2.390   9.782 -0.7204 -1.2438  0.7282
 3213SOL    HW2 9639   4.093   2.366   9.743 -0.6315  1.8004 -1.2149
 3214SOL     OW 9640   2.605   1.193   7.421 -0.8133 -0.9878 -0.2912
 3214SOL    HW1 9641   2.599   1.116   7.478 -2.3338 -1.0296 -0.4785
 3214SOL    HW2 9642   2.699   1.212   7.417 -0.6670 -0.5329  2.8341
 3215SOL     OW 9643   0.556   1.095   6.747 -0.3624 -0.2367 -0.1995
 3215SOL    HW1 9644   0.466   1.079   6.778 -0.6111  0.2416 -0.6716
 3215SOL    HW2 9645   0.604   1.017   6.775 -0.9675 -0.5894 -0.1159
 3216SOL     OW 9646   4.136   0.225   5.780 -0.0842  0.2385  0.1120
 3216SOL    HW1 9647   4.094   0.175   5.850  1.3845 -1.9261 -0.4506
 3216SOL    HW2 9648   4.064   0.256   5.725 -1.2101  1.2119  2.0013
 3217SOL     OW 9649   2.507   0.639   8.143  0.1507 -0.0503 -0.1449
 3217SOL    HW1 9650   2.546   0.684   8.068  1.3182 -1.4515 -0.4271
 3217SOL    HW2 9651   2.480   0.554   8.109 -2.0683  0.3908  0.3567
 3218SOL     OW 9652   0.181   0.739   9.930  0.3944 -0.1338 -0.2350
 3218SOL    HW1 9653   0.110   0.768   9.873  0.6455 -1.1131 -1.0772
 3218SOL    HW2 9654   0.261   0.755   9.879  0.6479 -0.6839 -0.0169
 3219SOL     OW 9655   2.069   0.077   9.348  0.1005  0.3007  0.3891
 3219SOL    HW1 9656   2.105   0.010   9.407  2.0395  0.5946 -0.3964
 3219SOL    HW2 9657   2.142   0.101   9.292 -0.9086  2.1725 -0.1924
 3220SOL     OW 9658   0.877   4.971   6.494  0.1679 -0.6558  0.0511
 3220SOL    HW1 9659   0.798   4.950   6.443 -1.8299 -0.3423  2.7848
 3220SOL    HW2 9660   0.948   4.925   6.448 -1.0787  0.9231 -3.8872
 3221SOL     OW 9661   0.592   3.019   8.597  0.0793 -0.1701 -0.0263
 3221SOL    HW1 9662   0.647   2.985   8.526  0.5010 -0.7242  0.5636
 3221SOL    HW2 9663   0.647   3.084   8.640 -0.7802  1.4810 -1.2634
 3222SOL     OW 9664   4.836   1.634   8.632 -0.0805  0.0464 -0.0222
 3222SOL    HW1 9665   4.747   1.665   8.646  0.0801 -0.0497  1.3462
 3222SOL    HW2 9666   4.866   1.606   8.719  1.0435 -0.5556 -0.5799
 3223SOL     OW 9667   3.870   4.578   6.374  0.0142  0.0634  0.0130
 3223SOL    HW1 9668   3.897   4.524   6.300 -1.7205 -0.5407 -0.2284
 3223SOL    HW2 9669   3.940   4.569   6.438  0.7490 -0.7603 -0.8801
 3224SOL     OW 9670   0.540   4.235   7.719 -0.0033 -0.4933  0.0830
 3224SOL    HW1 9671   0.486   4.163   7.688  0.1866  0.0075 -1.4838
 3224SOL    HW2 9672   0.625   4.195   7.739  0.2470 -0.6599 -1.2180
 3225SOL     OW 9673   0.168   2.471   8.652 -0.0249  0.1921  0.2172
 3225SOL    HW1 9674   0.169   2.397   8.712  1.0551  0.7215  0.8891
 3225SOL    HW2 9675   0.205   2.437   8.571 -0.2709 -0.1990  0.2685
 3226SOL     OW 9676   4.540   2.100   7.475  0.2232 -0.1112 -0.2978
 3226SOL    HW1 9677   4.506   2.099   7.386  0.9023  1.5718 -0.6262
 3226SOL    HW2 9678   4.607   2.168   7.474 -0.4189  0.6364  1.7232
 3227SOL     OW 9679   4.075   1.617   5.218 -0.1733  0.6487 -0.2382
 3227SOL    HW1 9680   4.107   1.638   5.131  0.5983  0.6662  0.0403
 3227SOL    HW2 9681   4.027   1.694   5.246 -0.8716  0.4443 -0.8488
 3228SOL     OW 9682   4.679   2.274   8.196 -0.8138  0.2102 -0.4404
 3228SOL    HW1 9683   4.613   2.342   8.211 -1.1961 -0.2037 -0.2061
 3228SOL    HW2 9684   4.652   2.233   8.114 -1.8122 -1.0367  0.4730
 3229SOL     OW 9685   0.962   4.592   8.529 -0.3173 -0.0456 -0.4854
 3229SOL    HW1 9686   1.020   4.651   8.577  0.0169  0.7965 -1.8756
 3229SOL    HW2 9687   0.984   4.505   8.562  2.8221  0.0479 -1.9297
 3230SOL     OW 9688   3.146   2.973   8.067  0.2580  0.2483  0.2685
 3230SOL    HW1 9689   3.147   2.965   8.162 -0.2004  1.3508  0.3794
 3230SOL    HW2 9690   3.057   2.951   8.041  0.9072 -2.1983 -0.1519
 3231SOL     OW 9691   0.834   3.685   8.119  0.1334  0.2116 -0.8376
 3231SOL    HW1 9692   0.891   3.642   8.055  0.7703  2.2917 -1.7418
 3231SOL    HW2 9693   0.765   3.621   8.137  0.8076 -1.0060 -2.4069
 3232SOL     OW 9694   4.305   0.729   7.471  0.0755  0.2520  0.6316
 3232SOL    HW1 9695   4.243   0.786   7.426  0.7496 -0.6068 -1.4894
 3232SOL    HW2 9696   4.260   0.704   7.551 -2.8461 -1.2209 -1.2992
 3233SOL     OW 9697   0.008   1.846   8.542  0.9700  0.2597  0.1030
 3233SOL    HW1 9698   0.040   1.823   8.454 -1.5647  3.2695 -1.8444
 3233SOL    HW2 9699  -0.046   1.772   8.567  2.2261 -0.9301 -0.5641
 3234SOL     OW 9700   1.412   1.544   6.611  0.0820  0.3024 -0.0236
 3234SOL    HW1 9701   1.329   1.579   6.643  0.3615 -0.0070  1.0776
 3234SOL    HW2 9702   1.410   1.560   6.517 -1.1217  0.5160  0.0220
 3235SOL     OW 9703  -0.022   4.009   6.823  0.0965  0.0599 -0.4976
 3235SOL    HW1 9704   0.043   4.016   6.753  1.0489  1.0009  0.4492
 3235SOL    HW2 9705   0.003   3.930   6.871  2.7075  2.1491  1.8981
 3236SOL     OW 9706   4.632   2.854   5.254  0.3616 -0.2288 -0.0630
 3236SOL    HW1 9707   4.705   2.816   5.206  1.4829 -0.6711  1.8800
 3236SOL    HW2 9708   4.614   2.936   5.209  3.7407  1.1554  0.7726
 3237SOL     OW 9709   2.201   2.892   9.601  0.0634  0.2879  0.3374
 3237SOL    HW1 9710   2.280   2.882   9.548 -0.2784  1.0514 -0.3386
 3237SOL    HW2 9711   2.151   2.961   9.557 -1.6086 -1.0627 -0.0036
 3238SOL     OW 9712   3.919   0.800   9.290 -0.1060  0.1171  0.4413
 3238SOL    HW1 9713   3.908   0.719   9.340 -1.4600  0.1883  0.2970
 3238SOL    HW2 9714   3.831   0.836   9.282  0.4070  1.3698  0.0898
 3239SOL     OW 9715   2.862   0.399   9.130 -0.3290 -0.2475  0.5485
 3239SOL    HW1 9716   2.770   0.379   9.146 -0.0696 -0.8272  1.3336
 3239SOL    HW2 9717   2.887   0.342   9.058 -0.4079 -0.5644  0.7719
 3240SOL     OW 9718   4.403   2.816   9.147  0.5075 -0.5987 -0.5578
 3240SOL    HW1 9719   4.362   2.756   9.209  0.6162 -1.5748 -1.4042
 3240SOL    HW2 9720   4.352   2.897   9.155  0.0065 -0.9755  0.1995
 3241SOL     OW 9721   4.749   4.139   7.917  0.3516 -0.4646 -0.0361
 3241SOL    HW1 9722   4.798   4.221   7.910  1.3621 -1.0721 -0.4207
 3241SOL    HW2 9723   4.693   4.150   7.993  1.4952  0.0702  0.7576
 3242SOL     OW 9724   1.961   2.284   5.854  0.0664  0.5253 -0.7911
 3242SOL    HW1 9725   1.928   2.249   5.771  0.0768  1.7836 -1.3515
 3242SOL    HW2 9726   1.957   2.379   5.843 -3.0466  0.8880  1.8571
 3243SOL     OW 9727   0.227   4.363   6.116  0.1244 -0.0157  0.1934
 3243SOL    HW1 9728   0.218   4.271   6.142  2.0012  0.2134  1.8104
 3243SOL    HW2 9729   0.179   4.412   6.182  0.9308  0.2811  0.5704
 3244SOL     OW 9730   1.767   0.915   7.341 -0.5366  0.1702 -0.0208
 3244SOL    HW1 9731   1.688   0.909   7.395  0.9008  0.0583  2.2038
 3244SOL    HW2 9732   1.798   1.005   7.354  0.3637 -0.1559  0.1440
 3245SOL     OW 9733   0.343   4.833   7.550 -0.2555  0.2505  0.2698
 3245SOL    HW1 9734   0.336   4.926   7.527 -0.1817 -0.2096 -1.8105
 3245SOL    HW2 9735   0.432   4.809   7.524 -0.5082 -0.5635  0.1253
 3246SOL     OW 9736   3.804   0.970   8.113 -0.0951  0.2732 -0.2191
 3246SOL    HW1 9737   3.743   1.024   8.164 -1.3395 -0.8455 -0.4540
 3246SOL    HW2 9738   3.787   0.995   8.022 -0.2626 -0.0935 -0.2895
 3247SOL     OW 9739   4.055   4.693   6.074 -0.4251 -0.0203 -0.3846
 3247SOL    HW1 9740   4.069   4.630   6.145  1.1120 -0.7588 -1.2908
 3247SOL    HW2 9741   3.993   4.756   6.110 -1.4448 -1.6260  0.8210
 3248SOL     OW 9742   4.497   2.873   8.079 -0.0004  0.6399  0.3727
 3248SOL    HW1 9743   4.441   2.812   8.032  1.8475 -1.1934  0.4042
 3248SOL    HW2 9744   4.440   2.946   8.102 -1.7533  0.0229 -1.7147
 3249SOL     OW 9745   1.899   0.406   7.051 -0.4280  0.8501  0.3202
 3249SOL    HW1 9746   1.838   0.480   7.048  0.8713  1.9397 -1.3496
 3249SOL    HW2 9747   1.986   0.445   7.043  0.3355 -0.8126 -0.1565
 3250SOL     OW 9748   0.882   0.947   9.916  0.0916 -0.8923 -0.2320
 3250SOL    HW1 9749   0.879   1.002   9.995 -2.2927 -0.4854 -0.5307
 3250SOL    HW2 9750   0.880   1.010   9.844 -2.4873 -1.2643 -0.5805
 3251SOL     OW 9751   4.346   2.876   8.835 -0.0123  0.9212  0.4790
 3251SOL    HW1 9752   4.418   2.848   8.891  0.6103  2.1675  0.3400
 3251SOL    HW2 9753   4.386   2.936   8.773 -0.6557 -0.5657 -1.4619
 3252SOL     OW 9754   0.075   1.125   8.926 -0.3558  0.0440  0.3279
 3252SOL    HW1 9755   0.075   1.088   8.838  0.0154 -0.9055  0.7090
 3252SOL    HW2 9756   0.139   1.196   8.923 -0.8934  0.5177 -0.3515
 3253SOL     OW 9757   3.855   1.422   8.711  0.0811  0.4722  0.5693
 3253SOL    HW1 9758   3.927   1.477   8.679 -0.0045 -0.2171 -0.9059
 3253SOL    HW2 9759   3.778   1.454   8.663  0.3153 -1.9391 -1.6297
 3254SOL     OW 9760   2.115   3.972   6.723 -0.0354  0.5302 -0.1154
 3254SOL    HW1 9761   2.058   3.978   6.800 -2.9832  1.5231 -2.2091
 3254SOL    HW2 9762   2.147   4.061   6.709 -2.2305  1.1362 -1.8350
 3255SOL     OW 9763   3.546   4.279   8.638 -0.1514 -0.1595  0.2307
 3255SOL    HW1 9764   3.613   4.255   8.574  0.7131  1.2991  0.5414
 3255SOL    HW2 9765   3.591   4.336   8.699 -1.2462 -0.6372  1.5269
 3256SOL     OW 9766   2.265   2.534   7.407 -0.4482 -0.1181 -0.5675
 3256SOL    HW1 9767   2.200   2.576   7.350 -1.4605 -1.5665 -0.5389
 3256SOL    HW2 9768   2.245   2.568   7.494 -0.9114 -0.2483 -0.6199
 3257SOL     OW 9769   3.224   1.405   8.037 -0.0713 -0.0571 -0.0896
 3257SOL    HW1 9770   3.233   1.386   8.130 -0.9439  2.1770  0.5156
 3257SOL    HW2 9771   3.159   1.475   8.032 -0.2723 -0.3033 -2.4169
 3258SOL     OW 9772   2.048   2.135   8.742  0.0944  0.2962 -0.1772
 3258SOL    HW1 9773   2.007   2.059   8.702 -0.1377  0.5214 -0.3705
 3258SOL    HW2 9774   2.070   2.192   8.669  1.0018  0.0622 -0.0933
 3259SOL     OW 9775   4.358   0.701   8.010  0.3283 -0.3211  0.2347
 3259SOL    HW1 9776   4.277   0.720   8.056  1.0107  0.8147  1.0467
 3259SOL    HW2 9777   4.335   0.635   7.945 -1.7732  1.6545 -1.1891
 3260SOL     OW 9778   3.734   0.861   7.172  0.0805  0.1807  0.5077
 3260SOL    HW1 9779   3.797   0.796   7.202 -1.3497 -2.9685 -2.5810
 3260SOL    HW2 9780   3.656   0.847   7.226 -0.0456 -0.3905  0.1896
 3261SOL     OW 9781   2.712   1.330   8.588 -0.1828 -0.2871  0.2123
 3261SOL    HW1 9782   2.695   1.256   8.530 -0.4258 -0.0215 -0.0607
 3261SOL    HW2 9783   2.805   1.349   8.574 -0.5608  0.7347 -1.2694
 3262SOL     OW 9784   3.472   0.074   7.457  0.7233 -0.1697 -0.0951
 3262SOL    HW1 9785   3.432   0.103   7.539 -2.0105  0.4736 -1.5258
 3262SOL    HW2 9786   3.505   0.155   7.417  0.3723 -0.1949 -0.4448
 3263SOL     OW 9787   4.425   0.906   8.502  0.0520  0.1299  0.5489
 3263SOL    HW1 9788   4.356   0.842   8.515 -0.7812  1.2112  1.6605
 3263SOL    HW2 9789   4.493   0.881   8.565 -0.9347  1.2016  2.0929
 3264SOL     OW 9790   1.175   1.227   9.627 -0.1559 -0.6085  0.5619
 3264SOL    HW1 9791   1.106   1.162   9.642 -2.2019  1.3023 -0.0511
 3264SOL    HW2 9792   1.138   1.309   9.661  1.9975  0.4165  0.5520
 3265SOL     OW 9793   3.475   1.506   8.216 -0.1678  0.1212 -0.0969
 3265SOL    HW1 9794   3.564   1.520   8.185 -0.3792 -2.3706 -2.1810
 3265SOL    HW2 9795   3.481   1.428   8.271 -1.0469 -0.1327 -0.3413
 3266SOL     OW 9796   0.213   3.998   5.955  0.1847 -0.2823 -0.2278
 3266SOL    HW1 9797   0.186   4.012   5.865 -0.9560  0.4281  0.2123
 3266SOL    HW2 9798   0.134   3.970   6.001  0.6423 -0.1883  0.6558
 3267SOL     OW 9799   3.163   1.045   5.852  0.1090  0.2192 -0.0176
 3267SOL    HW1 9800   3.235   1.046   5.790 -0.1117 -1.4337 -0.3534
 3267SOL    HW2 9801   3.171   1.128   5.899  1.8072  0.3771 -0.5039
 3268SOL     OW 9802   4.171   4.097   5.538 -0.3120  0.2192  0.4631
 3268SOL    HW1 9803   4.080   4.077   5.516 -0.7652  0.3839  2.0286
 3268SOL    HW2 9804   4.181   4.063   5.628  1.9456 -2.1897 -0.5672
 3269SOL     OW 9805   3.625   0.276   8.858 -0.1492  0.2714 -0.0180
 3269SOL    HW1 9806   3.620   0.359   8.906  0.6182  1.0808 -1.2927
 3269SOL    HW2 9807   3.715   0.246   8.871 -0.6312 -0.8372  1.1207
 3270SOL     OW 9808   0.676   4.362   6.141 -0.2570  0.0281 -0.2044
 3270SOL    HW1 9809   0.742   4.318   6.088 -1.4659 -0.1506 -1.6433
 3270SOL    HW2 9810   0.615   4.398   6.077 -1.3703  0.4626  1.0627
 3271SOL     OW 9811   0.222   0.655   7.315 -0.2183  0.2948 -0.0299
 3271SOL    HW1 9812   0.147   0.670   7.257  0.3892 -2.6591 -1.7690
 3271SOL    HW2 9813   0.292   0.627   7.257  1.1424 -0.5852  1.9324
 3272SOL     OW 9814   3.134   0.811   6.588  0.2551  0.4466  0.9876
 3272SOL    HW1 9815   3.219   0.791   6.628  0.5102 -1.8502 -0.5376
 3272SOL    HW2 9816   3.070   0.790   6.657  0.7785 -1.5503  0.9223
 3273SOL     OW 9817   3.013   0.145   7.383  0.1423  0.0490 -0.4633
 3273SOL    HW1 9818   3.073   0.112   7.317  0.5145  1.3037 -0.7803
 3273SOL    HW2 9819   3.023   0.085   7.457  2.1003  0.4124 -0.3607
 3274SOL     OW 9820   0.600   1.762   7.819  0.0039 -0.3511 -0.3894
 3274SOL    HW1 9821   0.601   1.837   7.760 -2.3187 -0.5437 -0.7396
 3274SOL    HW2 9822   0.512   1.726   7.812  0.2813 -1.6108  1.7001
 3275SOL     OW 9823   4.894   2.647   8.744 -0.1740  0.2975  0.4900
 3275SOL    HW1 9824   4.876   2.650   8.838 -0.3633  1.2712  0.4250
 3275SOL    HW2 9825   4.989   2.661   8.738 -0.3374  1.4789  0.4758
 3276SOL     OW 9826   4.499   1.185   7.372  0.7008 -0.3199 -0.2182
 3276SOL    HW1 9827   4.471   1.135   7.449  1.4515 -0.1650  0.1671
 3276SOL    HW2 9828   4.545   1.261   7.408 -0.6965  0.8350 -0.7865
 3277SOL     OW 9829   3.522   0.552   6.804  0.3723  0.1441 -0.3726
 3277SOL    HW1 9830   3.448   0.491   6.814  0.1668  0.1973 -1.4302
 3277SOL    HW2 9831   3.552   0.568   6.894 -0.9133  0.1450  0.0815
 3278SOL     OW 9832   2.472   1.121   7.918  0.3606  0.1684 -0.3927
 3278SOL    HW1 9833   2.533   1.114   7.844  1.6724  1.0393  0.5885
 3278SOL    HW2 9834   2.427   1.204   7.904  0.7090  0.3996 -0.1306
 3279SOL     OW 9835   1.629   2.798   7.336  0.0855  0.6769 -1.2393
 3279SOL    HW1 9836   1.544   2.754   7.346 -0.5418  1.7716 -1.5525
 3279SOL    HW2 9837   1.615   2.861   7.265  1.1259  0.9701 -1.1992
 3280SOL     OW 9838   4.766   0.344   5.469  0.4918  0.5694  0.0526
 3280SOL    HW1 9839   4.705   0.319   5.400  0.0806  0.7872  0.3352
 3280SOL    HW2 9840   4.847   0.297   5.447 -0.2678 -1.0570  0.5859
 3281SOL     OW 9841   0.117   2.689   6.696  0.6693 -0.0017  0.5422
 3281SOL    HW1 9842   0.068   2.753   6.748  3.3337  2.5804  0.1563
 3281SOL    HW2 9843   0.183   2.655   6.756  2.2360  1.2082 -0.4161
 3282SOL     OW 9844   0.599   0.688   8.338  0.0067  0.2803  0.0186
 3282SOL    HW1 9845   0.537   0.714   8.270  1.1532  3.0580 -0.0867
 3282SOL    HW2 9846   0.549   0.629   8.395 -2.0122  0.6198 -1.3239
 3283SOL     OW 9847   0.537   0.164   5.152 -0.2299 -0.0078 -0.6402
 3283SOL    HW1 9848   0.604   0.116   5.104 -1.8415 -1.0154 -1.9800
 3283SOL    HW2 9849   0.474   0.097   5.179 -1.5716  1.0918 -0.9194
 3284SOL     OW 9850   0.130   1.757   7.839 -0.4842 -0.5741  0.0717
 3284SOL    HW1 9851   0.045   1.779   7.876 -0.6370 -1.6271  0.4048
 3284SOL    HW2 9852   0.187   1.830   7.864 -1.5033  0.6376 -1.0372
 3285SOL     OW 9853   4.417   0.601   9.910  0.0083 -0.0765  0.0197
 3285SOL    HW1 9854   4.492   0.625   9.855  0.2157 -1.7050 -0.4414
 3285SOL    HW2 9855   4.427   0.654   9.989  1.1806  0.3317 -0.3890
 3286SOL     OW 9856   3.698   4.676   6.598 -0.6343  0.1501 -0.1070
 3286SOL    HW1 9857   3.741   4.618   6.536 -0.4212 -0.4088  0.5602
 3286SOL    HW2 9858   3.769   4.722   6.642 -0.8095  1.2126 -0.8967
 3287SOL     OW 9859   4.127   3.058   7.738  0.1125  0.5061  0.1190
 3287SOL    HW1 9860   4.038   3.030   7.714 -0.0634  0.8865  0.3260
 3287SOL    HW2 9861   4.165   3.088   7.657  0.4922 -0.8194 -0.2247
 3288SOL     OW 9862   0.112   0.639   8.106 -0.2026  0.6017  0.4686
 3288SOL    HW1 9863   0.071   0.700   8.167 -0.9805  1.7378 -1.1056
 3288SOL    HW2 9864   0.178   0.692   8.061  0.9804 -0.4506  0.9228
 3289SOL     OW 9865   1.269   1.409   7.866 -0.0265  0.7032 -0.2465
 3289SOL    HW1 9866   1.218   1.470   7.813  0.5583  0.4659 -1.1210
 3289SOL    HW2 9867   1.205   1.350   7.904 -0.5203  1.3078 -0.1255
 3290SOL     OW 9868   4.612   3.111   5.106  0.6953  0.8152  0.3789
 3290SOL    HW1 9869   4.528   3.131   5.065 -0.2431 -1.4659  1.0466
 3290SOL    HW2 9870   4.597   3.125   5.200  0.6939 -0.6490  0.6154
 3291SOL     OW 9871   1.989   0.704   6.320 -0.3203 -0.5843  0.0222
 3291SOL    HW1 9872   2.040   0.627   6.345  0.4230  0.1813  0.9364
 3291SOL    HW2 9873   1.920   0.710   6.387 -0.2666 -0.3521  0.0587
 3292SOL     OW 9874   3.144   1.130   6.651  0.2342  0.1351 -0.2330
 3292SOL    HW1 9875   3.083   1.163   6.586 -0.2255  0.2096  0.2369
 3292SOL    HW2 9876   3.132   1.035   6.650 -0.8184  0.2444  0.7719
 3293SOL     OW 9877   4.283   1.890   7.168 -0.2368 -1.4669  0.3316
 3293SOL    HW1 9878   4.237   1.806   7.174 -0.7548 -1.1845  0.4239
 3293SOL    HW2 9879   4.371   1.867   7.139  0.2328 -2.2259  2.1904
 3294SOL     OW 9880   3.923   1.785   8.962  0.1526 -0.8474  0.0118
 3294SOL    HW1 9881   3.906   1.708   9.016  2.7330  0.2599  2.6485
 3294SOL    HW2 9882   4.006   1.767   8.917 -1.2766 -1.1856 -2.7537
 3295SOL     OW 9883   3.193   0.975   6.941 -0.5737 -0.5133 -0.2222
 3295SOL    HW1 9884   3.104   0.961   6.908 -1.7042  2.3091  1.2630
 3295SOL    HW2 9885   3.185   0.966   7.036  1.0632 -1.5081 -0.1456
 3296SOL     OW 9886   4.641   1.461   9.873 -0.2951  0.2447  0.4101
 3296SOL    HW1 9887   4.642   1.375   9.914  1.8439  0.8646  1.8557
 3296SOL    HW2 9888   4.614   1.521   9.942  1.1005  1.0414  0.3131
 3297SOL     OW 9889   0.100   2.031   7.637  0.6336  0.6122 -0.3873
 3297SOL    HW1 9890   0.188   1.999   7.619  1.8036  2.4905  1.5375
 3297SOL    HW2 9891   0.077   1.992   7.722 -0.1958  0.5341 -0.6404
 3298SOL     OW 9892   4.055   0.135   7.310  0.1683  0.3970  0.1084
 3298SOL    HW1 9893   4.122   0.167   7.249  0.3941 -0.5800 -0.1761
 3298SOL    HW2 9894   4.079   0.174   7.394  0.7683  0.5123 -0.1113
 3299SOL     OW 9895   0.804   0.615   9.616 -0.5707  0.7371  0.3352
 3299SOL    HW1 9896   0.830   0.589   9.528  0.6385  0.9609  0.6132
 3299SOL    HW2 9897   0.817   0.537   9.670  1.3106  1.3386  0.8167
 3300SOL     OW 9898   3.999   2.529   7.303 -0.5293 -0.3548 -0.3546
 3300SOL    HW1 9899   4.050   2.499   7.379 -0.4287  0.5940 -0.0300
 3300SOL    HW2 9900   4.056   2.510   7.228 -0.5261 -1.0773 -0.1821
 3301SOL     OW 9901   3.987   2.243   8.359 -0.4164 -0.6964 -0.1646
 3301SOL    HW1 9902   4.041   2.165   8.344  0.6417 -0.1052  0.4537
 3301SOL    HW2 9903   4.007   2.268   8.450 -1.2457 -0.0884 -0.1441
 3302SOL     OW 9904   4.762   1.134   7.808  0.0238  0.0874 -0.4096
 3302SOL    HW1 9905   4.838   1.181   7.773  0.2081 -0.0414 -0.1843
 3302SOL    HW2 9906   4.791   1.102   7.894 -0.8389  1.4792  0.4326
 3303SOL     OW 9907   4.316   1.592   6.592  0.1867  0.1401 -0.2645
 3303SOL    HW1 9908   4.363   1.546   6.523  1.5307  0.9821  0.0419
 3303SOL    HW2 9909   4.292   1.523   6.655  2.3395 -0.1790  0.2910
 3304SOL     OW 9910   3.459   1.071   7.401 -0.3221 -0.0660  0.2327
 3304SOL    HW1 9911   3.535   1.128   7.396 -1.2098  1.0475 -1.5661
 3304SOL    HW2 9912   3.425   1.083   7.489  1.1662 -0.0657  0.8328
 3305SOL     OW 9913   4.468   1.089   7.629  0.5354 -0.2447  0.1321
 3305SOL    HW1 9914   4.395   1.056   7.681 -1.0807  1.9094 -0.6216
 3305SOL    HW2 9915   4.511   1.153   7.686  0.7041 -0.1641 -0.0836
 3306SOL     OW 9916   2.208   2.307   6.427 -0.2280  0.8261 -0.0722
 3306SOL    HW1 9917   2.138   2.279   6.486 -0.8390 -0.1341 -1.2202
 3306SOL    HW2 9918   2.172   2.295   6.339  2.1145 -1.8172 -0.8083
 3307SOL     OW 9919   4.052   1.782   7.910  0.1555 -0.2376 -0.8390
 3307SOL    HW1 9920   3.958   1.795   7.900  0.1005  0.2454  0.1834
 3307SOL    HW2 9921   4.060   1.694   7.949  0.2210 -0.8855 -2.2497
 3308SOL     OW 9922   4.553   3.043   6.940  0.0274 -0.2411  0.1865
 3308SOL    HW1 9923   4.544   3.105   7.012  0.5867 -0.5365  0.5191
 3308SOL    HW2 9924   4.644   3.011   6.947  0.4934  0.6425 -1.3911
 3309SOL     OW 9925   1.690   4.158   6.826 -0.5567 -0.3732  0.1723
 3309SOL    HW1 9926   1.775   4.188   6.857 -0.4570 -0.0074 -0.4425
 3309SOL    HW2 9927   1.637   4.149   6.906 -0.3360  0.6417  0.4473
 3310SOL     OW 9928   2.841   2.125   8.958  0.2404  0.1406  0.1201
 3310SOL    HW1 9929   2.863   2.038   8.990  0.5724  0.0007 -0.4714
 3310SOL    HW2 9930   2.746   2.125   8.951  0.1198  0.3497  1.5812
 3311SOL     OW 9931   3.480   0.984   6.861  0.1543 -0.0404  0.0450
 3311SOL    HW1 9932   3.476   1.057   6.799 -0.6618 -2.9503 -3.6911
 3311SOL    HW2 9933   3.390   0.951   6.864  0.4484 -0.7458  1.8732
 3312SOL     OW 9934   4.556   1.758   8.166 -1.1300  0.1885  0.3834
 3312SOL    HW1 9935   4.600   1.678   8.195  0.3320  0.5002 -0.8654
 3312SOL    HW2 9936   4.537   1.743   8.074 -2.5175  0.5923  0.5763
 3313SOL     OW 9937   3.705   4.366   5.956 -0.3313  0.3077 -0.3606
 3313SOL    HW1 9938   3.794   4.393   5.934  0.6487 -1.6000  0.9869
 3313SOL    HW2 9939   3.691   4.399   6.045 -0.1138 -1.1846  0.2653
 3314SOL     OW 9940   4.143   4.854   5.720 -0.1852  0.4201 -0.6922
 3314SOL    HW1 9941   4.191   4.774   5.742 -1.8446 -0.6208 -0.6345
 3314SOL    HW2 9942   4.180   4.921   5.776  0.9242 -0.4251 -0.3915
 3315SOL     OW 9943   3.500   1.364   5.577  0.0841 -0.4060 -0.0816
 3315SOL    HW1 9944   3.476   1.413   5.655  1.2001 -1.3455  0.8840
 3315SOL    HW2 9945   3.596   1.362   5.578  0.1062 -2.9314  0.1673
 3316SOL     OW 9946   0.800   2.348   8.711  0.1969  0.5127 -0.2325
 3316SOL    HW1 9947   0.796   2.390   8.797 -0.2354  0.4188 -0.2052
 3316SOL    HW2 9948   0.835   2.416   8.653  1.2760  0.3156  0.1681
 3317SOL     OW 9949   0.646   2.213   5.726  0.2625 -0.0239  0.5194
 3317SOL    HW1 9950   0.711   2.277   5.699  0.6805 -1.6699 -2.9616
 3317SOL    HW2 9951   0.693   2.151   5.781  1.7065 -0.9982 -1.6686
 3318SOL     OW 9952   4.591   0.895   8.025 -0.3499  0.8087  0.2575
 3318SOL    HW1 9953   4.546   0.812   8.040 -0.4809  0.8374  0.0291
 3318SOL    HW2 9954   4.608   0.929   8.113  1.3491 -0.3361  0.4136
 3319SOL     OW 9955   3.134   0.431   7.398 -0.0446 -0.3260  0.1456
 3319SOL    HW1 9956   3.135   0.354   7.342  1.8823 -0.9914  1.0201
 3319SOL    HW2 9957   3.050   0.427   7.444 -1.2872 -0.2376 -1.9566
 3320SOL     OW 9958   3.332   1.209   8.810  0.2277 -0.2752 -0.3864
 3320SOL    HW1 9959   3.392   1.207   8.884  0.9661 -1.0096 -0.9756
 3320SOL    HW2 9960   3.354   1.289   8.762 -1.4957  1.1908  1.1401
 3321SOL     OW 9961   1.143   1.574   6.145 -0.2523  0.1613 -0.0019
 3321SOL    HW1 9962   1.074   1.524   6.100 -0.8157 -0.2486  1.2833
 3321SOL    HW2 9963   1.223   1.548   6.100 -1.0203  1.8469 -2.6124
 3322SOL     OW 9964   4.114   1.339   8.408 -0.1492 -0.7578  0.0850
 3322SOL    HW1 9965   4.084   1.418   8.453  1.0605 -1.0504  1.4418
 3322SOL    HW2 9966   4.158   1.372   8.329 -0.3631 -0.1375  0.2186
 3323SOL     OW 9967   0.355   2.197   6.906  0.2347 -0.1989 -0.2795
 3323SOL    HW1 9968   0.260   2.194   6.904  0.2116 -0.3576  0.5571
 3323SOL    HW2 9969   0.381   2.202   6.814 -0.5690 -0.3950 -0.5268
 3324SOL     OW 9970   1.090   3.068   8.895 -0.7749 -0.1296  0.6915
 3324SOL    HW1 9971   1.076   3.162   8.908  0.8465  0.3126 -0.5158
 3324SOL    HW2 9972   1.109   3.059   8.802  2.4921 -1.1606  1.3279
 3325SOL     OW 9973   0.279   3.065   5.415  0.2994 -0.6209 -0.0559
 3325SOL    HW1 9974   0.306   2.987   5.366 -0.7900 -1.3320  0.4276
 3325SOL    HW2 9975   0.247   3.030   5.499  1.7965  0.5289  1.0598
 3326SOL     OW 9976   4.639   2.230   6.802  0.4077 -0.0092 -0.2786
 3326SOL    HW1 9977   4.730   2.260   6.801  0.1454  0.8064 -0.6131
 3326SOL    HW2 9978   4.601   2.267   6.723  0.0989 -1.3792 -0.8138
 3327SOL     OW 9979   4.772   1.641   7.524  0.1939  0.6375  0.2193
 3327SOL    HW1 9980   4.788   1.611   7.614  0.7215 -1.6440 -0.5508
 3327SOL    HW2 9981   4.837   1.710   7.509  1.1371 -0.0407  1.1039
 3328SOL     OW 9982   2.576   3.742   7.109 -0.4401  0.1054  0.4844
 3328SOL    HW1 9983   2.543   3.815   7.161  0.4726  0.1344  1.0309
 3328SOL    HW2 9984   2.669   3.759   7.099 -0.5271 -0.1061 -0.8471
 3329SOL     OW 9985   4.924   2.093   7.453 -0.4484  0.4891 -0.3419
 3329SOL    HW1 9986   4.996   2.081   7.514 -1.5618 -0.3789  0.8662
 3329SOL    HW2 9987   4.962   2.138   7.378  1.0301  1.3034  0.8618
 3330SOL     OW 9988   0.539   4.944   9.551  0.1341 -0.2828  0.2941
 3330SOL    HW1 9989   0.505   5.030   9.576 -1.5599 -0.6036 -0.7180
 3330SOL    HW2 9990   0.602   4.922   9.620 -1.6552  0.4251  2.2934
 3331SOL     OW 9991   2.704   1.518   9.834  0.2226 -0.0918  0.0698
 3331SOL    HW1 9992   2.679   1.464   9.908  0.1952 -1.1210 -0.6686
 3331SOL    HW2 9993   2.623   1.531   9.785  0.5093 -0.6566 -0.5624
 3332SOL     OW 9994   3.502   3.129   9.544  0.0787  0.5448 -0.2314
 3332SOL    HW1 9995   3.479   3.036   9.543 -0.0405  0.5735 -0.1137
 3332SOL    HW2 9996   3.421   3.174   9.570  0.0963  0.6920 -0.4221
 3333SOL     OW 9997   0.160   2.208   8.821  0.2226  0.3468  0.1304
 3333SOL    HW1 9998   0.126   2.198   8.910  1.0974 -1.2628  0.3279
 3333SOL    HW2 9999   0.116   2.139   8.771  1.4457 -0.2988 -0.1095
 3334SOL     OW10000   1.334   2.223   9.041 -0.6013 -0.4245 -0.5348
 3334SOL    HW110001   1.268   2.283   9.004 -0.5226  0.0632  0.1007
 3334SOL    HW210002   1.284   2.146   9.066 -0.7218 -0.5916 -1.2704
 3335SOL     OW10003   3.809   3.362   8.850  0.4647  0.0827  0.1803
 3335SOL    HW110004   3.723   3.319   8.849 -0.7405  2.2777  1.5833
 3335SOL    HW210005   3.872   3.290   8.851 -1.4152 -1.6408  1.0921
 3336SOL     OW10006   4.054   2.098   9.435  0.7347  0.1170 -0.1969
 3336SOL    HW110007   4.130   2.075   9.489 -0.0212 -0.4813  0.6452
 3336SOL    HW210008   4.003   2.158   9.490 -0.4341 -1.1011  0.0946
 3337SOL     OW10009   0.216   2.352   9.324 -0.0467 -0.1236  0.1949
 3337SOL    HW110010   0.124   2.330   9.316 -0.6389  1.4623  2.0342
 3337SOL    HW210011   0.253   2.279   9.373 -0.1681 -1.0029 -0.9647
 3338SOL     OW10012   4.415   3.445   8.008 -0.1577  0.0484  0.3002
 3338SOL    HW110013   4.343   3.403   8.057  0.1594  0.0393  0.7617
 3338SOL    HW210014   4.405   3.538   8.025 -0.1992  0.0685  0.1706
 3339SOL     OW10015   3.212   1.177   7.795 -0.4084 -0.4040 -0.5309
 3339SOL    HW110016   3.185   1.148   7.882 -0.6023 -1.2606 -0.8592
 3339SOL    HW210017   3.304   1.150   7.789  0.0375  0.9350 -0.0713
 3340SOL     OW10018   0.095   2.517   9.710  0.3580 -0.0443  0.1144
 3340SOL    HW110019   0.162   2.535   9.644 -0.1887  1.7614 -0.0027
 3340SOL    HW210020   0.145   2.496   9.789  1.0350 -3.1232 -0.9965
 3341SOL     OW10021   0.635   1.973   7.659 -0.4210  0.1799 -0.1479
 3341SOL    HW110022   0.713   2.023   7.685 -0.7660  0.6659 -0.0252
 3341SOL    HW210023   0.561   2.029   7.686 -0.8270 -0.6470  0.4935
 3342SOL     OW10024   3.203   2.431   9.629  0.8333  0.1683 -0.0781
 3342SOL    HW110025   3.110   2.453   9.622  0.6480 -0.4449  0.4366
 3342SOL    HW210026   3.231   2.473   9.710  0.4100 -1.6732  1.0675
 3343SOL     OW10027   4.708   0.914   8.298 -0.5706  1.0055  0.2589
 3343SOL    HW110028   4.787   0.951   8.338  0.4430 -1.1552  0.4004
 3343SOL    HW210029   4.656   0.883   8.372 -0.7725  0.9615  0.0999
 3344SOL     OW10030   3.280   0.654   9.906  0.4838  0.9021 -0.3586
 3344SOL    HW110031   3.262   0.691   9.819 -0.1581  1.1077 -0.1415
 3344SOL    HW210032   3.194   0.634   9.942  0.7765  0.2460 -0.0087
 3345SOL     OW10033   3.331   4.142   9.651 -0.0129  0.3515  0.2000
 3345SOL    HW110034   3.405   4.199   9.670  0.4796 -0.7288  1.7716
 3345SOL    HW210035   3.339   4.070   9.715 -1.4740 -0.6539 -0.6813
 3346SOL     OW10036   4.460   3.184   8.360 -0.8611 -0.4749  0.3412
 3346SOL    HW110037   4.487   3.170   8.269 -2.3802  0.2964 -0.2687
 3346SOL    HW210038   4.528   3.241   8.396 -1.6571  1.5804 -1.1946
 3347SOL     OW10039   0.741   1.029   7.764 -0.7200 -0.0585  0.5561
 3347SOL    HW110040   0.732   0.979   7.683 -0.9495 -0.0814  0.5969
 3347SOL    HW210041   0.723   1.120   7.738  0.7858  0.1797  0.2506
 3348SOL     OW10042   4.234   1.235   7.749 -0.1388  0.0778 -0.0244
 3348SOL    HW110043   4.298   1.190   7.804  0.3966 -0.8045 -1.3281
 3348SOL    HW210044   4.183   1.164   7.709 -0.1086  0.6770 -1.1445
 3349SOL     OW10045   4.035   1.583   8.526 -0.0906 -0.2285  0.3920
 3349SOL    HW110046   4.112   1.635   8.548 -0.4863 -0.1857  1.7653
 3349SOL    HW210047   3.961   1.638   8.551 -0.5691 -0.4790 -0.4238
 3350SOL     OW10048   1.871   0.510   8.515  0.1364  0.0034  0.6728
 3350SOL    HW110049   1.846   0.496   8.606  1.6228 -0.4516  1.0403
 3350SOL    HW210050   1.799   0.472   8.464  0.0144 -1.1381  1.6620
 3351SOL     OW10051   2.934   1.537   7.786 -0.4608 -0.6752  0.9527
 3351SOL    HW110052   3.002   1.595   7.754 -2.2811  2.0917  1.7747
 3351SOL    HW210053   2.864   1.545   7.721 -1.3367 -0.7118  1.8704
 3352SOL     OW10054   0.691   3.018   9.357 -0.5239  0.2461 -0.5654
 3352SOL    HW110055   0.605   3.018   9.398 -0.1248 -1.9819  0.4590
 3352SOL    HW210056   0.673   3.015   9.263 -1.5279  0.8057 -0.4081
 3353SOL     OW10057   4.105   3.457   9.414 -0.3477  0.3594  0.4555
 3353SOL    HW110058   4.192   3.440   9.452 -0.5133 -1.4455  0.0855
 3353SOL    HW210059   4.047   3.465   9.490  0.3037  3.0310  0.7881
 3354SOL     OW10060   4.227   2.742   7.269 -0.4959 -0.2104 -0.0124
 3354SOL    HW110061   4.189   2.800   7.336 -1.2645  0.5762 -1.0950
 3354SOL    HW210062   4.239   2.659   7.314  0.9795  0.8610  1.6910
 3355SOL     OW10063   0.119   3.285   7.201  0.3202  0.5541  0.0444
 3355SOL    HW110064   0.104   3.194   7.225 -0.2647  0.2401 -1.4153
 3355SOL    HW210065   0.043   3.332   7.236 -0.1904  0.2082 -0.5699
 3356SOL     OW10066   0.228   2.763  10.055 -0.5865 -0.4987 -0.3221
 3356SOL    HW110067   0.271   2.695  10.003 -0.8000 -1.3001  0.5240
 3356SOL    HW210068   0.296   2.794  10.115 -0.4013  0.2714 -0.9126
 3357SOL     OW10069   2.898   1.158   7.381  0.0639 -0.5503  0.5688
 3357SOL    HW110070   2.976   1.147   7.435  0.3747 -1.7404 -0.0868
 3357SOL    HW210071   2.928   1.142   7.292 -1.3393 -3.5193  0.5055
 3358SOL     OW10072   4.567  -0.005   9.680 -0.7023  0.2009  0.0050
 3358SOL    HW110073   4.533  -0.062   9.749 -0.3328 -0.2736 -0.1997
 3358SOL    HW210074   4.539   0.083   9.705  0.4936  0.2050  1.4339
 3359SOL     OW10075   3.759   2.811   8.798  0.0059 -0.1368  0.3076
 3359SOL    HW110076   3.674   2.854   8.814 -0.1791  0.2059 -1.3719
 3359SOL    HW210077   3.754   2.783   8.707  0.5397 -2.8620  1.0368
 3360SOL     OW10078   0.982   4.607   7.646  1.0835  0.1615  0.7103
 3360SOL    HW110079   0.951   4.519   7.627 -0.3573  0.4231  1.7134
 3360SOL    HW210080   1.020   4.637   7.563 -1.2870 -0.2469 -0.6338
 3361SOL     OW10081   1.400   1.297   9.054 -0.0872  0.5316 -0.0269
 3361SOL    HW110082   1.348   1.377   9.048 -0.8458  0.0720  0.2537
 3361SOL    HW210083   1.395   1.271   9.146 -1.7166 -1.0235 -0.4916
 3362SOL     OW10084   1.850   1.174   7.412  0.1073  0.0266  0.8015
 3362SOL    HW110085   1.876   1.201   7.500  1.6643 -0.7842  0.6302
 3362SOL    HW210086   1.915   1.214   7.355  0.4321 -1.2547  0.2431
 3363SOL     OW10087   3.428   4.793   7.215 -0.1948 -0.5885  0.3627
 3363SOL    HW110088   3.453   4.704   7.241  1.3077  0.3012  2.2570
 3363SOL    HW210089   3.510   4.842   7.216 -0.8913  0.6925 -1.3553
 3364SOL     OW10090   3.096   3.438   7.226 -0.2042  0.5560 -0.1157
 3364SOL    HW110091   3.140   3.514   7.188  0.5245  1.5691  2.5241
 3364SOL    HW210092   3.168   3.386   7.264 -0.8513 -0.6092 -0.4330
 3365SOL     OW10093   5.001   0.826   9.733 -0.2879  0.0920 -0.8380
 3365SOL    HW110094   4.934   0.758   9.737 -1.8784  1.5730 -1.3063
 3365SOL    HW210095   5.046   0.810   9.650 -0.5521 -0.4641 -0.8792
 3366SOL     OW10096   3.502   1.776   9.781  1.1661  0.3779  0.2221
 3366SOL    HW110097   3.417   1.756   9.819  0.8113  1.2706 -0.0873
 3366SOL    HW210098   3.505   1.726   9.700 -0.0244  2.0801 -0.9303
 3367SOL     OW10099   1.422   0.479   9.520 -0.0995 -0.7767  0.0802
 3367SOL    HW110100   1.504   0.491   9.473 -1.2166  1.3687 -1.4743
 3367SOL    HW210101   1.360   0.538   9.477 -1.9727 -0.8554  2.4260
 3368SOL     OW10102   3.592   4.770   7.936  0.8192 -0.1265  0.8206
 3368SOL    HW110103   3.655   4.842   7.942  1.9886 -1.1972  1.8944
 3368SOL    HW210104   3.611   4.729   7.851  0.2743  0.6713  0.2888
 3369SOL     OW10105   3.673   0.091   8.649  0.8901 -0.0832 -0.2711
 3369SOL    HW110106   3.643   0.152   8.717  1.0656 -0.0149 -0.2540
 3369SOL    HW210107   3.607   0.096   8.580  0.8516  0.0500 -0.2242
 3370SOL     OW10108   4.917   1.070   8.406 -0.5987  0.3227 -0.3262
 3370SOL    HW110109   4.999   1.109   8.375  0.4645 -0.7999  0.9475
 3370SOL    HW210110   4.851   1.138   8.393  0.3605  0.9891 -2.1126
 3371SOL     OW10111   1.120   0.899   9.227  0.3829  0.0322 -0.0469
 3371SOL    HW110112   1.072   0.963   9.175 -1.2619 -1.3227 -0.2948
 3371SOL    HW210113   1.200   0.883   9.177  0.5318  1.4233 -0.2812
 3372SOL     OW10114   4.333   1.299   8.169 -0.2359  1.1415 -0.4592
 3372SOL    HW110115   4.313   1.211   8.200 -1.2291  1.0622 -1.2833
 3372SOL    HW210116   4.426   1.295   8.145 -0.1469  0.4683 -0.0374
 3373SOL     OW10117   0.259   0.073   8.016 -0.7886 -0.0816 -0.3638
 3373SOL    HW110118   0.294   0.012   7.951  0.4253 -0.8687  0.9496
 3373SOL    HW210119   0.184   0.028   8.054 -1.1434  0.1348 -0.7929
 3374SOL     OW10120   4.494   0.085   9.999  1.0615  0.1326  0.1791
 3374SOL    HW110121   4.499  -0.003   9.961 -1.0926  0.0148  0.0332
 3374SOL    HW210122   4.517   0.072  10.091 -0.5308 -0.8747  0.4797
 3375SOL     OW10123   3.153   1.214   9.234 -0.0517  0.0318 -0.3205
 3375SOL    HW110124   3.075   1.204   9.179  0.2159  2.8061 -1.3788
 3375SOL    HW210125   3.128   1.280   9.299  1.4254  1.1805 -0.8513
 3376SOL     OW10126   3.365   2.743   8.840 -0.3304 -0.3485 -0.3961
 3376SOL    HW110127   3.408   2.701   8.914 -0.9267 -0.1062  0.0937
 3376SOL    HW210128   3.416   2.822   8.824 -0.2294 -0.3766 -0.2161
 3377SOL     OW10129   0.601   2.699   8.925 -0.3167  0.6121 -0.0169
 3377SOL    HW110130   0.645   2.775   8.887 -0.6652  1.2274  0.7713
 3377SOL    HW210131   0.607   2.713   9.020 -1.4652  0.2816  0.1226
 3378SOL     OW10132   4.184   3.993   6.887  0.3090 -0.3686  0.2492
 3378SOL    HW110133   4.246   3.955   6.950  1.6549 -3.2339 -2.4889
 3378SOL    HW210134   4.102   3.948   6.904  1.0727 -2.3309 -0.8880
 3379SOL     OW10135   2.415   1.387   7.532 -0.0874  0.0765  0.5813
 3379SOL    HW110136   2.496   1.360   7.489 -0.1157  0.9585 -0.0599
 3379SOL    HW210137   2.371   1.442   7.467 -0.6815  0.4997  1.3290
 3380SOL     OW10138   1.396   1.509   9.568 -0.2813  1.0235 -0.2491
 3380SOL    HW110139   1.435   1.597   9.562 -0.5144  1.1503  0.0554
 3380SOL    HW210140   1.303   1.526   9.586 -0.2395  0.7100  0.2723
 3381SOL     OW10141   3.709   1.217   8.516 -0.5387 -0.1168  0.3477
 3381SOL    HW110142   3.691   1.309   8.496 -2.0238 -0.2303  0.9736
 3381SOL    HW210143   3.720   1.216   8.611 -0.8043 -0.6290  0.3730
 3382SOL     OW10144   4.001   2.149   9.151 -0.7351 -0.1966  0.1923
 3382SOL    HW110145   3.980   2.242   9.145 -1.1427 -0.2567  0.6328
 3382SOL    HW210146   4.014   2.133   9.245 -0.8663 -0.6245  0.1439
 3383SOL     OW10147   0.411   2.038   8.156 -0.5596  0.2783 -0.2686
 3383SOL    HW110148   0.494   2.062   8.116 -0.8293 -0.8790 -1.6243
 3383SOL    HW210149   0.362   2.120   8.161 -0.5135  0.4984 -2.4049
 3384SOL     OW10150   4.026   1.423   9.427  0.0325  0.2381 -0.5993
 3384SOL    HW110151   4.056   1.346   9.378  2.1297  0.1251  0.7388
 3384SOL    HW210152   4.021   1.492   9.362  2.4636  0.0246 -1.1046
 3385SOL     OW10153   4.131   2.725   8.959 -0.1455  0.5497 -0.4083
 3385SOL    HW110154   4.193   2.667   9.003  0.6479  0.4477 -1.6014
 3385SOL    HW210155   4.187   2.787   8.911 -0.9370  0.0474 -2.0538
 3386SOL     OW10156   4.727   0.830  10.250  0.5422 -0.5242 -0.3549
 3386SOL    HW110157   4.787   0.857  10.319 -0.6162 -2.4459  1.5561
 3386SOL    HW210158   4.780   0.776  10.191  1.2177 -0.1129 -0.1319
 3387SOL     OW10159   3.341   4.464   8.558 -0.2448  0.6329  0.5159
 3387SOL    HW110160   3.398   4.392   8.586 -0.8528  0.8040  2.2586
 3387SOL    HW210161   3.387   4.543   8.587  0.9241  1.1089 -2.2570
 3388SOL     OW10162   2.491   4.082   8.765  0.1342  0.3291  0.3093
 3388SOL    HW110163   2.424   4.122   8.709 -0.5274 -0.4639  0.5171
 3388SOL    HW210164   2.547   4.155   8.791 -1.1725  1.1830  0.8459
 3389SOL     OW10165   1.059   2.251  10.218  0.3607  0.3908  0.1281
 3389SOL    HW110166   1.011   2.169  10.221  0.9970  0.0372  1.2769
 3389SOL    HW210167   1.006   2.308  10.162 -0.9611 -0.2410  0.6937
 3390SOL     OW10168   1.472   4.944   8.393 -0.5289  0.2257 -0.8342
 3390SOL    HW110169   1.542   4.889   8.428  1.1181  1.4930 -1.9992
 3390SOL    HW210170   1.419   4.966   8.470  1.5133  0.8474  0.4921
 3391SOL     OW10171   3.389   0.328   9.442  0.7253  0.7498 -0.0063
 3391SOL    HW110172   3.353   0.391   9.505 -0.9985  1.8259 -1.9433
 3391SOL    HW210173   3.372   0.368   9.357 -1.9618 -2.9685 -1.4767
 3392SOL     OW10174   4.351   0.134   8.780 -0.2430  0.2514 -0.1637
 3392SOL    HW110175   4.256   0.121   8.778 -0.2585  0.4538 -0.7583
 3392SOL    HW210176   4.369   0.198   8.711  0.3089  0.3331  0.0485
 3393SOL     OW10177   2.006   3.187   7.301 -0.2181 -0.1306  0.0491
 3393SOL    HW110178   1.933   3.160   7.357 -1.7838  4.3098  0.6265
 3393SOL    HW210179   2.063   3.238   7.359  1.5315 -0.6184 -1.1540
 3394SOL     OW10180   0.479   1.636   8.985  0.1577 -0.5667  0.0698
 3394SOL    HW110181   0.437   1.692   8.919 -1.6322 -1.9520 -0.0492
 3394SOL    HW210182   0.572   1.647   8.970 -0.1010  2.3753  0.0734
 3395SOL     OW10183   2.526   0.287   8.364 -0.6418  0.1723  0.2252
 3395SOL    HW110184   2.468   0.340   8.310 -0.6321  0.3064  0.3438
 3395SOL    HW210185   2.614   0.315   8.340 -0.6261 -0.0555  0.0196
 3396SOL     OW10186   0.376   0.858   8.228 -0.4498  0.3050 -0.1094
 3396SOL    HW110187   0.450   0.911   8.256 -0.2317 -0.5648  1.0458
 3396SOL    HW210188   0.402   0.824   8.142 -0.1802  1.2510 -0.4119
 3397SOL     OW10189   2.131   0.571   8.467  0.6008  0.1645  0.7307
 3397SOL    HW110190   2.117   0.630   8.392  2.9890  0.0755  0.1371
 3397SOL    HW210191   2.045   0.536   8.486 -0.4733  1.9531 -0.5066
 3398SOL     OW10192   0.287   4.654   7.333 -0.2274 -0.5719 -0.5390
 3398SOL    HW110193   0.314   4.736   7.292  2.8331 -0.5015  1.2952
 3398SOL    HW210194   0.292   4.671   7.427 -2.9269 -1.9133 -0.0541
 3399SOL     OW10195   4.109   3.022   9.818 -0.0241  0.3266  0.1341
 3399SOL    HW110196   4.060   2.943   9.844 -1.5058  1.3052  0.4425
 3399SOL    HW210197   4.103   3.024   9.723  2.5736 -1.4812 -0.1639
 3400SOL     OW10198   0.456   3.494   7.951 -0.1651 -0.9952 -0.0382
 3400SOL    HW110199   0.495   3.503   7.865 -0.8521  1.0306 -0.2197
 3400SOL    HW210200   0.474   3.578   7.994  0.6269 -2.1466  2.0132
 3401SOL     OW10201   3.836   2.860  10.053  0.1519  0.2055  0.0028
 3401SOL    HW110202   3.919   2.816  10.069  0.1664  0.0188 -0.5513
 3401SOL    HW210203   3.834   2.874   9.958 -0.5427  0.0001 -0.0184
 3402SOL     OW10204   0.239   1.693   9.697  0.4970  0.0621  0.1685
 3402SOL    HW110205   0.195   1.622   9.743 -0.0977  0.6129  0.4661
 3402SOL    HW210206   0.287   1.650   9.626 -0.9882 -0.5066 -0.5121
 3403SOL     OW10207   0.024   3.523   7.055  0.2540  0.7427  0.5057
 3403SOL    HW110208   0.057   3.462   7.121 -1.1136 -1.1579 -0.4631
 3403SOL    HW210209  -0.024   3.589   7.105 -0.1741 -0.2624  1.4622
 3404SOL     OW10210   4.209   1.772   8.600 -0.7325  0.4500 -0.2544
 3404SOL    HW110211   4.133   1.816   8.562 -0.5018  0.9144 -0.1858
 3404SOL    HW210212   4.281   1.834   8.588 -0.5636  0.4148  0.5351
 3405SOL     OW10213   4.041   3.558   9.172 -0.2763  0.0123 -0.0757
 3405SOL    HW110214   4.008   3.646   9.186 -1.2536 -0.5564  1.5008
 3405SOL    HW210215   4.075   3.531   9.257  3.4220  0.1466 -1.3249
 3406SOL     OW10216   3.550   2.676   8.239 -0.1057  0.7333 -0.9638
 3406SOL    HW110217   3.514   2.676   8.151  1.0806 -0.6686 -1.5007
 3406SOL    HW210218   3.487   2.627   8.291  1.1903 -2.4237 -2.0611
 3407SOL     OW10219   4.088   1.167   9.805 -0.2702 -0.0852 -0.9842
 3407SOL    HW110220   4.045   1.151   9.889  0.9572 -0.1973 -0.3606
 3407SOL    HW210221   4.096   1.080   9.766 -0.6023 -0.0615 -1.1150
 3408SOL     OW10222   3.725   1.491   8.462 -0.0021  0.0108  0.3587
 3408SOL    HW110223   3.754   1.568   8.509 -0.7191  0.6196 -0.1708
 3408SOL    HW210224   3.716   1.520   8.371  0.6493 -0.9438 -0.0279
 3409SOL     OW10225   4.054   3.430   8.506 -0.7437  0.0690  0.3157
 3409SOL    HW110226   4.117   3.395   8.442 -0.4776  1.8375 -0.4495
 3409SOL    HW210227   4.108   3.461   8.579 -0.8898 -0.2009  0.5387
 3410SOL     OW10228   4.041   2.753   9.566  0.2848  0.7359 -0.2483
 3410SOL    HW110229   4.022   2.687   9.500 -0.1189  1.0439 -0.4484
 3410SOL    HW210230   4.030   2.837   9.521  2.1756  0.9554 -0.3745
 3411SOL     OW10231   0.391   3.556   9.140 -0.2247 -0.0024  0.0262
 3411SOL    HW110232   0.480   3.559   9.173  0.3007 -1.5518 -1.1254
 3411SOL    HW210233   0.351   3.637   9.170  1.2530  0.2487  1.4226
 3412SOL     OW10234   2.999   0.586   7.220 -0.3180 -0.1282 -0.2788
 3412SOL    HW110235   3.082   0.546   7.246  0.3873  2.0729  1.1305
 3412SOL    HW210236   2.932   0.525   7.251  0.6445  0.4329  3.3561
 3413SOL     OW10237   4.387   4.558   9.556  0.1042 -0.2923  0.7422
 3413SOL    HW110238   4.300   4.541   9.521  1.4405 -2.0942 -2.0316
 3413SOL    HW210239   4.408   4.647   9.526  0.1320 -0.7640 -0.6911
 3414SOL     OW10240   4.653   1.640   9.264  0.0472 -0.2842  0.2574
 3414SOL    HW110241   4.734   1.657   9.216 -1.2063  1.8608 -1.2420
 3414SOL    HW210242   4.665   1.552   9.300  1.9261 -1.1497 -2.2008
 3415SOL     OW10243   4.694   2.247   9.113  0.0984  0.2707 -0.0570
 3415SOL    HW110244   4.744   2.257   9.033 -0.1370  1.7110 -0.0400
 3415SOL    HW210245   4.627   2.182   9.091  1.1345 -0.6981 -0.4562
 3416SOL     OW10246   5.014   1.693  10.032  0.3682 -0.4001 -0.6890
 3416SOL    HW110247   5.027   1.788  10.025  0.6879 -0.3676  0.2252
 3416SOL    HW210248   4.947   1.673   9.966 -1.1341  0.7583  0.4155
 3417SOL     OW10249   3.962   2.070   8.890  0.1213  0.5856  0.3403
 3417SOL    HW110250   3.958   1.975   8.891 -1.1771  0.5949 -0.8820
 3417SOL    HW210251   3.981   2.095   8.980  0.4045 -0.8175  0.6816
 3418SOL     OW10252   3.214   2.296   8.538 -0.2206  0.1104  0.4187
 3418SOL    HW110253   3.244   2.212   8.502 -1.4664 -0.6615  1.1367
 3418SOL    HW210254   3.251   2.298   8.626  1.2655  1.1457 -0.1925
 3419SOL     OW10255   3.766   1.667   9.869 -0.1365  0.7239  0.3412
 3419SOL    HW110256   3.734   1.630   9.786  0.8293 -1.9573  1.0724
 3419SOL    HW210257   3.701   1.734   9.891 -0.6855  1.2011 -2.3099
 3420SOL     OW10258   1.050   1.458   8.826 -0.3934  0.3461 -0.2164
 3420SOL    HW110259   1.025   1.483   8.737 -2.3092  1.6400  0.6256
 3420SOL    HW210260   1.058   1.363   8.822 -0.2547  0.3938 -1.8078
 3421SOL     OW10261   4.812   0.058   6.861  0.2140 -0.0087 -0.0262
 3421SOL    HW110262   4.760   0.102   6.929 -0.5419 -0.6441 -0.1741
 3421SOL    HW210263   4.825   0.124   6.794  0.9323  0.6196  0.7047
 3422SOL     OW10264   0.408   2.160   7.506 -0.0147 -0.7391 -0.0498
 3422SOL    HW110265   0.406   2.138   7.413 -2.4897 -2.3825  0.2688
 3422SOL    HW210266   0.326   2.207   7.521  1.4139  1.6010  0.9309
 3423SOL     OW10267   2.508   1.440   8.319  0.0257 -0.9497 -0.4205
 3423SOL    HW110268   2.538   1.352   8.296  2.3074 -0.2614 -0.3517
 3423SOL    HW210269   2.500   1.485   8.236 -0.7099 -1.0746 -0.4239
 3424SOL     OW10270   2.926   1.914   9.128 -0.8775 -0.3564  0.2981
 3424SOL    HW110271   3.005   1.889   9.177 -0.8870 -0.1672  0.4102
 3424SOL    HW210272   2.911   1.840   9.068  0.3434  0.3083 -0.8946
 3425SOL     OW10273   1.328   4.247   6.613 -0.0599 -1.0653  0.1662
 3425SOL    HW110274   1.402   4.194   6.582  0.2046 -0.6898  0.1575
 3425SOL    HW210275   1.286   4.191   6.679  3.1512  0.5306  3.9549
 3426SOL     OW10276   1.111   0.782   7.712 -0.1143 -0.1915  0.8916
 3426SOL    HW110277   1.101   0.803   7.619  0.7534 -0.3995  0.7406
 3426SOL    HW210278   1.043   0.717   7.730  0.3572 -0.9154  0.1405
 3427SOL     OW10279   3.033   0.306   5.377  0.1271  0.0011  0.3252
 3427SOL    HW110280   3.004   0.372   5.440  1.3961 -0.4844  1.4710
 3427SOL    HW210281   3.102   0.258   5.422  1.7321  0.1918 -1.7416
 3428SOL     OW10282   3.923   2.460   5.670 -0.4666 -0.0957 -0.0615
 3428SOL    HW110283   3.833   2.492   5.665 -0.6722 -0.7245 -0.5466
 3428SOL    HW210284   3.977   2.538   5.660 -0.9517  0.1065 -1.3146
 3429SOL     OW10285   1.173   2.798   7.097 -0.4691  0.2354  0.2243
 3429SOL    HW110286   1.264   2.827   7.090 -0.0571 -1.1915 -0.9168
 3429SOL    HW210287   1.155   2.758   7.012 -2.4109  1.1146  0.1668
 3430SOL     OW10288   2.640   1.333   6.846 -0.3959  0.1908 -0.6924
 3430SOL    HW110289   2.711   1.353   6.786  0.4584 -0.1580  0.1752
 3430SOL    HW210290   2.573   1.398   6.828  1.2025  2.2212  0.2593
 3431SOL     OW10291   0.880   1.058   5.563 -0.4635 -0.4184  0.2913
 3431SOL    HW110292   0.859   1.011   5.482  2.8806 -1.8929  0.0944
 3431SOL    HW210293   0.884   0.989   5.630 -0.7641  0.4163  1.1857
 3432SOL     OW10294   0.801   2.465   5.701  0.5866  0.5553  0.1359
 3432SOL    HW110295   0.855   2.413   5.641  0.8879  1.7173 -0.6381
 3432SOL    HW210296   0.749   2.521   5.643 -0.3889  0.4863  0.9250
 3433SOL     OW10297   0.221   3.018   6.726 -0.8796  0.0110 -0.1404
 3433SOL    HW110298   0.239   3.062   6.809 -2.7133 -0.4836  0.5709
 3433SOL    HW210299   0.305   2.983   6.699  0.1503  1.8185  0.5068
 3434SOL     OW10300   4.269   4.034   6.250 -0.3561  0.0278  0.1059
 3434SOL    HW110301   4.262   3.949   6.207 -0.1239 -0.0159  0.1587
 3434SOL    HW210302   4.362   4.054   6.250 -0.2475 -0.4050  1.4525
 3435SOL     OW10303   4.703   1.872   8.384  0.3091 -0.1266 -0.2454
 3435SOL    HW110304   4.653   1.862   8.303  0.6159  2.2373 -0.8073
 3435SOL    HW210305   4.783   1.822   8.370  0.7835  1.0023 -1.8275
 3436SOL     OW10306   4.396   3.945   4.987 -0.3164 -0.0712 -0.2475
 3436SOL    HW110307   4.393   4.033   4.947  2.2786 -0.8040 -2.3711
 3436SOL    HW210308   4.473   3.947   5.043 -1.4178 -0.4357  1.3310
 3437SOL     OW10309   4.802   1.959   6.163  0.0129  0.4186 -0.4211
 3437SOL    HW110310   4.892   1.987   6.178 -0.4314  1.7040 -0.0811
 3437SOL    HW210311   4.796   1.874   6.207  0.7771  0.8046  0.4609
 3438SOL     OW10312   0.058   2.786   5.761  0.0809  0.1129  0.1332
 3438SOL    HW110313   0.082   2.723   5.694 -0.6201  0.5367 -0.5416
 3438SOL    HW210314  -0.019   2.747   5.804 -0.3361  0.4734 -0.2666
 3439SOL     OW10315   2.835   2.179   5.628  0.1340  0.4222  0.0489
 3439SOL    HW110316   2.794   2.114   5.572  1.7659 -2.7318  2.1850
 3439SOL    HW210317   2.900   2.222   5.573  0.4083 -1.2360 -0.9727
 3440SOL     OW10318   3.449   2.093   5.914 -0.2264 -0.3043  0.0619
 3440SOL    HW110319   3.365   2.077   5.870  0.9099 -0.2933 -2.2842
 3440SOL    HW210320   3.470   2.010   5.957 -1.7690 -0.0633  1.3680
 3441SOL     OW10321   4.023   2.703   5.781  0.4097  0.1934 -0.2406
 3441SOL    HW110322   4.042   2.797   5.785  1.6122  0.1357 -2.6839
 3441SOL    HW210323   4.067   2.673   5.701 -2.0459 -1.9618 -0.9271
 3442SOL     OW10324   1.913   3.419   6.657  0.3163  0.1717  0.0057
 3442SOL    HW110325   1.910   3.423   6.561 -1.5441  0.0219  0.0258
 3442SOL    HW210326   1.913   3.326   6.677 -0.0095  0.2085  0.1693
 3443SOL     OW10327   0.087   2.608   6.430  0.0340  0.0899  0.2778
 3443SOL    HW110328   0.151   2.537   6.427 -0.4323 -0.3156 -0.3745
 3443SOL    HW210329   0.082   2.633   6.522  0.1288 -0.7904  0.5281
 3444SOL     OW10330   0.443   4.028   7.264 -0.3646 -0.6251  0.1798
 3444SOL    HW110331   0.421   3.936   7.250  1.6220 -0.8566 -1.8968
 3444SOL    HW210332   0.381   4.076   7.209 -0.6272 -0.8023  0.3218
 3445SOL     OW10333   3.989   1.144   7.433  0.5409  0.1895  0.2678
 3445SOL    HW110334   4.002   1.238   7.424 -0.3537  0.4162  1.2451
 3445SOL    HW210335   4.009   1.109   7.346 -1.5390  1.5565 -0.8405
 3446SOL     OW10336   3.779   1.981  14.642  0.5193 -0.0523 -0.8314
 3446SOL    HW110337   3.693   1.957  14.677  0.7417 -0.9106 -0.8424
 3446SOL    HW210338   3.811   2.049  14.701 -0.4099  0.6881 -1.1649
 3447SOL     OW10339   3.747   1.708   5.653  0.2295 -0.4186 -0.1802
 3447SOL    HW110340   3.803   1.761   5.710 -0.1229  1.0307 -1.1250
 3447SOL    HW210341   3.797   1.701   5.571  0.1757 -1.3799 -0.1383
 3448SOL     OW10342   3.191   0.159   6.904  0.0925 -0.3795 -0.0174
 3448SOL    HW110343   3.226   0.076   6.936 -1.6582 -1.6374 -1.1920
 3448SOL    HW210344   3.099   0.142   6.887 -0.4125  1.9301  0.0482
 3449SOL     OW10345   3.923   0.738   6.797 -0.4538  0.1649  0.3319
 3449SOL    HW110346   3.908   0.820   6.750  0.3330  0.3323  0.3597
 3449SOL    HW210347   3.862   0.676   6.757 -0.2379  0.4685 -0.4859
 3450SOL     OW10348   0.091   2.511   7.438 -0.7442 -0.2065 -0.4243
 3450SOL    HW110349   0.088   2.447   7.508 -2.1654 -0.3775 -0.6245
 3450SOL    HW210350   0.176   2.496   7.396 -0.3659 -0.8573  0.5306
 3451SOL     OW10351   1.038   1.210   7.591  0.2677  0.3066 -0.1816
 3451SOL    HW110352   1.035   1.128   7.640  0.1623 -0.0513 -0.7812
 3451SOL    HW210353   1.129   1.219   7.564 -0.2750 -1.3223 -2.9379
 3452SOL     OW10354   0.075   2.000   6.230 -0.2988  0.9128  0.2618
 3452SOL    HW110355   0.031   2.005   6.314 -0.6901  0.3127  0.0947
 3452SOL    HW210356   0.168   1.990   6.251 -0.3880  0.8415  0.6173
 3453SOL     OW10357   3.402   3.261   5.106 -0.1445  0.1630  0.1769
 3453SOL    HW110358   3.413   3.243   5.199 -3.9354 -0.6252  0.6570
 3453SOL    HW210359   3.361   3.347   5.103  0.3913  0.4015 -0.8340
 3454SOL     OW10360   1.644   4.382   6.490  0.2423  0.0765 -0.0689
 3454SOL    HW110361   1.721   4.439   6.492 -0.3821  0.9425 -0.0817
 3454SOL    HW210362   1.679   4.295   6.509  1.2953  0.3584 -0.6030
 3455SOL     OW10363   2.964   4.306   7.202 -0.0941  0.3139  0.1094
 3455SOL    HW110364   2.896   4.240   7.215  0.0718  0.0340 -0.4487
 3455SOL    HW210365   3.034   4.261   7.157  0.3344  0.6874  0.3850
 3456SOL     OW10366   4.019   3.751   5.570 -0.0949 -0.0062 -0.0291
 3456SOL    HW110367   3.993   3.692   5.499 -2.3551  0.1368  0.6125
 3456SOL    HW210368   4.033   3.835   5.527  0.7915 -0.4290 -0.6014
 3457SOL     OW10369   3.551   0.846   5.960 -0.3482 -0.1500 -0.0570
 3457SOL    HW110370   3.599   0.780   5.910  0.5989 -0.7178  1.5184
 3457SOL    HW210371   3.600   0.927   5.945  0.5765 -0.5329  0.7664
 3458SOL     OW10372   2.262   2.466   5.897 -0.2607  0.5084 -0.1681
 3458SOL    HW110373   2.213   2.404   5.951  1.9566  0.9294  2.6012
 3458SOL    HW210374   2.322   2.413   5.846  0.8651  0.2403  1.3711
 3459SOL     OW10375   4.838   2.945   7.507 -0.3130 -0.0538  0.3775
 3459SOL    HW110376   4.916   2.924   7.455 -0.3623 -0.6248  0.5260
 3459SOL    HW210377   4.864   2.926   7.597 -0.5704 -0.0808  0.4455
 3460SOL     OW10378   3.953   1.953   5.006 -0.5236 -0.2811  0.1499
 3460SOL    HW110379   4.038   1.995   5.022  1.3658 -3.6106 -0.2008
 3460SOL    HW210380   3.945   1.951   4.910 -1.0295  0.0334  0.1821
 3461SOL     OW10381   3.560   2.960   6.318 -0.5566 -0.7027 -0.5374
 3461SOL    HW110382   3.507   2.892   6.360 -2.0243 -0.8320 -2.4694
 3461SOL    HW210383   3.637   2.968   6.374 -2.4000 -0.7790  2.2337
 3462SOL     OW10384   0.137   1.702   5.730  0.2256  0.0871 -0.1497
 3462SOL    HW110385   0.067   1.713   5.794  0.0763 -0.1988 -0.2623
 3462SOL    HW210386   0.191   1.781   5.740  0.5996 -0.2770  0.8030
 3463SOL     OW10387   3.092   1.772   6.363  0.1368 -0.6575  0.5342
 3463SOL    HW110388   3.071   1.802   6.451 -1.3075 -2.5694  0.9203
 3463SOL    HW210389   3.045   1.833   6.305 -0.6341 -0.6262  1.1755
 3464SOL     OW10390   0.344   2.420   7.308  0.6172  0.6038  0.1968
 3464SOL    HW110391   0.389   2.443   7.389 -0.5856 -0.7176  1.2931
 3464SOL    HW210392   0.387   2.340   7.278  0.2324  0.3750  0.2413
 3465SOL     OW10393   2.120   2.737   6.258 -0.5368  0.3659  0.0621
 3465SOL    HW110394   2.152   2.718   6.346  1.0297  0.1207 -0.5217
 3465SOL    HW210395   2.116   2.833   6.254  0.6933  0.4284 -0.0103
 3466SOL     OW10396   3.167   4.709   7.244 -0.6659  0.2200 -0.1306
 3466SOL    HW110397   3.261   4.724   7.240 -0.0452 -2.9019  0.0017
 3466SOL    HW210398   3.135   4.731   7.156 -0.0465  2.2477  0.1113
 3467SOL     OW10399   0.076   4.047   6.551 -0.5140  0.1609  0.3617
 3467SOL    HW110400   0.135   3.981   6.515  1.4477  1.9415  0.0935
 3467SOL    HW210401   0.042   4.093   6.474  0.6947  1.5116  0.5935
 3468SOL     OW10402   0.930   3.322   6.827  0.4628  0.4642  1.0012
 3468SOL    HW110403   0.978   3.287   6.903  1.0815 -0.7393  0.0858
 3468SOL    HW210404   0.875   3.391   6.864  0.3956 -0.4098  2.6311
 3469SOL     OW10405   4.662   4.827   6.860 -1.2367  0.3011 -0.3347
 3469SOL    HW110406   4.694   4.754   6.913 -3.2786  0.3077  0.9885
 3469SOL    HW210407   4.730   4.895   6.870  0.7789 -1.3769 -1.7289
 3470SOL     OW10408   4.815   3.794   5.608  0.2224 -0.5415  0.0240
 3470SOL    HW110409   4.737   3.811   5.660  1.4977  1.0390  1.5374
 3470SOL    HW210410   4.872   3.743   5.666  1.5714  1.0362  0.1485
 3471SOL     OW10411   3.063   3.702   6.665 -0.2989 -0.1063  0.5472
 3471SOL    HW110412   2.978   3.679   6.627 -0.8965  1.7743  0.6364
 3471SOL    HW210413   3.042   3.738   6.751  0.7238 -0.8170  1.1236
 3472SOL     OW10414   1.028   3.118   6.412 -0.2337 -0.3020 -0.5327
 3472SOL    HW110415   0.990   3.198   6.374  0.5911 -0.4915 -1.8304
 3472SOL    HW210416   1.023   3.054   6.341 -0.7924 -1.3998  0.4660
 3473SOL     OW10417   0.448   2.680   5.582  0.8105 -0.5243 -1.0654
 3473SOL    HW110418   0.521   2.733   5.617 -0.8595  0.7189  0.7706
 3473SOL    HW210419   0.404   2.646   5.660  0.1789 -2.3751 -2.1690
 3474SOL     OW10420   4.915   1.033   6.589 -0.1990  0.1892 -0.0354
 3474SOL    HW110421   4.851   0.963   6.576  0.0666 -0.6072  2.3877
 3474SOL    HW210422   4.874   1.092   6.653  1.0117  0.2496  0.7217
 3475SOL     OW10423   4.501   0.609   6.012 -0.2431  0.1253 -0.1766
 3475SOL    HW110424   4.447   0.536   5.982  1.0769 -2.3446  2.9393
 3475SOL    HW210425   4.582   0.600   5.962 -0.7907  0.7264 -1.2066
 3476SOL     OW10426   3.880   1.212   6.839 -0.1793  0.1043  0.3930
 3476SOL    HW110427   3.852   1.213   6.748 -0.2818  0.7874  0.4237
 3476SOL    HW210428   3.817   1.155   6.883  0.4876 -1.0903 -0.1363
 3477SOL     OW10429   3.278   4.552   7.710 -0.2452 -0.1673  0.2422
 3477SOL    HW110430   3.350   4.587   7.658 -0.6799  0.6875  0.1984
 3477SOL    HW210431   3.207   4.539   7.647 -0.4116 -0.1912  0.4337
 3478SOL     OW10432   4.079   2.685   6.520 -0.6549  0.4996  0.2879
 3478SOL    HW110433   3.991   2.646   6.523 -0.9208  1.0413 -0.2120
 3478SOL    HW210434   4.067   2.766   6.471  0.4159 -0.1961 -1.1900
 3479SOL     OW10435   1.706   4.247   4.597  0.2979 -0.2327  0.2692
 3479SOL    HW110436   1.729   4.301   4.673  0.7399  0.8532 -0.6092
 3479SOL    HW210437   1.622   4.208   4.620  0.8907 -0.7363  1.7247
 3480SOL     OW10438   2.000   3.929   5.206  0.2109 -0.1125 -0.3080
 3480SOL    HW110439   2.022   3.866   5.275 -2.6898  0.9188  1.7368
 3480SOL    HW210440   1.990   3.875   5.127  0.9100 -1.7411  0.6534
 3481SOL     OW10441   0.011   1.150   6.011  0.0925 -0.3686  0.2971
 3481SOL    HW110442   0.105   1.154   5.997 -0.1275 -1.0182 -1.6438
 3481SOL    HW210443  -0.006   1.217   6.078  1.8737 -0.0848  0.5136
 3482SOL     OW10444   4.169   2.377   5.203  0.2747  0.5046  1.3025
 3482SOL    HW110445   4.249   2.334   5.235  0.6161 -0.2196 -0.3804
 3482SOL    HW210446   4.197   2.466   5.181  1.1284 -0.2447 -0.9337
 3483SOL     OW10447   4.253   0.422   7.358  0.4393  0.7336 -0.2770
 3483SOL    HW110448   4.267   0.374   7.277 -0.4169 -0.0764  0.0360
 3483SOL    HW210449   4.159   0.443   7.357  0.3777  0.5199  0.6089
 3484SOL     OW10450   1.030   1.754   7.113  0.3989 -0.4113  0.2618
 3484SOL    HW110451   0.990   1.691   7.174  0.3883  0.0707  0.7665
 3484SOL    HW210452   1.102   1.705   7.073  0.1389 -0.8720  0.3405
 3485SOL     OW10453   2.195   2.170   6.152 -0.3713 -0.1496 -0.4166
 3485SOL    HW110454   2.159   2.099   6.206  1.0187 -2.1525 -2.0158
 3485SOL    HW210455   2.285   2.144   6.134 -0.5664  0.7475 -3.1271
 3486SOL     OW10456   0.816   4.154   5.489  0.1559  0.6137 -0.3185
 3486SOL    HW110457   0.823   4.113   5.575  1.2969 -0.8596 -1.0870
 3486SOL    HW210458   0.745   4.218   5.499 -1.0744 -0.8961  1.1759
 3487SOL     OW10459   0.408   4.751   8.180 -0.2287 -0.5822 -0.1538
 3487SOL    HW110460   0.435   4.784   8.094 -1.3045  0.4838 -0.1175
 3487SOL    HW210461   0.460   4.801   8.243  0.3866 -1.1947 -0.1593
 3488SOL     OW10462   4.962   1.395   6.142  0.1390  0.0142  0.4877
 3488SOL    HW110463   4.883   1.395   6.088  0.1666  1.1539  0.4109
 3488SOL    HW210464   4.982   1.488   6.155  1.9186 -0.2267 -0.1617
 3489SOL     OW10465   1.113   4.477   5.305  0.2035 -0.0431  0.7987
 3489SOL    HW110466   1.088   4.410   5.243  0.2162  1.3212 -0.7475
 3489SOL    HW210467   1.045   4.474   5.373 -0.4515 -0.7857  0.1234
 3490SOL     OW10468   0.536   1.373   7.047  0.1396 -0.4179  0.4452
 3490SOL    HW110469   0.591   1.445   7.076 -0.7773  1.0056 -1.1961
 3490SOL    HW210470   0.597   1.311   7.007  0.6682  1.0597 -1.1951
 3491SOL     OW10471   3.588   2.312   7.401  0.2162  0.0514 -0.3276
 3491SOL    HW110472   3.506   2.268   7.423 -0.0297  1.1791  1.1098
 3491SOL    HW210473   3.562   2.394   7.359  0.6013  0.4992  0.3012
 3492SOL     OW10474   1.838   0.826   5.744 -0.5623 -0.5156 -0.2727
 3492SOL    HW110475   1.822   0.858   5.832 -0.3753 -0.8070 -0.1301
 3492SOL    HW210476   1.890   0.895   5.702  1.0449 -1.2240  0.4802
 3493SOL     OW10477   3.084   1.921   5.585  1.0038 -0.5091 -0.5422
 3493SOL    HW110478   3.105   1.855   5.518  0.5673 -0.7194 -0.4725
 3493SOL    HW210479   2.995   1.900   5.612  0.8154  0.1799 -0.6012
 3494SOL     OW10480   3.833   1.605   6.799  0.3567  0.1125  0.1199
 3494SOL    HW110481   3.769   1.542   6.765  1.4605 -0.5630 -0.7760
 3494SOL    HW210482   3.911   1.592   6.745  1.4625  0.5116  1.5633
 3495SOL     OW10483   2.608   1.855   6.687 -0.1530  0.1462 -0.0358
 3495SOL    HW110484   2.649   1.887   6.767 -0.0594 -0.5981  0.2215
 3495SOL    HW210485   2.515   1.846   6.709  0.0151 -0.9511  0.2955
 3496SOL     OW10486   3.508   2.413   5.965 -0.4805  0.6217  1.2036
 3496SOL    HW110487   3.473   2.342   5.911 -0.9404  1.7360 -0.0463
 3496SOL    HW210488   3.435   2.475   5.973  0.3944  1.7395  0.8049
 3497SOL     OW10489   3.867   0.596   5.562  0.5428 -0.0014  0.0818
 3497SOL    HW110490   3.959   0.593   5.589  0.8352  0.8195 -0.7423
 3497SOL    HW210491   3.868   0.647   5.481 -0.9007  1.9181  1.1856
 3498SOL     OW10492   0.259   4.055   8.264  0.1739 -0.5938 -0.0891
 3498SOL    HW110493   0.355   4.053   8.265  0.2744  1.4607  0.6506
 3498SOL    HW210494   0.235   4.043   8.356 -0.1497  0.6553  0.0141
 3499SOL     OW10495   0.046   1.150   6.956 -0.0039  0.5121  0.0766
 3499SOL    HW110496  -0.034   1.169   6.907  0.5495  1.4668 -0.4843
 3499SOL    HW210497   0.098   1.230   6.951 -0.1308  0.8670  2.6921
 3500SOL     OW10498   4.394   4.606   5.330 -0.1543 -0.5944  0.0052
 3500SOL    HW110499   4.383   4.538   5.264 -1.0503 -0.7282  0.2920
 3500SOL    HW210500   4.361   4.568   5.411 -2.4998  0.8212 -0.2142
 3501SOL     OW10501   2.448   2.364   7.705  0.1236  0.6265  0.2498
 3501SOL    HW110502   2.378   2.310   7.741 -0.3644  0.5030 -0.8339
 3501SOL    HW210503   2.501   2.390   7.781 -0.9341  0.4931  1.0517
 3502SOL     OW10504   4.027   2.914   6.373  0.5712 -0.5620 -0.3834
 3502SOL    HW110505   4.054   2.960   6.293  2.9241  0.5555  0.9535
 3502SOL    HW210506   3.933   2.932   6.380  0.4630 -0.0537 -2.4823
 3503SOL     OW10507   3.964   1.363   5.150  0.5724 -0.0889 -0.3283
 3503SOL    HW110508   3.970   1.309   5.228 -0.2012  3.1551  2.1877
 3503SOL    HW210509   4.016   1.441   5.170 -1.8542  2.0949 -1.8819
 3504SOL     OW10510   4.545   0.181   5.336  0.9731 -0.6037 -0.4456
 3504SOL    HW110511   4.503   0.124   5.271 -0.7659 -0.9700  0.9242
 3504SOL    HW210512   4.582   0.120   5.400  1.0532 -0.2206 -0.1288
 3505SOL     OW10513   0.427   2.625   6.081  0.1177  0.1380  0.1521
 3505SOL    HW110514   0.335   2.607   6.065  0.2062 -0.2529  0.0587
 3505SOL    HW210515   0.465   2.637   5.994  0.4902 -1.4323  0.0664
 3506SOL     OW10516   1.407   4.135   5.829 -0.7048 -0.4796  0.0222
 3506SOL    HW110517   1.461   4.097   5.899  1.2726  0.3191 -0.9625
 3506SOL    HW210518   1.451   4.108   5.748 -1.1265  1.1172 -0.7895
 3507SOL     OW10519   1.016   2.635   5.434 -0.5681  0.0655 -0.1218
 3507SOL    HW110520   1.062   2.709   5.394 -1.1388  0.8128  0.5540
 3507SOL    HW210521   0.968   2.595   5.361  0.7088 -0.4119 -0.7322
 3508SOL     OW10522   2.710   2.738   5.220 -0.0699 -0.7436  0.7443
 3508SOL    HW110523   2.755   2.721   5.137 -0.4575  0.1492  0.3371
 3508SOL    HW210524   2.779   2.733   5.286  0.4844 -0.2367  0.2211
 3509SOL     OW10525   0.524   2.184   7.841  0.6133  0.1157  0.3932
 3509SOL    HW110526   0.530   2.237   7.920 -0.7469 -1.5393  1.6613
 3509SOL    HW210527   0.460   2.229   7.786 -2.4124 -1.3522  2.4962
 3510SOL     OW10528   1.409   4.335   5.601 -0.8904  0.3448 -0.4707
 3510SOL    HW110529   1.375   4.391   5.531  0.4983 -0.8369 -2.1777
 3510SOL    HW210530   1.400   4.246   5.567  0.7870 -0.1967  0.4172
 3511SOL     OW10531   2.758   4.540   8.166  0.4050 -0.0803  0.4613
 3511SOL    HW110532   2.742   4.449   8.141 -0.8111 -0.1530  1.3830
 3511SOL    HW210533   2.834   4.567   8.114 -0.1703 -1.1273 -0.9950
 3512SOL     OW10534   3.540   4.205   6.611  0.3025 -0.5505 -0.0553
 3512SOL    HW110535   3.556   4.289   6.653 -0.4260  0.2310 -1.3019
 3512SOL    HW210536   3.623   4.183   6.569  1.1326 -1.4739  1.9130
 3513SOL     OW10537   2.440   2.515   4.934  0.1710  0.3830  0.0731
 3513SOL    HW110538   2.420   2.608   4.930  1.4526  0.6978  0.7000
 3513SOL    HW210539   2.533   2.511   4.953 -0.2465 -1.0197  2.1456
 3514SOL     OW10540   4.706   2.241   7.643 -0.4289 -0.3075  0.4429
 3514SOL    HW110541   4.688   2.152   7.673  1.1990 -0.7163  0.2749
 3514SOL    HW210542   4.774   2.232   7.576  0.1789  1.0888  0.8206
 3515SOL     OW10543   4.072   4.663   7.034  0.3243  0.1684  0.3418
 3515SOL    HW110544   4.153   4.648   7.083  0.1224  1.0205  0.9626
 3515SOL    HW210545   4.054   4.757   7.046 -1.4290 -0.2462  1.2651
 3516SOL     OW10546   0.369   2.818   7.380 -0.2756  0.0201  0.0569
 3516SOL    HW110547   0.296   2.827   7.442 -1.4038  0.9957 -1.3414
 3516SOL    HW210548   0.388   2.724   7.378 -1.0295 -0.1645  0.9481
 3517SOL     OW10549   2.215   3.697   3.429 -0.5925 -0.1962 -0.6468
 3517SOL    HW110550   2.203   3.637   3.502 -0.1542  1.0682  0.5064
 3517SOL    HW210551   2.133   3.746   3.424  0.4724  1.8928  1.0900
 3518SOL     OW10552   4.692   3.320   6.379 -0.8387  0.4196 -0.4627
 3518SOL    HW110553   4.727   3.232   6.393 -1.3773  0.5412  1.9601
 3518SOL    HW210554   4.622   3.307   6.314  0.2350 -0.6111 -1.4704
 3519SOL     OW10555   2.966   3.016   6.023  0.1265 -0.1854 -0.3974
 3519SOL    HW110556   2.994   3.049   5.938  0.7095 -2.2976 -1.0854
 3519SOL    HW210557   3.036   3.042   6.083  0.2108  0.4274 -0.7534
 3520SOL     OW10558   0.290   2.941   6.140  0.5172 -0.2594 -0.0892
 3520SOL    HW110559   0.300   2.850   6.114  2.3855  0.3039 -1.5536
 3520SOL    HW210560   0.195   2.954   6.146  0.1948 -2.0387 -0.7854
 3521SOL     OW10561   3.341   2.820   7.352 -0.3248 -0.6040  0.3361
 3521SOL    HW110562   3.332   2.829   7.257  0.5647  1.5016  0.4006
 3521SOL    HW210563   3.424   2.863   7.373 -2.0500  2.0675  2.4280
 3522SOL     OW10564   0.113   2.452   7.020  0.0086  0.4974  0.1312
 3522SOL    HW110565   0.025   2.462   7.058 -0.2663 -1.8817  0.3041
 3522SOL    HW210566   0.162   2.526   7.054 -0.6310 -0.6505  4.0504
 3523SOL     OW10567   1.538   3.837   6.042  0.2664  0.5149 -0.5220
 3523SOL    HW110568   1.602   3.785   5.993  0.7492  1.0301 -0.4464
 3523SOL    HW210569   1.453   3.809   6.008  0.5416 -0.0295 -0.7694
 3524SOL     OW10570   3.723   2.625   6.261 -0.1291  0.3272  0.1162
 3524SOL    HW110571   3.713   2.541   6.218  2.5036  0.2651 -0.4928
 3524SOL    HW210572   3.667   2.685   6.210 -0.0753 -0.5344 -0.9822
 3525SOL     OW10573   0.142   4.982   7.215  0.2917 -0.3100  0.3368
 3525SOL    HW110574   0.082   4.969   7.142 -0.4347 -1.8367  1.1482
 3525SOL    HW210575   0.224   4.942   7.186  0.9185  1.5791 -0.6849
 3526SOL     OW10576   4.478   4.450   7.122 -0.3181  0.2930 -0.0006
 3526SOL    HW110577   4.449   4.359   7.134  0.4630  0.1828  1.3108
 3526SOL    HW210578   4.547   4.444   7.056 -2.1252  0.3590 -2.0179
 3527SOL     OW10579   4.971   1.480   5.662  0.2127 -0.3619  0.2041
 3527SOL    HW110580   4.893   1.521   5.699  1.0708  0.0707  1.6320
 3527SOL    HW210581   5.041   1.543   5.676  1.5124 -2.0843  2.2063
 3528SOL     OW10582   3.084   4.534   8.367 -0.0725  0.1606 -0.3539
 3528SOL    HW110583   3.061   4.616   8.323  1.8592  1.8300  1.4899
 3528SOL    HW210584   3.168   4.553   8.409 -0.1985 -2.3780  1.2265
 3529SOL     OW10585   1.166   3.603   6.209 -0.0664 -0.8541  0.0077
 3529SOL    HW110586   1.081   3.643   6.231  0.2622 -0.3154  0.3220
 3529SOL    HW210587   1.216   3.608   6.291  0.3860 -0.8673 -0.2702
 3530SOL     OW10588   4.821   2.185   5.402 -0.0011 -0.2238  0.3567
 3530SOL    HW110589   4.778   2.166   5.319  1.8893 -0.6932 -0.5902
 3530SOL    HW210590   4.773   2.260   5.438 -1.7763 -0.9397 -0.4238
 3531SOL     OW10591   4.351   3.214   5.702  0.1848  0.0637  0.0332
 3531SOL    HW110592   4.297   3.273   5.650 -2.1375 -1.3692  0.6753
 3531SOL    HW210593   4.411   3.174   5.638 -0.8933  0.1996 -1.1026
 3532SOL     OW10594   4.348   1.329   5.605  0.3773  0.3558 -0.7735
 3532SOL    HW110595   4.294   1.350   5.529  0.0773  0.1944 -0.6075
 3532SOL    HW210596   4.434   1.308   5.568  0.4709  1.1204 -0.9980
 3533SOL     OW10597   0.714   4.552   6.343 -0.8212 -0.5647 -0.3097
 3533SOL    HW110598   0.678   4.488   6.405 -0.4510  0.0587  0.5700
 3533SOL    HW210599   0.709   4.508   6.258 -1.4144 -1.4107  0.1408
 3534SOL     OW10600   4.642   1.672   6.049  0.3547  0.0664 -0.0224
 3534SOL    HW110601   4.592   1.617   5.988 -0.5386  2.5426 -1.7333
 3534SOL    HW210602   4.689   1.611   6.105 -1.4970 -2.3844 -0.9780
 3535SOL     OW10603   1.443   4.397   4.862  0.2984 -0.1571  0.5987
 3535SOL    HW110604   1.433   4.315   4.813 -0.4400  0.3721 -0.1650
 3535SOL    HW210605   1.419   4.374   4.952  0.1369 -0.7901  0.3997
 3536SOL     OW10606   4.580   2.642   6.239  0.9934  0.3539 -1.0470
 3536SOL    HW110607   4.657   2.586   6.247  0.3349 -0.6338 -1.3298
 3536SOL    HW210608   4.582   2.673   6.148  0.0001 -1.3479 -1.7139
 3537SOL     OW10609   1.620   4.784   7.095  0.1654  0.7453 -0.1530
 3537SOL    HW110610   1.711   4.788   7.066  0.2458 -0.5175 -0.1068
 3537SOL    HW210611   1.577   4.723   7.035 -0.2989  0.1935  0.7210
 3538SOL     OW10612   0.227   2.975   5.649  0.1281 -0.1504 -0.5173
 3538SOL    HW110613   0.156   2.914   5.670  0.6464 -0.8283 -0.7125
 3538SOL    HW210614   0.285   2.971   5.725 -0.2743  0.7649 -0.1474
 3539SOL     OW10615   1.736   1.946   7.246  0.4515  0.4219 -0.4645
 3539SOL    HW110616   1.751   1.960   7.152 -2.2223  1.9606 -0.7506
 3539SOL    HW210617   1.769   2.026   7.287 -0.9189  0.9939 -0.4334
 3540SOL     OW10618   3.493   4.066   6.855 -0.1066  0.1632  0.6786
 3540SOL    HW110619   3.550   4.128   6.901  0.4298 -0.7368  1.2453
 3540SOL    HW210620   3.517   4.075   6.763  1.2831 -0.5357  0.9624
 3541SOL     OW10621   4.833   4.510   6.644 -0.0457  0.4961  0.4046
 3541SOL    HW110622   4.893   4.538   6.714 -0.7861  2.1946  0.4259
 3541SOL    HW210623   4.790   4.433   6.679  1.8678 -0.5960  0.5153
 3542SOL     OW10624   4.988   3.695   6.549  0.0612  0.1087  0.3451
 3542SOL    HW110625   4.899   3.718   6.522  0.4938  1.8667  0.3171
 3542SOL    HW210626   4.975   3.633   6.621 -1.1989  0.5680  0.5492
 3543SOL     OW10627   4.276   2.871   5.732 -0.1306  0.5249 -0.5341
 3543SOL    HW110628   4.304   2.780   5.722  2.1842  0.8512  1.8515
 3543SOL    HW210629   4.261   2.882   5.826  2.0042  3.1702 -0.3841
 3544SOL     OW10630   4.086   0.560   5.734  0.0403 -0.0236  0.1355
 3544SOL    HW110631   4.085   0.637   5.790 -0.8145  0.5780 -0.6876
 3544SOL    HW210632   4.044   0.492   5.786 -2.3233  0.9798 -0.3571
 3545SOL     OW10633   4.536   1.200   6.794 -0.1795  0.2904 -0.4209
 3545SOL    HW110634   4.480   1.269   6.831 -1.1846  0.0961 -1.5284
 3545SOL    HW210635   4.480   1.123   6.791  0.1772  0.0622 -1.4472
 3546SOL     OW10636   3.251   0.089   6.140 -0.0035 -0.0009 -0.0132
 3546SOL    HW110637   3.343   0.116   6.134  0.2784 -0.8420  0.3396
 3546SOL    HW210638   3.254  -0.007   6.140 -1.0618 -0.1342 -2.8101
 3547SOL     OW10639   0.650   3.837   7.193 -0.2831 -0.3680  0.6355
 3547SOL    HW110640   0.696   3.910   7.235  1.0915 -0.9411  0.1787
 3547SOL    HW210641   0.666   3.849   7.099 -1.4001 -0.3908  0.4197
 3548SOL     OW10642   1.588   2.939   6.291 -0.3838 -0.5457  0.4227
 3548SOL    HW110643   1.513   2.976   6.246  0.6771  1.5239  0.2324
 3548SOL    HW210644   1.574   2.961   6.383 -1.6474 -3.1978  0.9825
 3549SOL     OW10645   4.718   3.726   6.935 -0.2335  0.0659  0.0316
 3549SOL    HW110646   4.809   3.699   6.947 -0.7236 -1.6593  0.1443
 3549SOL    HW210647   4.675   3.706   7.018 -1.0903 -0.8915 -0.6108
 3550SOL     OW10648   4.427   2.575   7.421  0.2017  0.2781 -0.2955
 3550SOL    HW110649   4.481   2.517   7.475  1.8836  1.6797 -0.4059
 3550SOL    HW210650   4.375   2.624   7.485  1.3824  1.1533  0.0061
 3551SOL     OW10651   2.996   2.543   5.501 -0.3407  0.4661  0.2687
 3551SOL    HW110652   2.968   2.499   5.421  1.8801  0.8126 -0.7696
 3551SOL    HW210653   2.975   2.481   5.571 -0.5781 -0.6786 -0.7747
 3552SOL     OW10654   0.685   1.935   5.389  0.4718  0.2037 -0.2640
 3552SOL    HW110655   0.627   1.943   5.465  0.7873  0.0757 -0.0062
 3552SOL    HW210656   0.752   2.003   5.403 -0.1329  0.9756 -1.0290
 3553SOL     OW10657   4.174   3.381   5.609  0.2706  0.1327 -0.4791
 3553SOL    HW110658   4.102   3.400   5.669  0.2300 -2.5236  0.4462
 3553SOL    HW210659   4.144   3.412   5.524 -1.7667 -0.4478 -0.0189
 3554SOL     OW10660   3.133   3.215   6.192 -0.6998  0.5671  0.5806
 3554SOL    HW110661   3.145   3.277   6.264  1.2961  1.5984 -0.5615
 3554SOL    HW210662   3.077   3.260   6.130  0.3283  1.0548 -0.0136
 3555SOL     OW10663   4.015   0.616   7.700  0.1167 -0.3746 -0.3005
 3555SOL    HW110664   3.997   0.690   7.758  1.6098  0.2962 -0.6483
 3555SOL    HW210665   3.934   0.565   7.700 -1.9658  2.6303 -2.0780
 3556SOL     OW10666   4.428   3.010   6.398 -0.7529  0.0785 -0.2668
 3556SOL    HW110667   4.394   2.933   6.444  1.0709 -0.0301  1.0111
 3556SOL    HW210668   4.436   3.077   6.467  1.5596  0.0777 -0.4573
 3557SOL     OW10669   4.672   2.562   9.781  0.2937 -0.0571 -0.0924
 3557SOL    HW110670   4.719   2.597   9.856 -0.2027 -0.9870  0.6695
 3557SOL    HW210671   4.666   2.636   9.720 -2.3646  1.8185  2.2144
 3558SOL     OW10672   0.801   1.459   5.179 -0.4940 -0.5027  0.0707
 3558SOL    HW110673   0.818   1.548   5.210 -2.8672 -1.3455  4.8047
 3558SOL    HW210674   0.873   1.407   5.214 -0.3479 -0.8033 -0.6521
 3559SOL     OW10675   4.937   1.467   6.637  0.2726  0.4491 -0.0761
 3559SOL    HW110676   4.892   1.412   6.701  1.7931 -0.1720  0.4903
 3559SOL    HW210677   5.026   1.433   6.634  0.8616  1.9723 -0.7941
 3560SOL     OW10678   1.876   3.532   6.248  0.1981  0.0644  0.3956
 3560SOL    HW110679   1.814   3.516   6.320 -0.8500  0.2302 -0.4420
 3560SOL    HW210680   1.882   3.448   6.203 -0.4328  0.3695 -0.2824
 3561SOL     OW10681   3.678   0.226   6.750  0.3091 -0.0175 -0.1389
 3561SOL    HW110682   3.726   0.194   6.826 -0.6604  1.6231  1.2492
 3561SOL    HW210683   3.595   0.257   6.786  0.4126  2.2150 -1.6063
 3562SOL     OW10684   1.103   2.939   5.360  0.2973  0.5000  0.3646
 3562SOL    HW110685   1.057   3.017   5.392  0.3703  0.6754  0.0443
 3562SOL    HW210686   1.051   2.910   5.284  1.1903  1.2136 -0.5514
 3563SOL     OW10687   2.939   3.197   6.466 -1.1217  0.6515  0.0829
 3563SOL    HW110688   2.947   3.212   6.561  1.1714 -0.7294  0.1801
 3563SOL    HW210689   2.983   3.272   6.426 -1.7303  1.0239  0.0884
 3564SOL     OW10690   1.245   3.737   6.465 -0.0152 -0.0519 -0.0838
 3564SOL    HW110691   1.191   3.813   6.445  0.6642  0.4382 -0.0871
 3564SOL    HW210692   1.335   3.768   6.452  0.2345 -1.3116 -1.7343
 3565SOL     OW10693   4.455   1.861   5.786 -0.3096 -0.0389 -0.1388
 3565SOL    HW110694   4.529   1.816   5.746 -1.1049 -0.8663 -0.7050
 3565SOL    HW210695   4.491   1.901   5.865  0.7440 -0.3989 -0.4263
 3566SOL     OW10696   4.864   2.832   8.114 -0.1295  0.4717 -0.1821
 3566SOL    HW110697   4.863   2.904   8.177 -0.3340 -0.0994  0.4868
 3566SOL    HW210698   4.800   2.770   8.148  2.1543 -1.4268  0.9079
 3567SOL     OW10699   3.945   0.245   8.301  0.1455  0.5663 -0.6269
 3567SOL    HW110700   3.918   0.251   8.392 -0.9630  0.0840 -0.9009
 3567SOL    HW210701   3.902   0.319   8.258  1.1331  1.1394 -0.6700
 3568SOL     OW10702   2.389   3.212   9.617  0.1074 -0.0501 -0.3386
 3568SOL    HW110703   2.483   3.198   9.606 -0.0894 -0.1391 -2.2244
 3568SOL    HW210704   2.357   3.230   9.529 -1.6922 -0.2254  0.2385
 3569SOL     OW10705   4.492   3.671   9.999  0.2418 -0.1939  0.2437
 3569SOL    HW110706   4.578   3.634  10.021  0.2751  0.4889  1.3347
 3569SOL    HW210707   4.511   3.743   9.940  0.5829  0.9577  1.7110
 3570SOL     OW10708   3.673   4.909   7.205  0.0628 -0.2849  0.5234
 3570SOL    HW110709   3.749   4.902   7.264 -0.4601 -1.1129  1.1299
 3570SOL    HW210710   3.669   5.002   7.183  1.9267 -0.3919 -0.4491
 3571SOL     OW10711   0.644   2.245   8.450 -0.2715  0.2173  0.4462
 3571SOL    HW110712   0.556   2.221   8.480 -0.8795  0.9830 -0.6823
 3571SOL    HW210713   0.682   2.293   8.524 -0.7922 -0.1406  0.9495
 3572SOL     OW10714   3.535   1.444   7.937 -0.4929  0.5432 -0.2691
 3572SOL    HW110715   3.524   1.532   7.899  0.1372  0.9821  0.5342
 3572SOL    HW210716   3.477   1.444   8.013 -0.6049  0.2107 -0.3558
 3573SOL     OW10717   4.729   4.142   8.711 -0.3993 -0.4137 -0.4754
 3573SOL    HW110718   4.805   4.126   8.655  0.4019 -2.9179  1.1424
 3573SOL    HW210719   4.713   4.058   8.755 -3.5492  0.2738 -0.0212
 3574SOL     OW10720   4.121   2.429   5.837  0.0442 -0.3026  0.4176
 3574SOL    HW110721   4.089   2.414   5.926  0.3378 -2.6563  0.1899
 3574SOL    HW210722   4.043   2.424   5.782  0.3152 -3.2158  0.1570
 3575SOL     OW10723   4.512   1.455   8.498  0.1135  0.4625  0.0913
 3575SOL    HW110724   4.532   1.530   8.553 -2.0265  1.9934 -1.1004
 3575SOL    HW210725   4.483   1.387   8.559 -0.8117  1.6272  0.9794
 3576SOL     OW10726   2.968   4.701   8.633  0.2466 -0.0075 -0.4469
 3576SOL    HW110727   3.022   4.670   8.706  1.0573  2.1196 -0.0722
 3576SOL    HW210728   2.948   4.622   8.583  2.2924 -1.1101  0.3613
 3577SOL     OW10729   3.309   4.890   8.968  0.1913  0.2587  0.8490
 3577SOL    HW110730   3.361   4.821   9.010 -0.8908 -0.3252  1.2485
 3577SOL    HW210731   3.359   4.913   8.890 -0.1432 -2.0356 -0.1085
 3578SOL     OW10732   0.670   3.355   7.520  0.2263 -0.2023 -0.0450
 3578SOL    HW110733   0.582   3.316   7.521  0.8601 -1.7207  1.3470
 3578SOL    HW210734   0.672   3.407   7.440 -2.0523  0.1586  0.0612
 3579SOL     OW10735   4.112   4.823   7.389 -0.1381  0.1055 -0.4094
 3579SOL    HW110736   4.019   4.831   7.370 -0.1039  1.1154 -0.1782
 3579SOL    HW210737   4.119   4.740   7.436 -0.6894 -0.7473 -1.7658
 3580SOL     OW10738   4.317   4.260   8.163 -0.4916  0.3059  0.1067
 3580SOL    HW110739   4.315   4.298   8.075 -1.2561  0.1586  0.0533
 3580SOL    HW210740   4.227   4.232   8.179 -0.2746 -0.0272  0.7832
 3581SOL     OW10741   2.379   4.594   7.440 -0.8575  0.1959  0.2220
 3581SOL    HW110742   2.313   4.535   7.477 -2.1957  2.5431  1.8276
 3581SOL    HW210743   2.442   4.606   7.511 -0.2419  0.2218 -0.3171
 3582SOL     OW10744   0.012   1.730   7.402 -0.3368 -0.2544 -0.1582
 3582SOL    HW110745   0.100   1.767   7.392 -0.1587 -0.2603  1.2169
 3582SOL    HW210746   0.025   1.635   7.397 -0.0545 -0.3163  1.3070
 3583SOL     OW10747   3.737   0.101   6.485  0.2155 -0.0836  0.2223
 3583SOL    HW110748   3.682   0.152   6.544 -0.3075 -0.8020  0.3728
 3583SOL    HW210749   3.688   0.020   6.472  0.8725 -0.4025 -0.2803
 3584SOL     OW10750   3.073   3.009   9.806  0.2603  0.1305 -0.5587
 3584SOL    HW110751   3.038   2.928   9.843  0.2487  0.0142 -0.8225
 3584SOL    HW210752   2.996   3.063   9.790  0.2178 -0.0529 -0.9672
 3585SOL     OW10753   4.502   3.395   6.907  0.2002 -0.7606 -0.1167
 3585SOL    HW110754   4.415   3.360   6.926 -0.5675  1.5937  1.1201
 3585SOL    HW210755   4.496   3.424   6.816 -0.9669  0.9343  0.4378
 3586SOL     OW10756   4.411   0.967   7.155  0.2108  0.1273  0.2899
 3586SOL    HW110757   4.379   1.018   7.081 -0.7450 -0.7663  0.0699
 3586SOL    HW210758   4.449   1.032   7.215  0.6673  0.8913 -0.8085
 3587SOL     OW10759   2.556   2.261   6.728  0.2060 -0.2519 -0.4744
 3587SOL    HW110760   2.631   2.321   6.729 -0.4162  0.5398  0.5525
 3587SOL    HW210761   2.531   2.256   6.636  0.2176  1.1421 -0.5736
 3588SOL     OW10762   3.141   1.768   9.235  0.7648 -0.1061  0.4977
 3588SOL    HW110763   3.156   1.737   9.324  1.5040  3.0117  1.5946
 3588SOL    HW210764   3.200   1.715   9.181 -1.0522 -3.3642  1.4578
 3589SOL     OW10765   4.869   4.855   8.321 -0.5867  0.2874 -0.4804
 3589SOL    HW110766   4.958   4.851   8.285  0.3968 -1.1246  1.9428
 3589SOL    HW210767   4.877   4.908   8.400 -2.0739  0.7109 -0.5731
 3590SOL     OW10768   3.964   1.952   8.526  0.4129 -0.0356 -0.0033
 3590SOL    HW110769   4.019   1.984   8.454 -0.6459  0.0452 -0.7907
 3590SOL    HW210770   3.941   2.031   8.574 -0.5821  0.1770 -0.8013
 3591SOL     OW10771   4.798   3.200   9.495  0.4433 -0.2534 -0.0147
 3591SOL    HW110772   4.866   3.212   9.429 -0.7178  1.0907 -1.0248
 3591SOL    HW210773   4.720   3.176   9.445 -0.3822  0.4918  0.8734
 3592SOL     OW10774   0.760   1.631   8.879  0.2360  0.1101  0.3015
 3592SOL    HW110775   0.835   1.621   8.938  0.6601  0.9122 -0.0847
 3592SOL    HW210776   0.723   1.543   8.872  0.5022 -0.0955  1.3352
 3593SOL     OW10777   0.688   2.109   8.105 -0.2374  0.0134  0.1608
 3593SOL    HW110778   0.707   2.201   8.082 -2.3737  0.4544 -0.0655
 3593SOL    HW210779   0.704   2.061   8.024  4.4069 -0.5492  1.1048
 3594SOL     OW10780   0.963   3.624   7.329 -0.1393  0.6977 -0.5071
 3594SOL    HW110781   1.008   3.673   7.398  0.2806 -0.1591 -0.1570
 3594SOL    HW210782   1.028   3.562   7.297 -0.6053  0.4920 -1.0759
 3595SOL     OW10783   4.965   4.329   8.458  0.6559 -0.6497  0.0573
 3595SOL    HW110784   4.918   4.247   8.471  2.4814 -1.8859 -0.6621
 3595SOL    HW210785   4.970   4.368   8.545 -2.0410 -0.1945  0.0953
 3596SOL     OW10786   4.159   2.396   8.705  0.4293 -0.4190  0.6908
 3596SOL    HW110787   4.080   2.416   8.756  0.0017 -0.4548  0.0462
 3596SOL    HW210788   4.181   2.479   8.663  0.3707 -0.5671  0.3705
 3597SOL     OW10789   4.736   2.854   8.905 -0.1390  0.2112 -0.4623
 3597SOL    HW110790   4.681   2.776   8.897  0.8407 -0.3633 -2.0658
 3597SOL    HW210791   4.728   2.898   8.821  1.6402  0.2372 -0.6591
 3598SOL     OW10792   4.416   0.457   8.753  0.5174  0.6827 -0.1366
 3598SOL    HW110793   4.399   0.549   8.733  0.4834  0.4784 -1.1107
 3598SOL    HW210794   4.488   0.459   8.816  0.8170  1.3696 -0.4911
 3599SOL     OW10795   1.843   1.499   9.902 -0.0822  0.2891 -0.3425
 3599SOL    HW110796   1.938   1.497   9.896 -0.0350  1.1407  0.0554
 3599SOL    HW210797   1.823   1.573   9.959 -1.0137  0.6045 -1.0491
 3600SOL     OW10798   0.689   0.869   5.861 -0.1741 -0.3709 -0.9571
 3600SOL    HW110799   0.662   0.780   5.838 -1.6277 -0.4341  0.7079
 3600SOL    HW210800   0.785   0.866   5.861 -0.1863 -1.6279 -1.9899
 3601SOL     OW10801   0.424   1.879   8.839 -0.3167 -0.0217  0.8649
 3601SOL    HW110802   0.385   1.879   8.752  0.5126  1.2996  0.4697
 3601SOL    HW210803   0.507   1.925   8.829 -0.4806  0.7053  2.4613
 3602SOL     OW10804   4.574   3.195   8.125 -0.0008  0.1485 -0.4502
 3602SOL    HW110805   4.495   3.194   8.071  2.4523 -0.8341 -4.4704
 3602SOL    HW210806   4.612   3.282   8.110  1.2955 -0.5419 -1.4130
 3603SOL     OW10807   3.904   0.652   5.123  0.1683  0.0303  0.1963
 3603SOL    HW110808   3.838   0.654   5.054 -0.4137  0.6809  0.7523
 3603SOL    HW210809   3.906   0.561   5.152  1.9079 -0.7356 -2.0528
 3604SOL     OW10810   3.675   3.274   9.687 -0.0024 -0.3044  0.2874
 3604SOL    HW110811   3.611   3.343   9.705  0.0493 -0.1931  0.0563
 3604SOL    HW210812   3.623   3.204   9.647 -0.0255 -0.3260  0.3552
 3605SOL     OW10813   3.769   2.581   7.930 -0.3679 -0.0181 -0.5776
 3605SOL    HW110814   3.793   2.490   7.950 -1.3861 -0.5947 -1.8048
 3605SOL    HW210815   3.696   2.599   7.990 -0.3522 -0.1213 -0.5258
 3606SOL     OW10816   4.570   3.392   7.629  0.6965  0.1489  0.9807
 3606SOL    HW110817   4.596   3.396   7.721 -0.9302 -0.3539  1.4992
 3606SOL    HW210818   4.628   3.327   7.590  0.4529 -0.7064  2.0014
 3607SOL     OW10819   0.360   4.426   8.940 -0.1797 -0.5248  0.5796
 3607SOL    HW110820   0.332   4.483   8.868  0.8995  2.5866  2.4676
 3607SOL    HW210821   0.285   4.422   8.999 -0.1608 -0.9310  0.5849
 3608SOL     OW10822   3.754   2.821   6.693 -0.5650  0.4025 -0.2327
 3608SOL    HW110823   3.776   2.750   6.633  0.4079  0.5762 -0.1126
 3608SOL    HW210824   3.839   2.854   6.722 -1.0002  1.4573 -0.0991
 3609SOL     OW10825   0.157   4.431   7.741 -0.5193  0.3169 -0.1345
 3609SOL    HW110826   0.144   4.342   7.774 -1.8565  0.6790  0.3668
 3609SOL    HW210827   0.155   4.486   7.820 -1.3885  0.9586 -0.5974
 3610SOL     OW10828   4.494   2.472  10.013 -0.1127  0.3545 -0.5860
 3610SOL    HW110829   4.501   2.480   9.918 -2.0142  1.2681 -0.7006
 3610SOL    HW210830   4.524   2.557  10.047 -1.6973  0.9318 -0.5542
 3611SOL     OW10831   3.829   2.529   8.599 -0.7229  0.0691 -0.1473
 3611SOL    HW110832   3.794   2.490   8.519 -1.0297  0.1761 -0.0666
 3611SOL    HW210833   3.808   2.622   8.592 -1.6929 -0.0888  0.5474
 3612SOL     OW10834   2.664   4.284   8.803  0.5365  0.0792  0.6687
 3612SOL    HW110835   2.757   4.267   8.822  1.0405  1.2620 -0.5588
 3612SOL    HW210836   2.666   4.342   8.727 -1.1223  2.5578  2.3518
 3613SOL     OW10837   0.074   2.942   7.965  0.6272 -0.7888  0.1729
 3613SOL    HW110838   0.014   2.882   8.010 -0.6276  0.8758  0.8387
 3613SOL    HW210839   0.154   2.939   8.017 -0.8190  1.1807  2.8072
 3614SOL     OW10840   3.691   1.460   7.524 -0.7366  0.2380  0.2392
 3614SOL    HW110841   3.779   1.492   7.542  0.2542 -1.8918 -0.3917
 3614SOL    HW210842   3.656   1.520   7.458  1.4617 -0.5580 -1.7804
 3615SOL     OW10843   4.057   3.474   5.385 -0.1487 -0.2127  0.5177
 3615SOL    HW110844   4.109   3.437   5.313  2.2104  0.7917  1.6173
 3615SOL    HW210845   4.024   3.557   5.350 -0.1224 -0.3475  0.1663
 3616SOL     OW10846   0.410   2.232   8.625 -0.2344 -0.0960  0.0686
 3616SOL    HW110847   0.441   2.278   8.703  1.1209 -0.6166 -0.1334
 3616SOL    HW210848   0.363   2.155   8.658  0.5328 -0.4366  0.3812
 3617SOL     OW10849   3.097   1.795   7.566  0.6550  0.0586 -0.6018
 3617SOL    HW110850   3.028   1.862   7.566 -0.1413 -0.5275 -4.0684
 3617SOL    HW210851   3.171   1.836   7.611 -0.7634  2.1203  0.0129
 3618SOL     OW10852   2.413   4.258   7.731 -0.2175  0.8532 -0.3936
 3618SOL    HW110853   2.348   4.250   7.801  0.1097  0.9953 -0.0705
 3618SOL    HW210854   2.362   4.282   7.653 -0.2373  4.1507  0.5147
 3619SOL     OW10855   0.478   1.749   5.698 -0.6042 -0.2079  0.3034
 3619SOL    HW110856   0.444   1.678   5.644 -0.0660 -0.5410  0.3997
 3619SOL    HW210857   0.500   1.818   5.635 -0.2182 -0.4981  0.1206
 3620SOL     OW10858   3.748   1.546   8.189  0.3775  0.8470 -0.2523
 3620SOL    HW110859   3.831   1.579   8.224 -0.6062  1.2352  1.8383
 3620SOL    HW210860   3.763   1.541   8.094  2.2379  2.4574 -0.1168
 3621SOL     OW10861   4.743   3.766   8.135 -0.7143 -0.2415  0.3015
 3621SOL    HW110862   4.768   3.758   8.043  0.6362 -0.9763  0.6958
 3621SOL    HW210863   4.776   3.686   8.176  1.2519  1.2831  1.9366
 3622SOL     OW10864   3.473   4.907   9.642 -0.1028 -0.0239  0.5731
 3622SOL    HW110865   3.561   4.932   9.672  1.0471 -1.2130 -1.5166
 3622SOL    HW210866   3.487   4.879   9.551 -2.6773 -0.2335  0.1773
 3623SOL     OW10867   0.460   3.295   8.403  0.1632 -0.1363  0.4192
 3623SOL    HW110868   0.504   3.369   8.446  0.4807 -0.3970  0.5478
 3623SOL    HW210869   0.438   3.236   8.475  0.4643 -0.4553  0.2527
 3624SOL     OW10870   4.106   0.917   7.605 -0.1086 -0.3935 -0.1952
 3624SOL    HW110871   4.076   0.885   7.690 -2.8457  1.8134 -0.2024
 3624SOL    HW210872   4.030   0.958   7.565  1.6725  0.8014 -2.6956
 3625SOL     OW10873   4.793   2.349   7.272 -0.6720 -0.0822  0.4099
 3625SOL    HW110874   4.843   2.267   7.270  2.2387  1.5078  1.8913
 3625SOL    HW210875   4.721   2.334   7.210  1.2066 -2.8152 -1.3668
 3626SOL     OW10876   4.356   2.897   8.485  0.2049  0.1439  0.0978
 3626SOL    HW110877   4.354   2.988   8.454 -0.2367  0.4369  0.9613
 3626SOL    HW210878   4.442   2.865   8.458 -0.4821  0.0691 -2.2596
 3627SOL     OW10879   3.782   0.947   5.623  0.0405  0.0085 -0.0756
 3627SOL    HW110880   3.844   0.881   5.654 -0.5961 -1.3309 -1.5472
 3627SOL    HW210881   3.780   0.936   5.528 -2.0184  0.3829 -0.1204
 3628SOL     OW10882   4.754   3.037   6.173 -0.0582  0.1456 -0.0647
 3628SOL    HW110883   4.734   2.957   6.123 -0.0959 -1.7243  2.6810
 3628SOL    HW210884   4.668   3.076   6.191 -0.3600 -0.9782  1.1567
 3629SOL     OW10885   3.641   4.443   8.886  0.3563 -0.3131  0.0346
 3629SOL    HW110886   3.632   4.478   8.974  1.0665 -0.7342  0.2818
 3629SOL    HW210887   3.728   4.472   8.857  0.2741 -0.4781 -0.3910
 3630SOL     OW10888   0.292   1.201   5.985 -0.2697  0.1628 -0.0991
 3630SOL    HW110889   0.315   1.288   5.952  0.4767 -0.7706 -2.2520
 3630SOL    HW210890   0.363   1.144   5.954 -0.0801 -1.0391  2.3295
 3631SOL     OW10891   1.234   2.801   9.815 -0.2637 -0.5388 -0.7346
 3631SOL    HW110892   1.146   2.839   9.819 -0.3745 -0.5331 -2.3634
 3631SOL    HW210893   1.291   2.876   9.802 -0.0051 -0.5398  0.3583
 3632SOL     OW10894   4.529   2.631   6.547  0.0684  0.1323  0.6230
 3632SOL    HW110895   4.517   2.692   6.474 -2.8595  0.2148  1.0370
 3632SOL    HW210896   4.448   2.580   6.549 -0.2390  0.5185  4.1280
 3633SOL     OW10897   4.650   1.966   5.265  0.0881 -0.3018 -0.0434
 3633SOL    HW110898   4.579   1.946   5.325 -0.6898 -0.6737 -1.0718
 3633SOL    HW210899   4.626   1.923   5.183  0.3721  1.4396 -1.0883
 3634SOL     OW10900   3.291   4.335   9.852  0.0743  0.1280  0.5802
 3634SOL    HW110901   3.248   4.272   9.794 -2.2298  0.8198  1.4145
 3634SOL    HW210902   3.219   4.391   9.884  1.8472  2.3777  0.8556
 3635SOL     OW10903   4.389   2.811   7.729 -0.5367  0.2986  0.6514
 3635SOL    HW110904   4.453   2.740   7.735 -0.1490  0.6420  0.5862
 3635SOL    HW210905   4.319   2.775   7.675 -0.2578  0.0299  0.4651
 3636SOL     OW10906   0.295   2.722   8.334  1.1608 -0.5068 -0.0653
 3636SOL    HW110907   0.350   2.748   8.407 -0.6873 -0.7157  1.4748
 3636SOL    HW210908   0.222   2.675   8.374 -0.7520  0.7353 -1.8694
 3637SOL     OW10909   0.785   2.206   6.547 -0.2634 -0.5104  0.2822
 3637SOL    HW110910   0.815   2.179   6.634 -1.0658  0.2536  0.8047
 3637SOL    HW210911   0.866   2.216   6.496  0.5621  2.6018  1.9656
 3638SOL     OW10912   3.062   3.540   8.019  0.1959 -0.2321  0.3769
 3638SOL    HW110913   3.033   3.454   7.990 -1.1540  0.3206  0.0318
 3638SOL    HW210914   3.032   3.600   7.950  1.6713  0.4529  0.2852
 3639SOL     OW10915   3.930   4.522   7.884  0.0220  0.2508  0.0410
 3639SOL    HW110916   3.880   4.533   7.965  1.7954  3.9085  0.8600
 3639SOL    HW210917   3.940   4.427   7.874 -2.8386 -0.4371  2.3855
 3640SOL     OW10918   2.010   4.758   7.687 -0.2645 -0.3943 -0.0301
 3640SOL    HW110919   2.006   4.826   7.755 -1.0049 -1.5735  1.1632
 3640SOL    HW210920   1.918   4.736   7.670 -0.0242 -1.7849  0.3501
 3641SOL     OW10921   2.020   1.051   9.465 -0.2551 -0.0300 -0.4152
 3641SOL    HW110922   1.958   1.116   9.430  0.2560  0.8051  0.2076
 3641SOL    HW210923   2.105   1.081   9.434 -0.1728 -1.3906 -1.5916
 3642SOL     OW10924   0.844   3.386   8.401 -0.5112  0.0578 -0.1458
 3642SOL    HW110925   0.783   3.454   8.373  0.4665  0.8698 -0.3848
 3642SOL    HW210926   0.877   3.417   8.486 -1.2775 -0.9394  0.5327
 3643SOL     OW10927   0.362   4.702   5.736  0.0620 -0.1053  1.0150
 3643SOL    HW110928   0.409   4.746   5.807  2.3376  1.3738 -1.2333
 3643SOL    HW210929   0.342   4.772   5.674 -1.0711 -1.4635 -0.2308
 3644SOL     OW10930   1.701   4.321   5.348 -0.0355 -0.1205 -0.6881
 3644SOL    HW110931   1.762   4.249   5.336 -0.1558 -0.2717 -0.3992
 3644SOL    HW210932   1.718   4.353   5.437  1.3460  1.4441 -1.4496
 3645SOL     OW10933   4.480   1.772   9.435 -0.6473  0.3084  0.0289
 3645SOL    HW110934   4.519   1.754   9.349 -0.5242  0.5185  0.0398
 3645SOL    HW210935   4.531   1.717   9.495  0.3512  1.3752  0.1926
 3646SOL     OW10936   3.839   3.694   8.286 -0.2725 -0.4387  0.2792
 3646SOL    HW110937   3.815   3.703   8.194 -0.3826 -2.3613  0.0897
 3646SOL    HW210938   3.911   3.756   8.297 -0.7226  0.3472 -0.8970
 3647SOL     OW10939   3.057   3.293   9.072  0.4747  0.2392 -0.1325
 3647SOL    HW110940   3.145   3.317   9.101  1.7458 -1.4146 -2.3229
 3647SOL    HW210941   3.048   3.201   9.100 -0.0146  0.0071 -1.0347
 3648SOL     OW10942   4.192   1.402   6.723 -0.4623  0.1923 -0.4796
 3648SOL    HW110943   4.168   1.387   6.814  1.0296  0.5659  0.0027
 3648SOL    HW210944   4.111   1.429   6.680 -0.9926  0.9307  0.9395
 3649SOL     OW10945   3.398   1.937   7.460 -0.2575 -0.4825 -0.3602
 3649SOL    HW110946   3.380   2.020   7.416  1.8046  0.0460 -0.3134
 3649SOL    HW210947   3.422   1.877   7.390  0.1302 -0.4782 -0.2357
 3650SOL     OW10948   3.469   2.157   8.580 -0.8077 -0.1549  0.0894
 3650SOL    HW110949   3.468   2.172   8.674  0.8990  0.0583  0.1127
 3650SOL    HW210950   3.509   2.070   8.570 -3.7631 -1.5701 -0.3540
 3651SOL     OW10951   3.874   2.813   9.023 -0.5996  0.2125  0.0203
 3651SOL    HW110952   3.834   2.817   8.936 -0.9950 -2.1349  0.0412
 3651SOL    HW210953   3.960   2.776   9.008 -0.3171  0.6431  0.5497
 3652SOL     OW10954   0.326   1.209   7.237  0.1801  0.2023 -0.1450
 3652SOL    HW110955   0.356   1.298   7.219 -0.6616 -0.0102 -2.9448
 3652SOL    HW210956   0.231   1.215   7.235  0.1178 -0.7397 -0.2561
 3653SOL     OW10957   0.198   2.733   7.812  0.0429  0.7069  0.0670
 3653SOL    HW110958   0.176   2.653   7.859  0.3351  0.9046  0.5439
 3653SOL    HW210959   0.185   2.803   7.876  1.5578  0.8733  0.2113
 3654SOL     OW10960   0.489   3.881   5.645 -0.1613 -0.9002  0.4603
 3654SOL    HW110961   0.428   3.898   5.574  0.3223  0.5544  0.3517
 3654SOL    HW210962   0.518   3.968   5.673  1.4977 -1.5260  0.8079
 3655SOL     OW10963   4.930   3.007   8.299  0.3055  0.6479  0.3051
 3655SOL    HW110964   4.954   3.018   8.391  0.8664  1.0415  0.1188
 3655SOL    HW210965   4.974   3.079   8.254  1.1410 -0.3121 -0.4695
 3656SOL     OW10966   0.421   4.221   8.014 -0.0560  0.3162 -0.6589
 3656SOL    HW110967   0.367   4.201   7.937  0.2324 -0.5275 -0.6478
 3656SOL    HW210968   0.366   4.279   8.067 -0.1720  1.0844 -1.6043
 3657SOL     OW10969   4.363   2.356   7.955  0.1400 -0.1574  0.1180
 3657SOL    HW110970   4.415   2.276   7.956  0.8322  0.2607  2.3003
 3657SOL    HW210971   4.273   2.326   7.972  0.4925 -0.4511  1.5853
 3658SOL     OW10972   2.721   4.187   7.694  0.1538 -0.5706  0.1209
 3658SOL    HW110973   2.689   4.165   7.781 -0.2206  3.0584  1.0556
 3658SOL    HW210974   2.660   4.142   7.634 -2.9883  1.0522  1.8297
 3659SOL     OW10975   4.879   0.408   6.784  0.0079  0.0442 -0.0335
 3659SOL    HW110976   4.881   0.443   6.695 -1.4130 -0.6873 -0.3795
 3659SOL    HW210977   4.789   0.422   6.814  0.7790  1.4298  1.7832
 3660SOL     OW10978   4.394   4.071   5.815 -0.0267 -0.2455  0.3284
 3660SOL    HW110979   4.442   3.994   5.785 -1.7362 -0.9002 -0.8635
 3660SOL    HW210980   4.437   4.144   5.770  0.9008 -0.6103  0.6009
 3661SOL     OW10981   4.486   1.654   7.928 -0.2191 -0.3406 -0.4118
 3661SOL    HW110982   4.403   1.620   7.895  0.2038 -0.7192 -1.1227
 3661SOL    HW210983   4.543   1.577   7.933 -0.2362 -0.2838  1.1620
 3662SOL     OW10984   3.498   0.603   7.576  0.4026 -0.2607  0.0317
 3662SOL    HW110985   3.522   0.567   7.491  2.6903 -1.3612  1.0631
 3662SOL    HW210986   3.555   0.679   7.587  0.0902 -0.0968  0.5621
 3663SOL     OW10987   4.477   2.450   8.699  0.2167  0.3189 -0.3509
 3663SOL    HW110988   4.465   2.360   8.730 -0.2372  0.8540  1.1506
 3663SOL    HW210989   4.389   2.478   8.674  0.5066  0.0568 -1.7455
 3664SOL     OW10990   4.400   1.928   8.332  0.0162 -0.2189  0.7386
 3664SOL    HW110991   4.451   2.009   8.331  1.5539 -1.0784  2.6057
 3664SOL    HW210992   4.438   1.875   8.262 -1.4715  0.8517 -0.9845
 3665SOL     OW10993   2.170   4.828   9.343  0.2530  0.2337 -0.6653
 3665SOL    HW110994   2.231   4.766   9.303  1.7911  1.0074  0.3768
 3665SOL    HW210995   2.213   4.855   9.424 -0.7533  2.0144 -0.6721
 3666SOL     OW10996   0.074   2.928   9.722 -0.2254  0.0439 -1.1775
 3666SOL    HW110997   0.102   3.016   9.694  1.6128 -0.8880 -2.4771
 3666SOL    HW210998   0.131   2.908   9.796 -1.1520  0.2047 -0.4013
 3667SOL     OW10999   4.596   1.207  10.008  0.5525 -0.4811  0.7712
 3667SOL    HW111000   4.628   1.156   9.933  1.2141  0.1632  0.6125
 3667SOL    HW211001   4.507   1.233   9.982  1.4388  1.3717 -0.6626
 3668SOL     OW11002   3.030   4.099   8.197 -0.4824  0.0803  0.1071
 3668SOL    HW111003   2.968   4.065   8.261  0.4888 -1.2410  0.3739
 3668SOL    HW211004   3.002   4.190   8.184 -1.3962  0.0436  1.5277
 3669SOL     OW11005   4.737   2.000   8.651 -0.7186  0.2354 -0.2249
 3669SOL    HW111006   4.724   1.954   8.568  1.6766 -0.3042 -0.3961
 3669SOL    HW211007   4.723   2.092   8.630  0.2631  0.1541 -1.3811
 3670SOL     OW11008   1.110   4.634   7.361  0.2590 -0.3668 -0.0303
 3670SOL    HW111009   1.133   4.705   7.421  0.6388 -1.8538  1.6726
 3670SOL    HW211010   1.190   4.619   7.310  0.3614  0.0500  0.0091
 3671SOL     OW11011   3.823   3.892   7.854  0.1670  0.6828 -0.6120
 3671SOL    HW111012   3.881   3.916   7.925 -1.0113  1.0992  0.2439
 3671SOL    HW211013   3.859   3.810   7.820  0.5366  0.2784  0.7123
 3672SOL     OW11014   3.752   4.073   9.333 -0.2351  0.0140  0.0137
 3672SOL    HW111015   3.667   4.104   9.363 -0.1282 -0.5554  0.9445
 3672SOL    HW211016   3.751   3.979   9.353  0.8303  0.1092  0.5783
 3673SOL     OW11017   4.240   0.420   9.828 -0.1535 -0.0774  0.7617
 3673SOL    HW111018   4.181   0.492   9.805  0.2335  0.3526  1.1087
 3673SOL    HW211019   4.307   0.460   9.882  2.0880  0.0349 -1.8599
 3674SOL     OW11020   4.672   2.987   7.871 -0.3165  0.2550  0.0871
 3674SOL    HW111021   4.620   2.990   7.790 -0.2390  1.2996  0.0602
 3674SOL    HW211022   4.613   2.948   7.935 -0.4257 -0.4632 -0.4311
 3675SOL     OW11023   4.775   2.501   9.310  0.0580  0.0978 -0.2264
 3675SOL    HW111024   4.788   2.488   9.404  1.1796 -1.3060 -0.5483
 3675SOL    HW211025   4.717   2.430   9.284  0.3112  0.0747 -0.7333
 3676SOL     OW11026   2.993   2.496   8.041  0.5194  0.6387 -0.3590
 3676SOL    HW111027   3.030   2.516   8.127 -0.8945 -0.1012  0.4534
 3676SOL    HW211028   3.052   2.539   7.979  3.3458 -1.3500  0.7806
 3677SOL     OW11029   1.561   4.732   9.429 -0.6046 -0.1630  0.3298
 3677SOL    HW111030   1.643   4.778   9.410 -1.1702  0.8529  0.2744
 3677SOL    HW211031   1.504   4.799   9.466 -1.6865 -0.6643 -0.3917
 3678SOL     OW11032   0.332   1.877   8.595  0.6319 -0.5117  0.3587
 3678SOL    HW111033   0.398   1.825   8.550  0.0727 -1.2198  0.3450
 3678SOL    HW211034   0.252   1.863   8.544  0.7129  1.3059 -0.3487
 3679SOL     OW11035   4.088   1.040   7.963 -0.0023  0.4371 -0.0867
 3679SOL    HW111036   4.179   1.068   7.966  0.5841 -1.4112  0.7309
 3679SOL    HW211037   4.051   1.069   8.047  0.6273 -1.2051  0.7981
 3680SOL     OW11038   2.173   4.542   7.755 -0.5982  0.6158  0.4531
 3680SOL    HW111039   2.104   4.608   7.762 -1.7362 -0.2509 -1.5919
 3680SOL    HW211040   2.165   4.508   7.666  0.5146 -1.6504  1.1183
 3681SOL     OW11041   1.468   0.829   9.579 -0.2176  0.2456  0.1603
 3681SOL    HW111042   1.558   0.862   9.585  0.0495 -0.0948 -1.4281
 3681SOL    HW211043   1.474   0.739   9.611  0.2009 -0.0529 -0.7132
 3682SOL     OW11044   0.734   2.553   6.684 -0.2202  0.0574 -0.2981
 3682SOL    HW111045   0.775   2.509   6.609  1.3614  1.3688 -0.2604
 3682SOL    HW211046   0.751   2.646   6.670  0.9704  0.2910  2.1446
 3683SOL     OW11047   0.250   3.306   6.312 -0.2616 -0.4389 -0.5263
 3683SOL    HW111048   0.167   3.274   6.278 -1.2050  0.1778  1.0703
 3683SOL    HW211049   0.272   3.246   6.383 -1.0313  1.1498  1.1698
 3684SOL     OW11050   4.534   0.164   9.011 -0.0972  0.3586  0.2546
 3684SOL    HW111051   4.474   0.207   9.073 -0.7265  0.1123 -0.1754
 3684SOL    HW211052   4.483   0.156   8.931  0.8761  1.0971 -0.4531
 3685SOL     OW11053   3.655   3.030   8.611 -0.1671 -0.3672  0.5669
 3685SOL    HW111054   3.691   2.943   8.596 -3.0908 -1.4812 -0.8420
 3685SOL    HW211055   3.725   3.079   8.654  1.6343 -3.3423  1.2512
 3686SOL     OW11056   2.520   2.075   6.923  0.0984  0.3107  0.3447
 3686SOL    HW111057   2.583   2.066   6.994 -0.1152 -0.0715  0.4873
 3686SOL    HW211058   2.554   2.148   6.871  0.0130  0.8878  1.0810
 3687SOL     OW11059   3.867   2.146   5.311  0.1910  0.5881 -0.3503
 3687SOL    HW111060   3.886   2.239   5.321  1.3869  0.2544  0.8104
 3687SOL    HW211061   3.845   2.136   5.218 -1.8345  2.3050 -0.1388
 3688SOL     OW11062   3.975   4.642   8.763  0.2983  0.4519 -0.3909
 3688SOL    HW111063   3.956   4.558   8.803 -2.7691  1.1683 -0.0806
 3688SOL    HW211064   4.009   4.696   8.834  3.3780 -0.6987 -0.8195
 3689SOL     OW11065   0.078   2.898   9.417  0.3106  0.2859 -0.2323
 3689SOL    HW111066   0.044   2.983   9.444  0.5143  0.1817  0.3644
 3689SOL    HW211067  -0.000   2.846   9.396  0.2179  0.9907 -1.7953
 3690SOL     OW11068   3.594   4.482   9.419  0.4287  0.1965 -0.3077
 3690SOL    HW111069   3.546   4.465   9.500  0.7672  0.6988 -0.0012
 3690SOL    HW211070   3.686   4.481   9.445  0.5929 -0.6262 -0.8676
 3691SOL     OW11071   4.705   1.610   6.935 -0.4450 -0.0644 -0.5774
 3691SOL    HW111072   4.656   1.584   6.856 -0.8490  0.8972 -0.6624
 3691SOL    HW211073   4.653   1.682   6.972  1.7324  2.2017 -1.6119
 3692SOL     OW11074   4.352   4.166   7.270 -0.1496  0.7983  0.6264
 3692SOL    HW111075   4.396   4.113   7.203 -0.6428  1.4281 -0.2259
 3692SOL    HW211076   4.291   4.220   7.220 -3.1699 -1.2172  1.8929
 3693SOL     OW11077   2.634   4.641   7.002 -0.6716  0.1414  0.2943
 3693SOL    HW111078   2.557   4.631   7.059  0.3000  0.0530  1.6386
 3693SOL    HW211079   2.696   4.692   7.055  0.4647 -0.3976 -0.4931
 3694SOL     OW11080   2.141   3.619   9.139  0.4410 -0.3292  0.1143
 3694SOL    HW111081   2.152   3.671   9.060  0.9444 -0.9557 -0.2404
 3694SOL    HW211082   2.049   3.628   9.162  0.4207  0.3251 -0.2138
 3695SOL     OW11083   3.537   4.775   6.921 -0.0784 -0.5245  0.1229
 3695SOL    HW111084   3.598   4.760   6.849 -0.1589 -3.7166  0.5973
 3695SOL    HW211085   3.594   4.790   6.997  0.0797 -0.6147  0.0235
 3696SOL     OW11086   2.323   3.248   9.346 -0.7539  0.3623 -0.2482
 3696SOL    HW111087   2.318   3.341   9.369  0.6913  0.4089 -0.0066
 3696SOL    HW211088   2.394   3.244   9.281  0.3212 -0.7719  0.9571
 3697SOL     OW11089   3.553   2.736   6.894 -0.9686  0.1050  0.0597
 3697SOL    HW111090   3.608   2.676   6.945 -0.5667  1.3593  1.1572
 3697SOL    HW211091   3.605   2.757   6.816 -1.1505 -1.0123 -0.3810
 3698SOL     OW11092   2.020   0.647   9.440  0.2405  0.5095 -0.3099
 3698SOL    HW111093   2.114   0.629   9.445  0.2284  0.0627 -1.3715
 3698SOL    HW211094   1.986   0.579   9.382 -0.7666  0.5766  0.1859
 3699SOL     OW11095   4.167   2.715   7.594 -0.2463  0.5876 -1.2457
 3699SOL    HW111096   4.153   2.623   7.571  1.0947  0.0381 -0.0638
 3699SOL    HW211097   4.088   2.760   7.565 -1.2381 -1.0565 -1.2150
 3700SOL     OW11098   1.077   3.304   8.091 -0.2687  0.3952  0.3790
 3700SOL    HW111099   1.099   3.301   8.184 -0.2848 -5.3394  0.5650
 3700SOL    HW211100   0.981   3.305   8.089 -0.3093 -0.9564  0.5791
 3701SOL     OW11101   3.795   1.813   7.860 -0.9721  0.2908  0.1703
 3701SOL    HW111102   3.807   1.907   7.875 -1.3304  0.3569  0.0662
 3701SOL    HW211103   3.733   1.809   7.787  0.2520 -0.0165 -0.8933
 3702SOL     OW11104   4.851   1.640   8.349  0.5682 -0.1960 -0.0526
 3702SOL    HW111105   4.826   1.603   8.434 -1.4861 -0.6117 -0.7665
 3702SOL    HW211106   4.912   1.576   8.312  0.7999 -0.4459  0.7517
 3703SOL     OW11107   3.308   3.913   7.303  0.1321  0.2545  0.3779
 3703SOL    HW111108   3.399   3.927   7.330  0.3962 -1.3400  0.4452
 3703SOL    HW211109   3.256   3.956   7.371  0.8246  1.2266  0.3130
 3704SOL     OW11110   3.216   4.465   9.517  0.0894 -0.3050  0.1229
 3704SOL    HW111111   3.146   4.479   9.581 -0.3893  0.6615 -0.5879
 3704SOL    HW211112   3.189   4.386   9.470 -1.7752  1.2911 -1.6815
 3705SOL     OW11113   1.043   1.673   5.420  0.0168  0.7785 -0.3578
 3705SOL    HW111114   1.057   1.623   5.501  1.1469  0.7832 -0.5459
 3705SOL    HW211115   0.948   1.667   5.405  0.1322 -1.4874 -0.4762
 3706SOL     OW11116   0.257   2.633   7.168  0.1754 -0.3559 -0.0194
 3706SOL    HW111117   0.290   2.720   7.189  0.5590  0.2350 -2.7143
 3706SOL    HW211118   0.263   2.584   7.250  4.4008  0.7439  0.5294
 3707SOL     OW11119   4.168   4.598   8.574 -0.3882  0.2516 -0.3614
 3707SOL    HW111120   4.101   4.623   8.638 -0.4001 -1.5502  0.3648
 3707SOL    HW211121   4.199   4.682   8.538 -2.0429  1.1825  0.2802
 3708SOL     OW11122   3.558   2.892   9.337 -0.1193 -0.0019  0.1643
 3708SOL    HW111123   3.552   2.979   9.298  0.5245  0.3979  0.9197
 3708SOL    HW211124   3.477   2.882   9.386  0.2720  0.6495  0.9819
 3709SOL     OW11125   4.461   3.315   9.106  0.3387  0.2767  0.0655
 3709SOL    HW111126   4.445   3.228   9.142  1.0668  0.4764  0.9073
 3709SOL    HW211127   4.538   3.305   9.050  2.1257  0.8559  2.2579
 3710SOL     OW11128   0.815   2.767   9.368  0.5488  0.0037  0.3741
 3710SOL    HW111129   0.903   2.777   9.333  1.0236  0.4220  1.6727
 3710SOL    HW211130   0.775   2.854   9.359  1.1959  0.5246  2.2371
 3711SOL     OW11131   2.794   0.032   9.321 -0.9380 -0.0305  0.3155
 3711SOL    HW111132   2.840   0.075   9.393 -0.8615  1.7690 -0.7606
 3711SOL    HW211133   2.837  -0.053   9.312  1.0577  0.9117  0.4420
 3712SOL     OW11134   0.222   1.668  10.243 -0.0495 -0.0214  0.3107
 3712SOL    HW111135   0.261   1.581  10.230  1.1747  0.6143 -0.4272
 3712SOL    HW211136   0.155   1.674  10.174  1.4707  0.5014 -1.1829
 3713SOL     OW11137   4.878   0.687   8.395 -0.1177  0.0578 -0.9187
 3713SOL    HW111138   4.926   0.757   8.350  1.0468 -0.3150 -0.3084
 3713SOL    HW211139   4.811   0.659   8.332 -0.7785  1.8831 -1.0742
 3714SOL     OW11140   2.464   0.336   9.634  0.1667 -0.3561  0.2745
 3714SOL    HW111141   2.510   0.276   9.575 -0.1924  1.0161 -1.4738
 3714SOL    HW211142   2.396   0.376   9.580  0.5679  1.8409  1.2853
 3715SOL     OW11143   3.875   0.995   5.942 -0.3134  0.1895  0.1599
 3715SOL    HW111144   3.946   1.050   5.976  1.5114 -1.3661 -0.8947
 3715SOL    HW211145   3.817   1.056   5.897  1.6411  1.3073 -0.9955
 3716SOL     OW11146   4.112   1.628   9.216  0.5700  0.3820  0.0850
 3716SOL    HW111147   4.111   1.688   9.291 -0.2659  2.1373 -1.2337
 3716SOL    HW211148   4.199   1.639   9.178  0.3078  1.0513 -0.3439
 3717SOL     OW11149   2.647   1.947   7.967  0.1283  0.0508  0.0726
 3717SOL    HW111150   2.649   2.035   8.004  0.2350 -1.0663  2.9983
 3717SOL    HW211151   2.556   1.920   7.976  0.4912 -0.8809  1.2909
 3718SOL     OW11152   1.007   0.695   9.889  0.6177  0.5579 -0.1069
 3718SOL    HW111153   1.047   0.742   9.816  1.2071  1.8690  1.0126
 3718SOL    HW211154   0.945   0.757   9.927 -0.4979 -0.4940 -0.1425
 3719SOL     OW11155   4.532   0.278   9.823  0.6227 -0.0263 -0.1807
 3719SOL    HW111156   4.440   0.293   9.800  0.6977 -1.6212 -1.7250
 3719SOL    HW211157   4.530   0.202   9.881  0.8608  1.0142  1.2439
 3720SOL     OW11158   3.894   4.763   8.207  0.2547 -0.2783 -0.6289
 3720SOL    HW111159   3.808   4.728   8.183  0.0075 -0.0817 -0.0299
 3720SOL    HW211160   3.897   4.849   8.166 -0.8921  0.8192  1.4872
 3721SOL     OW11161   2.982   4.936   8.900 -0.4046  0.8335 -0.3940
 3721SOL    HW111162   3.021   5.018   8.930 -0.4426 -0.0251  2.2811
 3721SOL    HW211163   3.057   4.882   8.876 -0.2470  0.9379 -0.1417
 3722SOL     OW11164   4.587   3.581   8.882  0.1004 -0.3854 -0.1212
 3722SOL    HW111165   4.642   3.504   8.894  0.6332  0.2556  2.0692
 3722SOL    HW211166   4.510   3.564   8.935  0.0541  0.4056  0.0789
 3723SOL     OW11167   3.480   4.338   9.210  0.1658  0.2886  0.2684
 3723SOL    HW111168   3.535   4.383   9.274 -1.0078  0.0188  1.5238
 3723SOL    HW211169   3.475   4.248   9.242  0.4949 -0.1448 -0.8549
 3724SOL     OW11170   0.095   2.186   9.068  0.0769  0.0362 -0.5004
 3724SOL    HW111171   0.165   2.247   9.090 -1.6613  2.3464 -1.0449
 3724SOL    HW211172   0.027   2.203   9.132 -1.0712 -0.1977 -1.6216
 3725SOL     OW11173   0.631   3.920   9.278  0.0766  0.2298 -0.2943
 3725SOL    HW111174   0.563   3.909   9.344 -0.3924  1.1266 -0.6145
 3725SOL    HW211175   0.698   3.855   9.301 -1.4492 -1.6006 -0.7283
 3726SOL     OW11176   4.322   3.088   8.044 -0.5275 -0.1225  0.3279
 3726SOL    HW111177   4.247   3.045   8.086  0.0952 -0.3313  1.2676
 3726SOL    HW211178   4.297   3.095   7.952 -0.8183 -2.1990  0.1819
 3727SOL     OW11179   1.691   0.173  10.023  0.3118  0.5428  0.0324
 3727SOL    HW111180   1.598   0.197  10.032  0.5227  1.2184  0.4647
 3727SOL    HW211181   1.738   0.253  10.041  1.0017  0.0963  0.2422
 3728SOL     OW11182   4.449   2.963   9.590 -0.6219 -0.5701 -0.2186
 3728SOL    HW111183   4.495   2.881   9.605  0.0218 -0.4847 -1.5440
 3728SOL    HW211184   4.440   3.002   9.676  0.2438 -1.4120  0.2739
 3729SOL     OW11185   0.429   2.980   9.397 -0.1059  0.0928  0.6605
 3729SOL    HW111186   0.354   2.985   9.337 -0.1301  0.8041  0.7339
 3729SOL    HW211187   0.400   2.921   9.466 -0.7609  0.6778  0.9019
 3730SOL     OW11188   1.110   2.360   8.885  0.2979 -0.1598 -0.3104
 3730SOL    HW111189   1.173   2.386   8.818  0.8409 -0.3121  0.1354
 3730SOL    HW211190   1.079   2.274   8.856 -0.1653  0.1780 -0.8450
 3731SOL     OW11191   3.730   2.930   9.580  0.8702 -0.7000 -0.1200
 3731SOL    HW111192   3.699   2.887   9.501  0.4358 -3.3523  1.3784
 3731SOL    HW211193   3.667   3.000   9.596  0.5485 -0.6124 -1.6692
 3732SOL     OW11194   3.253   3.624   8.204 -0.5784  0.3233  0.0148
 3732SOL    HW111195   3.178   3.613   8.146 -1.4672 -0.3748  1.2565
 3732SOL    HW211196   3.305   3.544   8.191 -1.1923 -0.2030  0.7565
 3733SOL     OW11197   4.474   3.893   9.835 -0.6880 -0.2476 -0.2266
 3733SOL    HW111198   4.487   3.867   9.744 -1.9614  2.0019 -1.1329
 3733SOL    HW211199   4.384   3.866   9.855 -0.7034  0.0336  0.0850
 3734SOL     OW11200   2.592   4.628   8.974 -0.4987  0.6966  0.1967
 3734SOL    HW111201   2.654   4.613   8.903  0.4121  0.7043  0.9740
 3734SOL    HW211202   2.575   4.722   8.974  0.3391  0.8538  0.6656
 3735SOL     OW11203   3.465   3.969   8.514 -0.4299  0.1058 -0.6530
 3735SOL    HW111204   3.464   3.881   8.553 -1.0742  0.8879  1.1913
 3735SOL    HW211205   3.536   3.965   8.450  1.2860 -1.0399  1.1901
 3736SOL     OW11206   1.660   4.867   9.957 -0.0256 -0.0952 -0.2698
 3736SOL    HW111207   1.751   4.854   9.984 -0.7323 -1.8356  1.5817
 3736SOL    HW211208   1.641   4.958   9.979  0.4974 -0.4781  2.0494
 3737SOL     OW11209   0.709   4.473   8.666 -0.1253 -0.0195 -0.0150
 3737SOL    HW111210   0.672   4.417   8.734 -4.2020  2.1571 -0.0913
 3737SOL    HW211211   0.669   4.440   8.585  1.4587 -0.0743 -0.8016
 3738SOL     OW11212   0.247   0.867   8.526  0.8844  0.4631 -0.4721
 3738SOL    HW111213   0.330   0.914   8.524  0.9241  0.6092  1.6770
 3738SOL    HW211214   0.265   0.787   8.575 -0.5844  1.3757  1.7203
 3739SOL     OW11215   1.617   2.544   8.105 -0.5903 -0.0182  0.1693
 3739SOL    HW111216   1.619   2.449   8.094 -1.7877 -0.3965  2.5299
 3739SOL    HW211217   1.702   2.565   8.143  0.0960  0.0476 -1.3397
 3740SOL     OW11218   4.172   0.077   8.119  0.0327 -0.0350  0.2977
 3740SOL    HW111219   4.252   0.025   8.111  0.2419  0.4673 -1.2960
 3740SOL    HW211220   4.200   0.167   8.101 -0.8130  0.1920  0.0615
 3741SOL     OW11221   0.041   4.573   9.814  0.2018 -0.3104  0.3598
 3741SOL    HW111222  -0.027   4.607   9.756 -0.2504  0.8160  1.5038
 3741SOL    HW211223   0.085   4.652   9.847  1.0929 -0.9691  0.7781
 3742SOL     OW11224   4.765   2.393   9.598 -0.1724  0.5104 -0.0989
 3742SOL    HW111225   4.719   2.445   9.664 -0.9249 -0.5042  0.2132
 3742SOL    HW211226   4.847   2.368   9.640 -0.5993 -0.0361  0.4378
 3743SOL     OW11227   0.377   1.953   9.725  0.1464  0.4283  0.0838
 3743SOL    HW111228   0.332   2.018   9.671  1.9019  2.6522  1.1129
 3743SOL    HW211229   0.313   1.884   9.740 -2.9317  3.3278  1.4399
 3744SOL     OW11230   3.084   3.752   9.752  0.1122  0.4653 -0.0795
 3744SOL    HW111231   3.054   3.674   9.706  1.0662  0.5282 -0.8455
 3744SOL    HW211232   3.067   3.824   9.690  1.0341  0.6029 -0.1842
 3745SOL     OW11233   4.670   3.846   8.787  0.3947  0.2122  0.0517
 3745SOL    HW111234   4.629   3.763   8.811 -0.2316  0.4236 -0.2669
 3745SOL    HW211235   4.757   3.842   8.827 -0.6361  0.6113  2.4344
 3746SOL     OW11236   4.754   0.223   8.880 -0.3430 -0.5773  0.1395
 3746SOL    HW111237   4.691   0.256   8.944 -1.7239  1.2995 -2.0524
 3746SOL    HW211238   4.718   0.138   8.854 -1.8427  0.3008 -0.8045
 3747SOL     OW11239   1.747   0.822   7.891  0.6508 -0.3884 -0.4159
 3747SOL    HW111240   1.727   0.746   7.838  1.6584 -0.4677 -0.7101
 3747SOL    HW211241   1.801   0.878   7.834 -1.3807  1.3301 -0.7837
 3748SOL     OW11242   1.121   1.827   8.368  0.4545  0.3231  0.2617
 3748SOL    HW111243   1.104   1.737   8.340 -1.6899  0.7769 -0.0627
 3748SOL    HW211244   1.197   1.820   8.426  1.6860 -1.3704 -1.4254
 3749SOL     OW11245   2.279   3.730   8.028 -0.4951  0.2404 -0.0482
 3749SOL    HW111246   2.248   3.684   7.950 -0.7666  1.7369 -0.8813
 3749SOL    HW211247   2.198   3.755   8.074 -0.3304 -0.9399  0.9347
 3750SOL     OW11248   4.306   4.802   8.818  0.1662  0.8612  0.8896
 3750SOL    HW111249   4.226   4.785   8.868 -0.0169  0.0135  0.3378
 3750SOL    HW211250   4.278   4.860   8.747 -0.4774 -1.1523 -0.5972
 3751SOL     OW11251   4.072   2.420   9.174 -0.1354  0.0939  0.2389
 3751SOL    HW111252   4.088   2.454   9.086  0.2233  1.5061  0.8255
 3751SOL    HW211253   4.154   2.376   9.197 -0.5508 -1.1216 -0.4610
 3752SOL     OW11254   1.557   2.979   9.103 -0.0394 -0.1121  0.3505
 3752SOL    HW111255   1.638   2.993   9.153 -1.1562 -1.1627  2.5998
 3752SOL    HW211256   1.556   2.884   9.087 -1.1910 -0.2281  1.0480
 3753SOL     OW11257   4.727   4.475   8.629  0.5145 -0.2378  0.4463
 3753SOL    HW111258   4.659   4.416   8.598 -1.3859 -0.1270  3.8819
 3753SOL    HW211259   4.685   4.561   8.631  2.1887  0.7080 -1.3172
 3754SOL     OW11260   3.380   4.056   9.176  0.3414 -1.2220 -0.4515
 3754SOL    HW111261   3.411   4.018   9.094 -0.5299 -1.3126 -0.7459
 3754SOL    HW211262   3.285   4.060   9.167  0.2529 -0.9694  0.4431
 3755SOL     OW11263   1.901   4.658   9.629  0.5742  0.3844 -0.2053
 3755SOL    HW111264   1.859   4.743   9.617  0.0672  0.0692 -0.6778
 3755SOL    HW211265   1.941   4.664   9.716  0.0583  0.9019  0.0073
 3756SOL     OW11266   4.301   2.290  10.145 -0.1803  0.0244 -0.1354
 3756SOL    HW111267   4.359   2.214  10.139 -0.9519 -0.7681  1.8288
 3756SOL    HW211268   4.355   2.364  10.116  0.3992 -1.2964 -2.7303
 3757SOL     OW11269   2.431   0.394   9.962  0.2926  0.5967  0.2927
 3757SOL    HW111270   2.349   0.360   9.998  0.6402 -1.0699 -0.4070
 3757SOL    HW211271   2.425   0.377   9.868  1.1651  1.0437  0.1462
 3758SOL     OW11272   3.902   3.228   7.595 -0.0216  0.5115 -0.2897
 3758SOL    HW111273   3.865   3.224   7.507 -0.9801  0.2499  0.1112
 3758SOL    HW211274   3.873   3.147   7.637 -1.8311  1.7884  1.1104
 3759SOL     OW11275   4.739   2.107   9.591 -0.2502  0.4988  0.5174
 3759SOL    HW111276   4.767   2.198   9.608 -0.3201  0.7425 -0.5774
 3759SOL    HW211277   4.722   2.105   9.497 -0.5966 -0.5682  0.5938
 3760SOL     OW11278   4.287   3.991   8.417 -0.2382 -0.5384  0.5676
 3760SOL    HW111279   4.305   3.985   8.511 -1.2517 -1.0476  0.7380
 3760SOL    HW211280   4.314   3.906   8.382 -2.2320 -1.3316  0.8323
 3761SOL     OW11281   4.087   0.899   9.082  0.3687 -0.1635  0.1675
 3761SOL    HW111282   4.014   0.877   9.139  0.0924  0.6055  0.1243
 3761SOL    HW211283   4.133   0.816   9.068 -0.8564 -0.7914 -0.3268
 3762SOL     OW11284   1.202   3.823   9.032 -0.5107  0.0364 -0.2215
 3762SOL    HW111285   1.136   3.846   9.097 -0.2894 -2.4674  1.0066
 3762SOL    HW211286   1.275   3.789   9.084  1.6770  2.3703 -1.5541
 3763SOL     OW11287   3.296   3.137   8.909 -0.1373  0.3087 -0.0348
 3763SOL    HW111288   3.224   3.095   8.955 -0.3535  1.2916  0.5641
 3763SOL    HW211289   3.309   3.220   8.955  0.2635  0.9060 -1.1718
 3764SOL     OW11290   3.375   0.325   9.123  0.3457 -0.2923 -0.1153
 3764SOL    HW111291   3.365   0.279   9.040  0.7963  0.8431 -0.8120
 3764SOL    HW211292   3.308   0.286   9.180  0.0304 -1.0716 -1.0021
 3765SOL     OW11293   0.001   3.663   8.411 -0.0687  0.0711 -0.0815
 3765SOL    HW111294  -0.015   3.744   8.460 -1.9410  0.3745 -1.0745
 3765SOL    HW211295   0.020   3.693   8.322  1.3128 -0.5416 -0.0188
 3766SOL     OW11296   2.222   1.004   7.314 -0.3208  0.0642  0.4354
 3766SOL    HW111297   2.284   0.966   7.251  0.9800  1.5226  0.7582
 3766SOL    HW211298   2.191   1.083   7.271 -0.0898  0.6127  1.2505
 3767SOL     OW11299   0.524   4.645   8.521  0.3870 -0.1333 -0.5048
 3767SOL    HW111300   0.613   4.634   8.488 -0.3268  0.4055 -2.7800
 3767SOL    HW211301   0.498   4.731   8.489 -1.7092 -1.1905 -1.8626
 3768SOL     OW11302   3.983   3.447   9.652 -0.0023 -0.4596  0.1189
 3768SOL    HW111303   3.979   3.391   9.730 -0.1274 -0.8007 -0.1355
 3768SOL    HW211304   4.037   3.521   9.680  2.4219 -1.9546 -0.3472
 3769SOL     OW11305   4.957   2.515   9.049  0.8548 -0.2556 -0.1728
 3769SOL    HW111306   4.886   2.532   9.111  0.9291  0.7267 -0.3318
 3769SOL    HW211307   4.927   2.441   8.997  0.4066 -0.5203  0.4580
 3770SOL     OW11308   4.914   0.996   9.919 -0.4754  0.5734 -0.2766
 3770SOL    HW111309   4.942   0.929   9.857 -1.0716  0.4497 -0.4193
 3770SOL    HW211310   4.955   0.971  10.002 -1.3207 -0.4238 -0.1338
 3771SOL     OW11311   4.549   3.233   8.715 -0.2987  0.4759 -0.4177
 3771SOL    HW111312   4.584   3.144   8.706  0.0377  0.6323 -0.6861
 3771SOL    HW211313   4.541   3.265   8.625 -0.2214  0.7897 -0.3135
 3772SOL     OW11314   2.038   3.553   9.796 -0.3016 -0.0771 -0.2748
 3772SOL    HW111315   2.069   3.642   9.808  1.1510 -0.5683 -0.1728
 3772SOL    HW211316   2.062   3.508   9.877 -0.9182 -0.5897 -0.3680
 3773SOL     OW11317   4.509   0.823  10.054 -0.2669 -0.1079 -0.2498
 3773SOL    HW111318   4.477   0.913  10.057 -1.3698 -0.4974  0.2393
 3773SOL    HW211319   4.550   0.808  10.139 -0.5892 -0.2399 -0.1159
 3774SOL     OW11320   0.747   1.992   9.441  0.5961 -0.2609 -0.1770
 3774SOL    HW111321   0.800   2.060   9.482  0.6772  0.0878 -0.8477
 3774SOL    HW211322   0.779   1.987   9.351 -2.2291  1.8033 -1.4381
 3775SOL     OW11323   0.335   1.104   9.446 -0.5150  0.0269  0.2418
 3775SOL    HW111324   0.249   1.102   9.489 -0.5709  0.3831  0.1448
 3775SOL    HW211325   0.390   1.153   9.506 -0.9927  1.9403 -0.8175
 3776SOL     OW11326   4.239   0.044   9.207  0.0864 -0.0051  0.2155
 3776SOL    HW111327   4.306   0.113   9.211 -0.2068  0.3086 -0.1199
 3776SOL    HW211328   4.287  -0.036   9.187  0.5924 -0.1566  1.9030
 3777SOL     OW11329   3.536   3.717   8.564 -0.6931  0.2650 -0.7341
 3777SOL    HW111330   3.564   3.713   8.655 -0.5477  2.9100 -0.5683
 3777SOL    HW211331   3.589   3.651   8.519 -1.4618 -1.7832  1.1881
 3778SOL     OW11332   4.592   3.113   9.316  0.1030  0.4198  0.0731
 3778SOL    HW111333   4.564   3.045   9.254  1.2279  0.4940 -0.5466
 3778SOL    HW211334   4.512   3.138   9.361 -0.3960 -1.1386  0.1424
 3779SOL     OW11335   4.232   1.885   7.759  0.2617 -0.0386 -0.6594
 3779SOL    HW111336   4.172   1.844   7.821 -0.4752  1.8772 -0.0335
 3779SOL    HW211337   4.269   1.812   7.710 -1.6098 -1.3897 -0.1903
 3780SOL     OW11338   0.290   0.940  10.202 -0.9425  0.3146  0.0894
 3780SOL    HW111339   0.376   0.917  10.237 -0.9788  0.2864  0.1606
 3780SOL    HW211340   0.299   0.933  10.107 -0.9251  0.1079  0.1066
 3781SOL     OW11341   3.744   2.454   9.062 -0.0243  0.7536  0.2981
 3781SOL    HW111342   3.695   2.533   9.084 -2.3173 -0.1442 -1.2325
 3781SOL    HW211343   3.756   2.410   9.147  0.1399  2.0877  0.9978
 3782SOL     OW11344   4.904   0.682  10.070  0.0646 -0.0849 -0.0874
 3782SOL    HW111345   4.932   0.645   9.987  1.7750  0.6814  0.1089
 3782SOL    HW211346   4.983   0.682  10.125 -0.2612  2.1742  0.4970
 3783SOL     OW11347   3.735   2.595  10.110  0.4524 -0.3736  0.2512
 3783SOL    HW111348   3.823   2.592  10.072  0.5916 -0.4209  0.5703
 3783SOL    HW211349   3.728   2.684  10.146  0.3524 -0.3556  0.1870
 3784SOL     OW11350   0.233   2.480   9.961  0.1802  0.3226  0.0245
 3784SOL    HW111351   0.328   2.474   9.971  0.1676  1.8487  1.6900
 3784SOL    HW211352   0.201   2.504  10.048 -1.5900  1.1355 -0.7857
 3785SOL     OW11353   0.922   1.716   9.599  0.1258 -0.1170  0.4121
 3785SOL    HW111354   0.888   1.750   9.681  0.6169  0.2788  0.4551
 3785SOL    HW211355   0.848   1.668   9.560  0.1758 -1.1480  1.5386
 3786SOL     OW11356   1.805   1.641   9.333 -0.0952  0.1552  0.1342
 3786SOL    HW111357   1.710   1.652   9.331 -0.1891 -0.6205 -0.9896
 3786SOL    HW211358   1.827   1.611   9.244  1.3199  1.2543  0.0732
 3787SOL     OW11359   0.032   0.145   8.744 -0.2633 -0.1587  0.1849
 3787SOL    HW111360  -0.053   0.159   8.785 -1.2720 -1.9895 -1.1491
 3787SOL    HW211361   0.072   0.232   8.740 -2.8126  1.0545 -0.7610
 3788SOL     OW11362   4.062   2.705   8.159  0.5784 -0.6484  0.1341
 3788SOL    HW111363   4.109   2.738   8.083 -1.8499  1.9890 -0.4220
 3788SOL    HW211364   4.005   2.636   8.124  0.4363 -0.3772 -0.1736
 3789SOL     OW11365   2.312   2.627   8.002 -0.2195  0.4067 -0.2074
 3789SOL    HW111366   2.335   2.626   8.095 -1.6519  1.6285  0.1933
 3789SOL    HW211367   2.355   2.706   7.968  0.2809 -0.0251 -0.5937
 3790SOL     OW11368   1.345   0.950   7.053 -0.5499  0.2509 -0.3576
 3790SOL    HW111369   1.316   0.859   7.054 -1.8897  0.6494  1.1174
 3790SOL    HW211370   1.407   0.955   6.980 -1.1206 -1.6206 -1.0205
 3791SOL     OW11371   3.739   2.311   7.999  0.2392 -0.1016 -0.1221
 3791SOL    HW111372   3.780   2.230   8.031 -0.8606 -0.3401  0.7181
 3791SOL    HW211373   3.647   2.288   7.988  0.1688  0.6577 -1.2302
 3792SOL     OW11374   2.414   3.873   9.709 -0.0977 -0.6597  0.4110
 3792SOL    HW111375   2.468   3.794   9.702  1.1686  0.0699  1.3620
 3792SOL    HW211376   2.324   3.841   9.710  0.4049 -2.1457  1.3897
 3793SOL     OW11377   4.085   2.955   9.255 -0.2371  0.9986 -0.1832
 3793SOL    HW111378   4.016   3.012   9.291 -0.1142  1.4404 -0.6315
 3793SOL    HW211379   4.039   2.900   9.191 -0.4125  0.3752  0.4730
 3794SOL     OW11380   3.652   4.359   7.825  0.2644 -0.2995 -0.0394
 3794SOL    HW111381   3.660   4.265   7.838 -0.7544 -0.5514 -1.0573
 3794SOL    HW211382   3.665   4.397   7.912  0.2703 -1.4065  0.4564
 3795SOL     OW11383   2.174   4.061   9.488  0.2339  0.6878 -0.0051
 3795SOL    HW111384   2.268   4.075   9.473  0.4207 -0.6393 -0.1966
 3795SOL    HW211385   2.165   4.058   9.583  0.4764  0.3291  0.0110
 3796SOL     OW11386   0.735   4.577   7.408  0.3666  0.0936  0.4097
 3796SOL    HW111387   0.651   4.533   7.396  0.8258 -0.5490 -0.6959
 3796SOL    HW211388   0.799   4.505   7.414  1.0055  0.5769 -0.3580
 3797SOL     OW11389   3.582   3.299   7.735 -0.0316  0.4349  0.4682
 3797SOL    HW111390   3.522   3.226   7.717 -1.2974  1.7895 -1.1291
 3797SOL    HW211391   3.659   3.257   7.774 -0.7603 -1.7373 -0.2485
 3798SOL     OW11392   1.614   3.807   9.437 -0.3172  0.5238 -0.2655
 3798SOL    HW111393   1.553   3.866   9.480 -0.4090  0.2205  0.0234
 3798SOL    HW211394   1.665   3.863   9.378 -2.1319  0.5320 -1.9538
 3799SOL     OW11395   3.520   4.773   9.342 -1.0859 -0.8243 -0.5208
 3799SOL    HW111396   3.450   4.710   9.354 -0.9925 -0.8335  0.0299
 3799SOL    HW211397   3.476   4.857   9.329 -1.2055 -0.9318 -0.7963
 3800SOL     OW11398   2.645   2.816   8.883  0.5105  0.2365  0.2935
 3800SOL    HW111399   2.659   2.844   8.793  1.7168 -1.5186 -0.1272
 3800SOL    HW211400   2.556   2.780   8.883  1.1836 -1.6110 -0.7940
 3801SOL     OW11401   4.396   1.779   9.838  0.0173  0.6204 -0.0004
 3801SOL    HW111402   4.441   1.697   9.818  0.5313  0.6301  1.0312
 3801SOL    HW211403   4.462   1.847   9.824  0.0959  0.7036  0.7368
 3802SOL     OW11404   3.825   1.741   8.573 -0.3047 -0.7840 -0.9921
 3802SOL    HW111405   3.875   1.821   8.555  0.8360 -1.2688 -0.0105
 3802SOL    HW211406   3.738   1.773   8.598  0.2706  0.1841 -0.1547
 3803SOL     OW11407   4.104   4.943   7.870  0.3406 -0.8063  0.3322
 3803SOL    HW111408   4.124   5.033   7.894 -3.3292 -0.1115  1.3336
 3803SOL    HW211409   4.108   4.895   7.953 -2.7262 -0.3964  0.8345
 3804SOL     OW11410   3.552   2.805   6.080  0.5604  0.1957 -0.1439
 3804SOL    HW111411   3.465   2.775   6.106  0.1136  0.2864 -1.4648
 3804SOL    HW211412   3.573   2.874   6.143  0.3765 -0.8954  1.1657
 3805SOL     OW11413   3.724   3.224   6.205  0.0770  0.3257  0.0026
 3805SOL    HW111414   3.707   3.149   6.262 -2.4075  1.7216  1.2513
 3805SOL    HW211415   3.740   3.297   6.264  1.6431  0.9975 -1.1830
 3806SOL     OW11416   1.496   0.433   9.774  0.3829 -0.6464 -0.7408
 3806SOL    HW111417   1.551   0.511   9.781 -1.4165  0.5603  1.7052
 3806SOL    HW211418   1.432   0.454   9.706 -1.1619  0.8708  1.0598
 3807SOL     OW11419   3.718   0.993   5.329  0.4227  0.6025 -0.0070
 3807SOL    HW111420   3.635   1.039   5.313  0.8980  1.2138 -0.7502
 3807SOL    HW211421   3.784   1.061   5.327  1.0220  0.0252 -0.0899
 3808SOL     OW11422   0.696   1.099   5.014 -0.0387 -0.4998  0.2626
 3808SOL    HW111423   0.642   1.129   5.087 -0.6443  0.2665 -0.4723
 3808SOL    HW211424   0.633   1.071   4.948  0.3318  2.0001 -1.2919
 3809SOL     OW11425   2.736   4.343   5.886 -0.3768 -0.0781 -0.1172
 3809SOL    HW111426   2.735   4.252   5.860  1.9933 -0.2464  0.1218
 3809SOL    HW211427   2.765   4.391   5.808 -0.3450  0.3164  0.1305
 3810SOL     OW11428   4.597   3.322   5.542  0.0062 -0.1315 -0.3210
 3810SOL    HW111429   4.554   3.404   5.516  1.0292  0.9765  1.2626
 3810SOL    HW211430   4.670   3.350   5.598 -0.0877 -2.1623  0.9365
 3811SOL     OW11431   0.146   4.329   7.442  0.7034 -0.1826  0.4164
 3811SOL    HW111432   0.231   4.286   7.451  0.1337 -1.0742  2.0522
 3811SOL    HW211433   0.145   4.394   7.512 -0.5194 -1.2246  1.4182
 3812SOL     OW11434   1.346   0.317   5.921 -0.4447  0.4956 -0.0099
 3812SOL    HW111435   1.368   0.263   5.997 -0.7435  0.2146 -0.1221
 3812SOL    HW211436   1.430   0.355   5.894 -0.7070  2.8662  2.1594
 3813SOL     OW11437   4.195   3.939   7.731  0.1632 -0.3070  0.9659
 3813SOL    HW111438   4.219   3.852   7.763 -0.1096  0.1918  2.6204
 3813SOL    HW211439   4.271   3.994   7.752  0.5341 -0.2152 -0.5100
 3814SOL     OW11440   0.364   4.110   5.443 -0.2948  0.4419  0.0450
 3814SOL    HW111441   0.404   4.121   5.357  0.2508 -0.2004  0.2166
 3814SOL    HW211442   0.289   4.053   5.427  2.6589 -4.1261  0.6981
 3815SOL     OW11443   1.671   3.164   5.742  0.9741 -0.2997 -0.2902
 3815SOL    HW111444   1.669   3.108   5.819  1.3822 -0.6257 -0.5134
 3815SOL    HW211445   1.647   3.105   5.670 -2.7431  0.6255 -0.0618
 3816SOL     OW11446   4.451   2.260   5.983  0.7605 -0.1445 -0.0495
 3816SOL    HW111447   4.529   2.218   6.019  0.1679 -1.0139  0.2611
 3816SOL    HW211448   4.432   2.332   6.043  2.1507  1.0046 -0.9330
 3817SOL     OW11449   0.962   4.331   5.735  0.6366  0.1807  0.2753
 3817SOL    HW111450   1.039   4.274   5.740  0.6761  0.3815  2.5088
 3817SOL    HW211451   0.953   4.350   5.641  3.0005 -0.2367 -0.0914
 3818SOL     OW11452   2.700   4.463   6.362 -0.4447  0.2491  0.0716
 3818SOL    HW111453   2.739   4.421   6.438  2.7227  3.6905  0.6564
 3818SOL    HW211454   2.718   4.402   6.290  1.7433 -0.5755  1.2058
 3819SOL     OW11455   4.417   0.681   7.192  0.4325 -0.2471  0.0590
 3819SOL    HW111456   4.416   0.775   7.209 -0.7645 -0.3185  0.5064
 3819SOL    HW211457   4.378   0.643   7.271 -2.6938 -0.8151 -1.6186
 3820SOL     OW11458   2.147   0.261   7.645 -0.5459 -0.1367 -0.3395
 3820SOL    HW111459   2.156   0.172   7.679 -0.5022  0.1561  0.4320
 3820SOL    HW211460   2.053   0.273   7.635 -0.5169 -0.5741 -1.3070
 3821SOL     OW11461   2.640   4.732   8.314  0.0617 -0.2274  0.2133
 3821SOL    HW111462   2.575   4.772   8.256 -0.4279 -0.7625  0.3833
 3821SOL    HW211463   2.672   4.657   8.264  0.6223  0.0881  0.0923
 3822SOL     OW11464   3.685   2.095   7.067 -0.4137 -1.1285  0.0009
 3822SOL    HW111465   3.694   2.031   6.997 -1.2573 -0.4945 -0.7118
 3822SOL    HW211466   3.693   2.180   7.023 -0.3694 -0.7325  0.7620
 3823SOL     OW11467   0.520   3.845   5.299 -0.0891  0.1480  0.1393
 3823SOL    HW111468   0.433   3.816   5.327 -0.2527  0.7386  0.2651
 3823SOL    HW211469   0.578   3.773   5.322 -0.3883  0.1770  1.0115
 3824SOL     OW11470   0.936   3.736   6.285 -0.5606  0.4334 -0.1037
 3824SOL    HW111471   0.922   3.827   6.310 -1.3046  0.0093  1.1317
 3824SOL    HW211472   0.852   3.693   6.303 -0.1879 -0.5309 -0.5530
 3825SOL     OW11473   2.633   3.491   5.242  0.1746  0.2126  0.8566
 3825SOL    HW111474   2.606   3.400   5.247 -1.1754  0.5060 -0.3956
 3825SOL    HW211475   2.721   3.488   5.205  0.0366 -0.5639  0.5806
 3826SOL     OW11476   3.057   1.918   5.071  0.4796  0.1479  0.3306
 3826SOL    HW111477   3.118   1.967   5.016  0.7984  1.2083  1.5779
 3826SOL    HW211478   3.111   1.882   5.141 -0.2629  0.9324  1.3350
 3827SOL     OW11479   4.494   1.553   6.393 -0.2828 -0.5220  0.2519
 3827SOL    HW111480   4.467   1.489   6.328  1.4667  1.0166 -2.1747
 3827SOL    HW211481   4.587   1.535   6.408 -0.8223 -1.3743  3.0856
 3828SOL     OW11482   0.646   2.835   6.037 -0.3437  0.3714 -0.1769
 3828SOL    HW111483   0.689   2.920   6.047 -2.4573  1.3983  0.9054
 3828SOL    HW211484   0.603   2.820   6.121 -0.1404 -1.7431 -0.3898
 3829SOL     OW11485   4.294   3.392   7.633  0.3585 -0.8688 -0.0279
 3829SOL    HW111486   4.385   3.420   7.634  0.6570 -1.8153 -0.1626
 3829SOL    HW211487   4.296   3.302   7.600 -0.6800 -0.6756 -0.6818
 3830SOL     OW11488   2.159   0.002   5.093 -0.8166  0.2634 -0.4264
 3830SOL    HW111489   2.192   0.088   5.066 -1.4631  0.2105 -1.4610
 3830SOL    HW211490   2.064   0.009   5.083 -0.8232 -0.8460 -1.4220
 3831SOL     OW11491   1.432   4.147   4.769  0.1784  0.6462 -0.6369
 3831SOL    HW111492   1.422   4.088   4.843  0.0404  1.3267 -0.1020
 3831SOL    HW211493   1.394   4.100   4.695  0.8784 -0.2955 -0.4152
 3832SOL     OW11494   0.384   4.849   5.969  0.1683  0.1868 -0.3589
 3832SOL    HW111495   0.306   4.799   5.995  1.1618 -0.5455  1.3844
 3832SOL    HW211496   0.454   4.815   6.025  1.8827  0.4850 -2.2097
 3833SOL     OW11497   4.601   3.404   6.627  0.0440 -0.3691 -0.0089
 3833SOL    HW111498   4.630   3.380   6.539  0.5620 -1.0799  0.3450
 3833SOL    HW211499   4.568   3.493   6.618 -0.0593 -0.4886 -0.9556
 3834SOL     OW11500   0.428   3.801   5.890  0.3918  0.1456  0.6530
 3834SOL    HW111501   0.458   3.838   5.807  3.8545  2.1620  2.5300
 3834SOL    HW211502   0.369   3.867   5.926 -2.2550 -1.3489 -0.6242
 3835SOL     OW11503   3.645   3.556   5.800 -0.2932 -0.3993 -0.0852
 3835SOL    HW111504   3.676   3.467   5.820 -0.4703  0.0386  2.5439
 3835SOL    HW211505   3.606   3.586   5.882  0.5274  2.4401 -0.6366
 3836SOL     OW11506   0.370   1.147   5.389 -0.2321  0.9314  0.2203
 3836SOL    HW111507   0.361   1.202   5.467 -0.1801 -0.2428  1.0761
 3836SOL    HW211508   0.440   1.189   5.339  0.2581  1.2933  1.1692
 3837SOL     OW11509   0.784   3.615   5.947  0.6032 -0.2510  0.0073
 3837SOL    HW111510   0.817   3.539   5.994 -1.4371 -0.2058  1.6707
 3837SOL    HW211511   0.739   3.577   5.871  0.4131 -0.6478  0.3100
 3838SOL     OW11512   4.275   2.221   6.676 -0.2668 -0.2928 -0.1259
 3838SOL    HW111513   4.351   2.167   6.651 -1.3181 -0.5092 -3.3057
 3838SOL    HW211514   4.303   2.311   6.656 -0.5268 -0.2763 -0.4131
 3839SOL     OW11515   1.449   4.737   5.259 -0.2049 -0.3876 -0.2942
 3839SOL    HW111516   1.492   4.661   5.221 -0.2348  1.0886 -3.5711
 3839SOL    HW211517   1.520   4.789   5.297  0.1439 -0.8025 -0.3746
 3840SOL     OW11518   2.548   3.779   8.088  0.2666 -0.2024 -0.6500
 3840SOL    HW111519   2.531   3.860   8.137 -0.6264 -1.6022  1.5149
 3840SOL    HW211520   2.461   3.744   8.069  0.6175 -1.7885  0.5165
 3841SOL     OW11521   4.911   2.572   7.127  0.0166 -0.4094 -0.5129
 3841SOL    HW111522   4.903   2.654   7.176 -1.0722  0.6511 -2.3708
 3841SOL    HW211523   4.878   2.505   7.186  1.4622  0.3564  1.2645
 3842SOL     OW11524   1.490   2.828   5.993  0.4070  0.1373 -0.2557
 3842SOL    HW111525   1.428   2.761   6.023  0.2115 -0.5029 -1.9804
 3842SOL    HW211526   1.452   2.861   5.911  2.7350 -0.9342 -1.8946
 3843SOL     OW11527   4.566   4.912   5.802  0.0695  0.3530  0.6811
 3843SOL    HW111528   4.516   4.978   5.754 -1.1522 -0.0125  1.4117
 3843SOL    HW211529   4.657   4.938   5.790 -0.2451  0.7419 -1.1148
 3844SOL     OW11530   3.413   2.282   6.525 -0.1818 -0.8534 -0.1922
 3844SOL    HW111531   3.346   2.236   6.474 -1.2261  0.2360  0.1304
 3844SOL    HW211532   3.379   2.282   6.615  0.1108 -0.0582 -0.0706
 3845SOL     OW11533   0.042   3.018   6.122  0.4091 -0.1915  0.2544
 3845SOL    HW111534   0.028   2.990   6.032 -0.0049  0.8655 -0.0268
 3845SOL    HW211535  -0.045   3.038   6.155  0.7660  2.1006 -0.0343
 3846SOL     OW11536   1.269   0.351   5.208 -0.1883  0.4420  0.4049
 3846SOL    HW111537   1.190   0.405   5.208  0.5810  1.6419 -1.0910
 3846SOL    HW211538   1.340   0.413   5.218  0.6464 -0.4792  0.3506
 3847SOL     OW11539   3.098   4.476   5.733 -0.0947  0.4476  0.2803
 3847SOL    HW111540   3.121   4.451   5.643 -0.8991 -0.7835  0.3956
 3847SOL    HW211541   3.125   4.567   5.740 -0.1702  0.6152 -1.2741
 3848SOL     OW11542   3.701   3.257   6.827 -0.3892 -0.2081  0.1311
 3848SOL    HW111543   3.612   3.283   6.802 -0.6420  0.6474  1.7348
 3848SOL    HW211544   3.744   3.235   6.745 -0.9577  2.9593 -1.1588
 3849SOL     OW11545   3.247   4.805   6.147  0.6929  0.0515 -0.4807
 3849SOL    HW111546   3.222   4.714   6.137 -0.1181  0.0442  1.3384
 3849SOL    HW211547   3.342   4.803   6.159  0.6163 -0.5969  0.0182
 3850SOL     OW11548   1.911   2.777   5.785 -0.3342  0.0275 -0.0166
 3850SOL    HW111549   1.948   2.788   5.697  1.7036 -1.8199  0.5252
 3850SOL    HW211550   1.945   2.852   5.834  1.7803 -0.9507  0.1283
 3851SOL     OW11551   2.104   4.462   7.471 -0.4888 -0.2454 -0.2038
 3851SOL    HW111552   2.034   4.521   7.442 -0.6224 -0.4795 -0.3608
 3851SOL    HW211553   2.058   4.385   7.503 -0.4173  0.3948  1.6052
 3852SOL     OW11554   2.926   4.987   6.962 -0.0578 -0.3580  0.1305
 3852SOL    HW111555   2.870   5.040   7.020  0.3948 -1.5521  1.7125
 3852SOL    HW211556   2.933   4.903   7.006 -0.8593 -1.8433 -2.3978
 3853SOL     OW11557   1.228   0.221   7.137  0.1634  0.8887 -0.2192
 3853SOL    HW111558   1.189   0.181   7.214 -0.3844  1.8098 -0.0013
 3853SOL    HW211559   1.259   0.306   7.167  2.8383  0.0175 -0.2641
 3854SOL     OW11560   3.667   2.094   5.476 -0.0541  0.5498 -0.2312
 3854SOL    HW111561   3.740   2.112   5.417  1.3145 -0.3140  1.1427
 3854SOL    HW211562   3.687   2.144   5.555 -0.4205 -0.5166  0.5514
 3855SOL     OW11563   3.967   3.591   5.999 -0.0902  0.2299 -0.1283
 3855SOL    HW111564   4.008   3.590   6.086  0.8831 -1.1385 -0.5791
 3855SOL    HW211565   3.881   3.630   6.014  0.5436  1.2080  1.2186
 3856SOL     OW11566   2.466   3.781   5.589 -0.0961 -0.4275  0.2811
 3856SOL    HW111567   2.387   3.807   5.541 -1.2392 -2.7311  0.7618
 3856SOL    HW211568   2.536   3.834   5.551 -1.6781  0.9172 -0.9111
 3857SOL     OW11569   3.016   2.546   7.095 -0.2986 -0.8928 -0.1218
 3857SOL    HW111570   3.076   2.609   7.056  1.8951 -3.0373 -0.4206
 3857SOL    HW211571   2.936   2.553   7.042 -0.6304  2.3995  0.6204
 3858SOL     OW11572   3.436   4.804   5.436 -0.0080  0.1429  0.4123
 3858SOL    HW111573   3.471   4.779   5.521 -0.1676 -0.1333  0.3999
 3858SOL    HW211574   3.389   4.726   5.406 -0.3154  0.3848  0.2657
 3859SOL     OW11575   0.095   0.402   6.007 -0.4111  0.1707 -0.1283
 3859SOL    HW111576   0.158   0.349   6.056 -0.3024  0.5400  0.1367
 3859SOL    HW211577   0.139   0.422   5.925  0.3027  1.4297  0.5380
 3860SOL     OW11578   3.155   4.155   6.629 -0.0744  0.0120  0.1194
 3860SOL    HW111579   3.170   4.249   6.616 -1.1374  0.2890  0.8184
 3860SOL    HW211580   3.077   4.136   6.578 -0.0184 -0.4399  0.2015
 3861SOL     OW11581   4.254   0.725   8.347 -0.2344  0.0173  0.1283
 3861SOL    HW111582   4.183   0.783   8.319 -1.1206 -0.7013  0.8297
 3861SOL    HW211583   4.219   0.637   8.337  1.7937 -0.6031 -2.9275
 3862SOL     OW11584   1.901   4.634   7.339  0.1718  0.4311  0.0623
 3862SOL    HW111585   1.901   4.723   7.373  0.4282 -0.5990  3.1326
 3862SOL    HW211586   1.968   4.634   7.270  0.1533  2.5766 -0.0054
 3863SOL     OW11587   0.727   4.617   5.710  0.4125  0.2249  0.1171
 3863SOL    HW111588   0.766   4.643   5.793  0.4865  0.8740 -0.1112
 3863SOL    HW211589   0.687   4.532   5.727 -0.2758  0.7229  1.0371
 3864SOL     OW11590   4.179   2.428   7.506  0.1591 -0.5915 -0.3875
 3864SOL    HW111591   4.259   2.402   7.551 -0.2113  0.6752  1.1002
 3864SOL    HW211592   4.113   2.367   7.539  0.1860 -0.6154 -0.3771
 3865SOL     OW11593   0.024   3.601   5.755 -0.9415 -0.2066 -0.0967
 3865SOL    HW111594   0.111   3.621   5.720 -1.3662  1.2284 -0.4048
 3865SOL    HW211595   0.037   3.594   5.850 -0.2291 -1.6149 -0.2676
 3866SOL     OW11596   3.983   2.936   6.808  0.3660  0.3006  0.2380
 3866SOL    HW111597   4.046   3.006   6.793 -0.6452  1.0788 -0.5290
 3866SOL    HW211598   4.025   2.878   6.871  1.4843  1.2525  0.3826
 3867SOL     OW11599   2.484   4.376   6.027  0.7282  0.7041 -0.4669
 3867SOL    HW111600   2.561   4.361   5.972  0.5308 -1.2440 -0.2895
 3867SOL    HW211601   2.509   4.343   6.113 -0.3428 -0.0776 -0.4399
 3868SOL     OW11602   4.421   4.395   5.155  0.1012 -0.0648 -0.4311
 3868SOL    HW111603   4.359   4.348   5.098  0.6210 -0.9854 -0.2688
 3868SOL    HW211604   4.463   4.325   5.206 -1.6302  0.8411  2.4103
 3869SOL     OW11605   1.056   3.836   5.749 -0.6400 -0.2178 -0.2293
 3869SOL    HW111606   1.084   3.794   5.830 -0.7396 -1.8938 -1.0192
 3869SOL    HW211607   1.038   3.927   5.774  1.0463 -0.2372  1.2352
 3870SOL     OW11608   0.626   3.823   6.057 -0.0339  0.4654 -0.3102
 3870SOL    HW111609   0.681   3.763   6.007  0.8250  0.0922  1.0361
 3870SOL    HW211610   0.554   3.845   5.997 -1.0837 -2.8756 -0.4577
 3871SOL     OW11611   2.700   3.873   7.411  0.2535  0.5747 -0.1962
 3871SOL    HW111612   2.621   3.907   7.453 -0.3835 -1.7925  0.7170
 3871SOL    HW211613   2.674   3.787   7.378  1.7162  0.9167 -2.4351
 3872SOL     OW11614   1.698   3.442   5.680 -0.0855 -0.5100 -0.1857
 3872SOL    HW111615   1.771   3.467   5.622  0.6650 -0.9589  0.5442
 3872SOL    HW211616   1.707   3.347   5.689 -0.4300 -0.4903  0.3625
 3873SOL     OW11617   2.120   1.304   6.885  0.1585  0.1511 -0.1460
 3873SOL    HW111618   2.133   1.364   6.812 -0.9711 -0.6003 -1.0110
 3873SOL    HW211619   2.027   1.315   6.908  0.4737  0.2905  1.1036
 3874SOL     OW11620   4.691   1.585   5.417  0.2255 -0.7998 -0.1471
 3874SOL    HW111621   4.775   1.540   5.422  0.5873 -0.0349  1.3772
 3874SOL    HW211622   4.711   1.670   5.376  0.5256  0.0010  1.5634
 3875SOL     OW11623   4.271   1.897   6.361  0.4698 -0.9850  0.2495
 3875SOL    HW111624   4.256   1.828   6.296 -1.2395 -1.2278  0.8442
 3875SOL    HW211625   4.188   1.902   6.410  1.4317 -0.2628  1.8902
 3876SOL     OW11626   3.215   4.434   7.283 -0.2268 -0.0951  0.0223
 3876SOL    HW111627   3.132   4.389   7.265  0.7477 -1.4851 -1.3533
 3876SOL    HW211628   3.197   4.526   7.267 -1.9577 -0.1050  1.5920
 3877SOL     OW11629   0.927   4.983   7.056 -0.2899 -0.4335 -0.4631
 3877SOL    HW111630   1.005   4.934   7.030 -0.7046 -1.0353 -0.5890
 3877SOL    HW211631   0.882   4.926   7.118 -1.0050 -0.4108 -0.9446
 3878SOL     OW11632   2.404   0.049   4.895  0.3283  0.0105  0.1369
 3878SOL    HW111633   2.437  -0.038   4.872 -0.4725 -0.4097  0.5165
 3878SOL    HW211634   2.335   0.067   4.831 -0.2261 -0.1043  0.6798
 3879SOL     OW11635   1.099   3.942   5.117  0.1721 -0.5978 -0.3557
 3879SOL    HW111636   1.093   4.000   5.193 -0.3065  1.0384 -1.5897
 3879SOL    HW211637   1.013   3.950   5.075  0.6451 -0.9735 -1.4122
 3880SOL     OW11638   4.432   4.883   5.207 -0.3102  0.1583  0.1112
 3880SOL    HW111639   4.426   4.788   5.217  0.5492  0.0778 -0.0043
 3880SOL    HW211640   4.373   4.903   5.134  0.7812 -0.5293 -1.0024
 3881SOL     OW11641   0.451   2.553   6.780 -0.0578  0.0069 -0.1516
 3881SOL    HW111642   0.511   2.594   6.718 -0.6316 -0.5113 -1.0822
 3881SOL    HW211643   0.396   2.496   6.726  0.4673 -1.6985  1.0419
 3882SOL     OW11644   3.806   4.904   6.213  0.3533 -1.0824 -0.6185
 3882SOL    HW111645   3.835   4.986   6.253  1.1757 -1.5321 -0.2617
 3882SOL    HW211646   3.758   4.859   6.283  0.1942 -1.0470 -0.7069
 3883SOL     OW11647   2.739   3.041   9.264 -0.1288 -0.1834 -0.3556
 3883SOL    HW111648   2.727   2.967   9.204 -0.7232 -1.7324  1.5709
 3883SOL    HW211649   2.671   3.103   9.239 -1.2123 -1.3730 -0.4821
 3884SOL     OW11650   3.251   3.560   6.137 -0.2676 -0.1943  0.0045
 3884SOL    HW111651   3.186   3.630   6.140 -0.8640 -0.6866 -0.9102
 3884SOL    HW211652   3.226   3.501   6.208 -0.6975 -0.2718 -0.2078
 3885SOL     OW11653   1.811   4.708   5.036  0.3295 -0.1678  0.1333
 3885SOL    HW111654   1.865   4.647   4.985 -1.3121 -1.6789  0.1318
 3885SOL    HW211655   1.762   4.652   5.096  0.4888  1.3874  1.7972
 3886SOL     OW11656   4.112   1.137   6.003  0.2363  0.2867  0.7751
 3886SOL    HW111657   4.115   1.222   5.959 -1.1525 -0.5390 -1.0766
 3886SOL    HW211658   4.174   1.083   5.952 -4.0065 -1.7426 -2.9147
 3887SOL     OW11659   4.746   0.152   6.154  0.6713  0.1970 -0.0519
 3887SOL    HW111660   4.656   0.164   6.126 -0.1404 -3.1556  0.6872
 3887SOL    HW211661   4.797   0.145   6.073  0.1863  1.3049 -0.4719
 3888SOL     OW11662   3.901   1.212   6.402  0.2489 -0.3689  0.5544
 3888SOL    HW111663   3.851   1.262   6.467 -1.1801 -1.8906  0.6736
 3888SOL    HW211664   3.907   1.124   6.438  0.1092 -1.0501 -1.0100
 3889SOL     OW11665   1.470   4.894   6.337  0.3074 -0.2763 -0.0494
 3889SOL    HW111666   1.539   4.959   6.348  0.1496 -0.1317  0.1079
 3889SOL    HW211667   1.407   4.936   6.278  1.7384 -1.5119 -2.6033
 3890SOL     OW11668   3.233   2.693   5.775 -0.0477 -0.9363 -0.1043
 3890SOL    HW111669   3.306   2.752   5.793  1.4232 -1.6770 -3.1746
 3890SOL    HW211670   3.241   2.625   5.842  0.1594  0.5719  1.4902
 3891SOL     OW11671   0.701   4.358   5.786  0.3359 -0.0342 -0.4516
 3891SOL    HW111672   0.796   4.348   5.790  0.4414  1.2917  0.8817
 3891SOL    HW211673   0.678   4.331   5.697  1.7751 -1.6901 -0.3590
 3892SOL     OW11674   0.452   1.928   5.916 -0.5436 -0.4291 -0.2155
 3892SOL    HW111675   0.450   1.850   5.860 -1.5909 -2.3755  2.3319
 3892SOL    HW211676   0.360   1.950   5.928 -0.3467 -0.1184  0.7851
 3893SOL     OW11677   4.355   0.532   5.602 -0.4468  0.2749  0.3351
 3893SOL    HW111678   4.270   0.538   5.645 -0.2780 -0.0359  0.7223
 3893SOL    HW211679   4.409   0.480   5.662 -1.2487 -3.4417 -1.8410
 3894SOL     OW11680   0.111   0.824   5.773  0.2175 -0.1874  0.0257
 3894SOL    HW111681   0.114   0.904   5.720  2.1644 -0.0226  0.2883
 3894SOL    HW211682   0.106   0.753   5.709  1.8552  0.0399 -0.4013
 3895SOL     OW11683   3.385   0.584   9.204  0.6345  1.0263  0.5266
 3895SOL    HW111684   3.363   0.507   9.151  0.7610  1.8114 -0.7054
 3895SOL    HW211685   3.476   0.570   9.230  0.2207  0.0785  1.5533
 3896SOL     OW11686   3.697   3.403   8.303 -0.2299  0.3697 -0.4977
 3896SOL    HW111687   3.741   3.429   8.384  0.7466  1.6952 -1.4148
 3896SOL    HW211688   3.757   3.341   8.262 -0.9248 -0.6452 -0.0362
 3897SOL     OW11689   3.826   4.028   6.811  1.1341 -0.0392  0.2054
 3897SOL    HW111690   3.802   4.102   6.867  0.9519  0.7803 -0.9382
 3897SOL    HW211691   3.866   3.965   6.872 -0.5999  0.0910  1.5527
 3898SOL     OW11692   0.144   3.938   7.122 -0.4351 -0.1102 -0.4092
 3898SOL    HW111693   0.189   4.020   7.106 -0.6019  0.4130  1.4911
 3898SOL    HW211694   0.147   3.891   7.039  1.2991  1.0178 -1.0281
 3899SOL     OW11695   2.828   0.715   7.031  0.3498 -0.7037  0.5662
 3899SOL    HW111696   2.829   0.666   7.113 -0.7082 -3.1057 -0.7575
 3899SOL    HW211697   2.869   0.656   6.968 -0.2936  0.4301 -0.9603
 3900SOL     OW11698   0.132   3.989   5.384 -0.3681 -0.0685  0.7502
 3900SOL    HW111699   0.160   3.899   5.368 -0.0659  0.3038 -1.0470
 3900SOL    HW211700   0.037   3.987   5.370 -0.2172  0.0857 -0.3888
 3901SOL     OW11701   3.110   3.395   8.663 -0.0082  0.0315 -0.1178
 3901SOL    HW111702   3.184   3.456   8.658 -0.3811  0.5255  0.2647
 3901SOL    HW211703   3.141   3.316   8.619  1.4207 -0.4589  1.6840
 3902SOL     OW11704   0.146   0.655  10.213  0.8157 -0.3028  0.0279
 3902SOL    HW111705   0.216   0.602  10.251  0.4059 -1.8434 -1.2079
 3902SOL    HW211706   0.175   0.745  10.223  4.1356 -0.8948 -2.4231
 3903SOL     OW11707   3.523   4.019   7.453 -0.1294  1.3970  0.0006
 3903SOL    HW111708   3.599   4.076   7.466  0.9532  0.2061 -0.7695
 3903SOL    HW211709   3.528   3.956   7.525  0.8921  0.0303 -1.1953
 3904SOL     OW11710   2.256   0.023   7.799 -0.1696 -0.3921 -0.7662
 3904SOL    HW111711   2.169  -0.017   7.800 -0.2572 -0.2068 -0.8162
 3904SOL    HW211712   2.251   0.092   7.865 -0.3476  0.2050 -1.3851
 3905SOL     OW11713   0.189   4.794   6.754 -0.1020  0.2085 -0.3773
 3905SOL    HW111714   0.133   4.775   6.679 -0.0393  1.1184 -0.6647
 3905SOL    HW211715   0.249   4.719   6.758  0.9360  0.8774 -2.2195
 3906SOL     OW11716   3.770   0.733   8.250  0.4294  0.3632  0.0041
 3906SOL    HW111717   3.678   0.752   8.266  0.6414 -0.4623  2.6395
 3906SOL    HW211718   3.803   0.811   8.205 -1.3999  0.8941 -0.5073
 3907SOL     OW11719   3.390   0.599   6.335 -0.1590  0.2218 -0.5553
 3907SOL    HW111720   3.299   0.571   6.323  0.6342 -2.0026 -2.0442
 3907SOL    HW211721   3.403   0.666   6.268  0.2031 -1.9683 -2.8120
 3908SOL     OW11722   4.176   0.104   8.421  0.1901 -0.2849 -0.0116
 3908SOL    HW111723   4.256   0.128   8.375 -0.7459 -0.2549 -1.6868
 3908SOL    HW211724   4.107   0.109   8.355 -1.3059  0.2292  1.4988
 3909SOL     OW11725   1.700   0.217   9.740 -0.5358  0.1745 -0.1202
 3909SOL    HW111726   1.628   0.279   9.744 -1.8783 -1.2613 -0.9690
 3909SOL    HW211727   1.720   0.197   9.832 -1.4220  0.3479  0.1173
 3910SOL     OW11728   0.519   4.864   7.952 -0.3879  0.2110  0.0963
 3910SOL    HW111729   0.608   4.839   7.926  0.0821  0.6040  1.2500
 3910SOL    HW211730   0.462   4.823   7.887  0.6847  0.6261 -1.1481
 3911SOL     OW11731   3.103   1.543   6.935  0.2691 -0.4417 -0.2395
 3911SOL    HW111732   3.122   1.497   7.017  1.1498 -2.9880 -1.7512
 3911SOL    HW211733   3.089   1.473   6.871 -1.6961  1.4309 -2.0321
 3912SOL     OW11734   4.179   4.339   7.095  0.6724  0.3017 -0.3979
 3912SOL    HW111735   4.193   4.432   7.109  0.5619  0.1877  0.5540
 3912SOL    HW211736   4.083   4.328   7.097  0.7020 -0.2039  2.4023
 3913SOL     OW11737   4.915   3.558   8.089  0.5745 -0.1951 -0.1993
 3913SOL    HW111738   4.905   3.473   8.132  1.0548  0.6653  1.6953
 3913SOL    HW211739   4.985   3.544   8.025  1.3940 -0.9665  0.8241
 3914SOL     OW11740   3.076   4.030   9.875 -0.2904  0.3233  0.2915
 3914SOL    HW111741   3.141   3.965   9.900  1.0927  1.5919  0.0820
 3914SOL    HW211742   3.042   4.001   9.791  2.2133  1.1836 -1.0993
 3915SOL     OW11743   3.699   0.023   7.958  0.2649  0.2403 -0.1382
 3915SOL    HW111744   3.762   0.040   8.027  0.4070  0.0017 -0.2110
 3915SOL    HW211745   3.652   0.106   7.948  0.7363  0.4929 -0.2611
 3916SOL     OW11746   2.618   3.099   9.510 -0.0996  0.1786 -0.3382
 3916SOL    HW111747   2.672   3.115   9.432  0.9244 -0.7295  0.1531
 3916SOL    HW211748   2.579   3.012   9.494  0.0116  0.0470  0.0970
 3917SOL     OW11749   0.692   4.434   5.318  0.3326  0.0485 -0.0731
 3917SOL    HW111750   0.622   4.400   5.374  1.3737 -0.5870  0.8999
 3917SOL    HW211751   0.674   4.527   5.310 -1.6068 -0.3824 -1.3351
 3918SOL     OW11752   3.818   0.415   7.823  0.0039  0.4945  0.2306
 3918SOL    HW111753   3.781   0.351   7.763  0.3172 -0.5580  1.1262
 3918SOL    HW211754   3.741   0.460   7.859 -0.2640  0.1303  0.1245
 3919SOL     OW11755   2.698   1.134   8.417 -0.0197  0.3881 -0.7826
 3919SOL    HW111756   2.606   1.134   8.389 -0.1841 -1.1043 -0.3062
 3919SOL    HW211757   2.745   1.093   8.344 -0.1037 -1.2157  0.0402
 3920SOL     OW11758   3.542   3.086   8.166 -0.0339  0.4795 -0.0733
 3920SOL    HW111759   3.485   3.130   8.229 -0.0932  0.1920  0.0770
 3920SOL    HW211760   3.483   3.058   8.096 -0.0260  0.4709 -0.0764
 3921SOL     OW11761   2.305   1.504   7.757  0.2029 -0.6895  0.0274
 3921SOL    HW111762   2.293   1.594   7.728 -2.7562 -0.9386  0.1326
 3921SOL    HW211763   2.335   1.457   7.679 -0.3773 -0.0007 -0.6174
 3922SOL     OW11764   4.008   0.666   7.101  0.2241  0.5148  0.1109
 3922SOL    HW111765   4.096   0.693   7.076  0.2938  0.2655  0.0827
 3922SOL    HW211766   3.953   0.687   7.025 -0.1386  2.6118  0.8790
 3923SOL     OW11767   4.408   4.280   9.123  0.1387 -0.7598 -0.6887
 3923SOL    HW111768   4.449   4.294   9.038  1.0636 -0.8751 -0.2685
 3923SOL    HW211769   4.314   4.292   9.107  0.4238  0.5495 -1.4379
 3924SOL     OW11770   0.739   0.156   7.719 -0.9128  0.0696  0.1961
 3924SOL    HW111771   0.690   0.155   7.801 -1.1367  0.7259  0.0794
 3924SOL    HW211772   0.680   0.198   7.657 -0.5770 -0.0308 -0.1926
 3925SOL     OW11773   3.838   0.158   6.976  0.9943  0.1132 -0.3914
 3925SOL    HW111774   3.900   0.231   6.979 -0.2973  1.2383 -0.1428
 3925SOL    HW211775   3.891   0.080   6.997  2.5846  0.8229 -1.5778
 3926SOL     OW11776   1.662   3.604   7.180  0.7635  0.1164  0.5018
 3926SOL    HW111777   1.756   3.606   7.165  1.0332  1.7651  1.9828
 3926SOL    HW211778   1.624   3.651   7.105  1.5711  3.2543  1.8773
 3927SOL     OW11779   0.794   2.680   6.421 -0.1973 -0.2963  0.1078
 3927SOL    HW111780   0.855   2.721   6.359  0.7101 -3.0451 -0.9926
 3927SOL    HW211781   0.709   2.686   6.378 -0.2617  1.1765  0.4002
 3928SOL     OW11782   2.574   0.820   7.257 -0.4901  0.1949  0.2457
 3928SOL    HW111783   2.489   0.834   7.216  0.5730 -0.8600 -2.5213
 3928SOL    HW211784   2.568   0.733   7.296  0.1426 -1.1137 -2.4124
 3929SOL     OW11785   2.435   3.753   9.280  0.0394  0.3170 -0.1713
 3929SOL    HW111786   2.348   3.722   9.306  0.3821  0.3901  1.1738
 3929SOL    HW211787   2.467   3.687   9.219  0.4800 -1.7244  2.0834
 3930SOL     OW11788   1.437   3.703   7.312  0.4010  0.0459 -0.5162
 3930SOL    HW111789   1.518   3.654   7.295  1.5233  2.0876 -1.4749
 3930SOL    HW211790   1.376   3.671   7.246  0.8047 -0.6896 -0.5513
 3931SOL     OW11791   3.821   3.559   8.506  0.7744 -0.1827  0.0156
 3931SOL    HW111792   3.913   3.534   8.509  0.8224 -0.1813 -1.0139
 3931SOL    HW211793   3.812   3.606   8.423  0.1741  1.1550  0.8039
 3932SOL     OW11794   2.637   4.800   8.573  0.2713  0.2462 -0.5072
 3932SOL    HW111795   2.697   4.873   8.591 -0.6291  1.3262 -1.7203
 3932SOL    HW211796   2.633   4.794   8.478 -1.7831  0.4286 -0.4688
 3933SOL     OW11797   0.044   0.609   8.645  0.0090  0.3282 -0.0248
 3933SOL    HW111798   0.139   0.599   8.644 -0.1482 -1.4200 -0.7875
 3933SOL    HW211799   0.024   0.659   8.566  0.2499  0.2631 -0.1266
 3934SOL     OW11800   2.160   4.321   8.776 -0.0437 -0.0363  0.3189
 3934SOL    HW111801   2.092   4.297   8.839  0.7223 -1.1938  0.7466
 3934SOL    HW211802   2.225   4.368   8.828 -0.0029  0.0985  0.1453
 3935SOL     OW11803   1.983   3.756   8.586 -0.1037 -0.1507  0.0314
 3935SOL    HW111804   1.940   3.803   8.514 -1.3746  1.0151  1.4724
 3935SOL    HW211805   1.995   3.823   8.654  1.8331 -1.0253  0.6050
 3936SOL     OW11806   2.298   4.571   8.895 -0.2374  0.3843 -0.3602
 3936SOL    HW111807   2.353   4.627   8.840 -1.4209 -0.7605 -2.8790
 3936SOL    HW211808   2.210   4.608   8.886 -0.8777 -1.2844 -1.3536
 3937SOL     OW11809   0.291   4.190   8.702  0.2008  0.3607  0.0085
 3937SOL    HW111810   0.364   4.205   8.642 -1.0956 -2.7948 -2.6921
 3937SOL    HW211811   0.227   4.258   8.680  0.1597 -0.1504 -1.6015
 3938SOL     OW11812   0.304   0.556   6.688 -0.6746  0.2928  0.3335
 3938SOL    HW111813   0.219   0.589   6.660  0.2397  1.9011 -0.6556
 3938SOL    HW211814   0.314   0.589   6.778 -0.5218  1.2632 -0.0317
 3939SOL     OW11815   4.808   4.973   7.253  0.1633 -0.1715  0.2564
 3939SOL    HW111816   4.766   4.956   7.337  0.9353  1.6724  1.0538
 3939SOL    HW211817   4.900   4.953   7.268  0.4817  1.1795  0.1840
 3940SOL     OW11818   3.335   4.099   8.712  0.7845  0.0908 -0.3210
 3940SOL    HW111819   3.373   4.185   8.731 -0.9177  1.0447 -1.0463
 3940SOL    HW211820   3.375   4.074   8.628  0.7761  0.4930 -0.4495
 3941SOL     OW11821   2.726   0.959   7.517 -0.0826 -0.2290  0.2704
 3941SOL    HW111822   2.791   1.024   7.489 -2.1255  1.5939 -0.5813
 3941SOL    HW211823   2.718   0.899   7.442 -0.5595  0.5427 -0.3126
 3942SOL     OW11824   1.026   3.547   9.302 -0.2595 -0.0840  0.4053
 3942SOL    HW111825   1.073   3.468   9.276  0.9937 -0.3139  3.0276
 3942SOL    HW211826   1.094   3.606   9.334 -0.9969  2.6734 -2.5686
 3943SOL     OW11827   0.268   3.682   9.824  0.1385 -0.3652 -0.4062
 3943SOL    HW111828   0.189   3.695   9.773 -0.9774 -0.1877  1.2844
 3943SOL    HW211829   0.240   3.627   9.898  1.1345  1.2012  1.2261
 3944SOL     OW11830   3.113   3.137   7.799  0.4358  0.1720 -0.3366
 3944SOL    HW111831   3.158   3.052   7.796 -0.1733 -0.1479 -2.1624
 3944SOL    HW211832   3.101   3.160   7.706 -0.8585  1.4675  0.1213
 3945SOL     OW11833   3.375   4.301   7.838 -0.1439  0.3661  0.3295
 3945SOL    HW111834   3.352   4.390   7.810 -0.8246 -0.0438 -0.4463
 3945SOL    HW211835   3.468   4.292   7.814 -0.2298  0.6637 -0.1323
 3946SOL     OW11836   2.888   1.466   7.333  0.0055  0.0706  0.1197
 3946SOL    HW111837   2.881   1.435   7.243 -0.3996  1.3321 -0.3059
 3946SOL    HW211838   2.971   1.430   7.364  0.6536  0.4353 -1.1054
 3947SOL     OW11839   1.314   2.817   9.398 -0.2336  0.1578  0.1134
 3947SOL    HW111840   1.308   2.750   9.466 -0.8556 -0.0471 -0.1363
 3947SOL    HW211841   1.393   2.795   9.349 -0.8835 -0.8994 -0.4876
 3948SOL     OW11842   4.587   4.650   5.732 -0.2331  0.1128  0.5678
 3948SOL    HW111843   4.554   4.737   5.754 -0.8569 -0.6696  3.0043
 3948SOL    HW211844   4.682   4.659   5.730 -0.3184  0.9685  0.1015
 3949SOL     OW11845   1.575   4.296   6.245  0.3542 -0.4997 -0.0553
 3949SOL    HW111846   1.583   4.380   6.198 -0.3700 -0.0166  0.6585
 3949SOL    HW211847   1.580   4.320   6.337  1.2763 -1.3874  0.1319
 3950SOL     OW11848   3.326   0.133   8.062  0.2171  0.1304 -0.2649
 3950SOL    HW111849   3.400   0.179   8.021  0.4224 -0.8307 -0.9857
 3950SOL    HW211850   3.346   0.040   8.052  0.6539 -0.2067  2.6643
 3951SOL     OW11851   3.094   3.937   9.328  0.2031  0.2495 -0.1617
 3951SOL    HW111852   3.021   3.930   9.267  0.8545  0.8982 -1.0519
 3951SOL    HW211853   3.148   3.860   9.310  0.1184  0.1598 -0.0295
 3952SOL     OW11854   0.048   4.067   7.365 -0.0328 -0.5160 -0.2342
 3952SOL    HW111855   0.108   4.141   7.371  0.3437 -0.9280  1.6410
 3952SOL    HW211856   0.090   4.009   7.301  0.1686  0.4217 -0.9796
 3953SOL     OW11857   3.566   2.386  10.049 -0.2069  0.2059  0.0897
 3953SOL    HW111858   3.591   2.309  10.099  0.0096 -0.7973 -1.4846
 3953SOL    HW211859   3.615   2.458  10.090  0.3011 -0.6418  1.0184
 3954SOL     OW11860   2.111   0.001   7.120 -0.2745 -0.4277  0.5148
 3954SOL    HW111861   2.054   0.005   7.196  0.1701  0.8448  0.7950
 3954SOL    HW211862   2.197   0.028   7.152  0.1802 -0.9979 -0.1951
 3955SOL     OW11863   0.042   4.444   8.729  0.2544  0.2291  0.0371
 3955SOL    HW111864  -0.025   4.482   8.787  1.8987  0.2782  2.0359
 3955SOL    HW211865   0.125   4.478   8.763  1.3571 -0.2320 -2.0439
 3956SOL     OW11866   3.393   1.742   9.056 -0.2480  0.5883  0.7454
 3956SOL    HW111867   3.419   1.651   9.068  0.8472  0.7547 -0.1881
 3956SOL    HW211868   3.464   1.793   9.095 -0.2672  1.0385  0.2122
 3957SOL     OW11869   4.660   4.388   8.223 -0.7869 -0.3498 -0.1302
 3957SOL    HW111870   4.729   4.449   8.197 -0.7720 -0.5029 -0.4533
 3957SOL    HW211871   4.594   4.442   8.266 -1.8597  0.2793 -2.4254
 3958SOL     OW11872   4.531   1.077  10.241 -0.1403 -0.1512  0.0104
 3958SOL    HW111873   4.577   1.136  10.181 -0.5471  0.8084  0.6080
 3958SOL    HW211874   4.595   1.011  10.264  0.2190 -0.1586 -0.9658
 3959SOL     OW11875   4.366   4.218   7.538  0.3572  0.6644 -0.6718
 3959SOL    HW111876   4.366   4.184   7.448  1.3250 -0.7434 -0.1787
 3959SOL    HW211877   4.300   4.287   7.538 -0.7617 -0.3491 -2.0915
 3960SOL     OW11878   4.942   4.876   9.077  0.2014  0.0585  0.4263
 3960SOL    HW111879   5.023   4.896   9.028  1.5964 -1.4475  1.9912
 3960SOL    HW211880   4.966   4.885   9.169 -1.6716  0.3747  0.9261
 3961SOL     OW11881   4.792   1.228   8.954  0.0903 -0.1544 -0.0021
 3961SOL    HW111882   4.883   1.198   8.948  0.1040  0.1277 -1.4220
 3961SOL    HW211883   4.742   1.169   8.898 -0.6721 -0.4806  0.9862
 3962SOL     OW11884   1.202   1.490   9.057 -0.0520  0.6281 -0.8882
 3962SOL    HW111885   1.138   1.451   9.117 -1.9068  2.4257 -1.5765
 3962SOL    HW211886   1.157   1.496   8.973  1.5902  0.5426 -1.8217
 3963SOL     OW11887   2.430   4.576   6.329  0.4312 -0.9802  0.1969
 3963SOL    HW111888   2.420   4.656   6.380 -0.0017  0.1611 -1.5943
 3963SOL    HW211889   2.524   4.559   6.329  0.5998 -0.0916  0.0485
 3964SOL     OW11890   2.933   4.298   8.846 -0.8728  0.1438  0.2011
 3964SOL    HW111891   2.969   4.307   8.758  0.1137 -0.8826  0.4779
 3964SOL    HW211892   3.007   4.268   8.899 -1.0514  2.1724  1.7188
 3965SOL     OW11893   3.700   3.718   8.074  0.3641 -0.0295  0.2401
 3965SOL    HW111894   3.722   3.796   8.024 -0.0920  0.4351  0.7481
 3965SOL    HW211895   3.615   3.737   8.113  0.0194 -0.9752 -0.0156
 3966SOL     OW11896   1.410   4.961   5.904 -0.0784  0.8844  0.1217
 3966SOL    HW111897   1.334   5.013   5.931 -0.2722  0.4864  0.3563
 3966SOL    HW211898   1.382   4.870   5.914 -0.9928  0.6001 -3.6376
 3967SOL     OW11899   3.161   1.396   7.166 -0.2365  0.5002  0.3784
 3967SOL    HW111900   3.246   1.353   7.156 -1.2007 -1.0984 -1.8275
 3967SOL    HW211901   3.137   1.380   7.257  0.7441 -1.1972  0.3768
 3968SOL     OW11902   1.485   0.727   9.263 -0.6269  0.1924 -0.2580
 3968SOL    HW111903   1.546   0.726   9.190 -0.5762  0.5917 -0.2199
 3968SOL    HW211904   1.538   0.702   9.339 -0.3133  1.3670 -0.0733
 3969SOL     OW11905   0.258   1.333   6.888 -0.4819 -0.2553 -0.2156
 3969SOL    HW111906   0.256   1.376   6.803  0.3697 -1.4477 -0.8721
 3969SOL    HW211907   0.347   1.350   6.922 -0.7661  0.0898  0.3804
 3970SOL     OW11908   2.056   0.275   6.614 -0.1701  0.5639 -0.4554
 3970SOL    HW111909   2.139   0.229   6.596  0.6150  0.5966  2.5040
 3970SOL    HW211910   2.069   0.363   6.579  0.6427  0.2614 -0.9507
 3971SOL     OW11911   0.797   3.039   6.111 -0.7408 -0.4038  0.7327
 3971SOL    HW111912   0.766   3.130   6.109 -0.9004 -0.4645 -0.4076
 3971SOL    HW211913   0.860   3.034   6.040 -0.8802 -1.2413  0.6555
 3972SOL     OW11914   4.585   1.323   7.761 -0.4138  0.4296 -0.2761
 3972SOL    HW111915   4.645   1.398   7.755 -1.4516  1.4344  1.3364
 3972SOL    HW211916   4.640   1.250   7.791  0.4701  0.6918 -1.2034
 3973SOL     OW11917   4.793   1.069   9.530  0.2031  0.1761 -0.3780
 3973SOL    HW111918   4.845   0.994   9.501 -1.7015 -1.8798  1.2234
 3973SOL    HW211919   4.793   1.128   9.454  3.8675 -0.1472 -0.8266
 3974SOL     OW11920   3.500   4.124   9.413 -0.2007 -0.4626  0.6704
 3974SOL    HW111921   3.440   4.107   9.486 -2.3912 -1.0647 -1.1478
 3974SOL    HW211922   3.456   4.086   9.337  2.0020  0.1090 -0.9856
 3975SOL     OW11923   3.328   0.468   8.235  0.1676  0.5088  0.6038
 3975SOL    HW111924   3.271   0.402   8.196  1.0405  0.0660  0.0338
 3975SOL    HW211925   3.293   0.551   8.202  0.7606  0.1584 -1.0305
 3976SOL     OW11926   1.473   3.440   6.086 -0.0798  0.1625  0.0292
 3976SOL    HW111927   1.399   3.404   6.135  1.7148 -1.4400  1.7554
 3976SOL    HW211928   1.483   3.529   6.119 -0.0460 -0.2814  1.2645
 3977SOL     OW11929   4.178   0.387   9.353  0.0453 -0.5643  0.5736
 3977SOL    HW111930   4.232   0.463   9.376 -0.8636 -0.2262  1.6949
 3977SOL    HW211931   4.160   0.344   9.437  2.1715 -3.2119 -0.1695
 3978SOL     OW11932   2.061   0.816   7.073 -0.4021 -0.2717 -0.5351
 3978SOL    HW111933   1.985   0.865   7.039  1.9411  3.9318 -0.4730
 3978SOL    HW211934   2.035   0.787   7.160 -2.2547  0.1269 -0.9210
 3979SOL     OW11935   4.737   4.850   9.378 -0.1949  0.1076 -0.8321
 3979SOL    HW111936   4.777   4.777   9.332 -0.4105  0.2306 -1.2211
 3979SOL    HW211937   4.737   4.922   9.314  2.4482  1.2927  0.3341
 3980SOL     OW11938   0.574   0.823   9.980 -0.4506  0.1518  0.5592
 3980SOL    HW111939   0.653   0.827   9.925 -0.0369  1.3409  1.1961
 3980SOL    HW211940   0.559   0.730   9.995  0.9669 -0.0858  0.5994
 3981SOL     OW11941   2.825   0.594   7.717 -0.3421  0.4492 -0.4098
 3981SOL    HW111942   2.887   0.664   7.738  0.1896  0.0465 -0.5955
 3981SOL    HW211943   2.751   0.608   7.776  1.3053 -0.9789  2.1759
 3982SOL     OW11944   4.425   0.633   6.456 -0.2567 -0.3447 -0.3526
 3982SOL    HW111945   4.361   0.703   6.471  1.1344  0.7801  0.5896
 3982SOL    HW211946   4.475   0.662   6.380  0.3486 -0.2919  0.0628
 3983SOL     OW11947   0.753   0.582   7.289  0.4251 -0.7683 -0.2640
 3983SOL    HW111948   0.791   0.499   7.317  1.2435 -0.4727 -0.4716
 3983SOL    HW211949   0.761   0.582   7.194 -2.2266 -1.7071 -0.5643
 3984SOL     OW11950   1.824   4.761   5.802  0.1455  0.4934  0.1049
 3984SOL    HW111951   1.886   4.822   5.763  1.0277  1.1149  2.3756
 3984SOL    HW211952   1.861   4.739   5.887 -2.8948  1.2300  1.7739
 3985SOL     OW11953   0.884   2.049  10.184 -0.0577 -0.7819 -0.5847
 3985SOL    HW111954   0.898   2.082  10.095  0.9066 -0.7881 -0.4387
 3985SOL    HW211955   0.835   1.968  10.172  1.3644 -1.5821 -1.2224
 3986SOL     OW11956   4.721   0.540   8.551 -0.2828 -0.0149 -0.4059
 3986SOL    HW111957   4.783   0.585   8.494  0.0912 -1.1937 -0.9531
 3986SOL    HW211958   4.641   0.594   8.546 -0.0738  0.2165 -1.5858
 3987SOL     OW11959   3.050   4.520   6.587  0.3343 -0.4709  0.1191
 3987SOL    HW111960   3.123   4.464   6.562 -0.1371 -1.4320  0.8027
 3987SOL    HW211961   3.039   4.581   6.514  0.6699 -1.4725 -0.7881
 3988SOL     OW11962   3.969   3.288   7.021 -0.1406  0.0619  0.0229
 3988SOL    HW111963   3.889   3.318   6.977  0.0402 -1.1228 -1.2060
 3988SOL    HW211964   3.956   3.194   7.031  1.6906 -0.4214 -1.5808
 3989SOL     OW11965   3.342   0.277   8.859 -0.3506  0.3164  0.0904
 3989SOL    HW111966   3.431   0.245   8.875  0.3913  1.9856 -0.5381
 3989SOL    HW211967   3.336   0.284   8.764 -1.9768 -1.9341 -0.0514
 3990SOL     OW11968   3.118   3.917   9.010  0.7180 -0.3574  0.5556
 3990SOL    HW111969   3.041   3.928   9.064  1.0540  1.0866  0.7662
 3990SOL    HW211970   3.103   3.834   8.964  0.5403 -1.7647  2.9919
 3991SOL     OW11971   0.501   3.829   9.680 -0.0581  0.2283 -0.4562
 3991SOL    HW111972   0.423   3.822   9.735  0.3489  0.7994  0.2064
 3991SOL    HW211973   0.522   3.738   9.657  0.1700 -0.1029  0.9235
 3992SOL     OW11974   4.846   2.391   9.983 -0.3247  0.0459 -0.1206
 3992SOL    HW111975   4.881   2.474  10.016  0.5980 -0.2729 -0.2692
 3992SOL    HW211976   4.757   2.413   9.953  1.0125  1.7879 -3.2759
 3993SOL     OW11977   4.090   0.317   7.828  0.4409 -0.1207  0.0357
 3993SOL    HW111978   3.996   0.332   7.842 -0.2624 -2.7528 -1.2657
 3993SOL    HW211979   4.127   0.405   7.817 -1.7394  1.0144  1.2266
 3994SOL     OW11980   4.483   4.944   6.497 -0.5889 -0.1137  0.2287
 3994SOL    HW111981   4.554   4.887   6.524 -1.0726 -0.4770  0.7614
 3994SOL    HW211982   4.409   4.885   6.482 -0.5499  0.1689 -1.1568
 3995SOL     OW11983   1.587   2.757   7.900  0.1066 -0.2579  0.0494
 3995SOL    HW111984   1.591   2.680   7.958 -0.7498 -0.2364  0.1549
 3995SOL    HW211985   1.632   2.826   7.949  1.8838 -0.9480 -0.5069
 3996SOL     OW11986   3.482   0.073   9.373 -0.1119  0.2482  0.0713
 3996SOL    HW111987   3.527   0.091   9.290  1.3025 -0.6264  0.6119
 3996SOL    HW211988   3.451   0.159   9.402  0.5791  0.7765 -0.6831
 3997SOL     OW11989   1.977   4.399   9.531  0.1206 -0.3223 -0.2224
 3997SOL    HW111990   1.949   4.488   9.554  1.5132  0.9719 -3.0490
 3997SOL    HW211991   1.921   4.375   9.457  0.1690 -1.5832  0.1343
 3998SOL     OW11992   3.741   2.042   9.495  0.0714 -0.1462  0.0317
 3998SOL    HW111993   3.835   2.022   9.495 -0.0072 -1.0030  2.8615
 3998SOL    HW211994   3.731   2.110   9.562 -1.3571 -0.3406  0.0479
 3999SOL     OW11995   0.614   0.873   9.456  0.2179  0.5790  0.0286
 3999SOL    HW111996   0.691   0.876   9.399 -1.0549  1.1939 -1.7482
 3999SOL    HW211997   0.649   0.850   9.542  2.3123  0.3126 -0.8278
 4000SOL     OW11998   0.667   0.417   9.837  0.1822  0.2910  0.1345
 4000SOL    HW111999   0.696   0.353   9.772 -0.9952  0.3114 -0.4422
 4000SOL    HW212000   0.587   0.455   9.800  1.4632  3.0004 -0.1216
 4001SOL     OW12001   4.893   3.399   7.352 -0.0402 -0.1070 -0.4102
 4001SOL    HW112002   4.820   3.346   7.385 -1.0934  0.8172 -1.1802
 4001SOL    HW212003   4.910   3.462   7.422 -0.0817 -0.2228 -0.2945
 4002SOL     OW12004   3.331   0.329   6.748 -0.2405 -0.5375 -0.0899
 4002SOL    HW112005   3.263   0.343   6.682 -1.9319  1.2179  1.9039
 4002SOL    HW212006   3.291   0.269   6.811  0.7680 -0.9453  0.1809
 4003SOL     OW12007   3.640   4.300   8.302 -0.0338 -0.5891  0.1725
 4003SOL    HW112008   3.601   4.380   8.339  1.2096  0.9747 -1.6808
 4003SOL    HW212009   3.704   4.272   8.367 -1.0334 -0.5539  1.2009
 4004SOL     OW12010   3.939   4.511   9.575 -0.1506  0.3204 -0.0018
 4004SOL    HW112011   3.880   4.586   9.578  0.8149  1.0889  0.3158
 4004SOL    HW212012   3.996   4.522   9.652 -0.6508 -1.2906  0.6319
 4005SOL     OW12013   2.738   0.835   8.006  0.0747 -0.3217 -0.2954
 4005SOL    HW112014   2.712   0.927   7.993  1.5986  0.3125  0.8775
 4005SOL    HW212015   2.695   0.788   7.935 -1.6749  1.1171 -0.2530
 4006SOL     OW12016   3.154   2.729   9.109  1.1024  0.2177  0.1840
 4006SOL    HW112017   3.230   2.705   9.056 -0.6706 -3.6171 -0.9820
 4006SOL    HW212018   3.146   2.658   9.172 -1.9556 -0.0055 -0.3330
 4007SOL     OW12019   1.497   4.106   9.007 -0.4238 -0.1438  0.1088
 4007SOL    HW112020   1.413   4.114   9.052  1.4166 -1.2703  4.1132
 4007SOL    HW212021   1.510   4.012   8.997  0.3172  0.0295 -0.7191
 4008SOL     OW12022   4.564   3.776   7.794 -0.9122 -0.1484  0.4105
 4008SOL    HW112023   4.490   3.732   7.752 -0.4878 -0.1668 -0.3288
 4008SOL    HW212024   4.542   3.869   7.791 -0.1970 -0.0036 -1.2610
 4009SOL     OW12025   3.182   0.683   8.149  0.4188  0.3355  0.1395
 4009SOL    HW112026   3.132   0.631   8.087  0.2127  0.7607 -0.0553
 4009SOL    HW212027   3.120   0.703   8.219  0.0861  1.4976 -0.4642
 4010SOL     OW12028   3.503   0.716   8.656 -0.3549  0.6018  0.1825
 4010SOL    HW112029   3.564   0.662   8.706 -1.3355 -1.5947 -0.8545
 4010SOL    HW212030   3.506   0.802   8.699  1.5443 -0.1509  1.6945
 4011SOL     OW12031   4.760   0.594   8.168  0.1168 -0.0048  0.5031
 4011SOL    HW112032   4.750   0.518   8.112 -3.0991  1.3987 -1.1035
 4011SOL    HW212033   4.793   0.663   8.110 -2.3108  1.2046  0.4035
 4012SOL     OW12034   4.070   2.377  10.078  0.1871  0.4553  0.0798
 4012SOL    HW112035   4.152   2.336  10.103  0.7193  0.7123 -1.1303
 4012SOL    HW212036   4.009   2.304  10.063  0.7471  0.1569 -0.8110
 4013SOL     OW12037   1.186   4.583   9.387  0.0631  0.2165 -0.0529
 4013SOL    HW112038   1.141   4.663   9.413 -2.1914 -1.6725  2.4841
 4013SOL    HW212039   1.260   4.613   9.335 -0.7166  3.9090  0.6628
 4014SOL     OW12040   0.795   1.945   7.939  0.6594 -0.7691 -0.3847
 4014SOL    HW112041   0.848   1.930   8.017  0.3411  2.5981  0.6311
 4014SOL    HW212042   0.735   1.870   7.936  0.1722 -0.6622  3.0898
 4015SOL     OW12043   0.368   2.146   9.519  0.5811 -0.0158 -0.0465
 4015SOL    HW112044   0.427   2.119   9.449  1.3914 -0.9847  0.9723
 4015SOL    HW212045   0.425   2.186   9.584 -0.4323  3.2242 -0.9494
 4016SOL     OW12046   2.804   0.120   8.038 -0.5888  0.5078 -0.7195
 4016SOL    HW112047   2.761   0.191   8.085  0.2718 -0.0459  0.9524
 4016SOL    HW212048   2.896   0.127   8.062 -0.1287  0.1136 -2.2375
 4017SOL     OW12049   1.667   0.618   7.732 -0.4300  0.7971  0.8525
 4017SOL    HW112050   1.645   0.533   7.770 -0.9185  0.6916  0.3466
 4017SOL    HW212051   1.687   0.599   7.641 -2.1444  1.4108  0.3003
 4018SOL     OW12052   4.702   3.843   7.495 -0.4286 -0.1601 -0.2884
 4018SOL    HW112053   4.669   3.847   7.585  0.8416 -0.8372  0.2302
 4018SOL    HW212054   4.775   3.905   7.493  0.8461 -1.5918 -0.2596
 4019SOL     OW12055   4.237   1.546   9.998 -0.4707 -0.5949 -0.2739
 4019SOL    HW112056   4.142   1.535  10.007 -0.7018  0.8226 -0.8089
 4019SOL    HW212057   4.248   1.632   9.958  0.9996 -1.3442 -1.5880
 4020SOL     OW12058   3.918   2.172   9.940  0.3114 -0.0331 -0.5084
 4020SOL    HW112059   3.841   2.136   9.895 -0.3584  1.2417 -0.4360
 4020SOL    HW212060   3.968   2.215   9.870 -0.6518  1.8169 -0.1251
 4021SOL     OW12061   4.961   0.475   9.879  0.4034 -0.1236 -0.3403
 4021SOL    HW112062   5.031   0.418   9.847  0.3772  0.6740 -1.9781
 4021SOL    HW212063   4.884   0.450   9.827 -0.9413 -1.8255  2.2695
 4022SOL     OW12064   3.563   2.224   8.925  0.0080  0.2619 -0.0005
 4022SOL    HW112065   3.638   2.268   8.964  1.1276 -1.4947 -0.0460
 4022SOL    HW212066   3.491   2.287   8.933  1.1058  1.4103  1.4346
 4023SOL     OW12067   4.275   1.968  10.014  0.2780  0.2346  0.2303
 4023SOL    HW112068   4.325   2.049  10.023  1.4740 -0.5413  0.8999
 4023SOL    HW212069   4.342   1.899  10.016 -0.7729 -0.8013  0.4045
 4024SOL     OW12070   1.186   3.026   8.061  0.5124  0.0017  0.3622
 4024SOL    HW112071   1.203   2.999   7.971  2.7277  1.9877  0.0860
 4024SOL    HW212072   1.179   3.122   8.056 -0.7662  0.0507  2.1221
 4025SOL     OW12073   4.196   4.405   8.989  0.4129  0.5631  0.0796
 4025SOL    HW112074   4.201   4.477   9.052 -0.4080  1.8181 -1.1963
 4025SOL    HW212075   4.242   4.438   8.912 -0.2985 -0.1226 -0.6626
 4026SOL     OW12076   3.331   1.892   9.476  0.1049 -0.4851 -0.1943
 4026SOL    HW112077   3.385   1.963   9.441  0.1833 -0.1528  0.5862
 4026SOL    HW212078   3.395   1.826   9.504  0.0537 -0.6291 -0.4155
 4027SOL     OW12079   3.881   3.086   9.389 -0.0823  0.7672 -0.0027
 4027SOL    HW112080   3.845   3.030   9.457  2.0017 -1.0090 -0.2597
 4027SOL    HW212081   3.938   3.147   9.435  1.0052 -0.1660 -0.0841
 4028SOL     OW12082   2.730   3.461   9.598  0.4667 -0.0050  0.3366
 4028SOL    HW112083   2.665   3.528   9.621 -1.1036 -1.5597  0.6259
 4028SOL    HW212084   2.728   3.457   9.503 -0.1091 -0.2538  0.3532
 4029SOL     OW12085   4.095   4.192   8.397 -0.2203 -0.5848  0.5580
 4029SOL    HW112086   4.163   4.128   8.375  1.4891  1.3848 -0.2736
 4029SOL    HW212087   4.079   4.179   8.490  2.6630  0.0003  1.2390
 4030SOL     OW12088   4.315   2.079   7.958 -0.2801  0.2873 -0.1464
 4030SOL    HW112089   4.232   2.126   7.967 -0.1753  1.1604 -2.8688
 4030SOL    HW212090   4.299   2.015   7.889  0.2241 -2.3454  2.0278
 4031SOL     OW12091   3.488   1.214   9.141 -0.5243  0.6281  0.1252
 4031SOL    HW112092   3.540   1.189   9.217  0.4175 -1.0780 -1.0340
 4031SOL    HW212093   3.397   1.198   9.167 -0.0785 -2.4249  0.0814
 4032SOL     OW12094   3.633   1.875   9.039 -0.4915  0.1022 -0.3682
 4032SOL    HW112095   3.632   1.952   8.983 -2.0055 -0.0027 -0.5505
 4032SOL    HW212096   3.711   1.826   9.013  0.2903  1.3792 -0.4986
 4033SOL     OW12097   1.002   4.854   8.671 -0.2862 -0.8466  0.6930
 4033SOL    HW112098   0.945   4.833   8.746 -2.6874  0.1189 -0.7525
 4033SOL    HW212099   0.977   4.943   8.646  0.7881 -0.9712 -0.9666
 4034SOL     OW12100   3.838   2.509   9.832  0.2649 -0.0293 -0.8987
 4034SOL    HW112101   3.851   2.601   9.852  2.9237 -0.2979 -1.0103
 4034SOL    HW212102   3.745   2.501   9.815 -0.0246  2.6431 -0.9854
 4035SOL     OW12103   1.370   1.815   9.967  0.1390  0.4141 -0.1286
 4035SOL    HW112104   1.346   1.896  10.011 -0.9032 -0.3076  0.6926
 4035SOL    HW212105   1.437   1.840   9.904  3.5153  1.1354  3.4131
 4036SOL     OW12106   2.413   5.005   8.916  0.3519  0.4035  0.4144
 4036SOL    HW112107   2.471   4.997   8.992 -0.3125  1.0681  1.0038
 4036SOL    HW212108   2.327   4.980   8.948  0.3627 -0.9884 -0.5597
 4037SOL     OW12109   4.539   4.335   8.864  0.4829  0.5197  0.4876
 4037SOL    HW112110   4.461   4.349   8.811 -0.6792  1.6170  2.3687
 4037SOL    HW212111   4.598   4.284   8.808 -1.4378 -0.0661 -1.1060
 4038SOL     OW12112   4.070   4.763   9.002  0.0298 -0.5364 -0.4141
 4038SOL    HW112113   4.023   4.835   9.046 -0.4383 -0.3891 -1.1183
 4038SOL    HW212114   4.062   4.689   9.061 -0.5303 -0.3264 -0.2189
 4039SOL     OW12115   4.365   1.111   9.663  0.4018  0.0868  0.1545
 4039SOL    HW112116   4.375   1.116   9.759 -1.1739  0.8067  0.3065
 4039SOL    HW212117   4.271   1.103   9.649  0.2488  3.1115 -1.4125
 4040SOL     OW12118   2.781   1.826   8.603 -0.2339  0.2175  0.0816
 4040SOL    HW112119   2.807   1.850   8.693 -1.2044  1.9206 -0.0467
 4040SOL    HW212120   2.710   1.764   8.615  1.5745 -1.8952  0.4391
 4041SOL     OW12121   2.999   3.968   9.579 -0.0253  0.2442 -0.4065
 4041SOL    HW112122   2.915   4.005   9.554 -0.2280  0.9102  1.1290
 4041SOL    HW212123   3.035   3.932   9.498 -2.1191 -0.7576 -0.9518
 4042SOL     OW12124   1.853   0.257   9.320 -0.5230 -0.1659  0.8635
 4042SOL    HW112125   1.915   0.187   9.342  0.7131  0.5236 -0.3035
 4042SOL    HW212126   1.841   0.306   9.401 -1.9769 -2.0975  1.9177
 4043SOL     OW12127   3.406   4.002   9.867 -0.0431  0.4456  0.4218
 4043SOL    HW112128   3.386   4.036   9.954 -1.1296 -0.0408  0.3759
 4043SOL    HW212129   3.391   3.907   9.874  1.1575  0.2015  0.0525
 4044SOL     OW12130   4.384   3.119   9.840  0.4881 -0.1391  0.0052
 4044SOL    HW112131   4.292   3.094   9.836  0.8838 -1.7385  0.2602
 4044SOL    HW212132   4.383   3.209   9.873 -0.9586 -0.2613  0.3509
 4045SOL     OW12133   4.933   3.828   8.887  0.0861 -0.0145 -1.2789
 4045SOL    HW112134   4.989   3.872   8.951 -1.6530 -0.4016  0.6277
 4045SOL    HW212135   4.949   3.735   8.902 -3.4867 -0.3564  1.9125
 4046SOL     OW12136   4.815   0.536   9.084 -0.0847  0.4816  0.9530
 4046SOL    HW112137   4.818   0.502   8.994 -0.6413  0.8093  0.8111
 4046SOL    HW212138   4.883   0.603   9.086 -0.7192  1.1503  0.4958
 4047SOL     OW12139   3.586   4.410   7.568 -0.4512  0.4919 -0.2916
 4047SOL    HW112140   3.594   4.388   7.661 -0.7443 -1.4804 -0.6997
 4047SOL    HW212141   3.503   4.370   7.541 -0.4489  1.1828 -1.3844
 4048SOL     OW12142   3.197   0.575   9.411  0.0566  0.1247 -0.0323
 4048SOL    HW112143   3.253   0.611   9.342 -0.1972  0.3935 -0.1027
 4048SOL    HW212144   3.108   0.584   9.376 -0.0406 -0.1502  0.1443
 4049SOL     OW12145   4.294   4.813   8.424 -0.6678 -0.5493  0.4542
 4049SOL    HW112146   4.310   4.907   8.427  0.7122 -0.7664  0.6907
 4049SOL    HW212147   4.265   4.796   8.335 -2.6307  0.3192  0.8675
 4050SOL     OW12148   1.654   1.395   8.606  0.3609 -0.1864  0.3499
 4050SOL    HW112149   1.691   1.379   8.692 -0.3006 -1.0792  0.4840
 4050SOL    HW212150   1.559   1.383   8.618  0.2523 -0.2066 -0.4650
 4051SOL     OW12151   2.683   2.024   7.388 -0.7640  0.4855 -0.4644
 4051SOL    HW112152   2.629   1.946   7.400  0.1837 -0.0474  0.5890
 4051SOL    HW212153   2.625   2.097   7.410 -1.2229 -0.0319  0.0979
 4052SOL     OW12154   4.976   1.994   8.763 -0.6853  0.2979  0.2223
 4052SOL    HW112155   5.025   1.932   8.709 -1.3808 -2.0651  2.1184
 4052SOL    HW212156   4.888   1.994   8.725 -0.1260  2.0138 -1.1917
 4053SOL     OW12157   4.831   4.669   9.661 -0.3555 -0.2171  0.5879
 4053SOL    HW112158   4.857   4.727   9.733  0.8340 -1.2154  1.0021
 4053SOL    HW212159   4.820   4.727   9.586 -1.9976  0.9025  1.6386
 4054SOL     OW12160   3.486   4.796   7.529  0.8687 -0.1881 -0.2910
 4054SOL    HW112161   3.477   4.891   7.534  1.6402 -0.1645  1.7144
 4054SOL    HW212162   3.579   4.782   7.509  1.0380 -0.5118  0.6904
 4055SOL     OW12163   3.300   3.726   9.265 -0.3975 -0.5071  0.1578
 4055SOL    HW112164   3.360   3.719   9.339  0.7853  0.1036 -0.7199
 4055SOL    HW212165   3.241   3.651   9.275  1.2688 -1.8416  0.3548
   5.00000   5.00000  15.00000
