Water Slab for Clausius-Clapeyron Phase 1 in water
12165
    1SOL     OW    1   0.824   1.394   6.216  0.7019  0.2274  0.4418
    1SOL    HW1    2   0.830   1.351   6.130 -1.3048 -1.4955  1.0711
    1SOL    HW2    3   0.866   1.333   6.276  0.1971  0.4202  0.9932
    2SOL     OW    4   3.934   4.495   8.363 -0.2295 -0.7005  0.0656
    2SOL    HW1    5   3.871   4.425   8.344  1.1133 -1.7901 -0.4691
    2SOL    HW2    6   3.966   4.475   8.451  0.1343 -0.7198 -0.0733
    3SOL     OW    7   4.152   4.400   6.344  0.0043 -0.0119 -0.6866
    3SOL    HW1    8   4.245   4.423   6.346  0.5204 -1.8364 -1.4451
    3SOL    HW2    9   4.142   4.334   6.412 -1.2873  1.7881  0.9874
    4SOL     OW   10   0.085   3.082   8.475 -0.1365 -0.2539 -0.1609
    4SOL    HW1   11   0.005   3.089   8.527  1.0512 -0.9472  1.8614
    4SOL    HW2   12   0.145   3.145   8.514  0.4710 -0.0529 -1.3685
    5SOL     OW   13   1.807   3.311   5.565  0.4255 -0.4045  0.5585
    5SOL    HW1   14   1.855   3.305   5.483  1.6570 -3.6816  1.3471
    5SOL    HW2   15   1.729   3.361   5.544 -1.2214 -4.0202 -3.6534
    6SOL     OW   16   4.995   0.642   5.127 -0.3209 -0.4022  0.0225
    6SOL    HW1   17   5.013   0.734   5.142 -1.2909  0.0286 -1.2944
    6SOL    HW2   18   4.899   0.635   5.129 -0.3823 -0.9286 -2.1023
    7SOL     OW   19   0.336   4.772   7.383 -0.1271 -0.4302 -0.1557
    7SOL    HW1   20   0.315   4.766   7.476 -0.8523  0.6892 -0.2337
    7SOL    HW2   21   0.420   4.817   7.379 -0.1847 -0.3153 -0.0532
    8SOL     OW   22   0.426   2.960   5.707 -0.4781  0.1649  0.2368
    8SOL    HW1   23   0.513   3.000   5.709 -0.3539 -0.1255  0.8180
    8SOL    HW2   24   0.424   2.903   5.783 -1.8661  1.6238  1.3570
    9SOL     OW   25   2.164   1.245   5.867 -0.4348 -0.2060  0.0519
    9SOL    HW1   26   2.198   1.334   5.852  1.8818 -0.7351  1.6287
    9SOL    HW2   27   2.225   1.188   5.820 -0.0056 -1.1246  1.6642
   10SOL     OW   28   0.917   0.866   7.860  0.5071 -0.3369 -0.7015
   10SOL    HW1   29   0.866   0.851   7.781 -0.8005 -2.0831  0.3907
   10SOL    HW2   30   0.953   0.780   7.882  1.0430  0.1601  0.4426
   11SOL     OW   31   0.270   3.343   5.646  0.3180 -0.0028 -0.8235
   11SOL    HW1   32   0.339   3.371   5.585 -0.5932  1.0426 -1.4165
   11SOL    HW2   33   0.211   3.291   5.592  0.5934 -0.8300 -0.3342
   12SOL     OW   34   1.639   1.558   5.151  0.3028 -0.4121 -0.3218
   12SOL    HW1   35   1.724   1.517   5.168  1.5600  2.1448 -0.0185
   12SOL    HW2   36   1.619   1.535   5.060  1.0709 -1.4348 -0.2541
   13SOL     OW   37   1.951   0.444   8.053 -0.0646  0.8062 -0.0004
   13SOL    HW1   38   2.033   0.481   8.020 -1.6761  3.6931 -1.1159
   13SOL    HW2   39   1.894   0.520   8.065 -2.4979 -1.0705  1.0343
   14SOL     OW   40   3.175   3.969   8.924 -0.2952 -0.3301 -0.4247
   14SOL    HW1   41   3.220   4.010   8.999 -1.9713  1.4669 -0.3029
   14SOL    HW2   42   3.109   3.912   8.964 -1.1234  0.5534 -0.4839
   15SOL     OW   43   4.730   4.242   5.980 -0.7501  0.0862  0.1267
   15SOL    HW1   44   4.783   4.171   6.016 -0.3601  0.0993 -0.4255
   15SOL    HW2   45   4.775   4.322   6.007  0.4682  0.0918 -1.7279
   16SOL     OW   46   4.946   1.956   4.933 -0.1244  0.0660  0.1807
   16SOL    HW1   47   4.966   1.987   5.022  0.8865 -0.9995  0.3492
   16SOL    HW2   48   4.991   2.018   4.876  0.1946  0.0905  0.4524
   17SOL     OW   49   0.161   4.270   6.064 -0.6693 -0.2009 -0.3008
   17SOL    HW1   50   0.223   4.342   6.048 -1.1976  0.7989  1.8482
   17SOL    HW2   51   0.079   4.313   6.087 -1.2968 -1.5014  0.0054
   18SOL     OW   52   1.422   0.455   6.497 -0.2476  0.0683 -0.0066
   18SOL    HW1   53   1.331   0.430   6.479 -0.1975  0.7420 -1.2702
   18SOL    HW2   54   1.415   0.523   6.565 -0.8288  1.3887 -1.3445
   19SOL     OW   55   4.032   2.405   6.018  0.1419  0.3930  0.2483
   19SOL    HW1   56   4.113   2.399   6.069 -0.9734  1.9811  2.3834
   19SOL    HW2   57   3.993   2.318   6.025  1.0545 -0.0355  0.2415
   20SOL     OW   58   1.593   1.494   6.432  0.5460  1.0273  0.0348
   20SOL    HW1   59   1.589   1.555   6.506 -1.6602  1.7887 -0.6185
   20SOL    HW2   60   1.536   1.534   6.366  1.2095 -0.4229 -1.4763
   21SOL     OW   61   0.451   2.948   9.247  0.0100 -0.3904 -0.2742
   21SOL    HW1   62   0.496   2.873   9.287  0.5122 -0.0057 -0.1138
   21SOL    HW2   63   0.374   2.960   9.301 -0.1261 -0.8491 -0.3562
   22SOL     OW   64   3.795   3.376   5.856 -0.2506 -0.1387  0.0249
   22SOL    HW1   65   3.810   3.416   5.941 -0.8201  0.5101 -0.1768
   22SOL    HW2   66   3.871   3.319   5.843  1.4341  2.1026 -0.4298
   23SOL     OW   67   0.403   2.161   6.613 -0.4471  0.5487 -0.1782
   23SOL    HW1   68   0.398   2.076   6.658 -1.7223  1.5703  1.7720
   23SOL    HW2   69   0.467   2.211   6.664  0.9463  0.5230 -1.8294
   24SOL     OW   70   4.570   4.724   4.978  0.0163 -0.3191 -0.1648
   24SOL    HW1   71   4.577   4.629   4.985  1.1117 -0.1334  2.1400
   24SOL    HW2   72   4.492   4.747   5.029 -0.7869 -0.0153 -1.4808
   25SOL     OW   73   3.542   0.237   7.424  0.3699 -0.1603  0.2645
   25SOL    HW1   74   3.619   0.243   7.368  0.6790 -0.3466  0.6666
   25SOL    HW2   75   3.571   0.273   7.508  0.8789 -2.8480  1.3173
   26SOL     OW   76   2.954   2.581   5.176  0.1468  0.3132  0.2755
   26SOL    HW1   77   3.023   2.524   5.140 -0.3481 -0.1223 -0.0029
   26SOL    HW2   78   2.904   2.523   5.234 -0.8477  0.2443 -0.6210
   27SOL     OW   79   1.180   3.905   4.919 -0.1579  0.0743  0.1449
   27SOL    HW1   80   1.214   3.939   4.836 -2.5341  0.2706 -0.8307
   27SOL    HW2   81   1.190   3.810   4.911 -1.6358 -0.0344 -1.0607
   28SOL     OW   82   0.752   1.670   4.956 -0.4634 -0.0400  0.2501
   28SOL    HW1   83   0.738   1.611   5.030 -1.5029 -0.3612 -0.1865
   28SOL    HW2   84   0.809   1.621   4.897  0.1698  0.1225  0.7184
   29SOL     OW   85   1.042   2.143   7.363 -0.0826  0.8855 -0.1947
   29SOL    HW1   86   0.988   2.175   7.434  1.6826 -1.9784  2.7154
   29SOL    HW2   87   1.009   2.055   7.345  1.8489  0.0860 -0.1628
   30SOL     OW   88   1.611   1.417   7.664  0.3630  0.5422 -0.2205
   30SOL    HW1   89   1.560   1.438   7.586  0.9748 -0.8144 -1.0217
   30SOL    HW2   90   1.679   1.484   7.668  1.3510 -0.2955 -1.8506
   31SOL     OW   91   0.560   4.861   8.721 -0.2405 -0.0926  1.3160
   31SOL    HW1   92   0.509   4.864   8.640 -1.9351 -1.3593  2.2881
   31SOL    HW2   93   0.629   4.796   8.704  0.3539  0.7501  0.4071
   32SOL     OW   94   0.794   0.306   7.116  0.4074  0.3424  0.3113
   32SOL    HW1   95   0.705   0.328   7.086  0.4737  0.8467  0.4820
   32SOL    HW2   96   0.785   0.294   7.210  0.2412 -1.0382  0.1399
   33SOL     OW   97   4.290   3.132   7.816 -0.0177 -0.1239  0.4231
   33SOL    HW1   98   4.375   3.100   7.847 -0.2897 -1.2242  0.1015
   33SOL    HW2   99   4.292   3.116   7.721 -0.1775  0.8341  0.2456
   34SOL     OW  100   2.956   3.556   7.587  0.2128 -0.0662 -0.4759
   34SOL    HW1  101   3.046   3.526   7.593  0.4368  0.4375 -1.1822
   34SOL    HW2  102   2.903   3.478   7.605  0.7819 -0.4977 -0.6523
   35SOL     OW  103   3.335   3.870   5.565 -0.2614  0.5570  0.5988
   35SOL    HW1  104   3.359   3.926   5.638  0.1258 -1.0577  1.7822
   35SOL    HW2  105   3.394   3.795   5.572 -0.2707  0.3242 -1.3465
   36SOL     OW  106   1.066   3.165   4.998 -0.2897 -0.1686  0.1819
   36SOL    HW1  107   1.109   3.192   4.917  2.1531  1.4525  1.8711
   36SOL    HW2  108   1.079   3.070   5.002  3.1946  0.1946  0.4890
   37SOL     OW  109   2.294   3.095   5.315 -0.5455 -0.1277  0.2452
   37SOL    HW1  110   2.367   3.062   5.369  0.0601 -1.0632 -1.0819
   37SOL    HW2  111   2.218   3.089   5.372  0.2269 -0.1827  1.3098
   38SOL     OW  112   4.504   0.884   5.135 -0.4483 -0.3806  0.5246
   38SOL    HW1  113   4.419   0.841   5.122  0.2501 -1.7937  0.4601
   38SOL    HW2  114   4.554   0.863   5.056  0.8614 -1.8017  1.6809
   39SOL     OW  115   0.399   1.502   5.226  0.1156 -0.1661  0.1207
   39SOL    HW1  116   0.493   1.517   5.211  0.1293 -1.1918 -0.9637
   39SOL    HW2  117   0.394   1.476   5.318  1.0587 -1.1026 -0.0622
   40SOL     OW  118   0.698   1.990   5.832  0.2307 -0.0888 -0.8767
   40SOL    HW1  119   0.625   2.012   5.891  0.5833  0.9415 -0.7988
   40SOL    HW2  120   0.725   1.902   5.859  1.7400  1.1097  1.9573
   41SOL     OW  121   2.214   1.423   6.860  0.0762 -0.0644  0.3432
   41SOL    HW1  122   2.269   1.380   6.795 -1.6354 -0.9540 -0.6158
   41SOL    HW2  123   2.134   1.445   6.812 -0.4903  1.0148  1.6996
   42SOL     OW  124   2.194   2.123   7.366  0.3317  0.2889  0.0749
   42SOL    HW1  125   2.227   2.186   7.430 -0.5341  1.5553 -0.6906
   42SOL    HW2  126   2.121   2.168   7.324 -0.6080 -1.4064 -0.1838
   43SOL     OW  127   0.929   0.935   5.928 -0.1617 -0.3750  0.1038
   43SOL    HW1  128   0.837   0.908   5.940 -0.0031 -1.7571 -1.3922
   43SOL    HW2  129   0.933   0.964   5.837  0.7339  0.4237  0.3873
   44SOL     OW  130   3.928   4.138   4.890 -0.1157  0.1178  0.6682
   44SOL    HW1  131   3.993   4.086   4.937  1.2324  0.7892 -0.4021
   44SOL    HW2  132   3.938   4.226   4.925 -0.7654  0.1529  0.7916
   45SOL     OW  133   1.772   2.855   4.953  0.4695 -0.0686 -0.3465
   45SOL    HW1  134   1.749   2.780   4.898 -1.2345  0.3764 -0.2986
   45SOL    HW2  135   1.689   2.901   4.966  0.9291  0.1777  2.1123
   46SOL     OW  136   3.821   3.097   4.751  0.3545  0.6234  0.0689
   46SOL    HW1  137   3.759   3.109   4.679  0.2200 -0.5605 -0.0322
   46SOL    HW2  138   3.837   3.185   4.783 -0.9969  1.0101 -0.2335
   47SOL     OW  139   1.935   3.078   4.972 -0.0463 -0.4535  0.8496
   47SOL    HW1  140   2.029   3.058   4.966  0.3442  0.7989  2.2709
   47SOL    HW2  141   1.893   3.007   4.924  1.6104 -1.1867  0.3971
   48SOL     OW  142   3.310   3.912   6.741  0.2601 -0.3356 -0.2896
   48SOL    HW1  143   3.361   3.866   6.808  0.4902 -1.9029 -1.4785
   48SOL    HW2  144   3.227   3.864   6.737 -0.3709  0.6961 -0.0770
   49SOL     OW  145   3.414   4.638   5.874  0.2387 -0.6755 -0.0215
   49SOL    HW1  146   3.322   4.613   5.874  0.4955 -1.9440  2.2706
   49SOL    HW2  147   3.444   4.619   5.786 -1.2654 -2.0213 -0.2953
   50SOL     OW  148   3.634   3.477   5.043  0.0081  0.3175  0.0101
   50SOL    HW1  149   3.556   3.421   5.044  0.2966 -0.1153  1.6584
   50SOL    HW2  150   3.659   3.484   5.135  0.3658  2.6500 -0.2038
   51SOL     OW  151   4.547   3.992   7.197  0.0221 -0.3808 -0.1384
   51SOL    HW1  152   4.575   3.938   7.123  0.0748 -0.7687  0.1672
   51SOL    HW2  153   4.615   3.981   7.263  0.4958  0.7640 -0.4094
   52SOL     OW  154   1.700   2.669   6.071  0.5201 -0.4596 -0.0452
   52SOL    HW1  155   1.655   2.753   6.078  2.5108  1.0959 -3.4740
   52SOL    HW2  156   1.726   2.648   6.161  0.9752  3.2180  0.8307
   53SOL     OW  157   1.655   0.113   6.404 -0.7088  0.1182 -0.2212
   53SOL    HW1  158   1.740   0.077   6.431 -0.0198  1.7574 -0.1134
   53SOL    HW2  159   1.635   0.066   6.323 -1.5278 -2.9474  1.5953
   54SOL     OW  160   2.870   4.007   6.621 -0.0518 -0.1865  0.7219
   54SOL    HW1  161   2.941   3.963   6.668  0.2161 -1.4733 -0.7919
   54SOL    HW2  162   2.792   3.990   6.673  0.5925  0.4377  1.9161
   55SOL     OW  163   1.017   2.030   6.015 -0.2459  0.6148  0.0975
   55SOL    HW1  164   0.977   1.944   6.010 -0.6200  0.6535  1.7419
   55SOL    HW2  165   1.111   2.013   6.017 -0.3272  0.1615  1.0987
   56SOL     OW  166   1.964   4.750   5.129 -0.1096  0.0722 -0.3756
   56SOL    HW1  167   1.920   4.698   5.197 -0.7331  1.0753  0.0102
   56SOL    HW2  168   1.927   4.838   5.139  2.6777  1.2585  0.6528
   57SOL     OW  169   0.595   2.141   7.196 -0.0228 -0.3589 -0.2116
   57SOL    HW1  170   0.524   2.117   7.136  0.5551 -2.3608 -0.1829
   57SOL    HW2  171   0.670   2.089   7.167 -0.0099 -2.3286  2.8440
   58SOL     OW  172   0.513   4.754   7.668  0.0089 -0.1347  0.4729
   58SOL    HW1  173   0.544   4.827   7.615 -2.1829  0.2966 -0.3076
   58SOL    HW2  174   0.509   4.789   7.757  1.8417 -0.2860  0.6707
   59SOL     OW  175   0.136   2.154   4.824 -0.1707  0.3636  0.1666
   59SOL    HW1  176   0.219   2.148   4.778  0.9798 -0.4464  2.2117
   59SOL    HW2  177   0.126   2.247   4.845 -1.2948  0.9533 -2.5721
   60SOL     OW  178   2.661   2.211   5.147  0.4793  0.5569  0.1328
   60SOL    HW1  179   2.595   2.208   5.216  0.5248 -0.2063  0.1442
   60SOL    HW2  180   2.739   2.247   5.191  0.4062  0.3984  0.3979
   61SOL     OW  181   0.030   2.059   5.167 -0.2700 -0.2719 -0.7503
   61SOL    HW1  182  -0.052   2.081   5.210  0.2521  0.1782  0.0475
   61SOL    HW2  183   0.098   2.100   5.221  0.6003 -2.0107 -0.4349
   62SOL     OW  184   3.857   3.405   6.399 -0.1004  0.0686  0.4953
   62SOL    HW1  185   3.860   3.442   6.487 -0.3599  1.9056 -0.2219
   62SOL    HW2  186   3.928   3.449   6.352 -0.7481  0.0399 -0.5418
   63SOL     OW  187   4.201   1.990   9.056 -0.1150 -0.7621  0.3009
   63SOL    HW1  188   4.234   2.051   8.990  0.4643 -0.3335  0.9691
   63SOL    HW2  189   4.106   1.997   9.051 -0.0657  1.2610  1.3215
   64SOL     OW  190   1.733   1.175   7.864 -0.0469  0.2662  0.3471
   64SOL    HW1  191   1.786   1.201   7.789 -0.5958  1.6650  0.4231
   64SOL    HW2  192   1.643   1.176   7.832 -0.1368 -0.9929  0.5240
   65SOL     OW  193   4.859   4.142   5.130  0.3594  0.2259 -0.3480
   65SOL    HW1  194   4.854   4.092   5.212  1.8218 -0.3390 -0.5720
   65SOL    HW2  195   4.942   4.190   5.137 -0.0337  1.0334 -1.0369
   66SOL     OW  196   0.337   0.743   5.413  0.4232  0.8051 -0.0538
   66SOL    HW1  197   0.256   0.788   5.438  0.4437  0.4358  0.6890
   66SOL    HW2  198   0.338   0.664   5.466  1.6555  1.1765  0.5053
   67SOL     OW  199   1.409   0.889   8.473 -0.0894  0.1057  0.5009
   67SOL    HW1  200   1.336   0.862   8.418 -1.1602  1.0593  1.3882
   67SOL    HW2  201   1.374   0.885   8.562  1.7573 -1.9759  1.2339
   68SOL     OW  202   0.665   3.818   5.590  0.6665  0.6230 -0.0350
   68SOL    HW1  203   0.689   3.749   5.529  0.7626  1.5672 -1.1115
   68SOL    HW2  204   0.649   3.894   5.534  1.3153  1.6774  1.1666
   69SOL     OW  205   1.395   3.339   5.155  0.3436 -0.0340  0.1678
   69SOL    HW1  206   1.485   3.329   5.185  0.1403 -0.7133  0.5789
   69SOL    HW2  207   1.363   3.249   5.145 -0.7204  0.1804  1.3564
   70SOL     OW  208   1.230   3.230   4.789 -0.2085  0.1374 -0.2348
   70SOL    HW1  209   1.278   3.308   4.762  0.3319 -0.4324 -0.9322
   70SOL    HW2  210   1.294   3.159   4.783 -0.6731 -0.3531  0.4711
   71SOL     OW  211   3.103   0.590   6.224  0.1765 -0.3011  1.0320
   71SOL    HW1  212   3.085   0.683   6.238  1.1727 -0.1284  1.2401
   71SOL    HW2  213   3.156   0.563   6.299  1.0658 -0.6843  0.2923
   72SOL     OW  214   2.272   1.889   4.656 -0.5006  0.2313 -0.1405
   72SOL    HW1  215   2.198   1.891   4.716 -0.2323  2.2049  0.1953
   72SOL    HW2  216   2.279   1.978   4.623  1.4337 -0.0069 -0.5176
   73SOL     OW  217   0.771   2.806   8.543 -0.1021  0.3224 -0.1405
   73SOL    HW1  218   0.776   2.744   8.470 -0.5780 -0.9158  0.8290
   73SOL    HW2  219   0.800   2.755   8.619 -0.8439  1.1955  0.7500
   74SOL     OW  220   3.781   1.653   5.545 -0.4152 -0.0345  0.1140
   74SOL    HW1  221   3.722   1.722   5.575 -0.3637 -0.4797  1.3115
   74SOL    HW2  222   3.744   1.625   5.461 -0.4387  1.4241 -0.3829
   75SOL     OW  223   3.294   3.272   5.320 -0.3492 -0.1635  0.6409
   75SOL    HW1  224   3.224   3.247   5.259  1.4844 -0.3986 -1.4637
   75SOL    HW2  225   3.334   3.189   5.346  0.3897  0.0728  0.2782
   76SOL     OW  226   3.925   3.151   5.142 -0.2192 -0.5330 -0.3585
   76SOL    HW1  227   3.858   3.211   5.174 -0.0908  0.2367 -1.4678
   76SOL    HW2  228   3.899   3.132   5.052  0.1874 -1.5025 -0.2773
   77SOL     OW  229   2.005   1.101   5.421  0.1631  0.3490  0.2206
   77SOL    HW1  230   2.076   1.164   5.428  1.7805 -1.3942  0.4181
   77SOL    HW2  231   2.021   1.040   5.493 -3.8866  2.0296  2.8973
   78SOL     OW  232   2.317   2.774   8.014 -0.0280  0.1527  0.7742
   78SOL    HW1  233   2.389   2.833   7.992  0.0421  0.1218  0.9205
   78SOL    HW2  234   2.345   2.731   8.095  0.0609 -0.3137  0.5034
   79SOL     OW  235   2.312   2.062   5.029 -0.6964  0.4395  0.4614
   79SOL    HW1  236   2.253   2.062   4.954 -0.2760  2.0051  0.0989
   79SOL    HW2  237   2.397   2.038   4.992 -0.5071  1.1221  0.4485
   80SOL     OW  238   0.365   0.331   7.783 -0.1014  0.2935 -0.1258
   80SOL    HW1  239   0.338   0.415   7.820  0.2725  0.8988 -1.1928
   80SOL    HW2  240   0.452   0.348   7.746  0.9612 -1.1181  1.5438
   81SOL     OW  241   1.616   3.362   6.473  0.3666  0.2990  0.3498
   81SOL    HW1  242   1.523   3.373   6.494  0.6494  0.6005  1.5605
   81SOL    HW2  243   1.655   3.328   6.554  1.1664 -0.6853 -0.4174
   82SOL     OW  244   2.284   3.414   5.395 -0.0440  0.7737 -0.2399
   82SOL    HW1  245   2.310   3.351   5.462 -0.0394  1.6716  0.6398
   82SOL    HW2  246   2.364   3.430   5.345 -0.0487  0.0854 -0.4694
   83SOL     OW  247   0.912   3.064   6.923 -0.4196  0.5266  0.0436
   83SOL    HW1  248   0.953   3.149   6.905 -0.7833  1.1275  1.7749
   83SOL    HW2  249   0.984   3.001   6.922 -0.1558  0.8165 -1.3294
   84SOL     OW  250   0.742   3.127   6.277  0.3083 -0.6221  0.6950
   84SOL    HW1  251   0.823   3.170   6.306 -0.6297  0.5044  1.7663
   84SOL    HW2  252   0.768   3.077   6.200  1.3431  2.5298 -1.1774
   85SOL     OW  253   3.681   4.873   8.617  0.1698 -0.2393 -0.4979
   85SOL    HW1  254   3.748   4.847   8.554  0.0486  0.8292 -1.1071
   85SOL    HW2  255   3.599   4.861   8.570  0.1463  2.0605 -1.1901
   86SOL     OW  256   2.751   0.104   5.260 -0.3454  0.8854  0.4399
   86SOL    HW1  257   2.670   0.123   5.212 -0.3664 -1.1580 -0.4126
   86SOL    HW2  258   2.722   0.068   5.344 -0.2953  1.6116  0.7799
   87SOL     OW  259   3.985   2.667   5.939  0.1869  0.1262 -0.1111
   87SOL    HW1  260   4.026   2.678   5.853 -2.1940  0.5759 -1.2670
   87SOL    HW2  261   4.006   2.577   5.964  1.0903  0.0548 -1.0520
   88SOL     OW  262   2.968   0.346   6.771 -0.8041  0.5963 -0.4020
   88SOL    HW1  263   2.952   0.285   6.843 -0.1961  1.4421  0.4596
   88SOL    HW2  264   2.895   0.330   6.710 -0.3131 -1.4437 -0.5348
   89SOL     OW  265   2.113   4.266   6.530  0.3392  0.2070 -1.1938
   89SOL    HW1  266   2.050   4.286   6.599  1.5078 -1.0654  0.3121
   89SOL    HW2  267   2.082   4.184   6.492  0.1892  0.4480 -1.6052
   90SOL     OW  268   2.015   0.732   8.220  0.0445 -0.1846  0.4832
   90SOL    HW1  269   2.078   0.713   8.151 -0.0471  0.7226  0.1280
   90SOL    HW2  270   2.006   0.828   8.218  0.1162 -0.1251  1.8179
   91SOL     OW  271   1.158   4.658   5.688 -0.2789 -0.0840 -0.1647
   91SOL    HW1  272   1.247   4.636   5.659  0.2614  3.4415 -1.6349
   91SOL    HW2  273   1.108   4.666   5.608 -0.1159  4.5850 -0.0384
   92SOL     OW  274   4.135   0.910   5.495  0.0364 -0.2072 -0.1609
   92SOL    HW1  275   4.075   0.973   5.456 -1.0911 -0.4603  1.1067
   92SOL    HW2  276   4.090   0.826   5.489 -0.0038 -0.3227  1.2611
   93SOL     OW  277   2.928   2.229   5.263  0.9370 -0.4516 -0.2772
   93SOL    HW1  278   2.982   2.219   5.185  1.7329  0.1169  0.1932
   93SOL    HW2  279   2.990   2.225   5.336  0.2132 -0.9189  0.3345
   94SOL     OW  280   0.911   2.371   8.815 -0.4005 -0.2663 -0.4754
   94SOL    HW1  281   0.914   2.285   8.858 -2.9280 -1.2147 -1.9400
   94SOL    HW2  282   0.819   2.397   8.820 -0.6921  0.0267 -4.1986
   95SOL     OW  283   2.123   0.270   9.017  0.9136  0.2361  0.4899
   95SOL    HW1  284   2.038   0.289   8.979  0.2554 -0.4496  1.5820
   95SOL    HW2  285   2.116   0.180   9.048  1.5320  0.6390  1.8915
   96SOL     OW  286   2.459   2.584   7.433  0.5071 -0.5102 -0.3849
   96SOL    HW1  287   2.496   2.529   7.364  0.0621 -1.7308  0.3244
   96SOL    HW2  288   2.532   2.639   7.462  1.1489 -1.2272 -0.6163
   97SOL     OW  289   1.138   0.122   8.942 -0.3274  0.1608 -0.6733
   97SOL    HW1  290   1.132   0.180   9.018  0.6231 -1.8208  1.0096
   97SOL    HW2  291   1.196   0.168   8.882  1.8395  0.2929  1.3515
   98SOL     OW  292   0.099   0.772   5.909  0.3107 -0.4737  0.0538
   98SOL    HW1  293   0.079   0.738   5.822  1.7300 -0.2783 -0.3818
   98SOL    HW2  294   0.024   0.827   5.931  0.0175 -0.3607 -1.1398
   99SOL     OW  295   4.580   3.603   7.425  0.1079  0.5214 -0.1029
   99SOL    HW1  296   4.557   3.581   7.334  0.1202  1.3031 -0.3006
   99SOL    HW2  297   4.579   3.699   7.427  2.2427  0.5894  0.1623
  100SOL     OW  298   1.840   0.872   6.916 -0.1120  0.7337 -0.1896
  100SOL    HW1  299   1.888   0.799   6.954 -2.0220 -0.5854 -0.2000
  100SOL    HW2  300   1.902   0.910   6.853  1.4721  0.1328  0.9268
  101SOL     OW  301   0.812   0.293   7.593  0.1786 -0.3810  0.5980
  101SOL    HW1  302   0.883   0.304   7.656 -1.3078  0.2631  2.2280
  101SOL    HW2  303   0.739   0.344   7.629 -1.0833 -0.8925 -1.0906
  102SOL     OW  304   2.675   2.654   6.341 -0.2851  0.2416 -0.1733
  102SOL    HW1  305   2.708   2.592   6.276  0.0567 -0.8270  0.9797
  102SOL    HW2  306   2.753   2.700   6.372 -0.6314  1.9043 -1.6271
  103SOL     OW  307   1.009   4.557   7.585 -0.6057  0.0014 -0.3912
  103SOL    HW1  308   0.956   4.520   7.515  0.1475 -0.3071 -0.8142
  103SOL    HW2  309   1.083   4.598   7.540 -0.4363  0.3443  0.1888
  104SOL     OW  310   2.631   2.099   5.981 -0.8486 -0.8489  0.1044
  104SOL    HW1  311   2.599   2.040   5.913 -2.6188 -1.0064  1.0177
  104SOL    HW2  312   2.552   2.128   6.027  0.3335 -1.5166  2.7364
  105SOL     OW  313   4.923   0.627   7.366  0.3652 -0.1407 -0.0236
  105SOL    HW1  314   4.887   0.608   7.279  0.7462 -0.7907 -0.0426
  105SOL    HW2  315   5.018   0.626   7.353  0.4171  0.9408  0.1593
  106SOL     OW  316   4.414   0.330   7.052  0.5620  0.2161  0.2349
  106SOL    HW1  317   4.439   0.386   6.978 -0.0049  0.0688 -0.0682
  106SOL    HW2  318   4.362   0.260   7.013 -0.2232  0.4505  0.8485
  107SOL     OW  319   2.216   2.754   5.327 -0.5019 -0.5004  0.4584
  107SOL    HW1  320   2.193   2.839   5.364 -0.8030 -0.8012  0.9975
  107SOL    HW2  321   2.141   2.730   5.273  0.4045  0.4266 -1.2614
  108SOL     OW  322   2.745   1.032   6.656 -0.0024 -0.0673 -0.3756
  108SOL    HW1  323   2.774   0.941   6.672 -0.9165 -0.4956 -1.0956
  108SOL    HW2  324   2.819   1.072   6.610  0.1822 -0.6044 -0.5570
  109SOL     OW  325   0.525   2.973   8.861 -0.1765  0.4741 -0.1197
  109SOL    HW1  326   0.550   2.926   8.941  0.1824 -0.3043 -0.6700
  109SOL    HW2  327   0.433   2.996   8.875  0.1725  1.3178  0.9626
  110SOL     OW  328   0.517   0.477   8.386 -0.1280  0.5713  0.7252
  110SOL    HW1  329   0.427   0.447   8.370  0.5743 -0.4938 -1.8241
  110SOL    HW2  330   0.567   0.396   8.396  1.4983  0.5666 -4.4130
  111SOL     OW  331   2.975   2.676   7.512  0.1630  0.4669 -0.3907
  111SOL    HW1  332   3.004   2.763   7.483  1.6329  0.1431  0.0163
  111SOL    HW2  333   3.037   2.616   7.471  0.3238 -0.2294  0.8355
  112SOL     OW  334   0.045   2.470   8.976 -0.1697 -0.4163 -0.2527
  112SOL    HW1  335   0.005   2.552   9.007 -2.5041 -1.9893  1.2362
  112SOL    HW2  336   0.127   2.498   8.935 -1.4103  2.7779 -0.9186
  113SOL     OW  337   3.033   4.902   8.283  0.5410  0.0753  0.6997
  113SOL    HW1  338   3.041   4.865   8.371 -0.4283  1.1155  1.2449
  113SOL    HW2  339   2.939   4.915   8.271  0.8018  1.8452  0.3223
  114SOL     OW  340   3.576   0.238   4.808  0.6094 -0.0996 -0.1881
  114SOL    HW1  341   3.629   0.263   4.732  1.3751 -0.2991  0.2706
  114SOL    HW2  342   3.596   0.146   4.822  0.5405 -0.0411  0.3113
  115SOL     OW  343   2.114   4.942   6.992 -0.6715  0.4595  0.3318
  115SOL    HW1  344   2.182   4.986   6.941 -3.1356  1.3127 -2.5299
  115SOL    HW2  345   2.137   4.849   6.987 -0.1429  0.6487 -1.3176
  116SOL     OW  346   3.099   3.212   5.741 -0.6726 -0.1933 -0.3196
  116SOL    HW1  347   3.088   3.122   5.772  0.6579  0.3381  1.8834
  116SOL    HW2  348   3.098   3.205   5.646  1.7498 -2.8977 -0.2591
  117SOL     OW  349   4.037   4.547   6.941 -0.6862  0.4840  0.4918
  117SOL    HW1  350   4.069   4.619   6.886 -0.9561  1.2495  1.3210
  117SOL    HW2  351   4.018   4.477   6.879 -2.0352  1.6940 -0.5346
  118SOL     OW  352   0.618   2.121   8.820 -0.1302  0.1249  0.3098
  118SOL    HW1  353   0.616   2.080   8.906 -1.1383  2.7577  1.6380
  118SOL    HW2  354   0.532   2.104   8.783 -1.0321  2.0153  1.4151
  119SOL     OW  355   0.803   1.634   7.138 -0.1125 -0.4529  0.4483
  119SOL    HW1  356   0.836   1.560   7.188 -1.7542 -0.6498  1.3192
  119SOL    HW2  357   0.717   1.653   7.177 -0.2207  1.1905 -0.4799
  120SOL     OW  358   3.601   2.309   4.917  0.1783 -0.4794  0.0196
  120SOL    HW1  359   3.531   2.325   4.854 -0.2851 -0.8906  0.4106
  120SOL    HW2  360   3.600   2.214   4.931  1.7711 -0.6840 -1.0302
  121SOL     OW  361   1.198   1.103   8.599  0.2253  0.0254 -0.0105
  121SOL    HW1  362   1.194   1.008   8.594 -2.7247  0.1011 -0.5598
  121SOL    HW2  363   1.271   1.127   8.542 -0.1585 -1.8190 -1.3796
  122SOL     OW  364   4.314   4.097   4.884  0.4298  0.0204 -0.5802
  122SOL    HW1  365   4.291   4.099   4.791  0.9433  0.1876 -0.7029
  122SOL    HW2  366   4.273   4.176   4.920 -1.6718 -1.1673 -0.2057
  123SOL     OW  367   1.340   3.392   6.545  0.3598 -0.2549 -0.2013
  123SOL    HW1  368   1.378   3.399   6.632  2.0688 -1.9154 -0.7513
  123SOL    HW2  369   1.294   3.309   6.545 -0.3861  0.1471 -0.6271
  124SOL     OW  370   1.565   0.683   5.972  0.3577  0.3088  0.0783
  124SOL    HW1  371   1.531   0.772   5.962  0.7312  0.3548 -0.9678
  124SOL    HW2  372   1.660   0.694   5.972  0.4010 -0.0629  0.2426
  125SOL     OW  373   1.891   3.718   7.644 -0.3290 -0.2553  0.4072
  125SOL    HW1  374   1.922   3.792   7.593  1.4978 -0.5503  1.0375
  125SOL    HW2  375   1.799   3.709   7.619 -0.0092  0.8375 -1.3005
  126SOL     OW  376   2.372   2.211   6.094 -0.0735 -0.1888 -0.3860
  126SOL    HW1  377   2.329   2.126   6.102 -2.2211  0.8110 -0.6992
  126SOL    HW2  378   2.414   2.224   6.179 -0.3395 -1.2372 -0.0785
  127SOL     OW  379   0.813   3.157   9.634  0.3887 -0.3769 -0.0563
  127SOL    HW1  380   0.841   3.120   9.718  0.1939  0.0800  0.2175
  127SOL    HW2  381   0.721   3.133   9.627  0.7720 -1.6819 -0.8470
  128SOL     OW  382   2.188   4.905   6.376  0.2643 -0.2405 -0.6064
  128SOL    HW1  383   2.149   4.881   6.292 -0.3704 -0.3968 -0.2758
  128SOL    HW2  384   2.282   4.900   6.361  0.1570 -1.0183 -1.0933
  129SOL     OW  385   0.930   4.811   5.723  0.3137 -0.8616  0.1065
  129SOL    HW1  386   0.995   4.746   5.749  0.0004 -0.7421  1.2654
  129SOL    HW2  387   0.981   4.891   5.711  0.5722 -1.0997 -0.4050
  130SOL     OW  388   4.171   2.228   5.755  0.7942  0.4592 -0.0940
  130SOL    HW1  389   4.262   2.241   5.781  0.6017 -0.3431  1.0413
  130SOL    HW2  390   4.121   2.278   5.819  0.3288 -1.3390  1.0220
  131SOL     OW  391   1.845   1.666   7.084  0.0856 -0.2414 -0.5439
  131SOL    HW1  392   1.932   1.630   7.064 -0.4252 -1.2561 -0.9715
  131SOL    HW2  393   1.830   1.730   7.014  0.8151  0.5197 -0.0230
  132SOL     OW  394   0.239   1.043   7.556 -0.4382 -0.6187 -0.3168
  132SOL    HW1  395   0.191   0.988   7.494  0.0203  0.3317 -1.5771
  132SOL    HW2  396   0.196   1.029   7.640 -1.2446 -1.7656 -0.9006
  133SOL     OW  397   4.628   4.951   9.726 -0.2224  0.4222  0.4643
  133SOL    HW1  398   4.594   4.871   9.767  0.0110 -0.0488 -0.2297
  133SOL    HW2  399   4.653   5.007   9.799  2.3999 -1.3250  1.0256
  134SOL     OW  400   3.589   0.461   4.997 -0.0752  0.1422  0.0229
  134SOL    HW1  401   3.544   0.413   4.928  0.5700  0.8689 -0.9307
  134SOL    HW2  402   3.676   0.421   5.001  1.0042  2.1503 -1.8382
  135SOL     OW  403   4.466   1.784   5.074 -0.3044  0.7460 -0.3589
  135SOL    HW1  404   4.490   1.751   4.987  0.9322  2.5727 -0.7789
  135SOL    HW2  405   4.461   1.879   5.062 -1.9263  0.8942  1.1810
  136SOL     OW  406   3.504   2.080   7.585 -0.2367 -0.1426  0.1493
  136SOL    HW1  407   3.471   2.170   7.586 -1.4598 -0.5608 -0.0385
  136SOL    HW2  408   3.450   2.037   7.519 -0.8839 -1.4420  1.4743
  137SOL     OW  409   2.201   0.584   5.658 -0.2362  0.2539 -0.0806
  137SOL    HW1  410   2.138   0.523   5.696 -0.3206  0.2649 -0.1993
  137SOL    HW2  411   2.254   0.615   5.731 -0.9193  0.8924  0.1547
  138SOL     OW  412   2.810   2.876   6.888 -0.0898  0.3690 -0.1380
  138SOL    HW1  413   2.836   2.788   6.859  1.0674  0.7619 -0.3524
  138SOL    HW2  414   2.769   2.915   6.811  0.2122  0.3323 -0.3192
  139SOL     OW  415   1.200   3.050   5.451 -0.4197  0.3607  0.1589
  139SOL    HW1  416   1.283   3.028   5.409  1.0230  1.3983  2.2549
  139SOL    HW2  417   1.147   2.971   5.444  0.5228 -0.1541 -1.6767
  140SOL     OW  418   4.631   0.636   6.373  0.0851 -0.7073  0.3111
  140SOL    HW1  419   4.559   0.587   6.414 -0.5643  0.0889  0.1456
  140SOL    HW2  420   4.600   0.655   6.285  0.0034  0.6380  0.6085
  141SOL     OW  421   0.418   2.476   7.406 -0.3964 -0.2740  0.3066
  141SOL    HW1  422   0.408   2.467   7.311 -1.2763  3.0374 -0.0404
  141SOL    HW2  423   0.508   2.505   7.418  0.5685 -3.2073  0.8224
  142SOL     OW  424   1.450   2.669   6.898 -0.3616 -0.7884  0.1232
  142SOL    HW1  425   1.505   2.672   6.819  0.1303  0.0122  0.4968
  142SOL    HW2  426   1.361   2.662   6.864 -0.4760  2.7502 -0.6390
  143SOL     OW  427   0.316   0.798   6.134 -0.0887  0.6184  0.3509
  143SOL    HW1  428   0.362   0.719   6.107  0.0913  0.8136  0.0753
  143SOL    HW2  429   0.266   0.823   6.056  0.3554  1.1333  0.2273
  144SOL     OW  430   0.036   0.953   5.124 -0.0632 -0.1879 -0.1703
  144SOL    HW1  431   0.042   0.937   5.030  0.2879 -0.0283 -0.1765
  144SOL    HW2  432   0.012   1.046   5.131 -0.5960 -0.3271 -0.1097
  145SOL     OW  433   4.505   1.576   7.644  0.0847  0.3733 -0.3142
  145SOL    HW1  434   4.492   1.623   7.726 -0.5070  1.1770 -0.8584
  145SOL    HW2  435   4.490   1.641   7.576 -0.3775 -0.5129 -1.0832
  146SOL     OW  436   2.417   2.635   6.788 -0.8181  0.4112 -0.2701
  146SOL    HW1  437   2.359   2.645   6.712  0.5731  0.0613 -1.4298
  146SOL    HW2  438   2.462   2.719   6.795  0.8172 -0.3170 -1.3916
  147SOL     OW  439   3.848   0.727   6.675  0.4658 -0.4030 -0.2484
  147SOL    HW1  440   3.786   0.684   6.617  0.6494  0.2138 -0.9233
  147SOL    HW2  441   3.816   0.818   6.680  2.1925  0.3607 -1.9340
  148SOL     OW  442   0.547   3.633   8.597 -0.0690 -0.6337  0.8944
  148SOL    HW1  443   0.567   3.725   8.580  2.1014 -1.2219 -0.0041
  148SOL    HW2  444   0.473   3.613   8.540  0.2772  0.2148  0.1322
  149SOL     OW  445   1.697   0.594   7.707 -0.0689 -0.0582  0.4735
  149SOL    HW1  446   1.652   0.517   7.743 -2.5356  1.9729  2.1703
  149SOL    HW2  447   1.765   0.615   7.772 -1.8027  1.1839  2.0225
  150SOL     OW  448   1.208   1.386   5.902  0.3439 -0.6827  0.2501
  150SOL    HW1  449   1.293   1.363   5.864  0.1957 -0.7419 -0.0495
  150SOL    HW2  450   1.226   1.398   5.995  0.5706 -1.2710  0.2870
  151SOL     OW  451   1.097   0.502   6.171  0.1848 -0.2750 -0.5671
  151SOL    HW1  452   1.017   0.499   6.119  0.4619  2.1504 -1.2850
  151SOL    HW2  453   1.068   0.491   6.261 -0.8004 -0.5838 -0.9145
  152SOL     OW  454   0.775   3.317   5.193  0.0181  0.2263  0.1913
  152SOL    HW1  455   0.801   3.330   5.284 -0.8706 -1.0840  0.6652
  152SOL    HW2  456   0.841   3.364   5.142  0.2419  1.4179  1.5155
  153SOL     OW  457   4.572   0.152  10.162 -0.3015 -0.2838 -0.7221
  153SOL    HW1  458   4.551   0.102  10.083 -1.3495 -3.1781  1.2166
  153SOL    HW2  459   4.520   0.232  10.155 -0.5366 -0.5750 -2.8114
  154SOL     OW  460   4.731   4.513   8.693 -0.7851 -0.1244 -0.5233
  154SOL    HW1  461   4.799   4.562   8.740 -0.4263  1.6279 -2.6423
  154SOL    HW2  462   4.650   4.561   8.710 -0.9028 -0.3211 -0.5288
  155SOL     OW  463   2.462   1.678   4.670  0.1611 -0.0268  0.6465
  155SOL    HW1  464   2.429   1.766   4.691  0.0338 -0.0892  0.7111
  155SOL    HW2  465   2.469   1.677   4.575  0.3584  0.1236  0.6600
  156SOL     OW  466   4.414   1.726   7.444  0.4596 -0.1909  0.3748
  156SOL    HW1  467   4.378   1.725   7.355  0.3496  1.3665  0.3587
  156SOL    HW2  468   4.410   1.819   7.470 -0.4665 -0.7428  2.4025
  157SOL     OW  469   0.783   3.747   7.139 -0.0709  0.3330 -0.3196
  157SOL    HW1  470   0.688   3.755   7.147 -0.2788 -0.9151 -1.1994
  157SOL    HW2  471   0.803   3.778   7.051  0.4874  1.5052  0.1945
  158SOL     OW  472   3.277   3.883   9.769 -0.2900 -0.5543 -0.5570
  158SOL    HW1  473   3.284   3.788   9.779 -0.8304 -0.5313  0.1282
  158SOL    HW2  474   3.222   3.911   9.843  0.1618  0.3346 -0.5431
  159SOL     OW  475   2.861   0.852   6.110  0.4804  0.6709 -0.3834
  159SOL    HW1  476   2.862   0.826   6.018 -0.3074 -1.0626  0.0606
  159SOL    HW2  477   2.825   0.776   6.156 -1.4592  2.3833  1.0990
  160SOL     OW  478   2.347   0.491   6.472 -0.0539  0.4960  0.2952
  160SOL    HW1  479   2.437   0.495   6.504 -0.9044  1.8703  2.7470
  160SOL    HW2  480   2.339   0.566   6.412  1.2538 -1.5138 -2.6650
  161SOL     OW  481   0.854   1.377   8.030 -0.0380 -0.2032  0.0042
  161SOL    HW1  482   0.948   1.364   8.042 -0.0159 -0.9762 -0.8811
  161SOL    HW2  483   0.813   1.325   8.099  0.1588 -1.1383 -0.5729
  162SOL     OW  484   0.629   0.282   7.359 -0.7282  0.0401  0.3027
  162SOL    HW1  485   0.575   0.220   7.310  0.0131  0.4787 -1.1156
  162SOL    HW2  486   0.716   0.243   7.357 -0.3056  0.9998 -0.4024
  163SOL     OW  487   1.367   1.317   5.164 -0.7090  0.0725 -0.7237
  163SOL    HW1  488   1.376   1.278   5.252  0.6450 -2.8086 -2.0106
  163SOL    HW2  489   1.457   1.337   5.138 -1.1827  1.8901 -1.1348
  164SOL     OW  490   0.887   4.442   5.216  0.4863  0.1601 -0.1212
  164SOL    HW1  491   0.916   4.366   5.166  1.9249  0.1334  0.7055
  164SOL    HW2  492   0.923   4.429   5.304 -0.0250  1.3339  0.2912
  165SOL     OW  493   3.126   4.786   5.943  0.4710  0.9231  0.0871
  165SOL    HW1  494   3.154   4.714   5.887  1.5938 -0.6445  2.4993
  165SOL    HW2  495   3.069   4.839   5.887  2.2759  0.0558 -2.7709
  166SOL     OW  496   4.869   3.751   5.302  0.0159  0.2220 -0.1143
  166SOL    HW1  497   4.861   3.713   5.215 -1.4679  1.4353 -0.5314
  166SOL    HW2  498   4.874   3.675   5.361  2.1591 -0.6340 -1.2823
  167SOL     OW  499   0.346   3.332   4.944  0.4903  0.0832 -0.1786
  167SOL    HW1  500   0.428   3.342   4.993  0.4370  0.0882 -0.0906
  167SOL    HW2  501   0.342   3.238   4.924 -0.0056 -0.0966  0.7292
  168SOL     OW  502   2.566   1.472   6.021 -0.0844  0.4354  0.7296
  168SOL    HW1  503   2.629   1.533   6.058  0.8247 -0.5185  0.7957
  168SOL    HW2  504   2.517   1.524   5.958  1.2530  1.0359  0.1468
  169SOL     OW  505   0.827   4.150   4.777  0.1943 -0.1623  0.1594
  169SOL    HW1  506   0.858   4.235   4.807 -1.1743  0.7567 -0.9049
  169SOL    HW2  507   0.831   4.156   4.681 -0.0843 -1.2380  0.0637
  170SOL     OW  508   0.169   2.218   8.070 -0.4563 -0.4909  0.0233
  170SOL    HW1  509   0.179   2.309   8.044 -0.1837 -0.5131  0.0489
  170SOL    HW2  510   0.220   2.168   8.006 -0.2990 -0.5954  0.2287
  171SOL     OW  511   3.605   1.837   5.612  0.6029  0.2813 -0.4187
  171SOL    HW1  512   3.604   1.924   5.652  0.9773 -0.4873  1.3562
  171SOL    HW2  513   3.518   1.828   5.573 -0.1816  0.6847  1.1514
  172SOL     OW  514   1.565   2.207   6.045  0.3374 -0.2857 -0.9808
  172SOL    HW1  515   1.526   2.272   5.987 -1.5360 -1.2613 -0.8598
  172SOL    HW2  516   1.541   2.237   6.133 -0.2557 -0.9617 -0.9106
  173SOL     OW  517   4.930   3.422   5.776  0.0050  0.5018 -0.4921
  173SOL    HW1  518   5.024   3.442   5.775  0.1798 -0.2444 -2.3351
  173SOL    HW2  519   4.887   3.506   5.763  0.2946  1.1434  2.1518
  174SOL     OW  520   0.909   1.539   6.638  0.0575 -0.3726  0.0633
  174SOL    HW1  521   0.821   1.500   6.635 -0.4044  0.7071 -0.8981
  174SOL    HW2  522   0.910   1.586   6.721 -0.1461 -0.6585  0.2329
  175SOL     OW  523   0.593   1.837   6.279 -0.4358 -0.8011 -0.5379
  175SOL    HW1  524   0.526   1.770   6.290  0.3569 -1.3775  1.0473
  175SOL    HW2  525   0.675   1.789   6.269  0.0499 -0.0780 -0.1378
  176SOL     OW  526   0.845   3.060   7.511  0.1860 -0.0485  0.0632
  176SOL    HW1  527   0.813   3.149   7.498  0.4707  1.0797  5.0388
  176SOL    HW2  528   0.941   3.068   7.505  0.1496 -0.4064 -1.1055
  177SOL     OW  529   1.304   2.221   7.788  0.0701  0.9704 -0.3786
  177SOL    HW1  530   1.395   2.249   7.778 -0.2351  1.8283 -0.8851
  177SOL    HW2  531   1.268   2.225   7.699 -0.3835  0.3319 -0.2325
  178SOL     OW  532   3.014   3.239   5.218  0.1083  0.8216  0.0791
  178SOL    HW1  533   2.999   3.176   5.147 -0.0016 -0.9636  1.5936
  178SOL    HW2  534   3.018   3.324   5.174 -0.2082 -0.1681 -2.0199
  179SOL     OW  535   0.702   0.022   6.828 -0.9455  0.4558  0.4753
  179SOL    HW1  536   0.618  -0.017   6.803 -1.0228 -0.7132  2.3331
  179SOL    HW2  537   0.704   0.106   6.783 -1.7197 -0.7884 -2.0379
  180SOL     OW  538   0.704   4.042   7.965  0.1504 -0.1162  0.0792
  180SOL    HW1  539   0.792   4.037   8.002  1.8014  0.3126 -3.3544
  180SOL    HW2  540   0.704   4.123   7.914 -1.1684 -1.4671 -2.2608
  181SOL     OW  541   0.302   1.407   5.880 -0.0549 -0.9409 -0.0351
  181SOL    HW1  542   0.243   1.350   5.831 -1.9210 -2.2079  3.3020
  181SOL    HW2  543   0.347   1.348   5.941  2.3167  0.4690 -0.3086
  182SOL     OW  544   4.052   2.719   6.368  0.0211 -0.4021  0.4669
  182SOL    HW1  545   4.015   2.737   6.455  1.7798 -0.0838  1.1831
  182SOL    HW2  546   4.138   2.761   6.369 -0.0830 -0.0445 -1.5941
  183SOL     OW  547   4.814   1.616   5.605 -0.1391 -0.4056  0.2055
  183SOL    HW1  548   4.769   1.651   5.682  0.2594 -2.6319  1.5365
  183SOL    HW2  549   4.883   1.560   5.641 -0.4744 -2.2052 -1.7424
  184SOL     OW  550   1.756   3.283   8.733  0.1353  0.0113 -0.5018
  184SOL    HW1  551   1.695   3.210   8.746 -1.6785  1.8145  1.8097
  184SOL    HW2  552   1.829   3.263   8.792 -0.9446  0.5931  1.1053
  185SOL     OW  553   2.435   4.368   6.893 -0.4255 -0.3179  0.8608
  185SOL    HW1  554   2.502   4.435   6.903 -0.2017 -0.4366  0.2073
  185SOL    HW2  555   2.368   4.408   6.837 -0.7142 -0.3376  1.1858
  186SOL     OW  556   1.748   3.788   6.309 -0.6495  0.3119 -0.8464
  186SOL    HW1  557   1.661   3.752   6.288 -0.9779 -0.2322  1.1875
  186SOL    HW2  558   1.774   3.741   6.388  1.1126  1.1434 -0.8940
  187SOL     OW  559   1.653   2.535   7.322 -0.2396  0.5640 -0.2990
  187SOL    HW1  560   1.723   2.483   7.283 -0.2564 -0.3164  0.7922
  187SOL    HW2  561   1.698   2.592   7.385 -0.5460 -0.4281  0.8402
  188SOL     OW  562   3.262   1.369   5.067  0.5434 -0.4870 -0.3371
  188SOL    HW1  563   3.204   1.356   4.991 -2.2258 -3.4778  2.0049
  188SOL    HW2  564   3.340   1.317   5.046 -0.3288 -1.5584 -1.0247
  189SOL     OW  565   4.074   5.023   4.888  0.6069 -0.5599 -0.4019
  189SOL    HW1  566   4.101   4.937   4.857 -0.7959 -0.9969 -0.4975
  189SOL    HW2  567   4.034   5.006   4.973 -0.9138 -0.2216 -1.0163
  190SOL     OW  568   2.280   0.239   6.042  0.1614  0.3479  0.1267
  190SOL    HW1  569   2.199   0.221   5.994 -0.5024 -0.0864  1.3543
  190SOL    HW2  570   2.252   0.251   6.133  1.2979  1.7776  0.3271
  191SOL     OW  571   1.510   1.616   5.762 -0.1500  0.5423  0.3945
  191SOL    HW1  572   1.535   1.553   5.829 -2.0008  0.9624  1.5341
  191SOL    HW2  573   1.417   1.633   5.777 -0.0502  2.4614 -0.7682
  192SOL     OW  574   0.181   1.189   5.759  0.3585 -0.3014  0.1358
  192SOL    HW1  575   0.090   1.170   5.734 -0.4735 -1.1601  3.3315
  192SOL    HW2  576   0.233   1.125   5.710 -0.6240  0.6054 -2.2279
  193SOL     OW  577   5.020   2.120   7.741  0.2268 -0.7109 -0.8537
  193SOL    HW1  578   5.028   2.194   7.681 -1.0362 -0.9465 -1.3531
  193SOL    HW2  579   4.926   2.111   7.755  0.4871  0.6937  2.8783
  194SOL     OW  580   4.425   2.631   5.141 -0.1598 -0.1236  0.1943
  194SOL    HW1  581   4.480   2.580   5.081  0.7378 -1.3901  1.9783
  194SOL    HW2  582   4.479   2.706   5.165 -0.4235  0.2533 -0.3740
  195SOL     OW  583   0.618   4.983   9.572  0.1493 -0.5768 -0.0931
  195SOL    HW1  584   0.532   4.944   9.557 -0.3996  0.8749 -0.9541
  195SOL    HW2  585   0.679   4.923   9.529 -0.8208  0.2941 -2.8856
  196SOL     OW  586   2.977   4.744   6.518  0.3289 -0.3771  0.2514
  196SOL    HW1  587   3.046   4.678   6.516  0.1639 -0.5591  0.4892
  196SOL    HW2  588   2.922   4.723   6.443  0.6416 -0.1139 -0.0500
  197SOL     OW  589   0.412   0.543   5.179 -0.3024  0.1427 -0.3634
  197SOL    HW1  590   0.378   0.631   5.194  0.6814  0.4195  0.2956
  197SOL    HW2  591   0.410   0.533   5.083 -2.0393  0.2022 -0.3624
  198SOL     OW  592   0.254   1.736   6.086  0.0034 -0.1774  0.2955
  198SOL    HW1  593   0.195   1.803   6.051 -0.3574 -0.9963 -0.6918
  198SOL    HW2  594   0.292   1.695   6.009  1.5546  0.0420  0.9152
  199SOL     OW  595   0.080   1.973   6.785  0.2006 -0.6807  0.5690
  199SOL    HW1  596   0.158   1.922   6.764  0.5092 -0.7378  1.7413
  199SOL    HW2  597   0.072   1.965   6.881  0.5583  1.8614  0.8793
  200SOL     OW  598   0.116   3.930   5.245  0.0539  0.0461  0.4815
  200SOL    HW1  599   0.188   3.902   5.302 -0.8763  0.1105  1.7359
  200SOL    HW2  600   0.043   3.947   5.305 -0.9364  0.2358 -0.7320
  201SOL     OW  601   4.442   2.809   6.132  0.0617 -0.5515  0.5219
  201SOL    HW1  602   4.489   2.726   6.123 -1.9601 -1.5581 -1.9974
  201SOL    HW2  603   4.502   2.874   6.095  0.3812 -1.4247 -0.5348
  202SOL     OW  604   0.551   0.955   6.117  1.1789  0.3021 -0.3885
  202SOL    HW1  605   0.578   0.995   6.200 -1.1397 -1.8190  1.5838
  202SOL    HW2  606   0.466   0.915   6.137  0.2710  0.1381 -3.9910
  203SOL     OW  607   0.324   1.589   6.638  0.1995  0.4353 -0.4875
  203SOL    HW1  608   0.290   1.510   6.596 -0.0933  0.5464 -0.4614
  203SOL    HW2  609   0.306   1.659   6.575 -0.7652  0.6999  0.0534
  204SOL     OW  610   4.210   0.828   5.211  0.0873  0.0129 -0.3654
  204SOL    HW1  611   4.166   0.881   5.277 -1.8856 -2.4148  0.4152
  204SOL    HW2  612   4.223   0.743   5.253  1.9647 -0.5841 -1.9798
  205SOL     OW  613   1.886   4.229   7.663 -0.6495  0.4477  0.5719
  205SOL    HW1  614   1.926   4.181   7.736  0.3663  0.9867  0.3841
  205SOL    HW2  615   1.830   4.294   7.705  0.9846  1.6890  0.9666
  206SOL     OW  616   2.081   0.823   5.676  0.6321 -0.2258  0.0356
  206SOL    HW1  617   1.993   0.787   5.671  0.7900 -0.8591  1.3369
  206SOL    HW2  618   2.135   0.752   5.711  1.8594 -0.1352 -1.5294
  207SOL     OW  619   1.549   4.815   5.030  0.0199 -0.1481  0.0015
  207SOL    HW1  620   1.512   4.785   5.113 -0.5406  0.3618 -0.0576
  207SOL    HW2  621   1.540   4.740   4.971  0.1459 -0.4114  0.3130
  208SOL     OW  622   4.255   2.442   8.652 -0.0841 -0.4145 -0.7692
  208SOL    HW1  623   4.282   2.412   8.739 -0.0058  2.8142  0.4770
  208SOL    HW2  624   4.321   2.406   8.592  0.4690 -1.8507  0.6426
  209SOL     OW  625   4.518   2.257   6.300  0.8926 -0.1361  0.2088
  209SOL    HW1  626   4.487   2.166   6.300  2.4553 -0.6940 -0.6781
  209SOL    HW2  627   4.547   2.272   6.390 -0.3494 -0.1375  0.6343
  210SOL     OW  628   4.273   4.493   8.236  0.0486 -0.5868  0.0523
  210SOL    HW1  629   4.199   4.457   8.189  1.4306 -0.9139 -2.0121
  210SOL    HW2  630   4.329   4.418   8.256  2.2358  0.0151 -2.9996
  211SOL     OW  631   4.457   2.259   5.228  0.1210  0.4998  0.0470
  211SOL    HW1  632   4.373   2.269   5.183 -0.4333 -1.2970  0.5804
  211SOL    HW2  633   4.519   2.236   5.160  0.4636  2.7597 -0.5042
  212SOL     OW  634   2.645   0.614   5.144 -0.3480  0.0275 -0.0901
  212SOL    HW1  635   2.669   0.691   5.196 -0.5124  0.1028 -0.1248
  212SOL    HW2  636   2.666   0.540   5.201  1.9647 -0.0241 -0.8952
  213SOL     OW  637   3.676   0.592   5.915  0.1296 -0.2546 -0.2157
  213SOL    HW1  638   3.736   0.626   5.980  0.8628 -1.8309 -0.0038
  213SOL    HW2  639   3.732   0.544   5.854 -0.9137 -2.3768  0.3762
  214SOL     OW  640   3.847   4.050   7.895 -0.9027  0.3863 -0.1397
  214SOL    HW1  641   3.919   4.026   7.953 -1.2188 -1.3945 -0.4137
  214SOL    HW2  642   3.775   3.992   7.921 -2.4008  2.3503  0.3736
  215SOL     OW  643   1.003   2.805   7.121 -0.1132  0.2933 -0.3406
  215SOL    HW1  644   0.996   2.719   7.162  1.9545  0.6070  0.7694
  215SOL    HW2  645   1.048   2.859   7.185 -3.6616  3.0676  0.1373
  216SOL     OW  646   1.137   0.640   7.706  0.4091 -0.0192  0.0287
  216SOL    HW1  647   1.063   0.673   7.655 -0.4550 -0.9641  0.6161
  216SOL    HW2  648   1.191   0.717   7.723  0.0378  0.5379 -1.1749
  217SOL     OW  649   4.748   4.666   9.353  0.6351  0.5207 -0.1948
  217SOL    HW1  650   4.738   4.709   9.268 -0.0583  1.3967  0.3061
  217SOL    HW2  651   4.668   4.689   9.401 -0.4321 -2.4828 -0.3455
  218SOL     OW  652   1.533   1.095   6.661  0.3899  0.5131  0.1181
  218SOL    HW1  653   1.480   1.100   6.582 -3.1946  0.6288  2.3349
  218SOL    HW2  654   1.576   1.009   6.656  1.1474  0.9496 -2.3428
  219SOL     OW  655   3.180   2.122   6.188  0.0848 -0.2013  0.4165
  219SOL    HW1  656   3.257   2.077   6.154  0.5730  0.6591  0.3473
  219SOL    HW2  657   3.178   2.205   6.140 -0.0091  0.4394  1.4763
  220SOL     OW  658   2.797   3.754   5.754  0.2859 -0.4881 -0.2249
  220SOL    HW1  659   2.845   3.725   5.676 -0.3974  2.6924 -2.0493
  220SOL    HW2  660   2.824   3.846   5.765 -1.6473 -0.0842  1.7116
  221SOL     OW  661   1.890   2.519   7.121  0.2674 -0.9008 -0.3525
  221SOL    HW1  662   1.940   2.571   7.184  0.3766  0.1513 -1.2748
  221SOL    HW2  663   1.810   2.569   7.106 -0.5275 -1.9795  0.1995
  222SOL     OW  664   2.581   2.123   9.157  0.1793 -0.4861  0.0105
  222SOL    HW1  665   2.540   2.042   9.126  1.1561 -0.8804 -0.2691
  222SOL    HW2  666   2.597   2.174   9.078 -0.4262 -0.0140  0.1848
  223SOL     OW  667   4.263   4.936   9.021 -0.0761  0.0689  0.2327
  223SOL    HW1  668   4.228   4.909   8.936  0.4609 -1.4703  0.4744
  223SOL    HW2  669   4.353   4.903   9.021 -0.3830 -0.8754  1.7846
  224SOL     OW  670   4.263   0.657   8.353  0.1672  0.1326  0.2191
  224SOL    HW1  671   4.325   0.604   8.402  1.9198  0.2531 -1.7319
  224SOL    HW2  672   4.177   0.627   8.383  1.1024 -0.2366  2.8043
  225SOL     OW  673   1.407   2.626   8.711  0.0898 -0.1306 -0.5251
  225SOL    HW1  674   1.413   2.597   8.802  1.2781  1.7785  0.0652
  225SOL    HW2  675   1.449   2.556   8.661 -1.6181 -1.7702  0.2044
  226SOL     OW  676   1.460   1.957   7.842  0.6311  0.2150 -0.1791
  226SOL    HW1  677   1.380   2.009   7.833  1.5483  1.9588  1.1468
  226SOL    HW2  678   1.469   1.944   7.936  0.7247 -1.9437 -0.4518
  227SOL     OW  679   0.732   2.805   9.640 -0.2469  0.0286 -0.0437
  227SOL    HW1  680   0.678   2.728   9.623 -0.0804  0.0180 -0.5179
  227SOL    HW2  681   0.704   2.869   9.574 -0.8810  0.6301  0.7782
  228SOL     OW  682   3.745   4.214   7.685  0.1516 -0.0742 -0.4898
  228SOL    HW1  683   3.778   4.304   7.685 -1.5328  0.5848 -0.4833
  228SOL    HW2  684   3.803   4.167   7.744  0.3384  1.3155  0.4758
  229SOL     OW  685   4.921   3.017   9.046 -0.1886 -0.3248  0.0926
  229SOL    HW1  686   4.983   3.084   9.019 -1.0357 -0.0989 -1.4739
  229SOL    HW2  687   4.860   3.062   9.105 -0.8088  0.3527 -1.0213
  230SOL     OW  688   0.732   0.828   8.355 -0.4932 -0.3472  0.3511
  230SOL    HW1  689   0.739   0.746   8.307 -2.2259 -0.0105 -0.5767
  230SOL    HW2  690   0.708   0.893   8.288  0.8663  0.9327  1.0493
  231SOL     OW  691   3.009   3.635   8.199  0.3903 -0.0460  0.1596
  231SOL    HW1  692   3.080   3.648   8.137  0.6825 -1.6494  0.1101
  231SOL    HW2  693   3.018   3.708   8.260  1.1479  0.6116 -0.6991
  232SOL     OW  694   2.472   3.069   6.167  0.3090 -0.2822  0.1596
  232SOL    HW1  695   2.516   3.079   6.082 -1.9839  0.1060 -1.0604
  232SOL    HW2  696   2.435   3.155   6.185  1.1976 -0.2255  1.8516
  233SOL     OW  697   4.997   3.766   9.135 -0.3121 -0.4445  0.1937
  233SOL    HW1  698   4.911   3.760   9.093 -0.8411  2.9990  0.5165
  233SOL    HW2  699   5.009   3.681   9.177 -2.8471 -1.5587 -1.1024
  234SOL     OW  700   0.936   1.073   6.896  0.3573 -0.0272 -0.1239
  234SOL    HW1  701   1.000   1.126   6.943 -0.2104 -0.1005  0.7584
  234SOL    HW2  702   0.859   1.074   6.952 -0.1840 -0.5063 -0.8451
  235SOL     OW  703   3.372   1.419   8.514  0.4825 -0.2752 -0.5567
  235SOL    HW1  704   3.295   1.427   8.457  0.2554 -0.3711 -0.2684
  235SOL    HW2  705   3.375   1.501   8.562 -1.3247 -1.4089  1.7480
  236SOL     OW  706   1.681   1.034   7.068 -0.4912  0.2132 -0.1045
  236SOL    HW1  707   1.737   1.108   7.043  0.6002 -1.3679 -2.7547
  236SOL    HW2  708   1.720   0.958   7.026 -3.1882 -1.4278  0.0737
  237SOL     OW  709   1.729   4.127   9.503  0.2671  0.3806  0.2237
  237SOL    HW1  710   1.825   4.130   9.508  0.2480 -0.3653  1.3974
  237SOL    HW2  711   1.701   4.106   9.592 -1.0172  0.9473 -0.0247
  238SOL     OW  712   1.840   0.079   8.425  0.0125 -0.3000 -0.6885
  238SOL    HW1  713   1.867   0.171   8.423 -0.6140 -0.1056 -0.2333
  238SOL    HW2  714   1.920   0.031   8.405  0.5401  0.3086 -0.0931
  239SOL     OW  715   4.423   3.572   8.304 -0.0960  0.4067  0.6176
  239SOL    HW1  716   4.493   3.511   8.282  1.3255  2.2401 -0.2430
  239SOL    HW2  717   4.344   3.533   8.266  0.9028 -0.4899 -0.6300
  240SOL     OW  718   3.597   4.034   6.038 -0.0248 -0.0611 -0.1476
  240SOL    HW1  719   3.549   4.035   6.121  0.0776  0.9281 -0.0832
  240SOL    HW2  720   3.534   4.067   5.974  0.7186  1.9211  0.0579
  241SOL     OW  721   0.384   1.621   8.210  0.6182 -0.6385 -0.1180
  241SOL    HW1  722   0.352   1.532   8.195  0.1470 -0.1682 -2.2177
  241SOL    HW2  723   0.390   1.659   8.123 -1.7211  2.2877  0.8499
  242SOL     OW  724   4.558   0.148   8.988 -0.2021  0.2856 -0.5310
  242SOL    HW1  725   4.479   0.154   8.934 -1.0105  0.7127  0.6772
  242SOL    HW2  726   4.611   0.223   8.962  0.1631 -0.3944 -1.8539
  243SOL     OW  727   2.683   0.116   6.205 -0.3225  0.3443 -0.1922
  243SOL    HW1  728   2.751   0.178   6.177  0.6790 -1.1528 -1.1773
  243SOL    HW2  729   2.639   0.091   6.124  0.8073 -1.9654 -0.1562
  244SOL     OW  730   0.577   0.098   5.693 -0.5252 -0.3057  0.3543
  244SOL    HW1  731   0.600   0.052   5.774 -1.0983 -0.8610  0.2104
  244SOL    HW2  732   0.610   0.187   5.706 -0.2896 -0.4882  1.0496
  245SOL     OW  733   4.336   1.566   8.166 -0.5330 -0.5931  0.1978
  245SOL    HW1  734   4.327   1.594   8.257  3.1826  0.1331  0.4810
  245SOL    HW2  735   4.426   1.533   8.159  0.2099  1.6481 -3.7535
  246SOL     OW  736   2.507   3.157   5.528 -0.3039  0.0045 -0.9064
  246SOL    HW1  737   2.464   3.187   5.608  2.1103 -0.8814  0.8619
  246SOL    HW2  738   2.558   3.233   5.498 -0.9920  0.2519 -1.4736
  247SOL     OW  739   1.680   0.132   7.162  0.8007 -0.4431 -0.0059
  247SOL    HW1  740   1.656   0.151   7.253  0.2287 -1.7230  0.1449
  247SOL    HW2  741   1.635   0.049   7.143  0.3868  0.1184 -1.6727
  248SOL     OW  742   0.962   1.267   9.142  0.3873  0.8254  0.4569
  248SOL    HW1  743   1.025   1.337   9.153  0.8903  0.2853  1.1279
  248SOL    HW2  744   0.890   1.306   9.094  0.8350  1.6918  0.4816
  249SOL     OW  745   2.704   1.746   7.552 -0.2775  0.3353 -0.0474
  249SOL    HW1  746   2.643   1.818   7.535 -0.1438  0.2453 -0.9637
  249SOL    HW2  747   2.746   1.770   7.635  1.2770  2.3868 -1.3393
  250SOL     OW  748   2.779   4.456   8.205  0.5078 -0.0276  0.0748
  250SOL    HW1  749   2.718   4.417   8.141  2.6408  0.3337 -2.3619
  250SOL    HW2  750   2.831   4.382   8.237  1.5609  0.1527 -1.1271
  251SOL     OW  751   2.402   0.711   5.840  0.3269 -0.2711 -0.1517
  251SOL    HW1  752   2.386   0.693   5.932 -2.1154 -2.1198 -0.8305
  251SOL    HW2  753   2.493   0.742   5.836  0.2786  0.5089  2.9053
  252SOL     OW  754   0.853   4.733   8.311  0.0093  0.9140 -0.4527
  252SOL    HW1  755   0.879   4.750   8.221 -2.3559  0.5154 -1.2809
  252SOL    HW2  756   0.892   4.648   8.333  0.2145  0.7952 -1.2706
  253SOL     OW  757   0.019   2.397   7.388 -0.3167 -0.1718  0.5155
  253SOL    HW1  758  -0.029   2.399   7.471 -0.0176 -0.3854  0.6928
  253SOL    HW2  759   0.062   2.483   7.383 -2.5943  1.0216 -0.7647
  254SOL     OW  760   4.544   0.802   7.207 -0.3358  0.0409  0.1724
  254SOL    HW1  761   4.563   0.799   7.113 -1.6350 -1.4900 -0.0957
  254SOL    HW2  762   4.458   0.844   7.212 -1.1695 -1.6227  0.4644
  255SOL     OW  763   4.048   3.022  10.121 -0.2209 -0.5212 -0.6072
  255SOL    HW1  764   4.121   3.078  10.146 -2.6940  2.5678  0.3307
  255SOL    HW2  765   4.088   2.938  10.099  3.4569  0.7152  0.7119
  256SOL     OW  766   1.368   3.533   7.008 -0.1280 -0.5914 -0.1986
  256SOL    HW1  767   1.459   3.544   6.978  0.1655  0.0799  0.8713
  256SOL    HW2  768   1.376   3.482   7.089 -0.5285  0.8727  0.8051
  257SOL     OW  769   4.406   2.976   8.580 -0.3164 -0.0249 -0.6103
  257SOL    HW1  770   4.443   2.935   8.658 -1.7940 -0.2054  0.0363
  257SOL    HW2  771   4.312   2.978   8.597 -0.5541  0.9527 -1.9167
  258SOL     OW  772   2.733   0.374   8.301  0.2789 -0.6023  0.3995
  258SOL    HW1  773   2.825   0.366   8.325  0.5772 -0.4548 -0.6476
  258SOL    HW2  774   2.688   0.392   8.383  1.2587 -0.1088  0.8407
  259SOL     OW  775   4.503   0.838   7.637  0.0210 -0.0654 -0.6487
  259SOL    HW1  776   4.516   0.751   7.674  0.4928  0.6142  0.8938
  259SOL    HW2  777   4.421   0.832   7.589 -0.6088 -1.0393  0.4855
  260SOL     OW  778   1.405   1.043   8.872  0.1347 -0.0823 -0.3041
  260SOL    HW1  779   1.337   1.098   8.833  0.4013 -1.1665 -2.5034
  260SOL    HW2  780   1.364   0.957   8.880  0.6227 -0.2626  0.2715
  261SOL     OW  781   0.287   1.219   7.016  0.0524  0.5340  0.3318
  261SOL    HW1  782   0.217   1.176   6.968  0.4389  0.3430 -0.0643
  261SOL    HW2  783   0.356   1.234   6.951  1.0654 -0.7929  1.0454
  262SOL     OW  784   2.505   0.183   9.564  0.1971  0.1357  0.4750
  262SOL    HW1  785   2.450   0.118   9.608  0.8939  0.0964  1.3115
  262SOL    HW2  786   2.593   0.167   9.598  0.5989  0.6944 -0.2706
  263SOL     OW  787   4.476   0.506   5.110 -1.0967 -0.0959  0.2360
  263SOL    HW1  788   4.538   0.564   5.156 -0.9213  0.3492 -0.5482
  263SOL    HW2  789   4.449   0.444   5.177 -0.6619  0.3941  0.8901
  264SOL     OW  790   4.573   4.450   5.059 -0.5028 -0.1890  0.0973
  264SOL    HW1  791   4.607   4.370   5.018  1.0903  0.3995  0.1921
  264SOL    HW2  792   4.598   4.442   5.151 -0.8414  0.1592  0.2209
  265SOL     OW  793   2.019   1.391   7.746 -0.3285  0.8567  0.3907
  265SOL    HW1  794   1.967   1.312   7.731  0.2253  0.7851 -1.3087
  265SOL    HW2  795   1.954   1.461   7.751 -0.7475  0.4539  0.7893
  266SOL     OW  796   2.369   1.863   8.108  0.2987 -0.0533 -0.2261
  266SOL    HW1  797   2.283   1.860   8.068  0.5544 -0.2818 -0.7682
  266SOL    HW2  798   2.392   1.771   8.124  0.0641  0.0437  0.7541
  267SOL     OW  799   2.356   0.568   6.136 -0.0928 -0.2728  0.1319
  267SOL    HW1  800   2.451   0.560   6.143 -0.1044 -0.1710  0.4381
  267SOL    HW2  801   2.327   0.483   6.103  0.1516 -0.1261 -0.4747
  268SOL     OW  802   2.228   2.944   9.295  0.1198  0.2803 -0.0215
  268SOL    HW1  803   2.208   3.017   9.237  3.1016  0.1328 -1.3926
  268SOL    HW2  804   2.242   2.985   9.381  1.5967  1.3940 -0.7390
  269SOL     OW  805   0.854   0.052   7.754 -0.5739 -0.0404 -0.2716
  269SOL    HW1  806   0.896  -0.020   7.708  0.9342  0.2253  0.6165
  269SOL    HW2  807   0.802   0.097   7.687 -0.0038 -0.8062 -1.2476
  270SOL     OW  808   2.251   3.228   9.509 -0.0605 -0.1293  0.0696
  270SOL    HW1  809   2.288   3.188   9.588 -1.5848 -0.4449  0.6665
  270SOL    HW2  810   2.323   3.232   9.447  1.2857  0.4838  1.6050
  271SOL     OW  811   3.324   1.838   5.543  0.6400  0.0288 -0.1033
  271SOL    HW1  812   3.253   1.778   5.568  0.9327 -0.2708  0.0164
  271SOL    HW2  813   3.348   1.811   5.454 -0.6451  1.3289 -0.8671
  272SOL     OW  814   2.483   4.899   7.875 -0.3832 -0.0654  0.1981
  272SOL    HW1  815   2.419   4.851   7.926 -0.0762 -1.9376 -1.0679
  272SOL    HW2  816   2.494   4.982   7.922 -0.0285 -1.6769  3.2124
  273SOL     OW  817   2.086   4.031   6.353  0.0951 -0.2046  0.3162
  273SOL    HW1  818   2.069   4.027   6.259  0.6727 -1.9006  0.2577
  273SOL    HW2  819   2.090   3.940   6.381  2.4665  0.1863  1.5195
  274SOL     OW  820   1.251   1.899   6.088  0.0657 -0.6770  0.2929
  274SOL    HW1  821   1.213   1.813   6.071 -0.9415 -0.2218  0.1352
  274SOL    HW2  822   1.317   1.911   6.020 -2.3402  0.1856 -2.0656
  275SOL     OW  823   2.095   2.750   4.965 -0.1886 -0.0720  0.7015
  275SOL    HW1  824   2.162   2.813   4.993 -1.4441  1.7729 -0.2103
  275SOL    HW2  825   2.013   2.786   4.999 -0.6811 -2.8348  2.7056
  276SOL     OW  826   2.168   4.700   6.875 -0.4225 -0.3149  0.8148
  276SOL    HW1  827   2.193   4.608   6.867 -0.4957 -0.4313  1.8391
  276SOL    HW2  828   2.239   4.748   6.831  0.9299 -0.7160  2.4573
  277SOL     OW  829   4.557   2.699   8.405  0.8651  0.0057  0.3164
  277SOL    HW1  830   4.615   2.720   8.477  0.1012  1.8544  0.4294
  277SOL    HW2  831   4.470   2.696   8.444  0.3236  1.9369 -0.6218
  278SOL     OW  832   0.966   1.595   6.932  0.1252  0.5804 -0.7060
  278SOL    HW1  833   0.922   1.628   7.011  0.4154  0.1440 -0.3624
  278SOL    HW2  834   1.057   1.581   6.958  0.3028  0.7536 -1.2114
  279SOL     OW  835   4.606   4.574   6.568 -0.0952  0.0438  0.8315
  279SOL    HW1  836   4.575   4.520   6.641  1.7895 -1.6750  0.4342
  279SOL    HW2  837   4.700   4.579   6.580  0.0905  0.8418 -0.7745
  280SOL     OW  838   0.045   3.219   8.865  0.0845 -0.2267  0.3279
  280SOL    HW1  839  -0.009   3.238   8.788 -1.5436  0.0611  1.5136
  280SOL    HW2  840   0.045   3.300   8.915  0.4082 -0.6868  1.0872
  281SOL     OW  841   4.625   2.776   5.248  0.1679 -0.2584  1.3959
  281SOL    HW1  842   4.637   2.755   5.340  0.9435  1.3594  1.7078
  281SOL    HW2  843   4.641   2.871   5.243  1.8989 -0.5693 -0.6530
  282SOL     OW  844   1.686   0.634  10.064 -0.0040 -0.0923  0.7663
  282SOL    HW1  845   1.664   0.621   9.972 -0.6360  1.0578  0.7360
  282SOL    HW2  846   1.771   0.591  10.075  0.4302  0.3980 -0.5265
  283SOL     OW  847   3.003   2.026   8.873 -0.3426  0.0309 -0.2084
  283SOL    HW1  848   2.918   2.069   8.864 -0.2807 -0.0115 -1.0435
  283SOL    HW2  849   3.067   2.096   8.862 -0.1531 -0.5664 -4.2935
  284SOL     OW  850   3.102   3.100   7.931  0.3466  0.2525  0.1066
  284SOL    HW1  851   3.098   3.192   7.954 -1.4375  0.1577  0.3612
  284SOL    HW2  852   3.181   3.067   7.973  0.1382  1.3236  1.3919
  285SOL     OW  853   0.817   2.267   4.822 -0.2114 -0.2223  0.1323
  285SOL    HW1  854   0.794   2.184   4.780 -0.7211 -0.1937  0.3485
  285SOL    HW2  855   0.848   2.242   4.909 -2.2624 -0.0801  0.9692
  286SOL     OW  856   0.583   4.676  10.105  0.1294  0.4358  0.2429
  286SOL    HW1  857   0.658   4.729  10.130  0.9638  0.0970 -1.4309
  286SOL    HW2  858   0.540   4.726  10.036 -2.5072  1.6672  2.5620
  287SOL     OW  859   3.449   2.279   5.658 -0.1193 -0.6836  0.2919
  287SOL    HW1  860   3.538   2.251   5.636 -0.0413 -0.3940  0.2288
  287SOL    HW2  861   3.407   2.202   5.696 -0.9659 -1.9514 -2.8461
  288SOL     OW  862   2.626   4.037   7.852  0.0465  0.8784 -0.2462
  288SOL    HW1  863   2.634   3.953   7.808 -0.9678 -0.0456  1.2545
  288SOL    HW2  864   2.532   4.049   7.866  0.0877  2.6658 -1.1493
  289SOL     OW  865   0.579   4.709   6.749  0.1751  0.8827  0.2102
  289SOL    HW1  866   0.646   4.685   6.814  0.7657  0.2602 -0.6012
  289SOL    HW2  867   0.579   4.636   6.687 -2.9070 -0.2709  1.3863
  290SOL     OW  868   2.283   0.874   7.640 -0.0457 -0.2344  0.5272
  290SOL    HW1  869   2.278   0.828   7.556 -1.1580  1.1436 -0.2063
  290SOL    HW2  870   2.274   0.967   7.617 -0.9073  0.1322  2.2101
  291SOL     OW  871   1.792   3.356   8.425  0.0111  0.1515 -0.3272
  291SOL    HW1  872   1.776   3.341   8.519 -0.0766 -0.4479 -0.4308
  291SOL    HW2  873   1.879   3.395   8.422  0.7442 -1.3653 -0.0910
  292SOL     OW  874   2.614   1.940   6.980  0.2805 -0.7739  0.1932
  292SOL    HW1  875   2.582   1.860   6.938 -1.2050 -0.7439  1.2305
  292SOL    HW2  876   2.633   1.914   7.070 -0.1102  0.0104  0.5104
  293SOL     OW  877   2.910   4.975   7.432  0.1545 -0.4625 -0.1089
  293SOL    HW1  878   2.885   4.895   7.477 -0.3752  0.9260  2.2603
  293SOL    HW2  879   2.850   4.980   7.358 -1.0868 -1.3224  0.7930
  294SOL     OW  880   4.736   2.776   6.950 -0.0182 -0.3690 -0.1022
  294SOL    HW1  881   4.810   2.729   6.988 -0.1867  0.4780  1.3329
  294SOL    HW2  882   4.729   2.741   6.861 -0.3610 -3.2879  0.9648
  295SOL     OW  883   2.361   3.085   8.591  0.1001 -0.3975 -0.3867
  295SOL    HW1  884   2.349   3.170   8.548 -0.3006  0.2318  0.9142
  295SOL    HW2  885   2.397   3.029   8.523  1.1911  1.0415 -1.0476
  296SOL     OW  886   4.753   4.923   5.359  0.5867  0.3025  0.0793
  296SOL    HW1  887   4.729   4.847   5.412  0.0693  1.1964  1.1787
  296SOL    HW2  888   4.796   4.886   5.282  1.5528 -1.0339  1.2048
  297SOL     OW  889   1.163   3.463   8.827 -0.2555 -0.2714 -0.3343
  297SOL    HW1  890   1.154   3.457   8.922  0.9898 -0.8974 -0.2393
  297SOL    HW2  891   1.115   3.543   8.803  0.9797  0.9203  1.0428
  298SOL     OW  892   2.799   1.981   6.299 -0.0067 -0.5272  0.3800
  298SOL    HW1  893   2.806   2.076   6.299 -0.8472 -0.4601  0.5418
  298SOL    HW2  894   2.866   1.952   6.237 -0.9170  0.2797 -1.0521
  299SOL     OW  895   4.732   4.917   7.511 -0.0510 -0.1622 -0.2277
  299SOL    HW1  896   4.753   4.840   7.564 -0.7741  1.8426  3.3178
  299SOL    HW2  897   4.817   4.954   7.488  0.3693  0.1717  1.6870
  300SOL     OW  898   2.491   4.936   6.347  0.0291  0.4901  0.4437
  300SOL    HW1  899   2.547   5.014   6.349 -1.6206  1.7281  1.1888
  300SOL    HW2  900   2.535   4.876   6.287  0.9068  2.3698 -0.9126
  301SOL     OW  901   1.454   4.764   9.763  0.2262  0.4211 -0.1688
  301SOL    HW1  902   1.378   4.707   9.767  0.8759 -0.5406 -1.0734
  301SOL    HW2  903   1.528   4.707   9.783  0.9931  0.6975 -2.0130
  302SOL     OW  904   2.502   2.633   8.854  0.4766  0.0453 -0.5401
  302SOL    HW1  905   2.461   2.607   8.772 -1.5204  1.6112 -0.1173
  302SOL    HW2  906   2.533   2.722   8.839 -0.7399  0.7041  0.6287
  303SOL     OW  907   1.301   0.950   5.355  1.1241 -0.7107  0.0254
  303SOL    HW1  908   1.296   0.987   5.443  0.2025  0.0738 -0.3330
  303SOL    HW2  909   1.388   0.972   5.324  0.7774  0.7687  0.0111
  304SOL     OW  910   1.088   4.244   9.075  0.0948  0.4737 -1.1321
  304SOL    HW1  911   1.149   4.269   9.144 -0.9066  0.8384 -0.3544
  304SOL    HW2  912   1.005   4.283   9.101 -1.1773 -2.3041 -0.6839
  305SOL     OW  913   1.626   0.195   6.873  0.4740 -0.0065  0.2554
  305SOL    HW1  914   1.649   0.286   6.887 -2.6054  0.6815  1.6480
  305SOL    HW2  915   1.628   0.155   6.960  2.7344 -1.6103 -0.4377
  306SOL     OW  916   1.202   1.385   8.206 -0.8198 -0.0092  0.1644
  306SOL    HW1  917   1.209   1.429   8.291 -1.6247 -1.0175  0.7750
  306SOL    HW2  918   1.165   1.299   8.227 -0.8350 -0.3475 -1.1901
  307SOL     OW  919   1.558   2.428   5.694 -0.4822 -0.1421 -0.2984
  307SOL    HW1  920   1.559   2.338   5.728 -1.1638 -0.4765 -1.1053
  307SOL    HW2  921   1.467   2.441   5.665 -0.2067  0.5382 -0.8883
  308SOL     OW  922   4.786   4.805   9.089  0.5261 -0.2048 -0.3784
  308SOL    HW1  923   4.849   4.753   9.040  1.6499 -0.0783  0.8563
  308SOL    HW2  924   4.821   4.895   9.086  1.0149 -0.3145  1.1961
  309SOL     OW  925   0.342   1.679   9.701 -0.0098 -1.1666 -0.1331
  309SOL    HW1  926   0.335   1.770   9.730  2.0705 -0.1324 -2.4886
  309SOL    HW2  927   0.427   1.649   9.735 -1.2356 -2.7893  1.7577
  310SOL     OW  928   3.598   4.640   7.605  0.0957  0.1759  1.0338
  310SOL    HW1  929   3.536   4.706   7.575  1.7470  1.3506  0.0033
  310SOL    HW2  930   3.544   4.574   7.648 -1.8271  1.1930  0.3165
  311SOL     OW  931   2.072   1.124   7.968  0.4218  0.2633 -0.3442
  311SOL    HW1  932   2.089   1.100   8.059 -0.3042  1.3306  0.0930
  311SOL    HW2  933   2.158   1.132   7.928  0.7541  0.0696  0.3289
  312SOL     OW  934   2.117   3.890   9.048 -0.2768 -0.3336 -0.0279
  312SOL    HW1  935   2.072   3.956   9.101 -2.0385  0.0168 -1.8188
  312SOL    HW2  936   2.190   3.860   9.103 -0.3662  1.9320  1.4741
  313SOL     OW  937   2.010   1.155  10.085  0.0898 -0.3597 -0.5721
  313SOL    HW1  938   1.990   1.064  10.107  0.9335 -0.2682  0.6651
  313SOL    HW2  939   2.047   1.151   9.996  1.5360 -1.4321  0.0353
  314SOL     OW  940   2.234   3.194   8.292 -1.1492 -0.0237  0.7188
  314SOL    HW1  941   2.207   3.128   8.228 -3.3502  1.7764 -0.3263
  314SOL    HW2  942   2.159   3.206   8.349 -0.6464  1.2584  1.1626
  315SOL     OW  943   1.136   0.886   7.401  0.0373 -0.6034  0.2577
  315SOL    HW1  944   1.079   0.953   7.439 -0.0420  0.6556 -1.9078
  315SOL    HW2  945   1.076   0.816   7.374 -0.3197  0.0023 -0.5557
  316SOL     OW  946   2.041   0.671   7.644 -0.0339  0.4007 -0.3347
  316SOL    HW1  947   2.121   0.624   7.619  0.4472  1.4727 -0.8849
  316SOL    HW2  948   2.059   0.762   7.621 -1.2055  0.7496  0.0733
  317SOL     OW  949   3.406   1.647   8.663 -0.2338 -0.5789 -0.4065
  317SOL    HW1  950   3.350   1.722   8.686  1.5613  0.5895  0.4429
  317SOL    HW2  951   3.450   1.625   8.745  0.3120 -1.6894 -0.9792
  318SOL     OW  952   1.324   3.474   9.611  0.4154 -0.0341 -0.0015
  318SOL    HW1  953   1.255   3.436   9.665  1.4555 -0.0159  1.4027
  318SOL    HW2  954   1.287   3.476   9.523 -1.0431 -0.8157  0.5539
  319SOL     OW  955   2.451   3.798   7.860 -0.1746 -0.0325 -0.5551
  319SOL    HW1  956   2.388   3.762   7.798  0.2005  0.5042 -1.2638
  319SOL    HW2  957   2.413   3.782   7.946 -1.9695  1.5764 -1.0016
  320SOL     OW  958   2.625   1.247   5.151 -0.0510 -0.1083 -0.9011
  320SOL    HW1  959   2.569   1.208   5.084 -1.7405  1.4622 -0.4936
  320SOL    HW2  960   2.659   1.326   5.110  1.9973 -1.0716 -1.1579
  321SOL     OW  961   0.967   0.566   7.915  0.2948 -0.4871 -0.1332
  321SOL    HW1  962   0.980   0.482   7.959  0.5652 -1.4240 -1.8692
  321SOL    HW2  963   1.044   0.575   7.858  0.0986  0.7697 -0.2300
  322SOL     OW  964   2.235   1.771   6.793  0.5308 -0.6696 -0.3927
  322SOL    HW1  965   2.188   1.791   6.874  0.4047 -0.8125 -0.4293
  322SOL    HW2  966   2.217   1.846   6.736  0.1951 -0.8049 -0.4710
  323SOL     OW  967   3.404   1.689   8.047 -0.0772 -0.3393 -0.2108
  323SOL    HW1  968   3.411   1.612   7.991 -2.9079 -1.5390  0.9052
  323SOL    HW2  969   3.355   1.659   8.124  0.8795  2.0015  1.4294
  324SOL     OW  970   1.443   4.206   9.005  0.7061  0.1119 -0.4658
  324SOL    HW1  971   1.510   4.170   9.063  1.9954 -1.2438 -2.6255
  324SOL    HW2  972   1.363   4.207   9.057  1.4262 -2.5265  0.8629
  325SOL     OW  973   1.664   1.570   8.915  0.3391 -0.5189  0.8825
  325SOL    HW1  974   1.618   1.569   8.831  0.3732  0.1636  0.8535
  325SOL    HW2  975   1.752   1.603   8.894 -0.6686  3.0101  1.6700
  326SOL     OW  976   4.816   1.625   9.528  0.8306  0.3057 -0.5146
  326SOL    HW1  977   4.846   1.563   9.595 -0.8741 -1.3736 -1.2229
  326SOL    HW2  978   4.756   1.683   9.575  1.5438  0.7125 -0.0884
  327SOL     OW  979   1.265   0.863   9.833  0.1726 -0.4461  0.4002
  327SOL    HW1  980   1.272   0.945   9.783 -0.0723 -0.4306  0.3923
  327SOL    HW2  981   1.219   0.888   9.914 -0.4541 -0.6929  0.1287
  328SOL     OW  982   0.255   3.386   7.913  0.3556  0.0499  0.7670
  328SOL    HW1  983   0.281   3.314   7.856 -2.8563 -0.5216 -0.2060
  328SOL    HW2  984   0.234   3.458   7.852 -3.3042 -0.6310  1.0113
  329SOL     OW  985   1.610   4.670   7.325  0.1304 -0.1873 -0.5291
  329SOL    HW1  986   1.663   4.749   7.335 -0.2155 -0.0774  0.5038
  329SOL    HW2  987   1.670   4.605   7.288  1.1674 -0.2430  1.1499
  330SOL     OW  988   0.935   4.342   6.740  0.3197  0.3024 -0.4672
  330SOL    HW1  989   0.996   4.307   6.805  1.2279  1.4503 -0.6619
  330SOL    HW2  990   0.991   4.391   6.679 -0.7625  1.0863 -0.8625
  331SOL     OW  991   3.183   1.017   8.491  0.0154  0.3248 -0.3431
  331SOL    HW1  992   3.202   0.927   8.465  0.5574  0.6849 -1.2567
  331SOL    HW2  993   3.179   1.014   8.587  3.1509 -0.1201 -0.1206
  332SOL     OW  994   0.773   2.111   7.696  0.3101  0.3130 -0.0303
  332SOL    HW1  995   0.765   2.178   7.763 -1.1718  0.2566 -0.1017
  332SOL    HW2  996   0.746   2.154   7.615 -0.9230 -0.3937 -0.0323
  333SOL     OW  997   2.119   1.470   5.038  0.0167  0.3636 -0.3134
  333SOL    HW1  998   2.143   1.528   4.965  1.1385 -0.3582 -0.5324
  333SOL    HW2  999   2.189   1.481   5.101 -0.0546 -0.3410 -0.1091
  334SOL     OW 1000   1.136   0.885  10.077 -0.4923  0.1225  0.1884
  334SOL    HW1 1001   1.133   0.948  10.149 -0.0208 -1.9540  2.1370
  334SOL    HW2 1002   1.079   0.814  10.105  0.0509 -0.9363 -1.2878
  335SOL     OW 1003   2.073   1.769   7.980  0.3347  0.0639  0.5053
  335SOL    HW1 1004   2.143   1.741   7.920  0.4016  1.8731 -0.3116
  335SOL    HW2 1005   2.039   1.687   8.016 -0.4631 -1.2329 -2.8461
  336SOL     OW 1006   3.146   4.954   6.509 -0.5430  0.2054  0.8244
  336SOL    HW1 1007   3.179   4.923   6.425  0.6475  0.2980  1.2420
  336SOL    HW2 1008   3.084   4.886   6.537 -0.2221 -0.2968  0.3253
  337SOL     OW 1009   2.133   5.002   8.759 -0.6172  0.7126  0.0474
  337SOL    HW1 1010   2.047   4.978   8.793 -0.1095  1.9122  2.4027
  337SOL    HW2 1011   2.193   4.987   8.832  1.5366 -1.6274 -1.9740
  338SOL     OW 1012   3.011   2.240   7.955 -0.0681 -0.3853 -0.3331
  338SOL    HW1 1013   2.959   2.296   8.013 -0.1493  1.9036 -2.4326
  338SOL    HW2 1014   3.100   2.273   7.964  0.4671 -2.0045  0.6584
  339SOL     OW 1015   1.691   4.149   8.498  0.5684 -0.7222  0.6953
  339SOL    HW1 1016   1.646   4.114   8.421 -2.9930  0.8272  1.8370
  339SOL    HW2 1017   1.719   4.236   8.472 -1.9799  0.4094  1.4231
  340SOL     OW 1018   1.594   0.040   7.828 -0.1444 -0.3672  0.1093
  340SOL    HW1 1019   1.663   0.052   7.763 -0.3253 -2.4202 -0.5294
  340SOL    HW2 1020   1.638   0.001   7.903 -0.4048 -0.6661  0.1110
  341SOL     OW 1021   0.894   1.283   4.964  0.3979 -0.1382 -0.0179
  341SOL    HW1 1022   0.934   1.333   4.892  0.4586 -0.5039 -0.2439
  341SOL    HW2 1023   0.959   1.286   5.034  0.0113  0.8846  0.3186
  342SOL     OW 1024   4.414   0.507   6.794  0.5692  0.9910 -0.0682
  342SOL    HW1 1025   4.374   0.551   6.719 -1.4545 -0.7037 -0.0774
  342SOL    HW2 1026   4.506   0.500   6.771  0.0513  0.7566 -2.3091
  343SOL     OW 1027   4.759   1.960   9.189  0.0463  0.1356 -0.6837
  343SOL    HW1 1028   4.734   2.031   9.130 -0.3909 -1.9192 -3.1206
  343SOL    HW2 1029   4.854   1.958   9.185  0.1030  0.8990 -0.1270
  344SOL     OW 1030   0.794   0.980   8.874  0.6067 -0.4406  0.3115
  344SOL    HW1 1031   0.783   0.988   8.780  1.9927 -1.4733  0.0271
  344SOL    HW2 1032   0.888   0.994   8.889  0.3640  0.0492  1.5866
  345SOL     OW 1033   0.307   2.502  10.003 -0.1586 -0.2170 -0.0233
  345SOL    HW1 1034   0.308   2.585  10.052  3.3110 -0.5882  0.8352
  345SOL    HW2 1035   0.368   2.516   9.931 -0.7309 -1.5533 -0.8031
  346SOL     OW 1036   1.018   4.811   8.559 -0.1470  0.0433 -0.1782
  346SOL    HW1 1037   1.036   4.742   8.495  2.3637  1.3391 -1.0472
  346SOL    HW2 1038   0.967   4.876   8.510 -2.5384 -1.1136  0.6483
  347SOL     OW 1039   0.108   0.429   7.512  0.3232  0.5642  0.1447
  347SOL    HW1 1040   0.021   0.390   7.514 -0.7699  2.6510 -1.8261
  347SOL    HW2 1041   0.154   0.383   7.441  1.6145 -1.7637  2.2889
  348SOL     OW 1042   1.136   1.072   5.127 -0.0219 -0.5008  0.1070
  348SOL    HW1 1043   1.133   1.163   5.096 -1.0374 -0.4632  0.2782
  348SOL    HW2 1044   1.200   1.073   5.199  1.4018 -0.3330 -1.1272
  349SOL     OW 1045   4.951   2.388   6.758 -0.0842 -0.9107 -0.4495
  349SOL    HW1 1046   4.961   2.341   6.674  1.8532  2.5647 -2.3932
  349SOL    HW2 1047   5.027   2.360   6.810  1.0460 -0.0698 -1.5765
  350SOL     OW 1048   2.359   2.441   8.691  0.1622  0.6782  0.6483
  350SOL    HW1 1049   2.440   2.439   8.640  0.0440 -1.5614  0.4268
  350SOL    HW2 1050   2.294   2.477   8.631  0.4621  0.0037 -0.1068
  351SOL     OW 1051   1.314   3.573   9.319 -0.1871  0.0800 -0.1454
  351SOL    HW1 1052   1.222   3.555   9.300 -0.2959  0.5791 -0.1047
  351SOL    HW2 1053   1.312   3.652   9.374  0.3524  1.0978 -1.5219
  352SOL     OW 1054   4.059   4.970   7.865 -1.1692 -0.3535 -0.4499
  352SOL    HW1 1055   4.124   5.031   7.831  2.2404 -1.0725  3.8737
  352SOL    HW2 1056   4.105   4.886   7.869 -2.8827 -1.2819  1.3565
  353SOL     OW 1057   4.295   3.481   9.575  0.5084 -0.9753 -0.0354
  353SOL    HW1 1058   4.252   3.566   9.568  1.7578 -0.2134  1.0207
  353SOL    HW2 1059   4.373   3.497   9.628  4.0434 -1.4630 -4.3774
  354SOL     OW 1060   2.962   0.998   7.042 -0.2297  0.3122 -0.2299
  354SOL    HW1 1061   2.909   0.931   7.086 -0.8844  0.7978 -0.2484
  354SOL    HW2 1062   2.975   1.066   7.108  2.5754 -0.9129  0.5923
  355SOL     OW 1063   1.095   3.768   5.822  0.4184 -0.0700 -0.4268
  355SOL    HW1 1064   1.009   3.809   5.817 -0.2544 -1.4725 -1.0565
  355SOL    HW2 1065   1.079   3.676   5.803  1.5740 -1.0678  2.7626
  356SOL     OW 1066   2.289   1.231   9.634 -0.6026 -0.2199 -0.4246
  356SOL    HW1 1067   2.374   1.254   9.673 -2.2010  3.5562  1.3760
  356SOL    HW2 1068   2.301   1.248   9.541  0.8371 -0.6343 -0.3437
  357SOL     OW 1069   0.823   2.707   7.854 -1.1693 -0.1499 -0.5195
  357SOL    HW1 1070   0.730   2.710   7.873 -1.0626 -0.8182  0.1333
  357SOL    HW2 1071   0.856   2.632   7.904 -0.2939  0.0433 -0.7849
  358SOL     OW 1072   1.633   4.897   9.587  0.5711 -0.1627 -0.1232
  358SOL    HW1 1073   1.669   4.860   9.668 -2.0145 -0.7899  0.8609
  358SOL    HW2 1074   1.538   4.895   9.601  0.1119  1.2692 -2.5340
  359SOL     OW 1075   0.640   0.336   8.785 -0.4087  0.1211 -0.2826
  359SOL    HW1 1076   0.691   0.282   8.845  0.4098 -0.4656 -1.4697
  359SOL    HW2 1077   0.640   0.288   8.703 -0.8793  1.2502 -0.9732
  360SOL     OW 1078   2.868   4.908   5.718  0.5616 -0.9813  0.0904
  360SOL    HW1 1079   2.846   4.991   5.761  1.4296 -1.7446  2.1501
  360SOL    HW2 1080   2.961   4.915   5.698  1.2718 -2.2775  2.4955
  361SOL     OW 1081   4.695   1.667   7.232 -0.8675  0.9817 -0.3779
  361SOL    HW1 1082   4.676   1.596   7.170  0.0523  1.5195 -1.3179
  361SOL    HW2 1083   4.675   1.746   7.183  2.1453  1.5262 -0.9041
  362SOL     OW 1084   2.077   2.384   8.521  0.6674  0.0771 -0.2326
  362SOL    HW1 1085   2.042   2.352   8.438  0.1143  2.4039 -0.9569
  362SOL    HW2 1086   2.106   2.473   8.503  1.5927  0.2518  1.8092
  363SOL     OW 1087   0.126   0.674   7.646 -0.0437 -0.1543  0.5894
  363SOL    HW1 1088   0.031   0.681   7.638  0.1510  1.8601 -1.0370
  363SOL    HW2 1089   0.150   0.602   7.587 -0.5295 -0.3318  0.6061
  364SOL     OW 1090   3.605   1.778   5.968 -0.0316 -0.0551  0.2782
  364SOL    HW1 1091   3.661   1.846   6.006 -2.0103  1.6659  0.3167
  364SOL    HW2 1092   3.613   1.789   5.874 -0.1823  0.0836  0.2817
  365SOL     OW 1093   1.390   2.908   7.892 -0.0239  0.0011  0.2721
  365SOL    HW1 1094   1.458   2.961   7.935 -0.5625  1.3307 -0.4518
  365SOL    HW2 1095   1.316   2.968   7.883 -0.4530 -0.7128 -1.1132
  366SOL     OW 1096   0.202   0.641   9.079  0.3497  0.2883 -0.3056
  366SOL    HW1 1097   0.164   0.725   9.051  1.6612  1.6246  1.6979
  366SOL    HW2 1098   0.295   0.660   9.091  0.5450 -1.2753  0.8852
  367SOL     OW 1099   1.634   2.255   8.227  0.1483 -0.0360 -0.3944
  367SOL    HW1 1100   1.634   2.234   8.320  1.5582  0.6720 -0.2134
  367SOL    HW2 1101   1.556   2.309   8.214  0.8586  1.3130  0.7294
  368SOL     OW 1102   4.144   0.549  10.277 -0.5088 -0.4695 -0.3383
  368SOL    HW1 1103   4.163   0.532  10.184 -0.3861  1.0447 -0.6161
  368SOL    HW2 1104   4.223   0.592  10.309  0.0126 -2.2298  0.8584
  369SOL     OW 1105   3.863   0.062   6.452  0.7729 -0.1672  0.0408
  369SOL    HW1 1106   3.848  -0.032   6.459  1.2169 -0.1669  1.0753
  369SOL    HW2 1107   3.776   0.100   6.448  0.5811 -0.5682  0.3887
  370SOL     OW 1108   1.455   2.391   9.217 -0.0467 -0.4104  0.3490
  370SOL    HW1 1109   1.444   2.472   9.167  4.3370 -0.5321 -1.2605
  370SOL    HW2 1110   1.485   2.420   9.303 -0.4474 -0.2856  0.4459
  371SOL     OW 1111   0.716   3.990   6.942  0.0876 -0.2025 -0.6770
  371SOL    HW1 1112   0.691   4.076   6.909 -1.7286 -0.9189 -1.2852
  371SOL    HW2 1113   0.708   3.931   6.867 -1.2745 -1.3578  0.3145
  372SOL     OW 1114   0.905   2.464  10.290  0.6535  0.3928 -0.4848
  372SOL    HW1 1115   0.914   2.474  10.384 -2.0076 -0.6003 -0.0401
  372SOL    HW2 1116   0.886   2.553  10.258  2.0563  0.8191 -0.2078
  373SOL     OW 1117   0.293   0.472   7.111  0.0273  0.6109 -0.4097
  373SOL    HW1 1118   0.306   0.548   7.055 -0.9640 -0.7759 -2.6735
  373SOL    HW2 1119   0.199   0.468   7.124  0.0911 -0.1033 -0.1400
  374SOL     OW 1120   0.318   3.765   7.172 -0.0686  0.5012  0.7772
  374SOL    HW1 1121   0.286   3.678   7.152  2.0011  0.0843 -1.2479
  374SOL    HW2 1122   0.269   3.823   7.114  0.1850  0.3670  0.4269
  375SOL     OW 1123   2.281   1.148   9.151  0.3959  0.3144  0.1401
  375SOL    HW1 1124   2.245   1.060   9.138  1.1387 -0.0952  0.7375
  375SOL    HW2 1125   2.205   1.206   9.152 -0.1016 -0.3255 -0.2295
  376SOL     OW 1126   4.388   4.727   5.425 -0.2507 -0.0844  0.6832
  376SOL    HW1 1127   4.334   4.781   5.483 -0.3352 -0.2771  0.7848
  376SOL    HW2 1128   4.478   4.749   5.449 -0.2629  1.0392 -0.2220
  377SOL     OW 1129   1.626   3.010   8.001  0.5456  0.1535  0.4524
  377SOL    HW1 1130   1.654   3.048   8.084  0.6531 -0.4476  0.6992
  377SOL    HW2 1131   1.678   3.056   7.935 -0.0657  1.1420  0.6509
  378SOL     OW 1132   0.660   4.690   9.575 -0.6086 -0.3823  0.0622
  378SOL    HW1 1133   0.592   4.634   9.612 -1.7501  0.3143 -0.9195
  378SOL    HW2 1134   0.681   4.650   9.491 -1.8407  0.9290 -0.9059
  379SOL     OW 1135   2.488   3.603   7.284  0.0467  0.1883  0.4920
  379SOL    HW1 1136   2.398   3.589   7.257  0.6087 -1.6915 -0.6089
  379SOL    HW2 1137   2.484   3.677   7.344 -2.4165 -0.6606  1.5061
  380SOL     OW 1138   2.372   0.690   8.271 -0.0154 -0.9304  0.3187
  380SOL    HW1 1139   2.468   0.680   8.271  0.2955  1.2669  1.5978
  380SOL    HW2 1140   2.346   0.671   8.361 -0.5036  0.3205  0.4577
  381SOL     OW 1141   4.711   1.059   8.829  0.1833 -0.4043  0.3224
  381SOL    HW1 1142   4.623   1.032   8.803 -0.3984  1.9816 -0.4323
  381SOL    HW2 1143   4.697   1.128   8.894  1.5073 -0.3506  0.5869
  382SOL     OW 1144   1.302   3.891   7.677  0.1318  0.0271  0.3013
  382SOL    HW1 1145   1.310   3.970   7.730  0.8481 -0.8351  1.5187
  382SOL    HW2 1146   1.335   3.917   7.591 -1.8119  1.6645 -0.0142
  383SOL     OW 1147   2.594   3.572   9.794  0.2753  0.0579  0.5951
  383SOL    HW1 1148   2.624   3.484   9.769 -0.2248  0.2056 -0.5687
  383SOL    HW2 1149   2.499   3.562   9.804  0.4497 -0.0057  2.5445
  384SOL     OW 1150   3.820   4.647   8.842 -0.2406  0.2656  0.9941
  384SOL    HW1 1151   3.753   4.668   8.777  0.5652  2.7207  0.8479
  384SOL    HW2 1152   3.865   4.571   8.806 -1.3194  0.1310 -0.1416
  385SOL     OW 1153   1.325   0.409   9.539 -0.7008  1.0312 -0.7314
  385SOL    HW1 1154   1.257   0.381   9.600 -0.4916 -0.6522 -1.2233
  385SOL    HW2 1155   1.352   0.496   9.571 -0.3080  0.0419  1.8224
  386SOL     OW 1156   2.860   1.821   7.279  0.5088  0.4757  0.0987
  386SOL    HW1 1157   2.765   1.808   7.270  0.1998  2.8604 -0.8065
  386SOL    HW2 1158   2.893   1.736   7.308 -2.0338 -0.1397  1.5366
  387SOL     OW 1159   4.512   1.839   6.730  0.3328 -0.0696  0.0526
  387SOL    HW1 1160   4.496   1.819   6.822  2.0976  0.5498  0.5450
  387SOL    HW2 1161   4.604   1.816   6.716  0.6234  1.5752 -1.0450
  388SOL     OW 1162   4.803   4.062   9.701  0.2749 -0.4496  0.4965
  388SOL    HW1 1163   4.794   4.151   9.668  0.9741 -0.3187  0.6279
  388SOL    HW2 1164   4.849   4.072   9.784 -1.5328 -0.7732  1.5855
  389SOL     OW 1165   0.668   0.714   9.193 -0.4514  0.0551 -0.0989
  389SOL    HW1 1166   0.599   0.701   9.128  0.5583  0.9605 -1.4206
  389SOL    HW2 1167   0.749   0.710   9.142  0.4010  0.2332  1.2115
  390SOL     OW 1168   3.347   4.554   7.174 -0.0372  0.1232 -0.4977
  390SOL    HW1 1169   3.371   4.575   7.084  1.3366 -1.1733 -0.4787
  390SOL    HW2 1170   3.400   4.613   7.227  0.2004 -0.0568 -0.5297
  391SOL     OW 1171   3.512   0.621   7.323 -0.4863  0.1324 -0.8488
  391SOL    HW1 1172   3.568   0.555   7.281  0.3079  0.0046  0.3712
  391SOL    HW2 1173   3.497   0.587   7.411 -2.7426  0.0344 -1.2302
  392SOL     OW 1174   0.262   4.686   8.502  0.2065  0.2176 -0.3417
  392SOL    HW1 1175   0.208   4.643   8.437  0.9449  0.1872 -0.9447
  392SOL    HW2 1176   0.297   4.614   8.555 -1.0953  0.2891  0.6801
  393SOL     OW 1177   1.660   4.533   5.467  0.3919 -0.1837  0.7615
  393SOL    HW1 1178   1.681   4.519   5.374  0.9499 -0.2661  0.8957
  393SOL    HW2 1179   1.745   4.541   5.509  0.1487 -0.5080  1.3260
  394SOL     OW 1180   0.138   0.914   8.597 -0.0188  0.1018  0.2067
  394SOL    HW1 1181   0.095   0.965   8.665 -2.0042  0.7726 -1.4316
  394SOL    HW2 1182   0.175   0.979   8.538  0.3213 -0.4237 -0.1713
  395SOL     OW 1183   1.702   0.430   6.492  0.1057 -0.7520  0.2561
  395SOL    HW1 1184   1.606   0.440   6.492  0.0090 -1.3966 -1.5519
  395SOL    HW2 1185   1.718   0.349   6.445  1.6035  0.0638 -0.7296
  396SOL     OW 1186   4.978   1.770   7.863 -0.4473  0.3364 -0.2113
  396SOL    HW1 1187   5.016   1.789   7.778 -1.3718  0.4177 -0.6196
  396SOL    HW2 1188   4.891   1.811   7.861 -1.4458 -1.6336 -0.1380
  397SOL     OW 1189   1.646   2.671   9.088 -0.2946  0.2584  0.5207
  397SOL    HW1 1190   1.650   2.593   9.033  0.3986  2.1531 -2.3769
  397SOL    HW2 1191   1.555   2.676   9.117 -0.5749 -1.0964 -0.0710
  398SOL     OW 1192   0.551   4.003   5.417 -0.5052  0.5608 -0.1923
  398SOL    HW1 1193   0.472   4.056   5.421  0.8611  2.8535 -1.2058
  398SOL    HW2 1194   0.560   3.979   5.324 -1.0478 -1.4724  0.2258
  399SOL     OW 1195   3.845   4.927   7.531  0.0825  0.1285 -0.2498
  399SOL    HW1 1196   3.937   4.904   7.546  0.1044  1.2531  1.8861
  399SOL    HW2 1197   3.802   4.907   7.615 -1.2644  1.1928 -0.6541
  400SOL     OW 1198   2.262   0.882  10.483 -0.0246  0.3009 -0.4017
  400SOL    HW1 1199   2.244   0.889  10.389  0.8148 -1.1010 -0.6948
  400SOL    HW2 1200   2.197   0.820  10.514  0.9509 -0.7778 -0.4628
  401SOL     OW 1201   3.951   0.698   5.535 -0.2454 -0.1005  0.3040
  401SOL    HW1 1202   3.965   0.627   5.599 -1.4974 -0.1301  0.5766
  401SOL    HW2 1203   3.891   0.660   5.470  2.0261 -0.5133 -1.6701
  402SOL     OW 1204   1.508   3.915  10.068  0.5338 -0.0561  0.4417
  402SOL    HW1 1205   1.557   3.969  10.130  1.7844 -0.3420 -0.2528
  402SOL    HW2 1206   1.574   3.857  10.030 -0.3958 -0.5920 -0.3987
  403SOL     OW 1207   1.278   4.875   8.834  0.3797 -0.0327 -0.1318
  403SOL    HW1 1208   1.259   4.949   8.891  0.0100  1.2940 -1.9133
  403SOL    HW2 1209   1.226   4.891   8.755 -0.2133 -2.5268 -0.3319
  404SOL     OW 1210   4.697   1.555   6.293 -0.6014 -0.1172  0.2862
  404SOL    HW1 1211   4.786   1.525   6.313 -0.5929 -0.6915 -0.5611
  404SOL    HW2 1212   4.679   1.623   6.359  0.9061  0.8421 -0.2439
  405SOL     OW 1213   1.505   1.734   9.146  0.7568  0.3752  0.1975
  405SOL    HW1 1214   1.449   1.668   9.106  0.1759 -0.6920  2.5698
  405SOL    HW2 1215   1.594   1.711   9.121  0.4180 -0.2861 -0.3912
  406SOL     OW 1216   4.843   1.357   7.053 -0.1845  0.6366 -0.2652
  406SOL    HW1 1217   4.896   1.427   7.091  1.9427 -1.7818  1.6367
  406SOL    HW2 1218   4.855   1.283   7.114 -3.6967 -0.8839 -1.1874
  407SOL     OW 1219   3.699   4.725   5.636 -0.3859 -0.5773 -0.7246
  407SOL    HW1 1220   3.747   4.671   5.699 -4.2089 -3.6761 -0.1129
  407SOL    HW2 1221   3.720   4.687   5.551  1.7654  1.1646 -1.0665
  408SOL     OW 1222   0.993   4.155   7.776  0.5800 -0.7884 -0.1867
  408SOL    HW1 1223   0.911   4.155   7.728  0.4949  1.5775 -0.1387
  408SOL    HW2 1224   0.994   4.071   7.822 -2.4898 -0.2886  0.9592
  409SOL     OW 1225   1.513   0.221   9.596  0.2469 -0.0996 -0.3760
  409SOL    HW1 1226   1.474   0.138   9.625  0.1548  0.3364  0.8308
  409SOL    HW2 1227   1.439   0.280   9.584  0.3378 -0.0865 -0.9085
  410SOL     OW 1228   4.531   2.056   5.595 -0.3974 -0.1663  0.3425
  410SOL    HW1 1229   4.455   2.039   5.539  0.1980 -0.5915 -0.3647
  410SOL    HW2 1230   4.605   2.020   5.546  0.2460  0.1271  1.0736
  411SOL     OW 1231   2.604   2.919   8.812  0.2596  0.9180  0.0434
  411SOL    HW1 1232   2.676   2.891   8.869 -0.2623 -3.2949 -1.0475
  411SOL    HW2 1233   2.537   2.950   8.872  1.1015  0.0940  1.4662
  412SOL     OW 1234   2.410   0.108   6.579  0.1665  0.1433  0.3320
  412SOL    HW1 1235   2.414   0.047   6.505 -3.1119 -0.3003  0.3882
  412SOL    HW2 1236   2.322   0.147   6.573  1.1988  2.9963  1.7936
  413SOL     OW 1237   1.803   0.786   9.154  0.4555 -0.2822  0.1411
  413SOL    HW1 1238   1.746   0.835   9.094  0.3094 -2.1853 -1.3948
  413SOL    HW2 1239   1.773   0.810   9.241 -1.3387  0.3440 -0.5978
  414SOL     OW 1240   4.090   4.761   9.336 -0.1859 -0.8535  0.1182
  414SOL    HW1 1241   4.181   4.740   9.318  0.0828  0.2378  0.1882
  414SOL    HW2 1242   4.045   4.748   9.252  0.2157 -0.3748 -0.1686
  415SOL     OW 1243   4.731   2.595   8.206  0.0784  0.7079  0.4186
  415SOL    HW1 1244   4.667   2.573   8.138 -0.2919  1.0062  0.6750
  415SOL    HW2 1245   4.680   2.627   8.280  0.5140  0.8858  0.6519
  416SOL     OW 1246   1.836   4.160   7.286  0.3449 -0.1905  0.2102
  416SOL    HW1 1247   1.866   4.220   7.218 -0.3658 -1.2680 -1.1135
  416SOL    HW2 1248   1.747   4.191   7.307 -1.0451 -2.0910 -2.2620
  417SOL     OW 1249   1.395   0.226   8.267 -0.2719 -0.1325  0.1810
  417SOL    HW1 1250   1.390   0.151   8.327  0.1805  0.3933  0.8867
  417SOL    HW2 1251   1.485   0.224   8.234  0.0364  0.6357  0.9282
  418SOL     OW 1252   4.813   0.286   7.183  1.1404  0.4872  0.0163
  418SOL    HW1 1253   4.811   0.301   7.278  1.6559  0.4015  0.0410
  418SOL    HW2 1254   4.722   0.265   7.161  0.7123  1.9443  0.2515
  419SOL     OW 1255   2.878   3.272   6.100 -0.0457 -0.2234  0.4974
  419SOL    HW1 1256   2.797   3.252   6.053  0.3310 -2.4105  0.6305
  419SOL    HW2 1257   2.919   3.342   6.050 -1.2561 -0.1952 -0.4984
  420SOL     OW 1258   1.428   2.920   5.337 -0.1726  0.1780  0.1400
  420SOL    HW1 1259   1.414   2.832   5.303 -0.7466  0.3107  0.0194
  420SOL    HW2 1260   1.522   2.935   5.327  0.3203 -1.2283  2.1969
  421SOL     OW 1261   0.065   1.461   8.673 -0.2581 -0.2399 -0.3163
  421SOL    HW1 1262   0.110   1.425   8.749  1.1685  0.0132 -1.0123
  421SOL    HW2 1263  -0.028   1.458   8.696  0.2032  1.8255  2.3366
  422SOL     OW 1264   2.750   0.321   6.610 -0.2915 -0.2239  0.7460
  422SOL    HW1 1265   2.777   0.253   6.548 -1.1158 -0.0505  0.1865
  422SOL    HW2 1266   2.704   0.386   6.556 -0.5864  0.1699  1.4640
  423SOL     OW 1267   0.467   0.806   9.385  0.7291  0.4049 -0.3585
  423SOL    HW1 1268   0.420   0.725   9.405  0.7936  0.6935  1.0850
  423SOL    HW2 1269   0.465   0.813   9.290 -2.2674  0.4662 -0.3725
  424SOL     OW 1270   2.939   0.407   6.094  0.5168 -0.1224  0.5598
  424SOL    HW1 1271   2.919   0.471   6.026  1.5522  0.6798  0.9741
  424SOL    HW2 1272   3.010   0.448   6.145  1.5183 -1.7743  0.5707
  425SOL     OW 1273   3.948   4.717   5.765 -0.0254  0.7092 -0.3936
  425SOL    HW1 1274   4.002   4.712   5.844  0.0412  1.4505 -0.3867
  425SOL    HW2 1275   4.009   4.733   5.694 -0.2944  2.6291 -0.2484
  426SOL     OW 1276   3.144   0.092   9.729 -0.2380  0.2905 -1.0391
  426SOL    HW1 1277   3.074   0.127   9.783 -0.0971  0.7021 -1.1165
  426SOL    HW2 1278   3.112   0.007   9.698  0.4038 -0.8142  1.1419
  427SOL     OW 1279   2.630   0.896   7.183  0.8300 -0.1636  0.2633
  427SOL    HW1 1280   2.593   0.831   7.124 -2.2457 -0.9659  2.7954
  427SOL    HW2 1281   2.682   0.845   7.245  0.5151  0.0857  0.7435
  428SOL     OW 1282   3.291   0.017   7.218  0.3643  0.7197  0.6996
  428SOL    HW1 1283   3.236  -0.016   7.147  0.3356 -2.2544  1.9535
  428SOL    HW2 1284   3.232   0.072   7.269 -0.4281  0.5523 -0.0057
  429SOL     OW 1285   1.834   0.244   8.757  0.1162  0.3725 -0.6746
  429SOL    HW1 1286   1.782   0.207   8.686 -1.4759 -0.9001  1.0548
  429SOL    HW2 1287   1.896   0.303   8.714 -0.4685 -0.6969 -3.1236
  430SOL     OW 1288   3.485   0.706   6.608 -0.2860  0.3027 -0.5250
  430SOL    HW1 1289   3.502   0.685   6.700  0.2202  1.7523 -0.2718
  430SOL    HW2 1290   3.554   0.660   6.560 -0.2889 -0.1012 -0.1474
  431SOL     OW 1291   1.227   1.955   8.669 -0.1679  0.7573  0.3414
  431SOL    HW1 1292   1.320   1.965   8.649 -0.2413  0.2429 -0.2903
  431SOL    HW2 1293   1.222   1.875   8.721 -0.4366 -0.2032 -1.0998
  432SOL     OW 1294   2.109   0.272   9.979  0.0535 -0.3148 -0.3674
  432SOL    HW1 1295   2.122   0.187  10.020 -1.7450 -1.0804 -1.2813
  432SOL    HW2 1296   2.118   0.256   9.885  1.1444  0.8205 -0.4889
  433SOL     OW 1297   0.829   0.721   8.947  0.1076 -0.0754 -0.1871
  433SOL    HW1 1298   0.804   0.808   8.916  0.7026  0.2308  0.1632
  433SOL    HW2 1299   0.826   0.666   8.870  0.5701  0.4483 -0.5883
  434SOL     OW 1300   4.373   4.244   8.586 -0.7825 -0.3746 -0.0606
  434SOL    HW1 1301   4.430   4.226   8.512 -0.6123 -2.5234  0.5181
  434SOL    HW2 1302   4.301   4.182   8.577 -0.4220 -1.1695  1.8754
  435SOL     OW 1303   3.574   1.217   9.105  0.1452  0.4774 -0.1693
  435SOL    HW1 1304   3.561   1.306   9.071 -2.4535  1.8741  3.7503
  435SOL    HW2 1305   3.509   1.164   9.060 -3.0200  2.1942  1.9966
  436SOL     OW 1306   4.586   2.798   9.185 -0.0977 -0.2873 -0.3552
  436SOL    HW1 1307   4.550   2.853   9.115 -1.7252 -1.5523 -0.5779
  436SOL    HW2 1308   4.672   2.771   9.152  0.6584  1.8701 -0.3253
  437SOL     OW 1309   2.793   2.365   7.338 -0.1684  0.3669  0.1530
  437SOL    HW1 1310   2.835   2.340   7.420  0.1555 -1.8411 -0.6271
  437SOL    HW2 1311   2.727   2.429   7.363  1.3729  1.3665  1.8317
  438SOL     OW 1312   2.832   2.289   8.264 -0.5145  0.1011  0.6118
  438SOL    HW1 1313   2.865   2.366   8.219  0.0443  1.3022  2.9247
  438SOL    HW2 1314   2.775   2.246   8.200  2.3524  0.1028 -2.1910
  439SOL     OW 1315   0.414   2.380   8.366  1.2125  0.6741  0.1464
  439SOL    HW1 1316   0.439   2.334   8.446  1.1225  0.0909 -0.1605
  439SOL    HW2 1317   0.319   2.378   8.365  1.2129  0.6831  0.0271
  440SOL     OW 1318   4.906   2.494   6.156  0.6530 -0.3402  0.3446
  440SOL    HW1 1319   4.878   2.426   6.217 -0.0431  0.0455  0.4651
  440SOL    HW2 1320   4.884   2.459   6.070 -1.0594  0.3122  0.4778
  441SOL     OW 1321   3.020   0.765   9.192  0.4967 -0.1136 -0.1029
  441SOL    HW1 1322   3.074   0.778   9.270  1.0129 -2.0248 -0.0868
  441SOL    HW2 1323   3.014   0.852   9.152  2.5701  0.3821  0.5546
  442SOL     OW 1324   4.296   0.388   8.964  0.7741  0.5039 -0.1919
  442SOL    HW1 1325   4.332   0.463   9.011  0.0004  0.6999  0.1013
  442SOL    HW2 1326   4.209   0.417   8.936  0.8446  0.0438 -0.8960
  443SOL     OW 1327   3.394   0.996   8.989 -0.0960  0.2579 -0.3395
  443SOL    HW1 1328   3.412   0.902   8.998 -1.5100 -0.1200 -1.0788
  443SOL    HW2 1329   3.434   1.020   8.905  0.8500  0.4896  0.1660
  444SOL     OW 1330   2.697   4.164   9.814  0.2462 -0.1223  0.1371
  444SOL    HW1 1331   2.762   4.193   9.750 -0.4377  0.4770 -0.3018
  444SOL    HW2 1332   2.686   4.071   9.796 -0.5569  0.1912 -1.2201
  445SOL     OW 1333   0.590   1.519   8.365 -0.0907  0.3139  0.9670
  445SOL    HW1 1334   0.531   1.572   8.312  0.1703  0.6891  1.0497
  445SOL    HW2 1335   0.598   1.566   8.448  1.1469  0.8328  0.5872
  446SOL     OW 1336   0.262   2.195   9.954 -0.5329  0.0707 -0.1092
  446SOL    HW1 1337   0.174   2.158   9.959 -0.7002  0.2075 -1.4533
  446SOL    HW2 1338   0.251   2.286   9.981 -1.2567  0.6746 -2.1893
  447SOL     OW 1339   2.929   2.193   9.571  0.4066 -0.2363  0.5172
  447SOL    HW1 1340   3.000   2.235   9.523  0.1184  0.9018  1.0379
  447SOL    HW2 1341   2.870   2.159   9.503 -0.5882  2.3421 -0.0289
  448SOL     OW 1342   0.419   2.712   5.128 -0.0179  0.4996  0.0526
  448SOL    HW1 1343   0.408   2.715   5.223 -1.0510  0.0450 -0.0431
  448SOL    HW2 1344   0.440   2.621   5.109  0.3489  0.6228 -0.1500
  449SOL     OW 1345   4.091   0.457   9.703  0.4545  0.3293 -0.2296
  449SOL    HW1 1346   3.996   0.451   9.716  0.3884  2.7101  1.0197
  449SOL    HW2 1347   4.101   0.480   9.611 -0.1573 -0.3184 -0.4656
  450SOL     OW 1348   4.950   3.708   9.911 -0.2333 -0.3706  0.3475
  450SOL    HW1 1349   5.000   3.775   9.865  0.0041 -1.1045 -0.4998
  450SOL    HW2 1350   4.860   3.742   9.912 -0.5659 -0.9564 -2.0218
  451SOL     OW 1351   1.528   1.406   9.798 -0.0519  0.1527  0.2329
  451SOL    HW1 1352   1.584   1.364   9.863 -1.5481 -0.3012  1.2885
  451SOL    HW2 1353   1.573   1.487   9.775  0.5862  0.2416  1.7393
  452SOL     OW 1354   0.664   2.114   8.334  0.4067  0.5236 -0.1949
  452SOL    HW1 1355   0.586   2.075   8.294 -2.7694  3.4881  2.5011
  452SOL    HW2 1356   0.710   2.040   8.375  0.2741 -1.5848 -3.4684
  453SOL     OW 1357   0.717   3.657   9.487  0.8066 -0.0621  0.5882
  453SOL    HW1 1358   0.789   3.614   9.532  0.6525 -0.8331  0.1210
  453SOL    HW2 1359   0.715   3.616   9.401 -0.4013 -0.3182  0.7155
  454SOL     OW 1360   0.073   1.648  10.053  0.6706 -0.2514 -0.5810
  454SOL    HW1 1361   0.093   1.606   9.970  0.4192 -1.0511 -0.2415
  454SOL    HW2 1362   0.056   1.576  10.113  3.4578  0.1626  0.8767
  455SOL     OW 1363   1.651   1.546   6.814 -0.8473  0.1374  0.5691
  455SOL    HW1 1364   1.700   1.603   6.755 -2.5866  0.5078 -0.5550
  455SOL    HW2 1365   1.661   1.458   6.777  0.0748 -0.0121  1.1263
  456SOL     OW 1366   3.870   0.174   9.951  0.6040  1.1502  0.4338
  456SOL    HW1 1367   3.795   0.230   9.973 -0.1947  0.2680  0.0139
  456SOL    HW2 1368   3.908   0.151  10.036  0.5042  1.7308  0.6452
  457SOL     OW 1369   3.002   0.456   8.697  0.3383 -0.2662  0.6189
  457SOL    HW1 1370   2.999   0.525   8.764  0.5555 -1.3594  1.7994
  457SOL    HW2 1371   2.997   0.374   8.747 -2.0142 -1.1268 -0.8486
  458SOL     OW 1372   1.773   1.890   6.638 -0.0785  0.6390 -0.1075
  458SOL    HW1 1373   1.815   1.951   6.578  0.0613 -0.0539 -0.7188
  458SOL    HW2 1374   1.800   1.803   6.609 -1.1757  0.2205  0.0592
  459SOL     OW 1375   2.373   1.489   9.179  0.0687 -0.5895 -0.5549
  459SOL    HW1 1376   2.291   1.462   9.220  1.1816 -1.3071  1.3081
  459SOL    HW2 1377   2.415   1.406   9.153 -0.6646 -0.1671 -3.4187
  460SOL     OW 1378   2.710   3.778   8.140  0.0475 -0.2132  0.2949
  460SOL    HW1 1379   2.680   3.861   8.103 -0.3178 -0.2316  0.5461
  460SOL    HW2 1380   2.748   3.801   8.224  0.7404 -0.1921 -0.0195
  461SOL     OW 1381   2.617   3.194   8.654 -0.8521  0.0158 -0.7635
  461SOL    HW1 1382   2.529   3.222   8.679 -0.1352  0.9185  0.8599
  461SOL    HW2 1383   2.629   3.110   8.699  0.5549  1.7853  2.4892
  462SOL     OW 1384   3.723   2.616   9.800 -0.1531 -0.2237 -0.3125
  462SOL    HW1 1385   3.738   2.624   9.706  0.1895  1.2460 -0.1674
  462SOL    HW2 1386   3.631   2.589   9.808  0.6539 -3.6235 -1.0989
  463SOL     OW 1387   0.790   1.784   9.260 -0.2841  0.4272  0.6947
  463SOL    HW1 1388   0.791   1.795   9.355  1.0634  2.8177  0.4902
  463SOL    HW2 1389   0.880   1.759   9.237 -0.4745  0.3293  0.0231
  464SOL     OW 1390   1.907   2.566   6.833 -0.6587 -0.3388  0.5459
  464SOL    HW1 1391   1.843   2.495   6.844 -0.7556 -0.5362 -1.0680
  464SOL    HW2 1392   1.864   2.642   6.871 -1.8570 -0.4884 -0.4078
  465SOL     OW 1393   4.236   0.685   9.705 -0.3886  0.0628  0.1039
  465SOL    HW1 1394   4.312   0.656   9.654 -1.3553  1.4342 -2.2415
  465SOL    HW2 1395   4.173   0.614   9.696 -0.7521  0.5217 -1.1081
  466SOL     OW 1396   2.574   1.025  10.316 -0.1327  0.3991  0.3483
  466SOL    HW1 1397   2.482   1.054  10.314 -0.0959  0.5421  0.5900
  466SOL    HW2 1398   2.624   1.106  10.319 -0.0127  0.3158  0.6174
  467SOL     OW 1399   2.680   2.503   9.700 -0.0742  0.2187  0.4094
  467SOL    HW1 1400   2.773   2.517   9.715 -0.0468 -0.5526  1.0160
  467SOL    HW2 1401   2.676   2.434   9.633 -0.2189  0.7677 -0.1648
  468SOL     OW 1402   2.375   3.564   8.744  0.9656  0.1111  0.5274
  468SOL    HW1 1403   2.358   3.543   8.652 -0.7482 -1.5199  1.1577
  468SOL    HW2 1404   2.343   3.653   8.755  2.5201  0.8846 -0.7521
  469SOL     OW 1405   4.465   3.577   9.238  0.0094 -0.3691  0.1294
  469SOL    HW1 1406   4.476   3.539   9.325 -1.0859  0.2036  0.5355
  469SOL    HW2 1407   4.546   3.554   9.191  2.1809  2.1592  2.3146
  470SOL     OW 1408   1.434   1.995   9.047 -0.3497  0.4126  0.0853
  470SOL    HW1 1409   1.428   1.913   9.096 -0.9545  1.6614  2.2188
  470SOL    HW2 1410   1.481   1.971   8.967  2.3701 -1.4201  2.0247
  471SOL     OW 1411   2.672   0.352  10.108  0.1086 -0.1308  0.0879
  471SOL    HW1 1412   2.744   0.412  10.086  0.5003 -0.9967 -1.0951
  471SOL    HW2 1413   2.669   0.352  10.204  0.6188  1.1585  0.1271
  472SOL     OW 1414   3.098   1.360  10.048  0.5350 -0.2968  0.3397
  472SOL    HW1 1415   3.061   1.335  10.133  1.8361  1.7100  1.5899
  472SOL    HW2 1416   3.144   1.282  10.017 -0.0444 -1.0916  1.4353
  473SOL     OW 1417   1.730   0.867   8.546 -0.3119 -0.8170 -1.1341
  473SOL    HW1 1418   1.717   0.959   8.571  0.8476 -0.3614 -2.1071
  473SOL    HW2 1419   1.769   0.826   8.623  1.1174  0.0198 -1.3773
  474SOL     OW 1420   3.333   4.839   8.911  0.0768 -0.2207  0.5858
  474SOL    HW1 1421   3.321   4.883   8.827 -1.6030 -0.6150  0.6004
  474SOL    HW2 1422   3.310   4.905   8.976  2.3718  0.4246  0.8345
  475SOL     OW 1423   4.482   2.736  10.251 -0.1852 -0.4452 -0.5050
  475SOL    HW1 1424   4.574   2.743  10.278 -0.4046  1.6711 -0.1235
  475SOL    HW2 1425   4.441   2.682  10.319  0.6815 -1.0786 -0.4697
  476SOL     OW 1426   3.583   4.754   8.975 -0.4696 -0.3433  0.2820
  476SOL    HW1 1427   3.506   4.734   8.922 -0.3431  0.1112 -0.0787
  476SOL    HW2 1428   3.567   4.843   9.009  0.1252 -0.0371 -0.2207
  477SOL     OW 1429   0.231   2.803   7.686  0.6217 -0.5230  0.2025
  477SOL    HW1 1430   0.309   2.821   7.739  0.6919 -0.0689 -0.0465
  477SOL    HW2 1431   0.182   2.738   7.736  2.2025 -2.4753 -0.6196
  478SOL     OW 1432   1.723   4.708   6.264 -0.1727  0.4954  0.3519
  478SOL    HW1 1433   1.630   4.694   6.281  0.2833 -0.6158  2.4163
  478SOL    HW2 1434   1.727   4.741   6.175 -2.3035 -2.8873 -1.2101
  479SOL     OW 1435   1.552   0.291   8.948 -0.3589 -0.3109  0.3246
  479SOL    HW1 1436   1.613   0.364   8.951  0.9818 -1.3764  0.0071
  479SOL    HW2 1437   1.487   0.312   9.015 -0.5529  1.5992 -0.4014
  480SOL     OW 1438   1.067   1.242   9.914  0.1136 -0.1039 -0.9112
  480SOL    HW1 1439   1.160   1.243   9.935 -0.1041  2.6324  0.4219
  480SOL    HW2 1440   1.032   1.166   9.960  1.4813 -0.4158 -0.3603
  481SOL     OW 1441   4.509   4.738   9.021 -0.2226 -0.8783  0.3414
  481SOL    HW1 1442   4.595   4.779   9.027  0.7216 -2.8291  1.1630
  481SOL    HW2 1443   4.505   4.705   8.931 -0.8670  0.6788 -0.2316
  482SOL     OW 1444   2.281   4.436   9.801  0.3722 -0.5724  0.0462
  482SOL    HW1 1445   2.209   4.499   9.808  0.8307 -0.0488  0.0842
  482SOL    HW2 1446   2.239   4.355   9.773 -0.4934 -0.7512  1.7493
  483SOL     OW 1447   2.575   1.337   9.839  0.5947  0.4904  0.0962
  483SOL    HW1 1448   2.557   1.288   9.919  2.1222 -2.1747 -1.0737
  483SOL    HW2 1449   2.621   1.415   9.869 -0.9793  0.7733  1.9569
  484SOL     OW 1450   0.185   3.727   9.495  0.0329 -0.1835 -0.2663
  484SOL    HW1 1451   0.149   3.813   9.473  0.9249  0.3550  0.3129
  484SOL    HW2 1452   0.154   3.711   9.584 -2.1226 -1.5693 -1.1924
  485SOL     OW 1453   4.549   2.857   6.518 -0.2788 -0.0818 -0.0343
  485SOL    HW1 1454   4.478   2.864   6.582 -2.6573  3.2712 -2.6508
  485SOL    HW2 1455   4.616   2.918   6.549 -0.1577 -0.5265  0.5966
  486SOL     OW 1456   1.674   0.538   9.800 -0.1637  0.4229 -0.3906
  486SOL    HW1 1457   1.602   0.474   9.793  0.9539 -0.7303 -2.0690
  486SOL    HW2 1458   1.753   0.486   9.784  1.1119  1.6004  1.7266
  487SOL     OW 1459   2.835   1.543   7.375  0.4486 -0.4190  1.0400
  487SOL    HW1 1460   2.767   1.588   7.425 -0.5511  1.1250 -1.5292
  487SOL    HW2 1461   2.808   1.451   7.375  0.5218 -0.4964  3.2661
  488SOL     OW 1462   3.659   2.453   6.850  0.1865  0.3528 -0.4849
  488SOL    HW1 1463   3.620   2.516   6.910  1.0485  1.0074 -0.5965
  488SOL    HW2 1464   3.635   2.367   6.886 -1.6727  0.7114 -0.7680
  489SOL     OW 1465   0.111   0.041   9.654  0.2445  0.6280 -0.2989
  489SOL    HW1 1466   0.122  -0.053   9.640  2.1128  0.8156 -0.3208
  489SOL    HW2 1467   0.023   0.060   9.622  0.1832 -0.9567 -1.1497
  490SOL     OW 1468   1.774   0.362   8.483 -0.2494 -0.1200  0.1561
  490SOL    HW1 1469   1.820   0.445   8.470 -2.2897  1.2697  1.2323
  490SOL    HW2 1470   1.686   0.379   8.450 -0.1025 -2.6619 -1.8091
  491SOL     OW 1471   2.086   5.007  10.017  0.1975  0.1168  0.1059
  491SOL    HW1 1472   2.126   4.943   9.959  0.2977  1.0541 -0.8722
  491SOL    HW2 1473   2.023   4.956  10.068  2.0889 -1.2627  1.2162
  492SOL     OW 1474   3.723   1.806   8.526 -0.0095 -0.1777 -0.1682
  492SOL    HW1 1475   3.813   1.798   8.494  0.1766 -0.8513  0.5178
  492SOL    HW2 1476   3.669   1.800   8.447  0.5601  0.9749 -0.6829
  493SOL     OW 1477   2.556   3.016   9.678 -0.1898 -0.1662 -0.0733
  493SOL    HW1 1478   2.561   2.921   9.670  1.7103 -0.1616  0.6202
  493SOL    HW2 1479   2.609   3.049   9.606 -1.0967  0.4019 -0.4999
  494SOL     OW 1480   2.254   1.851   9.504 -0.1751 -0.1524 -0.4170
  494SOL    HW1 1481   2.345   1.825   9.490 -0.3089 -1.9480  1.4638
  494SOL    HW2 1482   2.259   1.927   9.561  0.1432  0.1471 -0.8397
  495SOL     OW 1483   2.441   0.874   8.945  0.6644  0.0915  0.3471
  495SOL    HW1 1484   2.480   0.794   8.981  1.4780  0.9986  1.5825
  495SOL    HW2 1485   2.478   0.882   8.857  1.3135 -0.3988  0.5696
  496SOL     OW 1486   0.765   2.299   9.171 -0.0703  0.0013  0.6968
  496SOL    HW1 1487   0.794   2.224   9.222 -0.1001  0.1986  1.0110
  496SOL    HW2 1488   0.690   2.268   9.122  1.6397 -1.0136 -1.4454
  497SOL     OW 1489   4.726   1.576   9.836 -0.0164  0.6447  0.0577
  497SOL    HW1 1490   4.777   1.655   9.818 -0.8216  1.4394  1.0991
  497SOL    HW2 1491   4.785   1.504   9.815  0.5585  1.5062 -1.4307
  498SOL     OW 1492   2.928   1.670   8.419  0.0208  0.1811 -0.1936
  498SOL    HW1 1493   3.000   1.730   8.438 -1.1442  1.6728 -0.3655
  498SOL    HW2 1494   2.951   1.631   8.335  1.0506 -0.0467  0.1774
  499SOL     OW 1495   1.413   2.182   8.717  0.5875 -0.4356 -0.7087
  499SOL    HW1 1496   1.350   2.251   8.736  1.2618  0.1082 -0.4226
  499SOL    HW2 1497   1.439   2.148   8.802 -0.1844 -1.4706 -0.8576
  500SOL     OW 1498   0.862   1.947   8.027  0.2206 -0.0112 -0.1156
  500SOL    HW1 1499   0.852   1.891   8.104  0.9689  0.6258  0.4642
  500SOL    HW2 1500   0.956   1.959   8.019  0.0844  3.3953  1.4701
  501SOL     OW 1501   0.859   0.387  10.048 -0.0542  0.0506 -0.3012
  501SOL    HW1 1502   0.765   0.387  10.069  0.2605 -0.3341  1.2191
  501SOL    HW2 1503   0.882   0.480  10.042 -0.4764  0.1478 -0.4871
  502SOL     OW 1504   0.661   2.185   9.867  0.3498 -0.3505  0.4891
  502SOL    HW1 1505   0.615   2.116   9.915 -1.7162 -0.2564 -1.2287
  502SOL    HW2 1506   0.713   2.230   9.934 -1.5582 -0.8944  2.4380
  503SOL     OW 1507   2.669   1.577   9.943  0.6051 -0.3575 -0.4123
  503SOL    HW1 1508   2.690   1.670   9.947 -0.0263 -0.2403  0.5988
  503SOL    HW2 1509   2.750   1.533   9.970  1.0160 -0.1271 -1.2479
  504SOL     OW 1510   1.174   3.218   6.912 -0.2076  0.1567 -0.0505
  504SOL    HW1 1511   1.251   3.191   6.863 -0.4181  1.0215 -0.8839
  504SOL    HW2 1512   1.170   3.157   6.986  0.7253 -0.4926 -0.5148
  505SOL     OW 1513   0.557   1.178   9.381  0.8136  0.3758 -0.1576
  505SOL    HW1 1514   0.579   1.149   9.470 -0.1507  0.4612  0.1102
  505SOL    HW2 1515   0.640   1.171   9.333  0.6488 -3.1761 -0.2214
  506SOL     OW 1516   3.426   1.514   9.321 -0.7183  0.2073 -0.1041
  506SOL    HW1 1517   3.450   1.578   9.254 -3.2916 -0.7436 -2.1017
  506SOL    HW2 1518   3.501   1.454   9.325  1.5059  2.8569  1.4162
  507SOL     OW 1519   0.986   4.896   8.996 -0.0580  0.4547 -0.5694
  507SOL    HW1 1520   1.016   4.875   9.084  0.0699  1.5057 -0.3457
  507SOL    HW2 1521   1.036   4.974   8.971 -1.5154  1.3785 -0.7577
  508SOL     OW 1522   1.433   1.197   9.623 -0.2079 -0.9185 -0.4027
  508SOL    HW1 1523   1.447   1.273   9.679 -3.4923  0.6873 -1.4771
  508SOL    HW2 1524   1.436   1.232   9.534  1.2721 -2.7053 -1.1201
  509SOL     OW 1525   0.536   0.166   9.355  0.2389  0.0450 -0.4229
  509SOL    HW1 1526   0.611   0.132   9.404  0.9601  2.6207  0.3980
  509SOL    HW2 1527   0.491   0.225   9.416 -0.9599  0.5525 -1.7264
  510SOL     OW 1528   1.836   1.872   9.619  0.3089  0.0050 -0.1142
  510SOL    HW1 1529   1.753   1.909   9.650  1.6018  2.4073  0.7787
  510SOL    HW2 1530   1.893   1.872   9.696  1.3969 -0.8440 -0.8794
  511SOL     OW 1531   3.972   3.733   7.855  0.2337  0.8846 -0.7918
  511SOL    HW1 1532   4.067   3.727   7.849  0.2084  0.6926 -1.0175
  511SOL    HW2 1533   3.956   3.766   7.943  0.4775  0.0243 -0.4089
  512SOL     OW 1534   4.083   1.584   8.064  0.8752 -0.0776 -0.2598
  512SOL    HW1 1535   4.174   1.599   8.087  0.1211  2.2712  1.5644
  512SOL    HW2 1536   4.038   1.576   8.148 -0.7914  0.1725 -1.0850
  513SOL     OW 1537   1.013   3.639  10.067  0.3112  0.0759 -0.4250
  513SOL    HW1 1538   1.070   3.595  10.130 -0.6794 -0.9626 -0.2306
  513SOL    HW2 1539   1.072   3.696  10.018  1.0238  1.2941  1.7463
  514SOL     OW 1540   4.485   3.776   8.469 -0.2603 -0.1362 -0.1916
  514SOL    HW1 1541   4.579   3.769   8.484  0.5000  1.2699 -3.5394
  514SOL    HW2 1542   4.461   3.694   8.427 -0.5712 -0.4718  0.6117
  515SOL     OW 1543   1.192   2.613   9.429 -0.5390  0.0943  0.1904
  515SOL    HW1 1544   1.230   2.697   9.402 -2.2752  0.9477  0.2401
  515SOL    HW2 1545   1.268   2.556   9.444  0.6702  1.4725 -0.3871
  516SOL     OW 1546   3.478   0.465  10.093  0.2191  0.0383  0.4057
  516SOL    HW1 1547   3.549   0.530  10.097 -0.2010  0.5307  0.0293
  516SOL    HW2 1548   3.399   0.517  10.080  0.0246 -0.6371 -1.3095
  517SOL     OW 1549   2.530   3.295  10.201  0.5226 -0.7866  0.1097
  517SOL    HW1 1550   2.505   3.309  10.292  1.1514 -2.8075  0.6278
  517SOL    HW2 1551   2.614   3.339  10.191 -0.2518  0.7465  0.0451
  518SOL     OW 1552   4.019   2.724  10.008 -0.3352  0.3777  0.1492
  518SOL    HW1 1553   4.010   2.629  10.014 -0.4626  0.4568  2.4096
  518SOL    HW2 1554   4.109   2.741  10.033 -0.3496  0.8623 -0.1193
  519SOL     OW 1555   3.105   1.260   9.397 -0.2501 -0.3835 -0.6613
  519SOL    HW1 1556   3.163   1.185   9.407  0.1413 -0.0711 -0.5423
  519SOL    HW2 1557   3.043   1.253   9.470 -0.7164 -1.0224 -1.1075
  520SOL     OW 1558   3.603   1.723   9.260 -0.2121  0.5883 -0.2581
  520SOL    HW1 1559   3.604   1.764   9.173 -3.2333  2.2907  0.3772
  520SOL    HW2 1560   3.580   1.794   9.320  2.2828 -0.4123  2.1101
  521SOL     OW 1561   2.221   0.577   8.669  0.8239 -0.0264 -0.2341
  521SOL    HW1 1562   2.177   0.498   8.638 -0.2253  0.3960  0.1620
  521SOL    HW2 1563   2.151   0.632   8.704  1.7175  0.4517  0.8608
  522SOL     OW 1564   0.550   1.980   6.050  0.1865  0.7948 -0.0862
  522SOL    HW1 1565   0.549   1.918   6.123  0.2068  2.5685  1.4861
  522SOL    HW2 1566   0.467   2.027   6.058  0.3504  1.2573 -1.0054
  523SOL     OW 1567   2.054   1.175   9.790 -0.6117 -0.1587  0.2309
  523SOL    HW1 1568   1.984   1.228   9.753 -0.6774 -0.3549  0.0782
  523SOL    HW2 1569   2.134   1.211   9.752 -0.7727 -1.2728 -1.2164
  524SOL     OW 1570   0.844   3.931  10.050 -0.5930  0.7540  0.4667
  524SOL    HW1 1571   0.766   3.945   9.996 -0.2856  0.0902 -0.1635
  524SOL    HW2 1572   0.896   4.010  10.037 -1.2739  1.3304  1.1120
  525SOL     OW 1573   4.113   2.458   8.996 -0.1250 -0.4146  0.2991
  525SOL    HW1 1574   4.079   2.492   9.079  0.5076  0.1395  0.3353
  525SOL    HW2 1575   4.180   2.395   9.022  2.3088  1.9642  0.2711
  526SOL     OW 1576   4.096   0.842   9.521 -0.0386 -0.1236 -0.0949
  526SOL    HW1 1577   4.153   0.792   9.579  1.4968  0.5560 -0.9528
  526SOL    HW2 1578   4.092   0.929   9.560  0.7251  0.2387 -0.7812
  527SOL     OW 1579   3.580   2.845   9.687  0.5901  0.4076  0.7901
  527SOL    HW1 1580   3.614   2.921   9.734  0.2434  1.6331 -0.8467
  527SOL    HW2 1581   3.500   2.821   9.734 -0.2030  2.1175  0.3985
  528SOL     OW 1582   1.667   3.249   9.717  0.1659  0.1213 -0.1571
  528SOL    HW1 1583   1.714   3.287   9.643  2.1618 -0.6118  0.6824
  528SOL    HW2 1584   1.710   3.165   9.732 -0.9284 -0.2416  1.1570
  529SOL     OW 1585   1.188   3.035   9.670  0.8364 -0.5515  0.2757
  529SOL    HW1 1586   1.275   3.019   9.707  1.4293 -0.8461 -1.2010
  529SOL    HW2 1587   1.169   2.957   9.618 -0.4863 -0.6510  0.8511
  530SOL     OW 1588   1.637   2.414   8.981  0.0735  0.3883  0.0038
  530SOL    HW1 1589   1.613   2.346   9.044  0.7854  0.0836 -0.0471
  530SOL    HW2 1590   1.720   2.384   8.943 -1.2302 -0.3516 -2.4505
  531SOL     OW 1591   1.578   0.067   9.081 -0.1912  0.0962 -0.0708
  531SOL    HW1 1592   1.623   0.025   9.008  0.9507 -0.1763  0.7691
  531SOL    HW2 1593   1.562   0.157   9.051  2.3845  0.7032  0.1730
  532SOL     OW 1594   4.203   2.164   7.578  0.3341 -0.4312  0.7135
  532SOL    HW1 1595   4.153   2.243   7.562 -0.8205 -0.6655  2.7616
  532SOL    HW2 1596   4.150   2.094   7.540  1.1102 -0.3140 -0.6499
  533SOL     OW 1597   2.768   2.107   9.364 -0.4697 -0.2392  0.5625
  533SOL    HW1 1598   2.754   2.113   9.270  0.1869  0.1542  0.4859
  533SOL    HW2 1599   2.680   2.093   9.400 -0.6199 -1.3268 -0.1663
  534SOL     OW 1600   3.399   0.011   9.789  0.1316  0.1250 -0.4781
  534SOL    HW1 1601   3.315   0.054   9.777  0.7995  1.7161  0.3239
  534SOL    HW2 1602   3.412   0.007   9.884  2.1066  2.3387 -0.5646
  535SOL     OW 1603   3.330   4.550   8.922  0.2945 -0.0442 -0.2134
  535SOL    HW1 1604   3.315   4.531   9.015  1.2983 -0.7068 -0.1794
  535SOL    HW2 1605   3.302   4.642   8.912  2.5925  0.9151  1.3286
  536SOL     OW 1606   4.944   0.663   8.758  0.1891 -0.2356  0.1240
  536SOL    HW1 1607   4.884   0.676   8.684 -0.4895 -0.1879  0.6696
  536SOL    HW2 1608   4.933   0.742   8.812  2.0555  0.6128 -0.6380
  537SOL     OW 1609   1.608   1.082   8.702  0.4663 -0.0042 -0.0946
  537SOL    HW1 1610   1.650   1.153   8.751  1.8456 -0.9999  0.2303
  537SOL    HW2 1611   1.538   1.050   8.759 -0.8767  1.7324 -0.6767
  538SOL     OW 1612   4.779   2.469   9.910  0.1736 -0.0538  1.0939
  538SOL    HW1 1613   4.774   2.558   9.876  0.5242 -0.5262 -0.2602
  538SOL    HW2 1614   4.870   2.460   9.940  0.9614 -0.7659 -1.2563
  539SOL     OW 1615   2.398   2.201   5.244  0.1917  0.5529 -0.5039
  539SOL    HW1 1616   2.372   2.155   5.163 -1.3373  2.1987 -1.0146
  539SOL    HW2 1617   2.333   2.270   5.254  0.9241  1.0089  1.6411
  540SOL     OW 1618   1.812   4.216   9.851  0.3886  0.1867 -0.6388
  540SOL    HW1 1619   1.831   4.238   9.942  2.7000  1.7769 -1.4214
  540SOL    HW2 1620   1.760   4.136   9.856 -0.0378  0.5377  2.0683
  541SOL     OW 1621   1.123   4.715   9.972 -0.2841  0.0963 -0.8633
  541SOL    HW1 1622   1.047   4.773   9.965 -0.0738  0.3430 -1.1292
  541SOL    HW2 1623   1.163   4.738  10.055  1.4059  2.3348 -2.1839
  542SOL     OW 1624   4.745   4.403   8.416  0.1058 -0.1155  0.7683
  542SOL    HW1 1625   4.705   4.459   8.483 -1.7903  0.9394 -1.1353
  542SOL    HW2 1626   4.805   4.460   8.369  1.0325 -0.7177  1.1876
  543SOL     OW 1627   2.696   4.747   9.289 -0.1646 -0.8010 -0.4616
  543SOL    HW1 1628   2.698   4.719   9.381 -1.0124  1.9781  0.4965
  543SOL    HW2 1629   2.647   4.678   9.245  0.2772 -2.2259  1.1465
  544SOL     OW 1630   2.643   3.903   9.408 -0.0365 -0.6931 -0.0500
  544SOL    HW1 1631   2.668   3.993   9.431 -3.7456  0.3962  0.3136
  544SOL    HW2 1632   2.686   3.887   9.324  0.9748  1.2748  0.0340
  545SOL     OW 1633   4.307   1.557   7.266 -0.0631  0.5849 -0.4056
  545SOL    HW1 1634   4.247   1.482   7.265 -0.2354  0.6879 -2.2405
  545SOL    HW2 1635   4.379   1.530   7.322  0.2207 -1.2747 -1.5646
  546SOL     OW 1636   4.279   3.187  10.135  0.6021  0.4872 -0.3736
  546SOL    HW1 1637   4.307   3.240  10.060  2.2499 -1.1446 -0.9774
  546SOL    HW2 1638   4.290   3.244  10.211  1.1574  1.4092 -1.1272
  547SOL     OW 1639   1.792   1.258   6.149 -0.0146  0.1651  0.8611
  547SOL    HW1 1640   1.872   1.234   6.198  0.0897  0.0635  0.6429
  547SOL    HW2 1641   1.741   1.177   6.147  0.6757 -0.2639 -0.5285
  548SOL     OW 1642   0.298   3.463  10.048  0.5832  0.0680 -0.2691
  548SOL    HW1 1643   0.313   3.557  10.061  0.3222 -0.1550  2.0589
  548SOL    HW2 1644   0.213   3.458  10.004 -0.0152  0.9181  0.7459
  549SOL     OW 1645   2.229   1.603   8.329  0.6102 -0.8785 -0.6284
  549SOL    HW1 1646   2.137   1.616   8.306 -0.0321 -0.0850  1.9605
  549SOL    HW2 1647   2.240   1.508   8.334  0.0931 -0.9890 -1.4480
  550SOL     OW 1648   2.273   0.542   8.946 -0.3952 -0.5219  0.1545
  550SOL    HW1 1649   2.300   0.522   8.856 -0.3526 -2.3536  0.5378
  550SOL    HW2 1650   2.238   0.460   8.980  2.9757 -1.0317  3.0085
  551SOL     OW 1651   2.701   1.372   8.280  0.3797 -0.8927 -0.5895
  551SOL    HW1 1652   2.701   1.311   8.206  0.9206  0.7918 -2.0380
  551SOL    HW2 1653   2.763   1.440   8.255  2.9939 -1.7609  2.7319
  552SOL     OW 1654   1.320   3.722   8.468  0.0371 -0.1115  0.3059
  552SOL    HW1 1655   1.405   3.697   8.504 -0.5998  0.0111  2.0153
  552SOL    HW2 1656   1.309   3.814   8.495 -0.4902 -0.0234 -0.1956
  553SOL     OW 1657   2.136   1.273   7.397 -0.4915 -0.8326 -0.1891
  553SOL    HW1 1658   2.216   1.230   7.427  0.2308  0.8455  0.4204
  553SOL    HW2 1659   2.150   1.366   7.415 -2.9897 -0.5743  0.8323
  554SOL     OW 1660   1.842   2.387   7.587 -0.4770  0.5283 -0.3857
  554SOL    HW1 1661   1.933   2.411   7.570 -0.2136 -0.7968 -0.9830
  554SOL    HW2 1662   1.803   2.466   7.624  1.2385  0.7506  1.1157
  555SOL     OW 1663   0.129   3.863   9.800  0.2978 -0.7765 -0.3805
  555SOL    HW1 1664   0.222   3.885   9.801  0.0217  0.5263 -0.5871
  555SOL    HW2 1665   0.087   3.942   9.764 -1.1551 -0.2039  2.3098
  556SOL     OW 1666   4.666   2.306   8.240 -0.2649 -0.1540  0.5566
  556SOL    HW1 1667   4.669   2.233   8.301 -1.1815 -0.5283  0.1664
  556SOL    HW2 1668   4.633   2.269   8.158  2.6949 -0.0892 -0.8209
  557SOL     OW 1669   3.671   2.658   7.353 -0.5866  0.1121 -0.6496
  557SOL    HW1 1670   3.681   2.754   7.352 -1.3011  0.3641  2.9856
  557SOL    HW2 1671   3.577   2.644   7.354 -0.4812 -0.6347 -1.0213
  558SOL     OW 1672   1.795   2.340  10.102  0.7485 -0.1066  0.8758
  558SOL    HW1 1673   1.771   2.364  10.192 -0.2012 -2.9832  1.5100
  558SOL    HW2 1674   1.711   2.319  10.060  1.3123 -0.2276 -0.2157
  559SOL     OW 1675   1.590   4.523   9.828 -0.2965  0.3957 -0.9803
  559SOL    HW1 1676   1.650   4.457   9.793  0.2494 -0.0388  0.6891
  559SOL    HW2 1677   1.548   4.481   9.903  0.4930  2.0765  0.4984
  560SOL     OW 1678   4.413   0.641   9.513  0.2856  0.0415  0.3539
  560SOL    HW1 1679   4.378   0.654   9.424 -0.9777 -0.5264  0.7476
  560SOL    HW2 1680   4.414   0.546   9.525  0.1973  0.1220  1.0385
  561SOL     OW 1681   0.079   0.871   7.428  0.5317  0.4013  0.2186
  561SOL    HW1 1682   0.151   0.808   7.430  0.0918 -0.0885  1.5286
  561SOL    HW2 1683   0.002   0.819   7.408  0.1523  0.4927  1.3853
  562SOL     OW 1684   0.358   4.010   9.558 -0.4938  0.6405 -0.0009
  562SOL    HW1 1685   0.389   3.939   9.613 -0.1787  0.9210  0.1900
  562SOL    HW2 1686   0.272   4.032   9.594 -0.0198  1.2541  0.8056
  563SOL     OW 1687   2.948   4.618   9.093 -0.1931 -0.7325 -0.4841
  563SOL    HW1 1688   2.948   4.524   9.112 -0.7419 -0.5870  0.2975
  563SOL    HW2 1689   3.028   4.651   9.133  0.4045 -0.9916 -1.4517
  564SOL     OW 1690   4.027   4.355   8.096  0.2010 -0.6657  0.0525
  564SOL    HW1 1691   3.943   4.379   8.135 -0.2658  0.3864 -1.5097
  564SOL    HW2 1692   4.017   4.262   8.073 -0.2817 -0.7278  0.5039
  565SOL     OW 1693   2.146   0.465  10.140  0.3620  0.0655  0.2906
  565SOL    HW1 1694   2.160   0.409  10.064  0.8038 -0.3422  0.6629
  565SOL    HW2 1695   2.064   0.433  10.178  0.7552 -0.5371  0.6632
  566SOL     OW 1696   0.795   3.260   8.650 -0.0713  0.2373  0.7343
  566SOL    HW1 1697   0.763   3.171   8.662  0.1350  0.3091  1.8735
  566SOL    HW2 1698   0.889   3.249   8.636  0.0349  0.3103  1.3845
  567SOL     OW 1699   2.586   4.409   9.679 -0.3103 -0.7039  0.2286
  567SOL    HW1 1700   2.662   4.375   9.726 -0.2506 -0.6296  0.1860
  567SOL    HW2 1701   2.518   4.344   9.694 -0.1433 -0.9365 -0.0037
  568SOL     OW 1702   3.194   1.898   9.481  0.5870  0.4420 -0.4481
  568SOL    HW1 1703   3.110   1.859   9.457  2.8613 -2.9566 -4.0481
  568SOL    HW2 1704   3.198   1.980   9.431 -0.7077  0.9121  0.1776
  569SOL     OW 1705   3.127   2.938   9.647 -0.2301 -0.6368 -0.2204
  569SOL    HW1 1706   3.037   2.908   9.631 -0.4119  0.3089 -1.0742
  569SOL    HW2 1707   3.148   2.992   9.571  0.2030  1.1167  1.0742
  570SOL     OW 1708   0.104   1.551   9.035  0.1331 -0.5485  0.3132
  570SOL    HW1 1709   0.017   1.512   9.046 -1.3937  2.3783 -0.4011
  570SOL    HW2 1710   0.129   1.578   9.124  0.1812 -1.1093  0.4746
  571SOL     OW 1711   0.689   1.739   7.852 -0.9628 -0.8578  0.0749
  571SOL    HW1 1712   0.753   1.712   7.786 -1.9622 -1.7460 -0.5649
  571SOL    HW2 1713   0.739   1.792   7.914  0.1559 -0.6344 -0.9877
  572SOL     OW 1714   3.096   2.552   5.734  0.5647  0.1919  0.1012
  572SOL    HW1 1715   3.152   2.524   5.807 -0.2666  0.9040  1.0441
  572SOL    HW2 1716   3.007   2.550   5.771 -0.1414 -1.4617 -1.5147
  573SOL     OW 1717   4.985   2.705   5.283  0.1976 -0.1900  0.3135
  573SOL    HW1 1718   5.041   2.630   5.301  0.1075 -0.0077  1.4118
  573SOL    HW2 1719   4.901   2.666   5.258  0.0107 -0.4679  1.3291
  574SOL     OW 1720   3.966   1.347   5.250  0.6520 -0.1060 -0.5543
  574SOL    HW1 1721   4.033   1.280   5.237 -0.2688 -1.1474 -0.0720
  574SOL    HW2 1722   3.920   1.321   5.330 -0.1642  0.7218 -0.7282
  575SOL     OW 1723   0.114   1.336   7.233 -0.7943  0.3354 -0.4462
  575SOL    HW1 1724   0.075   1.417   7.265 -0.0222  0.3653  0.4624
  575SOL    HW2 1725   0.199   1.331   7.277 -0.5711 -0.6617 -0.9555
  576SOL     OW 1726   2.152   4.549   7.816 -0.8594  0.2720 -0.4960
  576SOL    HW1 1727   2.136   4.561   7.722 -0.1716  0.1042 -0.6445
  576SOL    HW2 1728   2.228   4.603   7.834 -0.4634 -0.3658 -0.2225
  577SOL     OW 1729   3.063   4.577   5.283 -0.1536  0.1903  0.5274
  577SOL    HW1 1730   3.067   4.525   5.202  1.0525  0.0758  0.6524
  577SOL    HW2 1731   2.987   4.634   5.270  0.0747  0.2464 -0.7340
  578SOL     OW 1732   0.698   1.152   5.083 -0.0494 -0.2857  0.0900
  578SOL    HW1 1733   0.725   1.061   5.077 -0.7401 -0.4268 -1.0733
  578SOL    HW2 1734   0.758   1.199   5.025  0.1996 -0.0095  0.5600
  579SOL     OW 1735   3.855   3.684   5.518 -0.5893  0.2830  0.6654
  579SOL    HW1 1736   3.904   3.751   5.470  0.5288 -1.8609 -1.3641
  579SOL    HW2 1737   3.907   3.668   5.597 -0.7188  1.5364  1.0302
  580SOL     OW 1738   1.166   2.903   8.291 -0.2022  0.2449 -0.3460
  580SOL    HW1 1739   1.144   2.830   8.234 -2.1188  0.0472  0.5578
  580SOL    HW2 1740   1.083   2.952   8.300  0.6241  1.5762  0.4018
  581SOL     OW 1741   1.994   2.977   5.616 -0.1074 -0.2505 -0.3558
  581SOL    HW1 1742   1.994   3.068   5.645 -0.4997  0.0871 -1.3692
  581SOL    HW2 1743   2.066   2.936   5.664 -0.3221  0.4388  0.5664
  582SOL     OW 1744   3.046   3.208   5.489 -0.4003  0.1370  0.0781
  582SOL    HW1 1745   3.062   3.220   5.396  2.5373 -3.7187 -0.2063
  582SOL    HW2 1746   2.961   3.165   5.494 -0.3746 -0.0345 -0.8776
  583SOL     OW 1747   1.353   2.942   5.686  0.1275  0.0600  0.0760
  583SOL    HW1 1748   1.330   2.936   5.594  2.4863  1.3482 -0.6878
  583SOL    HW2 1749   1.369   3.035   5.701  0.5111 -0.2173  1.5829
  584SOL     OW 1750   1.445   4.835   5.470  0.2008 -0.0548  0.1739
  584SOL    HW1 1751   1.433   4.760   5.527 -0.6595  0.7059  1.0258
  584SOL    HW2 1752   1.460   4.909   5.530  2.3453  0.2577 -0.6592
  585SOL     OW 1753   3.640   0.836   5.718  0.0097  0.4419  0.0874
  585SOL    HW1 1754   3.587   0.868   5.790 -1.5660  3.7050 -2.2744
  585SOL    HW2 1755   3.730   0.836   5.752 -0.9385 -1.2586  2.9025
  586SOL     OW 1756   3.097   3.283   6.323 -0.0845 -0.8158 -0.0573
  586SOL    HW1 1757   3.157   3.317   6.257  0.2600 -1.7491 -0.2366
  586SOL    HW2 1758   3.018   3.260   6.274 -0.0320 -0.9896 -0.0626
  587SOL     OW 1759   4.978   3.096   4.747  0.9441 -0.2451 -0.0996
  587SOL    HW1 1760   4.942   3.091   4.835  1.0643  1.1413  0.0401
  587SOL    HW2 1761   5.057   3.149   4.756  0.7643  0.2128 -1.0977
  588SOL     OW 1762   4.147   1.826   4.927 -0.4871 -0.2020  0.9236
  588SOL    HW1 1763   4.202   1.859   4.997 -0.9748  1.0048  0.7592
  588SOL    HW2 1764   4.206   1.814   4.853 -0.3137  0.3563  0.9717
  589SOL     OW 1765   4.571   3.707   5.092 -0.3442  0.4715  0.4427
  589SOL    HW1 1766   4.501   3.731   5.031 -0.6449 -2.5364 -0.5849
  589SOL    HW2 1767   4.530   3.713   5.178 -1.3707  0.3271 -0.0138
  590SOL     OW 1768   1.064   2.482   5.842  0.1619 -0.6605 -0.3807
  590SOL    HW1 1769   0.976   2.519   5.834 -0.9046 -2.3302  2.1873
  590SOL    HW2 1770   1.103   2.528   5.916 -0.7347 -3.4855  2.0691
  591SOL     OW 1771   3.840   0.689   7.740 -1.0122 -0.1428 -0.0969
  591SOL    HW1 1772   3.857   0.762   7.800  0.7795 -0.1358 -0.5727
  591SOL    HW2 1773   3.869   0.721   7.655  1.4679 -1.9638 -0.0282
  592SOL     OW 1774   1.207   2.575   4.880  0.3364 -0.0465  0.0041
  592SOL    HW1 1775   1.238   2.662   4.903  0.2801 -0.2603  0.9189
  592SOL    HW2 1776   1.119   2.569   4.917  0.6990 -0.8200  0.7754
  593SOL     OW 1777   1.972   3.764   8.282  0.0499 -0.0664  0.2519
  593SOL    HW1 1778   2.057   3.770   8.327  0.7474 -1.1669 -0.8680
  593SOL    HW2 1779   1.957   3.853   8.249  2.2172 -0.4294 -2.0241
  594SOL     OW 1780   4.762   3.369   5.214  0.1303  0.0138 -0.1068
  594SOL    HW1 1781   4.685   3.403   5.260  1.3816 -0.0677  2.1660
  594SOL    HW2 1782   4.771   3.426   5.138 -0.2681  2.1642  1.3585
  595SOL     OW 1783   3.756   2.109   5.149  0.0238 -0.4382 -0.5285
  595SOL    HW1 1784   3.808   2.031   5.167  0.4202  0.2264  1.5210
  595SOL    HW2 1785   3.692   2.113   5.220  1.1903  2.0272  0.5215
  596SOL     OW 1786   0.032   1.783   5.757 -0.0951 -0.6534  1.1934
  596SOL    HW1 1787   0.012   1.701   5.711 -1.7091 -0.7251  1.9720
  596SOL    HW2 1788   0.003   1.768   5.847 -0.4963  0.7964  1.3346
  597SOL     OW 1789   2.034   0.740   5.094 -0.2027  0.9366 -0.5553
  597SOL    HW1 1790   2.035   0.802   5.020  0.8817  0.4822 -0.9420
  597SOL    HW2 1791   2.087   0.666   5.064  0.2981  0.7620  0.7061
  598SOL     OW 1792   1.853   4.161   6.154  0.2674  0.7784  0.3953
  598SOL    HW1 1793   1.911   4.100   6.109  1.2213  1.9799 -0.0646
  598SOL    HW2 1794   1.768   4.149   6.112  0.4026 -0.3041  0.4041
  599SOL     OW 1795   0.327   1.882   6.715  0.2726 -0.1276 -0.3937
  599SOL    HW1 1796   0.380   1.887   6.796 -0.0116 -0.1497 -0.2052
  599SOL    HW2 1797   0.319   1.789   6.698  0.3857 -0.1209 -0.4818
  600SOL     OW 1798   5.015   1.011   4.859  0.3717 -0.0832 -0.2213
  600SOL    HW1 1799   4.923   1.020   4.835  0.7810 -1.0502 -2.3120
  600SOL    HW2 1800   5.047   1.101   4.864  0.1258  0.2174 -2.9801
  601SOL     OW 1801   2.411   1.060  10.032  0.4982 -0.3944  0.0118
  601SOL    HW1 1802   2.397   0.978  10.079  0.6227  0.5353  1.7748
  601SOL    HW2 1803   2.344   1.119  10.068  2.3960  1.1842  1.1905
  602SOL     OW 1804   1.980   2.794   5.949  0.5759 -0.2083 -0.0645
  602SOL    HW1 1805   1.961   2.734   6.021 -1.5265 -0.2001 -0.5494
  602SOL    HW2 1806   1.907   2.783   5.889  1.2128  1.3429 -1.1824
  603SOL     OW 1807   1.958   3.303   5.348  0.1747  0.3926 -0.0790
  603SOL    HW1 1808   1.963   3.210   5.324 -1.3276  0.5920 -1.3218
  603SOL    HW2 1809   2.035   3.342   5.308 -0.5281  0.1056 -1.7812
  604SOL     OW 1810   3.761   3.877   4.855  0.1595  0.4647 -0.4060
  604SOL    HW1 1811   3.839   3.873   4.799 -0.3169  0.3008 -1.0676
  604SOL    HW2 1812   3.737   3.970   4.854 -0.9563  0.1960 -2.0464
  605SOL     OW 1813   1.454   1.886   5.392  0.4380  0.2851  0.0716
  605SOL    HW1 1814   1.416   1.936   5.463 -0.1016 -1.4442  1.0490
  605SOL    HW2 1815   1.380   1.841   5.351  0.9922 -0.3131 -0.2922
  606SOL     OW 1816   3.058   1.683   6.485 -0.1972  0.9123  0.4354
  606SOL    HW1 1817   3.072   1.706   6.577 -1.3240 -0.6712  1.0617
  606SOL    HW2 1818   3.069   1.765   6.437  1.8311  1.5063  1.7924
  607SOL     OW 1819   3.060   4.168   6.125 -0.5317  0.4006 -0.5529
  607SOL    HW1 1820   3.039   4.261   6.131  0.5541  0.5640  1.8701
  607SOL    HW2 1821   3.050   4.136   6.215 -2.3348 -2.2006 -1.5577
  608SOL     OW 1822   4.798   4.638   8.275 -0.7941 -0.7789  0.3053
  608SOL    HW1 1823   4.881   4.633   8.227 -1.9245  1.4218 -2.1335
  608SOL    HW2 1824   4.736   4.588   8.222 -1.7634  0.4631  0.2302
  609SOL     OW 1825   4.470   2.440   5.430 -0.3399  0.0054 -0.1861
  609SOL    HW1 1826   4.475   2.381   5.354  1.9607  0.8952 -0.8141
  609SOL    HW2 1827   4.471   2.528   5.392 -1.1261  0.4740  0.8317
  610SOL     OW 1828   4.024   0.194   6.920  0.6162 -0.9681  0.7720
  610SOL    HW1 1829   3.991   0.268   6.869 -0.6938 -1.4508  0.8725
  610SOL    HW2 1830   3.970   0.194   6.999  2.2091 -0.5978  1.9081
  611SOL     OW 1831   0.263   0.442   8.315  0.5069 -0.2432  0.6938
  611SOL    HW1 1832   0.231   0.462   8.227 -1.3936 -1.3302  1.0935
  611SOL    HW2 1833   0.194   0.472   8.373  0.4962 -1.9981  1.6593
  612SOL     OW 1834   0.153   3.500   6.751 -0.9494  0.2752  0.5116
  612SOL    HW1 1835   0.121   3.412   6.770 -1.9302  0.8408  1.6067
  612SOL    HW2 1836   0.166   3.501   6.656 -1.1703 -0.9635  0.4534
  613SOL     OW 1837   2.641   1.672   8.356  0.0305  0.0044 -0.7829
  613SOL    HW1 1838   2.605   1.592   8.317 -0.7154 -0.3945  0.6308
  613SOL    HW2 1839   2.726   1.645   8.391  0.5935  0.3036 -1.8852
  614SOL     OW 1840   0.814   0.362   6.194 -0.7149 -0.3404  0.2926
  614SOL    HW1 1841   0.837   0.443   6.239 -0.1155 -0.5208  0.3089
  614SOL    HW2 1842   0.872   0.296   6.232 -2.5115 -1.2081  1.7322
  615SOL     OW 1843   1.757   3.639   7.289 -0.4873  0.3567  0.2914
  615SOL    HW1 1844   1.779   3.727   7.257  0.6324 -0.3489 -0.9570
  615SOL    HW2 1845   1.688   3.654   7.353  0.3187  2.2457  0.7953
  616SOL     OW 1846   2.478   4.525   5.303 -0.7216  0.4514 -0.1607
  616SOL    HW1 1847   2.540   4.563   5.366 -0.3020 -2.1629  1.1382
  616SOL    HW2 1848   2.395   4.569   5.322 -0.5646 -0.1449  2.1855
  617SOL     OW 1849   2.668   4.766   5.313  0.6221  0.3455  0.3699
  617SOL    HW1 1850   2.605   4.783   5.243 -1.0110 -1.1024  1.4070
  617SOL    HW2 1851   2.750   4.744   5.267  0.9093  3.7255 -1.0063
  618SOL     OW 1852   0.702   4.112   7.483  0.1550  0.3815 -0.4254
  618SOL    HW1 1853   0.746   4.065   7.412  1.2053 -1.3620  1.2977
  618SOL    HW2 1854   0.653   4.044   7.530  1.9474  0.8699  2.3283
  619SOL     OW 1855   1.874   0.654   7.446  0.3628 -0.0696 -0.3384
  619SOL    HW1 1856   1.797   0.664   7.501  0.1315 -0.0842 -0.6584
  619SOL    HW2 1857   1.948   0.661   7.506  0.1075 -0.2616 -0.0005
  620SOL     OW 1858   3.330   4.518   6.211  0.2688  0.1380 -0.4636
  620SOL    HW1 1859   3.413   4.567   6.205  0.5440 -0.3850 -1.0988
  620SOL    HW2 1860   3.356   4.428   6.229 -0.0531 -0.3260 -2.1073
  621SOL     OW 1861   2.370   4.681   7.728 -0.8960  0.6787  0.2963
  621SOL    HW1 1862   2.430   4.623   7.681 -1.1845 -2.6469  3.5644
  621SOL    HW2 1863   2.427   4.736   7.781 -0.4756 -1.4768  2.2893
  622SOL     OW 1864   0.295   0.318   5.801 -0.1256 -0.2212 -0.0952
  622SOL    HW1 1865   0.298   0.240   5.745 -0.5291 -0.1161 -0.2670
  622SOL    HW2 1866   0.334   0.289   5.883 -0.7316 -0.7526  0.0154
  623SOL     OW 1867   4.027   3.168   5.743  0.1748 -0.1625 -0.4060
  623SOL    HW1 1868   4.065   3.125   5.667 -1.1283 -0.6251 -0.8300
  623SOL    HW2 1869   4.101   3.185   5.801  0.7679 -3.0226 -0.1775
  624SOL     OW 1870   3.021   2.772   5.512 -0.2465  0.8867  0.4640
  624SOL    HW1 1871   3.053   2.796   5.599  0.0760  0.9591  0.3271
  624SOL    HW2 1872   2.973   2.849   5.482 -0.4104  0.8399  0.6019
  625SOL     OW 1873   0.774   2.838   5.569 -0.2142  0.5220  0.4948
  625SOL    HW1 1874   0.740   2.800   5.489 -0.3319  2.5597 -0.4652
  625SOL    HW2 1875   0.799   2.927   5.546 -2.0018  1.8504  3.1330
  626SOL     OW 1876   0.525   3.212   9.656 -0.4710  0.2897  0.7894
  626SOL    HW1 1877   0.431   3.219   9.670 -0.6619 -0.2866 -0.1278
  626SOL    HW2 1878   0.557   3.302   9.661 -1.5647  0.9426 -2.0641
  627SOL     OW 1879   0.588   3.191   5.387 -0.0557 -0.1125  0.1537
  627SOL    HW1 1880   0.571   3.281   5.415 -0.4840 -0.6379  1.6845
  627SOL    HW2 1881   0.513   3.142   5.422  0.9320 -1.2984  0.6404
  628SOL     OW 1882   0.010   4.821   5.253  0.4672 -0.0609 -0.4107
  628SOL    HW1 1883   0.042   4.888   5.313  2.0964  0.2694 -1.5706
  628SOL    HW2 1884   0.056   4.838   5.171  1.1551 -2.7353 -0.6903
  629SOL     OW 1885   0.227   3.228   6.883  0.0804 -0.1117 -0.0336
  629SOL    HW1 1886   0.260   3.190   6.964 -2.1189  3.0773  2.6295
  629SOL    HW2 1887   0.301   3.223   6.822  1.6869 -3.0771  1.8957
  630SOL     OW 1888   1.462   4.675   5.253 -0.2522  0.0683  0.6010
  630SOL    HW1 1889   1.472   4.718   5.338 -0.1034 -0.4478  0.8503
  630SOL    HW2 1890   1.531   4.607   5.252  0.1876  0.5092 -0.2080
  631SOL     OW 1891   2.982   1.698   9.281  0.6380 -0.6066  0.0572
  631SOL    HW1 1892   2.927   1.730   9.210 -0.5649 -2.2158  0.1900
  631SOL    HW2 1893   3.039   1.633   9.240  0.7563 -0.6921  0.3509
  632SOL     OW 1894   2.750   3.787   6.466  0.1838  0.7852 -0.7049
  632SOL    HW1 1895   2.733   3.767   6.558 -1.1057  1.5253 -0.7590
  632SOL    HW2 1896   2.799   3.869   6.468 -1.2638  1.6905 -0.6887
  633SOL     OW 1897   2.057   2.561   6.092 -0.1490  0.4600  0.1281
  633SOL    HW1 1898   2.101   2.570   6.007 -1.5122  0.6419 -0.5790
  633SOL    HW2 1899   2.020   2.473   6.091  1.2379 -0.1682  1.2501
  634SOL     OW 1900   4.069   1.345   6.493  0.1155 -0.3302  0.1057
  634SOL    HW1 1901   4.126   1.387   6.429 -0.2194 -0.1001 -0.0454
  634SOL    HW2 1902   4.116   1.355   6.576  1.6740 -2.6901 -0.4148
  635SOL     OW 1903   2.597   1.746   5.248  0.2715 -0.4210 -0.1459
  635SOL    HW1 1904   2.571   1.790   5.329  1.4108  2.2132 -1.1145
  635SOL    HW2 1905   2.673   1.693   5.273  0.0821 -0.3207  0.6669
  636SOL     OW 1906   3.722   3.507   8.677 -0.6539 -1.1087  0.6444
  636SOL    HW1 1907   3.748   3.541   8.763 -0.3603  1.1652 -0.2756
  636SOL    HW2 1908   3.693   3.584   8.628 -2.6859 -2.6151 -0.6852
  637SOL     OW 1909   1.427   0.131   6.555  0.3454  0.3373 -0.1829
  637SOL    HW1 1910   1.508   0.128   6.505 -0.3811  1.2035 -1.4838
  637SOL    HW2 1911   1.454   0.155   6.643  1.5563 -0.0297 -0.4359
  638SOL     OW 1912   4.566   1.052   5.958  0.0115  0.3605  0.0417
  638SOL    HW1 1913   4.519   1.042   6.041  0.7217  0.1373  0.4277
  638SOL    HW2 1914   4.636   0.987   5.962  0.0230  0.3121 -0.7590
  639SOL     OW 1915   0.600   0.163   6.585  0.5287  0.6549  0.4393
  639SOL    HW1 1916   0.546   0.102   6.536  2.4125 -1.2036  0.5456
  639SOL    HW2 1917   0.538   0.219   6.631 -1.2763 -0.9217  0.0101
  640SOL     OW 1918   3.897   2.801   7.663  0.6630 -0.2462 -0.6894
  640SOL    HW1 1919   3.860   2.721   7.698  1.0041  0.3346  1.1068
  640SOL    HW2 1920   3.832   2.868   7.681  1.3748  0.2890 -0.0256
  641SOL     OW 1921   0.384   2.167   7.040  0.0685  0.6604  0.3539
  641SOL    HW1 1922   0.330   2.091   7.064  0.4918  0.4354  0.6194
  641SOL    HW2 1923   0.322   2.233   7.010 -0.2374 -0.1977 -0.9992
  642SOL     OW 1924   0.116   4.654   7.290  0.1119  0.7639  0.2325
  642SOL    HW1 1925   0.145   4.584   7.231  2.0176 -0.3085  2.3186
  642SOL    HW2 1926   0.196   4.702   7.312 -0.3560  0.6037  2.5453
  643SOL     OW 1927   2.126   2.486   6.699 -0.1860 -0.2747 -0.1992
  643SOL    HW1 1928   2.101   2.493   6.607  0.4399 -0.1637 -0.3673
  643SOL    HW2 1929   2.044   2.492   6.747 -0.8089 -2.4677 -0.8465
  644SOL     OW 1930   1.248   3.675   6.647 -0.3196  0.2090 -0.2171
  644SOL    HW1 1931   1.220   3.682   6.738 -0.8734 -1.9711 -0.1553
  644SOL    HW2 1932   1.206   3.749   6.603 -0.1352  1.2239  1.2532
  645SOL     OW 1933   4.651   2.118   5.084 -0.2760  1.0522 -0.0914
  645SOL    HW1 1934   4.713   2.130   5.156 -0.9584  1.0936  0.4968
  645SOL    HW2 1935   4.705   2.088   5.011  0.3700  0.6056  0.5533
  646SOL     OW 1936   1.765   0.951   5.828  0.0542 -0.0407 -0.6276
  646SOL    HW1 1937   1.798   1.037   5.854  0.8357 -0.3590 -0.5176
  646SOL    HW2 1938   1.707   0.925   5.899 -0.5302  0.5677 -0.8631
  647SOL     OW 1939   2.933   0.918   6.391 -0.5871 -0.0882  0.0603
  647SOL    HW1 1940   2.896   0.909   6.303  0.8636 -0.5656 -0.5357
  647SOL    HW2 1941   2.915   1.009   6.415  2.5125  1.3989 -2.4765
  648SOL     OW 1942   0.486   0.049   5.005 -0.1304 -0.0056  0.7329
  648SOL    HW1 1943   0.549   0.120   4.990 -1.0137  1.0778  1.9404
  648SOL    HW2 1944   0.406   0.080   4.963 -0.4276 -0.4429  0.9818
  649SOL     OW 1945   2.234   2.362   7.925  0.1660 -0.2945 -0.9391
  649SOL    HW1 1946   2.318   2.355   7.970  1.2365  0.9691 -2.6272
  649SOL    HW2 1947   2.214   2.272   7.898 -1.1862 -1.3818  2.9974
  650SOL     OW 1948   2.905   3.889   5.059 -0.5172  0.2116 -0.2582
  650SOL    HW1 1949   2.871   3.969   5.099  0.9622  1.4935 -1.4682
  650SOL    HW2 1950   2.999   3.890   5.078 -0.5390 -1.5455  0.1664
  651SOL     OW 1951   0.082   1.227   6.359 -0.3531  0.3670 -0.0617
  651SOL    HW1 1952   0.125   1.152   6.401  0.2123  1.2706  1.0450
  651SOL    HW2 1953   0.047   1.192   6.277 -1.6944 -1.5384  1.2323
  652SOL     OW 1954   4.596   2.872   4.752 -0.0032 -0.0479  0.4812
  652SOL    HW1 1955   4.635   2.954   4.783  1.2961 -0.6275  0.4179
  652SOL    HW2 1956   4.658   2.838   4.689  0.2506 -1.8543  1.6374
  653SOL     OW 1957   4.166   3.550   6.845 -0.6623  0.1831 -0.8093
  653SOL    HW1 1958   4.139   3.514   6.929 -0.1933  0.4334 -0.5495
  653SOL    HW2 1959   4.148   3.644   6.852 -0.6109  0.2062 -0.9827
  654SOL     OW 1960   4.123   2.303   7.156  0.0722 -0.2994 -0.3139
  654SOL    HW1 1961   4.099   2.244   7.228  2.3166  0.0979  0.8419
  654SOL    HW2 1962   4.044   2.354   7.140 -1.0240 -1.6249  0.6495
  655SOL     OW 1963   4.057   1.316   6.099  0.2538 -0.7396 -0.3623
  655SOL    HW1 1964   3.962   1.319   6.109  0.0688  1.2158 -2.0312
  655SOL    HW2 1965   4.071   1.284   6.010  1.1891 -1.2886 -0.0370
  656SOL     OW 1966   3.084   2.661   8.071 -0.7891  0.6540 -0.6087
  656SOL    HW1 1967   3.119   2.650   7.983 -2.0283 -2.0335 -0.8624
  656SOL    HW2 1968   3.000   2.705   8.058 -0.7714  0.6597 -0.7040
  657SOL     OW 1969   3.236   0.403   5.682  0.2621  0.3177  0.4086
  657SOL    HW1 1970   3.296   0.473   5.707  0.1739 -0.2289  2.3087
  657SOL    HW2 1971   3.262   0.379   5.593  2.3036  0.6745  0.8710
  658SOL     OW 1972   2.481   0.125   5.177  0.2491 -0.0782 -0.0595
  658SOL    HW1 1973   2.506   0.170   5.097  2.9060 -1.5825 -0.2022
  658SOL    HW2 1974   2.432   0.190   5.227 -1.4792  0.9243 -2.8157
  659SOL     OW 1975   1.984   3.936   6.066 -0.4614  0.3267 -0.2502
  659SOL    HW1 1976   2.058   3.886   6.032 -1.5287  0.0259 -2.3521
  659SOL    HW2 1977   1.922   3.869   6.095 -0.8037  0.4760 -0.6133
  660SOL     OW 1978   4.727   4.236   4.932  0.9444  1.0285 -0.2446
  660SOL    HW1 1979   4.679   4.159   4.901  1.6281  0.1668  0.7447
  660SOL    HW2 1980   4.777   4.204   5.008  1.4719  2.3831  0.0098
  661SOL     OW 1981   1.996   2.370   5.672 -0.0053  0.1621 -0.0564
  661SOL    HW1 1982   2.033   2.447   5.715 -1.8552  0.8286  0.4239
  661SOL    HW2 1983   1.926   2.341   5.731 -0.0712 -1.2291 -0.7687
  662SOL     OW 1984   3.594   3.466   5.692  0.5641  0.5492  0.1210
  662SOL    HW1 1985   3.518   3.494   5.743  0.0384 -0.5382 -0.0394
  662SOL    HW2 1986   3.665   3.458   5.756 -0.5527 -2.7425  1.1432
  663SOL     OW 1987   3.902   2.156   6.063  0.6166  0.1543  0.3328
  663SOL    HW1 1988   3.843   2.111   6.123  1.3997 -2.4414 -0.6868
  663SOL    HW2 1989   3.976   2.097   6.054 -0.0541 -0.3583 -4.2005
  664SOL     OW 1990   4.784   1.985   6.849  0.0044  0.7432  0.2295
  664SOL    HW1 1991   4.866   2.008   6.804  1.6038 -1.8763  1.5903
  664SOL    HW2 1992   4.755   2.067   6.889  1.4995  1.9041 -0.9366
  665SOL     OW 1993   1.484   4.800   5.781  0.4601 -0.2628 -0.7819
  665SOL    HW1 1994   1.557   4.802   5.843 -1.4247 -3.8715  1.8979
  665SOL    HW2 1995   1.438   4.883   5.796  1.2804 -0.0967  1.1150
  666SOL     OW 1996   3.268   0.230   6.476 -0.1463 -0.3476 -0.5801
  666SOL    HW1 1997   3.303   0.244   6.388  0.0192 -2.5798 -0.9141
  666SOL    HW2 1998   3.233   0.142   6.474 -0.7628 -0.1849  1.4165
  667SOL     OW 1999   2.382   3.328   6.087 -0.0919 -0.4492  0.1935
  667SOL    HW1 2000   2.396   3.366   6.174  0.5412 -2.9579  1.2584
  667SOL    HW2 2001   2.287   3.326   6.078 -0.1632  1.4126  0.0226
  668SOL     OW 2002   4.495   4.919   5.654 -0.4484  0.2691  0.2219
  668SOL    HW1 2003   4.458   4.967   5.580  0.4509 -0.5573 -0.7951
  668SOL    HW2 2004   4.556   4.980   5.695 -1.4100  0.9453  0.6930
  669SOL     OW 2005   0.956   3.029   6.113 -0.7342 -0.2847 -0.0498
  669SOL    HW1 2006   1.047   3.025   6.143  0.1386 -0.1693 -2.4114
  669SOL    HW2 2007   0.936   2.939   6.085 -1.2447 -0.2504  0.2067
  670SOL     OW 2008   0.270   4.786   6.509 -0.4899 -0.4558  0.0832
  670SOL    HW1 2009   0.201   4.824   6.564  0.8434  0.3735  1.2657
  670SOL    HW2 2010   0.281   4.697   6.543 -0.0142 -0.1109  0.8766
  671SOL     OW 2011   1.099   2.787   5.401 -0.0636  0.0592  0.1671
  671SOL    HW1 2012   1.063   2.713   5.450  2.4646  0.0585  2.2131
  671SOL    HW2 2013   1.023   2.827   5.358 -1.5495 -3.7632 -1.2074
  672SOL     OW 2014   0.741   4.162   5.217 -0.4372  0.2519  0.4625
  672SOL    HW1 2015   0.831   4.152   5.247  0.2008  2.6733 -0.3788
  672SOL    HW2 2016   0.738   4.114   5.134  0.6267  1.5459 -0.3676
  673SOL     OW 2017   1.444   1.946   5.896 -0.1867 -0.0091  0.2931
  673SOL    HW1 2018   1.491   2.014   5.848 -1.6556 -0.5419 -2.0742
  673SOL    HW2 2019   1.502   1.924   5.969  2.2060  0.8605 -1.2187
  674SOL     OW 2020   2.648   3.127   7.260 -0.7383  0.3399  0.0261
  674SOL    HW1 2021   2.725   3.096   7.213 -1.0246 -0.7264  0.2402
  674SOL    HW2 2022   2.674   3.211   7.297 -0.0162  0.4688 -0.7542
  675SOL     OW 2023   0.832   1.731   5.950  0.7257 -0.2442 -0.0095
  675SOL    HW1 2024   0.777   1.707   6.024  1.3435 -0.9718  0.2317
  675SOL    HW2 2025   0.787   1.694   5.873  0.2997  0.1489  0.0526
  676SOL     OW 2026   0.395   3.221   6.667  0.0737  0.2515 -0.3195
  676SOL    HW1 2027   0.380   3.242   6.575  0.3928  0.0492 -0.4203
  676SOL    HW2 2028   0.442   3.138   6.665  1.7193  1.1364 -0.0448
  677SOL     OW 2029   3.104   1.111   5.508 -0.8692  0.4294 -0.0488
  677SOL    HW1 2030   3.148   1.062   5.577 -0.7122  1.3252  0.5165
  677SOL    HW2 2031   3.163   1.106   5.433 -0.0543  1.1196  0.5163
  678SOL     OW 2032   1.016   4.433   6.161 -0.0258 -0.0394  0.4068
  678SOL    HW1 2033   1.025   4.339   6.181  3.8226  0.1540  0.4152
  678SOL    HW2 2034   1.076   4.448   6.088 -1.3021  2.2973 -0.2688
  679SOL     OW 2035   0.112   2.343   5.961 -0.0248  0.3620 -0.6391
  679SOL    HW1 2036   0.137   2.267   5.909  1.5732 -0.5047  1.2866
  679SOL    HW2 2037   0.018   2.354   5.944 -0.5157 -2.6307 -0.2683
  680SOL     OW 2038   1.462   4.491   8.911 -0.2820  0.3522  0.5344
  680SOL    HW1 2039   1.535   4.519   8.967 -0.4427  3.7161 -0.7162
  680SOL    HW2 2040   1.457   4.396   8.925  4.4023 -0.1338  0.5659
  681SOL     OW 2041   4.911   0.043   5.832  0.2346  1.1213 -0.4858
  681SOL    HW1 2042   4.841   0.107   5.820 -1.9851 -1.1940 -0.9158
  681SOL    HW2 2043   4.938   0.021   5.743  2.4454  2.8107 -0.3177
  682SOL     OW 2044   1.213   4.157   6.590  0.0370 -0.0047 -0.0928
  682SOL    HW1 2045   1.250   4.216   6.525 -1.0080  1.0541  0.2445
  682SOL    HW2 2046   1.264   4.174   6.669  2.0667 -2.0881 -0.8230
  683SOL     OW 2047   4.670   1.876   7.070 -0.1409 -0.1332 -0.6839
  683SOL    HW1 2048   4.593   1.932   7.071 -0.5800 -0.6483 -2.1469
  683SOL    HW2 2049   4.731   1.920   7.011  0.6989  0.2601  0.4428
  684SOL     OW 2050   4.400   1.222   5.666  0.6635  0.1217  1.1136
  684SOL    HW1 2051   4.397   1.150   5.603 -1.0324  0.8622  0.2778
  684SOL    HW2 2052   4.431   1.297   5.614 -0.7936  0.7529  1.1241
  685SOL     OW 2053   0.450   0.052   6.978  0.1615 -0.1655 -0.4297
  685SOL    HW1 2054   0.444  -0.007   6.903  0.6342 -0.3074 -0.3576
  685SOL    HW2 2055   0.426   0.138   6.943 -0.4620 -0.3817 -0.5503
  686SOL     OW 2056   2.103   0.724   6.801  0.3094  0.4768 -0.6487
  686SOL    HW1 2057   2.151   0.761   6.876 -0.3552  0.4394 -0.2006
  686SOL    HW2 2058   2.115   0.629   6.810  0.9335  0.5089 -1.0719
  687SOL     OW 2059   2.043   4.131   7.864 -0.0935 -0.1689 -0.1096
  687SOL    HW1 2060   2.127   4.178   7.870 -0.8717  1.2945 -0.2538
  687SOL    HW2 2061   1.993   4.163   7.939 -1.6696  1.3996 -1.7138
  688SOL     OW 2062   1.348   4.255   5.209  0.4729 -0.0119 -0.2220
  688SOL    HW1 2063   1.393   4.281   5.290 -1.2824  0.5946  0.6104
  688SOL    HW2 2064   1.419   4.236   5.148  1.8604  0.8001  1.0506
  689SOL     OW 2065   4.147   4.446   6.685  0.1063  0.7044 -0.7768
  689SOL    HW1 2066   4.118   4.379   6.624 -0.5230  0.6373 -0.4154
  689SOL    HW2 2067   4.228   4.411   6.722 -0.6552 -0.2611  0.0389
  690SOL     OW 2068   4.506   3.408   5.384  0.3704  0.1032  0.0209
  690SOL    HW1 2069   4.548   3.490   5.408  0.7390  0.0043 -0.2772
  690SOL    HW2 2070   4.443   3.392   5.455  1.4806 -0.2199  0.9683
  691SOL     OW 2071   1.201   4.899   7.156  0.4423  0.0383  0.8865
  691SOL    HW1 2072   1.263   4.826   7.161 -1.1162 -1.2924  2.1660
  691SOL    HW2 2073   1.121   4.864   7.196 -1.2178  1.5938 -0.9242
  692SOL     OW 2074   0.647   1.425   7.522  0.2702  0.6063 -0.0424
  692SOL    HW1 2075   0.565   1.380   7.544  0.2042  1.1204  0.8260
  692SOL    HW2 2076   0.704   1.409   7.597  0.5709  1.1927 -0.1392
  693SOL     OW 2077   1.353   4.293   6.825  0.2102  0.3368  0.6802
  693SOL    HW1 2078   1.437   4.247   6.825  1.0595  1.8019 -0.2078
  693SOL    HW2 2079   1.365   4.363   6.761 -1.2772  1.3280  1.4478
  694SOL     OW 2080   3.475   3.131   6.352  0.1793 -0.6831  0.1274
  694SOL    HW1 2081   3.494   3.062   6.288 -0.2688  0.2311 -1.0353
  694SOL    HW2 2082   3.538   3.200   6.331  0.7539 -0.8011  1.4036
  695SOL     OW 2083   1.023   4.385   7.200  0.3506  0.4237  0.6328
  695SOL    HW1 2084   1.055   4.332   7.128 -0.4145 -1.2357  1.4506
  695SOL    HW2 2085   1.051   4.338   7.279 -0.6937  1.0044  1.3852
  696SOL     OW 2086   2.368   3.997   5.249  0.2047  0.1055  0.2305
  696SOL    HW1 2087   2.392   3.940   5.323 -0.4724  0.1073  0.4574
  696SOL    HW2 2088   2.452   4.024   5.212  0.5433 -0.7550  0.3385
  697SOL     OW 2089   2.227   4.734   5.017  0.0130  0.7132  0.4411
  697SOL    HW1 2090   2.146   4.721   5.067 -0.2547 -0.6594 -0.3124
  697SOL    HW2 2091   2.198   4.743   4.927  0.6052  1.8181  0.3438
  698SOL     OW 2092   4.164   0.949   4.914  0.2227 -0.2199 -0.5283
  698SOL    HW1 2093   4.123   0.969   4.830  1.4755  0.0137 -1.1030
  698SOL    HW2 2094   4.212   0.868   4.900  0.6952 -0.0163 -0.1368
  699SOL     OW 2095   4.608   1.191   6.788  0.1660 -0.1185  0.0132
  699SOL    HW1 2096   4.564   1.165   6.869 -0.7377  0.5270 -0.2595
  699SOL    HW2 2097   4.677   1.125   6.777  0.0458 -0.4558  1.0813
  700SOL     OW 2098   0.727   0.657   6.334 -0.1683  0.0442 -0.2046
  700SOL    HW1 2099   0.684   0.645   6.249 -1.9782  0.2734  0.6430
  700SOL    HW2 2100   0.771   0.741   6.326 -0.8937  0.3877 -0.7061
  701SOL     OW 2101   2.087   4.518   5.762  0.4485  0.2764  0.2371
  701SOL    HW1 2102   2.025   4.470   5.816  0.0949  1.1107  0.5940
  701SOL    HW2 2103   2.158   4.541   5.821 -1.0921  3.3778  1.0838
  702SOL     OW 2104   1.773   3.381   9.059 -0.5806  0.5132  0.2817
  702SOL    HW1 2105   1.791   3.429   8.978  1.5254  0.3394  0.5758
  702SOL    HW2 2106   1.821   3.430   9.126 -0.8736 -0.3138  1.1086
  703SOL     OW 2107   0.094   4.180   6.830 -0.2611  0.1701  0.1045
  703SOL    HW1 2108   0.150   4.153   6.757  0.1041  1.7135 -0.2240
  703SOL    HW2 2109   0.154   4.221   6.892 -0.7470  0.0257  0.6706
  704SOL     OW 2110   1.728   4.806   5.991 -0.3693 -0.6821  0.1494
  704SOL    HW1 2111   1.803   4.750   6.014  0.2992 -0.2106 -0.8141
  704SOL    HW2 2112   1.768   4.883   5.950 -1.1342  1.2783  2.7953
  705SOL     OW 2113   1.684   1.846   5.264 -0.5612  0.0046  0.1186
  705SOL    HW1 2114   1.616   1.832   5.330  1.1502 -2.2229  1.5718
  705SOL    HW2 2115   1.659   1.790   5.191 -1.6072  1.2206 -0.4885
  706SOL     OW 2116   0.371   4.901   5.835  0.0843  0.0499  0.5034
  706SOL    HW1 2117   0.361   4.964   5.763  2.5386 -0.3292 -0.2465
  706SOL    HW2 2118   0.377   4.816   5.793  1.1967 -0.2180  1.1554
  707SOL     OW 2119   4.220   0.697   5.727  0.3025  0.3581 -0.2192
  707SOL    HW1 2120   4.297   0.682   5.671  0.6787 -1.9480  0.7942
  707SOL    HW2 2121   4.244   0.772   5.782  0.9542  0.9990 -1.3443
  708SOL     OW 2122   0.388   4.655   5.689  0.0835 -0.1756  0.0220
  708SOL    HW1 2123   0.480   4.676   5.671 -0.1215 -0.7193 -1.8519
  708SOL    HW2 2124   0.378   4.564   5.663 -0.3324 -1.0914  3.0162
  709SOL     OW 2125   1.495   1.760   7.619  0.1180 -0.7439  0.5241
  709SOL    HW1 2126   1.484   1.810   7.699 -2.4221 -0.3413  0.0079
  709SOL    HW2 2127   1.546   1.817   7.561 -0.2685  0.0418  0.9490
  710SOL     OW 2128   0.615   1.791   6.580  0.0819  0.1954  0.0884
  710SOL    HW1 2129   0.610   1.813   6.488  0.0164  0.5082  0.1660
  710SOL    HW2 2130   0.647   1.871   6.622 -0.7679  0.3602  0.4517
  711SOL     OW 2131   4.586   1.300   6.075  0.3603 -0.3213  0.7077
  711SOL    HW1 2132   4.563   1.380   6.029  1.1244  0.4431  1.6135
  711SOL    HW2 2133   4.530   1.233   6.036 -1.3454  0.9138  0.8997
  712SOL     OW 2134   2.744   2.458   5.408 -0.1314 -0.0309  0.7518
  712SOL    HW1 2135   2.838   2.443   5.420  0.0809 -4.1158 -3.2612
  712SOL    HW2 2136   2.704   2.378   5.441 -2.0832  0.9406  0.8448
  713SOL     OW 2137   0.261   0.166   4.727 -0.7214 -0.6517 -0.5393
  713SOL    HW1 2138   0.318   0.232   4.767 -0.3850  0.5370 -2.8601
  713SOL    HW2 2139   0.174   0.184   4.763 -0.7922  1.6072 -1.7075
  714SOL     OW 2140   4.626   3.572   8.737  0.4376  0.7068  0.3683
  714SOL    HW1 2141   4.674   3.592   8.656  0.5906  0.1357  0.3102
  714SOL    HW2 2142   4.560   3.508   8.711  0.4812  0.5261  0.6926
  715SOL     OW 2143   2.260   1.616   5.402 -0.2451  0.1658 -0.2451
  715SOL    HW1 2144   2.302   1.602   5.317 -1.3870 -0.7865 -0.6727
  715SOL    HW2 2145   2.170   1.587   5.390  0.1927 -2.5533  2.0118
  716SOL     OW 2146   2.583   2.960   5.849  0.0493 -0.0526  0.6136
  716SOL    HW1 2147   2.646   2.908   5.799  0.6401  0.6667  0.6019
  716SOL    HW2 2148   2.516   2.897   5.876  0.0111 -0.5624 -0.5979
  717SOL     OW 2149   4.818   4.986   6.827 -0.2049 -0.3167  0.0558
  717SOL    HW1 2150   4.870   4.945   6.896  0.4274 -1.8534 -1.2660
  717SOL    HW2 2151   4.869   4.972   6.747  0.3599  3.6561 -0.4501
  718SOL     OW 2152   3.593   2.513   6.201 -0.0612 -0.4289  0.4103
  718SOL    HW1 2153   3.512   2.479   6.240 -0.1714 -0.7232 -0.0729
  718SOL    HW2 2154   3.654   2.519   6.275 -0.9088  1.0305  1.0466
  719SOL     OW 2155   1.629   3.110   5.278 -0.6810  0.5339  0.1632
  719SOL    HW1 2156   1.608   3.201   5.300  0.8499  1.0345 -0.2814
  719SOL    HW2 2157   1.703   3.089   5.335 -0.6051 -0.2100 -0.2028
  720SOL     OW 2158   2.152   3.439   5.860  0.3698 -0.4230  0.0696
  720SOL    HW1 2159   2.155   3.526   5.900 -1.7614  0.8277 -2.2276
  720SOL    HW2 2160   2.062   3.409   5.877  1.1521 -2.3784  1.0726
  721SOL     OW 2161   0.980   1.418   9.493 -0.4469  0.0089  0.1588
  721SOL    HW1 2162   0.926   1.357   9.443 -0.0583 -0.2053 -0.0049
  721SOL    HW2 2163   0.969   1.502   9.448  1.2177 -0.5198 -1.3306
  722SOL     OW 2164   0.794   1.353   7.729  0.2289  0.3155  0.2403
  722SOL    HW1 2165   0.791   1.383   7.820  0.7174 -1.2732  0.8069
  722SOL    HW2 2166   0.762   1.263   7.731 -0.1122  0.3727 -1.2267
  723SOL     OW 2167   1.495   1.782   6.855 -0.5574 -0.2651 -0.1564
  723SOL    HW1 2168   1.477   1.777   6.762 -1.1237 -2.1161  0.0133
  723SOL    HW2 2169   1.538   1.698   6.876  0.2360  0.4231  1.1091
  724SOL     OW 2170   4.746   2.978   4.961  0.3483 -0.0208  0.2451
  724SOL    HW1 2171   4.706   2.895   4.934 -0.2390  0.1415  0.5758
  724SOL    HW2 2172   4.781   2.960   5.049 -0.0235  0.1490  0.4323
  725SOL     OW 2173   0.355   3.718   6.802 -0.9184  0.0292 -0.8763
  725SOL    HW1 2174   0.299   3.775   6.855 -1.1103 -1.1185  0.2103
  725SOL    HW2 2175   0.294   3.663   6.753 -0.8035 -1.2434  0.3293
  726SOL     OW 2176   4.683   4.415   5.318  0.0722 -0.9274 -0.1146
  726SOL    HW1 2177   4.594   4.381   5.329 -0.2921 -0.0325 -0.1403
  726SOL    HW2 2178   4.729   4.388   5.397 -0.7049 -0.0104  0.6865
  727SOL     OW 2179   0.339   1.469   4.781  0.0443  0.1399 -0.4483
  727SOL    HW1 2180   0.299   1.530   4.720  0.6335  1.5820  0.5561
  727SOL    HW2 2181   0.432   1.492   4.782  0.1845 -0.3907  0.3647
  728SOL     OW 2182   0.636   3.825   7.824 -0.6757  0.0035 -0.3004
  728SOL    HW1 2183   0.717   3.774   7.832 -1.1215 -0.5143  1.0589
  728SOL    HW2 2184   0.655   3.907   7.870 -0.9939 -0.2080  0.2103
  729SOL     OW 2185   4.223   3.112   6.576  0.6536  0.7761 -0.2778
  729SOL    HW1 2186   4.213   3.207   6.586  1.3798  0.8822 -0.4758
  729SOL    HW2 2187   4.139   3.076   6.605  0.5319  1.4483  0.2374
  730SOL     OW 2188   0.689   2.688   4.502  0.0026 -0.0310  0.1148
  730SOL    HW1 2189   0.669   2.781   4.494 -0.7080  0.0748  2.4054
  730SOL    HW2 2190   0.766   2.685   4.559 -0.6628 -0.8482  1.0116
  731SOL     OW 2191   3.595   3.144   5.699 -0.4608 -0.1500 -0.0430
  731SOL    HW1 2192   3.626   3.231   5.723  0.4198 -0.9248  1.7492
  731SOL    HW2 2193   3.671   3.100   5.661 -0.7334 -0.3628 -0.3571
  732SOL     OW 2194   4.636   3.138   6.325  0.4060  0.4841  0.0004
  732SOL    HW1 2195   4.550   3.129   6.366  0.4306  0.6960  0.0995
  732SOL    HW2 2196   4.617   3.176   6.239  0.3534  0.0297 -0.1934
  733SOL     OW 2197   1.069   2.896   4.929  0.1992  0.0843  0.0061
  733SOL    HW1 2198   1.088   2.859   5.015  0.9136 -0.5092 -0.3941
  733SOL    HW2 2199   1.041   2.821   4.876 -0.9589  0.5574 -0.0908
  734SOL     OW 2200   1.383   0.337   5.681 -0.2676  0.2868 -0.1727
  734SOL    HW1 2201   1.324   0.309   5.611 -1.5793 -2.2548  1.7749
  734SOL    HW2 2202   1.337   0.409   5.723 -2.0529 -1.4939  1.1581
  735SOL     OW 2203   1.409   3.366   5.505 -0.6011  0.0402 -0.2956
  735SOL    HW1 2204   1.446   3.289   5.548 -2.3134  0.8527  2.9854
  735SOL    HW2 2205   1.471   3.436   5.522  0.1119 -0.1775 -1.7918
  736SOL     OW 2206   4.552   3.840   5.810  0.1462  0.6466 -0.0623
  736SOL    HW1 2207   4.494   3.902   5.855 -0.0746  0.2228  0.2465
  736SOL    HW2 2208   4.601   3.894   5.748  1.5569  1.5525  1.7117
  737SOL     OW 2209   2.446   0.393   5.453 -0.0506  0.8283  0.3413
  737SOL    HW1 2210   2.485   0.316   5.494  1.6467  1.2876 -0.3078
  737SOL    HW2 2211   2.357   0.397   5.487 -0.4812 -1.9045 -0.2570
  738SOL     OW 2212   4.300   3.632   5.614  0.0191 -0.3944  0.2029
  738SOL    HW1 2213   4.279   3.699   5.549  1.8539 -0.6984 -0.7775
  738SOL    HW2 2214   4.308   3.680   5.696 -0.9890  0.2011 -0.0186
  739SOL     OW 2215   1.421   2.644   5.154 -0.3582  0.0916  0.4493
  739SOL    HW1 2216   1.325   2.646   5.148 -0.4555 -2.6500 -0.4709
  739SOL    HW2 2217   1.451   2.659   5.065 -0.2502 -3.7342 -0.3443
  740SOL     OW 2218   0.038   0.493   8.063  0.0835  0.2035 -0.3579
  740SOL    HW1 2219   0.112   0.512   8.005  0.1909  0.6914 -0.0701
  740SOL    HW2 2220  -0.016   0.432   8.013  0.8195 -0.3825 -0.4610
  741SOL     OW 2221   1.969   3.487   7.231  0.0458  0.0711  0.5184
  741SOL    HW1 2222   2.037   3.541   7.271  0.0673  1.5895 -1.4034
  741SOL    HW2 2223   1.887   3.532   7.253 -0.4148 -1.6509  2.6703
  742SOL     OW 2224   2.763   2.427   5.705 -0.0380 -0.3591  0.4255
  742SOL    HW1 2225   2.796   2.466   5.786 -0.2326 -1.5344  1.0995
  742SOL    HW2 2226   2.837   2.433   5.644 -0.1943  1.3651  0.3747
  743SOL     OW 2227   4.497   1.409   7.431  0.3510 -0.4415  0.3353
  743SOL    HW1 2228   4.591   1.389   7.430  0.8506  1.5231 -1.9535
  743SOL    HW2 2229   4.477   1.426   7.523  2.1028 -1.4026  0.9510
  744SOL     OW 2230   2.398   4.136   7.357 -0.8464  0.1828  0.7993
  744SOL    HW1 2231   2.406   4.119   7.451 -0.6743 -3.0396  0.3127
  744SOL    HW2 2232   2.303   4.140   7.342 -0.9580 -1.4868  0.8529
  745SOL     OW 2233   2.514   1.248   9.041  0.1289 -0.3133 -0.1284
  745SOL    HW1 2234   2.426   1.212   9.049 -0.6883  1.6886  0.4618
  745SOL    HW2 2235   2.569   1.189   9.091 -1.1755 -0.6512  0.9714
  746SOL     OW 2236   4.819   0.185   5.166 -0.3488  0.2403  0.0088
  746SOL    HW1 2237   4.897   0.129   5.161 -0.9188 -0.7198  1.4545
  746SOL    HW2 2238   4.819   0.232   5.082  1.9802  0.5464  0.0978
  747SOL     OW 2239   2.335   0.131   7.980  0.3195 -1.2118 -0.4578
  747SOL    HW1 2240   2.365   0.089   8.061  1.1742  0.0567 -0.0876
  747SOL    HW2 2241   2.258   0.182   8.007  0.5763 -0.8270 -0.4388
  748SOL     OW 2242   1.019   0.498   4.985  0.6303 -0.4836 -0.0721
  748SOL    HW1 2243   0.937   0.533   4.950 -0.5311 -1.4726  1.4876
  748SOL    HW2 2244   1.075   0.574   4.997  0.4164  0.0978 -2.2351
  749SOL     OW 2245   3.416   3.644   6.610  0.2340  0.4923 -1.0834
  749SOL    HW1 2246   3.388   3.567   6.561 -2.1614  1.3187 -1.1522
  749SOL    HW2 2247   3.344   3.707   6.599  0.4997  1.4540  1.7658
  750SOL     OW 2248   2.728   1.299   7.313  0.4882 -0.2275 -0.3345
  750SOL    HW1 2249   2.681   1.322   7.234  3.1640  0.2978 -1.8885
  750SOL    HW2 2250   2.668   1.242   7.361 -3.1428  3.2245 -0.2748
  751SOL     OW 2251   1.403   3.370   6.254 -0.6743  0.5477 -0.2737
  751SOL    HW1 2252   1.366   3.405   6.335 -1.4173  0.1017 -0.4098
  751SOL    HW2 2253   1.337   3.308   6.222  0.2527 -0.3711 -0.4598
  752SOL     OW 2254   1.587   0.641   5.485 -0.4439 -0.1413 -0.0355
  752SOL    HW1 2255   1.661   0.647   5.544  0.2886 -1.3598 -0.7957
  752SOL    HW2 2256   1.625   0.644   5.397 -1.1560 -1.8509 -0.4495
  753SOL     OW 2257   1.340   1.949   5.135  0.1846 -0.2871 -0.8789
  753SOL    HW1 2258   1.350   1.860   5.102  0.6694 -0.3389 -0.6029
  753SOL    HW2 2259   1.417   1.996   5.103 -0.2370  0.1238 -1.3069
  754SOL     OW 2260   0.533   1.649   7.210 -0.7575  0.0946  0.3491
  754SOL    HW1 2261   0.474   1.623   7.140 -2.4991  0.4154  1.6298
  754SOL    HW2 2262   0.475   1.677   7.281  0.9313 -0.2528  1.9413
  755SOL     OW 2263   2.537   0.163   5.582 -0.3032  0.3993 -0.6941
  755SOL    HW1 2264   2.596   0.093   5.555 -1.1423 -1.3311  1.5944
  755SOL    HW2 2265   2.590   0.220   5.637 -0.0506  0.5215 -1.0665
  756SOL     OW 2266   3.923   1.854   9.096  0.3252 -0.3659 -0.0219
  756SOL    HW1 2267   3.893   1.945   9.093  2.9972  0.6470  0.7636
  756SOL    HW2 2268   3.945   1.839   9.188  2.0718 -1.0160 -0.5068
  757SOL     OW 2269   0.378   3.579   8.245  0.4330  0.2856 -0.1616
  757SOL    HW1 2270   0.419   3.621   8.169  0.2257  0.9444  0.0864
  757SOL    HW2 2271   0.288   3.563   8.217  1.1369 -2.4250 -1.2158
  758SOL     OW 2272   1.081   4.784   7.766  0.1732  0.2021  0.4266
  758SOL    HW1 2273   1.143   4.740   7.824 -0.1396  0.9047  1.3233
  758SOL    HW2 2274   1.030   4.713   7.727  1.2489 -0.3539  0.0019
  759SOL     OW 2275   1.081   2.142   5.492 -0.3371  0.0401 -0.3117
  759SOL    HW1 2276   1.059   2.166   5.582 -0.9496 -0.5048 -0.3092
  759SOL    HW2 2277   1.043   2.212   5.439  1.7630  1.4644 -0.0536
  760SOL     OW 2278   3.285   3.425   6.189  0.1423 -0.1121  0.6445
  760SOL    HW1 2279   3.359   3.481   6.213 -0.3427  0.3067  1.1685
  760SOL    HW2 2280   3.292   3.417   6.093 -0.1558  1.3919  0.4749
  761SOL     OW 2281   3.433   3.005   7.387 -0.1428 -0.4106  0.2315
  761SOL    HW1 2282   3.486   2.985   7.310  2.4573 -0.0374  1.8181
  761SOL    HW2 2283   3.461   3.092   7.414 -0.7093 -0.6896  1.8347
  762SOL     OW 2284   2.140   3.162   7.634  0.5166  0.7570  0.6462
  762SOL    HW1 2285   2.112   3.253   7.633  0.8471  0.8595 -0.2940
  762SOL    HW2 2286   2.165   3.143   7.543 -0.1580 -0.4584  0.6869
  763SOL     OW 2287   2.283   1.644   4.897 -0.8233  0.4235 -0.6304
  763SOL    HW1 2288   2.261   1.650   4.804  0.5685  0.5749 -0.9681
  763SOL    HW2 2289   2.366   1.689   4.905 -0.1105 -0.9814  0.4016
  764SOL     OW 2290   1.867   3.592   5.155 -0.2169 -0.3342 -0.1581
  764SOL    HW1 2291   1.795   3.626   5.207 -0.1909  1.0494 -0.9948
  764SOL    HW2 2292   1.942   3.591   5.215 -0.5973 -0.4452  0.3155
  765SOL     OW 2293   1.539   0.115   5.469  0.2329  0.4682 -0.2016
  765SOL    HW1 2294   1.565   0.194   5.516  1.8243 -1.4170  2.3858
  765SOL    HW2 2295   1.455   0.137   5.429  1.3029  3.8700 -0.8735
  766SOL     OW 2296   1.108   4.914   6.879 -0.4743  0.5045 -0.0177
  766SOL    HW1 2297   1.132   4.904   6.971 -1.1202 -0.7670  0.0379
  766SOL    HW2 2298   1.081   4.826   6.852 -3.1956  1.4115 -0.5814
  767SOL     OW 2299   2.631   4.421   6.449 -0.0056 -0.0367 -0.1818
  767SOL    HW1 2300   2.599   4.331   6.452  0.1666 -0.1098  3.6019
  767SOL    HW2 2301   2.713   4.416   6.400 -0.2948 -1.8002 -0.5427
  768SOL     OW 2302   1.471   2.428   6.691  0.5681 -0.6535 -0.3843
  768SOL    HW1 2303   1.417   2.479   6.631 -0.3746 -2.0013 -0.7463
  768SOL    HW2 2304   1.418   2.350   6.710  1.5178 -1.0117  0.9407
  769SOL     OW 2305   3.632   3.957   6.323  0.0927 -0.0843 -0.3415
  769SOL    HW1 2306   3.706   4.017   6.313  0.3997 -0.3211  0.4722
  769SOL    HW2 2307   3.583   3.991   6.398 -1.2505  0.6994 -1.5185
  770SOL     OW 2308   3.777   0.576   5.360 -0.5306  0.1590 -0.2876
  770SOL    HW1 2309   3.683   0.566   5.374 -0.9267 -0.4861 -2.8839
  770SOL    HW2 2310   3.784   0.641   5.290  0.8884 -0.4354 -0.7411
  771SOL     OW 2311   2.217   0.311   6.334 -0.5838  0.0451  0.5115
  771SOL    HW1 2312   2.205   0.254   6.410  0.5173  0.9039  1.3719
  771SOL    HW2 2313   2.275   0.381   6.366  1.4518 -0.5523 -1.5959
  772SOL     OW 2314   0.840   0.393   5.301 -0.3394 -0.1003 -0.1158
  772SOL    HW1 2315   0.883   0.402   5.216 -1.4309 -0.8205 -0.7734
  772SOL    HW2 2316   0.747   0.382   5.279 -0.6395 -0.2275  1.1742
  773SOL     OW 2317   3.128   4.219   5.472 -0.7747  0.3911 -0.8541
  773SOL    HW1 2318   3.183   4.290   5.438  0.5799  0.3606  1.1089
  773SOL    HW2 2319   3.171   4.139   5.441 -0.7905  0.3895 -0.8721
  774SOL     OW 2320   0.477   3.740   6.492  0.1898 -0.5189 -0.1295
  774SOL    HW1 2321   0.544   3.677   6.466  0.9052  0.2084 -0.1185
  774SOL    HW2 2322   0.480   3.741   6.588 -0.6442 -1.3158 -0.0850
  775SOL     OW 2323   0.510   2.202   5.014  0.1538  0.2731 -0.1936
  775SOL    HW1 2324   0.554   2.162   4.939 -2.1965 -2.0776 -0.4666
  775SOL    HW2 2325   0.579   2.250   5.060  2.7632 -2.3220 -1.1151
  776SOL     OW 2326   4.615   2.518   5.774  0.5018  0.3176 -0.3549
  776SOL    HW1 2327   4.648   2.577   5.841  0.7185  0.4699 -0.5942
  776SOL    HW2 2328   4.570   2.449   5.823  2.4969 -0.7394  0.0496
  777SOL     OW 2329   4.086   1.661   5.303  0.0465  0.1788  0.2299
  777SOL    HW1 2330   4.153   1.714   5.346 -3.0172  2.1035  3.2187
  777SOL    HW2 2331   4.068   1.590   5.365 -0.3616 -0.5567 -0.7037
  778SOL     OW 2332   0.421   2.620   4.649 -0.0651  0.9390 -0.0477
  778SOL    HW1 2333   0.357   2.689   4.632  0.9880  1.9082 -0.2360
  778SOL    HW2 2334   0.486   2.629   4.579  0.7563  0.5844  0.6432
  779SOL     OW 2335   4.457   2.010   5.978 -0.1076 -0.0830  0.0254
  779SOL    HW1 2336   4.438   2.013   6.072  2.7080 -1.7896  0.7448
  779SOL    HW2 2337   4.454   1.917   5.955 -1.5378  0.3494 -1.8259
  780SOL     OW 2338   0.340   1.951   5.045 -0.2596  0.1031  0.5617
  780SOL    HW1 2339   0.247   1.958   5.024 -0.5812 -2.4294  0.9018
  780SOL    HW2 2340   0.375   2.038   5.025 -2.5108  0.8674 -0.3991
  781SOL     OW 2341   3.872   3.353   4.892  0.0484 -0.1427  0.6902
  781SOL    HW1 2342   3.947   3.403   4.924  0.5103 -0.0246 -0.4993
  781SOL    HW2 2343   3.799   3.414   4.895  0.4765  0.4401 -0.1531
  782SOL     OW 2344   1.972   1.615   5.530 -0.1324  0.3329  0.2341
  782SOL    HW1 2345   1.984   1.659   5.446  0.7930  0.4515  0.4225
  782SOL    HW2 2346   1.918   1.538   5.509 -0.9461  1.0136 -0.2539
  783SOL     OW 2347   1.975   3.027   5.267 -0.4137 -0.6686 -0.1307
  783SOL    HW1 2348   1.884   3.002   5.254 -0.2450 -1.3103 -0.0840
  783SOL    HW2 2349   2.016   3.018   5.181 -0.5910  0.4833 -0.3558
  784SOL     OW 2350   1.659   1.240   5.665  0.2553  0.2573  0.8964
  784SOL    HW1 2351   1.677   1.163   5.610  2.0823  2.3526 -1.6765
  784SOL    HW2 2352   1.741   1.256   5.711 -0.4661  0.0774  2.3087
  785SOL     OW 2353   3.263   2.345   7.594 -0.0714 -0.2346 -0.4657
  785SOL    HW1 2354   3.173   2.358   7.565 -0.4016 -0.2955  0.4928
  785SOL    HW2 2355   3.298   2.278   7.535 -1.4685 -2.0995  0.7226
  786SOL     OW 2356   4.002   2.643   8.420 -0.4914  0.3123  0.4013
  786SOL    HW1 2357   4.004   2.643   8.516  1.3868 -1.6011  0.4402
  786SOL    HW2 2358   3.970   2.556   8.397  1.3757 -0.1413 -0.6505
  787SOL     OW 2359   2.537   2.947   5.039 -0.1112  0.1931  0.2862
  787SOL    HW1 2360   2.551   2.976   5.129  4.4036  0.0602 -0.1248
  787SOL    HW2 2361   2.597   2.873   5.029  0.5669  1.0607 -3.1660
  788SOL     OW 2362   3.646   3.713   6.714 -0.3303 -0.1303 -0.1596
  788SOL    HW1 2363   3.576   3.672   6.664  1.1582 -2.9024 -0.1891
  788SOL    HW2 2364   3.626   3.692   6.805  1.7036 -3.4042 -0.3105
  789SOL     OW 2365   1.638   2.585   6.424  0.0343 -0.6051 -0.4136
  789SOL    HW1 2366   1.606   2.629   6.502  0.0678 -3.2708  1.2146
  789SOL    HW2 2367   1.684   2.507   6.456  2.2586 -0.5135 -2.9856
  790SOL     OW 2368   2.294   3.992   6.848  0.4585  0.1232 -0.2648
  790SOL    HW1 2369   2.245   3.921   6.808  0.3584  1.5978 -2.9604
  790SOL    HW2 2370   2.304   3.965   6.940 -2.9632 -1.4874 -0.2160
  791SOL     OW 2371   3.939   3.846   5.081  0.1834 -0.0656 -0.6043
  791SOL    HW1 2372   3.869   3.857   5.016  0.8560  1.0691 -1.1713
  791SOL    HW2 2373   3.961   3.753   5.078 -0.4192 -0.1946 -1.3463
  792SOL     OW 2374   3.440   4.134   9.416 -0.2808 -0.6795  0.3343
  792SOL    HW1 2375   3.494   4.068   9.460  0.1517 -0.4312  0.1924
  792SOL    HW2 2376   3.421   4.199   9.483  0.5141 -0.2192  0.1294
  793SOL     OW 2377   2.144   0.556   9.662  0.3228  0.2169  0.1194
  793SOL    HW1 2378   2.232   0.518   9.659  0.2033  0.0145 -1.8029
  793SOL    HW2 2379   2.145   0.613   9.739  2.0402  0.0109  0.2784
  794SOL     OW 2380   1.382   4.927   7.693 -0.0472 -0.1969  0.1988
  794SOL    HW1 2381   1.451   4.975   7.738  0.6518 -0.4172 -0.5990
  794SOL    HW2 2382   1.326   4.995   7.655 -0.3428 -0.0170  0.9428
  795SOL     OW 2383   1.678   4.332   8.754 -0.2604  0.4765  0.5827
  795SOL    HW1 2384   1.670   4.236   8.751  0.5714  0.4285 -0.7377
  795SOL    HW2 2385   1.591   4.362   8.782 -1.2715 -0.5785 -1.2371
  796SOL     OW 2386   0.558   2.692   7.838 -0.2336 -0.1340  0.1831
  796SOL    HW1 2387   0.564   2.777   7.794 -0.7046 -0.1235  0.1324
  796SOL    HW2 2388   0.476   2.696   7.887 -0.9639 -1.0536 -0.9060
  797SOL     OW 2389   1.482   1.884   9.405  0.1764  0.4603  0.3761
  797SOL    HW1 2390   1.496   1.814   9.342  0.5672  1.0394 -0.1967
  797SOL    HW2 2391   1.527   1.960   9.367  0.3186  0.8527  1.2874
  798SOL     OW 2392   1.307   0.865   7.618 -0.4746 -0.1272  0.0460
  798SOL    HW1 2393   1.345   0.952   7.633 -0.9723  0.1364 -0.2096
  798SOL    HW2 2394   1.250   0.877   7.542  0.8987 -1.0995 -1.2058
  799SOL     OW 2395   4.348   0.982  10.073  0.4385  0.0164  0.6370
  799SOL    HW1 2396   4.332   0.990   9.979 -1.4309  0.4798  0.9478
  799SOL    HW2 2397   4.388   1.066  10.098 -1.4839  0.9932  0.6488
  800SOL     OW 2398   0.794   2.532   6.384  0.6127 -0.0426 -0.1521
  800SOL    HW1 2399   0.709   2.491   6.367  1.7363 -2.1268 -1.1729
  800SOL    HW2 2400   0.853   2.458   6.400  1.7901  1.4080  3.0017
  801SOL     OW 2401   1.472   3.144   9.468  0.3183 -0.3792  0.1080
  801SOL    HW1 2402   1.503   3.094   9.393 -0.7996  2.7777 -2.7356
  801SOL    HW2 2403   1.536   3.213   9.479 -0.3998  0.1763  0.9288
  802SOL     OW 2404   4.852   2.904   5.635 -0.6787  0.3260 -0.3501
  802SOL    HW1 2405   4.842   2.999   5.641  0.9062  0.4552  1.0371
  802SOL    HW2 2406   4.771   2.874   5.595 -1.6093  2.1708  0.0271
  803SOL     OW 2407   1.224   4.589   9.711 -0.0763  0.2483 -1.2181
  803SOL    HW1 2408   1.194   4.657   9.650  0.2457 -0.1978 -1.8778
  803SOL    HW2 2409   1.170   4.602   9.789 -0.1785  1.1180 -1.4182
  804SOL     OW 2410   3.976   3.779   8.132  0.0340 -0.5021  0.0575
  804SOL    HW1 2411   4.045   3.807   8.192 -2.0974 -0.6183  2.7445
  804SOL    HW2 2412   3.975   3.684   8.140 -0.4201 -0.4996  0.0552
  805SOL     OW 2413   3.697   2.832   5.408 -0.3354 -0.4241 -0.2219
  805SOL    HW1 2414   3.716   2.877   5.490 -1.4196  1.7395 -1.0746
  805SOL    HW2 2415   3.779   2.835   5.359  0.0852 -0.9718  0.4416
  806SOL     OW 2416   3.389   4.213   7.555 -0.4671 -0.9220 -0.3423
  806SOL    HW1 2417   3.405   4.247   7.467  0.8435  1.7351  0.7922
  806SOL    HW2 2418   3.473   4.177   7.583  0.3273  1.7473  1.1060
  807SOL     OW 2419   4.765   1.473   8.273  0.2153  0.0388  0.2834
  807SOL    HW1 2420   4.747   1.387   8.312 -2.5402  0.9964  1.3304
  807SOL    HW2 2421   4.718   1.472   8.190  2.9843 -0.5960 -1.4356
  808SOL     OW 2422   1.861   4.395   6.812  0.1144 -0.0869 -0.5652
  808SOL    HW1 2423   1.870   4.312   6.765 -2.2042 -0.7935  0.0761
  808SOL    HW2 2424   1.810   4.450   6.753  0.0407  0.1999 -0.2373
  809SOL     OW 2425   4.176   3.169   9.139 -0.1450  0.1182 -0.4196
  809SOL    HW1 2426   4.216   3.255   9.128  0.4367 -0.0876  0.0670
  809SOL    HW2 2427   4.099   3.172   9.083 -0.0566  0.9098 -0.5169
  810SOL     OW 2428   2.874   3.049   7.092 -0.3801 -0.0473  0.0761
  810SOL    HW1 2429   2.833   2.996   7.024 -0.1850 -0.8048  0.5306
  810SOL    HW2 2430   2.935   3.106   7.045 -0.7344 -0.0884 -0.4427
  811SOL     OW 2431   0.696   1.535   5.741 -0.7347 -0.1126  0.1544
  811SOL    HW1 2432   0.762   1.535   5.672 -2.0666  0.5727 -1.1798
  811SOL    HW2 2433   0.723   1.464   5.800  1.3380  0.3686 -0.1498
  812SOL     OW 2434   1.157   2.532   7.988 -0.5183 -0.2646  0.3632
  812SOL    HW1 2435   1.063   2.514   7.985 -0.9410  1.8625 -0.4670
  812SOL    HW2 2436   1.171   2.576   8.072 -0.4645  0.3699  0.0278
  813SOL     OW 2437   2.542   4.363   7.835  0.0756 -0.2188  0.2351
  813SOL    HW1 2438   2.583   4.287   7.794  2.7230  0.3813  1.5344
  813SOL    HW2 2439   2.549   4.347   7.929  0.1474  1.3277  0.5322
  814SOL     OW 2440   4.936   2.799   7.458 -0.0756 -0.0465 -0.4732
  814SOL    HW1 2441   5.003   2.757   7.404 -0.2518 -0.6461 -0.2401
  814SOL    HW2 2442   4.904   2.872   7.404  3.0147  2.3669  0.6827
  815SOL     OW 2443   0.770   1.198   8.203  0.1135 -0.0242  0.0451
  815SOL    HW1 2444   0.688   1.229   8.242 -0.3621  1.8949 -2.2928
  815SOL    HW2 2445   0.743   1.127   8.144 -0.4089  2.3483 -2.7997
  816SOL     OW 2446   0.721   0.549   8.182  0.0624 -0.5123  0.2350
  816SOL    HW1 2447   0.793   0.487   8.192  0.8939  0.4304  0.2730
  816SOL    HW2 2448   0.660   0.527   8.252 -0.1707 -1.9462 -0.3889
  817SOL     OW 2449   4.184   0.735   6.329 -0.6772 -0.8800 -0.3464
  817SOL    HW1 2450   4.222   0.664   6.277  0.2054  0.1668 -1.1883
  817SOL    HW2 2451   4.097   0.703   6.353 -0.2696 -2.2794 -0.6074
  818SOL     OW 2452   2.261   4.961   9.007  0.1231  0.0153  0.5984
  818SOL    HW1 2453   2.206   4.930   9.079  0.4398  1.3015  1.4139
  818SOL    HW2 2454   2.347   4.924   9.026  0.0525 -0.2021  0.5026
  819SOL     OW 2455   1.073   0.466   8.868 -0.4794  0.0579  0.5575
  819SOL    HW1 2456   1.067   0.377   8.834  1.0726 -0.0172  0.3684
  819SOL    HW2 2457   0.983   0.496   8.876 -0.9944 -1.2632 -0.0797
  820SOL     OW 2458   1.856   1.903   8.314  0.4623 -0.4274 -0.2798
  820SOL    HW1 2459   1.783   1.873   8.259 -0.3166  0.5592  0.1849
  820SOL    HW2 2460   1.823   1.895   8.404  1.9514 -2.6517  0.1657
  821SOL     OW 2461   4.939   2.637   5.029  0.0950  0.0857  0.3660
  821SOL    HW1 2462   5.008   2.620   4.966 -0.0458 -2.7791  0.8438
  821SOL    HW2 2463   4.985   2.664   5.109  0.3541  2.0538 -0.3807
  822SOL     OW 2464   2.176   2.249   8.226 -0.0326  0.2305  0.7077
  822SOL    HW1 2465   2.089   2.240   8.266 -0.7497 -0.2352 -0.8934
  822SOL    HW2 2466   2.185   2.172   8.170 -0.2990  2.2249 -2.2893
  823SOL     OW 2467   2.633   1.637   9.424 -0.1650 -0.3881 -0.0397
  823SOL    HW1 2468   2.637   1.645   9.329  0.7466  1.2582  0.0995
  823SOL    HW2 2469   2.615   1.726   9.455 -0.7191 -0.9431  1.3289
  824SOL     OW 2470   4.593   4.928   6.625  0.9033  0.1128  0.0267
  824SOL    HW1 2471   4.661   4.976   6.577  1.0101  0.4998  0.5500
  824SOL    HW2 2472   4.642   4.875   6.689  0.7339  0.1138  0.1583
  825SOL     OW 2473   3.772   4.638   7.061  0.0423  0.1465  0.3370
  825SOL    HW1 2474   3.853   4.615   7.016  1.7067  1.7721  2.2598
  825SOL    HW2 2475   3.800   4.696   7.132 -2.7738  0.3737  1.4025
  826SOL     OW 2476   3.550   1.838   8.328  0.5907 -0.0654  0.3949
  826SOL    HW1 2477   3.581   1.833   8.238 -0.7709  0.7565 -0.1384
  826SOL    HW2 2478   3.455   1.839   8.322  0.4432  2.8800  1.6272
  827SOL     OW 2479   4.607   3.692   8.147  0.3565  0.2389  0.0060
  827SOL    HW1 2480   4.667   3.745   8.199  1.0974 -1.3503  0.8252
  827SOL    HW2 2481   4.533   3.674   8.206  0.0819  0.3960 -0.2840
  828SOL     OW 2482   0.932   4.220   4.494 -0.2261 -0.0247 -0.0774
  828SOL    HW1 2483   0.886   4.230   4.411 -0.9953  1.8168  0.5239
  828SOL    HW2 2484   1.007   4.279   4.487 -0.8215  0.8817  0.8508
  829SOL     OW 2485   1.864   2.051   6.033  0.5282 -0.0175 -0.3599
  829SOL    HW1 2486   1.778   2.055   5.992  0.1333 -2.1789  0.1251
  829SOL    HW2 2487   1.905   1.973   5.996  1.7087  0.1670  0.4979
  830SOL     OW 2488   2.668   1.735   6.729 -0.1880  0.3948  0.8725
  830SOL    HW1 2489   2.669   1.801   6.660  1.5071 -0.8969 -0.4611
  830SOL    HW2 2490   2.581   1.695   6.723 -1.5703  2.9403  2.2750
  831SOL     OW 2491   1.245   0.202   9.385  0.5633  0.0028  0.2906
  831SOL    HW1 2492   1.278   0.286   9.417  1.9596 -1.6491  3.6169
  831SOL    HW2 2493   1.150   0.214   9.382  0.7981  2.4071 -1.8989
  832SOL     OW 2494   2.241   0.857   5.323 -0.9004 -0.5156  0.2744
  832SOL    HW1 2495   2.192   0.869   5.404 -0.0011  3.7178  0.4421
  832SOL    HW2 2496   2.175   0.859   5.254 -1.3836 -0.1898  0.7351
  833SOL     OW 2497   4.139   3.941   8.680 -0.1582 -0.7092 -0.4797
  833SOL    HW1 2498   4.055   3.917   8.641  0.1429 -0.6607 -1.1728
  833SOL    HW2 2499   4.116   4.005   8.747 -0.7821 -1.5380  0.1234
  834SOL     OW 2500   2.382   1.114   7.345  0.6358 -0.6439  0.2963
  834SOL    HW1 2501   2.460   1.093   7.396  2.1207 -2.3523 -2.3913
  834SOL    HW2 2502   2.411   1.106   7.254 -2.3297  0.2084 -0.8368
  835SOL     OW 2503   3.333   2.869   9.812  0.2664 -0.1628 -0.3556
  835SOL    HW1 2504   3.251   2.895   9.769 -0.3894 -0.9416  0.3953
  835SOL    HW2 2505   3.363   2.948   9.857 -0.3628 -0.0272 -0.1715
  836SOL     OW 2506   1.801   1.986   7.691  0.6547 -0.0275 -0.9850
  836SOL    HW1 2507   1.800   2.015   7.600  0.1156 -1.6215 -1.5263
  836SOL    HW2 2508   1.864   2.044   7.735  0.3259  1.2790 -2.1767
  837SOL     OW 2509   3.820   1.461   9.675  0.2957 -0.4346 -0.7738
  837SOL    HW1 2510   3.844   1.368   9.674  0.3582 -0.4171 -1.2391
  837SOL    HW2 2511   3.900   1.505   9.705  0.0063 -0.5927  0.2807
  838SOL     OW 2512   1.558   3.159   5.650 -0.3177  0.1178  0.4520
  838SOL    HW1 2513   1.619   3.109   5.596  0.7295  3.0993 -1.4080
  838SOL    HW2 2514   1.607   3.176   5.731  0.7039  1.0201 -0.3255
  839SOL     OW 2515   3.161   2.042   8.508  0.4112  0.0444  0.2903
  839SOL    HW1 2516   3.109   2.117   8.536  0.8532  0.3236  0.3773
  839SOL    HW2 2517   3.239   2.081   8.467  0.4724 -0.3646  0.0157
  840SOL     OW 2518   0.877   1.688   8.147  0.3956 -0.1535  0.6177
  840SOL    HW1 2519   0.921   1.607   8.122  1.8302  0.5382  0.7635
  840SOL    HW2 2520   0.790   1.661   8.176 -0.2984 -1.3292 -2.2106
  841SOL     OW 2521   2.184   0.957   8.214 -0.0824 -0.0293  0.3345
  841SOL    HW1 2522   2.230   1.040   8.228 -0.8811  0.9132 -2.0682
  841SOL    HW2 2523   2.252   0.895   8.189  0.3392  0.3537  0.5273
  842SOL     OW 2524   0.025   0.420   8.852  0.6294 -0.0719 -0.6208
  842SOL    HW1 2525   0.095   0.402   8.788 -2.0931 -1.0224 -3.5908
  842SOL    HW2 2526  -0.010   0.505   8.825  0.0224 -0.0497  0.2273
  843SOL     OW 2527   0.706   3.688  10.121 -0.0543 -0.1043  0.5459
  843SOL    HW1 2528   0.772   3.756  10.105  2.1288 -1.5862  2.5849
  843SOL    HW2 2529   0.710   3.631  10.044  0.2321  0.4311  0.1592
  844SOL     OW 2530   4.614   1.236   8.569  0.4025  0.1528  0.5670
  844SOL    HW1 2531   4.612   1.140   8.569 -0.4804  0.0689 -2.3220
  844SOL    HW2 2532   4.667   1.258   8.493 -0.4127  1.9605  0.4865
  845SOL     OW 2533   1.113   4.065   8.865 -0.2109  0.0862  0.3268
  845SOL    HW1 2534   1.115   4.141   8.923 -2.0770  0.7841 -0.4320
  845SOL    HW2 2535   1.050   4.006   8.905 -0.3218 -0.1294 -0.1550
  846SOL     OW 2536   2.839   2.231   7.606 -0.5734  0.6865 -0.5992
  846SOL    HW1 2537   2.791   2.269   7.680 -0.6889  1.0689 -0.8665
  846SOL    HW2 2538   2.887   2.158   7.644  0.5227  1.7615  0.1719
  847SOL     OW 2539   3.553   1.271   6.428 -0.5156 -0.0227 -0.4324
  847SOL    HW1 2540   3.615   1.330   6.470  0.4809 -1.4457  0.1829
  847SOL    HW2 2541   3.598   1.186   6.426 -2.6517 -1.2863  0.6151
  848SOL     OW 2542   4.812   0.694   8.534  0.2130  0.2168  0.1877
  848SOL    HW1 2543   4.795   0.608   8.496  3.1635 -0.3058 -0.2244
  848SOL    HW2 2544   4.766   0.755   8.476  1.0732 -0.8738 -1.7543
  849SOL     OW 2545   0.176   2.643   7.439 -0.5337  0.5315  0.3011
  849SOL    HW1 2546   0.176   2.681   7.351  1.7790 -1.4065 -0.6503
  849SOL    HW2 2547   0.190   2.718   7.497 -2.9257  1.9753 -0.8175
  850SOL     OW 2548   1.200   4.031   9.275 -1.0066 -0.0966  0.5871
  850SOL    HW1 2549   1.134   3.972   9.240 -1.4688 -0.4070  1.9384
  850SOL    HW2 2550   1.156   4.077   9.347  0.3066 -0.4955  1.6792
  851SOL     OW 2551   1.430   3.059   8.289  0.1767 -0.0474 -0.0178
  851SOL    HW1 2552   1.483   2.985   8.318  0.3931 -0.3450 -1.1152
  851SOL    HW2 2553   1.345   3.020   8.266 -0.3225  0.3287  1.0905
  852SOL     OW 2554   2.125   1.499   9.347  0.3784 -0.1786  0.0493
  852SOL    HW1 2555   2.048   1.497   9.290  0.3902 -0.2822  0.0373
  852SOL    HW2 2556   2.097   1.551   9.422 -0.5201 -2.1450  1.1784
  853SOL     OW 2557   1.168   3.166   6.609  0.1128 -0.0281 -0.4748
  853SOL    HW1 2558   1.125   3.215   6.679 -1.3606 -0.4710 -1.0282
  853SOL    HW2 2559   1.107   3.095   6.589  0.6002 -0.0426 -2.0464
  854SOL     OW 2560   2.981   4.000   9.445 -0.0515 -0.0619  0.1010
  854SOL    HW1 2561   3.028   4.074   9.407  0.2996  0.2411  1.1064
  854SOL    HW2 2562   2.990   3.931   9.380  0.3685  0.5046 -0.4584
  855SOL     OW 2563   4.164   3.825   7.527  0.1590  0.1248 -0.0537
  855SOL    HW1 2564   4.227   3.897   7.528 -0.1322  0.3872 -0.3902
  855SOL    HW2 2565   4.081   3.865   7.553 -0.1348  0.0423 -0.8383
  856SOL     OW 2566   1.028   2.008   7.734 -0.3585  0.5199 -0.5280
  856SOL    HW1 2567   1.041   1.913   7.725 -2.0176  0.2771 -0.5763
  856SOL    HW2 2568   0.933   2.020   7.732 -0.1847  2.1673 -0.2372
  857SOL     OW 2569   3.785   2.993   6.717 -0.0386  0.1288  0.3765
  857SOL    HW1 2570   3.793   3.057   6.646 -0.5717 -0.0950  0.1136
  857SOL    HW2 2571   3.701   3.012   6.758  0.3807  0.4134  1.1093
  858SOL     OW 2572   1.272   0.984   9.551 -0.0200  0.4739  0.2148
  858SOL    HW1 2573   1.329   0.968   9.475  1.1463 -0.2667  1.2067
  858SOL    HW2 2574   1.317   1.053   9.600  0.6348 -0.8203  1.5447
  859SOL     OW 2575   3.085   0.576   6.658 -0.4741  0.5907 -0.6001
  859SOL    HW1 2576   3.025   0.504   6.675 -0.1099  0.1965 -0.9637
  859SOL    HW2 2577   3.124   0.596   6.743  0.0432 -0.1972 -0.6481
  860SOL     OW 2578   1.485   4.279   5.794  0.1785 -0.2698  0.3390
  860SOL    HW1 2579   1.526   4.350   5.843  1.2637 -1.5814  1.3867
  860SOL    HW2 2580   1.422   4.241   5.854 -0.9181  0.2154 -0.4606
  861SOL     OW 2581   1.520   2.042   7.269  0.3611  0.0651  0.1970
  861SOL    HW1 2582   1.554   2.067   7.183  2.1929  0.2784  0.9375
  861SOL    HW2 2583   1.514   1.946   7.265  2.8701 -0.1736  0.6149
  862SOL     OW 2584   2.342   0.828   6.591  0.1280  0.6475 -0.1728
  862SOL    HW1 2585   2.348   0.879   6.510  0.0710  1.2383  0.1850
  862SOL    HW2 2586   2.262   0.860   6.633  0.4393  0.7287  0.3671
  863SOL     OW 2587   1.146   0.329   8.017 -0.1151 -0.4674  0.3120
  863SOL    HW1 2588   1.232   0.353   8.052  0.1364  0.3237 -0.7933
  863SOL    HW2 2589   1.151   0.234   8.003  0.7541 -0.3643 -0.1679
  864SOL     OW 2590   1.985   3.577   6.672  1.0586  0.2389  0.0199
  864SOL    HW1 2591   1.948   3.601   6.587 -1.0912 -1.4498  0.4190
  864SOL    HW2 2592   2.055   3.641   6.686 -0.2318  2.1926 -1.8286
  865SOL     OW 2593   4.273   3.707   7.775 -0.1342 -0.5898  0.1717
  865SOL    HW1 2594   4.269   3.611   7.782 -2.9737 -0.7016 -1.4723
  865SOL    HW2 2595   4.234   3.726   7.690 -1.2682  2.1092  1.2017
  866SOL     OW 2596   0.705   4.335   9.628  0.2768  0.2675 -0.9738
  866SOL    HW1 2597   0.735   4.423   9.608 -0.2817  0.4111 -1.2172
  866SOL    HW2 2598   0.669   4.303   9.545 -1.8679  0.7828 -0.3015
  867SOL     OW 2599   1.566   3.013   9.022 -0.2029 -1.1007 -0.0156
  867SOL    HW1 2600   1.496   2.988   8.962 -0.4332 -0.8880  0.1610
  867SOL    HW2 2601   1.571   3.108   9.013  0.1498 -1.1283 -0.1211
  868SOL     OW 2602   0.940   2.468   4.947  0.1664 -1.0138  0.0562
  868SOL    HW1 2603   0.957   2.405   5.017 -3.1643 -0.5841  1.4804
  868SOL    HW2 2604   0.897   2.417   4.878 -0.4491 -0.7530  0.2320
  869SOL     OW 2605   1.110   4.299   5.597  0.3304 -0.1780  0.1402
  869SOL    HW1 2606   1.140   4.219   5.641 -0.9540 -0.6091  0.2801
  869SOL    HW2 2607   1.181   4.362   5.611  0.3253 -0.5431  2.1334
  870SOL     OW 2608   0.667   3.898   9.061 -1.1997  0.1459  0.0865
  870SOL    HW1 2609   0.688   3.988   9.087 -0.6732 -0.5629  2.3680
  870SOL    HW2 2610   0.582   3.881   9.103 -1.4741 -0.3138 -0.6408
  871SOL     OW 2611   0.572   2.506   5.673 -0.0991  0.0077 -0.1560
  871SOL    HW1 2612   0.574   2.521   5.768 -0.3917 -0.3663 -0.0919
  871SOL    HW2 2613   0.649   2.451   5.656  1.0436  1.5936 -0.4069
  872SOL     OW 2614   2.700   1.837   7.844 -0.1849  0.4480  0.8258
  872SOL    HW1 2615   2.639   1.763   7.837 -1.3059  1.4040  0.2094
  872SOL    HW2 2616   2.740   1.826   7.931  0.1127 -1.1887  0.5188
  873SOL     OW 2617   3.065   2.702   6.824 -0.0763 -0.2313  0.3864
  873SOL    HW1 2618   3.053   2.644   6.749 -1.8882 -0.2612  0.6620
  873SOL    HW2 2619   3.070   2.789   6.786 -1.4834 -0.1958  0.2234
  874SOL     OW 2620   0.609   1.130   6.623  0.0455  0.5028 -0.0232
  874SOL    HW1 2621   0.671   1.203   6.625  0.2769  0.3352 -0.7243
  874SOL    HW2 2622   0.646   1.065   6.683  1.3595 -0.2096 -1.5246
  875SOL     OW 2623   0.886   2.093   8.839 -0.0305  0.1411  0.1637
  875SOL    HW1 2624   0.798   2.105   8.806  0.6463 -0.0576 -1.8494
  875SOL    HW2 2625   0.942   2.098   8.762  1.5831 -1.2533  1.1588
  876SOL     OW 2626   1.022   3.771   5.389  0.0501  0.1710  0.4183
  876SOL    HW1 2627   1.063   3.808   5.311  1.2129 -2.0691 -0.1210
  876SOL    HW2 2628   1.023   3.842   5.453  0.1694  1.6892 -1.2095
  877SOL     OW 2629   3.264   4.578   6.930 -0.2267  0.1397  0.7349
  877SOL    HW1 2630   3.275   4.500   6.876  2.7663  0.5875  0.5424
  877SOL    HW2 2631   3.279   4.651   6.870 -2.8117  0.9339  0.9515
  878SOL     OW 2632   2.296   2.106   9.609  0.0068  0.5087  0.6098
  878SOL    HW1 2633   2.246   2.180   9.574  1.1197  1.0230  0.0512
  878SOL    HW2 2634   2.313   2.128   9.700 -0.7723  0.3263  0.8047
  879SOL     OW 2635   3.667   1.968   7.768 -0.0559  0.4601  0.4120
  879SOL    HW1 2636   3.609   2.016   7.709  1.5600  2.5335  0.3839
  879SOL    HW2 2637   3.714   2.036   7.816  1.4379 -1.1368  1.3533
  880SOL     OW 2638   3.146   2.478   7.379 -0.5688 -0.1793 -0.1417
  880SOL    HW1 2639   3.114   2.417   7.313 -0.5036  0.2428 -0.5710
  880SOL    HW2 2640   3.220   2.522   7.337 -0.3074 -0.1589  0.3394
  881SOL     OW 2641   0.643   4.318   5.418 -0.6427 -0.2329 -0.3351
  881SOL    HW1 2642   0.707   4.389   5.417 -1.4378  0.5058 -1.2467
  881SOL    HW2 2643   0.688   4.244   5.377  0.0429 -0.1289  0.2095
  882SOL     OW 2644   0.640   4.225   7.721  0.1727 -0.5164  0.1900
  882SOL    HW1 2645   0.671   4.196   7.635 -0.1675 -2.9024  0.7792
  882SOL    HW2 2646   0.545   4.215   7.717  0.1441 -0.5344  0.7865
  883SOL     OW 2647   3.176   0.244   7.605 -0.5065 -0.4541 -0.3045
  883SOL    HW1 2648   3.228   0.179   7.651  0.2162  0.5780  0.3562
  883SOL    HW2 2649   3.085   0.221   7.626 -0.2064  0.6869  2.6848
  884SOL     OW 2650   3.059   0.830  10.294 -0.1598 -0.6626 -0.4660
  884SOL    HW1 2651   3.027   0.773  10.365  0.8931 -0.3498  0.2820
  884SOL    HW2 2652   2.981   0.849  10.242 -1.2026  0.0689  1.2806
  885SOL     OW 2653   3.657   3.354   7.215  0.3812  0.4594  0.8977
  885SOL    HW1 2654   3.665   3.259   7.218 -0.9205  0.1072 -2.6035
  885SOL    HW2 2655   3.578   3.373   7.266  0.1743 -0.4214  0.9090
  886SOL     OW 2656   0.990   3.668   8.802  0.3421  0.4271  0.0769
  886SOL    HW1 2657   0.901   3.633   8.796  0.9787 -1.4528  0.9052
  886SOL    HW2 2658   0.984   3.740   8.865 -0.7127  0.8510 -0.4823
  887SOL     OW 2659   4.702   1.979   7.964  0.1747  0.0136 -0.5132
  887SOL    HW1 2660   4.767   2.021   8.020  1.0863 -1.1977 -0.6015
  887SOL    HW2 2661   4.653   1.922   8.024 -1.0366  1.1516 -0.3925
  888SOL     OW 2662   2.578   2.137   7.840  0.5646  0.2138  0.6093
  888SOL    HW1 2663   2.580   2.042   7.828 -0.6382  0.1298  0.9948
  888SOL    HW2 2664   2.511   2.167   7.779  2.0883  1.0476 -0.7639
  889SOL     OW 2665   4.694   1.650   7.992  0.7107  0.0543  0.7099
  889SOL    HW1 2666   4.639   1.607   8.057  0.5883 -1.4471 -0.3345
  889SOL    HW2 2667   4.777   1.665   8.037 -0.0687  1.1085  1.8754
  890SOL     OW 2668   4.510   2.323   6.852 -0.2050 -0.9809  0.8504
  890SOL    HW1 2669   4.474   2.267   6.782  1.0814 -1.2328  0.3545
  890SOL    HW2 2670   4.509   2.411   6.815 -3.7732 -0.2974  2.2300
  891SOL     OW 2671   0.503   4.327   9.423 -0.3801  0.1341  0.2171
  891SOL    HW1 2672   0.503   4.240   9.384  1.8463  0.5501 -0.8670
  891SOL    HW2 2673   0.532   4.386   9.353 -0.3967  1.5359  1.3267
  892SOL     OW 2674   3.125   3.549   8.907  0.1979  0.2087  0.7993
  892SOL    HW1 2675   3.160   3.563   8.819 -0.2557  2.3436  0.9132
  892SOL    HW2 2676   3.194   3.503   8.953  1.6469  1.6590  0.1496
  893SOL     OW 2677   4.779   0.882   6.119  0.1304 -0.0252  0.2142
  893SOL    HW1 2678   4.822   0.944   6.060  0.1150  0.7112  0.9673
  893SOL    HW2 2679   4.768   0.802   6.066  0.1899  0.5913 -0.7457
  894SOL     OW 2680   4.714   3.257   8.558 -0.3257 -0.3372  0.2606
  894SOL    HW1 2681   4.804   3.233   8.537 -1.4248 -3.6405 -1.2591
  894SOL    HW2 2682   4.690   3.198   8.630 -1.9416 -1.1975 -0.9277
  895SOL     OW 2683   3.483   2.556   9.118  0.0704  0.2097  0.5543
  895SOL    HW1 2684   3.393   2.551   9.085  0.3113  1.3051 -0.3163
  895SOL    HW2 2685   3.532   2.493   9.064 -0.2537 -0.7377  1.3487
  896SOL     OW 2686   0.504   0.823   9.867 -0.1188  0.5652 -0.5564
  896SOL    HW1 2687   0.515   0.842   9.960  0.1453  1.0407 -0.6805
  896SOL    HW2 2688   0.447   0.893   9.835 -1.3600 -0.3759 -0.4703
  897SOL     OW 2689   2.231   0.853   8.563  0.1158  0.5328 -0.2006
  897SOL    HW1 2690   2.231   0.935   8.515 -0.5908  1.0692  0.6808
  897SOL    HW2 2691   2.139   0.835   8.580  0.3463  0.6268  1.3441
  898SOL     OW 2692   2.579   0.051   7.641 -0.3778  1.3117 -0.4809
  898SOL    HW1 2693   2.658   0.099   7.667 -0.2649  2.2374 -2.3715
  898SOL    HW2 2694   2.508   0.101   7.682 -0.1176  1.7723 -0.5737
  899SOL     OW 2695   1.731   2.438   8.003 -0.8587 -0.0374 -0.3331
  899SOL    HW1 2696   1.649   2.420   8.051 -1.0547 -0.7721 -0.9195
  899SOL    HW2 2697   1.729   2.532   7.987 -1.3528  0.0305  0.0840
  900SOL     OW 2698   0.265   4.089   8.515  0.3230  0.0217  0.0598
  900SOL    HW1 2699   0.229   4.108   8.428 -0.7309  0.3628  0.5540
  900SOL    HW2 2700   0.315   4.168   8.538  1.7873 -0.6081 -0.7951
  901SOL     OW 2701   3.861   0.010   5.362  0.2829 -0.3325  0.1644
  901SOL    HW1 2702   3.769  -0.012   5.377  0.2573 -0.1955  0.2087
  901SOL    HW2 2703   3.862   0.105   5.353  0.6647 -0.1240  2.0080
  902SOL     OW 2704   3.849   3.914   7.477 -0.2977  0.7699 -0.3843
  902SOL    HW1 2705   3.881   4.004   7.482  1.8903  0.0706 -0.5319
  902SOL    HW2 2706   3.878   3.882   7.392  2.0110 -1.0607  0.9558
  903SOL     OW 2707   0.925   0.393   9.767 -0.6980 -0.0074 -0.1495
  903SOL    HW1 2708   0.917   0.353   9.854 -1.4634 -2.0969 -1.0939
  903SOL    HW2 2709   0.917   0.487   9.782  1.3887 -0.1155  2.2635
  904SOL     OW 2710   0.751   2.562   9.209 -0.3130 -0.5245 -0.2586
  904SOL    HW1 2711   0.749   2.472   9.176 -0.5992 -0.2645 -0.9724
  904SOL    HW2 2712   0.842   2.590   9.196 -0.2347 -0.6918 -0.0802
  905SOL     OW 2713   2.929   3.362   8.043 -0.5206  0.3393  0.2709
  905SOL    HW1 2714   2.888   3.391   8.125  2.6812  0.2066  2.0958
  905SOL    HW2 2715   2.951   3.444   7.998 -0.7704  0.4556  0.3542
  906SOL     OW 2716   0.997   1.444   5.720  0.2434 -0.0345  0.2150
  906SOL    HW1 2717   1.041   1.391   5.786  1.0168  0.3905  0.0467
  906SOL    HW2 2718   0.955   1.380   5.663  2.4746 -0.5792 -0.9175
  907SOL     OW 2719   0.304   0.347   7.352  0.4662  0.6149 -0.3769
  907SOL    HW1 2720   0.350   0.399   7.417 -0.0658  0.9009 -0.2183
  907SOL    HW2 2721   0.313   0.397   7.271 -0.2811  1.1127 -0.1664
  908SOL     OW 2722   2.469   0.142   8.761 -0.1752  0.0023 -0.5814
  908SOL    HW1 2723   2.402   0.197   8.802  0.6461  1.2113 -0.8094
  908SOL    HW2 2724   2.551   0.188   8.779  0.6173 -1.5216 -0.1969
  909SOL     OW 2725   1.860   4.799   9.203  0.5538 -0.3379  0.1727
  909SOL    HW1 2726   1.839   4.875   9.257 -2.2443 -0.4779 -0.5611
  909SOL    HW2 2727   1.955   4.804   9.191  1.3933 -0.2587  4.9400
  910SOL     OW 2728   2.859   1.602   6.880  0.1589  0.1317 -0.0050
  910SOL    HW1 2729   2.881   1.519   6.838  0.3601 -0.1719  0.6937
  910SOL    HW2 2730   2.791   1.640   6.823 -0.5075 -0.8722  0.0884
  911SOL     OW 2731   1.704   1.201   9.640  0.3892 -0.3394 -0.4795
  911SOL    HW1 2732   1.610   1.208   9.658  0.2148  2.4328 -2.0038
  911SOL    HW2 2733   1.712   1.123   9.585 -1.4116  0.5535 -2.1411
  912SOL     OW 2734   2.299   1.972   7.684  0.4517 -0.5338 -0.2999
  912SOL    HW1 2735   2.243   2.042   7.717  1.3726  0.5010 -0.8672
  912SOL    HW2 2736   2.267   1.893   7.727  0.3778  0.4564  1.5440
  913SOL     OW 2737   1.548   3.658   9.049  0.1602 -0.3131 -0.0231
  913SOL    HW1 2738   1.540   3.735   9.106 -1.1924  0.2098 -0.8559
  913SOL    HW2 2739   1.458   3.638   9.025  0.5885 -1.5323 -0.6654
  914SOL     OW 2740   2.729   1.623   4.829  0.0838  0.2697 -0.2736
  914SOL    HW1 2741   2.780   1.682   4.773  0.1034  0.3747 -0.1456
  914SOL    HW2 2742   2.639   1.657   4.823 -0.5152 -1.4230 -2.5656
  915SOL     OW 2743   4.520   2.791   7.632  0.0956 -0.0655  0.2052
  915SOL    HW1 2744   4.510   2.851   7.558  2.5741 -0.2308 -0.3589
  915SOL    HW2 2745   4.564   2.843   7.699  1.2159 -0.8853  0.1394
  916SOL     OW 2746   0.072   4.269   7.925 -0.2411 -0.6854 -0.1734
  916SOL    HW1 2747   0.161   4.272   7.960 -0.3809 -2.4239  0.3980
  916SOL    HW2 2748   0.019   4.232   7.995 -1.6838  1.3553 -0.0773
  917SOL     OW 2749   3.140   4.222   8.588 -0.1325  0.3292 -0.0747
  917SOL    HW1 2750   3.105   4.133   8.596  1.6704 -0.7496 -2.8625
  917SOL    HW2 2751   3.219   4.221   8.642  0.3928 -0.1027 -0.8298
  918SOL     OW 2752   3.568   0.843   6.179 -0.1276 -1.1379 -0.3363
  918SOL    HW1 2753   3.622   0.767   6.160 -0.7970 -1.5475 -0.6772
  918SOL    HW2 2754   3.499   0.810   6.237 -0.2612 -0.7295 -0.2577
  919SOL     OW 2755   0.755   4.963   7.101  0.5774 -0.1591 -0.1756
  919SOL    HW1 2756   0.841   5.006   7.108  2.0722 -2.8112 -0.9907
  919SOL    HW2 2757   0.721   4.990   7.016  0.9878  0.2457 -0.2120
  920SOL     OW 2758   0.195   1.356   6.574 -0.1066 -0.6355 -0.1356
  920SOL    HW1 2759   0.197   1.327   6.482 -0.6349  0.3596 -0.4814
  920SOL    HW2 2760   0.105   1.388   6.586  0.2304  0.1084  0.4540
  921SOL     OW 2761   1.037   2.349   6.468  0.1731  0.0551 -0.2383
  921SOL    HW1 2762   1.060   2.259   6.445 -0.2821  0.2526 -1.5429
  921SOL    HW2 2763   1.012   2.344   6.560  0.3830 -1.1096 -0.2305
  922SOL     OW 2764   1.758   2.538   5.544 -0.4476  0.0363 -0.3869
  922SOL    HW1 2765   1.838   2.491   5.570 -0.3171 -2.4968 -4.5619
  922SOL    HW2 2766   1.688   2.497   5.594  0.4638  0.4450  1.3120
  923SOL     OW 2767   0.767   4.393   8.199  1.1519  0.2769 -0.6870
  923SOL    HW1 2768   0.856   4.359   8.184  1.4043  0.7894 -0.3815
  923SOL    HW2 2769   0.729   4.333   8.263  1.6625  0.6705  0.0024
  924SOL     OW 2770   0.415   1.452   9.962  0.5913 -0.4055  0.1751
  924SOL    HW1 2771   0.502   1.479   9.934  0.7215  0.8081  1.5552
  924SOL    HW2 2772   0.428   1.416  10.050 -0.3624  0.4535  0.6958
  925SOL     OW 2773   3.880   3.256   7.722  0.2119  0.4815  0.4589
  925SOL    HW1 2774   3.922   3.193   7.781  1.9890  0.2750 -0.9387
  925SOL    HW2 2775   3.808   3.207   7.683  1.5618 -0.7611 -0.5946
  926SOL     OW 2776   2.366   3.290   5.723 -0.2861  0.7395  0.2987
  926SOL    HW1 2777   2.281   3.320   5.756  0.3366  0.8901  1.8353
  926SOL    HW2 2778   2.430   3.336   5.777  0.7771  0.4234 -0.6656
  927SOL     OW 2779   2.209   3.190   7.381  0.1317  0.5732 -0.8778
  927SOL    HW1 2780   2.268   3.261   7.358 -0.3602  0.6334 -2.0130
  927SOL    HW2 2781   2.265   3.112   7.386  0.5117  0.8640 -0.6089
  928SOL     OW 2782   4.565   2.179   8.515 -0.4460 -0.3709  0.9396
  928SOL    HW1 2783   4.625   2.159   8.587 -0.5975  0.2537  1.2589
  928SOL    HW2 2784   4.584   2.115   8.447  0.5928 -0.1675  1.0306
  929SOL     OW 2785   0.505   4.222   8.566 -0.4619  0.1611 -0.3219
  929SOL    HW1 2786   0.487   4.129   8.553 -1.0562  0.2297 -0.0191
  929SOL    HW2 2787   0.589   4.236   8.523 -0.3951 -0.5037 -0.4227
  930SOL     OW 2788   0.064   2.224   9.082  0.1559 -0.0525 -0.0926
  930SOL    HW1 2789   0.127   2.170   9.035 -1.9466 -1.6626 -1.2246
  930SOL    HW2 2790   0.060   2.305   9.030  1.2931  0.1008  0.0303
  931SOL     OW 2791   0.216   4.009   7.628 -0.0314  0.4162 -0.7239
  931SOL    HW1 2792   0.195   3.958   7.550 -0.6829  1.0089 -0.9517
  931SOL    HW2 2793   0.227   3.944   7.697  0.9389 -0.1460 -1.3783
  932SOL     OW 2794   0.867   1.215   9.374 -0.6838 -0.1441 -0.0099
  932SOL    HW1 2795   0.909   1.217   9.287 -2.0706  2.4145 -0.7460
  932SOL    HW2 2796   0.879   1.126   9.405  2.1046 -0.4825 -1.7191
  933SOL     OW 2797   0.830   2.342   6.947  0.3032 -0.4001 -0.1500
  933SOL    HW1 2798   0.760   2.351   7.011  0.2883  0.9700 -0.3352
  933SOL    HW2 2799   0.891   2.281   6.988 -1.2838 -2.1555 -0.2739
  934SOL     OW 2800   1.972   4.216   8.734 -0.5031 -0.2065  0.6039
  934SOL    HW1 2801   1.916   4.291   8.715  1.5092  1.1320 -0.4822
  934SOL    HW2 2802   2.038   4.250   8.795 -0.6611 -1.6378  1.6207
  935SOL     OW 2803   0.900   4.700   8.797 -0.1452 -0.3863  0.3161
  935SOL    HW1 2804   0.900   4.766   8.866 -1.3492  2.6034 -2.2914
  935SOL    HW2 2805   0.952   4.739   8.727 -3.5205 -0.6285 -2.5789
  936SOL     OW 2806   0.493   1.870   6.915 -0.0612  0.7267  0.3667
  936SOL    HW1 2807   0.476   1.777   6.929  0.7411  0.3918 -0.6956
  936SOL    HW2 2808   0.581   1.884   6.950  0.0242  0.9656  0.0617
  937SOL     OW 2809   0.902   1.430   8.369  0.0760  0.2617 -0.1221
  937SOL    HW1 2810   0.894   1.455   8.461  0.7392  2.5855 -0.6312
  937SOL    HW2 2811   0.812   1.422   8.338 -0.1609  0.6075  0.4560
  938SOL     OW 2812   0.099   4.128   9.678  0.2990 -0.0870 -0.3211
  938SOL    HW1 2813   0.181   4.175   9.692 -0.0704  0.7904 -1.0625
  938SOL    HW2 2814   0.055   4.175   9.608 -1.3043  0.0509  0.7218
  939SOL     OW 2815   4.384   5.021   5.053 -0.0146 -0.6191 -0.0161
  939SOL    HW1 2816   4.350   4.939   5.090  1.8098 -1.5768 -0.3358
  939SOL    HW2 2817   4.462   5.040   5.106 -0.5635  1.0881  0.2320
  940SOL     OW 2818   3.749   3.507   5.306 -0.7243  0.8826 -0.2749
  940SOL    HW1 2819   3.773   3.423   5.347 -2.4464 -0.0049 -0.9789
  940SOL    HW2 2820   3.769   3.572   5.373 -0.0674 -0.1650  0.5926
  941SOL     OW 2821   0.367   1.875   8.583  0.5168 -0.5240  0.2361
  941SOL    HW1 2822   0.421   1.856   8.507  0.5394 -0.6654  0.2867
  941SOL    HW2 2823   0.281   1.837   8.562  0.4647 -0.3877  0.1978
  942SOL     OW 2824   3.672   3.781   7.074  0.3616  0.5934 -0.6133
  942SOL    HW1 2825   3.685   3.740   7.160 -0.1085 -0.3104 -0.9584
  942SOL    HW2 2826   3.722   3.863   7.078  2.0204 -0.3987 -0.1780
  943SOL     OW 2827   4.508   0.480   7.305 -0.1261  0.0325 -0.4485
  943SOL    HW1 2828   4.474   0.430   7.231  1.2896  0.3736 -1.3748
  943SOL    HW2 2829   4.529   0.566   7.268 -2.9291  1.5431  1.2021
  944SOL     OW 2830   1.807   3.966   7.922  0.1673  0.0320 -0.2543
  944SOL    HW1 2831   1.891   4.000   7.892  0.7591 -2.7357 -2.1253
  944SOL    HW2 2832   1.771   3.921   7.845 -0.5885 -3.2448  1.8443
  945SOL     OW 2833   1.517   4.385   7.879 -0.1657 -0.1221  0.0713
  945SOL    HW1 2834   1.433   4.430   7.892 -1.7270 -2.1444 -2.1104
  945SOL    HW2 2835   1.574   4.451   7.840 -1.9144  0.4233 -1.7235
  946SOL     OW 2836   2.188   3.808   8.811  0.3475  0.3142 -0.2362
  946SOL    HW1 2837   2.117   3.855   8.768 -2.3352 -4.0288 -1.1156
  946SOL    HW2 2838   2.180   3.830   8.904 -2.5594 -0.3910 -0.2416
  947SOL     OW 2839   0.406   0.846   9.097 -0.4410  0.5281 -0.7153
  947SOL    HW1 2840   0.350   0.898   9.154  1.7239  0.7027  1.4272
  947SOL    HW2 2841   0.356   0.836   9.016 -4.4977 -1.2513  1.7264
  948SOL     OW 2842   2.024   2.745   7.269  0.0012 -0.3242 -0.0634
  948SOL    HW1 2843   2.063   2.723   7.354  1.6675 -1.2123 -1.0015
  948SOL    HW2 2844   2.050   2.836   7.253 -1.4158  0.2837  0.9250
  949SOL     OW 2845   0.439   0.112   7.264  0.1857 -0.0844 -0.0736
  949SOL    HW1 2846   0.431   0.102   7.169  0.1538 -1.7411  0.0642
  949SOL    HW2 2847   0.365   0.168   7.289 -0.4647 -0.5463 -0.9090
  950SOL     OW 2848   3.528   1.966   8.646  0.2845 -0.1817 -0.0174
  950SOL    HW1 2849   3.598   1.912   8.609  0.3228 -0.4001  0.3695
  950SOL    HW2 2850   3.448   1.916   8.629  0.1564  0.3301 -0.9547
  951SOL     OW 2851   1.174   2.842   6.830 -0.5036 -0.1253 -0.6227
  951SOL    HW1 2852   1.171   2.848   6.735  0.2295 -1.3292 -0.7490
  951SOL    HW2 2853   1.117   2.768   6.851 -1.7165  0.9482  0.0003
  952SOL     OW 2854   1.526   1.208   6.060 -0.3884  0.6199 -0.8957
  952SOL    HW1 2855   1.591   1.273   6.036 -0.7129  1.5831  0.6926
  952SOL    HW2 2856   1.493   1.236   6.145 -1.6530 -0.7821 -0.8612
  953SOL     OW 2857   3.010   4.183   8.846  0.1476 -0.3998  0.5373
  953SOL    HW1 2858   3.042   4.266   8.810 -0.1012 -0.3898  0.3330
  953SOL    HW2 2859   3.079   4.120   8.826  0.7422 -0.0702  1.4731
  954SOL     OW 2860   3.803   2.289   7.144  0.5240 -0.0886 -0.5313
  954SOL    HW1 2861   3.752   2.309   7.222  0.2962 -2.1168 -0.0841
  954SOL    HW2 2862   3.759   2.336   7.073 -1.9117 -1.5468 -0.1230
  955SOL     OW 2863   2.020   3.020   6.143 -0.3710 -0.6740 -0.2455
  955SOL    HW1 2864   1.991   2.975   6.064  0.1968 -1.2612 -0.1291
  955SOL    HW2 2865   2.067   2.953   6.193  0.2528 -0.0197  0.0646
  956SOL     OW 2866   2.795   4.520   7.363  0.1990 -0.1243 -0.1677
  956SOL    HW1 2867   2.786   4.502   7.269  1.2037 -1.1289 -0.0855
  956SOL    HW2 2868   2.888   4.508   7.381  0.0809  0.4443  0.8905
  957SOL     OW 2869   2.342   1.223   8.245  0.0084  0.9248 -0.1555
  957SOL    HW1 2870   2.391   1.141   8.240 -2.3676 -0.5707 -0.4022
  957SOL    HW2 2871   2.388   1.274   8.311  2.3805  0.0120 -0.9911
  958SOL     OW 2872   3.882   4.735   5.209  0.2134  0.5531 -0.4433
  958SOL    HW1 2873   3.833   4.705   5.286 -0.3513  0.4152 -0.8526
  958SOL    HW2 2874   3.852   4.825   5.196  0.1497  0.5044 -0.6322
  959SOL     OW 2875   1.979   1.475  10.020 -0.0550 -0.4133  0.2849
  959SOL    HW1 2876   1.959   1.385  10.045 -0.1289 -0.0618  1.5545
  959SOL    HW2 2877   1.958   1.479   9.926  1.6154 -2.1704 -0.2341
  960SOL     OW 2878   1.560   2.535   9.922  0.2088  0.5532  0.4551
  960SOL    HW1 2879   1.509   2.514  10.000  0.8207  0.2728  0.7815
  960SOL    HW2 2880   1.499   2.518   9.849  0.5963 -2.2863  0.6849
  961SOL     OW 2881   0.341   3.526   8.821  0.3526 -0.4910 -0.1761
  961SOL    HW1 2882   0.382   3.440   8.835 -0.6839 -1.0835 -0.6438
  961SOL    HW2 2883   0.344   3.538   8.726  0.1948 -0.1662 -0.1401
  962SOL     OW 2884   3.057   1.058   6.019 -0.1669  0.4827  0.1242
  962SOL    HW1 2885   2.993   1.006   6.069  0.6886  1.7986  2.7824
  962SOL    HW2 2886   3.014   1.142   6.004 -0.1475  0.3407 -0.7615
  963SOL     OW 2887   3.771   3.606   7.420 -0.3753  0.0004 -0.2971
  963SOL    HW1 2888   3.834   3.534   7.427  0.6602  1.0582  3.2246
  963SOL    HW2 2889   3.818   3.683   7.452 -2.9200  1.2135  0.7891
  964SOL     OW 2890   0.192   3.085   9.161  0.4909 -0.3670  0.2823
  964SOL    HW1 2891   0.111   3.119   9.198  0.0776 -1.5066  0.4657
  964SOL    HW2 2892   0.216   3.012   9.218  2.1653  0.5297  0.8014
  965SOL     OW 2893   1.433   4.304   7.570 -0.1277  0.3480  0.2750
  965SOL    HW1 2894   1.480   4.377   7.612 -0.1979 -0.5276  1.9382
  965SOL    HW2 2895   1.416   4.242   7.641 -0.8923 -0.8784 -0.9339
  966SOL     OW 2896   1.776   1.621   7.725 -0.7724 -0.1556  0.3647
  966SOL    HW1 2897   1.856   1.668   7.746 -0.2162 -1.0245  0.2730
  966SOL    HW2 2898   1.708   1.688   7.724 -0.0132  0.6346  0.2195
  967SOL     OW 2899   0.723   3.092   8.208 -0.1051 -0.5112  0.5208
  967SOL    HW1 2900   0.714   3.054   8.120  1.6230  0.4960 -0.1491
  967SOL    HW2 2901   0.685   3.179   8.199  1.2549  0.0866  0.3757
  968SOL     OW 2902   0.353   4.252   9.863  0.0238  0.4914  0.3368
  968SOL    HW1 2903   0.384   4.300   9.786 -0.1696 -1.6617 -1.1922
  968SOL    HW2 2904   0.420   4.269   9.930  1.0276  1.2035 -0.7992
  969SOL     OW 2905   0.166   3.843   7.388 -0.1312 -0.5415  0.3279
  969SOL    HW1 2906   0.085   3.824   7.341 -0.0229  1.8916 -0.9963
  969SOL    HW2 2907   0.235   3.809   7.330 -0.0730  1.0985 -0.6364
  970SOL     OW 2908   4.733   4.415   9.447 -0.8983  0.4983  0.5740
  970SOL    HW1 2909   4.734   4.487   9.384  1.3421  1.4723  1.6029
  970SOL    HW2 2910   4.678   4.447   9.519 -1.6649  0.2737  0.1008
  971SOL     OW 2911   0.070   1.533   5.182 -0.6233  0.1726  0.2709
  971SOL    HW1 2912   0.039   1.602   5.124  0.2555  1.4943  1.2933
  971SOL    HW2 2913   0.153   1.567   5.217 -0.9983 -0.6523  2.0851
  972SOL     OW 2914   2.705   0.905   5.599 -0.2529  0.0238  0.0671
  972SOL    HW1 2915   2.748   0.990   5.586  1.4007 -0.7699 -0.0112
  972SOL    HW2 2916   2.624   0.911   5.550 -1.0491  2.1730  1.5263
  973SOL     OW 2917   4.839   2.568   9.309  0.2285 -0.2702  0.5404
  973SOL    HW1 2918   4.889   2.645   9.279  1.2834 -1.2680 -0.3824
  973SOL    HW2 2919   4.874   2.550   9.396 -1.2374  1.2886  1.4945
  974SOL     OW 2920   3.620   3.893   8.440  0.4650  0.1475 -0.2306
  974SOL    HW1 2921   3.529   3.919   8.427  0.3106 -0.2463  0.0670
  974SOL    HW2 2922   3.619   3.797   8.438  0.4636  0.0165  2.2854
  975SOL     OW 2923   0.282   1.897   5.737  0.5876  0.2304  0.4815
  975SOL    HW1 2924   0.340   1.831   5.776  0.6617  0.3023  0.4919
  975SOL    HW2 2925   0.194   1.863   5.753  0.6407 -0.8200 -1.1351
  976SOL     OW 2926   2.151   2.560   5.747 -0.1849  0.1257 -0.4371
  976SOL    HW1 2927   2.168   2.651   5.721  0.8826  0.1859  0.3933
  976SOL    HW2 2928   2.235   2.515   5.734 -0.5911 -0.6411 -0.4476
  977SOL     OW 2929   3.474   3.840   8.704  0.3131  0.3981  0.3950
  977SOL    HW1 2930   3.526   3.777   8.753  0.9345  1.1916  0.7786
  977SOL    HW2 2931   3.528   3.861   8.627  0.2742  0.7353  0.4597
  978SOL     OW 2932   1.880   0.943   7.922 -0.1180 -0.0936  0.2653
  978SOL    HW1 2933   1.964   0.982   7.945 -0.5772  0.9665  0.2097
  978SOL    HW2 2934   1.818   1.016   7.925 -0.5736 -0.2791 -2.3599
  979SOL     OW 2935   2.323   3.802   9.217 -0.4308  0.4769  0.4999
  979SOL    HW1 2936   2.353   3.835   9.302  2.0091 -0.7266  0.1909
  979SOL    HW2 2937   2.388   3.832   9.154  0.4842 -2.5349 -0.1812
  980SOL     OW 2938   4.793   1.188   5.283 -1.0350 -0.9102 -0.3663
  980SOL    HW1 2939   4.854   1.241   5.232 -1.0070  0.9486  1.4545
  980SOL    HW2 2940   4.706   1.218   5.257 -1.0346 -0.3753  0.2264
  981SOL     OW 2941   0.409   1.562   9.375  0.1848 -0.2431 -0.6511
  981SOL    HW1 2942   0.407   1.645   9.424 -1.2953  0.0459 -1.1695
  981SOL    HW2 2943   0.501   1.553   9.349  0.5689  0.7253  0.2680
  982SOL     OW 2944   1.117   3.254  10.075 -0.6950 -0.6215 -0.1604
  982SOL    HW1 2945   1.108   3.274  10.168 -0.1781 -0.7824 -0.0737
  982SOL    HW2 2946   1.201   3.291  10.050  0.3356 -2.6770  0.0224
  983SOL     OW 2947   1.650   2.452   6.896  0.0386  0.2581 -0.2122
  983SOL    HW1 2948   1.577   2.430   6.838  0.3627  1.0919 -0.9630
  983SOL    HW2 2949   1.624   2.534   6.937  0.7632  0.8303 -0.8715
  984SOL     OW 2950   0.594   3.571   7.464  0.3619  0.1664  0.2338
  984SOL    HW1 2951   0.549   3.653   7.444 -0.1351 -0.0051  0.6388
  984SOL    HW2 2952   0.687   3.593   7.463  0.3987  0.1973 -2.2543
  985SOL     OW 2953   2.276   4.714   8.563 -0.4203  0.4569 -0.3129
  985SOL    HW1 2954   2.259   4.763   8.644 -1.0503 -0.7188  0.2868
  985SOL    HW2 2955   2.371   4.706   8.561 -0.2867  1.7932 -0.4945
  986SOL     OW 2956   0.642   4.992   8.336  0.2189 -0.2896 -0.3574
  986SOL    HW1 2957   0.556   4.969   8.371  1.1181 -2.0650  0.8676
  986SOL    HW2 2958   0.690   4.909   8.336  3.2293  1.1630  2.8360
  987SOL     OW 2959   1.914   3.198   8.942 -0.5686  0.0383 -0.1992
  987SOL    HW1 2960   1.852   3.245   8.999  1.0020 -0.2061  1.8337
  987SOL    HW2 2961   1.889   3.106   8.951 -0.6060  0.0435 -0.2531
  988SOL     OW 2962   4.254   1.720   9.750 -0.0384  0.2973  0.3357
  988SOL    HW1 2963   4.220   1.639   9.787 -0.0712 -1.5903 -3.3836
  988SOL    HW2 2964   4.176   1.773   9.732 -0.1234  0.5725  1.4674
  989SOL     OW 2965   1.731   2.064   8.017 -0.4035  0.0340  0.3713
  989SOL    HW1 2966   1.699   2.112   8.094 -1.7013 -0.5304  0.2036
  989SOL    HW2 2967   1.735   2.130   7.948 -1.2163  0.1265  0.3989
  990SOL     OW 2968   1.382   4.992   8.412  0.1011  0.4242  0.3381
  990SOL    HW1 2969   1.368   4.939   8.334  0.4809  0.1959  0.4216
  990SOL    HW2 2970   1.452   4.947   8.459 -0.9606 -0.1341  1.4274
  991SOL     OW 2971   0.942   3.160   5.723  0.2484  0.6697 -0.3839
  991SOL    HW1 2972   1.023   3.212   5.730 -0.7307  2.1901  0.1263
  991SOL    HW2 2973   0.971   3.077   5.686  1.9918  1.3207 -0.6085
  992SOL     OW 2974   1.828   1.917   6.935 -0.0437 -0.9883 -0.3645
  992SOL    HW1 2975   1.918   1.947   6.946  0.2946 -1.8666 -0.6604
  992SOL    HW2 2976   1.810   1.927   6.841 -1.5132  2.5627  0.1205
  993SOL     OW 2977   1.358   1.649   5.239 -0.4972 -0.1261 -0.0039
  993SOL    HW1 2978   1.450   1.631   5.221 -0.3980  0.6311 -0.2668
  993SOL    HW2 2979   1.341   1.605   5.322 -0.4674 -2.0593 -0.9717
  994SOL     OW 2980   1.072   3.792   7.568 -0.0998  0.0845 -0.0030
  994SOL    HW1 2981   1.056   3.886   7.557 -0.9064  0.3206  2.4440
  994SOL    HW2 2982   1.149   3.787   7.625 -0.6180 -0.6822  0.6555
  995SOL     OW 2983   1.898   1.994   6.358  0.0564 -0.4785  0.0130
  995SOL    HW1 2984   1.884   1.906   6.323 -1.4264  0.1974 -1.1543
  995SOL    HW2 2985   1.922   2.047   6.282 -2.5283  0.8569  0.0276
  996SOL     OW 2986   1.388   4.492   6.628 -0.1139 -0.5514  0.2225
  996SOL    HW1 2987   1.454   4.545   6.583 -0.2713  0.3152  0.9956
  996SOL    HW2 2988   1.310   4.500   6.574 -0.2514  0.3392  0.5455
  997SOL     OW 2989   4.716   3.921   7.754  0.0260  0.4329  0.0255
  997SOL    HW1 2990   4.801   3.962   7.770 -0.8296  2.8205 -1.0436
  997SOL    HW2 2991   4.690   3.953   7.668 -2.4586  0.7083  0.8143
  998SOL     OW 2992   3.043   4.001   6.901  0.0100  0.3390 -0.1963
  998SOL    HW1 2993   2.989   3.943   6.955  2.0769 -1.0848  0.4579
  998SOL    HW2 2994   2.996   4.085   6.902 -2.8568 -1.1339 -0.8194
  999SOL     OW 2995   5.021   3.764   7.889 -0.3797  0.4549 -0.2260
  999SOL    HW1 2996   5.038   3.751   7.982 -1.0104 -2.3583 -0.4085
  999SOL    HW2 2997   4.929   3.741   7.878 -1.1533  3.4487 -1.1932
 1000SOL     OW 2998   0.199   2.899   9.364  0.3360  0.3573 -0.1016
 1000SOL    HW1 2999   0.227   2.821   9.412 -1.2916 -0.6681 -0.7299
 1000SOL    HW2 3000   0.117   2.925   9.406  0.4036  1.2091 -0.4774
 1001SOL     OW 3001   1.524   3.092   7.275  0.0883 -0.5517  0.1350
 1001SOL    HW1 3002   1.537   3.006   7.315  2.2182 -0.1724  0.4063
 1001SOL    HW2 3003   1.610   3.134   7.280 -0.2668  0.6412 -2.2470
 1002SOL     OW 3004   4.268   4.515   8.686  0.6205 -0.3582  0.0636
 1002SOL    HW1 3005   4.282   4.546   8.597 -1.4805 -1.9494 -0.9009
 1002SOL    HW2 3006   4.308   4.428   8.688  0.1786 -0.5544  0.4982
 1003SOL     OW 3007   2.310   1.160   8.593 -0.4556 -0.4457 -0.1095
 1003SOL    HW1 3008   2.404   1.166   8.573 -0.7527 -1.6670 -2.2340
 1003SOL    HW2 3009   2.280   1.250   8.595  0.6444 -0.0625 -0.0343
 1004SOL     OW 3010   1.696   1.753   8.485 -0.1142 -0.2509  0.1765
 1004SOL    HW1 3011   1.663   1.665   8.505 -2.4385 -0.5509 -3.8607
 1004SOL    HW2 3012   1.775   1.737   8.433 -0.8194 -0.0580 -0.9974
 1005SOL     OW 3013   3.524   0.943   9.293  0.0644 -0.2311 -0.0855
 1005SOL    HW1 3014   3.546   1.031   9.260 -0.4200 -0.2989 -0.5965
 1005SOL    HW2 3015   3.594   0.887   9.259  1.0307  0.1429  1.2137
 1006SOL     OW 3016   4.077   4.281   9.414 -0.1658  0.1934 -0.5146
 1006SOL    HW1 3017   4.148   4.272   9.477  0.1104 -1.6613 -1.0478
 1006SOL    HW2 3018   4.028   4.358   9.444  2.6848  2.2587 -0.7692
 1007SOL     OW 3019   4.812   2.697   9.768  0.1275  0.1289 -0.5490
 1007SOL    HW1 3020   4.780   2.781   9.800 -0.4327 -0.4484  0.4534
 1007SOL    HW2 3021   4.760   2.679   9.690  0.8055  1.0673 -1.2527
 1008SOL     OW 3022   0.736   1.337   8.963 -0.3074  0.1378  0.1517
 1008SOL    HW1 3023   0.652   1.335   9.009 -0.4764 -2.4194 -0.1047
 1008SOL    HW2 3024   0.714   1.310   8.874  0.5699  1.0805 -0.3596
 1009SOL     OW 3025   3.794   0.710   8.664  0.1561 -0.0317  0.2541
 1009SOL    HW1 3026   3.860   0.654   8.704 -1.2584 -1.1507  1.1092
 1009SOL    HW2 3027   3.823   0.799   8.683 -0.6090 -0.4438  4.2210
 1010SOL     OW 3028   1.131   1.520   9.082 -0.1642  0.3129  0.7640
 1010SOL    HW1 3029   1.129   1.559   8.994  0.0658  0.5029  0.8394
 1010SOL    HW2 3030   1.091   1.587   9.138  2.2793  1.4774  1.2746
 1011SOL     OW 3031   0.067   1.215   9.316  0.7281  0.1459 -0.1481
 1011SOL    HW1 3032  -0.024   1.191   9.332  1.0063 -1.7158 -1.0705
 1011SOL    HW2 3033   0.087   1.280   9.383 -1.3514  0.8197 -0.1243
 1012SOL     OW 3034   0.480   3.308   8.833  0.1532  0.0746  0.4998
 1012SOL    HW1 3035   0.467   3.282   8.924  0.7013  2.8944  1.4896
 1012SOL    HW2 3036   0.560   3.263   8.806  0.9170  0.4568  2.0076
 1013SOL     OW 3037   3.154   3.781   8.416 -0.3858 -0.8565 -0.8793
 1013SOL    HW1 3038   3.169   3.698   8.461  1.4553 -0.8048 -1.3077
 1013SOL    HW2 3039   3.240   3.823   8.413 -1.2014  0.9330 -0.9758
 1014SOL     OW 3040   0.462   0.030   9.797  0.0221  0.3151 -0.1358
 1014SOL    HW1 3041   0.492   0.119   9.777 -0.6855  0.2847 -1.4167
 1014SOL    HW2 3042   0.423  -0.002   9.716  0.3725 -1.2295  0.2592
 1015SOL     OW 3043   1.704   3.760   9.631 -0.5080 -0.4166 -0.0682
 1015SOL    HW1 3044   1.791   3.745   9.594 -0.4085 -1.5405  0.5738
 1015SOL    HW2 3045   1.649   3.692   9.591 -1.2465  0.6231 -0.8998
 1016SOL     OW 3046   0.864   0.806   7.565 -0.2044 -0.0754 -0.6803
 1016SOL    HW1 3047   0.894   0.738   7.505  0.8061  0.6130 -0.9809
 1016SOL    HW2 3048   0.788   0.844   7.521 -0.8343 -1.0379 -0.4698
 1017SOL     OW 3049   3.507   3.535   7.413  0.5128 -0.2908 -0.5850
 1017SOL    HW1 3050   3.479   3.627   7.416 -0.9494 -0.7048 -0.6053
 1017SOL    HW2 3051   3.602   3.539   7.419  0.3892  1.1251  1.6863
 1018SOL     OW 3052   3.863   2.130   7.889  0.3227  0.1390 -0.0781
 1018SOL    HW1 3053   3.920   2.168   7.955 -0.9561  0.1000  1.0899
 1018SOL    HW2 3054   3.894   2.041   7.878 -0.6594 -0.5137  1.9863
 1019SOL     OW 3055   0.588   2.512   9.852 -0.2462 -0.2465  0.3191
 1019SOL    HW1 3056   0.667   2.459   9.860 -0.8595 -0.9154  2.6948
 1019SOL    HW2 3057   0.619   2.602   9.861  0.9213  0.1314 -4.5731
 1020SOL     OW 3058   4.680   0.690   9.010  0.3149  0.3863  0.3638
 1020SOL    HW1 3059   4.727   0.770   8.988  1.8791 -1.0477 -1.9954
 1020SOL    HW2 3060   4.729   0.653   9.083  0.8320  0.5980  0.1321
 1021SOL     OW 3061   0.316   4.588   9.932 -0.8749 -0.8420 -0.1937
 1021SOL    HW1 3062   0.238   4.606   9.878 -0.3698 -1.6581 -1.2241
 1021SOL    HW2 3063   0.297   4.632  10.015 -1.8224  0.1776 -0.9026
 1022SOL     OW 3064   0.862   4.705   8.001  0.4766 -0.1545  0.2587
 1022SOL    HW1 3065   0.940   4.751   8.031  0.1212 -0.0386  1.0073
 1022SOL    HW2 3066   0.892   4.615   7.986  0.2460 -0.7729  2.9714
 1023SOL     OW 3067   2.615   4.583   6.985  0.0220 -0.1251 -0.3204
 1023SOL    HW1 3068   2.634   4.637   7.062  1.9839 -0.1331 -0.7469
 1023SOL    HW2 3069   2.614   4.646   6.912 -3.1022  0.0929 -0.2339
 1024SOL     OW 3070   4.547   3.136   9.606  0.2977  0.1376  0.2264
 1024SOL    HW1 3071   4.496   3.080   9.664 -0.8199  0.1361 -0.7234
 1024SOL    HW2 3072   4.483   3.176   9.547  1.2381  1.2143 -0.1217
 1025SOL     OW 3073   2.563   1.851   8.986 -0.1181 -0.6602  0.1536
 1025SOL    HW1 3074   2.543   1.870   8.894  1.2062  0.7484  0.1052
 1025SOL    HW2 3075   2.479   1.832   9.026 -0.8891  0.0747 -1.0647
 1026SOL     OW 3076   1.887   2.916   9.753 -0.2392 -0.1383 -0.2417
 1026SOL    HW1 3077   1.848   2.969   9.683 -0.4532  3.0637  2.0774
 1026SOL    HW2 3078   1.811   2.880   9.799 -0.1630 -0.3633 -0.2902
 1027SOL     OW 3079   0.819   3.328   9.380  0.1623  0.3964 -0.0603
 1027SOL    HW1 3080   0.751   3.301   9.319  0.6814  0.9781 -0.9110
 1027SOL    HW2 3081   0.818   3.260   9.448 -0.3200 -0.3387 -0.7798
 1028SOL     OW 3082   3.381   1.802   9.652 -0.3541  0.0232  0.2038
 1028SOL    HW1 3083   3.382   1.707   9.640 -0.1797  0.1855 -1.2735
 1028SOL    HW2 3084   3.307   1.832   9.599 -0.9331  0.6473  1.3310
 1029SOL     OW 3085   1.807   2.220   9.789 -0.3653 -0.2265 -0.9174
 1029SOL    HW1 3086   1.901   2.208   9.778  0.1072 -1.6596  3.0900
 1029SOL    HW2 3087   1.799   2.276   9.866 -2.5895 -3.8550  1.8372
 1030SOL     OW 3088   4.679   3.869   9.540 -0.3298  0.1484 -0.0576
 1030SOL    HW1 3089   4.745   3.811   9.502 -0.1321  0.6508 -0.4908
 1030SOL    HW2 3090   4.730   3.930   9.595 -0.7922 -2.1323  3.1595
 1031SOL     OW 3091   0.436   1.012   8.187 -0.0756 -0.2464  0.3453
 1031SOL    HW1 3092   0.482   0.948   8.132  2.5543  2.3243 -0.7214
 1031SOL    HW2 3093   0.390   1.069   8.125  1.0155  1.3052  0.8914
 1032SOL     OW 3094   0.718   2.261   7.430  0.0194 -0.3365  0.3820
 1032SOL    HW1 3095   0.701   2.259   7.336  1.8576  1.2667 -0.0469
 1032SOL    HW2 3096   0.678   2.343   7.460 -0.8866 -1.0189  1.1010
 1033SOL     OW 3097   2.714   0.325   8.589  0.8535  0.9174  0.1842
 1033SOL    HW1 3098   2.798   0.338   8.545  1.0026 -1.3260 -0.3288
 1033SOL    HW2 3099   2.737   0.312   8.681  1.4380 -2.0453 -0.2628
 1034SOL     OW 3100   1.310   2.821   9.263 -0.1424  0.3941 -0.3069
 1034SOL    HW1 3101   1.252   2.895   9.281  1.1867  1.4795 -0.3136
 1034SOL    HW2 3102   1.393   2.862   9.239  0.5314 -1.1151 -0.6054
 1035SOL     OW 3103   0.342   1.910   9.854  0.3975 -0.6288 -0.2592
 1035SOL    HW1 3104   0.260   1.952   9.877 -0.3403 -1.0751 -1.8738
 1035SOL    HW2 3105   0.408   1.952   9.910 -0.6116  1.1543 -0.3287
 1036SOL     OW 3106   1.661   1.635   9.786  0.3360  0.1732  0.2238
 1036SOL    HW1 3107   1.723   1.650   9.858 -0.0369  0.1748  0.5460
 1036SOL    HW2 3108   1.635   1.722   9.757 -2.9804  0.3473  3.0743
 1037SOL     OW 3109   4.452   3.332   8.626  0.4133  0.2299 -0.1262
 1037SOL    HW1 3110   4.444   3.300   8.716 -1.7570 -0.7945 -0.6230
 1037SOL    HW2 3111   4.541   3.309   8.600  0.7984 -0.2029  1.4887
 1038SOL     OW 3112   2.709   3.373   8.246 -0.3071  0.3369  0.7858
 1038SOL    HW1 3113   2.715   3.441   8.314 -0.3732  2.0355 -0.8129
 1038SOL    HW2 3114   2.622   3.385   8.208 -0.2783 -0.5857  0.4097
 1039SOL     OW 3115   4.329   4.658   8.467 -0.3441 -0.0985  0.0406
 1039SOL    HW1 3116   4.358   4.616   8.386  1.4602  0.1203  0.5145
 1039SOL    HW2 3117   4.359   4.748   8.458  2.9123 -0.8013  2.2423
 1040SOL     OW 3118   1.805   1.930   9.216 -0.1084  0.4219 -0.2200
 1040SOL    HW1 3119   1.887   1.974   9.236 -0.1601  0.6784 -0.5563
 1040SOL    HW2 3120   1.740   2.000   9.216  0.0754  0.6712 -2.4589
 1041SOL     OW 3121   0.674   2.530   8.852 -0.1990  0.1774 -0.2104
 1041SOL    HW1 3122   0.621   2.571   8.920 -0.8148 -0.8696 -0.0394
 1041SOL    HW2 3123   0.650   2.575   8.771 -0.8322  0.1903 -0.0174
 1042SOL     OW 3124   3.899   2.399   9.874  0.6257  0.1212  0.0640
 1042SOL    HW1 3125   3.865   2.318   9.912  1.8852  0.1784  1.3869
 1042SOL    HW2 3126   3.826   2.461   9.881  0.1221 -0.4917  0.3682
 1043SOL     OW 3127   0.908   3.878   8.968 -1.2144  0.4221  0.8499
 1043SOL    HW1 3128   0.812   3.880   8.969 -1.4034 -3.1471  1.5018
 1043SOL    HW2 3129   0.933   3.891   9.059 -0.9703  2.1530  0.5694
 1044SOL     OW 3130   1.724   1.491   9.512 -0.6936  0.1445  0.3662
 1044SOL    HW1 3131   1.755   1.556   9.449 -0.6622  1.3969  1.6159
 1044SOL    HW2 3132   1.696   1.542   9.588 -0.1493 -1.3386  1.6323
 1045SOL     OW 3133   1.917   4.510   9.701  0.1205 -0.7096  0.2533
 1045SOL    HW1 3134   1.869   4.568   9.642  1.9852 -0.1053 -0.7467
 1045SOL    HW2 3135   1.874   4.425   9.690 -1.1696 -0.0543 -0.0264
 1046SOL     OW 3136   1.475   4.955  10.343  0.7017 -0.5843 -0.6784
 1046SOL    HW1 3137   1.436   5.007  10.412  1.0584 -0.4618 -0.5693
 1046SOL    HW2 3138   1.414   4.882  10.331  0.2712 -0.2217 -0.7382
 1047SOL     OW 3139   0.727   2.269  10.157  0.6503 -0.0509  0.3187
 1047SOL    HW1 3140   0.820   2.251  10.167  0.6299 -0.0871  0.4514
 1047SOL    HW2 3141   0.719   2.363  10.171  0.8737  0.2291 -1.2275
 1048SOL     OW 3142   3.425   4.841   7.738 -0.2980 -0.2404  0.2207
 1048SOL    HW1 3143   3.401   4.933   7.737 -1.2919 -0.4852  0.1382
 1048SOL    HW2 3144   3.497   4.835   7.801  0.1594  0.6766 -0.2088
 1049SOL     OW 3145   2.254   4.341  10.145 -0.3201  0.1326 -0.2819
 1049SOL    HW1 3146   2.294   4.263  10.108  1.1730  0.4134  0.6648
 1049SOL    HW2 3147   2.295   4.414  10.099  2.2009  0.5386  2.2806
 1050SOL     OW 3148   2.271   2.502   8.258 -0.3583  0.0018 -0.4943
 1050SOL    HW1 3149   2.240   2.417   8.227 -0.6100  0.1682 -0.7073
 1050SOL    HW2 3150   2.353   2.483   8.303 -0.5169 -0.3811 -0.3611
 1051SOL     OW 3151   4.398   3.324   9.927 -0.1218  1.0336 -0.3455
 1051SOL    HW1 3152   4.488   3.357   9.919  0.1720 -0.0725 -2.1251
 1051SOL    HW2 3153   4.349   3.373   9.862 -0.2809 -0.0069 -1.0350
 1052SOL     OW 3154   3.432   2.609   9.804 -0.1761  0.3254  0.1500
 1052SOL    HW1 3155   3.378   2.687   9.813  1.7571  1.7162  0.4228
 1052SOL    HW2 3156   3.379   2.538   9.840 -2.6093  1.1574 -1.5030
 1053SOL     OW 3157   2.708   0.023   9.071  0.1098  0.0933  0.6639
 1053SOL    HW1 3158   2.660  -0.060   9.075 -0.9404  0.6613  0.2761
 1053SOL    HW2 3159   2.696   0.062   9.157 -0.2084  0.2731  0.5405
 1054SOL     OW 3160   0.100   3.518   8.960 -0.3292  0.5882 -0.3594
 1054SOL    HW1 3161   0.038   3.543   8.892 -0.6076  0.4959 -0.1431
 1054SOL    HW2 3162   0.186   3.529   8.920 -0.5032  0.0443 -0.8877
 1055SOL     OW 3163   3.359   2.110   8.335 -0.7557 -0.2891 -0.1936
 1055SOL    HW1 3164   3.425   2.105   8.265 -0.5043 -1.3961  0.0994
 1055SOL    HW2 3165   3.399   2.167   8.401  0.3189 -1.6620  0.3789
 1056SOL     OW 3166   4.240   2.012   8.178  0.5628 -0.0251 -0.4746
 1056SOL    HW1 3167   4.263   1.976   8.092  1.4735 -0.7020  0.0271
 1056SOL    HW2 3168   4.144   2.008   8.182  0.4200  1.2636 -1.9667
 1057SOL     OW 3169   0.883   4.058  10.339 -0.3301  0.0497  0.4511
 1057SOL    HW1 3170   0.882   3.963  10.351  1.3397 -0.0987 -0.2846
 1057SOL    HW2 3171   0.841   4.071  10.254 -1.9154  0.1384  1.2042
 1058SOL     OW 3172   0.422   2.162   9.630 -0.1265  0.3456  0.2281
 1058SOL    HW1 3173   0.339   2.123   9.602 -0.0086  0.2443  0.0125
 1058SOL    HW2 3174   0.415   2.170   9.725 -0.1958 -0.0998  0.2637
 1059SOL     OW 3175   0.214   1.993   7.898 -0.1268  0.2050 -0.1023
 1059SOL    HW1 3176   0.150   2.033   7.840 -1.2231  0.9130  1.5131
 1059SOL    HW2 3177   0.161   1.944   7.962  1.0468 -0.9364  0.0456
 1060SOL     OW 3178   0.782   4.180   9.352 -0.3543  0.0205 -1.2293
 1060SOL    HW1 3179   0.728   4.164   9.275 -2.2112 -0.8104  0.1752
 1060SOL    HW2 3180   0.772   4.273   9.370 -0.4304  0.0874 -1.6102
 1061SOL     OW 3181   3.944   4.019   9.389 -0.1251 -1.1653  0.1327
 1061SOL    HW1 3182   3.993   4.099   9.370  0.1050 -1.8286 -2.2966
 1061SOL    HW2 3183   3.858   4.032   9.350 -0.7010 -1.4506  1.2397
 1062SOL     OW 3184   2.462   4.295   8.402 -0.2135  0.5484  0.3507
 1062SOL    HW1 3185   2.432   4.207   8.428 -0.5277  0.6309  0.2747
 1062SOL    HW2 3186   2.381   4.345   8.392 -0.0147  0.9658  0.8115
 1063SOL     OW 3187   4.383   4.190   6.482 -0.5668 -0.4854  0.3733
 1063SOL    HW1 3188   4.400   4.217   6.572 -1.4847 -1.6427  0.9342
 1063SOL    HW2 3189   4.397   4.268   6.430 -4.2786  1.5613  1.9863
 1064SOL     OW 3190   3.930   2.994   9.576 -0.0305  0.2864 -0.3705
 1064SOL    HW1 3191   3.846   3.017   9.535 -0.2389  1.5934  0.7153
 1064SOL    HW2 3192   3.906   2.945   9.654  0.3459 -1.6227 -1.4032
 1065SOL     OW 3193   3.464   1.453   6.147 -0.0525  0.1833 -1.0253
 1065SOL    HW1 3194   3.468   1.359   6.167  2.1648  0.2642 -0.8119
 1065SOL    HW2 3195   3.435   1.494   6.229 -0.1952 -0.2422 -0.8605
 1066SOL     OW 3196   1.918   2.196   8.338 -0.2451 -0.1414 -0.2754
 1066SOL    HW1 3197   1.835   2.243   8.347  0.4818  0.8578  1.9396
 1066SOL    HW2 3198   1.892   2.105   8.325 -1.8164 -0.2223  2.4745
 1067SOL     OW 3199   4.037   4.727   8.568 -0.2781  0.5614 -0.1484
 1067SOL    HW1 3200   4.110   4.707   8.509  0.6654 -0.1611  1.2203
 1067SOL    HW2 3201   3.960   4.692   8.523  0.7226 -2.2161  0.0693
 1068SOL     OW 3202   0.186   3.854   8.168 -0.4098  0.0026  0.6212
 1068SOL    HW1 3203   0.194   3.815   8.255 -1.2980 -0.7171  0.4052
 1068SOL    HW2 3204   0.272   3.890   8.149 -0.0598 -0.3134  1.5783
 1069SOL     OW 3205   4.849   1.134   9.652 -0.8365 -0.6105  0.0117
 1069SOL    HW1 3206   4.925   1.105   9.602 -0.8019 -1.5840  0.5976
 1069SOL    HW2 3207   4.802   1.053   9.672 -1.5336 -0.1060  0.4484
 1070SOL     OW 3208   1.216   0.451   7.106  0.5130 -0.1465 -0.0374
 1070SOL    HW1 3209   1.264   0.501   7.172  0.8031  2.1100 -1.8262
 1070SOL    HW2 3210   1.278   0.443   7.033 -0.8459  0.2753 -1.2692
 1071SOL     OW 3211   4.176   1.579   7.537  0.0117 -0.1561 -0.2335
 1071SOL    HW1 3212   4.182   1.486   7.557 -1.5672 -0.6914 -1.9823
 1071SOL    HW2 3213   4.222   1.589   7.454  1.6388  0.9811  0.7416
 1072SOL     OW 3214   2.954   1.387  10.301  0.8068 -0.5322  0.0546
 1072SOL    HW1 3215   2.877   1.403  10.357  0.2110  0.3674 -0.9915
 1072SOL    HW2 3216   3.024   1.437  10.343  0.1853  0.7423 -0.3847
 1073SOL     OW 3217   4.556   2.344   7.324  0.4033 -0.1129  0.4477
 1073SOL    HW1 3218   4.530   2.291   7.399 -0.7774  0.4468  0.4595
 1073SOL    HW2 3219   4.591   2.424   7.363 -0.1440  0.1484  0.4075
 1074SOL     OW 3220   1.229   4.587   9.064  0.2230  0.8420 -0.6931
 1074SOL    HW1 3221   1.283   4.557   8.991  0.3696  0.7491 -0.5466
 1074SOL    HW2 3222   1.291   4.599   9.136 -0.2962 -1.9458  0.3390
 1075SOL     OW 3223   2.681   3.480   8.541  0.7799  0.2688  0.2472
 1075SOL    HW1 3224   2.592   3.446   8.544  0.8310 -0.7347 -3.8777
 1075SOL    HW2 3225   2.735   3.407   8.572  0.2741  1.2051  3.7092
 1076SOL     OW 3226   0.306   0.790   8.809 -0.1338 -0.2074  0.4857
 1076SOL    HW1 3227   0.274   0.822   8.724  1.7833 -2.3513 -1.1482
 1076SOL    HW2 3228   0.259   0.708   8.823  0.5464 -0.5481  0.8161
 1077SOL     OW 3229   2.072   0.285   9.705  0.0376 -0.1818  0.1607
 1077SOL    HW1 3230   2.085   0.377   9.685 -0.1489 -0.2894 -0.4589
 1077SOL    HW2 3231   1.998   0.258   9.651 -2.5901  0.2753  3.1856
 1078SOL     OW 3232   4.260   2.256   7.872 -0.4622 -0.3919  0.2151
 1078SOL    HW1 3233   4.247   2.221   7.784 -0.9321 -0.8459  0.4537
 1078SOL    HW2 3234   4.263   2.351   7.860 -0.0255 -0.4735 -0.3455
 1079SOL     OW 3235   1.467   2.519   9.461  0.7020  0.3287  0.1396
 1079SOL    HW1 3236   1.538   2.583   9.463  1.5104 -0.5719  0.9286
 1079SOL    HW2 3237   1.449   2.500   9.553  0.6876 -0.8206 -0.0927
 1080SOL     OW 3238   0.203   2.013   8.955 -0.2390 -0.2978  0.3961
 1080SOL    HW1 3239   0.225   1.960   9.032  1.2188 -0.7352 -0.2721
 1080SOL    HW2 3240   0.160   1.951   8.896  0.6041 -0.5153 -0.0009
 1081SOL     OW 3241   0.528   0.608   8.989  0.1990  0.2846  0.0796
 1081SOL    HW1 3242   0.467   0.617   8.916 -0.2830  1.0996  0.5666
 1081SOL    HW2 3243   0.595   0.547   8.958 -0.2722  0.2367 -0.8558
 1082SOL     OW 3244   4.837   0.255   8.007 -0.0509 -0.0564  0.9006
 1082SOL    HW1 3245   4.798   0.237   7.922  0.6670  0.1057  0.5266
 1082SOL    HW2 3246   4.928   0.226   7.998  0.3326  0.9759  1.2542
 1083SOL     OW 3247   2.872   3.325   7.350  0.0371 -0.5476 -0.3536
 1083SOL    HW1 3248   2.947   3.288   7.304  0.9042 -0.0826  0.6266
 1083SOL    HW2 3249   2.886   3.420   7.347  0.1992 -0.5108  0.9594
 1084SOL     OW 3250   3.419   2.160   8.062 -0.5048  0.7945 -0.4772
 1084SOL    HW1 3251   3.386   2.156   7.972 -0.0280 -1.9565 -0.5899
 1084SOL    HW2 3252   3.512   2.183   8.052  0.2613 -2.1528 -0.9735
 1085SOL     OW 3253   0.293   2.363   7.615  0.1594  0.2849  0.1609
 1085SOL    HW1 3254   0.367   2.368   7.554 -1.2138 -0.2216 -1.6182
 1085SOL    HW2 3255   0.234   2.432   7.587  0.0281  0.8604  1.7358
 1086SOL     OW 3256   0.947   3.917   9.285  0.3653 -0.5375 -0.4746
 1086SOL    HW1 3257   0.867   3.969   9.281  0.5926 -0.2574 -2.0273
 1086SOL    HW2 3258   0.920   3.835   9.326 -0.8538 -0.6491 -1.4413
 1087SOL     OW 3259   4.617   0.820   8.283 -0.0038  0.0004 -0.1271
 1087SOL    HW1 3260   4.597   0.910   8.259  0.8954  0.6841  1.4912
 1087SOL    HW2 3261   4.676   0.788   8.215 -2.2958 -0.2861 -2.1062
 1088SOL     OW 3262   3.537   4.783   7.006 -0.4637 -0.2142 -0.6658
 1088SOL    HW1 3263   3.626   4.750   6.993  0.0257  0.6302  0.3668
 1088SOL    HW2 3264   3.520   4.771   7.099 -1.8814 -1.3810 -1.0429
 1089SOL     OW 3265   2.569   1.889   9.526  0.3862 -0.3817  0.2731
 1089SOL    HW1 3266   2.555   1.979   9.496 -0.4464  0.4293  2.8525
 1089SOL    HW2 3267   2.610   1.899   9.612 -1.2080 -2.4164  1.3497
 1090SOL     OW 3268   0.966   4.498   8.988  0.2017 -0.3894  0.0343
 1090SOL    HW1 3269   0.952   4.538   8.902  0.3400 -1.7559 -0.6429
 1090SOL    HW2 3270   1.058   4.517   9.009 -0.2351  1.2893  0.6311
 1091SOL     OW 3271   2.961   4.301   9.117  0.3735  0.3845  0.1633
 1091SOL    HW1 3272   3.046   4.263   9.140 -1.3534 -2.9684  1.7009
 1091SOL    HW2 3273   2.945   4.272   9.027  1.2708  1.9794 -0.5441
 1092SOL     OW 3274   3.616   4.031   7.551 -0.2449 -0.1379 -0.4388
 1092SOL    HW1 3275   3.659   4.090   7.613 -0.1987  1.6879 -2.1292
 1092SOL    HW2 3276   3.688   3.982   7.512  0.1064  1.1258 -1.4442
 1093SOL     OW 3277   4.409   2.539   9.176 -0.1713 -0.3906 -0.0072
 1093SOL    HW1 3278   4.338   2.597   9.149  0.5038  0.7046  0.4953
 1093SOL    HW2 3279   4.483   2.598   9.192  0.7050 -1.4539 -0.0305
 1094SOL     OW 3280   4.130   1.963   5.763 -0.8060 -0.3887 -0.3857
 1094SOL    HW1 3281   4.131   2.058   5.769  0.3144 -0.4444  0.8041
 1094SOL    HW2 3282   4.220   1.939   5.744 -0.8838 -1.2497  0.2712
 1095SOL     OW 3283   0.775   3.533   8.731 -0.1638  0.1949  0.1262
 1095SOL    HW1 3284   0.772   3.439   8.717  3.0538  0.2185 -1.5903
 1095SOL    HW2 3285   0.720   3.570   8.662 -0.1267 -0.3724 -0.2059
 1096SOL     OW 3286   0.999   3.541   7.212  0.2269  0.0687 -0.4220
 1096SOL    HW1 3287   1.006   3.457   7.165  0.6473 -0.7413  1.0349
 1096SOL    HW2 3288   0.909   3.569   7.196  0.9678  1.0934 -3.7088
 1097SOL     OW 3289   1.410   1.014  10.181  0.2361  0.1626 -0.0049
 1097SOL    HW1 3290   1.414   0.927  10.142  1.8075  0.9474 -1.7964
 1097SOL    HW2 3291   1.484   1.017  10.241  0.3790  0.3513 -0.1879
 1098SOL     OW 3292   1.804   1.230   9.345  0.2027  0.4843  0.6911
 1098SOL    HW1 3293   1.762   1.146   9.365  1.4127  0.0865  1.7277
 1098SOL    HW2 3294   1.753   1.294   9.395 -0.5453  0.3333  0.1333
 1099SOL     OW 3295   0.585   4.434   8.018 -0.5211  0.6680  0.2826
 1099SOL    HW1 3296   0.636   4.443   7.938 -2.3266  1.8608 -0.8055
 1099SOL    HW2 3297   0.649   4.439   8.089  1.1815 -0.8546 -1.0456
 1100SOL     OW 3298   2.928   2.457   9.406 -0.2149  0.0033  0.4677
 1100SOL    HW1 3299   2.946   2.398   9.333 -1.3885 -0.2663  0.3816
 1100SOL    HW2 3300   2.839   2.436   9.434 -0.1603  0.8015  1.3229
 1101SOL     OW 3301   2.988   0.725   8.141  0.0299 -0.5356  0.1496
 1101SOL    HW1 3302   2.956   0.812   8.117 -2.1859 -1.1628  0.5354
 1101SOL    HW2 3303   3.038   0.695   8.065 -0.7403  0.3472 -0.7346
 1102SOL     OW 3304   4.292   3.866   8.036  0.0744  0.3479 -0.6819
 1102SOL    HW1 3305   4.371   3.915   8.016  0.2503  0.1938 -0.3648
 1102SOL    HW2 3306   4.282   3.806   7.962  1.0179 -0.5901 -0.0739
 1103SOL     OW 3307   2.132   0.708   9.884 -0.5547 -0.0516 -0.4217
 1103SOL    HW1 3308   2.218   0.749   9.881 -1.8284  2.7931 -1.6704
 1103SOL    HW2 3309   2.139   0.644   9.955  2.2105  0.9276  0.3282
 1104SOL     OW 3310   0.124   3.008   7.428  0.0946  0.1734  0.0502
 1104SOL    HW1 3311   0.217   3.024   7.447 -0.1487 -0.8748  2.5006
 1104SOL    HW2 3312   0.094   2.953   7.500 -2.9041  1.9619  0.3472
 1105SOL     OW 3313   4.033   4.290   9.965 -0.0514  0.3571  0.2015
 1105SOL    HW1 3314   4.051   4.382   9.942  1.6969 -0.1710 -0.7711
 1105SOL    HW2 3315   3.978   4.295  10.043 -1.6661  2.2269 -0.9718
 1106SOL     OW 3316   4.240   2.334   9.860 -0.4646 -0.6748  0.1273
 1106SOL    HW1 3317   4.319   2.381   9.889  0.0630 -1.0009 -0.7476
 1106SOL    HW2 3318   4.190   2.399   9.811 -2.5799  0.6312  3.6403
 1107SOL     OW 3319   4.807   2.640   7.670 -0.5301  0.2361  0.7083
 1107SOL    HW1 3320   4.822   2.678   7.584 -0.2997  1.0688  1.1027
 1107SOL    HW2 3321   4.714   2.651   7.686 -0.3464  1.2803  1.1081
 1108SOL     OW 3322   0.197   3.082   7.788 -0.7490  0.3866 -0.3733
 1108SOL    HW1 3323   0.128   3.120   7.843  0.3537  1.3596  0.4071
 1108SOL    HW2 3324   0.216   2.997   7.828 -1.2536  0.2676 -0.3840
 1109SOL     OW 3325   2.172   2.638   8.554  0.4486 -0.1825  0.2204
 1109SOL    HW1 3326   2.125   2.659   8.635 -0.4899 -1.4155  0.0299
 1109SOL    HW2 3327   2.178   2.721   8.507 -1.9292 -0.0408  0.0726
 1110SOL     OW 3328   1.407   4.368   7.103 -0.1395  0.0308  0.8395
 1110SOL    HW1 3329   1.445   4.425   7.035 -1.2413  0.5160  0.6062
 1110SOL    HW2 3330   1.413   4.280   7.066  0.6085  0.1126  0.7448
 1111SOL     OW 3331   3.954   4.937   9.835  0.3103  0.2190 -0.2963
 1111SOL    HW1 3332   3.941   5.026   9.868  0.0558  1.2722 -2.9375
 1111SOL    HW2 3333   3.949   4.946   9.739 -1.8927 -2.9524 -0.6607
 1112SOL     OW 3334   1.032   2.521   7.165 -0.6974  0.7662  0.0492
 1112SOL    HW1 3335   1.075   2.510   7.250  1.2415  0.1707 -0.9503
 1112SOL    HW2 3336   1.049   2.439   7.118 -3.5119  0.2483 -0.2224
 1113SOL     OW 3337   0.176   3.755   8.576  0.0588 -0.1186 -0.0488
 1113SOL    HW1 3338   0.244   3.795   8.631  0.3739  0.3499 -0.7586
 1113SOL    HW2 3339   0.220   3.680   8.536  0.3939  0.6073 -1.0750
 1114SOL     OW 3340   4.943   3.447   7.921 -0.7323 -0.3465  0.2310
 1114SOL    HW1 3341   5.000   3.486   7.855  1.4240  0.5026  2.3974
 1114SOL    HW2 3342   4.867   3.505   7.925  0.8741  1.8598  1.0499
 1115SOL     OW 3343   2.088   4.385   7.537  1.1054  0.0176  0.1634
 1115SOL    HW1 3344   2.017   4.343   7.585  1.2395 -0.6442 -0.1926
 1115SOL    HW2 3345   2.149   4.313   7.517  0.7158  0.1102 -1.5852
 1116SOL     OW 3346   3.498   0.038   9.536 -0.0350 -0.4028 -0.2883
 1116SOL    HW1 3347   3.476   0.027   9.628  0.7577 -1.7181 -0.2286
 1116SOL    HW2 3348   3.421   0.004   9.489 -0.9420  1.3635 -0.1518
 1117SOL     OW 3349   2.247   1.276  10.091  0.3375 -0.7239 -0.2691
 1117SOL    HW1 3350   2.231   1.354  10.038 -0.8000 -1.1737 -0.6200
 1117SOL    HW2 3351   2.160   1.242  10.111  0.7927 -1.3770  0.6759
 1118SOL     OW 3352   1.093   2.251   7.964  0.0280  0.6363 -0.1056
 1118SOL    HW1 3353   1.154   2.283   8.031 -0.1274  2.2017 -0.6700
 1118SOL    HW2 3354   1.144   2.249   7.884 -0.6823  2.2007 -0.6352
 1119SOL     OW 3355   0.293   1.789   9.211 -0.0021 -0.5831 -0.0265
 1119SOL    HW1 3356   0.321   1.700   9.191  1.0222  0.0550 -1.6314
 1119SOL    HW2 3357   0.359   1.821   9.273  1.5662  0.0959 -1.9395
 1120SOL     OW 3358   2.786   1.842   9.927 -0.6972  0.3548 -0.3673
 1120SOL    HW1 3359   2.815   1.924   9.968  0.4881  0.1660 -0.7888
 1120SOL    HW2 3360   2.765   1.867   9.837 -1.5668  0.4272 -0.1517
 1121SOL     OW 3361   3.935   3.318   7.118  0.2486  0.3969 -0.1102
 1121SOL    HW1 3362   3.921   3.313   7.023  1.2871  0.2538 -0.2710
 1121SOL    HW2 3363   3.848   3.333   7.155 -0.1807  0.3455 -1.0798
 1122SOL     OW 3364   4.528   4.487   9.612  0.1211  1.2148  0.1844
 1122SOL    HW1 3365   4.498   4.547   9.544  2.3177  1.9859 -0.1945
 1122SOL    HW2 3366   4.530   4.539   9.692  0.3494  1.1661  0.2127
 1123SOL     OW 3367   2.686   4.603   8.724  0.2874 -0.0824 -0.0617
 1123SOL    HW1 3368   2.639   4.686   8.722 -1.0307 -0.8040 -0.6616
 1123SOL    HW2 3369   2.698   4.579   8.632  1.3327 -0.2044  0.0903
 1124SOL     OW 3370   0.548   2.741   8.183  0.4978 -0.6834  0.3039
 1124SOL    HW1 3371   0.589   2.761   8.098 -0.4416 -1.2271 -0.3007
 1124SOL    HW2 3372   0.455   2.733   8.163 -0.0637  1.3043  1.7776
 1125SOL     OW 3373   2.224   2.033   9.940  0.3789  0.2058  0.2288
 1125SOL    HW1 3374   2.291   2.092   9.906 -1.2488  0.6186 -2.5366
 1125SOL    HW2 3375   2.246   1.947   9.904 -0.6374  0.3973 -0.9486
 1126SOL     OW 3376   3.730   1.132  10.355  0.2018  0.0076  0.1602
 1126SOL    HW1 3377   3.798   1.146  10.420  0.6595  1.4274 -0.5702
 1126SOL    HW2 3378   3.761   1.180  10.278 -1.0079 -0.4198 -0.6182
 1127SOL     OW 3379   4.633   3.031   6.927  0.1536 -0.3246 -0.2282
 1127SOL    HW1 3380   4.690   2.954   6.926  1.0955  0.3544  0.0763
 1127SOL    HW2 3381   4.652   3.076   6.845 -0.4122 -0.4153 -0.4140
 1128SOL     OW 3382   0.764   2.467   7.239 -0.3596  0.4539  0.4649
 1128SOL    HW1 3383   0.768   2.461   7.334 -1.3029  0.4369  0.5088
 1128SOL    HW2 3384   0.847   2.508   7.214  1.0422 -1.8575  1.0581
 1129SOL     OW 3385   2.060   0.772  10.276 -0.8027 -0.4206 -0.0071
 1129SOL    HW1 3386   1.979   0.815  10.302 -1.4129 -1.6752  0.2632
 1129SOL    HW2 3387   2.033   0.684  10.250  0.4780 -0.8694  0.1130
 1130SOL     OW 3388   3.733   1.227   8.755 -0.0508 -0.1538  0.4752
 1130SOL    HW1 3389   3.662   1.285   8.728  0.7163  0.3311 -0.5757
 1130SOL    HW2 3390   3.807   1.252   8.699  0.6904 -1.2380  0.9367
 1131SOL     OW 3391   4.948   4.215   9.449  0.2460  0.1619  0.0211
 1131SOL    HW1 3392   4.968   4.260   9.367 -1.8425  0.3152 -0.4631
 1131SOL    HW2 3393   4.855   4.234   9.464 -0.1877 -2.2968  0.8590
 1132SOL     OW 3394   4.805   0.327  10.117 -0.1936  0.0551 -0.1703
 1132SOL    HW1 3395   4.723   0.279  10.110  0.0226 -0.1328 -1.6719
 1132SOL    HW2 3396   4.803   0.365  10.205 -0.8990 -1.7153  0.6251
 1133SOL     OW 3397   2.139   2.104   9.193  0.3206  0.3555 -0.8678
 1133SOL    HW1 3398   2.113   2.012   9.198 -0.8763  0.6321 -1.5384
 1133SOL    HW2 3399   2.197   2.107   9.117  2.6599 -0.3114  0.7830
 1134SOL     OW 3400   0.718   3.191  10.205 -0.3620  0.1525 -0.2574
 1134SOL    HW1 3401   0.770   3.268  10.229 -1.7821  0.4346  2.3004
 1134SOL    HW2 3402   0.635   3.227  10.175 -0.8684 -0.3576  0.4982
 1135SOL     OW 3403   2.000   1.857   9.833 -0.2035  0.5711 -0.0792
 1135SOL    HW1 3404   2.082   1.814   9.809  0.1329  1.9282 -1.5684
 1135SOL    HW2 3405   2.027   1.926   9.894 -0.4782 -0.0825  0.7866
 1136SOL     OW 3406   1.375   0.342   9.149 -0.1004 -0.0397  0.0883
 1136SOL    HW1 3407   1.341   0.278   9.212 -0.5885  0.4779  0.3632
 1136SOL    HW2 3408   1.311   0.414   9.152  0.2559  0.3023 -0.4718
 1137SOL     OW 3409   3.960   4.445   9.030 -0.1678  0.6473 -0.5123
 1137SOL    HW1 3410   3.990   4.531   9.060 -0.1067  0.7853 -0.9476
 1137SOL    HW2 3411   3.947   4.457   8.936  2.9974 -0.6621 -1.2506
 1138SOL     OW 3412   0.905   0.492   8.509 -0.1409 -0.3065 -0.2435
 1138SOL    HW1 3413   0.860   0.450   8.436  1.6796  0.4170 -1.8988
 1138SOL    HW2 3414   0.993   0.509   8.476  0.8436 -0.1427  2.2376
 1139SOL     OW 3415   2.449   3.810   7.462 -0.1954  0.2855 -0.4186
 1139SOL    HW1 3416   2.517   3.786   7.525  0.5826 -1.2450 -1.7653
 1139SOL    HW2 3417   2.368   3.812   7.514  0.6766  0.9379  0.9772
 1140SOL     OW 3418   1.374   1.566  10.083 -0.1920 -0.1002  0.1180
 1140SOL    HW1 3419   1.289   1.539  10.047  0.1535 -0.6069 -0.3295
 1140SOL    HW2 3420   1.352   1.610  10.165 -0.8877 -0.2575  0.0237
 1141SOL     OW 3421   4.853   3.421   7.251  0.4349 -0.4030  0.9712
 1141SOL    HW1 3422   4.808   3.343   7.218 -0.3084 -0.2924  1.6885
 1141SOL    HW2 3423   4.901   3.389   7.328 -0.8816  0.0639  2.0311
 1142SOL     OW 3424   0.161   4.933   9.315 -0.0386 -1.3110  0.5784
 1142SOL    HW1 3425   0.183   4.914   9.224 -0.2155 -1.2331  0.5193
 1142SOL    HW2 3426   0.153   5.028   9.319 -2.0390 -1.4245  0.2038
 1143SOL     OW 3427   4.522   3.766   7.029 -0.7832 -1.1022 -0.2868
 1143SOL    HW1 3428   4.448   3.731   7.079  0.1419 -2.4191  0.2272
 1143SOL    HW2 3429   4.527   3.710   6.951  0.1714 -1.5552  0.0932
 1144SOL     OW 3430   0.747   2.075   6.285  0.6870  0.0290 -0.4124
 1144SOL    HW1 3431   0.759   2.096   6.192 -1.1748 -1.6308 -1.1127
 1144SOL    HW2 3432   0.690   1.998   6.285 -1.1527  1.2339  2.1424
 1145SOL     OW 3433   4.668   0.596   5.857  0.2246 -0.7831  0.2870
 1145SOL    HW1 3434   4.755   0.611   5.894  0.6665 -0.2179 -0.9161
 1145SOL    HW2 3435   4.617   0.562   5.929  1.4300 -1.0644  1.0418
 1146SOL     OW 3436   2.824   3.397   5.402 -0.0472  0.0153  0.1436
 1146SOL    HW1 3437   2.835   3.390   5.497  0.5881 -0.7674  0.0173
 1146SOL    HW2 3438   2.902   3.357   5.365 -0.5364 -0.1819 -0.7158
 1147SOL     OW 3439   0.054   2.973   7.028 -0.3377 -0.0917 -0.0150
 1147SOL    HW1 3440   0.072   2.942   6.940 -0.5298  1.1269 -0.5064
 1147SOL    HW2 3441   0.111   3.050   7.038 -3.5135  2.5775 -0.8244
 1148SOL     OW 3442   3.718   0.907   4.569 -0.2370 -0.0862 -0.3961
 1148SOL    HW1 3443   3.645   0.897   4.508  0.0036  0.1059 -0.7203
 1148SOL    HW2 3444   3.697   0.986   4.618 -0.3081 -0.1012 -0.4020
 1149SOL     OW 3445   2.706   2.653   7.460  0.4627 -0.6390  0.4397
 1149SOL    HW1 3446   2.776   2.621   7.402 -0.3512 -0.8530 -0.4553
 1149SOL    HW2 3447   2.753   2.694   7.533  1.5354 -0.0128 -0.5478
 1150SOL     OW 3448   1.344   2.583   5.668  0.2434  0.9992  0.5564
 1150SOL    HW1 3449   1.420   2.620   5.623 -0.1059  0.2001 -0.7586
 1150SOL    HW2 3450   1.300   2.658   5.708  1.3202  1.5595  0.7161
 1151SOL     OW 3451   0.828   4.613   4.970  0.2060  0.1472  0.0112
 1151SOL    HW1 3452   0.880   4.579   5.042  0.7820  0.0868 -0.4254
 1151SOL    HW2 3453   0.868   4.575   4.892 -2.0924 -2.0728 -0.2232
 1152SOL     OW 3454   0.741   3.979   5.011 -0.0829 -0.2870  0.1352
 1152SOL    HW1 3455   0.815   3.931   5.048  0.5886  0.0860 -0.6720
 1152SOL    HW2 3456   0.761   3.984   4.917 -1.2899 -0.4385 -0.1416
 1153SOL     OW 3457   3.995   2.240   5.196 -0.3501  0.3880 -0.6622
 1153SOL    HW1 3458   4.009   2.213   5.286  0.1929  0.4511 -0.7242
 1153SOL    HW2 3459   3.906   2.212   5.176  0.5853 -2.5352 -1.1457
 1154SOL     OW 3460   0.541   0.374   7.038  0.1034  0.2411 -0.3633
 1154SOL    HW1 3461   0.451   0.387   7.070  0.1111  0.8582 -0.5915
 1154SOL    HW2 3462   0.531   0.359   6.944  0.0120 -2.3003 -0.0277
 1155SOL     OW 3463   1.694   4.438   6.202 -0.4942  0.3405  0.7571
 1155SOL    HW1 3464   1.706   4.526   6.237 -1.5725  1.6480 -1.8496
 1155SOL    HW2 3465   1.782   4.402   6.195  0.1621  1.9945  0.0759
 1156SOL     OW 3466   4.270   3.946   6.485 -0.2884 -0.7434 -0.3759
 1156SOL    HW1 3467   4.319   4.028   6.478 -1.1970 -0.3298 -2.6800
 1156SOL    HW2 3468   4.323   3.892   6.544  1.6242  0.5705 -0.7817
 1157SOL     OW 3469   4.252   3.435   5.896  0.0424  0.0634  0.0841
 1157SOL    HW1 3470   4.235   3.529   5.895 -0.5295  0.2328  4.5865
 1157SOL    HW2 3471   4.346   3.428   5.911  0.4196 -0.2273 -2.1364
 1158SOL     OW 3472   0.374   2.762   6.836 -0.2286  0.5083  0.0793
 1158SOL    HW1 3473   0.383   2.858   6.838  1.7473  0.3621  1.7169
 1158SOL    HW2 3474   0.457   2.731   6.799 -0.1467 -0.6046  1.1326
 1159SOL     OW 3475   0.689   3.913   6.665 -0.5697 -1.0899 -0.5712
 1159SOL    HW1 3476   0.627   3.974   6.625 -0.8961  1.6453  3.5333
 1159SOL    HW2 3477   0.767   3.966   6.680 -0.1536 -2.1894  1.4241
 1160SOL     OW 3478   1.686   3.107   5.882 -0.2999 -0.1610  0.1112
 1160SOL    HW1 3479   1.630   3.046   5.929 -1.4415  0.7343 -0.0413
 1160SOL    HW2 3480   1.775   3.080   5.905 -0.6577 -2.9768 -1.3136
 1161SOL     OW 3481   2.310   3.406   6.636  0.1839  0.0104 -0.6169
 1161SOL    HW1 3482   2.304   3.484   6.690 -1.6083  0.2888 -1.1549
 1161SOL    HW2 3483   2.359   3.343   6.689 -0.9242  0.5051  1.0625
 1162SOL     OW 3484   0.561   2.326   6.799 -0.0393 -0.1954  0.1495
 1162SOL    HW1 3485   0.576   2.417   6.825  0.5891 -0.2002 -0.1834
 1162SOL    HW2 3486   0.530   2.283   6.878  1.0485 -0.0220  0.6865
 1163SOL     OW 3487   0.710   4.272   6.887 -0.3835  0.8948 -0.4781
 1163SOL    HW1 3488   0.758   4.307   6.812  0.4727  3.0717  1.0009
 1163SOL    HW2 3489   0.713   4.341   6.952 -0.6675 -1.0987  1.7795
 1164SOL     OW 3490   2.081   4.787   4.755 -0.3444 -1.1283 -0.3389
 1164SOL    HW1 3491   2.158   4.789   4.699 -0.2004 -2.5087 -0.2140
 1164SOL    HW2 3492   2.014   4.836   4.707  1.4599  3.0561  0.9403
 1165SOL     OW 3493   1.494   3.934   5.173 -0.8617  0.7170  0.5160
 1165SOL    HW1 3494   1.513   3.846   5.140  0.4646  0.4223  1.9704
 1165SOL    HW2 3495   1.497   3.926   5.268 -1.5542  2.1752  0.6941
 1166SOL     OW 3496   0.366   3.181   5.940  0.1493 -0.0302  0.1400
 1166SOL    HW1 3497   0.271   3.168   5.930  0.2334 -0.6703  0.1148
 1166SOL    HW2 3498   0.405   3.119   5.878  0.5931 -0.4066  0.7758
 1167SOL     OW 3499   3.043   3.480   7.023  0.2834  0.2287 -0.2775
 1167SOL    HW1 3500   3.026   3.552   7.085 -0.1168  0.3539 -0.5282
 1167SOL    HW2 3501   3.113   3.514   6.967 -1.9992  1.7104 -2.4145
 1168SOL     OW 3502   4.437   3.418   6.475  0.1661 -0.0472  0.1326
 1168SOL    HW1 3503   4.477   3.371   6.548  1.3130  0.9030  0.1371
 1168SOL    HW2 3504   4.478   3.381   6.396  0.9518  0.8202  0.1278
 1169SOL     OW 3505   2.213   2.138   8.673  0.6334  0.0491 -0.4538
 1169SOL    HW1 3506   2.161   2.217   8.657 -0.4528 -0.3189  0.9929
 1169SOL    HW2 3507   2.161   2.067   8.635  1.3986 -0.0425 -1.3686
 1170SOL     OW 3508   1.769   0.701   6.494 -0.7556  0.7663  0.4496
 1170SOL    HW1 3509   1.719   0.623   6.466  0.0518  1.1657 -2.4967
 1170SOL    HW2 3510   1.857   0.668   6.510 -0.7632  0.8459  0.6522
 1171SOL     OW 3511   0.832   2.825   6.455 -1.0407  0.3023 -0.1529
 1171SOL    HW1 3512   0.836   2.847   6.362 -0.3855 -0.3997 -0.3057
 1171SOL    HW2 3513   0.808   2.733   6.458  1.5031 -0.4227  0.2447
 1172SOL     OW 3514   1.004   4.588   6.548  0.0931 -0.1812  0.3248
 1172SOL    HW1 3515   0.944   4.522   6.514  1.6705 -0.7003 -1.6195
 1172SOL    HW2 3516   0.953   4.634   6.615 -1.9374 -1.5741 -0.1675
 1173SOL     OW 3517   4.438   4.430   5.423  1.0896  0.3839 -0.3842
 1173SOL    HW1 3518   4.354   4.414   5.381 -0.7275  1.4089  2.5179
 1173SOL    HW2 3519   4.452   4.525   5.414  2.7402  0.0364 -2.0775
 1174SOL     OW 3520   2.598   2.679   5.459  0.0283 -0.0360  1.0099
 1174SOL    HW1 3521   2.605   2.746   5.392 -1.1602 -0.7232  0.1724
 1174SOL    HW2 3522   2.666   2.615   5.437  0.8048  0.5881  1.5035
 1175SOL     OW 3523   4.825   4.682   6.022  0.0668 -0.0008 -0.0301
 1175SOL    HW1 3524   4.814   4.752   6.086 -1.3787 -0.5139  0.3165
 1175SOL    HW2 3525   4.908   4.702   5.979  0.0926  1.4562  0.6302
 1176SOL     OW 3526   2.432   1.210   5.684 -0.2591 -0.3642 -0.1726
 1176SOL    HW1 3527   2.480   1.127   5.695  2.1274  1.0556  0.7522
 1176SOL    HW2 3528   2.423   1.220   5.589 -0.2926 -1.4967 -0.3079
 1177SOL     OW 3529   1.329   2.871   7.042 -0.4209  0.2345 -0.2639
 1177SOL    HW1 3530   1.358   2.781   7.060  1.8303  0.5299 -2.0555
 1177SOL    HW2 3531   1.268   2.861   6.968  0.6424  0.2177 -1.1736
 1178SOL     OW 3532   3.487   4.290   4.989  0.4492  0.1077  0.4499
 1178SOL    HW1 3533   3.392   4.294   4.978  0.4169 -1.7552 -0.2291
 1178SOL    HW2 3534   3.512   4.204   4.957  2.2878  0.2337  1.3806
 1179SOL     OW 3535   4.968   4.513   5.434 -0.1968 -0.6529 -0.3293
 1179SOL    HW1 3536   5.049   4.563   5.439 -1.2086  0.9506  1.3525
 1179SOL    HW2 3537   4.949   4.506   5.341  0.8695  0.6400 -0.6646
 1180SOL     OW 3538   0.847   4.548   7.351 -0.3088  0.2642 -1.4828
 1180SOL    HW1 3539   0.868   4.626   7.300 -0.4226  1.1220 -0.2782
 1180SOL    HW2 3540   0.891   4.476   7.306  0.7478  1.2049 -1.9847
 1181SOL     OW 3541   0.238   2.854   5.930  0.6080  0.2450 -1.4196
 1181SOL    HW1 3542   0.191   2.780   5.968 -1.1659  1.1398 -1.7730
 1181SOL    HW2 3543   0.174   2.895   5.872  2.5563  0.1905 -3.7381
 1182SOL     OW 3544   1.031   1.872   4.990  0.0464  0.5777 -0.5600
 1182SOL    HW1 3545   0.999   1.908   5.072  0.8172  1.2656 -0.5448
 1182SOL    HW2 3546   0.960   1.886   4.928 -0.2481  0.7382 -0.1918
 1183SOL     OW 3547   1.024   0.540   5.444  0.1458  0.5989  0.3213
 1183SOL    HW1 3548   0.950   0.513   5.389 -0.5213  1.0946  0.9544
 1183SOL    HW2 3549   1.101   0.513   5.394 -0.3537 -3.8932  1.5256
 1184SOL     OW 3550   4.622   4.004   5.598 -0.1469 -0.6929  0.0256
 1184SOL    HW1 3551   4.549   4.065   5.608 -0.1046 -0.8529  1.5580
 1184SOL    HW2 3552   4.613   3.971   5.509 -1.5670 -0.2368 -0.0336
 1185SOL     OW 3553   1.119   4.681   4.676 -0.1077  0.0455  0.0552
 1185SOL    HW1 3554   1.200   4.662   4.724 -0.3899 -0.7962  0.2208
 1185SOL    HW2 3555   1.064   4.729   4.738  0.1929  0.4666 -0.0005
 1186SOL     OW 3556   1.056   3.195   8.179  0.3166  0.9777  0.0179
 1186SOL    HW1 3557   1.112   3.151   8.115  0.4261  1.9539 -0.5809
 1186SOL    HW2 3558   1.017   3.268   8.131  1.1272  2.3047  1.2756
 1187SOL     OW 3559   0.783   2.272   9.648  0.0482  0.3749  0.2257
 1187SOL    HW1 3560   0.730   2.248   9.725 -0.1582  2.7825  0.8995
 1187SOL    HW2 3561   0.721   2.278   9.577 -0.2744  1.1853  0.5689
 1188SOL     OW 3562   1.560   3.678   5.084  0.6988  0.3497 -0.6349
 1188SOL    HW1 3563   1.479   3.629   5.098  0.5296  1.3529  3.1928
 1188SOL    HW2 3564   1.625   3.612   5.060 -0.1605 -1.3896  1.4872
 1189SOL     OW 3565   0.216   2.292   5.168  0.1245 -0.5008  0.2961
 1189SOL    HW1 3566   0.230   2.289   5.074  0.1724  0.6627  0.2524
 1189SOL    HW2 3567   0.303   2.301   5.206 -0.0407  2.0989  0.2592
 1190SOL     OW 3568   2.161   2.768   6.276 -0.0035  0.7313  0.0145
 1190SOL    HW1 3569   2.250   2.786   6.246 -0.7320  2.5479 -1.2254
 1190SOL    HW2 3570   2.135   2.689   6.229  0.1062  1.5943 -1.5648
 1191SOL     OW 3571   3.722   1.678   5.259 -0.2763  0.2779 -0.3768
 1191SOL    HW1 3572   3.812   1.708   5.271 -0.1656 -0.4962  0.9473
 1191SOL    HW2 3573   3.702   1.698   5.168  1.2408  0.4365 -0.7022
 1192SOL     OW 3574   0.852   2.420   9.852  0.0944 -0.0376  0.3551
 1192SOL    HW1 3575   0.841   2.366   9.774  1.0022 -0.3786  0.4518
 1192SOL    HW2 3576   0.909   2.492   9.824 -1.1374  0.9207  0.2142
 1193SOL     OW 3577   1.007   3.980   5.580  0.1572  0.4592  0.2272
 1193SOL    HW1 3578   1.086   4.033   5.582  1.0833 -0.8970  2.1866
 1193SOL    HW2 3579   0.973   3.984   5.669 -1.7918  0.6911 -0.4826
 1194SOL     OW 3580   0.177   0.178   6.557 -0.0676  0.0281 -0.1729
 1194SOL    HW1 3581   0.092   0.219   6.543 -0.3081 -0.2413  0.4786
 1194SOL    HW2 3582   0.234   0.218   6.491 -0.7270  0.1075 -0.7066
 1195SOL     OW 3583   2.097   4.604   9.937 -0.6705  0.3479  0.7998
 1195SOL    HW1 3584   2.028   4.618   9.873 -0.3299  0.1213  0.3795
 1195SOL    HW2 3585   2.058   4.546  10.002  0.0707 -2.3866 -1.0566
 1196SOL     OW 3586   4.899   4.628   6.753  0.1423  0.1360 -0.7546
 1196SOL    HW1 3587   4.958   4.697   6.723 -1.3151  0.8747 -2.1041
 1196SOL    HW2 3588   4.952   4.548   6.752  1.4517  0.9753 -0.6492
 1197SOL     OW 3589   1.018   1.625   7.503 -0.0305  0.3315 -0.6856
 1197SOL    HW1 3590   1.035   1.603   7.595 -0.3808  1.9287 -0.2006
 1197SOL    HW2 3591   0.923   1.623   7.495 -0.0235  0.7267 -0.8723
 1198SOL     OW 3592   3.004   4.053   6.389 -0.2205 -0.2315  0.1070
 1198SOL    HW1 3593   2.934   4.048   6.455  0.9821  0.7772  1.5042
 1198SOL    HW2 3594   3.056   3.973   6.404  0.2941  0.2037  0.6859
 1199SOL     OW 3595   3.937   4.404   6.171 -0.0378  0.1809  0.0049
 1199SOL    HW1 3596   3.879   4.330   6.186 -0.7079  1.0955  2.3639
 1199SOL    HW2 3597   4.001   4.400   6.243  1.1292  0.7767 -0.9561
 1200SOL     OW 3598   4.075   1.438   5.512 -0.1356  0.0807 -0.7928
 1200SOL    HW1 3599   4.009   1.439   5.582 -2.5856 -1.3616 -2.9166
 1200SOL    HW2 3600   4.158   1.433   5.559 -1.5486  0.4274  2.0236
 1201SOL     OW 3601   4.148   3.375   6.266  0.3184  0.1716 -0.5599
 1201SOL    HW1 3602   4.096   3.328   6.202  0.1140 -0.1500 -0.1621
 1201SOL    HW2 3603   4.221   3.316   6.287  0.3351  0.2379 -0.4298
 1202SOL     OW 3604   0.488   4.163   6.585 -0.3771 -0.1637 -0.4823
 1202SOL    HW1 3605   0.397   4.191   6.572  0.0201  0.4646 -2.1538
 1202SOL    HW2 3606   0.503   4.100   6.514  0.3801 -0.5732  0.0319
 1203SOL     OW 3607   2.326   4.073   5.836  0.1172  0.0196 -0.3692
 1203SOL    HW1 3608   2.389   4.132   5.795  3.3464 -2.8364 -0.0432
 1203SOL    HW2 3609   2.289   4.023   5.763  0.1495  0.0425 -0.4014
 1204SOL     OW 3610   0.634   4.474   6.585  0.2539  0.2963 -0.3687
 1204SOL    HW1 3611   0.702   4.456   6.519 -0.1677  1.1004 -1.0509
 1204SOL    HW2 3612   0.569   4.405   6.572  0.9240 -0.4772  0.2868
 1205SOL     OW 3613   4.068   3.060   6.801 -0.3708 -0.1672 -0.4901
 1205SOL    HW1 3614   3.973   3.055   6.804 -0.3527  0.2224  1.7077
 1205SOL    HW2 3615   4.098   2.973   6.828 -0.1317  0.4404  1.3064
 1206SOL     OW 3616   1.180   0.275   9.713 -0.3427  0.1874  0.1797
 1206SOL    HW1 3617   1.172   0.182   9.736 -0.7022  0.3244  0.6228
 1206SOL    HW2 3618   1.090   0.307   9.715 -0.1052  0.8282  1.2475
 1207SOL     OW 3619   0.288   0.892   4.842  0.7947 -0.3616 -0.0940
 1207SOL    HW1 3620   0.281   0.936   4.927  0.6211  0.3384 -0.4584
 1207SOL    HW2 3621   0.199   0.895   4.806  0.6565 -1.5610  0.1326
 1208SOL     OW 3622   0.388   1.248   6.766 -0.1116 -0.9775 -0.4789
 1208SOL    HW1 3623   0.439   1.192   6.708  1.4646  2.2350 -2.5340
 1208SOL    HW2 3624   0.314   1.277   6.712 -0.0096  0.0923 -0.0721
 1209SOL     OW 3625   0.893   4.744   6.722  0.0474  0.0063  0.0191
 1209SOL    HW1 3626   0.838   4.814   6.685 -0.5332  0.1702  1.1394
 1209SOL    HW2 3627   0.835   4.699   6.784 -0.0905 -2.5321 -1.8331
 1210SOL     OW 3628   3.731   1.281   5.753 -0.0084 -0.0146 -0.1928
 1210SOL    HW1 3629   3.673   1.306   5.825  1.8057 -0.5441  1.5655
 1210SOL    HW2 3630   3.764   1.195   5.778  0.5480 -0.3003 -1.7721
 1211SOL     OW 3631   4.189   3.050   5.237 -0.2255 -0.6389  0.2014
 1211SOL    HW1 3632   4.201   2.957   5.216  1.0685 -0.5269  0.4045
 1211SOL    HW2 3633   4.115   3.077   5.182  1.2530 -1.0481 -2.1177
 1212SOL     OW 3634   2.437   4.828   5.119  0.2689  0.2402  0.2108
 1212SOL    HW1 3635   2.426   4.922   5.106 -0.8290 -0.0770 -1.3867
 1212SOL    HW2 3636   2.356   4.789   5.086  1.1167 -1.3476 -0.0862
 1213SOL     OW 3637   3.868   0.583   7.124 -1.3423  0.0951 -0.5121
 1213SOL    HW1 3638   3.885   0.533   7.044 -0.6448 -0.3203 -0.1233
 1213SOL    HW2 3639   3.836   0.667   7.094  0.9184  0.7517 -1.3421
 1214SOL     OW 3640   4.923   3.868   6.385 -0.0184  0.7479  0.1943
 1214SOL    HW1 3641   5.016   3.855   6.407  0.2482 -0.6077 -1.5005
 1214SOL    HW2 3642   4.912   3.822   6.302 -3.0090 -2.0598  1.9362
 1215SOL     OW 3643   0.689   2.845   7.546  0.1976  0.1577  0.1832
 1215SOL    HW1 3644   0.736   2.928   7.541  0.0940  0.2906  1.2007
 1215SOL    HW2 3645   0.613   2.858   7.489 -0.0237  0.9109  0.6318
 1216SOL     OW 3646   3.384   2.517   5.851  0.2502 -0.2765  0.3187
 1216SOL    HW1 3647   3.400   2.475   5.766  2.3874  2.2629 -0.6904
 1216SOL    HW2 3648   3.455   2.487   5.907  0.8834  0.7076  0.0712
 1217SOL     OW 3649   2.283   3.411  10.121  0.3693 -0.3247 -0.0490
 1217SOL    HW1 3650   2.344   3.482  10.101  0.9393 -0.3641  1.4358
 1217SOL    HW2 3651   2.337   3.343  10.162 -0.1818 -1.5979 -1.3417
 1218SOL     OW 3652   4.332   1.670   7.006 -0.1352 -0.6347  0.3354
 1218SOL    HW1 3653   4.379   1.588   7.022 -2.5919 -2.0051  1.0488
 1218SOL    HW2 3654   4.373   1.733   7.065 -0.5718 -2.3361  2.5958
 1219SOL     OW 3655   0.659   0.375   5.646  0.0346 -0.0570 -1.0643
 1219SOL    HW1 3656   0.639   0.447   5.706  1.9858 -0.1884 -0.1763
 1219SOL    HW2 3657   0.607   0.394   5.568  0.5316  2.3783 -0.8960
 1220SOL     OW 3658   4.259   2.076   5.460  0.1691  0.2666  0.1948
 1220SOL    HW1 3659   4.166   2.058   5.445 -0.4063  2.3276  1.0561
 1220SOL    HW2 3660   4.265   2.171   5.465  2.2131  0.1427  0.9212
 1221SOL     OW 3661   3.638   4.206   8.772 -0.3629  0.0912  0.2559
 1221SOL    HW1 3662   3.659   4.292   8.809  1.7433 -0.5917  0.7587
 1221SOL    HW2 3663   3.609   4.154   8.848 -1.6588  0.3380 -0.0506
 1222SOL     OW 3664   3.973   0.121   4.615 -0.1260 -0.2234  0.1947
 1222SOL    HW1 3665   3.974   0.026   4.605  0.0205 -0.0116 -2.6268
 1222SOL    HW2 3666   4.009   0.137   4.702  0.2040 -2.7283  0.5748
 1223SOL     OW 3667   4.477   0.298   7.521 -0.6966  0.0029  0.1049
 1223SOL    HW1 3668   4.474   0.350   7.440  1.1375 -0.6491 -0.4371
 1223SOL    HW2 3669   4.514   0.214   7.494 -1.6592 -0.8522  1.3499
 1224SOL     OW 3670   1.443   4.677   6.279 -0.2857  0.5603 -0.3171
 1224SOL    HW1 3671   1.364   4.631   6.307 -1.1448  1.9744 -0.2809
 1224SOL    HW2 3672   1.410   4.756   6.235  1.1041  0.8031 -0.9762
 1225SOL     OW 3673   4.626   3.003   6.060 -0.1061  0.0796  0.2394
 1225SOL    HW1 3674   4.710   2.967   6.092  0.2778 -0.5860 -1.4133
 1225SOL    HW2 3675   4.651   3.079   6.008 -0.3298 -1.0919 -1.6716
 1226SOL     OW 3676   4.062   2.702   5.697  0.0175 -0.3715 -0.0634
 1226SOL    HW1 3677   4.045   2.766   5.628 -0.1245  1.8511  1.9229
 1226SOL    HW2 3678   4.157   2.695   5.700  0.3849  3.1051  2.4022
 1227SOL     OW 3679   0.883   1.989   6.512  0.1924  0.2398 -0.2906
 1227SOL    HW1 3680   0.840   1.979   6.598 -0.7411 -1.4834 -0.9047
 1227SOL    HW2 3681   0.815   2.025   6.456  0.2439 -0.3423 -0.7310
 1228SOL     OW 3682   1.288   2.434   7.020  0.6579  0.2403  0.1905
 1228SOL    HW1 3683   1.327   2.379   6.952  2.6496  0.1957  1.2961
 1228SOL    HW2 3684   1.315   2.394   7.103  0.7720  1.9457  1.0297
 1229SOL     OW 3685   0.743   3.324   5.912 -1.4318 -0.1970 -0.3619
 1229SOL    HW1 3686   0.737   3.250   5.852  1.6365 -0.2931 -0.6811
 1229SOL    HW2 3687   0.819   3.305   5.967 -1.2917  2.1237  0.3685
 1230SOL     OW 3688   2.465   1.751   6.219 -0.3639  0.4494 -0.1238
 1230SOL    HW1 3689   2.548   1.780   6.181  0.0514 -0.4085  0.1196
 1230SOL    HW2 3690   2.489   1.709   6.301 -1.2239  2.0040  0.9667
 1231SOL     OW 3691   0.691   3.279   7.503 -0.2014  0.0969  0.3729
 1231SOL    HW1 3692   0.663   3.271   7.412 -0.1484 -0.3605  0.3935
 1231SOL    HW2 3693   0.707   3.372   7.515 -2.5111  0.5336  0.5982
 1232SOL     OW 3694   1.777   2.986   8.546  0.0022 -0.0818 -0.0276
 1232SOL    HW1 3695   1.682   2.985   8.561  0.1931 -1.6852  1.3318
 1232SOL    HW2 3696   1.787   3.030   8.461 -2.0252 -0.6367 -0.6157
 1233SOL     OW 3697   4.489   2.457   9.471 -0.1687  0.2029 -0.4095
 1233SOL    HW1 3698   4.516   2.368   9.449 -0.2735  0.1926 -0.4963
 1233SOL    HW2 3699   4.555   2.512   9.430 -1.5531  0.2934 -2.6775
 1234SOL     OW 3700   1.026   0.888   8.489 -0.3516 -0.4157 -0.9666
 1234SOL    HW1 3701   0.978   0.908   8.408 -0.2654 -1.5549 -1.3266
 1234SOL    HW2 3702   1.017   0.793   8.498  0.6707 -0.4546 -0.2833
 1235SOL     OW 3703   1.492   3.081   6.297 -0.3035  0.5847 -0.6042
 1235SOL    HW1 3704   1.501   3.055   6.388  3.1513  0.6392 -0.7833
 1235SOL    HW2 3705   1.530   3.169   6.293  1.2800 -0.1024 -2.3282
 1236SOL     OW 3706   3.561   3.247   4.697 -0.8786 -0.3617 -0.1706
 1236SOL    HW1 3707   3.476   3.207   4.683 -0.2550 -1.4159 -1.1468
 1236SOL    HW2 3708   3.558   3.328   4.646 -1.0044 -0.8268 -0.9171
 1237SOL     OW 3709   4.354   1.029   6.155  0.4309 -0.4979 -0.2766
 1237SOL    HW1 3710   4.398   0.996   6.234 -0.3426  2.1548  1.3783
 1237SOL    HW2 3711   4.262   1.032   6.179  0.3619  1.8962 -0.6311
 1238SOL     OW 3712   0.101   2.464   5.345 -0.5793  0.5302 -0.2021
 1238SOL    HW1 3713   0.164   2.428   5.408 -1.5567  0.2434  0.6485
 1238SOL    HW2 3714   0.082   2.392   5.285 -0.4217  0.4836 -0.1950
 1239SOL     OW 3715   2.820   4.067   6.049  0.0421  0.0881  1.0933
 1239SOL    HW1 3716   2.798   4.160   6.058  0.2252  0.1280  1.1323
 1239SOL    HW2 3717   2.913   4.062   6.070  0.1477 -0.0323  0.6207
 1240SOL     OW 3718   2.671   1.280   6.509  0.5871 -0.2625 -0.1673
 1240SOL    HW1 3719   2.613   1.300   6.435 -0.8715  0.6026  1.1525
 1240SOL    HW2 3720   2.648   1.190   6.533 -1.1616  0.4514  1.0862
 1241SOL     OW 3721   2.312   2.380   4.700  0.1974 -0.7379  0.4687
 1241SOL    HW1 3722   2.329   2.359   4.791 -1.0040 -0.2454  0.8246
 1241SOL    HW2 3723   2.312   2.475   4.696  1.2668 -0.7406 -0.2699
 1242SOL     OW 3724   0.791   3.420   8.023 -0.1131  0.4984 -0.2929
 1242SOL    HW1 3725   0.777   3.426   8.117 -0.0360 -0.0984 -0.2403
 1242SOL    HW2 3726   0.713   3.376   7.990 -0.6178  1.6121 -0.6496
 1243SOL     OW 3727   4.986   2.018   5.616 -0.0388  0.1959 -0.5245
 1243SOL    HW1 3728   5.001   1.931   5.654 -1.9191 -0.2979 -0.8153
 1243SOL    HW2 3729   4.928   2.002   5.543 -0.5858  1.7356 -0.4462
 1244SOL     OW 3730   3.370   2.450   5.431  0.0985 -0.7307 -0.0207
 1244SOL    HW1 3731   3.275   2.438   5.438  0.1379 -1.8085 -0.9965
 1244SOL    HW2 3732   3.406   2.401   5.504 -0.1007 -0.0955  0.5105
 1245SOL     OW 3733   0.400   2.955   5.401 -0.5254  0.3331  0.1267
 1245SOL    HW1 3734   0.411   2.927   5.492  0.8264 -1.6273 -0.5601
 1245SOL    HW2 3735   0.308   2.938   5.381 -0.3674 -1.1692  0.5553
 1246SOL     OW 3736   4.722   3.838   6.060 -0.2057 -0.1754  0.5686
 1246SOL    HW1 3737   4.655   3.844   5.993 -0.5034  0.8933  0.9447
 1246SOL    HW2 3738   4.703   3.756   6.106 -1.6629  0.4352  1.0964
 1247SOL     OW 3739   0.482   3.204   6.176  0.0100  0.6451  0.6540
 1247SOL    HW1 3740   0.461   3.200   6.083 -0.2053 -0.0473  0.7294
 1247SOL    HW2 3741   0.576   3.184   6.180  0.5228  2.7698  0.4073
 1248SOL     OW 3742   4.785   0.095   6.486 -0.1675 -0.2621 -0.2417
 1248SOL    HW1 3743   4.849   0.139   6.430  1.8384 -1.9739  0.5532
 1248SOL    HW2 3744   4.773   0.155   6.560  0.7903 -0.0331 -0.2576
 1249SOL     OW 3745   1.676   4.479   5.207 -0.5617  0.1512 -0.3684
 1249SOL    HW1 3746   1.669   4.386   5.183 -1.9986  0.1421 -0.0099
 1249SOL    HW2 3747   1.768   4.500   5.193 -0.4753 -0.9773 -1.7538
 1250SOL     OW 3748   3.903   0.269   6.248  0.3375  0.0154 -0.1332
 1250SOL    HW1 3749   3.904   0.242   6.156 -0.0728 -2.0675  0.4177
 1250SOL    HW2 3750   3.873   0.192   6.296 -2.5208  1.9343  1.4935
 1251SOL     OW 3751   4.200   3.891   5.482  0.4373  0.6234  0.3783
 1251SOL    HW1 3752   4.250   3.895   5.400 -1.4216  2.6280 -0.7424
 1251SOL    HW2 3753   4.199   3.980   5.515 -2.0249  0.6026  0.5511
 1252SOL     OW 3754   1.857   3.362   5.854 -0.1655 -0.1693 -0.1831
 1252SOL    HW1 3755   1.814   3.328   5.776 -0.0537 -1.1626  0.1753
 1252SOL    HW2 3756   1.801   3.435   5.881  0.0868  0.5312 -1.4763
 1253SOL     OW 3757   0.798   1.924   8.462 -0.2258  0.0172  0.1381
 1253SOL    HW1 3758   0.892   1.924   8.479 -0.1623 -2.4665  0.0852
 1253SOL    HW2 3759   0.758   1.892   8.543 -0.5903 -3.3387 -1.2003
 1254SOL     OW 3760   0.566   2.963   4.536  0.7867  0.1041  0.5058
 1254SOL    HW1 3761   0.538   3.017   4.461 -1.4903 -2.4171 -0.6511
 1254SOL    HW2 3762   0.497   2.976   4.601 -1.3239 -3.1773 -0.8215
 1255SOL     OW 3763   1.100   1.687   5.957  0.0449  0.6147 -0.0069
 1255SOL    HW1 3764   1.012   1.704   5.988  1.0657  0.7155  3.2507
 1255SOL    HW2 3765   1.113   1.593   5.973 -0.4890 -0.2048 -3.6255
 1256SOL     OW 3766   2.841   4.951   6.684  0.0216  0.0897  0.0579
 1256SOL    HW1 3767   2.876   4.888   6.620 -1.8691  0.9380 -1.9149
 1256SOL    HW2 3768   2.877   5.035   6.657  2.3530  0.0624  2.5540
 1257SOL     OW 3769   1.563   4.243   5.528  0.0546  0.3240  0.1126
 1257SOL    HW1 3770   1.533   4.256   5.618  0.8792  0.3540  0.3842
 1257SOL    HW2 3771   1.580   4.332   5.495  1.3184  0.2388  0.4766
 1258SOL     OW 3772   4.753   1.283   7.461 -0.0857  0.2361 -0.5920
 1258SOL    HW1 3773   4.841   1.319   7.465 -0.3181  0.9795 -1.7690
 1258SOL    HW2 3774   4.765   1.193   7.431  0.3189  0.0507  0.0972
 1259SOL     OW 3775   0.494   4.612   7.072  0.3164 -0.2658  0.9004
 1259SOL    HW1 3776   0.506   4.592   7.165  0.4643 -1.9107  0.5485
 1259SOL    HW2 3777   0.551   4.550   7.026 -2.1794 -1.7367 -0.4312
 1260SOL     OW 3778   4.085   4.865   6.358  0.3248 -0.6829  0.5117
 1260SOL    HW1 3779   4.180   4.868   6.367  0.5553  1.5420 -1.8113
 1260SOL    HW2 3780   4.054   4.943   6.404  0.0317  0.6750 -1.8359
 1261SOL     OW 3781   2.246   5.002   7.535 -0.0123  0.5801  0.6230
 1261SOL    HW1 3782   2.266   4.910   7.546  0.5741  0.8320  1.7067
 1261SOL    HW2 3783   2.326   5.040   7.498 -0.1161  0.7275  0.5480
 1262SOL     OW 3784   4.206   1.514   5.850  0.6096 -0.1848  0.4065
 1262SOL    HW1 3785   4.112   1.528   5.837  0.7398 -0.9510 -1.8155
 1262SOL    HW2 3786   4.233   1.585   5.907 -1.2396  0.2838  0.7729
 1263SOL     OW 3787   1.299   1.708   7.453  0.2783  0.4061 -0.2014
 1263SOL    HW1 3788   1.361   1.732   7.521 -1.0996  1.1463  0.8302
 1263SOL    HW2 3789   1.213   1.712   7.495 -0.4099 -2.3203 -1.0866
 1264SOL     OW 3790   2.845   4.682   5.125 -0.1117 -0.0027 -0.3599
 1264SOL    HW1 3791   2.772   4.658   5.068  0.9809 -0.3925 -1.6245
 1264SOL    HW2 3792   2.882   4.760   5.086 -0.2318  0.5832  0.6518
 1265SOL     OW 3793   2.956   4.660   8.770 -0.2093  0.2388 -0.6942
 1265SOL    HW1 3794   2.955   4.646   8.865 -1.7531 -1.1282 -0.8774
 1265SOL    HW2 3795   2.868   4.637   8.742  0.2383  0.6056 -2.4895
 1266SOL     OW 3796   0.189   3.781   6.501  0.2229 -0.0858 -0.1568
 1266SOL    HW1 3797   0.278   3.813   6.491  0.9715 -1.5769  1.2681
 1266SOL    HW2 3798   0.199   3.689   6.525 -1.6467 -0.0061  1.1492
 1267SOL     OW 3799   4.324   0.471   8.056 -0.0168  0.0053  0.0735
 1267SOL    HW1 3800   4.378   0.456   8.133  1.2081 -0.8670 -0.9001
 1267SOL    HW2 3801   4.340   0.395   8.000 -1.0940  0.4719 -0.9148
 1268SOL     OW 3802   4.640   4.354   7.691  0.3391  0.1332  0.5536
 1268SOL    HW1 3803   4.704   4.403   7.638  1.2605 -1.2529  0.3119
 1268SOL    HW2 3804   4.689   4.325   7.767  0.4357 -2.0832 -0.2671
 1269SOL     OW 3805   2.442   2.765   5.973  0.9733  0.6673 -0.1210
 1269SOL    HW1 3806   2.440   2.784   6.067  1.4805 -0.7624  0.2026
 1269SOL    HW2 3807   2.502   2.690   5.965 -0.5775 -0.4982 -1.3548
 1270SOL     OW 3808   0.445   0.334   4.928 -0.5283 -0.2500  0.5244
 1270SOL    HW1 3809   0.444   0.425   4.900  1.3701 -0.4765 -0.3949
 1270SOL    HW2 3810   0.537   0.313   4.939 -0.8966 -2.2274  0.1672
 1271SOL     OW 3811   1.850   2.130   5.362  0.6187 -0.2746 -0.2174
 1271SOL    HW1 3812   1.903   2.095   5.290 -0.4671  0.2695 -1.3151
 1271SOL    HW2 3813   1.765   2.087   5.352  0.7573 -0.9658  1.3841
 1272SOL     OW 3814   1.601   3.168   5.012  0.4049 -0.0389 -0.5346
 1272SOL    HW1 3815   1.625   3.124   5.094 -0.5182  1.5867  0.6588
 1272SOL    HW2 3816   1.672   3.230   4.996  0.9989 -0.9225 -1.4509
 1273SOL     OW 3817   3.700   1.047   6.384  0.4991 -0.3493  0.4067
 1273SOL    HW1 3818   3.776   0.994   6.408  1.4677  0.0509 -1.5775
 1273SOL    HW2 3819   3.633   0.984   6.359  1.4709 -0.7047 -1.4468
 1274SOL     OW 3820   0.160   3.031   5.680  0.2523  0.2225 -0.1673
 1274SOL    HW1 3821   0.254   3.030   5.698  0.7994  2.0617 -2.3928
 1274SOL    HW2 3822   0.143   2.949   5.634  0.8853  0.1415 -0.2657
 1275SOL     OW 3823   0.712   3.512   5.709 -0.3332 -0.0255  0.7435
 1275SOL    HW1 3824   0.732   3.435   5.762 -2.4092 -0.0066  1.6752
 1275SOL    HW2 3825   0.772   3.580   5.742  3.4473 -1.7565 -1.8875
 1276SOL     OW 3826   3.500   3.255   4.980 -0.6667 -0.4359  0.5038
 1276SOL    HW1 3827   3.516   3.169   5.018  1.2630  0.1177  1.0614
 1276SOL    HW2 3828   3.548   3.254   4.897  0.3691  0.4697  1.0662
 1277SOL     OW 3829   3.263   4.781   6.732  0.1092 -0.7388  0.3175
 1277SOL    HW1 3830   3.353   4.815   6.739 -0.8957  1.9033  2.0205
 1277SOL    HW2 3831   3.238   4.798   6.641  0.5994  0.6408  0.4142
 1278SOL     OW 3832   2.515   3.627   8.297  0.4441 -0.8319 -0.0049
 1278SOL    HW1 3833   2.582   3.672   8.244 -1.5993  0.9734 -1.2102
 1278SOL    HW2 3834   2.501   3.543   8.251  1.6313 -1.1109  0.1046
 1279SOL     OW 3835   3.922   4.004   6.544  0.5697 -0.4623  0.1547
 1279SOL    HW1 3836   3.943   3.912   6.530  0.1019 -0.4719 -0.5317
 1279SOL    HW2 3837   3.853   4.002   6.611 -0.0178 -0.6737 -0.4377
 1280SOL     OW 3838   3.025   2.913   7.338  0.2084  0.0426 -0.2843
 1280SOL    HW1 3839   3.037   2.986   7.399  1.1500  0.5109 -1.0144
 1280SOL    HW2 3840   2.988   2.953   7.260  0.5506 -0.2863 -0.6184
 1281SOL     OW 3841   4.870   4.588   6.377  0.8206  0.1424  0.1118
 1281SOL    HW1 3842   4.777   4.595   6.401 -0.4506  0.1500 -4.0732
 1281SOL    HW2 3843   4.906   4.674   6.398 -0.1275  0.1991  1.6477
 1282SOL     OW 3844   0.318   0.085   5.639  0.0834  0.8084 -0.9254
 1282SOL    HW1 3845   0.413   0.082   5.623 -0.0450 -4.5556 -2.8529
 1282SOL    HW2 3846   0.279   0.070   5.553 -2.1625 -1.9529  0.4098
 1283SOL     OW 3847   2.981   2.995   5.073  0.0697  0.1466 -0.1422
 1283SOL    HW1 3848   2.973   3.023   4.982 -0.7459 -1.8174 -0.7376
 1283SOL    HW2 3849   3.061   2.943   5.076 -0.6208 -0.9594 -0.1098
 1284SOL     OW 3850   4.929   0.034   7.093 -0.0384 -0.3574 -0.2024
 1284SOL    HW1 3851   4.968   0.108   7.138 -1.1741 -0.8133  1.5991
 1284SOL    HW2 3852   4.837   0.057   7.082  0.0545 -0.5697 -1.6846
 1285SOL     OW 3853   0.915   4.758   7.193  1.2358 -0.3332  0.7403
 1285SOL    HW1 3854   0.979   4.708   7.144  0.2345 -0.8593 -0.0572
 1285SOL    HW2 3855   0.865   4.805   7.127  0.5917 -0.1837  1.3198
 1286SOL     OW 3856   3.050   4.953   7.997  0.0874 -0.3218 -0.0146
 1286SOL    HW1 3857   2.969   4.905   7.977 -0.2577  0.5297 -0.7096
 1286SOL    HW2 3858   3.064   4.939   8.090 -0.9160 -0.4063  0.1299
 1287SOL     OW 3859   3.471   2.911   7.824 -0.0220  0.0658 -0.0697
 1287SOL    HW1 3860   3.490   2.822   7.856 -2.0240 -0.4588 -0.2349
 1287SOL    HW2 3861   3.409   2.946   7.888 -0.4903  0.7540 -0.8953
 1288SOL     OW 3862   4.948   2.799   9.192  0.5631 -0.0892  0.2751
 1288SOL    HW1 3863   4.941   2.890   9.160  0.1734 -0.1694  0.1321
 1288SOL    HW2 3864   5.029   2.767   9.152  0.8846  0.3074  0.6023
 1289SOL     OW 3865   1.078   4.932   6.339  0.2010  0.0505  0.4510
 1289SOL    HW1 3866   1.041   4.903   6.423 -0.0549  0.0461  0.3356
 1289SOL    HW2 3867   1.051   4.865   6.277  0.6399 -0.1047  0.4183
 1290SOL     OW 3868   4.093   4.222   6.545  0.5866 -0.2867 -0.1524
 1290SOL    HW1 3869   4.043   4.142   6.531 -0.5872  0.3249  0.4320
 1290SOL    HW2 3870   4.179   4.191   6.574  0.8277 -1.3660 -1.8951
 1291SOL     OW 3871   1.275   0.837   8.705 -0.0593  0.0200 -0.1357
 1291SOL    HW1 3872   1.319   0.756   8.734 -0.3045 -0.6240 -1.4987
 1291SOL    HW2 3873   1.183   0.824   8.730  0.1959  0.6527  1.2168
 1292SOL     OW 3874   0.605   3.544   8.934  0.3977 -0.2706  0.0423
 1292SOL    HW1 3875   0.677   3.541   8.871  0.7663 -1.0518  0.4915
 1292SOL    HW2 3876   0.528   3.566   8.881  0.9959  0.8796 -0.3985
 1293SOL     OW 3877   1.484   1.247   6.321  0.7876  0.0698 -0.2810
 1293SOL    HW1 3878   1.533   1.303   6.381  1.1623  1.0055 -1.4223
 1293SOL    HW2 3879   1.441   1.182   6.378 -0.1713  1.8678  1.1592
 1294SOL     OW 3880   1.765   1.373   8.055  0.4311 -0.0333 -0.0884
 1294SOL    HW1 3881   1.726   1.448   8.011  0.5340 -0.1482 -0.3818
 1294SOL    HW2 3882   1.778   1.308   7.985  0.4237 -0.2891  0.1439
 1295SOL     OW 3883   0.868   3.554   8.376 -0.6273 -0.5063  0.3689
 1295SOL    HW1 3884   0.838   3.466   8.399  0.0382 -0.9517 -0.4124
 1295SOL    HW2 3885   0.920   3.581   8.452 -3.0563  0.3645  1.8286
 1296SOL     OW 3886   1.406   1.189   8.472 -0.3302  0.1098  0.7609
 1296SOL    HW1 3887   1.482   1.235   8.507  0.4754 -1.3571  1.0452
 1296SOL    HW2 3888   1.442   1.107   8.438 -1.8486 -0.8586  1.3889
 1297SOL     OW 3889   1.415   4.344   6.213  0.1837 -0.1552  0.0764
 1297SOL    HW1 3890   1.507   4.362   6.229  0.7643 -4.1661  2.5551
 1297SOL    HW2 3891   1.369   4.422   6.244  2.5792  0.5638  2.0957
 1298SOL     OW 3892   1.506   3.958   5.444 -0.9882 -0.2747  0.3718
 1298SOL    HW1 3893   1.547   4.045   5.446 -0.9310 -0.2530 -0.9607
 1298SOL    HW2 3894   1.548   3.910   5.516 -3.9088  1.9860  3.9426
 1299SOL     OW 3895   0.032   1.901   9.954 -0.0029 -0.1231  0.4898
 1299SOL    HW1 3896   0.037   1.814   9.992 -1.7094 -0.6940 -0.4420
 1299SOL    HW2 3897  -0.061   1.911   9.930  0.3603  1.5190 -0.3918
 1300SOL     OW 3898   1.467   1.550   7.279 -0.1157 -0.3354  0.1833
 1300SOL    HW1 3899   1.413   1.597   7.343  0.2093 -1.0922  1.0152
 1300SOL    HW2 3900   1.484   1.616   7.211 -2.4412 -0.1725 -0.3451
 1301SOL     OW 3901   2.100   0.201   8.171 -0.3239 -0.6569  0.6560
 1301SOL    HW1 3902   2.016   0.242   8.191 -0.8709  0.5189 -3.1851
 1301SOL    HW2 3903   2.077   0.125   8.118  1.0104 -0.5778 -0.0775
 1302SOL     OW 3904   4.802   2.374   7.921  0.1081 -0.0882  0.0957
 1302SOL    HW1 3905   4.778   2.466   7.926 -0.2525 -0.1658 -0.1496
 1302SOL    HW2 3906   4.719   2.328   7.907  0.2211 -0.4945  0.6866
 1303SOL     OW 3907   2.152   1.538   8.667  0.8200 -0.3786 -0.2810
 1303SOL    HW1 3908   2.146   1.495   8.581 -1.1958 -1.4442  0.3299
 1303SOL    HW2 3909   2.217   1.487   8.715  2.6762  0.8022 -1.4386
 1304SOL     OW 3910   3.699   1.378   9.287  0.2735  0.5393  0.0440
 1304SOL    HW1 3911   3.770   1.404   9.228 -0.0200  1.5845  0.1370
 1304SOL    HW2 3912   3.649   1.314   9.236  1.4772 -0.4912  0.1125
 1305SOL     OW 3913   2.165   0.956   8.847  0.4788 -0.3561  0.3247
 1305SOL    HW1 3914   2.187   0.965   8.754 -0.0682 -2.4016 -0.0507
 1305SOL    HW2 3915   2.232   0.898   8.882  1.0049  0.8501  1.3738
 1306SOL     OW 3916   3.661   4.545   5.419 -0.4079  0.0285  0.4181
 1306SOL    HW1 3917   3.620   4.484   5.357  1.0688  1.4360 -2.0793
 1306SOL    HW2 3918   3.753   4.521   5.419  0.7833  3.5951 -2.6560
 1307SOL     OW 3919   1.503   0.728   7.484  0.1724 -0.0960 -0.0244
 1307SOL    HW1 3920   1.564   0.677   7.537  0.1719 -1.2874 -1.1323
 1307SOL    HW2 3921   1.453   0.780   7.548  2.3757  0.9933  0.9142
 1308SOL     OW 3922   3.095   4.598   7.459  0.2391  0.7143 -0.2792
 1308SOL    HW1 3923   3.031   4.652   7.505  1.1999  1.7444 -0.1006
 1308SOL    HW2 3924   3.173   4.653   7.453  1.0817 -0.4704 -0.5757
 1309SOL     OW 3925   0.466   5.010   8.897 -0.1302 -0.0308  0.3362
 1309SOL    HW1 3926   0.375   4.984   8.881 -0.3962  0.8847  0.3444
 1309SOL    HW2 3927   0.517   4.949   8.844 -0.7978  0.1830 -0.5819
 1310SOL     OW 3928   1.845   1.119   8.271 -0.1381  0.0240  0.2429
 1310SOL    HW1 3929   1.850   1.174   8.193 -1.5510  2.6394  1.8786
 1310SOL    HW2 3930   1.751   1.101   8.282 -0.1414  0.8611  2.0231
 1311SOL     OW 3931   1.696   1.823   8.098  0.1558  0.5606  0.1798
 1311SOL    HW1 3932   1.712   1.910   8.062  2.2680  0.0983 -0.1552
 1311SOL    HW2 3933   1.695   1.765   8.021  0.8818  0.0476  0.5396
 1312SOL     OW 3934   4.841   3.355   6.123 -0.6177  0.8941  0.4279
 1312SOL    HW1 3935   4.876   3.307   6.199 -1.5166  1.1012  0.9945
 1312SOL    HW2 3936   4.829   3.287   6.056  0.9896  0.8483  0.1495
 1313SOL     OW 3937   4.803   4.732   7.690  0.0469 -0.6766 -0.0754
 1313SOL    HW1 3938   4.820   4.646   7.653 -1.2606 -1.0150  0.0573
 1313SOL    HW2 3939   4.847   4.731   7.775  0.9500 -0.8018 -0.5330
 1314SOL     OW 3940   4.508   4.067   9.722  0.3108  0.0206 -0.0106
 1314SOL    HW1 3941   4.580   4.022   9.678  0.6346 -0.7982  1.3036
 1314SOL    HW2 3942   4.544   4.094   9.806 -0.2272  1.7499 -0.2953
 1315SOL     OW 3943   4.895   2.369   7.619 -0.3465  0.0070 -0.6383
 1315SOL    HW1 3944   4.941   2.410   7.693  0.0717  0.2668 -1.0331
 1315SOL    HW2 3945   4.810   2.412   7.617 -0.8441 -0.8649  0.4420
 1316SOL     OW 3946   0.701   0.637   9.756  0.1184  0.1640  0.0106
 1316SOL    HW1 3947   0.633   0.690   9.797  0.9099  1.8008 -0.7313
 1316SOL    HW2 3948   0.762   0.700   9.718  1.0478 -1.2787 -1.0015
 1317SOL     OW 3949   2.572   1.340   7.083 -0.1238  0.1761 -0.1907
 1317SOL    HW1 3950   2.566   1.405   7.013  1.2353  1.3508  0.7127
 1317SOL    HW2 3951   2.632   1.274   7.049 -0.2475  0.2222 -0.5042
 1318SOL     OW 3952   0.257   0.036   8.247  0.1261  0.5210  0.3196
 1318SOL    HW1 3953   0.184   0.087   8.282  1.4540  2.2914  0.6171
 1318SOL    HW2 3954   0.297   0.092   8.181 -0.2162 -1.3934 -1.6299
 1319SOL     OW 3955   3.078   4.250   7.798 -0.0255  0.0612 -0.2642
 1319SOL    HW1 3956   3.121   4.334   7.785 -0.2604  0.1847 -0.2481
 1319SOL    HW2 3957   3.015   4.265   7.869 -1.4211  0.3801 -1.5279
 1320SOL     OW 3958   4.510   2.574   6.705 -0.1116 -0.0084 -0.4360
 1320SOL    HW1 3959   4.447   2.642   6.727 -0.3960 -0.7797  1.3030
 1320SOL    HW2 3960   4.584   2.622   6.666 -0.2142  1.3553  0.9284
 1321SOL     OW 3961   3.661   0.565   9.618  0.2395 -0.6592  0.0590
 1321SOL    HW1 3962   3.728   0.569   9.686  2.0958 -0.0031 -1.7094
 1321SOL    HW2 3963   3.647   0.471   9.603  1.6023 -0.8299 -0.2776
 1322SOL     OW 3964   0.034   4.900   5.574 -0.1356 -0.5325  0.3307
 1322SOL    HW1 3965   0.001   4.822   5.529  1.7893 -1.0299 -0.3068
 1322SOL    HW2 3966   0.086   4.946   5.508 -1.9884  1.8956  0.3678
 1323SOL     OW 3967   2.202   2.771   8.321 -0.6249 -0.4090 -0.1892
 1323SOL    HW1 3968   2.115   2.763   8.282 -0.8051 -0.8763  0.3005
 1323SOL    HW2 3969   2.244   2.686   8.305 -1.9212 -1.9746  3.5110
 1324SOL     OW 3970   3.273   2.418   8.645 -0.3143 -0.1168 -0.5363
 1324SOL    HW1 3971   3.210   2.375   8.587 -0.6353  0.3585 -0.5458
 1324SOL    HW2 3972   3.278   2.508   8.613  0.5637 -0.2070 -0.6910
 1325SOL     OW 3973   1.549   1.549   8.575 -0.6944  0.0980 -0.4037
 1325SOL    HW1 3974   1.595   1.485   8.521 -0.0905  0.6674 -0.5853
 1325SOL    HW2 3975   1.512   1.499   8.647  1.4733 -0.2001  0.5742
 1326SOL     OW 3976   3.975   3.494   8.174 -0.1927 -0.2794  0.1798
 1326SOL    HW1 3977   4.043   3.435   8.207 -0.4671 -1.0040 -0.5053
 1326SOL    HW2 3978   3.937   3.447   8.100 -0.2913  0.8542 -0.5111
 1327SOL     OW 3979   1.662   0.407   9.417 -0.4152  0.0876  0.2028
 1327SOL    HW1 3980   1.567   0.412   9.411 -0.5233 -1.2097  0.6495
 1327SOL    HW2 3981   1.679   0.334   9.477  0.8815 -1.2006 -1.6298
 1328SOL     OW 3982   4.277   3.080   7.539 -0.1486 -0.1435  0.3199
 1328SOL    HW1 3983   4.322   3.009   7.494  0.7692 -0.5202  1.7651
 1328SOL    HW2 3984   4.332   3.157   7.525  1.4326 -0.7496  2.6774
 1329SOL     OW 3985   1.324   1.545   9.283  0.3014 -0.6320 -0.1005
 1329SOL    HW1 3986   1.255   1.528   9.218 -0.8171 -0.4802  1.0024
 1329SOL    HW2 3987   1.324   1.641   9.292 -0.8888 -0.7376  1.4654
 1330SOL     OW 3988   1.333   4.142   8.745  0.8435  0.5006 -0.3078
 1330SOL    HW1 3989   1.399   4.163   8.811 -0.1109  0.1688  0.7953
 1330SOL    HW2 3990   1.253   4.127   8.795 -0.0892  0.9277 -1.6117
 1331SOL     OW 3991   3.186   4.543   7.787  0.1155  0.0942 -0.5997
 1331SOL    HW1 3992   3.127   4.601   7.739 -2.6138  0.4301  2.7434
 1331SOL    HW2 3993   3.244   4.602   7.835 -1.4026  0.1564  1.3053
 1332SOL     OW 3994   0.474   1.213   7.917  0.2618 -0.3094 -0.1082
 1332SOL    HW1 3995   0.399   1.158   7.895  1.3811 -1.9106 -0.0997
 1332SOL    HW2 3996   0.441   1.270   7.986 -0.3729 -2.5765  1.6049
 1333SOL     OW 3997   1.845   3.805   6.920  0.2029 -0.1840 -0.2297
 1333SOL    HW1 3998   1.927   3.758   6.936  0.2242 -0.7377 -1.8195
 1333SOL    HW2 3999   1.802   3.808   7.005  3.0806  2.5410  1.4006
 1334SOL     OW 4000   2.556   2.514   8.234 -0.6403  0.2991  0.7851
 1334SOL    HW1 4001   2.557   2.576   8.162  0.2123 -0.8337 -0.2401
 1334SOL    HW2 4002   2.632   2.457   8.217 -2.1215 -1.8570  0.8865
 1335SOL     OW 4003   1.078   2.096  10.147 -0.3104  0.5377 -0.2292
 1335SOL    HW1 4004   1.141   2.064  10.083 -0.2158  0.3401 -0.0412
 1335SOL    HW2 4005   1.042   2.176  10.108 -1.5789 -0.5289 -1.3474
 1336SOL     OW 4006   4.857   2.188   5.775 -0.0324 -0.2114  0.3461
 1336SOL    HW1 4007   4.926   2.138   5.732 -0.9836 -0.5478 -0.8398
 1336SOL    HW2 4008   4.789   2.200   5.707 -0.5973  1.1786  1.0990
 1337SOL     OW 4009   4.992   0.659   5.696 -0.4898  0.0813 -0.1925
 1337SOL    HW1 4010   4.917   0.711   5.666 -0.2667  0.8678  0.5539
 1337SOL    HW2 4011   5.048   0.651   5.620 -0.2747  1.4241 -0.2023
 1338SOL     OW 4012   2.846   4.735   8.105  0.1639 -0.3991  0.0665
 1338SOL    HW1 4013   2.793   4.812   8.125 -1.0627 -0.7948 -1.4730
 1338SOL    HW2 4014   2.815   4.668   8.166  0.4449  0.0025  0.6538
 1339SOL     OW 4015   0.748   2.933  10.260  0.4575  0.2987 -0.6574
 1339SOL    HW1 4016   0.841   2.948  10.243  0.1058  1.1140 -1.9494
 1339SOL    HW2 4017   0.706   3.017  10.243 -0.6049 -0.2104 -0.6818
 1340SOL     OW 4018   2.438   3.386   8.204  0.5542 -0.2102  0.7788
 1340SOL    HW1 4019   2.396   3.387   8.117  1.1421  0.0167  0.4943
 1340SOL    HW2 4020   2.384   3.326   8.255 -1.9233  2.2165  1.3099
 1341SOL     OW 4021   0.297   3.266   8.571 -0.0079 -0.1165  0.1100
 1341SOL    HW1 4022   0.352   3.214   8.512 -1.9996 -1.2254 -0.8678
 1341SOL    HW2 4023   0.342   3.263   8.655  0.7143 -2.1701 -0.3029
 1342SOL     OW 4024   0.926   0.159   5.902  0.0309  0.6334 -0.0935
 1342SOL    HW1 4025   0.883   0.243   5.888  0.1188  0.4006 -2.0439
 1342SOL    HW2 4026   1.004   0.163   5.847  1.0887  0.0064  1.3054
 1343SOL     OW 4027   1.229   3.639   8.190  0.7288 -0.4419  0.1781
 1343SOL    HW1 4028   1.283   3.559   8.190  1.2263 -0.1158  0.6552
 1343SOL    HW2 4029   1.259   3.687   8.267  0.6180  0.3318 -0.2585
 1344SOL     OW 4030   3.740   4.315   8.010  0.3805  0.5182 -0.0029
 1344SOL    HW1 4031   3.738   4.219   8.018  1.6324  0.3797 -1.0763
 1344SOL    HW2 4032   3.656   4.337   7.970 -0.7197  0.0758  1.9390
 1345SOL     OW 4033   1.653   1.827   7.372  0.1549 -0.6338 -0.1413
 1345SOL    HW1 4034   1.737   1.783   7.357  0.9011  0.7235 -0.0657
 1345SOL    HW2 4035   1.676   1.912   7.408 -1.2842 -0.3728  0.2368
 1346SOL     OW 4036   0.808   0.209   9.552  0.2056  0.1678 -0.4480
 1346SOL    HW1 4037   0.830   0.277   9.616  1.4436  0.6886 -1.3827
 1346SOL    HW2 4038   0.764   0.141   9.603  3.4267 -0.6690  1.5389
 1347SOL     OW 4039   2.337   1.124   7.908  0.0304  0.5921 -0.3860
 1347SOL    HW1 4040   2.383   1.106   7.990 -0.3652 -0.9989 -0.4638
 1347SOL    HW2 4041   2.347   1.043   7.857 -2.2494  0.3980 -0.6535
 1348SOL     OW 4042   1.084   4.617   7.037 -0.0029 -0.0921 -0.1732
 1348SOL    HW1 4043   1.151   4.592   6.974  1.2215 -1.6310  1.6243
 1348SOL    HW2 4044   1.063   4.536   7.084 -1.5613  0.7867  0.7751
 1349SOL     OW 4045   1.634   4.174   5.123 -0.3904  0.0500  0.6443
 1349SOL    HW1 4046   1.714   4.133   5.155 -0.7975 -1.4922 -0.1882
 1349SOL    HW2 4047   1.567   4.107   5.135 -0.9458  0.1637 -1.4480
 1350SOL     OW 4048   2.943   2.945   8.631 -0.1849  0.0955  0.0872
 1350SOL    HW1 4049   2.854   2.964   8.602 -0.2247 -0.4815 -0.1866
 1350SOL    HW2 4050   2.934   2.871   8.690  0.2344 -0.7804 -0.9143
 1351SOL     OW 4051   1.970   4.353   6.289 -0.0253 -0.3484 -0.0785
 1351SOL    HW1 4052   1.929   4.276   6.249 -2.3467  0.9162 -0.2711
 1351SOL    HW2 4053   2.005   4.320   6.372  1.3808 -2.1347 -1.2930
 1352SOL     OW 4054   3.310   4.845   6.330  0.1174 -0.4161  0.0210
 1352SOL    HW1 4055   3.390   4.898   6.330  0.0340 -0.2563 -1.3983
 1352SOL    HW2 4056   3.339   4.759   6.302 -0.1166 -0.5192  0.1007
 1353SOL     OW 4057   1.044   0.758   9.130 -0.2317 -0.2345 -0.1766
 1353SOL    HW1 4058   1.028   0.847   9.162 -1.1885 -0.5642  0.2927
 1353SOL    HW2 4059   0.968   0.738   9.076  0.5990 -0.2965 -1.3472
 1354SOL     OW 4060   3.986   4.944   6.042  0.4769 -0.7737  0.3893
 1354SOL    HW1 4061   3.977   4.909   6.131  0.4080 -2.2228 -0.1513
 1354SOL    HW2 4062   4.044   4.882   5.998 -0.7316 -0.9773 -1.0030
 1355SOL     OW 4063   1.517   4.044   6.302  0.4247  0.1411 -0.3632
 1355SOL    HW1 4064   1.432   4.085   6.287  0.6255  0.2714 -1.2342
 1355SOL    HW2 4065   1.498   3.952   6.316 -0.1037  0.5743  2.3671
 1356SOL     OW 4066   1.235   3.031   7.463 -0.0207  0.4252 -0.2509
 1356SOL    HW1 4067   1.312   3.002   7.415  1.5378  0.4378  2.0472
 1356SOL    HW2 4068   1.171   2.961   7.453  0.1587  0.5184 -2.3971
 1357SOL     OW 4069   4.954   0.141   9.329  0.8771  0.2588  0.4641
 1357SOL    HW1 4070   4.862   0.133   9.307  1.3598 -0.9389 -1.3651
 1357SOL    HW2 4071   4.956   0.148   9.424 -1.0726  0.0457  0.5545
 1358SOL     OW 4072   4.896   1.964   7.425 -0.1377 -0.2693 -0.3945
 1358SOL    HW1 4073   4.825   2.003   7.476 -1.0870 -0.8527 -1.2361
 1358SOL    HW2 4074   4.935   1.899   7.484 -1.1116 -0.8166 -0.3279
 1359SOL     OW 4075   3.370   3.310   8.955  0.5445 -0.1544 -0.5841
 1359SOL    HW1 4076   3.393   3.292   8.864  1.1525  1.9779 -0.8856
 1359SOL    HW2 4077   3.449   3.347   8.994 -0.3066  0.8868  0.2302
 1360SOL     OW 4078   0.862   3.676   7.915 -0.3453  0.0526 -0.1414
 1360SOL    HW1 4079   0.833   3.585   7.911 -0.2311  0.0180 -0.1925
 1360SOL    HW2 4080   0.899   3.685   8.002 -0.8307  0.1965  0.0540
 1361SOL     OW 4081   4.404   4.304   7.505  0.4683  0.0406  0.1423
 1361SOL    HW1 4082   4.390   4.394   7.477  1.8963 -0.2274 -1.6150
 1361SOL    HW2 4083   4.476   4.309   7.567  0.0538  0.1720  0.6208
 1362SOL     OW 4084   0.370   2.784   8.609 -0.1396 -0.5463  0.2058
 1362SOL    HW1 4085   0.366   2.841   8.532  0.6261  0.3818  0.8272
 1362SOL    HW2 4086   0.397   2.842   8.680  3.7143 -2.1236  0.3071
 1363SOL     OW 4087   3.263   2.046   7.101  0.7929 -0.1882 -0.0646
 1363SOL    HW1 4088   3.267   2.109   7.029  0.1813  1.3669  1.2041
 1363SOL    HW2 4089   3.191   1.988   7.078  1.8712 -0.9812 -1.6427
 1364SOL     OW 4090   0.155   0.832   7.876  0.8306 -0.5915  0.4415
 1364SOL    HW1 4091   0.076   0.886   7.879  1.0066 -0.3469  0.8467
 1364SOL    HW2 4092   0.154   0.792   7.790  1.9365  1.9667 -0.8768
 1365SOL     OW 4093   1.834   3.511   6.368 -0.0933 -0.3573  0.3571
 1365SOL    HW1 4094   1.764   3.460   6.408 -1.1816  1.9310  1.5898
 1365SOL    HW2 4095   1.799   3.538   6.283  0.0569 -0.7838  0.1601
 1366SOL     OW 4096   4.899   3.369  10.080 -0.9933 -0.5342 -0.2844
 1366SOL    HW1 4097   4.902   3.428  10.155 -0.1986  0.2671 -0.9353
 1366SOL    HW2 4098   4.855   3.291  10.113  0.7652 -0.8536  1.4981
 1367SOL     OW 4099   3.538   3.617   9.198  0.0224  0.9148 -0.0889
 1367SOL    HW1 4100   3.517   3.524   9.186 -3.4192  1.4291  0.7228
 1367SOL    HW2 4101   3.586   3.621   9.281  1.9424 -0.2359 -1.0753
 1368SOL     OW 4102   4.575   1.843   8.864  0.1747 -0.5511 -0.7104
 1368SOL    HW1 4103   4.613   1.929   8.843  0.3927 -0.3089  0.5585
 1368SOL    HW2 4104   4.650   1.784   8.864  0.4094 -0.2923  0.6423
 1369SOL     OW 4105   2.720   0.242   8.872 -0.3493  0.4974  0.7134
 1369SOL    HW1 4106   2.815   0.242   8.858 -0.3203  1.1317  0.8728
 1369SOL    HW2 4107   2.700   0.155   8.904 -0.4968 -1.4438 -3.8338
 1370SOL     OW 4108   0.815   2.220   7.957  0.4077  1.3205  0.2821
 1370SOL    HW1 4109   0.910   2.225   7.949  0.3839  0.6686 -0.6144
 1370SOL    HW2 4110   0.796   2.127   7.963 -0.0674  1.5150  2.2371
 1371SOL     OW 4111   1.594   2.209   8.464  0.2121 -0.1254 -0.6839
 1371SOL    HW1 4112   1.598   2.279   8.530 -1.7101  0.8393 -1.5323
 1371SOL    HW2 4113   1.538   2.142   8.504 -2.0675  1.0312 -1.7402
 1372SOL     OW 4114   1.657   3.539   5.511  1.1512  0.0944 -0.1839
 1372SOL    HW1 4115   1.727   3.602   5.528 -0.6781  1.8719  1.3413
 1372SOL    HW2 4116   1.631   3.509   5.598  1.6000 -2.4394 -0.8521
 1373SOL     OW 4117   1.130   4.357   8.691  0.1763 -0.5849  0.5061
 1373SOL    HW1 4118   1.182   4.437   8.692 -0.9565  0.1821  0.2773
 1373SOL    HW2 4119   1.190   4.288   8.663  1.4450 -0.0234  1.7316
 1374SOL     OW 4120   3.316   2.373   8.280  0.5915  0.4713  0.0581
 1374SOL    HW1 4121   3.346   2.346   8.193 -0.9756  1.5165 -0.8636
 1374SOL    HW2 4122   3.288   2.292   8.322  4.3172 -0.5442  0.9246
 1375SOL     OW 4123   3.942   0.838   9.776 -0.1664  0.5221  0.1481
 1375SOL    HW1 4124   3.899   0.850   9.860 -1.0309 -1.2083  0.0002
 1375SOL    HW2 4125   3.875   0.859   9.711 -0.9617 -2.3157 -0.0818
 1376SOL     OW 4126   4.222   2.747   9.125 -0.3170 -0.2478 -0.4000
 1376SOL    HW1 4127   4.179   2.720   9.044  0.6968  0.0621 -1.0703
 1376SOL    HW2 4128   4.153   2.784   9.179 -0.4278  3.6272 -2.8625
 1377SOL     OW 4129   3.052   3.609   6.141 -0.3233  0.7267 -0.3462
 1377SOL    HW1 4130   3.124   3.668   6.120  1.8740 -1.2496  1.0063
 1377SOL    HW2 4131   3.074   3.577   6.229 -3.1189  0.3285  0.2873
 1378SOL     OW 4132   2.612   0.110   6.798  0.7457  0.0185  0.4093
 1378SOL    HW1 4133   2.648   0.198   6.785 -0.2995  0.5516  0.9923
 1378SOL    HW2 4134   2.668   0.054   6.744  1.2485  1.0716 -0.2159
 1379SOL     OW 4135   1.080   4.841   8.084 -0.4012 -0.2414 -0.0697
 1379SOL    HW1 4136   1.148   4.868   8.023  1.9243  0.6014  2.6864
 1379SOL    HW2 4137   1.034   4.922   8.105 -0.6720 -0.3919 -0.0791
 1380SOL     OW 4138   4.717   1.469   7.777 -0.0508 -0.3783  0.1880
 1380SOL    HW1 4139   4.634   1.503   7.743  0.7205  1.7878  0.2698
 1380SOL    HW2 4140   4.751   1.541   7.831  1.2195 -1.7586  1.3109
 1381SOL     OW 4141   0.315   4.656   8.882 -0.4643  0.6926  0.0939
 1381SOL    HW1 4142   0.251   4.713   8.840 -1.1069 -0.8558 -1.1584
 1381SOL    HW2 4143   0.330   4.586   8.818 -0.3822 -1.0143  1.8687
 1382SOL     OW 4144   2.390   0.784   9.787 -0.6075 -0.3562 -0.7399
 1382SOL    HW1 4145   2.407   0.730   9.710  2.2569  0.4962 -0.8491
 1382SOL    HW2 4146   2.425   0.870   9.764 -1.7712  0.5670  0.7155
 1383SOL     OW 4147   0.349   2.983  10.010  0.6874 -0.1253 -0.1701
 1383SOL    HW1 4148   0.262   2.985   9.971  0.7103 -1.1373 -0.3073
 1383SOL    HW2 4149   0.352   3.059  10.068  0.6791  1.4984 -2.1818
 1384SOL     OW 4150   0.722   4.469   5.702  0.0245 -0.5989 -0.1083
 1384SOL    HW1 4151   0.640   4.435   5.736 -0.5140  0.5981 -0.1578
 1384SOL    HW2 4152   0.716   4.564   5.715  1.0706 -0.4170 -0.8167
 1385SOL     OW 4153   1.491   3.799   6.489  0.2434  0.2491 -0.0666
 1385SOL    HW1 4154   1.549   3.787   6.564  1.4538 -0.8055 -1.1278
 1385SOL    HW2 4155   1.411   3.837   6.526  1.3757  1.1903  1.5255
 1386SOL     OW 4156   1.973   3.954   8.673  0.0936  0.2289 -0.3245
 1386SOL    HW1 4157   1.954   4.045   8.696  0.3883  0.0571  0.6448
 1386SOL    HW2 4158   1.887   3.911   8.674  0.0971  0.2158  0.5673
 1387SOL     OW 4159   0.054   0.364   9.539 -0.2184  0.2850  0.4043
 1387SOL    HW1 4160   0.145   0.375   9.565 -0.0156  0.7212 -0.4634
 1387SOL    HW2 4161   0.057   0.343   9.446 -1.0366  1.4185  0.0838
 1388SOL     OW 4162   2.298   0.927   9.479 -0.9450 -0.2944 -0.2717
 1388SOL    HW1 4163   2.268   0.919   9.389 -1.5180 -1.7187  0.0087
 1388SOL    HW2 4164   2.350   0.847   9.494 -1.9706 -0.7568  1.0448
 1389SOL     OW 4165   1.504   3.288   8.948  0.0647  0.2811 -0.5648
 1389SOL    HW1 4166   1.415   3.295   8.982  0.5804 -0.9186  1.1699
 1389SOL    HW2 4167   1.514   3.365   8.892 -2.2407  0.1222 -1.2792
 1390SOL     OW 4168   0.582   4.019   6.386 -0.2420  0.3303 -0.2186
 1390SOL    HW1 4169   0.537   4.034   6.303 -1.0596  0.4912  0.2440
 1390SOL    HW2 4170   0.555   3.931   6.412 -1.1074  0.8134  0.5565
 1391SOL     OW 4171   0.138   3.057   6.645 -0.0638  0.6404 -0.3962
 1391SOL    HW1 4172   0.158   3.146   6.674 -1.2073  0.8899 -0.3399
 1391SOL    HW2 4173   0.142   3.004   6.725 -0.6964  0.8786 -0.2033
 1392SOL     OW 4174   2.929   2.262   9.155  0.4882  0.2117  0.3913
 1392SOL    HW1 4175   2.963   2.202   9.089  0.1664 -0.9919  1.2779
 1392SOL    HW2 4176   2.947   2.349   9.120  1.4645 -0.3911 -0.6798
 1393SOL     OW 4177   1.810   4.372   6.525 -0.4991 -0.2698  0.5454
 1393SOL    HW1 4178   1.775   4.283   6.520 -0.8329 -0.1589  0.8755
 1393SOL    HW2 4179   1.764   4.419   6.455  0.2231 -0.5324 -0.1280
 1394SOL     OW 4180   4.674   0.179   9.313  0.1016  0.3526  0.1212
 1394SOL    HW1 4181   4.599   0.162   9.256  0.5746 -3.8860  0.4102
 1394SOL    HW2 4182   4.636   0.190   9.400 -0.3316  1.5387 -0.2087
 1395SOL     OW 4183   2.636   2.701   8.045 -0.5406 -0.2419  0.4352
 1395SOL    HW1 4184   2.617   2.666   7.958 -0.1774  0.0674  0.2261
 1395SOL    HW2 4185   2.715   2.754   8.033 -1.7078  1.6106  0.4794
 1396SOL     OW 4186   0.395   4.651   8.100  0.0578 -0.2680  0.0408
 1396SOL    HW1 4187   0.451   4.586   8.059  0.6789  0.0519  0.3748
 1396SOL    HW2 4188   0.455   4.713   8.141 -0.4981  0.8538 -0.7668
 1397SOL     OW 4189   4.588   0.980   8.530 -0.1123 -0.0900 -0.6626
 1397SOL    HW1 4190   4.605   0.898   8.484 -3.3606 -1.1341 -0.2853
 1397SOL    HW2 4191   4.583   0.955   8.622 -1.2232  0.4733 -0.5521
 1398SOL     OW 4192   1.896   1.626   8.775  0.2050 -0.0849 -0.1418
 1398SOL    HW1 4193   1.935   1.670   8.852 -0.9291 -0.2746  0.5610
 1398SOL    HW2 4194   1.972   1.599   8.723  0.9769  0.9780  0.3849
 1399SOL     OW 4195   0.068   4.441   7.457  0.0121 -0.4378 -0.5117
 1399SOL    HW1 4196   0.158   4.470   7.470  0.7936 -2.1710 -1.7770
 1399SOL    HW2 4197   0.015   4.520   7.474  1.8946  1.3035 -2.2295
 1400SOL     OW 4198   0.423   0.269   6.050  0.5359 -0.6219  0.0023
 1400SOL    HW1 4199   0.362   0.206   6.088  0.3655  0.7155  2.1086
 1400SOL    HW2 4200   0.497   0.270   6.110  1.0114  0.3850 -0.5731
 1401SOL     OW 4201   4.432   1.025   8.809  0.0014 -0.4866 -0.6789
 1401SOL    HW1 4202   4.375   0.977   8.869  0.1410  0.3427  0.1425
 1401SOL    HW2 4203   4.414   1.117   8.829  2.0361 -0.1951 -0.0042
 1402SOL     OW 4204   3.112   1.238   8.036 -0.2632  0.2638  0.0411
 1402SOL    HW1 4205   3.196   1.201   8.065 -0.4130 -0.3374 -0.2766
 1402SOL    HW2 4206   3.121   1.245   7.941 -0.1387  1.3110  0.1220
 1403SOL     OW 4207   1.581   3.514   8.299 -0.5537 -0.3789  0.7176
 1403SOL    HW1 4208   1.649   3.466   8.346 -0.0978 -0.5979 -0.1615
 1403SOL    HW2 4209   1.533   3.446   8.251 -1.2066 -0.1897  1.0934
 1404SOL     OW 4210   1.006   0.454   6.703  0.3839  0.2404 -0.1635
 1404SOL    HW1 4211   1.086   0.505   6.695  3.3049 -3.7560  0.5744
 1404SOL    HW2 4212   0.980   0.464   6.794  0.5841  0.8466 -0.1709
 1405SOL     OW 4213   1.018   2.232   7.103 -0.0863 -0.1171  0.8481
 1405SOL    HW1 4214   1.048   2.155   7.054  1.1701  1.8963 -1.7718
 1405SOL    HW2 4215   1.039   2.212   7.194  2.0329 -2.0937  0.0252
 1406SOL     OW 4216   3.940   0.917   7.569  0.0425  0.5291 -0.4150
 1406SOL    HW1 4217   4.003   0.988   7.558  0.4403  0.1794 -0.4060
 1406SOL    HW2 4218   3.993   0.841   7.590 -0.4526  0.4249  0.5024
 1407SOL     OW 4219   1.339   0.700   9.591 -0.0641 -0.5365  0.3353
 1407SOL    HW1 4220   1.275   0.766   9.566  2.4902  1.8309 -0.4495
 1407SOL    HW2 4221   1.356   0.717   9.684  0.9524  0.2747  0.0121
 1408SOL     OW 4222   0.219   4.485   8.277  0.6337 -0.5127 -0.2193
 1408SOL    HW1 4223   0.233   4.399   8.238 -1.3375  0.0259 -2.2604
 1408SOL    HW2 4224   0.292   4.537   8.246  0.3192 -0.7148 -1.3402
 1409SOL     OW 4225   1.653   4.159  10.302  0.2538 -0.3170 -0.1578
 1409SOL    HW1 4226   1.561   4.181  10.283 -0.2248 -0.8316  1.4754
 1409SOL    HW2 4227   1.668   4.192  10.390  1.9465  0.5618 -0.7224
 1410SOL     OW 4228   1.037   3.258   7.235  0.4614 -0.0174 -0.1900
 1410SOL    HW1 4229   1.001   3.284   7.320  0.4088  0.0054 -0.2196
 1410SOL    HW2 4230   1.125   3.226   7.256 -0.2112 -1.7934  0.1383
 1411SOL     OW 4231   4.579   2.330   7.658  0.5238 -0.4152 -0.1348
 1411SOL    HW1 4232   4.578   2.296   7.748  1.0122 -0.0627  0.0092
 1411SOL    HW2 4233   4.567   2.425   7.669  4.5832  0.2621 -0.1073
 1412SOL     OW 4234   4.187   3.816   8.298  0.3782 -0.2261 -0.1222
 1412SOL    HW1 4235   4.245   3.812   8.374 -0.7006 -0.8449  0.7017
 1412SOL    HW2 4236   4.246   3.822   8.223  1.4595  1.3219  0.7938
 1413SOL     OW 4237   1.146   1.508   9.951  0.1850  0.1099 -0.0378
 1413SOL    HW1 4238   1.068   1.452   9.948  1.5036 -1.7787 -0.6061
 1413SOL    HW2 4239   1.182   1.504   9.862  1.8346 -0.3854  0.6191
 1414SOL     OW 4240   1.547   2.813   6.641  0.4601 -0.1607  0.0768
 1414SOL    HW1 4241   1.475   2.872   6.616 -1.7740 -3.8997 -3.6278
 1414SOL    HW2 4242   1.609   2.818   6.568 -0.6612 -3.3586 -1.2756
 1415SOL     OW 4243   1.365   2.803   4.867 -0.1774  0.0401 -0.4098
 1415SOL    HW1 4244   1.435   2.816   4.802 -0.1994 -1.3632 -0.7508
 1415SOL    HW2 4245   1.322   2.888   4.873  0.2334  0.3734 -1.7598
 1416SOL     OW 4246   4.946   1.484   4.770 -0.2131  0.2737 -0.0856
 1416SOL    HW1 4247   4.872   1.438   4.732 -1.7510  1.9008  0.8101
 1416SOL    HW2 4248   5.007   1.415   4.795 -1.0593 -1.0504 -1.5560
 1417SOL     OW 4249   2.045   3.349   8.112  0.9615  0.1238 -0.1229
 1417SOL    HW1 4250   2.064   3.272   8.166  2.2220  0.5554  0.0745
 1417SOL    HW2 4251   2.040   3.421   8.175  1.9457  0.5497 -0.5255
 1418SOL     OW 4252   0.911   3.096   9.984  0.3500 -0.0093 -0.0903
 1418SOL    HW1 4253   0.979   3.164   9.991 -0.5489  0.9853 -0.7423
 1418SOL    HW2 4254   0.833   3.136  10.023 -0.4584 -0.2763 -1.3783
 1419SOL     OW 4255   4.520   2.075   9.083 -0.8539 -0.3308  0.0884
 1419SOL    HW1 4256   4.513   1.993   9.033 -2.0429 -0.0233 -0.2817
 1419SOL    HW2 4257   4.468   2.138   9.033  1.2714  1.0978 -0.4648
 1420SOL     OW 4258   1.375   0.572   8.526 -0.1190 -0.3930  0.4554
 1420SOL    HW1 4259   1.401   0.594   8.615  1.5016  0.6345 -0.2313
 1420SOL    HW2 4260   1.453   0.588   8.473 -0.9853 -1.1565 -1.1342
 1421SOL     OW 4261   4.092   1.392   6.995 -0.0187 -0.4426 -0.3651
 1421SOL    HW1 4262   4.033   1.327   7.033 -0.8277  0.6393  0.2738
 1421SOL    HW2 4263   4.172   1.384   7.046  0.0055 -1.1283 -0.4916
 1422SOL     OW 4264   0.704   3.022   8.664 -0.1137  0.2684  0.1395
 1422SOL    HW1 4265   0.748   2.950   8.618  2.5045  1.3669  0.7801
 1422SOL    HW2 4266   0.637   2.979   8.718 -0.8524 -1.3467 -1.9293
 1423SOL     OW 4267   2.839   2.254   6.333 -0.7067  0.0818 -0.5534
 1423SOL    HW1 4268   2.752   2.213   6.336 -0.9979  0.5546 -1.8108
 1423SOL    HW2 4269   2.835   2.324   6.398  0.0257 -2.1947  2.1603
 1424SOL     OW 4270   0.834   4.125   6.401 -0.2564  0.3501  0.6945
 1424SOL    HW1 4271   0.742   4.100   6.399 -1.3605  3.9400  0.5806
 1424SOL    HW2 4272   0.870   4.076   6.475 -2.7395  0.3229  1.9987
 1425SOL     OW 4273   2.322   3.363   8.507 -0.0326  0.1262  0.0215
 1425SOL    HW1 4274   2.244   3.320   8.542  0.8025 -0.8096  0.7741
 1425SOL    HW2 4275   2.289   3.447   8.474 -1.3349 -0.1947  0.4163
 1426SOL     OW 4276   0.226   4.857   7.711 -0.5574 -0.2094 -0.1867
 1426SOL    HW1 4277   0.220   4.782   7.771  0.0211 -0.0201  0.1235
 1426SOL    HW2 4278   0.278   4.921   7.759 -1.3933  0.5531 -0.2936
 1427SOL     OW 4279   0.539   3.898   5.831  0.4452  0.3047  0.1586
 1427SOL    HW1 4280   0.582   3.893   5.746  3.8341 -0.9933  1.7929
 1427SOL    HW2 4281   0.448   3.874   5.812  1.2715 -0.9736 -2.9449
 1428SOL     OW 4282   4.673   1.029   9.174  0.0201 -0.2078  0.8748
 1428SOL    HW1 4283   4.764   1.008   9.193 -0.5123 -2.5325  1.1562
 1428SOL    HW2 4284   4.625   0.948   9.191 -2.3145  1.2794  1.9786
 1429SOL     OW 4285   2.152   1.714  10.037  0.9055 -0.5029  0.0347
 1429SOL    HW1 4286   2.143   1.628   9.996  0.1735 -1.2524  1.6530
 1429SOL    HW2 4287   2.091   1.711  10.111  2.1477  0.7641  1.1595
 1430SOL     OW 4288   4.024   1.109   6.912 -0.3809  0.3261  0.8356
 1430SOL    HW1 4289   4.110   1.151   6.924 -0.1932  0.7324 -1.4043
 1430SOL    HW2 4290   4.027   1.032   6.968  2.0047 -0.4233 -0.1847
 1431SOL     OW 4291   1.209   1.942   9.371  0.4349 -0.0974 -0.2584
 1431SOL    HW1 4292   1.298   1.932   9.405  0.6911 -0.8289 -1.1057
 1431SOL    HW2 4293   1.201   2.036   9.353  0.2442  0.3572  1.8567
 1432SOL     OW 4294   1.963   0.862   7.238  0.2281  0.1988 -0.0911
 1432SOL    HW1 4295   1.880   0.818   7.255 -0.2525  1.4883  1.0485
 1432SOL    HW2 4296   2.020   0.793   7.204 -0.6030 -1.2433  1.2892
 1433SOL     OW 4297   4.490   0.925   9.733  0.1107 -0.0957 -0.1933
 1433SOL    HW1 4298   4.500   0.928   9.638  0.0175  1.1271 -0.1901
 1433SOL    HW2 4299   4.580   0.926   9.766  0.1713 -1.5085 -0.2589
 1434SOL     OW 4300   1.284   2.209   9.071  0.1099  0.4063  0.1741
 1434SOL    HW1 4301   1.345   2.255   9.128  0.8284  1.5308 -1.4297
 1434SOL    HW2 4302   1.320   2.120   9.064 -0.2547  0.1046  1.7978
 1435SOL     OW 4303   5.019   1.152   7.845 -0.0240 -0.1203 -0.6212
 1435SOL    HW1 4304   4.952   1.179   7.782  2.1237  4.1103 -1.3930
 1435SOL    HW2 4305   4.990   1.190   7.928  0.6510  0.4959 -0.6570
 1436SOL     OW 4306   3.654   1.229   9.512 -0.6090  0.0255 -0.1573
 1436SOL    HW1 4307   3.712   1.219   9.436 -0.4535  0.7281 -0.1364
 1436SOL    HW2 4308   3.632   1.322   9.513  0.1185  0.1996  1.1820
 1437SOL     OW 4309   2.637   3.885   6.745 -0.0019  0.4860 -0.0342
 1437SOL    HW1 4310   2.620   3.963   6.797 -1.4615  1.1242 -1.3795
 1437SOL    HW2 4311   2.609   3.812   6.800 -2.0742  1.1783 -0.0875
 1438SOL     OW 4312   3.993   1.435   9.919  0.1261 -0.2022 -0.7557
 1438SOL    HW1 4313   4.046   1.371   9.968  1.4115  0.9857 -0.5278
 1438SOL    HW2 4314   3.932   1.469   9.984  1.4011  0.9019 -0.0861
 1439SOL     OW 4315   0.149   4.344   9.299  0.5149  0.2331 -0.0634
 1439SOL    HW1 4316   0.141   4.386   9.213  0.4319  0.5434  0.0934
 1439SOL    HW2 4317   0.166   4.417   9.359 -0.4523  0.1437  0.3357
 1440SOL     OW 4318   3.354   2.001   5.974  0.4402 -0.0764 -0.6999
 1440SOL    HW1 4319   3.361   1.929   6.038 -0.3310  1.1825  0.8851
 1440SOL    HW2 4320   3.424   2.062   5.999 -1.2207  1.4858  0.4393
 1441SOL     OW 4321   4.392   2.009   9.321  0.1170  0.6476 -0.8885
 1441SOL    HW1 4322   4.478   2.028   9.285  0.3685 -1.2062 -1.3539
 1441SOL    HW2 4323   4.337   1.990   9.245  0.3908 -2.2458 -0.4726
 1442SOL     OW 4324   4.001   0.041   8.534 -0.1151  0.3207 -0.0374
 1442SOL    HW1 4325   4.011  -0.052   8.513 -0.6948  0.5458 -1.4134
 1442SOL    HW2 4326   3.917   0.065   8.494  0.6589  1.7442 -0.8592
 1443SOL     OW 4327   3.591   4.392   8.580  0.4157  0.2422  0.2601
 1443SOL    HW1 4328   3.653   4.379   8.508  0.5760 -0.1122  0.4634
 1443SOL    HW2 4329   3.596   4.312   8.631  1.1049  0.9253  1.2837
 1444SOL     OW 4330   0.640   3.343   6.771 -0.3204 -0.0633 -0.3981
 1444SOL    HW1 4331   0.623   3.400   6.846 -0.3552 -0.6555  0.0511
 1444SOL    HW2 4332   0.554   3.324   6.734 -0.2325  1.0999 -1.2595
 1445SOL     OW 4333   1.283   4.317  10.078  0.0719 -0.0200 -0.5308
 1445SOL    HW1 4334   1.300   4.282   9.991 -2.1578  0.1174 -1.0907
 1445SOL    HW2 4335   1.204   4.370  10.068  0.5454  1.1360  1.3043
 1446SOL     OW 4336   1.077   1.013   8.862  0.2838 -0.3930 -0.4508
 1446SOL    HW1 4337   1.091   1.061   8.944 -1.3845  0.9584 -0.9160
 1446SOL    HW2 4338   1.093   1.078   8.794  0.0786 -1.0846 -1.1652
 1447SOL     OW 4339   4.660   3.106   8.815  0.5582 -0.1892 -0.1387
 1447SOL    HW1 4340   4.608   3.028   8.832  1.6717 -0.5589  1.9258
 1447SOL    HW2 4341   4.633   3.169   8.883  0.2979  0.9184 -1.2334
 1448SOL     OW 4342   1.371   5.031   9.742  0.5556 -0.5282  0.2824
 1448SOL    HW1 4343   1.421   4.959   9.779  0.9894 -0.0310  0.6898
 1448SOL    HW2 4344   1.359   5.007   9.650  2.9150  0.0293 -0.2502
 1449SOL     OW 4345   4.331   0.756  10.287 -0.2032  0.4548  0.2098
 1449SOL    HW1 4346   4.246   0.799  10.275 -0.3826 -0.0975 -0.5416
 1449SOL    HW2 4347   4.395   0.819  10.254 -0.0983  1.7136  2.5463
 1450SOL     OW 4348   1.738   3.981   9.792  0.3953 -0.2776 -0.5949
 1450SOL    HW1 4349   1.826   4.010   9.767  0.0705  0.5648 -0.7989
 1450SOL    HW2 4350   1.726   3.898   9.747  0.5040  0.3523 -1.8410
 1451SOL     OW 4351   2.857   2.442   8.045  0.0604 -0.4135  0.3315
 1451SOL    HW1 4352   2.925   2.508   8.034 -0.6439  0.5937  1.7500
 1451SOL    HW2 4353   2.802   2.452   7.967  0.9632 -0.5970 -0.3550
 1452SOL     OW 4354   1.267   5.001   5.102 -0.0379  0.3893 -0.0249
 1452SOL    HW1 4355   1.198   5.019   5.037 -0.1600  1.2676  0.3323
 1452SOL    HW2 4356   1.233   4.928   5.153  0.2233 -0.5683 -1.1800
 1453SOL     OW 4357   3.161   0.195   8.001 -0.1358  0.9979 -0.3775
 1453SOL    HW1 4358   3.092   0.128   7.994  0.9077 -0.0595 -0.9349
 1453SOL    HW2 4359   3.191   0.189   8.091  0.6273 -0.0053 -0.6813
 1454SOL     OW 4360   3.071   3.411   9.444 -0.1311 -0.2774  0.1567
 1454SOL    HW1 4361   3.065   3.354   9.368  0.3917  0.3302 -0.3547
 1454SOL    HW2 4362   3.098   3.353   9.515 -1.0346 -0.9300 -0.0107
 1455SOL     OW 4363   4.372   3.255   9.416  0.2194  0.3915  0.7427
 1455SOL    HW1 4364   4.297   3.204   9.385  0.0260  1.8608 -1.4268
 1455SOL    HW2 4365   4.334   3.319   9.476 -0.0712  0.3089  0.6487
 1456SOL     OW 4366   2.887   0.520   7.917 -0.2629  0.0234  0.3684
 1456SOL    HW1 4367   2.967   0.507   7.968 -0.4681 -1.0040  0.4438
 1456SOL    HW2 4368   2.851   0.432   7.905 -1.2019  0.4374  0.0414
 1457SOL     OW 4369   1.853   4.224  10.135  0.0508  0.4043  0.6994
 1457SOL    HW1 4370   1.944   4.213  10.163 -0.0375 -0.1372  0.7808
 1457SOL    HW2 4371   1.802   4.173  10.198 -0.4147  1.5894  1.3190
 1458SOL     OW 4372   4.165   3.076   9.426 -0.3745 -0.1403  0.0951
 1458SOL    HW1 4373   4.135   3.084   9.336  0.8134 -1.9566 -0.5068
 1458SOL    HW2 4374   4.085   3.068   9.478 -1.0463 -2.1190 -1.1549
 1459SOL     OW 4375   4.789   3.156   6.711  0.9215  0.6524  0.0858
 1459SOL    HW1 4376   4.741   3.182   6.633 -1.0927 -1.4001  0.5324
 1459SOL    HW2 4377   4.845   3.083   6.683 -0.3996 -0.6339  0.6159
 1460SOL     OW 4378   0.649   1.929   9.687 -0.2030  0.2426 -0.2142
 1460SOL    HW1 4379   0.611   2.014   9.707  1.3687  1.0984 -0.7063
 1460SOL    HW2 4380   0.679   1.896   9.772  0.8380  1.0459 -0.2424
 1461SOL     OW 4381   4.287   0.955   7.246 -0.0059  0.5876 -0.2384
 1461SOL    HW1 4382   4.193   0.975   7.239  0.0521  0.5387 -1.2480
 1461SOL    HW2 4383   4.327   1.038   7.272 -0.5391  0.1472  2.3178
 1462SOL     OW 4384   4.698   2.370   9.192 -0.3283 -0.2272 -0.1158
 1462SOL    HW1 4385   4.658   2.323   9.265 -0.4775  0.0302 -0.0311
 1462SOL    HW2 4386   4.762   2.428   9.233  2.4865 -2.8652 -0.4288
 1463SOL     OW 4387   4.606   4.152   8.363 -0.0212  0.2546 -0.3873
 1463SOL    HW1 4388   4.664   4.227   8.375 -0.5931  0.4919  1.0686
 1463SOL    HW2 4389   4.593   4.117   8.451 -2.4215  0.4760 -0.5795
 1464SOL     OW 4390   2.079   0.687   9.438 -0.3961  0.1230 -0.1976
 1464SOL    HW1 4391   2.115   0.626   9.502 -0.7597  0.0613 -0.0532
 1464SOL    HW2 4392   2.014   0.738   9.486 -1.0404 -0.2737 -0.6344
 1465SOL     OW 4393   1.320   4.662   7.614  0.2309 -0.4237 -0.4573
 1465SOL    HW1 4394   1.408   4.637   7.589  0.7363  1.5256 -0.7643
 1465SOL    HW2 4395   1.328   4.753   7.644 -1.2737 -0.9098  1.6923
 1466SOL     OW 4396   2.573   1.122   9.453 -0.1314  0.4085 -0.4190
 1466SOL    HW1 4397   2.593   1.204   9.500 -0.8064 -0.1744  0.9333
 1466SOL    HW2 4398   2.480   1.109   9.466  0.4104 -2.0740  1.9598
 1467SOL     OW 4399   0.533   3.305   8.189 -0.0820  1.0009 -0.2809
 1467SOL    HW1 4400   0.459   3.275   8.137  0.4243 -0.2415 -0.3379
 1467SOL    HW2 4401   0.517   3.398   8.204 -2.5411  0.3955  1.2182
 1468SOL     OW 4402   0.952   3.145   8.986 -0.3348 -0.2453 -0.4942
 1468SOL    HW1 4403   0.952   3.049   8.986  1.8299 -0.3036 -0.2661
 1468SOL    HW2 4404   0.964   3.169   8.894 -0.3891 -0.1984 -0.4894
 1469SOL     OW 4405   4.012   2.483   9.240 -0.4331  0.6174  0.0532
 1469SOL    HW1 4406   3.926   2.521   9.220 -1.6797 -1.0687  1.9059
 1469SOL    HW2 4407   4.056   2.551   9.291 -1.2365  0.9556  0.3286
 1470SOL     OW 4408   4.131   1.244  10.081  0.4143 -0.1362 -0.3082
 1470SOL    HW1 4409   4.122   1.149  10.073  0.1735  0.0463 -2.8135
 1470SOL    HW2 4410   4.191   1.256  10.155  0.6355 -2.2301 -0.0911
 1471SOL     OW 4411   0.279   2.468   9.211 -0.2083 -0.4490  0.1274
 1471SOL    HW1 4412   0.206   2.424   9.168  0.9141 -1.7785 -0.5360
 1471SOL    HW2 4413   0.357   2.422   9.178  0.8875  0.4787  1.2994
 1472SOL     OW 4414   0.256   0.203   9.293 -0.2889  0.4081 -0.0268
 1472SOL    HW1 4415   0.239   0.256   9.215  0.0586 -0.1832 -0.5083
 1472SOL    HW2 4416   0.339   0.159   9.275 -0.6785 -0.4760  0.2766
 1473SOL     OW 4417   0.377   4.932   8.467 -0.5560  0.0880 -0.1875
 1473SOL    HW1 4418   0.347   4.842   8.479  0.4441 -0.8875 -3.7355
 1473SOL    HW2 4419   0.323   4.966   8.396 -0.3150  2.0580  0.5021
 1474SOL     OW 4420   3.317   0.279   9.576 -0.5872  0.6223 -0.1630
 1474SOL    HW1 4421   3.355   0.199   9.541  0.3266  0.5202  1.0216
 1474SOL    HW2 4422   3.241   0.250   9.626 -3.0220  0.9007 -3.3592
 1475SOL     OW 4423   4.786   3.464   9.424  0.3548  0.3588  0.0993
 1475SOL    HW1 4424   4.766   3.491   9.335  0.0509 -0.5875 -0.1288
 1475SOL    HW2 4425   4.803   3.546   9.471  0.6806  0.8447 -0.8585
 1476SOL     OW 4426   2.741   1.534   8.748  0.7288  0.4797 -0.2432
 1476SOL    HW1 4427   2.653   1.569   8.764  0.6860 -0.0277  0.6606
 1476SOL    HW2 4428   2.796   1.612   8.742  0.3496  0.7747  0.0253
 1477SOL     OW 4429   4.196   4.027   9.055  0.4127  0.3300  0.0594
 1477SOL    HW1 4430   4.228   4.069   8.976  0.0319  0.5942  0.0402
 1477SOL    HW2 4431   4.145   4.096   9.100 -0.9907 -0.3496 -0.4230
 1478SOL     OW 4432   2.827   0.783   7.339 -0.0801  0.1601 -0.6357
 1478SOL    HW1 4433   2.837   0.697   7.298 -1.2146  0.8086 -2.3775
 1478SOL    HW2 4434   2.912   0.800   7.380  0.2919 -1.5965 -0.5857
 1479SOL     OW 4435   4.145   1.897   9.439 -0.5127 -0.2908 -0.5887
 1479SOL    HW1 4436   4.207   1.927   9.373 -0.1185 -1.5258 -0.8103
 1479SOL    HW2 4437   4.136   1.971   9.499  0.2875  0.3103 -1.1851
 1480SOL     OW 4438   3.466   3.833   9.564  0.7792 -0.1459  0.5124
 1480SOL    HW1 4439   3.403   3.828   9.493 -0.0040 -0.2698  1.2033
 1480SOL    HW2 4440   3.413   3.848   9.642  1.4531 -1.9006  1.3614
 1481SOL     OW 4441   4.913   0.476   9.097 -0.1997  0.2415 -0.1550
 1481SOL    HW1 4442   4.941   0.434   9.016  1.2864 -0.5594  0.7068
 1481SOL    HW2 4443   4.994   0.512   9.134 -0.7396  0.1309  1.2119
 1482SOL     OW 4444   3.134   1.003   8.781  0.5441  0.4789  1.0280
 1482SOL    HW1 4445   3.120   1.070   8.847 -0.9520  0.6374  0.5918
 1482SOL    HW2 4446   3.107   0.921   8.823  1.4101  0.2860  1.2273
 1483SOL     OW 4447   2.678   0.503   9.759  0.3647 -0.1935 -0.0648
 1483SOL    HW1 4448   2.772   0.484   9.754  0.8755  1.9261  0.5058
 1483SOL    HW2 4449   2.664   0.529   9.850  0.0330  3.0253 -0.9211
 1484SOL     OW 4450   0.242   3.324   9.712  0.1130 -0.1427  0.6563
 1484SOL    HW1 4451   0.204   3.396   9.763  1.4635  0.7813  0.4401
 1484SOL    HW2 4452   0.182   3.251   9.724 -0.5860  0.6108  2.0361
 1485SOL     OW 4453   1.082   0.667   9.770 -0.1037 -0.0358 -0.2823
 1485SOL    HW1 4454   1.081   0.689   9.677 -2.0006  0.6447 -0.1408
 1485SOL    HW2 4455   1.128   0.740   9.811 -0.0011  0.0699 -0.5760
 1486SOL     OW 4456   0.201   0.217   9.812 -0.5557 -0.4688 -0.0935
 1486SOL    HW1 4457   0.247   0.156   9.870 -0.0895  0.6697  0.7676
 1486SOL    HW2 4458   0.152   0.160   9.752 -3.1296 -1.8331  2.9640
 1487SOL     OW 4459   4.291   0.876   8.190 -0.2344  0.9203 -0.3786
 1487SOL    HW1 4460   4.222   0.920   8.239 -1.8918 -0.8293 -1.0212
 1487SOL    HW2 4461   4.301   0.791   8.233  0.0479  0.3403 -1.5579
 1488SOL     OW 4462   4.748   2.703  10.238  0.6455 -0.0742  0.6385
 1488SOL    HW1 4463   4.828   2.737  10.277  1.0220  0.6543 -0.7235
 1488SOL    HW2 4464   4.771   2.685  10.147 -0.8758  0.6170  0.0894
 1489SOL     OW 4465   0.158   3.969   9.004  0.3861 -0.1942  0.2154
 1489SOL    HW1 4466   0.181   4.012   9.086  0.2140 -0.2869  0.3137
 1489SOL    HW2 4467   0.101   3.896   9.031 -2.3615  1.6219 -0.2050
 1490SOL     OW 4468   4.561   0.352   9.757 -0.4654  0.7188  0.0775
 1490SOL    HW1 4469   4.642   0.401   9.743  0.0130 -0.3696 -1.0226
 1490SOL    HW2 4470   4.498   0.394   9.699 -0.2953  0.6031 -0.1910
 1491SOL     OW 4471   1.718   0.258   9.759  0.0527  0.0918  0.7129
 1491SOL    HW1 4472   1.780   0.232   9.691 -0.5635 -0.6233  0.4065
 1491SOL    HW2 4473   1.632   0.236   9.723 -0.5006  2.2224  0.6060
 1492SOL     OW 4474   3.308   0.117   9.055  0.4321 -0.0959 -0.0815
 1492SOL    HW1 4475   3.221   0.111   9.095  1.3415  0.2429  2.0888
 1492SOL    HW2 4476   3.306   0.201   9.010  0.1072  0.6809  1.2965
 1493SOL     OW 4477   4.922   3.683   9.487  0.1322 -0.6754 -0.1983
 1493SOL    HW1 4478   4.938   3.774   9.460 -0.1977 -0.3536  0.6665
 1493SOL    HW2 4479   5.002   3.637   9.462  0.7525  0.0769  0.3377
 1494SOL     OW 4480   1.451   3.607   9.830 -0.2285  0.1941  0.0940
 1494SOL    HW1 4481   1.382   3.673   9.838 -0.4305  0.3742 -2.5131
 1494SOL    HW2 4482   1.440   3.570   9.742  2.2310 -0.6663  0.0703
 1495SOL     OW 4483   2.663   1.358   7.637 -0.6496 -0.0578  0.2554
 1495SOL    HW1 4484   2.743   1.403   7.665 -0.1677 -2.3815  3.0775
 1495SOL    HW2 4485   2.694   1.297   7.569 -0.6872  1.2628 -1.0028
 1496SOL     OW 4486   0.273   3.257   8.148 -0.0252 -0.1920  0.7511
 1496SOL    HW1 4487   0.247   3.293   8.064  0.0742 -0.6296  0.5304
 1496SOL    HW2 4488   0.212   3.295   8.211  0.8313  1.3242  0.7201
 1497SOL     OW 4489   3.124   0.849   9.455  0.3615 -0.5582  0.0139
 1497SOL    HW1 4490   3.110   0.921   9.517 -0.4650  0.8516 -1.7126
 1497SOL    HW2 4491   3.193   0.880   9.397 -0.2082 -1.0060 -0.9349
 1498SOL     OW 4492   3.548   2.808   6.630  0.4131  0.3631 -0.0325
 1498SOL    HW1 4493   3.600   2.878   6.668  1.2159 -0.5188  0.5479
 1498SOL    HW2 4494   3.573   2.807   6.538  1.1671  0.1847  0.1679
 1499SOL     OW 4495   3.053   4.825   8.544  0.1311 -0.8373  0.3265
 1499SOL    HW1 4496   2.978   4.806   8.600 -0.0953 -0.7796  0.0398
 1499SOL    HW2 4497   3.110   4.879   8.599  0.6212 -2.0149  1.0447
 1500SOL     OW 4498   0.548   4.795   9.867 -0.1992 -0.3000 -0.0738
 1500SOL    HW1 4499   0.519   4.881   9.839 -2.3100 -1.5514 -2.1074
 1500SOL    HW2 4500   0.467   4.743   9.871  1.0127 -2.2116  1.0412
 1501SOL     OW 4501   0.785   0.572   8.716  0.5230  0.1683  0.1114
 1501SOL    HW1 4502   0.735   0.492   8.731  2.6113 -1.1775  0.4714
 1501SOL    HW2 4503   0.835   0.554   8.636  2.1938  0.4194  1.0401
 1502SOL     OW 4504   0.381   3.430   9.505  0.3811  0.3999 -0.1426
 1502SOL    HW1 4505   0.315   3.391   9.562  1.4887  1.5592  2.0592
 1502SOL    HW2 4506   0.367   3.388   9.420 -1.3385 -1.4308  0.9562
 1503SOL     OW 4507   0.212   1.707   5.418  0.1792 -0.2423 -0.1786
 1503SOL    HW1 4508   0.272   1.713   5.343 -0.0516  0.5336 -0.3065
 1503SOL    HW2 4509   0.268   1.677   5.490  0.0060 -3.1512 -1.1101
 1504SOL     OW 4510   3.097   0.373  10.080  0.3388 -0.5118 -0.0634
 1504SOL    HW1 4511   3.146   0.426  10.017  1.9392 -1.7037  0.1364
 1504SOL    HW2 4512   3.009   0.412  10.080  1.3886  2.0549 -0.0211
 1505SOL     OW 4513   0.978   0.166   9.364  0.2776  0.0615  0.2551
 1505SOL    HW1 4514   0.899   0.167   9.418 -0.5353 -2.0864 -0.7650
 1505SOL    HW2 4515   0.967   0.240   9.305  0.4829  1.5552  1.9787
 1506SOL     OW 4516   0.948   1.095   6.631  0.7924  0.3367  0.1534
 1506SOL    HW1 4517   0.921   1.092   6.722 -1.0741 -0.5472 -0.3848
 1506SOL    HW2 4518   1.044   1.093   6.634  0.7663 -2.3469  2.0248
 1507SOL     OW 4519   2.386   3.719   9.573 -0.0844  0.0152  0.5871
 1507SOL    HW1 4520   2.381   3.632   9.534  1.2895 -0.8742  2.2703
 1507SOL    HW2 4521   2.470   3.754   9.542 -0.5941  0.7313 -0.0170
 1508SOL     OW 4522   4.946   1.264   8.094 -0.5088  0.5452  0.1701
 1508SOL    HW1 4523   4.901   1.347   8.078 -2.5595 -0.3275  1.1008
 1508SOL    HW2 4524   4.892   1.219   8.160  1.3947 -0.8659  0.8518
 1509SOL     OW 4525   0.232   1.109   9.105  0.0063  0.0627  0.7098
 1509SOL    HW1 4526   0.165   1.152   9.158 -1.9892  1.5766 -2.7049
 1509SOL    HW2 4527   0.293   1.179   9.083  0.6207 -0.4616  0.7372
 1510SOL     OW 4528   3.114   4.360   7.372 -0.8121 -0.0032 -0.4730
 1510SOL    HW1 4529   3.087   4.294   7.436 -1.1858  0.3803 -0.2358
 1510SOL    HW2 4530   3.133   4.438   7.424  0.0056 -0.0367 -0.7173
 1511SOL     OW 4531   4.424   4.212   7.832  0.4578  0.0179  0.4471
 1511SOL    HW1 4532   4.371   4.292   7.839 -0.9384 -0.9526  1.8133
 1511SOL    HW2 4533   4.507   4.241   7.796 -0.9960  1.6350 -1.9426
 1512SOL     OW 4534   4.854   3.154   9.835 -0.0002  0.1425  0.2356
 1512SOL    HW1 4535   4.949   3.149   9.820  0.1428  0.6125  0.9605
 1512SOL    HW2 4536   4.817   3.176   9.750  0.5136 -0.3028 -0.1127
 1513SOL     OW 4537   4.750   0.532   7.893 -0.5317 -0.2666 -0.0355
 1513SOL    HW1 4538   4.804   0.546   7.815  1.0653 -4.3109  0.0606
 1513SOL    HW2 4539   4.712   0.445   7.879  0.4013 -1.4858  3.9530
 1514SOL     OW 4540   1.229   1.263   9.356  0.0534 -0.3530  0.5379
 1514SOL    HW1 4541   1.282   1.342   9.352  0.7082 -0.8364 -0.4778
 1514SOL    HW2 4542   1.140   1.296   9.371  0.2555  0.5947 -0.2244
 1515SOL     OW 4543   0.985   2.959   9.239 -0.1914 -0.1631  0.1167
 1515SOL    HW1 4544   0.997   2.908   9.159 -0.8918  0.9009 -0.6856
 1515SOL    HW2 4545   1.022   3.045   9.220  2.4268 -0.7665  1.9902
 1516SOL     OW 4546   0.701   0.256   8.437  0.2820  0.0945  0.5224
 1516SOL    HW1 4547   0.793   0.231   8.428  0.5381  1.3314 -0.5791
 1516SOL    HW2 4548   0.653   0.173   8.432  1.3607 -0.6682  2.1045
 1517SOL     OW 4549   0.252   1.072   7.961  0.0328  0.0034 -0.2476
 1517SOL    HW1 4550   0.180   1.114   7.913 -0.6900  0.3470  1.0844
 1517SOL    HW2 4551   0.229   0.979   7.963  0.2906 -0.0773 -0.9360
 1518SOL     OW 4552   3.422   3.817   7.831  0.3849 -0.2551 -0.0311
 1518SOL    HW1 4553   3.354   3.803   7.765 -0.5718  0.8918  0.6854
 1518SOL    HW2 4554   3.499   3.773   7.795  0.3145  1.4921 -2.5951
 1519SOL     OW 4555   3.634   3.657   9.438  0.8689 -0.2038  0.6370
 1519SOL    HW1 4556   3.595   3.734   9.480  0.3302 -0.1253 -0.0015
 1519SOL    HW2 4557   3.639   3.592   9.508 -1.6879 -0.6996  0.4498
 1520SOL     OW 4558   4.894   4.743   8.833  0.0743  0.1286 -0.1672
 1520SOL    HW1 4559   4.872   4.836   8.829  1.9367  0.6744  0.8550
 1520SOL    HW2 4560   4.960   4.732   8.764 -0.2316 -0.4849 -0.3715
 1521SOL     OW 4561   2.060   4.897   8.427 -0.1030 -0.5303 -1.1508
 1521SOL    HW1 4562   2.114   4.959   8.475 -2.9721  0.9895  0.3618
 1521SOL    HW2 4563   2.095   4.811   8.451 -0.0944  0.2679  2.0940
 1522SOL     OW 4564   0.305   4.523   7.699  0.3080  0.3123 -0.3153
 1522SOL    HW1 4565   0.380   4.583   7.690 -0.2507  0.8015 -2.2289
 1522SOL    HW2 4566   0.264   4.549   7.781  1.1342  1.3337 -0.1906
 1523SOL     OW 4567   3.437   4.452   7.703 -0.2575  0.3578 -0.5768
 1523SOL    HW1 4568   3.353   4.459   7.750  0.2786  0.7733  0.3377
 1523SOL    HW2 4569   3.418   4.394   7.629 -1.8667  2.0619 -1.5823
 1524SOL     OW 4570   1.650   1.820   5.609  0.7972 -0.5299  0.1068
 1524SOL    HW1 4571   1.618   1.746   5.660 -0.8357  0.6621  0.8928
 1524SOL    HW2 4572   1.571   1.857   5.568  1.6371  0.4981 -0.6478
 1525SOL     OW 4573   3.599   1.737   6.315 -0.3152  0.1790  0.1091
 1525SOL    HW1 4574   3.550   1.765   6.393 -2.3332 -1.6913 -0.3956
 1525SOL    HW2 4575   3.675   1.691   6.351 -0.6105  0.3491  0.9869
 1526SOL     OW 4576   1.839   4.136   9.248  0.4933  0.1921  0.2290
 1526SOL    HW1 4577   1.765   4.143   9.309 -0.1811 -0.0568 -0.5536
 1526SOL    HW2 4578   1.810   4.074   9.182  0.1572  2.3894 -1.8232
 1527SOL     OW 4579   0.998   3.347   7.488 -0.3393  0.2657 -0.7039
 1527SOL    HW1 4580   0.962   3.333   7.576  1.3501 -1.7195 -0.2523
 1527SOL    HW2 4581   1.073   3.405   7.501 -0.6977  0.8151 -1.0192
 1528SOL     OW 4582   1.299   3.594   5.198  0.0434 -0.5271  0.3978
 1528SOL    HW1 4583   1.294   3.628   5.288  0.0348 -1.7643  0.8786
 1528SOL    HW2 4584   1.314   3.500   5.208  2.2996 -0.3666 -0.9265
 1529SOL     OW 4585   1.178   4.903   5.423  0.2951 -0.4482 -0.0442
 1529SOL    HW1 4586   1.116   4.835   5.446  0.1361  0.7764  3.8579
 1529SOL    HW2 4587   1.263   4.858   5.420 -0.1320 -1.2587 -0.1657
 1530SOL     OW 4588   4.921   1.458   6.473 -0.2049  0.4368  0.6486
 1530SOL    HW1 4589   4.939   1.368   6.447 -1.7317  1.0820 -3.4151
 1530SOL    HW2 4590   4.835   1.454   6.515 -0.0972 -0.0289  0.8332
 1531SOL     OW 4591   2.193   0.322   5.509 -0.7344  0.1883 -0.2871
 1531SOL    HW1 4592   2.144   0.247   5.477 -1.5176  0.5238  0.1047
 1531SOL    HW2 4593   2.137   0.397   5.491 -0.9515  0.4570  1.2918
 1532SOL     OW 4594   1.421   1.112   6.945  0.6735 -0.5268  0.1404
 1532SOL    HW1 4595   1.427   1.205   6.967  1.5439 -0.3286 -0.8438
 1532SOL    HW2 4596   1.512   1.084   6.933  0.3460 -0.6649 -2.8485
 1533SOL     OW 4597   3.704   2.161   5.860 -0.6567  0.1624 -0.2377
 1533SOL    HW1 4598   3.675   2.244   5.897  0.3256  0.9182 -1.1066
 1533SOL    HW2 4599   3.776   2.134   5.916 -0.8315 -0.0020 -0.0892
 1534SOL     OW 4600   1.538   2.743   5.554  0.2435 -0.2643  0.2688
 1534SOL    HW1 4601   1.567   2.818   5.607  0.3707  0.3491 -0.6482
 1534SOL    HW2 4602   1.620   2.701   5.526  0.1773 -0.5556  0.5096
 1535SOL     OW 4603   1.108   2.644   5.152  0.0487 -0.5825  0.2158
 1535SOL    HW1 4604   1.130   2.703   5.224  0.7883  0.6743 -0.9687
 1535SOL    HW2 4605   1.097   2.559   5.192 -0.2106  0.2120  1.8925
 1536SOL     OW 4606   2.878   1.781   8.763  0.3149  0.4038 -0.3351
 1536SOL    HW1 4607   2.943   1.847   8.787 -1.0679  1.3503  0.9803
 1536SOL    HW2 4608   2.818   1.827   8.705  1.9354 -1.0581 -3.4461
 1537SOL     OW 4609   4.210   2.798   5.179 -1.2107 -0.4125 -0.2158
 1537SOL    HW1 4610   4.184   2.808   5.087  0.5789 -0.1837 -0.7418
 1537SOL    HW2 4611   4.282   2.735   5.176  0.4621  1.3516  0.6939
 1538SOL     OW 4612   2.636   0.707   8.345  0.2736  0.1934  0.2830
 1538SOL    HW1 4613   2.674   0.629   8.387  1.9589  0.3239 -0.9060
 1538SOL    HW2 4614   2.700   0.776   8.361 -1.9537  1.8858  2.7793
 1539SOL     OW 4615   2.718   2.774   5.704 -0.3518 -0.0092  0.8857
 1539SOL    HW1 4616   2.786   2.813   5.650  0.2758  0.0442  1.7071
 1539SOL    HW2 4617   2.673   2.713   5.644  1.1484 -0.9186  0.6190
 1540SOL     OW 4618   1.335   2.460   5.396 -0.0096 -0.3088 -0.2057
 1540SOL    HW1 4619   1.338   2.483   5.489  0.5105 -2.1984  0.2950
 1540SOL    HW2 4620   1.397   2.521   5.355  0.4127 -0.0157  0.8219
 1541SOL     OW 4621   2.569   1.548   5.514  0.0049  0.2601 -0.0381
 1541SOL    HW1 4622   2.487   1.596   5.525  0.2205  0.0351  3.8033
 1541SOL    HW2 4623   2.632   1.594   5.570  1.5834 -1.5336 -0.2388
 1542SOL     OW 4624   1.356   2.043   6.312  0.2728 -0.5801  0.3190
 1542SOL    HW1 4625   1.262   2.059   6.325  0.2608  1.2181 -1.5034
 1542SOL    HW2 4626   1.360   1.980   6.240  0.4961 -2.1209  1.6130
 1543SOL     OW 4627   2.190   2.866   5.792  0.5723 -0.6598 -0.2379
 1543SOL    HW1 4628   2.274   2.861   5.837  1.0589 -1.1032 -1.1587
 1543SOL    HW2 4629   2.125   2.842   5.858  0.9806  1.3617  0.9553
 1544SOL     OW 4630   0.442   4.933   6.747 -0.0391  0.4929  0.3923
 1544SOL    HW1 4631   0.397   4.938   6.662 -0.4932 -0.6203  0.5455
 1544SOL    HW2 4632   0.462   4.840   6.758 -1.6072  0.3046  2.3038
 1545SOL     OW 4633   0.030   0.231   4.871 -0.1001  0.2163 -0.4725
 1545SOL    HW1 4634   0.029   0.314   4.824  0.5536  0.6332  0.2183
 1545SOL    HW2 4635  -0.048   0.185   4.841  0.1124  0.6213 -1.6762
 1546SOL     OW 4636   1.192   2.175   5.143 -0.3325 -0.0841 -0.1597
 1546SOL    HW1 4637   1.258   2.194   5.077  1.9109  1.4888  2.3364
 1546SOL    HW2 4638   1.210   2.085   5.171  0.2267  0.0564 -0.0672
 1547SOL     OW 4639   4.806   0.587   5.465 -0.2557 -0.3468  0.3641
 1547SOL    HW1 4640   4.722   0.547   5.490 -1.8688  1.4042 -1.8943
 1547SOL    HW2 4641   4.858   0.513   5.432 -1.8649 -1.1222 -0.5547
 1548SOL     OW 4642   0.247   1.744   6.404 -0.4219 -0.3623  0.1775
 1548SOL    HW1 4643   0.234   1.827   6.451  1.0684 -1.3932  2.6573
 1548SOL    HW2 4644   0.244   1.768   6.312  3.2754  3.1453  0.6885
 1549SOL     OW 4645   4.774   3.173   5.594  0.1477 -0.2393 -0.5589
 1549SOL    HW1 4646   4.835   3.239   5.561  2.4390 -2.1746 -0.4101
 1549SOL    HW2 4647   4.710   3.163   5.524  0.4677  1.2211 -1.0961
 1550SOL     OW 4648   4.196   4.311   5.003 -0.6521 -0.2248  0.8356
 1550SOL    HW1 4649   4.135   4.353   5.064 -0.9684 -0.8167  0.9288
 1550SOL    HW2 4650   4.272   4.370   5.002 -1.0294  0.2794  1.0711
 1551SOL     OW 4651   4.953   0.300   6.380 -0.3108 -0.0914 -0.5108
 1551SOL    HW1 4652   5.040   0.331   6.355 -0.9139  2.4665  0.2881
 1551SOL    HW2 4653   4.910   0.279   6.297  0.7303 -0.4783 -0.9655
 1552SOL     OW 4654   0.893   3.356   5.435  0.5428  0.2252  0.4588
 1552SOL    HW1 4655   0.886   3.451   5.440  1.0944  0.4885 -2.1317
 1552SOL    HW2 4656   0.979   3.340   5.398 -0.2713 -1.1338 -1.0059
 1553SOL     OW 4657   3.378   2.027   5.702  0.5411 -0.2004  0.9377
 1553SOL    HW1 4658   3.339   1.957   5.650 -1.0595  0.2417  1.4898
 1553SOL    HW2 4659   3.340   2.017   5.789  1.5783  0.3514  1.4798
 1554SOL     OW 4660   3.310   1.022   5.716  0.1531  0.2842 -0.1028
 1554SOL    HW1 4661   3.318   1.027   5.812 -1.2124  1.5168 -0.0154
 1554SOL    HW2 4662   3.322   1.113   5.687  1.3454 -0.1924 -1.2020
 1555SOL     OW 4663   0.642   0.177   6.207 -0.3277  0.0378  0.0776
 1555SOL    HW1 4664   0.699   0.117   6.256  1.9419  1.8985 -0.1082
 1555SOL    HW2 4665   0.695   0.256   6.195 -2.3185  1.2006 -1.7715
 1556SOL     OW 4666   3.737   3.282   5.436 -0.4537 -0.0314  0.0449
 1556SOL    HW1 4667   3.789   3.240   5.504 -0.2637 -0.5323 -0.4008
 1556SOL    HW2 4668   3.658   3.312   5.481  0.4897  1.3323  0.8715
 1557SOL     OW 4669   3.382   0.636   5.087  0.0702 -0.6586  0.0565
 1557SOL    HW1 4670   3.376   0.647   4.992  3.1435  0.9181 -0.0765
 1557SOL    HW2 4671   3.456   0.577   5.100  0.3130 -0.0804  1.4627
 1558SOL     OW 4672   1.308   3.720   5.492  0.2648 -0.2665  0.7411
 1558SOL    HW1 4673   1.215   3.733   5.510  0.4592 -1.2959  2.7521
 1558SOL    HW2 4674   1.340   3.807   5.470 -1.0889  0.1786  0.4096
 1559SOL     OW 4675   1.410   2.634   7.180 -0.3119  0.1132  0.6114
 1559SOL    HW1 4676   1.482   2.576   7.207 -0.5740 -0.4448  0.1447
 1559SOL    HW2 4677   1.365   2.585   7.111  0.3531  1.5195 -0.8718
 1560SOL     OW 4678   0.701   2.871   7.071  0.6047  0.6220  0.3310
 1560SOL    HW1 4679   0.770   2.813   7.039  1.6733  1.8400  0.3109
 1560SOL    HW2 4680   0.711   2.950   7.017 -0.0874  1.2276  1.0822
 1561SOL     OW 4681   1.698   3.350   6.092 -0.3236 -0.2223 -0.1262
 1561SOL    HW1 4682   1.708   3.292   6.168 -0.1228 -0.5661 -0.4125
 1561SOL    HW2 4683   1.700   3.291   6.017  0.0706  0.1727 -0.4305
 1562SOL     OW 4684   1.527   0.810   6.294 -0.5405 -0.6925 -0.3807
 1562SOL    HW1 4685   1.572   0.736   6.254 -2.9128 -2.8580  0.6518
 1562SOL    HW2 4686   1.585   0.838   6.365  1.6722  0.3698 -2.4673
 1563SOL     OW 4687   2.948   1.163   6.516  0.3315 -0.1001 -0.2875
 1563SOL    HW1 4688   2.881   1.232   6.517 -0.7985 -1.1482 -0.6841
 1563SOL    HW2 4689   3.012   1.193   6.452 -0.3856  0.3798 -0.8006
 1564SOL     OW 4690   1.119   0.048   5.650 -0.5153 -0.1722 -0.2915
 1564SOL    HW1 4691   1.153  -0.000   5.574 -1.6733 -1.4858 -0.0066
 1564SOL    HW2 4692   1.107   0.137   5.618  3.6663  0.6250 -0.2804
 1565SOL     OW 4693   1.739   3.103   4.654 -0.4117  0.0508 -0.4666
 1565SOL    HW1 4694   1.771   3.036   4.593 -1.7895  0.6238 -1.8712
 1565SOL    HW2 4695   1.797   3.178   4.639  0.5077 -0.4593  0.4002
 1566SOL     OW 4696   3.041   4.155   7.499 -0.3568  0.2300 -0.0140
 1566SOL    HW1 4697   2.956   4.112   7.510  0.0158 -0.8448 -1.1450
 1566SOL    HW2 4698   3.104   4.094   7.537  0.0538  0.3556 -0.4837
 1567SOL     OW 4699   3.149   2.389   5.983  0.5381 -0.6950 -0.2984
 1567SOL    HW1 4700   3.103   2.458   6.030  0.0551 -0.0347 -1.6732
 1567SOL    HW2 4701   3.232   2.429   5.956  1.1056 -1.2770  0.5313
 1568SOL     OW 4702   3.378   4.940   5.520 -0.0587  0.7177  0.0812
 1568SOL    HW1 4703   3.353   4.848   5.523 -1.1865  1.0193  0.8696
 1568SOL    HW2 4704   3.375   4.968   5.612  0.1820  1.5558 -0.1604
 1569SOL     OW 4705   3.473   4.013   4.962  0.0913 -0.0565 -0.2886
 1569SOL    HW1 4706   3.492   3.920   4.950  0.0448 -0.2089  0.7946
 1569SOL    HW2 4707   3.380   4.022   4.939 -0.0858 -0.4036  0.3022
 1570SOL     OW 4708   2.903   3.540   5.924  0.0455 -0.1777  0.3988
 1570SOL    HW1 4709   2.945   3.556   6.008  3.1172  0.2741 -1.0953
 1570SOL    HW2 4710   2.854   3.620   5.906 -3.0392 -1.2992  2.8857
 1571SOL     OW 4711   2.830   1.928   5.590  0.7102 -0.1673  0.4634
 1571SOL    HW1 4712   2.821   1.958   5.500  3.7955 -2.3072 -0.7049
 1571SOL    HW2 4713   2.878   1.998   5.634  0.8472  0.0538 -0.0423
 1572SOL     OW 4714   4.490   0.855   6.656 -0.4517 -0.2656  0.4922
 1572SOL    HW1 4715   4.442   0.929   6.619 -0.3311 -0.2584  0.3440
 1572SOL    HW2 4716   4.434   0.779   6.641 -0.6525 -0.1770  0.8008
 1573SOL     OW 4717   2.518   0.690   7.034  0.1861 -0.0865  0.4356
 1573SOL    HW1 4718   2.524   0.684   6.938 -0.2993  1.2433  0.3100
 1573SOL    HW2 4719   2.553   0.606   7.064 -1.4048 -1.3278 -0.9532
 1574SOL     OW 4720   4.895   2.935   6.581 -0.4566 -0.3109 -0.1578
 1574SOL    HW1 4721   4.987   2.944   6.607 -1.1136 -0.2355  2.4896
 1574SOL    HW2 4722   4.892   2.968   6.491  1.4668  3.4010  0.9057
 1575SOL     OW 4723   4.671   0.948   5.360 -0.1279  0.0464 -0.2257
 1575SOL    HW1 4724   4.707   1.030   5.328 -1.5206  0.9820  0.5096
 1575SOL    HW2 4725   4.610   0.920   5.292 -0.7100  0.3641  0.1641
 1576SOL     OW 4726   3.480   3.010   5.082  0.2427 -0.1239 -0.2876
 1576SOL    HW1 4727   3.451   3.005   5.173 -0.8891 -1.3099 -0.6837
 1576SOL    HW2 4728   3.503   2.920   5.059 -0.9032 -0.1270 -1.5919
 1577SOL     OW 4729   3.062   1.296   6.311 -0.5655  0.1611  0.4721
 1577SOL    HW1 4730   3.153   1.323   6.313 -0.0377 -1.5170  0.6277
 1577SOL    HW2 4731   3.019   1.361   6.256  1.1224 -0.1125 -1.2863
 1578SOL     OW 4732   3.232   4.331   6.838  0.5338  0.4004  1.4117
 1578SOL    HW1 4733   3.169   4.310   6.907  0.1924 -1.7994  0.5020
 1578SOL    HW2 4734   3.189   4.304   6.757  1.1700  2.3636  0.3328
 1579SOL     OW 4735   2.283   2.209   5.527  0.1359  0.3330  0.0514
 1579SOL    HW1 4736   2.264   2.139   5.465 -0.8379  0.3596  0.2962
 1579SOL    HW2 4737   2.252   2.289   5.483 -2.0836  0.1711  1.1552
 1580SOL     OW 4738   0.413   1.644   5.824  0.1347  0.0032 -0.5046
 1580SOL    HW1 4739   0.394   1.556   5.856 -3.5474  1.5211  2.2635
 1580SOL    HW2 4740   0.465   1.631   5.745 -2.2615 -4.7188 -1.6149
 1581SOL     OW 4741   1.867   3.354   4.943  0.0650  0.6584 -0.0055
 1581SOL    HW1 4742   1.896   3.415   5.011 -1.5416  1.6489 -0.1480
 1581SOL    HW2 4743   1.912   3.272   4.963  1.0748  1.4466  1.1203
 1582SOL     OW 4744   2.186   2.342   8.891  0.5841  0.3344  0.3395
 1582SOL    HW1 4745   2.227   2.257   8.910  0.6773 -0.0090 -1.2882
 1582SOL    HW2 4746   2.244   2.383   8.827 -1.3581  0.0067 -1.7353
 1583SOL     OW 4747   2.441   4.909   7.159 -0.3605 -0.3445 -0.1858
 1583SOL    HW1 4748   2.433   4.908   7.255  0.5847 -0.5360 -0.1041
 1583SOL    HW2 4749   2.361   4.866   7.129 -0.3922 -0.8277  0.5413
 1584SOL     OW 4750   3.543   4.689   7.314 -0.5224  0.3132  0.0198
 1584SOL    HW1 4751   3.633   4.665   7.335 -0.1845 -0.3687 -2.0037
 1584SOL    HW2 4752   3.531   4.776   7.353  2.4575  2.3728 -3.1381
 1585SOL     OW 4753   0.696   3.577   6.501  0.1029 -0.3030  0.5446
 1585SOL    HW1 4754   0.679   3.516   6.429  1.2160 -0.5520  0.4658
 1585SOL    HW2 4755   0.747   3.527   6.564  1.1126  0.5466  0.4424
 1586SOL     OW 4756   1.226   4.526   5.255 -0.5004 -0.4627 -0.1317
 1586SOL    HW1 4757   1.285   4.451   5.258 -0.7221 -0.7463 -1.8011
 1586SOL    HW2 4758   1.282   4.599   5.226 -0.9001 -0.7163 -1.6416
 1587SOL     OW 4759   4.154   4.120   7.722 -0.6368  0.1467 -0.3362
 1587SOL    HW1 4760   4.222   4.180   7.753  0.7765 -1.9924  1.0172
 1587SOL    HW2 4761   4.107   4.095   7.801  1.4917 -3.5758  0.0064
 1588SOL     OW 4762   2.473   1.013   8.164 -0.6156 -0.2538 -0.2066
 1588SOL    HW1 4763   2.479   0.917   8.156  0.0862 -0.2843  0.5660
 1588SOL    HW2 4764   2.563   1.043   8.159 -0.2201 -0.0548  4.1535
 1589SOL     OW 4765   4.086   0.461   5.624  0.3301 -0.3487  0.1297
 1589SOL    HW1 4766   4.152   0.419   5.568  1.6199 -0.7918  1.9160
 1589SOL    HW2 4767   4.115   0.552   5.631 -1.7415  0.6748 -2.6479
 1590SOL     OW 4768   3.934   2.576   5.034  0.2143  0.1882 -0.7997
 1590SOL    HW1 4769   4.014   2.608   4.992 -0.9902  2.2514 -1.6628
 1590SOL    HW2 4770   3.921   2.488   4.997 -1.2044  2.1176 -5.6605
 1591SOL     OW 4771   1.630   3.809   8.303 -0.4208  0.0249 -0.3538
 1591SOL    HW1 4772   1.683   3.822   8.382  0.2586 -1.3731 -0.5538
 1591SOL    HW2 4773   1.621   3.714   8.295 -2.6509  0.1967 -0.5527
 1592SOL     OW 4774   2.620   0.367   4.980 -0.0059 -0.0086  0.2910
 1592SOL    HW1 4775   2.610   0.428   5.054  0.6163  0.4144  0.0366
 1592SOL    HW2 4776   2.654   0.421   4.909 -0.6932 -0.3956 -0.3450
 1593SOL     OW 4777   1.128   4.271   5.026 -0.0642 -0.4517 -0.2729
 1593SOL    HW1 4778   1.078   4.190   5.039 -1.1723  0.1300 -0.7478
 1593SOL    HW2 4779   1.202   4.263   5.086  0.9956 -2.7067 -1.7238
 1594SOL     OW 4780   3.532   0.875   8.019 -0.1769 -0.1403 -0.8444
 1594SOL    HW1 4781   3.475   0.869   7.943 -2.0131  0.4244  0.3967
 1594SOL    HW2 4782   3.563   0.966   8.019  0.1884 -0.2628 -1.1488
 1595SOL     OW 4783   0.765   1.209   5.787 -0.0462 -0.0974 -0.0168
 1595SOL    HW1 4784   0.820   1.157   5.727 -1.7414 -0.6962 -1.1371
 1595SOL    HW2 4785   0.795   1.184   5.874  3.0514  1.3887 -0.5010
 1596SOL     OW 4786   0.386   0.634   4.879 -0.6732  0.3183 -0.4041
 1596SOL    HW1 4787   0.342   0.718   4.868 -0.5138  0.4500 -0.0404
 1596SOL    HW2 4788   0.315   0.574   4.905 -0.8236  0.2899 -0.8778
 1597SOL     OW 4789   2.191   1.930   6.432 -0.3110  0.0578 -0.7716
 1597SOL    HW1 4790   2.098   1.911   6.420 -0.2258 -0.7121 -0.3107
 1597SOL    HW2 4791   2.228   1.848   6.466  0.7556 -0.0267 -2.0364
 1598SOL     OW 4792   4.088   0.833   6.712  0.6093  0.4050  0.2012
 1598SOL    HW1 4793   3.999   0.797   6.704  1.2385 -1.0589 -0.5259
 1598SOL    HW2 4794   4.074   0.927   6.727 -1.0662  0.1203  0.6607
 1599SOL     OW 4795   1.301   1.272   7.272  0.4460  0.4033  0.1957
 1599SOL    HW1 4796   1.363   1.338   7.240  0.3640  0.8538  0.9439
 1599SOL    HW2 4797   1.354   1.193   7.282  0.8166  0.6838  0.4678
 1600SOL     OW 4798   0.578   2.377   6.292  0.7743  0.1963  0.2716
 1600SOL    HW1 4799   0.487   2.367   6.322  0.0063 -1.8293 -2.3419
 1600SOL    HW2 4800   0.620   2.295   6.316  1.5416  0.5760  0.2389
 1601SOL     OW 4801   0.840   4.878   7.487 -0.1399  0.2167  1.0472
 1601SOL    HW1 4802   0.906   4.814   7.458 -3.0801 -1.9634 -1.6980
 1601SOL    HW2 4803   0.822   4.931   7.409 -0.9913  1.3548  1.9725
 1602SOL     OW 4804   1.582   4.518   5.922 -0.4796  0.0828 -0.1136
 1602SOL    HW1 4805   1.494   4.531   5.957 -0.3739  0.9100 -0.1193
 1602SOL    HW2 4806   1.637   4.509   6.000 -0.4444  0.4951 -0.0876
 1603SOL     OW 4807   2.081   2.255   5.177  0.1553  0.6608  0.3492
 1603SOL    HW1 4808   2.073   2.307   5.257 -1.0485  1.6902 -0.4118
 1603SOL    HW2 4809   2.122   2.314   5.114  2.1542 -0.4966  0.4785
 1604SOL     OW 4810   4.868   4.062   6.092 -0.1915  0.1173 -0.1597
 1604SOL    HW1 4811   4.960   4.034   6.085 -0.0350 -0.5225  2.8948
 1604SOL    HW2 4812   4.820   3.982   6.112 -1.1302  0.7065 -0.0201
 1605SOL     OW 4813   3.754   1.398   7.156  0.4663  0.0780  1.0123
 1605SOL    HW1 4814   3.661   1.390   7.134  1.1270 -0.3531 -2.1793
 1605SOL    HW2 4815   3.757   1.461   7.228 -2.2070  1.1168  0.3169
 1606SOL     OW 4816   1.416   4.579   5.615 -0.1469  0.0551  0.3137
 1606SOL    HW1 4817   1.493   4.535   5.579 -0.2249  0.5342 -0.4732
 1606SOL    HW2 4818   1.450   4.638   5.682  0.2512  0.6670 -0.4086
 1607SOL     OW 4819   4.322   1.065   6.581 -0.3976 -0.4839  0.0812
 1607SOL    HW1 4820   4.231   1.043   6.563 -0.1374 -0.8943 -0.7836
 1607SOL    HW2 4821   4.322   1.161   6.590 -0.4625 -0.0904 -2.9761
 1608SOL     OW 4822   2.207   1.231   6.218 -0.2626  0.7304 -0.0996
 1608SOL    HW1 4823   2.260   1.218   6.140 -0.8290  1.3024 -0.6031
 1608SOL    HW2 4824   2.164   1.316   6.203  0.6366  1.4967  1.4314
 1609SOL     OW 4825   2.896   0.608   5.922  0.1403 -1.1683 -0.6845
 1609SOL    HW1 4826   2.815   0.622   5.874  0.2467 -0.5292 -0.6974
 1609SOL    HW2 4827   2.959   0.668   5.880  0.0469 -0.0468  0.7076
 1610SOL     OW 4828   4.884   0.563   6.378  0.3655  0.6845 -0.7898
 1610SOL    HW1 4829   4.792   0.589   6.377  0.3008  0.4967 -2.2453
 1610SOL    HW2 4830   4.883   0.471   6.406  0.2487  1.0383  0.4434
 1611SOL     OW 4831   2.403   3.975   7.095  0.0724  0.1753  0.4767
 1611SOL    HW1 4832   2.382   4.056   7.141  0.5910  1.1222 -0.8886
 1611SOL    HW2 4833   2.492   3.954   7.124  0.8338  1.3755 -0.8565
 1612SOL     OW 4834   4.344   3.137   5.762 -0.4730  0.5487  0.6368
 1612SOL    HW1 4835   4.337   3.139   5.667  0.5841 -1.1783  0.4661
 1612SOL    HW2 4836   4.356   3.044   5.783 -1.0167  0.8567  2.4905
 1613SOL     OW 4837   2.150   0.442   7.465 -0.5330  0.3662  0.2215
 1613SOL    HW1 4838   2.194   0.358   7.476  0.0379  0.7534  1.0313
 1613SOL    HW2 4839   2.216   0.498   7.423 -0.5759  0.6741  0.5521
 1614SOL     OW 4840   0.422   0.921   6.916 -0.3925  0.1622  0.0364
 1614SOL    HW1 4841   0.504   0.941   6.871 -0.5074  0.8004  0.0877
 1614SOL    HW2 4842   0.354   0.958   6.860 -0.5396  0.9296  0.6972
 1615SOL     OW 4843   1.875   4.705   7.562 -0.4044  0.1654 -0.1198
 1615SOL    HW1 4844   1.871   4.772   7.494 -0.2201 -0.0690 -0.3638
 1615SOL    HW2 4845   1.969   4.689   7.575 -0.4545 -0.3505 -0.3666
 1616SOL     OW 4846   3.429   0.261   6.235 -0.5213  0.3578  0.1832
 1616SOL    HW1 4847   3.470   0.249   6.150 -3.5276 -1.1908 -1.1684
 1616SOL    HW2 4848   3.422   0.356   6.245  0.9242  0.5924 -0.6641
 1617SOL     OW 4849   4.473   0.425   4.816 -0.3971 -0.4321 -0.0289
 1617SOL    HW1 4850   4.450   0.402   4.906 -1.6160  0.5301 -0.0675
 1617SOL    HW2 4851   4.401   0.391   4.763  0.9347 -2.1460 -0.8351
 1618SOL     OW 4852   2.974   2.694   6.151  0.0851  0.0324  0.1642
 1618SOL    HW1 4853   3.042   2.728   6.093  0.7236 -1.0781  0.2463
 1618SOL    HW2 4854   2.959   2.766   6.213  0.2442  0.7785 -0.6346
 1619SOL     OW 4855   2.465   2.533   6.468 -0.2028 -0.2421 -0.6406
 1619SOL    HW1 4856   2.445   2.601   6.532 -2.8474  0.9756 -2.5850
 1619SOL    HW2 4857   2.536   2.568   6.415 -1.5328  1.1016 -1.6173
 1620SOL     OW 4858   3.195   3.944   5.347 -0.0531 -0.4079  0.7168
 1620SOL    HW1 4859   3.246   3.911   5.421 -0.2072 -0.3221  0.8652
 1620SOL    HW2 4860   3.104   3.930   5.373 -0.1102 -2.3578 -0.3709
 1621SOL     OW 4861   0.080   0.246   7.795 -0.2888  0.2675  0.2106
 1621SOL    HW1 4862   0.172   0.237   7.819  0.1851 -0.2035 -1.6098
 1621SOL    HW2 4863   0.079   0.316   7.730 -1.3651  0.8912  0.8721
 1622SOL     OW 4864   0.173   3.185   5.464 -0.5234 -0.3584 -0.9473
 1622SOL    HW1 4865   0.247   3.183   5.404 -0.3641 -1.7611 -0.7502
 1622SOL    HW2 4866   0.204   3.136   5.541 -0.8322  1.1057  0.1555
 1623SOL     OW 4867   0.731   4.055   6.018  0.1484 -0.0490 -0.1473
 1623SOL    HW1 4868   0.693   3.998   5.951  2.8085  0.1075 -1.9726
 1623SOL    HW2 4869   0.762   3.995   6.085 -0.9149 -0.3693  0.0736
 1624SOL     OW 4870   4.873   3.675   6.780 -0.1970 -0.4443  0.0593
 1624SOL    HW1 4871   4.892   3.693   6.872  0.0865 -0.0881 -0.0646
 1624SOL    HW2 4872   4.959   3.664   6.739 -0.3633 -2.1810  0.1347
 1625SOL     OW 4873   0.588   2.028   5.340 -0.5243 -0.0442  0.1290
 1625SOL    HW1 4874   0.595   1.963   5.270  0.4336 -0.3200  0.4619
 1625SOL    HW2 4875   0.509   2.077   5.319 -0.0915  0.1038 -1.3475
 1626SOL     OW 4876   0.649   3.440   6.287 -0.2651 -0.4496 -0.1445
 1626SOL    HW1 4877   0.626   3.348   6.274  0.3700 -0.2979 -2.9472
 1626SOL    HW2 4878   0.604   3.486   6.216  0.5852  1.2132  0.3454
 1627SOL     OW 4879   3.178   1.395   7.160 -0.6058  0.5779 -0.0460
 1627SOL    HW1 4880   3.101   1.441   7.129 -1.0435 -0.3191 -0.3216
 1627SOL    HW2 4881   3.219   1.455   7.223 -0.9571  1.4765 -0.6642
 1628SOL     OW 4882   2.688   0.398   5.299  0.0221  0.4085  0.0556
 1628SOL    HW1 4883   2.605   0.384   5.345  1.1515  2.9310  3.3180
 1628SOL    HW2 4884   2.735   0.315   5.306 -1.8297 -0.8015 -1.1466
 1629SOL     OW 4885   1.285   1.039   5.647 -0.8095  0.0152 -0.0865
 1629SOL    HW1 4886   1.297   1.123   5.691 -1.0269  0.0909 -0.1665
 1629SOL    HW2 4887   1.359   0.986   5.674 -1.2513 -0.1420  0.8342
 1630SOL     OW 4888   4.423   1.153   7.367  0.0116 -0.3282  0.4444
 1630SOL    HW1 4889   4.475   1.233   7.372  1.1546 -1.1094  1.7398
 1630SOL    HW2 4890   4.478   1.086   7.406 -1.5514 -1.4276  0.8619
 1631SOL     OW 4891   1.683   0.921   4.898 -0.3270  0.1129  0.0737
 1631SOL    HW1 4892   1.600   0.873   4.904  0.0720 -0.4678  1.1708
 1631SOL    HW2 4893   1.749   0.853   4.886  0.1894  0.4120  1.1065
 1632SOL     OW 4894   4.049   0.147   5.181  0.0861 -0.1825  0.3233
 1632SOL    HW1 4895   3.983   0.194   5.130  1.1363  0.9124 -0.0610
 1632SOL    HW2 4896   4.127   0.149   5.126 -0.3583 -4.4786 -0.8384
 1633SOL     OW 4897   1.097   0.307   5.559  0.7456  0.0303 -0.6916
 1633SOL    HW1 4898   1.064   0.268   5.478 -0.1559 -0.3819 -0.1485
 1633SOL    HW2 4899   1.098   0.401   5.541 -1.7975  0.1858 -0.4144
 1634SOL     OW 4900   1.521   0.957   5.988 -0.6039  0.7384 -0.4774
 1634SOL    HW1 4901   1.455   1.025   5.971 -1.2390  0.4986  0.8792
 1634SOL    HW2 4902   1.539   0.964   6.082 -0.0540 -0.4141 -0.4797
 1635SOL     OW 4903   1.149   0.783   6.539  0.5298 -0.3554  0.4165
 1635SOL    HW1 4904   1.120   0.764   6.628 -1.0262  1.5204  0.3759
 1635SOL    HW2 4905   1.243   0.798   6.546  0.7627 -2.0893  1.3866
 1636SOL     OW 4906   1.146   3.606   4.963  0.4263  0.3120  0.2091
 1636SOL    HW1 4907   1.199   3.633   5.038  0.6454 -1.0554  0.5606
 1636SOL    HW2 4908   1.207   3.560   4.906 -0.1223 -0.1921  0.0220
 1637SOL     OW 4909   0.679   4.881   7.886  0.3350  0.2552  0.1701
 1637SOL    HW1 4910   0.733   4.816   7.930  0.9806  0.5093 -0.2207
 1637SOL    HW2 4911   0.741   4.949   7.859 -0.1930  0.5926 -0.2259
 1638SOL     OW 4912   1.563   1.001   5.522  0.4251 -0.6890  0.6416
 1638SOL    HW1 4913   1.590   0.909   5.527  0.7040 -0.5642  2.1274
 1638SOL    HW2 4914   1.524   1.011   5.436  1.0354 -2.0286  0.1923
 1639SOL     OW 4915   2.964   2.058   7.347 -0.4069 -0.3162  0.5298
 1639SOL    HW1 4916   2.904   2.132   7.345  0.6448  0.5569 -0.5479
 1639SOL    HW2 4917   2.908   1.981   7.340 -1.4393  0.4424  0.2362
 1640SOL     OW 4918   4.021   0.515   8.381 -0.6549  0.4199  0.2080
 1640SOL    HW1 4919   3.935   0.522   8.421 -1.0615  0.7753 -0.6942
 1640SOL    HW2 4920   4.055   0.431   8.411 -1.8658 -0.3293 -0.4585
 1641SOL     OW 4921   0.100   3.569   7.723  0.0415  0.1208  0.1551
 1641SOL    HW1 4922   0.138   3.656   7.711  0.1655 -0.0905 -1.2350
 1641SOL    HW2 4923   0.019   3.571   7.671 -0.5629 -0.2284  1.0654
 1642SOL     OW 4924   1.500   0.368   7.830 -0.0804  0.5310  0.1856
 1642SOL    HW1 4925   1.514   0.274   7.829 -0.6976  0.4354 -0.4192
 1642SOL    HW2 4926   1.462   0.387   7.915  0.5528  0.3200  0.5229
 1643SOL     OW 4927   4.431   0.426   6.407 -0.0713 -0.0381  0.1203
 1643SOL    HW1 4928   4.348   0.422   6.456 -0.6767  0.6209 -0.8011
 1643SOL    HW2 4929   4.422   0.360   6.339  0.3047 -0.1938  0.2201
 1644SOL     OW 4930   3.119   0.034   5.708 -0.0695 -0.6029 -0.7124
 1644SOL    HW1 4931   3.202   0.006   5.746 -0.1687 -0.7970 -0.6365
 1644SOL    HW2 4932   3.087   0.102   5.768 -0.3102 -1.0326 -0.3561
 1645SOL     OW 4933   3.654   4.979   4.928  0.3218  0.0344  0.0074
 1645SOL    HW1 4934   3.615   4.948   5.011 -0.6451 -1.3235 -0.9008
 1645SOL    HW2 4935   3.691   4.900   4.889  0.4153  0.5805 -1.0327
 1646SOL     OW 4936   0.958   1.612   5.455  0.3436  0.0869 -0.3738
 1646SOL    HW1 4937   1.025   1.680   5.445 -0.1185  0.4303 -1.2126
 1646SOL    HW2 4938   0.989   1.559   5.529  1.8520 -0.1365 -1.1154
 1647SOL     OW 4939   3.520   4.024   8.931 -0.4895  0.0334 -0.8063
 1647SOL    HW1 4940   3.495   3.949   8.985 -0.3882  0.1668 -0.5723
 1647SOL    HW2 4941   3.507   3.994   8.841 -0.1022 -0.3915 -0.7243
 1648SOL     OW 4942   0.195   0.904   8.266  0.0792  0.4898  0.6102
 1648SOL    HW1 4943   0.245   0.823   8.277 -1.6490 -0.7681 -0.3405
 1648SOL    HW2 4944   0.259   0.968   8.236  1.1817 -0.9542 -0.2363
 1649SOL     OW 4945   1.323   0.447   7.631  0.1706 -0.3071  0.1711
 1649SOL    HW1 4946   1.265   0.518   7.658 -0.2953 -0.9569  0.9181
 1649SOL    HW2 4947   1.373   0.426   7.710  1.6815  0.4621 -0.5386
 1650SOL     OW 4948   0.783   0.710   6.648  0.1327 -0.1475 -0.2643
 1650SOL    HW1 4949   0.857   0.664   6.689  0.8266  0.4640 -0.8100
 1650SOL    HW2 4950   0.814   0.732   6.560 -0.3073  1.0496 -0.1417
 1651SOL     OW 4951   1.404   4.160   7.806  0.4012 -0.7801 -0.1071
 1651SOL    HW1 4952   1.425   4.098   7.876  1.0780 -0.9278 -0.4268
 1651SOL    HW2 4953   1.445   4.242   7.834 -0.7878 -0.3653  0.4821
 1652SOL     OW 4954   3.841   3.090   6.449 -0.2227  0.0347  0.4941
 1652SOL    HW1 4955   3.875   3.025   6.388  0.9976 -0.0880  1.2479
 1652SOL    HW2 4956   3.873   3.173   6.416  0.9902 -0.0926  1.2719
 1653SOL     OW 4957   2.453   2.160   5.713 -0.1819 -0.0199 -0.6419
 1653SOL    HW1 4958   2.386   2.142   5.647 -1.7518 -1.2622  1.1886
 1653SOL    HW2 4959   2.429   2.244   5.751 -0.0417  0.0621 -0.7315
 1654SOL     OW 4960   3.532   4.692   6.225 -0.6651  0.3827  0.3908
 1654SOL    HW1 4961   3.615   4.680   6.272 -0.3038  0.9861 -0.0699
 1654SOL    HW2 4962   3.557   4.736   6.144 -1.3925  0.1913  0.0558
 1655SOL     OW 4963   2.135   4.807   7.243  0.6080  0.4645  0.3933
 1655SOL    HW1 4964   2.044   4.787   7.266  0.5356 -0.6759 -0.7515
 1655SOL    HW2 4965   2.135   4.902   7.227 -0.6690  0.3128 -0.7189
 1656SOL     OW 4966   1.347   1.043   6.433  0.4153 -0.0495 -0.1304
 1656SOL    HW1 4967   1.257   1.020   6.457 -0.1451  0.4581 -1.6405
 1656SOL    HW2 4968   1.375   0.974   6.374  2.3341 -2.1247  2.9054
 1657SOL     OW 4969   3.570   1.087   5.437  0.0945  0.1782 -0.0129
 1657SOL    HW1 4970   3.501   1.021   5.442  0.5148 -0.1796  3.9161
 1657SOL    HW2 4971   3.650   1.036   5.423  0.0157  0.2603 -0.8243
 1658SOL     OW 4972   2.104   2.941   6.882  0.4825  0.1829  0.1690
 1658SOL    HW1 4973   2.016   2.945   6.920  1.2148 -1.1984  2.2261
 1658SOL    HW2 4974   2.135   2.853   6.904  0.9854 -0.8373 -3.9255
 1659SOL     OW 4975   2.144   4.923   5.526  0.7680 -0.2089 -0.0324
 1659SOL    HW1 4976   2.216   4.890   5.580  0.6936 -1.5142 -0.6994
 1659SOL    HW2 4977   2.184   4.994   5.475  1.5735 -0.8368 -0.3080
 1660SOL     OW 4978   1.337   2.889   8.878 -0.4060 -0.2323 -0.7564
 1660SOL    HW1 4979   1.377   2.923   8.799 -0.5247  0.8876 -0.3552
 1660SOL    HW2 4980   1.357   2.795   8.878 -1.4502 -0.5047 -2.7332
 1661SOL     OW 4981   2.198   0.151   9.396  0.0503  0.1203 -0.3457
 1661SOL    HW1 4982   2.246   0.134   9.477  1.3668 -1.1676 -1.3394
 1661SOL    HW2 4983   2.155   0.235   9.411 -0.1426 -0.3019  1.8476
 1662SOL     OW 4984   1.656   3.388   5.249 -0.4627 -0.1018 -0.6646
 1662SOL    HW1 4985   1.652   3.456   5.182 -0.7123 -1.7572 -2.4623
 1662SOL    HW2 4986   1.686   3.432   5.328  2.6848  1.5501 -2.5575
 1663SOL     OW 4987   0.708   1.714   5.395 -0.0267 -0.1234 -0.0843
 1663SOL    HW1 4988   0.726   1.622   5.411  1.5291 -0.0134 -1.0073
 1663SOL    HW2 4989   0.793   1.757   5.406 -0.5692  1.0832 -0.4605
 1664SOL     OW 4990   0.291   1.232   5.134 -0.3823  0.5310  0.1545
 1664SOL    HW1 4991   0.339   1.307   5.170  0.9067  0.3746 -1.1275
 1664SOL    HW2 4992   0.359   1.169   5.111 -1.3509 -0.4474 -0.1090
 1665SOL     OW 4993   2.364   3.849   5.515  0.0993 -0.1160  0.1378
 1665SOL    HW1 4994   2.280   3.882   5.546  0.4405  1.0793 -0.1406
 1665SOL    HW2 4995   2.422   3.856   5.590  0.3036  0.4159 -0.0678
 1666SOL     OW 4996   2.153   3.797   7.235  0.3271  0.6472 -0.1282
 1666SOL    HW1 4997   2.234   3.835   7.202  1.7680 -1.5345  0.6376
 1666SOL    HW2 4998   2.113   3.866   7.288  3.2490  0.8747  1.9514
 1667SOL     OW 4999   1.146   3.886   6.520 -0.7261 -0.0941  0.7459
 1667SOL    HW1 5000   1.150   3.974   6.557 -1.3566 -1.0881  3.4589
 1667SOL    HW2 5001   1.088   3.895   6.444  2.6416  2.5562 -1.7981
 1668SOL     OW 5002   2.293   2.669   9.244  0.7205 -0.4779 -0.2712
 1668SOL    HW1 5003   2.301   2.653   9.150 -2.4330 -0.8081 -0.6004
 1668SOL    HW2 5004   2.263   2.760   9.250 -1.2540 -1.1266  0.2101
 1669SOL     OW 5005   1.191   0.069   6.039  0.3338 -0.1158  0.0501
 1669SOL    HW1 5006   1.196   0.163   6.024  1.7141 -0.3549 -1.2569
 1669SOL    HW2 5007   1.104   0.044   6.008  1.1456  0.2683 -2.7913
 1670SOL     OW 5008   0.910   1.266   5.536  0.1744  0.0339  0.6912
 1670SOL    HW1 5009   0.979   1.268   5.469 -0.1283 -1.3825  0.2974
 1670SOL    HW2 5010   0.834   1.230   5.490  0.3816 -2.4753  2.1087
 1671SOL     OW 5011   0.367   1.887   4.714 -0.2619 -0.1868  0.2486
 1671SOL    HW1 5012   0.363   1.979   4.690 -0.7826 -0.1714  0.3921
 1671SOL    HW2 5013   0.276   1.862   4.730 -0.1000 -0.6631  0.4389
 1672SOL     OW 5014   4.133   3.192   6.043  0.1910 -0.0565  0.6757
 1672SOL    HW1 5015   4.134   3.112   5.991 -1.7403  0.8516 -0.9136
 1672SOL    HW2 5016   4.188   3.253   5.993  1.9590 -0.4474  2.0678
 1673SOL     OW 5017   2.294   2.016   7.122  0.3087  1.0638  0.0425
 1673SOL    HW1 5018   2.278   2.037   7.214  0.7009  0.2424  0.3134
 1673SOL    HW2 5019   2.309   1.921   7.121  0.6676  1.1135 -0.8185
 1674SOL     OW 5020   3.674   0.560   6.478  0.0403  0.2830 -0.2141
 1674SOL    HW1 5021   3.651   0.469   6.493 -2.3417  1.1598  2.3044
 1674SOL    HW2 5022   3.643   0.578   6.389 -1.0785 -0.9089 -0.0886
 1675SOL     OW 5023   1.683   0.815   7.280 -0.3714 -0.0623 -0.6789
 1675SOL    HW1 5024   1.649   0.902   7.260  0.0661  0.1600 -0.4507
 1675SOL    HW2 5025   1.631   0.786   7.355  0.2642  0.4757 -0.0254
 1676SOL     OW 5026   3.134   1.418   5.689  0.4786  0.0494  0.2936
 1676SOL    HW1 5027   3.179   1.378   5.615 -0.1879  2.2061 -1.3848
 1676SOL    HW2 5028   3.205   1.442   5.750  1.0520 -1.5639  0.3094
 1677SOL     OW 5029   3.154   0.894   6.550  0.4686  0.1820 -0.1717
 1677SOL    HW1 5030   3.080   0.921   6.496 -0.0005  0.2718  0.4949
 1677SOL    HW2 5031   3.115   0.845   6.622  0.7384  2.4016  1.6188
 1678SOL     OW 5032   2.353   4.288   5.339  0.2918 -0.3985 -0.2653
 1678SOL    HW1 5033   2.391   4.375   5.349  1.0099 -0.0989 -3.9353
 1678SOL    HW2 5034   2.428   4.230   5.326 -0.2381 -0.8796 -1.3688
 1679SOL     OW 5035   3.804   0.059   7.088  0.8676  0.0525  0.1554
 1679SOL    HW1 5036   3.824   0.005   7.012  2.2703 -0.4395  0.8310
 1679SOL    HW2 5037   3.709   0.064   7.090  0.7482 -1.5147 -0.5209
 1680SOL     OW 5038   0.988   0.188   6.307  0.0558 -0.3073 -0.0721
 1680SOL    HW1 5039   1.020   0.099   6.295  0.4329 -0.3553  1.0820
 1680SOL    HW2 5040   1.055   0.230   6.362 -0.3063  0.5655 -0.2778
 1681SOL     OW 5041   3.026   2.282   8.531  0.1732  0.0370  0.0130
 1681SOL    HW1 5042   2.976   2.233   8.466 -2.8595 -0.2708  2.3167
 1681SOL    HW2 5043   2.977   2.364   8.541 -0.6275 -0.6762  3.0593
 1682SOL     OW 5044   4.393   4.674   6.258 -0.2261 -0.1090 -0.1307
 1682SOL    HW1 5045   4.317   4.668   6.201 -0.1293  1.6333 -0.5205
 1682SOL    HW2 5046   4.467   4.651   6.201 -0.2561  0.3654 -0.3678
 1683SOL     OW 5047   2.549   0.462   8.083  0.1643  0.1828  0.6244
 1683SOL    HW1 5048   2.473   0.456   8.140  1.5222 -0.1513  2.4743
 1683SOL    HW2 5049   2.623   0.472   8.142  1.5501  0.8605 -1.1270
 1684SOL     OW 5050   0.498   3.010   6.569 -0.3052 -0.2097 -0.1765
 1684SOL    HW1 5051   0.493   2.974   6.481 -0.5953  0.2204 -0.3429
 1684SOL    HW2 5052   0.591   3.030   6.582 -0.1893 -0.7240 -0.1953
 1685SOL     OW 5053   4.294   1.297   6.273 -0.4055 -0.0668 -0.4717
 1685SOL    HW1 5054   4.356   1.234   6.237 -0.8984 -1.3863  0.9153
 1685SOL    HW2 5055   4.218   1.293   6.214  0.3862  0.8229 -1.5952
 1686SOL     OW 5056   3.981   0.284   6.609  0.6616  0.4705  0.0836
 1686SOL    HW1 5057   3.893   0.268   6.574 -0.4489 -1.0819  3.1574
 1686SOL    HW2 5058   4.033   0.209   6.579  0.2120  0.0587  0.3123
 1687SOL     OW 5059   4.278   3.697   5.896  0.3775 -0.0019 -0.1053
 1687SOL    HW1 5060   4.354   3.754   5.882  0.0916  0.3665 -0.1741
 1687SOL    HW2 5061   4.255   3.709   5.988  0.1705  0.1773 -0.1800
 1688SOL     OW 5062   3.090   1.891   5.093 -0.3373 -0.5207 -0.3043
 1688SOL    HW1 5063   3.092   1.874   5.188  0.9049  1.3180  0.0431
 1688SOL    HW2 5064   3.179   1.921   5.073 -0.7906 -0.2138 -1.9450
 1689SOL     OW 5065   1.285   1.545   5.481  0.3158 -0.3045 -0.7684
 1689SOL    HW1 5066   1.272   1.573   5.572 -1.5351 -0.1918 -1.0225
 1689SOL    HW2 5067   1.354   1.479   5.486 -1.3248 -2.0180  1.0978
 1690SOL     OW 5068   3.780   0.132   6.011 -0.4353 -0.0813  0.1995
 1690SOL    HW1 5069   3.839   0.060   6.031 -0.3530 -0.2869 -0.7370
 1690SOL    HW2 5070   3.753   0.116   5.921 -1.7455  0.1349  0.5405
 1691SOL     OW 5071   1.882   1.431   5.163 -0.1470 -0.2067  0.3460
 1691SOL    HW1 5072   1.958   1.422   5.104  0.0179 -2.3221  0.7857
 1691SOL    HW2 5073   1.901   1.509   5.215 -0.7020  2.2977 -2.8872
 1692SOL     OW 5074   4.528   1.453   6.739 -0.5565 -0.0547 -0.3702
 1692SOL    HW1 5075   4.508   1.453   6.645  0.0914 -1.4577 -0.5444
 1692SOL    HW2 5076   4.572   1.369   6.753  1.2925  1.0392  0.7921
 1693SOL     OW 5077   3.921   1.169   7.217 -0.1842 -0.6796  0.1941
 1693SOL    HW1 5078   3.847   1.219   7.185  1.8847  1.7982 -1.0770
 1693SOL    HW2 5079   3.886   1.081   7.234 -3.9068  0.9569  2.0773
 1694SOL     OW 5080   3.207   4.592   6.485  0.1395 -0.3880 -0.6541
 1694SOL    HW1 5081   3.244   4.541   6.413  1.3527  1.7769 -1.6894
 1694SOL    HW2 5082   3.271   4.583   6.556 -0.1372 -1.0721 -0.4926
 1695SOL     OW 5083   3.524   4.085   6.900 -0.5631 -0.0544  0.7996
 1695SOL    HW1 5084   3.434   4.112   6.879 -0.0038  1.1912 -0.0735
 1695SOL    HW2 5085   3.551   4.144   6.970  0.0660  0.5848  0.0494
 1696SOL     OW 5086   3.297   3.042   4.894  0.1692  0.0314  0.6376
 1696SOL    HW1 5087   3.372   3.040   4.953 -1.4308  0.1863  2.7963
 1696SOL    HW2 5088   3.289   2.952   4.862 -0.0205 -0.5164  2.1503
 1697SOL     OW 5089   1.592   1.900   6.115 -0.6558 -0.0196 -0.5505
 1697SOL    HW1 5090   1.658   1.852   6.164 -0.4422 -0.6078 -1.3926
 1697SOL    HW2 5091   1.576   1.979   6.167 -0.7069 -0.7898  0.6257
 1698SOL     OW 5092   3.996   4.455   5.894  1.1439 -0.2467  0.1448
 1698SOL    HW1 5093   4.024   4.366   5.915 -0.9886 -0.8904  0.5053
 1698SOL    HW2 5094   3.948   4.484   5.972 -2.1139 -0.5652 -1.5671
 1699SOL     OW 5095   1.892   0.334   7.483  0.7544 -0.7004  0.1624
 1699SOL    HW1 5096   1.976   0.378   7.491  0.7032 -0.5781  0.0455
 1699SOL    HW2 5097   1.829   0.406   7.473  0.6744 -0.8018 -0.0609
 1700SOL     OW 5098   0.902   4.060   6.643  0.1770  0.1530 -0.0529
 1700SOL    HW1 5099   0.887   4.144   6.686 -0.6940 -0.5948  1.1869
 1700SOL    HW2 5100   0.957   4.011   6.705  1.9081  0.2745 -1.3912
 1701SOL     OW 5101   1.179   3.378   5.362  0.1462 -0.1117 -0.1365
 1701SOL    HW1 5102   1.231   3.445   5.406  0.4516  0.6349 -1.5618
 1701SOL    HW2 5103   1.228   3.297   5.375  0.7740  0.2820 -0.0049
 1702SOL     OW 5104   1.585   2.119   5.099 -0.3900 -0.5806 -0.3365
 1702SOL    HW1 5105   1.563   2.211   5.112  1.0453 -0.1494 -0.7837
 1702SOL    HW2 5106   1.578   2.080   5.186 -1.7057 -0.2346 -0.2572
 1703SOL     OW 5107   4.921   1.742   6.115  0.0103 -0.8375 -0.3741
 1703SOL    HW1 5108   4.827   1.734   6.129 -0.0235  0.6690  0.5047
 1703SOL    HW2 5109   4.947   1.816   6.170  1.3638  0.1179 -2.1850
 1704SOL     OW 5110   2.900   4.489   6.322 -0.8068  0.0343 -0.2324
 1704SOL    HW1 5111   2.984   4.449   6.301 -1.6670 -1.8565 -0.2825
 1704SOL    HW2 5112   2.841   4.459   6.254 -1.8846  0.0378  0.6689
 1705SOL     OW 5113   4.955   4.534   7.008  1.1743  0.3211 -0.4934
 1705SOL    HW1 5114   4.935   4.585   7.086 -1.5106 -1.4587  0.1201
 1705SOL    HW2 5115   4.904   4.575   6.938 -1.2057 -1.4887  0.0580
 1706SOL     OW 5116   4.969   3.169   7.924 -0.0701 -0.3910  0.3541
 1706SOL    HW1 5117   4.976   3.265   7.918  0.1157 -0.4638 -0.8857
 1706SOL    HW2 5118   4.936   3.153   8.012  0.1593  0.8023  0.6793
 1707SOL     OW 5119   0.655   3.141   5.707  0.0037 -0.0686  0.1920
 1707SOL    HW1 5120   0.633   3.223   5.664 -0.6810 -0.5125 -0.3344
 1707SOL    HW2 5121   0.743   3.120   5.677 -0.2916 -0.1391 -0.6374
 1708SOL     OW 5122   3.102   4.441   6.095  0.1583 -0.3880  0.0003
 1708SOL    HW1 5123   3.176   4.488   6.133 -1.4493  0.4773  2.2818
 1708SOL    HW2 5124   3.081   4.490   6.015  0.1464  1.2549  0.9662
 1709SOL     OW 5125   3.103   3.517   6.453  0.0741 -0.0545 -0.6619
 1709SOL    HW1 5126   3.089   3.450   6.520  0.1973 -1.7775 -2.2712
 1709SOL    HW2 5127   3.157   3.474   6.387  0.4769  1.7837 -1.5932
 1710SOL     OW 5128   1.974   3.647   5.572 -0.2116 -0.4187 -0.9632
 1710SOL    HW1 5129   2.065   3.673   5.556  0.9124 -1.6452  2.5289
 1710SOL    HW2 5130   1.964   3.566   5.522 -0.0222  0.5687 -2.7031
 1711SOL     OW 5131   2.990   0.620   5.277 -0.2204 -0.1849 -0.1141
 1711SOL    HW1 5132   2.974   0.526   5.290  2.0230 -0.3809  2.0821
 1711SOL    HW2 5133   2.902   0.658   5.272 -1.2116 -2.2984 -0.2946
 1712SOL     OW 5134   1.605   2.140   5.706 -0.0303  0.3212  0.1217
 1712SOL    HW1 5135   1.579   2.140   5.614 -1.3281  1.0300  0.4620
 1712SOL    HW2 5136   1.653   2.058   5.717 -1.4560 -0.6996 -0.7636
 1713SOL     OW 5137   0.982   1.516   4.816 -0.5413  0.1807 -0.3283
 1713SOL    HW1 5138   1.001   1.587   4.755 -1.9222  2.0895  1.3565
 1713SOL    HW2 5139   1.062   1.507   4.869 -0.4454  0.6402 -0.3936
 1714SOL     OW 5140   3.981   2.007   5.485 -0.2974  0.2990 -0.4235
 1714SOL    HW1 5141   4.029   2.019   5.567 -1.0162  3.1208 -0.3193
 1714SOL    HW2 5142   3.896   1.971   5.512 -0.8930  2.1003  0.2584
 1715SOL     OW 5143   0.251   2.056   6.410 -0.3009  0.1580  0.1002
 1715SOL    HW1 5144   0.333   2.075   6.456  0.1920  0.1218 -0.7487
 1715SOL    HW2 5145   0.249   2.117   6.336 -1.5402  0.8486  0.6754
 1716SOL     OW 5146   4.287   0.683   6.611  0.7218 -0.1629  0.3876
 1716SOL    HW1 5147   4.266   0.720   6.526 -2.3181 -2.1635  0.1078
 1716SOL    HW2 5148   4.233   0.731   6.673 -1.5127 -2.3878  0.3125
 1717SOL     OW 5149   1.767   0.645   5.278  0.5144 -0.4526 -0.6532
 1717SOL    HW1 5150   1.739   0.618   5.190  2.4354 -0.1712 -1.3803
 1717SOL    HW2 5151   1.857   0.674   5.267  0.6905 -0.1151  1.3738
 1718SOL     OW 5152   3.584   3.704   5.551  0.0519 -0.5805  0.4307
 1718SOL    HW1 5153   3.677   3.725   5.544 -0.2362  1.2489  1.4001
 1718SOL    HW2 5154   3.581   3.630   5.612  0.9025 -1.1093 -0.1523
 1719SOL     OW 5155   1.501   2.366   5.109  0.2459 -0.7132  0.0396
 1719SOL    HW1 5156   1.458   2.374   5.024 -1.0510 -1.4648  0.5933
 1719SOL    HW2 5157   1.476   2.445   5.157  0.7757 -0.4073 -0.1800
 1720SOL     OW 5158   0.620   0.224   5.362  0.5759  0.2008 -0.2549
 1720SOL    HW1 5159   0.623   0.130   5.344  2.1945  0.5199 -1.8770
 1720SOL    HW2 5160   0.678   0.235   5.438 -1.6804 -0.3710  1.6971
 1721SOL     OW 5161   2.008   2.315   4.790  0.3384 -0.5182  0.0851
 1721SOL    HW1 5162   2.049   2.371   4.856 -0.8258 -0.1590  0.5164
 1721SOL    HW2 5163   2.065   2.325   4.713  0.7209  0.4520  0.4705
 1722SOL     OW 5164   0.981   3.809   5.095 -0.9552  0.3711  0.0978
 1722SOL    HW1 5165   1.013   3.719   5.101 -1.1066  0.3270  0.2585
 1722SOL    HW2 5166   1.051   3.857   5.051 -1.0574  0.0786 -0.3883
 1723SOL     OW 5167   0.838   2.656   5.792 -0.6241 -0.4227  0.1426
 1723SOL    HW1 5168   0.752   2.682   5.825 -0.9153  0.5621 -1.3400
 1723SOL    HW2 5169   0.868   2.730   5.740 -0.3389 -1.9756 -2.0630
 1724SOL     OW 5170   4.388   4.116   5.698  0.0187 -0.1751 -0.8008
 1724SOL    HW1 5171   4.375   4.064   5.777 -0.3137 -0.0396 -0.7641
 1724SOL    HW2 5172   4.412   4.203   5.729  0.4336 -0.2690 -0.8591
 1725SOL     OW 5173   1.355   2.987   6.552  0.5148 -0.0215  0.3003
 1725SOL    HW1 5174   1.275   2.936   6.538  0.7638 -0.4104  0.2692
 1725SOL    HW2 5175   1.324   3.074   6.577  0.0389  0.3931 -1.5512
 1726SOL     OW 5176   2.842   0.512   7.195  0.6909 -0.2241  0.2271
 1726SOL    HW1 5177   2.858   0.534   7.103  1.4486 -1.5766 -0.0010
 1726SOL    HW2 5178   2.778   0.441   7.191  0.9442 -0.4843  0.7229
 1727SOL     OW 5179   2.407   2.051   6.535 -0.0376  0.3830 -0.7463
 1727SOL    HW1 5180   2.379   2.052   6.627 -0.2188 -1.9969 -0.7211
 1727SOL    HW2 5181   2.329   2.026   6.486  0.7455 -1.3138 -1.1991
 1728SOL     OW 5182   4.084   1.644   6.951 -0.0801 -0.2266  0.4076
 1728SOL    HW1 5183   4.176   1.660   6.971 -0.5433  1.3291  1.4769
 1728SOL    HW2 5184   4.071   1.551   6.968  0.7881 -0.0169  2.3896
 1729SOL     OW 5185   3.885   4.368   5.054 -1.0703  0.1171 -0.1950
 1729SOL    HW1 5186   3.898   4.316   5.133  0.2751  0.5723 -0.0781
 1729SOL    HW2 5187   3.791   4.363   5.036 -1.1735 -1.1979  0.5836
 1730SOL     OW 5188   4.370   1.784   5.693 -0.2972 -0.6911 -0.1787
 1730SOL    HW1 5189   4.416   1.859   5.729 -2.8405  0.6237  0.5654
 1730SOL    HW2 5190   4.350   1.729   5.768  1.0666 -1.9264 -0.6542
 1731SOL     OW 5191   2.067   3.306   6.159  0.6591  0.0207  0.4988
 1731SOL    HW1 5192   2.080   3.313   6.253 -0.3765  0.6122  0.6120
 1731SOL    HW2 5193   2.006   3.234   6.149  1.5455 -0.7087  0.1939
 1732SOL     OW 5194   3.028   1.551   5.156 -0.0396  0.1014 -0.1926
 1732SOL    HW1 5195   3.119   1.527   5.174 -0.3011 -0.9305 -0.1878
 1732SOL    HW2 5196   3.010   1.623   5.216  1.2425  1.3938 -1.2638
 1733SOL     OW 5197   1.508   2.188   5.445 -0.2707 -0.2494 -0.2871
 1733SOL    HW1 5198   1.429   2.136   5.461 -0.2481 -0.1589  0.1418
 1733SOL    HW2 5199   1.476   2.271   5.411 -0.4327  0.1713  0.8497
 1734SOL     OW 5200   0.957   0.511   6.989 -0.3720  0.0649 -0.0880
 1734SOL    HW1 5201   0.943   0.418   7.003  1.4772 -0.0479  1.4047
 1734SOL    HW2 5202   1.023   0.536   7.054 -0.5661  2.3473 -0.6653
 1735SOL     OW 5203   4.323   1.306   7.136  0.0936  0.4301  0.8821
 1735SOL    HW1 5204   4.342   1.282   7.226  0.9690 -0.1762  0.5440
 1735SOL    HW2 5205   4.408   1.322   7.096 -0.3267  1.5723  0.3919
 1736SOL     OW 5206   0.149   0.397   6.176  0.2944  0.3435 -0.1232
 1736SOL    HW1 5207   0.148   0.357   6.089  1.2659  2.9828 -1.4591
 1736SOL    HW2 5208   0.085   0.469   6.170  0.5405  0.7183  1.2778
 1737SOL     OW 5209   4.681   0.545   6.714 -0.4132 -0.0564 -0.5207
 1737SOL    HW1 5210   4.727   0.574   6.793  0.3770 -1.3938 -0.4652
 1737SOL    HW2 5211   4.684   0.621   6.656 -0.1425  0.6218  0.3518
 1738SOL     OW 5212   2.264   3.874   6.024  0.1389 -0.1887 -0.3223
 1738SOL    HW1 5213   2.329   3.807   6.000 -1.3631 -0.5797 -3.8512
 1738SOL    HW2 5214   2.283   3.948   5.966 -1.1891  0.5696  0.1657
 1739SOL     OW 5215   1.121   0.032   7.888 -0.5373  0.6993 -0.2006
 1739SOL    HW1 5216   1.070  -0.037   7.846 -1.7269  0.8699  0.8745
 1739SOL    HW2 5217   1.204   0.033   7.842 -0.6426 -1.1818 -0.4855
 1740SOL     OW 5218   1.859   4.284   5.718 -0.4435 -0.0321 -0.2653
 1740SOL    HW1 5219   1.772   4.246   5.725 -0.3937 -0.2763 -0.9148
 1740SOL    HW2 5220   1.853   4.348   5.647 -1.0032  2.5837  1.9841
 1741SOL     OW 5221   1.624   0.314   5.950 -0.3796  0.3364  0.2249
 1741SOL    HW1 5222   1.590   0.342   5.865  1.0672  2.5040  0.2781
 1741SOL    HW2 5223   1.590   0.378   6.012 -0.6332 -0.6659  1.1504
 1742SOL     OW 5224   0.404   1.023   8.480 -0.0341 -0.6888 -0.7083
 1742SOL    HW1 5225   0.410   0.928   8.488 -1.0983 -1.0950 -3.6607
 1742SOL    HW2 5226   0.391   1.039   8.387 -0.8356  2.3263 -0.1908
 1743SOL     OW 5227   3.824   0.701   6.121 -0.5160 -0.1129 -0.3916
 1743SOL    HW1 5228   3.895   0.752   6.084 -1.0133  0.0228 -1.1850
 1743SOL    HW2 5229   3.866   0.645   6.187  0.1555  0.6862 -0.1316
 1744SOL     OW 5230   4.543   3.183   9.234  0.6445 -0.0647  0.2102
 1744SOL    HW1 5231   4.480   3.134   9.182  0.3665 -0.1199  0.5944
 1744SOL    HW2 5232   4.494   3.210   9.312  1.3360 -0.8906  0.9500
 1745SOL     OW 5233   4.844   0.651   6.892 -0.3779  0.1520  0.2174
 1745SOL    HW1 5234   4.928   0.676   6.853 -1.5054  1.0037 -1.8104
 1745SOL    HW2 5235   4.828   0.717   6.959 -0.3523  1.1774 -0.7674
 1746SOL     OW 5236   4.682   2.166   7.006  0.1501  0.1330 -0.0386
 1746SOL    HW1 5237   4.611   2.144   7.066  0.8578 -3.3004 -0.2537
 1746SOL    HW2 5238   4.640   2.219   6.938 -2.0741 -1.1596  0.2396
 1747SOL     OW 5239   2.515   1.341   6.791  0.1122  0.2606 -0.2395
 1747SOL    HW1 5240   2.493   1.285   6.716 -0.8706  0.5846 -0.2107
 1747SOL    HW2 5241   2.476   1.425   6.769  0.7070  0.6503  0.1822
 1748SOL     OW 5242   2.504   0.376   5.864 -0.8640 -0.5011  0.3114
 1748SOL    HW1 5243   2.446   0.313   5.906 -1.2977  0.0169  0.4976
 1748SOL    HW2 5244   2.453   0.409   5.790 -2.5575  3.0557  2.8050
 1749SOL     OW 5245   3.639   0.330   9.911  0.1146  0.1340 -0.6416
 1749SOL    HW1 5246   3.582   0.347   9.986  0.5963 -0.8391 -0.0353
 1749SOL    HW2 5247   3.683   0.414   9.895  0.1979  0.2950  0.3358
 1750SOL     OW 5248   3.431   4.441   6.654  0.4747 -0.0768 -0.4476
 1750SOL    HW1 5249   3.523   4.464   6.673  1.1914 -2.2361 -1.1086
 1750SOL    HW2 5250   3.400   4.401   6.735 -0.5826  2.3598  0.4743
 1751SOL     OW 5251   1.993   1.123   9.166  0.2923 -0.3160 -0.2127
 1751SOL    HW1 5252   2.030   1.041   9.200 -1.4445 -0.7392  0.7815
 1751SOL    HW2 5253   1.942   1.158   9.239  0.5818  1.4105 -0.7963
 1752SOL     OW 5254   1.598   4.582   7.593  0.0427  0.0802 -0.0200
 1752SOL    HW1 5255   1.691   4.602   7.599 -0.3800  2.7701 -0.8097
 1752SOL    HW2 5256   1.582   4.566   7.500 -0.2140 -0.8339  0.1757
 1753SOL     OW 5257   1.636   0.829   6.697 -0.1362 -0.0799  0.0709
 1753SOL    HW1 5258   1.712   0.836   6.754  0.5704  0.6615 -0.9119
 1753SOL    HW2 5259   1.666   0.776   6.623  0.3683  2.5014 -1.6982
 1754SOL     OW 5260   1.321   4.486   8.422 -0.4488 -0.1606 -0.0697
 1754SOL    HW1 5261   1.410   4.471   8.391 -1.1617 -0.2383 -2.2845
 1754SOL    HW2 5262   1.330   4.547   8.495  1.3938 -0.1133 -0.3018
 1755SOL     OW 5263   4.292   4.250   9.585  0.5164 -0.1784  0.4563
 1755SOL    HW1 5264   4.339   4.200   9.652 -0.1267  1.3111  2.1337
 1755SOL    HW2 5265   4.347   4.327   9.571 -0.1638  0.3449  0.5679
 1756SOL     OW 5266   3.747   1.345   4.904  1.3264 -0.4503 -0.9970
 1756SOL    HW1 5267   3.716   1.321   4.991  1.2035 -0.8245 -1.1373
 1756SOL    HW2 5268   3.821   1.403   4.919  1.2279 -0.4152 -0.6445
 1757SOL     OW 5269   3.299   0.367   8.903 -0.8254 -0.3882  0.1752
 1757SOL    HW1 5270   3.237   0.435   8.930  1.4485  1.0098  2.2920
 1757SOL    HW2 5271   3.361   0.411   8.845 -1.0225 -1.4603 -0.9123
 1758SOL     OW 5272   2.003   0.969   7.488  0.1284 -0.0226 -0.7635
 1758SOL    HW1 5273   2.030   1.056   7.458  2.4931  0.4028  2.0933
 1758SOL    HW2 5274   1.996   0.918   7.407  1.7362  2.0327 -2.3495
 1759SOL     OW 5275   3.158   2.887   6.407 -0.3278  0.1566 -0.5173
 1759SOL    HW1 5276   3.159   2.972   6.450 -2.3381  0.2585 -0.5832
 1759SOL    HW2 5277   3.186   2.905   6.317  0.2821  0.5637 -0.2443
 1760SOL     OW 5278   1.718   4.519   8.077  0.1434  0.2109 -0.5809
 1760SOL    HW1 5279   1.654   4.581   8.040  1.1330  1.5491 -0.1280
 1760SOL    HW2 5280   1.760   4.480   8.001 -1.2384 -0.7430 -0.8877
 1761SOL     OW 5281   0.886   3.718   6.877 -0.3142  0.0267  0.0379
 1761SOL    HW1 5282   0.816   3.692   6.817 -1.0745  0.7096  0.6114
 1761SOL    HW2 5283   0.956   3.654   6.861 -0.1747  0.6442 -2.1011
 1762SOL     OW 5284   2.141   4.537   6.221 -0.2451  0.1979 -0.6317
 1762SOL    HW1 5285   2.075   4.474   6.249 -1.4498  1.1751 -1.1324
 1762SOL    HW2 5286   2.203   4.541   6.293 -0.2874 -1.3349 -0.4860
 1763SOL     OW 5287   3.750   1.346   5.481  0.2181 -0.2374 -0.0852
 1763SOL    HW1 5288   3.744   1.440   5.469 -0.2999 -0.2148  0.3304
 1763SOL    HW2 5289   3.747   1.333   5.576  2.7187 -0.5123  0.0237
 1764SOL     OW 5290   1.576   3.603   8.554 -0.3605 -0.5060  0.5524
 1764SOL    HW1 5291   1.538   3.542   8.618  1.2952 -0.5202  1.5939
 1764SOL    HW2 5292   1.557   3.564   8.469 -0.4623 -1.8202  1.1511
 1765SOL     OW 5293   2.858   1.106   7.582 -1.2668 -0.2905 -0.2777
 1765SOL    HW1 5294   2.800   1.081   7.510  0.1324  0.7227 -1.8248
 1765SOL    HW2 5295   2.945   1.115   7.542  0.5834 -3.9249  2.3226
 1766SOL     OW 5296   2.489   4.286   6.023  0.4798 -0.0773  0.4150
 1766SOL    HW1 5297   2.400   4.318   6.037  0.5464 -0.2399  1.2342
 1766SOL    HW2 5298   2.479   4.191   6.011  0.3356  0.1463 -1.5201
 1767SOL     OW 5299   3.219   3.416   7.634 -0.1630  0.3691 -0.0346
 1767SOL    HW1 5300   3.283   3.455   7.694 -0.4373  0.8789 -0.0706
 1767SOL    HW2 5301   3.231   3.322   7.645 -1.0716  0.4129  1.7944
 1768SOL     OW 5302   1.746   4.835  10.321  0.6656 -0.3879 -0.5666
 1768SOL    HW1 5303   1.664   4.859  10.364  0.4718 -2.0954  0.0930
 1768SOL    HW2 5304   1.807   4.906  10.343 -0.7102  1.1413 -1.4410
 1769SOL     OW 5305   0.244   0.069   6.130 -0.1572 -0.2591  0.9789
 1769SOL    HW1 5306   0.208  -0.011   6.169 -0.5003 -0.4705  0.2453
 1769SOL    HW2 5307   0.245   0.052   6.036  0.8516  0.1629  0.8969
 1770SOL     OW 5308   4.476   1.568   5.283 -0.1549 -0.0397  0.0910
 1770SOL    HW1 5309   4.544   1.597   5.223  1.2481  1.1058  2.1133
 1770SOL    HW2 5310   4.403   1.627   5.267 -0.2622 -0.4909 -1.2405
 1771SOL     OW 5311   1.178   4.612   5.968 -0.0121  0.4098  0.3958
 1771SOL    HW1 5312   1.230   4.687   5.997  0.2939  0.5704 -0.5476
 1771SOL    HW2 5313   1.178   4.618   5.872 -2.0594  0.6099  0.3625
 1772SOL     OW 5314   2.263   2.068   8.942 -0.3840 -0.2632 -0.2684
 1772SOL    HW1 5315   2.235   2.091   8.853 -1.0920 -1.2869 -0.3204
 1772SOL    HW2 5316   2.333   2.003   8.929  0.5565  0.6818 -0.0902
 1773SOL     OW 5317   2.835   1.383   9.995 -0.4390  0.1454  0.4188
 1773SOL    HW1 5318   2.926   1.411  10.005 -1.1010  2.8735 -0.3413
 1773SOL    HW2 5319   2.841   1.288   9.982  2.3756  0.3566 -0.6899
 1774SOL     OW 5320   4.200   1.965   6.829 -0.7119  0.1665  0.9908
 1774SOL    HW1 5321   4.196   1.873   6.855  1.8500  0.2338  1.8854
 1774SOL    HW2 5322   4.199   1.962   6.733  1.0516 -0.9674  0.9621
 1775SOL     OW 5323   3.350   2.334   7.049  0.0380  0.5869  0.4991
 1775SOL    HW1 5324   3.408   2.379   7.111 -1.6311  1.2119  1.6606
 1775SOL    HW2 5325   3.277   2.395   7.036 -1.4725 -1.0722  0.8222
 1776SOL     OW 5326   1.559   1.553   7.932 -0.1781 -0.6945  0.4024
 1776SOL    HW1 5327   1.564   1.515   7.845 -0.2648 -0.1666  0.1638
 1776SOL    HW2 5328   1.469   1.536   7.961 -0.5542  0.3054 -0.1584
 1777SOL     OW 5329   2.598   0.444   9.463 -0.2501  0.3799 -0.1686
 1777SOL    HW1 5330   2.587   0.349   9.452  0.7803  0.3710 -1.4017
 1777SOL    HW2 5331   2.548   0.465   9.541  0.0047 -1.2940  0.4933
 1778SOL     OW 5332   2.932   2.336   6.769 -0.0862 -0.0681 -0.0731
 1778SOL    HW1 5333   2.860   2.325   6.706  1.5455  2.0227 -2.5323
 1778SOL    HW2 5334   2.889   2.340   6.854 -3.0009  1.5285 -1.4436
 1779SOL     OW 5335   2.144   0.438   8.336  0.0227 -0.2417 -0.1627
 1779SOL    HW1 5336   2.074   0.484   8.382 -0.4837 -2.9066  1.9674
 1779SOL    HW2 5337   2.122   0.448   8.243 -1.3410  1.6958  0.3156
 1780SOL     OW 5338   3.615   3.550   9.808  0.3993  1.2599  0.2897
 1780SOL    HW1 5339   3.666   3.471   9.789 -0.6444  0.9627 -1.5545
 1780SOL    HW2 5340   3.675   3.622   9.792  0.9102  0.8687  0.4253
 1781SOL     OW 5341   0.536   2.110  10.296  0.0297 -0.0569 -0.1911
 1781SOL    HW1 5342   0.586   2.190  10.284  0.6620 -0.2825  0.8537
 1781SOL    HW2 5343   0.511   2.110  10.388  0.3063 -1.2007 -0.1002
 1782SOL     OW 5344   2.783   4.044   7.549 -0.3266 -0.1968 -0.1414
 1782SOL    HW1 5345   2.756   4.068   7.460  0.0795 -0.3382 -0.3008
 1782SOL    HW2 5346   2.726   4.097   7.605 -1.0556 -0.5997 -0.4732
 1783SOL     OW 5347   4.657   4.580   5.800 -0.4502 -0.7772  0.3310
 1783SOL    HW1 5348   4.748   4.553   5.805 -0.9103 -2.3587  0.6043
 1783SOL    HW2 5349   4.656   4.670   5.835  1.2286 -0.1022 -1.2339
 1784SOL     OW 5350   4.867   2.481   5.519 -0.1087  0.4719  0.0547
 1784SOL    HW1 5351   4.942   2.489   5.460  1.1591 -0.4583  1.4668
 1784SOL    HW2 5352   4.856   2.387   5.531 -2.1218  0.5417 -0.8227
 1785SOL     OW 5353   2.723   2.192   8.531 -0.7575  0.1232  0.2790
 1785SOL    HW1 5354   2.753   2.235   8.450 -0.3376  0.5974  0.6772
 1785SOL    HW2 5355   2.628   2.186   8.521 -0.6150 -0.7613 -0.7013
 1786SOL     OW 5356   1.317   1.997   5.601 -0.1503 -0.4219 -0.1083
 1786SOL    HW1 5357   1.307   1.964   5.691 -0.6257  1.4327  0.5736
 1786SOL    HW2 5358   1.264   2.077   5.599  1.6308  0.8150 -1.3573
 1787SOL     OW 5359   2.403   0.198   9.157 -0.2155 -0.3255  0.0419
 1787SOL    HW1 5360   2.335   0.201   9.089 -0.1805  3.0432  0.0348
 1787SOL    HW2 5361   2.354   0.205   9.239  0.0092  0.9665  0.0828
 1788SOL     OW 5362   4.035   1.408   7.863  0.0659 -0.3559 -0.0575
 1788SOL    HW1 5363   4.075   1.467   7.928  1.6803  0.2184 -1.4997
 1788SOL    HW2 5364   4.099   1.404   7.792 -0.6643 -2.7050 -0.6694
 1789SOL     OW 5365   3.541   3.068   6.802 -0.1434  0.6784 -0.2155
 1789SOL    HW1 5366   3.529   3.153   6.759 -1.4486  0.0820 -1.0992
 1789SOL    HW2 5367   3.455   3.047   6.839  0.2101 -0.1781  0.1397
 1790SOL     OW 5368   3.704   3.002   7.683  0.0953 -0.0158 -0.0176
 1790SOL    HW1 5369   3.651   2.966   7.755  0.0061 -3.2970 -1.5349
 1790SOL    HW2 5370   3.640   3.030   7.618  0.0753 -2.3823 -1.1215
 1791SOL     OW 5371   2.892   0.121   6.429 -0.1436 -0.5290 -0.1667
 1791SOL    HW1 5372   2.975   0.166   6.413 -0.7474  1.5059  1.8336
 1791SOL    HW2 5373   2.878   0.067   6.352  2.2597  0.2810 -1.2542
 1792SOL     OW 5374   0.334   1.277   7.444  0.1915 -0.1436 -0.4425
 1792SOL    HW1 5375   0.298   1.189   7.446  1.2494 -0.6280 -1.7849
 1792SOL    HW2 5376   0.373   1.289   7.531  1.2706 -1.5301 -0.7086
 1793SOL     OW 5377   4.933   2.013   8.353 -0.4574  0.3813 -0.1189
 1793SOL    HW1 5378   5.011   2.057   8.388 -0.1926 -1.0584  1.2158
 1793SOL    HW2 5379   4.969   1.944   8.297 -0.8357  0.8515 -0.9571
 1794SOL     OW 5380   1.798   0.095   7.656  0.0882 -0.0108  0.0594
 1794SOL    HW1 5381   1.854   0.021   7.682  3.4809  2.7777  1.4691
 1794SOL    HW2 5382   1.843   0.134   7.582 -1.3915  0.9504 -0.3724
 1795SOL     OW 5383   3.510   1.579   7.106 -0.4529 -0.3852 -0.3139
 1795SOL    HW1 5384   3.451   1.566   7.032 -0.0224 -1.5632 -0.4670
 1795SOL    HW2 5385   3.451   1.602   7.179 -1.2750 -2.5882 -0.1948
 1796SOL     OW 5386   3.837   4.717   6.207 -0.2689  0.2131  0.3437
 1796SOL    HW1 5387   3.863   4.627   6.186 -0.9557  0.3677 -1.3675
 1796SOL    HW2 5388   3.904   4.748   6.269  0.8871 -0.9454 -0.2775
 1797SOL     OW 5389   2.725   2.379   6.606 -0.1795  0.4597  0.0373
 1797SOL    HW1 5390   2.651   2.395   6.665 -2.4876 -1.9890 -1.9240
 1797SOL    HW2 5391   2.685   2.358   6.522  2.8896  1.3749 -1.8449
 1798SOL     OW 5392   1.206   1.371   7.803  0.4854  0.2023 -0.1654
 1798SOL    HW1 5393   1.241   1.361   7.715  1.3872 -1.6396  0.3561
 1798SOL    HW2 5394   1.192   1.282   7.834 -2.0130  0.8271  0.7385
 1799SOL     OW 5395   0.596   0.617   5.772  0.0975  0.3722  0.1450
 1799SOL    HW1 5396   0.633   0.692   5.818 -0.1617  0.8173 -0.3628
 1799SOL    HW2 5397   0.547   0.655   5.699 -0.4434 -0.2611  0.1683
 1800SOL     OW 5398   3.900   0.584   8.874  0.2222 -0.2708 -0.3385
 1800SOL    HW1 5399   3.906   0.505   8.928 -1.8685 -0.2958 -0.0619
 1800SOL    HW2 5400   3.847   0.644   8.926 -0.1062  0.4749 -1.4966
 1801SOL     OW 5401   4.108   0.262   8.357  0.5482 -0.0136  0.1227
 1801SOL    HW1 5402   4.098   0.242   8.264  1.1264  1.8041 -0.3671
 1801SOL    HW2 5403   4.084   0.181   8.402  1.5568 -1.3629 -1.6584
 1802SOL     OW 5404   4.840   0.394   9.690  0.3256 -0.1797 -0.4146
 1802SOL    HW1 5405   4.853   0.487   9.709 -1.7956  0.6824 -2.6370
 1802SOL    HW2 5406   4.910   0.372   9.629  0.4343  0.1403 -0.4108
 1803SOL     OW 5407   2.942   0.161   6.960 -0.7195 -0.0400  0.1759
 1803SOL    HW1 5408   2.998   0.084   6.973 -1.0575 -0.3273 -0.0770
 1803SOL    HW2 5409   2.858   0.136   6.999 -0.2514  0.9413  1.9488
 1804SOL     OW 5410   4.850   0.846   5.552 -0.5000 -0.1543  0.2641
 1804SOL    HW1 5411   4.807   0.773   5.509 -0.0959 -0.3909  0.2595
 1804SOL    HW2 5412   4.779   0.908   5.570 -0.5602  0.4021 -1.6239
 1805SOL     OW 5413   2.450   1.043   9.762  0.1904  0.3199  0.0365
 1805SOL    HW1 5414   2.438   1.075   9.851 -0.2135 -1.4577  0.6708
 1805SOL    HW2 5415   2.375   1.078   9.713 -0.3699  0.1361  0.7559
 1806SOL     OW 5416   1.143   4.031   8.331  0.1913  0.8077  1.0561
 1806SOL    HW1 5417   1.174   4.001   8.416  0.1670  0.5746  0.9823
 1806SOL    HW2 5418   1.220   4.024   8.274  0.6300  2.3852  1.4068
 1807SOL     OW 5419   4.478   0.199   8.596  0.1029 -0.4240  0.3966
 1807SOL    HW1 5420   4.408   0.166   8.653 -1.1396 -0.9890 -1.3350
 1807SOL    HW2 5421   4.529   0.121   8.573  0.5744 -0.2062  0.6895
 1808SOL     OW 5422   1.468   1.260   9.093 -0.4792  0.1688 -0.3084
 1808SOL    HW1 5423   1.433   1.340   9.133  0.5807 -0.6052  2.3649
 1808SOL    HW2 5424   1.390   1.211   9.066 -1.3411  0.3459  1.6835
 1809SOL     OW 5425   2.567   0.104   8.441  0.0837 -0.3270  0.2241
 1809SOL    HW1 5426   2.540   0.052   8.516 -0.8406  0.7156  0.6440
 1809SOL    HW2 5427   2.603   0.185   8.479 -0.1105  0.0821 -0.4470
 1810SOL     OW 5428   3.268   1.772   7.520 -0.5147  0.3263 -0.3648
 1810SOL    HW1 5429   3.174   1.782   7.531 -0.8796 -2.4116 -0.2074
 1810SOL    HW2 5430   3.304   1.788   7.608 -0.8605  1.0425 -0.3500
 1811SOL     OW 5431   3.998   0.329  10.208 -0.1441 -0.0789  0.0758
 1811SOL    HW1 5432   4.067   0.386  10.242 -0.2851  0.5829 -0.7072
 1811SOL    HW2 5433   4.033   0.296  10.126  0.0087 -1.3003  0.6111
 1812SOL     OW 5434   2.205   4.727   9.480  0.4313 -0.7066 -0.9415
 1812SOL    HW1 5435   2.278   4.718   9.541 -0.3812 -0.4953  0.0984
 1812SOL    HW2 5436   2.131   4.755   9.535 -0.6898 -1.9012 -1.7863
 1813SOL     OW 5437   1.069   3.899   6.218 -0.5640  0.0589 -0.5728
 1813SOL    HW1 5438   1.128   3.860   6.154  1.4917  2.3406 -0.2102
 1813SOL    HW2 5439   1.007   3.829   6.239  1.3186 -2.1268 -1.8063
 1814SOL     OW 5440   1.220   1.521   7.003 -0.0597  0.2021 -0.2483
 1814SOL    HW1 5441   1.284   1.577   7.048 -0.2637 -1.0726  1.7256
 1814SOL    HW2 5442   1.193   1.457   7.069 -1.4367 -0.9089 -1.8115
 1815SOL     OW 5443   0.399   0.353   5.371  0.1325  0.1675 -0.1526
 1815SOL    HW1 5444   0.413   0.411   5.295 -0.3007 -0.2401 -0.5505
 1815SOL    HW2 5445   0.482   0.307   5.381  1.1319  2.1472  1.3089
 1816SOL     OW 5446   4.560   0.113   8.141  0.6570 -0.5668  0.0940
 1816SOL    HW1 5447   4.632   0.158   8.184  1.0374 -1.6988  0.6941
 1816SOL    HW2 5448   4.482   0.143   8.187  0.9929 -1.2280  1.1368
 1817SOL     OW 5449   0.606   1.673   8.602 -0.2599 -0.3848  0.1011
 1817SOL    HW1 5450   0.675   1.715   8.653  0.5464 -0.2821 -1.0171
 1817SOL    HW2 5451   0.550   1.630   8.666 -0.1565  1.0012  1.1607
 1818SOL     OW 5452   2.843   4.453   9.298 -0.2638 -0.0633 -1.4054
 1818SOL    HW1 5453   2.912   4.391   9.276 -0.4295 -1.1891  0.9120
 1818SOL    HW2 5454   2.890   4.533   9.323  0.0503  0.0516 -2.3317
 1819SOL     OW 5455   3.728   0.805   7.086 -0.4379 -0.2500 -0.5249
 1819SOL    HW1 5456   3.725   0.834   7.177 -2.0886 -1.0135 -0.3034
 1819SOL    HW2 5457   3.695   0.880   7.036 -0.9903 -0.3533 -0.3267
 1820SOL     OW 5458   2.255   0.052   8.537 -0.2139 -0.1569 -0.0507
 1820SOL    HW1 5459   2.315   0.124   8.553  0.1327 -0.5027  0.2030
 1820SOL    HW2 5460   2.215   0.035   8.622 -0.8221  0.2003 -0.2554
 1821SOL     OW 5461   2.500   0.753   9.485 -0.1865 -0.6128 -0.1706
 1821SOL    HW1 5462   2.452   0.675   9.458 -0.2471 -1.5563  2.4456
 1821SOL    HW2 5463   2.580   0.752   9.433 -1.0928 -1.2590 -1.6242
 1822SOL     OW 5464   3.028   0.516   7.523 -0.5477  0.9134 -0.0327
 1822SOL    HW1 5465   3.057   0.510   7.432 -0.0973  1.8360  0.0339
 1822SOL    HW2 5466   3.076   0.448   7.569 -0.5397  0.6501 -0.4228
 1823SOL     OW 5467   0.934   0.490   6.434  0.6755 -0.7649  0.1739
 1823SOL    HW1 5468   0.964   0.484   6.524 -1.2005  1.9052  1.1086
 1823SOL    HW2 5469   0.874   0.565   6.433  0.9660 -0.3722 -3.3906
 1824SOL     OW 5470   2.109   0.326   8.582 -0.7871 -0.5308 -0.0105
 1824SOL    HW1 5471   2.080   0.234   8.586 -1.4842 -0.3280 -0.1611
 1824SOL    HW2 5472   2.140   0.337   8.492 -0.7652 -0.5976 -0.0112
 1825SOL     OW 5473   3.275   4.348   9.609 -0.0028  0.3358 -0.8558
 1825SOL    HW1 5474   3.342   4.307   9.665 -1.7070 -1.0133  0.2859
 1825SOL    HW2 5475   3.221   4.398   9.670  0.3046  1.9625 -1.8637
 1826SOL     OW 5476   2.896   1.543   9.493  0.1874  0.5160  0.0530
 1826SOL    HW1 5477   2.814   1.587   9.513 -0.0860 -0.0205  0.1199
 1826SOL    HW2 5478   2.926   1.583   9.411 -1.5353 -1.1719 -1.4890
 1827SOL     OW 5479   0.065   4.965   6.653 -0.0777  0.6534  0.3546
 1827SOL    HW1 5480   0.096   4.957   6.743  3.0367 -2.5482 -0.7936
 1827SOL    HW2 5481   0.110   5.042   6.618 -1.5643  2.1232  1.4720
 1828SOL     OW 5482   3.576   4.865   5.992 -0.1720  0.6652 -0.4390
 1828SOL    HW1 5483   3.545   4.783   5.954  0.1027  0.4312 -0.1629
 1828SOL    HW2 5484   3.624   4.908   5.921  0.0902  0.3653 -0.4433
 1829SOL     OW 5485   2.756   1.016   8.321 -0.3431  0.3616 -0.1011
 1829SOL    HW1 5486   2.802   1.015   8.237 -0.8927 -1.6463 -0.4484
 1829SOL    HW2 5487   2.816   0.971   8.381 -0.9562 -0.4106 -0.0496
 1830SOL     OW 5488   1.209   0.339   5.978 -0.1014  0.1868  1.1487
 1830SOL    HW1 5489   1.180   0.380   6.060  0.0516  0.5906  0.9991
 1830SOL    HW2 5490   1.259   0.407   5.933 -0.4505  0.0666  0.5719
 1831SOL     OW 5491   1.290   1.516   7.997 -0.7886 -0.2422 -0.4839
 1831SOL    HW1 5492   1.268   1.479   8.083 -1.0192 -0.2023 -0.5237
 1831SOL    HW2 5493   1.266   1.447   7.935 -1.3035  0.0079 -0.5639
 1832SOL     OW 5494   1.776   0.982   9.485  0.0301 -0.1555  0.3242
 1832SOL    HW1 5495   1.861   0.970   9.527  0.7555 -1.7013 -1.5048
 1832SOL    HW2 5496   1.746   0.894   9.465 -1.4394  0.4354 -0.2000
 1833SOL     OW 5497   3.607   0.473   6.181 -0.5460  0.0175 -0.0740
 1833SOL    HW1 5498   3.650   0.396   6.144 -0.7322  0.3810 -1.0642
 1833SOL    HW2 5499   3.564   0.515   6.107 -0.7424  0.8860  0.5162
 1834SOL     OW 5500   4.217   3.410   7.803 -0.2272 -0.2062 -0.3210
 1834SOL    HW1 5501   4.188   3.390   7.892  1.2991 -1.4903 -0.0791
 1834SOL    HW2 5502   4.301   3.366   7.794  0.7943  1.8240 -1.6144
 1835SOL     OW 5503   4.419   4.816   7.982 -0.3754  0.2308 -0.0330
 1835SOL    HW1 5504   4.462   4.762   7.915 -0.8538  2.5249 -2.3533
 1835SOL    HW2 5505   4.465   4.900   7.978 -0.3560  0.4324  2.6880
 1836SOL     OW 5506   0.328   3.525   8.485  0.0069 -1.2263 -0.0495
 1836SOL    HW1 5507   0.298   3.434   8.478  1.3179 -1.5567 -4.0226
 1836SOL    HW2 5508   0.364   3.545   8.398 -0.7940  3.3374  0.4113
 1837SOL     OW 5509   3.778   4.926   7.886  0.1826  0.5173  0.4755
 1837SOL    HW1 5510   3.775   5.017   7.915  0.1509  0.8764 -0.6200
 1837SOL    HW2 5511   3.869   4.913   7.858  0.4539 -0.1056  1.5668
 1838SOL     OW 5512   2.751   1.776   9.165  0.3949  0.0213  0.0276
 1838SOL    HW1 5513   2.720   1.749   9.079  1.1498 -0.9987  0.0646
 1838SOL    HW2 5514   2.683   1.836   9.197 -0.6971 -0.8637 -0.5753
 1839SOL     OW 5515   2.813   4.246   6.891  0.1322  0.0431 -0.4035
 1839SOL    HW1 5516   2.821   4.260   6.797  0.0818 -1.3718 -0.6434
 1839SOL    HW2 5517   2.734   4.194   6.902 -1.0402  1.9262  0.6485
 1840SOL     OW 5518   0.402   4.341   7.413  0.1032  0.8711 -0.1422
 1840SOL    HW1 5519   0.447   4.423   7.394 -0.1629  1.3564  1.2024
 1840SOL    HW2 5520   0.427   4.321   7.504  0.7530 -0.9304 -0.6774
 1841SOL     OW 5521   1.645   0.258  10.086 -0.3270 -0.1615 -0.1278
 1841SOL    HW1 5522   1.652   0.166  10.060  1.7995 -0.1286  0.1296
 1841SOL    HW2 5523   1.590   0.298  10.018 -2.4812 -1.8506  0.5216
 1842SOL     OW 5524   0.924   2.647   9.744  0.1242  0.1598  0.3268
 1842SOL    HW1 5525   0.997   2.641   9.683 -0.2183 -1.0827  0.0066
 1842SOL    HW2 5526   0.856   2.694   9.695  0.1418 -0.0970  0.0562
 1843SOL     OW 5527   1.526   0.695   8.120  0.0909 -0.0504 -0.1016
 1843SOL    HW1 5528   1.557   0.699   8.211 -1.8070 -1.8257  0.6995
 1843SOL    HW2 5529   1.548   0.781   8.084  0.2189  0.9944  2.2716
 1844SOL     OW 5530   3.312   0.968  10.288 -0.9075  0.3119  0.2527
 1844SOL    HW1 5531   3.223   0.936  10.304 -0.7504 -0.1014  0.3225
 1844SOL    HW2 5532   3.303   1.026  10.213 -1.2794  0.4671  0.4135
 1845SOL     OW 5533   4.697   1.663   9.230 -0.1354 -0.4975  0.3004
 1845SOL    HW1 5534   4.695   1.667   9.325 -2.1189 -3.9098  0.5607
 1845SOL    HW2 5535   4.701   1.755   9.202  2.4238  0.5764  3.5689
 1846SOL     OW 5536   4.721   0.518   9.270 -0.4837 -0.3192 -0.0866
 1846SOL    HW1 5537   4.676   0.440   9.303 -0.7475 -0.0963  0.0896
 1846SOL    HW2 5538   4.791   0.484   9.214  1.0076 -0.7581  1.9395
 1847SOL     OW 5539   2.080   0.612   7.181 -0.2731  0.6837 -0.5032
 1847SOL    HW1 5540   2.087   0.572   7.094  1.4141 -0.6620  0.1938
 1847SOL    HW2 5541   2.043   0.543   7.236  0.2859  0.9401  0.2073
 1848SOL     OW 5542   3.563   0.615   7.917  0.1008  0.2685 -0.5345
 1848SOL    HW1 5543   3.579   0.598   7.824 -1.3343  1.8150 -1.1278
 1848SOL    HW2 5544   3.575   0.710   7.926  0.5425  0.0902  0.9401
 1849SOL     OW 5545   0.381   1.007   9.560 -0.5642  0.2897  0.1087
 1849SOL    HW1 5546   0.419   1.075   9.505  0.3085 -0.5182 -0.3162
 1849SOL    HW2 5547   0.392   0.926   9.509  0.0620 -0.4456  1.3617
 1850SOL     OW 5548   1.983   4.480  10.144  0.6382 -0.2345  0.0834
 1850SOL    HW1 5549   2.046   4.429  10.195  2.2110  0.7710 -0.7708
 1850SOL    HW2 5550   1.926   4.414  10.104  2.8362 -1.4441 -1.2903
 1851SOL     OW 5551   3.777   3.278   8.296  0.3091 -0.3807 -0.0141
 1851SOL    HW1 5552   3.816   3.311   8.377 -0.8529 -0.3826  0.5677
 1851SOL    HW2 5553   3.831   3.203   8.273  2.8518  1.6948 -1.2397
 1852SOL     OW 5554   1.479   4.639   9.203 -0.0308  0.1734  0.1518
 1852SOL    HW1 5555   1.521   4.717   9.240  1.0742 -0.9161  1.2839
 1852SOL    HW2 5556   1.552   4.582   9.179 -0.7795 -0.0544 -1.7826
 1853SOL     OW 5557   2.403   1.918   8.751 -0.0386 -0.1725  0.3484
 1853SOL    HW1 5558   2.481   1.892   8.704 -0.7910 -0.5470 -0.7235
 1853SOL    HW2 5559   2.332   1.907   8.688 -1.3073 -2.2020  2.0249
 1854SOL     OW 5560   2.738   4.619   7.822 -0.5288 -0.2268 -0.0751
 1854SOL    HW1 5561   2.696   4.534   7.837 -1.8912  0.6566  1.3778
 1854SOL    HW2 5562   2.761   4.650   7.910  1.2836  0.2859 -0.6894
 1855SOL     OW 5563   4.841   0.877   7.068  0.7728  0.2327 -0.5596
 1855SOL    HW1 5564   4.841   0.937   7.143  2.6698  0.7510 -0.9371
 1855SOL    HW2 5565   4.817   0.932   6.993 -0.6130 -0.1802 -0.4551
 1856SOL     OW 5566   0.846   4.311   8.724  0.5474 -0.4481 -0.5027
 1856SOL    HW1 5567   0.941   4.316   8.737  0.2823 -1.0999  2.0213
 1856SOL    HW2 5568   0.825   4.218   8.732 -0.3260 -0.3254 -1.1847
 1857SOL     OW 5569   1.658   1.311   8.510 -0.1465 -0.7443 -0.3629
 1857SOL    HW1 5570   1.733   1.337   8.457 -0.9229  0.0626 -1.1011
 1857SOL    HW2 5571   1.696   1.261   8.582  1.0669 -0.6130 -0.8845
 1858SOL     OW 5572   0.757   3.250   7.208 -0.0854  0.2567  0.2754
 1858SOL    HW1 5573   0.716   3.192   7.145 -0.7043 -0.6946  1.5200
 1858SOL    HW2 5574   0.851   3.236   7.196 -0.0664  1.7736 -1.9530
 1859SOL     OW 5575   3.010   1.167   7.239  0.5198  1.0487  1.1242
 1859SOL    HW1 5576   3.063   1.245   7.222 -0.5962  1.3271 -1.4188
 1859SOL    HW2 5577   2.924   1.202   7.264 -0.0535  0.6655 -0.2552
 1860SOL     OW 5578   1.636   0.098   8.195 -0.3513  0.2373  0.6383
 1860SOL    HW1 5579   1.692   0.159   8.146 -0.6393 -0.8424 -1.1515
 1860SOL    HW2 5580   1.680   0.087   8.279  2.0145 -0.3336 -0.5850
 1861SOL     OW 5581   4.650   1.014   7.413  0.5930 -0.6505  0.1976
 1861SOL    HW1 5582   4.642   0.940   7.353 -1.2966 -1.2218  1.0878
 1861SOL    HW2 5583   4.616   0.982   7.496  1.8626  0.5518  1.2403
 1862SOL     OW 5584   2.373   1.780   9.156  0.1337 -0.1564 -0.0480
 1862SOL    HW1 5585   2.368   1.684   9.158  0.0980 -0.1397  0.8682
 1862SOL    HW2 5586   2.287   1.809   9.188  0.6471  0.1749  1.0508
 1863SOL     OW 5587   1.705   1.049  10.274 -0.1582  0.7452  0.9176
 1863SOL    HW1 5588   1.685   0.989  10.202 -0.5394 -1.6929  2.8783
 1863SOL    HW2 5589   1.777   1.102  10.241  0.5546 -1.1483 -0.8398
 1864SOL     OW 5590   3.483   2.138   9.312  0.7462 -0.1291  0.8391
 1864SOL    HW1 5591   3.425   2.127   9.388  0.7400 -0.4320  0.7890
 1864SOL    HW2 5592   3.557   2.189   9.346 -0.7266  2.5354  0.3448
 1865SOL     OW 5593   2.455   2.195   8.499 -0.4074  0.9180  0.3651
 1865SOL    HW1 5594   2.427   2.124   8.441  0.3787  1.1913 -0.3643
 1865SOL    HW2 5595   2.383   2.205   8.561 -0.5547 -0.4788  0.4495
 1866SOL     OW 5596   3.531   0.201   5.457  0.2744  0.4912 -0.7115
 1866SOL    HW1 5597   3.448   0.247   5.473 -0.4709 -0.8372 -0.6264
 1866SOL    HW2 5598   3.505   0.111   5.439  1.8433 -0.6555  2.1794
 1867SOL     OW 5599   2.532   3.441   5.887  0.2157  0.1116  0.2838
 1867SOL    HW1 5600   2.487   3.418   5.968  1.7465  1.9238  1.7199
 1867SOL    HW2 5601   2.520   3.535   5.878 -0.1691 -0.0885 -1.7998
 1868SOL     OW 5602   1.390   1.706   9.809  0.5120 -0.5233  0.0515
 1868SOL    HW1 5603   1.433   1.666   9.884  1.5483  1.4068  0.5465
 1868SOL    HW2 5604   1.353   1.632   9.760  2.9483 -2.1224  0.4846
 1869SOL     OW 5605   1.947   0.674   8.703  0.0814  0.8195  0.0268
 1869SOL    HW1 5606   1.930   0.758   8.745 -0.8519  0.4631  0.3813
 1869SOL    HW2 5607   1.898   0.610   8.755 -0.2896  0.2358 -0.9986
 1870SOL     OW 5608   2.291   0.696   7.380 -0.0043 -0.9846 -1.2002
 1870SOL    HW1 5609   2.380   0.666   7.396  0.4006  0.9556  0.7198
 1870SOL    HW2 5610   2.282   0.694   7.285  1.5921 -2.4566 -1.3852
 1871SOL     OW 5611   4.752   0.858   6.638 -0.5576  0.3724 -0.2116
 1871SOL    HW1 5612   4.772   0.882   6.547 -0.4774 -0.1913 -0.3478
 1871SOL    HW2 5613   4.657   0.869   6.645 -0.7758 -0.9336 -0.7890
 1872SOL     OW 5614   2.180   4.256   8.283 -0.3779  0.7090  0.8087
 1872SOL    HW1 5615   2.139   4.213   8.358 -2.5502  2.4329  0.7162
 1872SOL    HW2 5616   2.179   4.349   8.305  1.7044  1.0049 -0.1226
 1873SOL     OW 5617   0.636   1.871   5.072 -0.2375 -0.3374 -0.4843
 1873SOL    HW1 5618   0.656   1.784   5.039  0.1648 -0.6971  0.6833
 1873SOL    HW2 5619   0.541   1.879   5.064 -0.2661 -0.8540 -0.6518
 1874SOL     OW 5620   0.520   3.601   9.668 -0.1771  0.2380  0.1835
 1874SOL    HW1 5621   0.460   3.567   9.601  1.7818 -0.0119 -1.5717
 1874SOL    HW2 5622   0.590   3.644   9.618  1.1346  0.5018  2.1128
 1875SOL     OW 5623   2.027   4.832   5.781  0.5760 -0.0968 -0.1022
 1875SOL    HW1 5624   1.997   4.809   5.693 -0.0718  0.4127 -0.0200
 1875SOL    HW2 5625   1.979   4.912   5.803  0.7165 -0.2286  0.7223
 1876SOL     OW 5626   1.510   4.775   8.215  0.3164 -0.2729  0.4002
 1876SOL    HW1 5627   1.518   4.687   8.253  1.4567 -1.0709 -1.5652
 1876SOL    HW2 5628   1.600   4.809   8.216 -0.0588  0.7313  0.7695
 1877SOL     OW 5629   0.406   1.071   8.787  0.2947  0.1503  0.4303
 1877SOL    HW1 5630   0.389   0.977   8.797  1.7468 -0.0971  0.8995
 1877SOL    HW2 5631   0.354   1.112   8.856 -1.2274 -0.1809 -0.4804
 1878SOL     OW 5632   2.703   1.043   7.894  0.4690  0.4733  0.3092
 1878SOL    HW1 5633   2.767   1.046   7.823 -1.9641 -0.4963 -2.1123
 1878SOL    HW2 5634   2.682   0.950   7.903 -1.8193  0.8923 -0.2054
 1879SOL     OW 5635   1.848   3.000   9.489 -0.0439  0.3352 -0.2471
 1879SOL    HW1 5636   1.874   3.092   9.494 -0.4069  0.4201  0.0749
 1879SOL    HW2 5637   1.878   2.972   9.402  2.1508  0.1048  0.5340
 1880SOL     OW 5638   1.911   4.784   5.464  0.2930 -0.8104  0.8385
 1880SOL    HW1 5639   1.875   4.841   5.396  1.0152 -2.6261 -1.2120
 1880SOL    HW2 5640   1.993   4.826   5.489  0.7028 -0.7559 -0.4751
 1881SOL     OW 5641   3.992   2.348   8.008 -0.1301 -0.6193 -0.2467
 1881SOL    HW1 5642   4.068   2.340   8.066  1.5988 -0.1708 -2.3180
 1881SOL    HW2 5643   4.020   2.412   7.942 -1.0747 -2.7792 -2.8882
 1882SOL     OW 5644   0.339   4.427   6.436 -0.3951 -0.6166 -0.4675
 1882SOL    HW1 5645   0.344   4.512   6.391 -0.9674 -0.5768 -0.4745
 1882SOL    HW2 5646   0.372   4.364   6.373  0.6669 -0.3233 -0.2243
 1883SOL     OW 5647   4.346   4.673   9.235  0.7554 -0.4969 -0.1923
 1883SOL    HW1 5648   4.387   4.700   9.153 -0.2434 -0.6193 -0.7517
 1883SOL    HW2 5649   4.376   4.583   9.248  0.8338 -0.5162 -0.4840
 1884SOL     OW 5650   4.028   4.550   9.499 -0.2315 -0.1105 -0.3550
 1884SOL    HW1 5651   4.065   4.631   9.464  1.1281  0.0562  1.3347
 1884SOL    HW2 5652   3.935   4.568   9.507 -0.2285  0.6321 -1.6927
 1885SOL     OW 5653   4.889   4.421   6.164 -0.2111  0.6317  0.0342
 1885SOL    HW1 5654   4.936   4.453   6.241  2.4135  1.9628 -1.9856
 1885SOL    HW2 5655   4.868   4.500   6.114 -0.1203 -0.3063 -1.5459
 1886SOL     OW 5656   4.543   3.636   5.496 -0.0400 -0.4160 -0.1560
 1886SOL    HW1 5657   4.486   3.691   5.442  0.5398  1.9191  1.4707
 1886SOL    HW2 5658   4.488   3.608   5.569 -0.6369 -3.0262 -1.4821
 1887SOL     OW 5659   1.728   1.707   4.831  0.0875 -0.4631 -0.2497
 1887SOL    HW1 5660   1.745   1.774   4.898 -0.0061 -0.8953  0.2141
 1887SOL    HW2 5661   1.815   1.675   4.806  0.2260  0.7385 -1.4366
 1888SOL     OW 5662   3.309   4.111   7.938  0.5916 -0.0793  0.7915
 1888SOL    HW1 5663   3.294   4.057   8.015  0.2031 -3.5975 -1.5162
 1888SOL    HW2 5664   3.238   4.175   7.938 -1.6750 -2.4362  1.4534
 1889SOL     OW 5665   1.488   2.111   7.537 -0.2091  0.3530 -0.3384
 1889SOL    HW1 5666   1.420   2.059   7.581 -0.0676 -0.2926 -0.8729
 1889SOL    HW2 5667   1.486   2.082   7.446  0.8496  0.2470 -0.3405
 1890SOL     OW 5668   3.613   0.646  10.323  0.0318  0.1144  0.6284
 1890SOL    HW1 5669   3.603   0.639  10.418 -1.4702  1.3638  0.5877
 1890SOL    HW2 5670   3.607   0.740  10.305 -0.9089 -0.1924 -0.8107
 1891SOL     OW 5671   4.895   2.638   5.741 -0.0133  0.0801  0.2675
 1891SOL    HW1 5672   4.876   2.580   5.667 -0.7582 -0.9286  1.2230
 1891SOL    HW2 5673   4.921   2.720   5.700  0.7639 -0.8062 -1.1359
 1892SOL     OW 5674   2.409   2.408   9.279 -0.2470  0.2813 -0.1856
 1892SOL    HW1 5675   2.386   2.501   9.270  1.9671  0.8672 -0.3711
 1892SOL    HW2 5676   2.325   2.364   9.290 -1.3310  2.3689  0.5226
 1893SOL     OW 5677   0.986   3.021   7.750 -0.5043  0.1074  0.1556
 1893SOL    HW1 5678   0.944   3.107   7.757 -1.4157 -0.2148 -1.0660
 1893SOL    HW2 5679   0.920   2.965   7.710  0.7076 -0.6978 -0.8151
 1894SOL     OW 5680   1.207   3.226   5.688 -0.5883 -0.3479  0.2080
 1894SOL    HW1 5681   1.213   3.159   5.620 -0.7373 -0.7328  0.5659
 1894SOL    HW2 5682   1.280   3.285   5.670 -0.0247 -1.0010  0.3039
 1895SOL     OW 5683   1.306   1.591   6.395 -0.3440  0.5517 -0.2173
 1895SOL    HW1 5684   1.258   1.516   6.432 -0.8215  1.3143  0.7746
 1895SOL    HW2 5685   1.237   1.654   6.373  0.0277  0.5642 -1.3983
 1896SOL     OW 5686   3.325   0.881   5.451  0.3796 -0.6211  0.1020
 1896SOL    HW1 5687   3.265   0.809   5.431 -1.7700  1.3089 -0.8603
 1896SOL    HW2 5688   3.294   0.916   5.534  2.1665 -1.5117  1.1802
 1897SOL     OW 5689   3.378   3.940   8.345 -0.2089 -0.5973  0.1873
 1897SOL    HW1 5690   3.396   4.034   8.357 -1.2198 -0.5662  1.7224
 1897SOL    HW2 5691   3.339   3.934   8.258  0.4026  0.3089 -0.1769
 1898SOL     OW 5692   2.079   1.995   8.103  0.3020 -0.0099  0.1370
 1898SOL    HW1 5693   2.016   1.997   8.174  1.5922  0.9666  1.2888
 1898SOL    HW2 5694   2.062   1.912   8.058 -2.2812  0.5773 -0.0880
 1899SOL     OW 5695   0.401   4.467   8.647 -0.1634 -0.2138 -0.3799
 1899SOL    HW1 5696   0.489   4.479   8.685 -0.6740 -0.9806  1.1331
 1899SOL    HW2 5697   0.403   4.379   8.611  0.2045  0.3860 -1.9022
 1900SOL     OW 5698   1.928   0.584   8.441 -0.4329  0.2392  0.7930
 1900SOL    HW1 5699   1.933   0.654   8.377 -0.1590 -0.3014  0.2225
 1900SOL    HW2 5700   1.944   0.627   8.525  0.3867  0.7506  0.3843
 1901SOL     OW 5701   0.275   0.911   6.415  0.1243  0.8249 -0.0668
 1901SOL    HW1 5702   0.278   0.886   6.323  0.2244  2.6788 -0.6202
 1901SOL    HW2 5703   0.359   0.884   6.451  0.6284  1.2749 -0.8790
 1902SOL     OW 5704   4.378   0.191   8.335 -0.3575 -0.1652 -0.2147
 1902SOL    HW1 5705   4.298   0.242   8.324 -1.7827 -2.2768 -0.3682
 1902SOL    HW2 5706   4.421   0.228   8.411 -1.8610  0.5755  0.3080
 1903SOL     OW 5707   4.891   0.879   8.930  0.6277  0.0220 -0.4133
 1903SOL    HW1 5708   4.916   0.934   9.004 -1.3163  0.8093 -0.2786
 1903SOL    HW2 5709   4.837   0.936   8.875  1.7161 -0.6537 -2.2792
 1904SOL     OW 5710   2.753   1.161   6.947 -0.5153  0.0566 -0.1408
 1904SOL    HW1 5711   2.809   1.098   6.992 -1.7265  0.3243  1.8782
 1904SOL    HW2 5712   2.807   1.194   6.876 -0.2622 -4.2541 -2.2926
 1905SOL     OW 5713   3.193   3.949   5.084 -0.8436 -0.3245 -0.1880
 1905SOL    HW1 5714   3.216   3.961   5.176 -2.6631 -2.4613  0.6381
 1905SOL    HW2 5715   3.204   3.856   5.068 -3.8205 -0.6254 -1.1114
 1906SOL     OW 5716   3.738   4.211   9.607 -0.4808 -0.0701 -0.5810
 1906SOL    HW1 5717   3.722   4.135   9.663 -3.8432 -0.2603 -1.5780
 1906SOL    HW2 5718   3.787   4.175   9.532 -1.4614 -1.1641 -0.7352
 1907SOL     OW 5719   1.092   1.740   9.234 -0.1691  0.1932 -0.3463
 1907SOL    HW1 5720   1.093   1.791   9.153  1.3255 -0.3274 -0.6922
 1907SOL    HW2 5721   1.134   1.798   9.298  0.5501 -0.1710 -0.4754
 1908SOL     OW 5722   0.963   3.413   5.016  0.0435 -0.0264  0.5896
 1908SOL    HW1 5723   1.040   3.470   5.008  1.9223 -2.2870  1.4926
 1908SOL    HW2 5724   0.988   3.332   4.972 -1.5247 -1.1100  1.5739
 1909SOL     OW 5725   3.588   4.461   9.930  0.2696  0.3662 -0.1745
 1909SOL    HW1 5726   3.558   4.525   9.866  0.3552  0.9372  0.3473
 1909SOL    HW2 5727   3.518   4.457   9.995 -0.0012 -0.5175 -0.5122
 1910SOL     OW 5728   3.818   0.552   9.854 -0.1293 -0.0467 -0.5429
 1910SOL    HW1 5729   3.869   0.627   9.824  1.5328 -0.8469  0.1459
 1910SOL    HW2 5730   3.801   0.569   9.946 -3.8880  1.6642 -1.3545
 1911SOL     OW 5731   2.487   2.168   7.410 -0.5353 -0.3478 -0.2092
 1911SOL    HW1 5732   2.543   2.241   7.384 -2.0827  0.7686 -0.5591
 1911SOL    HW2 5733   2.408   2.178   7.356 -2.9983  0.8105  3.2819
 1912SOL     OW 5734   1.834   1.387   6.471 -0.3914 -0.1674  0.0688
 1912SOL    HW1 5735   1.869   1.302   6.444  1.5646  0.4959  0.3655
 1912SOL    HW2 5736   1.751   1.395   6.424 -0.4385 -2.0701 -0.2359
 1913SOL     OW 5737   2.154   3.179   9.131 -0.0722 -0.5401 -0.0245
 1913SOL    HW1 5738   2.244   3.171   9.099  0.0266 -0.4217  0.2254
 1913SOL    HW2 5739   2.100   3.158   9.054  0.1671 -0.6548 -0.1634
 1914SOL     OW 5740   3.119   0.722   8.822  0.0306 -0.1795 -0.6559
 1914SOL    HW1 5741   3.027   0.719   8.849 -0.2951 -0.2657 -1.7366
 1914SOL    HW2 5742   3.168   0.705   8.903 -0.8377  1.5106  0.2775
 1915SOL     OW 5743   2.488   0.841   8.640 -0.5955 -0.3676  0.1633
 1915SOL    HW1 5744   2.521   0.792   8.564 -0.5011  0.7334 -0.5360
 1915SOL    HW2 5745   2.396   0.858   8.619  0.0472  2.2411 -1.0359
 1916SOL     OW 5746   3.082   4.864   9.941  0.1892 -0.8229  0.1258
 1916SOL    HW1 5747   3.120   4.811  10.011 -1.1124 -1.0644  0.6826
 1916SOL    HW2 5748   3.155   4.883   9.883  0.8631 -2.5495  0.3374
 1917SOL     OW 5749   4.616   0.103   6.241 -0.0166  0.2037 -0.9097
 1917SOL    HW1 5750   4.526   0.128   6.221 -0.3893 -0.6220 -0.3161
 1917SOL    HW2 5751   4.630   0.131   6.331  0.2422  0.1177 -0.9228
 1918SOL     OW 5752   1.779   2.373   5.106 -1.0036  0.3280  0.1422
 1918SOL    HW1 5753   1.778   2.278   5.120 -0.4336  0.3235  0.2082
 1918SOL    HW2 5754   1.694   2.403   5.137 -0.7586 -0.0208  1.1878
 1919SOL     OW 5755   1.225   4.777  10.215  0.0950 -0.3717 -0.1072
 1919SOL    HW1 5756   1.291   4.707  10.222 -1.7702 -2.2319 -0.2579
 1919SOL    HW2 5757   1.164   4.760  10.287  1.6073  3.5297  2.4481
 1920SOL     OW 5758   1.839   1.797   5.909 -0.3279  0.0282 -0.3238
 1920SOL    HW1 5759   1.745   1.780   5.907 -0.2065 -1.2677  1.7261
 1920SOL    HW2 5760   1.879   1.711   5.896  0.5362  0.3464  0.1396
 1921SOL     OW 5761   2.801   3.057   7.886 -0.0211  0.7383  0.4081
 1921SOL    HW1 5762   2.886   3.065   7.928  0.6556 -0.7477 -0.6162
 1921SOL    HW2 5763   2.789   3.140   7.839  1.2368  0.6463 -0.0993
 1922SOL     OW 5764   1.609   2.992   9.274  0.7625  0.9396 -0.2615
 1922SOL    HW1 5765   1.591   2.988   9.180 -1.7858  1.9009  0.0980
 1922SOL    HW2 5766   1.702   3.014   9.280  1.4989 -1.1220 -2.4872
 1923SOL     OW 5767   1.403   2.854   7.366 -0.0935  0.1569 -0.1499
 1923SOL    HW1 5768   1.403   2.801   7.446  1.9455  0.8365  0.3568
 1923SOL    HW2 5769   1.414   2.790   7.295 -0.0502 -0.2957  0.2588
 1924SOL     OW 5770   2.462   2.320   7.667  0.2697  0.6604 -0.3557
 1924SOL    HW1 5771   2.491   2.251   7.607 -0.3476  1.0639 -1.1334
 1924SOL    HW2 5772   2.398   2.370   7.616 -0.8107  0.5794  0.8874
 1925SOL     OW 5773   1.210   2.630   6.011 -0.0217  0.1244  0.3775
 1925SOL    HW1 5774   1.240   2.720   5.997 -0.8169  0.2561 -0.5990
 1925SOL    HW2 5775   1.247   2.605   6.095  0.1469  1.3999  0.7008
 1926SOL     OW 5776   1.422   2.299   7.240 -0.5696 -0.0503 -0.1180
 1926SOL    HW1 5777   1.418   2.206   7.260  0.7251 -0.4651 -1.5512
 1926SOL    HW2 5778   1.514   2.323   7.254 -0.4564  0.5183 -1.5675
 1927SOL     OW 5779   0.654   4.192   9.095  0.0632 -0.2254  0.8232
 1927SOL    HW1 5780   0.589   4.199   9.025  0.8200 -0.3729  0.0847
 1927SOL    HW2 5781   0.706   4.272   9.088 -1.8181  1.3513  3.3188
 1928SOL     OW 5782   2.243   1.425   7.620  0.1942 -0.5309 -0.0286
 1928SOL    HW1 5783   2.319   1.407   7.675 -0.3675  1.1164  1.3553
 1928SOL    HW2 5784   2.168   1.406   7.675 -0.3870  1.0074 -0.2467
 1929SOL     OW 5785   2.380   1.150   7.023  0.0264 -0.5682 -0.2071
 1929SOL    HW1 5786   2.417   1.237   7.006 -0.5764 -0.4471 -0.9420
 1929SOL    HW2 5787   2.301   1.166   7.074 -1.3721 -0.4700 -2.2886
 1930SOL     OW 5788   2.769   4.325   7.640  0.5413 -0.4710  0.4086
 1930SOL    HW1 5789   2.853   4.307   7.681  1.4161 -0.0314 -1.1196
 1930SOL    HW2 5790   2.790   4.341   7.548 -1.1163  0.4481  0.1513
 1931SOL     OW 5791   3.915   0.545   6.325 -0.5016 -0.1664 -0.4195
 1931SOL    HW1 5792   3.935   0.459   6.288 -0.9087  0.1740 -1.4659
 1931SOL    HW2 5793   3.848   0.528   6.390 -0.4744 -0.6598 -0.5164
 1932SOL     OW 5794   2.331   1.733   7.181  0.0431 -0.0273 -0.5341
 1932SOL    HW1 5795   2.255   1.699   7.134 -0.6014 -1.4435  1.4358
 1932SOL    HW2 5796   2.312   1.717   7.273  1.5231  2.1177  0.2196
 1933SOL     OW 5797   4.854   4.753   7.942 -0.6127  0.0353 -0.0788
 1933SOL    HW1 5798   4.898   4.813   8.002 -1.2972 -0.4750  0.9772
 1933SOL    HW2 5799   4.852   4.670   7.990  1.3408 -1.1959 -1.9480
 1934SOL     OW 5800   0.958   0.637   7.390 -0.3061 -0.1945  0.2201
 1934SOL    HW1 5801   0.981   0.546   7.412  0.8822 -0.7723 -2.9548
 1934SOL    HW2 5802   0.898   0.629   7.316 -2.5863  1.6321  1.7242
 1935SOL     OW 5803   0.237   1.145   5.479 -0.3337  0.3435  0.5840
 1935SOL    HW1 5804   0.331   1.130   5.466 -0.3295 -0.8186  1.7351
 1935SOL    HW2 5805   0.229   1.239   5.494  0.5668  0.5451 -0.1258
 1936SOL     OW 5806   4.040   2.043   7.417  0.6575  0.5918 -0.3833
 1936SOL    HW1 5807   4.051   1.979   7.346 -0.2637 -0.6478  0.5273
 1936SOL    HW2 5808   3.951   2.077   7.404  0.4696  0.3309  0.1636
 1937SOL     OW 5809   3.028   1.877   7.583 -0.2831 -0.5058 -0.0363
 1937SOL    HW1 5810   2.984   1.939   7.641  1.0498  1.3251 -0.8706
 1937SOL    HW2 5811   2.958   1.843   7.527 -0.8139  1.9094 -0.9861
 1938SOL     OW 5812   1.235   1.406   7.502 -0.5084 -0.3076  0.6744
 1938SOL    HW1 5813   1.215   1.349   7.428 -5.3394 -0.1537  1.4776
 1938SOL    HW2 5814   1.245   1.493   7.465 -2.0794 -0.3665  0.0216
 1939SOL     OW 5815   1.009   1.162   7.609 -0.1623 -0.2742  0.2177
 1939SOL    HW1 5816   1.058   1.124   7.682  0.1097 -0.9668 -0.3163
 1939SOL    HW2 5817   0.965   1.238   7.647 -0.5297 -0.9878  1.2491
 1940SOL     OW 5818   0.328   2.585   5.738 -0.1268  0.0754 -0.1378
 1940SOL    HW1 5819   0.405   2.624   5.696  1.2456 -3.2000 -0.9115
 1940SOL    HW2 5820   0.351   2.583   5.831  0.6237 -0.5575 -0.3199
 1941SOL     OW 5821   3.432   0.893   7.226 -0.4149 -0.2534 -0.1986
 1941SOL    HW1 5822   3.457   0.802   7.241  0.1964 -0.1147 -0.3268
 1941SOL    HW2 5823   3.487   0.920   7.152 -0.2203  0.3707  0.1704
 1942SOL     OW 5824   2.409   4.441   9.033  0.8124 -0.3161  0.1162
 1942SOL    HW1 5825   2.456   4.369   8.990  0.0578 -0.2194 -0.9108
 1942SOL    HW2 5826   2.477   4.504   9.057  1.2267 -0.2356 -1.2172
 1943SOL     OW 5827   4.798   3.648   7.051  0.1027 -0.7196 -0.2057
 1943SOL    HW1 5828   4.808   3.561   7.089 -0.1003 -0.9426 -0.6658
 1943SOL    HW2 5829   4.704   3.664   7.051  0.1834 -0.1440  0.6658
 1944SOL     OW 5830   0.902   4.446   5.487  0.3470  0.6065  0.2280
 1944SOL    HW1 5831   0.976   4.395   5.519 -0.0652 -0.8046 -0.9613
 1944SOL    HW2 5832   0.841   4.449   5.561  2.2046  3.2452  1.8306
 1945SOL     OW 5833   1.066   3.423   9.064  0.6365  0.2121 -0.2556
 1945SOL    HW1 5834   1.063   3.328   9.050  0.4722  0.1401  0.2459
 1945SOL    HW2 5835   1.018   3.436   9.146 -1.6237  0.9955 -1.6085
 1946SOL     OW 5836   1.337   0.275   5.358  0.5569 -0.5711  0.0352
 1946SOL    HW1 5837   1.403   0.272   5.288  0.8175 -1.0623  0.2996
 1946SOL    HW2 5838   1.258   0.240   5.316 -0.1333  1.9227 -0.8960
 1947SOL     OW 5839   3.903   4.108   6.313  0.4511  0.4265  0.3516
 1947SOL    HW1 5840   3.942   4.043   6.254 -2.0469 -1.5235  0.6464
 1947SOL    HW2 5841   3.914   4.070   6.400  0.5715  1.3120  0.7232
 1948SOL     OW 5842   2.725   1.412   9.142 -0.2850  0.0757 -0.2186
 1948SOL    HW1 5843   2.667   1.415   9.218 -1.2737 -1.1250 -0.8953
 1948SOL    HW2 5844   2.692   1.340   9.089  0.3118  0.9437 -1.8580
 1949SOL     OW 5845   2.495   1.360   6.291 -0.4332 -0.0813 -0.7270
 1949SOL    HW1 5846   2.400   1.361   6.308 -0.3260  1.8335  0.0792
 1949SOL    HW2 5847   2.504   1.403   6.207 -0.2474  0.3013 -0.5136
 1950SOL     OW 5848   3.737   0.241   4.563 -0.2344  1.0326  0.3996
 1950SOL    HW1 5849   3.712   0.181   4.493 -1.5376 -0.2189  1.8379
 1950SOL    HW2 5850   3.824   0.212   4.590 -1.5676 -1.6612  2.3613
 1951SOL     OW 5851   4.092   0.421   8.706 -0.1276  0.2888 -0.4191
 1951SOL    HW1 5852   4.008   0.466   8.720 -1.1831 -1.5132 -0.6764
 1951SOL    HW2 5853   4.070   0.328   8.710  2.1569 -0.2760  1.3152
 1952SOL     OW 5854   0.797   2.602   8.294  0.0780  0.0863  0.1206
 1952SOL    HW1 5855   0.759   2.514   8.295 -1.3034  0.6467 -0.1058
 1952SOL    HW2 5856   0.721   2.660   8.287  0.9622  1.3013  0.3782
 1953SOL     OW 5857   0.077   3.449   9.910 -0.6534 -0.2286  0.0602
 1953SOL    HW1 5858   0.021   3.408   9.976  0.1544 -0.9458  0.3234
 1953SOL    HW2 5859   0.062   3.543   9.920  0.3547 -0.2411  2.0944
 1954SOL     OW 5860   2.043   0.953   9.601  0.0126  0.1405  0.0866
 1954SOL    HW1 5861   2.055   0.992   9.688 -1.2646  1.4856 -0.3094
 1954SOL    HW2 5862   2.132   0.945   9.566  0.4451  0.7870  1.0003
 1955SOL     OW 5863   4.034   0.458   9.422 -0.3920  0.3273  0.0393
 1955SOL    HW1 5864   3.960   0.400   9.403  0.4107 -1.0087  0.7704
 1955SOL    HW2 5865   4.109   0.416   9.379  0.1725  0.9185  0.4206
 1956SOL     OW 5866   0.425   1.507   8.743  0.1891  0.0704  0.6151
 1956SOL    HW1 5867   0.433   1.430   8.686  1.2180  0.9123 -0.4062
 1956SOL    HW2 5868   0.359   1.561   8.700 -0.1895 -0.0066  1.0865
 1957SOL     OW 5869   3.512   1.463   8.955 -0.2406  0.1536  0.1746
 1957SOL    HW1 5870   3.551   1.550   8.946 -0.1175  0.0734 -0.1068
 1957SOL    HW2 5871   3.418   1.478   8.945 -0.2287  0.2705  0.2383
 1958SOL     OW 5872   3.776   1.405   7.775 -0.6327  0.1884 -0.1173
 1958SOL    HW1 5873   3.862   1.435   7.805 -0.7212 -0.5041  0.8617
 1958SOL    HW2 5874   3.787   1.310   7.762 -1.6402 -0.1985  1.5429
 1959SOL     OW 5875   2.323   4.078   8.761  0.1491  0.2023 -0.1292
 1959SOL    HW1 5876   2.267   4.152   8.784 -0.8575 -0.7303  0.4809
 1959SOL    HW2 5877   2.282   4.002   8.802 -0.3855 -1.1741 -2.9590
 1960SOL     OW 5878   4.804   3.831   8.959  0.0655 -0.2741  0.3176
 1960SOL    HW1 5879   4.826   3.917   8.995  1.1272 -0.5483  0.3764
 1960SOL    HW2 5880   4.743   3.849   8.888  1.4276  0.6779 -0.6511
 1961SOL     OW 5881   4.950   4.413   7.734  0.4681 -0.1732  0.2880
 1961SOL    HW1 5882   5.025   4.386   7.786  0.6221  0.8163  0.5926
 1961SOL    HW2 5883   4.955   4.359   7.655  0.8224 -0.9404  0.8207
 1962SOL     OW 5884   3.204   1.092   9.980 -0.0448 -0.2137  0.1802
 1962SOL    HW1 5885   3.280   1.107   9.923  1.0543 -0.0113  1.6508
 1962SOL    HW2 5886   3.138   1.055   9.921  1.7263 -1.9785 -0.8384
 1963SOL     OW 5887   1.543   1.884   9.683  0.0565 -0.1933  0.6268
 1963SOL    HW1 5888   1.513   1.890   9.593  0.5023  0.2635  0.5067
 1963SOL    HW2 5889   1.482   1.823   9.725 -0.3819 -0.1084  0.1154
 1964SOL     OW 5890   3.261   3.637   8.041 -0.2357 -0.8683  0.0660
 1964SOL    HW1 5891   3.270   3.624   7.947  0.5591 -1.5053  0.2141
 1964SOL    HW2 5892   3.258   3.548   8.077  0.5113 -0.6392  0.7225
 1965SOL     OW 5893   2.789   0.857  10.204  0.2216  0.0620  0.1804
 1965SOL    HW1 5894   2.720   0.798  10.174  1.5004 -0.8797 -1.0583
 1965SOL    HW2 5895   2.744   0.938  10.228 -1.2188 -0.2376 -1.3718
 1966SOL     OW 5896   2.271   1.459   9.865  0.2497  0.3246  0.3646
 1966SOL    HW1 5897   2.248   1.427   9.777 -0.6230  1.2931  0.2285
 1966SOL    HW2 5898   2.348   1.514   9.850 -0.9179  1.9113 -0.0917
 1967SOL     OW 5899   0.539   0.220   9.095  0.3456  0.3084  0.3001
 1967SOL    HW1 5900   0.549   0.229   9.190 -2.4632  0.4389  0.6698
 1967SOL    HW2 5901   0.484   0.143   9.084 -0.7458  1.2331 -1.0988
 1968SOL     OW 5902   1.394   1.490   8.848  0.7439  0.2023 -1.0649
 1968SOL    HW1 5903   1.449   1.506   8.925 -0.2615 -1.1994 -0.0198
 1968SOL    HW2 5904   1.347   1.409   8.868 -1.1402  0.9461 -2.2436
 1969SOL     OW 5905   0.465   4.724   9.277  0.3482  0.3146 -0.3216
 1969SOL    HW1 5906   0.525   4.711   9.203  0.4136 -0.1773 -0.1833
 1969SOL    HW2 5907   0.448   4.818   9.277  1.7880  0.6065  0.1579
 1970SOL     OW 5908   4.380   2.019   6.229  0.9666 -0.2784 -0.3093
 1970SOL    HW1 5909   4.310   2.084   6.237  2.0324  1.0509 -1.3607
 1970SOL    HW2 5910   4.342   1.939   6.266 -1.5557  0.0509 -1.9624
 1971SOL     OW 5911   2.688   0.737   7.874 -0.3809  0.0142 -0.5344
 1971SOL    HW1 5912   2.678   0.711   7.782  1.3303 -0.3611 -0.6440
 1971SOL    HW2 5913   2.766   0.690   7.904 -1.6120 -0.8446  1.5013
 1972SOL     OW 5914   4.334   2.844   7.994 -0.1873 -0.1796  0.0056
 1972SOL    HW1 5915   4.283   2.834   7.914  1.1525 -1.7827 -0.7157
 1972SOL    HW2 5916   4.269   2.843   8.065 -1.3039  0.1575 -0.9891
 1973SOL     OW 5917   2.228   0.656   8.047 -0.0119 -0.4190  0.4770
 1973SOL    HW1 5918   2.280   0.667   8.126  1.1214 -0.0226 -0.3007
 1973SOL    HW2 5919   2.265   0.718   7.984 -0.5326 -1.0975 -0.5355
 1974SOL     OW 5920   0.133   0.626   8.517  0.2855  0.2943  0.8605
 1974SOL    HW1 5921   0.170   0.713   8.506 -1.2792  0.8500 -0.5159
 1974SOL    HW2 5922   0.051   0.641   8.565  0.7221 -0.6345  1.9646
 1975SOL     OW 5923   3.698   0.718   9.403  0.1808 -0.2954 -0.5186
 1975SOL    HW1 5924   3.678   0.651   9.337 -1.6999  1.0335 -1.3912
 1975SOL    HW2 5925   3.681   0.675   9.486 -0.7894 -0.9837 -1.0519
 1976SOL     OW 5926   2.959   0.574   6.933 -0.3343 -0.0865 -0.0303
 1976SOL    HW1 5927   2.947   0.479   6.929 -1.1787 -0.0580  1.4797
 1976SOL    HW2 5928   3.030   0.586   6.996 -0.5022  0.3012  0.0857
 1977SOL     OW 5929   0.683   4.527   8.749 -0.6643  0.0513  0.1708
 1977SOL    HW1 5930   0.700   4.433   8.755 -1.5982 -0.1703 -0.3894
 1977SOL    HW2 5931   0.768   4.568   8.766 -0.1263 -0.9087 -0.1111
 1978SOL     OW 5932   4.018   2.821   9.358 -0.5240  0.2671  0.0166
 1978SOL    HW1 5933   4.008   2.876   9.436 -0.5199  0.5747 -0.2007
 1978SOL    HW2 5934   4.036   2.734   9.393  1.4197  0.7593  0.3463
 1979SOL     OW 5935   4.791   0.154   4.790  0.7469  0.1962  0.1797
 1979SOL    HW1 5936   4.712   0.193   4.751  2.1034  1.1702 -1.7576
 1979SOL    HW2 5937   4.779   0.060   4.779 -0.3189  0.3076  0.2751
 1980SOL     OW 5938   1.705   4.036   8.834  0.6124  0.2020 -0.0739
 1980SOL    HW1 5939   1.800   4.035   8.838  0.7640 -1.2780 -2.3565
 1980SOL    HW2 5940   1.681   3.948   8.805 -1.5839  0.0562  1.8564
 1981SOL     OW 5941   3.220   1.465   8.966 -0.7523 -0.3148  0.2967
 1981SOL    HW1 5942   3.151   1.519   8.927  0.7371  1.0458 -0.5971
 1981SOL    HW2 5943   3.216   1.486   9.059 -1.3336  0.0006  0.2096
 1982SOL     OW 5944   1.798   3.332   7.602  0.8722  0.2236  0.0257
 1982SOL    HW1 5945   1.712   3.293   7.584  0.5535  0.3753  1.1848
 1982SOL    HW2 5946   1.786   3.381   7.683  1.8502  0.9203 -0.2388
 1983SOL     OW 5947   3.690   2.284   9.374  0.0026 -0.7262 -0.3597
 1983SOL    HW1 5948   3.699   2.242   9.460  0.1200 -0.0036 -0.0142
 1983SOL    HW2 5949   3.687   2.378   9.393  1.3794 -0.4724 -1.2384
 1984SOL     OW 5950   2.364   0.322   8.423  0.8062  0.4829 -0.3278
 1984SOL    HW1 5951   2.382   0.260   8.352  3.5073  0.8665 -0.0681
 1984SOL    HW2 5952   2.298   0.381   8.386 -0.4537 -1.3740 -1.2292
 1985SOL     OW 5953   3.608   4.413   9.575  0.2520 -0.7480 -0.5599
 1985SOL    HW1 5954   3.578   4.412   9.666  1.6466 -1.7375 -0.0851
 1985SOL    HW2 5955   3.658   4.332   9.565  1.5746  0.1662 -1.6964
 1986SOL     OW 5956   3.591   2.164   9.612 -0.2196  0.0987 -0.1958
 1986SOL    HW1 5957   3.611   2.071   9.606 -1.5060 -0.1287 -2.0603
 1986SOL    HW2 5958   3.521   2.169   9.677 -0.4199 -0.3036 -0.3743
 1987SOL     OW 5959   0.117   2.537   8.500 -0.0228  0.0753 -0.0781
 1987SOL    HW1 5960   0.044   2.490   8.459 -0.1448 -0.3033  0.5487
 1987SOL    HW2 5961   0.094   2.629   8.493  0.8656  0.1749 -2.5559
 1988SOL     OW 5962   1.801   0.235   8.024  0.0211 -0.2208  0.2374
 1988SOL    HW1 5963   1.864   0.306   8.036  0.9883 -1.1941  1.2017
 1988SOL    HW2 5964   1.818   0.202   7.936  1.1316 -0.6929  0.6095
 1989SOL     OW 5965   0.131   2.205   8.422 -0.5897 -0.0819  0.9471
 1989SOL    HW1 5966   0.150   2.249   8.505 -3.6627  1.5242  0.9647
 1989SOL    HW2 5967   0.090   2.273   8.368  2.3689 -0.6974 -2.4886
 1990SOL     OW 5968   4.252   1.784   7.737 -0.4703  0.4578 -0.6900
 1990SOL    HW1 5969   4.230   1.754   7.649 -0.1754 -1.8717 -0.0286
 1990SOL    HW2 5970   4.285   1.706   7.782 -1.4574  1.3552  1.7724
 1991SOL     OW 5971   0.781   4.501  10.059 -0.1907 -0.9038 -0.4542
 1991SOL    HW1 5972   0.768   4.407  10.049 -0.2156 -1.3681  2.7938
 1991SOL    HW2 5973   0.693   4.536  10.072  0.0102 -0.9616  1.3547
 1992SOL     OW 5974   3.144   2.116   9.300  0.6272 -0.5081  0.2620
 1992SOL    HW1 5975   3.049   2.102   9.306  0.6684 -2.1828 -2.0175
 1992SOL    HW2 5976   3.161   2.127   9.207  2.6825 -0.0390  0.6399
 1993SOL     OW 5977   3.722   5.036   8.850  0.3687 -0.0155 -0.8670
 1993SOL    HW1 5978   3.733   4.973   8.921 -0.5190 -0.1579 -0.8451
 1993SOL    HW2 5979   3.702   4.983   8.773  0.0316  0.2174 -0.9411
 1994SOL     OW 5980   2.412   4.379   9.334  0.4101  0.0335  0.3858
 1994SOL    HW1 5981   2.446   4.320   9.267 -0.3393 -0.9979  0.8792
 1994SOL    HW2 5982   2.484   4.392   9.395  0.4464 -0.7608  0.5181
 1995SOL     OW 5983   0.521   3.956  10.147  0.2657 -0.7292 -0.0211
 1995SOL    HW1 5984   0.484   3.871  10.121  1.4764 -1.3670  0.2543
 1995SOL    HW2 5985   0.564   3.938  10.231 -0.4521  0.4373  0.6133
 1996SOL     OW 5986   0.657   3.507   9.908  0.0891  0.6697 -0.0839
 1996SOL    HW1 5987   0.745   3.512   9.871  0.2899 -1.7298 -0.0817
 1996SOL    HW2 5988   0.599   3.504   9.831 -0.0496  2.3349 -0.0855
 1997SOL     OW 5989   0.376   3.887   8.798 -0.6026 -0.2070 -0.3964
 1997SOL    HW1 5990   0.293   3.904   8.842  0.1827 -0.3366  1.2046
 1997SOL    HW2 5991   0.415   3.815   8.847  1.0521  0.7248 -0.2669
 1998SOL     OW 5992   2.847   0.549  10.061 -0.2595  0.7985 -0.1666
 1998SOL    HW1 5993   2.900   0.541   9.982 -0.4437  1.0617 -0.3175
 1998SOL    HW2 5994   2.813   0.638  10.058  0.7266  1.2408  0.8391
 1999SOL     OW 5995   2.945   0.317   8.455  0.1207  0.0575 -0.4489
 1999SOL    HW1 5996   2.990   0.365   8.525  1.6985  0.0486 -1.4281
 1999SOL    HW2 5997   3.006   0.250   8.428 -0.8545 -0.5497 -1.2103
 2000SOL     OW 5998   3.218   3.174   9.140 -0.1653 -0.5279 -0.1575
 2000SOL    HW1 5999   3.161   3.104   9.108 -1.3499  1.1622 -2.0298
 2000SOL    HW2 6000   3.273   3.197   9.065  0.9006 -0.1010  0.7239
 2001SOL     OW 6001   3.358   0.919   5.137  0.0166 -0.2483 -0.4331
 2001SOL    HW1 6002   3.333   0.833   5.103 -1.8303 -0.1010  0.4157
 2001SOL    HW2 6003   3.349   0.910   5.232  4.0683 -0.3703  0.0843
 2002SOL     OW 6004   3.719   1.616   8.688 -0.2248  0.7131 -0.0824
 2002SOL    HW1 6005   3.702   1.683   8.622  0.4941 -0.9621 -2.0782
 2002SOL    HW2 6006   3.789   1.653   8.741 -0.2587  1.7936 -0.7436
 2003SOL     OW 6007   0.838   4.822   9.890 -0.4030  0.3059  0.4987
 2003SOL    HW1 6008   0.889   4.785   9.817  0.9338 -0.2415  1.6567
 2003SOL    HW2 6009   0.747   4.802   9.868  0.1353 -2.3268  0.2665
 2004SOL     OW 6010   2.628   0.556  10.516 -0.3813 -1.0434  0.7431
 2004SOL    HW1 6011   2.549   0.540  10.568  0.3692  1.2008  2.7349
 2004SOL    HW2 6012   2.635   0.651  10.511  1.8666 -1.1870  0.0937
 2005SOL     OW 6013   1.049   1.893   9.021 -0.0160  0.2084  0.3581
 2005SOL    HW1 6014   1.106   1.969   9.008  1.3197 -0.1692  3.2193
 2005SOL    HW2 6015   0.989   1.896   8.947  2.0251  2.1744 -1.3917
 2006SOL     OW 6016   3.687   3.684   7.715 -0.4553 -0.2525  0.4695
 2006SOL    HW1 6017   3.769   3.684   7.765 -0.9542 -0.4913  1.2960
 2006SOL    HW2 6018   3.711   3.725   7.632  0.2937  0.5206  1.0388
 2007SOL     OW 6019   3.626   3.697   8.106  0.1878 -0.0544  0.2037
 2007SOL    HW1 6020   3.535   3.677   8.085  0.3722 -0.5042 -0.1733
 2007SOL    HW2 6021   3.640   3.785   8.072  0.2725 -0.4932 -0.9369
 2008SOL     OW 6022   1.052   1.769   9.671  0.1739 -0.4983 -0.2293
 2008SOL    HW1 6023   1.004   1.721   9.738 -0.0271 -0.3397 -0.2552
 2008SOL    HW2 6024   1.144   1.756   9.692  0.1122 -0.5069  0.0367
 2009SOL     OW 6025   2.870   1.506   7.812  0.8222 -0.1218  1.0996
 2009SOL    HW1 6026   2.957   1.512   7.772 -0.2416  1.0227 -1.2509
 2009SOL    HW2 6027   2.875   1.566   7.887  1.4238  1.8165 -0.3982
 2010SOL     OW 6028   1.585   2.086   9.250 -0.0630 -0.4705 -0.3049
 2010SOL    HW1 6029   1.516   2.075   9.184  0.4147  0.5593 -0.9947
 2010SOL    HW2 6030   1.598   2.181   9.256  0.3830 -0.5878  0.7778
 2011SOL     OW 6031   0.072   1.043   9.545 -0.0357  0.9755 -0.3436
 2011SOL    HW1 6032   0.109   1.095   9.474  1.8159 -0.5112 -0.5643
 2011SOL    HW2 6033   0.109   0.955   9.532 -0.9972  0.2399  1.4720
 2012SOL     OW 6034   3.709   0.864   8.318  0.8323  1.0356 -0.1330
 2012SOL    HW1 6035   3.747   0.807   8.251 -1.4501  1.8597 -2.2765
 2012SOL    HW2 6036   3.784   0.908   8.357  2.4179 -1.1630 -0.5021
 2013SOL     OW 6037   3.885   0.240   9.269 -0.5400  0.0052 -0.4943
 2013SOL    HW1 6038   3.801   0.214   9.307 -1.5684  2.7550 -0.6176
 2013SOL    HW2 6039   3.950   0.185   9.313 -2.1778 -0.4264  1.5366
 2014SOL     OW 6040   2.559   1.381   9.565 -0.4575  0.3204 -0.4630
 2014SOL    HW1 6041   2.571   1.471   9.535  0.5715  0.0278 -0.9974
 2014SOL    HW2 6042   2.586   1.382   9.656 -0.6405  0.5939 -0.4111
 2015SOL     OW 6043   2.185   0.195   7.293  0.1324  0.1670 -0.4164
 2015SOL    HW1 6044   2.171   0.129   7.225  1.7422  1.7387 -2.4214
 2015SOL    HW2 6045   2.196   0.145   7.374  1.7758 -2.0842 -1.8964
 2016SOL     OW 6046   1.391   4.234  10.311 -0.4905 -0.1928  0.1444
 2016SOL    HW1 6047   1.371   4.245  10.218  0.4695  0.6510  0.0289
 2016SOL    HW2 6048   1.310   4.199  10.348 -0.8615 -0.6134 -1.0133
 2017SOL     OW 6049   4.708   2.923   9.854  0.4415  0.1475  0.0193
 2017SOL    HW1 6050   4.763   3.001   9.848  0.2540  0.2529 -0.3335
 2017SOL    HW2 6051   4.620   2.957   9.870  0.2007  0.0507 -1.0545
 2018SOL     OW 6052   0.901   1.439   9.768 -0.3301 -0.4709  0.0928
 2018SOL    HW1 6053   0.944   1.369   9.817 -1.4021 -0.4854  1.0519
 2018SOL    HW2 6054   0.940   1.434   9.681  0.1846 -1.7394  0.3666
 2019SOL     OW 6055   3.502   4.698   9.792  0.5087 -0.0256 -0.7501
 2019SOL    HW1 6056   3.563   4.766   9.820 -0.6770  0.5032  0.6376
 2019SOL    HW2 6057   3.474   4.726   9.705 -0.3800  1.5979  0.0148
 2020SOL     OW 6058   2.327   3.463   7.046 -0.6840  0.4071  0.1896
 2020SOL    HW1 6059   2.402   3.418   7.086  0.0604  1.1649 -0.3069
 2020SOL    HW2 6060   2.281   3.394   6.998 -0.2859 -0.0705  0.4762
 2021SOL     OW 6061   1.527   3.111   8.736 -0.5317 -0.3426  0.6709
 2021SOL    HW1 6062   1.530   3.178   8.804  1.3605 -0.4073  0.6999
 2021SOL    HW2 6063   1.475   3.151   8.666 -1.9738 -0.0371  1.8638
 2022SOL     OW 6064   1.890   0.664   7.866  0.0937 -0.3196 -0.7931
 2022SOL    HW1 6065   1.903   0.753   7.899  0.2291 -0.1361 -1.3384
 2022SOL    HW2 6066   1.941   0.660   7.786 -1.8141 -0.1005 -2.0891
 2023SOL     OW 6067   2.193   1.593   6.493  0.0663 -0.6832  0.7455
 2023SOL    HW1 6068   2.209   1.555   6.407 -0.2221 -0.3018  0.5212
 2023SOL    HW2 6069   2.232   1.531   6.554  0.8087 -0.6573  0.3101
 2024SOL     OW 6070   4.696   0.586   9.992  0.3843  0.0810 -0.0666
 2024SOL    HW1 6071   4.712   0.492   9.992  0.8693  0.1452  1.2034
 2024SOL    HW2 6072   4.601   0.595   9.990  0.3370 -0.3868 -2.3990
 2025SOL     OW 6073   2.911   0.800   8.408  0.7564  0.4249  0.7069
 2025SOL    HW1 6074   2.943   0.750   8.484  0.4948 -2.0005 -0.6732
 2025SOL    HW2 6075   2.948   0.754   8.333 -0.0962  1.9565 -0.6989
 2026SOL     OW 6076   4.506   4.663   8.735 -0.1594 -0.2824 -0.2964
 2026SOL    HW1 6077   4.485   4.741   8.684 -1.8401 -1.7354 -1.9413
 2026SOL    HW2 6078   4.432   4.604   8.722  0.5986 -1.8051  1.7014
 2027SOL     OW 6079   3.554   3.601   8.457 -0.8321 -0.6910  0.1020
 2027SOL    HW1 6080   3.533   3.508   8.469  0.6672 -1.4753 -2.6560
 2027SOL    HW2 6081   3.631   3.601   8.400 -1.9258  2.2836 -1.5415
 2028SOL     OW 6082   1.369   3.209   8.534 -0.5152 -0.0179 -0.1825
 2028SOL    HW1 6083   1.406   3.163   8.458 -0.5333 -1.5350  0.6923
 2028SOL    HW2 6084   1.276   3.186   8.532 -0.9966  1.8332 -0.9974
 2029SOL     OW 6085   1.064   1.166   8.285 -0.3911  0.1497  0.0440
 2029SOL    HW1 6086   0.978   1.201   8.306 -1.7696 -2.2017 -1.2069
 2029SOL    HW2 6087   1.085   1.110   8.361  0.2528  1.0333  0.5311
 2030SOL     OW 6088   2.594   0.694   9.956  0.0187 -0.0096 -0.6626
 2030SOL    HW1 6089   2.556   0.631  10.018  0.4452  1.3361  1.0636
 2030SOL    HW2 6090   2.518   0.732   9.912 -0.2922 -1.0547 -1.0638
 2031SOL     OW 6091   1.694   2.760   9.468 -0.0559  0.6294  0.2374
 2031SOL    HW1 6092   1.656   2.838   9.429  0.5382  2.1040  2.4244
 2031SOL    HW2 6093   1.765   2.792   9.523  0.8975 -1.5668  0.4093
 2032SOL     OW 6094   1.896   1.425   9.746  0.0989 -0.4080  0.8284
 2032SOL    HW1 6095   1.914   1.476   9.668 -0.3972  0.9487  1.5793
 2032SOL    HW2 6096   1.827   1.364   9.719  1.9731 -2.0757 -0.5955
 2033SOL     OW 6097   2.318   2.986   8.859 -0.2510  0.1330 -0.0873
 2033SOL    HW1 6098   2.235   2.941   8.868  0.3806 -0.6704  2.1860
 2033SOL    HW2 6099   2.321   3.010   8.766 -2.9726  0.1842 -0.2543
 2034SOL     OW 6100   3.477   1.762   8.946  0.4006 -0.3499  0.0107
 2034SOL    HW1 6101   3.472   1.814   9.026 -1.8006  0.7308 -0.7196
 2034SOL    HW2 6102   3.501   1.824   8.878  0.8495 -0.9493 -0.3903
 2035SOL     OW 6103   3.744   3.255   9.351 -0.3642 -0.1121 -0.6550
 2035SOL    HW1 6104   3.692   3.267   9.430  0.1925 -0.7003 -0.1915
 2035SOL    HW2 6105   3.775   3.343   9.329 -1.4917  0.2446 -0.9159
 2036SOL     OW 6106   4.447   2.569   9.826  0.7809 -0.7359  0.2230
 2036SOL    HW1 6107   4.493   2.585   9.744  1.5133 -0.7899  0.6139
 2036SOL    HW2 6108   4.511   2.523   9.881  0.3351 -0.6205  0.8518
 2037SOL     OW 6109   2.254   3.070   9.760 -0.1554  0.3392  0.0170
 2037SOL    HW1 6110   2.229   3.147   9.811 -1.0378  0.3223 -0.3869
 2037SOL    HW2 6111   2.335   3.039   9.802 -1.5474 -0.4915  2.3129
 2038SOL     OW 6112   4.071   4.044   8.025 -0.2811  0.3499 -0.0914
 2038SOL    HW1 6113   4.052   4.043   8.119 -0.0011 -0.0160 -0.0381
 2038SOL    HW2 6114   4.157   4.003   8.017 -1.1044 -1.3443 -0.6827
 2039SOL     OW 6115   0.774   4.498   9.404 -0.6842  0.3699 -0.0592
 2039SOL    HW1 6116   0.746   4.533   9.319 -2.5423  2.3171  1.2334
 2039SOL    HW2 6117   0.867   4.518   9.409 -0.7673  1.1305 -1.2411
 2040SOL     OW 6118   1.219   2.038   9.918 -0.3954  0.5693 -0.3913
 2040SOL    HW1 6119   1.184   2.043   9.829  0.9676 -0.2221 -0.9995
 2040SOL    HW2 6120   1.259   1.951   9.924  0.7420  1.1202  0.5073
 2041SOL     OW 6121   2.511   2.228   7.068  0.2623  0.7271  0.0448
 2041SOL    HW1 6122   2.567   2.160   7.031  1.7516  0.5300  2.4841
 2041SOL    HW2 6123   2.422   2.196   7.054  0.8721 -0.8165 -0.5073
 2042SOL     OW 6124   3.154   2.500   9.570 -0.1321  0.0822  0.7545
 2042SOL    HW1 6125   3.198   2.569   9.520  1.2095 -1.0394  0.3386
 2042SOL    HW2 6126   3.077   2.479   9.517  1.0726 -0.8302 -0.7372
 2043SOL     OW 6127   4.155   0.552  10.008  0.8822 -0.3993 -0.5759
 2043SOL    HW1 6128   4.117   0.639   9.998  0.7458 -0.3785  0.0633
 2043SOL    HW2 6129   4.157   0.516   9.919  0.8437  0.2126 -0.8281
 2044SOL     OW 6130   4.481   3.125   8.099  1.1563  0.1519  0.0312
 2044SOL    HW1 6131   4.458   3.070   8.024 -1.0655 -0.5421  1.1469
 2044SOL    HW2 6132   4.493   3.065   8.172  0.2709  1.0115  0.9187
 2045SOL     OW 6133   3.329   4.353   8.742  0.1403  0.0185  0.2440
 2045SOL    HW1 6134   3.414   4.384   8.711  0.8952 -0.9051  1.3337
 2045SOL    HW2 6135   3.303   4.416   8.809  1.4860 -1.3546  2.1698
 2046SOL     OW 6136   4.410   0.678   9.973  0.0192 -0.0479 -0.1180
 2046SOL    HW1 6137   4.344   0.695   9.906 -1.1352  1.9037  1.3965
 2046SOL    HW2 6138   4.401   0.751  10.034  3.2861  0.0435  0.4184
 2047SOL     OW 6139   2.031   1.637   9.560 -0.1475  0.1032 -0.0845
 2047SOL    HW1 6140   2.108   1.687   9.588  1.6963 -1.3633 -2.2574
 2047SOL    HW2 6141   1.959   1.700   9.565  0.8510  1.2046  3.2041
 2048SOL     OW 6142   4.737   1.186   8.311 -0.6662 -0.3039  0.4551
 2048SOL    HW1 6143   4.658   1.133   8.318 -1.1806  0.2221 -1.0223
 2048SOL    HW2 6144   4.808   1.122   8.313 -1.3179 -1.5424 -3.8655
 2049SOL     OW 6145   2.043   2.617   9.597 -0.5794  0.1570 -0.6314
 2049SOL    HW1 6146   2.074   2.707   9.604  0.9307 -0.4527  2.6957
 2049SOL    HW2 6147   2.002   2.599   9.682  2.8964 -3.4296  0.5878
 2050SOL     OW 6148   4.557   3.078   7.731 -0.8477 -1.0521 -0.0806
 2050SOL    HW1 6149   4.634   3.070   7.787 -0.6351  0.5598 -0.0962
 2050SOL    HW2 6150   4.588   3.125   7.654 -1.2956 -2.6249 -1.2913
 2051SOL     OW 6151   2.812   4.136   9.576 -0.3503 -0.3797  0.1706
 2051SOL    HW1 6152   2.872   4.089   9.518  0.1898 -2.7218  2.4289
 2051SOL    HW2 6153   2.751   4.180   9.517  2.3037  0.4385 -2.1933
 2052SOL     OW 6154   2.710   0.285   7.515 -0.0255 -0.2314 -0.1074
 2052SOL    HW1 6155   2.695   0.294   7.421  1.0496 -0.2579 -0.3023
 2052SOL    HW2 6156   2.636   0.330   7.556  1.0828  2.6648 -0.9870
 2053SOL     OW 6157   2.132   2.863   9.647  0.2523  0.2822 -0.0867
 2053SOL    HW1 6158   2.183   2.917   9.706  0.5118 -0.5793  0.5006
 2053SOL    HW2 6159   2.041   2.878   9.673  0.3830 -0.3791  0.8054
 2054SOL     OW 6160   1.456   4.222   8.099 -0.3855  0.5237 -0.0680
 2054SOL    HW1 6161   1.391   4.272   8.148 -0.7972  0.4400 -0.5252
 2054SOL    HW2 6162   1.497   4.285   8.040 -0.1879  0.5347  0.0795
 2055SOL     OW 6163   2.668   4.599   9.005  0.1477 -0.7996 -0.1697
 2055SOL    HW1 6164   2.664   4.545   8.927 -0.9202  0.2003 -0.8373
 2055SOL    HW2 6165   2.761   4.622   9.014  0.5413 -2.3537 -0.1196
 2056SOL     OW 6166   1.138   4.410   7.871 -1.1391 -0.3115  0.1114
 2056SOL    HW1 6167   1.115   4.318   7.860  3.0110 -1.5900  0.5326
 2056SOL    HW2 6168   1.155   4.442   7.782  1.9354 -1.4795  0.1481
 2057SOL     OW 6169   3.211   2.460   9.857  0.0584 -0.1390  0.4793
 2057SOL    HW1 6170   3.172   2.428   9.776  1.4762 -1.9415  0.4196
 2057SOL    HW2 6171   3.154   2.427   9.926  1.2044 -2.6045  0.3867
 2058SOL     OW 6172   3.367   0.010   5.816  0.3198  0.7916 -0.7507
 2058SOL    HW1 6173   3.331  -0.025   5.897  0.2980  1.8698 -0.2816
 2058SOL    HW2 6174   3.424   0.082   5.843  2.5966 -0.6143 -1.4930
 2059SOL     OW 6175   1.432   0.710  10.132  0.4103 -0.1519 -0.5592
 2059SOL    HW1 6176   1.380   0.629  10.127  2.1974 -1.8603  3.7523
 2059SOL    HW2 6177   1.523   0.680  10.125  1.0561  1.7570 -0.7384
 2060SOL     OW 6178   3.812   4.754   8.388 -0.4392  0.4961  0.5618
 2060SOL    HW1 6179   3.841   4.675   8.343 -0.8428  0.1998  0.8077
 2060SOL    HW2 6180   3.757   4.800   8.325 -0.8972  0.1491  0.7083
 2061SOL     OW 6181   2.104   4.441   9.450 -0.3213 -0.0768 -0.2547
 2061SOL    HW1 6182   2.196   4.466   9.464 -0.4319  0.1710  0.0416
 2061SOL    HW2 6183   2.055   4.501   9.506 -0.5184 -2.0045  1.7614
 2062SOL     OW 6184   2.939   1.322   5.964  0.3992  0.0523  0.1141
 2062SOL    HW1 6185   3.006   1.347   5.901  0.5627 -0.0091  0.2629
 2062SOL    HW2 6186   2.940   1.393   6.029  1.0002 -0.4229  0.6444
 2063SOL     OW 6187   1.740   3.273   9.396  0.0731  0.2062  0.5529
 2063SOL    HW1 6188   1.828   3.277   9.359  0.0691  1.2152  0.6220
 2063SOL    HW2 6189   1.686   3.323   9.334  0.0539  1.8619  1.8606
 2064SOL     OW 6190   4.883   1.397   9.740  0.6842  0.1541 -0.1121
 2064SOL    HW1 6191   4.978   1.396   9.752  0.7228 -0.6246 -0.3959
 2064SOL    HW2 6192   4.862   1.308   9.711  0.0355  0.6806 -1.3411
 2065SOL     OW 6193   2.699   0.877   7.594 -0.4250  1.1004 -0.2015
 2065SOL    HW1 6194   2.764   0.939   7.625 -0.6579 -0.1366  3.0689
 2065SOL    HW2 6195   2.748   0.796   7.581 -0.8250  0.9166 -0.5824
 2066SOL     OW 6196   2.509   3.388   8.899  0.8494  0.1364 -0.5198
 2066SOL    HW1 6197   2.600   3.408   8.922  0.2081  0.0861  2.4040
 2066SOL    HW2 6198   2.474   3.470   8.865  2.2471 -0.1613 -2.9749
 2067SOL     OW 6199   1.170   0.185   8.622  0.1605 -0.1467 -0.2540
 2067SOL    HW1 6200   1.243   0.143   8.668  0.1902 -0.9282 -0.9880
 2067SOL    HW2 6201   1.208   0.211   8.537 -0.7949 -2.0665 -1.3395
 2068SOL     OW 6202   1.903   2.257   7.847  0.0557  0.6679 -0.2408
 2068SOL    HW1 6203   1.886   2.322   7.780 -1.3320  0.0765 -0.4882
 2068SOL    HW2 6204   1.883   2.301   7.929  1.5075  1.3097 -0.1930
 2069SOL     OW 6205   2.818   4.613   8.410  0.1379 -0.0046  0.2480
 2069SOL    HW1 6206   2.803   4.549   8.340 -0.3132  1.9002 -1.4857
 2069SOL    HW2 6207   2.914   4.619   8.417  0.2125 -1.8299  1.4207
 2070SOL     OW 6208   3.529   2.479   9.581 -0.6843 -0.4516 -0.2030
 2070SOL    HW1 6209   3.541   2.386   9.600 -0.4587  0.1295  3.2596
 2070SOL    HW2 6210   3.506   2.518   9.666  1.5199  2.9956 -0.9683
 2071SOL     OW 6211   1.465   2.966   9.962 -0.2626 -0.3695 -0.0722
 2071SOL    HW1 6212   1.427   3.005   9.883  0.0996  2.1594  0.8937
 2071SOL    HW2 6213   1.394   2.969  10.027  0.4035  0.8180  0.6425
 2072SOL     OW 6214   1.896   2.259   8.670 -0.2327  0.2516  0.1370
 2072SOL    HW1 6215   1.954   2.305   8.610 -3.6062  0.7611 -3.0522
 2072SOL    HW2 6216   1.913   2.166   8.654  1.0688  0.3539  0.7893
 2073SOL     OW 6217   2.556   3.643   9.076 -0.1076  0.5646 -0.0353
 2073SOL    HW1 6218   2.598   3.725   9.102  0.9626  0.3994 -1.1494
 2073SOL    HW2 6219   2.629   3.583   9.059 -0.7621  0.2448 -1.9552
 2074SOL     OW 6220   4.330   2.093   9.780 -0.6264  0.2774 -0.0381
 2074SOL    HW1 6221   4.390   2.117   9.709 -0.1694  0.7477  0.5028
 2074SOL    HW2 6222   4.283   2.174   9.800 -2.1605 -0.2942 -1.1089
 2075SOL     OW 6223   3.981   1.315   8.660 -0.0472 -0.1260 -0.1618
 2075SOL    HW1 6224   3.988   1.411   8.658 -0.5865  0.2555  4.2686
 2075SOL    HW2 6225   4.045   1.284   8.597  0.6628  3.1517 -1.2313
 2076SOL     OW 6226   0.137   4.025   5.908  0.4635  0.3291 -0.3695
 2076SOL    HW1 6227   0.050   4.043   5.874  0.2911  0.9141  0.3670
 2076SOL    HW2 6228   0.173   4.111   5.931  0.7753 -0.0047  0.4310
 2077SOL     OW 6229   2.672   4.257   9.231  0.5325 -0.7600  0.4832
 2077SOL    HW1 6230   2.733   4.314   9.278  0.0199 -0.5501  0.9072
 2077SOL    HW2 6231   2.708   4.251   9.143  1.0028 -0.3992  0.6450
 2078SOL     OW 6232   0.403   2.886   8.355 -0.1065 -0.3793 -0.4326
 2078SOL    HW1 6233   0.448   2.969   8.366 -1.4228  0.7901 -3.0380
 2078SOL    HW2 6234   0.469   2.827   8.318  0.4094 -0.0466 -0.0541
 2079SOL     OW 6235   2.594   2.759   9.628 -0.2290  0.2512  0.3618
 2079SOL    HW1 6236   2.606   2.665   9.645 -2.9396 -0.5459 -1.5816
 2079SOL    HW2 6237   2.502   2.768   9.606  0.1419  3.2797 -0.3166
 2080SOL     OW 6238   2.022   2.991   8.672 -0.0116  0.0668 -0.6082
 2080SOL    HW1 6239   1.939   2.980   8.625 -0.9553 -0.6602  1.1111
 2080SOL    HW2 6240   2.018   2.926   8.742  0.4659  2.2408  1.5849
 2081SOL     OW 6241   4.579   2.200   9.440  1.2980 -0.1233 -0.0041
 2081SOL    HW1 6242   4.514   2.136   9.412  1.4478  0.4871 -1.8768
 2081SOL    HW2 6243   4.642   2.149   9.491  0.8138 -1.2458 -0.4994
 2082SOL     OW 6244   2.545   2.995   8.040 -0.9022 -0.3907 -0.3310
 2082SOL    HW1 6245   2.545   3.091   8.033 -1.7779 -0.4438 -1.2966
 2082SOL    HW2 6246   2.638   2.971   8.047 -0.5996  0.4475 -1.3613
 2083SOL     OW 6247   4.081   3.832   9.227  0.4655  0.3001  0.2932
 2083SOL    HW1 6248   4.146   3.886   9.183 -0.4704 -0.3364 -1.9994
 2083SOL    HW2 6249   4.037   3.892   9.288  2.9972  0.7724  1.7850
 2084SOL     OW 6250   2.727   1.227  10.300  0.1123  0.2734  0.2350
 2084SOL    HW1 6251   2.668   1.278  10.246  0.6161  1.9879  1.2137
 2084SOL    HW2 6252   2.811   1.230  10.254 -0.0127 -0.2283 -0.0268
 2085SOL     OW 6253   4.547   3.966   7.957 -0.1723 -0.0784 -0.1396
 2085SOL    HW1 6254   4.602   3.930   7.888  2.2042  1.6051  0.7367
 2085SOL    HW2 6255   4.505   4.042   7.917  0.3200  0.2367 -0.0684
 2086SOL     OW 6256   1.804   4.696   8.266  0.1628  0.4884  0.5117
 2086SOL    HW1 6257   1.797   4.629   8.199  0.7567 -1.2508  2.1108
 2086SOL    HW2 6258   1.879   4.670   8.319  1.2063  3.0984  0.5181
 2087SOL     OW 6259   3.240   0.571   9.447 -0.3256 -0.0778  0.9410
 2087SOL    HW1 6260   3.264   0.553   9.538 -2.2321  0.1414  1.5213
 2087SOL    HW2 6261   3.190   0.653   9.450  0.1075  0.2676 -0.3980
 2088SOL     OW 6262   3.428   3.503   7.784  0.2361  0.0005 -0.0567
 2088SOL    HW1 6263   3.466   3.494   7.871 -0.8860  1.9019  0.6988
 2088SOL    HW2 6264   3.503   3.519   7.727  0.9684 -1.0208  0.5764
 2089SOL     OW 6265   1.092   0.791   9.493 -0.0905  0.1946 -0.1911
 2089SOL    HW1 6266   1.017   0.826   9.444  0.5173 -0.3844 -1.5659
 2089SOL    HW2 6267   1.136   0.869   9.527 -0.9208  0.5711  0.0743
 2090SOL     OW 6268   3.149   3.027   9.378 -0.1859  0.0596 -0.2815
 2090SOL    HW1 6269   3.158   2.933   9.367 -0.8853 -0.0138 -0.2745
 2090SOL    HW2 6270   3.172   3.063   9.292 -1.0947 -0.2046 -0.6486
 2091SOL     OW 6271   1.866   0.216   9.520 -0.2111  0.1939  0.8689
 2091SOL    HW1 6272   1.908   0.272   9.455 -1.4019  0.7200  0.5316
 2091SOL    HW2 6273   1.836   0.139   9.470  0.2753 -0.1440  1.0927
 2092SOL     OW 6274   1.246   3.942   8.571 -0.2841 -0.5525 -0.1922
 2092SOL    HW1 6275   1.310   4.007   8.601 -0.0245 -0.9038  0.0189
 2092SOL    HW2 6276   1.194   3.921   8.649 -0.4037 -0.5553 -0.2728
 2093SOL     OW 6277   0.133   4.710   9.700  0.0495 -0.6379 -0.0377
 2093SOL    HW1 6278   0.186   4.701   9.621  0.5277  1.5263 -0.0346
 2093SOL    HW2 6279   0.043   4.722   9.668  0.1609 -0.3425 -0.2481
 2094SOL     OW 6280   2.837   0.654   8.945  0.3978 -0.6736  0.4057
 2094SOL    HW1 6281   2.765   0.611   8.899 -0.8750 -0.5342  2.1323
 2094SOL    HW2 6282   2.795   0.727   8.991  1.6265 -0.5994  1.4637
 2095SOL     OW 6283   2.874   3.075   9.317  0.3042 -0.8925  0.1884
 2095SOL    HW1 6284   2.799   3.024   9.286  1.4493 -2.1980 -0.5831
 2095SOL    HW2 6285   2.919   3.016   9.378 -0.4972  0.7045  2.4164
 2096SOL     OW 6286   0.293   2.422   9.607  0.0701 -0.2296  0.2567
 2096SOL    HW1 6287   0.363   2.392   9.665 -0.2847 -0.5436  0.5335
 2096SOL    HW2 6288   0.245   2.342   9.585  1.8968 -0.6418 -2.8383
 2097SOL     OW 6289   4.708   3.086   5.291  0.0789 -0.5573  0.1213
 2097SOL    HW1 6290   4.794   3.049   5.271  0.4069  0.0707  0.3285
 2097SOL    HW2 6291   4.706   3.169   5.244 -0.5485 -0.7188 -0.1434
 2098SOL     OW 6292   2.132   2.688   6.975  0.3396  0.3036  0.4459
 2098SOL    HW1 6293   2.049   2.640   6.971 -2.3951  4.5053 -0.1493
 2098SOL    HW2 6294   2.187   2.648   6.908 -1.2809 -2.4024  0.5913
 2099SOL     OW 6295   3.566   1.085   5.997 -0.2511 -0.2231 -0.2272
 2099SOL    HW1 6296   3.474   1.112   6.003 -0.4589 -0.8316 -0.6529
 2099SOL    HW2 6297   3.581   1.031   6.075 -0.2849 -0.2286 -0.2247
 2100SOL     OW 6298   1.036   5.011   4.980  0.1436  0.2124  0.5700
 2100SOL    HW1 6299   0.950   4.970   4.994 -1.1686  1.6888 -2.2347
 2100SOL    HW2 6300   1.075   4.962   4.908  0.0697  1.6665 -0.5020
 2101SOL     OW 6301   1.749   2.432   5.905  0.3557 -0.1510 -0.2411
 2101SOL    HW1 6302   1.676   2.418   5.844 -1.4049 -0.5110  1.8064
 2101SOL    HW2 6303   1.726   2.513   5.950  1.1453 -0.3689  0.5557
 2102SOL     OW 6304   4.055   3.326   5.331  0.0004  0.0520 -0.7024
 2102SOL    HW1 6305   4.024   3.247   5.286 -0.9676 -0.0185  0.0589
 2102SOL    HW2 6306   4.097   3.295   5.410  1.1159  0.2206 -1.2060
 2103SOL     OW 6307   0.508   0.816   7.928  0.3359 -0.2762 -0.3061
 2103SOL    HW1 6308   0.555   0.736   7.906  0.6861 -0.2323  0.2651
 2103SOL    HW2 6309   0.503   0.864   7.845  2.1554  0.1446 -0.2167
 2104SOL     OW 6310   2.117   1.521   6.212 -0.0458 -0.3209  0.0133
 2104SOL    HW1 6311   2.025   1.524   6.184 -1.1430  1.6308  3.2860
 2104SOL    HW2 6312   2.149   1.610   6.201  1.2375 -0.8082 -0.3539
 2105SOL     OW 6313   4.430   3.800   6.169  0.3142  0.5074 -0.9047
 2105SOL    HW1 6314   4.484   3.727   6.138 -2.1779 -1.8806 -0.0424
 2105SOL    HW2 6315   4.448   3.807   6.262 -0.7193 -0.2457 -0.6285
 2106SOL     OW 6316   1.061   0.808   6.783  0.0748  1.1572 -0.6854
 2106SOL    HW1 6317   1.124   0.793   6.853  0.4714  1.0943 -1.0516
 2106SOL    HW2 6318   1.023   0.894   6.803 -0.3860  0.7902  0.0339
 2107SOL     OW 6319   3.912   1.614   6.108 -0.5216  0.4807  0.3508
 2107SOL    HW1 6320   3.924   1.519   6.110  0.8809  0.3938 -3.5254
 2107SOL    HW2 6321   3.826   1.627   6.070 -0.7612  0.8139  0.9821
 2108SOL     OW 6322   3.760   4.501   6.772 -0.5221 -0.0022 -0.2022
 2108SOL    HW1 6323   3.798   4.583   6.805 -0.8635  0.0073  0.1792
 2108SOL    HW2 6324   3.786   4.498   6.680  0.2612  0.0866  0.0024
 2109SOL     OW 6325   2.271   1.708   5.656 -0.0010 -0.4154 -0.0039
 2109SOL    HW1 6326   2.252   1.677   5.567 -4.7061 -0.7531  0.8717
 2109SOL    HW2 6327   2.221   1.789   5.665  0.4144 -0.3339  2.3322
 2110SOL     OW 6328   1.245   1.419   6.756  0.1904  0.6285 -0.2239
 2110SOL    HW1 6329   1.237   1.503   6.712 -0.2495  0.1940 -0.9979
 2110SOL    HW2 6330   1.226   1.438   6.848  2.0298  1.6988 -0.0291
 2111SOL     OW 6331   1.231   3.980   5.193 -0.3319  0.2742  0.2755
 2111SOL    HW1 6332   1.230   3.938   5.106 -1.5160 -2.3122  1.4166
 2111SOL    HW2 6333   1.323   4.005   5.206  0.3694 -1.4851 -0.7944
 2112SOL     OW 6334   2.222   3.812   7.646  0.3632 -0.3754 -0.2089
 2112SOL    HW1 6335   2.147   3.867   7.666  1.6452  1.2225  0.4321
 2112SOL    HW2 6336   2.185   3.726   7.629 -1.5913  0.3492  0.1551
 2113SOL     OW 6337   2.626   1.902   6.517 -0.3582 -0.5264 -0.3211
 2113SOL    HW1 6338   2.543   1.946   6.531  0.6817  0.6604  3.2430
 2113SOL    HW2 6339   2.671   1.953   6.450 -0.2720  2.4125  1.8057
 2114SOL     OW 6340   1.768   0.121   5.639 -0.1329  0.3028  0.5115
 2114SOL    HW1 6341   1.678   0.089   5.646 -0.6422  1.5156 -0.2829
 2114SOL    HW2 6342   1.762   0.199   5.585  1.3894  0.4874  0.5655
 2115SOL     OW 6343   3.537   0.018   9.077  0.1472 -0.3375  0.2519
 2115SOL    HW1 6344   3.446   0.047   9.067  0.3102  0.2312  0.4202
 2115SOL    HW2 6345   3.583   0.056   9.002  0.1757 -0.9347 -0.0398
 2116SOL     OW 6346   3.322   4.107   6.084 -0.5203  0.5515  0.5781
 2116SOL    HW1 6347   3.365   4.193   6.075  0.4274  0.1778  1.3911
 2116SOL    HW2 6348   3.228   4.127   6.078 -0.2665  1.2655 -2.2929
 2117SOL     OW 6349   0.518   2.442   7.093  0.0805 -0.0642  0.0558
 2117SOL    HW1 6350   0.603   2.478   7.119  0.8396 -1.7495 -0.0225
 2117SOL    HW2 6351   0.511   2.360   7.141 -1.5187  0.0447  0.0537
 2118SOL     OW 6352   3.024   2.166   4.993 -0.3472 -0.7283 -0.1736
 2118SOL    HW1 6353   2.968   2.136   4.921 -1.0214  0.5799 -0.2157
 2118SOL    HW2 6354   3.007   2.104   5.064  0.0537 -1.8244 -0.9991
 2119SOL     OW 6355   4.325   4.154   8.865 -0.0212  0.2446  0.4054
 2119SOL    HW1 6356   4.349   4.167   8.773  0.8056  0.3503  0.6263
 2119SOL    HW2 6357   4.408   4.158   8.912 -0.4674  0.4869  1.1926
 2120SOL     OW 6358   0.353   0.244   8.798  0.3447  0.4115  0.2100
 2120SOL    HW1 6359   0.296   0.174   8.766 -0.9132  0.4492  2.2157
 2120SOL    HW2 6360   0.410   0.201   8.861  1.3387  0.7353 -0.4439
 2121SOL     OW 6361   4.904   3.034   6.075  0.0188  0.8173 -0.3448
 2121SOL    HW1 6362   4.969   3.012   6.009  0.0549  0.7423 -0.2853
 2121SOL    HW2 6363   4.951   3.088   6.139  0.7072 -1.2755  1.0296
 2122SOL     OW 6364   4.900   3.008   7.256  0.3944  0.4729 -0.0922
 2122SOL    HW1 6365   4.938   2.994   7.169 -1.0537 -0.8421 -0.5558
 2122SOL    HW2 6366   4.975   3.026   7.313  2.0355 -3.7490 -0.5896
 2123SOL     OW 6367   4.319   3.369   5.595 -0.0692  0.4860  0.0553
 2123SOL    HW1 6368   4.289   3.347   5.683  0.3503  1.3637  0.4255
 2123SOL    HW2 6369   4.313   3.464   5.590  0.7912  0.5213 -0.5367
 2124SOL     OW 6370   0.755   4.546   6.039  0.5896 -1.3632  0.1075
 2124SOL    HW1 6371   0.799   4.543   5.954 -1.2154 -1.4845 -0.8581
 2124SOL    HW2 6372   0.722   4.458   6.053  0.6254 -1.2725  0.8069
 2125SOL     OW 6373   3.183   3.426   5.884 -0.0069  0.0359  0.0045
 2125SOL    HW1 6374   3.101   3.474   5.871  0.1616  0.4106  0.3141
 2125SOL    HW2 6375   3.170   3.344   5.837  0.0291  0.7336 -1.2646
 2126SOL     OW 6376   3.223   3.037   6.188  0.2827  0.8124 -0.4148
 2126SOL    HW1 6377   3.303   3.030   6.240 -0.1366  0.7031  0.2177
 2126SOL    HW2 6378   3.250   3.086   6.110  0.9039  1.0203 -0.0750
 2127SOL     OW 6379   1.243   1.623   5.744 -0.2251 -0.0029 -0.8942
 2127SOL    HW1 6380   1.183   1.552   5.721 -0.8865  0.7184 -1.4554
 2127SOL    HW2 6381   1.201   1.666   5.819  1.1257 -1.3558  0.7107
 2128SOL     OW 6382   3.010   1.538   6.217 -0.1478 -0.2988 -0.0131
 2128SOL    HW1 6383   3.025   1.608   6.153  1.0847 -1.0680 -0.5964
 2128SOL    HW2 6384   3.027   1.579   6.302 -1.3855  0.6182 -0.1692
 2129SOL     OW 6385   2.315   1.225   6.620 -0.3240 -0.2965  0.4018
 2129SOL    HW1 6386   2.361   1.173   6.686 -0.1244 -0.3084  0.2560
 2129SOL    HW2 6387   2.304   1.166   6.546  0.1166 -0.0700  0.1446
 2130SOL     OW 6388   2.585   1.778   7.277  0.1941 -0.0310 -0.9645
 2130SOL    HW1 6389   2.555   1.827   7.353  1.5612  0.4484 -0.7123
 2130SOL    HW2 6390   2.505   1.749   7.234 -0.6036  0.4679  0.1521
 2131SOL     OW 6391   0.732   2.353   8.226 -0.6697  0.3305  0.5295
 2131SOL    HW1 6392   0.708   2.348   8.134  0.6225  1.4937  0.0977
 2131SOL    HW2 6393   0.716   2.265   8.260 -1.0245 -0.1525 -0.8322
 2132SOL     OW 6394   2.813   1.965   5.308 -0.4319 -0.0875  0.1837
 2132SOL    HW1 6395   2.745   1.962   5.240  1.2304 -0.2020 -1.5621
 2132SOL    HW2 6396   2.855   2.050   5.295  0.7774 -0.6696  0.1641
 2133SOL     OW 6397   3.706   2.170   5.601  0.5994  0.6368  0.0052
 2133SOL    HW1 6398   3.699   2.138   5.691 -1.8678  2.8564  0.7156
 2133SOL    HW2 6399   3.775   2.236   5.604  1.0215  0.1987  0.0766
 2134SOL     OW 6400   3.083   1.793   6.119 -0.3071 -0.3563  0.0497
 2134SOL    HW1 6401   3.107   1.854   6.188 -0.9333  0.3049 -0.3037
 2134SOL    HW2 6402   3.163   1.743   6.102 -0.0974 -0.4051  1.1148
 2135SOL     OW 6403   0.491   1.177   7.190 -0.3091 -0.2728  0.2020
 2135SOL    HW1 6404   0.477   1.240   7.260  0.4204 -0.3392  0.4197
 2135SOL    HW2 6405   0.411   1.181   7.137 -0.9814 -0.4325  1.1890
 2136SOL     OW 6406   1.826   0.621   5.649  0.1243  0.2055  0.5518
 2136SOL    HW1 6407   1.805   0.656   5.736 -0.9972  0.4012  0.2148
 2136SOL    HW2 6408   1.868   0.537   5.666  0.6478  0.6079  1.3027
 2137SOL     OW 6409   3.207   2.445   5.041 -0.3494  0.1134  0.1957
 2137SOL    HW1 6410   3.256   2.367   5.016  0.2909  0.4252  0.4613
 2137SOL    HW2 6411   3.271   2.501   5.085 -0.2488  1.7300 -1.8411
 2138SOL     OW 6412   0.900   2.575   8.634 -0.1012  0.7658  0.4480
 2138SOL    HW1 6413   0.928   2.501   8.688  0.9673  0.4674 -0.4760
 2138SOL    HW2 6414   0.816   2.547   8.597  0.2900  0.0021  0.1111
 2139SOL     OW 6415   0.213   4.222   6.538  0.4087  0.1317  0.3825
 2139SOL    HW1 6416   0.125   4.196   6.508 -0.5437  3.0620  0.3472
 2139SOL    HW2 6417   0.214   4.317   6.529  2.8276  0.3952  2.4797
 2140SOL     OW 6418   2.458   1.387   7.796  0.0016  0.0541  0.3003
 2140SOL    HW1 6419   2.528   1.352   7.741 -2.2522 -0.2049 -2.6550
 2140SOL    HW2 6420   2.430   1.312   7.849  0.1148 -0.6165 -0.5626
 2141SOL     OW 6421   1.476   0.690   4.949  0.3815  0.2375 -0.7740
 2141SOL    HW1 6422   1.381   0.686   4.955  0.4017 -0.0471 -0.6387
 2141SOL    HW2 6423   1.506   0.601   4.970  0.6109 -0.0138 -2.0791
 2142SOL     OW 6424   0.798   4.171   5.714 -0.0212 -0.0279  0.3655
 2142SOL    HW1 6425   0.802   4.267   5.716 -0.4481  0.0006 -0.0738
 2142SOL    HW2 6426   0.781   4.149   5.622 -1.1592 -0.4783  0.6700
 2143SOL     OW 6427   0.186   3.513   6.468  0.0398  0.4763  0.5108
 2143SOL    HW1 6428   0.240   3.434   6.464 -3.3366 -1.9977  0.0174
 2143SOL    HW2 6429   0.167   3.533   6.376 -1.2964  0.1916  0.7074
 2144SOL     OW 6430   2.291   2.356   5.873  0.0980  0.1073  0.0356
 2144SOL    HW1 6431   2.313   2.312   5.956  1.9637 -0.3088 -0.6347
 2144SOL    HW2 6432   2.196   2.368   5.877 -0.0250 -1.0565  1.6741
 2145SOL     OW 6433   4.520   0.538   8.297 -0.2953 -0.1987 -0.4878
 2145SOL    HW1 6434   4.550   0.532   8.388 -0.8269  0.1333 -0.2884
 2145SOL    HW2 6435   4.519   0.632   8.278 -2.8988 -0.0467  0.0937
 2146SOL     OW 6436   3.491   4.507   5.650  0.1097 -0.4757  0.2919
 2146SOL    HW1 6437   3.541   4.550   5.581  0.1921 -0.7380  0.1850
 2146SOL    HW2 6438   3.536   4.423   5.663 -0.9034 -1.1727 -0.5309
 2147SOL     OW 6439   2.339   2.578   5.514  0.2395 -0.1056  0.4875
 2147SOL    HW1 6440   2.434   2.579   5.513  0.2520  1.8093  0.1137
 2147SOL    HW2 6441   2.313   2.635   5.441 -1.1769 -0.1619  0.9089
 2148SOL     OW 6442   1.042   1.641   7.807 -0.4774  0.0424 -0.5937
 2148SOL    HW1 6443   1.017   1.549   7.813 -1.4622  0.3438  0.1870
 2148SOL    HW2 6444   1.095   1.656   7.885 -4.1954  1.2387  1.9812
 2149SOL     OW 6445   3.161   2.787   5.177 -0.1770  0.5581  0.3422
 2149SOL    HW1 6446   3.112   2.705   5.186 -0.7612  0.8545 -0.0313
 2149SOL    HW2 6447   3.233   2.779   5.239 -0.6044  0.0318  0.7847
 2150SOL     OW 6448   2.952   3.003   6.180  0.4892  0.0148 -0.1048
 2150SOL    HW1 6449   2.900   3.061   6.126  0.3699  1.7953  1.8222
 2150SOL    HW2 6450   3.036   3.049   6.191 -0.2668  0.8342  2.9996
 2151SOL     OW 6451   1.428   2.529   8.392 -0.7261 -0.0406 -0.3053
 2151SOL    HW1 6452   1.352   2.526   8.450 -0.2913 -0.9460  0.2373
 2151SOL    HW2 6453   1.502   2.504   8.447 -0.4973 -2.3176 -1.5193
 2152SOL     OW 6454   2.923   0.046   5.978 -0.6598  0.4745 -0.0050
 2152SOL    HW1 6455   2.971   0.125   5.954  1.4742 -0.7999 -0.1852
 2152SOL    HW2 6456   2.969   0.013   6.056 -1.9327 -0.2474  0.4798
 2153SOL     OW 6457   3.614   1.736   4.961  0.1410  0.4624 -0.1651
 2153SOL    HW1 6458   3.705   1.764   4.967  0.6111 -0.9040 -0.5528
 2153SOL    HW2 6459   3.618   1.641   4.954 -1.2552  0.4584 -1.4945
 2154SOL     OW 6460   1.979   0.318   6.253 -0.5749 -0.2371  1.0788
 2154SOL    HW1 6461   2.066   0.337   6.288 -0.9940 -0.2081  2.1246
 2154SOL    HW2 6462   1.967   0.224   6.267 -0.0239 -0.6095 -0.6692
 2155SOL     OW 6463   2.917   0.180   7.611  0.1405  0.0951 -0.0652
 2155SOL    HW1 6464   2.852   0.239   7.572  0.8125  1.3109  0.5895
 2155SOL    HW2 6465   2.933   0.114   7.544  1.2154  2.0809 -1.8838
 2156SOL     OW 6466   2.732   4.636   5.534  0.5796 -0.7648 -0.1993
 2156SOL    HW1 6467   2.763   4.552   5.499  1.0999 -1.0813  0.9927
 2156SOL    HW2 6468   2.693   4.680   5.458  0.1740 -2.1300 -0.8195
 2157SOL     OW 6469   0.807   2.225   5.385 -0.6291  0.1928  0.1543
 2157SOL    HW1 6470   0.730   2.168   5.396  0.2938 -1.2928 -0.6635
 2157SOL    HW2 6471   0.802   2.252   5.293  0.6926 -1.3334 -0.4196
 2158SOL     OW 6472   4.839   4.195   5.725 -0.4229  0.6582  0.1180
 2158SOL    HW1 6473   4.805   4.255   5.791 -1.1220 -0.2864  0.6341
 2158SOL    HW2 6474   4.769   4.131   5.712  0.9654 -1.1179  0.9353
 2159SOL     OW 6475   3.678   1.990   6.199 -0.8671 -0.8856  0.2972
 2159SOL    HW1 6476   3.653   2.038   6.279 -0.2169 -1.0799  0.6273
 2159SOL    HW2 6477   3.654   1.899   6.217 -0.4758 -0.9739  0.3805
 2160SOL     OW 6478   3.256   2.833   7.517  0.3426 -0.2741  0.3698
 2160SOL    HW1 6479   3.331   2.886   7.488 -0.1671  0.4150  0.2966
 2160SOL    HW2 6480   3.183   2.864   7.463 -0.3508  0.1717  1.5319
 2161SOL     OW 6481   3.472   2.218   6.237  0.3218  0.2976  0.1721
 2161SOL    HW1 6482   3.395   2.264   6.271  0.0533 -1.4442  2.1103
 2161SOL    HW2 6483   3.522   2.194   6.315  1.7667 -0.4022 -0.9276
 2162SOL     OW 6484   1.316   3.535   6.034  0.0422  0.1157 -0.7583
 2162SOL    HW1 6485   1.333   3.482   6.112 -0.0942  1.3830  0.1608
 2162SOL    HW2 6486   1.239   3.586   6.057  0.4708  1.0757 -1.4300
 2163SOL     OW 6487   4.936   1.697   4.998  0.3751 -0.4426  0.6318
 2163SOL    HW1 6488   4.932   1.658   4.911 -1.5372 -2.3641  1.4852
 2163SOL    HW2 6489   4.943   1.791   4.982  1.4857 -0.8382 -1.5524
 2164SOL     OW 6490   3.649   2.779   6.351  0.3075  0.3747 -0.0822
 2164SOL    HW1 6491   3.685   2.711   6.407  0.7599  0.4411 -0.2880
 2164SOL    HW2 6492   3.712   2.787   6.279 -0.9490 -0.6815 -1.3599
 2165SOL     OW 6493   3.718   3.702   6.303  0.0982  0.4843  0.4829
 2165SOL    HW1 6494   3.709   3.797   6.295  2.6734  0.8596  0.9838
 2165SOL    HW2 6495   3.649   3.676   6.364 -1.8643  1.6879 -1.0845
 2166SOL     OW 6496   4.838   0.634   7.652 -0.5668 -0.1896 -0.0159
 2166SOL    HW1 6497   4.837   0.614   7.559  2.5357  1.3503 -0.5253
 2166SOL    HW2 6498   4.747   0.652   7.675 -1.0913  3.0006 -3.6443
 2167SOL     OW 6499   3.148   4.366   7.090  0.3153 -0.1968 -0.1629
 2167SOL    HW1 6500   3.149   4.458   7.063 -0.8090 -0.0749  0.1614
 2167SOL    HW2 6501   3.130   4.368   7.184  0.0497 -0.7532 -0.1969
 2168SOL     OW 6502   1.886   0.391   5.210 -0.0957 -1.5072 -0.6036
 2168SOL    HW1 6503   1.974   0.386   5.248 -0.8951 -0.8781  1.5010
 2168SOL    HW2 6504   1.838   0.320   5.252 -1.1489 -0.5099 -0.0691
 2169SOL     OW 6505   2.548   2.453   5.882 -0.3850 -0.2460 -0.5571
 2169SOL    HW1 6506   2.583   2.445   5.794 -0.3465  0.8884 -0.6620
 2169SOL    HW2 6507   2.456   2.428   5.874 -0.0307 -1.6087 -0.6087
 2170SOL     OW 6508   4.767   0.164   5.503 -0.1724  0.1533 -0.0504
 2170SOL    HW1 6509   4.861   0.181   5.498 -0.0857 -0.4209 -0.4592
 2170SOL    HW2 6510   4.755   0.081   5.456 -0.8688  0.1757  0.0786
 2171SOL     OW 6511   3.439   4.220   8.338 -0.2739  0.5818  0.2240
 2171SOL    HW1 6512   3.489   4.301   8.327 -0.9940  0.9671 -0.2888
 2171SOL    HW2 6513   3.348   4.249   8.343 -0.3776  0.0816  2.9987
 2172SOL     OW 6514   3.266   1.535   5.918  0.4418 -0.1437  0.3985
 2172SOL    HW1 6515   3.282   1.622   5.953 -0.6941 -0.2436  1.2326
 2172SOL    HW2 6516   3.333   1.480   5.960  0.1899  0.0564  1.0729
 2173SOL     OW 6517   1.117   1.335   5.385  0.7406 -0.0375 -0.0570
 2173SOL    HW1 6518   1.080   1.352   5.298  0.3340  2.1733  0.4819
 2173SOL    HW2 6519   1.173   1.411   5.403  2.2673 -1.3073  0.9003
 2174SOL     OW 6520   0.269   2.861   4.592 -0.1467 -0.0749  0.3889
 2174SOL    HW1 6521   0.240   2.915   4.519  1.5291 -0.4948 -0.6507
 2174SOL    HW2 6522   0.286   2.924   4.663  1.2344  0.7418 -0.6179
 2175SOL     OW 6523   3.295   3.002   6.958  0.2759  0.3879  0.2381
 2175SOL    HW1 6524   3.303   3.087   7.003  1.4369  0.2063  0.4060
 2175SOL    HW2 6525   3.268   2.941   7.026 -0.3576  0.5750  0.1612
 2176SOL     OW 6526   2.252   2.313   6.913 -0.0134  0.0409 -0.2714
 2176SOL    HW1 6527   2.168   2.290   6.953  0.2472  2.8335  2.2511
 2176SOL    HW2 6528   2.230   2.380   6.848  0.1569  0.0615 -0.3088
 2177SOL     OW 6529   2.094   2.603   7.987 -0.2009  0.2701  0.5098
 2177SOL    HW1 6530   2.110   2.509   7.976 -2.1804  0.0383 -0.8306
 2177SOL    HW2 6531   2.182   2.640   7.997  0.8889 -1.3720 -1.9723
 2178SOL     OW 6532   3.971   1.084   6.488 -0.2202  0.3138  0.3443
 2178SOL    HW1 6533   3.906   1.083   6.558  1.5617  0.7360  2.1294
 2178SOL    HW2 6534   4.004   1.174   6.488  1.1518 -0.1686  0.3135
 2179SOL     OW 6535   2.304   0.980   5.823  0.1057 -0.8351  0.3381
 2179SOL    HW1 6536   2.343   0.895   5.845  1.3149 -0.6213 -0.8603
 2179SOL    HW2 6537   2.234   0.960   5.761  1.0726 -0.8926 -0.7570
 2180SOL     OW 6538   0.669   1.216   5.364  0.1158  0.6840  0.0943
 2180SOL    HW1 6539   0.598   1.178   5.415 -1.8448  2.1924 -1.3870
 2180SOL    HW2 6540   0.658   1.181   5.276  1.5423  0.5550 -0.0606
 2181SOL     OW 6541   2.913   3.777   7.005  0.1621  0.0619 -0.4764
 2181SOL    HW1 6542   2.833   3.742   7.045 -0.6147  3.0482  0.9222
 2181SOL    HW2 6543   2.977   3.777   7.077  0.1263  1.3843 -0.4159
 2182SOL     OW 6544   4.560   0.273   5.663 -0.8610 -0.0747 -0.2277
 2182SOL    HW1 6545   4.597   0.217   5.594 -0.9296 -3.5207  2.3074
 2182SOL    HW2 6546   4.634   0.290   5.721 -0.9771  2.1927 -0.6643
 2183SOL     OW 6547   4.198   4.321   5.323  0.0364  0.6552  0.2935
 2183SOL    HW1 6548   4.198   4.279   5.409  1.4018  1.9911  0.9808
 2183SOL    HW2 6549   4.169   4.252   5.264 -0.4733 -0.4395  1.7454
 2184SOL     OW 6550   1.377   3.463   4.886 -0.3284 -0.9530  0.0875
 2184SOL    HW1 6551   1.455   3.418   4.855  1.4950  1.8348  0.2681
 2184SOL    HW2 6552   1.363   3.428   4.974 -0.8688 -3.2752 -0.8492
 2185SOL     OW 6553   3.559   2.221   6.909  0.1030  0.3822  0.2926
 2185SOL    HW1 6554   3.561   2.130   6.882  0.2693  1.1611 -2.7281
 2185SOL    HW2 6555   3.466   2.243   6.911  0.0902  0.3242  0.3400
 2186SOL     OW 6556   1.960   1.583   5.816  0.0163 -0.5569  0.5686
 2186SOL    HW1 6557   1.944   1.589   5.722  0.0575  0.1116  0.5966
 2186SOL    HW2 6558   2.055   1.589   5.825  0.0589 -1.2119  0.6207
 2187SOL     OW 6559   3.515   3.499   4.608  0.0726  0.7067 -0.1906
 2187SOL    HW1 6560   3.522   3.552   4.687  0.3597  0.9671 -0.3917
 2187SOL    HW2 6561   3.592   3.521   4.556 -2.0490  3.6700 -2.4464
 2188SOL     OW 6562   1.808   3.143   6.268  0.0262 -0.2767 -0.8588
 2188SOL    HW1 6563   1.853   3.188   6.339  0.2025 -1.4629 -0.1893
 2188SOL    HW2 6564   1.877   3.119   6.206 -0.1637  1.0016 -1.5796
 2189SOL     OW 6565   3.154   4.579   5.786 -0.3956 -0.4865 -0.4595
 2189SOL    HW1 6566   3.123   4.629   5.710  1.1070 -0.1699 -0.8892
 2189SOL    HW2 6567   3.129   4.489   5.766  0.7029 -0.5349 -1.7456
 2190SOL     OW 6568   2.712   4.221   7.350  0.1821  0.1192  0.3115
 2190SOL    HW1 6569   2.617   4.219   7.333  0.2578  0.1615 -0.1144
 2190SOL    HW2 6570   2.745   4.292   7.296  0.5534 -0.3081 -0.0291
 2191SOL     OW 6571   2.155   3.861   8.487 -0.3853 -0.1099 -0.3098
 2191SOL    HW1 6572   2.242   3.901   8.498  0.4861 -1.7228 -1.0191
 2191SOL    HW2 6573   2.105   3.890   8.563  0.9159  0.4986  0.3372
 2192SOL     OW 6574   2.201   4.467   8.441 -0.4215  0.4250 -0.1440
 2192SOL    HW1 6575   2.169   4.469   8.531  2.3585  2.2634  0.9383
 2192SOL    HW2 6576   2.260   4.542   8.434  1.3120 -1.0022 -2.7707
 2193SOL     OW 6577   3.185   4.974   6.135 -0.0795  0.2863  0.4606
 2193SOL    HW1 6578   3.175   4.917   6.059 -1.5170  0.6385  0.3623
 2193SOL    HW2 6579   3.223   4.918   6.203 -1.6614 -0.8670  0.4356
 2194SOL     OW 6580   4.303   4.163   8.276 -0.4463 -0.0565 -0.1411
 2194SOL    HW1 6581   4.349   4.079   8.277 -0.1290  0.1232  0.6086
 2194SOL    HW2 6582   4.212   4.141   8.256 -0.1831 -0.4787 -0.9431
 2195SOL     OW 6583   3.744   2.515   6.483 -0.3097  0.4778 -0.5081
 2195SOL    HW1 6584   3.818   2.456   6.493  2.2896  3.7245  1.5476
 2195SOL    HW2 6585   3.672   2.472   6.529  0.6060 -2.1701 -1.3787
 2196SOL     OW 6586   0.509   3.463   6.009  0.1050  0.1973  0.5617
 2196SOL    HW1 6587   0.442   3.403   5.977 -0.8196 -0.1226  2.9254
 2196SOL    HW2 6588   0.591   3.427   5.977 -0.5155 -1.7503  1.0730
 2197SOL     OW 6589   3.261   3.432   4.986 -0.4832 -0.8106 -0.1621
 2197SOL    HW1 6590   3.324   3.386   5.041  0.1807 -0.3903 -0.5570
 2197SOL    HW2 6591   3.242   3.371   4.915 -1.4743 -1.4248  0.5928
 2198SOL     OW 6592   1.861   1.518   6.113  0.2460  0.6652  0.0031
 2198SOL    HW1 6593   1.832   1.435   6.151  2.0476  0.1898  0.4250
 2198SOL    HW2 6594   1.831   1.514   6.022  3.3296 -2.1795 -1.1142
 2199SOL     OW 6595   0.185   2.806   5.527 -0.0555 -0.3308 -0.1400
 2199SOL    HW1 6596   0.228   2.725   5.555 -0.1555 -0.5151 -0.5169
 2199SOL    HW2 6597   0.106   2.777   5.481  0.1370 -0.0347 -0.6675
 2200SOL     OW 6598   0.367   3.637   5.572  0.4600  0.7160  0.5283
 2200SOL    HW1 6599   0.288   3.617   5.522 -0.6406  0.9274  2.1047
 2200SOL    HW2 6600   0.437   3.639   5.506 -0.9494  1.2835 -1.0323
 2201SOL     OW 6601   2.749   2.465   6.155 -0.3580  0.5113  0.6978
 2201SOL    HW1 6602   2.744   2.434   6.065 -1.0021  1.6989  0.3038
 2201SOL    HW2 6603   2.742   2.385   6.208 -0.8338 -0.1214 -0.2822
 2202SOL     OW 6604   4.031   1.817   6.403 -0.5615  0.0623  0.1459
 2202SOL    HW1 6605   4.065   1.731   6.428  2.0958  1.1923  0.6883
 2202SOL    HW2 6606   3.950   1.826   6.453 -0.7907 -2.0065  0.2333
 2203SOL     OW 6607   2.541   4.121   6.872  0.0372  0.2492  0.0517
 2203SOL    HW1 6608   2.504   4.208   6.885  0.3986  0.1105  2.3976
 2203SOL    HW2 6609   2.464   4.064   6.861 -0.3819  0.4508  1.6206
 2204SOL     OW 6610   4.359   4.903   6.457 -0.1706  0.4200  0.0671
 2204SOL    HW1 6611   4.382   4.839   6.390 -1.5337 -1.5037  1.3541
 2204SOL    HW2 6612   4.424   4.892   6.525 -1.6705 -1.2738  1.3064
 2205SOL     OW 6613   2.678   2.701   7.134  0.5523 -0.1478  0.1995
 2205SOL    HW1 6614   2.696   2.749   7.054  4.9945  0.1181  1.0627
 2205SOL    HW2 6615   2.665   2.769   7.201 -0.9543 -0.3428  0.1340
 2206SOL     OW 6616   1.414   0.446   8.087  0.5207  0.5274 -0.0540
 2206SOL    HW1 6617   1.405   0.434   8.182  2.2520  0.0329  0.0742
 2206SOL    HW2 6618   1.453   0.532   8.077  1.2498  0.1748 -0.2657
 2207SOL     OW 6619   4.427   3.400   8.038  0.0885 -0.0962 -0.0796
 2207SOL    HW1 6620   4.431   3.304   8.047 -1.1881 -0.3382 -1.6134
 2207SOL    HW2 6621   4.518   3.428   8.042  0.4185 -1.2463  1.4757
 2208SOL     OW 6622   4.060   2.507   7.813 -0.1518 -0.2769 -0.3106
 2208SOL    HW1 6623   4.055   2.451   7.735 -0.9402 -0.0710 -0.4099
 2208SOL    HW2 6624   4.091   2.591   7.780 -0.6292 -0.1448 -0.4314
 2209SOL     OW 6625   4.904   3.332   5.442 -0.9900 -0.2167 -0.2530
 2209SOL    HW1 6626   4.968   3.261   5.435 -1.8179 -0.9834 -0.3048
 2209SOL    HW2 6627   4.889   3.360   5.351 -0.2965  0.3641 -0.1899
 2210SOL     OW 6628   1.172   0.702   5.088  0.0586 -0.0107 -0.1514
 2210SOL    HW1 6629   1.243   0.659   5.135 -1.1179 -0.3708  1.3788
 2210SOL    HW2 6630   1.146   0.774   5.146 -0.4812  0.4472 -0.9452
 2211SOL     OW 6631  -0.032   4.182   7.517  0.4817 -0.5111  0.6703
 2211SOL    HW1 6632   0.047   4.138   7.547  0.5407 -2.1249 -1.5631
 2211SOL    HW2 6633  -0.001   4.260   7.471  1.1764 -2.5587 -2.6842
 2212SOL     OW 6634   1.485   3.075   4.801 -0.1534 -0.5412 -0.2928
 2212SOL    HW1 6635   1.527   3.088   4.886  0.9555 -0.9882 -0.7631
 2212SOL    HW2 6636   1.557   3.072   4.739 -0.9109 -0.9830 -1.1640
 2213SOL     OW 6637   2.523   0.938   6.115  0.2436 -0.3294  0.1388
 2213SOL    HW1 6638   2.520   1.016   6.060  2.0936  0.0357  0.4728
 2213SOL    HW2 6639   2.603   0.892   6.086  0.4515 -0.8784  1.5209
 2214SOL     OW 6640   4.574   0.936   6.281  0.0610 -0.1438 -0.1121
 2214SOL    HW1 6641   4.657   0.909   6.242 -0.0372 -0.8463  0.1524
 2214SOL    HW2 6642   4.576   0.900   6.370 -0.4581 -0.0224 -0.0465
 2215SOL     OW 6643   1.946   4.791  10.179 -0.3176  0.4768  0.0379
 2215SOL    HW1 6644   1.967   4.701  10.205 -0.7890  0.8616  1.8869
 2215SOL    HW2 6645   1.861   4.809  10.220 -0.3982  1.6449 -0.6088
 2216SOL     OW 6646   1.641   0.510   7.303  0.5227  0.7874  0.5017
 2216SOL    HW1 6647   1.549   0.495   7.327  1.0894  1.7095  3.7064
 2216SOL    HW2 6648   1.641   0.597   7.262  0.1221  1.6016  2.1323
 2217SOL     OW 6649   2.141   3.597   8.543  0.8789  0.3511 -0.3271
 2217SOL    HW1 6650   2.141   3.688   8.514 -0.5679  0.4820  0.0276
 2217SOL    HW2 6651   2.091   3.597   8.625  1.7610 -0.6017  0.2418
 2218SOL     OW 6652   4.475   1.453   5.878  0.1228 -0.3645  0.1659
 2218SOL    HW1 6653   4.379   1.456   5.870  0.2297  3.5013 -3.1076
 2218SOL    HW2 6654   4.505   1.417   5.794  1.5824 -1.6844  1.2123
 2219SOL     OW 6655   4.297   2.428   6.607 -0.3563 -1.2172  0.5635
 2219SOL    HW1 6656   4.249   2.446   6.688 -1.7269 -0.2023 -0.4145
 2219SOL    HW2 6657   4.379   2.476   6.618 -0.0850 -1.9030  1.7395
 2220SOL     OW 6658   3.792   1.720   7.261 -0.8053  0.3863  0.3575
 2220SOL    HW1 6659   3.724   1.706   7.196  0.7163  2.1773 -1.7764
 2220SOL    HW2 6660   3.752   1.778   7.325 -1.5042  0.9032 -0.5237
 2221SOL     OW 6661   2.731   4.386   5.849 -0.0045  0.0397 -0.2835
 2221SOL    HW1 6662   2.718   4.478   5.826 -0.8895  0.2335  0.9240
 2221SOL    HW2 6663   2.647   4.357   5.882  0.6531 -0.7878  0.7324
 2222SOL     OW 6664   1.848   0.016   5.872  0.4799  0.3647  0.8472
 2222SOL    HW1 6665   1.868   0.103   5.908  1.2528  0.1539  0.9433
 2222SOL    HW2 6666   1.837   0.031   5.778  1.4700  0.4417  0.7290
 2223SOL     OW 6667   2.247   2.978   5.056 -0.2338 -0.1916 -0.4649
 2223SOL    HW1 6668   2.337   2.970   5.024 -0.3109  0.6948 -0.9325
 2223SOL    HW2 6669   2.254   3.027   5.137 -0.1560 -1.4539  0.3197
 2224SOL     OW 6670   1.405   3.349   7.244 -0.0286 -0.5568  0.1812
 2224SOL    HW1 6671   1.470   3.324   7.309  0.3161 -0.9307 -0.2993
 2224SOL    HW2 6672   1.403   3.276   7.182  1.4334  0.8084 -1.6000
 2225SOL     OW 6673   3.301   4.436   5.412  0.7983  0.3868 -0.1945
 2225SOL    HW1 6674   3.345   4.479   5.485 -0.1404 -0.7993  1.1187
 2225SOL    HW2 6675   3.228   4.495   5.391  0.5633  0.3230  0.4103
 2226SOL     OW 6676   2.916   1.877   5.887 -0.3130 -0.5178  0.3005
 2226SOL    HW1 6677   2.928   1.844   5.976  0.5156 -0.9537  0.0367
 2226SOL    HW2 6678   2.970   1.956   5.884  0.5648 -1.1246 -0.1484
 2227SOL     OW 6679   1.401   3.980   8.234 -0.3380  0.0880  0.2525
 2227SOL    HW1 6680   1.479   3.925   8.243 -2.4510 -3.2333 -0.0120
 2227SOL    HW2 6681   1.425   4.044   8.168  1.7490 -1.7481 -0.9282
 2228SOL     OW 6682   1.613   4.222   6.871  0.0197  0.7974  0.3980
 2228SOL    HW1 6683   1.681   4.184   6.816 -0.4787 -0.1240  0.3939
 2228SOL    HW2 6684   1.645   4.310   6.891  1.4697  0.2084  0.8422
 2229SOL     OW 6685   2.679   3.284   6.384 -0.2237 -0.0001 -0.5803
 2229SOL    HW1 6686   2.588   3.310   6.399  0.6353  2.5337  0.8912
 2229SOL    HW2 6687   2.700   3.318   6.298 -0.3763  0.3757 -0.4725
 2230SOL     OW 6688   3.136   1.857   8.309  0.7849  0.1341 -0.5094
 2230SOL    HW1 6689   3.131   1.887   8.218 -1.9157  1.3311 -0.0482
 2230SOL    HW2 6690   3.124   1.937   8.361 -2.1741 -1.0473  0.8162
 2231SOL     OW 6691   1.704   2.610   4.899  0.2160 -0.2007 -0.4533
 2231SOL    HW1 6692   1.724   2.556   4.822 -2.3406 -0.0037 -1.3446
 2231SOL    HW2 6693   1.711   2.549   4.973 -0.5733 -1.2706 -1.2282
 2232SOL     OW 6694   2.347   4.863   6.775 -0.3972  0.0733 -0.2735
 2232SOL    HW1 6695   2.352   4.940   6.719  0.0525  1.3064  1.3718
 2232SOL    HW2 6696   2.439   4.842   6.794 -0.5481 -0.0511  0.3320
 2233SOL     OW 6697   0.370   3.373   5.378 -0.3788 -0.4584 -0.2976
 2233SOL    HW1 6698   0.281   3.406   5.394 -0.0817 -0.1245  0.7909
 2233SOL    HW2 6699   0.426   3.449   5.394  0.1568 -0.8923 -0.1138
 2234SOL     OW 6700   0.975   4.361   4.818  0.1215 -0.5625 -0.2399
 2234SOL    HW1 6701   1.027   4.376   4.739 -1.7475 -0.5316 -1.5248
 2234SOL    HW2 6702   1.033   4.311   4.875  1.2162 -1.4654 -2.0328
 2235SOL     OW 6703   3.269   2.773   4.876  0.0722 -0.0003  0.1382
 2235SOL    HW1 6704   3.351   2.768   4.925 -0.7047  1.8613  1.7378
 2235SOL    HW2 6705   3.203   2.741   4.937 -0.7942  1.4718  0.0052
 2236SOL     OW 6706   2.416   2.453   5.099  0.3163 -0.1977 -0.5988
 2236SOL    HW1 6707   2.485   2.513   5.070  0.5719  0.9832  2.0639
 2236SOL    HW2 6708   2.463   2.374   5.125  0.6382  0.3190  0.4792
 2237SOL     OW 6709   3.824   2.861   7.385 -0.2443 -0.1697 -0.2984
 2237SOL    HW1 6710   3.825   2.850   7.481 -0.1381  2.2333  0.0349
 2237SOL    HW2 6711   3.904   2.910   7.366 -0.7800  0.2712 -1.4935
 2238SOL     OW 6712   3.825   3.027   5.623  0.7278  0.0458 -0.6970
 2238SOL    HW1 6713   3.873   3.082   5.685 -0.0039  1.7843 -1.6154
 2238SOL    HW2 6714   3.893   2.980   5.575  1.3508 -0.1798  0.3593
 2239SOL     OW 6715   0.964   2.558   5.453 -0.5070  0.4972 -0.0696
 2239SOL    HW1 6716   0.985   2.487   5.392 -1.6896  1.4232 -1.6366
 2239SOL    HW2 6717   0.909   2.516   5.519  1.0878 -0.6035  0.6195
 2240SOL     OW 6718   4.168   4.921   7.528 -0.0129  0.3005 -0.4762
 2240SOL    HW1 6719   4.143   4.839   7.572 -1.1160  0.2260 -1.2026
 2240SOL    HW2 6720   4.193   4.894   7.439  0.4497  0.6561 -0.4583
 2241SOL     OW 6721   2.803   3.672   8.392  0.1109 -0.1677 -0.2182
 2241SOL    HW1 6722   2.743   3.616   8.441 -2.0644  0.7163 -1.6974
 2241SOL    HW2 6723   2.843   3.614   8.328  0.4075 -0.6684  0.4169
 2242SOL     OW 6724   2.751   4.738   6.285 -0.5205 -0.1785  0.4809
 2242SOL    HW1 6725   2.779   4.647   6.278 -0.6536 -0.1903  0.0685
 2242SOL    HW2 6726   2.786   4.780   6.206  1.2951  0.6053  1.6441
 2243SOL     OW 6727   0.883   0.179   7.367  0.0668 -0.2098 -0.1544
 2243SOL    HW1 6728   0.893   0.217   7.454  0.4828 -0.0577 -0.2658
 2243SOL    HW2 6729   0.973   0.164   7.336 -0.0868 -0.8167 -0.3170
 2244SOL     OW 6730   3.110   1.946   6.392 -0.3432  0.1776 -0.4122
 2244SOL    HW1 6731   3.137   2.019   6.338  0.7592  1.4403  1.6997
 2244SOL    HW2 6732   3.096   1.984   6.479 -1.9682 -1.7302  0.2509
 2245SOL     OW 6733   2.637   0.592   6.205  0.6471 -0.3740 -0.0402
 2245SOL    HW1 6734   2.671   0.510   6.171 -1.9628 -1.8032  0.5513
 2245SOL    HW2 6735   2.620   0.575   6.298  1.1909  1.2488  0.3960
 2246SOL     OW 6736   2.152   1.957   5.660 -0.2429 -0.0551  0.3595
 2246SOL    HW1 6737   2.141   2.042   5.703  0.8826  0.9076 -1.1712
 2246SOL    HW2 6738   2.067   1.941   5.617  0.4402  1.8184 -1.8755
 2247SOL     OW 6739   0.355   2.617   6.110 -0.2568  0.0183  0.2864
 2247SOL    HW1 6740   0.385   2.558   6.180 -0.4599 -1.2687 -0.6817
 2247SOL    HW2 6741   0.267   2.586   6.089 -0.3885  0.7221 -0.1959
 2248SOL     OW 6742   4.810   3.599   5.544 -0.1961 -0.4346  0.2905
 2248SOL    HW1 6743   4.715   3.611   5.540 -0.5837 -2.0830  2.5545
 2248SOL    HW2 6744   4.824   3.506   5.529  0.8383 -0.5754  1.8146
 2249SOL     OW 6745   0.847   3.629   7.582  0.0872 -0.3361 -0.2933
 2249SOL    HW1 6746   0.931   3.660   7.549 -1.0850  1.3563 -1.8761
 2249SOL    HW2 6747   0.818   3.697   7.643 -0.3187 -0.7008 -0.0734
 2250SOL     OW 6748   0.803   4.621   6.940  0.2150  0.4527 -0.1278
 2250SOL    HW1 6749   0.817   4.541   6.991  0.5469  0.5435 -0.0758
 2250SOL    HW2 6750   0.885   4.670   6.950  0.2729  0.4780 -0.7359
 2251SOL     OW 6751   0.674   2.366   5.144  0.6411 -0.3861 -0.4624
 2251SOL    HW1 6752   0.719   2.413   5.073 -3.8083  0.6881 -2.9329
 2251SOL    HW2 6753   0.634   2.434   5.197  0.2412 -1.2754  0.4002
 2252SOL     OW 6754   1.551   1.516   6.014 -0.3227 -0.3313  0.3425
 2252SOL    HW1 6755   1.477   1.472   6.055  0.6899 -0.5038  2.0908
 2252SOL    HW2 6756   1.581   1.579   6.079  0.9251 -0.1056 -0.4081
 2253SOL     OW 6757   2.032   0.151   5.387  0.9025  0.2556 -0.0167
 2253SOL    HW1 6758   1.947   0.150   5.342  0.9885  0.4880 -0.1890
 2253SOL    HW2 6759   2.024   0.085   5.456  0.3895  0.6603  0.3219
 2254SOL     OW 6760   4.194   2.343   5.441  0.2392 -0.8614 -0.0919
 2254SOL    HW1 6761   4.134   2.414   5.417  2.2111 -0.4822 -5.1776
 2254SOL    HW2 6762   4.274   2.389   5.468  0.5397 -1.1576 -0.4666
 2255SOL     OW 6763   4.251   4.231   6.119  0.1170 -0.1263 -0.1579
 2255SOL    HW1 6764   4.322   4.263   6.063 -0.9317  0.5764 -1.1365
 2255SOL    HW2 6765   4.237   4.301   6.182  1.8921 -1.2852  1.6230
 2256SOL     OW 6766   3.247   0.990   9.273  0.4710 -0.3950  0.2723
 2256SOL    HW1 6767   3.222   1.058   9.211 -0.1618  0.4400  1.4013
 2256SOL    HW2 6768   3.341   0.978   9.259  0.5144  0.4457 -0.2059
 2257SOL     OW 6769   0.990   4.105   5.275  1.1590  0.5837 -0.3699
 2257SOL    HW1 6770   1.062   4.056   5.235 -0.2523 -1.7749 -0.1809
 2257SOL    HW2 6771   0.994   4.081   5.368 -0.3388 -0.2492 -0.4947
 2258SOL     OW 6772   4.039   2.978   4.836 -0.4474 -0.1800 -0.5203
 2258SOL    HW1 6773   3.952   3.008   4.808 -0.3233  1.7965  1.0132
 2258SOL    HW2 6774   4.100   3.039   4.796  0.1238 -0.5956 -0.2965
 2259SOL     OW 6775   3.303   1.821   7.795  0.1802 -0.1165  0.5123
 2259SOL    HW1 6776   3.343   1.791   7.876 -1.0634 -1.3945  0.6929
 2259SOL    HW2 6777   3.229   1.874   7.822 -0.6634 -1.1271  0.2508
 2260SOL     OW 6778   1.583   3.610   6.157 -0.4306  0.1288  0.1820
 2260SOL    HW1 6779   1.509   3.565   6.199 -0.0297 -0.8458 -0.1282
 2260SOL    HW2 6780   1.626   3.543   6.104  1.8026  0.1394  1.8039
 2261SOL     OW 6781   2.117   2.117   7.855  0.0119  0.1752  0.3708
 2261SOL    HW1 6782   2.112   2.062   7.933  0.4887 -1.8100 -0.9298
 2261SOL    HW2 6783   2.039   2.173   7.860 -1.6510 -2.0364  0.7684
 2262SOL     OW 6784   3.625   3.639   4.797 -0.1980  0.0638  0.3957
 2262SOL    HW1 6785   3.656   3.729   4.800 -1.8630  0.6905 -0.1813
 2262SOL    HW2 6786   3.640   3.606   4.886  0.3657  0.9348  0.6330
 2263SOL     OW 6787   3.896   1.840   6.859  0.1551 -0.3864  0.2462
 2263SOL    HW1 6788   3.967   1.785   6.892  0.8736  0.6091  0.3948
 2263SOL    HW2 6789   3.888   1.910   6.924  0.8027  0.9614 -1.0669
 2264SOL     OW 6790   0.342   0.552   6.024 -0.0563  0.4075  0.0845
 2264SOL    HW1 6791   0.355   0.470   5.977 -1.8005  0.4903 -0.5947
 2264SOL    HW2 6792   0.313   0.525   6.111  0.3293  0.3068  0.1867
 2265SOL     OW 6793   2.894   2.866   8.083 -0.0746  0.9769 -0.5511
 2265SOL    HW1 6794   2.873   2.942   8.137  1.2941  0.3375  0.9644
 2265SOL    HW2 6795   2.975   2.890   8.037  2.0199 -0.4644  2.0974
 2266SOL     OW 6796   1.097   2.839   6.544 -0.0565  0.5181 -0.1549
 2266SOL    HW1 6797   1.109   2.787   6.464  1.0909 -1.4472  1.1912
 2266SOL    HW2 6798   1.002   2.844   6.555 -0.2250 -1.5555 -0.2386
 2267SOL     OW 6799   4.453   1.802   6.427  0.1377  0.0883  0.1840
 2267SOL    HW1 6800   4.406   1.826   6.507 -0.4284  3.0752 -0.9203
 2267SOL    HW2 6801   4.541   1.778   6.457 -0.3952  0.0259  1.7810
 2268SOL     OW 6802   2.518   1.775   4.962  0.2033 -0.0035  0.5187
 2268SOL    HW1 6803   2.551   1.764   5.051  0.0646  1.0836  0.7118
 2268SOL    HW2 6804   2.537   1.866   4.940  1.7797 -0.6938 -1.1989
 2269SOL     OW 6805   4.687   1.920   5.420 -0.1140  0.5181  0.7574
 2269SOL    HW1 6806   4.614   1.864   5.392  0.7228 -0.2415  0.0248
 2269SOL    HW2 6807   4.764   1.865   5.410  0.7914  1.9442 -0.4104
 2270SOL     OW 6808   0.631   0.612   6.072  0.2144 -0.3082  0.4719
 2270SOL    HW1 6809   0.698   0.613   6.005 -0.9496  3.6847 -0.8900
 2270SOL    HW2 6810   0.549   0.601   6.024 -0.4703  0.1304  1.5060
 2271SOL     OW 6811   0.859   4.916   5.303  0.0077  0.0671 -0.3265
 2271SOL    HW1 6812   0.910   4.981   5.352  0.5471  0.4458 -1.3810
 2271SOL    HW2 6813   0.781   4.902   5.357  2.1172 -2.1658  2.4709
 2272SOL     OW 6814   2.782   1.097   5.828  0.4009  0.1178  0.0270
 2272SOL    HW1 6815   2.822   1.168   5.878  2.4222 -0.3607 -0.8373
 2272SOL    HW2 6816   2.799   1.119   5.736  0.8131 -1.3052 -0.2662
 2273SOL     OW 6817   4.864   1.164   5.604  0.5650 -0.6416 -0.3704
 2273SOL    HW1 6818   4.867   1.160   5.508  1.0734 -4.1233 -0.3377
 2273SOL    HW2 6819   4.774   1.138   5.626  0.0698  1.3266  0.1729
 2274SOL     OW 6820   5.016   2.714   5.975 -0.0947  0.0783  0.4840
 2274SOL    HW1 6821   4.992   2.646   6.038  2.4828 -0.0131  1.5041
 2274SOL    HW2 6822   4.981   2.683   5.892  1.9664 -3.2445  0.6545
 2275SOL     OW 6823   4.607   1.808   6.115  0.4255 -0.5124 -0.7922
 2275SOL    HW1 6824   4.648   1.880   6.162  1.3709 -1.1432 -0.6138
 2275SOL    HW2 6825   4.540   1.775   6.175 -0.0011  0.1888 -0.8692
 2276SOL     OW 6826   3.420   3.662   5.308  0.3790  0.0643  0.0058
 2276SOL    HW1 6827   3.481   3.616   5.365  1.9990 -0.8333 -2.3219
 2276SOL    HW2 6828   3.455   3.751   5.301  0.1450  0.1931  0.4061
 2277SOL     OW 6829   2.529   1.648   7.752 -0.2124  0.2481  0.0403
 2277SOL    HW1 6830   2.519   1.555   7.774  1.1707  0.1384  0.2882
 2277SOL    HW2 6831   2.580   1.648   7.671 -0.4212  0.7880 -0.0945
 2278SOL     OW 6832   4.390   3.969   7.439  0.3210 -0.8340 -0.6770
 2278SOL    HW1 6833   4.438   4.017   7.507 -0.5137  0.4260 -0.9318
 2278SOL    HW2 6834   4.443   3.979   7.360  0.6722 -1.2301 -0.4907
 2279SOL     OW 6835   2.547   2.280   6.433  0.1201 -0.0059  0.2647
 2279SOL    HW1 6836   2.499   2.206   6.469 -0.8205 -0.2564 -1.3962
 2279SOL    HW2 6837   2.486   2.354   6.442 -1.0473 -0.4848 -2.5942
 2280SOL     OW 6838   0.204   4.666   7.933  0.0595  0.3324  0.2469
 2280SOL    HW1 6839   0.277   4.689   7.989 -1.0607  1.7718  1.1878
 2280SOL    HW2 6840   0.136   4.634   7.993 -0.8594  1.0933 -0.3636
 2281SOL     OW 6841   1.445   2.391   8.125 -0.1740 -0.0791  0.2847
 2281SOL    HW1 6842   1.417   2.434   8.205 -2.0202 -1.2892  0.3572
 2281SOL    HW2 6843   1.413   2.447   8.054 -4.5997 -2.1879  0.3110
 2282SOL     OW 6844   1.219   1.207   6.188 -0.7541 -0.2895 -0.1547
 2282SOL    HW1 6845   1.232   1.201   6.283  1.4275 -0.7274 -0.4229
 2282SOL    HW2 6846   1.247   1.121   6.156  1.3369  0.7984 -1.4213
 2283SOL     OW 6847   1.362   4.685   7.192  0.4570  0.1519 -0.1003
 2283SOL    HW1 6848   1.375   4.619   7.124 -0.6484 -0.4985  0.2839
 2283SOL    HW2 6849   1.408   4.650   7.268 -2.2025 -1.5315  0.8854
 2284SOL     OW 6850   2.326   2.764   7.198 -0.4420 -0.4627 -0.4830
 2284SOL    HW1 6851   2.318   2.669   7.202 -1.2181 -0.4288 -0.9591
 2284SOL    HW2 6852   2.295   2.787   7.111  0.0896  0.1985 -0.5071
 2285SOL     OW 6853   4.295   0.667   7.031 -0.3384 -0.5436 -0.1586
 2285SOL    HW1 6854   4.371   0.612   7.052 -1.6399 -1.7777  1.6378
 2285SOL    HW2 6855   4.235   0.609   6.985 -0.1852  0.4690 -1.7040
 2286SOL     OW 6856   2.618   0.413   7.031  0.2913  1.2806 -1.1898
 2286SOL    HW1 6857   2.632   0.340   7.092 -1.0415  3.2344  1.6914
 2286SOL    HW2 6858   2.558   0.378   6.965  0.2975 -0.4480 -0.3316
 2287SOL     OW 6859   0.478   2.408   5.416  0.4068 -0.0649  0.0290
 2287SOL    HW1 6860   0.392   2.408   5.458 -0.1109 -0.2208 -1.0030
 2287SOL    HW2 6861   0.526   2.478   5.460 -0.5183  0.5524  0.0930
 2288SOL     OW 6862   2.522   1.285   5.417 -0.5864  0.1470 -0.1762
 2288SOL    HW1 6863   2.563   1.356   5.465  1.0491 -1.8439  1.5526
 2288SOL    HW2 6864   2.537   1.307   5.325  0.0484  1.8974  0.3050
 2289SOL     OW 6865   2.790   3.625   5.114  0.0697  0.7450  0.8841
 2289SOL    HW1 6866   2.860   3.576   5.158  1.3624  1.2083 -0.5703
 2289SOL    HW2 6867   2.832   3.707   5.087 -1.2487  1.3561  0.6244
 2290SOL     OW 6868   1.962   3.637   6.017 -0.3718 -0.0267  0.0736
 2290SOL    HW1 6869   1.880   3.636   6.067  0.3666  1.1902  1.3823
 2290SOL    HW2 6870   2.013   3.564   6.054 -0.8533 -0.8033 -0.7618
 2291SOL     OW 6871   0.622   2.028   4.845  0.4907  0.1454  0.5013
 2291SOL    HW1 6872   0.552   1.974   4.808  1.0539 -1.8709  2.1905
 2291SOL    HW2 6873   0.656   1.976   4.918  1.2227  2.7586  2.1175
 2292SOL     OW 6874   0.224   3.617   6.049  0.4001 -0.1776 -0.5842
 2292SOL    HW1 6875   0.195   3.615   5.958 -0.9711 -1.5299 -0.1686
 2292SOL    HW2 6876   0.306   3.567   6.049  0.2190 -0.4843 -1.0305
 2293SOL     OW 6877   1.878   0.400  10.119  0.3907 -0.5443  0.8959
 2293SOL    HW1 6878   1.798   0.347  10.121  0.2247 -0.2837  1.4315
 2293SOL    HW2 6879   1.946   0.340  10.087  0.0057 -0.8012  0.5547
 2294SOL     OW 6880   0.083   1.122   6.055  0.1534  0.2263 -0.9034
 2294SOL    HW1 6881   0.018   1.191   6.071 -2.3752 -2.1837  0.0804
 2294SOL    HW2 6882   0.118   1.142   5.968 -2.5084  1.2570 -1.8474
 2295SOL     OW 6883   3.147   0.696   8.558  0.0087  0.3924 -0.3869
 2295SOL    HW1 6884   3.242   0.707   8.553  0.1993 -0.2560  1.1397
 2295SOL    HW2 6885   3.130   0.687   8.652 -1.2256 -2.2905 -0.7833
 2296SOL     OW 6886   3.345   3.121   5.922 -0.2769  0.1839 -0.1518
 2296SOL    HW1 6887   3.420   3.177   5.940  0.0665  0.5488 -2.3952
 2296SOL    HW2 6888   3.358   3.091   5.831 -2.1937 -0.7609 -0.1800
 2297SOL     OW 6889   2.560   1.870   5.488  0.1366 -0.1463 -0.0194
 2297SOL    HW1 6890   2.521   1.955   5.506 -1.4306 -0.9613  0.6665
 2297SOL    HW2 6891   2.628   1.861   5.555 -0.5895  0.0299  0.7684
 2298SOL     OW 6892   2.273   4.295   7.805 -0.5868  0.5927  0.9673
 2298SOL    HW1 6893   2.367   4.313   7.811 -0.1439 -0.5424 -1.3445
 2298SOL    HW2 6894   2.231   4.380   7.815  0.7255  1.2318  1.1912
 2299SOL     OW 6895   0.109   3.002   5.003  0.1300  0.0199  0.0363
 2299SOL    HW1 6896   0.171   3.052   5.056  1.1085 -0.8262 -0.2892
 2299SOL    HW2 6897   0.158   2.925   4.974 -0.6508  0.0197 -1.3671
 2300SOL     OW 6898   0.105   3.571   5.139  0.7306 -0.3422 -0.3997
 2300SOL    HW1 6899   0.160   3.544   5.065  0.0007 -1.0165 -0.7097
 2300SOL    HW2 6900   0.017   3.577   5.102  1.0545  4.9762 -1.0587
 2301SOL     OW 6901   2.090   4.543   7.300 -0.2370  0.9234  0.4997
 2301SOL    HW1 6902   2.109   4.485   7.374 -1.4127  1.7453  1.4832
 2301SOL    HW2 6903   2.175   4.585   7.280  0.1048  0.6643  1.3668
 2302SOL     OW 6904   4.651   4.696   5.492 -0.0560 -0.5993 -0.0896
 2302SOL    HW1 6905   4.656   4.688   5.587 -1.1690 -0.4755 -0.0030
 2302SOL    HW2 6906   4.681   4.612   5.459  0.7542 -0.4919  0.3459
 2303SOL     OW 6907   0.693   0.921   6.795 -0.1510 -0.7018  0.2799
 2303SOL    HW1 6908   0.706   0.850   6.732 -0.9489 -1.2559  0.7178
 2303SOL    HW2 6909   0.761   0.907   6.861  1.4952  0.6192 -1.0633
 2304SOL     OW 6910   1.928   0.105   6.751  0.2720 -0.1369 -0.6373
 2304SOL    HW1 6911   1.891   0.191   6.771 -3.1491 -1.9480  1.8391
 2304SOL    HW2 6912   1.884   0.078   6.670 -1.4949 -0.8877  0.4975
 2305SOL     OW 6913   4.288   1.823   5.436 -0.4555  0.1790  0.5528
 2305SOL    HW1 6914   4.295   1.917   5.421  0.0495  0.1417  0.5622
 2305SOL    HW2 6915   4.322   1.810   5.524  0.4322 -0.1436  0.1734
 2306SOL     OW 6916   2.708   1.713   5.705  0.2575  0.4676  0.1969
 2306SOL    HW1 6917   2.763   1.776   5.659  2.2536 -1.1317  0.2370
 2306SOL    HW2 6918   2.734   1.721   5.797  0.6274 -0.4386  0.1877
 2307SOL     OW 6919   3.618   4.279   5.674 -0.2248  0.8352 -0.8988
 2307SOL    HW1 6920   3.708   4.245   5.675  0.5414  2.6557 -1.9287
 2307SOL    HW2 6921   3.564   4.202   5.655  1.0189 -0.4373  0.4458
 2308SOL     OW 6922   4.229   0.122   7.718 -0.2001  0.1961  0.7279
 2308SOL    HW1 6923   4.203   0.048   7.663 -1.4777  1.0666  0.1287
 2308SOL    HW2 6924   4.280   0.178   7.660  1.6562 -0.6547  1.4448
 2309SOL     OW 6925   2.531   2.439   7.237 -0.9082  0.6354 -0.4862
 2309SOL    HW1 6926   2.528   2.354   7.191 -0.0501 -0.0620  0.7034
 2309SOL    HW2 6927   2.530   2.504   7.166 -1.3424 -0.3654 -1.4331
 2310SOL     OW 6928   0.564   0.528   7.430  0.0783 -0.9094  0.0277
 2310SOL    HW1 6929   0.620   0.562   7.360  1.2073  2.1096  2.1998
 2310SOL    HW2 6930   0.567   0.433   7.418  2.5420 -0.6768 -2.2719
 2311SOL     OW 6931   1.429   1.942   8.195  0.7351 -0.3736  0.0985
 2311SOL    HW1 6932   1.356   1.881   8.211 -0.4775  0.8784 -0.5076
 2311SOL    HW2 6933   1.506   1.885   8.188 -0.4846 -1.9593 -1.3690
 2312SOL     OW 6934   2.708   1.288   7.994  0.3856 -0.7820 -0.3007
 2312SOL    HW1 6935   2.710   1.206   7.945 -2.8371 -0.5475 -1.0446
 2312SOL    HW2 6936   2.709   1.357   7.927  0.6719 -0.2629  0.2204
 2313SOL     OW 6937   1.255   4.376   8.163 -0.5004  0.4835  0.1333
 2313SOL    HW1 6938   1.247   4.437   8.089  1.6704  2.2623  1.2581
 2313SOL    HW2 6939   1.266   4.433   8.240 -0.8421 -1.3321  1.5964
 2314SOL     OW 6940   4.330   2.699   8.558 -0.2411 -0.0349 -0.2547
 2314SOL    HW1 6941   4.298   2.617   8.595 -1.4378  0.6900  0.3845
 2314SOL    HW2 6942   4.264   2.764   8.583  0.5029  1.0596 -1.0435
 2315SOL     OW 6943   3.740   2.164   8.445 -0.1292 -0.1001 -0.3061
 2315SOL    HW1 6944   3.738   2.078   8.485  0.6386  1.0456  2.4075
 2315SOL    HW2 6945   3.648   2.186   8.428 -0.3062 -1.5423 -1.3810
 2316SOL     OW 6946   1.794   3.676   8.966 -0.2003  0.1054 -0.0703
 2316SOL    HW1 6947   1.841   3.646   9.043  1.1084  2.8771  0.3274
 2316SOL    HW2 6948   1.709   3.632   8.971  1.6071 -3.7741  0.0857
 2317SOL     OW 6949   2.981   2.583   7.801 -0.0472  0.6327  0.1977
 2317SOL    HW1 6950   3.025   2.611   7.721  1.5213  1.3726  1.2574
 2317SOL    HW2 6951   2.889   2.575   7.777  0.3409  1.1109 -1.5888
 2318SOL     OW 6952   2.011   3.500   8.329 -0.5804  0.2576 -0.0585
 2318SOL    HW1 6953   2.052   3.518   8.413 -0.3412  0.3300 -0.1897
 2318SOL    HW2 6954   1.967   3.582   8.306 -0.9860  0.1089  0.1887
 2319SOL     OW 6955   1.985   4.191   9.561  1.3347 -0.0454 -0.4594
 2319SOL    HW1 6956   2.062   4.159   9.516  1.9028  1.7948 -0.8822
 2319SOL    HW2 6957   1.968   4.277   9.523 -0.4763 -0.0689  0.1594
 2320SOL     OW 6958   3.161   4.811   7.762  0.3224 -0.5214 -0.7836
 2320SOL    HW1 6959   3.256   4.810   7.746  0.7661 -2.1158  1.3104
 2320SOL    HW2 6960   3.149   4.882   7.825  0.3019 -0.9046 -0.3470
 2321SOL     OW 6961   4.064   4.217   8.822  0.4992  0.1530 -0.1760
 2321SOL    HW1 6962   4.006   4.279   8.778  0.2745  0.2814  0.2852
 2321SOL    HW2 6963   4.150   4.258   8.819  0.1582  1.0644  1.1333
 2322SOL     OW 6964   3.940   1.772   7.545 -1.0708  0.6040 -0.6357
 2322SOL    HW1 6965   4.016   1.714   7.551 -1.6952 -0.3812 -1.7801
 2322SOL    HW2 6966   3.977   1.858   7.525 -0.1566  0.5274  0.6205
 2323SOL     OW 6967   2.497   4.561   8.454  0.0499 -0.7585 -0.9423
 2323SOL    HW1 6968   2.517   4.580   8.362 -0.1872 -2.1965 -1.3083
 2323SOL    HW2 6969   2.491   4.466   8.458 -0.4487 -0.6831  0.4650
 2324SOL     OW 6970   1.647   2.482   8.564  0.0108 -0.0475 -0.3413
 2324SOL    HW1 6971   1.712   2.532   8.516 -0.4924  0.1108 -0.8667
 2324SOL    HW2 6972   1.697   2.413   8.608  0.9293  1.7190  1.5633
 2325SOL     OW 6973   2.888   3.324   6.629 -0.1615  0.3949  0.3220
 2325SOL    HW1 6974   2.884   3.415   6.599  0.9491  0.3576  0.0178
 2325SOL    HW2 6975   2.891   3.273   6.549  0.2995  0.1509  0.4942
 2326SOL     OW 6976   0.520   1.847   8.332 -0.8129 -0.1381 -0.1690
 2326SOL    HW1 6977   0.493   1.802   8.252 -0.3576  1.0473 -1.0133
 2326SOL    HW2 6978   0.612   1.825   8.343  0.0245  2.2360 -1.7961
 2327SOL     OW 6979   4.488   4.645   7.078 -0.5895 -0.1960  0.6617
 2327SOL    HW1 6980   4.401   4.607   7.087 -1.7377  2.1797  0.4439
 2327SOL    HW2 6981   4.504   4.646   6.983 -1.1128  0.9226  0.5690
 2328SOL     OW 6982   3.491   2.714   6.032 -0.0634 -0.4532  0.1449
 2328SOL    HW1 6983   3.547   2.659   6.087  0.6996  0.0037 -0.1688
 2328SOL    HW2 6984   3.486   2.667   5.949  0.1431 -0.3086  0.0533
 2329SOL     OW 6985   4.583   2.199   7.881 -0.6639 -0.7207 -0.3311
 2329SOL    HW1 6986   4.490   2.179   7.888 -0.3610 -2.3818 -0.7592
 2329SOL    HW2 6987   4.627   2.116   7.897  0.7199 -0.1838 -1.1607
 2330SOL     OW 6988   2.829   3.591   7.330  0.0165 -0.6512  0.3410
 2330SOL    HW1 6989   2.912   3.590   7.283  0.1317  0.8522  0.4661
 2330SOL    HW2 6990   2.854   3.605   7.422 -0.3420 -0.8957  0.4783
 2331SOL     OW 6991   0.009   1.710   6.579  0.9250 -0.3238 -0.8976
 2331SOL    HW1 6992  -0.011   1.625   6.539 -2.1565 -0.7525  1.2332
 2331SOL    HW2 6993   0.043   1.688   6.666 -2.8305  0.4238  0.9565
 2332SOL     OW 6994   1.924   4.323   7.072 -0.1843 -0.5422 -0.1076
 2332SOL    HW1 6995   2.020   4.322   7.065 -0.1440  0.6565  0.0720
 2332SOL    HW2 6996   1.894   4.351   6.986 -0.3188  0.2719  0.2020
 2333SOL     OW 6997   1.401   2.537   7.895  0.2155  0.0766  0.0679
 2333SOL    HW1 6998   1.427   2.469   7.833  0.1277 -0.4360  0.5758
 2333SOL    HW2 6999   1.311   2.515   7.919 -0.3173  1.1955 -0.8297
 2334SOL     OW 7000   0.015   2.121   9.344  0.1201 -0.3787  0.5842
 2334SOL    HW1 7001   0.039   2.031   9.324  0.4869  0.0137 -0.8148
 2334SOL    HW2 7002  -0.010   2.159   9.260 -1.4131  0.4330  1.3587
 2335SOL     OW 7003   1.801   2.887   7.224  0.1846 -0.2805 -0.2579
 2335SOL    HW1 7004   1.891   2.858   7.208  1.0771  0.9259  2.0242
 2335SOL    HW2 7005   1.799   2.907   7.318 -2.1741  0.7416 -0.4545
 2336SOL     OW 7006   1.921   4.398   9.201 -0.3621 -0.6033  0.6540
 2336SOL    HW1 7007   1.874   4.317   9.220 -1.4084  0.3082  2.3060
 2336SOL    HW2 7008   1.987   4.404   9.271  1.6084 -1.3569 -1.0505
 2337SOL     OW 7009   3.567   4.362   5.997 -0.0772  0.4735 -0.0921
 2337SOL    HW1 7010   3.541   4.451   5.972  1.5325  1.0325  0.0963
 2337SOL    HW2 7011   3.578   4.316   5.914 -0.6869  0.5145 -0.1990
 2338SOL     OW 7012   0.357   1.794   8.834  0.3572  0.2162  0.1079
 2338SOL    HW1 7013   0.418   1.844   8.889  3.5768 -3.7672  0.6115
 2338SOL    HW2 7014   0.373   1.826   8.746  0.2908  1.8511  0.6474
 2339SOL     OW 7015   1.914   2.924   9.241 -0.9001  0.1855 -0.6412
 2339SOL    HW1 7016   2.009   2.926   9.248 -1.0088  0.7620  1.2920
 2339SOL    HW2 7017   1.894   2.836   9.209  0.2529 -0.0048 -0.8898
 2340SOL     OW 7018   4.335   1.734   5.971 -0.0901  0.4514  0.0512
 2340SOL    HW1 7019   4.374   1.683   6.042 -1.1426  0.3413  0.5722
 2340SOL    HW2 7020   4.259   1.776   6.011 -0.3560  0.8631 -0.8700
 2341SOL     OW 7021   1.313   0.782   9.017  0.3289 -0.3748  0.3636
 2341SOL    HW1 7022   1.231   0.797   9.064  1.1629 -0.9003  2.0506
 2341SOL    HW2 7023   1.292   0.713   8.955 -0.6846  0.0068  0.2441
 2342SOL     OW 7024   2.136   1.355   8.442 -0.2949  0.1197 -0.3053
 2342SOL    HW1 7025   2.071   1.323   8.504 -0.1274  1.4027  0.5817
 2342SOL    HW2 7026   2.145   1.285   8.378 -2.4566 -0.1358 -0.4011
 2343SOL     OW 7027   4.955   4.133   8.400  0.4074 -0.0826  0.2417
 2343SOL    HW1 7028   4.910   4.216   8.418 -0.3383 -0.1984 -1.0048
 2343SOL    HW2 7029   5.017   4.155   8.330  1.3418 -0.2350  1.0052
 2344SOL     OW 7030   0.250   3.009   8.889 -0.3234  0.1164  0.0870
 2344SOL    HW1 7031   0.217   3.086   8.844  0.9225  0.7994  0.2904
 2344SOL    HW2 7032   0.220   3.019   8.979 -0.9396 -0.1135 -0.0897
 2345SOL     OW 7033   3.471   0.001   8.374  0.1074 -0.0259  0.2650
 2345SOL    HW1 7034   3.549  -0.016   8.322  1.0894 -0.4970  1.8505
 2345SOL    HW2 7035   3.482   0.090   8.407 -0.6660  0.3910 -0.5308
 2346SOL     OW 7036   4.703   3.195   7.118 -0.5640  0.4356 -0.1681
 2346SOL    HW1 7037   4.743   3.130   7.176  0.3426  1.0780 -0.0561
 2346SOL    HW2 7038   4.672   3.144   7.043  0.1813 -0.1263 -0.1116
 2347SOL     OW 7039   3.291   1.061   8.214  0.5068  0.5982  0.4629
 2347SOL    HW1 7040   3.280   1.057   8.309 -0.8955 -0.4127  0.3033
 2347SOL    HW2 7041   3.322   0.974   8.189 -1.5959 -0.0343 -0.2100
 2348SOL     OW 7042   0.443   4.229   8.893  0.2219 -0.3844 -0.2885
 2348SOL    HW1 7043   0.463   4.218   8.800  1.0987 -5.2149  0.1975
 2348SOL    HW2 7044   0.348   4.217   8.899  0.3460 -1.6218 -0.4949
 2349SOL     OW 7045   4.761   0.884   9.728 -0.6559  0.4437 -0.7473
 2349SOL    HW1 7046   4.831   0.875   9.792  0.3401  2.0422 -1.5291
 2349SOL    HW2 7047   4.721   0.797   9.722  0.5787 -0.2339  0.4936
 2350SOL     OW 7048   4.986   3.645   6.170  0.2251  0.2206  0.7252
 2350SOL    HW1 7049   4.941   3.561   6.178  0.4947 -0.0114 -0.0525
 2350SOL    HW2 7050   5.071   3.623   6.133 -0.8486  1.0923 -2.6441
 2351SOL     OW 7051   1.676   5.001   8.625  0.2031  0.0172 -0.0277
 2351SOL    HW1 7052   1.735   5.036   8.558 -1.2186  2.0159 -0.3280
 2351SOL    HW2 7053   1.655   4.913   8.595  1.0495  0.1945 -1.2260
 2352SOL     OW 7054   2.456   1.888   5.840  0.3973  0.0195  0.7398
 2352SOL    HW1 7055   2.398   1.816   5.815  1.3334 -0.6179  0.3625
 2352SOL    HW2 7056   2.442   1.955   5.773  0.2577 -0.2139  0.5371
 2353SOL     OW 7057   0.866   3.734   6.321  0.2705 -0.1743  0.8262
 2353SOL    HW1 7058   0.827   3.661   6.370  0.5369 -0.0225  1.2732
 2353SOL    HW2 7059   0.811   3.742   6.243  0.4309 -1.0681  0.6026
 2354SOL     OW 7060   0.390   3.801   9.187  0.0913  0.5121 -0.7182
 2354SOL    HW1 7061   0.299   3.807   9.158  0.0186  0.9366 -0.4303
 2354SOL    HW2 7062   0.399   3.712   9.221 -1.2246  1.4067  2.4130
 2355SOL     OW 7063   3.704   2.789   8.606 -0.2669 -0.6034 -0.5009
 2355SOL    HW1 7064   3.717   2.705   8.562  0.9443  0.6879 -2.7666
 2355SOL    HW2 7065   3.674   2.848   8.537  0.0764  1.1207  0.7677
 2356SOL     OW 7066   2.744   3.890   9.168 -0.2226  0.2546  0.0837
 2356SOL    HW1 7067   2.823   3.841   9.148  0.5457  1.5118 -0.0673
 2356SOL    HW2 7068   2.746   3.964   9.107 -1.1012  0.7277  0.6073
 2357SOL     OW 7069   0.510   2.962   7.230 -0.1423  0.0658  0.2736
 2357SOL    HW1 7070   0.487   2.891   7.289 -1.5724  0.6673  0.4743
 2357SOL    HW2 7071   0.577   2.925   7.172 -1.3631 -1.6732 -0.0820
 2358SOL     OW 7072   2.728   1.035   9.684 -0.0105  0.4228  0.7141
 2358SOL    HW1 7073   2.702   1.049   9.593 -2.0053  1.6350  1.4076
 2358SOL    HW2 7074   2.646   1.041   9.733  0.7072 -2.1441  2.4257
 2359SOL     OW 7075   4.687   2.103   6.146 -0.4037  0.5247  0.2033
 2359SOL    HW1 7076   4.633   2.171   6.187  0.0203  1.5530 -0.8535
 2359SOL    HW2 7077   4.673   2.116   6.052  0.4538 -0.2247 -0.0377
 2360SOL     OW 7078   4.560   4.661   7.806  0.1189  0.2982  0.6893
 2360SOL    HW1 7079   4.649   4.697   7.797  0.5940 -1.1760 -1.5031
 2360SOL    HW2 7080   4.563   4.579   7.757 -1.8423 -1.0028  2.5608
 2361SOL     OW 7081   3.420   3.802   6.954  0.8310 -0.2581  0.5214
 2361SOL    HW1 7082   3.389   3.855   7.027  2.2875  0.7279  0.4551
 2361SOL    HW2 7083   3.516   3.806   6.960  0.9714 -1.4857 -0.4970
 2362SOL     OW 7084   1.631   3.860   5.694  0.3928 -0.2345 -0.1014
 2362SOL    HW1 7085   1.607   3.890   5.782  0.3520 -1.3346  0.2802
 2362SOL    HW2 7086   1.723   3.884   5.685  0.0603  1.0210 -0.2641
 2363SOL     OW 7087   4.601   3.343   8.301  0.1906 -0.0499 -0.1584
 2363SOL    HW1 7088   4.582   3.258   8.264  0.6402 -0.0764 -0.3335
 2363SOL    HW2 7089   4.652   3.324   8.380  0.3007  0.0563 -0.2033
 2364SOL     OW 7090   2.082   3.654   6.991  0.0816 -0.3952 -0.0679
 2364SOL    HW1 7091   2.020   3.584   6.972  1.5335 -1.3798 -1.4477
 2364SOL    HW2 7092   2.092   3.652   7.086 -3.7658  1.4405  0.5796
 2365SOL     OW 7093   2.919   2.744   6.489  0.3724  0.3867  0.0025
 2365SOL    HW1 7094   2.954   2.671   6.541 -0.5527  1.8280  2.8730
 2365SOL    HW2 7095   2.993   2.804   6.478  0.8663 -0.4335 -1.4660
 2366SOL     OW 7096   2.526   0.736   6.762  0.0928  0.1557  0.0183
 2366SOL    HW1 7097   2.564   0.820   6.789 -1.0960  0.2577  1.4774
 2366SOL    HW2 7098   2.438   0.758   6.730 -0.7083 -0.6405  1.5747
 2367SOL     OW 7099   3.805   1.231   6.829  0.2341  0.1204  0.5594
 2367SOL    HW1 7100   3.829   1.315   6.868  0.7590  0.1388  0.2092
 2367SOL    HW2 7101   3.884   1.177   6.837  0.8385  0.5722 -1.6840
 2368SOL     OW 7102   1.070   4.651   5.434  0.0414  0.4187 -0.2538
 2368SOL    HW1 7103   0.979   4.623   5.423  0.5879 -1.6250  0.0065
 2368SOL    HW2 7104   1.116   4.611   5.360  1.2144 -1.1860  1.2382
 2369SOL     OW 7105   1.092   2.614   8.251 -0.5644 -0.2891  0.0071
 2369SOL    HW1 7106   0.998   2.617   8.269 -0.4844 -0.8759  0.5563
 2369SOL    HW2 7107   1.133   2.614   8.337 -0.0918 -0.9605 -0.2105
 2370SOL     OW 7108   2.246   1.311   5.459  0.7155  0.4140 -0.1457
 2370SOL    HW1 7109   2.254   1.404   5.480  2.1781  0.0123  1.2858
 2370SOL    HW2 7110   2.332   1.286   5.425  0.4620 -0.5034 -0.1287
 2371SOL     OW 7111   1.176   3.097   7.936  0.6236  0.3909 -0.7811
 2371SOL    HW1 7112   1.216   3.146   7.864  1.4792 -1.1529 -1.4138
 2371SOL    HW2 7113   1.123   3.030   7.892 -1.0113  1.0759  0.0574
 2372SOL     OW 7114   4.457   1.571   6.200 -0.1710 -0.3985  0.1634
 2372SOL    HW1 7115   4.551   1.558   6.211  0.1268  1.5326  0.2047
 2372SOL    HW2 7116   4.417   1.501   6.250  1.2515 -0.4934  1.2124
 2373SOL     OW 7117   4.229   4.207   7.330  0.0929  0.7644 -0.2942
 2373SOL    HW1 7118   4.282   4.174   7.258  0.9877  1.5020 -0.0063
 2373SOL    HW2 7119   4.292   4.223   7.400 -1.0993 -3.1114  1.9581
 2374SOL     OW 7120   2.905   0.716   5.627 -0.2687 -0.0839 -0.7605
 2374SOL    HW1 7121   2.829   0.753   5.582 -0.7705 -0.2807 -0.0914
 2374SOL    HW2 7122   2.937   0.787   5.682 -0.1214 -0.0875 -0.8390
 2375SOL     OW 7123   4.777   1.668   7.484 -0.2705  0.7413  0.6582
 2375SOL    HW1 7124   4.711   1.657   7.415  0.6186 -0.3905 -0.0426
 2375SOL    HW2 7125   4.731   1.716   7.553 -2.2323 -1.1464  0.7495
 2376SOL     OW 7126   2.389   1.891   8.374 -0.5719 -0.3508  0.3957
 2376SOL    HW1 7127   2.422   1.802   8.387  0.0593 -0.0925  0.6050
 2376SOL    HW2 7128   2.353   1.891   8.286  0.5579 -0.4763 -0.0783
 2377SOL     OW 7129   3.499   4.865   6.723 -0.4161  0.6523 -0.0780
 2377SOL    HW1 7130   3.528   4.933   6.663 -0.5077  1.9067  1.2421
 2377SOL    HW2 7131   3.522   4.898   6.810 -1.9884 -0.2387  0.7253
 2378SOL     OW 7132   3.638   1.058   6.994 -0.0497  0.6003 -0.0012
 2378SOL    HW1 7133   3.696   1.129   6.967 -0.4767  1.3714  1.0375
 2378SOL    HW2 7134   3.550   1.091   6.974 -0.2620  0.4734  0.7132
 2379SOL     OW 7135   3.606   0.973   9.989  0.4907  0.4801  0.0469
 2379SOL    HW1 7136   3.584   0.968  10.082  0.4223 -1.3163 -0.0265
 2379SOL    HW2 7137   3.530   1.014   9.948  0.2714  0.7278  0.6927
 2380SOL     OW 7138   4.213   4.772   7.295  0.3212 -0.4583 -0.0287
 2380SOL    HW1 7139   4.300   4.757   7.260 -0.0413 -0.8860 -0.7900
 2380SOL    HW2 7140   4.158   4.784   7.217  0.0661  1.9906  0.4570
 2381SOL     OW 7141   2.103   1.467   7.998  0.1496  0.0625 -0.1747
 2381SOL    HW1 7142   2.103   1.429   7.910 -0.2044  0.1145 -0.1956
 2381SOL    HW2 7143   2.167   1.415   8.047 -0.8165 -0.9761 -0.0096
 2382SOL     OW 7144   4.694   4.044   8.620 -0.6767 -0.3296 -0.4663
 2382SOL    HW1 7145   4.753   3.979   8.583  0.8686  0.6046  0.2901
 2382SOL    HW2 7146   4.659   4.002   8.699  0.3637 -0.2385  0.0525
 2383SOL     OW 7147   1.990   4.733   6.054 -0.4045  0.5839  0.4907
 2383SOL    HW1 7148   2.044   4.777   5.988 -0.8370  0.6814  0.1944
 2383SOL    HW2 7149   2.048   4.669   6.094  0.2815  1.4948  1.0093
 2384SOL     OW 7150  -0.024   1.895   6.373 -0.1944 -0.0905  0.3201
 2384SOL    HW1 7151  -0.004   1.803   6.391 -0.3168  0.0752  1.3728
 2384SOL    HW2 7152   0.042   1.944   6.422 -0.3477  0.3918  0.0500
 2385SOL     OW 7153   2.649   2.139   8.125 -0.6304 -0.1954  0.0088
 2385SOL    HW1 7154   2.626   2.047   8.142  2.3400 -0.9932  0.3536
 2385SOL    HW2 7155   2.624   2.153   8.034 -2.3286 -0.9066  0.3271
 2386SOL     OW 7156   2.871   2.583   5.906  0.7882  0.4563  0.3976
 2386SOL    HW1 7157   2.843   2.667   5.870  0.7749 -0.0752 -0.8875
 2386SOL    HW2 7158   2.882   2.600   6.000 -2.7798  0.9990  0.8721
 2387SOL     OW 7159   2.388   2.969   7.369 -0.0486 -0.0131 -0.2060
 2387SOL    HW1 7160   2.350   2.885   7.341 -0.3916 -0.2191  0.8366
 2387SOL    HW2 7161   2.482   2.959   7.352 -0.2066 -0.2161 -1.0323
 2388SOL     OW 7162   1.791   0.129   5.319  0.2184  0.3367  0.0286
 2388SOL    HW1 7163   1.719   0.096   5.375  0.1018  1.2165  0.4105
 2388SOL    HW2 7164   1.764   0.105   5.230  0.1762 -0.6658  0.2919
 2389SOL     OW 7165   4.792   1.222   7.739  0.0879 -0.7882  0.3852
 2389SOL    HW1 7166   4.738   1.175   7.675  0.3946 -1.7017  0.7686
 2389SOL    HW2 7167   4.763   1.313   7.733 -1.5021 -1.2473  0.5881
 2390SOL     OW 7168   3.006   4.367   5.700 -0.5159  0.2397  0.4774
 2390SOL    HW1 7169   2.998   4.317   5.618  0.8172 -0.8400  0.9629
 2390SOL    HW2 7170   2.917   4.375   5.732 -1.0261  0.3856 -0.9104
 2391SOL     OW 7171   4.628   0.287   7.800  0.1774  0.5061 -0.4645
 2391SOL    HW1 7172   4.552   0.341   7.819 -1.9798 -3.0818  2.7768
 2391SOL    HW2 7173   4.592   0.211   7.754  1.1780 -2.0819  2.5822
 2392SOL     OW 7174   0.473   1.730   5.560 -0.0598  0.3386  1.0139
 2392SOL    HW1 7175   0.558   1.756   5.525 -0.2125 -0.8870 -0.3867
 2392SOL    HW2 7176   0.429   1.812   5.580  1.3466  0.9961  1.5560
 2393SOL     OW 7177   2.414   1.591   6.692  0.4013  0.2561 -0.5592
 2393SOL    HW1 7178   2.347   1.652   6.723  0.3841 -0.3811  0.7248
 2393SOL    HW2 7179   2.407   1.594   6.596 -0.3774  1.3846 -0.4850
 2394SOL     OW 7180   0.298   2.581   7.011 -0.6304 -0.5736  0.1095
 2394SOL    HW1 7181   0.364   2.513   7.020 -1.7287 -1.5046  1.6651
 2394SOL    HW2 7182   0.337   2.645   6.952  0.5655 -2.4005 -1.2075
 2395SOL     OW 7183   1.888   3.218   7.216 -0.1737 -0.4462  0.2396
 2395SOL    HW1 7184   1.908   3.312   7.215  1.6048 -0.7975  0.2944
 2395SOL    HW2 7185   1.880   3.196   7.309 -4.0627  0.2549  0.2560
 2396SOL     OW 7186   3.793   1.704   9.496  0.2319 -0.1090 -0.7217
 2396SOL    HW1 7187   3.746   1.650   9.433 -0.0337 -0.1631 -0.4794
 2396SOL    HW2 7188   3.807   1.646   9.572 -0.2278  0.2197 -0.3815
 2397SOL     OW 7189   3.514   3.239   7.518 -0.5363  0.0657  0.0452
 2397SOL    HW1 7190   3.452   3.220   7.588  0.6137  2.0306  1.7167
 2397SOL    HW2 7191   3.488   3.325   7.485 -0.5104 -0.4347 -1.3429
 2398SOL     OW 7192   3.592   2.066   5.348  0.6057 -0.4163  0.1648
 2398SOL    HW1 7193   3.554   1.978   5.357 -0.5138  0.0351 -0.0316
 2398SOL    HW2 7194   3.628   2.086   5.434 -1.4539 -0.0297  0.9871
 2399SOL     OW 7195   4.864   2.431   5.907 -0.7697 -0.1124 -0.7063
 2399SOL    HW1 7196   4.826   2.355   5.864 -0.3690  0.0541 -1.3628
 2399SOL    HW2 7197   4.877   2.495   5.837  0.2598  0.0129 -0.4216
 2400SOL     OW 7198   1.929   2.190   7.273 -0.1502  0.3945 -0.8726
 2400SOL    HW1 7199   1.862   2.220   7.211 -0.6009  2.9676  0.7200
 2400SOL    HW2 7200   1.881   2.176   7.355  0.9953  0.5359 -0.1628
 2401SOL     OW 7201   1.735   0.893  10.043  0.0741 -0.2610  0.1535
 2401SOL    HW1 7202   1.802   0.913   9.977  0.9067  0.4700  1.1705
 2401SOL    HW2 7203   1.737   0.798  10.052 -0.2051 -0.3858 -1.0163
 2402SOL     OW 7204   2.835   3.178   7.572 -0.2586  0.9475  0.1806
 2402SOL    HW1 7205   2.811   3.232   7.647 -0.0542 -0.3322  1.1901
 2402SOL    HW2 7206   2.842   3.240   7.499 -2.0805  1.9758  0.8343
 2403SOL     OW 7207   3.522   3.068   8.595  0.0190 -0.0399 -0.7740
 2403SOL    HW1 7208   3.527   3.044   8.502 -1.2792  1.3970 -1.2563
 2403SOL    HW2 7209   3.499   2.987   8.639  1.5586 -0.9519 -1.5806
 2404SOL     OW 7210   1.942   2.327   6.079  0.4099 -0.2371  0.0779
 2404SOL    HW1 7211   1.945   2.232   6.083 -1.2216 -0.3046  0.3412
 2404SOL    HW2 7212   1.863   2.347   6.029  2.3303  0.9945 -2.7263
 2405SOL     OW 7213   3.503   2.478   7.911 -0.1946  0.7427 -0.2162
 2405SOL    HW1 7214   3.565   2.430   7.967 -2.0595 -1.0421  0.4380
 2405SOL    HW2 7215   3.558   2.514   7.841  1.4562 -1.7769 -0.3562
 2406SOL     OW 7216   1.228   1.746   8.210 -0.4510 -0.1082  0.1066
 2406SOL    HW1 7217   1.178   1.725   8.289 -2.0033  2.6347  0.0041
 2406SOL    HW2 7218   1.162   1.774   8.146  0.8220 -1.5008 -1.9630
 2407SOL     OW 7219   3.813   2.400   7.537 -0.0573  0.5950 -0.3169
 2407SOL    HW1 7220   3.827   2.308   7.558  3.6389  0.8411 -0.9811
 2407SOL    HW2 7221   3.773   2.400   7.451  0.3087 -0.4219 -0.4926
 2408SOL     OW 7222   0.554   3.621   8.030  0.2115  0.2773  0.7437
 2408SOL    HW1 7223   0.605   3.690   7.989 -0.3845  0.7683  0.8072
 2408SOL    HW2 7224   0.560   3.547   7.970  1.7874 -0.0106  1.2162
 2409SOL     OW 7225   3.241   3.132   6.518  0.7834 -0.8193  0.4307
 2409SOL    HW1 7226   3.325   3.122   6.473  1.7772  0.3405  1.9289
 2409SOL    HW2 7227   3.184   3.171   6.452  1.7005 -0.7073 -0.3301
 2410SOL     OW 7228   2.219   4.198   9.252  0.2114 -0.4182  0.2308
 2410SOL    HW1 7229   2.247   4.274   9.303 -2.0728 -0.4824  1.7426
 2410SOL    HW2 7230   2.214   4.230   9.162  1.5319  0.5395  0.4670
 2411SOL     OW 7231   4.923   4.324   9.043  0.2842 -0.1743 -0.2611
 2411SOL    HW1 7232   4.985   4.397   9.047  0.4838 -0.3838  1.5069
 2411SOL    HW2 7233   4.914   4.304   8.950  0.2278  2.0847 -0.7898
 2412SOL     OW 7234   1.267   3.204   7.681 -0.2152  0.6773 -0.0370
 2412SOL    HW1 7235   1.247   3.157   7.600 -0.1509 -0.8947  0.8304
 2412SOL    HW2 7236   1.249   3.296   7.660 -0.1512  0.3181 -1.8411
 2413SOL     OW 7237   1.333   1.110   8.037  0.2238  0.3399 -0.4420
 2413SOL    HW1 7238   1.350   1.203   8.052  1.1303  0.2319 -0.7175
 2413SOL    HW2 7239   1.386   1.088   7.961 -1.3520 -0.0030 -1.4912
 2414SOL     OW 7240   0.018   2.686   8.138 -0.3203 -0.1204  0.1112
 2414SOL    HW1 7241  -0.046   2.628   8.179 -0.1528 -0.8965 -0.6845
 2414SOL    HW2 7242   0.035   2.754   8.203 -1.7385 -0.0607  0.4339
 2415SOL     OW 7243   3.550   0.072   7.046 -0.3451 -0.3815  0.2104
 2415SOL    HW1 7244   3.552  -0.022   7.031 -1.3456 -0.9885  3.2237
 2415SOL    HW2 7245   3.480   0.085   7.109  0.5838  2.2258  0.8439
 2416SOL     OW 7246   3.927   2.612   6.981 -0.2644  0.6198  0.0112
 2416SOL    HW1 7247   3.988   2.682   6.957  0.9806  0.3269  2.0931
 2416SOL    HW2 7248   3.912   2.565   6.900  1.3875  1.4081 -0.8043
 2417SOL     OW 7249   3.965   3.352   6.789  0.4430 -0.3636  0.3130
 2417SOL    HW1 7250   4.028   3.419   6.765  0.8298 -0.6856  0.4214
 2417SOL    HW2 7251   3.996   3.273   6.745 -0.0028 -0.4711  0.1929
 2418SOL     OW 7252   2.085   1.836   9.286  0.1934  0.9086 -0.0180
 2418SOL    HW1 7253   2.030   1.760   9.304 -1.5596  2.3438  1.0907
 2418SOL    HW2 7254   2.152   1.834   9.355  0.2130  0.3546 -0.0472
 2419SOL     OW 7255   1.584   0.969   8.253 -0.0721  0.0349  0.3885
 2419SOL    HW1 7256   1.501   1.016   8.243 -1.6084 -2.3931  0.8469
 2419SOL    HW2 7257   1.583   0.937   8.344  1.9605  0.9211  0.7838
 2420SOL     OW 7258   4.139   0.150  10.047  0.2576  0.3726 -0.2011
 2420SOL    HW1 7259   4.208   0.105  10.096 -0.2901 -0.3023 -0.0234
 2420SOL    HW2 7260   4.181   0.180   9.967  0.2088 -2.4473 -1.4405
 2421SOL     OW 7261   2.648   3.886   7.246  0.2831 -0.2724  0.4239
 2421SOL    HW1 7262   2.714   3.821   7.266 -0.0624 -0.6973  0.2048
 2421SOL    HW2 7263   2.595   3.893   7.325 -0.1125 -0.7791  0.2026
 2422SOL     OW 7264   0.746   4.456   9.137 -0.0798 -0.1435  0.2070
 2422SOL    HW1 7265   0.677   4.510   9.098 -1.1712 -0.5285  1.5284
 2422SOL    HW2 7266   0.824   4.477   9.086 -1.2733 -0.1412 -1.7660
 2423SOL     OW 7267   1.281   3.835   7.043  0.3681 -0.1509 -0.6598
 2423SOL    HW1 7268   1.311   3.744   7.051 -0.2067 -0.3506 -0.6807
 2423SOL    HW2 7269   1.226   3.849   7.121  1.4265  0.5764 -0.0217
 2424SOL     OW 7270   2.017   1.812   6.125  0.1075 -0.2879 -0.2286
 2424SOL    HW1 7271   2.086   1.809   6.059  0.5025  0.2499  0.1546
 2424SOL    HW2 7272   1.936   1.818   6.075  0.3944 -0.0700 -0.6653
 2425SOL     OW 7273   0.752   2.498   6.081  0.3469 -0.3395 -0.1828
 2425SOL    HW1 7274   0.690   2.461   6.143  1.1050  0.4885  1.1178
 2425SOL    HW2 7275   0.804   2.424   6.050  0.6299 -0.6419  0.9744
 2426SOL     OW 7276   2.425   3.097   6.769  0.3768  0.2483 -0.9393
 2426SOL    HW1 7277   2.424   3.004   6.749  0.9431  0.2133 -0.8240
 2426SOL    HW2 7278   2.486   3.135   6.706 -1.4004  0.8837 -2.3600
 2427SOL     OW 7279   4.421   3.171   7.022 -0.5209 -0.4054  0.9668
 2427SOL    HW1 7280   4.504   3.216   7.038 -0.7454 -0.0678  1.1828
 2427SOL    HW2 7281   4.357   3.217   7.077 -0.7035 -1.1461  1.3979
 2428SOL     OW 7282   0.693   1.938   9.029 -0.4567  0.1338 -0.2140
 2428SOL    HW1 7283   0.711   1.899   9.115  1.3988  2.6202  0.6799
 2428SOL    HW2 7284   0.780   1.959   8.994 -1.2049 -0.2695 -2.4579
 2429SOL     OW 7285   0.074   0.652   6.750  0.3014 -0.3853  0.3199
 2429SOL    HW1 7286   0.092   0.566   6.712  0.9379  0.2584 -0.8892
 2429SOL    HW2 7287   0.074   0.712   6.675 -2.3502  0.3685  0.8073
 2430SOL     OW 7288   4.578   1.131   7.098  0.2390 -0.2247 -0.4233
 2430SOL    HW1 7289   4.548   1.057   7.045 -0.9148  0.3927 -0.6586
 2430SOL    HW2 7290   4.599   1.092   7.183 -1.2054 -0.7042 -0.2593
 2431SOL     OW 7291   4.367   1.578   7.878 -0.4222  0.2876  0.6783
 2431SOL    HW1 7292   4.322   1.579   7.963  1.4525 -0.9326  1.7678
 2431SOL    HW2 7293   4.375   1.485   7.857  0.6494  0.5225  0.0096
 2432SOL     OW 7294   3.748   4.308   8.329 -0.0282  0.2719  0.2304
 2432SOL    HW1 7295   3.747   4.278   8.238 -0.4320 -1.2298  0.6972
 2432SOL    HW2 7296   3.711   4.235   8.379  0.1906  1.0605  1.6084
 2433SOL     OW 7297   3.370   0.540   7.665  0.1951 -0.9566 -0.0157
 2433SOL    HW1 7298   3.456   0.498   7.671 -0.3725 -2.1301  0.1578
 2433SOL    HW2 7299   3.311   0.482   7.713 -0.8660 -0.6341 -0.8813
 2434SOL     OW 7300   2.357   1.480   5.794 -0.3350 -0.2005 -0.0629
 2434SOL    HW1 7301   2.387   1.399   5.754  3.1076  0.5795  0.6154
 2434SOL    HW2 7302   2.356   1.543   5.722 -0.0845 -0.1770 -0.0471
 2435SOL     OW 7303   2.343   2.770   6.540 -0.4991 -0.1101  0.0780
 2435SOL    HW1 7304   2.251   2.796   6.531 -0.7900 -1.0724  0.1778
 2435SOL    HW2 7305   2.375   2.763   6.450  0.0052  1.9761  0.0525
 2436SOL     OW 7306   4.563   0.106   7.334 -0.4528 -0.0694 -0.1702
 2436SOL    HW1 7307   4.556   0.019   7.375  0.0036 -0.5856 -1.1730
 2436SOL    HW2 7308   4.583   0.089   7.243 -1.6804  1.0679 -0.6935
 2437SOL     OW 7309   0.386   4.632   6.284 -0.8953  0.0698  0.7062
 2437SOL    HW1 7310   0.370   4.725   6.268  1.8894  0.6999  1.0102
 2437SOL    HW2 7311   0.454   4.608   6.221 -0.8976 -1.5070  1.2617
 2438SOL     OW 7312   1.411   3.311   8.151 -0.1225 -0.0363 -0.0723
 2438SOL    HW1 7313   1.428   3.219   8.173  2.5988  0.5972  0.8581
 2438SOL    HW2 7314   1.464   3.327   8.073  0.1705  0.9844  0.3229
 2439SOL     OW 7315   4.026   3.808   6.778  0.3952  0.0282 -0.1910
 2439SOL    HW1 7316   4.033   3.773   6.690  1.3208 -0.3403  0.0180
 2439SOL    HW2 7317   3.936   3.841   6.784 -0.5246 -2.2661 -0.4011
 2440SOL     OW 7318   1.714   0.713   9.445 -0.0721  0.1017  0.3363
 2440SOL    HW1 7319   1.739   0.653   9.515 -0.9402  1.2364  1.6580
 2440SOL    HW2 7320   1.635   0.673   9.407 -0.1938  0.0025  0.6922
 2441SOL     OW 7321   1.767   1.491   8.297  0.0791 -0.2500 -0.2114
 2441SOL    HW1 7322   1.786   1.435   8.221 -0.4937 -1.7703  0.7255
 2441SOL    HW2 7323   1.708   1.558   8.263 -0.2901 -0.9925 -1.0797
 2442SOL     OW 7324   4.699   0.347   8.248  0.6356 -0.0962 -0.1542
 2442SOL    HW1 7325   4.740   0.372   8.166  2.1344 -1.5005  0.1208
 2442SOL    HW2 7326   4.637   0.417   8.266  1.2755  0.9353 -1.7643
 2443SOL     OW 7327   0.679   4.966   5.484  0.7081 -0.0254 -0.3879
 2443SOL    HW1 7328   0.644   5.020   5.554 -2.1338 -0.1926 -1.5196
 2443SOL    HW2 7329   0.705   4.884   5.527  0.4884  0.4481  0.6675
 2444SOL     OW 7330   1.622   4.514   6.965  0.7557  0.6426 -0.3709
 2444SOL    HW1 7331   1.652   4.566   6.891  0.4401  1.4414  0.0551
 2444SOL    HW2 7332   1.701   4.475   7.001  0.7458 -1.4882 -2.3690
 2445SOL     OW 7333   2.457   3.226   9.305 -0.0970 -0.3874  0.2796
 2445SOL    HW1 7334   2.550   3.250   9.311 -0.1191 -0.2546  0.1027
 2445SOL    HW2 7335   2.446   3.197   9.215 -0.2040 -0.5091  0.3316
 2446SOL     OW 7336   2.336   0.189   7.723 -0.5538 -0.5583 -0.6967
 2446SOL    HW1 7337   2.260   0.139   7.694 -1.2030  0.5465 -0.9403
 2446SOL    HW2 7338   2.341   0.172   7.817 -2.1444  0.6871 -0.3481
 2447SOL     OW 7339   4.941   1.545   7.274  0.3057  0.0255 -0.4520
 2447SOL    HW1 7340   4.872   1.553   7.340  0.0406 -0.5831 -0.6473
 2447SOL    HW2 7341   4.971   1.635   7.261  0.8298  0.0814  0.9703
 2448SOL     OW 7342   4.160   1.118   9.540 -0.0431 -0.7402  0.5719
 2448SOL    HW1 7343   4.103   1.194   9.549  1.4821  0.7339 -1.3726
 2448SOL    HW2 7344   4.245   1.148   9.571  0.6349 -1.5652 -0.4230
 2449SOL     OW 7345   1.903   1.916   5.558 -0.0340 -0.5472  0.3485
 2449SOL    HW1 7346   1.890   1.997   5.508  0.8698 -2.0995 -2.6182
 2449SOL    HW2 7347   1.820   1.869   5.549 -0.1610 -0.4764  1.0864
 2450SOL     OW 7348   1.518   1.355  10.105 -0.0478 -0.3405 -0.2341
 2450SOL    HW1 7349   1.473   1.439  10.096  1.1416  0.3411 -0.0112
 2450SOL    HW2 7350   1.548   1.354  10.196 -0.4833 -1.2401 -0.0914
 2451SOL     OW 7351   1.508   2.261  10.123  0.0631 -0.6504  0.0412
 2451SOL    HW1 7352   1.427   2.281  10.076  0.1061  1.1603  0.6358
 2451SOL    HW2 7353   1.479   2.215  10.202 -0.4208  0.0668  0.2986
 2452SOL     OW 7354   0.985   4.151   9.969 -1.3471 -0.4907 -0.0280
 2452SOL    HW1 7355   0.919   4.160   9.901 -0.5219  1.1515 -0.6644
 2452SOL    HW2 7356   1.004   4.241   9.996 -0.5508 -1.0256  1.3024
 2453SOL     OW 7357   4.066   1.832   7.257  0.0608  0.1487  0.0546
 2453SOL    HW1 7358   4.109   1.747   7.254  0.3395  0.2484 -3.5236
 2453SOL    HW2 7359   3.976   1.814   7.228  0.7989  1.2518 -3.3105
 2454SOL     OW 7360   1.240   4.270   7.367 -0.5653 -0.1158 -0.3652
 2454SOL    HW1 7361   1.279   4.320   7.295  0.9446  0.8402  1.0515
 2454SOL    HW2 7362   1.275   4.310   7.446 -1.6484 -1.5678  0.9121
 2455SOL     OW 7363   2.655   4.028   8.714 -0.1158  0.4857  0.0799
 2455SOL    HW1 7364   2.708   3.949   8.728 -0.1989  0.4324  0.1003
 2455SOL    HW2 7365   2.565   4.000   8.734 -0.3129  0.2656 -1.0355
 2456SOL     OW 7366   4.745   1.786   6.465 -0.1421 -0.2968 -0.4269
 2456SOL    HW1 7367   4.814   1.824   6.411 -1.4722  0.8165 -1.4300
 2456SOL    HW2 7368   4.791   1.749   6.541  1.3300  3.3716  0.6947
 2457SOL     OW 7369   1.011   1.750   6.375 -0.4285 -0.5090 -0.1886
 2457SOL    HW1 7370   0.989   1.842   6.392  2.4718  0.3241 -0.4473
 2457SOL    HW2 7371   1.031   1.714   6.461  1.1386 -0.0901 -0.3630
 2458SOL     OW 7372   4.441   4.402   9.247  0.1377 -0.3918 -0.2146
 2458SOL    HW1 7373   4.504   4.376   9.315  0.1250  1.6575  0.6913
 2458SOL    HW2 7374   4.381   4.328   9.239  1.2003 -1.3961  0.7225
 2459SOL     OW 7375   3.266   2.807   8.949 -0.2829 -0.1159 -0.1826
 2459SOL    HW1 7376   3.257   2.712   8.955 -0.8289 -0.0148  3.7463
 2459SOL    HW2 7377   3.348   2.821   8.902  0.7668 -2.6529  0.7178
 2460SOL     OW 7378   2.250   3.782   6.515  0.5754  0.8903  0.0095
 2460SOL    HW1 7379   2.288   3.720   6.577 -0.3826  0.4025  0.1149
 2460SOL    HW2 7380   2.323   3.805   6.457  0.9693 -0.2297  0.0444
 2461SOL     OW 7381   4.857   2.726   8.630 -0.0314 -0.4181 -0.6969
 2461SOL    HW1 7382   4.887   2.754   8.716  0.2930  1.3968 -1.3494
 2461SOL    HW2 7383   4.826   2.636   8.643 -1.4642  0.3208  1.6495
 2462SOL     OW 7384   4.205   2.236   6.417 -0.3346 -0.1096  0.2844
 2462SOL    HW1 7385   4.261   2.290   6.472 -0.3725 -0.9341  1.1510
 2462SOL    HW2 7386   4.137   2.296   6.386 -0.1611  0.4237  0.9221
 2463SOL     OW 7387   4.800   2.135   5.307  0.0179  0.1063 -0.0521
 2463SOL    HW1 7388   4.758   2.059   5.348 -0.6497  1.0170  1.0118
 2463SOL    HW2 7389   4.751   2.210   5.340 -1.4427  0.8807 -3.5794
 2464SOL     OW 7390   3.960   3.855   8.468 -0.0673 -0.0209 -0.2224
 2464SOL    HW1 7391   4.035   3.838   8.411 -0.9431  1.6189 -1.9670
 2464SOL    HW2 7392   3.891   3.797   8.436 -0.2442  0.1550 -0.1673
 2465SOL     OW 7393   3.907   1.492   5.728  0.3921  0.3214  0.3028
 2465SOL    HW1 7394   3.828   1.450   5.762  0.2293 -2.1823 -2.7538
 2465SOL    HW2 7395   3.876   1.572   5.686 -0.2289  0.3638  0.8236
 2466SOL     OW 7396   3.123   3.813   7.491  0.2762  0.3305  0.3772
 2466SOL    HW1 7397   3.174   3.732   7.503 -0.1885  0.0450  0.4265
 2466SOL    HW2 7398   3.168   3.877   7.547  0.6162  0.0941  0.3789
 2467SOL     OW 7399   4.394   0.235   7.925 -0.3244  0.3620 -0.2349
 2467SOL    HW1 7400   4.457   0.175   7.964 -1.0685 -1.1497 -1.2187
 2467SOL    HW2 7401   4.335   0.178   7.875 -0.8297  1.9629 -1.5778
 2468SOL     OW 7402   1.761   3.204   6.679 -0.2737 -0.1399 -0.2291
 2468SOL    HW1 7403   1.850   3.202   6.713 -0.3161 -1.0453 -0.1422
 2468SOL    HW2 7404   1.758   3.133   6.615 -0.9852 -0.2530 -0.0834
 2469SOL     OW 7405   3.086   3.732   7.220  0.1705 -0.3020 -0.8144
 2469SOL    HW1 7406   3.156   3.673   7.249  1.1513  1.1334 -0.0891
 2469SOL    HW2 7407   3.068   3.787   7.297 -2.1306 -0.9551 -0.8416
 2470SOL     OW 7408   3.072   0.256   5.850 -0.2383 -0.1352  0.7226
 2470SOL    HW1 7409   3.056   0.322   5.917 -0.8401  0.0157  0.4330
 2470SOL    HW2 7410   3.138   0.295   5.793 -2.1919  1.1768 -0.7496
 2471SOL     OW 7411   3.517   2.458   6.617 -0.1284 -0.2061 -0.6389
 2471SOL    HW1 7412   3.439   2.469   6.562 -0.0517  2.2976 -0.3796
 2471SOL    HW2 7413   3.485   2.474   6.706  0.9483  3.3241 -0.7230
 2472SOL     OW 7414   2.786   3.314   7.819 -0.3033  0.1157  0.1864
 2472SOL    HW1 7415   2.857   3.354   7.870 -1.0576  0.8913  0.6533
 2472SOL    HW2 7416   2.707   3.361   7.847 -0.8684 -0.0893 -1.0029
 2473SOL     OW 7417   1.821   3.536   7.834 -0.4269 -0.2472 -0.2395
 2473SOL    HW1 7418   1.884   3.536   7.906 -0.8696  0.4819  0.1614
 2473SOL    HW2 7419   1.850   3.608   7.778 -1.7040  1.0550  0.6936
 2474SOL     OW 7420   3.294   0.861   9.737  0.6262  0.4628 -0.0046
 2474SOL    HW1 7421   3.198   0.868   9.733  0.5459  0.2776  1.2283
 2474SOL    HW2 7422   3.325   0.921   9.670 -0.3777 -1.4147 -2.3183
 2475SOL     OW 7423   1.407   4.108   9.514 -0.3827 -0.1507 -0.7000
 2475SOL    HW1 7424   1.415   4.088   9.607 -1.4747 -0.3964 -0.6440
 2475SOL    HW2 7425   1.496   4.125   9.485  0.0032 -0.3787  0.3234
 2476SOL     OW 7426   2.077   4.004   9.375 -0.2921 -0.4579 -0.3055
 2476SOL    HW1 7427   1.990   4.005   9.334 -1.1888  1.6895  1.4589
 2476SOL    HW2 7428   2.132   4.055   9.317 -0.7947  0.0919 -0.3047
 2477SOL     OW 7429   2.165   2.470   4.975  0.6186 -0.3784  0.4157
 2477SOL    HW1 7430   2.141   2.562   4.982  1.0748 -0.3054  1.1934
 2477SOL    HW2 7431   2.250   2.464   5.018  0.7179 -1.1175  0.1404
 2478SOL     OW 7432   4.385   0.287   5.222  0.2255  0.4373  0.1988
 2478SOL    HW1 7433   4.322   0.255   5.158  1.0284  1.3867 -1.1255
 2478SOL    HW2 7434   4.452   0.219   5.226 -0.2331  0.0060  0.6580
 2479SOL     OW 7435   2.656   4.133   8.290  0.1062 -0.0747 -0.0029
 2479SOL    HW1 7436   2.723   4.087   8.340  0.8462 -0.4262 -1.2861
 2479SOL    HW2 7437   2.608   4.183   8.356  1.9452  0.5895  0.9066
 2480SOL     OW 7438   2.875   2.506   8.548 -0.3641  0.3773 -0.8132
 2480SOL    HW1 7439   2.873   2.567   8.622  2.4574 -1.7649  1.2381
 2480SOL    HW2 7440   2.883   2.562   8.471  0.3741  2.6304  0.8020
 2481SOL     OW 7441   2.752   0.252   5.720 -0.1677 -0.4712 -0.0780
 2481SOL    HW1 7442   2.827   0.296   5.679  0.1829  0.8685  1.8702
 2481SOL    HW2 7443   2.718   0.316   5.783 -3.2191 -0.8858 -1.1335
 2482SOL     OW 7444   1.329   1.212   9.957  0.5420 -0.0733  0.7513
 2482SOL    HW1 7445   1.343   1.147  10.026  1.4277  0.6544  1.2906
 2482SOL    HW2 7446   1.381   1.288   9.985 -0.1641  0.7279 -0.0447
 2483SOL     OW 7447   4.935   1.117   7.279  0.0314  0.4714  0.3915
 2483SOL    HW1 7448   5.006   1.175   7.250  1.5484 -2.5440 -2.5705
 2483SOL    HW2 7449   4.978   1.055   7.338 -0.6027 -0.1667  0.1867
 2484SOL     OW 7450   1.305   2.209   6.779  0.0523  0.3102 -0.0786
 2484SOL    HW1 7451   1.210   2.222   6.772 -0.2845  0.0284  2.7567
 2484SOL    HW2 7452   1.315   2.114   6.779  0.4350  0.3458 -1.1719
 2485SOL     OW 7453   3.548   1.809   7.433  0.5547  0.5404 -0.0511
 2485SOL    HW1 7454   3.601   1.779   7.507  0.4823  3.7272  1.4976
 2485SOL    HW2 7455   3.458   1.793   7.460  0.5277  1.7210  0.6231
 2486SOL     OW 7456   4.911   0.562   4.796 -0.0422  0.1212  0.2751
 2486SOL    HW1 7457   4.900   0.639   4.852 -0.0993  0.0188  0.4050
 2486SOL    HW2 7458   4.834   0.507   4.815 -0.2519  0.2549 -0.1749
 2487SOL     OW 7459   4.239   0.090   5.712  0.0445  1.2071  0.3345
 2487SOL    HW1 7460   4.174   0.146   5.670  0.3946 -0.6371 -3.0541
 2487SOL    HW2 7461   4.289   0.053   5.639  1.4692 -1.5020  2.4944
 2488SOL     OW 7462   3.106   1.690   5.597 -0.0794 -0.2765 -0.0802
 2488SOL    HW1 7463   3.086   1.606   5.639  0.6845 -0.1254  0.5919
 2488SOL    HW2 7464   3.058   1.755   5.649 -0.1488 -0.2232 -0.2100
 2489SOL     OW 7465   1.727   3.774   8.715  0.5533 -0.1975 -0.4029
 2489SOL    HW1 7466   1.685   3.710   8.656  0.2643 -0.8433  0.4849
 2489SOL    HW2 7467   1.757   3.722   8.789 -0.4628  0.8141  0.7578
 2490SOL     OW 7468   0.437   2.425   8.096  0.1435 -0.7014 -0.1565
 2490SOL    HW1 7469   0.350   2.452   8.067  0.9159  0.5597 -1.3727
 2490SOL    HW2 7470   0.426   2.408   8.190 -1.5091 -1.0372 -0.3762
 2491SOL     OW 7471   1.100   4.268   6.959 -0.2365  1.1431 -0.5723
 2491SOL    HW1 7472   1.079   4.176   6.972  0.3504  1.1815  0.8108
 2491SOL    HW2 7473   1.192   4.269   6.932 -0.0949  1.3462 -0.0904
 2492SOL     OW 7474   2.795   2.018   6.779  0.5896 -0.0969 -0.4391
 2492SOL    HW1 7475   2.744   2.010   6.699 -1.0731  0.7296  0.4869
 2492SOL    HW2 7476   2.733   1.998   6.849  1.5077  1.0441  0.7423
 2493SOL     OW 7477   4.740   3.622   7.908 -0.5234  0.2411  0.6539
 2493SOL    HW1 7478   4.678   3.614   7.836  0.8586  0.5709 -0.6264
 2493SOL    HW2 7479   4.692   3.669   7.976 -2.4308 -1.5981  0.6765
 2494SOL     OW 7480   0.866   2.489   8.028  0.7470 -0.6394  0.3337
 2494SOL    HW1 7481   0.855   2.394   8.022 -0.3000 -0.5303  0.2992
 2494SOL    HW2 7482   0.829   2.512   8.113 -1.2137  0.0017 -0.6261
 2495SOL     OW 7483   2.512   3.760   8.545  0.1536 -0.9144  0.0997
 2495SOL    HW1 7484   2.531   3.721   8.460 -1.6172 -0.5942 -0.5009
 2495SOL    HW2 7485   2.582   3.730   8.603  0.1818 -2.9782 -0.9179
 2496SOL     OW 7486   3.979   4.112   8.282 -0.0638 -0.2993 -0.1284
 2496SOL    HW1 7487   3.994   4.071   8.367  0.4518  0.0330 -0.0577
 2496SOL    HW2 7488   3.892   4.080   8.256  0.6813 -2.1437 -0.4868
 2497SOL     OW 7489   1.826   3.988   8.177  0.5184  0.0648  0.2949
 2497SOL    HW1 7490   1.818   3.998   8.082  2.4183  1.0772  0.2013
 2497SOL    HW2 7491   1.759   3.924   8.200  0.5088 -0.7571 -1.8270
 2498SOL     OW 7492   3.553   2.014   4.980 -0.2073 -0.0398  0.6242
 2498SOL    HW1 7493   3.631   2.046   5.026  1.0039 -0.5990 -0.9253
 2498SOL    HW2 7494   3.569   1.920   4.971  0.0165  0.1543 -1.5764
 2499SOL     OW 7495   3.905   3.935   7.176  0.7606  0.4947  0.2551
 2499SOL    HW1 7496   3.987   3.921   7.128  0.4290  0.0787 -0.2028
 2499SOL    HW2 7497   3.878   4.023   7.153 -0.1748 -0.2298 -1.5396
 2500SOL     OW 7498   1.507   1.378   9.393 -0.7685  0.2366 -0.1409
 2500SOL    HW1 7499   1.439   1.444   9.380 -1.3863  0.1748  2.1927
 2500SOL    HW2 7500   1.579   1.426   9.434 -0.9560 -0.3537  0.9308
 2501SOL     OW 7501   0.519   3.915   7.585  0.6304 -0.6915  0.4234
 2501SOL    HW1 7502   0.538   3.860   7.660 -1.2057 -0.3046  1.2290
 2501SOL    HW2 7503   0.432   3.952   7.603 -0.6030 -1.7620 -2.5583
 2502SOL     OW 7504   2.565   4.297   8.085 -0.1910 -0.3048 -0.2803
 2502SOL    HW1 7505   2.512   4.345   8.150  1.7928  1.6741 -0.0171
 2502SOL    HW2 7506   2.587   4.214   8.129 -0.1746  0.3463  0.9866
 2503SOL     OW 7507   0.378   2.740  10.159 -0.0944 -0.5182  0.3069
 2503SOL    HW1 7508   0.467   2.711  10.179  0.6482  0.1568 -1.7352
 2503SOL    HW2 7509   0.389   2.821  10.111 -1.7313 -1.1957 -1.3515
 2504SOL     OW 7510   1.765   4.894   7.381 -0.0629 -0.3584  0.4565
 2504SOL    HW1 7511   1.819   4.967   7.350  0.4452 -1.1352 -0.5405
 2504SOL    HW2 7512   1.678   4.932   7.393  0.6057  0.8252  1.7310
 2505SOL     OW 7513   4.139   4.853   8.252 -0.0857  0.2494 -0.2955
 2505SOL    HW1 7514   4.145   4.757   8.252  0.7533  0.2810  0.6518
 2505SOL    HW2 7515   4.227   4.883   8.230 -0.9212  0.8530 -3.2174
 2506SOL     OW 7516   4.150   2.625   9.466  0.5510 -0.3607 -0.1680
 2506SOL    HW1 7517   4.151   2.604   9.560  0.1798 -1.4167 -0.3809
 2506SOL    HW2 7518   4.230   2.584   9.432  0.5076 -0.2778 -0.3698
 2507SOL     OW 7519   1.750   2.998   6.491 -0.5655 -0.4592 -0.3518
 2507SOL    HW1 7520   1.800   2.919   6.469  0.8245  0.2054  0.2980
 2507SOL    HW2 7521   1.730   3.039   6.407  0.9855 -0.1569 -0.5938
 2508SOL     OW 7522   1.073   2.103   8.279  0.1571  0.2168 -0.4101
 2508SOL    HW1 7523   0.996   2.144   8.240 -0.4064 -1.4035 -1.0997
 2508SOL    HW2 7524   1.146   2.159   8.252 -0.5078  0.4964 -1.7588
 2509SOL     OW 7525   3.848   3.093  10.362 -0.2689 -0.1558  0.2248
 2509SOL    HW1 7526   3.807   3.090  10.276  0.7294  1.0552 -0.3217
 2509SOL    HW2 7527   3.858   3.001  10.387 -0.2349 -0.5311 -1.1025
 2510SOL     OW 7528   2.358   0.625   9.296  0.1904  0.3214  0.3148
 2510SOL    HW1 7529   2.406   0.547   9.270 -2.4546 -0.8289 -1.6466
 2510SOL    HW2 7530   2.308   0.650   9.219 -1.4327  2.1166  1.8102
 2511SOL     OW 7531   3.057   1.402   7.493  0.2648  0.0951 -0.2675
 2511SOL    HW1 7532   3.064   1.481   7.546 -2.0141  0.7921 -0.9011
 2511SOL    HW2 7533   2.988   1.421   7.430  0.5352 -1.9540 -1.2792
 2512SOL     OW 7534   4.149   1.308   7.619 -0.0944  0.2076  0.3388
 2512SOL    HW1 7535   4.124   1.235   7.676  0.0976 -0.6867 -0.6890
 2512SOL    HW2 7536   4.190   1.266   7.543  0.5904  1.4229  0.0063
 2513SOL     OW 7537   3.430   0.343   7.902 -0.4476 -0.3733 -0.0379
 2513SOL    HW1 7538   3.462   0.433   7.894  1.8283 -1.2192 -1.6832
 2513SOL    HW2 7539   3.379   0.343   7.983  1.0105  1.9804  1.0176
 2514SOL     OW 7540   2.550   1.651   6.452  0.1372  0.1502  0.5038
 2514SOL    HW1 7541   2.619   1.585   6.462  1.3403  0.4527 -3.9530
 2514SOL    HW2 7542   2.595   1.735   6.467  0.1370  0.2161  0.1531
 2515SOL     OW 7543   1.926   1.779   7.372 -0.3551 -0.6565  0.1489
 2515SOL    HW1 7544   1.945   1.774   7.278 -0.0063  1.3587  0.0622
 2515SOL    HW2 7545   2.011   1.786   7.414 -0.5572 -0.2970  0.5083
 2516SOL     OW 7546   1.523   1.743   7.115  0.2704  0.8228 -0.1224
 2516SOL    HW1 7547   1.618   1.737   7.120  0.2133 -0.0532  0.0479
 2516SOL    HW2 7548   1.505   1.778   7.028  0.8139  3.2715  0.6584
 2517SOL     OW 7549   3.747   3.957   6.734  0.0831  0.1085  0.2855
 2517SOL    HW1 7550   3.674   4.001   6.778 -0.9494 -0.0480 -1.1967
 2517SOL    HW2 7551   3.720   3.865   6.730  0.8360 -0.1358  0.6120
 2518SOL     OW 7552   2.489   3.719   6.310 -0.1230 -0.0402 -0.1063
 2518SOL    HW1 7553   2.521   3.752   6.226 -0.0301 -1.5474 -0.6902
 2518SOL    HW2 7554   2.557   3.742   6.373 -0.2692  1.2509 -0.4001
 2519SOL     OW 7555   4.799   2.976   7.795  0.0728 -0.1241  0.6513
 2519SOL    HW1 7556   4.840   2.892   7.773 -1.6508 -0.2916 -2.6813
 2519SOL    HW2 7557   4.872   3.037   7.805  1.3118 -1.0919 -1.6835
 2520SOL     OW 7558   2.953   4.268   8.243  0.6965  0.2518  0.0382
 2520SOL    HW1 7559   2.982   4.301   8.158 -2.5665  0.2032 -1.2651
 2520SOL    HW2 7560   3.033   4.244   8.289  2.6105 -0.0298 -3.1578
 2521SOL     OW 7561   3.413   4.775   8.490  0.7817 -0.4198 -0.1150
 2521SOL    HW1 7562   3.431   4.693   8.443 -1.0856 -1.1743  0.3858
 2521SOL    HW2 7563   3.412   4.842   8.421  1.5782 -0.9270 -0.6407
 2522SOL     OW 7564   0.280   0.495   8.767  0.5037 -0.2085 -0.2306
 2522SOL    HW1 7565   0.337   0.542   8.705  0.9422 -1.5701 -0.9168
 2522SOL    HW2 7566   0.316   0.406   8.769 -2.8124 -1.7849 -2.3311
 2523SOL     OW 7567   4.544   0.010   7.674 -0.0017 -0.1555  0.6084
 2523SOL    HW1 7568   4.603   0.002   7.599  0.1391  1.3185  0.5162
 2523SOL    HW2 7569   4.600  -0.004   7.750  0.0911 -0.5270  0.4729
 2524SOL     OW 7570   0.177   2.500   8.009  0.7705 -0.1240  0.3035
 2524SOL    HW1 7571   0.192   2.538   7.923  2.8877  1.4290  1.2649
 2524SOL    HW2 7572   0.114   2.560   8.051  0.8859 -0.0360  0.3522
 2525SOL     OW 7573   2.868   2.849   9.583  0.2488 -0.2656 -0.1224
 2525SOL    HW1 7574   2.806   2.792   9.536 -1.2507  2.1298 -1.3113
 2525SOL    HW2 7575   2.836   2.850   9.673  1.0831 -2.2573  0.2293
 2526SOL     OW 7576   3.506   3.633   6.076  0.4198 -0.1050 -0.0314
 2526SOL    HW1 7577   3.591   3.601   6.104  0.1950  0.2012  1.0478
 2526SOL    HW2 7578   3.479   3.693   6.146  1.5176  3.7148 -2.5697
 2527SOL     OW 7579   2.075   3.232   8.528 -0.9380  0.0279 -0.8011
 2527SOL    HW1 7580   2.080   3.291   8.604 -1.2181  1.0191 -1.5209
 2527SOL    HW2 7581   2.052   3.147   8.565 -2.0878  0.7124  0.1522
 2528SOL     OW 7582   1.563   3.243  10.003  0.5797 -0.1355  0.5320
 2528SOL    HW1 7583   1.558   3.148   9.987  1.1206 -0.4473  1.9983
 2528SOL    HW2 7584   1.600   3.279   9.923 -0.6771 -1.0024 -0.4922
 2529SOL     OW 7585   2.459   0.503   8.655  0.0331  0.0526  0.1109
 2529SOL    HW1 7586   2.377   0.551   8.664 -0.7844 -1.5612  2.1716
 2529SOL    HW2 7587   2.435   0.425   8.603  0.9332  0.8948 -1.6530
 2530SOL     OW 7588   1.666   3.474   6.956 -0.2735 -0.1450  0.3000
 2530SOL    HW1 7589   1.727   3.405   6.983 -0.2049 -0.0540  0.3765
 2530SOL    HW2 7590   1.717   3.530   6.897 -0.2890 -0.0821  0.3458
 2531SOL     OW 7591   1.807   3.112   8.260  0.1730 -0.0223  0.1062
 2531SOL    HW1 7592   1.899   3.099   8.238  1.0201  2.9844  1.3541
 2531SOL    HW2 7593   1.795   3.207   8.258 -2.4776 -0.2350  1.5768
 2532SOL     OW 7594   0.516   0.870   6.525  0.4604 -0.3848  0.4774
 2532SOL    HW1 7595   0.541   0.902   6.612  2.7873  1.3384 -0.7276
 2532SOL    HW2 7596   0.584   0.806   6.504 -0.6387 -1.5298  0.2459
 2533SOL     OW 7597   2.151   0.929   6.438 -0.4979 -0.3866  0.3652
 2533SOL    HW1 7598   2.223   0.906   6.380 -0.1989  0.7949  0.2574
 2533SOL    HW2 7599   2.095   0.851   6.438 -0.4403 -0.4759 -1.4008
 2534SOL     OW 7600   4.403   4.909   8.392  0.0094  0.1575 -0.2746
 2534SOL    HW1 7601   4.478   4.920   8.450 -0.0105  2.9039 -0.6416
 2534SOL    HW2 7602   4.370   4.998   8.378 -3.1740 -0.9088 -0.3420
 2535SOL     OW 7603   1.627   1.030   9.063  0.0681 -0.3907  0.0916
 2535SOL    HW1 7604   1.581   1.057   8.983 -1.8933  1.3717  1.6711
 2535SOL    HW2 7605   1.636   1.111   9.113 -0.3190 -1.6673  2.3646
 2536SOL     OW 7606   3.789   2.595   9.145 -0.2020 -0.1957 -0.0752
 2536SOL    HW1 7607   3.747   2.518   9.106  0.2049  0.1095 -1.1468
 2536SOL    HW2 7608   3.725   2.665   9.136  0.2342  0.0975 -1.0688
 2537SOL     OW 7609   2.296   3.952   9.659 -0.1351  0.2509 -0.3423
 2537SOL    HW1 7610   2.329   3.864   9.641  0.4076  0.5173 -0.6846
 2537SOL    HW2 7611   2.374   4.008   9.658 -0.1998  0.4550  1.8766
 2538SOL     OW 7612   3.011   1.231   8.978 -1.1785  0.3755  0.5076
 2538SOL    HW1 7613   2.953   1.268   8.912 -1.6548 -0.1943  0.6014
 2538SOL    HW2 7614   3.067   1.305   9.004  0.7247  0.0709 -2.2990
 2539SOL     OW 7615   2.267   2.617   8.973 -0.1322 -0.4273  0.3307
 2539SOL    HW1 7616   2.356   2.631   8.941  0.1913  2.0143  1.9730
 2539SOL    HW2 7617   2.250   2.525   8.958  2.9900 -1.1752  0.6625
 2540SOL     OW 7618   2.619   1.078   9.188 -0.3207  0.4533  0.4325
 2540SOL    HW1 7619   2.573   0.996   9.167  0.7780 -0.0652 -0.0816
 2540SOL    HW2 7620   2.610   1.087   9.282 -2.3513  0.9356  0.2313
 2541SOL     OW 7621   1.967   3.274   9.668  0.1068  0.0873  0.6647
 2541SOL    HW1 7622   2.008   3.188   9.676  0.6324  0.3624  1.0196
 2541SOL    HW2 7623   1.992   3.320   9.748  0.5677  0.8758  0.0848
 2542SOL     OW 7624   0.019   2.455  10.051  0.2440  0.0348 -0.3363
 2542SOL    HW1 7625   0.017   2.500  10.136 -0.9173 -0.1838 -0.2286
 2542SOL    HW2 7626   0.111   2.435  10.037  0.5727  0.9376  0.4149
 2543SOL     OW 7627   1.489   1.963   8.522 -0.1312  0.2771  0.6261
 2543SOL    HW1 7628   1.555   1.896   8.506 -1.5750 -1.0980  0.1892
 2543SOL    HW2 7629   1.457   1.988   8.436 -1.1142 -0.0807  0.8630
 2544SOL     OW 7630   4.154   2.732   7.676 -0.1788  0.3209  0.2802
 2544SOL    HW1 7631   4.162   2.698   7.587 -0.3848 -2.9065  1.3841
 2544SOL    HW2 7632   4.076   2.787   7.675 -0.7378 -0.4781 -1.2823
 2545SOL     OW 7633   4.325   2.767  10.011  0.4270  0.2038 -0.2672
 2545SOL    HW1 7634   4.385   2.722   9.951  2.0609 -0.4673  1.7334
 2545SOL    HW2 7635   4.380   2.789  10.087 -1.3078  1.8998  0.5733
 2546SOL     OW 7636   3.631   4.157   9.929 -0.1008  0.4162 -0.0135
 2546SOL    HW1 7637   3.707   4.144   9.985 -0.4010  1.0526  0.5543
 2546SOL    HW2 7638   3.619   4.252   9.926  1.1171  0.6020 -2.7943
 2547SOL     OW 7639   2.764   3.767   8.701  0.3516  0.8293 -0.4003
 2547SOL    HW1 7640   2.852   3.803   8.712  0.6323  0.7343 -2.1097
 2547SOL    HW2 7641   2.776   3.672   8.703  0.5028  0.7967 -1.9328
 2548SOL     OW 7642   2.587   2.415   6.845 -0.0860  0.3669 -0.2515
 2548SOL    HW1 7643   2.570   2.335   6.896  0.0175  0.6259  0.1943
 2548SOL    HW2 7644   2.512   2.471   6.864 -0.5717  0.0575 -1.2183
 2549SOL     OW 7645   3.894   2.657   8.101  0.1991  0.2471  0.3916
 2549SOL    HW1 7646   3.939   2.672   8.185 -0.5124  1.8913  0.5057
 2549SOL    HW2 7647   3.944   2.709   8.038  0.7909 -1.0639 -0.2638
 2550SOL     OW 7648   1.441   4.059   9.769  0.5957  0.1910  0.1069
 2550SOL    HW1 7649   1.388   3.996   9.818  1.2332 -2.0134 -1.8084
 2550SOL    HW2 7650   1.531   4.041   9.796  0.7390  0.6847 -0.0334
 2551SOL     OW 7651   1.991   1.178   8.911 -0.1744 -0.0568  0.6418
 2551SOL    HW1 7652   2.068   1.129   8.884 -0.0344  0.2786  0.4238
 2551SOL    HW2 7653   1.981   1.158   9.004  0.0734 -0.2399  0.6294
 2552SOL     OW 7654   4.974   1.653   8.376  0.6189  0.3057 -0.7148
 2552SOL    HW1 7655   4.911   1.582   8.359  1.5961 -0.3173 -1.8360
 2552SOL    HW2 7656   4.976   1.703   8.294  0.7697  0.9783 -0.3051
 2553SOL     OW 7657   0.968   2.822   9.959  0.2084 -0.5092  0.0328
 2553SOL    HW1 7658   0.930   2.768   9.890 -3.9579 -1.0146  2.3495
 2553SOL    HW2 7659   0.933   2.910   9.943  2.0817  0.2164 -0.3547
 2554SOL     OW 7660   3.418   3.414   8.692  0.3672 -0.1658 -0.6667
 2554SOL    HW1 7661   3.381   3.376   8.613  0.6544 -1.9264 -0.0125
 2554SOL    HW2 7662   3.513   3.403   8.681  0.5316  1.2109 -0.8361
 2555SOL     OW 7663   4.183   3.302   8.175 -0.3649 -0.6891 -0.0835
 2555SOL    HW1 7664   4.182   3.317   8.269 -1.8883  0.7694 -0.2770
 2555SOL    HW2 7665   4.266   3.340   8.146 -0.3217 -0.2664  0.5638
 2556SOL     OW 7666   1.064   3.427   9.354  0.1955  0.2186 -0.0601
 2556SOL    HW1 7667   0.976   3.389   9.348  0.4132 -0.4843  1.0064
 2556SOL    HW2 7668   1.121   3.352   9.368  1.1730  0.4961 -2.1714
 2557SOL     OW 7669   0.518   3.144   8.475 -0.6835 -0.2764  0.1312
 2557SOL    HW1 7670   0.557   3.218   8.429 -1.4573  2.0214  2.8235
 2557SOL    HW2 7671   0.579   3.124   8.545 -0.4434 -2.3546 -0.6052
 2558SOL     OW 7672   0.031   3.455   8.188  0.1645 -0.4949 -0.0880
 2558SOL    HW1 7673  -0.018   3.381   8.225  0.6108 -0.7691 -0.0279
 2558SOL    HW2 7674  -0.004   3.465   8.100  0.4022 -1.0649 -0.2522
 2559SOL     OW 7675   1.059   1.852   5.368  0.1073 -0.0472  0.9791
 2559SOL    HW1 7676   1.087   1.935   5.406  3.1669  0.6486 -2.2914
 2559SOL    HW2 7677   1.017   1.876   5.285  0.8931 -1.7048  0.0367
 2560SOL     OW 7678   1.628   2.784   9.864  0.0740  0.1578 -0.2038
 2560SOL    HW1 7679   1.570   2.856   9.891 -2.1439 -0.6744 -2.4012
 2560SOL    HW2 7680   1.591   2.707   9.907 -0.1763 -0.3003 -1.2271
 2561SOL     OW 7681   4.899   4.062   9.136 -0.0733  0.2384 -0.2035
 2561SOL    HW1 7682   4.993   4.056   9.153  0.1737  2.3407 -0.5095
 2561SOL    HW2 7683   4.887   4.150   9.100 -2.2877  0.3678  0.6870
 2562SOL     OW 7684   3.004   3.297   9.226 -0.6314  0.2425 -0.3150
 2562SOL    HW1 7685   2.965   3.215   9.254  0.5325 -0.6525 -1.2294
 2562SOL    HW2 7686   3.090   3.273   9.193 -0.3503  1.8029 -0.8140
 2563SOL     OW 7687   4.375   0.148   9.198  0.2173 -0.4634  0.1334
 2563SOL    HW1 7688   4.434   0.124   9.127 -0.1838 -0.9790 -0.0299
 2563SOL    HW2 7689   4.294   0.100   9.180 -0.1634  0.0204  0.5016
 2564SOL     OW 7690   3.666   3.704   8.891  0.2180  0.6977 -0.2580
 2564SOL    HW1 7691   3.741   3.753   8.925 -0.2900  1.1667  0.2048
 2564SOL    HW2 7692   3.629   3.660   8.967 -0.0258  0.5277 -0.4737
 2565SOL     OW 7693   3.336   2.688   8.644  0.3554 -0.0363 -0.0137
 2565SOL    HW1 7694   3.401   2.736   8.697 -1.6765  1.0352  1.7014
 2565SOL    HW2 7695   3.285   2.757   8.602  0.8123 -0.8734 -2.0277
 2566SOL     OW 7696   3.408   0.608   9.717  0.1272  0.5507  0.4671
 2566SOL    HW1 7697   3.401   0.702   9.731  0.2941  0.7591 -0.7481
 2566SOL    HW2 7698   3.491   0.597   9.670 -1.7680  0.3166 -3.2017
 2567SOL     OW 7699   4.937   2.508   9.580 -0.3899  0.0966 -0.0028
 2567SOL    HW1 7700   4.933   2.432   9.637  0.4981 -0.1487 -0.2500
 2567SOL    HW2 7701   4.961   2.580   9.637  2.0376 -0.4245 -0.2598
 2568SOL     OW 7702   1.002   2.338  10.086 -0.1095 -0.1700  0.1541
 2568SOL    HW1 7703   0.946   2.360  10.011 -1.0704 -1.7258  0.3697
 2568SOL    HW2 7704   0.980   2.402  10.153  0.1833  0.7526 -0.6121
 2569SOL     OW 7705   2.749   3.549   9.392 -0.3056 -0.0161  0.2160
 2569SOL    HW1 7706   2.827   3.603   9.376  0.3881 -0.0728  2.9106
 2569SOL    HW2 7707   2.676   3.610   9.383 -0.4150 -0.5109 -5.1654
 2570SOL     OW 7708   1.047   2.848   9.507 -0.1873  0.2236 -0.6775
 2570SOL    HW1 7709   1.026   2.886   9.422  1.6045  1.6404 -0.5528
 2570SOL    HW2 7710   1.025   2.756   9.499  0.3720  0.2443 -2.8396
 2571SOL     OW 7711   2.924   2.630   9.756 -0.9314 -0.6254  0.3591
 2571SOL    HW1 7712   2.907   2.723   9.772  0.6505  0.2180 -2.3196
 2571SOL    HW2 7713   3.001   2.629   9.700  0.6103 -3.7219  2.2994
 2572SOL     OW 7714   3.520   2.421   8.811  0.1975  0.1707  0.2431
 2572SOL    HW1 7715   3.607   2.461   8.802  0.7165 -0.9744 -0.0342
 2572SOL    HW2 7716   3.463   2.474   8.755  0.4045  1.7772  1.4906
 2573SOL     OW 7717   1.186   2.978  10.018  0.4584  0.0610 -0.2287
 2573SOL    HW1 7718   1.149   3.066  10.009  3.6401  1.5768  0.1311
 2573SOL    HW2 7719   1.124   2.921   9.972 -0.5468  2.8098 -2.5874
 2574SOL     OW 7720   2.456   4.761   9.066 -0.1248 -0.5190  0.7469
 2574SOL    HW1 7721   2.533   4.707   9.047 -0.3388 -0.9472  1.0935
 2574SOL    HW2 7722   2.415   4.719   9.142 -1.8368 -1.4638 -0.6381
 2575SOL     OW 7723   3.182   1.243   7.790  0.0622  0.1006 -0.2546
 2575SOL    HW1 7724   3.272   1.211   7.782 -0.0365  0.0825 -1.4774
 2575SOL    HW2 7725   3.137   1.208   7.713 -1.0933 -0.1810  0.5193
 2576SOL     OW 7726   3.360   4.935  10.093 -0.4384 -0.3266  0.2920
 2576SOL    HW1 7727   3.304   5.009  10.113  0.2533  0.0232  0.9954
 2576SOL    HW2 7728   3.446   4.973  10.078 -0.5662 -0.7444 -1.8031
 2577SOL     OW 7729   3.441   4.120   9.723 -0.0711  0.3356  0.3888
 2577SOL    HW1 7730   3.506   4.104   9.791 -0.0389 -1.0175  0.0608
 2577SOL    HW2 7731   3.367   4.064   9.746 -0.8668  1.3429  0.3785
 2578SOL     OW 7732   3.553   2.144   8.856  0.0058 -0.0945  0.0938
 2578SOL    HW1 7733   3.574   2.096   8.776  1.2716 -0.6316  0.7179
 2578SOL    HW2 7734   3.537   2.234   8.827 -2.0501 -0.7611 -1.0516
 2579SOL     OW 7735   1.014   4.293   8.293 -0.1570 -0.3462  0.5979
 2579SOL    HW1 7736   1.085   4.316   8.232  0.4289  0.8307  1.6824
 2579SOL    HW2 7737   1.039   4.206   8.325 -0.6414 -1.1395 -1.0281
 2580SOL     OW 7738   0.628   1.514   9.790 -0.5422 -0.4052 -0.0698
 2580SOL    HW1 7739   0.633   1.482   9.700 -0.9197  1.0310 -0.6271
 2580SOL    HW2 7740   0.718   1.509   9.822 -0.3373 -0.5615 -0.6589
 2581SOL     OW 7741   4.395   3.809   9.665  0.0134  0.1612 -0.0577
 2581SOL    HW1 7742   4.446   3.890   9.666  0.5617 -0.1597 -0.6658
 2581SOL    HW2 7743   4.314   3.831   9.710  1.5715  0.0911  3.1176
 2582SOL     OW 7744   1.246   3.088   7.161 -0.2898  0.7412 -0.2741
 2582SOL    HW1 7745   1.309   3.113   7.229 -1.4064  0.8577  0.7534
 2582SOL    HW2 7746   1.283   3.008   7.123 -0.4152 -0.2895  1.6237
 2583SOL     OW 7747   2.170   4.240   8.972  0.2282  0.5203  0.0121
 2583SOL    HW1 7748   2.222   4.320   8.978 -0.5299  0.9997  0.4427
 2583SOL    HW2 7749   2.080   4.269   8.984 -0.2445 -0.1761 -1.5971
 2584SOL     OW 7750   4.269   4.508   7.114  0.2305  0.2713 -0.2010
 2584SOL    HW1 7751   4.184   4.518   7.070  1.5437  1.0219 -2.7732
 2584SOL    HW2 7752   4.255   4.437   7.177 -1.7905 -0.9772 -1.9262
 2585SOL     OW 7753   3.424   1.524   9.601 -0.4135 -1.2092  0.5939
 2585SOL    HW1 7754   3.406   1.430   9.609  1.1468 -1.6386 -0.5355
 2585SOL    HW2 7755   3.431   1.539   9.506  1.3051 -0.3632  0.8157
 2586SOL     OW 7756   4.896   2.423   8.357 -0.6413 -0.5449  0.1085
 2586SOL    HW1 7757   4.839   2.482   8.308  0.7566 -0.0550 -1.0041
 2586SOL    HW2 7758   4.872   2.336   8.327  0.1047 -0.2558 -1.3868
 2587SOL     OW 7759   0.910   0.061   8.180 -0.2044 -0.3564  0.1760
 2587SOL    HW1 7760   0.816   0.063   8.162 -0.3038  0.1063  0.7111
 2587SOL    HW2 7761   0.916   0.061   8.276  0.3571  3.5024  0.2896
 2588SOL     OW 7762   1.387   2.386   9.718  0.3456  0.2649  0.6177
 2588SOL    HW1 7763   1.342   2.360   9.798 -1.1074  1.4946  0.2523
 2588SOL    HW2 7764   1.444   2.311   9.696 -0.6664 -0.8685  1.7326
 2589SOL     OW 7765   2.392   4.021   8.509  0.6306 -0.2659  0.3620
 2589SOL    HW1 7766   2.382   4.040   8.602 -0.7033 -0.2801  0.2399
 2589SOL    HW2 7767   2.441   3.939   8.506  0.9041 -0.1302  1.0412
 2590SOL     OW 7768   2.368   4.600   7.397  0.0868  0.0752  0.1934
 2590SOL    HW1 7769   2.389   4.617   7.305  0.7610  2.8976  0.7676
 2590SOL    HW2 7770   2.452   4.610   7.443 -0.5964  0.9445  1.3294
 2591SOL     OW 7771   0.770   4.095   9.786  0.0755  0.3470 -0.5209
 2591SOL    HW1 7772   0.785   4.029   9.718 -3.1593  0.0708 -1.1264
 2591SOL    HW2 7773   0.736   4.171   9.739 -1.0299  0.5999  0.6186
 2592SOL     OW 7774   4.557   4.529   8.079 -0.1894 -0.8027  0.4018
 2592SOL    HW1 7775   4.509   4.557   8.157  1.1462 -1.0051  1.3373
 2592SOL    HW2 7776   4.543   4.599   8.015 -0.9715 -0.4386  0.9624
 2593SOL     OW 7777   1.377   4.544  10.244  0.2791  0.0546 -0.4718
 2593SOL    HW1 7778   1.404   4.474  10.304  4.0106  2.0869  0.5132
 2593SOL    HW2 7779   1.402   4.512  10.157 -0.5499 -0.8724 -0.3873
 2594SOL     OW 7780   0.657   1.222   8.705  0.5484 -0.0498  0.1147
 2594SOL    HW1 7781   0.681   1.132   8.683  1.1816  0.2913 -0.6491
 2594SOL    HW2 7782   0.576   1.238   8.657  0.8260  0.0138 -0.3469
 2595SOL     OW 7783   2.779   2.468  10.100 -0.6954 -0.0210 -0.1578
 2595SOL    HW1 7784   2.770   2.550  10.050 -0.5009 -0.1428 -0.3951
 2595SOL    HW2 7785   2.694   2.457  10.143 -0.5661  0.5628  0.2731
 2596SOL     OW 7786   2.263   1.780   9.800 -0.5052  0.5573  0.0332
 2596SOL    HW1 7787   2.324   1.715   9.767 -0.1075  0.2225  1.3708
 2596SOL    HW2 7788   2.264   1.768   9.895 -1.6046  1.4730  0.1807
 2597SOL     OW 7789   2.464   3.442   6.336  0.4799 -0.0909  0.2685
 2597SOL    HW1 7790   2.489   3.532   6.318  1.4455 -0.1865  1.0413
 2597SOL    HW2 7791   2.410   3.447   6.414 -0.0259 -0.1217 -0.0744
 2598SOL     OW 7792   3.684   2.772   8.230 -0.5081  0.4674 -0.1928
 2598SOL    HW1 7793   3.746   2.713   8.187 -1.3547 -0.6318  0.0279
 2598SOL    HW2 7794   3.676   2.847   8.172 -0.8322 -0.5071 -1.4357
 2599SOL     OW 7795   0.633   2.382   9.435 -0.1981  0.3412  0.4374
 2599SOL    HW1 7796   0.707   2.389   9.374  0.5985 -1.0035  1.1781
 2599SOL    HW2 7797   0.555   2.387   9.380  0.4992 -1.0734 -0.7562
 2600SOL     OW 7798   4.363   3.327   7.453 -0.4390 -0.2697 -0.3344
 2600SOL    HW1 7799   4.453   3.339   7.484 -0.4812  1.6456 -0.8470
 2600SOL    HW2 7800   4.327   3.415   7.452 -1.8706 -0.8481 -1.5412
 2601SOL     OW 7801   2.005   3.226   9.365  0.0689 -0.5344 -0.0898
 2601SOL    HW1 7802   2.079   3.238   9.426 -0.9568 -0.8655  1.2641
 2601SOL    HW2 7803   2.046   3.197   9.284  1.4063 -1.0910  0.7446
 2602SOL     OW 7804   1.886   4.446   8.882 -0.1053  0.4460  0.2051
 2602SOL    HW1 7805   1.806   4.406   8.850  0.5202  0.2568 -1.1989
 2602SOL    HW2 7806   1.858   4.501   8.955 -1.0854 -1.9647  1.7534
 2603SOL     OW 7807   1.785   4.443   8.500  0.1721  0.6830 -0.0374
 2603SOL    HW1 7808   1.757   4.432   8.591 -0.5656 -1.3355 -0.4538
 2603SOL    HW2 7809   1.880   4.429   8.503 -0.0354 -0.8694  0.2530
 2604SOL     OW 7810   2.652   3.328   9.716 -0.4989 -0.5875 -0.4511
 2604SOL    HW1 7811   2.714   3.328   9.642 -0.9466 -0.7261 -0.8340
 2604SOL    HW2 7812   2.651   3.237   9.745  1.4221 -0.1507  1.2383
 2605SOL     OW 7813   2.746   0.203   7.164 -0.4342 -0.0726 -0.6967
 2605SOL    HW1 7814   2.837   0.212   7.191 -1.2024  0.3049  2.0634
 2605SOL    HW2 7815   2.721   0.115   7.191 -0.9438 -0.1243 -1.2992
 2606SOL     OW 7816   3.629   4.444   8.895  0.5579  0.5962  0.4120
 2606SOL    HW1 7817   3.544   4.475   8.928  0.4070 -0.1194  0.7204
 2606SOL    HW2 7818   3.673   4.523   8.864  0.2747  1.1494  1.3749
 2607SOL     OW 7819   2.427   0.547  10.107 -0.2642 -0.3370 -0.5661
 2607SOL    HW1 7820   2.334   0.531  10.125 -0.4320  0.6677 -0.4936
 2607SOL    HW2 7821   2.469   0.463  10.125 -1.1293 -0.7577 -0.4175
 2608SOL     OW 7822   4.294   3.429   9.074  0.3429  0.5042  0.8757
 2608SOL    HW1 7823   4.355   3.472   9.132 -0.8562  0.3608  2.2960
 2608SOL    HW2 7824   4.268   3.496   9.011 -0.4306  1.4857  2.1990
 2609SOL     OW 7825   0.084   1.080   8.823 -0.1335 -1.0847 -0.1763
 2609SOL    HW1 7826   0.007   1.135   8.831  0.9049  0.5032 -0.5984
 2609SOL    HW2 7827   0.129   1.089   8.907  0.8455  0.0255 -0.7901
 2610SOL     OW 7828   0.201   2.714   9.114 -0.3138  0.6703 -0.2335
 2610SOL    HW1 7829   0.224   2.624   9.138 -0.8263  0.3363 -0.9631
 2610SOL    HW2 7830   0.282   2.750   9.076 -0.7081 -0.2309 -2.0294
 2611SOL     OW 7831   3.858   0.397   7.751 -0.0073  0.2039  0.0806
 2611SOL    HW1 7832   3.869   0.352   7.835  0.4808  1.5706  0.7884
 2611SOL    HW2 7833   3.853   0.490   7.775 -1.1944  0.5311 -1.2958
 2612SOL     OW 7834   3.150   4.239   9.377 -0.1495  0.3440 -0.0422
 2612SOL    HW1 7835   3.239   4.262   9.352  0.1753  0.2744  1.0148
 2612SOL    HW2 7836   3.126   4.303   9.444 -0.9407  0.4347 -0.3994
 2613SOL     OW 7837   4.112   1.064   9.250 -0.1496  0.2568 -0.0721
 2613SOL    HW1 7838   4.147   1.084   9.337  0.5208 -2.2570  0.3460
 2613SOL    HW2 7839   4.056   0.987   9.264  2.5625 -2.3569 -2.2186
 2614SOL     OW 7840   0.887   3.914   8.395  0.5262 -0.3030  0.4041
 2614SOL    HW1 7841   0.892   3.819   8.407 -0.4669 -0.1365  2.6903
 2614SOL    HW2 7842   0.975   3.939   8.369  1.4063 -1.6440  1.8747
 2615SOL     OW 7843   2.940   1.031   9.167  0.3384  0.7376 -0.5986
 2615SOL    HW1 7844   2.970   1.107   9.117 -1.7943  0.6053 -2.1949
 2615SOL    HW2 7845   2.854   1.056   9.201  0.2730 -0.4194  0.1683
 2616SOL     OW 7846   0.843   1.845   9.507 -0.6185 -0.3200 -0.0847
 2616SOL    HW1 7847   0.788   1.889   9.572  1.9649  1.3433  1.1147
 2616SOL    HW2 7848   0.902   1.791   9.559 -0.1904 -0.9957 -1.2469
 2617SOL     OW 7849   2.644   1.872   8.564 -0.3433  0.1050 -0.0381
 2617SOL    HW1 7850   2.691   1.956   8.556  1.4051 -0.9694 -2.1079
 2617SOL    HW2 7851   2.644   1.837   8.475 -2.0788 -1.5874  0.5808
 2618SOL     OW 7852   3.670   1.424   8.523  0.5440  0.0950 -0.0703
 2618SOL    HW1 7853   3.688   1.497   8.581  1.4006 -0.6230  0.6065
 2618SOL    HW2 7854   3.575   1.413   8.526  0.5604  0.1833  1.0611
 2619SOL     OW 7855   1.545   2.819   8.362 -0.0568 -0.3804  0.5311
 2619SOL    HW1 7856   1.496   2.737   8.365 -0.2753 -0.5235 -2.9473
 2619SOL    HW2 7857   1.630   2.795   8.325 -0.2852  0.9920 -0.9906
 2620SOL     OW 7858   2.197   3.562   8.978 -0.5589  0.5206  0.0306
 2620SOL    HW1 7859   2.169   3.645   8.941 -0.6301 -1.0854 -3.9499
 2620SOL    HW2 7860   2.292   3.562   8.969 -0.5687  0.1409 -0.1045
 2621SOL     OW 7861   3.068   2.373  10.139 -0.4757 -0.3157 -0.4211
 2621SOL    HW1 7862   3.129   2.405  10.206  0.0266 -0.2228 -0.9186
 2621SOL    HW2 7863   2.985   2.362  10.186  0.0861 -1.1140  0.4282
 2622SOL     OW 7864   4.647   1.823   9.588  0.1612  0.3553 -0.1583
 2622SOL    HW1 7865   4.657   1.910   9.548 -0.7415 -1.2637 -4.3736
 2622SOL    HW2 7866   4.560   1.825   9.628 -0.4374  0.9936 -1.4442
 2623SOL     OW 7867   4.551   0.150   9.558  0.1883  0.1265  0.1993
 2623SOL    HW1 7868   4.577   0.206   9.631  0.2183 -1.7104  1.6491
 2623SOL    HW2 7869   4.535   0.064   9.597 -3.3314 -0.1034 -1.3640
 2624SOL     OW 7870   4.017   1.086  10.334  0.5277 -0.0200 -0.4099
 2624SOL    HW1 7871   4.030   1.110  10.242  0.9590  3.4475  0.4002
 2624SOL    HW2 7872   3.996   0.993  10.332  1.9484 -0.4095 -3.8651
 2625SOL     OW 7873   1.196   2.498   7.377  0.2899  0.2886  0.6040
 2625SOL    HW1 7874   1.204   2.492   7.473 -0.5906  0.5611  0.6983
 2625SOL    HW2 7875   1.268   2.443   7.344 -2.3089 -4.1308  1.4101
 2626SOL     OW 7876   1.422   3.135   9.733  0.0166 -0.8485 -0.8454
 2626SOL    HW1 7877   1.480   3.204   9.765 -2.4530  0.7055  0.6603
 2626SOL    HW2 7878   1.435   3.134   9.638  1.4510  0.3756 -0.6970
 2627SOL     OW 7879   2.930   2.607   8.314  0.0695 -0.3874 -0.2783
 2627SOL    HW1 7880   2.993   2.621   8.243  1.0407 -3.1573 -0.0792
 2627SOL    HW2 7881   2.846   2.633   8.276  1.1219  2.5810 -0.8367
 2628SOL     OW 7882   3.549   1.131   8.049  0.5694 -0.9512 -0.0504
 2628SOL    HW1 7883   3.626   1.186   8.054  1.1071 -1.6408 -0.4932
 2628SOL    HW2 7884   3.488   1.168   8.112  1.1862 -0.2795  0.1579
 2629SOL     OW 7885   3.546   1.030   8.761 -0.2645  0.2213 -0.2928
 2629SOL    HW1 7886   3.483   1.062   8.696  2.0482 -0.8937 -3.3357
 2629SOL    HW2 7887   3.616   1.095   8.760  1.0351 -1.1416 -0.9585
 2630SOL     OW 7888   2.142   4.462   8.718 -0.3990 -1.1851  0.0834
 2630SOL    HW1 7889   2.056   4.484   8.752 -0.0537 -3.6020  2.8458
 2630SOL    HW2 7890   2.190   4.545   8.720 -1.7666 -0.3740  1.3818
 2631SOL     OW 7891   4.623   0.542   8.776  0.0710 -0.0584  0.0160
 2631SOL    HW1 7892   4.551   0.597   8.746  0.9108  0.7343 -0.6197
 2631SOL    HW2 7893   4.677   0.600   8.830  0.9278 -0.2539 -0.5971
 2632SOL     OW 7894   4.793   3.250   9.595  0.0885  0.1891  0.4846
 2632SOL    HW1 7895   4.810   3.336   9.556  0.1182  0.7642  1.7107
 2632SOL    HW2 7896   4.700   3.234   9.577  0.4625 -0.3208 -1.2012
 2633SOL     OW 7897   2.417   0.487   9.660 -0.2779  0.1977  0.1310
 2633SOL    HW1 7898   2.505   0.505   9.693 -0.2470 -0.0207  0.1679
 2633SOL    HW2 7899   2.409   0.391   9.662 -1.3724  0.2714  2.4214
 2634SOL     OW 7900   2.124   4.157   7.297 -0.4002 -0.1289 -0.1585
 2634SOL    HW1 7901   2.029   4.148   7.294 -0.3545 -0.2994 -1.6255
 2634SOL    HW2 7902   2.147   4.200   7.215  0.7758  0.0954  0.2672
 2635SOL     OW 7903   0.165   1.399   8.415  0.2517  0.3281 -0.0847
 2635SOL    HW1 7904   0.109   1.466   8.376  0.2179  0.6211  0.4569
 2635SOL    HW2 7905   0.182   1.431   8.504  2.0534  0.7280 -0.5303
 2636SOL     OW 7906   2.445   2.485   9.843  1.0883  0.2628  0.3517
 2636SOL    HW1 7907   2.376   2.484   9.777  0.6740  0.7130  0.7663
 2636SOL    HW2 7908   2.526   2.478   9.793  0.7145 -1.9153 -0.0404
 2637SOL     OW 7909   3.002   3.960   8.213  0.3174  0.5435 -0.5694
 2637SOL    HW1 7910   2.995   3.916   8.298  2.5931  0.0117 -0.5850
 2637SOL    HW2 7911   2.936   4.030   8.216 -2.9770 -2.3264 -0.2882
 2638SOL     OW 7912   0.469   4.034   9.321 -0.2308 -0.4493 -0.0347
 2638SOL    HW1 7913   0.440   3.956   9.273 -4.9703  0.2455  1.1879
 2638SOL    HW2 7914   0.436   4.021   9.410  0.4629  2.1526  0.6907
 2639SOL     OW 7915   2.660   0.652   8.740 -0.3016 -0.1508 -0.4439
 2639SOL    HW1 7916   2.613   0.730   8.710  2.6105 -0.0741 -6.1442
 2639SOL    HW2 7917   2.599   0.579   8.725 -1.0973  0.5169 -0.5179
 2640SOL     OW 7918   4.924   0.725   9.914  0.0251  0.5845  0.7058
 2640SOL    HW1 7919   4.839   0.691   9.940 -0.5907  2.8508  1.8684
 2640SOL    HW2 7920   4.986   0.655   9.938 -1.4249 -0.9780  0.0972
 2641SOL     OW 7921   0.643   0.487   9.325  0.2900 -0.1462  0.2020
 2641SOL    HW1 7922   0.610   0.506   9.413  0.1358  0.7436 -0.0349
 2641SOL    HW2 7923   0.644   0.572   9.281  1.1826 -0.4496 -0.3861
 2642SOL     OW 7924   0.383   1.276   8.601 -0.8119 -0.7317  0.5736
 2642SOL    HW1 7925   0.378   1.196   8.653 -1.0645 -0.7926  0.4564
 2642SOL    HW2 7926   0.341   1.254   8.518 -0.2154 -0.7019  0.2584
 2643SOL     OW 7927   1.178   3.191   9.413  0.3294  0.1353 -0.3315
 2643SOL    HW1 7928   1.265   3.201   9.453  0.4989 -0.1711 -0.6122
 2643SOL    HW2 7929   1.138   3.119   9.462  0.3329  0.1077 -0.3698
 2644SOL     OW 7930   0.025   4.431   9.756 -0.4668 -0.4562  0.0867
 2644SOL    HW1 7931   0.115   4.402   9.768 -0.6587 -2.2542 -2.1353
 2644SOL    HW2 7932   0.020   4.456   9.664 -2.1111  0.2224  0.3217
 2645SOL     OW 7933   2.263   2.410   7.503 -0.0639 -0.4118 -0.4023
 2645SOL    HW1 7934   2.323   2.481   7.479 -1.3376  1.2210  0.9367
 2645SOL    HW2 7935   2.200   2.452   7.563 -0.7834 -2.7259  0.5687
 2646SOL     OW 7936   4.772   3.051   8.191  0.1296 -1.1318  0.1878
 2646SOL    HW1 7937   4.750   3.015   8.105 -0.6951 -1.0459  0.3564
 2646SOL    HW2 7938   4.703   3.019   8.249  0.7496 -1.2903  0.8497
 2647SOL     OW 7939   3.625   0.148   9.322  0.1159  0.4086  0.7259
 2647SOL    HW1 7940   3.603   0.068   9.276  1.7168 -0.3895  1.2553
 2647SOL    HW2 7941   3.604   0.129   9.414  0.4732  0.5887  0.8478
 2648SOL     OW 7942   1.993   4.800   9.628  0.1877  0.4242  0.1742
 2648SOL    HW1 7943   1.942   4.806   9.709  0.4263  0.6889  0.3071
 2648SOL    HW2 7944   1.930   4.771   9.562  0.0170  0.0954  0.4796
 2649SOL     OW 7945   0.378   3.984   9.859  0.2791  0.2346 -0.0057
 2649SOL    HW1 7946   0.368   4.078   9.844 -0.8014  0.5067  2.0638
 2649SOL    HW2 7947   0.396   3.977   9.953  0.5237 -1.6239 -0.1577
 2650SOL     OW 7948   1.113   2.047   9.658  0.2362  0.2542  0.5990
 2650SOL    HW1 7949   1.037   2.106   9.663 -0.7403 -1.0638  3.4576
 2650SOL    HW2 7950   1.076   1.965   9.626  0.4507 -0.3109  1.7407
 2651SOL     OW 7951   4.414   3.246   8.871  0.3404  0.1207  0.6904
 2651SOL    HW1 7952   4.425   3.296   8.952  0.6460  0.9503  0.1446
 2651SOL    HW2 7953   4.345   3.182   8.892  0.4534  0.2804  1.6170
 2652SOL     OW 7954   2.612   2.693   9.919  0.0074 -0.0498 -0.0994
 2652SOL    HW1 7955   2.518   2.698   9.904  0.3333  1.3478 -1.9763
 2652SOL    HW2 7956   2.637   2.607   9.884 -0.3878  0.1257 -0.8319
 2653SOL     OW 7957   0.749   3.937   9.556 -0.1364 -0.3083 -0.0738
 2653SOL    HW1 7958   0.711   3.858   9.517  0.3538 -0.4363 -0.2994
 2653SOL    HW2 7959   0.744   4.002   9.486 -3.7450  0.9555  1.1149
 2654SOL     OW 7960   0.941   4.718   9.638 -0.2245  0.2224 -0.0991
 2654SOL    HW1 7961   0.995   4.669   9.576 -0.5342 -0.7322  0.3629
 2654SOL    HW2 7962   0.856   4.726   9.596  0.1701  1.4553 -0.6953
 2655SOL     OW 7963   4.184   1.702   9.069 -0.0818  0.2392  0.2286
 2655SOL    HW1 7964   4.120   1.706   9.140 -1.2843  2.4824 -0.8395
 2655SOL    HW2 7965   4.220   1.791   9.065 -1.6723  0.9173 -3.2394
 2656SOL     OW 7966   0.082   0.635   9.705 -0.2229  0.1975 -0.0236
 2656SOL    HW1 7967   0.062   0.661   9.795 -2.1598  0.9820 -0.6228
 2656SOL    HW2 7968   0.132   0.553   9.714 -0.6145  0.1104  1.7398
 2657SOL     OW 7969   0.109   2.834   9.861 -0.5295 -0.5674 -0.4237
 2657SOL    HW1 7970   0.031   2.784   9.837 -0.2222 -1.4581  0.3937
 2657SOL    HW2 7971   0.181   2.789   9.818 -0.5299  0.7639 -1.9031
 2658SOL     OW 7972   2.926   1.293   9.605  0.2756  0.0613 -0.2726
 2658SOL    HW1 7973   2.842   1.294   9.651  0.7317 -1.6164  0.6720
 2658SOL    HW2 7974   2.934   1.380   9.567 -2.3764 -0.0281 -1.2636
 2659SOL     OW 7975   3.184   3.672   9.562  0.5067 -0.0123  0.2897
 2659SOL    HW1 7976   3.272   3.635   9.570  0.0149 -1.1882  0.3948
 2659SOL    HW2 7977   3.132   3.626   9.628 -0.8090 -1.2551 -1.5146
 2660SOL     OW 7978   0.957   3.710   8.162  0.2120 -0.0167  0.0969
 2660SOL    HW1 7979   0.915   3.650   8.224 -0.5104  1.1091  0.7376
 2660SOL    HW2 7980   1.051   3.696   8.175  0.0600 -0.8074  0.4299
 2661SOL     OW 7981   2.837   0.241   7.850  0.4950  0.1550 -0.2659
 2661SOL    HW1 7982   2.826   0.159   7.899 -1.0113  0.3880 -0.1595
 2661SOL    HW2 7983   2.856   0.213   7.760  0.8052 -0.2906 -0.0679
 2662SOL     OW 7984   0.925   0.092   8.464 -0.5845  0.0556 -0.2650
 2662SOL    HW1 7985   1.003   0.119   8.512 -0.3449 -1.5713  0.3368
 2662SOL    HW2 7986   0.871   0.047   8.529 -1.1704 -0.4414 -1.0772
 2663SOL     OW 7987   0.514   0.939   7.677 -0.3568  0.0493  0.2827
 2663SOL    HW1 7988   0.447   0.949   7.610  0.0949 -1.4085 -0.4151
 2663SOL    HW2 7989   0.557   1.025   7.680  0.1622 -0.0745 -1.8937
 2664SOL     OW 7990   1.894   2.298   8.921 -0.1851 -0.3530  0.7375
 2664SOL    HW1 7991   1.868   2.297   8.829  0.5971  0.1914  0.5043
 2664SOL    HW2 7992   1.990   2.300   8.919  0.0050 -3.2506  1.5578
 2665SOL     OW 7993   1.085   4.202  10.410 -0.0672 -0.1294  0.7039
 2665SOL    HW1 7994   1.009   4.149  10.433 -0.0759 -0.6339 -0.4229
 2665SOL    HW2 7995   1.052   4.266  10.347  0.7230 -1.4676 -1.1923
 2666SOL     OW 7996   1.634   4.063   6.055 -0.2387  0.4282 -0.2635
 2666SOL    HW1 7997   1.601   4.040   6.141  0.5195  0.7701  0.1354
 2666SOL    HW2 7998   1.560   4.105   6.011 -0.7090  0.0065  0.1206
 2667SOL     OW 7999   3.000  -0.008   5.254 -0.1809 -0.5062 -0.7021
 2667SOL    HW1 8000   3.033   0.048   5.325  1.0155 -1.7470 -0.2323
 2667SOL    HW2 8001   2.909   0.020   5.242  0.3423  1.4459 -0.4223
 2668SOL     OW 8002   0.122   2.237   6.218 -0.0853 -0.1368 -0.3325
 2668SOL    HW1 8003   0.127   2.300   6.147  0.9806  0.3928  0.1878
 2668SOL    HW2 8004   0.032   2.243   6.250 -0.4767 -0.1444 -1.4073
 2669SOL     OW 8005   4.018   4.116   7.496  0.2930 -0.0264  0.3405
 2669SOL    HW1 8006   4.095   4.146   7.447  0.9383 -1.1287  0.6181
 2669SOL    HW2 8007   4.046   4.118   7.588 -0.4812  0.8319  0.5738
 2670SOL     OW 8008   4.904   3.210   6.341 -0.5930 -0.0098  0.2420
 2670SOL    HW1 8009   4.820   3.164   6.345 -0.9366  0.7103  2.6707
 2670SOL    HW2 8010   4.944   3.193   6.426  0.1553  2.4908  0.4576
 2671SOL     OW 8011   3.121   3.264   7.200  0.0654 -0.3490 -0.0937
 2671SOL    HW1 8012   3.171   3.184   7.182  2.4511  1.1990 -0.7913
 2671SOL    HW2 8013   3.113   3.307   7.115  1.4521  1.5785  0.7015
 2672SOL     OW 8014   0.912   2.300   5.996  0.3635 -0.3041 -0.2107
 2672SOL    HW1 8015   0.938   2.209   6.010 -0.9729 -0.7982 -0.7253
 2672SOL    HW2 8016   0.965   2.329   5.922  0.1777 -0.9605 -0.6079
 2673SOL     OW 8017   2.637   3.143   5.220  0.6955 -0.6862  0.2194
 2673SOL    HW1 8018   2.676   3.228   5.240  1.0149 -0.9080  0.5570
 2673SOL    HW2 8019   2.545   3.162   5.205  0.8978 -0.1774 -0.4142
 2674SOL     OW 8020   0.998   3.569   6.573 -0.3232  0.8263  0.9262
 2674SOL    HW1 8021   1.021   3.646   6.521 -0.8106 -1.1527 -2.5081
 2674SOL    HW2 8022   1.083   3.531   6.598  0.1331 -0.1237 -1.7080
 2675SOL     OW 8023   3.424   0.564   5.747 -0.3708  0.5765  0.2064
 2675SOL    HW1 8024   3.453   0.590   5.660  0.4955 -1.7730 -0.2890
 2675SOL    HW2 8025   3.494   0.595   5.805  0.1351  0.2589 -0.2236
 2676SOL     OW 8026   4.397   2.686   4.854 -0.0284 -0.1436  0.4929
 2676SOL    HW1 8027   4.476   2.636   4.877  0.0399 -0.1434  0.2623
 2676SOL    HW2 8028   4.430   2.768   4.818 -0.1472  0.6818  2.1773
 2677SOL     OW 8029   3.648   2.398   5.967  0.5156 -0.5788  0.2130
 2677SOL    HW1 8030   3.715   2.452   5.927 -1.0723  0.9568 -0.5001
 2677SOL    HW2 8031   3.640   2.432   6.056 -0.7899  0.7343 -0.3690
 2678SOL     OW 8032   2.654   3.174   5.996  0.0695 -0.5175 -0.3641
 2678SOL    HW1 8033   2.616   3.239   5.936 -1.5933 -1.4223 -0.3426
 2678SOL    HW2 8034   2.645   3.091   5.950 -0.5768 -1.1335  0.8228
 2679SOL     OW 8035   0.913   1.202   6.041 -0.2258  0.7665  0.4763
 2679SOL    HW1 8036   1.002   1.227   6.062  1.0197 -0.2628 -2.8816
 2679SOL    HW2 8037   0.908   1.109   6.063  0.3075  0.2890 -1.2465
 2680SOL     OW 8038   4.685   0.263   6.684 -0.1536  0.1928  0.3950
 2680SOL    HW1 8039   4.599   0.248   6.724 -0.1767 -2.5711 -0.4970
 2680SOL    HW2 8040   4.697   0.358   6.688 -2.5233  0.5061  1.9897
 2681SOL     OW 8041   3.020   0.163   5.476  0.5480 -0.8776 -0.0051
 2681SOL    HW1 8042   2.981   0.245   5.507  1.3150  0.3630 -2.1110
 2681SOL    HW2 8043   3.024   0.108   5.554 -3.9578 -0.5935  0.6889
 2682SOL     OW 8044   4.039   4.767   6.742  0.1386 -0.0250  0.3046
 2682SOL    HW1 8045   4.049   4.718   6.661 -0.3341 -0.6813  0.6351
 2682SOL    HW2 8046   4.080   4.852   6.724 -1.3625  0.4404 -1.1555
 2683SOL     OW 8047   0.176   0.478   4.992  0.2956  0.4243  0.5158
 2683SOL    HW1 8048   0.108   0.533   5.032 -0.5223 -0.3637  0.2388
 2683SOL    HW2 8049   0.144   0.389   5.004  1.0956  0.0643  0.0081
 2684SOL     OW 8050   1.856   2.668   9.233 -0.3563 -0.1326 -0.2801
 2684SOL    HW1 8051   1.779   2.645   9.181 -1.0558 -0.0625  0.6976
 2684SOL    HW2 8052   1.831   2.649   9.323  0.4882  0.6586  0.1447
 2685SOL     OW 8053   0.391   4.447   6.036 -0.1337  0.6735  0.5886
 2685SOL    HW1 8054   0.478   4.407   6.041  0.5601  1.9488 -0.5529
 2685SOL    HW2 8055   0.406   4.532   5.994 -2.0133  0.6635 -0.2069
 2686SOL     OW 8056   4.435   0.597   9.227 -0.1713 -0.1812  1.0211
 2686SOL    HW1 8057   4.529   0.610   9.220 -0.1417 -1.0643 -1.7456
 2686SOL    HW2 8058   4.399   0.637   9.147 -2.0763 -0.3558  1.7235
 2687SOL     OW 8059   4.022   2.439   6.335 -0.7053  0.2143 -0.2751
 2687SOL    HW1 8060   3.989   2.454   6.246 -0.5679  0.2535 -0.3195
 2687SOL    HW2 8061   4.041   2.527   6.368 -0.9182  0.2140 -0.1439
 2688SOL     OW 8062   0.657   4.675   8.493 -0.0653 -0.2220  0.1862
 2688SOL    HW1 8063   0.723   4.619   8.533 -0.7244 -0.2308  1.3101
 2688SOL    HW2 8064   0.692   4.697   8.407  1.3121 -0.3613  0.6970
 2689SOL     OW 8065   1.764   1.175   5.307 -0.3675 -0.3999  0.4778
 2689SOL    HW1 8066   1.796   1.246   5.252 -0.4582 -1.8397 -1.5445
 2689SOL    HW2 8067   1.834   1.161   5.371 -0.7126  2.0093  1.4775
 2690SOL     OW 8068   1.631   0.448   5.062  0.0698  0.4152  0.0478
 2690SOL    HW1 8069   1.585   0.367   5.086 -1.3610  1.1442 -0.0971
 2690SOL    HW2 8070   1.724   0.425   5.064 -0.3515 -1.8160 -2.1202
 2691SOL     OW 8071   4.465   1.460   5.517  0.0145 -0.6709 -0.0891
 2691SOL    HW1 8072   4.469   1.472   5.423 -1.0360  0.2945 -0.0341
 2691SOL    HW2 8073   4.456   1.549   5.552 -1.1767 -1.1183  0.8078
 2692SOL     OW 8074   2.913   4.095   5.773  0.7697 -0.0040  0.0290
 2692SOL    HW1 8075   2.904   4.118   5.865  1.0567 -1.1200  0.3500
 2692SOL    HW2 8076   2.990   4.143   5.743 -0.5874  2.1403 -0.2585
 2693SOL     OW 8077   2.636   0.850   5.867 -0.1962  0.3980 -0.6710
 2693SOL    HW1 8078   2.639   0.939   5.901  0.1239  0.2556 -0.3248
 2693SOL    HW2 8079   2.681   0.855   5.782  1.2780  0.2496  0.0736
 2694SOL     OW 8080   4.527   3.002   8.345  0.3856  0.4999 -0.0162
 2694SOL    HW1 8081   4.519   2.908   8.359 -1.0239  0.3474 -1.5116
 2694SOL    HW2 8082   4.506   3.041   8.429  0.3056 -0.5031  0.4364
 2695SOL     OW 8083   2.558   4.176   5.742 -0.8333 -0.0937 -0.1747
 2695SOL    HW1 8084   2.609   4.101   5.712  0.3041  0.6215 -0.1067
 2695SOL    HW2 8085   2.617   4.251   5.732  0.0411  0.1765  4.4830
 2696SOL     OW 8086   2.325   4.831   5.968  0.8515 -0.2466 -0.3620
 2696SOL    HW1 8087   2.376   4.754   5.993 -0.7442 -0.4654  2.5896
 2696SOL    HW2 8088   2.267   4.799   5.899  1.3153 -1.2539 -0.2979
 2697SOL     OW 8089   4.271   1.671   6.703  0.3147  0.2484  0.3578
 2697SOL    HW1 8090   4.355   1.707   6.673 -0.5085  1.9964  0.0403
 2697SOL    HW2 8091   4.281   1.663   6.798  1.6887 -1.9483  0.0804
 2698SOL     OW 8092   2.715   4.920   7.196  0.2857 -0.5605 -0.4350
 2698SOL    HW1 8093   2.626   4.892   7.179  0.5411 -1.0491 -0.9707
 2698SOL    HW2 8094   2.769   4.870   7.135  0.7641  0.9465 -1.3027
 2699SOL     OW 8095   3.224   4.219   4.909  0.8883  0.0873 -0.3996
 2699SOL    HW1 8096   3.217   4.145   4.970  0.1763  2.3814  2.5578
 2699SOL    HW2 8097   3.150   4.207   4.849  1.1224 -1.8617 -0.3638
 2700SOL     OW 8098   4.742   3.751   8.523 -0.4957  0.0297 -0.1187
 2700SOL    HW1 8099   4.799   3.678   8.499  0.1960  0.8182 -0.9746
 2700SOL    HW2 8100   4.803   3.825   8.535 -1.2031  0.5312  0.4428
 2701SOL     OW 8101   2.029   0.557   6.510  0.6223  0.5935  0.1168
 2701SOL    HW1 8102   2.124   0.555   6.495  0.5015  2.7849 -1.3698
 2701SOL    HW2 8103   2.019   0.550   6.604  2.2984  1.0095  0.3545
 2702SOL     OW 8104   4.937   3.800   5.664 -0.3707 -0.8270 -0.1915
 2702SOL    HW1 8105   4.881   3.776   5.738  0.6093 -0.7365  0.5870
 2702SOL    HW2 8106   4.908   3.743   5.593  0.6106 -3.0050  1.0752
 2703SOL     OW 8107   4.664   2.631   5.014 -0.2877 -0.2688  0.0861
 2703SOL    HW1 8108   4.683   2.674   5.097  1.2394 -0.2352 -0.2505
 2703SOL    HW2 8109   4.749   2.623   4.971 -1.0680 -0.0867 -1.5774
 2704SOL     OW 8110   1.422   1.228   5.789 -0.3704  0.3439  0.3208
 2704SOL    HW1 8111   1.502   1.222   5.737 -1.0868 -1.5995 -0.6315
 2704SOL    HW2 8112   1.443   1.185   5.871 -0.3867 -0.0603  0.1160
 2705SOL     OW 8113   3.525   4.973   6.239  0.5282 -0.3050  0.2424
 2705SOL    HW1 8114   3.561   4.948   6.153 -1.5701 -1.0695 -0.5045
 2705SOL    HW2 8115   3.485   5.059   6.224 -1.4542 -1.2226 -0.1391
 2706SOL     OW 8116   2.780   1.441   5.055 -0.1337 -0.7997  0.3571
 2706SOL    HW1 8117   2.754   1.500   4.984 -1.3434 -0.0496  1.3818
 2706SOL    HW2 8118   2.858   1.481   5.092  1.1310 -1.7379 -1.1533
 2707SOL     OW 8119   0.341   3.923   6.100 -0.1511 -0.1426  0.3720
 2707SOL    HW1 8120   0.277   3.939   6.031 -0.0729 -1.3253 -0.0010
 2707SOL    HW2 8121   0.355   3.828   6.099  2.1041  0.1216 -0.0268
 2708SOL     OW 8122   1.768   1.920   4.994  0.2903  0.1828  0.3349
 2708SOL    HW1 8123   1.848   1.950   5.036  1.1491 -0.8566 -0.5182
 2708SOL    HW2 8124   1.704   1.990   5.012  1.1713  0.6909  1.6148
 2709SOL     OW 8125   1.739   4.635   6.717 -0.1203  0.6535  0.2919
 2709SOL    HW1 8126   1.764   4.715   6.764 -1.7469  1.2902  0.1411
 2709SOL    HW2 8127   1.660   4.660   6.669 -0.9310 -1.1657  0.6155
 2710SOL     OW 8128   4.225   2.852   5.938  0.9922 -0.3202  0.3213
 2710SOL    HW1 8129   4.284   2.812   6.001  1.4076 -1.3184 -0.6698
 2710SOL    HW2 8130   4.147   2.798   5.939  0.6551  0.1644  0.5945
 2711SOL     OW 8131   0.924   0.854   6.406 -0.3778  0.4486 -0.3334
 2711SOL    HW1 8132   0.916   0.946   6.432 -0.4503  0.2872  0.2295
 2711SOL    HW2 8133   0.996   0.821   6.460  0.8404  0.6210 -1.7960
 2712SOL     OW 8134   3.352   3.027   5.474  0.1798 -0.2837 -0.6232
 2712SOL    HW1 8135   3.440   3.051   5.503  0.4930 -1.0977 -0.8515
 2712SOL    HW2 8136   3.365   2.944   5.426 -0.7518 -0.5791 -0.3823
 2713SOL     OW 8137   1.929   1.711   5.269  0.1702  0.7606 -0.0744
 2713SOL    HW1 8138   1.996   1.775   5.246  0.5216  0.6927  0.7219
 2713SOL    HW2 8139   1.849   1.761   5.278  0.2959  0.9774 -0.1613
 2714SOL     OW 8140   2.198   4.263   7.068 -0.0718 -0.4445  0.1755
 2714SOL    HW1 8141   2.262   4.334   7.059  1.0156 -0.9645  2.9584
 2714SOL    HW2 8142   2.218   4.204   6.995  0.7807  0.7428 -0.5990
 2715SOL     OW 8143   4.071   3.752   6.526  0.1469  0.1804 -1.3177
 2715SOL    HW1 8144   4.129   3.829   6.523  2.8881 -1.6342  0.3167
 2715SOL    HW2 8145   4.097   3.700   6.450  1.8533 -1.3266  0.2065
 2716SOL     OW 8146   2.833   3.771   7.695  0.1944 -0.7045  0.6217
 2716SOL    HW1 8147   2.906   3.727   7.651 -1.7794 -2.5823 -0.9801
 2716SOL    HW2 8148   2.824   3.855   7.649  1.0772 -0.6136  0.5923
 2717SOL     OW 8149   3.630   1.827   8.054 -0.3520  0.1718  0.3442
 2717SOL    HW1 8150   3.550   1.775   8.057 -2.7778  3.5835  0.1269
 2717SOL    HW2 8151   3.650   1.834   7.961 -0.6596  0.5149  0.3029
 2718SOL     OW 8152   0.817   3.781   5.808 -0.0599 -0.4313 -0.4915
 2718SOL    HW1 8153   0.749   3.758   5.744 -2.4645 -0.5605  1.9517
 2718SOL    HW2 8154   0.812   3.877   5.814 -0.7720 -0.5159  0.4224
 2719SOL     OW 8155   3.669   3.204   6.111  0.8456 -0.0724  0.1219
 2719SOL    HW1 8156   3.761   3.190   6.090  0.5575 -1.3522 -0.4052
 2719SOL    HW2 8157   3.637   3.117   6.135  0.3337  0.7274  2.6905
 2720SOL     OW 8158   2.993   0.227   8.825  0.3637 -0.0992 -0.4366
 2720SOL    HW1 8159   2.987   0.133   8.806 -0.3801 -0.5326  1.7031
 2720SOL    HW2 8160   3.084   0.240   8.852  0.4873 -0.1780 -0.8105
 2721SOL     OW 8161   1.062   3.846   7.248  0.2939  1.2584  0.0249
 2721SOL    HW1 8162   1.075   3.856   7.342 -3.0505  3.3343  0.4160
 2721SOL    HW2 8163   1.004   3.770   7.240  0.4595  1.1695 -0.3674
 2722SOL     OW 8164   0.433   0.001   7.834 -0.1665  0.2614  0.3235
 2722SOL    HW1 8165   0.518  -0.033   7.865 -0.1850 -0.0955 -0.0039
 2722SOL    HW2 8166   0.452   0.039   7.749 -0.1275  1.1926  0.7368
 2723SOL     OW 8167   0.745   4.475   7.765 -0.6373 -0.2711  0.3490
 2723SOL    HW1 8168   0.814   4.499   7.704 -0.9225 -1.3986 -0.4525
 2723SOL    HW2 8169   0.716   4.388   7.736 -1.2884 -0.5208  1.6349
 2724SOL     OW 8170   1.758   2.386   4.738  0.1938  0.4823 -0.4845
 2724SOL    HW1 8171   1.837   2.368   4.789  0.1203  2.0813  0.2605
 2724SOL    HW2 8172   1.761   2.324   4.666  0.4839 -1.6874  1.2642
 2725SOL     OW 8173   4.211   3.297   7.187  0.3966 -0.3337 -0.0946
 2725SOL    HW1 8174   4.203   3.325   7.278 -0.6025  1.9792 -0.8071
 2725SOL    HW2 8175   4.122   3.272   7.161  0.7856 -1.5695 -0.2816
 2726SOL     OW 8176   1.236   3.832   6.040  0.0811  0.0430 -0.1710
 2726SOL    HW1 8177   1.324   3.797   6.031 -0.4706 -1.5231  0.1792
 2726SOL    HW2 8178   1.199   3.829   5.952 -0.9510 -3.1592  0.2398
 2727SOL     OW 8179   3.378   0.220   4.973 -0.3536  0.2585 -0.2350
 2727SOL    HW1 8180   3.425   0.295   5.012  1.6995 -1.8596  1.6814
 2727SOL    HW2 8181   3.414   0.213   4.885 -0.6159  1.5355 -0.4674
 2728SOL     OW 8182   0.905   2.127   5.733  0.3670 -0.2306  0.4915
 2728SOL    HW1 8183   0.909   2.064   5.660  0.7228 -0.3615  0.6206
 2728SOL    HW2 8184   0.834   2.095   5.788 -2.3063  1.8020 -1.5522
 2729SOL     OW 8185   2.833   3.058   5.521  0.4777 -0.6609  0.1256
 2729SOL    HW1 8186   2.745   3.093   5.535 -0.6213 -3.1038 -0.1297
 2729SOL    HW2 8187   2.825   3.003   5.443  2.2675 -0.8700  0.0438
 2730SOL     OW 8188   3.991   3.536   5.100 -0.0049  0.0213 -0.2685
 2730SOL    HW1 8189   4.033   3.487   5.171 -0.3347 -1.2955 -0.9545
 2730SOL    HW2 8190   3.898   3.519   5.112 -0.0901  0.1300 -0.7897
 2731SOL     OW 8191   4.276   2.869   6.354 -0.2144 -0.4597  0.0390
 2731SOL    HW1 8192   4.333   2.867   6.277 -0.4028  1.4302 -0.1940
 2731SOL    HW2 8193   4.329   2.909   6.423 -0.6668 -0.3795  0.3438
 2732SOL     OW 8194   2.580   4.601   7.556 -0.3869  0.1455  0.3540
 2732SOL    HW1 8195   2.625   4.539   7.613  2.5909  1.8218  0.0479
 2732SOL    HW2 8196   2.624   4.591   7.471 -0.3842  2.0662  0.0947
 2733SOL     OW 8197   3.246   3.535   7.312 -0.2824 -0.1022  0.3551
 2733SOL    HW1 8198   3.220   3.454   7.357 -1.5789  0.6974  1.1031
 2733SOL    HW2 8199   3.342   3.535   7.316 -0.2994 -1.1831  1.0843
 2734SOL     OW 8200   1.149   1.647   5.066 -0.2291 -1.1274 -0.3664
 2734SOL    HW1 8201   1.200   1.668   5.144 -2.0271 -0.9844  0.8318
 2734SOL    HW2 8202   1.113   1.731   5.038 -2.1386 -1.5829  0.5607
 2735SOL     OW 8203   2.212   0.139   5.753 -0.2353 -0.1710  0.5503
 2735SOL    HW1 8204   2.178   0.050   5.751  0.4960 -0.4565  0.6597
 2735SOL    HW2 8205   2.283   0.140   5.689  0.2562  0.1229  1.0881
 2736SOL     OW 8206   2.059   5.025   7.978  0.1981  0.2652 -0.2804
 2736SOL    HW1 8207   2.148   4.992   7.980  0.2747  0.5101  0.5534
 2736SOL    HW2 8208   2.010   4.960   7.927  0.1595 -1.5882  1.9875
 2737SOL     OW 8209   0.179   0.317   5.217 -0.2839  1.3043 -0.2315
 2737SOL    HW1 8210   0.227   0.393   5.185  1.9593 -0.0314 -0.2648
 2737SOL    HW2 8211   0.227   0.289   5.295 -1.4387  0.2874  0.1624
 2738SOL     OW 8212   2.241   4.455   6.716  0.2007 -0.1169  0.1784
 2738SOL    HW1 8213   2.181   4.512   6.667  0.1438 -1.5443 -1.5271
 2738SOL    HW2 8214   2.258   4.382   6.656  2.5243 -0.4714  1.1650
 2739SOL     OW 8215   4.699   3.773   6.589 -0.2664 -0.3550 -0.7798
 2739SOL    HW1 8216   4.762   3.753   6.658  0.9016 -5.0276 -2.7419
 2739SOL    HW2 8217   4.751   3.814   6.520 -0.9058  1.9005 -0.0106
 2740SOL     OW 8218   2.200   3.548   7.397  0.3425 -0.3780 -0.2979
 2740SOL    HW1 8219   2.279   3.495   7.383  0.7445  0.3194 -0.7526
 2740SOL    HW2 8220   2.162   3.514   7.478  0.9865 -0.8755 -0.1938
 2741SOL     OW 8221   2.804   0.606   7.651 -0.2332 -0.2224 -0.9506
 2741SOL    HW1 8222   2.856   0.571   7.579 -0.1580  1.3031 -1.6673
 2741SOL    HW2 8223   2.829   0.553   7.726  0.3288 -1.2817 -1.8477
 2742SOL     OW 8224   4.115   4.862   7.013  0.9192  0.3656  0.3889
 2742SOL    HW1 8225   4.079   4.831   6.930  1.6819  0.5312 -0.0123
 2742SOL    HW2 8226   4.057   4.934   7.039 -0.3908 -0.8413  0.9272
 2743SOL     OW 8227   3.917   2.416   6.770 -0.5058  0.4489 -0.2047
 2743SOL    HW1 8228   3.823   2.430   6.783 -0.6510 -1.2734  0.8780
 2743SOL    HW2 8229   3.930   2.323   6.786  1.3112  0.5456 -0.9254
 2744SOL     OW 8230   3.461   1.259   5.624  0.4802 -0.0162  0.1890
 2744SOL    HW1 8231   3.528   1.309   5.671  1.6528 -1.0697 -0.3124
 2744SOL    HW2 8232   3.510   1.201   5.567 -0.8592 -1.3742  0.3549
 2745SOL     OW 8233   0.266   4.361   9.623 -0.3422 -0.2502 -0.5166
 2745SOL    HW1 8234   0.272   4.344   9.529 -1.3594  1.9519 -1.0597
 2745SOL    HW2 8235   0.339   4.420   9.641 -0.6662  0.0412 -0.1292
 2746SOL     OW 8236   2.608   3.165   6.614 -0.0767  0.6534  0.3070
 2746SOL    HW1 8237   2.670   3.095   6.636  0.2149  0.5803 -0.7153
 2746SOL    HW2 8238   2.644   3.205   6.535 -2.2558 -0.6316 -1.4738
 2747SOL     OW 8239   4.565   3.643   7.696  0.4781  0.0834  0.0463
 2747SOL    HW1 8240   4.489   3.690   7.729 -0.5721 -0.0342 -2.0119
 2747SOL    HW2 8241   4.535   3.604   7.614  2.3686 -1.1551 -0.1273
 2748SOL     OW 8242   0.390   3.336   6.409  0.3852  0.1604  0.1072
 2748SOL    HW1 8243   0.414   3.293   6.327 -0.2887 -0.5438  0.2740
 2748SOL    HW2 8244   0.460   3.399   6.423  1.3846 -0.8455 -0.1671
 2749SOL     OW 8245   2.727   4.421   6.127  0.4698  0.2437 -0.7667
 2749SOL    HW1 8246   2.650   4.373   6.099  0.2093  0.9289 -1.2438
 2749SOL    HW2 8247   2.764   4.457   6.046  1.0625  0.2512 -0.4998
 2750SOL     OW 8248   1.119   2.296   9.283  0.6758 -0.3120  0.3743
 2750SOL    HW1 8249   1.163   2.232   9.228  0.6351  0.7140 -0.8962
 2750SOL    HW2 8250   1.168   2.295   9.365  1.8283 -0.6026 -0.3056
 2751SOL     OW 8251   4.527   0.530   5.459  0.5977 -0.5415 -0.1204
 2751SOL    HW1 8252   4.498   0.600   5.517  2.8829  0.4871 -0.1052
 2751SOL    HW2 8253   4.454   0.467   5.458 -1.6309  1.8663 -0.2820
 2752SOL     OW 8254   1.192   4.046   4.610  0.0071  0.6548 -0.0107
 2752SOL    HW1 8255   1.216   4.100   4.535  0.0652 -2.0277 -2.0836
 2752SOL    HW2 8256   1.096   4.051   4.614 -0.1970 -0.8521 -1.7272
 2753SOL     OW 8257   3.235   0.613   5.415 -0.6694  0.1443 -0.1632
 2753SOL    HW1 8258   3.283   0.530   5.417 -2.8345 -1.1821  0.2755
 2753SOL    HW2 8259   3.164   0.598   5.353 -1.3887  1.5253  0.2865
 2754SOL     OW 8260   3.045   4.843   9.541  0.2233  0.6670  0.2983
 2754SOL    HW1 8261   2.994   4.862   9.462 -0.2425  1.9409  0.8797
 2754SOL    HW2 8262   2.979   4.824   9.608  0.6401 -2.1408  0.0196
 2755SOL     OW 8263   4.034   3.683   5.758 -0.2928 -0.0592 -0.4687
 2755SOL    HW1 8264   4.115   3.730   5.777 -0.1510  0.0592 -1.3416
 2755SOL    HW2 8265   3.986   3.685   5.841  0.8960 -0.7414  0.2737
 2756SOL     OW 8266   2.704   3.836   6.146  0.2360  0.3759  0.3092
 2756SOL    HW1 8267   2.732   3.916   6.102  1.8124  0.6216  1.6762
 2756SOL    HW2 8268   2.777   3.812   6.203 -0.5801 -1.5175  0.6493
 2757SOL     OW 8269   1.514   3.644   7.434 -0.0292 -0.3858 -0.2991
 2757SOL    HW1 8270   1.476   3.562   7.465  0.8523 -0.5566  0.3668
 2757SOL    HW2 8271   1.486   3.650   7.342 -2.5588  0.0638  0.4394
 2758SOL     OW 8272   1.036   0.246   5.120  0.0398  0.5034 -0.2363
 2758SOL    HW1 8273   1.062   0.185   5.051  2.0615  0.6856  0.3163
 2758SOL    HW2 8274   1.021   0.328   5.074 -1.6619 -0.0920 -0.8343
 2759SOL     OW 8275   0.627   4.299   6.056  0.0496 -0.1729  0.2513
 2759SOL    HW1 8276   0.684   4.237   6.011 -0.8071  0.5606 -1.9379
 2759SOL    HW2 8277   0.585   4.247   6.125  1.2845 -1.3560  0.1560
 2760SOL     OW 8278   4.463   3.179   6.682 -0.2922 -0.6195 -0.2214
 2760SOL    HW1 8279   4.370   3.172   6.659 -1.2466  3.7598  1.2978
 2760SOL    HW2 8280   4.463   3.217   6.770  2.9732  0.0280 -0.3655
 2761SOL     OW 8281   4.588   2.453   6.096  0.1556 -0.3064 -0.1091
 2761SOL    HW1 8282   4.569   2.490   6.182 -2.8999 -0.4898 -0.5851
 2761SOL    HW2 8283   4.607   2.361   6.113 -0.9334 -0.4618  0.3676
 2762SOL     OW 8284   3.035   0.840   5.834  0.4397 -0.3027 -0.0536
 2762SOL    HW1 8285   3.126   0.813   5.846 -0.0535 -1.3075  1.7579
 2762SOL    HW2 8286   3.025   0.915   5.893  0.5887  1.0801 -1.7212
 2763SOL     OW 8287   3.384   3.587   5.829  0.5141  0.1587  0.1380
 2763SOL    HW1 8288   3.407   3.582   5.922  0.1918  0.3580  0.2327
 2763SOL    HW2 8289   3.304   3.535   5.821 -1.2488  2.6363  0.5914
 2764SOL     OW 8290   1.975   1.493   6.741  0.0589  0.9919 -0.5818
 2764SOL    HW1 8291   1.917   1.476   6.815  1.0017 -0.9790 -0.2216
 2764SOL    HW2 8292   1.930   1.456   6.665  1.1602 -1.3714 -0.1543
 2765SOL     OW 8293   4.180   4.779   4.870 -0.2551 -0.6514 -0.9620
 2765SOL    HW1 8294   4.232   4.731   4.806 -0.0949 -0.0841 -1.2627
 2765SOL    HW2 8295   4.150   4.712   4.932 -0.6057 -1.2454 -1.7531
 2766SOL     OW 8296   0.801   1.378   7.265 -0.1829 -0.2656  0.4286
 2766SOL    HW1 8297   0.832   1.288   7.278  0.0862 -0.1458  0.6409
 2766SOL    HW2 8298   0.725   1.385   7.322 -0.5023 -0.5082  0.0390
 2767SOL     OW 8299   2.664   2.203   5.522  0.1684  0.1334  0.3335
 2767SOL    HW1 8300   2.726   2.224   5.591  0.3038  0.0652  0.2318
 2767SOL    HW2 8301   2.584   2.178   5.568  0.0296  0.7868  0.4632
 2768SOL     OW 8302   2.894   2.500   7.122  0.2186 -1.0975  0.5805
 2768SOL    HW1 8303   2.832   2.573   7.133  1.5321  0.2474 -0.5309
 2768SOL    HW2 8304   2.869   2.438   7.190 -0.9900  0.3596  1.5526
 2769SOL     OW 8305   0.117   4.304   5.246 -0.0070  0.1235  0.0660
 2769SOL    HW1 8306   0.112   4.375   5.310  1.0714 -1.0373  1.5210
 2769SOL    HW2 8307   0.208   4.274   5.252 -0.0983 -0.5012 -1.4980
 2770SOL     OW 8308   4.628   4.373   6.785  0.1243  0.2219 -1.3648
 2770SOL    HW1 8309   4.628   4.304   6.852  0.3419  0.7902 -0.7641
 2770SOL    HW2 8310   4.681   4.338   6.714  0.3277 -0.1863 -1.0167
 2771SOL     OW 8311   0.318   2.779   4.868 -0.2359  0.5349  0.0349
 2771SOL    HW1 8312   0.290   2.728   4.792 -0.4330  0.9306 -0.1599
 2771SOL    HW2 8313   0.364   2.716   4.924  0.0511  0.2816 -0.4872
 2772SOL     OW 8314   1.991   2.001   5.152  0.4302 -0.1074 -0.0453
 2772SOL    HW1 8315   2.052   1.934   5.120 -1.3851 -0.1272 -4.0855
 2772SOL    HW2 8316   2.043   2.081   5.155  1.2085 -0.5130 -1.4340
 2773SOL     OW 8317   4.175   3.934   7.013  0.3334 -0.6364  0.0857
 2773SOL    HW1 8318   4.184   4.029   7.013 -1.4776 -0.4334  0.5912
 2773SOL    HW2 8319   4.155   3.912   6.922  1.3807 -0.6289 -0.1609
 2774SOL     OW 8320   1.932   3.417   6.895  0.0658  0.3124  0.1652
 2774SOL    HW1 8321   1.925   3.459   6.810  0.6924  0.3154  0.1089
 2774SOL    HW2 8322   1.977   3.334   6.878  0.6168  0.5203  0.5446
 2775SOL     OW 8323   1.771   2.143   7.491  0.3731 -0.4705 -0.0408
 2775SOL    HW1 8324   1.678   2.155   7.513  0.2626  0.7866 -1.1083
 2775SOL    HW2 8325   1.815   2.216   7.535  0.8777 -1.1362  0.5630
 2776SOL     OW 8326   4.215   1.373   6.753 -0.4978  0.3888 -0.4511
 2776SOL    HW1 8327   4.175   1.382   6.839  0.0621  0.5607 -0.2082
 2776SOL    HW2 8328   4.294   1.427   6.757  1.7707 -2.6885  0.2994
 2777SOL     OW 8329   1.429   0.582   5.226 -0.8963 -0.2042  0.0746
 2777SOL    HW1 8330   1.518   0.548   5.216 -1.3460 -1.9030  1.3584
 2777SOL    HW2 8331   1.416   0.590   5.321 -1.6530  1.3871 -0.1198
 2778SOL     OW 8332   1.397   4.040   7.456 -0.5394 -0.0688 -0.3486
 2778SOL    HW1 8333   1.473   4.072   7.406 -1.3258  0.9895 -0.9013
 2778SOL    HW2 8334   1.325   4.098   7.431 -1.3781 -0.6118  0.7056
 2779SOL     OW 8335   3.525   0.631   6.909  0.1062 -0.1999  0.7586
 2779SOL    HW1 8336   3.512   0.538   6.890 -0.1472  0.3102 -1.9126
 2779SOL    HW2 8337   3.590   0.632   6.980  0.2699 -2.3847  0.7107
 2780SOL     OW 8338   0.758   0.912   7.311  0.1896  0.2676 -0.1030
 2780SOL    HW1 8339   0.747   0.956   7.227  1.1649  0.3566 -0.1983
 2780SOL    HW2 8340   0.715   0.827   7.301 -1.1202  0.9074 -0.1438
 2781SOL     OW 8341   3.746   4.711   6.523 -0.1790  0.4721 -0.5573
 2781SOL    HW1 8342   3.651   4.722   6.520 -0.4156 -0.7648  1.0860
 2781SOL    HW2 8343   3.761   4.626   6.484  0.2048  0.4999 -0.4678
 2782SOL     OW 8344   3.828   4.843   7.266 -0.2110 -0.1165  0.0618
 2782SOL    HW1 8345   3.831   4.874   7.357 -0.7515 -1.0037  0.3961
 2782SOL    HW2 8346   3.797   4.918   7.216  2.0894  1.0594  0.2758
 2783SOL     OW 8347   3.016   3.255   6.888  0.0307  0.1568 -0.1118
 2783SOL    HW1 8348   3.016   3.339   6.934  2.3742  0.0754  0.1401
 2783SOL    HW2 8349   2.977   3.273   6.803  0.4145  1.4907 -0.0164
 2784SOL     OW 8350   3.933   0.901   5.740  0.2279 -0.5677  0.9283
 2784SOL    HW1 8351   3.886   0.925   5.660  2.6518  0.3366 -0.3195
 2784SOL    HW2 8352   4.000   0.839   5.711 -0.2548 -1.9937  2.6750
 2785SOL     OW 8353   0.467   4.943   5.252 -0.0676  0.1074 -0.1407
 2785SOL    HW1 8354   0.460   4.999   5.175  0.6606  1.7266  0.9185
 2785SOL    HW2 8355   0.497   4.859   5.217 -2.5024 -0.1155 -1.9278
 2786SOL     OW 8356   3.825   0.799   5.168  0.7517  1.0116  0.3288
 2786SOL    HW1 8357   3.878   0.807   5.088  1.1107  1.2189  0.5861
 2786SOL    HW2 8358   3.743   0.762   5.137  2.6107 -4.0536  0.4851
 2787SOL     OW 8359   0.058   4.879   6.921  0.0461  0.4352  0.0692
 2787SOL    HW1 8360   0.144   4.854   6.952 -0.0713 -0.3313 -0.2078
 2787SOL    HW2 8361   0.020   4.931   6.992  0.5414  0.3550  0.3911
 2788SOL     OW 8362   0.785   1.032   8.582 -0.6710  0.2493  0.5130
 2788SOL    HW1 8363   0.770   1.046   8.488  0.6363  0.6236  0.3371
 2788SOL    HW2 8364   0.851   0.962   8.585  0.5725  1.4041  1.0836
 2789SOL     OW 8365   0.581   4.824   7.279  0.0281  0.3774 -0.0939
 2789SOL    HW1 8366   0.530   4.904   7.293  0.9539  0.7419  1.2856
 2789SOL    HW2 8367   0.631   4.841   7.199 -0.0618  1.0277 -0.0158
 2790SOL     OW 8368   4.788   0.319   5.816  0.3329 -1.0060 -0.0217
 2790SOL    HW1 8369   4.883   0.328   5.828  0.3862  1.6709 -1.6044
 2790SOL    HW2 8370   4.756   0.409   5.812 -1.8199 -1.7482 -2.5716
 2791SOL     OW 8371   4.834   3.592   5.036  0.0289  0.2522  0.0024
 2791SOL    HW1 8372   4.830   3.536   4.958  0.5743  1.2955 -0.8087
 2791SOL    HW2 8373   4.744   3.623   5.047 -0.3411 -0.9975  0.6394
 2792SOL     OW 8374   3.894   0.997   5.369  0.3189 -0.0666  0.2498
 2792SOL    HW1 8375   3.865   0.920   5.320  0.8969 -0.1030 -0.0429
 2792SOL    HW2 8376   3.912   1.063   5.302 -0.0493  0.2883  0.4910
 2793SOL     OW 8377   4.946   2.575   6.967  0.1338  0.0018 -0.2784
 2793SOL    HW1 8378   4.949   2.518   6.890  0.4398 -0.2901 -0.0519
 2793SOL    HW2 8379   4.972   2.519   7.040 -3.8055 -0.8206  0.7316
 2794SOL     OW 8380   3.645   1.095   4.747 -0.2537  0.7899  0.7966
 2794SOL    HW1 8381   3.563   1.104   4.797  0.1259  2.6347  1.1592
 2794SOL    HW2 8382   3.697   1.171   4.773  1.9111 -0.7258  1.1488
 2795SOL     OW 8383   0.687   4.739   5.788 -0.2903  0.0929  0.3604
 2795SOL    HW1 8384   0.781   4.738   5.770 -0.3441 -1.6729 -0.0287
 2795SOL    HW2 8385   0.672   4.822   5.833  1.0858  1.3880 -1.4345
 2796SOL     OW 8386   0.560   2.347   4.718  0.3525 -0.4251 -0.2852
 2796SOL    HW1 8387   0.578   2.418   4.657  0.2736  1.2280  1.5185
 2796SOL    HW2 8388   0.647   2.317   4.745  0.4049 -0.0339 -0.0009
 2797SOL     OW 8389   4.751   1.435   5.392 -0.2173 -0.1153  0.2961
 2797SOL    HW1 8390   4.820   1.381   5.431  0.4049  1.5547  1.6291
 2797SOL    HW2 8391   4.738   1.506   5.454 -1.1391  1.1775 -1.2985
 2798SOL     OW 8392   3.937   4.162   5.657  0.2471 -0.3645 -0.2019
 2798SOL    HW1 8393   3.982   4.194   5.735 -2.0526  2.0080  0.3271
 2798SOL    HW2 8394   3.886   4.087   5.688 -0.8885  0.7396  0.7594
 2799SOL     OW 8395   2.740   4.382   7.109  0.4399 -0.0377 -0.7206
 2799SOL    HW1 8396   2.794   4.319   7.061  2.0444  2.5685 -2.5909
 2799SOL    HW2 8397   2.702   4.438   7.042 -1.2534  0.7725  0.8346
 2800SOL     OW 8398   2.731   0.860   5.285 -0.4107  0.3137 -0.2995
 2800SOL    HW1 8399   2.676   0.898   5.353  0.7877 -1.0600  1.5237
 2800SOL    HW2 8400   2.793   0.930   5.263  0.2223  0.2721  1.2399
 2801SOL     OW 8401   4.112   0.183   5.499 -0.2463 -0.5155  0.4238
 2801SOL    HW1 8402   4.090   0.110   5.442  0.0415  0.3594 -0.8546
 2801SOL    HW2 8403   4.031   0.233   5.506  0.1992  0.4553 -0.8926
 2802SOL     OW 8404   1.868   4.071   5.157  0.1969 -0.2606  0.5713
 2802SOL    HW1 8405   1.895   3.980   5.145  1.3148 -0.1260  1.8426
 2802SOL    HW2 8406   1.940   4.111   5.205 -0.1019  1.4145 -0.3263
 2803SOL     OW 8407   3.795   3.757   9.751  0.2304 -0.4873 -0.4407
 2803SOL    HW1 8408   3.784   3.811   9.673 -0.8686 -0.7942 -0.5141
 2803SOL    HW2 8409   3.873   3.791   9.793  0.2969  0.2959 -1.1795
 2804SOL     OW 8410   1.517   1.353   7.010  0.5617  0.9278  0.6639
 2804SOL    HW1 8411   1.547   1.396   6.930  1.4501  0.2616  0.6212
 2804SOL    HW2 8412   1.567   1.394   7.080  2.2657 -0.7115  0.5155
 2805SOL     OW 8413   3.176   4.890   6.981 -0.3480 -0.3139  0.4836
 2805SOL    HW1 8414   3.216   4.869   6.896  1.2729 -1.2658  1.4106
 2805SOL    HW2 8415   3.152   4.805   7.017 -1.4911  0.1212  0.7967
 2806SOL     OW 8416   2.105   3.593   5.316  0.3417  0.0523  0.3726
 2806SOL    HW1 8417   2.162   3.658   5.275 -0.0887 -0.6913 -1.5392
 2806SOL    HW2 8418   2.164   3.525   5.347  0.6040 -0.1134 -0.4590
 2807SOL     OW 8419   1.838   4.928   6.489 -0.2043  0.3701  0.4766
 2807SOL    HW1 8420   1.824   4.877   6.409 -3.8052  0.9905  0.5377
 2807SOL    HW2 8421   1.855   4.862   6.557 -2.1017 -0.6251  0.0586
 2808SOL     OW 8422   1.682   5.000   6.170 -0.2046 -0.1528  0.3515
 2808SOL    HW1 8423   1.680   4.913   6.130 -0.1032 -0.3675  0.7972
 2808SOL    HW2 8424   1.650   5.059   6.103  1.9638 -0.2041 -0.8245
 2809SOL     OW 8425   1.469   3.682   8.038 -0.7520  0.1440 -0.6106
 2809SOL    HW1 8426   1.502   3.596   8.013 -0.6327  0.3328 -1.1113
 2809SOL    HW2 8427   1.504   3.697   8.125  0.2688  0.2280 -1.0219
 2810SOL     OW 8428   4.029   1.107   5.116 -0.4197  0.4824 -0.6108
 2810SOL    HW1 8429   4.093   1.048   5.077  0.3513  1.5548 -0.9811
 2810SOL    HW2 8430   3.951   1.097   5.061 -0.6876 -0.9795 -0.0328
 2811SOL     OW 8431   2.795   2.887   9.850  0.1536  0.8727 -0.0545
 2811SOL    HW1 8432   2.816   2.875   9.943  1.1418  0.7254 -0.2872
 2811SOL    HW2 8433   2.700   2.873   9.845  0.3745 -1.2759  0.5937
 2812SOL     OW 8434   3.736   0.424   7.337  0.3899  0.2977  0.2012
 2812SOL    HW1 8435   3.765   0.465   7.256 -0.7315 -0.1821 -0.4687
 2812SOL    HW2 8436   3.809   0.366   7.362 -0.4189 -1.9854 -2.2215
 2813SOL     OW 8437   1.940   0.092   7.374  0.4611 -0.0084  0.0202
 2813SOL    HW1 8438   1.909   0.170   7.420 -0.8420 -0.6700  0.3035
 2813SOL    HW2 8439   2.000   0.126   7.307  1.5854  1.0506  1.5129
 2814SOL     OW 8440   3.017   3.640   9.370  0.2252  0.1800 -0.7753
 2814SOL    HW1 8441   3.031   3.547   9.390 -0.4253  0.5916  2.0230
 2814SOL    HW2 8442   3.083   3.686   9.423 -0.5947  1.3664 -0.7522
 2815SOL     OW 8443   1.204   1.280   8.885  0.3781 -0.1794 -0.2595
 2815SOL    HW1 8444   1.174   1.288   8.795  0.6558  0.5730 -0.2918
 2815SOL    HW2 8445   1.144   1.337   8.935  0.4578 -0.3008 -0.0216
 2816SOL     OW 8446   3.211   0.481   7.206 -0.1593 -0.0389  0.5741
 2816SOL    HW1 8447   3.234   0.396   7.243 -3.0854 -0.0787  2.7012
 2816SOL    HW2 8448   3.294   0.528   7.198  1.1696 -1.9107  2.4689
 2817SOL     OW 8449   3.057   0.167   9.162  0.0717  0.2238  0.4232
 2817SOL    HW1 8450   2.966   0.190   9.180 -0.2613  0.9880 -1.8569
 2817SOL    HW2 8451   3.108   0.223   9.221 -0.8285 -2.8065  4.4726
 2818SOL     OW 8452   3.952   2.785   5.243  0.1883  0.1634  0.4915
 2818SOL    HW1 8453   4.047   2.781   5.237  0.7384  4.4643  2.2557
 2818SOL    HW2 8454   3.921   2.718   5.182  4.2700 -1.5009 -0.0886
 2819SOL     OW 8455   4.039   0.980  10.077 -0.1929 -0.5285 -0.3536
 2819SOL    HW1 8456   4.114   0.951  10.025  0.4814  1.9927 -0.9259
 2819SOL    HW2 8457   3.966   0.927  10.046  0.6743 -0.7190 -2.1889
 2820SOL     OW 8458   1.883   1.250   5.832  0.3266 -0.5161 -0.3781
 2820SOL    HW1 8459   1.852   1.335   5.861 -2.8029 -1.5089 -0.4786
 2820SOL    HW2 8460   1.978   1.258   5.831  0.1557  2.7037  0.3225
 2821SOL     OW 8461   3.674   4.299   6.283  0.5183 -0.1379  0.3696
 2821SOL    HW1 8462   3.678   4.332   6.193 -1.2571  1.1905  0.7129
 2821SOL    HW2 8463   3.582   4.275   6.295  1.1197 -2.1879  1.2335
 2822SOL     OW 8464   1.724   0.510   6.941  0.1647  0.3026 -0.3937
 2822SOL    HW1 8465   1.657   0.570   6.973  1.7023  1.9140 -0.0373
 2822SOL    HW2 8466   1.770   0.480   7.020 -0.9061 -1.8332 -0.5102
 2823SOL     OW 8467   1.763   2.022   8.896  0.2168  0.4200  0.2266
 2823SOL    HW1 8468   1.775   2.018   8.991  0.9543  0.1081  0.1333
 2823SOL    HW2 8469   1.852   2.033   8.862  0.0559 -0.3345 -0.4715
 2824SOL     OW 8470   2.861   4.967   8.779 -0.3085  0.2592  0.1381
 2824SOL    HW1 8471   2.872   4.875   8.804 -0.9439 -0.1676 -1.0882
 2824SOL    HW2 8472   2.813   4.964   8.696 -0.0379  1.6873 -0.0946
 2825SOL     OW 8473   3.258   0.495   6.435 -0.2202 -0.2414  0.3227
 2825SOL    HW1 8474   3.309   0.422   6.470  0.1897  0.2502  0.7805
 2825SOL    HW2 8475   3.220   0.536   6.513  0.3698  0.6259  0.1694
 2826SOL     OW 8476   2.819   2.893   9.022  1.0051  0.3131 -0.3290
 2826SOL    HW1 8477   2.912   2.913   9.035  0.7422  0.5800  1.3400
 2826SOL    HW2 8478   2.778   2.914   9.105 -0.3009 -1.4163 -0.4828
 2827SOL     OW 8479   1.713   0.046   5.029 -0.2387 -0.2973  0.3285
 2827SOL    HW1 8480   1.668  -0.037   5.012 -0.3544 -0.1540 -0.0772
 2827SOL    HW2 8481   1.797   0.037   4.983 -1.0937  0.6098 -1.4849
 2828SOL     OW 8482   1.067   2.608   8.901  0.1021 -0.2558 -0.6534
 2828SOL    HW1 8483   1.016   2.542   8.855 -2.9442  0.3907  1.4558
 2828SOL    HW2 8484   1.065   2.581   8.993  4.2503 -0.4719 -0.4469
 2829SOL     OW 8485   4.175   4.147   5.517  1.1715  0.5585 -0.3959
 2829SOL    HW1 8486   4.088   4.140   5.554  0.2847  0.5388 -2.3520
 2829SOL    HW2 8487   4.233   4.154   5.593 -0.4466 -0.0450  0.9645
 2830SOL     OW 8488   3.697   3.426   6.728  0.0094 -0.3846  0.2040
 2830SOL    HW1 8489   3.652   3.455   6.807 -0.6907 -0.5273 -0.1359
 2830SOL    HW2 8490   3.779   3.388   6.760 -0.1879 -0.2907  0.8440
 2831SOL     OW 8491   3.188   4.306   8.341  0.7261 -0.1528 -0.4494
 2831SOL    HW1 8492   3.161   4.397   8.346 -0.8045 -0.5143 -1.5245
 2831SOL    HW2 8493   3.182   4.273   8.431 -0.9515  0.2037 -0.4089
 2832SOL     OW 8494   2.357   4.088   7.654 -0.3392  0.2146 -0.5868
 2832SOL    HW1 8495   2.305   4.164   7.681 -0.5226  0.2330 -0.9729
 2832SOL    HW2 8496   2.297   4.014   7.660 -1.1285  0.5295 -3.0868
 2833SOL     OW 8497   4.013   4.170   5.944 -0.0454 -0.0625 -0.2996
 2833SOL    HW1 8498   4.000   4.076   5.956 -0.7997  0.0059 -0.5026
 2833SOL    HW2 8499   4.059   4.199   6.023 -0.5509 -0.4555  0.1448
 2834SOL     OW 8500   4.401   0.705   8.665 -0.2188  0.0459 -0.8675
 2834SOL    HW1 8501   4.317   0.744   8.644 -0.4193  0.3356  0.4062
 2834SOL    HW2 8502   4.383   0.611   8.671 -0.4519  0.1110 -0.5667
 2835SOL     OW 8503   3.638   1.712   7.695 -0.7241  0.3683 -0.6922
 2835SOL    HW1 8504   3.632   1.806   7.714  0.3900  0.5820 -1.3248
 2835SOL    HW2 8505   3.722   1.685   7.732 -0.2181  0.0117 -2.0282
 2836SOL     OW 8506   2.307   4.793   8.043 -0.3453  0.5624 -0.1142
 2836SOL    HW1 8507   2.229   4.747   8.075  1.4541 -2.9100 -0.3545
 2836SOL    HW2 8508   2.325   4.858   8.111 -1.7264 -0.6102  1.4706
 2837SOL     OW 8509   4.411   4.748   5.856 -0.3424 -0.6516 -0.2646
 2837SOL    HW1 8510   4.471   4.673   5.850  1.2893  0.6905 -1.8417
 2837SOL    HW2 8511   4.438   4.806   5.786 -2.0073  1.1368  0.4813
 2838SOL     OW 8512   2.708   2.487   8.946 -0.0307 -0.1372  0.3666
 2838SOL    HW1 8513   2.699   2.395   8.920 -0.5151 -0.3822  1.3699
 2838SOL    HW2 8514   2.624   2.527   8.923 -0.6098 -0.4434  1.8378
 2839SOL     OW 8515   1.048   4.531   8.386  0.1002 -0.0986  0.5670
 2839SOL    HW1 8516   1.140   4.515   8.408  0.5224 -0.1246 -1.0522
 2839SOL    HW2 8517   1.018   4.450   8.346  0.7040  1.1666 -2.8554
 2840SOL     OW 8518   2.134   0.871   9.249  0.4728  1.1823 -0.2477
 2840SOL    HW1 8519   2.136   0.811   9.324 -1.7207  1.5530  0.1662
 2840SOL    HW2 8520   2.112   0.816   9.174 -0.1483  1.2552 -0.1178
 2841SOL     OW 8521   3.694   1.157   8.429 -0.4531 -0.4826 -0.8165
 2841SOL    HW1 8522   3.680   1.250   8.447 -0.7854 -0.4864 -1.0385
 2841SOL    HW2 8523   3.613   1.114   8.459  0.1503 -0.8509  0.3617
 2842SOL     OW 8524   1.314   0.539   7.355  0.5342  0.1440  0.5156
 2842SOL    HW1 8525   1.324   0.498   7.441  1.0608 -0.9974 -0.0731
 2842SOL    HW2 8526   1.360   0.623   7.363  2.3547 -0.8426  0.7491
 2843SOL     OW 8527   3.611   3.380   6.307 -0.1767 -0.0907  0.0954
 2843SOL    HW1 8528   3.694   3.394   6.353 -0.9085  1.8983  0.9065
 2843SOL    HW2 8529   3.636   3.341   6.223  1.3735 -1.6532  1.2067
 2844SOL     OW 8530   1.916   1.021   6.709 -0.0731  0.3262  0.4390
 2844SOL    HW1 8531   1.866   1.087   6.661 -1.2861  0.7826  2.2307
 2844SOL    HW2 8532   1.989   0.999   6.651 -0.7916  1.7242 -1.0645
 2845SOL     OW 8533   0.546   3.234   5.123  0.3014 -0.1022  0.4580
 2845SOL    HW1 8534   0.625   3.289   5.129 -0.6438  1.3776 -0.1946
 2845SOL    HW2 8535   0.528   3.208   5.214 -0.2971  2.2617  1.0651
 2846SOL     OW 8536   3.093   3.952   8.665 -0.1792  1.0364  0.0875
 2846SOL    HW1 8537   3.117   3.868   8.626 -1.9093  0.3062  0.4958
 2846SOL    HW2 8538   3.125   3.946   8.755 -0.8677  0.5316  0.3069
 2847SOL     OW 8539   2.935   3.240   8.637  0.5054 -0.1796 -0.4819
 2847SOL    HW1 8540   2.933   3.158   8.588  0.1261 -0.4709  0.0137
 2847SOL    HW2 8541   2.856   3.238   8.691 -0.7794  1.5466 -2.1359
 2848SOL     OW 8542   4.842   0.231   6.152  0.0288 -0.0267  0.1448
 2848SOL    HW1 8543   4.756   0.194   6.173 -0.1257  0.4388  0.3477
 2848SOL    HW2 8544   4.852   0.216   6.058 -0.2948 -0.0482  0.1107
 2849SOL     OW 8545   1.909   2.761   7.778 -0.1595  0.3581 -0.4549
 2849SOL    HW1 8546   1.907   2.856   7.793 -1.5359  0.0643  1.6555
 2849SOL    HW2 8547   1.936   2.724   7.862  0.1295 -1.1305 -1.1835
 2850SOL     OW 8548   2.969   2.468   8.980  0.2079 -0.0376 -0.3676
 2850SOL    HW1 8549   2.982   2.391   8.925  0.0405 -0.1695 -0.2226
 2850SOL    HW2 8550   2.875   2.475   8.992  0.2055  0.3220 -0.5619
 2851SOL     OW 8551   3.115   2.751   9.354  0.7697 -0.2837  0.5413
 2851SOL    HW1 8552   3.199   2.706   9.366  0.9693  0.1543  0.8209
 2851SOL    HW2 8553   3.050   2.691   9.390  1.1905  0.2923  2.3438
 2852SOL     OW 8554   4.347   4.280   6.728  0.3963 -0.1925 -0.1828
 2852SOL    HW1 8555   4.293   4.242   6.796  1.0676  0.6401  0.8568
 2852SOL    HW2 8556   4.425   4.313   6.774  0.6642  0.7974 -1.2716
 2853SOL     OW 8557   3.053   1.300   6.811 -0.2319  0.6392 -0.2088
 2853SOL    HW1 8558   2.964   1.328   6.787  0.2301  1.8818 -0.5378
 2853SOL    HW2 8559   3.102   1.305   6.729 -0.2848 -1.9755 -0.4779
 2854SOL     OW 8560   2.843   3.961   8.457 -0.1256  0.0450  0.1754
 2854SOL    HW1 8561   2.828   3.870   8.482  0.4992  0.0200  0.4748
 2854SOL    HW2 8562   2.877   4.002   8.536  0.8202  0.2263 -0.3110
 2855SOL     OW 8563   1.552   4.266   7.294  0.0730 -0.3477 -0.5085
 2855SOL    HW1 8564   1.511   4.319   7.226  0.8141 -2.2761 -2.6065
 2855SOL    HW2 8565   1.508   4.292   7.375 -2.5997  0.3752 -2.0543
 2856SOL     OW 8566   1.534   1.065   7.552 -0.7766 -0.4112 -0.2212
 2856SOL    HW1 8567   1.613   1.108   7.518 -0.9077 -0.3327 -0.4253
 2856SOL    HW2 8568   1.567   0.985   7.594 -0.2860  0.9107  2.0731
 2857SOL     OW 8569   3.557   4.329   5.264 -0.0735 -0.7645 -0.5616
 2857SOL    HW1 8570   3.537   4.312   5.172 -1.4159 -0.3064 -0.3795
 2857SOL    HW2 8571   3.472   4.342   5.305  0.4942 -1.2304  0.8118
 2858SOL     OW 8572   1.259   3.810  10.018  0.1609  0.4589 -0.3221
 2858SOL    HW1 8573   1.223   3.892   9.982 -0.2955  0.7313  0.7374
 2858SOL    HW2 8574   1.329   3.839  10.076  1.2556 -0.0108 -1.3834
 2859SOL     OW 8575   3.925   1.519   5.044  0.3292  0.4316 -0.4026
 2859SOL    HW1 8576   3.945   1.458   5.114  1.5297 -0.1080 -1.1923
 2859SOL    HW2 8577   3.976   1.598   5.065  1.0568  0.1016 -0.8970
 2860SOL     OW 8578   3.050   3.533   5.152 -0.4752 -0.3018 -0.1145
 2860SOL    HW1 8579   3.084   3.618   5.182  2.1600 -1.6497  1.0909
 2860SOL    HW2 8580   3.112   3.505   5.085 -2.4416 -0.4725 -1.9823
 2861SOL     OW 8581   2.119   4.164   5.262 -0.4922  0.4227  0.1474
 2861SOL    HW1 8582   2.184   4.105   5.223  0.3826  0.5770  1.3206
 2861SOL    HW2 8583   2.169   4.218   5.324 -1.2694  2.4459 -0.9084
 2862SOL     OW 8584   1.250   0.142   7.644 -0.0710 -0.1166  0.5186
 2862SOL    HW1 8585   1.206   0.218   7.680  3.0951  1.5244  1.2422
 2862SOL    HW2 8586   1.247   0.155   7.549  0.3460  0.8743  0.6347
 2863SOL     OW 8587   2.366   3.391   7.678 -0.3589 -0.0613  0.2715
 2863SOL    HW1 8588   2.448   3.440   7.688 -1.0222  1.2734 -0.4540
 2863SOL    HW2 8589   2.365   3.364   7.586  0.5190 -2.4844  0.9242
 2864SOL     OW 8590   4.398   4.012   5.964  0.2025 -0.2982 -0.2881
 2864SOL    HW1 8591   4.399   3.962   6.046  0.3786  0.2517  0.0461
 2864SOL    HW2 8592   4.372   4.100   5.989 -0.6457 -0.3427 -0.9522
 2865SOL     OW 8593   1.377   3.814   9.457 -0.5592  0.0151  0.4928
 2865SOL    HW1 8594   1.421   3.767   9.528  1.0866 -0.0791 -0.5385
 2865SOL    HW2 8595   1.371   3.904   9.487  2.8831  0.6596 -0.3455
 2866SOL     OW 8596   3.258   3.352   6.703 -0.8438  0.1236  0.1620
 2866SOL    HW1 8597   3.351   3.350   6.680 -0.5390  0.4232  1.3214
 2866SOL    HW2 8598   3.221   3.275   6.659  0.1956 -0.7199  0.7145
 2867SOL     OW 8599   2.629   0.153   8.066 -0.2301 -0.0463 -0.3565
 2867SOL    HW1 8600   2.705   0.202   8.099  0.1799 -0.7709 -0.2007
 2867SOL    HW2 8601   2.581   0.217   8.013 -0.5428  0.9473  1.0851
 2868SOL     OW 8602   3.168   0.719   7.923  0.1269  0.4193 -0.1828
 2868SOL    HW1 8603   3.220   0.764   7.990 -1.7120  0.4477  1.2838
 2868SOL    HW2 8604   3.229   0.709   7.849  2.6795 -0.8354  1.9154
 2869SOL     OW 8605   0.749   1.659   7.486 -0.1326 -0.0584 -0.0055
 2869SOL    HW1 8606   0.677   1.721   7.502  0.3149  0.5134 -0.1886
 2869SOL    HW2 8607   0.707   1.573   7.490 -0.6812  0.2259  0.7199
 2870SOL     OW 8608   3.580   3.874   9.261 -0.4403 -0.1510 -0.0309
 2870SOL    HW1 8609   3.676   3.873   9.264 -0.4195  0.8515  2.6690
 2870SOL    HW2 8610   3.555   3.785   9.236  1.1719 -0.4055 -0.8526
 2871SOL     OW 8611   1.647   0.677   8.809 -0.0423  0.2969  0.0955
 2871SOL    HW1 8612   1.609   0.643   8.890  1.7233  0.4666  1.0511
 2871SOL    HW2 8613   1.678   0.765   8.832 -1.1122  1.0867 -1.2921
 2872SOL     OW 8614   2.072   3.013   7.207 -1.4826 -0.3518  0.2273
 2872SOL    HW1 8615   2.154   3.046   7.246 -1.6463 -0.6922  0.8797
 2872SOL    HW2 8616   2.014   3.089   7.209 -1.4793 -0.3531  0.6375
 2873SOL     OW 8617   0.912   3.348   6.753 -0.0586  0.2016 -0.0469
 2873SOL    HW1 8618   0.817   3.352   6.759 -0.1257  1.6455 -1.5870
 2873SOL    HW2 8619   0.940   3.439   6.749  1.5847 -0.1148  2.3556
 2874SOL     OW 8620   1.431   0.990   9.302  0.4323 -0.4124  0.0792
 2874SOL    HW1 8621   1.468   1.071   9.337 -0.6269 -0.2881  0.9876
 2874SOL    HW2 8622   1.465   0.984   9.213  2.0446  0.0348  0.6400
 2875SOL     OW 8623   2.756   4.924   7.842  0.0180  0.1395 -0.5929
 2875SOL    HW1 8624   2.662   4.939   7.835  0.1327  0.7087 -1.0381
 2875SOL    HW2 8625   2.776   4.864   7.770 -0.0428 -0.1439 -0.3700
 2876SOL     OW 8626   4.520   3.647   6.358 -0.1548  0.7762 -0.0709
 2876SOL    HW1 8627   4.595   3.668   6.414 -0.3227  1.6094 -0.1554
 2876SOL    HW2 8628   4.472   3.579   6.406  1.9281 -1.5867 -1.0731
 2877SOL     OW 8629   0.450   1.357   7.678  0.1799 -0.2861 -0.7588
 2877SOL    HW1 8630   0.417   1.444   7.704 -1.4209 -0.6797 -1.3335
 2877SOL    HW2 8631   0.450   1.307   7.760 -1.8662 -0.6121 -0.8932
 2878SOL     OW 8632   4.834   4.791   7.223  0.6519  0.2930 -0.4658
 2878SOL    HW1 8633   4.918   4.766   7.262  0.3296 -0.5359 -0.2911
 2878SOL    HW2 8634   4.856   4.863   7.163  1.1966  1.5141  1.0986
 2879SOL     OW 8635   4.252   3.341   8.453 -0.5383 -0.0111 -0.0580
 2879SOL    HW1 8636   4.344   3.322   8.472 -0.6143 -0.9717 -0.5675
 2879SOL    HW2 8637   4.211   3.352   8.538  0.2175  1.3637  0.1641
 2880SOL     OW 8638   3.445   0.666   9.244 -0.1853  0.0983  0.3297
 2880SOL    HW1 8639   3.429   0.602   9.314  1.0781  0.6777  1.1899
 2880SOL    HW2 8640   3.536   0.649   9.217  0.3746  1.8639  0.9647
 2881SOL     OW 8641   1.296   4.622   6.841 -0.3196 -0.4664 -0.4080
 2881SOL    HW1 8642   1.290   4.696   6.780 -0.8258 -1.0599 -1.1102
 2881SOL    HW2 8643   1.361   4.563   6.802  0.8671  0.0722  0.6868
 2882SOL     OW 8644   4.360   4.748  10.076 -0.1685  0.4056  0.3616
 2882SOL    HW1 8645   4.321   4.779  10.158 -1.0891  0.7066 -0.1754
 2882SOL    HW2 8646   4.288   4.748  10.014  0.6105  0.5592 -0.5612
 2883SOL     OW 8647   2.087   4.614   6.568  0.3273 -0.3192  0.0955
 2883SOL    HW1 8648   2.028   4.675   6.612  1.9392 -1.0013  3.5132
 2883SOL    HW2 8649   2.114   4.660   6.489 -1.0305  1.9920  0.8851
 2884SOL     OW 8650   2.115   3.386   6.431 -0.4672 -0.3367 -0.3955
 2884SOL    HW1 8651   2.077   3.468   6.400 -0.6361 -0.4200 -0.4118
 2884SOL    HW2 8652   2.169   3.411   6.506 -3.4195 -0.6209  1.9980
 2885SOL     OW 8653   3.444   1.113   9.827 -0.0386  0.4769 -0.4238
 2885SOL    HW1 8654   3.506   1.185   9.816  0.7188 -0.0008  0.5976
 2885SOL    HW2 8655   3.450   1.064   9.745  2.1899 -0.4937  0.2464
 2886SOL     OW 8656   2.549   4.262   8.893 -1.0656  0.3003  0.3377
 2886SOL    HW1 8657   2.560   4.287   8.801  0.9606 -0.6780  0.2703
 2886SOL    HW2 8658   2.479   4.197   8.892 -1.5467  0.8090 -0.3873
 2887SOL     OW 8659   0.746   3.778   6.076  0.2171  0.3533  0.2441
 2887SOL    HW1 8660   0.794   3.727   6.010  2.8594  3.5209 -0.5317
 2887SOL    HW2 8661   0.656   3.780   6.043  0.8881 -0.4223 -1.8382
 2888SOL     OW 8662   0.403   4.220   5.298 -0.5377  0.3109 -0.4937
 2888SOL    HW1 8663   0.445   4.156   5.241  1.2460  1.3738 -0.4409
 2888SOL    HW2 8664   0.472   4.281   5.321 -1.7219  1.1432  1.0776
 2889SOL     OW 8665   1.788   0.060   9.304 -0.4107  0.1157 -0.2482
 2889SOL    HW1 8666   1.696   0.037   9.289 -0.1546 -0.5586 -0.8411
 2889SOL    HW2 8667   1.825   0.069   9.216  1.2210 -4.2184 -0.2395
 2890SOL     OW 8668   2.273   3.647   9.834 -0.5779 -0.5598 -0.0423
 2890SOL    HW1 8669   2.183   3.669   9.858  0.0612 -0.5607  2.6784
 2890SOL    HW2 8670   2.324   3.723   9.861  0.5611 -1.7136  1.2548
 2891SOL     OW 8671   3.806   4.484   7.572  0.2324 -0.1127 -0.2591
 2891SOL    HW1 8672   3.744   4.556   7.575  0.7194  0.2886  2.2320
 2891SOL    HW2 8673   3.780   4.434   7.495 -1.6948  1.3242 -0.6286
 2892SOL     OW 8674   1.920   4.844   6.766  0.0814 -0.3265 -0.2109
 2892SOL    HW1 8675   1.993   4.818   6.821 -1.8641 -2.0177  1.7562
 2892SOL    HW2 8676   1.917   4.939   6.773 -0.0268 -0.4612  2.6224
 2893SOL     OW 8677   1.467   1.186   7.763 -0.0003  1.2023 -0.1191
 2893SOL    HW1 8678   1.473   1.280   7.746 -2.5007  1.3518 -0.5438
 2893SOL    HW2 8679   1.484   1.145   7.678 -1.2182  1.4007 -0.4687
 2894SOL     OW 8680   4.793   2.629   6.676 -0.6048  0.8766 -0.3630
 2894SOL    HW1 8681   4.846   2.653   6.600  1.2427  0.9611  0.8892
 2894SOL    HW2 8682   4.832   2.547   6.707 -1.2176  0.9244  0.5811
 2895SOL     OW 8683   0.645   2.402   7.777 -0.3984 -0.0981 -0.1281
 2895SOL    HW1 8684   0.620   2.489   7.808 -1.4376 -0.5454  0.3282
 2895SOL    HW2 8685   0.643   2.347   7.855 -0.1169 -0.6111 -0.4791
 2896SOL     OW 8686   2.663   4.783   6.795  0.4388 -0.4648 -0.3292
 2896SOL    HW1 8687   2.731   4.850   6.781 -0.0111  0.0793  0.0477
 2896SOL    HW2 8688   2.646   4.749   6.707 -0.5416  1.1319 -0.8095
 2897SOL     OW 8689   2.641   3.817   5.299 -0.4862 -0.6778 -0.3400
 2897SOL    HW1 8690   2.685   3.756   5.239  0.6384 -0.2706  0.0299
 2897SOL    HW2 8691   2.573   3.764   5.341  0.1507 -1.5636 -0.3760
 2898SOL     OW 8692   3.299   4.683   9.980  0.1675 -0.8474 -0.3540
 2898SOL    HW1 8693   3.351   4.722  10.050  0.4647 -2.1928  0.2097
 2898SOL    HW2 8694   3.358   4.681   9.905  0.1511 -0.2243 -0.3820
 2899SOL     OW 8695   2.024   3.147   5.841 -0.0095  0.1823  0.8365
 2899SOL    HW1 8696   2.120   3.156   5.843  0.0969 -0.3022 -0.6064
 2899SOL    HW2 8697   1.991   3.236   5.852  0.5775  0.2977  1.8128
 2900SOL     OW 8698   4.294   2.063   8.532 -0.0580 -0.4356 -0.6407
 2900SOL    HW1 8699   4.249   2.128   8.478 -1.5696 -0.2412  0.7786
 2900SOL    HW2 8700   4.380   2.054   8.492  0.0258  2.0846 -1.1583
 2901SOL     OW 8701   0.720   0.620   7.200 -0.2525 -0.1677 -0.2510
 2901SOL    HW1 8702   0.665   0.657   7.131  0.5960 -0.8212 -1.3031
 2901SOL    HW2 8703   0.752   0.537   7.164  1.7836  0.4016  0.1035
 2902SOL     OW 8704   1.249   3.485   7.576  0.1791 -0.0288  0.2360
 2902SOL    HW1 8705   1.236   3.536   7.495 -3.8878  0.1833  0.7963
 2902SOL    HW2 8706   1.269   3.550   7.643 -0.0082  0.2377  0.0347
 2903SOL     OW 8707   0.321   0.754   7.403  0.1042 -0.4606  0.0628
 2903SOL    HW1 8708   0.383   0.708   7.460 -1.1238 -1.3422  0.7312
 2903SOL    HW2 8709   0.373   0.778   7.326  0.6838 -3.6768 -0.7004
 2904SOL     OW 8710   1.863   1.200   7.627 -0.2217  0.3987 -0.4416
 2904SOL    HW1 8711   1.899   1.114   7.605 -0.3637  0.1749  0.2062
 2904SOL    HW2 8712   1.808   1.222   7.551 -0.5544 -0.2894 -0.4105
 2905SOL     OW 8713   1.477   3.909   9.178 -0.8921  0.6391  0.8958
 2905SOL    HW1 8714   1.469   3.869   9.264 -0.0086  0.2040  0.7856
 2905SOL    HW2 8715   1.394   3.955   9.165 -1.5549 -0.3943  1.4042
 2906SOL     OW 8716   0.793   0.111   8.911 -0.2148  0.0199  0.3298
 2906SOL    HW1 8717   0.858   0.046   8.936 -0.1869 -0.2933 -0.5053
 2906SOL    HW2 8718   0.723   0.103   8.976 -0.4006 -1.1328 -0.0006
 2907SOL     OW 8719   0.603   0.437   7.688 -0.7369 -0.4475 -0.7192
 2907SOL    HW1 8720   0.623   0.499   7.758  0.0852  0.4360 -1.6911
 2907SOL    HW2 8721   0.568   0.491   7.617 -0.4284 -1.1465 -1.4256
 2908SOL     OW 8722   1.715   2.629   7.618  0.8319  0.8006 -0.7743
 2908SOL    HW1 8723   1.627   2.667   7.622  0.4917 -0.0300 -0.2615
 2908SOL    HW2 8724   1.765   2.678   7.683  0.3493  0.2622  0.0099
 2909SOL     OW 8725   0.142   4.487   9.084  0.1779  0.4340 -0.1610
 2909SOL    HW1 8726   0.151   4.581   9.071  0.1880  0.5047  0.3077
 2909SOL    HW2 8727   0.186   4.447   9.010  3.2397  0.7524  1.3276
 2910SOL     OW 8728   4.660   1.219   6.337 -0.0598  0.1953  0.1190
 2910SOL    HW1 8729   4.626   1.244   6.251 -0.5732 -0.0937  0.2337
 2910SOL    HW2 8730   4.668   1.124   6.332  2.0591  0.3573 -0.3878
 2911SOL     OW 8731   4.857   3.016   8.614 -0.7051 -0.3699  0.0197
 2911SOL    HW1 8732   4.790   3.032   8.681 -0.3120 -0.2607  0.3923
 2911SOL    HW2 8733   4.840   2.927   8.584 -0.7603 -0.4919  0.4078
 2912SOL     OW 8734   4.020   4.375  10.259 -0.2750 -0.4423  0.1190
 2912SOL    HW1 8735   4.049   4.284  10.258 -0.9051 -0.6909 -2.1625
 2912SOL    HW2 8736   3.944   4.375  10.317  1.0203 -0.8639  1.9043
 2913SOL     OW 8737   1.947   4.486   5.221  0.3670 -0.1979  0.2238
 2913SOL    HW1 8738   1.963   4.419   5.287  0.6606  1.4953  1.9753
 2913SOL    HW2 8739   2.011   4.468   5.152  1.0193 -1.1976  1.0623
 2914SOL     OW 8740   2.023   3.495   7.573 -0.4683 -0.3034  0.0528
 2914SOL    HW1 8741   1.955   3.428   7.579 -1.0617  0.3702  1.1920
 2914SOL    HW2 8742   1.974   3.577   7.564  0.1871  0.2149  1.1117
 2915SOL     OW 8743   2.620   4.693   4.979  0.5305  0.0160  0.6332
 2915SOL    HW1 8744   2.560   4.633   4.935 -0.1289  0.0201  1.5132
 2915SOL    HW2 8745   2.572   4.725   5.055  1.1445  1.0982  0.5875
 2916SOL     OW 8746   2.485   4.859   7.465  0.4631 -0.5186  0.1663
 2916SOL    HW1 8747   2.469   4.801   7.540  0.2765 -0.4352  0.1924
 2916SOL    HW2 8748   2.532   4.933   7.502  0.0784 -0.3222  0.2612
 2917SOL     OW 8749   0.119   2.895   6.343  0.2447 -0.0380  0.3890
 2917SOL    HW1 8750   0.181   2.889   6.271  0.6138  1.7535  0.5032
 2917SOL    HW2 8751   0.159   2.958   6.404 -1.3143  0.5665  0.8361
 2918SOL     OW 8752   1.168   2.573   7.663 -0.0617  0.3740  0.6472
 2918SOL    HW1 8753   1.177   2.559   7.757 -1.0383 -2.5166  0.4091
 2918SOL    HW2 8754   1.096   2.636   7.655  0.3300  1.0046  1.8105
 2919SOL     OW 8755   0.005   1.776   8.143 -0.2218 -0.2322 -0.3508
 2919SOL    HW1 8756   0.094   1.800   8.166 -0.0305 -0.4277 -0.8797
 2919SOL    HW2 8757   0.005   1.770   8.047 -0.8536 -0.0200 -0.3733
 2920SOL     OW 8758   1.352   0.270   9.931  0.3379  0.1935 -0.2992
 2920SOL    HW1 8759   1.298   0.319   9.868 -0.1200 -1.1864 -1.0276
 2920SOL    HW2 8760   1.357   0.182   9.894  1.6311 -0.1658  0.6744
 2921SOL     OW 8761   3.605   0.914  10.257  0.2098  0.3291  0.0272
 2921SOL    HW1 8762   3.510   0.925  10.265  0.2733  2.4019 -1.2302
 2921SOL    HW2 8763   3.642   0.979  10.316  0.8353  0.0492 -0.0461
 2922SOL     OW 8764   2.544   1.370  10.171  0.0495 -0.4291 -0.4893
 2922SOL    HW1 8765   2.543   1.449  10.118 -1.0814 -0.6364 -0.8118
 2922SOL    HW2 8766   2.461   1.326  10.150 -0.9835 -0.0011  2.2330
 2923SOL     OW 8767   1.031   4.043   7.462 -0.1392 -0.1216 -0.1481
 2923SOL    HW1 8768   1.036   4.070   7.370  2.2181 -1.0912 -0.3903
 2923SOL    HW2 8769   1.051   4.122   7.512  1.7297 -0.2467 -0.6352
 2924SOL     OW 8770   2.402   4.671   9.675 -0.3054 -0.3694  0.7517
 2924SOL    HW1 8771   2.492   4.698   9.689 -0.2266 -0.3717  0.2792
 2924SOL    HW2 8772   2.397   4.583   9.713  0.6616 -1.5532 -1.6316
 2925SOL     OW 8773   0.389   3.497   9.148  0.7466  0.4836  0.7001
 2925SOL    HW1 8774   0.434   3.528   9.069  0.2592  3.0044  1.3299
 2925SOL    HW2 8775   0.409   3.403   9.151 -1.5257 -0.4874 -3.9773
 2926SOL     OW 8776   2.361   4.564   6.379  0.5228 -0.4662  0.3470
 2926SOL    HW1 8777   2.355   4.607   6.464  0.2762 -0.1170  0.1558
 2926SOL    HW2 8778   2.419   4.489   6.394 -0.7765 -1.3412  1.2035
 2927SOL     OW 8779   3.161   2.228   8.900 -0.4201 -0.6259  0.5084
 2927SOL    HW1 8780   3.215   2.263   8.971 -0.1401  0.1602 -0.0781
 2927SOL    HW2 8781   3.211   2.247   8.821 -1.4444 -0.0808 -0.0302
 2928SOL     OW 8782   4.891   2.154   8.073 -0.0171  0.3156  0.3790
 2928SOL    HW1 8783   4.984   2.163   8.051 -0.5727 -0.7350 -3.1385
 2928SOL    HW2 8784   4.849   2.228   8.028 -1.1858 -1.3778 -1.5255
 2929SOL     OW 8785   3.369   1.167   6.971  0.2552 -0.2297 -0.0330
 2929SOL    HW1 8786   3.313   1.108   6.922 -1.2053  3.5348 -3.4636
 2929SOL    HW2 8787   3.314   1.199   7.043 -0.9191  0.7986 -1.3193
 2930SOL     OW 8788   1.221   2.041   7.549 -0.2929  0.1155  0.4410
 2930SOL    HW1 8789   1.143   2.037   7.604 -1.0271 -0.7685 -0.6210
 2930SOL    HW2 8790   1.193   2.089   7.471  0.3548  0.1790  0.2423
 2931SOL     OW 8791   3.274   0.266   7.352 -0.4644 -0.0591 -0.2762
 2931SOL    HW1 8792   3.253   0.260   7.445  2.0272  1.2141  0.4541
 2931SOL    HW2 8793   3.365   0.235   7.346 -0.2618  0.7474 -2.1239
 2932SOL     OW 8794   2.627   0.388   9.090  0.2783 -0.1535  0.2859
 2932SOL    HW1 8795   2.674   0.343   9.021 -0.8207 -2.1325  0.7461
 2932SOL    HW2 8796   2.552   0.331   9.109 -0.4668  1.2502  1.8165
 2933SOL     OW 8797   4.015   4.293   8.527  0.4613  0.4795 -0.2172
 2933SOL    HW1 8798   4.047   4.288   8.437 -0.6718  1.7419 -0.7221
 2933SOL    HW2 8799   3.951   4.221   8.533  1.3726 -0.3331 -0.0435
 2934SOL     OW 8800   3.462   1.712   6.549  0.1968 -0.0054 -0.1337
 2934SOL    HW1 8801   3.542   1.735   6.596 -0.0379  0.5147  0.0231
 2934SOL    HW2 8802   3.393   1.720   6.615 -0.3248  2.0777 -0.8415
 2935SOL     OW 8803   3.399   3.787   6.291  0.1316  0.0581 -0.0922
 2935SOL    HW1 8804   3.336   3.840   6.341  1.9893  0.7381  1.6822
 2935SOL    HW2 8805   3.480   3.838   6.294  1.1792 -1.4787 -1.0204
 2936SOL     OW 8806   5.001   3.124   9.446  0.2652 -0.3708  0.0592
 2936SOL    HW1 8807   4.955   3.103   9.365  1.7876  0.5173 -1.0859
 2936SOL    HW2 8808   4.947   3.191   9.488  0.5269  0.7151 -1.2955
 2937SOL     OW 8809   2.778   0.185   9.635  0.0326 -0.3485  0.2595
 2937SOL    HW1 8810   2.822   0.168   9.718 -0.2703  0.3376  0.5714
 2937SOL    HW2 8811   2.843   0.233   9.583 -0.7328  1.9164  1.2303
 2938SOL     OW 8812   1.359   4.362   9.813 -0.4857  0.5021  0.4847
 2938SOL    HW1 8813   1.363   4.287   9.753 -0.3677  0.9027 -0.0113
 2938SOL    HW2 8814   1.317   4.431   9.763 -1.9831  0.3196  1.4288
 2939SOL     OW 8815   4.263   0.383   9.312 -0.5357 -0.2118  0.0461
 2939SOL    HW1 8816   4.312   0.454   9.269 -0.8043  0.0429  0.1594
 2939SOL    HW2 8817   4.281   0.306   9.258 -0.3743 -0.0234 -0.1729
 2940SOL     OW 8818   1.536   1.908   8.809  0.3799  0.5485 -0.7738
 2940SOL    HW1 8819   1.533   1.929   8.715  0.7505  1.3563 -0.6091
 2940SOL    HW2 8820   1.625   1.929   8.835  0.0285  1.1750 -0.0459
 2941SOL     OW 8821   0.276   4.774   7.033  0.2842 -0.3887  0.4939
 2941SOL    HW1 8822   0.367   4.788   7.006  0.1244  0.8413  0.5286
 2941SOL    HW2 8823   0.279   4.698   7.092  1.1612 -0.8480 -0.1245
 2942SOL     OW 8824   1.874   0.411   6.725  0.3856 -0.9088 -0.4374
 2942SOL    HW1 8825   1.813   0.424   6.653  1.6409 -0.9743 -1.5679
 2942SOL    HW2 8826   1.826   0.439   6.803 -0.5191  0.6265 -1.4801
 2943SOL     OW 8827   2.161   4.722   7.586  0.1882 -0.4347  0.0268
 2943SOL    HW1 8828   2.241   4.709   7.637  1.5843 -0.6737 -2.1055
 2943SOL    HW2 8829   2.175   4.671   7.506 -1.3513  0.9043 -1.1587
 2944SOL     OW 8830   3.244   0.700   6.865  0.1819 -0.0916  0.5029
 2944SOL    HW1 8831   3.258   0.795   6.867 -0.1657  0.2246 -3.6557
 2944SOL    HW2 8832   3.331   0.663   6.883  0.9425  1.1353 -0.4446
 2945SOL     OW 8833   4.121   3.979   6.163 -0.0570  0.1228  0.0738
 2945SOL    HW1 8834   4.205   3.933   6.168 -0.5799 -0.9804 -0.9260
 2945SOL    HW2 8835   4.145   4.071   6.159  1.2524 -0.2462 -2.5501
 2946SOL     OW 8836   1.323   1.456   6.154 -0.2814  0.0213 -0.6578
 2946SOL    HW1 8837   1.317   1.507   6.235  1.2461 -1.7469  0.6467
 2946SOL    HW2 8838   1.296   1.368   6.180  1.0945 -0.7795 -1.8552
 2947SOL     OW 8839   2.502   2.119   9.441 -0.1498 -0.9530  0.5863
 2947SOL    HW1 8840   2.452   2.155   9.368  0.3898 -1.9632 -0.3013
 2947SOL    HW2 8841   2.443   2.126   9.516  0.5035  3.5017  0.9894
 2948SOL     OW 8842   1.047   3.298   9.716 -0.2273  0.1204 -0.1828
 2948SOL    HW1 8843   1.107   3.227   9.698  0.7781  0.6236  1.0104
 2948SOL    HW2 8844   0.964   3.271   9.677  0.0762 -1.7773  0.3990
 2949SOL     OW 8845   1.059   2.885   8.960 -0.0307 -0.1047  0.7746
 2949SOL    HW1 8846   1.143   2.929   8.945 -0.8055  1.1214 -0.1773
 2949SOL    HW2 8847   1.063   2.806   8.907 -0.2402  0.9961 -0.9761
 2950SOL     OW 8848   2.306   2.444   9.614 -0.2614 -0.0649  0.0530
 2950SOL    HW1 8849   2.260   2.524   9.588 -0.9947 -0.3869  0.3284
 2950SOL    HW2 8850   2.277   2.378   9.551 -0.3346 -0.3204  0.3531
 2951SOL     OW 8851   4.212   4.680   7.917  0.3185 -0.2124 -0.5134
 2951SOL    HW1 8852   4.125   4.696   7.954  0.0661 -2.4603  0.0345
 2951SOL    HW2 8853   4.269   4.744   7.959 -1.1479  1.8624 -1.4885
 2952SOL     OW 8854   3.212   0.547   9.914  0.1025 -0.4165 -1.0498
 2952SOL    HW1 8855   3.287   0.552   9.854  2.3105 -3.0893  1.1837
 2952SOL    HW2 8856   3.237   0.602   9.988  0.4417 -2.1689  0.1911
 2953SOL     OW 8857   1.336   3.392  10.024  0.5326  0.2969 -0.0993
 2953SOL    HW1 8858   1.422   3.350  10.034  1.2276  1.5855 -0.4782
 2953SOL    HW2 8859   1.356   3.485  10.013 -1.0088  0.9193  1.7849
 2954SOL     OW 8860   2.975   0.950   7.822  0.7563  0.2497  0.2740
 2954SOL    HW1 8861   3.019   0.871   7.790 -0.0927 -0.1595  0.0841
 2954SOL    HW2 8862   3.018   1.022   7.775  1.7880 -0.0567  0.7207
 2955SOL     OW 8863   0.512   0.518   9.569 -0.1052 -0.0889  0.9641
 2955SOL    HW1 8864   0.583   0.549   9.626  0.4931 -1.9736  1.3164
 2955SOL    HW2 8865   0.447   0.482   9.628  0.2642 -1.5506  0.5379
 2956SOL     OW 8866   3.000   3.721   9.122  0.6246  0.0417 -0.9713
 2956SOL    HW1 8867   3.033   3.660   9.056  2.0448  1.1378 -1.3420
 2956SOL    HW2 8868   2.999   3.670   9.203  0.6393 -0.8094 -1.4952
 2957SOL     OW 8869   1.050   3.669   8.528  0.2685 -0.0754 -0.3244
 2957SOL    HW1 8870   1.139   3.677   8.496  1.1429 -0.7510  1.7643
 2957SOL    HW2 8871   1.058   3.672   8.624 -1.8901 -0.6503 -0.0596
 2958SOL     OW 8872   2.542   1.229   8.442 -0.0209  0.1649 -0.2320
 2958SOL    HW1 8873   2.600   1.288   8.394  0.6386  0.9366  1.4280
 2958SOL    HW2 8874   2.589   1.146   8.447  0.8204  0.6760  0.7827
 2959SOL     OW 8875   3.456   0.186   8.639  0.5356  0.1291 -0.4206
 2959SOL    HW1 8876   3.380   0.244   8.638  0.5466  0.2905  2.1528
 2959SOL    HW2 8877   3.530   0.244   8.656  0.5816 -0.5376  1.9182
 2960SOL     OW 8878   3.389   2.103   9.803 -0.3766  0.0642  0.1461
 2960SOL    HW1 8879   3.372   2.018   9.763 -1.4447  0.2083  0.2494
 2960SOL    HW2 8880   3.335   2.103   9.882 -1.6254  1.4033 -0.6436
 2961SOL     OW 8881   0.238   2.597   8.804  0.1498  0.0041 -0.1143
 2961SOL    HW1 8882   0.250   2.691   8.816 -0.5526  0.3412 -1.7908
 2961SOL    HW2 8883   0.197   2.589   8.718 -0.7652 -1.7742  0.4468
 2962SOL     OW 8884   1.928   1.996   8.667  0.5305  0.5683 -0.3103
 2962SOL    HW1 8885   1.963   1.914   8.702  0.4169 -0.1645 -1.8267
 2962SOL    HW2 8886   1.834   1.983   8.666  0.5898  0.0031 -2.1299
 2963SOL     OW 8887   3.744   0.911   9.612 -0.2194  0.2172 -0.7278
 2963SOL    HW1 8888   3.656   0.941   9.637 -0.7694 -2.0157  0.3261
 2963SOL    HW2 8889   3.736   0.887   9.520 -0.3371  1.2557 -0.9952
 2964SOL     OW 8890   3.556   0.175   6.792  0.6861  0.3635  0.0753
 2964SOL    HW1 8891   3.568   0.219   6.876 -1.3336  0.8342  0.1656
 2964SOL    HW2 8892   3.462   0.158   6.787  0.5222  1.5601 -2.6609
 2965SOL     OW 8893   4.586   4.883   8.592 -0.0915  0.1328  0.2739
 2965SOL    HW1 8894   4.597   4.896   8.686 -2.1189 -0.3763  0.6189
 2965SOL    HW2 8895   4.675   4.885   8.557  0.6763  0.6655  2.1471
 2966SOL     OW 8896   2.306   0.841  10.158 -0.7743  0.0122 -0.1819
 2966SOL    HW1 8897   2.353   0.758  10.165  0.1841  0.3975 -1.6045
 2966SOL    HW2 8898   2.227   0.829  10.210  1.9064  0.1209  4.4619
 2967SOL     OW 8899   4.869   1.461   9.120 -0.1847  0.1064  0.0693
 2967SOL    HW1 8900   4.882   1.407   9.198  0.6979  0.3515  0.1053
 2967SOL    HW2 8901   4.830   1.542   9.153  2.0249  1.0313  0.5717
 2968SOL     OW 8902   3.419   2.591   7.497  0.0941  0.1402 -0.2369
 2968SOL    HW1 8903   3.357   2.545   7.553 -0.6388 -0.2562 -1.3247
 2968SOL    HW2 8904   3.375   2.673   7.474 -0.3453 -0.4218 -1.5295
 2969SOL     OW 8905   1.844   0.172   9.070  0.5047 -0.3752  0.4959
 2969SOL    HW1 8906   1.814   0.168   8.979  2.8253  2.4327 -0.5126
 2969SOL    HW2 8907   1.793   0.243   9.109  1.6332  0.4690  0.4665
 2970SOL     OW 8908   3.311   3.114  10.034  0.2234 -0.0689 -0.4311
 2970SOL    HW1 8909   3.301   3.197  10.080  1.6232  0.3958 -0.9047
 2970SOL    HW2 8910   3.395   3.080  10.065 -1.3501 -2.5010  1.5528
 2971SOL     OW 8911   2.093   3.518   9.482  0.2517 -0.2848 -0.2689
 2971SOL    HW1 8912   2.184   3.515   9.511 -0.6849 -1.3042  2.9708
 2971SOL    HW2 8913   2.056   3.434   9.509 -2.4796  1.4113  1.8265
 2972SOL     OW 8914   3.066   0.486   9.025 -0.5660 -0.0076 -0.5976
 2972SOL    HW1 8915   3.049   0.431   9.101  2.7386  1.6564  1.5975
 2972SOL    HW2 8916   3.002   0.556   9.030 -0.3915  0.0840  0.7333
 2973SOL     OW 8917   4.029   0.160   8.772 -0.0847  0.0295  0.5680
 2973SOL    HW1 8918   3.948   0.147   8.821  0.7633 -2.0738  1.5495
 2973SOL    HW2 8919   4.011   0.123   8.685 -0.5288  0.6939  0.3652
 2974SOL     OW 8920   0.550   1.328   9.149  0.5821 -0.7681  0.3046
 2974SOL    HW1 8921   0.539   1.278   9.230 -3.2293  0.3025  0.6432
 2974SOL    HW2 8922   0.462   1.359   9.128  1.8382  1.0662 -2.9609
 2975SOL     OW 8923   2.017   3.985   9.729  0.1450 -0.3377  0.1848
 2975SOL    HW1 8924   2.093   3.953   9.681  1.5420  1.5364  1.0504
 2975SOL    HW2 8925   1.999   4.071   9.692 -1.2651 -0.5400  0.3372
 2976SOL     OW 8926   0.627   4.244  10.014  0.2276 -0.5707 -0.2239
 2976SOL    HW1 8927   0.665   4.194   9.942  1.2779 -1.1013  0.6588
 2976SOL    HW2 8928   0.586   4.178  10.070  1.8876 -0.5474  1.1065
 2977SOL     OW 8929   1.665   4.890   8.891 -0.0386 -0.5603  0.3748
 2977SOL    HW1 8930   1.659   4.940   8.809  0.9646 -1.9578 -0.6089
 2977SOL    HW2 8931   1.590   4.832   8.889 -0.7984  0.3709  1.1603
 2978SOL     OW 8932   2.126   3.964   5.654 -0.2016  0.4427 -0.4983
 2978SOL    HW1 8933   2.067   3.904   5.698  0.8506 -1.9345 -2.1217
 2978SOL    HW2 8934   2.092   4.051   5.676 -0.8724 -0.5789  3.2399
 2979SOL     OW 8935   2.330   3.327   7.961 -0.5705 -0.1984  0.0600
 2979SOL    HW1 8936   2.333   3.336   7.866 -0.7547  0.2466  0.0944
 2979SOL    HW2 8937   2.237   3.326   7.982 -0.5632 -1.5983  0.1222
 2980SOL     OW 8938   2.716   4.662   9.559 -0.0176  0.2404  0.0695
 2980SOL    HW1 8939   2.790   4.688   9.614  0.4895 -2.8333  1.0271
 2980SOL    HW2 8940   2.685   4.580   9.598 -2.8040  0.4890 -1.3809
 2981SOL     OW 8941   1.951   0.134   7.104 -0.1741 -0.1636 -0.4432
 2981SOL    HW1 8942   2.004   0.064   7.066  1.5962  1.1229 -0.4430
 2981SOL    HW2 8943   1.863   0.120   7.068  0.3924 -1.6873 -1.3280
 2982SOL     OW 8944   1.580   4.500   8.345 -0.1762 -0.4307 -0.0261
 2982SOL    HW1 8945   1.623   4.484   8.260 -1.4391 -2.2407 -0.3868
 2982SOL    HW2 8946   1.643   4.468   8.409  0.9376  1.2599 -0.2008
 2983SOL     OW 8947   3.413   0.880   7.769 -0.7837 -0.4116 -0.4311
 2983SOL    HW1 8948   3.331   0.876   7.720 -0.1257  2.1228 -1.9492
 2983SOL    HW2 8949   3.481   0.882   7.702  0.3134  0.5429  0.6623
 2984SOL     OW 8950   1.971   1.198   8.587 -0.1040  0.0210  0.8581
 2984SOL    HW1 8951   1.999   1.110   8.563 -1.3532 -0.2346  0.2574
 2984SOL    HW2 8952   1.992   1.205   8.680 -1.5698 -1.5736  1.3676
 2985SOL     OW 8953   4.415   4.219   7.129 -0.3278 -0.4330 -0.6440
 2985SOL    HW1 8954   4.451   4.136   7.160 -0.5078 -0.0946  0.4914
 2985SOL    HW2 8955   4.477   4.285   7.160 -1.2729  0.0383  0.2889
 2986SOL     OW 8956   3.739   4.073   9.227 -0.0556 -0.4273  0.8495
 2986SOL    HW1 8957   3.758   4.160   9.192 -0.1303 -1.5147 -2.2463
 2986SOL    HW2 8958   3.646   4.058   9.205  0.3231 -1.7853  0.0196
 2987SOL     OW 8959   3.826   3.380   9.817  0.2891 -0.1276 -0.5394
 2987SOL    HW1 8960   3.857   3.445   9.881  1.6076  0.1256 -1.4042
 2987SOL    HW2 8961   3.868   3.298   9.845 -1.5972 -0.7245  0.7198
 2988SOL     OW 8962   2.923   1.500   8.108 -1.2169 -0.7085  0.2263
 2988SOL    HW1 8963   3.004   1.494   8.158 -0.9270 -0.2617 -0.1825
 2988SOL    HW2 8964   2.933   1.434   8.039 -0.2482  0.8044 -1.1427
 2989SOL     OW 8965   1.200   2.696  10.093  0.3201  0.8264  0.4559
 2989SOL    HW1 8966   1.172   2.741  10.013  1.5953  0.8589  0.0064
 2989SOL    HW2 8967   1.187   2.760  10.162  1.6731  1.7561 -0.1143
 2990SOL     OW 8968   4.291   0.301   9.857  0.1520 -0.4767  0.0033
 2990SOL    HW1 8969   4.259   0.343   9.777  0.5183  2.9506  1.4734
 2990SOL    HW2 8970   4.386   0.298   9.845  0.1798 -0.2610  0.1636
 2991SOL     OW 8971   1.734   1.141   7.383 -0.4723 -0.0727  0.1942
 2991SOL    HW1 8972   1.744   1.210   7.317 -1.5702  1.2011  1.3136
 2991SOL    HW2 8973   1.780   1.066   7.345  2.2921  1.7219 -0.3543
 2992SOL     OW 8974   0.044   0.452   9.975  0.3321 -0.0120 -0.2989
 2992SOL    HW1 8975  -0.036   0.442  10.025  1.0984 -0.4443  0.8837
 2992SOL    HW2 8976   0.074   0.362   9.959  0.6398  0.1449 -0.6427
 2993SOL     OW 8977   1.751   0.407   9.144 -0.4414 -0.1263  0.6694
 2993SOL    HW1 8978   1.709   0.416   9.229  0.5965  1.2950  1.0709
 2993SOL    HW2 8979   1.776   0.496   9.120 -0.8827 -0.4744 -1.2207
 2994SOL     OW 8980   2.785   4.089   8.963 -0.7135 -0.6145  0.0325
 2994SOL    HW1 8981   2.714   4.148   8.937  0.3081  1.8051  2.2980
 2994SOL    HW2 8982   2.855   4.106   8.901 -0.2667  1.0048  0.9221
 2995SOL     OW 8983   1.356   4.969   9.475  0.1521  0.3061 -0.6472
 2995SOL    HW1 8984   1.404   4.929   9.403  0.7195 -0.3981  0.0943
 2995SOL    HW2 8985   1.327   5.053   9.441 -1.7016 -0.9807 -2.5085
 2996SOL     OW 8986   2.576   0.681   9.086 -0.5008  0.4104 -0.2776
 2996SOL    HW1 8987   2.596   0.591   9.061 -2.8149 -0.6821  1.4602
 2996SOL    HW2 8988   2.569   0.679   9.181  0.1787  2.6429 -0.1101
 2997SOL     OW 8989   2.700   0.358  10.359 -0.0783  0.4102 -0.7261
 2997SOL    HW1 8990   2.684   0.432  10.419 -0.8978 -0.1717 -0.2006
 2997SOL    HW2 8991   2.673   0.281  10.408  1.3924 -0.3241 -1.0369
 2998SOL     OW 8992   0.484   2.684   9.353 -0.4357 -0.5299 -0.3099
 2998SOL    HW1 8993   0.396   2.647   9.359  0.3829 -2.7739 -0.9942
 2998SOL    HW2 8994   0.530   2.649   9.430 -0.2667  1.0633  0.3401
 2999SOL     OW 8995   2.280   4.723   8.834 -0.3958 -0.4648  0.6659
 2999SOL    HW1 8996   2.204   4.766   8.873  1.3321  1.0617  2.5653
 2999SOL    HW2 8997   2.337   4.703   8.908  1.8396  0.0891 -0.8257
 3000SOL     OW 8998   1.865   2.866   8.946  0.3645  0.1652 -0.3472
 3000SOL    HW1 8999   1.850   2.908   9.031  0.6981  3.9322 -1.9283
 3000SOL    HW2 9000   1.794   2.803   8.937 -0.6764  0.8906  2.0231
 3001SOL     OW 9001   3.034   1.031   9.622 -0.0796 -0.2022  0.5739
 3001SOL    HW1 9002   2.983   0.957   9.653 -1.3330 -0.8691 -2.6651
 3001SOL    HW2 9003   2.973   1.104   9.621 -0.4676 -0.4933 -1.2897
 3002SOL     OW 9004   0.377   4.868   9.549  0.3241 -0.2725 -0.6027
 3002SOL    HW1 9005   0.389   4.774   9.534 -0.4416 -0.4100 -0.4006
 3002SOL    HW2 9006   0.324   4.897   9.474  1.0831  0.1278 -0.9937
 3003SOL     OW 9007   4.832   4.208   8.799 -0.0589  0.0659 -0.3880
 3003SOL    HW1 9008   4.784   4.288   8.819  0.4682  0.6693 -1.4726
 3003SOL    HW2 9009   4.781   4.166   8.730  0.7205  0.4890 -1.2327
 3004SOL     OW 9010   4.791   4.889   8.414  0.5989 -0.5929 -0.0362
 3004SOL    HW1 9011   4.802   4.797   8.392 -0.8374 -1.7870  3.4904
 3004SOL    HW2 9012   4.739   4.925   8.342  1.6068 -2.3682 -1.7276
 3005SOL     OW 9013   0.480   2.307   9.120  0.6169  0.1980 -0.8620
 3005SOL    HW1 9014   0.454   2.323   9.029 -1.4564  1.5523 -0.1244
 3005SOL    HW2 9015   0.416   2.243   9.152  0.9180  0.2291 -0.1783
 3006SOL     OW 9016   1.907   1.493   9.177 -0.2379  0.0644 -0.4067
 3006SOL    HW1 9017   1.823   1.539   9.173 -0.4469 -0.3425 -0.7751
 3006SOL    HW2 9018   1.908   1.437   9.099  0.6135  0.4704 -0.6953
 3007SOL     OW 9019   4.476   4.751   9.480  0.2218  0.2301  0.3244
 3007SOL    HW1 9020   4.433   4.825   9.524 -0.8575  0.6229 -1.3242
 3007SOL    HW2 9021   4.421   4.732   9.405  0.1561 -2.6704  0.9957
 3008SOL     OW 9022   3.265   0.189   9.986 -0.1758  0.4030  0.0597
 3008SOL    HW1 9023   3.188   0.206   9.931  0.3795  0.2221 -0.8000
 3008SOL    HW2 9024   3.257   0.252  10.058 -1.2150  0.2670  0.0770
 3009SOL     OW 9025   3.977   0.027   8.150  0.7908  0.9917  0.0453
 3009SOL    HW1 9026   4.014   0.028   8.062 -0.3461 -1.3945 -0.5725
 3009SOL    HW2 9027   4.024  -0.043   8.195 -0.1347  0.6780  0.5652
 3010SOL     OW 9028   3.533   0.728   8.672 -0.2069  0.2589  0.2710
 3010SOL    HW1 9029   3.629   0.726   8.665 -0.2125  2.5409 -3.4884
 3010SOL    HW2 9030   3.516   0.800   8.733  0.5107  0.6810 -0.0064
 3011SOL     OW 9031   1.741   4.667   9.509 -0.4335  0.6946 -0.2219
 3011SOL    HW1 9032   1.679   4.603   9.475 -0.1980  0.9696 -1.2135
 3011SOL    HW2 9033   1.687   4.740   9.538 -0.6072  0.7075 -0.5751
 3012SOL     OW 9034   1.217   0.556   9.221 -0.5321  0.2947  0.2440
 3012SOL    HW1 9035   1.294   0.612   9.230 -1.7658  1.8032  2.4802
 3012SOL    HW2 9036   1.146   0.617   9.202 -1.0365 -1.2220 -3.7443
 3013SOL     OW 9037   2.792   0.224   9.283  0.7926  0.2634  0.0509
 3013SOL    HW1 9038   2.755   0.301   9.240  0.7381  0.7137  0.8746
 3013SOL    HW2 9039   2.752   0.224   9.370  3.5857  1.5053  1.4983
 3014SOL     OW 9040   1.137   2.631   8.531  0.0035 -0.2397 -0.3120
 3014SOL    HW1 9041   1.047   2.631   8.564  0.3662 -0.5377  0.7135
 3014SOL    HW2 9042   1.181   2.696   8.585  0.4569 -0.2358 -0.6852
 3015SOL     OW 9043   3.999   2.433   8.742  0.0245 -0.9319  0.1978
 3015SOL    HW1 9044   4.038   2.423   8.829  0.5583 -0.1950  0.0497
 3015SOL    HW2 9045   4.070   2.412   8.681  0.2145  0.4367 -0.0750
 3016SOL     OW 9046   2.172   2.268   9.428 -0.1395  0.1675  0.8764
 3016SOL    HW1 9047   2.132   2.220   9.356  0.2970 -0.0514  0.7739
 3016SOL    HW2 9048   2.099   2.293   9.485 -0.6447  1.4321 -0.2689
 3017SOL     OW 9049   3.818   3.232   8.582 -0.5308  0.3152  0.3944
 3017SOL    HW1 9050   3.780   3.318   8.601 -0.6031  0.1400  1.0811
 3017SOL    HW2 9051   3.742   3.175   8.570 -0.6162 -0.4217  3.4805
 3018SOL     OW 9052   3.142   4.666   8.135 -0.1718  0.4733 -0.0924
 3018SOL    HW1 9053   3.086   4.721   8.081  0.7737  1.7768  0.1957
 3018SOL    HW2 9054   3.201   4.727   8.179  1.9486 -0.8405 -0.9267
 3019SOL     OW 9055   1.797   1.731   9.393  0.1039  0.1187  0.7309
 3019SOL    HW1 9056   1.806   1.785   9.314  1.2774  1.5391  1.7909
 3019SOL    HW2 9057   1.791   1.794   9.465 -1.9763 -1.1227  1.7295
 3020SOL     OW 9058   1.931   4.921   8.947  0.6252  0.3372  0.3878
 3020SOL    HW1 9059   1.846   4.935   8.906  1.0064  1.2266 -0.1247
 3020SOL    HW2 9060   1.911   4.868   9.025  0.0659 -2.7642 -1.6617
 3021SOL     OW 9061   4.465   4.388   5.726  0.3430  0.0895 -0.3164
 3021SOL    HW1 9062   4.539   4.439   5.758  1.4927 -1.6969  0.0577
 3021SOL    HW2 9063   4.476   4.385   5.631  0.1625  0.6728 -0.3574
 3022SOL     OW 9064   0.095   2.567  10.285 -0.2953  0.2807  0.2886
 3022SOL    HW1 9065   0.138   2.516  10.354  0.0889 -0.3119 -0.3718
 3022SOL    HW2 9066   0.150   2.644  10.273  0.7460 -0.5756 -0.7013
 3023SOL     OW 9067   4.075   4.546   9.772 -0.2113 -0.0313 -0.1905
 3023SOL    HW1 9068   3.980   4.542   9.781 -0.3080 -0.8778 -1.3712
 3023SOL    HW2 9069   4.091   4.536   9.678  1.1481 -2.3823  0.2211
 3024SOL     OW 9070   1.127   1.053   9.164 -0.1843  0.0262  0.5168
 3024SOL    HW1 9071   1.064   1.126   9.163  0.2492  0.4501  1.8109
 3024SOL    HW2 9072   1.174   1.063   9.247  1.7040 -0.1915 -0.4716
 3025SOL     OW 9073   4.182   1.333   9.198 -0.4743  0.4876  0.4965
 3025SOL    HW1 9074   4.228   1.363   9.277  0.8928 -0.1105 -0.0306
 3025SOL    HW2 9075   4.193   1.238   9.199 -2.6161  0.1880  0.8613
 3026SOL     OW 9076   4.427   1.314   8.843  0.2090 -0.3929 -0.1955
 3026SOL    HW1 9077   4.493   1.301   8.910 -2.2635 -1.0532  2.3130
 3026SOL    HW2 9078   4.360   1.369   8.886 -0.7173  0.6021 -2.7089
 3027SOL     OW 9079   4.087   1.360   7.323 -0.2449  0.1185  0.3408
 3027SOL    HW1 9080   4.021   1.384   7.388 -2.0213 -0.8354 -1.0324
 3027SOL    HW2 9081   4.063   1.272   7.295  0.7971  0.2870 -1.2029
 3028SOL     OW 9082   4.616   4.161   9.958  0.2016  0.1653  0.0552
 3028SOL    HW1 9083   4.632   4.244   9.914  1.9211  1.2339  2.4474
 3028SOL    HW2 9084   4.608   4.184  10.051  0.5836 -2.2945  0.7877
 3029SOL     OW 9085   1.691   2.714   7.041  0.0494  0.2326  0.0509
 3029SOL    HW1 9086   1.597   2.733   7.052 -0.0703  0.7520 -1.6025
 3029SOL    HW2 9087   1.735   2.782   7.092 -0.4676  0.5612  0.0705
 3030SOL     OW 9088   2.353   4.639   9.289 -0.2282  0.5719 -0.1824
 3030SOL    HW1 9089   2.281   4.671   9.344 -0.3630  1.9055 -1.0822
 3030SOL    HW2 9090   2.346   4.544   9.292 -2.0747  0.6782 -0.2951
 3031SOL     OW 9091   4.383   3.055   9.849  0.5972  0.0362  0.1359
 3031SOL    HW1 9092   4.391   2.987   9.915  1.8370  0.5006  0.5047
 3031SOL    HW2 9093   4.376   3.136   9.899 -1.0119  0.1975 -0.2914
 3032SOL     OW 9094   4.374   0.378   9.566 -0.3466 -0.8471 -0.3141
 3032SOL    HW1 9095   4.304   0.377   9.500 -1.1801  0.3941  0.5163
 3032SOL    HW2 9096   4.396   0.286   9.578 -3.4950 -1.5532  1.0860
 3033SOL     OW 9097   2.863   0.519   9.246  0.9893  0.0175  0.2368
 3033SOL    HW1 9098   2.928   0.588   9.228  0.0625  0.8674  0.0597
 3033SOL    HW2 9099   2.821   0.503   9.161  0.7206 -0.2601  0.4228
 3034SOL     OW 9100   2.864   1.092   9.957  0.1756 -0.1989 -0.5205
 3034SOL    HW1 9101   2.792   1.094   9.894 -0.7418 -1.2195  0.4589
 3034SOL    HW2 9102   2.889   1.000   9.962  2.4957  0.2629 -1.8204
 3035SOL     OW 9103   0.208   1.404   9.501  0.8833 -0.0902 -0.0858
 3035SOL    HW1 9104   0.227   1.419   9.593  2.1823  3.6926 -0.7930
 3035SOL    HW2 9105   0.287   1.433   9.455  0.0965 -1.3835 -2.4351
 3036SOL     OW 9106   2.652   3.615   7.068 -0.6779 -0.1491  0.2882
 3036SOL    HW1 9107   2.635   3.521   7.061 -1.0629 -0.2613  2.2002
 3036SOL    HW2 9108   2.603   3.642   7.146  2.6460  0.8456  2.2146
 3037SOL     OW 9109   4.060   0.969   8.678  0.0226  0.5397 -0.0683
 3037SOL    HW1 9110   4.134   1.030   8.671 -0.3669  0.9163 -1.0096
 3037SOL    HW2 9111   3.998   1.014   8.735  0.0803  0.6668 -0.1053
 3038SOL     OW 9112   1.011   4.183   9.510 -0.0768  0.1394 -0.3547
 3038SOL    HW1 9113   0.928   4.177   9.462 -1.2455 -0.3158  1.5881
 3038SOL    HW2 9114   1.031   4.093   9.536  1.0111  0.2557 -0.7570
 3039SOL     OW 9115   0.846   3.451  10.199  0.6281 -0.9450 -0.2391
 3039SOL    HW1 9116   0.755   3.481  10.204  1.4772  1.7766  0.1277
 3039SOL    HW2 9117   0.894   3.523  10.160  2.8774 -1.7880  0.7769
 3040SOL     OW 9118   4.765   1.901   9.905 -0.5781  0.1596  0.0151
 3040SOL    HW1 9119   4.741   1.984   9.862  0.6218 -0.1334 -1.2806
 3040SOL    HW2 9120   4.688   1.845   9.893 -0.5327  0.3264 -1.1642
 3041SOL     OW 9121   4.742   0.303   8.852 -0.0022 -0.3643  0.0878
 3041SOL    HW1 9122   4.831   0.308   8.816 -1.2083 -2.8490 -3.8066
 3041SOL    HW2 9123   4.698   0.381   8.817 -0.6421 -1.7858 -2.4762
 3042SOL     OW 9124   2.951   1.552   8.943  0.1411 -0.2657 -0.4774
 3042SOL    HW1 9125   2.891   1.533   9.015 -0.4835 -2.9272 -1.5695
 3042SOL    HW2 9126   2.906   1.620   8.892 -0.4713  0.0047  0.4074
 3043SOL     OW 9127   3.119   0.187  10.268 -0.0507  0.6168 -0.1809
 3043SOL    HW1 9128   3.124   0.237  10.349 -3.1578 -0.9539  1.1225
 3043SOL    HW2 9129   3.089   0.250  10.203 -2.1038  0.9392  1.0084
 3044SOL     OW 9130   4.704   4.090   7.543 -0.3761 -0.2693 -0.2462
 3044SOL    HW1 9131   4.655   4.162   7.582  1.2123  0.7371 -0.0164
 3044SOL    HW2 9132   4.791   4.126   7.528  0.2948 -1.9792 -0.6517
 3045SOL     OW 9133   3.301   4.972   8.668 -0.0015 -0.0182  1.2376
 3045SOL    HW1 9134   3.363   5.044   8.665 -0.7955  0.6491 -1.3758
 3045SOL    HW2 9135   3.322   4.919   8.591  0.5189 -2.6328  3.0289
 3046SOL     OW 9136   1.042   4.428  10.032 -0.6988  0.2881 -0.6362
 3046SOL    HW1 9137   1.085   4.510  10.007  1.4768  0.3163  2.5540
 3046SOL    HW2 9138   0.955   4.454  10.061 -0.6699  1.1934 -1.3151
 3047SOL     OW 9139   4.203   1.193   5.868 -0.5465  0.0683  0.0816
 3047SOL    HW1 9140   4.167   1.255   5.804  0.3608 -0.8886 -1.4454
 3047SOL    HW2 9141   4.298   1.207   5.863 -0.3692 -0.9810  0.1617
 3048SOL     OW 9142   0.600   2.589   9.599  0.1298  0.4791  0.5731
 3048SOL    HW1 9143   0.594   2.553   9.687  0.5213  0.8104  0.7435
 3048SOL    HW2 9144   0.619   2.514   9.543  0.9197  0.4108  0.9168
 3049SOL     OW 9145   4.966   4.522   5.731 -0.6980  0.0962 -0.3728
 3049SOL    HW1 9146   4.961   4.519   5.635 -0.0788 -1.3550 -0.3907
 3049SOL    HW2 9147   5.036   4.461   5.753  0.9061  2.2502  0.9197
 3050SOL     OW 9148   0.059   0.914   6.566  0.1119  0.2797 -0.0350
 3050SOL    HW1 9149   0.137   0.916   6.510  2.5671 -1.5759  2.9763
 3050SOL    HW2 9150  -0.009   0.875   6.512  1.3546  1.4326 -2.6109
 3051SOL     OW 9151   4.120   0.076   6.696  0.4693  0.0733  0.2589
 3051SOL    HW1 9152   4.091   0.137   6.763  0.4259  2.2165 -1.6019
 3051SOL    HW2 9153   4.215   0.086   6.693  0.3187  1.6167 -1.3547
 3052SOL     OW 9154   0.410   0.282   6.791  0.4558  0.5845 -0.2026
 3052SOL    HW1 9155   0.389   0.373   6.770  0.3433  1.2357  2.3635
 3052SOL    HW2 9156   0.349   0.230   6.738  0.4996  1.9858 -1.6778
 3053SOL     OW 9157   4.584   4.590   6.103  0.3326  0.7009  0.2515
 3053SOL    HW1 9158   4.597   4.685   6.108 -0.4153  0.8667 -0.7184
 3053SOL    HW2 9159   4.648   4.559   6.040  0.5610  0.5526  0.5510
 3054SOL     OW 9160   0.337   0.533   5.582 -0.2599 -0.3393  0.4594
 3054SOL    HW1 9161   0.334   0.478   5.661  0.8081 -1.6739 -0.3698
 3054SOL    HW2 9162   0.347   0.470   5.510  0.4047  0.9160 -0.5883
 3055SOL     OW 9163   4.916   4.474   4.902  0.4935  0.0698  0.4439
 3055SOL    HW1 9164   4.950   4.385   4.913  0.3736  0.1863  2.1122
 3055SOL    HW2 9165   4.822   4.461   4.890  0.6569 -0.0867 -0.7177
 3056SOL     OW 9166   4.879   1.305   6.066  0.6138 -0.5736 -0.0290
 3056SOL    HW1 9167   4.920   1.391   6.061  0.9858 -0.7442  0.0854
 3056SOL    HW2 9168   4.796   1.321   6.112  0.3886 -0.1721 -0.5725
 3057SOL     OW 9169   1.693   2.327   6.513 -0.5246  0.6781 -0.4289
 3057SOL    HW1 9170   1.618   2.352   6.566  1.1407  0.4015  2.2629
 3057SOL    HW2 9171   1.668   2.243   6.473 -1.3510  0.1259  1.1605
 3058SOL     OW 9172   1.277   0.861   6.960  0.0586  0.7055 -0.1857
 3058SOL    HW1 9173   1.327   0.942   6.972 -0.8400  1.1313  0.8699
 3058SOL    HW2 9174   1.264   0.828   7.049 -0.7947  0.1431 -0.5043
 3059SOL     OW 9175   1.044   3.478   5.841 -0.3595  0.0524  0.2628
 3059SOL    HW1 9176   0.994   3.416   5.895 -2.6199  0.1911 -1.5311
 3059SOL    HW2 9177   1.107   3.424   5.794 -3.0740 -1.2631 -2.1744
 3060SOL     OW 9178   0.853   1.962   5.208  0.3342 -0.2720 -0.2300
 3060SOL    HW1 9179   0.819   1.986   5.294  0.7385 -0.2697 -0.0656
 3060SOL    HW2 9180   0.776   1.945   5.155  0.0751  0.0472  0.0427
 3061SOL     OW 9181   2.975   0.426   5.574 -0.0587 -0.1127  0.4656
 3061SOL    HW1 9182   3.052   0.412   5.629 -1.0783  0.2683  2.0947
 3061SOL    HW2 9183   2.955   0.519   5.585 -0.4327 -0.0837 -0.3911
 3062SOL     OW 9184   2.344   4.129   6.594 -0.7044  0.0874 -0.2480
 3062SOL    HW1 9185   2.253   4.160   6.593 -0.7849 -0.0436  1.0600
 3062SOL    HW2 9186   2.346   4.064   6.665  0.4407  0.2095 -0.1510
 3063SOL     OW 9187   1.822   4.127   6.728  0.6200 -0.4659 -0.1210
 3063SOL    HW1 9188   1.825   4.134   6.632 -3.5477  0.0540 -0.4043
 3063SOL    HW2 9189   1.837   4.034   6.746  0.8922 -0.6699 -1.3164
 3064SOL     OW 9190   2.811   4.423   5.418  0.2613 -0.9550  0.5995
 3064SOL    HW1 9191   2.838   4.442   5.329 -2.3383 -0.6054 -0.2049
 3064SOL    HW2 9192   2.840   4.334   5.434 -1.5315 -2.0676 -1.6743
 3065SOL     OW 9193   2.968   3.653   5.519 -0.3740  0.1525 -0.9373
 3065SOL    HW1 9194   3.052   3.624   5.483 -0.6766 -1.6549 -0.3144
 3065SOL    HW2 9195   2.925   3.572   5.547 -1.5660  1.1921  0.3972
 3066SOL     OW 9196   0.989   1.978   7.079 -0.1365 -0.1791 -0.2165
 3066SOL    HW1 9197   1.065   1.936   7.118 -0.4226  0.9008  1.6464
 3066SOL    HW2 9198   0.919   1.967   7.144 -0.9791  0.6848 -0.9290
 3067SOL     OW 9199   0.926   2.203   5.070 -0.0234 -0.0085 -0.3772
 3067SOL    HW1 9200   1.022   2.197   5.066  0.1648  0.1320  2.2747
 3067SOL    HW2 9201   0.899   2.126   5.120 -1.0570  1.1392  0.9091
 3068SOL     OW 9202   2.763   4.827   8.547 -0.0687 -0.5573  1.1047
 3068SOL    HW1 9203   2.670   4.847   8.537  0.2076 -0.1740 -1.1118
 3068SOL    HW2 9204   2.777   4.750   8.491  1.0618 -0.2522  0.9575
 3069SOL     OW 9205   4.158   4.966   5.326 -0.0824  0.5042  0.1972
 3069SOL    HW1 9206   4.112   5.020   5.261 -2.0020 -0.6120  0.5462
 3069SOL    HW2 9207   4.096   4.896   5.346  0.9720  0.1184  2.3136
 3070SOL     OW 9208   2.126   2.812   8.863 -0.5065  0.8670 -1.2165
 3070SOL    HW1 9209   2.035   2.813   8.894 -0.6149 -2.3804 -1.0045
 3070SOL    HW2 9210   2.165   2.737   8.908  1.5708  0.6854 -3.1580
 3071SOL     OW 9211   3.062   0.916   7.387 -0.3662  0.1095 -0.2028
 3071SOL    HW1 9212   3.077   0.902   7.294  0.6025 -0.4756  0.0282
 3071SOL    HW2 9213   3.092   1.006   7.403 -1.8191  0.7094 -0.7039
 3072SOL     OW 9214   2.497   0.957   5.394 -0.1105  0.5845  0.1158
 3072SOL    HW1 9215   2.481   1.046   5.363 -1.3960  1.1364  2.1422
 3072SOL    HW2 9216   2.413   0.912   5.383  0.1018  0.0865  0.4949
 3073SOL     OW 9217   4.550   3.600   6.819  0.1185  0.2105  0.0321
 3073SOL    HW1 9218   4.612   3.549   6.767 -1.9988 -0.4714 -2.0182
 3073SOL    HW2 9219   4.527   3.544   6.892  1.9777  0.5569  0.9525
 3074SOL     OW 9220   0.734   1.070   7.798 -0.1570 -0.3065 -0.2535
 3074SOL    HW1 9221   0.695   1.116   7.873 -0.3715 -0.6499 -0.1532
 3074SOL    HW2 9222   0.787   1.001   7.838  0.8709  0.3959 -0.3743
 3075SOL     OW 9223   3.019   2.100   6.645 -0.1175 -0.3173 -0.0298
 3075SOL    HW1 9224   2.954   2.041   6.685 -2.5019  1.0204 -1.6709
 3075SOL    HW2 9225   3.009   2.182   6.693  0.6465 -0.1901 -0.0737
 3076SOL     OW 9226   2.299   1.963   6.175  0.1369  0.0206  0.3968
 3076SOL    HW1 9227   2.359   1.888   6.172 -0.8280 -0.7613  0.2519
 3076SOL    HW2 9228   2.226   1.933   6.230 -0.0263  1.0362  0.7441
 3077SOL     OW 9229   4.600   1.493   7.017  0.6780  0.1552  0.0748
 3077SOL    HW1 9230   4.614   1.484   6.922  2.5626  1.3073  0.1850
 3077SOL    HW2 9231   4.672   1.443   7.056  2.2466  2.7897  0.7882
 3078SOL     OW 9232   2.580   3.327   7.032  0.4515  0.1185 -0.4294
 3078SOL    HW1 9233   2.579   3.232   7.032  0.8004  0.0839 -2.2128
 3078SOL    HW2 9234   2.621   3.351   6.949  0.0009  1.8233 -0.2038
 3079SOL     OW 9235   3.392   0.064   5.200 -0.0994 -0.7034  0.0500
 3079SOL    HW1 9236   3.370   0.105   5.116  1.4512  0.4329  0.1492
 3079SOL    HW2 9237   3.308   0.051   5.244 -0.9423 -1.2797 -1.6418
 3080SOL     OW 9238   1.253   4.079   5.687  0.1621  0.2239 -0.2742
 3080SOL    HW1 9239   1.214   4.042   5.766 -2.0954  0.4678 -1.1824
 3080SOL    HW2 9240   1.340   4.039   5.681 -0.1220 -0.7756  1.6107
 3081SOL     OW 9241   1.976   0.944   8.467  0.5998  0.2596  0.0684
 3081SOL    HW1 9242   1.902   0.883   8.469  1.3768 -0.7740 -1.2229
 3081SOL    HW2 9243   1.965   0.991   8.384  1.6809 -0.3327 -0.4341
 3082SOL     OW 9244   0.321   0.320   6.365 -0.1011  0.2634 -0.8710
 3082SOL    HW1 9245   0.285   0.334   6.277 -1.0740 -0.9175 -0.6903
 3082SOL    HW2 9246   0.405   0.365   6.364  0.1720 -0.2080 -2.6083
 3083SOL     OW 9247   3.835   0.422   5.780 -0.5720 -0.3022 -0.2436
 3083SOL    HW1 9248   3.929   0.424   5.763 -0.5437 -1.4118 -0.2961
 3083SOL    HW2 9249   3.808   0.332   5.760 -1.4170 -0.3504  0.9349
 3084SOL     OW 9250   2.868   4.808   7.018  0.5612  0.1325  0.2343
 3084SOL    HW1 9251   2.960   4.826   7.033 -0.2199  3.1833  2.1184
 3084SOL    HW2 9252   2.863   4.786   6.924  3.4410 -2.9063  0.6137
 3085SOL     OW 9253   2.488   4.199   6.366  0.3221  0.0496  0.5719
 3085SOL    HW1 9254   2.441   4.178   6.285  0.1919  0.5654  0.5145
 3085SOL    HW2 9255   2.426   4.178   6.436 -0.1457  1.0821  0.4857
 3086SOL     OW 9256   3.756   0.202   7.997  0.3921 -0.3209 -0.3885
 3086SOL    HW1 9257   3.682   0.259   8.018  0.4909 -0.0591 -0.7573
 3086SOL    HW2 9258   3.832   0.244   8.037  0.4711 -0.1721 -0.6936
 3087SOL     OW 9259   2.570   3.455   5.298  0.0296 -0.1780 -0.3560
 3087SOL    HW1 9260   2.657   3.433   5.331  0.7400  1.2795 -1.1612
 3087SOL    HW2 9261   2.586   3.511   5.222 -1.6109  0.3149 -0.3880
 3088SOL     OW 9262   2.372   4.889   5.663  0.1689 -0.0788 -0.3029
 3088SOL    HW1 9263   2.398   4.930   5.745  0.7680 -1.2229  0.1006
 3088SOL    HW2 9264   2.422   4.937   5.596  0.7675 -0.0664  0.1407
 3089SOL     OW 9265   3.212   2.126   5.340 -0.5853 -0.3705 -0.1106
 3089SOL    HW1 9266   3.301   2.095   5.360 -0.2659  1.0662  0.8897
 3089SOL    HW2 9267   3.207   2.125   5.245 -0.2126 -2.3360 -0.1551
 3090SOL     OW 9268   4.235   1.600   6.422  0.6271 -0.2514  0.3274
 3090SOL    HW1 9269   4.256   1.618   6.330  1.1927  1.0684  0.6858
 3090SOL    HW2 9270   4.318   1.570   6.460  0.6232  0.0868  0.6069
 3091SOL     OW 9271   2.507   2.198   8.843  0.0765 -0.7242  0.3010
 3091SOL    HW1 9272   2.454   2.137   8.793  1.0453 -1.0062 -0.4043
 3091SOL    HW2 9273   2.480   2.285   8.812 -3.2102 -0.5056  3.1434
 3092SOL     OW 9274   0.370   1.540   7.003  0.3871 -0.4352  0.0799
 3092SOL    HW1 9275   0.330   1.461   7.039 -1.0090  0.2925  0.2169
 3092SOL    HW2 9276   0.295   1.591   6.970  1.3962 -0.0219 -1.7263
 3093SOL     OW 9277   4.586   1.300   5.180 -0.1045 -0.0015  0.2873
 3093SOL    HW1 9278   4.505   1.331   5.139 -1.4262 -2.8336  0.5497
 3093SOL    HW2 9279   4.620   1.376   5.227 -1.2293  1.9567 -1.8744
 3094SOL     OW 9280   3.731   1.219   5.201  0.0848  0.3490 -0.4173
 3094SOL    HW1 9281   3.694   1.229   5.289  1.3556 -0.1928  0.2068
 3094SOL    HW2 9282   3.813   1.269   5.204  0.5192 -0.2972 -1.0360
 3095SOL     OW 9283   4.498   3.325   5.904 -0.1770 -0.1524  0.0017
 3095SOL    HW1 9284   4.444   3.256   5.865 -1.1914  0.0653  0.9678
 3095SOL    HW2 9285   4.584   3.312   5.865 -0.6479 -1.1953 -0.7627
 3096SOL     OW 9286   4.294   0.381   5.455 -0.1780 -0.1608  0.9030
 3096SOL    HW1 9287   4.329   0.351   5.372  0.0636 -1.4736  1.4473
 3096SOL    HW2 9288   4.284   0.301   5.507  0.3155  0.6947  2.3701
 3097SOL     OW 9289   2.602   2.029   4.969  0.6459 -0.6099  0.3104
 3097SOL    HW1 9290   2.689   2.008   4.934  0.3403 -4.1111  1.2365
 3097SOL    HW2 9291   2.618   2.097   5.035  3.6477 -4.2335  3.8101
 3098SOL     OW 9292   4.019   1.635   6.623  0.1485 -0.5781  0.2942
 3098SOL    HW1 9293   4.034   1.643   6.718 -0.2177 -1.6485  0.4567
 3098SOL    HW2 9294   4.099   1.593   6.590 -0.6832 -2.4679  0.5309
 3099SOL     OW 9295   1.540   0.689   7.085 -0.2285 -0.0968  0.5297
 3099SOL    HW1 9296   1.472   0.754   7.066  1.3646  0.7771 -2.9259
 3099SOL    HW2 9297   1.594   0.731   7.152  0.2423  1.8519 -0.9824
 3100SOL     OW 9298   2.840   1.877   4.931 -0.1434 -0.2381 -0.5484
 3100SOL    HW1 9299   2.810   1.787   4.945 -1.7006  0.4449  0.8791
 3100SOL    HW2 9300   2.914   1.887   4.990  0.5313 -0.8029 -1.2865
 3101SOL     OW 9301   1.281   2.325   4.911  0.6533  0.6776  0.2289
 3101SOL    HW1 9302   1.254   2.416   4.897  1.5070  0.8941 -0.1453
 3101SOL    HW2 9303   1.273   2.285   4.824  0.9729  0.6043  0.2299
 3102SOL     OW 9304   4.515   0.701   5.656  0.4937  0.0410 -0.7886
 3102SOL    HW1 9305   4.553   0.779   5.617  2.6473 -0.4634  0.1743
 3102SOL    HW2 9306   4.587   0.661   5.705 -1.0913 -1.4325  0.4470
 3103SOL     OW 9307   3.438   4.054   6.539 -0.3109  0.0325 -0.5874
 3103SOL    HW1 9308   3.491   4.124   6.576  0.0159  0.3402 -1.6186
 3103SOL    HW2 9309   3.407   4.004   6.615  1.5844 -0.2557  0.0315
 3104SOL     OW 9310   4.707   4.849   6.201 -0.2336 -0.9055  0.0756
 3104SOL    HW1 9311   4.779   4.827   6.259 -0.5124 -1.6112  0.1722
 3104SOL    HW2 9312   4.688   4.941   6.218  1.5437 -0.2971 -0.9349
 3105SOL     OW 9313   0.611   1.448   6.611 -0.6106 -0.3419  0.2699
 3105SOL    HW1 9314   0.538   1.390   6.629  0.2842 -1.4012  0.5864
 3105SOL    HW2 9315   0.573   1.536   6.610 -1.6133 -0.7170  2.0246
 3106SOL     OW 9316   4.724   0.636   5.184  0.2024 -0.2282 -0.1175
 3106SOL    HW1 9317   4.663   0.703   5.216 -0.1358 -0.2062 -0.8058
 3106SOL    HW2 9318   4.792   0.632   5.252  0.3466  0.9688 -0.1670
 3107SOL     OW 9319   3.458   0.280   5.928  0.2071 -0.4696  0.2692
 3107SOL    HW1 9320   3.455   0.369   5.894  1.2368 -0.5642 -0.1201
 3107SOL    HW2 9321   3.535   0.241   5.886 -1.1307 -2.0638 -0.8446
 3108SOL     OW 9322   4.559   0.485   6.098  0.7491  0.2335  0.0933
 3108SOL    HW1 9323   4.472   0.524   6.105  1.2843  1.8627 -1.5335
 3108SOL    HW2 9324   4.546   0.392   6.118 -1.4295  0.3664 -0.5037
 3109SOL     OW 9325   1.826   0.657   5.942 -0.1645 -0.0786 -0.0424
 3109SOL    HW1 9326   1.863   0.569   5.937 -1.5112 -0.8499  1.9763
 3109SOL    HW2 9327   1.891   0.707   5.991 -1.0049 -1.0420  2.2132
 3110SOL     OW 9328   4.432   2.266   5.865  0.3187  0.1600 -0.1912
 3110SOL    HW1 9329   4.468   2.188   5.908  1.2822 -0.0335 -1.3025
 3110SOL    HW2 9330   4.464   2.260   5.775 -0.3368  1.3842 -0.5154
 3111SOL     OW 9331   1.124   3.321   6.300 -0.3347  0.4261 -0.0898
 3111SOL    HW1 9332   1.053   3.313   6.364  0.0824 -0.2595  0.2961
 3111SOL    HW2 9333   1.116   3.411   6.267 -1.1346  0.4861  0.2347
 3112SOL     OW 9334   3.459   3.790   7.366  0.5760 -0.6945 -0.4734
 3112SOL    HW1 9335   3.483   3.862   7.425  1.8102 -1.3077 -0.1837
 3112SOL    HW2 9336   3.388   3.825   7.312 -0.2328  0.0696  1.0158
 3113SOL     OW 9337   0.777   0.346   9.150 -0.4088  0.2159  0.1396
 3113SOL    HW1 9338   0.694   0.314   9.113 -1.2003  0.6350  1.4618
 3113SOL    HW2 9339   0.751   0.387   9.233  1.4051 -1.9015  1.8945
 3114SOL     OW 9340   1.824   4.539   7.222 -0.3982 -0.0833  0.4528
 3114SOL    HW1 9341   1.905   4.560   7.269 -0.2514 -0.2260  0.2663
 3114SOL    HW2 9342   1.849   4.469   7.162 -0.3884  0.6502 -0.4256
 3115SOL     OW 9343   1.622   0.371   5.548 -0.0308  0.1997 -0.0347
 3115SOL    HW1 9344   1.620   0.460   5.513 -0.1606  1.4151  2.7551
 3115SOL    HW2 9345   1.538   0.360   5.592  0.2968 -1.0052  0.3399
 3116SOL     OW 9346   1.923   2.506   6.377 -0.3364  0.3255 -0.0468
 3116SOL    HW1 9347   1.978   2.488   6.301 -0.8626  2.6548 -1.0620
 3116SOL    HW2 9348   1.861   2.433   6.380 -1.7192  1.2000 -3.2669
 3117SOL     OW 9349   2.744   0.766   9.335  0.6880  0.6435 -0.4551
 3117SOL    HW1 9350   2.813   0.711   9.297  1.3604  1.1497 -0.0066
 3117SOL    HW2 9351   2.788   0.850   9.353  0.3203  0.5443  1.0837
 3118SOL     OW 9352   1.148   1.947   8.014  0.1225 -0.0796 -0.8679
 3118SOL    HW1 9353   1.141   1.999   7.934 -0.3217  0.2364 -0.6311
 3118SOL    HW2 9354   1.147   2.012   8.084  1.0911 -0.3143 -0.6280
 3119SOL     OW 9355   1.228   4.518   6.315 -0.0392 -0.0766 -0.2217
 3119SOL    HW1 9356   1.191   4.576   6.382  1.4441 -0.0568  0.6455
 3119SOL    HW2 9357   1.157   4.504   6.253 -1.1118  0.8652  0.7378
 3120SOL     OW 9358   3.378   4.303   6.372 -0.1878 -0.1728  0.1670
 3120SOL    HW1 9359   3.378   4.213   6.405  3.5456 -0.5708 -0.5505
 3120SOL    HW2 9360   3.356   4.357   6.448 -1.1184 -1.5478  0.9291
 3121SOL     OW 9361   4.881   0.854   6.371  0.1503  0.5201 -0.5921
 3121SOL    HW1 9362   4.879   0.758   6.373 -3.1968  0.4768  1.1954
 3121SOL    HW2 9363   4.860   0.876   6.280 -1.0427 -0.5194 -0.6072
 3122SOL     OW 9364   0.391   4.181   6.205 -0.6237 -0.2574  0.4902
 3122SOL    HW1 9365   0.322   4.240   6.178  0.3418  0.3048 -0.8649
 3122SOL    HW2 9366   0.378   4.102   6.153 -2.0894 -1.4467  2.5059
 3123SOL     OW 9367   1.668   0.882   7.702  0.4223  0.8911 -0.7526
 3123SOL    HW1 9368   1.696   0.790   7.707 -1.1924  0.4322  0.5744
 3123SOL    HW2 9369   1.720   0.927   7.768 -2.8472 -0.2835  2.9802
 3124SOL     OW 9370   1.995   0.380   5.741 -0.7479 -0.2272  0.4926
 3124SOL    HW1 9371   2.047   0.307   5.709  0.1862  1.3733 -1.8301
 3124SOL    HW2 9372   1.966   0.352   5.828  0.5739 -2.8272  0.1824
 3125SOL     OW 9373   3.809   4.461   6.461 -0.1194 -0.0338  0.0616
 3125SOL    HW1 9374   3.892   4.432   6.501 -0.1730  0.9035  0.8974
 3125SOL    HW2 9375   3.784   4.389   6.403 -0.2031 -1.6165  1.9593
 3126SOL     OW 9376   1.349   4.924   6.207  0.0077 -0.3035  0.6355
 3126SOL    HW1 9377   1.296   4.970   6.142  1.6132  1.1369  0.2874
 3126SOL    HW2 9378   1.298   4.929   6.287 -0.9129 -0.0070  0.0494
 3127SOL     OW 9379   2.956   3.800   9.800 -0.1098 -0.2887 -0.6612
 3127SOL    HW1 9380   2.936   3.734   9.734 -1.9280 -0.5175  0.0614
 3127SOL    HW2 9381   3.004   3.868   9.753  0.8805 -1.6307 -1.6360
 3128SOL     OW 9382   3.179   2.780   5.983 -0.8872  1.1426  0.3205
 3128SOL    HW1 9383   3.203   2.859   5.935 -0.0550 -0.2539 -1.6941
 3128SOL    HW2 9384   3.263   2.736   5.999 -1.5165 -0.6014 -0.9540
 3129SOL     OW 9385   0.937   2.720   7.638  0.5436  0.3469 -0.5468
 3129SOL    HW1 9386   0.899   2.714   7.725  2.3799 -2.7498  0.2052
 3129SOL    HW2 9387   0.871   2.766   7.586 -1.2687  0.9517  2.0750
 3130SOL     OW 9388   3.446   1.675   5.359 -0.0112 -0.4967 -0.1250
 3130SOL    HW1 9389   3.529   1.661   5.313 -0.4551 -1.8736 -0.5638
 3130SOL    HW2 9390   3.402   1.590   5.354 -0.3046 -0.5817  2.3800
 3131SOL     OW 9391   1.338   0.578   5.882 -0.1188  0.5111  0.5716
 3131SOL    HW1 9392   1.297   0.634   5.817  0.5738 -0.0135 -0.3410
 3131SOL    HW2 9393   1.416   0.626   5.910  0.8282 -0.2328 -0.6824
 3132SOL     OW 9394   0.624   3.473   6.999 -0.1271 -0.0712 -0.2374
 3132SOL    HW1 9395   0.638   3.556   6.954  0.4728 -0.5325 -0.9215
 3132SOL    HW2 9396   0.672   3.482   7.081 -0.4245  0.4167 -0.1127
 3133SOL     OW 9397   3.294   0.146   6.755  0.0942  0.8601  0.3637
 3133SOL    HW1 9398   3.213   0.097   6.768  0.9656 -0.4478  1.0275
 3133SOL    HW2 9399   3.280   0.193   6.672 -1.0413  0.0589  0.0784
 3134SOL     OW 9400   3.386   0.855   6.416 -0.0858 -0.2638  0.1531
 3134SOL    HW1 9401   3.414   0.794   6.484  0.6202 -1.4808 -1.1625
 3134SOL    HW2 9402   3.297   0.880   6.441  0.7257  0.6501  2.3766
 3135SOL     OW 9403   4.041   3.732   6.120  0.0503  0.3700 -0.4218
 3135SOL    HW1 9404   4.051   3.826   6.137  1.7387  0.1316  0.0625
 3135SOL    HW2 9405   4.084   3.689   6.195 -0.5223 -0.7841 -0.7356
 3136SOL     OW 9406   4.664   3.554   6.043 -0.4393  0.0735 -0.5777
 3136SOL    HW1 9407   4.608   3.477   6.045  0.5391 -0.6409  0.6502
 3136SOL    HW2 9408   4.752   3.520   6.061 -0.0232  1.5049  0.2038
 3137SOL     OW 9409   2.326   0.297   6.805  0.4243  0.3159  0.2522
 3137SOL    HW1 9410   2.354   0.239   6.877 -2.4609 -0.8981  0.5445
 3137SOL    HW2 9411   2.392   0.285   6.737  1.3001 -1.3354  1.3301
 3138SOL     OW 9412   0.406   4.415   5.572 -0.0140 -0.1488 -0.5466
 3138SOL    HW1 9413   0.357   4.443   5.495 -0.0976  0.4696 -0.2764
 3138SOL    HW2 9414   0.483   4.371   5.537 -2.1151 -3.8930 -1.0486
 3139SOL     OW 9415   4.192   0.604   6.031  0.1379 -0.6129  0.1935
 3139SOL    HW1 9416   4.204   0.586   5.937 -0.8359 -5.0851  0.7135
 3139SOL    HW2 9417   4.129   0.677   6.032 -1.6218 -1.8752 -2.7324
 3140SOL     OW 9418   3.963   0.447   4.891  0.6208 -0.4720 -0.4380
 3140SOL    HW1 9419   3.942   0.530   4.847 -2.1844 -0.4331  0.7627
 3140SOL    HW2 9420   4.053   0.458   4.921  2.3838 -0.0754 -5.0118
 3141SOL     OW 9421   0.370   3.080   7.483 -0.3193 -0.2827 -0.7628
 3141SOL    HW1 9422   0.396   3.049   7.396  1.7398  1.4606 -0.8663
 3141SOL    HW2 9423   0.379   3.175   7.478 -0.9955 -0.0769  1.1090
 3142SOL     OW 9424   4.940   1.784   5.442 -0.2327  0.3501 -0.4759
 3142SOL    HW1 9425   5.034   1.772   5.455 -0.1327  0.5428 -0.9959
 3142SOL    HW2 9426   4.900   1.719   5.500  0.2408 -0.3086 -0.8610
 3143SOL     OW 9427   3.437   4.256   7.132  0.1189  0.2244 -0.4549
 3143SOL    HW1 9428   3.517   4.300   7.105  0.1526 -0.3686 -1.3591
 3143SOL    HW2 9429   3.367   4.316   7.108  0.3262  1.5575  1.9380
 3144SOL     OW 9430   4.214   1.006   7.683  0.1766 -0.2996  0.1864
 3144SOL    HW1 9431   4.308   0.996   7.670  0.8604  1.4077  2.9219
 3144SOL    HW2 9432   4.186   0.921   7.716  1.3142 -0.1407  1.6823
 3145SOL     OW 9433   1.439   0.076   5.851 -0.1888 -0.1271 -0.4627
 3145SOL    HW1 9434   1.441   0.163   5.811 -3.3849 -0.1886 -0.9611
 3145SOL    HW2 9435   1.363   0.079   5.910 -0.1554 -2.4804 -0.2300
 3146SOL     OW 9436   3.157   1.979   8.043 -0.1699  0.0418  0.9608
 3146SOL    HW1 9437   3.136   2.071   8.026  2.4654  0.6612  0.5583
 3146SOL    HW2 9438   3.253   1.977   8.046 -0.1782 -2.5414  1.9566
 3147SOL     OW 9439   0.171   4.847   6.263 -0.2599  0.0108  0.7676
 3147SOL    HW1 9440   0.226   4.830   6.340 -0.9344 -1.3147  0.9668
 3147SOL    HW2 9441   0.130   4.763   6.243 -0.3351  0.4094 -0.8653
 3148SOL     OW 9442   0.958   0.890   5.202 -0.6397  0.2749 -0.4887
 3148SOL    HW1 9443   0.947   0.896   5.107  1.3025 -2.2946 -0.9568
 3148SOL    HW2 9444   1.031   0.949   5.222 -2.8667  3.1209 -0.0247
 3149SOL     OW 9445   3.624   0.175   5.720  0.4286 -0.8778 -0.0189
 3149SOL    HW1 9446   3.597   0.186   5.629  0.8372 -0.0138 -0.0457
 3149SOL    HW2 9447   3.693   0.109   5.717 -0.1244 -1.4538 -0.2267
 3150SOL     OW 9448   3.508   0.654   5.512  0.2273  0.8167  0.3218
 3150SOL    HW1 9449   3.424   0.684   5.476  0.3531  0.2046 -0.4976
 3150SOL    HW2 9450   3.554   0.735   5.536  0.5447  1.3318 -1.8111
 3151SOL     OW 9451   3.936   1.869   5.230 -0.6665 -0.2079  0.0189
 3151SOL    HW1 9452   3.987   1.788   5.233 -0.3686 -0.0346 -0.3373
 3151SOL    HW2 9453   3.955   1.913   5.313  0.0883  0.0470 -0.2834
 3152SOL     OW 9454   2.022   0.780   6.092 -0.9454  0.1788  0.2966
 3152SOL    HW1 9455   2.018   0.870   6.059  0.1753  0.7859  1.6918
 3152SOL    HW2 9456   2.099   0.779   6.149 -0.3959 -1.9293 -0.3881
 3153SOL     OW 9457   4.891   0.109   7.658 -0.2366  0.4896  0.0600
 3153SOL    HW1 9458   4.923   0.025   7.623  2.3620  1.7630 -0.8923
 3153SOL    HW2 9459   4.955   0.133   7.724 -1.9417  0.9236  1.6327
 3154SOL     OW 9460   1.843   2.244   9.235  0.3924 -0.3603 -0.3185
 3154SOL    HW1 9461   1.863   2.308   9.167  1.6417 -0.6966 -0.2809
 3154SOL    HW2 9462   1.882   2.279   9.314 -0.5516 -0.2645  0.1219
 3155SOL     OW 9463   2.456   2.798   6.248  0.4530 -0.3212 -0.4361
 3155SOL    HW1 9464   2.534   2.766   6.293  0.5855 -0.1203 -0.5243
 3155SOL    HW2 9465   2.472   2.891   6.234 -0.6581  0.1903  1.3658
 3156SOL     OW 9466   0.746   1.892   7.010 -0.1416 -0.0884  1.1409
 3156SOL    HW1 9467   0.841   1.905   7.002 -0.4581  1.7699 -0.2138
 3156SOL    HW2 9468   0.737   1.809   7.056  2.1619 -1.1571 -0.1561
 3157SOL     OW 9469   0.617   4.719   5.148 -0.4460  0.1614 -0.1151
 3157SOL    HW1 9470   0.704   4.743   5.116 -0.9247  0.6735 -1.0645
 3157SOL    HW2 9471   0.616   4.624   5.147  0.8201  0.0648  1.8952
 3158SOL     OW 9472   0.600   2.657   5.926  0.2294 -0.0739 -0.4180
 3158SOL    HW1 9473   0.656   2.605   5.984  0.9469  1.3702  0.2099
 3158SOL    HW2 9474   0.515   2.659   5.971  0.7286  0.8743  0.5060
 3159SOL     OW 9475   2.873   0.633   6.396 -0.2706 -0.3027  0.5445
 3159SOL    HW1 9476   2.937   0.578   6.350 -2.5928 -0.1064 -3.4261
 3159SOL    HW2 9477   2.914   0.719   6.399  0.0737 -0.3610 -1.2088
 3160SOL     OW 9478   2.376   1.558   5.186  0.5895  1.1913 -0.3737
 3160SOL    HW1 9479   2.401   1.533   5.097  2.6891 -0.9565  0.7267
 3160SOL    HW2 9480   2.438   1.627   5.210  0.5400  1.2075 -0.2928
 3161SOL     OW 9481   3.795   2.048   7.017 -0.1164  0.0908  0.1968
 3161SOL    HW1 9482   3.838   2.103   6.951  0.7917  0.8867  1.4210
 3161SOL    HW2 9483   3.772   2.109   7.088  0.0759 -0.9554  1.1858
 3162SOL     OW 9484   4.224   3.676   5.055 -0.6645 -0.1878  0.3964
 3162SOL    HW1 9485   4.200   3.768   5.045  0.8335  0.2586  0.7442
 3162SOL    HW2 9486   4.140   3.631   5.068 -1.5696  0.9080 -1.2448
 3163SOL     OW 9487   3.843   0.197   5.031 -0.7668  0.0382  0.6610
 3163SOL    HW1 9488   3.853   0.228   4.941 -0.6495 -2.9665 -0.4788
 3163SOL    HW2 9489   3.755   0.158   5.033  0.1816 -2.2746  0.9556
 3164SOL     OW 9490   4.699   2.274   5.536  0.3563 -0.6238 -0.1243
 3164SOL    HW1 9491   4.649   2.351   5.511  0.5112  0.3255  2.1876
 3164SOL    HW2 9492   4.633   2.210   5.563  0.2968 -0.2200  0.7137
 3165SOL     OW 9493   0.998   1.052   5.688 -0.2857  0.1409  0.0054
 3165SOL    HW1 9494   0.997   1.132   5.636  1.5576 -1.1110 -2.1041
 3165SOL    HW2 9495   1.090   1.030   5.697 -0.3234  0.8223  4.9375
 3166SOL     OW 9496   2.469   1.187   6.001 -0.7205 -0.0839  0.1403
 3166SOL    HW1 9497   2.435   1.181   5.912 -0.4956 -0.1042  0.0544
 3166SOL    HW2 9498   2.499   1.278   6.009 -0.4699 -0.1617  0.0948
 3167SOL     OW 9499   4.643   4.695   6.836  0.9042  0.2629  0.1284
 3167SOL    HW1 9500   4.730   4.677   6.800 -0.2378  2.4726 -4.6167
 3167SOL    HW2 9501   4.583   4.665   6.768 -1.9379  1.2934  2.0144
 3168SOL     OW 9502   2.829   1.194   5.587  0.5745  0.7779  0.2657
 3168SOL    HW1 9503   2.912   1.162   5.551  1.9930  1.5226  2.6505
 3168SOL    HW2 9504   2.827   1.286   5.564 -0.6130  0.3560 -1.4842
 3169SOL     OW 9505   4.082   1.058   6.216  0.6027  1.0512  0.2894
 3169SOL    HW1 9506   4.059   1.006   6.292  0.1617 -1.2832 -1.3237
 3169SOL    HW2 9507   4.037   1.141   6.229 -0.3993  0.2807  2.0206
 3170SOL     OW 9508   0.633   1.974   7.396  0.3289  0.7320  0.4537
 3170SOL    HW1 9509   0.556   1.972   7.452 -1.0068 -0.6215 -1.2844
 3170SOL    HW2 9510   0.620   2.051   7.340  0.7975  1.1085  0.8531
 3171SOL     OW 9511   0.730   0.939   8.050  0.3185  0.6407  0.3252
 3171SOL    HW1 9512   0.652   0.908   8.004 -0.2117  1.5767  0.5450
 3171SOL    HW2 9513   0.803   0.901   8.003 -0.2338  1.0339 -0.8856
 3172SOL     OW 9514   0.665   1.137   6.372 -0.3935 -0.5735  0.1000
 3172SOL    HW1 9515   0.647   1.118   6.464  0.0219 -2.4479 -0.1742
 3172SOL    HW2 9516   0.611   1.214   6.353 -0.4335 -0.1095  1.9133
 3173SOL     OW 9517   3.310   2.088   5.081 -0.1360 -0.3810  0.0997
 3173SOL    HW1 9518   3.394   2.080   5.036 -0.5213 -0.4826 -0.6059
 3173SOL    HW2 9519   3.247   2.106   5.012 -0.3247  2.3142  0.8469
 3174SOL     OW 9520   2.471   3.315   7.423  0.1224 -0.2670  0.9289
 3174SOL    HW1 9521   2.560   3.351   7.424  0.8679 -1.9725  0.0475
 3174SOL    HW2 9522   2.482   3.226   7.390 -1.8200 -0.8110  1.6268
 3175SOL     OW 9523   4.382   0.053   5.454  0.2622  0.4937  0.7940
 3175SOL    HW1 9524   4.433   0.089   5.381 -0.2319  1.6443  0.9936
 3175SOL    HW2 9525   4.291   0.070   5.430  0.0521  0.0480  1.2649
 3176SOL     OW 9526   2.321   2.892   7.698  0.3541  0.2787  0.1614
 3176SOL    HW1 9527   2.354   2.970   7.653  1.8868 -0.0395  0.6796
 3176SOL    HW2 9528   2.242   2.867   7.648 -0.1550  2.1242 -0.0156
 3177SOL     OW 9529   3.145   4.558   8.507 -0.2538  0.5854 -0.1835
 3177SOL    HW1 9530   3.160   4.523   8.595  1.2030  1.5725 -0.0099
 3177SOL    HW2 9531   3.110   4.646   8.522 -2.1297 -0.0451 -0.6165
 3178SOL     OW 9532   1.917   1.302   7.217  0.0551  0.1077  0.2290
 3178SOL    HW1 9533   1.978   1.289   7.290  0.2884  0.7371  0.1549
 3178SOL    HW2 9534   1.847   1.356   7.254 -0.2529 -0.2730  0.2061
 3179SOL     OW 9535   1.329   4.239   6.001 -0.1572 -0.1123 -0.0502
 3179SOL    HW1 9536   1.351   4.262   6.091  0.2127  1.1419 -0.4421
 3179SOL    HW2 9537   1.260   4.300   5.976  1.7557  1.5647 -1.5404
 3180SOL     OW 9538   3.657   2.543   5.072  0.1828  0.3795 -0.0316
 3180SOL    HW1 9539   3.748   2.542   5.099  0.6751  1.0221 -1.5511
 3180SOL    HW2 9540   3.648   2.467   5.014  0.3452  1.5412 -1.6239
 3181SOL     OW 9541   3.911   4.458   5.467 -0.9722  0.6317 -0.3466
 3181SOL    HW1 9542   3.923   4.477   5.560 -0.3429 -0.9337 -0.0739
 3181SOL    HW2 9543   3.997   4.474   5.428 -0.4782 -1.3193 -0.1409
 3182SOL     OW 9544   0.819   3.068   5.479 -0.7810 -0.0976  0.4092
 3182SOL    HW1 9545   0.746   3.073   5.417  0.3682 -1.1764 -1.1256
 3182SOL    HW2 9546   0.847   3.159   5.492 -1.8265  0.2428  0.3319
 3183SOL     OW 9547   3.525   2.944   6.178 -0.3489 -0.3079 -0.1408
 3183SOL    HW1 9548   3.542   2.910   6.090  3.6469  0.8718 -0.0235
 3183SOL    HW2 9549   3.552   2.874   6.237  1.2564  0.4348  0.0676
 3184SOL     OW 9550   0.780   4.859   4.928  0.2126 -0.0660 -1.3478
 3184SOL    HW1 9551   0.796   4.765   4.938 -2.7067 -0.5555 -0.3622
 3184SOL    HW2 9552   0.685   4.867   4.921  0.4047  2.7947 -2.0529
 3185SOL     OW 9553   0.135   1.603   6.839  0.0758 -0.1919  0.1188
 3185SOL    HW1 9554   0.094   1.517   6.853  0.3617 -0.4304 -0.4654
 3185SOL    HW2 9555   0.213   1.584   6.786  0.8077  0.2823  0.9927
 3186SOL     OW 9556   3.578   4.864   5.188 -0.4977  0.2165  0.0875
 3186SOL    HW1 9557   3.513   4.933   5.176 -1.3175 -0.7348 -1.0128
 3186SOL    HW2 9558   3.544   4.811   5.260  0.4662  1.2886  1.4039
 3187SOL     OW 9559   3.255   3.916   8.109 -0.1811 -0.3050  0.8236
 3187SOL    HW1 9560   3.163   3.930   8.132 -0.1035  0.9424  0.4815
 3187SOL    HW2 9561   3.258   3.827   8.073 -0.9109 -1.0105  2.4431
 3188SOL     OW 9562   1.096   4.466   4.504  0.6981 -0.1206 -0.3915
 3188SOL    HW1 9563   1.178   4.488   4.461  0.1978 -0.7218 -1.7056
 3188SOL    HW2 9564   1.080   4.539   4.565  1.5115  0.6792 -1.1096
 3189SOL     OW 9565   3.416   1.161   8.551 -0.0768  0.7060  0.0410
 3189SOL    HW1 9566   3.398   1.254   8.535  1.3522  0.9925 -0.0400
 3189SOL    HW2 9567   3.340   1.116   8.514  0.6401  1.6655 -2.9451
 3190SOL     OW 9568   2.160   1.824   8.555 -0.0304 -0.5798  0.4808
 3190SOL    HW1 9569   2.170   1.740   8.601  0.9488 -0.1527  1.0842
 3190SOL    HW2 9570   2.222   1.818   8.482 -2.1087 -1.5572 -1.3264
 3191SOL     OW 9571   0.859   0.917   9.390 -0.3404 -0.6346  0.1190
 3191SOL    HW1 9572   0.788   0.918   9.326  0.5626  0.0730 -0.9077
 3191SOL    HW2 9573   0.821   0.874   9.467 -1.8798 -0.2394 -0.3838
 3192SOL     OW 9574   1.004   2.066   8.578  0.4894  0.2711  0.2742
 3192SOL    HW1 9575   1.078   2.016   8.611 -1.2294 -2.0902  0.8238
 3192SOL    HW2 9576   1.038   2.110   8.500  2.3059 -1.2159  0.1594
 3193SOL     OW 9577   4.474   2.969   7.361  0.3908 -0.4293 -0.3407
 3193SOL    HW1 9578   4.510   3.017   7.287  0.3398  0.0498 -0.0602
 3193SOL    HW2 9579   4.410   2.909   7.323  0.4751 -0.2908 -0.6986
 3194SOL     OW 9580   3.923   1.068   8.336  0.1482  0.6895  0.0926
 3194SOL    HW1 9581   3.845   1.103   8.380 -1.1976 -1.8163 -0.1207
 3194SOL    HW2 9582   3.907   1.082   8.243  1.1551  2.3561  0.1156
 3195SOL     OW 9583   1.087   2.726   6.289 -1.2337 -0.4208  0.0215
 3195SOL    HW1 9584   1.121   2.636   6.284  0.9844  0.1805  2.1471
 3195SOL    HW2 9585   1.037   2.738   6.208 -1.0470 -3.3183 -0.6390
 3196SOL     OW 9586   4.735   3.833   7.405 -0.0088 -0.3228  0.2102
 3196SOL    HW1 9587   4.808   3.817   7.346 -0.6899  0.1425 -0.7963
 3196SOL    HW2 9588   4.757   3.914   7.450 -0.6810  0.8406 -1.4308
 3197SOL     OW 9589   1.014   0.654  10.058  0.2576  0.0273 -0.6286
 3197SOL    HW1 9590   1.029   0.668   9.965 -0.2634  1.7549 -0.4872
 3197SOL    HW2 9591   1.060   0.572  10.078 -0.3893 -0.8800 -2.5661
 3198SOL     OW 9592   4.385   1.193   9.713  0.2928  0.0080  0.2286
 3198SOL    HW1 9593   4.393   1.267   9.774  1.7384  1.1693 -1.2705
 3198SOL    HW2 9594   4.441   1.125   9.749 -2.0086 -0.9463  2.3002
 3199SOL     OW 9595   4.212   0.130   6.369  0.8559 -0.3620  0.3144
 3199SOL    HW1 9596   4.243   0.060   6.427  0.1691 -0.5643  0.4386
 3199SOL    HW2 9597   4.122   0.106   6.347  0.9067  0.0259 -0.3586
 3200SOL     OW 9598   3.029   3.766   6.747  0.8306  0.1161  0.2016
 3200SOL    HW1 9599   2.991   3.823   6.814 -0.0524 -1.3680  1.0154
 3200SOL    HW2 9600   3.051   3.685   6.793  1.5477 -0.4315 -1.0248
 3201SOL     OW 9601   3.620   0.300   9.632 -0.4024  0.0444  0.3733
 3201SOL    HW1 9602   3.603   0.290   9.725 -0.8708 -1.1580  0.1696
 3201SOL    HW2 9603   3.549   0.252   9.589 -0.8359  1.5223 -0.6320
 3202SOL     OW 9604   3.354   4.679   9.558 -0.1782 -0.4669 -0.7298
 3202SOL    HW1 9605   3.410   4.651   9.486 -2.5396 -1.0260 -2.4674
 3202SOL    HW2 9606   3.289   4.609   9.568 -0.7280  0.2170  1.0638
 3203SOL     OW 9607   3.613   0.000   6.504  0.2569  0.2691  0.4164
 3203SOL    HW1 9608   3.565  -0.041   6.432  2.6308 -0.9122 -0.6272
 3203SOL    HW2 9609   3.591   0.093   6.496  0.2715  0.1554 -1.7590
 3204SOL     OW 9610   2.923   0.998   8.097  0.0318  0.0513  0.0404
 3204SOL    HW1 9611   2.902   0.994   8.003  1.1693  3.2849 -0.4829
 3204SOL    HW2 9612   3.006   1.045   8.101 -1.0870  2.0733  2.7440
 3205SOL     OW 9613   2.689   4.952   5.506  0.4951 -0.2972  1.1153
 3205SOL    HW1 9614   2.768   4.927   5.554  0.8591  0.7902  1.1038
 3205SOL    HW2 9615   2.657   4.870   5.468  2.1303 -0.6135  0.3465
 3206SOL     OW 9616   3.999   4.485   8.738 -0.6030 -0.3197 -0.1064
 3206SOL    HW1 9617   3.992   4.445   8.652 -0.9362  0.5873 -0.5166
 3206SOL    HW2 9618   4.090   4.515   8.744 -1.1984  2.0073 -1.2816
 3207SOL     OW 9619   3.657   4.401   7.025 -0.3453  0.3614  0.0983
 3207SOL    HW1 9620   3.669   4.468   7.092 -0.4894  0.5334 -0.0467
 3207SOL    HW2 9621   3.690   4.441   6.945  1.3168 -0.4158  0.3513
 3208SOL     OW 9622   0.744   1.130   7.091  0.2889 -0.1310 -0.0294
 3208SOL    HW1 9623   0.666   1.140   7.146  0.6920  0.2206  0.4826
 3208SOL    HW2 9624   0.765   1.219   7.063 -0.8725 -0.4475 -2.1238
 3209SOL     OW 9625   4.474   2.427   8.443  0.4018 -0.1396  0.3641
 3209SOL    HW1 9626   4.522   2.347   8.462  0.5394 -0.9529 -2.8769
 3209SOL    HW2 9627   4.541   2.495   8.433  0.3523  0.2045  2.0571
 3210SOL     OW 9628   1.504   4.673   7.959  0.1998  0.0714 -0.2726
 3210SOL    HW1 9629   1.500   4.726   8.039  0.2675  0.7412 -0.7094
 3210SOL    HW2 9630   1.476   4.732   7.889 -3.0880 -1.3660 -0.3557
 3211SOL     OW 9631   1.090   1.106   7.866  0.1972  0.5114  0.5753
 3211SOL    HW1 9632   1.151   1.080   7.935  0.9544 -4.0669 -1.4096
 3211SOL    HW2 9633   1.009   1.059   7.886 -0.0967  0.4082 -0.7235
 3212SOL     OW 9634   3.908   1.063   8.919  0.5686 -0.6347  1.0390
 3212SOL    HW1 9635   3.840   1.125   8.893  1.0686 -0.7407 -0.6591
 3212SOL    HW2 9636   3.917   1.075   9.013  0.0114  1.2057  0.8935
 3213SOL     OW 9637   0.543   0.020   7.522  0.1562 -0.0395 -0.9168
 3213SOL    HW1 9638   0.604  -0.036   7.473  1.8459 -0.1301  1.1005
 3213SOL    HW2 9639   0.497   0.071   7.455  0.9206 -1.5006 -2.6449
 3214SOL     OW 9640   1.497   1.558   8.210  0.3927  0.4331  0.3782
 3214SOL    HW1 9641   1.507   1.546   8.116 -0.1763  1.0414  0.2352
 3214SOL    HW2 9642   1.440   1.634   8.219 -0.2345 -0.1125  1.2048
 3215SOL     OW 9643   0.759   4.920   9.304 -0.7086  0.1381 -0.0202
 3215SOL    HW1 9644   0.830   4.981   9.284 -0.5058  0.8308  2.4421
 3215SOL    HW2 9645   0.796   4.834   9.286 -0.2383  0.6120 -1.4527
 3216SOL     OW 9646   3.922   4.006   9.745  0.1022  0.0264 -0.3428
 3216SOL    HW1 9647   4.008   3.964   9.750  0.8728  1.5562 -0.3168
 3216SOL    HW2 9648   3.940   4.094   9.714 -1.3985  0.5740  0.2472
 3217SOL     OW 9649   3.076   4.118   7.234 -0.4142  0.0306  0.9003
 3217SOL    HW1 9650   3.097   4.198   7.186 -0.8412 -0.1732  0.3633
 3217SOL    HW2 9651   3.065   4.147   7.325 -1.3938  0.7375  0.5789
 3218SOL     OW 9652   3.507   4.370   7.358 -0.1218  0.1934 -0.3167
 3218SOL    HW1 9653   3.481   4.328   7.275  1.8406 -0.4584 -0.6540
 3218SOL    HW2 9654   3.490   4.463   7.344  0.9129  0.1951 -1.7677
 3219SOL     OW 9655   4.827   0.291   7.452  0.0127  0.2773 -0.6408
 3219SOL    HW1 9656   4.753   0.336   7.492  0.4594  0.9828 -0.5804
 3219SOL    HW2 9657   4.808   0.198   7.463 -2.0967  0.3329 -2.8454
 3220SOL     OW 9658   0.208   0.068   8.620  0.1573  0.4482 -0.6860
 3220SOL    HW1 9659   0.203   0.146   8.565  2.3158  1.8047  0.8752
 3220SOL    HW2 9660   0.271   0.011   8.575 -0.3687  0.2090 -1.1252
 3221SOL     OW 9661   0.352   0.429   9.777 -0.3545  0.4021  0.1530
 3221SOL    HW1 9662   0.298   0.351   9.789 -0.4437  0.2675 -1.0186
 3221SOL    HW2 9663   0.339   0.480   9.857 -2.0697  0.2688  0.0021
 3222SOL     OW 9664   1.178   0.221   6.505  0.0924  0.1069  0.0341
 3222SOL    HW1 9665   1.154   0.207   6.596 -0.9264 -1.0161 -0.3926
 3222SOL    HW2 9666   1.273   0.209   6.503 -0.1358 -2.1329  0.5596
 3223SOL     OW 9667   1.019   0.132   5.371  0.6546 -0.0736  0.4570
 3223SOL    HW1 9668   1.002   0.176   5.288  1.4803 -1.3825 -0.4662
 3223SOL    HW2 9669   1.096   0.077   5.353  0.4273 -0.9189  1.8807
 3224SOL     OW 9670   3.957   0.387   8.075 -0.6543 -0.2495 -0.1681
 3224SOL    HW1 9671   3.883   0.444   8.092  1.0615  2.2169 -0.5244
 3224SOL    HW2 9672   4.034   0.438   8.100  1.1407 -1.4972 -2.6641
 3225SOL     OW 9673   2.045   3.193   6.764 -0.3734 -0.2291  0.3696
 3225SOL    HW1 9674   2.104   3.129   6.804 -0.8768 -1.7295 -1.1636
 3225SOL    HW2 9675   2.088   3.217   6.682 -1.6805 -1.0695 -0.5935
 3226SOL     OW 9676   3.117   1.765   6.758 -0.9350 -0.4321 -0.5480
 3226SOL    HW1 9677   3.135   1.847   6.804 -0.5958  0.0594 -1.5098
 3226SOL    HW2 9678   3.101   1.701   6.827  0.5322  0.0484  0.2812
 3227SOL     OW 9679   0.209   2.670   9.512 -0.0179  0.3393 -0.4003
 3227SOL    HW1 9680   0.166   2.610   9.451 -0.4781 -0.1559  0.3942
 3227SOL    HW2 9681   0.236   2.614   9.585  0.7666  0.8795 -0.2704
 3228SOL     OW 9682   2.569   3.563   7.728  0.1107 -0.4484 -0.3470
 3228SOL    HW1 9683   2.631   3.616   7.678 -0.2582 -0.0945 -0.4331
 3228SOL    HW2 9684   2.556   3.613   7.809 -1.5187  0.4615 -1.1176
 3229SOL     OW 9685   1.711   2.284   7.113 -0.3259 -0.3436 -0.2000
 3229SOL    HW1 9686   1.690   2.351   7.049 -1.4670 -1.2114 -0.7706
 3229SOL    HW2 9687   1.671   2.204   7.078  1.1924 -1.3912  0.3262
 3230SOL     OW 9688   3.406   4.510   8.405 -0.0251 -0.3251  0.9280
 3230SOL    HW1 9689   3.462   4.488   8.480  0.8933 -1.9478 -0.1877
 3230SOL    HW2 9690   3.317   4.509   8.441  0.5231  1.2242  2.4945
 3231SOL     OW 9691   0.916   2.967   8.359  0.1065 -0.0008 -0.4155
 3231SOL    HW1 9692   0.847   2.916   8.402  0.3426  0.6039  0.7352
 3231SOL    HW2 9693   0.870   3.021   8.295 -0.6157  0.9222  0.8346
 3232SOL     OW 9694   3.690   3.164   9.771  0.4547  0.6773 -0.1807
 3232SOL    HW1 9695   3.743   3.109   9.828  0.3723 -0.3161 -1.0256
 3232SOL    HW2 9696   3.734   3.249   9.772  0.0223  0.9238  1.9228
 3233SOL     OW 9697   1.081   1.499   7.241 -0.5781  0.4028  0.3190
 3233SOL    HW1 9698   1.062   1.526   7.330 -0.4389 -2.5843  1.3688
 3233SOL    HW2 9699   1.007   1.442   7.217  0.8463 -1.2867 -0.2554
 3234SOL     OW 9700   1.740   2.989   5.492 -0.3157  0.3079 -0.2017
 3234SOL    HW1 9701   1.821   2.967   5.538 -0.7698  0.8468  0.8988
 3234SOL    HW2 9702   1.745   2.941   5.410  2.5752  2.6502 -1.5815
 3235SOL     OW 9703   4.201   1.092   8.381  0.2722 -0.2369  0.4905
 3235SOL    HW1 9704   4.226   1.123   8.468 -0.4805  2.5665 -0.1901
 3235SOL    HW2 9705   4.108   1.114   8.373  0.1052 -1.2570 -0.7106
 3236SOL     OW 9706   2.155   1.166   7.164 -0.2873 -0.1226 -0.2299
 3236SOL    HW1 9707   2.064   1.138   7.157 -0.0341 -1.6633  1.6745
 3236SOL    HW2 9708   2.160   1.210   7.250  0.7183  0.1530 -0.4143
 3237SOL     OW 9709   0.813   3.611   5.335  0.6017 -0.3571 -0.1872
 3237SOL    HW1 9710   0.775   3.651   5.257  0.3915  0.4066  0.2922
 3237SOL    HW2 9711   0.898   3.655   5.345  0.3819 -0.0379  0.3248
 3238SOL     OW 9712   1.305   2.302   5.780  0.1033  0.6813  0.4783
 3238SOL    HW1 9713   1.274   2.253   5.856  1.8026 -0.1376  0.6868
 3238SOL    HW2 9714   1.256   2.384   5.783 -0.1735  0.4854  2.2106
 3239SOL     OW 9715   0.115   2.140   8.709  0.2242 -0.4317 -0.0130
 3239SOL    HW1 9716   0.171   2.154   8.785 -1.4026 -1.0757  1.3776
 3239SOL    HW2 9717   0.174   2.111   8.640  1.9069  1.2280  0.6403
 3240SOL     OW 9718   2.309   2.032   6.792  0.6005 -0.4261  1.0891
 3240SOL    HW1 9719   2.371   2.079   6.847  0.1584  1.3026  0.1899
 3240SOL    HW2 9720   2.227   2.036   6.841  0.4590  0.1797  0.8206
 3241SOL     OW 9721   1.493   3.380   6.754 -0.4410  0.4753 -0.4745
 3241SOL    HW1 9722   1.513   3.287   6.764 -0.0223  0.6031 -0.0667
 3241SOL    HW2 9723   1.544   3.422   6.823 -1.8014  0.8635  0.3235
 3242SOL     OW 9724   4.811   0.676   8.126  0.1924 -0.7202  0.0664
 3242SOL    HW1 9725   4.772   0.649   8.043  1.2615 -0.0995 -0.6647
 3242SOL    HW2 9726   4.903   0.693   8.106 -0.0190  1.7989  0.7943
 3243SOL     OW 9727   0.213   1.961   7.106 -0.1568  0.1045 -0.6417
 3243SOL    HW1 9728   0.134   1.907   7.108 -0.4014  0.3798 -1.9409
 3243SOL    HW2 9729   0.253   1.949   7.192 -0.3833 -1.9057 -0.7681
 3244SOL     OW 9730   3.616   1.904   9.592 -0.8928 -0.0311  0.0709
 3244SOL    HW1 9731   3.533   1.864   9.615 -0.1703 -1.8893 -0.3834
 3244SOL    HW2 9732   3.662   1.837   9.542  0.9012  0.9446  0.3336
 3245SOL     OW 9733   1.734   4.577   9.121 -0.0776 -1.1150  0.1277
 3245SOL    HW1 9734   1.774   4.657   9.155  1.9786 -2.1617  0.3147
 3245SOL    HW2 9735   1.786   4.506   9.158 -0.2954 -2.4459 -1.9509
 3246SOL     OW 9736   3.770   0.226   8.375 -0.1721 -0.5700 -0.2913
 3246SOL    HW1 9737   3.818   0.294   8.327 -1.3331  0.1513 -0.4722
 3246SOL    HW2 9738   3.713   0.275   8.435  1.5289 -1.4215  2.2255
 3247SOL     OW 9739   0.245   2.404   5.572 -0.7433 -0.0537  0.2946
 3247SOL    HW1 9740   0.261   2.323   5.622 -0.9576  0.6265  1.5059
 3247SOL    HW2 9741   0.260   2.474   5.635  0.4658  0.9251 -1.0027
 3248SOL     OW 9742   0.891   1.919   7.328 -0.7529 -0.6775  0.3862
 3248SOL    HW1 9743   0.803   1.931   7.364 -0.5431  1.2481  0.3620
 3248SOL    HW2 9744   0.919   1.834   7.360 -3.2097 -2.0555 -0.8848
 3249SOL     OW 9745   1.907   4.515   5.538  0.1625  0.0689 -0.9174
 3249SOL    HW1 9746   1.970   4.502   5.609 -0.8856 -1.4687 -0.2070
 3249SOL    HW2 9747   1.909   4.609   5.521  0.1361  0.5633  1.4537
 3250SOL     OW 9748   0.909   2.756   6.061  0.8704  0.4329  0.3270
 3250SOL    HW1 9749   0.904   2.730   5.969 -1.8110  0.5897  0.3376
 3250SOL    HW2 9750   0.906   2.674   6.110  0.5807  0.4005  0.2607
 3251SOL     OW 9751   1.210   1.146   6.708  0.0903  0.7195 -0.9461
 3251SOL    HW1 9752   1.276   1.118   6.772  0.1403 -1.4005 -1.8494
 3251SOL    HW2 9753   1.200   1.239   6.724  1.6531  0.6636  0.7287
 3252SOL     OW 9754   0.745   4.165   8.429  0.3861  0.1615  0.3799
 3252SOL    HW1 9755   0.816   4.229   8.422  1.0371 -0.3417  2.0708
 3252SOL    HW2 9756   0.788   4.080   8.417 -0.5672 -0.0309 -2.5318
 3253SOL     OW 9757   0.468   2.109   9.380 -0.1233 -0.1978 -0.2064
 3253SOL    HW1 9758   0.559   2.137   9.366 -1.2678  3.1908 -2.0164
 3253SOL    HW2 9759   0.439   2.157   9.457 -0.4984 -1.0078  0.1707
 3254SOL     OW 9760   3.795   0.811   8.993 -0.0414 -0.3270 -0.4584
 3254SOL    HW1 9761   3.852   0.831   9.068 -0.7873  0.7315 -0.1381
 3254SOL    HW2 9762   3.782   0.896   8.951 -0.8398 -0.6709 -0.9097
 3255SOL     OW 9763   4.097   1.375   9.664  0.2579  0.1790  0.0394
 3255SOL    HW1 9764   4.181   1.332   9.685  0.0412 -0.8991 -1.1769
 3255SOL    HW2 9765   4.069   1.414   9.747  1.4687 -0.3152  0.7071
 3256SOL     OW 9766   4.347   0.460   8.588  0.8521  0.0352 -0.4717
 3256SOL    HW1 9767   4.418   0.406   8.622  3.3197  3.1101 -0.2827
 3256SOL    HW2 9768   4.270   0.431   8.636  2.4507 -1.7517  1.1927
 3257SOL     OW 9769   4.707   1.690   5.871 -0.4261 -0.7798 -0.1220
 3257SOL    HW1 9770   4.674   1.739   5.946  1.0736  0.6336 -0.3331
 3257SOL    HW2 9771   4.659   1.607   5.873 -2.2250  0.2335  0.9096
 3258SOL     OW 9772   4.579   4.926  10.002 -0.0890  0.3468  0.6279
 3258SOL    HW1 9773   4.645   4.920  10.071 -1.3093  0.2917  1.8478
 3258SOL    HW2 9774   4.519   4.853  10.021 -1.0442  0.9970  0.1634
 3259SOL     OW 9775   1.476   1.047   7.267  0.5552 -1.0150 -0.4979
 3259SOL    HW1 9776   1.558   1.055   7.218  0.9459  2.4625  0.4458
 3259SOL    HW2 9777   1.490   1.100   7.346 -2.3784 -0.8460  0.0186
 3260SOL     OW 9778   4.677   1.475   8.789  0.1218  0.4626 -0.6571
 3260SOL    HW1 9779   4.718   1.401   8.745  0.3555  0.7670 -0.9550
 3260SOL    HW2 9780   4.585   1.450   8.799  0.1236  0.2875 -1.0865
 3261SOL     OW 9781   1.551   0.153   7.414 -0.7502 -0.1040 -0.5414
 3261SOL    HW1 9782   1.489   0.225   7.428 -2.8194 -1.8185 -0.3269
 3261SOL    HW2 9783   1.526   0.087   7.479  2.6295 -0.1430  0.9140
 3262SOL     OW 9784   2.879   0.486   9.528 -0.2735  0.2609 -0.2487
 3262SOL    HW1 9785   2.794   0.525   9.547  0.0144  0.5404  0.4879
 3262SOL    HW2 9786   2.885   0.488   9.433 -0.0501  2.4694 -0.2271
 3263SOL     OW 9787   0.693   3.209   9.154  0.1080  0.1113  0.3129
 3263SOL    HW1 9788   0.636   3.134   9.168  0.2604  0.2134  1.6498
 3263SOL    HW2 9789   0.757   3.179   9.089 -0.6950 -0.4127 -0.2589
 3264SOL     OW 9790   2.900   2.679   8.775 -0.0147  0.5673  0.1408
 3264SOL    HW1 9791   2.818   2.710   8.812 -1.6852 -0.5747 -2.3525
 3264SOL    HW2 9792   2.949   2.645   8.851 -2.0883  0.6749  1.6130
 3265SOL     OW 9793   0.052   4.071   7.102  0.3247  0.0436 -0.3120
 3265SOL    HW1 9794   0.016   4.103   7.019  0.2549  0.3474 -0.1666
 3265SOL    HW2 9795   0.068   4.151   7.153 -0.6454 -0.1900  0.3854
 3266SOL     OW 9796   3.172   0.822   7.635 -0.5971 -0.1235  0.1813
 3266SOL    HW1 9797   3.147   0.731   7.618  0.8906 -0.4242 -0.5786
 3266SOL    HW2 9798   3.161   0.866   7.551  3.7798 -0.9005 -1.0695
 3267SOL     OW 9799   3.852   1.119   9.729 -0.0046 -0.1169  0.2924
 3267SOL    HW1 9800   3.777   1.095   9.675 -0.4383  1.3534  0.2075
 3267SOL    HW2 9801   3.897   1.036   9.746 -1.3973 -0.9617 -0.0143
 3268SOL     OW 9802   3.942   2.144   9.109  0.2047 -0.1401 -0.4889
 3268SOL    HW1 9803   4.001   2.144   9.184 -2.5616 -2.3707  1.8671
 3268SOL    HW2 9804   3.933   2.237   9.086  2.0025  0.5061  1.1474
 3269SOL     OW 9805   0.335   2.121   6.035 -0.3195  0.1250 -0.5406
 3269SOL    HW1 9806   0.259   2.073   6.069  0.3703 -0.2979  0.4168
 3269SOL    HW2 9807   0.300   2.170   5.960 -1.5222 -0.1266 -0.1645
 3270SOL     OW 9808   3.315   0.092   7.793 -0.6528  0.1785 -0.0267
 3270SOL    HW1 9809   3.395   0.143   7.806  0.6104 -1.8944  0.7347
 3270SOL    HW2 9810   3.256   0.120   7.863  0.3159  0.0356  0.8595
 3271SOL     OW 9811   3.529   2.327   7.356 -1.0390  0.2829  0.2954
 3271SOL    HW1 9812   3.479   2.245   7.358 -1.9792  0.8366 -0.1299
 3271SOL    HW2 9813   3.475   2.390   7.403 -1.3255  1.1847 -1.1652
 3272SOL     OW 9814   4.388   0.243   6.199 -0.2766  0.1313 -0.4877
 3272SOL    HW1 9815   4.316   0.205   6.249  0.2494 -0.4109 -0.1277
 3272SOL    HW2 9816   4.353   0.255   6.111 -1.3507  1.5084  0.0966
 3273SOL     OW 9817   3.440   2.729   8.032  0.3563  0.6647 -0.5015
 3273SOL    HW1 9818   3.425   2.650   7.979 -0.0008  1.2238 -1.2449
 3273SOL    HW2 9819   3.455   2.695   8.120 -1.6018 -0.1643 -0.4273
 3274SOL     OW 9820   2.443   1.051   6.783  0.2425 -0.2322  0.0987
 3274SOL    HW1 9821   2.532   1.081   6.804  0.5443 -1.4264  0.6055
 3274SOL    HW2 9822   2.400   1.044   6.868 -0.4378  0.5805 -0.1635
 3275SOL     OW 9823   4.474   2.457   8.875 -0.1812 -0.5576  0.1038
 3275SOL    HW1 9824   4.410   2.465   8.946  0.4611  0.4225  0.5924
 3275SOL    HW2 9825   4.551   2.504   8.907 -0.4229  1.3318 -1.8796
 3276SOL     OW 9826   1.004   4.077   5.861 -0.0955 -0.4778  0.4891
 3276SOL    HW1 9827   0.930   4.109   5.808 -0.3732 -1.8033  0.0489
 3276SOL    HW2 9828   0.990   4.117   5.947 -0.4582  0.5224 -0.0106
 3277SOL     OW 9829   4.885   0.973   8.004  0.4337  0.0366 -0.0781
 3277SOL    HW1 9830   4.937   1.053   8.007  0.5324 -0.0487  0.6644
 3277SOL    HW2 9831   4.796   1.003   7.983  0.7401  0.1973 -1.1864
 3278SOL     OW 9832   3.756   0.914   7.345  0.2142 -0.0542  0.2394
 3278SOL    HW1 9833   3.670   0.890   7.379  0.4852 -0.6848  0.4991
 3278SOL    HW2 9834   3.804   0.944   7.423  1.0621 -2.1439  0.5812
 3279SOL     OW 9835   2.212   1.671   5.929 -0.6246 -0.0066 -0.3204
 3279SOL    HW1 9836   2.273   1.602   5.901 -0.9837 -0.3807 -0.1971
 3279SOL    HW2 9837   2.267   1.734   5.976 -0.2252 -0.0059 -0.7809
 3280SOL     OW 9838   2.485   3.751   6.912  0.2498  0.3809  0.0168
 3280SOL    HW1 9839   2.485   3.812   6.985 -2.3516  0.7312 -0.1632
 3280SOL    HW2 9840   2.540   3.678   6.940  0.0286  0.9288  1.9623
 3281SOL     OW 9841   3.368   1.188   6.260  0.0420 -0.2486 -0.0780
 3281SOL    HW1 9842   3.354   1.100   6.294 -1.1356 -0.2327 -0.4925
 3281SOL    HW2 9843   3.431   1.228   6.321  2.6877 -2.2050 -1.3115
 3282SOL     OW 9844   2.271   1.702   7.776 -0.5100 -0.1628 -0.9830
 3282SOL    HW1 9845   2.254   1.618   7.734  1.1960 -0.7075 -0.6849
 3282SOL    HW2 9846   2.366   1.714   7.768 -0.3831  0.6069  1.0269
 3283SOL     OW 9847   3.487   1.002   6.681 -0.2919  0.7234  0.3489
 3283SOL    HW1 9848   3.478   0.927   6.622  1.2823  2.6827 -2.6492
 3283SOL    HW2 9849   3.398   1.030   6.700 -0.9625 -2.2456  2.2351
 3284SOL     OW 9850   3.798   0.502   8.513  0.0879 -0.1622  0.3662
 3284SOL    HW1 9851   3.710   0.503   8.476  0.8287  1.8957 -1.5617
 3284SOL    HW2 9852   3.802   0.580   8.568  1.4030  1.2298 -1.5698
 3285SOL     OW 9853   0.397   2.353   8.870  0.6622  0.0540  0.4582
 3285SOL    HW1 9854   0.355   2.419   8.816  0.2773 -1.3904 -1.1045
 3285SOL    HW2 9855   0.479   2.333   8.825  0.5071 -0.9264  0.5811
 3286SOL     OW 9856   3.700   0.473   8.142 -0.4244 -0.3334  0.0535
 3286SOL    HW1 9857   3.662   0.524   8.071  0.7119  0.2154 -0.1745
 3286SOL    HW2 9858   3.649   0.498   8.219 -1.2547 -0.4683 -0.4330
 3287SOL     OW 9859   3.688   2.332   9.086 -0.2291 -0.5403 -0.1159
 3287SOL    HW1 9860   3.703   2.250   9.038  0.4908 -0.3139 -0.3043
 3287SOL    HW2 9861   3.696   2.308   9.178  2.2389 -0.3162 -0.1995
 3288SOL     OW 9862   4.082   0.856   7.079  0.0103 -0.0500 -0.0805
 3288SOL    HW1 9863   4.023   0.813   7.141  0.1772 -1.3013 -0.7553
 3288SOL    HW2 9864   4.162   0.805   7.083  0.9159  1.3597  0.4795
 3289SOL     OW 9865   4.582   1.763   8.610  0.1002  0.0827  0.3021
 3289SOL    HW1 9866   4.514   1.712   8.655  2.0680 -2.0352  1.0804
 3289SOL    HW2 9867   4.605   1.832   8.672 -1.5775  1.0826 -0.1433
 3290SOL     OW 9868   4.433   4.421   6.335  0.4371  0.0560  0.4672
 3290SOL    HW1 9869   4.439   4.508   6.374  0.5795  1.6131 -2.7298
 3290SOL    HW2 9870   4.513   4.412   6.284  1.1962 -2.7069  1.9366
 3291SOL     OW 9871   1.134   0.408  10.085  1.4071 -0.3066  0.8370
 3291SOL    HW1 9872   1.060   0.352  10.063 -0.3488  2.2857 -0.2972
 3291SOL    HW2 9873   1.210   0.365  10.044  0.3756 -2.3576  0.9495
 3292SOL     OW 9874   0.684   0.235   5.011 -0.6078 -0.1277 -0.1847
 3292SOL    HW1 9875   0.666   0.240   5.105  0.9672 -0.4492  0.1658
 3292SOL    HW2 9876   0.769   0.190   5.006 -0.9574 -0.6618 -1.7941
 3293SOL     OW 9877   0.211   1.021   6.774  0.1573  0.1640 -0.6036
 3293SOL    HW1 9878   0.177   0.938   6.740  2.0590 -0.3069 -1.4756
 3293SOL    HW2 9879   0.210   1.079   6.698  2.7164 -0.3474 -1.1047
 3294SOL     OW 9880   2.751   2.807   7.736  0.0485  0.2722 -0.9092
 3294SOL    HW1 9881   2.664   2.798   7.776 -0.0207 -1.7364 -1.4117
 3294SOL    HW2 9882   2.790   2.882   7.781 -1.2677  0.1242  0.5780
 3295SOL     OW 9883   4.119   1.602   8.735  0.1341 -0.5469 -0.2907
 3295SOL    HW1 9884   4.032   1.625   8.769  0.5981  0.7145  0.1031
 3295SOL    HW2 9885   4.169   1.578   8.813  0.0181 -1.7446 -0.5699
 3296SOL     OW 9886   0.505   1.829   9.431  0.4052  0.4207 -0.6758
 3296SOL    HW1 9887   0.499   1.842   9.525 -1.4169  0.3796 -0.7463
 3296SOL    HW2 9888   0.503   1.918   9.394  0.7984  0.4237 -0.6949
 3297SOL     OW 9889   4.904   4.482   8.044 -0.2800 -0.1371  1.1635
 3297SOL    HW1 9890   4.839   4.413   8.027 -1.7903  1.7250 -1.3156
 3297SOL    HW2 9891   4.987   4.444   8.017 -1.5045 -0.0787 -3.5268
 3298SOL     OW 9892   0.743   4.420   7.123 -0.4707 -0.1291 -0.1650
 3298SOL    HW1 9893   0.736   4.464   7.208 -1.2312  0.3928 -0.4853
 3298SOL    HW2 9894   0.694   4.338   7.135 -1.4464  0.4054 -0.3828
 3299SOL     OW 9895   0.577   2.265   8.573 -0.9390 -0.0382  0.4229
 3299SOL    HW1 9896   0.619   2.223   8.648 -0.2475 -4.7496 -2.2185
 3299SOL    HW2 9897   0.628   2.237   8.497 -2.0005  3.8670 -2.0683
 3300SOL     OW 9898   4.535   4.821   7.289  0.0607 -1.0780 -0.2412
 3300SOL    HW1 9899   4.628   4.835   7.306  0.3615 -0.5328 -2.1194
 3300SOL    HW2 9900   4.532   4.751   7.224 -1.0721 -3.8305  2.4993
 3301SOL     OW 9901   3.771   3.643   8.314 -0.3115 -0.3623 -0.0639
 3301SOL    HW1 9902   3.720   3.663   8.236 -1.6325 -0.2894  0.7854
 3301SOL    HW2 9903   3.843   3.589   8.282  2.3112  3.8689 -2.1865
 3302SOL     OW 9904   0.294   0.484   6.579 -0.2326  0.2371 -0.8093
 3302SOL    HW1 9905   0.300   0.415   6.513 -0.7619 -0.3847 -0.2240
 3302SOL    HW2 9906   0.339   0.558   6.540  0.0221 -0.3214 -1.6074
 3303SOL     OW 9907   1.867   2.341   9.490  0.1044 -0.4314 -0.0073
 3303SOL    HW1 9908   1.898   2.432   9.489 -1.4911  0.1410 -1.0630
 3303SOL    HW2 9909   1.827   2.331   9.577 -0.7276  0.2599 -0.2975
 3304SOL     OW 9910   1.228   0.162   7.315 -0.4759  0.3887 -0.3766
 3304SOL    HW1 9911   1.233   0.238   7.256  2.5202  0.7396  0.1743
 3304SOL    HW2 9912   1.251   0.087   7.260  0.6180  0.4879 -0.0873
 3305SOL     OW 9913   0.077   1.376   5.445  0.2017  0.0007 -0.7770
 3305SOL    HW1 9914   0.040   1.302   5.397  1.0097  0.6997 -2.5764
 3305SOL    HW2 9915   0.081   1.447   5.380 -1.5630  2.0071  1.1139
 3306SOL     OW 9916   0.569   4.553   7.366 -0.6121 -0.3899  0.4961
 3306SOL    HW1 9917   0.554   4.647   7.371 -0.0381 -0.3005  0.6417
 3306SOL    HW2 9918   0.659   4.542   7.397 -0.2921 -0.8704 -0.5736
 3307SOL     OW 9919   4.423   0.403  10.077 -0.4839  0.0155  0.3744
 3307SOL    HW1 9920   4.363   0.381  10.006  1.7445  0.0748 -1.6871
 3307SOL    HW2 9921   4.429   0.499  10.074 -1.1924  0.1015  1.3982
 3308SOL     OW 9922   4.194   0.461   7.631  0.2784 -0.3094  0.2692
 3308SOL    HW1 9923   4.183   0.403   7.556  1.9158 -2.6273  1.6932
 3308SOL    HW2 9924   4.111   0.457   7.678  0.2310 -1.2291  0.1277
 3309SOL     OW 9925   3.134   0.574   8.306  0.0700  0.2162 -0.1132
 3309SOL    HW1 9926   3.103   0.643   8.247  0.0455  0.8951  0.6694
 3309SOL    HW2 9927   3.128   0.613   8.393  0.2728 -0.7067  0.3229
 3310SOL     OW 9928   1.097   3.157   8.460 -0.7752 -0.4016  1.1299
 3310SOL    HW1 9929   1.114   3.167   8.366  2.9280 -0.7301  1.6176
 3310SOL    HW2 9930   1.049   3.075   8.466 -1.9852  0.1268 -0.5135
 3311SOL     OW 9931   3.054   2.475   6.312 -0.2299 -0.1496  0.6000
 3311SOL    HW1 9932   3.001   2.403   6.278  1.1111 -0.3239 -1.2681
 3311SOL    HW2 9933   3.022   2.553   6.265 -1.5821  0.5197  2.5059
 3312SOL     OW 9934   2.407   3.167   9.035  0.0866 -0.1694 -0.4172
 3312SOL    HW1 9935   2.462   3.237   9.001 -1.4019  1.0588 -0.3714
 3312SOL    HW2 9936   2.381   3.117   8.957  1.4114 -0.9145 -0.4153
 3313SOL     OW 9937   4.758   1.265   9.330  0.3330 -0.2386  0.1018
 3313SOL    HW1 9938   4.716   1.185   9.300  0.3671 -0.6432  1.0912
 3313SOL    HW2 9939   4.710   1.290   9.409  1.8779 -0.6993  1.2422
 3314SOL     OW 9940   4.315   0.257   4.962  0.3387 -0.0981  0.2441
 3314SOL    HW1 9941   4.238   0.251   4.906 -0.1983 -1.2273  1.0479
 3314SOL    HW2 9942   4.354   0.170   4.959  3.0871  1.0373 -2.1012
 3315SOL     OW 9943   3.917   0.719   8.173 -0.0007  0.7586  0.1008
 3315SOL    HW1 9944   4.002   0.726   8.128 -0.1253 -0.5244 -0.3536
 3315SOL    HW2 9945   3.936   0.669   8.252 -0.2723  0.7541  0.1634
 3316SOL     OW 9946   2.983   0.424   9.772  0.2636 -0.1841 -0.5621
 3316SOL    HW1 9947   2.980   0.457   9.682  1.0030 -2.9208 -1.7150
 3316SOL    HW2 9948   3.067   0.454   9.806  0.0192  0.7889 -0.7951
 3317SOL     OW 9949   3.890   2.739   6.574  0.2568 -0.3527 -0.3945
 3317SOL    HW1 9950   3.835   2.794   6.630  0.7264 -0.3524  0.0698
 3317SOL    HW2 9951   3.840   2.658   6.563 -0.3775  0.1047 -0.9708
 3318SOL     OW 9952   4.455   1.121   8.271 -0.0561 -0.0229  0.3492
 3318SOL    HW1 9953   4.402   1.043   8.251  0.2262  0.1068 -0.9718
 3318SOL    HW2 9954   4.408   1.163   8.344 -0.4586 -1.1754  0.7899
 3319SOL     OW 9955   0.686   2.534   7.506  0.2755  0.4257 -0.2362
 3319SOL    HW1 9956   0.695   2.495   7.592  1.7642  0.6422 -0.2546
 3319SOL    HW2 9957   0.710   2.626   7.519 -1.5783  0.9752 -0.4922
 3320SOL     OW 9958   1.539   3.402   9.244  0.2634 -0.0434 -0.4286
 3320SOL    HW1 9959   1.481   3.475   9.266  1.9014  1.4050 -0.7063
 3320SOL    HW2 9960   1.585   3.431   9.165  0.7673 -1.5038 -0.6927
 3321SOL     OW 9961   0.106   1.727   8.590 -0.1316  0.0992 -0.0852
 3321SOL    HW1 9962   0.102   1.642   8.634  0.1141 -0.8616 -1.8286
 3321SOL    HW2 9963   0.059   1.714   8.507 -1.0676  1.9879  0.0840
 3322SOL     OW 9964   2.631   1.050   7.413  0.5456  0.6796  0.3721
 3322SOL    HW1 9965   2.632   0.981   7.479 -2.2048  1.1763  1.0261
 3322SOL    HW2 9966   2.645   1.004   7.330  1.5494 -0.2589  1.0253
 3323SOL     OW 9967   0.648   2.665   4.852  0.7245 -0.4400 -0.7570
 3323SOL    HW1 9968   0.709   2.737   4.842  0.7804 -0.1955  1.0306
 3323SOL    HW2 9969   0.567   2.696   4.812  0.3123  1.2420  1.2233
 3324SOL     OW 9970   3.244   2.538   8.964  0.1066 -0.3240  0.5315
 3324SOL    HW1 9971   3.260   2.484   8.886 -1.5262  0.7717 -0.6193
 3324SOL    HW2 9972   3.150   2.529   8.980 -0.1213  1.7716  0.6043
 3325SOL     OW 9973   0.040   1.734   7.572  0.1699  0.6669  0.1410
 3325SOL    HW1 9974  -0.049   1.707   7.549 -0.0289  0.5698  1.0049
 3325SOL    HW2 9975   0.096   1.670   7.528 -0.1959  0.4863 -0.0708
 3326SOL     OW 9976   0.377   3.343   7.409 -0.2458  0.2424  0.1520
 3326SOL    HW1 9977   0.306   3.388   7.363  0.5926  0.5222 -0.9140
 3326SOL    HW2 9978   0.456   3.393   7.387  0.5098 -0.9441  0.0594
 3327SOL     OW 9979   3.877   0.684   4.673 -0.4086  0.2501 -0.5352
 3327SOL    HW1 9980   3.877   0.661   4.580 -0.7717 -1.2852 -0.1890
 3327SOL    HW2 9981   3.833   0.769   4.677 -1.9751 -0.4531 -1.6190
 3328SOL     OW 9982   2.790   2.204   8.810  0.2865 -0.3262  0.3601
 3328SOL    HW1 9983   2.778   2.215   8.715 -0.1299  1.5076  0.6004
 3328SOL    HW2 9984   2.705   2.172   8.841  0.0798  0.1224  0.2636
 3329SOL     OW 9985   4.043   1.549   8.369  0.6675  0.1338 -0.0761
 3329SOL    HW1 9986   4.110   1.500   8.417  1.0498  0.6609 -0.0673
 3329SOL    HW2 9987   4.071   1.640   8.375  0.0682  0.3350 -0.2685
 3330SOL     OW 9988   3.460   0.821   8.403 -0.8271  0.7057  0.1671
 3330SOL    HW1 9989   3.475   0.807   8.496 -0.2283 -2.0129 -0.2676
 3330SOL    HW2 9990   3.544   0.854   8.370 -0.1756 -0.8761  0.1758
 3331SOL     OW 9991   3.615   0.015  10.003 -0.2126 -0.1631 -0.4971
 3331SOL    HW1 9992   3.630   0.082   9.935 -0.1264 -0.1030 -0.4190
 3331SOL    HW2 9993   3.697   0.012  10.051 -1.0009  1.4458  1.0643
 3332SOL     OW 9994   4.798   2.057   9.512  0.5941  0.3293  0.0094
 3332SOL    HW1 9995   4.834   2.057   9.423  0.6719 -0.1341  0.0379
 3332SOL    HW2 9996   4.863   2.012   9.565  0.3319  0.1815  0.2120
 3333SOL     OW 9997   5.026   2.679   7.841 -0.8019 -0.3184 -0.2894
 3333SOL    HW1 9998   4.985   2.713   7.920  0.7508 -0.2882  0.5267
 3333SOL    HW2 9999   4.955   2.633   7.795 -2.0208  0.7591  0.4582
 3334SOL     OW10000   0.324   0.581   9.353 -0.5291  0.1685  0.5641
 3334SOL    HW110001   0.396   0.522   9.373  0.4055  1.7091  1.9333
 3334SOL    HW210002   0.307   0.568   9.259  0.5010 -1.3079  0.5608
 3335SOL     OW10003   4.480   1.505   9.265  0.1090  0.5601  0.0368
 3335SOL    HW110004   4.558   1.542   9.225  1.4754 -0.7813  1.3405
 3335SOL    HW210005   4.408   1.560   9.232  1.6515  2.3254 -0.5688
 3336SOL     OW10006   3.159   1.506   9.245 -0.3528  0.0397  0.0074
 3336SOL    HW110007   3.116   1.430   9.283 -0.1724  0.3499  0.8444
 3336SOL    HW210008   3.242   1.513   9.293  0.9396 -0.8837 -1.9250
 3337SOL     OW10009   4.147   2.865   8.666  0.4620  0.3864 -0.6219
 3337SOL    HW110010   4.128   2.798   8.731  1.9994  0.8213  0.3160
 3337SOL    HW210011   4.062   2.906   8.648  0.0881  0.7278  1.6332
 3338SOL     OW10012   3.125   2.828   7.074 -0.3468  0.8325 -0.2150
 3338SOL    HW110013   3.069   2.816   7.150 -0.5111  2.8796  0.0546
 3338SOL    HW210014   3.086   2.773   7.006 -0.6478 -0.4116  0.9209
 3339SOL     OW10015   3.158   3.088   8.293  0.2419  0.0581 -0.3578
 3339SOL    HW110016   3.181   3.176   8.323 -0.5813  0.3884 -0.6577
 3339SOL    HW210017   3.063   3.091   8.281  0.4108 -0.3510 -2.0824
 3340SOL     OW10018   1.034   2.509   9.158 -0.1613 -0.6431  0.4959
 3340SOL    HW110019   1.037   2.420   9.124 -4.1116 -0.8152  0.1596
 3340SOL    HW210020   1.056   2.500   9.251 -0.8544 -2.0372  0.5512
 3341SOL     OW10021   3.696   2.382   8.062  0.1805 -0.0484  0.5762
 3341SOL    HW110022   3.789   2.376   8.043  0.3240  0.1551  1.2036
 3341SOL    HW210023   3.691   2.404   8.155 -0.4800  0.9315  0.3287
 3342SOL     OW10024   4.309   2.303   9.158 -0.0024 -0.2198 -1.0007
 3342SOL    HW110025   4.339   2.391   9.180 -0.1972 -0.3403 -0.2195
 3342SOL    HW210026   4.388   2.249   9.162 -0.0320 -0.2362 -0.6022
 3343SOL     OW10027   2.738   2.638   6.736 -0.1238  1.0958 -0.3005
 3343SOL    HW110028   2.697   2.572   6.792  0.9232  0.5099 -0.2054
 3343SOL    HW210029   2.825   2.604   6.718 -1.0260  0.3155 -3.8989
 3344SOL     OW10030   2.457   0.438   7.600 -0.4056  0.2823  0.1790
 3344SOL    HW110031   2.384   0.376   7.600 -0.6825  0.6023  0.0261
 3344SOL    HW210032   2.466   0.466   7.691  1.6981 -2.2592  0.8485
 3345SOL     OW10033   4.403   0.983   7.938 -0.4290 -0.7439 -0.0217
 3345SOL    HW110034   4.446   0.904   7.905 -0.3221 -0.2087 -1.2093
 3345SOL    HW210035   4.395   0.968   8.032  0.2409 -1.8556 -0.1225
 3346SOL     OW10036   3.127   1.409   8.262 -0.3379  0.8145  0.4029
 3346SOL    HW110037   3.133   1.336   8.200 -1.7385  1.8519 -1.0629
 3346SOL    HW210038   3.085   1.371   8.339 -2.2793  0.2733 -0.8224
 3347SOL     OW10039   0.316   0.567   7.946  0.0607  0.0454  0.1513
 3347SOL    HW110040   0.377   0.615   8.002  0.7358 -1.9673  1.2490
 3347SOL    HW210041   0.255   0.633   7.914  1.7001  1.8187  0.5231
 3348SOL     OW10042   1.799   0.808  10.324 -0.4622 -0.6420  1.2439
 3348SOL    HW110043   1.717   0.759  10.331 -0.4867 -0.5512  1.5976
 3348SOL    HW210044   1.772   0.900  10.334 -0.6874 -0.3540 -1.2362
 3349SOL     OW10045   1.756   4.771   9.818  0.0250 -0.0475  0.4377
 3349SOL    HW110046   1.735   4.702   9.881 -0.2867  0.9577  1.4676
 3349SOL    HW210047   1.740   4.853   9.866 -3.1353  0.8367 -1.8646
 3350SOL     OW10048   4.133   4.752   9.947 -0.2157  0.2344  0.1099
 3350SOL    HW110049   4.117   4.674   9.894  0.9639 -0.6446  0.9978
 3350SOL    HW210050   4.077   4.820   9.909  0.8304 -0.2539 -2.4604
 3351SOL     OW10051   2.801   0.833   9.886 -0.9528 -0.3993  0.2942
 3351SOL    HW110052   2.719   0.789   9.907 -0.9820  0.0655  1.2285
 3351SOL    HW210053   2.782   0.885   9.808 -1.3374 -0.8762  0.0711
 3352SOL     OW10054   3.634   2.597   7.700  0.1865 -0.1716 -1.3553
 3352SOL    HW110055   3.675   2.539   7.636  0.8561  0.2678 -1.3410
 3352SOL    HW210056   3.594   2.666   7.647  0.3076 -0.0776 -1.3246
 3353SOL     OW10057   2.355   0.832   7.895 -0.6194 -0.7537  0.0506
 3353SOL    HW110058   2.441   0.790   7.902  0.5479  1.2793 -1.2024
 3353SOL    HW210059   2.337   0.834   7.801 -0.9878  0.8174  0.1339
 3354SOL     OW10060   4.075   0.140   9.074  0.8799  0.2208  0.1160
 3354SOL    HW110061   4.065   0.173   8.985  1.1440  1.3632  0.4963
 3354SOL    HW210062   4.135   0.066   9.065 -0.5190 -0.8398 -0.8908
 3355SOL     OW10063   3.848   3.456   7.924  0.2808 -0.4954  0.2837
 3355SOL    HW110064   3.787   3.501   7.865 -1.7592 -2.6714  0.5449
 3355SOL    HW210065   3.915   3.420   7.866 -1.3651 -2.1045 -0.7684
 3356SOL     OW10066   1.684   2.957   7.512  0.3874  0.2573 -0.3351
 3356SOL    HW110067   1.607   2.910   7.544  0.9862 -0.4940  0.0500
 3356SOL    HW210068   1.695   3.030   7.572 -0.3739  0.7313 -0.7537
 3357SOL     OW10069   4.544   4.430   7.248  0.0731 -0.0423 -0.1166
 3357SOL    HW110070   4.581   4.491   7.185  1.4284  0.6687  1.3054
 3357SOL    HW210071   4.487   4.483   7.304  0.4280 -0.2731  0.4763
 3358SOL     OW10072   4.619   1.145   9.912 -0.4077  0.1004  0.0268
 3358SOL    HW110073   4.662   1.160   9.828 -1.3439  0.4454 -0.4008
 3358SOL    HW210074   4.681   1.179   9.977 -1.4738  3.9840 -0.7602
 3359SOL     OW10075   4.244   1.196   8.658 -0.0643 -0.1081  0.0213
 3359SOL    HW110076   4.333   1.218   8.630  0.0047 -0.9955 -0.5010
 3359SOL    HW210077   4.234   1.241   8.742  0.7534  0.2794 -0.0727
 3360SOL     OW10078   1.632   0.638   8.392  0.2711  0.0786 -0.7086
 3360SOL    HW110079   1.641   0.714   8.450  1.0070 -1.4199  1.2690
 3360SOL    HW210080   1.712   0.639   8.338  1.6336 -0.7023  1.1788
 3361SOL     OW10081   1.317   4.292   9.245 -0.5203  0.7424 -0.0477
 3361SOL    HW110082   1.332   4.223   9.310 -0.8137  0.1338 -0.6142
 3361SOL    HW210083   1.286   4.366   9.296  0.6965  0.7696  0.6893
 3362SOL     OW10084   1.287   2.206   9.485 -0.0740  0.7340  0.1022
 3362SOL    HW110085   1.315   2.289   9.523 -0.8157  1.1077 -0.1422
 3362SOL    HW210086   1.270   2.149   9.560 -0.4550  1.1081  0.2991
 3363SOL     OW10087   4.716  -0.020   8.832 -0.1233 -0.6120 -1.0616
 3363SOL    HW110088   4.676   0.043   8.892 -2.1153  0.2471 -3.1392
 3363SOL    HW210089   4.770   0.034   8.773  0.6922 -1.2610 -0.9280
 3364SOL     OW10090   0.557   1.261   8.351  0.0976  0.2483 -0.2509
 3364SOL    HW110091   0.543   1.221   8.437 -0.1862  0.1664 -0.3355
 3364SOL    HW210092   0.572   1.353   8.369 -2.0537  0.6523 -0.2620
 3365SOL     OW10093   0.465   0.755   8.462  0.1877 -0.9184 -0.9075
 3365SOL    HW110094   0.552   0.793   8.476 -0.2016  0.6085 -2.2860
 3365SOL    HW210095   0.482   0.662   8.447  1.5601 -0.6927 -0.9204
 3366SOL     OW10096   1.016   3.898   9.605  0.3255 -0.5455 -0.2518
 3366SOL    HW110097   1.040   3.812   9.572  0.6666  0.6379 -3.4462
 3366SOL    HW210098   0.921   3.902   9.596  0.3296 -0.5456 -0.2979
 3367SOL     OW10099   2.082   4.162  10.272 -0.4860  0.3163 -0.5310
 3367SOL    HW110100   2.119   4.234  10.222 -0.4872  3.0565  3.0145
 3367SOL    HW210101   2.156   4.104  10.290  0.5220  1.7488  0.1305
 3368SOL     OW10102   0.833   2.072   9.305 -0.4604  0.1336 -0.4070
 3368SOL    HW110103   0.802   1.982   9.312 -0.8973  0.2501 -0.8170
 3368SOL    HW210104   0.922   2.069   9.340  0.2630 -0.8673 -2.1739
 3369SOL     OW10105   4.635   2.909   9.427  0.3278 -0.8022 -0.2170
 3369SOL    HW110106   4.657   3.002   9.421 -2.8243  0.1054  0.3398
 3369SOL    HW210107   4.628   2.880   9.336  2.1243 -0.7395 -0.3921
 3370SOL     OW10108   3.029   4.894   9.228 -0.4533 -0.0487 -0.3290
 3370SOL    HW110109   2.945   4.850   9.215 -2.0210  1.5618  3.0956
 3370SOL    HW210110   3.012   4.985   9.203  0.7808 -0.0049 -1.0822
 3371SOL     OW10111   0.669   1.029   9.149  0.1675 -0.1796 -0.5958
 3371SOL    HW110112   0.589   0.978   9.139 -1.0671  1.7371 -0.9807
 3371SOL    HW210113   0.705   1.035   9.060  0.3955 -0.4925 -0.5268
 3372SOL     OW10114   0.234   4.202   8.256 -0.3366  0.0617 -0.1591
 3372SOL    HW110115   0.164   4.148   8.219 -1.4419  1.4069 -0.1229
 3372SOL    HW210116   0.308   4.190   8.196 -0.0746 -2.5052  0.5832
 3373SOL     OW10117   0.438   1.687  10.206 -0.3483  0.3491 -0.5231
 3373SOL    HW110118   0.394   1.771  10.198 -3.2672 -0.9989  0.0490
 3373SOL    HW210119   0.482   1.691  10.291 -1.9408  0.7292  0.3275
 3374SOL     OW10120   0.305   0.216   9.548  0.0016 -0.6332  0.1125
 3374SOL    HW110121   0.234   0.159   9.579 -0.7437 -1.1499 -2.2754
 3374SOL    HW210122   0.288   0.224   9.454  2.9492 -0.4968 -0.4796
 3375SOL     OW10123   0.854   4.000   8.688  0.2697  0.1638 -0.0438
 3375SOL    HW110124   0.841   3.948   8.609 -2.3666 -1.3186  1.2213
 3375SOL    HW210125   0.898   3.941   8.749  1.8990  1.1544 -0.2190
 3376SOL     OW10126   4.211   2.244   8.335  0.1992  0.0057  0.1209
 3376SOL    HW110127   4.217   2.173   8.272 -1.1780 -2.1373  2.2119
 3376SOL    HW210128   4.301   2.259   8.363  0.6881  0.2533 -1.5250
 3377SOL     OW10129   0.755   1.641   6.228 -0.4880 -0.2646  0.5143
 3377SOL    HW110130   0.754   1.549   6.202 -1.0190 -1.4597  4.2152
 3377SOL    HW210131   0.839   1.653   6.274  0.2987  1.6199 -1.2246
 3378SOL     OW10132   4.193   2.584   9.763  0.5897  0.0924  0.2108
 3378SOL    HW110133   4.153   2.666   9.791 -0.1281 -0.3004  0.3434
 3378SOL    HW210134   4.287   2.597   9.778  0.5128  0.9854 -0.0267
 3379SOL     OW10135   3.597   2.761   9.415 -0.2521 -0.6314  0.1156
 3379SOL    HW110136   3.589   2.809   9.498  1.4307 -0.0051 -0.0481
 3379SOL    HW210137   3.528   2.695   9.419 -0.0559 -0.7850  2.1495
 3380SOL     OW10138   4.396   2.550   7.671  0.1968 -0.1526 -0.1812
 3380SOL    HW110139   4.301   2.545   7.674  0.2294 -1.8734 -0.8622
 3380SOL    HW210140   4.416   2.643   7.660 -1.3370  0.4080  1.3488
 3381SOL     OW10141   2.240   4.825   9.826 -0.3878  0.4727  0.2516
 3381SOL    HW110142   2.311   4.791   9.772  1.4705  1.9573  1.6097
 3381SOL    HW210143   2.211   4.749   9.877  1.4910  0.1666  0.9602
 3382SOL     OW10144   0.088   0.729   9.460 -0.5855 -0.5549  0.6806
 3382SOL    HW110145   0.080   0.716   9.554 -1.9030 -0.0780  0.6650
 3382SOL    HW210146   0.158   0.670   9.433  0.7050  0.2549  2.1381
 3383SOL     OW10147   4.510   4.703   9.826  0.6213  0.3583  0.2733
 3383SOL    HW110148   4.566   4.652   9.884 -1.4246 -0.0720  1.9686
 3383SOL    HW210149   4.423   4.697   9.865 -0.7758  0.4641 -2.5973
 3384SOL     OW10150   0.221   4.095   9.212  0.4669  0.3208  0.2684
 3384SOL    HW110151   0.307   4.076   9.247  0.5417  0.3049  0.0765
 3384SOL    HW210152   0.202   4.184   9.242  1.5968  1.2983 -1.6911
 3385SOL     OW10153   4.026   1.684   9.305 -1.4769 -0.1417 -0.4207
 3385SOL    HW110154   4.071   1.757   9.348 -0.2955 -0.6934 -0.6911
 3385SOL    HW210155   3.983   1.638   9.377  1.8572 -2.0482  0.5630
 3386SOL     OW10156   2.118   3.051   7.886  0.3807 -0.3662  0.0313
 3386SOL    HW110157   2.163   3.117   7.834 -0.2736 -1.1910 -1.6444
 3386SOL    HW210158   2.162   2.969   7.864 -1.0248 -0.9777 -0.5883
 3387SOL     OW10159   0.482   2.050  10.031  0.1234 -0.0365 -0.0593
 3387SOL    HW110160   0.497   2.054  10.125  1.9372 -1.2092 -0.2474
 3387SOL    HW210161   0.401   2.099  10.017  0.2000  0.7606  2.0092
 3388SOL     OW10162   3.733   3.987   8.211  0.2665  0.9265 -0.4180
 3388SOL    HW110163   3.696   3.942   8.286 -1.0946  0.2868 -1.4379
 3388SOL    HW210164   3.659   4.006   8.154  1.2162  1.6713 -1.4705
 3389SOL     OW10165   0.316   0.645   6.908 -0.0949  0.4851  0.2538
 3389SOL    HW110166   0.355   0.695   6.836  1.6161  1.4251  1.7532
 3389SOL    HW210167   0.226   0.629   6.880 -0.2147  2.9634 -1.0203
 3390SOL     OW10168   2.385   1.430   8.783 -0.2641 -0.0206  0.3689
 3390SOL    HW110169   2.396   1.477   8.866  3.9721 -0.5180  0.2846
 3390SOL    HW210170   2.432   1.348   8.796 -0.9708 -0.8733 -2.0020
 3391SOL     OW10171   1.962   2.775   8.162 -0.0938 -0.3994  0.3801
 3391SOL    HW110172   1.874   2.788   8.126  0.8907 -0.0988 -2.0361
 3391SOL    HW210173   2.008   2.722   8.097  1.5879 -0.4224  1.5191
 3392SOL     OW10174   0.259   2.979   8.154  0.0784  0.0055 -0.0562
 3392SOL    HW110175   0.274   2.938   8.240 -2.2956 -0.2891  0.2928
 3392SOL    HW210176   0.291   3.068   8.164  2.0548 -0.6996  0.3250
 3393SOL     OW10177   3.519   2.981   9.005  0.1061 -0.4291  0.5835
 3393SOL    HW110178   3.560   3.064   8.982  0.3582 -0.9724 -1.1083
 3393SOL    HW210179   3.549   2.963   9.094  0.3468  1.0907  0.8393
 3394SOL     OW10180   3.466   4.916   7.424  0.5295 -0.4496  0.3470
 3394SOL    HW110181   3.415   4.950   7.350  0.1442 -1.9657 -0.1177
 3394SOL    HW210182   3.439   4.970   7.499  0.0211  0.3103 -0.3691
 3395SOL     OW10183   2.478   1.638   9.746  0.5685  0.6247  0.4821
 3395SOL    HW110184   2.535   1.614   9.819  1.7668  0.8645 -0.3600
 3395SOL    HW210185   2.534   1.684   9.685 -1.0572  3.1365  0.7376
 3396SOL     OW10186   1.001   3.595   9.558 -0.5190 -0.2819 -0.0680
 3396SOL    HW110187   0.991   3.549   9.642 -0.6659  0.1710  0.1678
 3396SOL    HW210188   1.014   3.526   9.494 -0.9925 -0.6653  0.2462
 3397SOL     OW10189   2.027   0.380   9.362  0.0921  0.2469 -0.0777
 3397SOL    HW110190   1.995   0.391   9.273  0.2152  0.9200 -0.0426
 3397SOL    HW210191   2.015   0.466   9.403  0.2808  0.0159  0.4727
 3398SOL     OW10192   4.137   0.718   9.192  0.0688 -0.0466 -0.0370
 3398SOL    HW110193   4.079   0.731   9.267 -1.0777  1.6459 -1.1394
 3398SOL    HW210194   4.091   0.655   9.137  0.5696 -0.7402  0.3250
 3399SOL     OW10195   4.157   4.845   8.796 -0.4557  0.6222 -0.0076
 3399SOL    HW110196   4.090   4.816   8.734  0.7125  1.1037 -1.5715
 3399SOL    HW210197   4.229   4.781   8.785  0.1948  1.3298  0.0537
 3400SOL     OW10198   3.831   0.824  10.032  0.0496 -0.1235  0.4262
 3400SOL    HW110199   3.756   0.883  10.036 -0.4240 -0.6928 -0.0473
 3400SOL    HW210200   3.798   0.741  10.064  0.1839 -0.6711 -0.8053
 3401SOL     OW10201   3.736   2.125   7.431  0.1179 -0.8796 -0.1409
 3401SOL    HW110202   3.680   2.129   7.354 -0.3039  0.2700  0.2033
 3401SOL    HW210203   3.684   2.080   7.497  0.1116 -0.9989 -0.2267
 3402SOL     OW10204   4.070   2.188   9.350 -0.4322 -0.4168 -0.2171
 3402SOL    HW110205   4.124   2.239   9.290 -0.9635 -0.8617 -1.1067
 3402SOL    HW210206   4.014   2.253   9.393 -0.3889 -0.1361 -0.5762
 3403SOL     OW10207   1.281   3.602   7.327  0.2014  0.3651 -0.1861
 3403SOL    HW110208   1.192   3.596   7.293  0.3394  2.0027 -0.9309
 3403SOL    HW210209   1.324   3.522   7.295 -1.0960 -0.6679  0.5623
 3404SOL     OW10210   3.262   3.658   8.662  0.6327  0.5628  0.5071
 3404SOL    HW110211   3.298   3.742   8.690  0.1560  0.8204  0.3641
 3404SOL    HW210212   3.337   3.600   8.657  0.9408  0.9300  0.7995
 3405SOL     OW10213   3.016   0.279   7.230 -0.4077 -0.1775  0.6191
 3405SOL    HW110214   3.103   0.274   7.269  1.5172 -1.5902 -3.3654
 3405SOL    HW210215   3.004   0.371   7.208 -0.0531  0.0505  1.3522
 3406SOL     OW10216   2.693   3.053   8.429 -0.7066  1.0489 -0.2836
 3406SOL    HW110217   2.619   2.996   8.409 -0.3170  0.0101  1.0407
 3406SOL    HW210218   2.662   3.107   8.502 -0.8845  2.1683 -1.1676
 3407SOL     OW10219   3.723   0.001   8.245  0.5879  0.3071  0.3539
 3407SOL    HW110220   3.778   0.006   8.167 -1.4629  1.9874 -1.1245
 3407SOL    HW210221   3.732   0.087   8.286  0.6222 -0.1065  1.2384
 3408SOL     OW10222   3.780   2.504   8.597  0.2523  0.6251 -0.1748
 3408SOL    HW110223   3.819   2.457   8.523  0.4314  2.6050 -1.4005
 3408SOL    HW210224   3.838   2.486   8.671  0.3758 -0.9286 -0.6244
 3409SOL     OW10225   0.339   1.348   8.197  0.7049  0.2931  0.6923
 3409SOL    HW110226   0.258   1.345   8.248 -0.1624 -1.6978 -0.6715
 3409SOL    HW210227   0.406   1.311   8.254 -0.1798 -1.6062  0.5678
 3410SOL     OW10228   3.247   1.886   8.724 -0.3595  0.4429 -0.2843
 3410SOL    HW110229   3.209   1.868   8.810 -1.5683  2.6285 -0.2805
 3410SOL    HW210230   3.176   1.928   8.675  1.1371  1.8264 -1.3626
 3411SOL     OW10231   2.259   0.836   7.032  0.4523  0.0774 -0.2751
 3411SOL    HW110232   2.333   0.789   7.070  1.4020  0.5086 -1.5462
 3411SOL    HW210233   2.270   0.926   7.061 -0.0720 -0.0161  0.2398
 3412SOL     OW10234   1.326   4.894   6.661 -0.0791 -0.2064  0.5312
 3412SOL    HW110235   1.352   4.969   6.608  0.0540  0.1972  1.1654
 3412SOL    HW210236   1.245   4.920   6.704 -1.1673 -1.1808 -0.8288
 3413SOL     OW10237   0.380   4.209   7.710 -0.2278  0.4245 -0.0411
 3413SOL    HW110238   0.310   4.145   7.695  0.2479 -0.2478  0.5100
 3413SOL    HW210239   0.339   4.294   7.697 -2.2356  0.3165  4.0258
 3414SOL     OW10240   0.116   3.080   9.746  0.3943  0.0155 -0.0499
 3414SOL    HW110241   0.075   3.065   9.661  0.7473 -1.0093 -0.0640
 3414SOL    HW210242   0.118   2.993   9.787  1.6501  0.2099  0.3502
 3415SOL     OW10243   4.657   0.662   9.597 -0.4524  0.4417  0.3869
 3415SOL    HW110244   4.720   0.691   9.530 -0.1422 -1.1788 -0.0513
 3415SOL    HW210245   4.574   0.656   9.550 -0.3014 -0.3822  0.2231
 3416SOL     OW10246   0.311   1.367   9.022 -0.3505  0.3630 -0.5032
 3416SOL    HW110247   0.241   1.433   9.018 -1.2078 -0.5689 -1.2242
 3416SOL    HW210248   0.367   1.386   8.947 -0.8873 -0.0346 -1.0114
 3417SOL     OW10249   0.732   1.349   6.928  0.3980  0.3117 -0.3753
 3417SOL    HW110250   0.725   1.445   6.922 -0.1390  0.2444 -0.9515
 3417SOL    HW210251   0.642   1.318   6.916  0.5810 -0.2718 -0.2574
 3418SOL     OW10252   5.005   2.156   9.957  0.1915  0.2907 -0.3626
 3418SOL    HW110253   5.009   2.060   9.959 -0.5053  0.2142 -1.6879
 3418SOL    HW210254   4.913   2.176   9.974  0.4482  0.7686  0.5256
 3419SOL     OW10255   3.346   2.620   8.334  0.0106  0.3901  0.6552
 3419SOL    HW110256   3.271   2.629   8.392 -0.9933 -0.8122 -0.3975
 3419SOL    HW210257   3.342   2.530   8.303  1.8669  0.3116  0.5133
 3420SOL     OW10258   1.101   4.932   9.276 -0.0330  0.3984 -0.1562
 3420SOL    HW110259   1.195   4.922   9.286 -0.3228  0.1596  3.2618
 3420SOL    HW210260   1.078   5.005   9.333 -1.9607  0.4115 -0.8606
 3421SOL     OW10261   2.702   2.474   7.824 -0.0658 -0.0869  0.1306
 3421SOL    HW110262   2.655   2.537   7.770  1.5589 -0.0722 -1.3601
 3421SOL    HW210263   2.646   2.396   7.825 -2.4886  1.5201  2.6609
 3422SOL     OW10264   4.528   1.626  10.008  0.5387 -0.8498 -0.6229
 3422SOL    HW110265   4.603   1.611   9.951 -0.3720 -1.2581 -1.7558
 3422SOL    HW210266   4.498   1.714   9.987  0.5312 -0.7987 -0.3956
 3423SOL     OW10267   4.078   2.710   8.874 -0.8254  0.3712 -0.0880
 3423SOL    HW110268   4.049   2.619   8.865  2.1416 -0.7064  0.0532
 3423SOL    HW210269   4.000   2.757   8.902 -2.7350 -1.9112 -1.1977
 3424SOL     OW10270   4.866   3.621   7.543  0.6117 -0.0528  0.0991
 3424SOL    HW110271   4.789   3.648   7.593 -0.5056  0.9334 -1.9919
 3424SOL    HW210272   4.840   3.633   7.452  2.6313 -1.4899 -0.7364
 3425SOL     OW10273   0.137   1.311   4.875 -0.7851  0.5081  0.0187
 3425SOL    HW110274   0.217   1.351   4.840 -0.8737  0.8092  0.1589
 3425SOL    HW210275   0.154   1.301   4.969  0.0214 -1.6203 -0.2875
 3426SOL     OW10276   0.924   0.601   5.960 -0.8074 -0.0281 -0.4264
 3426SOL    HW110277   0.917   0.609   5.865 -0.7030  3.7682 -0.2577
 3426SOL    HW210278   1.016   0.620   5.978 -0.6306 -1.5236  0.4635
 3427SOL     OW10279   2.618   0.572   6.468 -0.3429 -0.2207  0.3379
 3427SOL    HW110280   2.609   0.631   6.543  0.6823 -0.8463  0.9761
 3427SOL    HW210281   2.710   0.582   6.441 -0.1022 -1.6273  0.5643
 3428SOL     OW10282   0.659   0.898   5.855 -0.4022  0.1054  0.4545
 3428SOL    HW110283   0.613   0.966   5.805  0.0596  1.1981  1.4636
 3428SOL    HW210284   0.626   0.908   5.945  0.5798 -0.1781  0.8580
 3429SOL     OW10285   3.696   0.298   8.809 -0.5948  0.2520 -0.1519
 3429SOL    HW110286   3.705   0.203   8.817 -1.1758  0.2130  0.0920
 3429SOL    HW210287   3.749   0.334   8.880 -0.6505  0.0971 -0.0318
 3430SOL     OW10288   2.890   4.744   7.604 -0.5646 -0.3002 -0.6066
 3430SOL    HW110289   2.814   4.716   7.654 -0.5439 -0.7030 -0.8011
 3430SOL    HW210290   2.964   4.735   7.663 -0.9100  2.1347  0.3398
 3431SOL     OW10291   1.005   0.292   7.782 -0.1141 -0.4070  0.3191
 3431SOL    HW110292   1.011   0.198   7.796  1.3752 -0.4974 -0.7283
 3431SOL    HW210293   1.054   0.330   7.855  0.1033 -0.4965  0.2211
 3432SOL     OW10294   3.872   1.914   5.863  0.0611 -0.4451  0.0997
 3432SOL    HW110295   3.955   1.938   5.822 -0.3496  0.2666 -0.3407
 3432SOL    HW210296   3.890   1.832   5.908  1.9444  1.2631  2.8082
 3433SOL     OW10297   3.278   0.314   5.397  0.2424 -0.7238  0.0204
 3433SOL    HW110298   3.190   0.281   5.414  0.1928  0.4311  2.5083
 3433SOL    HW210299   3.292   0.298   5.304 -0.9812 -4.6179  0.3461
 3434SOL     OW10300   3.019   1.762   5.348  0.5936 -0.1326 -0.1365
 3434SOL    HW110301   2.956   1.834   5.351  1.4173  0.7943 -2.6276
 3434SOL    HW210302   3.030   1.736   5.439  0.6785  3.2640  0.9537
 3435SOL     OW10303   4.202   0.618   5.351 -0.3690  0.7817  0.5038
 3435SOL    HW110304   4.239   0.535   5.382  1.2565  0.5158 -1.8832
 3435SOL    HW210305   4.121   0.628   5.401 -0.7589 -2.3759  0.7317
 3436SOL     OW10306   3.496   3.318   6.622  0.5000 -0.2225  0.0422
 3436SOL    HW110307   3.530   3.280   6.541  0.6174 -1.4747  0.6531
 3436SOL    HW210308   3.566   3.374   6.654  0.1941  0.8130 -1.0602
 3437SOL     OW10309   2.578   0.575   7.393 -0.4353 -0.5299 -0.4492
 3437SOL    HW110310   2.605   0.648   7.449 -0.5100 -1.1755  0.4513
 3437SOL    HW210311   2.532   0.516   7.452 -0.5556 -1.2112 -1.2127
 3438SOL     OW10312   4.966   4.824   6.429 -0.1537 -0.2935  0.1013
 3438SOL    HW110313   4.990   4.874   6.507  0.6098 -1.3733  0.5773
 3438SOL    HW210314   4.996   4.878   6.356 -0.1125  0.3342  0.5747
 3439SOL     OW10315   4.660   0.070   7.041  0.0322 -0.5565 -0.1912
 3439SOL    HW110316   4.669   0.100   6.951 -0.9145 -0.1658 -0.1732
 3439SOL    HW210317   4.593   0.001   7.037 -0.0808 -0.4757  0.2150
 3440SOL     OW10318   2.486   2.700   7.776 -0.8139 -0.0704  0.8842
 3440SOL    HW110319   2.450   2.647   7.706 -2.0194 -3.5596  3.8585
 3440SOL    HW210320   2.416   2.763   7.797 -0.9715  0.0886 -0.0679
 3441SOL     OW10321   2.275   0.817   6.241  0.2977 -0.0248 -0.3518
 3441SOL    HW110322   2.335   0.877   6.196 -1.1642  0.9311 -1.1148
 3441SOL    HW210323   2.294   0.731   6.202 -0.5010  0.6768 -2.4200
 3442SOL     OW10324   2.847   1.127   5.253  0.2234 -0.0374 -0.8530
 3442SOL    HW110325   2.907   1.199   5.277  0.1792 -0.2244 -0.1804
 3442SOL    HW210326   2.770   1.171   5.217  0.8592  0.2016 -1.9699
 3443SOL     OW10327   3.529   1.112   5.016  0.1999 -0.5347 -0.2566
 3443SOL    HW110328   3.609   1.121   5.069  0.7085  0.5698 -1.1815
 3443SOL    HW210329   3.495   1.025   5.040  1.3179 -0.7585  0.6347
 3444SOL     OW10330   4.463   4.310   5.983 -0.2842  0.3672 -0.1627
 3444SOL    HW110331   4.554   4.287   6.000 -0.3491  0.7769  0.8471
 3444SOL    HW210332   4.464   4.352   5.897  0.4211  0.0519 -0.3139
 3445SOL     OW10333   3.621   1.715   6.813  0.5994 -0.2365  0.0464
 3445SOL    HW110334   3.673   1.724   6.893 -0.4078  0.4643  0.6336
 3445SOL    HW210335   3.586   1.626   6.818 -1.5544  0.6112  1.7259
 3446SOL     OW10336   0.451   2.769   7.407 -0.2088 -0.6236 -0.6264
 3446SOL    HW110337   0.385   2.794   7.471  0.1940 -1.5355  0.1611
 3446SOL    HW210338   0.454   2.674   7.411  1.1188 -0.6012 -0.6843
 3447SOL     OW10339   4.247   2.324   5.076 -0.2509  0.0810 -0.3617
 3447SOL    HW110340   4.266   2.412   5.107  2.3994 -0.5965  0.1324
 3447SOL    HW210341   4.151   2.321   5.071 -0.6392  1.7446  3.2223
 3448SOL     OW10342   0.482   1.005   5.391  0.5594  0.4627  0.1987
 3448SOL    HW110343   0.419   0.934   5.402 -0.0503  1.1643  1.4530
 3448SOL    HW210344   0.567   0.960   5.383  0.1878 -0.4169  0.9492
 3449SOL     OW10345   4.290   2.166   8.820 -0.5933  0.0486  0.0530
 3449SOL    HW110346   4.261   2.125   8.738 -2.7801  2.3025 -0.4136
 3449SOL    HW210347   4.369   2.213   8.797 -0.1748 -0.8095 -0.3010
 3450SOL     OW10348   0.216   0.006   5.363 -0.3596  0.8394  0.4297
 3450SOL    HW110349   0.303  -0.030   5.344 -0.8081 -0.3647  0.5647
 3450SOL    HW210350   0.182   0.033   5.278 -0.6653 -0.6087  0.0678
 3451SOL     OW10351   4.253   4.400   7.888  0.6531  0.2717 -0.1946
 3451SOL    HW110352   4.175   4.371   7.934  0.8275 -1.2389 -0.7871
 3451SOL    HW210353   4.259   4.494   7.907 -0.4924  0.1273  1.0137
 3452SOL     OW10354   0.206   1.980   7.400 -0.2198  0.2400  0.0883
 3452SOL    HW110355   0.164   2.037   7.336 -1.5634  0.9289  1.5024
 3452SOL    HW210356   0.133   1.946   7.453  0.9420  2.2125  3.2353
 3453SOL     OW10357   2.615   4.181   5.293  0.0438 -0.2546  0.0137
 3453SOL    HW110358   2.649   4.269   5.278 -0.1142 -0.1509  0.2580
 3453SOL    HW210359   2.664   4.149   5.368 -0.7884  0.1128  0.7298
 3454SOL     OW10360   1.101   2.369   5.288  0.0753 -0.3002 -0.1582
 3454SOL    HW110361   1.184   2.402   5.323 -0.8402  0.2104  1.7156
 3454SOL    HW210362   1.126   2.302   5.225  1.9328  1.0323 -0.9407
 3455SOL     OW10363   3.925   2.566   7.234 -0.6965 -0.3521 -0.5466
 3455SOL    HW110364   3.849   2.610   7.273 -0.1044 -0.9070  1.3662
 3455SOL    HW210365   3.926   2.595   7.143 -1.2661  2.2946  0.2076
 3456SOL     OW10366   4.177   2.527   6.819  0.2263 -0.0845  0.2110
 3456SOL    HW110367   4.084   2.529   6.798 -0.3058  0.9864  2.4373
 3456SOL    HW210368   4.187   2.448   6.872  0.7737 -0.6387 -0.6934
 3457SOL     OW10369   3.657   1.497   5.959  0.8149 -1.0425 -0.3979
 3457SOL    HW110370   3.622   1.585   5.944  0.5804 -1.3226 -1.6801
 3457SOL    HW210371   3.598   1.458   6.023 -0.4168 -1.0057 -1.4618
 3458SOL     OW10372   4.037   0.837   6.023 -0.1626  0.3082 -0.3527
 3458SOL    HW110373   4.031   0.926   6.057 -2.6834  0.2993 -0.5734
 3458SOL    HW210374   4.013   0.845   5.931  1.3884 -0.3886 -0.8524
 3459SOL     OW10375   4.293   0.925   5.877 -0.4230  0.1902  0.6126
 3459SOL    HW110376   4.255   1.012   5.891 -1.3120 -0.4331  2.4316
 3459SOL    HW210377   4.349   0.912   5.953  0.3128 -0.5378 -0.0401
 3460SOL     OW10378   4.823   2.895   4.586 -0.1862  0.4709  0.3076
 3460SOL    HW110379   4.868   2.973   4.618  0.9802 -0.3578  0.7362
 3460SOL    HW210380   4.852   2.887   4.495  0.7111 -0.1763  0.6433
 3461SOL     OW10381   4.582   0.078   5.211  0.4455 -0.1911 -0.4833
 3461SOL    HW110382   4.614   0.024   5.283 -0.2114 -3.5249 -2.4855
 3461SOL    HW210383   4.660   0.099   5.161  0.6521  0.3531  0.0541
 3462SOL     OW10384   3.713   4.012   5.742  0.0217  0.3189 -0.1199
 3462SOL    HW110385   3.637   3.983   5.691 -0.0577  0.3283 -0.0061
 3462SOL    HW210386   3.725   3.945   5.808  1.3920 -0.7965 -1.4183
 3463SOL     OW10387   1.558   3.435   7.887 -0.2953  0.2284  0.2449
 3463SOL    HW110388   1.625   3.484   7.841 -0.2097 -0.6636 -0.6207
 3463SOL    HW210389   1.478   3.450   7.837 -0.1656 -0.8825 -0.3440
 3464SOL     OW10390   3.162   1.003   6.861 -0.8288  0.0241  0.1020
 3464SOL    HW110391   3.131   1.060   6.792  0.3997  0.7043  0.0843
 3464SOL    HW210392   3.087   0.990   6.918 -1.6536  0.0419 -0.9591
 3465SOL     OW10393   1.442   1.833   6.566  0.3929  0.3513 -0.2646
 3465SOL    HW110394   1.460   1.821   6.473  2.0575  2.5769 -0.3107
 3465SOL    HW210395   1.430   1.927   6.577 -1.3689 -0.0056  1.5498
 3466SOL     OW10396   4.750   4.207   7.046 -0.1860  0.4107 -0.7727
 3466SOL    HW110397   4.755   4.216   7.141 -1.2764  1.9895 -0.8341
 3466SOL    HW210398   4.801   4.281   7.012  0.8625 -0.5810 -1.4559
 3467SOL     OW10399   1.885   1.661   6.507 -0.3681  0.3119  0.2636
 3467SOL    HW110400   1.847   1.574   6.505  0.8568 -0.2241 -0.6645
 3467SOL    HW210401   1.979   1.646   6.520 -0.0883  1.4559 -0.3002
 3468SOL     OW10402   4.054   4.100   5.170 -0.0819  1.1843 -0.4132
 3468SOL    HW110403   4.026   4.009   5.158  0.2856  1.1571 -1.1205
 3468SOL    HW210404   3.991   4.136   5.232 -0.5718  0.5981 -0.5560
 3469SOL     OW10405   0.229   4.570   5.416  0.4435  0.0800  0.3089
 3469SOL    HW110406   0.266   4.625   5.485  0.8995  0.6119 -0.3396
 3469SOL    HW210407   0.267   4.605   5.335 -1.9219  1.0906 -0.4873
 3470SOL     OW10408   0.973   0.679   5.694  0.8240 -0.3548 -0.0293
 3470SOL    HW110409   1.011   0.766   5.682 -2.3362  0.9813 -1.2069
 3470SOL    HW210410   0.977   0.639   5.608 -0.4929 -0.1241 -0.2166
 3471SOL     OW10411   3.380   3.296   6.961 -0.1312 -0.8045  0.5257
 3471SOL    HW110412   3.330   3.294   6.880  0.5250 -3.2279  0.1012
 3471SOL    HW210413   3.450   3.359   6.944 -1.8476  1.1822  0.4595
 3472SOL     OW10414   3.342   2.476   6.292 -0.3888 -0.1994 -0.3283
 3472SOL    HW110415   3.339   2.553   6.349  0.3472  0.0165 -0.5678
 3472SOL    HW210416   3.252   2.444   6.289 -0.2875 -0.8682  1.8472
 3473SOL     OW10417   4.146   2.811   6.899 -0.0224  0.6236 -0.7311
 3473SOL    HW110418   4.185   2.726   6.881 -0.4718  0.3078 -0.2367
 3473SOL    HW210419   4.209   2.855   6.956 -0.2857  0.1854 -0.0825
 3474SOL     OW10420   0.102  -0.001   5.064 -0.1438  0.1104 -0.3255
 3474SOL    HW110421   0.109   0.078   5.009 -2.2057  0.8410  0.3561
 3474SOL    HW210422   0.126  -0.073   5.006 -1.5778  0.9201 -2.0341
 3475SOL     OW10423   2.002   1.033   6.055 -0.1717  0.1820  0.4038
 3475SOL    HW110424   1.971   1.085   5.980 -0.0716 -0.1041  0.1592
 3475SOL    HW210425   2.074   1.084   6.091 -1.1676  1.0560  1.2240
 3476SOL     OW10426   0.036   1.552   5.996  0.0692 -0.3199  0.1646
 3476SOL    HW110427   0.125   1.532   6.027  0.3312  0.2484 -0.2240
 3476SOL    HW210428   0.000   1.610   6.063 -0.1918 -0.9375  0.5728
 3477SOL     OW10429   4.729   1.631   5.176  0.0494 -0.2476 -0.2741
 3477SOL    HW110430   4.763   1.553   5.220 -0.3035 -0.0957  0.2840
 3477SOL    HW210431   4.794   1.653   5.110  0.3870 -0.7286 -0.1023
 3478SOL     OW10432   0.734   3.099   6.709 -0.5271  0.0563  0.1113
 3478SOL    HW110433   0.789   3.088   6.787 -0.8507 -1.4174  0.1525
 3478SOL    HW210434   0.701   3.188   6.716 -0.7956 -0.1418  1.8210
 3479SOL     OW10435   4.670   2.188   6.533 -0.3462  0.4082  0.1016
 3479SOL    HW110436   4.749   2.144   6.565  0.2032  1.3600  0.0946
 3479SOL    HW210437   4.598   2.147   6.581 -0.0574 -1.6952 -1.1689
 3480SOL     OW10438   1.573   2.910   6.093 -0.2901 -0.5926 -0.2449
 3480SOL    HW110439   1.493   2.911   6.041  0.7555 -1.1448 -1.9501
 3480SOL    HW210440   1.559   2.977   6.160 -2.2448 -0.8261 -0.3518
 3481SOL     OW10441   3.384   1.029   7.453  0.2170 -0.1342  0.0532
 3481SOL    HW110442   3.468   1.072   7.438 -1.3289  3.4035  0.4619
 3481SOL    HW210443   3.372   0.971   7.378  2.4152  0.2045 -0.6276
 3482SOL     OW10444   4.835   0.924   5.857 -0.5178  0.0486  0.3419
 3482SOL    HW110445   4.854   1.016   5.837 -0.2095 -0.0661  0.0916
 3482SOL    HW210446   4.832   0.881   5.771 -3.0313  0.2470  0.2575
 3483SOL     OW10447   1.067   3.228   8.724  0.0891 -0.3166  0.0833
 3483SOL    HW110448   1.128   3.195   8.658  1.5967  0.1996  1.1905
 3483SOL    HW210449   1.113   3.300   8.765 -1.2634  0.0554  0.9907
 3484SOL     OW10450   4.812   1.441   6.743 -0.2804 -0.2339  0.6746
 3484SOL    HW110451   4.797   1.370   6.806 -0.2275 -1.2433 -0.4120
 3484SOL    HW210452   4.727   1.485   6.735 -0.6806 -1.0350  0.3657
 3485SOL     OW10453   0.571   2.732   9.072  0.3649 -0.2817  0.2005
 3485SOL    HW110454   0.513   2.713   9.146  0.2614 -0.3547  0.1016
 3485SOL    HW210455   0.658   2.738   9.110  0.1604  0.8201  0.5011
 3486SOL     OW10456   4.964   2.346   7.124  0.2624  0.2107  0.0770
 3486SOL    HW110457   4.978   2.348   7.219  1.2889  0.5636 -0.0689
 3486SOL    HW210458   4.870   2.330   7.114  0.1455  0.1435  1.1513
 3487SOL     OW10459   2.815   4.117   5.452  0.1044 -0.2082 -0.1124
 3487SOL    HW110460   2.830   4.088   5.541 -2.0503 -0.6843  0.1564
 3487SOL    HW210461   2.848   4.046   5.397 -1.1434 -1.2384  0.4174
 3488SOL     OW10462   0.805   2.372   5.619 -0.3330 -0.3325  0.0838
 3488SOL    HW110463   0.864   2.331   5.681 -1.1621  0.2721  1.3096
 3488SOL    HW210464   0.791   2.305   5.551  3.0040  0.0864 -1.1791
 3489SOL     OW10465   0.023   1.244   5.150 -1.0473 -0.6937 -1.0053
 3489SOL    HW110466   0.037   1.337   5.131  1.7764 -1.0249 -0.9059
 3489SOL    HW210467   0.108   1.212   5.179 -1.6875 -3.5618 -1.9656
 3490SOL     OW10468   3.501   2.324   8.491  0.0277  0.2801  0.7352
 3490SOL    HW110469   3.468   2.401   8.445 -2.2001  0.5682  2.6032
 3490SOL    HW210470   3.464   2.332   8.579  0.8869 -2.2211  1.3942
 3491SOL     OW10471   0.390   4.056   7.024 -0.0607 -0.1905  0.3012
 3491SOL    HW110472   0.413   4.002   7.100  1.2808 -1.3140 -0.8434
 3491SOL    HW210473   0.473   4.070   6.978 -0.8186  0.5374 -0.9060
 3492SOL     OW10474   1.915   2.785   6.386  1.1246  0.0413  0.4680
 3492SOL    HW110475   1.881   2.696   6.378 -1.8837  1.1140  0.1520
 3492SOL    HW210476   2.000   2.782   6.342  0.4748 -2.3476 -0.8036
 3493SOL     OW10477   1.107   1.364   5.107  0.3232  0.4777 -0.9044
 3493SOL    HW110478   1.201   1.353   5.117  0.2454 -0.0723 -0.7055
 3493SOL    HW210479   1.095   1.456   5.084  0.9993  0.2703 -2.1555
 3494SOL     OW10480   0.787   3.083   5.011 -0.0239 -0.3303 -0.1664
 3494SOL    HW110481   0.720   3.103   5.076  0.5257 -1.5602  0.8223
 3494SOL    HW210482   0.856   3.147   5.028  0.0873 -0.6034  0.4405
 3495SOL     OW10483   0.311   3.058   4.765 -0.3961 -0.0293  0.0894
 3495SOL    HW110484   0.311   2.983   4.824  1.2377 -1.6482 -1.8399
 3495SOL    HW210485   0.401   3.089   4.765 -0.9080  1.5522  0.3332
 3496SOL     OW10486   4.713   0.445   4.949  0.8626 -0.4379  0.3419
 3496SOL    HW110487   4.687   0.461   5.039 -0.3554 -0.5336  0.0295
 3496SOL    HW210488   4.630   0.443   4.900  1.4807 -0.6139 -0.7375
 3497SOL     OW10489   1.891   3.836   5.786 -0.6368 -0.0592  0.4715
 3497SOL    HW110490   1.911   3.748   5.752  1.3062 -0.6138  2.7836
 3497SOL    HW210491   1.920   3.834   5.877  1.6154  3.6658  0.0416
 3498SOL     OW10492   4.933   2.967   5.197  0.7575 -0.3615 -0.0411
 3498SOL    HW110493   4.978   2.896   5.244  0.5232 -1.1666 -0.9940
 3498SOL    HW210494   4.990   2.986   5.122  1.0918  0.8593  0.4967
 3499SOL     OW10495   1.727   1.268   8.837  0.0248  0.2397 -0.1331
 3499SOL    HW110496   1.813   1.227   8.844 -0.0274  0.3857  2.4556
 3499SOL    HW210497   1.728   1.338   8.904 -1.2255  1.9432 -1.7863
 3500SOL     OW10498   1.742   4.242   4.887  0.0175 -0.0913 -0.2121
 3500SOL    HW110499   1.650   4.232   4.860 -0.1140  0.3765  0.0513
 3500SOL    HW210500   1.743   4.212   4.978  0.7110 -2.9102 -1.0607
 3501SOL     OW10501   1.881   0.387   7.144 -0.2780 -0.3564  0.3409
 3501SOL    HW110502   1.916   0.298   7.153 -1.6226 -1.1807 -1.7497
 3501SOL    HW210503   1.810   0.391   7.207 -0.4298 -0.8943  0.2083
 3502SOL     OW10504   4.361   2.684   5.605 -0.0329  0.3099  0.3431
 3502SOL    HW110505   4.421   2.621   5.644 -0.6029  0.1274  0.9465
 3502SOL    HW210506   4.394   2.769   5.634  0.8090  0.3188 -0.5757
 3503SOL     OW10507   3.645   1.976   6.789  0.8306  0.0979  0.2572
 3503SOL    HW110508   3.624   1.884   6.771  0.0415 -0.0920  1.9091
 3503SOL    HW210509   3.713   1.972   6.856  0.9539  0.7151  0.1724
 3504SOL     OW10510   3.060   2.150   5.601  0.8506  0.5309 -0.7309
 3504SOL    HW110511   3.117   2.129   5.526  1.4323  0.4974 -0.2829
 3504SOL    HW210512   3.116   2.140   5.677  0.4949  1.4294 -0.3393
 3505SOL     OW10513   4.541   2.530   7.945  1.2423  0.3132  0.6442
 3505SOL    HW110514   4.496   2.528   8.029  1.9254 -2.0447  1.0446
 3505SOL    HW210515   4.472   2.550   7.881  0.0433 -1.0022  1.4683
 3506SOL     OW10516   4.059   3.012   7.393 -0.1994 -0.0208  0.1342
 3506SOL    HW110517   4.038   3.102   7.417  1.1479  0.5301 -0.6594
 3506SOL    HW210518   4.145   2.997   7.431  0.1845 -0.5010 -0.9025
 3507SOL     OW10519   2.799   1.340   6.735 -0.1100 -0.4754  0.3198
 3507SOL    HW110520   2.771   1.334   6.644 -0.4818 -0.5515  0.4398
 3507SOL    HW210521   2.718   1.355   6.784  0.0996 -0.3471  0.6284
 3508SOL     OW10522   1.569   3.473   5.753  0.0129  0.5863  0.9021
 3508SOL    HW110523   1.535   3.528   5.823  1.7313  1.6345  0.9602
 3508SOL    HW210524   1.572   3.385   5.790 -0.2847  0.9097  1.7038
 3509SOL     OW10525   0.303   3.069   5.168  0.2460  0.1333  0.1538
 3509SOL    HW110526   0.366   3.017   5.217 -0.6333 -0.3866  0.7474
 3509SOL    HW210527   0.347   3.153   5.154  1.6627 -0.7210 -0.7745
 3510SOL     OW10528   4.675   2.674   5.491  0.4700  0.0862  0.1444
 3510SOL    HW110529   4.724   2.593   5.505  0.4930  0.1211  0.2716
 3510SOL    HW210530   4.595   2.663   5.541  0.0339 -0.2458 -0.6067
 3511SOL     OW10531   0.918   4.718   6.225 -0.6296  0.2941 -0.7145
 3511SOL    HW110532   0.923   4.642   6.167  0.1384  0.2601 -0.6083
 3511SOL    HW210533   0.824   4.727   6.243 -0.7382 -0.6300 -0.7343
 3512SOL     OW10534   1.232   3.846   7.989 -0.2406 -0.1376  0.1980
 3512SOL    HW110535   1.324   3.857   8.012  0.3549  0.6722 -2.3405
 3512SOL    HW210536   1.209   3.759   8.022  0.5976  0.6725  3.2352
 3513SOL     OW10537   2.820   2.939   5.282  0.4191 -0.1481  0.0573
 3513SOL    HW110538   2.771   3.011   5.242  1.4615  1.4770  1.5261
 3513SOL    HW210539   2.904   2.938   5.235  0.8294  0.3726  0.7464
 3514SOL     OW10540   4.223   3.577   7.387 -0.0136 -0.2952 -0.4398
 3514SOL    HW110541   4.147   3.531   7.422 -0.5597 -0.0343 -1.2512
 3514SOL    HW210542   4.209   3.669   7.412  0.4648 -0.3648  0.1254
 3515SOL     OW10543   4.754   1.140   4.961  0.2317  0.1871  0.2121
 3515SOL    HW110544   4.836   1.184   4.982  0.5453 -1.6321  3.4242
 3515SOL    HW210545   4.693   1.169   5.028 -0.0737 -2.6315  1.3030
 3516SOL     OW10546   0.600   3.498   5.442  0.6878 -0.2220  0.8095
 3516SOL    HW110547   0.677   3.538   5.402  0.2484  0.8646  1.0128
 3516SOL    HW210548   0.633   3.464   5.526  1.1957 -0.8119  0.3747
 3517SOL     OW10549   1.820   3.884   7.191 -0.7274  0.3638  0.3971
 3517SOL    HW110550   1.812   3.975   7.222  1.8188  1.4024 -1.6493
 3517SOL    HW210551   1.906   3.880   7.150 -2.3765 -1.7911 -3.3683
 3518SOL     OW10552   2.748   2.922   6.618 -0.4732 -0.1947  0.5848
 3518SOL    HW110553   2.746   2.949   6.526  0.8823  0.6133  0.7627
 3518SOL    HW210554   2.777   2.830   6.615 -0.9691 -0.3457  0.1929
 3519SOL     OW10555   0.007   4.041   5.545 -0.2565  0.1563  0.1699
 3519SOL    HW110556  -0.016   4.093   5.621 -0.2046 -0.9379  0.9613
 3519SOL    HW210557   0.024   3.954   5.580  1.4067  0.0249 -0.8824
 3520SOL     OW10558   0.096   2.814   6.796  0.4081  0.1566  0.4262
 3520SOL    HW110559   0.184   2.778   6.799  0.8335  1.1501  3.1720
 3520SOL    HW210560   0.038   2.737   6.798  1.1343 -0.5023 -1.4775
 3521SOL     OW10561   2.000   2.296   7.011 -0.5210 -0.4696 -0.1236
 3521SOL    HW110562   2.017   2.275   7.103  1.8223 -0.0525 -0.3980
 3521SOL    HW210563   1.940   2.371   7.014 -1.9809 -1.6145  0.9849
 3522SOL     OW10564   4.754   3.242   5.870 -0.2678  0.3488 -1.0937
 3522SOL    HW110565   4.814   3.310   5.838  1.1844 -0.5607 -0.4293
 3522SOL    HW210566   4.752   3.178   5.798 -0.0615  0.1622 -0.9367
 3523SOL     OW10567   3.853   1.834   4.975 -0.3044 -0.1894  0.2160
 3523SOL    HW110568   3.910   1.844   5.052 -0.0618  3.5668 -0.2333
 3523SOL    HW210569   3.913   1.840   4.900 -0.8035 -1.3881 -0.3113
 3524SOL     OW10570   1.472   2.761   7.623  0.4603 -0.4047 -0.1468
 3524SOL    HW110571   1.418   2.682   7.624  0.3246 -0.3380 -1.0995
 3524SOL    HW210572   1.451   2.806   7.705  0.6012 -1.3936  0.4409
 3525SOL     OW10573   0.112   0.892   5.492  1.1229  0.5979  0.1297
 3525SOL    HW110574   0.016   0.890   5.494  0.7405 -1.6069 -4.6286
 3525SOL    HW210575   0.133   0.975   5.448  1.6141  1.7784  2.4691
 3526SOL     OW10576   4.786   2.355   8.923  0.1463 -0.0091  0.1900
 3526SOL    HW110577   4.874   2.388   8.943 -0.5732  1.8297  0.5000
 3526SOL    HW210578   4.739   2.359   9.007 -0.4562 -0.2467 -0.1304
 3527SOL     OW10579   0.424   1.407   5.480  0.6962  0.1414 -0.2970
 3527SOL    HW110580   0.456   1.340   5.541 -0.9446 -0.4686 -0.0657
 3527SOL    HW210581   0.479   1.483   5.497  0.4039 -0.0731  1.8134
 3528SOL     OW10582   4.214   3.631   6.333  0.5493 -0.4527 -0.4571
 3528SOL    HW110583   4.209   3.538   6.354  0.8166 -0.2002  0.7584
 3528SOL    HW210584   4.308   3.649   6.327  0.5454  0.0072  0.6268
 3529SOL     OW10585   4.652   2.701   5.975  0.6570  0.2125  0.1961
 3529SOL    HW110586   4.732   2.751   5.991  0.7737 -0.4029  1.8293
 3529SOL    HW210587   4.667   2.618   6.020 -0.9862  0.1708  0.7500
 3530SOL     OW10588   3.107   3.796   6.473  0.4451 -0.1939 -0.0730
 3530SOL    HW110589   3.097   3.790   6.568  2.1874 -2.7524  0.0466
 3530SOL    HW210590   3.055   3.722   6.439  0.3012  0.3533 -1.0758
 3531SOL     OW10591   4.621   2.075   7.550 -0.5723 -0.4571  0.0100
 3531SOL    HW110592   4.557   2.053   7.482  0.0427  0.5591 -0.9338
 3531SOL    HW210593   4.594   2.162   7.580 -0.7019 -0.8060  0.9123
 3532SOL     OW10594   3.777   1.797   6.574 -0.2721  0.1149  0.1429
 3532SOL    HW110595   3.788   1.841   6.658  2.5054  0.2694 -0.2276
 3532SOL    HW210596   3.848   1.734   6.569  0.4460  0.9738 -2.6005
 3533SOL     OW10597   3.319   3.690   5.051 -0.2110 -0.2511 -0.5780
 3533SOL    HW110598   3.314   3.659   5.141  1.6879  0.7937 -0.0656
 3533SOL    HW210599   3.343   3.613   5.000  1.5179 -0.2848  0.2453
 3534SOL     OW10600   3.325   2.658   6.498 -0.1095  0.1836  0.1692
 3534SOL    HW110601   3.387   2.701   6.557  0.2901  1.0116 -0.8045
 3534SOL    HW210602   3.251   2.718   6.493 -0.7576 -0.5355  0.8857
 3535SOL     OW10603   3.291   1.415   5.357  0.9392  0.4543  0.7709
 3535SOL    HW110604   3.249   1.385   5.277 -0.5838 -0.5801  1.8908
 3535SOL    HW210605   3.363   1.353   5.370  1.9911  1.3866 -0.4235
 3536SOL     OW10606   2.109   2.551   7.676  1.1587 -0.0086 -0.1429
 3536SOL    HW110607   2.145   2.506   7.753  1.2495  1.3961  0.6706
 3536SOL    HW210608   2.062   2.626   7.712  1.2440  0.7113 -1.4667
 3537SOL     OW10609   4.398   2.025   7.377  0.0550  0.2935 -0.2813
 3537SOL    HW110610   4.391   2.081   7.300  1.3434  1.3364  0.3298
 3537SOL    HW210611   4.333   2.059   7.438  0.6402  0.9466 -0.0205
 3538SOL     OW10612   1.137   1.412   6.523 -0.4431 -1.1791  0.7970
 3538SOL    HW110613   1.050   1.439   6.554 -0.0300  1.5079 -0.0632
 3538SOL    HW210614   1.172   1.357   6.593 -1.1781  1.2312  3.2179
 3539SOL     OW10615   5.012   0.490   7.139 -0.0046 -0.3976  0.5225
 3539SOL    HW110616   4.969   0.541   7.071  0.9162  1.4152  1.2223
 3539SOL    HW210617   4.974   0.403   7.132  0.2844 -0.3714 -2.4813
 3540SOL     OW10618   3.268   3.176   7.735 -0.3320 -0.2194  0.3215
 3540SOL    HW110619   3.188   3.131   7.763  0.3879  0.1113  3.2898
 3540SOL    HW210620   3.335   3.108   7.738  0.1779  0.3106  1.7484
 3541SOL     OW10621   3.558   1.409   6.752 -0.2158  0.5932 -0.0561
 3541SOL    HW110622   3.464   1.426   6.761 -0.5400 -1.1269  0.1459
 3541SOL    HW210623   3.575   1.335   6.810  1.5305  1.6036  0.8195
 3542SOL     OW10624   4.051   2.883   5.498 -0.0877  0.5471 -0.1741
 3542SOL    HW110625   4.032   2.844   5.413  2.3966 -0.8935 -0.1432
 3542SOL    HW210626   4.108   2.958   5.479 -0.2968  0.8011  0.1685
 3543SOL     OW10627   0.379   4.356   6.895 -0.1774 -0.2337  0.5242
 3543SOL    HW110628   0.452   4.373   6.835 -0.5238  0.4157  0.2702
 3543SOL    HW210629   0.409   4.285   6.951 -0.4176 -1.9439 -1.4062
 3544SOL     OW10630   2.196   1.860   7.437  0.0082  0.0868 -0.4226
 3544SOL    HW110631   2.190   1.953   7.414  2.1967 -0.5405 -4.3990
 3544SOL    HW210632   2.263   1.857   7.505 -0.6079  1.4242  0.2973
 3545SOL     OW10633   1.320   3.651   6.348 -0.2264 -0.2221 -0.5058
 3545SOL    HW110634   1.306   3.599   6.428  1.3184  0.5975  0.3354
 3545SOL    HW210635   1.387   3.714   6.372 -0.7023  0.9365 -2.0804
 3546SOL     OW10636   4.122   1.791   6.122  0.5465  0.4360  0.3387
 3546SOL    HW110637   4.054   1.731   6.094  2.9531 -1.5509 -1.8469
 3546SOL    HW210638   4.103   1.810   6.213 -2.3233 -0.7644  0.0709
 3547SOL     OW10639   0.413   1.170   5.967  0.0960  0.1132  0.7195
 3547SOL    HW110640   0.386   1.119   5.891  1.8159 -0.4600  0.4303
 3547SOL    HW210641   0.434   1.105   6.034  0.1838  0.5384  1.1163
 3548SOL     OW10642   0.222   1.973   8.207  0.2485  0.4311 -0.3127
 3548SOL    HW110643   0.236   1.962   8.301 -2.6201  0.9670  0.2707
 3548SOL    HW210644   0.208   2.067   8.196  0.3045  0.3410 -1.2406
 3549SOL     OW10645   0.501   3.964   5.159 -0.2696  0.1359 -0.3722
 3549SOL    HW110646   0.426   3.980   5.101 -1.1384 -2.9683 -0.2764
 3549SOL    HW210647   0.573   3.945   5.099 -0.8636 -1.8350 -0.5297
 3550SOL     OW10648   1.460   1.275   5.421  1.1486  0.1641 -0.1499
 3550SOL    HW110649   1.542   1.265   5.469  1.8702  0.0103 -1.3605
 3550SOL    HW210650   1.400   1.214   5.463  2.2894 -1.3025 -0.5517
 3551SOL     OW10651   2.485   0.033   6.035 -0.2289 -0.5037  0.3114
 3551SOL    HW110652   2.436  -0.046   6.012 -1.1129 -0.2731  1.2798
 3551SOL    HW210653   2.423   0.105   6.019  0.0881 -0.1331  0.7224
 3552SOL     OW10654   0.029   4.920   7.522  0.0440 -0.2895 -0.7667
 3552SOL    HW110655   0.088   4.937   7.596 -0.7453  0.0440 -0.2042
 3552SOL    HW210656   0.088   4.898   7.450  0.8655  0.1752 -0.2582
 3553SOL     OW10657   3.759   1.234   6.147 -0.0357  0.3137 -0.5338
 3553SOL    HW110658   3.743   1.171   6.218  2.8699  0.5225  0.4166
 3553SOL    HW210659   3.714   1.196   6.071  0.9618 -2.5469  0.1946
 3554SOL     OW10660   0.170   2.334   6.932  0.0779 -0.7714 -0.1305
 3554SOL    HW110661   0.210   2.420   6.944  0.1848 -1.0852  2.0986
 3554SOL    HW210662   0.104   2.329   7.001 -0.5022 -2.1647 -0.7571
 3555SOL     OW10663   3.198   0.136   8.294 -0.8657  0.6109 -0.0444
 3555SOL    HW110664   3.285   0.097   8.300 -0.2940  1.9747  1.0403
 3555SOL    HW210665   3.138   0.062   8.298  0.2404 -0.3529 -0.8951
 3556SOL     OW10666   1.343   2.544   6.461  0.6290 -0.3167  0.0030
 3556SOL    HW110667   1.357   2.582   6.374  1.0714  2.3404  1.1280
 3556SOL    HW210668   1.248   2.548   6.474  0.1910 -3.5139 -1.4312
 3557SOL     OW10669   3.108   2.105   5.864  0.1240 -0.1130 -0.5305
 3557SOL    HW110670   3.194   2.069   5.885  0.9306  0.9320 -1.8629
 3557SOL    HW210671   3.108   2.191   5.904  0.2174  0.3949 -1.5847
 3558SOL     OW10672   1.217   0.950   5.935  0.3074 -0.5569 -0.1335
 3558SOL    HW110673   1.126   0.954   5.904  0.3585  1.4269 -0.1298
 3558SOL    HW210674   1.209   0.923   6.027 -0.4127  0.9472  0.2792
 3559SOL     OW10675   3.517   2.058   7.268  0.3378  0.1135 -0.3527
 3559SOL    HW110676   3.545   1.973   7.303  2.5381  1.1887  0.6599
 3559SOL    HW210677   3.460   2.035   7.194  2.7982 -2.2834 -1.6751
 3560SOL     OW10678   4.740   3.421   6.710 -0.0905 -0.1235  0.0196
 3560SOL    HW110679   4.748   3.328   6.734  1.0979 -0.4385 -1.4678
 3560SOL    HW210680   4.817   3.462   6.749  0.8178 -0.2862 -1.5407
 3561SOL     OW10681   1.510   0.190   5.154 -0.1640 -0.1159 -0.1953
 3561SOL    HW110682   1.570   0.125   5.117 -0.7738  0.7078 -2.8294
 3561SOL    HW210683   1.423   0.151   5.143 -0.4384  0.6264 -0.7238
 3562SOL     OW10684   4.773   4.001   5.345 -0.6665  0.2779 -0.2843
 3562SOL    HW110685   4.792   3.908   5.334  0.5178  0.6178 -1.2810
 3562SOL    HW210686   4.811   4.024   5.430  1.9508  0.5428 -1.4512
 3563SOL     OW10687   1.076   2.573   6.886  0.0391 -0.9719 -0.1955
 3563SOL    HW110688   1.142   2.560   6.954  0.2793  2.7629  0.5264
 3563SOL    HW210689   0.995   2.592   6.935  0.1309  1.3871 -0.8329
 3564SOL     OW10690   0.530   1.264   5.663 -0.0128 -0.1191  0.0684
 3564SOL    HW110691   0.512   1.345   5.711  0.6563  0.6717 -0.9783
 3564SOL    HW210692   0.614   1.235   5.698  0.7153  0.7197 -0.9229
 3565SOL     OW10693   3.998   2.171   6.889 -0.3664 -0.4452  0.2839
 3565SOL    HW110694   4.034   2.184   6.977  0.1848  1.8388 -0.2257
 3565SOL    HW210695   4.052   2.102   6.851  1.4357  0.6921  0.6744
 3566SOL     OW10696   4.837   0.773   9.371  0.8556 -0.1285 -0.3406
 3566SOL    HW110697   4.807   0.687   9.341  1.5795 -1.1076  1.4931
 3566SOL    HW210698   4.917   0.753   9.421  2.4138  1.9049 -1.8309
 3567SOL     OW10699   4.929   3.838   7.238 -0.1575 -0.3550  0.4199
 3567SOL    HW110700   4.918   3.769   7.173 -1.0222  2.1489 -2.3320
 3567SOL    HW210701   4.948   3.917   7.186  0.2208  1.6128  3.3074
 3568SOL     OW10702   0.343   2.928   6.208 -0.0130  0.4988 -0.4775
 3568SOL    HW110703   0.360   2.889   6.122  2.3658  0.1502  0.0984
 3568SOL    HW210704   0.357   3.022   6.194  0.4924  0.4291 -0.4484
 3569SOL     OW10705   3.908   3.071   8.210  0.1085 -0.0287 -0.0463
 3569SOL    HW110706   3.985   3.033   8.253  1.3228  1.0851 -1.1478
 3569SOL    HW210707   3.938   3.090   8.121 -1.9929 -1.1947 -1.0674
 3570SOL     OW10708   3.943   3.127   9.898 -0.4237  0.1607  0.2072
 3570SOL    HW110709   3.984   3.109   9.982  0.2785 -0.9918 -0.3558
 3570SOL    HW210710   3.935   3.042   9.856  1.8541  0.9097 -2.0447
 3571SOL     OW10711   4.854   0.134   8.578 -0.2286 -0.4857  0.4298
 3571SOL    HW110712   4.835   0.053   8.531  0.8913 -0.0974 -0.7542
 3571SOL    HW210713   4.939   0.162   8.544  0.4328  0.0543  2.3917
 3572SOL     OW10714   3.776   4.129   8.550  0.0551 -1.1291  0.1869
 3572SOL    HW110715   3.730   4.144   8.633 -1.8861 -0.7668 -0.8975
 3572SOL    HW210716   3.741   4.046   8.518 -1.8519  0.3380 -1.8556
 3573SOL     OW10717   4.370   3.003   9.084  0.0249  0.1159  0.0980
 3573SOL    HW110718   4.338   2.925   9.130  1.6588  0.5192  2.0486
 3573SOL    HW210719   4.301   3.068   9.098  0.3171  0.1257  1.7892
 3574SOL     OW10720   0.443   1.994   7.591 -0.3033 -0.1954  0.2658
 3574SOL    HW110721   0.353   2.026   7.583  0.1945  1.1148 -0.2090
 3574SOL    HW210722   0.466   2.009   7.683 -1.0259 -1.8613  0.7704
 3575SOL     OW10723   1.646   3.870   6.748  0.4133  0.3296  0.4634
 3575SOL    HW110724   1.597   3.931   6.803  1.3238  0.1309  1.5103
 3575SOL    HW210725   1.702   3.822   6.808  0.3726 -0.9289 -0.4518
 3576SOL     OW10726   1.167   0.548   8.355  0.4953  0.2245 -0.1737
 3576SOL    HW110727   1.236   0.547   8.420  0.9243  1.0626 -0.6041
 3576SOL    HW210728   1.188   0.622   8.298 -0.7083  0.4471 -0.3613
 3577SOL     OW10729   3.226   4.011   7.649  0.0766  0.2010  0.4136
 3577SOL    HW110730   3.269   4.088   7.611 -1.4793  1.0972  0.3685
 3577SOL    HW210731   3.240   4.020   7.743  0.8069 -0.0466  0.3338
 3578SOL     OW10732   3.292   1.503   6.861  0.1108  0.3328 -0.3248
 3578SOL    HW110733   3.244   1.461   6.933  0.0963  0.1620 -0.4352
 3578SOL    HW210734   3.246   1.475   6.782  0.0931  0.5663 -0.3975
 3579SOL     OW10735   3.543   3.324   8.442 -0.5603  0.0424 -0.0645
 3579SOL    HW110736   3.615   3.310   8.381 -1.1334 -2.0581 -0.3281
 3579SOL    HW210737   3.511   3.236   8.463 -1.3137  0.7770  2.1569
 3580SOL     OW10738   3.646   0.445   7.591 -0.3190 -0.2866 -0.6024
 3580SOL    HW110739   3.692   0.494   7.523 -0.6774 -1.4187 -1.6819
 3580SOL    HW210740   3.711   0.433   7.660  0.5830 -0.6762 -1.5140
 3581SOL     OW10741   0.039   2.807   8.428 -0.2506  0.3024 -0.9778
 3581SOL    HW110742   0.057   2.894   8.462 -0.1724  0.0161 -0.2663
 3581SOL    HW210743  -0.037   2.777   8.478  0.2695 -0.3828 -0.5843
 3582SOL     OW10744   0.102   3.843   6.944  0.3697 -0.3909 -0.1074
 3582SOL    HW110745   0.125   3.927   6.984 -0.9523  0.9603 -1.9470
 3582SOL    HW210746   0.011   3.855   6.916  0.2963 -2.3026 -0.7994
 3583SOL     OW10747   4.054   3.131   7.995 -0.2214 -0.3622  0.2316
 3583SOL    HW110748   4.111   3.119   7.919 -1.4327 -0.7639 -0.6617
 3583SOL    HW210749   4.095   3.200   8.046  1.7160 -1.4993  0.2977
 3584SOL     OW10750   2.742   3.431   9.050  0.4690  0.1981 -0.6920
 3584SOL    HW110751   2.835   3.429   9.027  0.6139  3.0093 -0.7414
 3584SOL    HW210752   2.739   3.399   9.141  1.5017  0.1748 -0.6577
 3585SOL     OW10753   2.696   4.674   5.793 -0.1789  0.0538  0.0018
 3585SOL    HW110754   2.726   4.757   5.830 -2.4796  0.8578  0.2599
 3585SOL    HW210755   2.725   4.677   5.702 -0.9103  1.5739 -0.2306
 3586SOL     OW10756   2.655   1.773   6.024 -0.3697  0.7605  0.8221
 3586SOL    HW110757   2.586   1.799   5.962 -0.6383 -0.3612  0.6126
 3586SOL    HW210758   2.703   1.853   6.043 -1.6817  1.5490  0.8937
 3587SOL     OW10759   0.718   2.021   6.728 -0.2484  0.1080  0.5538
 3587SOL    HW110760   0.741   2.114   6.726  2.6275 -0.5106 -0.3741
 3587SOL    HW210761   0.710   2.001   6.821 -0.6028  1.2007  0.7770
 3588SOL     OW10762   2.766   1.711   8.088 -0.3446 -0.0271  0.3436
 3588SOL    HW110763   2.839   1.653   8.111 -1.0356 -0.5777  1.2012
 3588SOL    HW210764   2.737   1.748   8.172  0.4340  2.0104 -0.2442
 3589SOL     OW10765   4.955   0.381   5.371 -0.0869 -0.7117  0.7268
 3589SOL    HW110766   5.045   0.373   5.339  0.3969 -0.7829  2.0254
 3589SOL    HW210767   4.905   0.317   5.320  0.3735  0.0645 -0.7372
 3590SOL     OW10768   4.166   1.975   7.921  0.6319  0.3758  0.3087
 3590SOL    HW110769   4.182   2.065   7.891  0.8380  0.5347  0.8870
 3590SOL    HW210770   4.203   1.920   7.852  1.5933  0.7392  0.5257
 3591SOL     OW10771   3.350   2.712   7.227 -0.1250  0.2044 -0.4102
 3591SOL    HW110772   3.400   2.663   7.162 -1.2511 -0.8482 -0.5342
 3591SOL    HW210773   3.281   2.756   7.176  0.9698  2.1373 -0.3285
 3592SOL     OW10774   4.269   2.301   6.110  0.4439 -0.4822 -0.8762
 3592SOL    HW110775   4.339   2.319   6.174 -1.4715  0.7551  1.0124
 3592SOL    HW210776   4.315   2.267   6.033  2.8555 -2.7188  1.3510
 3593SOL     OW10777   4.983   1.869   7.180 -0.2694  0.6245 -0.0714
 3593SOL    HW110778   4.966   1.908   7.266 -0.2283  2.9145 -1.0034
 3593SOL    HW210779   4.899   1.833   7.152 -1.6214  3.9746 -0.9111
 3594SOL     OW10780   3.808   1.516   7.484  0.4026  0.7705  0.0447
 3594SOL    HW110781   3.839   1.605   7.498  1.1294  0.2555  2.1059
 3594SOL    HW210782   3.796   1.481   7.572 -4.2571  0.2527 -0.5430
 3595SOL     OW10783   4.701   3.305   7.553  0.1779  0.0580  0.0816
 3595SOL    HW110784   4.794   3.283   7.555  0.2988 -1.1471 -5.0048
 3595SOL    HW210785   4.699   3.401   7.557  1.7124  0.1342 -0.3823
 3596SOL     OW10786   0.321   0.190   8.033 -0.0519 -0.2460 -0.0781
 3596SOL    HW110787   0.347   0.139   7.956  0.2482 -0.2844  0.0457
 3596SOL    HW210788   0.323   0.281   8.002 -0.1600 -0.2769 -0.1787
 3597SOL     OW10789   4.206   3.398   6.636 -0.1679 -0.2015  0.4823
 3597SOL    HW110790   4.229   3.456   6.710 -0.2394  0.2878  0.1262
 3597SOL    HW210791   4.259   3.430   6.563 -1.5248  0.5835 -0.2012
 3598SOL     OW10792   3.861   2.760   6.173 -0.0467 -0.3838  0.5319
 3598SOL    HW110793   3.929   2.747   6.239  0.9570  0.2330 -0.3424
 3598SOL    HW210794   3.901   2.732   6.091 -0.2328  1.5138 -0.2661
 3599SOL     OW10795   0.619   2.539   8.585 -0.2632  0.0772  0.0438
 3599SOL    HW110796   0.549   2.578   8.533  1.5824 -0.3081 -2.9587
 3599SOL    HW210797   0.611   2.445   8.569  1.0315  0.0502 -0.5290
 3600SOL     OW10798   3.351   2.250   9.112 -0.4296  0.6370 -0.6337
 3600SOL    HW110799   3.383   2.210   9.193 -1.1174  2.0098  0.3598
 3600SOL    HW210800   3.428   2.292   9.074 -0.3335  1.0593 -0.0052
 3601SOL     OW10801   4.170   0.703   7.986  0.6378  0.1589  0.2955
 3601SOL    HW110802   4.202   0.621   8.024 -0.6248  0.1929  1.4992
 3601SOL    HW210803   4.218   0.772   8.033 -0.3546  0.1761  1.3160
 3602SOL     OW10804   4.204   4.243   6.935  0.3450 -0.1018 -0.0342
 3602SOL    HW110805   4.111   4.248   6.960  0.2959 -3.1267  0.7673
 3602SOL    HW210806   4.250   4.274   7.013  0.0473  1.4083 -0.4301
 3603SOL     OW10807   3.137   1.569   7.713  0.0771  0.4783 -0.4771
 3603SOL    HW110808   3.199   1.642   7.722  0.5831  0.3016 -2.1108
 3603SOL    HW210809   3.192   1.491   7.709 -0.3970  0.1047  0.2077
 3604SOL     OW10810   3.303   1.192   6.011  0.1117  0.2359 -0.4974
 3604SOL    HW110811   3.219   1.150   6.029  0.9397 -1.1600  0.2769
 3604SOL    HW210812   3.326   1.236   6.093 -0.2737  1.4090 -0.9954
 3605SOL     OW10813   0.441   3.965   8.071 -0.1765  0.1170 -0.2267
 3605SOL    HW110814   0.531   3.987   8.044  0.4123  0.3118  1.7384
 3605SOL    HW210815   0.453   3.910   8.149 -1.7801  0.5630  0.3599
 3606SOL     OW10816   2.611   3.546  10.100 -0.3142  0.2615  0.1121
 3606SOL    HW110817   2.684   3.602  10.127  0.5047 -0.6079 -0.2507
 3606SOL    HW210818   2.595   3.570  10.009 -0.4035  0.3530  0.1504
 3607SOL     OW10819   0.551   3.850   7.267 -0.1333  0.0934 -0.1600
 3607SOL    HW110820   0.526   3.886   7.352  0.0157 -2.2469  0.9559
 3607SOL    HW210821   0.468   3.824   7.227 -0.3218  2.3141 -1.3440
 3608SOL     OW10822   4.419   2.596   8.162  0.0864 -0.0589  0.5784
 3608SOL    HW110823   4.461   2.583   8.247  0.1918 -0.0298  0.5305
 3608SOL    HW210824   4.338   2.643   8.182  0.0862 -0.0970  0.6685
 3609SOL     OW10825   1.125   3.512   6.904  0.3125  0.6394  0.0089
 3609SOL    HW110826   1.133   3.417   6.912  0.0587  0.7192  1.4602
 3609SOL    HW210827   1.206   3.547   6.939  0.4163  0.9705 -0.5432
 3610SOL     OW10828   3.466   1.494   7.878 -0.1663  0.6416 -0.1379
 3610SOL    HW110829   3.459   1.399   7.866  0.8604  0.4467  0.5834
 3610SOL    HW210830   3.526   1.523   7.809 -0.2549  0.7177 -0.1825
 3611SOL     OW10831   3.800   1.448   8.288  0.3241 -0.7426 -0.3103
 3611SOL    HW110832   3.890   1.473   8.310 -0.0677  0.6927 -0.2034
 3611SOL    HW210833   3.756   1.440   8.373  0.2992 -1.2690 -0.3690
 3612SOL     OW10834   1.454   0.708   9.313 -0.0554  0.4632 -0.4805
 3612SOL    HW110835   1.385   0.695   9.379 -0.2369 -1.0573 -0.9287
 3612SOL    HW210836   1.452   0.802   9.295 -0.4898  0.8005  1.1499
 3613SOL     OW10837   5.011   1.844   9.491 -0.1437 -0.0692  0.2532
 3613SOL    HW110838   5.009   1.839   9.395 -2.1735  2.5942  0.0427
 3613SOL    HW210839   4.957   1.770   9.519 -0.6274 -0.1149 -0.7269
 3614SOL     OW10840   4.331   2.930   7.056  0.3768 -0.0673  0.0463
 3614SOL    HW110841   4.386   2.852   7.046 -0.0038 -0.1719 -1.4958
 3614SOL    HW210842   4.391   3.004   7.047  0.8142 -0.1280  1.9562
 3615SOL     OW10843   1.968   4.173   8.467  0.4561 -0.2000 -0.4630
 3615SOL    HW110844   1.900   4.105   8.468  1.9248 -1.7636 -1.2158
 3615SOL    HW210845   1.990   4.186   8.560  1.3713 -2.0984 -0.3594
 3616SOL     OW10846   1.134   1.180   7.028 -0.3011  0.0753 -0.1642
 3616SOL    HW110847   1.151   1.178   7.122 -1.2980  0.4079  0.0369
 3616SOL    HW210848   1.215   1.149   6.988  0.9409  2.0172  0.7012
 3617SOL     OW10849   3.885   2.852   9.819  0.4343  0.3950  0.0054
 3617SOL    HW110850   3.914   2.829   9.908  0.8715  1.0533  0.0314
 3617SOL    HW210851   3.821   2.784   9.798 -0.0578  0.5124  1.0256
 3618SOL     OW10852   4.950   2.730   8.880 -0.3333  0.6116  0.2488
 3618SOL    HW110853   5.042   2.742   8.856 -0.5477  1.6632 -0.1261
 3618SOL    HW210854   4.933   2.801   8.942 -0.9041  0.4499  0.2760
 3619SOL     OW10855   1.142   4.598   4.968  0.0492 -0.8416 -0.7540
 3619SOL    HW110856   1.121   4.509   4.995  1.6333 -0.7223  1.0590
 3619SOL    HW210857   1.128   4.652   5.046 -0.6005  0.4768 -1.7332
 3620SOL     OW10858   3.802   1.505   6.897 -0.3085 -0.7043  0.0100
 3620SOL    HW110859   3.792   1.466   6.984 -0.4347 -1.1447 -0.1992
 3620SOL    HW210860   3.840   1.591   6.914  2.1876 -1.7719  0.3609
 3621SOL     OW10861   3.276   2.336   7.893  0.3683 -0.1679  0.0572
 3621SOL    HW110862   3.271   2.331   7.797  1.2673  1.8755 -0.1469
 3621SOL    HW210863   3.350   2.394   7.910  0.2147 -0.4862  2.0132
 3622SOL     OW10864   4.825   3.189   9.220 -0.1792  0.7160  0.1537
 3622SOL    HW110865   4.842   3.280   9.247 -0.4233  2.0252 -3.5376
 3622SOL    HW210866   4.730   3.181   9.224 -0.1091  0.2206  1.4032
 3623SOL     OW10867   3.450   1.182   7.757  0.5213 -0.2745 -0.1015
 3623SOL    HW110868   3.450   1.099   7.710  1.8554 -1.1795  1.3961
 3623SOL    HW210869   3.481   1.160   7.845  2.3716  2.0494 -0.0803
 3624SOL     OW10870   3.091   2.960   9.066 -0.3286 -0.0933 -0.2863
 3624SOL    HW110871   3.112   2.886   9.123  1.0717 -0.0820 -0.7612
 3624SOL    HW210872   3.125   2.935   8.981 -1.6941  0.2325 -0.9529
 3625SOL     OW10873   0.339   2.800   7.963  0.3651 -0.1611  0.3358
 3625SOL    HW110874   0.291   2.736   8.015 -0.0481  0.2090  0.4206
 3625SOL    HW210875   0.318   2.884   8.004 -1.6547  0.3957 -1.6558
 3626SOL     OW10876   0.398   2.744   6.436  0.4208  0.0780 -0.5871
 3626SOL    HW110877   0.384   2.781   6.349 -0.5100  0.1241 -0.4349
 3626SOL    HW210878   0.326   2.781   6.489  1.1308  0.2851  0.2716
 3627SOL     OW10879   0.042   0.421   5.858  0.1747 -0.5220 -0.0453
 3627SOL    HW110880   0.022   0.497   5.803  0.4897  0.2080  0.8210
 3627SOL    HW210881   0.114   0.377   5.812 -1.6558 -1.8104 -1.9125
 3628SOL     OW10882   3.949   4.236   7.049  0.1134 -0.1968  0.1126
 3628SOL    HW110883   3.885   4.280   6.992  0.7030  0.1050 -0.3311
 3628SOL    HW210884   3.915   4.250   7.138 -0.5441 -0.2196 -0.1303
 3629SOL     OW10885   3.274   4.911   9.453  0.0912  0.7320  0.0024
 3629SOL    HW110886   3.181   4.898   9.432 -0.2452  1.5363  0.9188
 3629SOL    HW210887   3.296   4.836   9.510 -0.3660  1.2177  0.8444
 3630SOL     OW10888   0.430   1.838   8.039  0.4132 -0.2382  1.1374
 3630SOL    HW110889   0.514   1.850   7.994 -0.0200  0.5969  0.5134
 3630SOL    HW210890   0.388   1.923   8.033 -1.7561 -1.3395 -1.2110
 3631SOL     OW10891   0.139   0.346   8.588  0.7375 -1.2106  0.0725
 3631SOL    HW110892   0.176   0.431   8.609  2.4484 -1.1478 -2.7048
 3631SOL    HW210893   0.064   0.366   8.531  0.4592 -1.5515  0.3135
 3632SOL     OW10894   4.263   0.021   9.635  0.0388 -0.0146  0.3823
 3632SOL    HW110895   4.255  -0.064   9.677 -1.9402  0.4254  0.9725
 3632SOL    HW210896   4.229   0.083   9.699 -2.5829  0.7385 -1.5501
 3633SOL     OW10897   3.577   3.511   6.990 -0.4668 -0.4402 -0.2066
 3633SOL    HW110898   3.600   3.445   7.056 -1.6577 -0.6464  0.0237
 3633SOL    HW210899   3.607   3.594   7.028  1.8642 -0.8869 -0.8905
 3634SOL     OW10900   2.986   4.445   7.993 -0.2131  0.2048  1.3257
 3634SOL    HW110901   2.896   4.477   7.989  0.3121  1.6740  0.2385
 3634SOL    HW210902   3.032   4.510   8.046  1.3632  2.8351 -2.7279
 3635SOL     OW10903   3.762   1.400   6.530  0.5506 -0.2774  0.1265
 3635SOL    HW110904   3.854   1.376   6.518  0.9390  1.5014 -0.7865
 3635SOL    HW210905   3.758   1.436   6.619  1.4124  2.1857 -0.7313
 3636SOL     OW10906   4.979   3.936   9.419  0.0024 -0.9344 -0.5479
 3636SOL    HW110907   4.972   3.931   9.324  1.9633 -1.1968 -0.7223
 3636SOL    HW210908   4.974   4.029   9.439 -4.2278 -0.9887 -0.4539
 3637SOL     OW10909   1.090   2.103   6.381  0.1630 -0.6546 -0.5821
 3637SOL    HW110910   1.026   2.060   6.437 -0.2689 -0.6678 -1.0728
 3637SOL    HW210911   1.058   2.089   6.292 -0.1358  0.8696 -0.7555
 3638SOL     OW10912   4.225   0.906   8.966 -0.2179  0.1007  0.5933
 3638SOL    HW110913   4.139   0.925   8.928  0.2534 -0.4448 -0.7793
 3638SOL    HW210914   4.205   0.866   9.051 -1.3358 -0.6723 -0.0179
 3639SOL     OW10915   3.168   3.336   8.498  0.1628 -0.3765  0.2125
 3639SOL    HW110916   3.109   3.286   8.554  2.2814 -2.1361  1.0033
 3639SOL    HW210917   3.187   3.415   8.548 -0.8849 -0.1454  0.2736
 3640SOL     OW10918   3.943   1.789   7.894  0.0556 -0.1297  0.3891
 3640SOL    HW110919   3.966   1.703   7.931  0.4284 -0.1399  0.1356
 3640SOL    HW210920   4.026   1.834   7.883 -0.1715  0.4258  0.8960
 3641SOL     OW10921   3.539   3.451   8.012  0.3893  0.2605  0.3635
 3641SOL    HW110922   3.533   3.357   8.027 -0.6878 -0.0685 -1.7366
 3641SOL    HW210923   3.630   3.474   8.035  0.4430 -1.0888  1.6629
 3642SOL     OW10924   2.894   4.816   9.755  0.3384  0.1678  0.6648
 3642SOL    HW110925   2.815   4.864   9.782 -0.9033 -1.7335  0.6242
 3642SOL    HW210926   2.961   4.843   9.817 -0.6752  0.9421  1.4670
 3643SOL     OW10927   4.720   4.576   7.452 -0.5837  0.1172  0.1594
 3643SOL    HW110928   4.731   4.641   7.383  1.8092 -1.3503 -0.9474
 3643SOL    HW210929   4.692   4.497   7.407 -0.5545 -0.4335  1.0765
 3644SOL     OW10930   3.561   4.039   7.999 -0.6482  0.5909  0.1056
 3644SOL    HW110931   3.542   3.974   7.931 -0.0588  0.8998 -0.3588
 3644SOL    HW210932   3.492   4.105   7.989  0.1437  1.2773 -1.0242
 3645SOL     OW10933   1.311   1.494   8.420 -0.0128  0.4811  0.3115
 3645SOL    HW110934   1.343   1.559   8.483 -1.6671  1.3354  0.3497
 3645SOL    HW210935   1.384   1.480   8.360  0.5954  1.9537  0.6516
 3646SOL     OW10936   3.703   4.682   9.221 -0.3496  0.3545  0.3913
 3646SOL    HW110937   3.685   4.688   9.127 -1.8509  0.3408  0.6536
 3646SOL    HW210938   3.660   4.758   9.259  0.8922  0.7766  1.0001
 3647SOL     OW10939   2.989   2.946   7.612  0.2963  0.3737 -0.0768
 3647SOL    HW110940   2.938   2.871   7.640 -0.7272  0.7341 -0.9151
 3647SOL    HW210941   2.927   3.018   7.609  0.4911  0.5334 -2.4461
 3648SOL     OW10942   3.800   3.559   6.079  0.6124 -0.1220  0.0195
 3648SOL    HW110943   3.895   3.550   6.081  0.6497 -0.5799 -1.9024
 3648SOL    HW210944   3.778   3.600   6.163  2.6732  1.6444 -0.2204
 3649SOL     OW10945   0.745   1.442   5.134  0.1452 -0.1628  0.2449
 3649SOL    HW110946   0.726   1.385   5.208 -1.1596  0.4404  0.4032
 3649SOL    HW210947   0.787   1.385   5.070  1.2762 -0.7052  1.4228
 3650SOL     OW10948   3.887   0.228   7.522 -0.2454  0.3197  0.2831
 3650SOL    HW110949   3.853   0.276   7.598 -1.0880 -1.5282  1.1308
 3650SOL    HW210950   3.867   0.137   7.541  1.4001 -0.3978 -1.2298
 3651SOL     OW10951   1.296   2.440  10.038  0.4320  0.5449  0.0100
 3651SOL    HW110952   1.286   2.534  10.027 -1.7749  0.2374 -1.4096
 3651SOL    HW210953   1.212   2.411  10.074  0.6902 -0.9763 -0.5307
 3652SOL     OW10954   3.243   2.127   7.393 -0.3829  0.1740  0.3854
 3652SOL    HW110955   3.188   2.058   7.430 -1.3047  0.8940  0.3833
 3652SOL    HW210956   3.230   2.119   7.298 -0.8535  0.6309  0.4060
 3653SOL     OW10957   1.521   4.716   6.543 -0.2627 -0.1610 -0.1517
 3653SOL    HW110958   1.514   4.732   6.449  1.5090  1.0294 -0.1345
 3653SOL    HW210959   1.469   4.786   6.583 -2.1148 -1.4420 -0.2229
 3654SOL     OW10960   0.134   4.820   8.724  0.1538 -0.0349  0.6529
 3654SOL    HW110961   0.154   4.805   8.632  0.1189  2.3416  0.1741
 3654SOL    HW210962   0.161   4.911   8.740  2.4395 -1.0777  3.6672
 3655SOL     OW10963   4.392   1.269   7.842  0.0808 -0.2441  0.0457
 3655SOL    HW110964   4.453   1.231   7.779  0.5382  0.3210  0.1353
 3655SOL    HW210965   4.356   1.194   7.889  0.7901 -0.5838  0.0607
 3656SOL     OW10966   4.868   3.984   6.904  0.1666 -0.0756 -0.0254
 3656SOL    HW110967   4.791   3.992   6.960  1.2754 -1.1847  1.7557
 3656SOL    HW210968   4.864   4.061   6.847  0.3269  2.6215  3.2955
 3657SOL     OW10969   0.886   1.134   7.362  0.1172  0.2263 -0.3690
 3657SOL    HW110970   0.832   1.055   7.368 -1.1185  1.1144  0.7955
 3657SOL    HW210971   0.922   1.144   7.450 -0.9922  1.7992 -0.0659
 3658SOL     OW10972   4.169   3.603   8.902 -0.1974 -0.1423  0.4794
 3658SOL    HW110973   4.197   3.604   8.810 -0.8693  0.4005  0.2780
 3658SOL    HW210974   4.112   3.679   8.911  0.3732  0.1816  1.5130
 3659SOL     OW10975   3.183   3.553   5.402  0.2248 -0.4256  0.1481
 3659SOL    HW110976   3.258   3.600   5.367  0.2053 -0.9025 -0.5586
 3659SOL    HW210977   3.213   3.462   5.410  0.0893 -0.4116  0.9799
 3660SOL     OW10978   3.904   2.853   9.076 -0.1717 -0.6429 -0.2196
 3660SOL    HW110979   3.936   2.800   9.149 -0.8804  0.7235  1.1432
 3660SOL    HW210980   3.829   2.900   9.112 -0.0244  0.7049 -1.5851
 3661SOL     OW10981   0.357   1.760   7.408 -0.7666 -0.2007 -0.0249
 3661SOL    HW110982   0.316   1.845   7.426  2.2770  1.6299 -0.8807
 3661SOL    HW210983   0.431   1.757   7.469 -0.2679 -1.8004 -0.6743
 3662SOL     OW10984   3.891   1.386   9.108 -0.8084 -0.4672  0.3867
 3662SOL    HW110985   3.986   1.374   9.101 -0.6016  1.1866 -0.0306
 3662SOL    HW210986   3.859   1.371   9.019 -1.1469 -2.4144  0.8001
 3663SOL     OW10987   0.597   3.856   8.278  0.2973 -0.0836 -0.5962
 3663SOL    HW110988   0.691   3.862   8.259  0.2330 -1.3303 -1.3628
 3663SOL    HW210989   0.593   3.822   8.367  0.5728  0.1256 -0.5024
 3664SOL     OW10990   0.878   2.855   5.242  0.2189  0.0926 -0.0929
 3664SOL    HW110991   0.865   2.927   5.180  1.4202  1.8315  1.5248
 3664SOL    HW210992   0.830   2.782   5.205 -0.6317  1.5743 -2.1135
 3665SOL     OW10993   1.859   0.907   8.822  0.1558 -0.0639  0.0290
 3665SOL    HW110994   1.940   0.941   8.861  0.9476  0.6191 -2.0846
 3665SOL    HW210995   1.790   0.961   8.860  0.7657 -0.0542  1.1820
 3666SOL     OW10996   0.694   0.600   7.894 -0.7340  0.0589  0.1225
 3666SOL    HW110997   0.664   0.579   7.982 -0.4655 -0.3984  0.1058
 3666SOL    HW210998   0.789   0.595   7.899 -0.7517 -0.9320 -0.4319
 3667SOL     OW10999   1.157   1.821   7.222 -0.5400 -0.4889 -0.3405
 3667SOL    HW111000   1.213   1.803   7.297 -0.3868 -1.3207 -0.6467
 3667SOL    HW211001   1.168   1.745   7.165 -0.7769  0.0611 -1.1299
 3668SOL     OW11002   3.021   2.526   6.611 -0.3363 -0.3246  0.3757
 3668SOL    HW111003   2.994   2.447   6.658 -1.1697 -0.6806 -0.6666
 3668SOL    HW211004   3.039   2.496   6.522  1.7789  0.2365  0.5528
 3669SOL     OW11005   2.866   3.098   8.228  0.0457  0.4524  0.1123
 3669SOL    HW111006   2.835   3.183   8.195  1.5556  0.5503 -1.1190
 3669SOL    HW211007   2.811   3.082   8.305 -0.4192  2.4387  0.2555
 3670SOL     OW11008   1.899   4.812   7.842 -0.0218  0.3062 -0.0468
 3670SOL    HW111009   1.953   4.759   7.785  0.9578  0.9825  0.2296
 3670SOL    HW211010   1.809   4.796   7.812  0.2430 -1.4369 -0.0012
 3671SOL     OW11011   0.560   4.241   7.209  0.3439  0.1285 -0.2972
 3671SOL    HW111012   0.494   4.272   7.270  0.6881  0.0098  0.1377
 3671SOL    HW211013   0.599   4.165   7.251  0.2433 -0.2512 -0.8850
 3672SOL     OW11014   4.503   0.118   6.813  0.0181  0.4460  0.0014
 3672SOL    HW111015   4.452   0.056   6.865 -0.0472  0.6433  0.1716
 3672SOL    HW211016   4.537   0.066   6.740 -0.1345  0.2365  0.0803
 3673SOL     OW11017   0.261   0.998   9.832 -0.4349 -0.3294 -0.4744
 3673SOL    HW111018   0.254   0.991   9.737 -0.8266 -0.6189 -0.4272
 3673SOL    HW211019   0.197   0.935   9.865 -2.2481  1.6439 -0.0068
 3674SOL     OW11020   1.323   2.016  10.259  0.3059 -0.1375 -0.1366
 3674SOL    HW111021   1.243   2.051  10.219 -0.6987 -0.1453  1.7496
 3674SOL    HW211022   1.322   2.050  10.348  1.7809 -1.1533  0.3014
 3675SOL     OW11023   0.624   3.681   6.775 -0.5910  0.1290 -0.1069
 3675SOL    HW111024   0.543   3.726   6.800 -0.5550  1.2317 -1.7845
 3675SOL    HW211025   0.665   3.739   6.711  3.0040  1.0346  2.6522
 3676SOL     OW11026   0.312   2.393   6.327 -0.2065  0.3491  0.2199
 3676SOL    HW111027   0.283   2.317   6.276  0.1820  1.3099 -1.4872
 3676SOL    HW211028   0.245   2.403   6.395  0.5126 -2.4197  1.4956
 3677SOL     OW11029   4.248   1.447   8.965 -0.0949  0.1767 -0.2818
 3677SOL    HW111030   4.232   1.373   9.025 -1.6585 -1.5011 -2.5934
 3677SOL    HW211031   4.222   1.524   9.016  1.2222 -0.8249  2.0959
 3678SOL     OW11032   1.040   2.327   6.765 -0.2820  0.3725  0.5200
 3678SOL    HW111033   0.986   2.312   6.843  1.3457 -0.9938  1.4621
 3678SOL    HW211034   1.038   2.422   6.753 -3.0645  0.3749  0.3163
 3679SOL     OW11035   2.458   2.903   8.387  0.2383  0.4338  0.0049
 3679SOL    HW111036   2.378   2.856   8.411 -0.0217  0.6723 -0.3872
 3679SOL    HW211037   2.483   2.867   8.302  1.3615 -0.6685  0.7527
 3680SOL     OW11038   0.106   2.723   7.191  0.4175  0.0206 -0.2929
 3680SOL    HW111039   0.043   2.752   7.125  1.6338  0.8258 -1.1347
 3680SOL    HW211040   0.177   2.683   7.141  0.9664 -0.1308  0.5878
 3681SOL     OW11041   1.451   2.298   6.267 -0.2483  0.6889 -0.4289
 3681SOL    HW111042   1.399   2.367   6.307  0.3320  0.9549 -0.1263
 3681SOL    HW211043   1.406   2.217   6.291  0.2615  0.8131  1.0618
 3682SOL     OW11044   0.717   4.953   5.952  0.1978  0.2680 -0.0022
 3682SOL    HW111045   0.788   5.011   5.926 -0.1613  1.1218  0.8710
 3682SOL    HW211046   0.677   4.996   6.027 -0.8591 -0.5067 -0.1007
 3683SOL     OW11047   2.082   2.032   6.961  0.4476  0.7253  0.1890
 3683SOL    HW111048   2.027   2.107   6.984 -0.4556  0.5412 -1.2923
 3683SOL    HW211049   2.151   2.032   7.028 -2.3617 -0.2150  3.3503
 3684SOL     OW11050   4.983   4.103   8.136  0.4561 -0.6607 -0.3606
 3684SOL    HW111051   4.888   4.098   8.130  0.4346 -0.1687 -0.5102
 3684SOL    HW211052   5.011   4.013   8.148 -0.0918 -0.7054  0.6818
 3685SOL     OW11053   3.689   3.072   7.170  0.2010 -0.9311  0.0329
 3685SOL    HW111054   3.736   2.988   7.171 -1.5433 -1.9557 -0.0911
 3685SOL    HW211055   3.703   3.105   7.081  1.9003 -0.4457  0.4306
 3686SOL     OW11056   0.539   2.649   6.666 -0.0040 -0.1826  0.3906
 3686SOL    HW111057   0.499   2.691   6.590  0.0966 -0.7979 -0.0077
 3686SOL    HW211058   0.591   2.578   6.630 -1.1352 -1.4377  1.1059
 3687SOL     OW11059   4.931   0.956   9.201  0.3525 -0.7631 -0.2954
 3687SOL    HW111060   5.003   0.996   9.250 -0.3081 -0.8239  0.7625
 3687SOL    HW211061   4.899   0.886   9.258 -2.3594  1.0379  0.5827
 3688SOL     OW11062   2.191   3.375   9.842 -0.1308 -0.2400 -0.3846
 3688SOL    HW111063   2.214   3.467   9.827 -2.5252  1.1879  3.1412
 3688SOL    HW211064   2.208   3.361   9.935 -0.5512 -3.2093 -0.6487
 3689SOL     OW11065   1.100   3.877   6.827  0.4668  0.1555  0.3310
 3689SOL    HW111066   1.029   3.829   6.869  1.8491 -1.9086  0.4295
 3689SOL    HW211067   1.167   3.885   6.895  0.2865  2.3055  0.3241
 3690SOL     OW11068   1.587   2.692   8.021 -0.3206 -0.4040 -0.1810
 3690SOL    HW111069   1.526   2.763   8.041 -0.0023  0.0032 -0.6546
 3690SOL    HW211070   1.530   2.621   7.991 -0.6137 -0.2550  0.0050
 3691SOL     OW11071   4.844   2.190   8.571  0.4502  0.4887  0.3320
 3691SOL    HW111072   4.866   2.153   8.486 -0.1498 -2.2855  1.2605
 3691SOL    HW211073   4.921   2.173   8.625 -0.5053 -1.1768  1.2534
 3692SOL     OW11074   0.291   3.851   7.854  0.7809  0.6832 -0.0283
 3692SOL    HW111075   0.203   3.819   7.873  1.0028  0.3292  0.4090
 3692SOL    HW211076   0.337   3.848   7.938  1.3630  0.3828 -0.3531
 3693SOL     OW11077   3.456   4.503   9.375 -1.0804  0.5844  0.2362
 3693SOL    HW111078   3.514   4.475   9.304 -0.5747  1.7243  0.1707
 3693SOL    HW211079   3.503   4.480   9.455 -2.1034 -1.6485  0.2759
 3694SOL     OW11080   2.878   0.768   6.731  0.2599 -0.8014 -0.6514
 3694SOL    HW111081   2.872   0.746   6.824  1.6298 -0.9516 -0.5740
 3694SOL    HW211082   2.968   0.746   6.707  1.5567  3.6624 -0.8343
 3695SOL     OW11083   4.488   2.865   5.771 -0.0280 -0.8776 -0.6165
 3695SOL    HW111084   4.569   2.871   5.821 -0.5153  1.8542 -0.0156
 3695SOL    HW211085   4.426   2.821   5.829  0.3505 -0.7936 -0.1504
 3696SOL     OW11086   1.169   3.981   9.831 -0.3034  0.3762  0.1312
 3696SOL    HW111087   1.113   4.052   9.863  0.1117 -0.3665  2.6935
 3696SOL    HW211088   1.120   3.943   9.758 -0.5774  3.1835 -1.3091
 3697SOL     OW11089   4.965   0.154   8.237 -0.5539 -0.1514  0.1987
 3697SOL    HW111090   4.971   0.233   8.290  0.3342  0.0279 -0.1415
 3697SOL    HW211091   4.885   0.164   8.186 -1.5317 -0.4208  1.6309
 3698SOL     OW11092   4.151   0.758   7.707  0.2093 -0.2625  0.6276
 3698SOL    HW111093   4.166   0.728   7.796 -0.5197 -2.3965  0.0985
 3698SOL    HW211094   4.207   0.702   7.653  0.7568  1.0946 -0.2628
 3699SOL     OW11095   1.040   4.779   5.153  0.3114  0.0394  0.5513
 3699SOL    HW111096   0.967   4.836   5.180 -0.1195 -0.4717  0.4801
 3699SOL    HW211097   1.042   4.710   5.219 -0.8795 -1.3349 -0.7635
 3700SOL     OW11098   4.432   2.109   6.695 -0.7338 -0.3994  0.6680
 3700SOL    HW111099   4.339   2.120   6.678 -1.1816 -1.8551  1.8947
 3700SOL    HW211100   4.447   2.014   6.687  0.3973 -0.3227  1.4868
 3701SOL     OW11101   4.461   2.872   8.830  0.1622 -0.4742  0.4332
 3701SOL    HW111102   4.390   2.814   8.806  0.9763 -1.9980  1.5599
 3701SOL    HW211103   4.424   2.930   8.897 -1.1473  1.5718 -1.8969
 3702SOL     OW11104   0.739   0.904   5.378 -0.3210  0.8204 -0.4568
 3702SOL    HW111105   0.729   0.815   5.411 -1.2353  0.4560 -1.6434
 3702SOL    HW211106   0.817   0.900   5.322 -2.2037 -0.1329 -3.1920
 3703SOL     OW11107   3.222   3.573   6.869  0.5721 -0.5977  0.1476
 3703SOL    HW111108   3.306   3.614   6.890  0.5512 -0.4825  0.0035
 3703SOL    HW211109   3.244   3.506   6.805  0.5932 -0.7527  0.3151
 3704SOL     OW11110   2.765   4.949   8.258  0.3051  0.7598  0.4219
 3704SOL    HW111111   2.755   4.997   8.340 -1.6702 -0.6157  1.0518
 3704SOL    HW211112   2.704   4.992   8.198 -1.4228 -0.8127  0.9700
 3705SOL     OW11113   1.193   4.389   9.492 -0.5237  0.1089  0.4990
 3705SOL    HW111114   1.179   4.424   9.580  1.0559  1.5367  0.2328
 3705SOL    HW211115   1.134   4.314   9.487 -3.0170  1.8287  1.6483
 3706SOL     OW11116   0.458   3.131   7.761 -0.0668  0.4754  0.2988
 3706SOL    HW111117   0.365   3.113   7.776 -0.5707  2.5631 -0.0403
 3706SOL    HW211118   0.471   3.112   7.669  0.3670 -1.7272  0.7628
 3707SOL     OW11119   4.597   3.842   8.799  0.2963  0.1711  0.0966
 3707SOL    HW111120   4.584   3.750   8.775 -2.1427  0.2793  0.7374
 3707SOL    HW211121   4.550   3.851   8.882 -0.3946  2.2198 -0.4674
 3708SOL     OW11122   4.228   0.950   9.818  0.2734 -0.0105  0.1955
 3708SOL    HW111123   4.320   0.941   9.791  0.7758 -0.6528  1.9686
 3708SOL    HW211124   4.180   0.895   9.757  0.8316  1.4642 -1.6906
 3709SOL     OW11125   0.926   3.524   9.822 -0.1563 -0.0538 -0.6305
 3709SOL    HW111126   0.967   3.560   9.900 -0.7270  0.2643 -0.4726
 3709SOL    HW211127   0.960   3.434   9.816  1.0646  0.4150 -0.8874
 3710SOL     OW11128   4.917   4.803   9.546 -0.3880 -0.3961 -0.1748
 3710SOL    HW111129   4.870   4.740   9.491 -1.7444 -0.2342  0.7725
 3710SOL    HW211130   4.898   4.888   9.506 -0.7960 -0.3453  0.1203
 3711SOL     OW11131   3.643   2.134   6.475  1.0988 -0.0454  0.1272
 3711SOL    HW111132   3.629   2.054   6.525  2.2215 -0.5088 -0.2708
 3711SOL    HW211133   3.729   2.165   6.504  1.0641  0.5350 -0.3767
 3712SOL     OW11134   4.707   4.314   7.986 -0.0592 -0.1832  0.5137
 3712SOL    HW111135   4.637   4.374   8.011 -3.1946 -2.8011 -1.1848
 3712SOL    HW211136   4.700   4.241   8.047  1.2017 -0.5317  0.2798
 3713SOL     OW11137   4.203   3.743   9.466 -0.3436 -1.4286  0.0772
 3713SOL    HW111138   4.298   3.737   9.453 -0.4100 -1.4516 -0.4141
 3713SOL    HW211139   4.167   3.749   9.378 -0.9508 -3.5964  0.1183
 3714SOL     OW11140   4.278   1.533   8.473  0.0569  0.3301 -0.1523
 3714SOL    HW111141   4.257   1.591   8.546  1.6461 -1.2471  1.6512
 3714SOL    HW211142   4.323   1.459   8.513 -1.3495 -1.9013 -2.4181
 3715SOL     OW11143   1.411   3.426   8.697 -0.1641  0.2155 -0.6109
 3715SOL    HW111144   1.396   3.351   8.639  0.1876 -0.8466  0.6090
 3715SOL    HW211145   1.327   3.441   8.740 -0.1549  0.3107 -0.6258
 3716SOL     OW11146   0.306   3.164  10.184  0.0926 -0.2859 -0.2223
 3716SOL    HW111147   0.230   3.160  10.243  0.1389 -1.0309 -0.2023
 3716SOL    HW211148   0.301   3.252  10.146  0.4841  0.5047  1.4300
 3717SOL     OW11149   2.049   4.725   8.087  0.2659  0.1757 -0.2127
 3717SOL    HW111150   1.975   4.729   8.148  0.2409 -0.3172 -0.2065
 3717SOL    HW211151   2.014   4.756   8.004 -0.8723 -3.0801 -1.0863
 3718SOL     OW11152   4.080   2.404   7.568 -0.3051  0.2207  0.9571
 3718SOL    HW111153   4.103   2.475   7.509 -0.8497 -0.9683 -0.7918
 3718SOL    HW211154   3.986   2.392   7.556 -0.9259  1.3957  3.8287
 3719SOL     OW11155   2.065   3.396   8.780  0.1075 -0.0471 -0.4667
 3719SOL    HW111156   2.042   3.334   8.850 -0.0101 -1.3885 -1.6329
 3719SOL    HW211157   2.121   3.461   8.823  0.3588 -1.0430  0.7916
 3720SOL     OW11158   4.139   2.666   7.415 -0.0054 -0.2662 -0.0482
 3720SOL    HW111159   4.215   2.701   7.369  0.2104 -1.7140 -0.8157
 3720SOL    HW211160   4.064   2.705   7.370  0.2326  1.1640  0.7075
 3721SOL     OW11161   0.419   3.724   9.992  0.6583 -0.3762 -0.1836
 3721SOL    HW111162   0.403   3.760   9.905  1.6685  1.5363  0.3630
 3721SOL    HW211163   0.478   3.650   9.977 -1.0268 -1.5578 -1.2982
 3722SOL     OW11164   3.826   3.898   5.968 -0.1686 -0.1609  0.0478
 3722SOL    HW111165   3.759   3.951   6.012  0.4311  0.2177  0.5310
 3722SOL    HW211166   3.825   3.814   6.014 -0.8474 -0.4310 -0.4574
 3723SOL     OW11167   2.399   3.900   9.936 -0.2605  0.5007 -1.1631
 3723SOL    HW111168   2.349   3.930   9.860  0.4473  0.6875 -1.5625
 3723SOL    HW211169   2.488   3.885   9.902  0.0632  0.5855 -0.3781
 3724SOL     OW11170   2.790   3.274   9.466  0.0061  0.1779 -0.3896
 3724SOL    HW111171   2.794   3.362   9.428  0.6034  0.6556  0.7295
 3724SOL    HW211172   2.859   3.225   9.421  1.2532  0.9661  0.6022
 3725SOL     OW11173   0.772   3.616   9.186 -0.2430  1.1519 -0.0523
 3725SOL    HW111174   0.717   3.550   9.143  1.0685  0.8434 -1.3401
 3725SOL    HW211175   0.771   3.690   9.126 -0.3863  1.6903  0.6068
 3726SOL     OW11176   2.655   2.402   9.379  0.5981  0.0717  0.4260
 3726SOL    HW111177   2.664   2.307   9.377  0.1571  0.0395 -0.7301
 3726SOL    HW211178   2.576   2.420   9.328  1.5213  1.1502 -0.6941
 3727SOL     OW11179   1.291   3.107   9.140  0.4856 -0.3291 -0.3167
 3727SOL    HW111180   1.279   3.172   9.209 -0.8764 -0.1426 -0.6969
 3727SOL    HW211181   1.385   3.092   9.137  0.8956  2.0378 -0.6051
 3728SOL     OW11182   1.766   1.725   6.273  0.4770  0.4517  0.1366
 3728SOL    HW111183   1.812   1.710   6.356  2.4226  2.4923 -0.4607
 3728SOL    HW211184   1.789   1.649   6.219 -0.1586 -0.4991  1.1708
 3729SOL     OW11185   0.027   1.870   9.202 -0.2936 -0.1536 -0.6992
 3729SOL    HW111186   0.100   1.814   9.227 -0.0281  0.1941 -0.6755
 3729SOL    HW211187   0.008   1.847   9.111 -1.8315 -2.0390  0.0472
 3730SOL     OW11188   3.802   0.133  10.256 -0.2495  0.3161  0.4145
 3730SOL    HW111189   3.882   0.185  10.271 -0.5738  1.2541 -0.9134
 3730SOL    HW211190   3.747   0.151  10.332  1.7079 -2.2747  2.6394
 3731SOL     OW11191   0.701   1.827   9.943  0.5205  0.9488  0.2829
 3731SOL    HW111192   0.739   1.889  10.005 -0.2726  0.9258  0.7945
 3731SOL    HW211193   0.651   1.766   9.996  2.1528 -0.8189 -0.0982
 3732SOL     OW11194   2.478   1.051   6.409 -0.5894 -0.3849  0.2398
 3732SOL    HW111195   2.533   0.982   6.373  3.0531  1.0887  2.4202
 3732SOL    HW211196   2.468   1.113   6.337 -0.0430 -1.0716 -0.4427
 3733SOL     OW11197   1.333   2.611   9.078 -0.0086  0.5448 -0.1888
 3733SOL    HW111198   1.318   2.679   9.144 -0.3555 -0.0251  0.3309
 3733SOL    HW211199   1.251   2.607   9.028  0.6923  1.8702 -1.5158
 3734SOL     OW11200   3.919   3.013   8.671  0.2797  0.0004 -0.2366
 3734SOL    HW111201   3.909   3.101   8.634 -0.3724  0.4923  1.0680
 3734SOL    HW211202   3.832   2.974   8.663  0.5376 -0.4995 -0.6911
 3735SOL     OW11203   3.095   1.840   7.099  0.2638 -0.4873 -0.0864
 3735SOL    HW111204   3.080   1.746   7.088  0.7163 -0.7539  1.3992
 3735SOL    HW211205   3.042   1.864   7.176  1.0672  0.2199  0.2628
 3736SOL     OW11206   0.072   1.620   9.300 -0.3776 -0.0420  0.8008
 3736SOL    HW111207   0.111   1.569   9.371 -1.2976 -0.5958  0.9248
 3736SOL    HW211208  -0.019   1.633   9.326 -1.4370 -2.3572 -1.3516
 3737SOL     OW11209   3.531   3.255   9.569  0.6291  0.7955  0.0640
 3737SOL    HW111210   3.578   3.214   9.642  0.7450  1.2028  0.2231
 3737SOL    HW211211   3.465   3.191   9.544  0.2951  0.8326  0.8230
 3738SOL     OW11212   4.352   4.958   6.978  0.2324  0.1460 -0.5087
 3738SOL    HW111213   4.372   5.006   7.058 -2.2582  0.6882 -0.1267
 3738SOL    HW211214   4.262   4.928   6.990 -0.1190 -0.0153 -3.0038
 3739SOL     OW11215   1.582   4.739   8.577 -0.6002  0.6227  0.5971
 3739SOL    HW111216   1.499   4.716   8.619 -0.5238 -1.9438 -0.4652
 3739SOL    HW211217   1.588   4.680   8.502  0.6600  2.9931 -1.3445
 3740SOL     OW11218   3.354   2.600   9.397  0.0806 -0.5060 -0.3703
 3740SOL    HW111219   3.407   2.563   9.468  1.6058  0.8049 -0.7824
 3740SOL    HW211220   3.407   2.587   9.318 -0.8159 -0.3447 -1.0141
 3741SOL     OW11221   3.545   4.879   8.009  0.3826 -0.0087  0.1754
 3741SOL    HW111222   3.633   4.896   7.976  0.5637  0.7306  0.9748
 3741SOL    HW211223   3.552   4.894   8.103 -0.6809  0.4434  0.1966
 3742SOL     OW11224   2.896   1.878   9.465  0.0083 -0.5466  0.6643
 3742SOL    HW111225   2.934   1.818   9.401  1.4428  0.6510  0.3574
 3742SOL    HW211226   2.821   1.917   9.420  1.2068  0.5400 -0.4568
 3743SOL     OW11227   0.566   4.646   9.013 -0.4326 -0.2894  0.1539
 3743SOL    HW111228   0.582   4.618   8.922 -1.5702  1.0105 -0.4866
 3743SOL    HW211229   0.477   4.681   9.011  0.9905  3.8599  0.6775
 3744SOL     OW11230   3.302   2.980   8.080 -0.0672 -0.1512  0.2316
 3744SOL    HW111231   3.290   2.887   8.065 -1.0176 -0.1632  0.9379
 3744SOL    HW211232   3.247   2.999   8.157 -0.0726  1.0238 -0.0390
 3745SOL     OW11233   1.270   0.883   6.209 -0.2787 -0.3536  0.2810
 3745SOL    HW111234   1.359   0.847   6.204 -0.1138 -0.0253  0.7831
 3745SOL    HW211235   1.213   0.807   6.221 -0.1431 -0.6399 -0.7508
 3746SOL     OW11236   3.472   0.474   8.698 -0.0494  0.8649  0.2677
 3746SOL    HW111237   3.544   0.454   8.757  1.3301  0.1956 -1.5595
 3746SOL    HW211238   3.477   0.569   8.684 -1.1715  1.2407  2.1354
 3747SOL     OW11239   0.523   3.321  10.067  0.2238 -0.1693 -0.1006
 3747SOL    HW111240   0.435   3.345  10.039  0.0577 -1.1395 -0.4770
 3747SOL    HW211241   0.581   3.379  10.018 -0.0562 -1.7999 -2.5428
 3748SOL     OW11242   4.620   2.164   8.818 -0.2591 -0.0960 -0.2059
 3748SOL    HW111243   4.654   2.252   8.833 -0.2733 -0.4567  2.2544
 3748SOL    HW211244   4.691   2.106   8.845 -0.9332 -0.8380  0.0171
 3749SOL     OW11245   3.506   1.969   9.095 -0.0658  0.3387 -0.0760
 3749SOL    HW111246   3.529   2.035   9.029  2.0345  0.3141  0.5653
 3749SOL    HW211247   3.497   2.019   9.176  0.3588  0.0072  0.1815
 3750SOL     OW11248   0.113   3.525   9.216 -0.3339 -0.0860 -0.0442
 3750SOL    HW111249   0.108   3.490   9.127 -0.4910 -0.2672  0.0363
 3750SOL    HW211250   0.206   3.538   9.231 -0.2679 -0.5605 -0.0369
 3751SOL     OW11251   0.998   3.898   7.843  0.1722 -0.5168 -0.0181
 3751SOL    HW111252   0.965   3.809   7.847  0.3773 -0.5595  2.0019
 3751SOL    HW211253   1.074   3.898   7.901  1.4046  0.5073 -1.5523
 3752SOL     OW11254   3.933   1.976   8.212  0.4240 -0.0552  0.5371
 3752SOL    HW111255   3.886   2.057   8.234  1.4506  0.5697  0.4880
 3752SOL    HW211256   3.875   1.930   8.152  1.0844  2.0770 -1.8821
 3753SOL     OW11257   4.864   2.297   6.357  0.4639  0.0956 -0.5843
 3753SOL    HW111258   4.923   2.281   6.431  0.9980  0.7516 -0.8595
 3753SOL    HW211259   4.784   2.249   6.379  1.2849 -1.2794 -0.4514
 3754SOL     OW11260   4.043   3.438   7.563  0.3521 -0.1598 -0.2774
 3754SOL    HW111261   3.973   3.387   7.603  0.8497 -0.1627  0.6269
 3754SOL    HW211262   4.118   3.426   7.622 -0.0678  3.3149  1.1974
 3755SOL     OW11263   2.105   2.885   7.519 -0.0517 -0.9156 -0.3329
 3755SOL    HW111264   2.110   2.972   7.559  0.4486 -0.5840 -1.0940
 3755SOL    HW211265   2.035   2.893   7.454  0.3153 -0.9327 -0.7375
 3756SOL     OW11266   4.857   0.092   9.635  0.5166 -0.0033  0.0032
 3756SOL    HW111267   4.781   0.039   9.661 -0.2633  1.0466 -0.0373
 3756SOL    HW211268   4.854   0.168   9.694  0.8283  0.6439 -0.7974
 3757SOL     OW11269   3.482   1.014   9.564 -0.3882  0.0141 -0.5590
 3757SOL    HW111270   3.445   0.976   9.484 -1.8444 -0.9049  0.5123
 3757SOL    HW211271   3.507   1.103   9.539  0.3555 -0.6430 -2.3469
 3758SOL     OW11272   4.252   1.449   9.437 -0.0672 -0.1248 -0.4001
 3758SOL    HW111273   4.300   1.530   9.455 -1.1095  0.8400 -1.7141
 3758SOL    HW211274   4.188   1.443   9.507  1.3093 -0.9142  0.8300
 3759SOL     OW11275   1.027   0.059   9.873 -0.3994  0.3583  0.4093
 3759SOL    HW111276   0.977   0.075   9.952  0.0874 -0.2400  0.8472
 3759SOL    HW211277   0.981  -0.012   9.828 -0.5144  0.5021  0.2992
 3760SOL     OW11278   4.661   1.935   8.388 -0.0814 -0.1345  0.1019
 3760SOL    HW111279   4.646   1.881   8.465  0.1945 -0.7299 -0.2565
 3760SOL    HW211280   4.749   1.971   8.400  0.4195 -1.1239 -0.4529
 3761SOL     OW11281   4.363   2.220   7.168 -0.1626 -0.5175 -0.4397
 3761SOL    HW111282   4.430   2.287   7.179 -1.0978  0.4374 -0.4112
 3761SOL    HW211283   4.283   2.268   7.145 -0.4217 -1.7436 -2.3986
 3762SOL     OW11284   4.042   3.156   8.875 -0.5490 -0.1185  0.0668
 3762SOL    HW111285   3.983   3.091   8.835  0.5010  0.5938 -2.9464
 3762SOL    HW211286   3.994   3.238   8.868 -0.4997 -0.0375  0.6790
 3763SOL     OW11287   3.365   1.463   6.422 -0.2817  0.0681 -0.0423
 3763SOL    HW111288   3.395   1.552   6.443 -1.7139  0.3089  1.2595
 3763SOL    HW211289   3.439   1.407   6.442  0.7033  0.9782 -1.0495
 3764SOL     OW11290   1.344   3.644   7.782  0.0704  0.0471  0.2011
 3764SOL    HW111291   1.400   3.656   7.858 -0.7748  0.2244  0.8207
 3764SOL    HW211292   1.339   3.731   7.742  0.6425 -0.0811 -0.1513
 3765SOL     OW11293   3.899   1.686   8.887  0.5923  0.4238  0.4507
 3765SOL    HW111294   3.921   1.768   8.931 -4.0302  2.0833  0.2397
 3765SOL    HW211295   3.869   1.628   8.957  0.2477  0.3719  0.2669
 3766SOL     OW11296   1.764   2.578   9.742  0.0774  0.0767  0.2266
 3766SOL    HW111297   1.758   2.673   9.754 -0.0578  0.0327  0.5210
 3766SOL    HW211298   1.696   2.542   9.799  1.5665 -0.2976  1.8659
 3767SOL     OW11299   4.687   3.579   9.002 -0.0414 -0.2079  0.1954
 3767SOL    HW111300   4.624   3.577   8.929 -0.1946  0.0816  0.3215
 3767SOL    HW211301   4.750   3.646   8.977  2.3617 -2.9225 -1.7100
 3768SOL     OW11302   0.252   0.367   9.058 -0.3054 -0.4568  0.0427
 3768SOL    HW111303   0.298   0.351   8.975 -1.1278 -2.3299 -0.0977
 3768SOL    HW211304   0.234   0.461   9.057 -0.3198 -0.4327 -1.9293
 3769SOL     OW11305   3.996   4.724   9.044  0.3291 -0.0280  0.2345
 3769SOL    HW111306   3.941   4.723   8.965 -1.9800 -0.0984  1.7259
 3769SOL    HW211307   4.052   4.801   9.033  0.5976 -0.4568 -1.7806
 3770SOL     OW11308   3.294   1.639   8.287  0.9185  0.1280 -0.0566
 3770SOL    HW111309   3.233   1.566   8.281  1.7426 -0.5507 -0.4145
 3770SOL    HW211310   3.239   1.716   8.298  0.0050 -0.4620 -0.4258
 3771SOL     OW11311   1.522   3.193   7.586 -0.2489 -0.4466 -0.4555
 3771SOL    HW111312   1.491   3.192   7.496 -0.3034  1.2042 -0.4934
 3771SOL    HW211313   1.444   3.174   7.639 -0.9493  1.6613 -0.6468
 3772SOL     OW11314   2.366   3.464   9.493 -0.0913  0.8098 -0.4157
 3772SOL    HW111315   2.338   3.393   9.551 -1.8164  1.8333  0.0605
 3772SOL    HW211316   2.393   3.419   9.413 -0.5599 -0.4335  0.0972
 3773SOL     OW11317   1.383   4.923   9.196  0.3448  0.3036  0.2221
 3773SOL    HW111318   1.364   4.868   9.120  2.2423 -1.3828  0.8452
 3773SOL    HW211319   1.438   4.993   9.162 -2.2811  2.0721 -0.6255
 3774SOL     OW11320   0.406   3.227   9.088  0.2241  0.4863  0.4034
 3774SOL    HW111321   0.468   3.202   9.157 -1.7226  0.0459  2.0955
 3774SOL    HW211322   0.326   3.180   9.111 -0.4150  0.0915 -2.3846
 3775SOL     OW11323   3.872   0.494   6.812  0.6030  0.3392  0.4593
 3775SOL    HW111324   3.857   0.587   6.792 -2.0360  0.1074  0.9709
 3775SOL    HW211325   3.879   0.452   6.726 -0.2023  0.7462  0.1849
 3776SOL     OW11326   1.812   2.654   8.391  0.5246 -0.5736  0.2434
 3776SOL    HW111327   1.885   2.676   8.333 -0.3559  0.2825 -0.5801
 3776SOL    HW211328   1.814   2.723   8.458  0.2031 -0.2685 -0.0526
 3777SOL     OW11329   4.202   2.747   8.243  0.4963  0.6999  0.6545
 3777SOL    HW111330   4.191   2.825   8.297  1.5418  0.0605  1.8431
 3777SOL    HW211331   4.167   2.675   8.296  2.8018 -0.1442  1.1555
 3778SOL     OW11332   3.720   4.399   9.232  0.3377  0.6036 -0.5687
 3778SOL    HW111333   3.687   4.488   9.241  0.0499  0.4574 -0.1540
 3778SOL    HW211334   3.787   4.405   9.164 -1.9881  0.5067 -2.9996
 3779SOL     OW11335   2.166   3.577   7.845  0.4818 -0.7229 -0.2480
 3779SOL    HW111336   2.255   3.541   7.847 -0.3745 -2.9851  0.6029
 3779SOL    HW211337   2.116   3.512   7.797 -1.3935 -1.3202  2.3070
 3780SOL     OW11338   1.302   1.722  10.297 -0.0312  0.9185 -0.2593
 3780SOL    HW111339   1.356   1.800  10.282 -0.1999  1.0915  0.0224
 3780SOL    HW211340   1.232   1.753  10.354 -0.2226  0.6085 -0.3271
 3781SOL     OW11341   3.505   2.855   8.776 -1.1090  0.0025 -0.2208
 3781SOL    HW111342   3.519   2.907   8.855 -0.6218 -1.9101  1.0376
 3781SOL    HW211343   3.593   2.840   8.741 -1.1829 -0.4084 -0.2436
 3782SOL     OW11344   3.127   4.527   9.771  0.3831  0.6513  0.2626
 3782SOL    HW111345   3.088   4.461   9.829 -0.4160  1.4941  0.7184
 3782SOL    HW211346   3.181   4.580   9.829  2.3961 -0.5959 -0.3942
 3783SOL     OW11347   1.180   2.319   8.812  0.3469  0.0867  0.6637
 3783SOL    HW111348   1.104   2.355   8.768 -0.4079 -0.5221  1.4346
 3783SOL    HW211349   1.154   2.312   8.904  0.9462 -1.0856  0.7717
 3784SOL     OW11350   2.903   3.597   7.924 -0.0286  0.1486  0.0191
 3784SOL    HW111351   2.875   3.629   8.010  1.3278 -0.6012  0.7913
 3784SOL    HW211352   2.865   3.658   7.862  0.2675  1.6855  1.2636
 3785SOL     OW11353   0.484   0.855   7.183 -0.3017  0.5034  0.5975
 3785SOL    HW111354   0.455   0.839   7.093 -0.3751  0.2520  0.6661
 3785SOL    HW211355   0.483   0.950   7.191  0.0823  0.5463  0.2054
 3786SOL     OW11356   1.557   2.153   9.682 -0.5634  0.2818  0.1870
 3786SOL    HW111357   1.646   2.179   9.708 -0.7880  1.0574  0.1931
 3786SOL    HW211358   1.556   2.058   9.695 -0.5477  0.5620  2.6684
 3787SOL     OW11359   4.385   2.905   6.710 -0.0968 -0.5121  0.0467
 3787SOL    HW111360   4.316   2.954   6.666 -1.4389 -1.7624  0.6873
 3787SOL    HW211361   4.408   2.958   6.787  0.2121  0.2722 -0.5804
 3788SOL     OW11362   4.722   2.200   9.822  0.7151  0.4874 -0.1458
 3788SOL    HW111363   4.680   2.225   9.740 -0.9136 -0.1721  0.4384
 3788SOL    HW211364   4.705   2.274   9.880  0.7393  0.4062 -0.0364
 3789SOL     OW11365   3.910   4.455   7.814  0.2304  0.1513 -0.3682
 3789SOL    HW111366   3.862   4.473   7.733  1.7651 -2.3678 -2.0013
 3789SOL    HW211367   3.847   4.413   7.871 -0.9157  2.0851 -0.1379
 3790SOL     OW11368   1.132   2.450   6.230  0.5151  0.4142 -0.1974
 3790SOL    HW111369   1.094   2.402   6.157  2.1688 -1.6762  0.2212
 3790SOL    HW211370   1.095   2.408   6.308  0.2000  1.4072  0.2183
 3791SOL     OW11371   1.713   1.454   7.296  0.5337 -0.5252  0.2094
 3791SOL    HW111372   1.638   1.503   7.330  0.5409 -0.8601  0.7063
 3791SOL    HW211373   1.752   1.512   7.230  0.9977  0.4624  1.3246
 3792SOL     OW11374   3.165   2.812   7.800  0.0149  0.5261 -0.4350
 3792SOL    HW111375   3.227   2.794   7.730 -0.0070  2.4791 -0.9992
 3792SOL    HW211376   3.101   2.871   7.761 -2.3105 -1.4765  0.1032
 3793SOL     OW11377   4.403   1.393   9.910 -0.0088  0.0297  0.0888
 3793SOL    HW111378   4.328   1.398   9.969  1.0819 -0.5079  1.5790
 3793SOL    HW211379   4.449   1.476   9.923  0.4331 -0.2436  0.2619
 3794SOL     OW11380   3.695   2.938   9.239  0.5821  0.3159 -0.9218
 3794SOL    HW111381   3.739   2.986   9.309 -0.4175  1.7655 -1.2276
 3794SOL    HW211382   3.647   2.868   9.284 -0.3329  1.4398 -0.0942
 3795SOL     OW11383   3.217   0.381   9.254  0.1297  0.0380  0.1532
 3795SOL    HW111384   3.209   0.434   9.334 -3.0331  2.8143 -1.7411
 3795SOL    HW211385   3.281   0.429   9.201  1.3597 -1.1761  0.4770
 3796SOL     OW11386   0.353   3.129   7.107 -0.2759 -0.4786  0.0019
 3796SOL    HW111387   0.394   3.204   7.151 -2.5333  0.5257  0.5278
 3796SOL    HW211388   0.390   3.052   7.151 -0.6435  0.4439  2.0052
 3797SOL     OW11389   2.745   2.969   6.364  0.4898  0.7061  0.3113
 3797SOL    HW111390   2.671   3.007   6.318  0.9101  2.0860  0.7448
 3797SOL    HW211391   2.821   2.993   6.312  0.5500 -2.3760 -1.2477
 3798SOL     OW11392   3.138   1.157   7.533  0.4608 -0.4300 -0.2840
 3798SOL    HW111393   3.134   1.245   7.495 -0.3382 -0.8386 -1.2171
 3798SOL    HW211394   3.228   1.130   7.522  1.1386  0.8684  1.4923
 3799SOL     OW11395   0.474   4.513   9.726 -0.3909 -0.2525 -0.6732
 3799SOL    HW111396   0.559   4.478   9.752  0.4229  1.3893 -0.9671
 3799SOL    HW211397   0.429   4.529   9.809  0.6074  1.1910 -0.3609
 3800SOL     OW11398   4.562   2.697   9.605 -0.1877  0.1457 -0.2478
 3800SOL    HW111399   4.584   2.779   9.560  2.6336 -0.3612  0.0367
 3800SOL    HW211400   4.525   2.641   9.537  0.2641  0.7751 -1.0220
 3801SOL     OW11401   3.667   3.228   9.087  0.6440  0.0819 -0.8320
 3801SOL    HW111402   3.743   3.284   9.070 -0.3617  1.5382 -0.7378
 3801SOL    HW211403   3.687   3.185   9.170  0.0392  3.0241  1.0298
 3802SOL     OW11404   2.140   4.901   9.241 -0.6874 -0.0763 -0.0653
 3802SOL    HW111405   2.149   4.993   9.264 -2.1174  0.1114 -0.1166
 3802SOL    HW211406   2.170   4.853   9.318  0.3041  0.4108 -0.1305
 3803SOL     OW11407   3.151   4.611   9.287 -0.3732  0.1457 -0.9469
 3803SOL    HW111408   3.221   4.583   9.346 -0.1781 -1.1571 -1.7571
 3803SOL    HW211409   3.162   4.706   9.281 -1.0215  0.4933  1.8435
 3804SOL     OW11410   2.325   4.521   6.014 -0.2527  0.9232 -0.0622
 3804SOL    HW111411   2.255   4.474   6.060 -0.5562  0.2811 -1.1342
 3804SOL    HW211412   2.398   4.522   6.075  0.1058 -1.8137 -0.2971
 3805SOL     OW11413   2.397   0.128   6.986 -0.2128  0.0638  0.7290
 3805SOL    HW111414   2.481   0.095   6.956 -0.2333  0.5447  0.1220
 3805SOL    HW211415   2.397   0.112   7.081  0.7408  0.4565  0.8107
 3806SOL     OW11416   2.148   2.414   5.416 -0.0927  0.3330  0.3192
 3806SOL    HW111417   2.210   2.475   5.456 -1.4746  1.8024  0.3507
 3806SOL    HW211418   2.086   2.394   5.487 -0.7592  0.4597 -0.2145
 3807SOL     OW11419   0.555   0.431   6.433  0.2435 -0.1658 -0.3228
 3807SOL    HW111420   0.609   0.503   6.400  0.7821  0.4012  1.6833
 3807SOL    HW211421   0.618   0.361   6.451  0.0177 -0.3197 -0.1272
 3808SOL     OW11422   3.836   4.201   5.306 -0.3784  0.1542 -0.5364
 3808SOL    HW111423   3.852   4.282   5.354  0.2320 -0.0857 -0.3187
 3808SOL    HW211424   3.781   4.148   5.364 -0.0935  0.0847 -0.3273
 3809SOL     OW11425   4.985   4.154   6.405  0.4177  0.0112 -0.0713
 3809SOL    HW111426   4.979   4.060   6.420  0.2183 -0.0225 -0.3382
 3809SOL    HW211427   4.921   4.171   6.335 -0.0066  0.4469  0.4099
 3810SOL     OW11428   1.437   2.613   6.223 -0.1850 -0.3558  0.3698
 3810SOL    HW111429   1.457   2.673   6.151  1.7901 -2.5647 -1.0757
 3810SOL    HW211430   1.520   2.605   6.271 -0.5293 -1.5707  0.7910
 3811SOL     OW11431   0.132   3.540   5.412  0.0457  0.4089  0.3639
 3811SOL    HW111432   0.116   3.590   5.332  1.1030  0.2874  0.0664
 3811SOL    HW211433   0.045   3.529   5.450 -0.8124 -1.4565 -1.9051
 3812SOL     OW11434   2.079   2.043   4.825 -0.1976  0.9252 -0.0886
 3812SOL    HW111435   2.021   2.015   4.895 -1.0524  0.6471 -0.8803
 3812SOL    HW211436   2.043   2.127   4.796 -0.8183  0.2872 -1.2422
 3813SOL     OW11437   0.299   3.478   7.066  0.1007  0.1708 -0.1789
 3813SOL    HW111438   0.389   3.499   7.039 -0.4461  1.2722 -1.2008
 3813SOL    HW211439   0.263   3.427   6.994  0.2304 -1.2466  0.7158
 3814SOL     OW11440   4.135   2.718   4.902  0.9603  0.4879 -0.2007
 3814SOL    HW111441   4.219   2.713   4.856  1.1880  0.5130  0.2093
 3814SOL    HW211442   4.106   2.809   4.890  2.0340  1.0968  1.4619
 3815SOL     OW11443   2.768   4.839   6.017  0.2692 -0.5981 -0.1492
 3815SOL    HW111444   2.683   4.864   6.054 -0.3324  0.6295 -2.1436
 3815SOL    HW211445   2.808   4.922   5.991  1.3049 -1.2736 -0.7815
 3816SOL     OW11446   1.913   0.399   6.013  0.3451  0.8641  0.4492
 3816SOL    HW111447   1.825   0.361   6.016  1.8404 -3.6250 -2.4448
 3816SOL    HW211448   1.950   0.382   6.100 -1.4544  2.6927  1.6548
 3817SOL     OW11449   0.507   4.714   6.043  0.4712 -0.0739  0.6811
 3817SOL    HW111450   0.488   4.790   5.987  2.0956 -0.4404 -0.4563
 3817SOL    HW211451   0.596   4.689   6.019  0.8266 -0.9214  2.7275
 3818SOL     OW11452   0.166   4.781   4.898  0.6392 -0.2807 -0.0890
 3818SOL    HW111453   0.168   4.686   4.907  0.5706 -0.6501 -3.0229
 3818SOL    HW211454   0.105   4.797   4.826  0.7719  1.9855  0.2321
 3819SOL     OW11455   0.609   2.970   5.980  0.1978  0.6029 -0.0457
 3819SOL    HW111456   0.617   2.888   6.028 -1.4109  2.2489  3.4448
 3819SOL    HW211457   0.691   2.978   5.931  0.2123 -3.2089 -0.9838
 3820SOL     OW11458   4.139   4.706   5.954 -0.0872  0.1784 -0.3607
 3820SOL    HW111459   4.232   4.722   5.940  0.2685 -2.4039 -1.5154
 3820SOL    HW211460   4.130   4.610   5.950 -2.4028  0.1548  2.3987
 3821SOL     OW11461   4.096   4.683   5.437  0.0715  0.3003  0.7115
 3821SOL    HW111462   4.125   4.704   5.526 -0.1219  0.3789  0.7551
 3821SOL    HW211463   4.167   4.714   5.381 -1.2604  3.5004  0.5440
 3822SOL     OW11464   1.723   1.272   6.773 -0.1913  0.2332 -0.2608
 3822SOL    HW111465   1.687   1.213   6.706  1.8078 -2.3735  0.7587
 3822SOL    HW211466   1.735   1.216   6.849  1.4743  2.0919  0.9300
 3823SOL     OW11467   0.191   4.587   6.756  0.3332  0.5134 -0.5796
 3823SOL    HW111468   0.219   4.638   6.831  0.1173 -0.5461  0.2445
 3823SOL    HW211469   0.270   4.541   6.727  0.4188  0.9288 -1.0185
 3824SOL     OW11470   0.211   4.494   7.075 -0.3165  0.3524 -0.5940
 3824SOL    HW111471   0.261   4.461   7.000  0.2696 -1.3879  0.5111
 3824SOL    HW211472   0.122   4.507   7.040 -0.2059 -1.0086 -1.4630
 3825SOL     OW11473   0.285   0.926   5.745 -0.5088  0.3602  0.5278
 3825SOL    HW111474   0.270   0.850   5.802  0.7088 -0.5637 -0.3313
 3825SOL    HW211475   0.250   0.900   5.660  1.9862 -0.2587 -0.4181
 3826SOL     OW11476   1.932   2.617   5.261  0.3549 -0.0768 -0.3782
 3826SOL    HW111477   1.970   2.595   5.346  0.5010 -0.6116 -0.5840
 3826SOL    HW211478   1.909   2.533   5.222 -3.5596  0.1936  0.8673
 3827SOL     OW11479   3.331   0.771   8.171  0.3685  0.2575  0.0169
 3827SOL    HW111480   3.354   0.772   8.264 -0.6819 -1.0227  0.3069
 3827SOL    HW211481   3.411   0.800   8.127  0.8468  1.0130  1.3088
 3828SOL     OW11482   4.207   4.808   5.650 -0.5722 -0.2254  0.2736
 3828SOL    HW111483   4.295   4.777   5.673 -0.6127 -0.8505 -0.3823
 3828SOL    HW211484   4.191   4.881   5.710  0.1662 -0.4659  0.7801
 3829SOL     OW11485   3.024   4.700   5.582 -0.1056 -0.4427  0.7927
 3829SOL    HW111486   3.003   4.608   5.562  0.8351 -0.5969  0.4824
 3829SOL    HW211487   2.938   4.741   5.593 -0.5383 -1.5099  1.6777
 3830SOL     OW11488   0.851   4.405   6.411 -0.6479  0.4185 -0.5461
 3830SOL    HW111489   0.870   4.447   6.327  2.0715  0.0041 -0.2253
 3830SOL    HW211490   0.851   4.312   6.391  3.6863  0.0223  0.3417
 3831SOL     OW11491   4.540   2.628   6.348 -0.2000 -0.3935 -0.1283
 3831SOL    HW111492   4.462   2.592   6.391 -0.6543 -0.1828 -0.7596
 3831SOL    HW211493   4.567   2.700   6.405 -0.9155  0.0074 -0.2699
 3832SOL     OW11494   3.073   3.433   9.744 -0.5103 -0.4370  0.3948
 3832SOL    HW111495   2.987   3.415   9.707 -0.5891  0.4822  0.0964
 3832SOL    HW211496   3.060   3.435   9.838 -0.7191 -0.7848  0.3720
 3833SOL     OW11497   4.293   2.048   5.070  0.3047  0.5791  0.2567
 3833SOL    HW111498   4.288   2.139   5.041 -2.6411  0.5678  0.4153
 3833SOL    HW211499   4.247   2.047   5.155 -1.6192 -1.3268 -0.6975
 3834SOL     OW11500   4.370   4.761   5.147 -0.3344 -0.6331  0.1817
 3834SOL    HW111501   4.301   4.698   5.126  0.2142 -0.9044 -0.8556
 3834SOL    HW211502   4.369   4.766   5.243 -2.2225 -0.1201  0.1712
 3835SOL     OW11503   2.371   0.694   5.077  0.4831 -0.5055  0.0317
 3835SOL    HW111504   2.453   0.645   5.075  1.5952  1.1760  1.6320
 3835SOL    HW211505   2.376   0.746   5.157 -0.1519  2.9641 -2.0041
 3836SOL     OW11506   0.353   2.159   4.645 -0.7408  0.1593 -0.4128
 3836SOL    HW111507   0.413   2.233   4.650 -0.4859  0.0479 -1.4782
 3836SOL    HW211508   0.324   2.159   4.554 -0.9528 -0.8884 -0.3530
 3837SOL     OW11509   0.173   3.571   5.786 -0.3832 -0.0573  0.3809
 3837SOL    HW111510   0.169   3.658   5.745  0.1783  0.8017  2.0375
 3837SOL    HW211511   0.234   3.521   5.731  2.1065  1.7505  1.3023
 3838SOL     OW11512   3.786   4.612   9.479 -0.0324 -0.0776  0.3372
 3838SOL    HW111513   3.726   4.539   9.496  1.4809 -1.9608 -1.6910
 3838SOL    HW211514   3.760   4.644   9.392  1.3615 -0.4326 -0.2354
 3839SOL     OW11515   4.221   0.553   5.015 -0.7058 -0.0148 -0.4095
 3839SOL    HW111516   4.278   0.479   5.035 -1.8190 -0.7346  0.1992
 3839SOL    HW211517   4.254   0.624   5.070 -1.7127 -1.0493  1.6802
 3840SOL     OW11518   3.167   1.438   6.602  0.1138 -0.4733 -0.4926
 3840SOL    HW111519   3.238   1.418   6.540  2.0223  2.0705  0.6737
 3840SOL    HW211520   3.130   1.521   6.570  1.3538  1.0751  1.7679
 3841SOL     OW11521   4.426   3.484   7.023 -0.5225  0.2536  0.5657
 3841SOL    HW111522   4.391   3.418   7.082 -0.2328  1.0010  1.5927
 3841SOL    HW211523   4.360   3.552   7.020  0.4021  1.2399  1.7882
 3842SOL     OW11524   1.323   0.836   7.227 -0.8217  0.6020 -0.0601
 3842SOL    HW111525   1.257   0.846   7.295 -0.1178  0.4808  0.6469
 3842SOL    HW211526   1.385   0.907   7.242  0.0240 -0.1799  0.2176
 3843SOL     OW11527   0.723   2.677   5.154 -0.3077  0.7137  0.3679
 3843SOL    HW111528   0.774   2.659   5.075  0.1140 -0.4195  0.8810
 3843SOL    HW211529   0.632   2.678   5.125 -0.0403  2.7416 -0.5606
 3844SOL     OW11530   4.988   2.652   6.400  0.9352  0.3357 -0.6843
 3844SOL    HW111531   5.036   2.725   6.360  0.5770 -0.8740 -3.5562
 3844SOL    HW211532   4.927   2.623   6.332  0.9154 -2.5078  0.4041
 3845SOL     OW11533   3.412   2.550   5.187  0.0279 -0.2512 -0.3259
 3845SOL    HW111534   3.508   2.555   5.181  0.0284  2.7177  0.4799
 3845SOL    HW211535   3.396   2.508   5.272  0.6752  0.4411  0.1580
 3846SOL     OW11536   0.911   1.164   6.372 -0.3010 -0.3164  0.9125
 3846SOL    HW111537   0.918   1.152   6.467 -2.1784  0.7209  1.2451
 3846SOL    HW211538   0.817   1.157   6.355 -0.2074  1.3992 -0.5621
 3847SOL     OW11539   0.234   3.121   4.407 -0.2332 -0.9715 -0.4297
 3847SOL    HW111540   0.215   3.147   4.317 -0.3133 -0.7642 -0.3534
 3847SOL    HW211541   0.158   3.150   4.457  0.8721  1.1528  0.1145
 3848SOL     OW11542   2.370   0.515   7.869 -0.5037  0.0831  0.4288
 3848SOL    HW111543   2.448   0.509   7.925 -0.8787  0.3401  0.9823
 3848SOL    HW211544   2.299   0.540   7.928 -0.9413  0.2001 -0.1337
 3849SOL     OW11545   2.899   3.412   5.659  0.1758  0.1183 -0.2263
 3849SOL    HW111546   2.965   3.345   5.677  1.4989  1.4393 -0.0535
 3849SOL    HW211547   2.871   3.442   5.745  1.1082  1.2394 -0.3028
 3850SOL     OW11548   3.839   0.292   5.436 -0.2650 -0.4737 -0.7189
 3850SOL    HW111549   3.751   0.268   5.408  0.0725 -2.1035 -0.4920
 3850SOL    HW211550   3.841   0.387   5.429 -2.2477 -0.3343 -0.1155
 3851SOL     OW11551   1.883   4.417   7.882  0.1234 -0.3634  0.5942
 3851SOL    HW111552   1.918   4.376   7.961 -2.0034 -1.1061  1.2313
 3851SOL    HW211553   1.953   4.475   7.852  1.2620 -0.5805  2.6267
 3852SOL     OW11554   3.431   2.382   4.731 -0.0259  0.5430 -0.1591
 3852SOL    HW111555   3.460   2.397   4.641 -0.2108  0.1413 -0.2901
 3852SOL    HW211556   3.370   2.454   4.750 -2.0280 -0.7477 -1.2702
 3853SOL     OW11557   0.219   2.165   5.690  0.2639 -0.2350  0.4437
 3853SOL    HW111558   0.143   2.130   5.644  1.3585 -0.7013 -1.1273
 3853SOL    HW211559   0.276   2.088   5.703  0.5131  0.1136  1.5099
 3854SOL     OW11560   4.724   1.850   7.692  0.0645  0.4475 -0.4634
 3854SOL    HW111561   4.681   1.929   7.658  0.6732  1.2975  0.6573
 3854SOL    HW211562   4.690   1.841   7.781  0.0293 -0.5527 -0.5716
 3855SOL     OW11563   3.948   4.716   8.035 -0.1538  0.4208  0.0492
 3855SOL    HW111564   3.902   4.636   8.011  2.8359 -1.2782 -0.5053
 3855SOL    HW211565   3.886   4.786   8.015 -1.2676 -1.4387 -4.1008
 3856SOL     OW11566   4.204   1.987   6.562 -0.2510 -0.5021 -0.2821
 3856SOL    HW111567   4.205   2.071   6.514 -1.1360  0.0960  0.6968
 3856SOL    HW211568   4.133   1.938   6.521  0.3466 -0.8469 -0.9380
 3857SOL     OW11569   4.293   3.982   5.174  0.2224  0.1360  0.6314
 3857SOL    HW111570   4.345   4.016   5.101  0.4265  0.3267  0.8632
 3857SOL    HW211571   4.209   4.026   5.165 -0.2913 -0.9890 -0.3880
 3858SOL     OW11572   0.057   4.315   7.233 -0.0290  0.6107 -0.4486
 3858SOL    HW111573   0.119   4.361   7.177 -1.1802  0.6407 -1.7518
 3858SOL    HW211574   0.059   4.363   7.316  1.1637  1.0117 -0.6972
 3859SOL     OW11575   0.020   1.500   5.705  0.6754 -0.2253  0.2640
 3859SOL    HW111576   0.063   1.467   5.784  1.6891 -0.4507 -0.3692
 3859SOL    HW211577   0.045   1.439   5.636 -0.6229 -0.3280 -0.1430
 3860SOL     OW11578   2.903   3.879   5.396  0.4529  0.3758 -0.1774
 3860SOL    HW111579   2.812   3.856   5.376  0.3983  0.1413  0.3285
 3860SOL    HW211580   2.932   3.810   5.456  2.0293 -1.4656 -2.8719
 3861SOL     OW11581   1.382   0.703   6.729  0.1584 -0.0309  0.7095
 3861SOL    HW111582   1.329   0.746   6.796  0.2405  0.2015  0.6248
 3861SOL    HW211583   1.469   0.741   6.740  0.0204  0.4861  0.0414
 3862SOL     OW11584   4.609   4.924   4.786  0.4318  0.8990  0.0860
 3862SOL    HW111585   4.620   4.847   4.841 -0.2865 -0.3496 -1.4293
 3862SOL    HW211586   4.519   4.952   4.803 -0.1320 -0.0855 -1.1188
 3863SOL     OW11587   0.333   4.613   5.177  0.4309  0.0785 -0.1981
 3863SOL    HW111588   0.298   4.538   5.129 -0.4786  0.2061  0.2402
 3863SOL    HW211589   0.310   4.689   5.124 -0.5992  0.2216  0.4226
 3864SOL     OW11590   4.508   0.722   7.923 -0.5673  0.2716  0.2803
 3864SOL    HW111591   4.475   0.639   7.958  0.8452  0.3689  1.9721
 3864SOL    HW211592   4.570   0.696   7.855 -2.3959  0.0573 -1.4057
 3865SOL     OW11593   1.964   3.561   9.181  0.9489  0.2511 -0.1202
 3865SOL    HW111594   2.016   3.581   9.103 -0.1658  0.5605 -0.7938
 3865SOL    HW211595   2.029   3.560   9.252  1.9160  0.4030 -0.9685
 3866SOL     OW11596   0.574   3.904   8.577 -0.7129  0.0705  0.2370
 3866SOL    HW111597   0.648   3.954   8.611 -1.5608  0.2950  1.8612
 3866SOL    HW211598   0.506   3.913   8.644 -3.1218  1.9146 -2.2313
 3867SOL     OW11599   4.095   0.617   7.308  0.1886 -0.1069 -0.2036
 3867SOL    HW111600   4.039   0.605   7.231 -0.0469  1.6715 -0.3579
 3867SOL    HW211601   4.107   0.529   7.343  0.1716 -0.9453 -2.1759
 3868SOL     OW11602   4.374   0.246   5.924  0.8890  0.1879  0.7623
 3868SOL    HW111603   4.311   0.183   5.888  1.3835 -2.2679  3.7374
 3868SOL    HW211604   4.440   0.256   5.856 -0.8174 -0.0195 -1.0218
 3869SOL     OW11605   0.360   2.411   4.913  0.2849  0.1732  0.4356
 3869SOL    HW111606   0.408   2.332   4.938 -0.1928 -0.6114 -0.9625
 3869SOL    HW211607   0.387   2.427   4.822 -1.0263  0.5074  0.0800
 3870SOL     OW11608   0.037   2.042   6.020  0.5017 -0.2929 -0.1042
 3870SOL    HW111609  -0.014   2.082   6.091 -1.4514 -1.1180 -0.9769
 3870SOL    HW211610  -0.018   2.052   5.942  1.3003 -1.9371 -0.9339
 3871SOL     OW11611   3.780   4.869   6.854  0.0472  0.6632 -0.2409
 3871SOL    HW111612   3.721   4.848   6.782  0.6129  0.2468 -0.5944
 3871SOL    HW211613   3.868   4.856   6.818  0.3380 -1.4214  1.0570
 3872SOL     OW11614   3.144   2.942   6.735 -0.1501 -0.3079 -0.0526
 3872SOL    HW111615   3.183   2.988   6.810 -0.0230  0.2684 -0.4630
 3872SOL    HW211616   3.168   2.996   6.660  1.5954 -2.0021 -0.8035
 3873SOL     OW11617   3.720   1.352   8.059  0.3295 -0.1715 -0.0635
 3873SOL    HW111618   3.755   1.391   8.140 -1.0832 -0.0428  0.5089
 3873SOL    HW211619   3.710   1.427   8.000  0.0711 -0.0498  0.1296
 3874SOL     OW11620   0.212   1.539   7.466 -0.1463  0.2348  0.2576
 3874SOL    HW111621   0.272   1.609   7.442  0.3827 -0.4920 -0.5956
 3874SOL    HW211622   0.268   1.462   7.477 -0.7552 -0.1398  0.8462
 3875SOL     OW11623   0.766   2.914   4.793  0.0007  0.6278  0.7605
 3875SOL    HW111624   0.815   2.975   4.848 -0.8295  2.4659 -0.4727
 3875SOL    HW211625   0.703   2.968   4.747 -0.7769 -1.1807 -0.3864
 3876SOL     OW11626   3.771   4.947   5.768  0.5733 -0.0734 -0.0737
 3876SOL    HW111627   3.726   4.881   5.717 -1.4792 -0.1774  1.7082
 3876SOL    HW211628   3.833   4.898   5.822 -0.0461 -0.4456  0.3214
 3877SOL     OW11629   4.839   4.204   6.735 -0.4676 -0.1191 -0.5249
 3877SOL    HW111630   4.850   4.174   6.645 -0.6265 -1.4066 -0.1386
 3877SOL    HW211631   4.927   4.231   6.762  0.1857 -2.4532 -0.1575
 3878SOL     OW11632   0.967   3.298   6.064 -0.2007  0.2681 -0.4654
 3878SOL    HW111633   0.955   3.203   6.071  1.5291  0.0507 -0.0924
 3878SOL    HW211634   1.039   3.318   6.124  0.1940  1.6606 -1.3583
 3879SOL     OW11635   0.925   0.365   8.242 -0.0666 -0.3919  0.1159
 3879SOL    HW111636   0.931   0.283   8.193 -1.6370  0.2091 -1.1842
 3879SOL    HW211637   1.014   0.398   8.246  0.5508 -1.9933  0.4005
 3880SOL     OW11638   2.282   3.668   6.781  1.0762  0.1323 -0.2274
 3880SOL    HW111639   2.219   3.641   6.848  0.0941 -0.8617 -1.4971
 3880SOL    HW211640   2.353   3.710   6.830  0.4283 -0.6188  1.4279
 3881SOL     OW11641   3.486   2.672   6.890  0.2932  0.2159  0.0225
 3881SOL    HW111642   3.566   2.675   6.838  0.7607 -0.7168  0.6427
 3881SOL    HW211643   3.433   2.744   6.858  1.4956  1.0148 -0.2223
 3882SOL     OW11644   1.557   0.979   5.241  0.2127 -0.3057 -0.1878
 3882SOL    HW111645   1.550   0.976   5.146  2.2187 -0.2412 -0.3628
 3882SOL    HW211646   1.600   1.062   5.259  1.2764 -1.0282  0.6750
 3883SOL     OW11647   0.271   4.042   5.046 -0.1562  0.4696  0.3393
 3883SOL    HW111648   0.221   4.008   4.972 -0.2667  1.6798 -0.1790
 3883SOL    HW211649   0.209   4.045   5.118  0.5131 -2.8674  1.2041
 3884SOL     OW11650   3.053   2.486   5.462 -0.3300  0.3521  0.7001
 3884SOL    HW111651   3.049   2.582   5.465  1.9014  0.4982  0.9576
 3884SOL    HW211652   3.080   2.461   5.550  0.2550 -0.4055  0.3161
 3885SOL     OW11653   4.393   3.752   5.297  0.1770  0.0538  0.4812
 3885SOL    HW111654   4.357   3.679   5.247  1.6243 -0.6862  0.4607
 3885SOL    HW211655   4.363   3.830   5.251 -1.3784 -0.5161  0.4901
 3886SOL     OW11656   1.968   4.259   8.094 -0.5026  0.0241  0.2607
 3886SOL    HW111657   1.904   4.194   8.123 -0.2050 -0.4101 -0.0341
 3886SOL    HW211658   2.043   4.247   8.151 -0.3634 -0.0396  0.0664
 3887SOL     OW11659   2.802   2.762   5.059  1.2079 -0.1564  0.1550
 3887SOL    HW111660   2.834   2.852   5.060 -0.5110  0.5437 -1.4778
 3887SOL    HW211661   2.878   2.709   5.082  2.3801  1.6659  0.6947
 3888SOL     OW11662   3.513   2.764   4.987  0.1567  0.6397  0.4849
 3888SOL    HW111663   3.585   2.763   4.924  1.3277  3.3902  1.6181
 3888SOL    HW211664   3.536   2.697   5.051  1.5343  1.1962  0.6009
 3889SOL     OW11665   3.322   1.586   7.320  0.1244  0.6233  0.2164
 3889SOL    HW111666   3.274   1.661   7.353 -2.8838 -1.0464 -0.0460
 3889SOL    HW211667   3.347   1.537   7.399 -2.1151 -0.4700  0.3140
 3890SOL     OW11668   4.447   2.011   7.033  0.1383  0.7404 -0.4415
 3890SOL    HW111669   4.384   2.010   6.960  0.3638 -1.7024 -0.6885
 3890SOL    HW211670   4.412   2.075   7.094 -1.2346  1.2587 -1.7147
 3891SOL     OW11671   2.583   2.636   4.940  0.0434 -0.5296 -0.0112
 3891SOL    HW111672   2.656   2.683   4.981 -0.5683  3.0305 -2.5620
 3891SOL    HW211673   2.621   2.593   4.864 -0.3257  0.8578 -1.0192
 3892SOL     OW11674  -0.013   4.912   8.112 -0.7366 -0.8012  0.6445
 3892SOL    HW111675   0.069   4.913   8.063 -1.1345 -3.5129 -0.2403
 3892SOL    HW211676  -0.011   4.992   8.164  0.3553  1.6397 -2.7616
 3893SOL     OW11677   2.547   3.734   5.915  0.6187  0.4265 -0.7669
 3893SOL    HW111678   2.622   3.753   5.859 -0.0573  0.3111 -1.7241
 3893SOL    HW211679   2.581   3.743   6.004  1.6894  0.6690 -1.1888
 3894SOL     OW11680   2.080   1.514   7.073 -0.3431 -0.4722 -0.2885
 3894SOL    HW111681   2.131   1.471   7.005 -0.9691  1.3970 -2.0447
 3894SOL    HW211682   2.034   1.443   7.118  1.9966 -1.9821 -0.1317
 3895SOL     OW11683   4.825   0.586   6.094  0.2698 -0.1764  0.3514
 3895SOL    HW111684   4.784   0.506   6.063 -0.8824  0.6400 -0.2798
 3895SOL    HW211685   4.873   0.559   6.173  1.4997 -1.8513 -0.9048
 3896SOL     OW11686   3.373   0.382   6.976 -0.5068 -0.1553  0.8852
 3896SOL    HW111687   3.356   0.288   6.970 -1.9862 -0.0638  2.5652
 3896SOL    HW211688   3.289   0.420   7.000  0.2843  1.4842  1.2216
 3897SOL     OW11689   3.457   3.840   5.828  0.3340  0.2650 -0.2339
 3897SOL    HW111690   3.475   3.865   5.918 -1.4973  0.6829  0.0704
 3897SOL    HW211691   3.421   3.751   5.834  1.3187 -0.1759 -0.6903
 3898SOL     OW11692   0.890   3.309   7.736 -0.0426 -0.0562 -0.1469
 3898SOL    HW111693   0.799   3.306   7.705  0.2407  2.5562 -1.4777
 3898SOL    HW211694   0.885   3.354   7.820  0.0993  0.9891 -0.6889
 3899SOL     OW11695   4.696   5.008   7.913 -0.4022  0.1177  0.0056
 3899SOL    HW111696   4.758   4.935   7.909 -1.3579 -0.7153 -0.3719
 3899SOL    HW211697   4.685   5.026   8.006 -1.2908 -1.2646  0.1970
 3900SOL     OW11698   0.799   1.588   8.900 -0.1919  0.1106  0.2520
 3900SOL    HW111699   0.737   1.614   8.969 -3.5067 -0.3963 -2.3030
 3900SOL    HW211700   0.799   1.493   8.903 -0.6068  0.0776 -0.6023
 3901SOL     OW11701   2.359   4.992   8.226  0.8457 -0.2608 -0.0703
 3901SOL    HW111702   2.299   4.969   8.297 -0.1709 -0.5914 -1.0075
 3901SOL    HW211703   2.443   5.005   8.269  0.0893  0.3512  1.3044
 3902SOL     OW11704   1.541   0.601   9.036 -0.2982  0.0556  0.2922
 3902SOL    HW111705   1.456   0.643   9.020 -0.4293 -0.6239 -0.8696
 3902SOL    HW211706   1.541   0.585   9.131 -2.4700 -1.9338  0.0624
 3903SOL     OW11707   1.337   4.609   8.700  0.3264 -0.3065 -0.4637
 3903SOL    HW111708   1.369   4.564   8.778 -2.5956 -2.7456 -0.5014
 3903SOL    HW211709   1.300   4.691   8.733  0.1031 -0.8111  0.6010
 3904SOL     OW11710   4.650   0.437   8.532 -0.3957 -0.2349 -0.2194
 3904SOL    HW111711   4.670   0.344   8.539 -0.3345 -0.1681  0.6845
 3904SOL    HW211712   4.634   0.465   8.622 -3.3026  0.0219 -0.7306
 3905SOL     OW11713   1.945   3.976   7.530  0.3185 -0.3942 -0.1720
 3905SOL    HW111714   1.907   4.049   7.579 -0.3452  0.3659 -1.7473
 3905SOL    HW211715   1.919   3.992   7.439  5.7674  1.1171 -1.8010
 3906SOL     OW11716   3.327   0.385   8.356 -0.3720 -0.2507 -0.7424
 3906SOL    HW111717   3.270   0.459   8.338  0.1463  0.5532  0.7331
 3906SOL    HW211718   3.272   0.308   8.342 -1.4387  0.4673 -0.5869
 3907SOL     OW11719   3.572   0.424   9.364  0.0581 -0.1433 -0.4127
 3907SOL    HW111720   3.618   0.340   9.366  0.2727 -0.0260 -0.4528
 3907SOL    HW211721   3.484   0.403   9.395 -0.2056 -0.5867 -1.3955
 3908SOL     OW11722   2.510   1.918   7.513  0.0653  0.2324  0.4768
 3908SOL    HW111723   2.439   1.921   7.577  2.3875  1.6494  3.2376
 3908SOL    HW211724   2.515   2.007   7.478 -0.9759 -0.4521 -1.5413
 3909SOL     OW11725   0.921   3.283   6.477  0.0690 -0.3998 -0.0298
 3909SOL    HW111726   0.877   3.220   6.532  2.7749 -2.0767  0.4159
 3909SOL    HW211727   0.936   3.359   6.534 -2.5060  0.4374 -0.3449
 3910SOL     OW11728   2.567   2.662   9.330 -0.2696  0.2518  0.2458
 3910SOL    HW111729   2.535   2.616   9.408  2.1337  1.4391  2.0677
 3910SOL    HW211730   2.646   2.615   9.305  0.3504  1.3398  0.0867
 3911SOL     OW11731   4.715   4.023   8.157 -0.4998  0.3173 -0.5804
 3911SOL    HW111732   4.653   4.054   8.222 -0.4400  1.0925 -0.8823
 3911SOL    HW211733   4.663   3.967   8.099 -0.3164 -1.3363  0.7713
 3912SOL     OW11734   0.566   3.097   4.796  0.1443  0.3210  0.1505
 3912SOL    HW111735   0.600   3.096   4.886  0.1611  0.7125  0.1499
 3912SOL    HW211736   0.605   3.176   4.757  1.2612 -0.5805 -0.6274
 3913SOL     OW11737   1.742   4.106   6.430  0.5738 -0.1425 -0.0799
 3913SOL    HW111738   1.782   4.112   6.343 -0.4657  1.1157 -0.5040
 3913SOL    HW211739   1.669   4.045   6.419  0.1870  0.3384 -0.1992
 3914SOL     OW11740   3.700   0.936   7.718 -0.7008  0.6369  0.3226
 3914SOL    HW111741   3.788   0.925   7.684 -0.4570 -0.6773  1.3255
 3914SOL    HW211742   3.703   0.901   7.807 -2.1624  0.8328  0.4835
 3915SOL     OW11743   4.461   1.239  10.152 -0.1290 -0.6476  0.0489
 3915SOL    HW111744   4.537   1.263  10.205 -0.3825 -1.0188  0.5840
 3915SOL    HW211745   4.459   1.304  10.082  1.4510 -1.4029 -0.7315
 3916SOL     OW11746   1.220   3.068   6.177  0.1697 -0.3344 -0.0106
 3916SOL    HW111747   1.190   3.137   6.235 -0.4454 -1.4629  1.0697
 3916SOL    HW211748   1.293   3.027   6.224 -0.1316 -1.0592 -0.1567
 3917SOL     OW11749   1.947   3.728   9.534 -0.0240  0.0375 -0.3010
 3917SOL    HW111750   2.005   3.653   9.523 -1.1478 -0.6491 -2.0614
 3917SOL    HW211751   1.978   3.792   9.470 -0.7533 -0.0577 -0.7621
 3918SOL     OW11752   4.299   3.113   5.487 -0.0731  0.7662  0.2457
 3918SOL    HW111753   4.296   3.105   5.391 -1.5476 -0.3927  0.3519
 3918SOL    HW211754   4.284   3.206   5.503 -0.0038  0.9473 -0.6463
 3919SOL     OW11755   2.147   0.148   6.539 -0.5123  0.1829  0.2257
 3919SOL    HW111756   2.125   0.067   6.494  1.2024  0.0581 -0.4389
 3919SOL    HW211757   2.124   0.132   6.631  0.1863 -1.2230  0.1766
 3920SOL     OW11758   1.334   2.889   5.953  0.1476  0.3685  0.3568
 3920SOL    HW111759   1.283   2.968   5.969 -0.9254  0.1940 -1.8270
 3920SOL    HW211760   1.350   2.890   5.859  1.2927 -1.3464  0.4902
 3921SOL     OW11761   1.663   4.872   7.093  0.6222  0.2778  0.3826
 3921SOL    HW111762   1.626   4.783   7.100 -0.1861  0.4620 -1.1478
 3921SOL    HW211763   1.748   4.860   7.051  0.1357  0.2866 -0.6302
 3922SOL     OW11764   3.440   2.808   5.299 -0.1650 -0.7995  0.3690
 3922SOL    HW111765   3.526   2.818   5.338  0.2360 -1.1529 -0.4033
 3922SOL    HW211766   3.442   2.722   5.257 -1.3033 -1.3418  1.3494
 3923SOL     OW11767   4.320   0.161   8.809 -0.6207  0.2290  0.6045
 3923SOL    HW111768   4.227   0.153   8.789 -0.8365 -1.6081  1.9978
 3923SOL    HW211769   4.325   0.236   8.868 -1.3316  0.0059  0.9671
 3924SOL     OW11770   1.439   3.087   6.849 -0.7180  0.2877  0.4050
 3924SOL    HW111771   1.432   3.051   6.938 -3.4672 -1.4623 -0.4071
 3924SOL    HW211772   1.497   3.026   6.803 -0.6143  0.2750  0.5501
 3925SOL     OW11773   3.130   2.494   7.014 -0.4749 -0.0717  0.6475
 3925SOL    HW111774   3.107   2.545   6.937 -1.0085  0.2279  0.9930
 3925SOL    HW211775   3.048   2.488   7.064 -0.0132  0.2128  1.4590
 3926SOL     OW11776   1.028   4.171   6.201 -0.7807  0.0648 -0.3461
 3926SOL    HW111777   1.074   4.087   6.213  1.3639  0.9164 -1.9199
 3926SOL    HW211778   0.943   4.158   6.242 -0.7616 -3.0957 -1.0557
 3927SOL     OW11779   3.488   2.924   8.370 -0.2459 -0.3903  0.1027
 3927SOL    HW111780   3.537   2.854   8.326  0.6051  0.3446 -0.1420
 3927SOL    HW211781   3.401   2.887   8.384 -0.2244 -1.0123 -1.2601
 3928SOL     OW11782   2.645   4.677   6.553  0.0185 -0.7998 -0.1610
 3928SOL    HW111783   2.641   4.586   6.522  1.2854 -0.0646 -2.7340
 3928SOL    HW211784   2.648   4.730   6.473  2.6324  1.3307  1.1914
 3929SOL     OW11785   4.377   0.667   8.952 -0.1937  0.0135 -0.0191
 3929SOL    HW111786   4.461   0.677   8.907  0.2096 -0.4597  0.6135
 3929SOL    HW211787   4.324   0.741   8.922  0.9817  1.1991  0.7284
 3930SOL     OW11788   0.064   4.759   5.921  0.2504 -0.4125 -0.2810
 3930SOL    HW111789   0.153   4.794   5.929  0.0854  0.5934 -2.2404
 3930SOL    HW211790   0.057   4.729   5.830 -1.9028  1.1175 -0.7187
 3931SOL     OW11791   4.263   3.700   7.126  0.6140 -0.0486  0.3250
 3931SOL    HW111792   4.235   3.791   7.114  1.1927  0.1780  0.6548
 3931SOL    HW211793   4.238   3.679   7.216  2.0957  0.3806  0.8546
 3932SOL     OW11794   3.294   0.753   9.029  0.5147 -0.1873  0.2773
 3932SOL    HW111795   3.235   0.819   9.064  0.6307  0.1546 -0.1557
 3932SOL    HW211796   3.345   0.723   9.104 -1.3496 -1.7253  1.0098
 3933SOL     OW11797   4.944   0.996   8.329  0.1420  1.0161  1.0000
 3933SOL    HW111798   4.965   0.942   8.252 -1.4261  0.9161  0.6060
 3933SOL    HW211799   5.023   0.992   8.383  1.0791  0.6288 -0.3329
 3934SOL     OW11800   4.619   1.006   5.665 -0.1288  0.4824  0.0380
 3934SOL    HW111801   4.596   1.030   5.755 -1.1566 -1.4611  0.3410
 3934SOL    HW211802   4.535   0.994   5.621  0.3415 -0.6378 -0.5945
 3935SOL     OW11803   1.076   1.565   8.818  0.2041  0.3646 -0.4714
 3935SOL    HW111804   0.984   1.551   8.799  0.5511  2.2234 -4.4965
 3935SOL    HW211805   1.122   1.500   8.765  1.3010 -0.3814  1.2968
 3936SOL     OW11806   0.304   1.585   7.743 -0.4133 -0.2309  0.6134
 3936SOL    HW111807   0.214   1.611   7.721  0.0972  0.4288 -0.8674
 3936SOL    HW211808   0.334   1.652   7.804 -0.4122  0.4763 -0.1447
 3937SOL     OW11809   0.682   2.964   7.957 -0.0294  0.3089  0.5187
 3937SOL    HW111810   0.769   2.951   7.920  0.3370 -0.5153  1.6155
 3937SOL    HW211811   0.637   3.021   7.895  0.9319 -0.1322 -0.5993
 3938SOL     OW11812   4.202   2.983   8.358 -0.2372 -0.5291 -0.7633
 3938SOL    HW111813   4.273   3.035   8.321 -0.2308  1.3267  1.5607
 3938SOL    HW211814   4.224   2.976   8.451 -1.5305 -2.6509 -0.5473
 3939SOL     OW11815   1.131   1.368   8.627  1.0037  0.5869 -0.4475
 3939SOL    HW111816   1.188   1.402   8.558 -1.5826  0.9420 -2.5550
 3939SOL    HW211817   1.126   1.274   8.610  0.5065  0.6462 -0.6369
 3940SOL     OW11818   2.021   1.725   9.035 -0.5309  0.1425 -0.6166
 3940SOL    HW111819   2.007   1.772   9.118 -1.2810  0.0651 -0.6941
 3940SOL    HW211820   2.048   1.637   9.062  0.4489  0.4715 -0.4695
 3941SOL     OW11821   3.831   3.806   9.111  0.0371 -0.0780 -0.4466
 3941SOL    HW111822   3.807   3.896   9.134  1.0238  0.0533  0.1586
 3941SOL    HW211823   3.924   3.800   9.134  0.6161 -0.5347 -2.7199
 3942SOL     OW11824   4.364   0.954   5.614 -0.2029  0.4813  0.3976
 3942SOL    HW111825   4.358   0.952   5.709 -0.8634  0.3556  0.3597
 3942SOL    HW211826   4.273   0.949   5.584 -0.0531  1.1969 -0.2287
 3943SOL     OW11827   2.509   4.888   8.647 -0.1417  0.1331  0.8302
 3943SOL    HW111828   2.414   4.890   8.658 -0.1480  1.0938  0.6058
 3943SOL    HW211829   2.543   4.932   8.725  0.2551 -2.4957  2.2634
 3944SOL     OW11830   4.843   2.003   8.831 -0.1014 -0.1593  0.0654
 3944SOL    HW111831   4.905   2.060   8.787 -0.0164  1.6376  2.3095
 3944SOL    HW211832   4.893   1.924   8.853 -0.1154 -1.0386 -2.7216
 3945SOL     OW11833   2.572   0.831  10.543 -0.5395 -0.3966 -0.0151
 3945SOL    HW111834   2.481   0.861  10.547 -0.1417  0.7189  1.2603
 3945SOL    HW211835   2.611   0.886  10.475  0.1341  2.0238  2.1726
 3946SOL     OW11836   1.043   4.646   9.284  0.2800 -0.4169  0.7025
 3946SOL    HW111837   1.066   4.739   9.289 -1.2760 -0.0143  0.9686
 3946SOL    HW211838   1.110   4.607   9.228  1.4438  0.6893  1.2895
 3947SOL     OW11839   0.159   4.251   8.855 -0.0351 -0.2010 -0.8504
 3947SOL    HW111840   0.116   4.165   8.854  0.2559 -0.3541 -0.1044
 3947SOL    HW211841   0.132   4.291   8.772  0.7224 -1.4503 -1.7335
 3948SOL     OW11842   4.750   1.718   6.742  0.2884 -0.6789 -0.2148
 3948SOL    HW111843   4.834   1.672   6.736  0.6798 -0.0402  0.2104
 3948SOL    HW211844   4.773   1.805   6.777 -0.6251 -0.6966  0.4522
 3949SOL     OW11845   2.665   2.915   9.257 -0.4159 -0.4948  1.2106
 3949SOL    HW111846   2.583   2.963   9.243 -1.5923 -2.4404  1.0704
 3949SOL    HW211847   2.637   2.826   9.278  1.6679 -2.4019 -2.9822
 3950SOL     OW11848   4.411   3.788   6.660  0.3748  0.1383 -0.0250
 3950SOL    HW111849   4.503   3.787   6.634  0.1697  0.0107 -0.7812
 3950SOL    HW211850   4.404   3.718   6.725  0.6791 -0.3111 -0.4659
 3951SOL     OW11851   0.596   3.371   7.832  0.2158  0.3062 -0.1044
 3951SOL    HW111852   0.580   3.278   7.819  2.1850  0.2101 -2.5170
 3951SOL    HW211853   0.515   3.413   7.804  0.8851 -0.5330 -3.8736
 3952SOL     OW11854   3.780   0.998   6.705  0.5019  0.2924 -0.3293
 3952SOL    HW111855   3.689   1.016   6.680 -0.0504  0.6520  1.7393
 3952SOL    HW211856   3.807   1.077   6.752  0.5547 -1.2544  2.4302
 3953SOL     OW11857   0.077   3.217   5.914 -0.2684  0.1564  1.0444
 3953SOL    HW111858   0.060   3.310   5.897 -0.4943 -0.1154 -0.4096
 3953SOL    HW211859   0.085   3.178   5.826  1.4789 -0.9046  1.6088
 3954SOL     OW11860   4.834   3.538   8.384  0.4463 -0.1359 -0.7624
 3954SOL    HW111861   4.909   3.490   8.349 -0.9940 -3.1458 -0.0177
 3954SOL    HW211862   4.766   3.529   8.317 -0.4099 -0.7039  0.1574
 3955SOL     OW11863   1.872   0.904   6.296 -0.6043  0.1150 -0.4605
 3955SOL    HW111864   1.903   0.875   6.210 -0.3080  0.2433 -0.3978
 3955SOL    HW211865   1.877   0.826   6.351 -0.2035  0.1794 -0.4004
 3956SOL     OW11866   4.366   4.574   7.505 -0.1519 -0.7845  0.1677
 3956SOL    HW111867   4.395   4.664   7.513 -1.7245 -0.2649  0.3755
 3956SOL    HW211868   4.293   4.567   7.566 -1.4830 -1.5553 -1.4377
 3957SOL     OW11869   1.085   3.564   6.232 -0.3979  0.6082  0.0599
 3957SOL    HW111870   1.021   3.631   6.255  0.1843  0.1060  3.7337
 3957SOL    HW211871   1.168   3.598   6.264 -0.1978 -2.0413  2.7829
 3958SOL     OW11872   3.921   2.370   8.388  0.3691  0.1397  0.4545
 3958SOL    HW111873   3.868   2.293   8.410  0.6328  0.2346  1.4825
 3958SOL    HW211874   3.999   2.333   8.346  0.4263 -0.1565  0.8067
 3959SOL     OW11875   2.175   1.820   5.082  0.1335 -0.4113  1.1712
 3959SOL    HW111876   2.218   1.737   5.063  2.6393  1.1958 -0.8808
 3959SOL    HW211877   2.246   1.881   5.100 -1.5078  1.6406  1.0878
 3960SOL     OW11878   1.968   1.163   6.362 -0.6257  0.8258  0.4567
 3960SOL    HW111879   1.970   1.069   6.346  0.9003  1.0089 -0.6788
 3960SOL    HW211880   2.059   1.187   6.377 -0.9174  2.2062  0.2010
 3961SOL     OW11881   3.855   0.339   9.027  0.2761 -0.4585  0.2615
 3961SOL    HW111882   3.769   0.340   9.068  0.2148 -0.4796  0.1340
 3961SOL    HW211883   3.914   0.303   9.094  0.0029 -1.4490 -0.0114
 3962SOL     OW11884   4.105   3.789   9.721 -0.1216 -0.2184  0.5347
 3962SOL    HW111885   4.099   3.693   9.722 -0.2663 -0.2205 -0.0769
 3962SOL    HW211886   4.099   3.812   9.628  0.0368  0.3767  0.6694
 3963SOL     OW11887   1.523   2.332   7.694 -0.0655  0.2199 -0.1152
 3963SOL    HW111888   1.531   2.294   7.607 -0.4079 -0.7754  0.2712
 3963SOL    HW211889   1.613   2.351   7.720  0.0141  0.8315 -0.8125
 3964SOL     OW11890   4.106   4.647   7.674 -0.1303  0.0407  0.2015
 3964SOL    HW111891   4.164   4.639   7.750  3.0543 -2.2419 -2.1719
 3964SOL    HW211892   4.047   4.572   7.681  0.1163 -0.1313  0.4588
 3965SOL     OW11893   4.343   3.131   6.326  0.1179  0.3646  0.1265
 3965SOL    HW111894   4.286   3.089   6.262  1.2266 -1.6398  0.3560
 3965SOL    HW211895   4.309   3.101   6.411 -0.0250  1.2429  0.3890
 3966SOL     OW11896   1.749   2.846   5.247  0.1764  0.5816  0.2899
 3966SOL    HW111897   1.809   2.784   5.289 -2.2293 -1.9982  0.1810
 3966SOL    HW211898   1.742   2.814   5.157 -2.1273  0.1613  0.5759
 3967SOL     OW11899   4.622   1.251   9.014  0.1616  0.0517 -1.2168
 3967SOL    HW111900   4.629   1.182   9.080 -2.8591  0.9827  0.2287
 3967SOL    HW211901   4.646   1.331   9.060 -3.4071  0.9338 -0.6230
 3968SOL     OW11902   0.065   2.176   6.575 -0.2166 -0.0932  0.4531
 3968SOL    HW111903   0.117   2.133   6.508 -2.3399 -0.7507 -0.8969
 3968SOL    HW211904   0.065   2.116   6.648 -0.6862 -1.0199 -0.2873
 3969SOL     OW11905   1.599   2.045   7.020  0.1922 -0.7272  0.4788
 3969SOL    HW111906   1.530   2.009   6.965 -0.1524  1.7346 -0.8651
 3969SOL    HW211907   1.680   2.011   6.982 -0.0861  0.3578 -1.2035
 3970SOL     OW11908   0.922   4.054   7.109  0.2695  0.0910  0.3133
 3970SOL    HW111909   0.857   4.040   7.040  3.8032  1.5562 -3.7597
 3970SOL    HW211910   0.921   3.973   7.161 -3.3020 -0.6710 -0.7102
 3971SOL     OW11911   0.674   0.902   9.585 -0.2581 -0.1125  0.0575
 3971SOL    HW111912   0.613   0.873   9.517  1.1701 -3.0195 -0.1450
 3971SOL    HW211913   0.620   0.912   9.663 -1.1156 -2.2882 -0.1938
 3972SOL     OW11914   4.347   0.751   7.431 -0.4775 -0.8480  0.1783
 3972SOL    HW111915   4.315   0.802   7.356  2.7865  0.8360 -0.2212
 3972SOL    HW211916   4.388   0.674   7.392 -1.8492 -1.8076  0.5431
 3973SOL     OW11917   4.514   1.246   9.433  0.2895  0.4593  0.8546
 3973SOL    HW111918   4.471   1.223   9.515 -0.5970  2.7647  1.1045
 3973SOL    HW211919   4.448   1.295   9.384  0.9990 -0.3448 -1.0216
 3974SOL     OW11920   2.142   0.469   6.925  0.2564 -0.0995 -0.5816
 3974SOL    HW111921   2.209   0.405   6.902 -0.0868 -0.7008  0.0541
 3974SOL    HW211922   2.059   0.420   6.920  0.0581  0.0898  0.6183
 3975SOL     OW11923   4.336   3.724   8.683  0.1155 -0.0687 -0.0029
 3975SOL    HW111924   4.397   3.743   8.611 -0.1824  0.2153 -0.1852
 3975SOL    HW211925   4.306   3.810   8.712 -1.2460 -0.2354 -0.8343
 3976SOL     OW11926   4.983   3.362   8.612  0.0298 -0.5404 -0.5063
 3976SOL    HW111927   5.025   3.422   8.673 -0.5545 -1.1886  0.5556
 3976SOL    HW211928   4.943   3.418   8.546 -0.1110  0.2063  0.2053
 3977SOL     OW11929   4.474   1.395   6.470  0.2412 -0.5148 -0.5922
 3977SOL    HW111930   4.548   1.336   6.454 -0.1554 -0.8109 -1.4017
 3977SOL    HW211931   4.404   1.361   6.414 -0.5399 -0.2889  0.2222
 3978SOL     OW11932   4.950   3.618   8.736  0.0627 -0.5716  0.7807
 3978SOL    HW111933   4.864   3.644   8.772 -1.2621 -1.4822 -1.5155
 3978SOL    HW211934   4.998   3.700   8.728 -1.7723  0.4182 -0.7263
 3979SOL     OW11935   3.348   3.610   9.801  0.0278 -0.1258  0.4643
 3979SOL    HW111936   3.323   3.518   9.798 -0.8054  0.1033 -0.2302
 3979SOL    HW211937   3.443   3.610   9.790 -0.0488 -0.8680 -0.3014
 3980SOL     OW11938   3.905   0.873   9.312 -0.7461 -0.4082 -0.2225
 3980SOL    HW111939   3.962   0.883   9.389 -0.8842 -0.6793 -0.0833
 3980SOL    HW211940   3.842   0.806   9.338 -0.2401 -1.1685 -0.9030
 3981SOL     OW11941   2.776   1.981   9.682  0.0604 -0.1516 -0.4264
 3981SOL    HW111942   2.810   1.907   9.631 -2.1937 -0.6684 -1.3219
 3981SOL    HW211943   2.824   2.057   9.649  1.3456 -0.9982 -0.5711
 3982SOL     OW11944   4.464   0.513   7.691  0.7481 -0.1480 -0.2125
 3982SOL    HW111945   4.370   0.501   7.699  0.6253  0.1105 -1.1229
 3982SOL    HW211946   4.492   0.442   7.632  0.8670  0.6958 -1.2011
 3983SOL     OW11947   4.112   4.596   5.101  0.3588 -0.5256  0.2257
 3983SOL    HW111948   4.046   4.640   5.155  0.4383 -0.9601  0.6964
 3983SOL    HW211949   4.066   4.521   5.063  0.9612 -1.8211  1.9074
 3984SOL     OW11950   3.617   0.267   6.528 -0.3281 -0.1344 -0.0509
 3984SOL    HW111951   3.624   0.224   6.613  0.4513 -0.6619 -0.3732
 3984SOL    HW211952   3.523   0.276   6.514 -0.4696  0.4826  1.1147
 3985SOL     OW11953   0.015   3.198   8.240 -0.2425  0.0647 -0.2256
 3985SOL    HW111954   0.066   3.166   8.314  0.9343  2.1589 -0.0345
 3985SOL    HW211955  -0.051   3.131   8.225  1.3602 -1.8564  0.7692
 3986SOL     OW11956   3.558   0.535   8.420 -0.0864  0.0918  0.2253
 3986SOL    HW111957   3.523   0.613   8.462 -2.1014 -0.3235 -0.6029
 3986SOL    HW211958   3.491   0.468   8.432  1.8890 -1.8054  1.5687
 3987SOL     OW11959   1.289   2.187   8.153 -0.4923 -0.0236  0.2308
 3987SOL    HW111960   1.328   2.100   8.146  0.6809  0.5368 -0.4146
 3987SOL    HW211961   1.356   2.246   8.119 -0.8882  1.2389  1.5415
 3988SOL     OW11962   4.819   1.021   6.839 -0.5872  0.2638 -0.5756
 3988SOL    HW111963   4.903   1.057   6.812 -0.5692 -0.0237 -0.9205
 3988SOL    HW211964   4.797   0.958   6.770 -1.9561  1.6311 -1.4549
 3989SOL     OW11965   0.240   4.646   9.425 -0.4826 -1.2641 -0.2120
 3989SOL    HW111966   0.181   4.699   9.371 -0.6899  0.7145  1.8086
 3989SOL    HW211967   0.316   4.631   9.369 -1.7807 -1.6391 -1.9619
 3990SOL     OW11968   4.783   2.470   8.649  0.6697 -0.3965 -0.6490
 3990SOL    HW111969   4.798   2.413   8.724 -1.2589 -0.8432 -0.5674
 3990SOL    HW211970   4.779   2.411   8.574 -1.1165 -0.3781 -0.5924
 3991SOL     OW11971   2.950   2.047   7.775  0.2127  0.2307  1.1171
 3991SOL    HW111972   2.904   1.998   7.843 -0.4553 -0.4330  0.1951
 3991SOL    HW211973   2.980   2.126   7.820 -2.3308  0.9957  1.6299
 3992SOL     OW11974   4.481   3.926   9.049 -0.0647 -0.1256  0.0148
 3992SOL    HW111975   4.398   3.916   9.096  0.6122  4.5775  2.8301
 3992SOL    HW211976   4.549   3.910   9.115  1.3337 -1.6222 -1.6564
 3993SOL     OW11977   0.766   2.687  10.171  0.0943  0.1307  0.4930
 3993SOL    HW111978   0.795   2.703  10.081 -0.8866  2.5256  0.5247
 3993SOL    HW211979   0.743   2.774  10.204 -3.8459 -1.1250  1.5802
 3994SOL     OW11980   2.044   2.251   9.926  0.6900  0.2226  0.0545
 3994SOL    HW111981   2.032   2.302  10.006 -3.7942 -2.2635  1.3184
 3994SOL    HW211982   2.109   2.184   9.949  2.6525  2.0296  0.0625
 3995SOL     OW11983   2.974   1.559   7.134  1.3000 -0.5469  0.4701
 3995SOL    HW111984   2.907   1.570   7.201  1.8025 -0.1996  0.9250
 3995SOL    HW211985   2.927   1.571   7.051  0.7198 -0.7616  0.7624
 3996SOL     OW11986   4.530   1.386   8.124  0.2375  0.5304  0.2393
 3996SOL    HW111987   4.552   1.376   8.031 -0.3436  0.6268  0.0880
 3996SOL    HW211988   4.486   1.304   8.146 -2.4802  1.7128 -0.4063
 3997SOL     OW11989   3.921   0.205   9.685  0.1271 -0.0380 -0.0245
 3997SOL    HW111990   3.916   0.207   9.780  0.3213 -2.0351  0.0679
 3997SOL    HW211991   3.837   0.243   9.656 -0.3559 -0.3284  0.9594
 3998SOL     OW11992   2.711   2.204   9.871 -0.2913  0.3051  0.5001
 3998SOL    HW111993   2.727   2.131   9.811 -0.5932 -0.5835  1.4759
 3998SOL    HW211994   2.798   2.236   9.894 -0.1542  0.1664  0.1834
 3999SOL     OW11995   1.053   0.365   9.179  0.3435 -0.5206 -0.4437
 3999SOL    HW111996   0.967   0.387   9.144  1.0284  0.7348 -1.4148
 3999SOL    HW211997   1.096   0.450   9.192  1.4879 -1.1292 -0.1054
 4000SOL     OW11998   3.203   2.875   8.501 -0.1075 -0.0125 -0.5520
 4000SOL    HW111999   3.112   2.872   8.532 -0.6908  1.2907 -1.9539
 4000SOL    HW212000   3.201   2.941   8.431  2.2376  1.1246  0.3712
 4001SOL     OW12001   0.393   3.470   7.680 -0.8605 -0.5685  0.7667
 4001SOL    HW112002   0.458   3.479   7.611 -0.9952  0.9571  0.7935
 4001SOL    HW212003   0.309   3.477   7.635 -1.0507 -2.5000  0.7352
 4002SOL     OW12004   3.817   0.533  10.146 -0.0304  0.0651 -0.4474
 4002SOL    HW112005   3.881   0.469  10.177 -2.6486 -2.3146  0.4798
 4002SOL    HW212006   3.767   0.556  10.224 -0.4399  1.7048 -1.1676
 4003SOL     OW12007   1.284   1.478   9.728  0.3831 -0.0354  0.2702
 4003SOL    HW112008   1.225   1.414   9.689 -0.0286 -0.3386  1.3568
 4003SOL    HW212009   1.366   1.431   9.742  0.5965  0.1321 -0.4150
 4004SOL     OW12010   2.934   0.105   9.932 -0.0634  0.2340 -0.1373
 4004SOL    HW112011   2.896   0.140  10.014  0.7115  0.7924 -0.0077
 4004SOL    HW212012   2.982   0.028   9.960 -1.0087 -0.4275 -0.2890
 4005SOL     OW12013   0.342   4.310   7.985 -0.3522 -0.0200 -0.7767
 4005SOL    HW112014   0.376   4.270   7.905  1.6890 -0.6096  0.2948
 4005SOL    HW212015   0.420   4.350   8.026 -0.8085 -1.7518  2.0373
 4006SOL     OW12016   4.952   0.428   8.348  0.1182  0.2004  0.0273
 4006SOL    HW112017   4.859   0.413   8.331 -0.1776  0.6839  1.1696
 4006SOL    HW212018   4.976   0.499   8.288 -0.1915 -0.0659 -0.4149
 4007SOL     OW12019   3.299   3.958   7.197 -0.5141 -0.5495  0.2189
 4007SOL    HW112020   3.357   4.034   7.191  0.1355 -1.0240  0.3146
 4007SOL    HW212021   3.211   3.995   7.195 -0.2158  0.1634 -0.2702
 4008SOL     OW12022   4.948   3.911   8.553  0.2465 -0.2207 -0.3731
 4008SOL    HW112023   5.031   3.871   8.578  0.5690  0.0542 -0.9701
 4008SOL    HW212024   4.972   3.977   8.488 -0.5678 -1.0375 -1.5393
 4009SOL     OW12025   2.080   3.030   8.155  0.3300  0.5683  0.3117
 4009SOL    HW112026   2.103   3.065   8.069  0.4558 -1.0398 -0.3395
 4009SOL    HW212027   2.038   2.946   8.136  1.6630 -0.5029  1.8897
 4010SOL     OW12028   3.476   1.481   7.573 -0.0862 -0.1654  0.0232
 4010SOL    HW112029   3.541   1.415   7.598 -0.0703  0.8321  3.1218
 4010SOL    HW212030   3.521   1.565   7.586 -2.2004  0.6270  3.6830
 4011SOL     OW12031   1.739   3.924   9.113 -0.1528  0.1496  0.5112
 4011SOL    HW112032   1.644   3.926   9.120 -0.0914 -1.4272  2.2246
 4011SOL    HW212033   1.758   3.842   9.068  0.4023  0.6722 -0.2351
 4012SOL     OW12034   3.019   1.250   8.454 -0.0089  0.2477 -0.3394
 4012SOL    HW112035   2.931   1.259   8.490 -0.3549  1.5013 -1.4504
 4012SOL    HW212036   3.052   1.168   8.493 -1.7145 -0.3400 -0.0475
 4013SOL     OW12037   0.134   2.101   9.609  0.4223 -0.3777  0.3942
 4013SOL    HW112038   0.099   2.097   9.520 -2.1898 -0.2026  1.3224
 4013SOL    HW212039   0.086   2.032   9.656  1.4419 -0.1875  1.7751
 4014SOL     OW12040   1.445   0.142   8.716  0.2373 -0.1296  0.8640
 4014SOL    HW112041   1.511   0.204   8.747 -0.6910  0.7862  1.0979
 4014SOL    HW212042   1.495   0.070   8.677  1.3532  1.6388 -1.1848
 4015SOL     OW12043   4.669   3.191  10.103  0.7431  0.4514  0.2479
 4015SOL    HW112044   4.663   3.250  10.028  0.4970  0.3911  0.2189
 4015SOL    HW212045   4.704   3.109  10.067  1.0608  0.5701  0.2840
 4016SOL     OW12046   2.346   4.031  10.180  0.2473  0.1747 -0.0044
 4016SOL    HW112047   2.355   3.981  10.099  2.5668 -2.8675  1.8932
 4016SOL    HW212048   2.350   3.965  10.250 -3.3945  2.3949  2.6771
 4017SOL     OW12049  -0.004   3.278   7.557  0.5828  0.3035 -0.3557
 4017SOL    HW112050   0.059   3.213   7.527 -0.0912 -0.7722  0.4803
 4017SOL    HW212051   0.046   3.333   7.617  1.1296  0.4924 -0.9725
 4018SOL     OW12052   3.815   3.538   9.248  0.4077  0.2325  0.7186
 4018SOL    HW112053   3.817   3.590   9.168  0.5478  0.4978  0.8927
 4018SOL    HW212054   3.783   3.598   9.315  0.6990  0.1310  0.9505
 4019SOL     OW12055   2.427   2.199   9.836  0.0305 -0.1779  0.0396
 4019SOL    HW112056   2.521   2.209   9.852  0.2202 -0.9136 -0.5515
 4019SOL    HW212057   2.389   2.281   9.866  0.7683 -0.1729  1.0385
 4020SOL     OW12058   0.801   1.977  10.138 -0.0759 -0.3463  0.0325
 4020SOL    HW112059   0.760   2.056  10.170  1.7261  0.2341  1.0814
 4020SOL    HW212060   0.889   1.978  10.177  1.0837 -1.3061 -2.3284
 4021SOL     OW12061   4.475   2.706   7.010  0.7169 -0.3078 -0.8690
 4021SOL    HW112062   4.563   2.743   7.008  1.4553 -1.9710 -0.5165
 4021SOL    HW212063   4.478   2.631   6.950 -0.1948 -0.9210 -0.1904
 4022SOL     OW12064   4.470   1.841   9.850  0.5746 -0.0371 -0.5619
 4022SOL    HW112065   4.453   1.934   9.840 -0.5883 -0.0877  0.6875
 4022SOL    HW212066   4.385   1.799   9.833  0.3873 -0.6381  1.5750
 4023SOL     OW12067   3.978   1.799   9.693 -0.1477 -0.4277  0.1674
 4023SOL    HW112068   3.908   1.784   9.630  0.7246  2.6375 -1.7612
 4023SOL    HW212069   3.981   1.894   9.703  1.8633 -0.6398  2.4240
 4024SOL     OW12070   4.089   1.801   8.448 -0.1221 -0.1122  0.3516
 4024SOL    HW112071   4.172   1.821   8.491  0.6638  1.1757 -1.6285
 4024SOL    HW212072   4.057   1.885   8.416 -0.4300 -1.0026 -1.9134
 4025SOL     OW12073   0.133   1.179   1.666  0.0720 -0.0841  0.3087
 4025SOL    HW112074   0.094   1.136   1.742 -0.7456  1.9658  1.1255
 4025SOL    HW212075   0.060   1.227   1.626  0.8018  0.0523 -0.9270
 4026SOL     OW12076   3.945   3.418   9.020  0.2966 -0.1219 -0.3707
 4026SOL    HW112077   3.886   3.426   9.096  1.5054 -0.8794  0.6872
 4026SOL    HW212078   4.029   3.452   9.051  1.0460 -1.2541 -1.0817
 4027SOL     OW12079   4.497   0.914   6.935 -0.8631  0.7076  0.7649
 4027SOL    HW112080   4.429   0.848   6.948 -1.8802  1.8112  1.2887
 4027SOL    HW212081   4.510   0.918   6.841 -1.5538  0.4990  0.6565
 4028SOL     OW12082   4.564   3.604   9.677  0.1577 -0.6340  0.2981
 4028SOL    HW112083   4.513   3.683   9.659  2.1173  0.7535  0.5484
 4028SOL    HW212084   4.655   3.631   9.667  0.9290 -2.6049  1.4318
 4029SOL     OW12085   0.188   3.501   7.305 -0.3639  0.2711 -0.2296
 4029SOL    HW112086   0.218   3.479   7.217 -0.5838  0.4606 -0.3533
 4029SOL    HW212087   0.097   3.530   7.294 -0.3445  0.4453  0.0363
 4030SOL     OW12088   3.348   4.067   9.134 -0.6056 -0.2316  0.2698
 4030SOL    HW112089   3.401   4.080   9.055 -1.8927 -1.0957 -0.7788
 4030SOL    HW212090   3.411   4.074   9.206  0.4659  1.3884 -0.7654
 4031SOL     OW12091   2.346   2.740   9.558 -0.4700  0.5314 -0.0218
 4031SOL    HW112092   2.262   2.771   9.593 -0.8667  0.9637 -1.2718
 4031SOL    HW212093   2.332   2.739   9.463  0.6661 -0.2332 -0.1927
 4032SOL     OW12094   0.811   1.806   8.724  0.3525  0.0122 -0.3197
 4032SOL    HW112095   0.839   1.880   8.778  0.6623 -0.6021  0.3803
 4032SOL    HW212096   0.845   1.729   8.769  0.5808 -0.5292 -1.3719
 4033SOL     OW12097   3.380   1.774   6.120  0.2381  0.5580 -0.2418
 4033SOL    HW112098   3.402   1.727   6.200 -0.3801  0.3081 -0.2199
 4033SOL    HW212099   3.457   1.763   6.064 -0.3304 -1.4425 -0.6925
 4034SOL     OW12100   2.587   2.475   8.512 -0.5944  0.0319  0.0433
 4034SOL    HW112101   2.569   2.457   8.420  0.9624 -0.5814 -0.1684
 4034SOL    HW212102   2.680   2.457   8.522 -0.1692  2.4522  1.1849
 4035SOL     OW12103   2.018   3.715   9.863 -0.4127 -0.2013  0.2188
 4035SOL    HW112104   1.960   3.672   9.801  0.6506 -1.2674 -0.0687
 4035SOL    HW212105   2.020   3.807   9.835 -0.4464 -0.5390 -0.9436
 4036SOL     OW12106   3.888   1.133   8.008 -0.2349 -0.3288 -0.2393
 4036SOL    HW112107   3.975   1.163   7.983  0.6730  0.2857  3.1121
 4036SOL    HW212108   3.834   1.212   8.005  0.3563  0.1897  1.4263
 4037SOL     OW12109   3.581   1.340   9.814 -0.2381 -0.4301 -0.6413
 4037SOL    HW112110   3.538   1.423   9.798 -1.3616 -0.4280  2.0021
 4037SOL    HW212111   3.673   1.356   9.791 -0.2613  1.8135  0.5867
 4038SOL     OW12112   4.652   3.888   9.245 -0.3335 -0.4258 -0.6428
 4038SOL    HW112113   4.733   3.931   9.219 -1.1565  1.5129 -0.1403
 4038SOL    HW212114   4.645   3.905   9.339 -1.1174 -0.9542 -0.5962
 4039SOL     OW12115   1.643   4.966  10.075  0.2722 -0.0540 -0.3678
 4039SOL    HW112116   1.671   4.899  10.137 -1.0317 -0.6152 -0.3517
 4039SOL    HW212117   1.570   5.010  10.119 -0.1341  0.0847 -1.1689
 4040SOL     OW12118   4.942   0.095   9.033 -0.1179  0.2149  0.4969
 4040SOL    HW112119   4.947   0.131   9.121  1.5506  1.3956 -0.0135
 4040SOL    HW212120   4.929   0.171   8.976  0.1136 -0.3699 -0.3722
 4041SOL     OW12121   1.319   0.574   8.830 -0.6774 -0.1456  0.4257
 4041SOL    HW112122   1.376   0.506   8.865 -0.9970 -0.3712  0.5196
 4041SOL    HW212123   1.230   0.544   8.853 -0.7866  0.6531  1.0947
 4042SOL     OW12124   1.632   3.847   7.593 -0.2330 -0.4227 -0.1613
 4042SOL    HW112125   1.575   3.794   7.538 -0.6073  0.1008 -0.2875
 4042SOL    HW212126   1.572   3.906   7.640  0.1522 -0.2990  0.1803
 4043SOL     OW12127   2.267   0.058   9.665 -0.3317  0.6007 -0.7787
 4043SOL    HW112128   2.199   0.123   9.686  0.4268  1.7140 -1.6226
 4043SOL    HW212129   2.247  -0.017   9.720 -1.2835  1.5413  0.2019
 4044SOL     OW12130   0.078   1.793   8.877  0.8185  0.5591  0.2038
 4044SOL    HW112131   0.162   1.768   8.839  0.1503  0.2744 -1.1418
 4044SOL    HW212132   0.054   1.719   8.933  0.0972 -0.7386 -1.7069
 4045SOL     OW12133   0.593   2.847   9.963 -0.3471  0.3721  0.3391
 4045SOL    HW112134   0.503   2.873   9.942 -0.7582  0.1463  1.7472
 4045SOL    HW212135   0.630   2.924  10.006  0.4882  0.8320 -1.1325
 4046SOL     OW12136   1.854   3.149   7.891  0.1979  0.0427 -0.1070
 4046SOL    HW112137   1.842   3.211   7.963 -0.7114  0.9868 -1.0230
 4046SOL    HW212138   1.949   3.147   7.876  0.6480 -1.7283  2.3868
 4047SOL     OW12139   0.195   4.958   9.023  0.4010 -0.4579 -0.6670
 4047SOL    HW112140   0.122   5.021   9.024  1.0695  0.3350  0.4013
 4047SOL    HW212141   0.163   4.885   8.970 -0.9621  0.1227 -0.6872
 4048SOL     OW12142   3.731   4.209   7.297 -0.2804  0.2886  0.2410
 4048SOL    HW112143   3.788   4.204   7.374 -0.8323  1.0109  0.7009
 4048SOL    HW212144   3.653   4.255   7.327 -0.6901  0.1991 -0.6463
 4049SOL     OW12145   2.626   3.831   9.750  0.2891 -0.2352 -0.8122
 4049SOL    HW112146   2.713   3.854   9.718  0.5974  1.3644  0.9754
 4049SOL    HW212147   2.626   3.735   9.753  2.1018 -0.2582 -0.6102
 4050SOL     OW12148   4.647   3.411   9.898  0.7754 -0.0495 -0.3157
 4050SOL    HW112149   4.706   3.484   9.915  1.1852 -0.3919 -0.2397
 4050SOL    HW212150   4.657   3.394   9.804  1.1837 -0.4324 -0.2064
 4051SOL     OW12151   0.179   1.469   9.787 -0.0362 -0.2838 -0.5324
 4051SOL    HW112152   0.211   1.552   9.751 -0.0538 -0.9220 -2.0998
 4051SOL    HW212153   0.248   1.441   9.848  0.2735  0.5436 -0.4852
 4052SOL     OW12154   3.852   0.862   7.948 -0.6653  0.9132 -0.0263
 4052SOL    HW112155   3.856   0.951   7.982 -1.8708  1.1796 -0.5545
 4052SOL    HW212156   3.887   0.808   8.019  1.2719  1.8953 -0.1607
 4053SOL     OW12157   4.130   4.264   9.147 -0.2584 -0.2882  0.1174
 4053SOL    HW112158   4.120   4.284   9.240  1.0841  1.5405 -0.0740
 4053SOL    HW212159   4.066   4.320   9.103 -2.2365 -2.5115 -0.0282
 4054SOL     OW12160   4.770   4.383   9.835  0.8175  0.4135  0.0217
 4054SOL    HW112161   4.730   4.378   9.749  0.8376 -1.5169  0.0808
 4054SOL    HW212162   4.858   4.417   9.820  0.2791  1.5898 -0.5068
 4055SOL     OW12163   3.250   0.696  10.150 -0.7257  0.7167 -0.0677
 4055SOL    HW112164   3.199   0.777  10.155 -0.9608  0.7261 -2.0171
 4055SOL    HW212165   3.322   0.709  10.212 -3.0541  0.6432  2.9013
   5.00000   5.00000  15.00000
