Water Slab for Clausius-Clapeyron Phase 1 in water
12165
    1SOL     OW    1   1.261   4.722   5.982 -0.5892  0.5021  0.0972
    1SOL    HW1    2   1.187   4.694   6.035 -0.0979  0.8268  0.9649
    1SOL    HW2    3   1.338   4.704   6.036  0.2321 -2.4155 -1.8407
    2SOL     OW    4   3.165   1.507   4.258 -0.0986 -0.0001 -0.2363
    2SOL    HW1    5   3.179   1.428   4.207 -1.5401 -2.1039  2.3498
    2SOL    HW2    6   3.198   1.486   4.345 -0.1922  2.4078  0.4645
    3SOL     OW    7   4.681   2.354   9.468  0.1011 -0.8072  0.2445
    3SOL    HW1    8   4.622   2.279   9.455 -1.7595  0.1252  2.6660
    3SOL    HW2    9   4.630   2.429   9.437  1.3156 -0.3168 -0.6262
    4SOL     OW   10   3.088   1.730   9.267  0.0395  0.1646 -0.2161
    4SOL    HW1   11   3.017   1.753   9.208 -2.0223 -0.0968  1.9979
    4SOL    HW2   12   3.056   1.653   9.314  2.3750 -0.7851 -0.0606
    5SOL     OW   13   0.487   1.390   5.315  0.0905  0.1481  0.5151
    5SOL    HW1   14   0.494   1.318   5.378  0.7815  0.1023  0.3916
    5SOL    HW2   15   0.517   1.352   5.232  0.4796  0.5875  0.4542
    6SOL     OW   16   1.962   0.107   8.210  0.1551  0.5764  0.1764
    6SOL    HW1   17   2.042   0.070   8.173  0.0783 -0.4286  0.9797
    6SOL    HW2   18   1.992   0.167   8.278  0.2364 -1.0419  1.6313
    7SOL     OW   19   3.803   3.135   4.678  0.0146  0.4950  0.6943
    7SOL    HW1   20   3.756   3.218   4.668 -2.1915 -0.7641  0.0329
    7SOL    HW2   21   3.767   3.096   4.758 -0.1702 -0.5400  0.1297
    8SOL     OW   22   2.132   2.125   5.783  0.1147  0.3670 -0.6501
    8SOL    HW1   23   2.069   2.071   5.734  0.6135 -0.8650  0.0374
    8SOL    HW2   24   2.126   2.211   5.741 -0.7234 -0.1959 -1.7565
    9SOL     OW   25   0.957   0.195   7.474  0.1093  0.2220 -0.3164
    9SOL    HW1   26   0.950   0.102   7.452  1.1908  0.3530 -1.3146
    9SOL    HW2   27   0.870   0.231   7.454  0.7721  0.1999 -3.9959
   10SOL     OW   28   3.458   2.705   5.014 -0.4603 -0.2114  0.2726
   10SOL    HW1   29   3.511   2.767   4.963 -1.9038  0.1092 -0.9077
   10SOL    HW2   30   3.518   2.633   5.033  0.0448 -0.6395 -2.4593
   11SOL     OW   31   3.769   0.564   8.707 -0.2045  0.1009  1.0486
   11SOL    HW1   32   3.842   0.553   8.769 -0.5081 -1.4132  1.1854
   11SOL    HW2   33   3.756   0.477   8.671  0.3497  1.0524 -1.6516
   12SOL     OW   34   1.128   3.327   5.700 -0.4427 -0.2072  0.0952
   12SOL    HW1   35   1.198   3.299   5.641 -1.7497  0.0350 -1.6648
   12SOL    HW2   36   1.136   3.422   5.704  2.0399 -0.3466  3.5629
   13SOL     OW   37   2.288   3.546   6.297 -0.2801  0.0689  0.5402
   13SOL    HW1   38   2.271   3.612   6.364  1.3375 -0.5510  1.6395
   13SOL    HW2   39   2.364   3.580   6.249  0.9489 -1.2205  1.5044
   14SOL     OW   40   0.610   4.942   4.820 -0.4370  0.8813  0.3634
   14SOL    HW1   41   0.606   4.940   4.916 -0.5211  0.5016  0.3553
   14SOL    HW2   42   0.673   5.010   4.800 -0.6595  1.1846  0.6842
   15SOL     OW   43   4.191   0.732   6.720  0.3698  0.1158  0.2841
   15SOL    HW1   44   4.176   0.689   6.804 -1.6577  0.1656  0.0121
   15SOL    HW2   45   4.251   0.674   6.674  4.2839  1.7130  2.9031
   16SOL     OW   46   0.844   3.690   7.193 -0.4433  1.2520  0.8105
   16SOL    HW1   47   0.898   3.611   7.187 -1.8044  0.4080 -2.0744
   16SOL    HW2   48   0.879   3.737   7.269  0.9825 -1.6605  2.1151
   17SOL     OW   49   4.913   3.587   8.433  0.5897 -0.1936  0.8990
   17SOL    HW1   50   4.894   3.665   8.381 -0.6994 -1.2069 -0.2298
   17SOL    HW2   51   4.948   3.524   8.371 -3.7579 -2.5155  0.3626
   18SOL     OW   52   1.889   4.734   5.549 -0.3927 -0.3389  0.0690
   18SOL    HW1   53   1.902   4.678   5.624  1.3184  0.5768  0.4925
   18SOL    HW2   54   1.804   4.707   5.513 -0.4074 -1.9738  1.2606
   19SOL     OW   55   1.962   0.214   5.966  0.0076  1.0651 -0.7332
   19SOL    HW1   56   2.054   0.224   5.994 -0.5287  0.3654  1.5363
   19SOL    HW2   57   1.938   0.127   5.996 -2.1159  2.1715  1.1135
   20SOL     OW   58   1.792   3.222   6.852  0.0270 -0.6530 -0.3861
   20SOL    HW1   59   1.772   3.263   6.768 -0.0406  3.0898  1.2322
   20SOL    HW2   60   1.719   3.248   6.909  0.7389 -1.9079  1.1777
   21SOL     OW   61   1.923   3.302   5.555  0.2097 -0.2347 -0.0866
   21SOL    HW1   62   1.945   3.310   5.648 -0.9704  1.3057  0.1020
   21SOL    HW2   63   2.005   3.279   5.513  1.0590  0.3543  1.1857
   22SOL     OW   64   2.254   3.766   6.467 -0.0270 -1.0883  0.1252
   22SOL    HW1   65   2.162   3.793   6.464 -0.4191 -2.4428 -0.7127
   22SOL    HW2   66   2.300   3.837   6.422 -0.6412 -0.3842  0.5762
   23SOL     OW   67   3.067   0.272   5.666  0.1047 -0.3100 -0.1808
   23SOL    HW1   68   3.042   0.332   5.595 -2.1214 -0.8487  0.0848
   23SOL    HW2   69   3.058   0.185   5.628  1.5670 -0.5705 -0.0087
   24SOL     OW   70   1.175   1.919   7.572 -0.7422 -0.3220  0.1625
   24SOL    HW1   71   1.191   2.009   7.546  2.4529 -0.9429 -0.4835
   24SOL    HW2   72   1.261   1.876   7.565 -1.6214 -2.8488  2.7090
   25SOL     OW   73   2.419   4.143   6.395  0.2240  0.6826  0.5347
   25SOL    HW1   74   2.470   4.086   6.453 -1.3122 -1.2932  0.0931
   25SOL    HW2   75   2.423   4.099   6.309 -0.8333  1.3330  0.1278
   26SOL     OW   76   3.616   2.558   7.739 -0.2399  0.1028 -0.0630
   26SOL    HW1   77   3.640   2.571   7.647  2.3736  3.7393  0.9247
   26SOL    HW2   78   3.545   2.619   7.754 -1.7097 -1.5565  0.1045
   27SOL     OW   79   3.827   0.300   7.574 -0.1613 -0.4467 -0.0384
   27SOL    HW1   80   3.917   0.275   7.553  1.0968  2.4927  1.3038
   27SOL    HW2   81   3.800   0.238   7.641  1.5523 -0.3130  0.8219
   28SOL     OW   82   4.291   3.118   7.131 -0.0197  1.0048  0.5212
   28SOL    HW1   83   4.275   3.190   7.192 -0.7722  0.2754  1.2027
   28SOL    HW2   84   4.387   3.115   7.123  0.1562  0.6426  2.2756
   29SOL     OW   85   1.461   1.322   5.646 -0.1937 -0.3061  0.3243
   29SOL    HW1   86   1.420   1.250   5.599 -0.5232  1.1225 -1.6958
   29SOL    HW2   87   1.441   1.400   5.594  1.0383  1.1167  1.8514
   30SOL     OW   88   2.838   2.800   5.185  0.0188  0.0534  0.3654
   30SOL    HW1   89   2.770   2.808   5.251 -0.4327 -0.3796 -0.0347
   30SOL    HW2   90   2.806   2.731   5.126 -0.3269  1.4650 -1.1873
   31SOL     OW   91   0.608   4.284   6.823  0.0355  0.2856 -0.0740
   31SOL    HW1   92   0.659   4.320   6.750 -0.4299 -0.4642 -0.7821
   31SOL    HW2   93   0.521   4.269   6.787  0.6308 -3.2843 -0.4405
   32SOL     OW   94   0.781   4.242   5.816  0.5308  0.5593  0.2980
   32SOL    HW1   95   0.829   4.196   5.885 -0.9900 -1.0148  0.3553
   32SOL    HW2   96   0.752   4.173   5.756 -1.2369  1.4992  0.0052
   33SOL     OW   97   2.922   1.817   4.694 -0.6763  0.0046 -0.5192
   33SOL    HW1   98   2.920   1.746   4.631 -1.2695 -0.6393  0.2002
   33SOL    HW2   99   2.829   1.836   4.712 -0.5602 -1.1268  1.5639
   34SOL     OW  100   1.742   2.979   8.990 -0.3941  0.5974 -0.3461
   34SOL    HW1  101   1.822   3.028   9.010 -0.7285  1.0954 -0.2247
   34SOL    HW2  102   1.774   2.894   8.958  0.1722  0.5290  0.3660
   35SOL     OW  103   2.900   2.334   6.135 -0.7183 -0.4000  0.4531
   35SOL    HW1  104   2.979   2.291   6.167 -1.1525 -0.7607  1.0750
   35SOL    HW2  105   2.861   2.271   6.074 -1.0930 -0.7022  0.9873
   36SOL     OW  106   4.201   1.034   5.723 -0.4942 -0.2752 -0.6047
   36SOL    HW1  107   4.241   0.994   5.800  1.4651  0.7985 -1.0000
   36SOL    HW2  108   4.131   0.973   5.698  1.0043 -2.3781  0.0282
   37SOL     OW  109   1.512   1.732   5.206  0.3236 -0.0689 -0.0943
   37SOL    HW1  110   1.498   1.826   5.207 -1.3531 -0.2807 -0.9873
   37SOL    HW2  111   1.433   1.695   5.244 -0.3501 -1.2185 -2.4416
   38SOL     OW  112   1.868   4.944   5.987 -0.0148 -0.4674  0.1333
   38SOL    HW1  113   1.813   4.889   6.043  0.0892 -0.0119  0.7044
   38SOL    HW2  114   1.837   4.927   5.898 -2.4819  1.2278  0.5451
   39SOL     OW  115   0.635   3.872   6.013 -0.6151 -0.1325 -0.0544
   39SOL    HW1  116   0.717   3.862   5.965 -0.8285  0.2291 -0.4974
   39SOL    HW2  117   0.651   3.945   6.073 -1.2869  1.3936 -1.6372
   40SOL     OW  118   4.590   1.640   6.562 -0.1308 -0.3406  0.4119
   40SOL    HW1  119   4.589   1.621   6.468 -0.5237  1.2155  0.0641
   40SOL    HW2  120   4.514   1.594   6.597 -1.5192  1.1210 -0.5271
   41SOL     OW  121   3.350   0.320   4.950  0.4578  0.9135 -0.2517
   41SOL    HW1  122   3.404   0.243   4.934  0.5969  1.1336 -0.8524
   41SOL    HW2  123   3.412   0.391   4.964  0.3638  1.4812 -2.4374
   42SOL     OW  124   2.608   4.371   9.575 -0.1494 -0.1264  0.0512
   42SOL    HW1  125   2.551   4.444   9.548  0.7444 -0.7316 -4.1439
   42SOL    HW2  126   2.680   4.372   9.512  0.3510 -4.0895  0.2993
   43SOL     OW  127   4.348   1.635   7.672  0.3227 -0.2515 -0.0843
   43SOL    HW1  128   4.373   1.696   7.741  2.9157 -0.1122 -0.9980
   43SOL    HW2  129   4.328   1.553   7.717  1.6633 -0.0714  0.9036
   44SOL     OW  130   4.401   2.355   6.539 -0.2850 -0.7281  0.7038
   44SOL    HW1  131   4.392   2.450   6.526  1.0582 -0.6568  0.1196
   44SOL    HW2  132   4.319   2.318   6.506 -0.5338  0.1837  0.2742
   45SOL     OW  133   1.384   1.600   6.270  0.6602 -0.1484  0.1829
   45SOL    HW1  134   1.330   1.523   6.252 -0.4358  0.3653  1.1335
   45SOL    HW2  135   1.435   1.576   6.347  0.4975 -0.0188  0.3326
   46SOL     OW  136   0.592   1.079   5.440 -0.0002 -0.3188  0.3168
   46SOL    HW1  137   0.562   1.122   5.520 -1.7527  2.1027 -1.4995
   46SOL    HW2  138   0.687   1.075   5.450 -0.1366  0.2121  2.3357
   47SOL     OW  139   0.459   1.294   5.029 -0.1457 -0.6751 -0.6760
   47SOL    HW1  140   0.491   1.203   5.025  0.6821 -0.4193 -4.6732
   47SOL    HW2  141   0.536   1.346   5.007 -1.2484  0.7180 -1.3589
   48SOL     OW  142   3.527   1.144   9.163  0.8024  0.2851  0.1906
   48SOL    HW1  143   3.520   1.165   9.070  1.0021 -3.3487 -0.8058
   48SOL    HW2  144   3.621   1.137   9.179  0.8397  2.1258  1.0873
   49SOL     OW  145   2.123   0.679   7.035 -0.5132 -0.1674  0.0380
   49SOL    HW1  146   2.105   0.726   7.116 -1.6367 -2.0170  0.9258
   49SOL    HW2  147   2.160   0.595   7.064 -1.7835 -1.2333 -1.2807
   50SOL     OW  148   0.974   4.035   5.511 -0.2946 -0.2668  0.4644
   50SOL    HW1  149   0.970   4.103   5.444 -0.3572 -1.2085 -0.5183
   50SOL    HW2  150   0.901   4.054   5.570 -2.1435 -1.1217 -1.4342
   51SOL     OW  151   4.338   4.858   5.788  0.0670  0.2639  0.3207
   51SOL    HW1  152   4.366   4.912   5.861 -2.5693  1.4140  0.6014
   51SOL    HW2  153   4.273   4.912   5.742  0.3271 -1.1244 -1.8071
   52SOL     OW  154   4.044   4.712   6.451 -0.8923 -0.1652 -0.2264
   52SOL    HW1  155   3.972   4.736   6.393 -1.7531  1.4983  1.4019
   52SOL    HW2  156   4.047   4.616   6.446 -4.5720 -0.5295  1.0358
   53SOL     OW  157   2.410   2.612   6.304  0.0619 -0.6869 -0.1179
   53SOL    HW1  158   2.411   2.520   6.277  1.9993 -0.9423  0.6671
   53SOL    HW2  159   2.462   2.614   6.384  0.5606  1.1925 -0.4501
   54SOL     OW  160   2.428   3.303   5.342  0.2666 -0.0644 -0.3433
   54SOL    HW1  161   2.362   3.241   5.311  1.5488 -1.2091 -0.8647
   54SOL    HW2  162   2.380   3.361   5.401 -1.1187 -1.1013 -0.3978
   55SOL     OW  163   1.722   3.720   5.616  0.3882  0.4994 -0.2283
   55SOL    HW1  164   1.811   3.738   5.646  0.0920  1.6649 -0.0189
   55SOL    HW2  165   1.670   3.714   5.697  0.5487 -2.0115 -0.2096
   56SOL     OW  166   4.467   1.250   7.354 -0.4790  0.3318  0.4736
   56SOL    HW1  167   4.541   1.298   7.318 -0.0881 -2.0185 -2.1350
   56SOL    HW2  168   4.397   1.262   7.290 -0.1385 -3.0449 -0.6840
   57SOL     OW  169   0.776   0.675   6.020  0.1055  0.4632 -0.1016
   57SOL    HW1  170   0.857   0.711   6.057  1.3999 -2.9148  0.7093
   57SOL    HW2  171   0.798   0.652   5.930  0.5687 -1.6980  0.5112
   58SOL     OW  172   2.641   2.366   7.260  0.5188  0.0714 -0.0351
   58SOL    HW1  173   2.627   2.321   7.343 -0.8995 -1.1400 -0.8843
   58SOL    HW2  174   2.553   2.394   7.232  0.9024  0.0532 -1.3438
   59SOL     OW  175   1.130   3.422   6.171  0.2429 -1.0061 -0.2464
   59SOL    HW1  176   1.049   3.388   6.210  3.1239 -3.9504  3.9315
   59SOL    HW2  177   1.149   3.361   6.100 -0.2434 -1.4510 -0.0063
   60SOL     OW  178   0.203   4.092   5.086  0.4683 -0.0913  0.4191
   60SOL    HW1  179   0.204   4.078   4.992  0.9563 -1.3105  0.5868
   60SOL    HW2  180   0.125   4.045   5.116  0.5979 -0.1451  0.6748
   61SOL     OW  181   4.689   1.407   7.246 -0.2346 -0.2266  0.1113
   61SOL    HW1  182   4.782   1.408   7.220 -0.7246  1.3639 -1.8394
   61SOL    HW2  183   4.677   1.488   7.295 -0.7413 -0.0157 -0.3482
   62SOL     OW  184   1.059   4.532   5.719 -0.2124 -0.3240  0.2753
   62SOL    HW1  185   1.051   4.456   5.776  0.0391  1.3011  2.6165
   62SOL    HW2  186   1.008   4.509   5.641 -1.3154 -2.3331  1.5129
   63SOL     OW  187   3.770   0.729   5.734 -0.0598 -0.1380 -0.0442
   63SOL    HW1  188   3.728   0.663   5.787  0.1344 -0.7097 -0.5907
   63SOL    HW2  189   3.700   0.790   5.711 -1.1257 -2.1890 -2.7053
   64SOL     OW  190   0.665   4.579   6.238 -0.2174  0.3009 -0.3050
   64SOL    HW1  191   0.603   4.568   6.310 -1.5018  4.8049 -0.4598
   64SOL    HW2  192   0.612   4.574   6.159 -0.4111  3.4436 -0.4694
   65SOL     OW  193   3.218   1.520   6.218  0.9081 -0.6089  0.2125
   65SOL    HW1  194   3.308   1.525   6.250  0.1421  2.1500  2.4115
   65SOL    HW2  195   3.216   1.578   6.142  0.7236  0.5951  1.1035
   66SOL     OW  196   3.908   1.221  13.575 -0.5146  0.3404 -0.3219
   66SOL    HW1  197   3.858   1.225  13.657  0.1288 -0.9479  0.1745
   66SOL    HW2  198   3.988   1.271  13.593  0.6894 -1.7949  0.6903
   67SOL     OW  199   1.324   4.474   8.662  1.0576  0.5583  0.6293
   67SOL    HW1  200   1.276   4.391   8.664 -2.7987  2.2962 -3.6990
   67SOL    HW2  201   1.414   4.449   8.682 -0.3452 -4.1315  2.4446
   68SOL     OW  202   0.350   0.976   6.952  0.1015  0.4906  0.1143
   68SOL    HW1  203   0.398   0.897   6.979 -2.2661 -0.1270  2.9349
   68SOL    HW2  204   0.313   1.011   7.033 -5.8506 -0.2407 -1.8050
   69SOL     OW  205   3.324   0.077   7.747 -0.3661  0.0735 -0.5530
   69SOL    HW1  206   3.360  -0.011   7.740 -0.6582 -0.4602  2.8628
   69SOL    HW2  207   3.233   0.064   7.776 -0.1031  1.4123  1.0949
   70SOL     OW  208   3.824   3.437   9.105 -0.1892  0.0213 -0.3442
   70SOL    HW1  209   3.737   3.421   9.068 -1.0866  0.7154  1.3622
   70SOL    HW2  210   3.817   3.523   9.146  0.9933 -0.3532  0.6977
   71SOL     OW  211   4.267   3.927   5.435 -0.3460 -0.1404 -0.0078
   71SOL    HW1  212   4.228   3.847   5.471 -1.4354  0.8677  1.1382
   71SOL    HW2  213   4.197   3.967   5.384  0.5805 -0.5172 -1.6694
   72SOL     OW  214   4.847   0.374   5.232  0.6277 -0.2358  0.1045
   72SOL    HW1  215   4.802   0.290   5.239 -1.1568  0.6369 -0.3073
   72SOL    HW2  216   4.915   0.359   5.166  0.0587 -1.2467 -0.2774
   73SOL     OW  217   1.575   1.424   8.232  0.2786  0.0968  0.2601
   73SOL    HW1  218   1.548   1.357   8.169 -0.1117 -0.8516  1.3952
   73SOL    HW2  219   1.556   1.385   8.317  2.9478  0.3879  1.0728
   74SOL     OW  220   2.502   3.301   7.031  0.2232  0.3218  0.4784
   74SOL    HW1  221   2.496   3.290   7.126  0.9169 -1.0035  0.3917
   74SOL    HW2  222   2.438   3.240   6.996  1.4152 -0.7433  0.0678
   75SOL     OW  223   1.004   0.776   6.114  0.0894 -0.2027  0.5185
   75SOL    HW1  224   1.047   0.849   6.159  0.5544  0.0814 -0.3688
   75SOL    HW2  225   1.040   0.698   6.157 -0.2027  0.0657  1.2812
   76SOL     OW  226   0.348   3.918   6.425 -0.0712  0.4282 -0.2854
   76SOL    HW1  227   0.406   3.953   6.357  0.9327  1.4333  1.0164
   76SOL    HW2  228   0.398   3.848   6.467 -0.4822  0.1477 -0.2507
   77SOL     OW  229   3.040   3.160   5.363 -0.2051 -0.0700  0.1457
   77SOL    HW1  230   3.034   3.087   5.302 -1.8142  0.9172 -0.9473
   77SOL    HW2  231   2.950   3.178   5.389  0.2160  1.1197  0.9016
   78SOL     OW  232   0.442   0.528   4.924  0.1540 -0.0532  0.4620
   78SOL    HW1  233   0.377   0.472   4.967 -0.7532  0.0094 -0.8084
   78SOL    HW2  234   0.434   0.508   4.831  1.0851  0.8749  0.1624
   79SOL     OW  235   4.639   1.026  10.117 -0.6913 -0.1445 -0.1679
   79SOL    HW1  236   4.599   1.098  10.166  0.9425  0.7358 -0.0581
   79SOL    HW2  237   4.652   1.060  10.029  0.3165 -0.1895 -0.0525
   80SOL     OW  238   0.471   4.588   6.066  0.3379  0.0813  0.4417
   80SOL    HW1  239   0.384   4.614   6.036 -1.5997 -1.9188  3.6547
   80SOL    HW2  240   0.509   4.542   5.991 -1.2990  1.0670 -1.0799
   81SOL     OW  241   3.060   0.748   7.335  0.1903 -0.3100  0.6176
   81SOL    HW1  242   3.119   0.784   7.401  1.7218 -0.6278 -0.5045
   81SOL    HW2  243   3.093   0.659   7.318 -0.3642 -0.3579 -0.3267
   82SOL     OW  244   2.384   0.309   5.329 -0.0214 -0.6778 -0.2807
   82SOL    HW1  245   2.297   0.294   5.292 -0.3615 -1.5037  0.8028
   82SOL    HW2  246   2.441   0.317   5.253 -1.3735  2.5183 -1.1661
   83SOL     OW  247   3.407   2.947   5.123 -0.5396 -0.0682 -0.1893
   83SOL    HW1  248   3.390   2.868   5.071  1.2185  0.1569 -1.1882
   83SOL    HW2  249   3.367   2.928   5.208 -0.3426 -1.9602 -0.4613
   84SOL     OW  250   1.949   0.506   5.894 -0.2590 -0.1711 -0.3301
   84SOL    HW1  251   1.958   0.420   5.936 -2.7060  0.7179  2.2748
   84SOL    HW2  252   1.854   0.518   5.884  0.0405  2.0653 -1.0090
   85SOL     OW  253   3.130   4.080   7.337  0.3638  0.2044 -0.1905
   85SOL    HW1  254   3.126   4.118   7.425 -0.1167 -0.1836 -0.0397
   85SOL    HW2  255   3.213   4.031   7.336  0.3358  0.1500  0.0737
   86SOL     OW  256   0.854   0.468   6.451 -0.0241 -0.2017  0.2276
   86SOL    HW1  257   0.770   0.436   6.418 -0.3173 -0.6623  1.3521
   86SOL    HW2  258   0.885   0.398   6.509  0.8550  0.2197  0.2875
   87SOL     OW  259   2.585   0.342   5.081 -0.2650  0.2219 -0.1440
   87SOL    HW1  260   2.606   0.422   5.128 -0.4161  1.0531 -1.4316
   87SOL    HW2  261   2.666   0.292   5.081 -0.1635  0.3759  0.6554
   88SOL     OW  262   1.298   2.079   4.868  0.1400  0.1913  0.7584
   88SOL    HW1  263   1.347   1.998   4.851 -0.2138  0.5127 -2.3059
   88SOL    HW2  264   1.363   2.148   4.863 -0.1182  0.3694 -0.2283
   89SOL     OW  265   0.959   4.881   7.432  0.2021  0.4214 -0.2907
   89SOL    HW1  266   0.988   4.911   7.345  0.7046 -0.5629 -0.4857
   89SOL    HW2  267   0.955   4.785   7.423 -2.7751  0.4467 -0.1611
   90SOL     OW  268   3.527   1.194   6.561  0.0313 -0.0266 -0.5823
   90SOL    HW1  269   3.574   1.123   6.518 -0.6017 -1.9833  1.7589
   90SOL    HW2  270   3.491   1.155   6.640 -2.2844  2.3607 -0.3098
   91SOL     OW  271   3.779   0.452   5.513  0.4362  0.0031 -0.0506
   91SOL    HW1  272   3.693   0.428   5.547  0.8611 -0.5696  0.6451
   91SOL    HW2  273   3.771   0.545   5.491 -0.0246  0.2407  1.0764
   92SOL     OW  274   3.798   3.328   6.777 -0.6728  0.1794  0.0029
   92SOL    HW1  275   3.706   3.305   6.788 -0.8683  1.5783  1.7990
   92SOL    HW2  276   3.801   3.423   6.790  0.9780  0.2143 -0.3849
   93SOL     OW  277   0.436   4.216   6.000 -0.3464  0.0621 -0.0804
   93SOL    HW1  278   0.404   4.224   5.910  1.5444  2.7137 -0.6274
   93SOL    HW2  279   0.531   4.207   5.990 -0.1124  0.3105  1.6508
   94SOL     OW  280   4.647   4.812   6.819 -0.0716 -0.2899 -0.0937
   94SOL    HW1  281   4.553   4.810   6.801 -1.0422  3.7560  2.9909
   94SOL    HW2  282   4.673   4.903   6.803  2.6724 -0.6116  1.7704
   95SOL     OW  283   2.281   4.679   9.250 -0.4612 -0.0988  0.2262
   95SOL    HW1  284   2.286   4.736   9.326  2.5189 -1.2167  1.0575
   95SOL    HW2  285   2.259   4.593   9.286 -0.4983 -0.3375 -0.3543
   96SOL     OW  286   4.412   0.699   8.975  0.2300 -0.0081  0.5296
   96SOL    HW1  287   4.431   0.785   9.011  0.1042  0.7843 -1.1918
   96SOL    HW2  288   4.497   0.654   8.973  0.5310  0.5747  0.1749
   97SOL     OW  289   2.746   4.745   4.885 -0.0456  0.4540  0.1860
   97SOL    HW1  290   2.707   4.664   4.917  0.8482  0.0731  0.3527
   97SOL    HW2  291   2.754   4.732   4.790  2.2887 -0.6830  0.4620
   98SOL     OW  292   1.572   1.243   6.317 -0.5401  0.2339  0.2509
   98SOL    HW1  293   1.491   1.293   6.328  0.2263  1.3266  1.1502
   98SOL    HW2  294   1.636   1.288   6.373  0.6569 -0.6758 -0.3405
   99SOL     OW  295   3.169   1.963   5.649  0.8038  0.2396 -0.0822
   99SOL    HW1  296   3.185   1.986   5.558  1.5119  1.9987  0.4281
   99SOL    HW2  297   3.139   1.872   5.647  0.0331  0.4922 -2.1194
  100SOL     OW  298   0.185   1.313   5.706  0.1650  0.0572  0.2461
  100SOL    HW1  299   0.153   1.299   5.795  1.1511  1.9240  0.9395
  100SOL    HW2  300   0.106   1.312   5.651 -0.4320 -1.2703  1.0929
  101SOL     OW  301   2.117   1.795  10.248 -0.2484  0.0692  0.4309
  101SOL    HW1  302   2.121   1.831  10.337 -3.3363  0.2995  0.5725
  101SOL    HW2  303   2.175   1.851  10.197  2.1698 -0.5081  2.3633
  102SOL     OW  304   0.560   2.631   8.658 -0.0769  0.0974 -0.2442
  102SOL    HW1  305   0.473   2.608   8.625 -0.3744  0.1337  0.4972
  102SOL    HW2  306   0.554   2.724   8.679 -0.7507 -0.4483  2.4017
  103SOL     OW  307   4.579   0.619   6.502 -0.2036 -0.4202 -0.0720
  103SOL    HW1  308   4.499   0.671   6.506 -0.5199 -0.9544  0.7342
  103SOL    HW2  309   4.560   0.541   6.554  0.5240 -0.9956 -0.6435
  104SOL     OW  310   3.595   4.793   7.305 -0.4135 -0.0586  0.1846
  104SOL    HW1  311   3.540   4.773   7.229 -0.5359  1.5299 -0.1791
  104SOL    HW2  312   3.573   4.883   7.327  0.5183 -0.1013  1.3520
  105SOL     OW  313   2.862   4.964   7.226  0.3323 -0.0738  0.2232
  105SOL    HW1  314   2.872   5.060   7.224  0.4097 -0.0858 -1.1079
  105SOL    HW2  315   2.776   4.949   7.187  0.2907 -0.5475  0.4985
  106SOL     OW  316   3.526   3.758   6.627 -0.1807  0.3297 -0.5734
  106SOL    HW1  317   3.504   3.850   6.610 -0.2912  0.2419 -0.9170
  106SOL    HW2  318   3.462   3.708   6.575  1.0294  0.0687 -1.8774
  107SOL     OW  319   1.162   4.971   5.839  0.0472  0.7452  0.6571
  107SOL    HW1  320   1.191   4.925   5.918 -1.5460  1.4419  1.6917
  107SOL    HW2  321   1.212   5.053   5.840 -0.6556  1.1864  1.5094
  108SOL     OW  322   1.278   0.300   4.971  0.3788  1.1022  0.3995
  108SOL    HW1  323   1.220   0.225   4.958  0.6674  1.0737 -0.8933
  108SOL    HW2  324   1.346   0.267   5.030  2.1127 -0.6499 -2.3071
  109SOL     OW  325   2.808   2.688   5.543 -0.3629 -0.5564 -0.4819
  109SOL    HW1  326   2.800   2.657   5.633  1.1271 -2.1763 -0.8634
  109SOL    HW2  327   2.801   2.783   5.550  0.1767 -0.6125  1.4003
  110SOL     OW  328   1.758   1.507   9.033  0.4920  0.3364 -0.0204
  110SOL    HW1  329   1.747   1.447   8.959  1.1146  0.7165 -0.4360
  110SOL    HW2  330   1.674   1.553   9.039  0.1394 -0.3083  0.0712
  111SOL     OW  331   1.793   2.294   5.600  0.4928 -0.2358  0.7703
  111SOL    HW1  332   1.771   2.385   5.621  2.3640  0.2406  0.8104
  111SOL    HW2  333   1.727   2.269   5.535  0.2737  1.3343  0.3371
  112SOL     OW  334   3.303   4.038   5.087 -0.0126  0.6741 -0.3931
  112SOL    HW1  335   3.264   4.104   5.145  0.7934  1.5789 -0.8520
  112SOL    HW2  336   3.340   4.088   5.015 -1.7086 -0.4986 -2.1603
  113SOL     OW  337   4.101   2.474   5.160  1.0230 -0.7820  0.1455
  113SOL    HW1  338   4.057   2.390   5.176  2.7266 -1.3942  1.9327
  113SOL    HW2  339   4.194   2.455   5.171  1.3543  1.9054  3.8470
  114SOL     OW  340   4.728   2.455   5.367 -0.4054  0.1492  0.0489
  114SOL    HW1  341   4.784   2.390   5.408 -0.4901  1.0655  1.7126
  114SOL    HW2  342   4.773   2.477   5.286  2.7724  2.1861  2.1277
  115SOL     OW  343   2.219   1.398   7.197  0.3465  0.6201 -0.1006
  115SOL    HW1  344   2.161   1.387   7.272  0.9627  0.0171  0.2987
  115SOL    HW2  345   2.196   1.327   7.138  0.4618  0.5655 -0.0809
  116SOL     OW  346   1.206   2.752   5.829  0.1559  0.3856 -0.2665
  116SOL    HW1  347   1.185   2.729   5.919 -1.6104 -0.6885 -0.9160
  116SOL    HW2  348   1.229   2.669   5.787  1.1066  0.8910 -0.7882
  117SOL     OW  349   4.170   3.235   6.888 -0.5413 -0.6405 -0.2926
  117SOL    HW1  350   4.165   3.176   6.964 -1.7221 -0.2326 -0.0384
  117SOL    HW2  351   4.093   3.212   6.835 -1.5893  1.2893  0.2835
  118SOL     OW  352   3.084   4.559   5.804  1.0263 -0.0350  0.0672
  118SOL    HW1  353   2.992   4.534   5.812  1.0307  0.0298  0.3242
  118SOL    HW2  354   3.129   4.505   5.869  1.6242 -2.3551 -2.1209
  119SOL     OW  355   3.095   1.437   7.935 -0.3021 -0.4568 -0.4601
  119SOL    HW1  356   3.015   1.429   7.987 -0.3476 -1.6249 -0.6786
  119SOL    HW2  357   3.152   1.492   7.988  0.5015 -3.3448  1.9622
  120SOL     OW  358   0.903   1.689   8.057  0.5459  0.3125 -0.2881
  120SOL    HW1  359   0.894   1.669   7.963 -0.1633 -1.7802  0.1690
  120SOL    HW2  360   0.925   1.605   8.097 -1.5345  0.6291  1.7294
  121SOL     OW  361   0.832   0.897   9.207  0.3581 -0.2347 -0.3815
  121SOL    HW1  362   0.765   0.832   9.228  0.3336 -0.1778 -0.2805
  121SOL    HW2  363   0.847   0.887   9.113 -1.2794  1.1120 -0.8490
  122SOL     OW  364   4.343   3.413   4.408  0.7377  0.6877 -0.1470
  122SOL    HW1  365   4.314   3.323   4.392  0.2511  0.7347  0.4203
  122SOL    HW2  366   4.270   3.453   4.455  1.0468  1.3125 -0.1916
  123SOL     OW  367   2.373   0.026   7.421  0.1717  0.5162  0.1310
  123SOL    HW1  368   2.385  -0.050   7.478  0.3765  0.2494 -0.2625
  123SOL    HW2  369   2.455   0.075   7.429  0.0245  0.7240  0.4158
  124SOL     OW  370   1.707   3.274  12.966  0.2818  0.5378 -0.2603
  124SOL    HW1  371   1.690   3.364  12.993  0.0582  0.7399 -1.0358
  124SOL    HW2  372   1.631   3.250  12.912 -0.7169 -0.8534  1.6248
  125SOL     OW  373   2.587   4.289   9.814  0.0885  0.0039 -0.3439
  125SOL    HW1  374   2.668   4.273   9.863  1.6434  3.7244 -1.3024
  125SOL    HW2  375   2.614   4.295   9.723 -2.1756 -3.1822 -1.4096
  126SOL     OW  376   0.679   2.860   5.581 -0.8599  0.1003  0.7632
  126SOL    HW1  377   0.694   2.772   5.615 -0.7820  0.0812  0.6812
  126SOL    HW2  378   0.766   2.902   5.583 -0.5214 -0.4260 -0.8830
  127SOL     OW  379   0.814   1.361   9.587 -0.3431 -0.3043  0.3908
  127SOL    HW1  380   0.771   1.297   9.643  0.1345  0.3873  1.6145
  127SOL    HW2  381   0.836   1.433   9.647  0.0734  0.5278 -0.7285
  128SOL     OW  382   2.316   0.752   6.102 -0.1740 -0.1075  0.0923
  128SOL    HW1  383   2.341   0.844   6.111 -2.3437  0.4587  0.9667
  128SOL    HW2  384   2.281   0.745   6.013  0.6467 -0.2675 -0.2210
  129SOL     OW  385   4.399   2.133   8.533  0.1277 -0.6468 -0.0820
  129SOL    HW1  386   4.400   2.197   8.462  0.7194 -0.5406  0.0163
  129SOL    HW2  387   4.473   2.074   8.514  1.2196  0.2514  1.2106
  130SOL     OW  388   3.199   4.505   9.295  0.3069  0.6550 -0.7754
  130SOL    HW1  389   3.153   4.482   9.376  0.2525 -1.0137 -1.2382
  130SOL    HW2  390   3.157   4.586   9.266  0.5933  1.5253  1.0491
  131SOL     OW  391   3.029   3.000   5.627  0.0378  0.3430  0.1363
  131SOL    HW1  392   2.974   3.078   5.639 -2.1982 -1.1605  0.4087
  131SOL    HW2  393   3.049   2.998   5.533  0.7128  1.5971  0.2460
  132SOL     OW  394   0.339   2.675   6.279  0.2990  0.2546 -0.1158
  132SOL    HW1  395   0.307   2.585   6.267  0.0979 -0.0790  2.3589
  132SOL    HW2  396   0.400   2.688   6.207  0.0772 -1.7583 -0.7370
  133SOL     OW  397   1.248   0.883   4.709 -0.1788  0.2033  0.2068
  133SOL    HW1  398   1.156   0.872   4.684 -0.9619  1.1782  2.3798
  133SOL    HW2  399   1.268   0.804   4.759  0.0703  0.1182 -0.0308
  134SOL     OW  400   4.521   3.340   4.688 -0.2104  0.1654 -0.9478
  134SOL    HW1  401   4.515   3.257   4.736 -0.7372 -0.2383 -1.6742
  134SOL    HW2  402   4.607   3.337   4.646 -0.5029 -0.3479 -1.5339
  135SOL     OW  403   1.882   1.800   7.286  0.2498 -0.8840 -0.2113
  135SOL    HW1  404   1.943   1.733   7.257  2.0970  0.5179  0.2818
  135SOL    HW2  405   1.933   1.856   7.344 -0.3013  2.6810 -2.8506
  136SOL     OW  406   3.305   3.563   8.387  0.6125  0.4920  0.5006
  136SOL    HW1  407   3.255   3.488   8.419 -2.4216  1.4089 -1.6113
  136SOL    HW2  408   3.341   3.534   8.303  0.6118  0.9738  0.3303
  137SOL     OW  409   2.352   3.139   4.633  0.4135  0.8130  0.6901
  137SOL    HW1  410   2.441   3.103   4.640  0.1454  0.0781  0.3871
  137SOL    HW2  411   2.296   3.062   4.624 -0.1936  1.3043  0.2571
  138SOL     OW  412   4.802   0.541   5.645 -0.4667  0.7535 -0.1506
  138SOL    HW1  413   4.723   0.492   5.622 -0.9404  1.0743  0.7295
  138SOL    HW2  414   4.856   0.539   5.566 -1.0925  0.0154 -0.5703
  139SOL     OW  415   4.591   3.037   5.944  0.6484 -0.1298 -0.0709
  139SOL    HW1  416   4.555   2.953   5.916 -0.3286 -0.2470  1.4340
  139SOL    HW2  417   4.568   3.097   5.873  1.0331 -1.0231 -0.9889
  140SOL     OW  418   2.883   4.595   6.110 -0.0632 -0.5570 -0.0948
  140SOL    HW1  419   2.813   4.624   6.169 -1.1376 -1.1451 -1.0282
  140SOL    HW2  420   2.904   4.674   6.059  0.4979 -0.1878  0.6750
  141SOL     OW  421   2.361   1.208   4.945 -0.3089  0.0540  0.0139
  141SOL    HW1  422   2.412   1.128   4.926 -1.8794 -0.5366 -2.0691
  141SOL    HW2  423   2.382   1.267   4.872  2.0249  2.2909  2.2966
  142SOL     OW  424   2.452   3.927   6.002  0.0699  0.6197  0.0519
  142SOL    HW1  425   2.510   3.918   6.078 -0.4046  0.5616  0.4099
  142SOL    HW2  426   2.373   3.968   6.037 -0.2663  0.3212 -0.3552
  143SOL     OW  427   0.168   3.724   5.688  0.0300  0.1024  0.1002
  143SOL    HW1  428   0.256   3.743   5.656  0.6223 -0.2081  1.4734
  143SOL    HW2  429   0.135   3.808   5.719 -1.1818  0.7541 -2.6506
  144SOL     OW  430   1.186   1.144   4.776  0.0410  0.9648  0.4656
  144SOL    HW1  431   1.189   1.138   4.871 -1.7246 -0.4776  0.4929
  144SOL    HW2  432   1.199   1.054   4.746  0.2168  1.3421 -0.6344
  145SOL     OW  433   0.884   3.032   5.741  0.0635 -0.0987  0.9521
  145SOL    HW1  434   0.968   3.059   5.777  0.6846 -0.3504 -0.2407
  145SOL    HW2  435   0.820   3.089   5.783  1.3025  3.5215 -1.5274
  146SOL     OW  436   1.127   2.191   9.325 -0.1271  0.4326  0.2874
  146SOL    HW1  437   1.055   2.155   9.273 -1.4780  2.0710  0.8933
  146SOL    HW2  438   1.129   2.137   9.404 -0.2424 -0.0521 -0.0435
  147SOL     OW  439   1.080   2.183   5.015 -0.3997 -0.2227 -0.2098
  147SOL    HW1  440   1.027   2.260   5.033  2.2238  1.8149 -0.4679
  147SOL    HW2  441   1.083   2.178   4.919  0.3970  0.1178 -0.2113
  148SOL     OW  442   0.076   0.587   6.215  0.7477 -0.7760 -0.7493
  148SOL    HW1  443   0.033   0.648   6.155 -0.5598 -0.3073  0.6012
  148SOL    HW2  444   0.068   0.501   6.172 -0.9250 -0.5864 -0.8904
  149SOL     OW  445   3.326   0.142   5.534  0.2197 -0.5740  0.1410
  149SOL    HW1  446   3.405   0.090   5.547 -0.9538 -2.7334 -0.8021
  149SOL    HW2  447   3.308   0.181   5.620  2.7397  0.6945  0.1563
  150SOL     OW  448   1.441   4.197   5.165  0.3993  1.1995 -0.4028
  150SOL    HW1  449   1.408   4.241   5.086  0.3164  2.5081  0.3407
  150SOL    HW2  450   1.536   4.196   5.155  0.3115 -0.5325 -1.4779
  151SOL     OW  451   4.909   1.140   5.493  0.3941  0.1207 -0.6988
  151SOL    HW1  452   4.921   1.218   5.546 -2.6940 -1.2508  2.4081
  151SOL    HW2  453   4.967   1.075   5.533 -0.0660 -0.2512 -0.6316
  152SOL     OW  454   3.588   4.145   6.517 -0.6156 -0.0803 -0.1060
  152SOL    HW1  455   3.632   4.200   6.453 -1.0178  1.1045  0.6062
  152SOL    HW2  456   3.641   4.065   6.521  0.5268  0.6461 -0.4476
  153SOL     OW  457   1.633   1.644   4.646 -0.1498  0.8630 -0.3078
  153SOL    HW1  458   1.725   1.619   4.640  0.5381  2.2724  2.4792
  153SOL    HW2  459   1.587   1.562   4.663  0.7431  0.3014 -0.5266
  154SOL     OW  460   4.206   4.552   5.371  0.1393  0.6628 -0.4492
  154SOL    HW1  461   4.238   4.579   5.458  1.6875 -3.2036  0.3709
  154SOL    HW2  462   4.276   4.579   5.312  0.0482  1.4341 -0.2265
  155SOL     OW  463   2.642   2.355   6.364 -0.4706  0.3763  0.2894
  155SOL    HW1  464   2.663   2.430   6.420  2.4939 -0.3896  0.3309
  155SOL    HW2  465   2.726   2.316   6.343 -1.8876 -3.6952  1.2132
  156SOL     OW  466   3.628   2.701   5.248 -0.6894 -0.2167  0.2989
  156SOL    HW1  467   3.687   2.757   5.297 -2.4063  0.8764  1.2132
  156SOL    HW2  468   3.567   2.761   5.206 -0.2446 -1.2219 -1.9288
  157SOL     OW  469   0.800   3.631   5.327  1.3798  0.5846  0.5945
  157SOL    HW1  470   0.883   3.678   5.337  1.6402  0.5351 -1.0929
  157SOL    HW2  471   0.813   3.549   5.373  2.2053  0.6516  0.4949
  158SOL     OW  472   3.103   2.924   5.221 -0.1763  0.0676  0.5939
  158SOL    HW1  473   3.018   2.881   5.233 -0.1724 -0.8994 -2.0735
  158SOL    HW2  474   3.101   2.956   5.131  1.4865  1.9985  1.1704
  159SOL     OW  475   2.664   4.020   5.836 -0.1721 -0.2181 -0.2933
  159SOL    HW1  476   2.624   4.033   5.750 -2.0923  2.5234  0.8314
  159SOL    HW2  477   2.590   3.999   5.893  0.7823 -0.2389  0.9784
  160SOL     OW  478   1.270   4.230   4.945  0.4583 -0.7337 -0.2013
  160SOL    HW1  479   1.177   4.230   4.926  0.5519 -0.5463 -0.6694
  160SOL    HW2  480   1.312   4.261   4.865  0.9813 -1.5663 -0.2673
  161SOL     OW  481   0.735   1.638   8.678 -0.1912  0.5670  0.2849
  161SOL    HW1  482   0.742   1.550   8.640  1.0146  1.4467 -1.7257
  161SOL    HW2  483   0.824   1.661   8.703 -0.2091  1.7378 -0.6027
  162SOL     OW  484   1.599   3.048   5.654  0.5790  0.3819 -0.3576
  162SOL    HW1  485   1.635   3.077   5.737 -0.7184  2.4904 -0.4626
  162SOL    HW2  486   1.527   2.990   5.678 -1.6776  3.2106  0.2075
  163SOL     OW  487   1.876   3.799   0.584  0.5624  0.5565 -0.3208
  163SOL    HW1  488   1.871   3.810   0.489  1.3273  1.4826 -0.2662
  163SOL    HW2  489   1.883   3.889   0.618 -0.2679  0.2735  0.6496
  164SOL     OW  490   1.342   3.816   6.018 -0.4133  0.1589  0.2129
  164SOL    HW1  491   1.256   3.788   5.987  0.1972  0.4903 -1.9795
  164SOL    HW2  492   1.381   3.738   6.056 -0.4955 -0.8569 -1.6733
  165SOL     OW  493   0.872   2.337   6.037  0.5965 -0.5642  0.0341
  165SOL    HW1  494   0.895   2.297   5.952 -1.8778 -0.1936 -0.9019
  165SOL    HW2  495   0.843   2.263   6.090 -3.0857 -0.3845 -1.3903
  166SOL     OW  496   2.309   0.222   7.031 -0.0686 -0.0902 -0.5762
  166SOL    HW1  497   2.347   0.138   7.056 -0.2952 -0.3697 -1.1661
  166SOL    HW2  498   2.383   0.284   7.036  0.5095 -0.6581 -1.8556
  167SOL     OW  499   1.560   2.203   6.095  0.6444  0.7891 -0.1279
  167SOL    HW1  500   1.500   2.145   6.141 -2.4195  2.5409 -1.5654
  167SOL    HW2  501   1.572   2.163   6.009  0.0353  1.2869 -0.4595
  168SOL     OW  502   3.154   0.920   4.576 -0.4927 -0.0653 -0.8330
  168SOL    HW1  503   3.097   0.967   4.514 -1.1043 -4.3715 -4.0010
  168SOL    HW2  504   3.242   0.946   4.551 -0.7395  3.1680  1.0762
  169SOL     OW  505   2.568   3.031   5.258 -0.0296 -0.2163  0.2359
  169SOL    HW1  506   2.542   3.007   5.347 -0.8624 -0.7872 -0.1455
  169SOL    HW2  507   2.489   3.071   5.220  0.0385 -0.7515 -0.5118
  170SOL     OW  508   3.882   0.896  13.548 -0.3112 -0.6223  0.0451
  170SOL    HW1  509   3.892   0.908  13.454 -1.9636 -0.2854 -0.1162
  170SOL    HW2  510   3.900   0.983  13.585  2.0616 -1.1335  0.2474
  171SOL     OW  511   2.878   1.065   8.524  0.0339  0.6418 -0.0500
  171SOL    HW1  512   2.790   1.032   8.507  0.0341  0.5737  0.0798
  171SOL    HW2  513   2.913   1.087   8.438  1.2012 -2.6257 -0.5549
  172SOL     OW  514   3.228   1.853   9.058 -0.4076  0.4629 -0.4242
  172SOL    HW1  515   3.261   1.819   9.141  0.6969  2.7737  0.1775
  172SOL    HW2  516   3.143   1.890   9.079 -1.0297 -0.7160 -0.7950
  173SOL     OW  517   4.844   3.855  12.760 -0.0412 -0.5909 -0.4411
  173SOL    HW1  518   4.849   3.855  12.856  3.0258  0.7699 -0.4741
  173SOL    HW2  519   4.848   3.763  12.735  2.4801 -0.9198  0.7820
  174SOL     OW  520   4.845   2.616   6.745  0.1577  0.4317  0.5328
  174SOL    HW1  521   4.767   2.588   6.792  0.2672  1.9296  1.6678
  174SOL    HW2  522   4.827   2.595   6.653 -0.9273 -0.6153  0.9685
  175SOL     OW  523   0.678   0.405   5.025 -0.1874  0.1249 -0.3331
  175SOL    HW1  524   0.594   0.445   5.004 -0.5530  0.0453  0.8909
  175SOL    HW2  525   0.665   0.365   5.111  1.3581  0.9097  0.3204
  176SOL     OW  526   2.652   2.887   6.394  0.5326 -0.2543 -0.7020
  176SOL    HW1  527   2.722   2.846   6.344  2.1594  0.5266  0.8339
  176SOL    HW2  528   2.689   2.971   6.423 -0.8339 -0.0548  0.6161
  177SOL     OW  529   2.096   4.318   6.268 -0.4714  0.3106 -0.4279
  177SOL    HW1  530   2.045   4.271   6.334 -2.6926 -0.0393 -2.2551
  177SOL    HW2  531   2.147   4.381   6.318 -0.0480 -1.6476  1.8050
  178SOL     OW  532   0.562   4.871   5.502 -0.3871 -0.1180 -0.3463
  178SOL    HW1  533   0.617   4.818   5.444 -1.9557  0.0286 -2.0970
  178SOL    HW2  534   0.603   4.865   5.587  1.6874 -0.9043 -1.3412
  179SOL     OW  535   0.995   0.885   7.170  0.3988 -0.3177  0.4724
  179SOL    HW1  536   1.077   0.854   7.208  0.2419 -1.1403  0.1595
  179SOL    HW2  537   1.011   0.887   7.076 -0.1500 -1.1339  0.3565
  180SOL     OW  538   2.010   1.901   6.568 -0.0240 -0.0789  0.6413
  180SOL    HW1  539   2.004   1.816   6.523  0.3049  0.4584 -0.4515
  180SOL    HW2  540   1.920   1.920   6.597 -0.2514 -0.4117  0.1595
  181SOL     OW  541   0.984   4.559   6.999 -0.7110  0.4146 -0.0828
  181SOL    HW1  542   1.017   4.604   6.922 -2.0110  2.1924  0.3622
  181SOL    HW2  543   0.892   4.543   6.981 -0.4200 -1.6871 -0.0043
  182SOL     OW  544   4.258   2.947   6.776  0.1929  0.7373 -0.3229
  182SOL    HW1  545   4.216   2.924   6.858 -0.1562  0.0107 -0.6977
  182SOL    HW2  546   4.233   3.039   6.762 -1.1651  0.3809 -0.4559
  183SOL     OW  547   3.755   3.333   9.561  0.5535 -0.4012 -0.3011
  183SOL    HW1  548   3.692   3.348   9.491  0.7600  0.6573 -0.2739
  183SOL    HW2  549   3.816   3.407   9.555  1.6034 -1.2194 -0.1159
  184SOL     OW  550   3.887   4.427   7.114  0.5485 -0.4333 -0.3214
  184SOL    HW1  551   3.976   4.392   7.113  0.6117 -0.2704 -0.4474
  184SOL    HW2  552   3.831   4.350   7.103  0.7440 -0.2867 -3.2118
  185SOL     OW  553   1.556   4.656   7.663 -0.2062  0.1501  0.3298
  185SOL    HW1  554   1.626   4.649   7.727 -0.3885 -0.7734  0.4444
  185SOL    HW2  555   1.571   4.740   7.619  0.0176  0.7172  1.4532
  186SOL     OW  556   2.226   1.264   5.848  0.8654 -0.2360  0.0836
  186SOL    HW1  557   2.205   1.290   5.758  0.2511 -1.0521 -0.0221
  186SOL    HW2  558   2.322   1.265   5.851  0.8752  1.1929 -0.1480
  187SOL     OW  559   3.683   3.919   5.008 -0.3043 -0.3991 -0.8161
  187SOL    HW1  560   3.664   3.888   5.096  2.5419  1.2301  0.5202
  187SOL    HW2  561   3.708   4.011   5.020  0.8985 -0.3416 -3.2021
  188SOL     OW  562   3.151   3.345   7.336 -0.1926  0.2806  0.2845
  188SOL    HW1  563   3.062   3.320   7.359  0.2747  1.4154  3.9487
  188SOL    HW2  564   3.172   3.418   7.395  3.1264  0.0881 -0.4606
  189SOL     OW  565   1.016   3.442   5.096  0.4444  0.2072  0.2487
  189SOL    HW1  566   0.935   3.491   5.081 -0.4381 -1.4274 -0.7433
  189SOL    HW2  567   1.074   3.503   5.141 -1.0320  1.7079  0.2108
  190SOL     OW  568   1.903   2.557   5.392  0.4328  0.1897  0.9594
  190SOL    HW1  569   1.838   2.569   5.323  2.9819 -0.8369 -1.8904
  190SOL    HW2  570   1.900   2.638   5.442 -4.5465 -0.6846  2.6180
  191SOL     OW  571   2.553   0.989   6.842 -0.4477  0.2604 -0.0460
  191SOL    HW1  572   2.573   0.933   6.767 -0.8647  1.7719 -1.3344
  191SOL    HW2  573   2.629   0.982   6.899  0.0860 -0.5352 -0.8332
  192SOL     OW  574   4.811   0.774   6.568 -0.5744  0.4221  0.5802
  192SOL    HW1  575   4.885   0.744   6.515  0.4911  0.3692  2.0171
  192SOL    HW2  576   4.734   0.761   6.512  0.5134  0.6719 -1.0319
  193SOL     OW  577   1.917   2.964   8.015 -0.9025 -0.4235 -0.2266
  193SOL    HW1  578   1.850   3.000   8.073  0.0317  0.3875  0.3781
  193SOL    HW2  579   1.917   2.870   8.033 -0.2715 -0.1301  1.4994
  194SOL     OW  580   2.282   2.175   7.858  0.2986 -0.1832  0.7221
  194SOL    HW1  581   2.238   2.135   7.782 -1.6502  2.8550  0.0758
  194SOL    HW2  582   2.370   2.137   7.857 -0.2587 -1.6785 -1.9145
  195SOL     OW  583   1.440   2.350   5.295 -0.1375  0.0970 -0.2837
  195SOL    HW1  584   1.346   2.337   5.285  0.1101 -1.9992 -0.4205
  195SOL    HW2  585   1.454   2.443   5.280 -1.9874  0.1722 -1.8514
  196SOL     OW  586   1.154   1.965   6.105  0.1255  0.3486 -0.4319
  196SOL    HW1  587   1.157   1.870   6.101  3.4206  0.3723 -3.4347
  196SOL    HW2  588   1.223   1.989   6.168  1.1498  0.6793 -1.6334
  197SOL     OW  589   2.506   1.706   7.194  0.1171 -0.7251  0.4192
  197SOL    HW1  590   2.424   1.755   7.197  0.5428  0.3306 -2.3022
  197SOL    HW2  591   2.560   1.752   7.129  1.8728 -2.8636  0.2265
  198SOL     OW  592   2.689   2.881   5.828 -0.6235  0.0132 -0.2584
  198SOL    HW1  593   2.765   2.822   5.835  0.7697  1.5696 -1.3970
  198SOL    HW2  594   2.618   2.833   5.869  0.5573 -2.2456 -0.6889
  199SOL     OW  595   4.781   3.653   6.861  0.0915  0.2925 -0.4739
  199SOL    HW1  596   4.860   3.644   6.808  0.6191  1.6733  0.0333
  199SOL    HW2  597   4.714   3.685   6.800 -0.3887 -1.7418 -1.1157
  200SOL     OW  598   3.514   0.380   7.257 -0.2898 -0.1830 -0.6486
  200SOL    HW1  599   3.509   0.285   7.265 -2.2093 -0.0455  0.4081
  200SOL    HW2  600   3.603   0.401   7.282  0.0542 -1.6781 -0.5013
  201SOL     OW  601   4.450   1.467   8.222 -0.2415  0.5690 -0.3614
  201SOL    HW1  602   4.500   1.431   8.148  2.7651 -0.6136  1.9892
  201SOL    HW2  603   4.412   1.390   8.265 -0.1243  0.9811  0.5046
  202SOL     OW  604   3.753   0.104   7.773  0.4870 -0.4689  0.2958
  202SOL    HW1  605   3.832   0.051   7.764 -0.6974 -2.1265 -0.9904
  202SOL    HW2  606   3.708   0.069   7.850  0.2087 -0.6376  0.0589
  203SOL     OW  607   3.294   0.062   5.148  0.1921 -0.0832  0.4159
  203SOL    HW1  608   3.388   0.069   5.166  0.4736 -0.2629 -0.8366
  203SOL    HW2  609   3.260   0.149   5.166  0.8122  0.2963 -0.1810
  204SOL     OW  610   0.242   2.002   7.493  0.4645  0.1330  0.8436
  204SOL    HW1  611   0.311   1.953   7.448 -0.1332  1.2074 -1.3292
  204SOL    HW2  612   0.175   2.015   7.427 -1.6315 -0.4255  2.7611
  205SOL     OW  613   2.507   2.981   4.322 -0.5124 -0.3230 -0.3804
  205SOL    HW1  614   2.531   3.059   4.272 -0.5281 -1.4728 -2.3045
  205SOL    HW2  615   2.413   2.974   4.311 -0.0842 -3.3669 -4.8532
  206SOL     OW  616   1.976   4.067   7.294  0.4399 -0.8225 -0.7713
  206SOL    HW1  617   1.959   4.090   7.385 -0.5867 -0.6293 -1.0038
  206SOL    HW2  618   2.066   4.095   7.279 -0.1844  1.4669 -0.5482
  207SOL     OW  619   2.956   4.915   6.040  0.2441  0.2311 -0.4691
  207SOL    HW1  620   3.030   4.911   5.979 -0.2024 -1.0276 -0.9693
  207SOL    HW2  621   2.896   4.978   6.001 -0.0956 -0.6551 -1.4198
  208SOL     OW  622   4.940   4.078   7.670  0.4727 -0.4524  0.0826
  208SOL    HW1  623   5.025   4.034   7.675  1.9837  2.3305  1.1472
  208SOL    HW2  624   4.903   4.049   7.586  1.7174 -2.9131  0.2948
  209SOL     OW  625   2.413   1.218   5.323 -0.6716 -0.0218 -0.2129
  209SOL    HW1  626   2.320   1.197   5.332 -0.7045  0.8006  2.0365
  209SOL    HW2  627   2.433   1.199   5.231 -3.4828  1.5226 -1.2805
  210SOL     OW  628   2.493   4.953   5.224 -0.1491  0.1755 -1.4744
  210SOL    HW1  629   2.582   4.961   5.189 -0.5549 -0.3280 -2.6451
  210SOL    HW2  630   2.495   5.005   5.304  1.3899 -0.3716 -1.1132
  211SOL     OW  631   4.515   3.856   9.662  0.4984  0.9656 -0.1543
  211SOL    HW1  632   4.609   3.872   9.670  0.8954 -0.9440 -0.4526
  211SOL    HW2  633   4.508   3.783   9.600 -1.3926  3.0928 -2.7031
  212SOL     OW  634   0.957   1.644   5.756 -0.6359 -0.0098  0.2795
  212SOL    HW1  635   0.896   1.704   5.713  0.5935  0.0263 -1.5163
  212SOL    HW2  636   1.036   1.647   5.702  1.0926  0.1467  2.6607
  213SOL     OW  637   1.061   1.935   5.119 -0.7894  0.2967 -0.2762
  213SOL    HW1  638   1.137   1.900   5.072  1.5456 -1.2012  4.0881
  213SOL    HW2  639   1.061   2.028   5.097  3.5528  0.7606  0.8056
  214SOL     OW  640   0.311   4.910   4.947 -1.2351  0.0725 -0.0776
  214SOL    HW1  641   0.397   4.888   4.912 -0.9574 -0.7216  1.0888
  214SOL    HW2  642   0.254   4.913   4.869 -0.5237 -1.1378 -0.6636
  215SOL     OW  643   4.724   3.475   7.799 -0.7583 -0.8600 -0.0454
  215SOL    HW1  644   4.649   3.498   7.853 -1.0101 -0.3459 -0.6113
  215SOL    HW2  645   4.765   3.558   7.776 -0.4268 -1.0937 -0.3265
  216SOL     OW  646   0.038   2.858   8.757  0.5876 -0.3828  1.2825
  216SOL    HW1  647   0.131   2.877   8.769  0.7042 -0.2063  0.1695
  216SOL    HW2  648   0.010   2.918   8.688 -0.3213 -0.5510  1.4915
  217SOL     OW  649   0.142   1.698   6.413  0.3850  0.1375  0.2775
  217SOL    HW1  650   0.179   1.681   6.499 -1.4898 -0.2091  1.0552
  217SOL    HW2  651   0.067   1.756   6.430 -2.1791 -2.6856 -0.6335
  218SOL     OW  652   0.022   0.343   8.352 -0.0275 -0.2480 -0.0315
  218SOL    HW1  653   0.013   0.248   8.341  0.1223 -0.1691 -0.8705
  218SOL    HW2  654   0.113   0.356   8.377 -0.3714 -0.4279  1.4225
  219SOL     OW  655   1.036   2.057   5.894 -0.2283 -0.8291  1.0656
  219SOL    HW1  656   1.120   2.068   5.850 -0.4805  0.5806  0.8897
  219SOL    HW2  657   1.059   2.019   5.979  0.7890  0.9973  1.6622
  220SOL     OW  658   1.087   0.733   6.979  0.0831 -0.2245 -0.0863
  220SOL    HW1  659   1.074   0.658   7.036 -0.7282 -2.4023 -2.9114
  220SOL    HW2  660   1.175   0.721   6.943  0.0551  0.3584 -0.3620
  221SOL     OW  661   3.124   1.259   8.593 -0.4571 -0.3832  0.1870
  221SOL    HW1  662   3.082   1.337   8.627  1.0637  0.6372 -0.1482
  221SOL    HW2  663   3.153   1.212   8.672 -1.6879 -0.8209  0.3995
  222SOL     OW  664   0.520   1.348   6.819  0.4673 -0.0263 -0.6613
  222SOL    HW1  665   0.606   1.313   6.796  1.3147  1.5309 -0.0204
  222SOL    HW2  666   0.474   1.357   6.736  0.7324 -1.3196 -0.9645
  223SOL     OW  667   2.548   0.771   4.662 -0.0798 -0.1178 -0.0691
  223SOL    HW1  668   2.503   0.690   4.683 -2.1262  0.8848 -0.3620
  223SOL    HW2  669   2.487   0.819   4.605  0.9346  1.7408  0.3054
  224SOL     OW  670   3.225   1.709   8.778  0.3736  0.0018 -0.2279
  224SOL    HW1  671   3.195   1.794   8.811  1.3859  0.2583  0.0401
  224SOL    HW2  672   3.273   1.730   8.698  1.1801 -0.2576  0.1874
  225SOL     OW  673   1.095   3.917   5.010 -0.2193 -0.0422  0.7249
  225SOL    HW1  674   1.183   3.946   4.986 -0.0677 -1.5456 -0.6212
  225SOL    HW2  675   1.102   3.896   5.103  0.4941  1.0379  0.9379
  226SOL     OW  676   3.769   1.078   9.221 -0.3662  0.1159 -0.9022
  226SOL    HW1  677   3.839   1.053   9.160  0.7264 -2.4317  1.2087
  226SOL    HW2  678   3.811   1.080   9.307 -2.3302  1.3344  0.1045
  227SOL     OW  679   3.979   4.981   7.699  0.2024  0.2947 -0.6746
  227SOL    HW1  680   4.032   5.003   7.623  2.1508  2.2396  1.0939
  227SOL    HW2  681   4.018   4.900   7.733  0.6926  0.5588 -0.5940
  228SOL     OW  682   1.231   4.654   8.008  0.8488  1.0286 -0.2634
  228SOL    HW1  683   1.265   4.653   7.919  2.0397  1.7708  0.1655
  228SOL    HW2  684   1.295   4.605   8.059  1.8778  3.2616  0.7275
  229SOL     OW  685   0.392   1.715   6.680  0.1069 -0.0643 -0.2827
  229SOL    HW1  686   0.373   1.725   6.773  0.4599  0.3222 -0.2457
  229SOL    HW2  687   0.357   1.629   6.656  2.1073 -1.2428  0.7580
  230SOL     OW  688   3.875   3.702   8.436 -0.2229 -0.3702  0.1276
  230SOL    HW1  689   3.960   3.723   8.397  0.0362 -1.1790  0.2265
  230SOL    HW2  690   3.894   3.634   8.501 -1.2055 -2.3733 -1.5271
  231SOL     OW  691   4.335   0.623   4.893 -0.5995  0.4301 -0.5369
  231SOL    HW1  692   4.388   0.549   4.921 -1.1584  0.2255 -0.0086
  231SOL    HW2  693   4.327   0.612   4.798 -0.4616 -0.0387 -0.4970
  232SOL     OW  694   1.108   4.186   6.751 -0.0116  0.5513 -0.4712
  232SOL    HW1  695   1.021   4.147   6.742 -0.6905  1.5212  1.3275
  232SOL    HW2  696   1.146   4.144   6.828  1.2435 -0.0136 -1.3559
  233SOL     OW  697   1.038   1.427   6.493  0.1242  0.0375 -0.6196
  233SOL    HW1  698   0.999   1.505   6.453  0.6789  0.5369 -0.2153
  233SOL    HW2  699   1.077   1.379   6.420  1.1611  0.9568 -0.6861
  234SOL     OW  700   1.191   1.333   6.799 -0.7856 -0.3309  0.0158
  234SOL    HW1  701   1.239   1.388   6.738 -1.5500 -1.5798 -1.7958
  234SOL    HW2  702   1.248   1.328   6.876 -1.0117  3.4993  0.5975
  235SOL     OW  703   2.440   3.820   6.727 -0.1434 -0.4111  0.0840
  235SOL    HW1  704   2.493   3.743   6.748  2.6549  1.9094  2.4112
  235SOL    HW2  705   2.373   3.787   6.666  0.3985 -4.7622  1.4640
  236SOL     OW  706   4.748   2.164   5.219 -0.2105  0.2285  0.1377
  236SOL    HW1  707   4.656   2.190   5.215 -0.3928 -0.5714 -1.5536
  236SOL    HW2  708   4.747   2.074   5.251 -0.1193 -0.2002 -1.0345
  237SOL     OW  709   3.778   3.429   8.829  0.0447 -0.6260 -0.0651
  237SOL    HW1  710   3.863   3.426   8.873 -0.5411  1.0648  1.3111
  237SOL    HW2  711   3.756   3.337   8.813  0.9721 -1.2347  1.8645
  238SOL     OW  712   0.245   3.478   8.540  0.0855 -0.0444  0.2767
  238SOL    HW1  713   0.224   3.415   8.608  0.0405  0.5921  0.8629
  238SOL    HW2  714   0.243   3.428   8.459  0.6321 -0.9243  0.7906
  239SOL     OW  715   3.250   0.517   7.207 -0.0005 -0.2254  1.0443
  239SOL    HW1  716   3.324   0.578   7.211 -1.8624  2.1487  3.1685
  239SOL    HW2  717   3.269   0.452   7.274  1.1902 -1.0337 -0.0301
  240SOL     OW  718   1.701   0.190   6.500 -0.3123 -0.1454  0.3859
  240SOL    HW1  719   1.703   0.255   6.430 -1.6755 -1.3327 -0.8290
  240SOL    HW2  720   1.731   0.237   6.577  0.9029  1.3108 -0.9073
  241SOL     OW  721   4.020   0.964   9.235 -0.6536  0.2359 -0.1005
  241SOL    HW1  722   4.043   1.023   9.306 -0.1478  0.0292 -0.0879
  241SOL    HW2  723   4.024   0.876   9.274  3.0508 -0.2267 -1.1597
  242SOL     OW  724   1.686   2.518   5.155  0.2239 -0.4798  0.4150
  242SOL    HW1  725   1.609   2.559   5.194  0.8717  1.3173 -0.0835
  242SOL    HW2  726   1.660   2.500   5.065 -0.3867 -2.1602  0.8904
  243SOL     OW  727   3.005   2.830   7.694 -0.7931  0.4862  0.0508
  243SOL    HW1  728   3.083   2.825   7.748 -0.8312 -0.0613  0.0529
  243SOL    HW2  729   2.966   2.743   7.698 -1.3459  0.7237 -0.0395
  244SOL     OW  730   2.757   0.034   8.648 -0.3089 -0.0493  0.4622
  244SOL    HW1  731   2.825   0.041   8.716  0.3299  0.5879 -0.2204
  244SOL    HW2  732   2.755  -0.059   8.626 -1.1374 -0.4090  1.9526
  245SOL     OW  733   3.786   4.048   9.171 -0.3980 -0.1911 -0.2075
  245SOL    HW1  734   3.779   4.137   9.137  0.9556 -0.1900 -0.5751
  245SOL    HW2  735   3.770   3.992   9.094 -0.5810 -0.2501 -0.1265
  246SOL     OW  736   2.321   2.418   5.561 -0.0632  0.1288  0.1146
  246SOL    HW1  737   2.273   2.335   5.562 -0.2277  0.2244  0.3199
  246SOL    HW2  738   2.253   2.485   5.554 -0.2943  0.4567  3.6972
  247SOL     OW  739   1.381   2.327   8.011 -0.7301  0.2016 -0.2349
  247SOL    HW1  740   1.340   2.259   8.065  2.6735 -1.1458  0.9279
  247SOL    HW2  741   1.373   2.407   8.063 -0.3545 -0.4138  0.8059
  248SOL     OW  742   1.920   0.375   7.638  0.3496 -0.6517  0.4401
  248SOL    HW1  743   1.942   0.344   7.551 -0.9210  0.9814 -0.5261
  248SOL    HW2  744   1.974   0.323   7.697  1.8071 -1.2630 -1.3571
  249SOL     OW  745   3.750   0.745  10.179 -0.5737  0.8079 -0.3399
  249SOL    HW1  746   3.789   0.823  10.218  1.0179 -0.4064  0.6168
  249SOL    HW2  747   3.714   0.696  10.253 -0.4544  0.0491 -0.7724
  250SOL     OW  748   3.190   2.111   8.552 -0.2453  0.0988  0.2903
  250SOL    HW1  749   3.189   2.063   8.635 -0.2329  0.0690  0.2734
  250SOL    HW2  750   3.282   2.112   8.526 -0.5960 -3.4074 -1.7347
  251SOL     OW  751   1.531   3.120   9.482 -0.2690  0.2521 -0.1458
  251SOL    HW1  752   1.623   3.095   9.491 -0.5372 -0.6333  0.1618
  251SOL    HW2  753   1.502   3.080   9.400 -0.3802  0.5655 -0.2652
  252SOL     OW  754   4.904   3.865   5.430  0.1860  0.5433 -0.3746
  252SOL    HW1  755   4.926   3.795   5.492  0.2388  0.9338  0.0543
  252SOL    HW2  756   4.810   3.852   5.412 -0.3220  1.5834  1.3105
  253SOL     OW  757   2.931   3.222   6.657 -0.1967 -0.7841 -0.3506
  253SOL    HW1  758   2.925   3.254   6.746 -1.5542 -2.8801  0.3869
  253SOL    HW2  759   2.852   3.254   6.613 -0.1138 -0.7213 -0.4558
  254SOL     OW  760   0.045   4.839   8.467  0.8248  0.4190 -0.3550
  254SOL    HW1  761  -0.048   4.821   8.482  0.0491  1.7263 -2.8488
  254SOL    HW2  762   0.074   4.884   8.546 -0.1550 -1.4881  1.1759
  255SOL     OW  763   3.027   0.442   7.921  0.0162  0.1285  0.1769
  255SOL    HW1  764   3.114   0.412   7.893  0.0118  2.1485 -2.3901
  255SOL    HW2  765   3.032   0.537   7.914 -2.3856  0.2917 -0.0344
  256SOL     OW  766   1.029   1.807   6.631  0.1698  0.4044 -0.4765
  256SOL    HW1  767   0.959   1.868   6.657  2.0900  2.7939 -0.4987
  256SOL    HW2  768   0.996   1.765   6.552 -1.9880  0.0143  0.5607
  257SOL     OW  769   4.908   3.354   8.646  0.1930 -0.5424 -0.2175
  257SOL    HW1  770   4.922   3.265   8.614 -1.5821 -0.1441 -2.4448
  257SOL    HW2  771   4.945   3.410   8.577  1.6111  0.4705  1.3165
  258SOL     OW  772   4.254   0.987   7.389 -0.8598  0.0891  0.2761
  258SOL    HW1  773   4.332   1.036   7.366 -1.9806  1.4351 -0.8074
  258SOL    HW2  774   4.252   0.914   7.326 -0.2976 -0.1761  0.5570
  259SOL     OW  775   4.173   4.758   4.895 -0.0729 -0.1653  0.5653
  259SOL    HW1  776   4.264   4.777   4.915  0.4391 -0.8531 -0.9636
  259SOL    HW2  777   4.138   4.840   4.859  0.2975 -0.2618 -0.0152
  260SOL     OW  778   2.728   2.035   8.784  0.0672 -0.4764  0.3488
  260SOL    HW1  779   2.705   1.944   8.801 -1.8127 -0.1187  0.0245
  260SOL    HW2  780   2.658   2.085   8.826  0.1228  0.7315 -0.9047
  261SOL     OW  781   1.372   3.570   6.167 -0.1676  0.6727 -0.0918
  261SOL    HW1  782   1.312   3.503   6.200  2.3872 -1.3970  0.7170
  261SOL    HW2  783   1.424   3.595   6.243  1.3229  0.8802 -1.1266
  262SOL     OW  784   3.566   1.485   9.718  0.3777 -0.7252  0.3197
  262SOL    HW1  785   3.654   1.514   9.694 -1.1217  0.9768 -4.1677
  262SOL    HW2  786   3.528   1.559   9.765  0.4199 -0.1796 -0.4798
  263SOL     OW  787   4.529   2.837   8.563 -0.6052  0.4498  0.3609
  263SOL    HW1  788   4.497   2.921   8.597 -0.5766  0.5946  0.0255
  263SOL    HW2  789   4.602   2.814   8.620  0.5339  1.5238 -0.6382
  264SOL     OW  790   4.546   0.749   9.389  0.0495 -0.1432  0.2710
  264SOL    HW1  791   4.600   0.680   9.352  2.4779  1.4341  0.5893
  264SOL    HW2  792   4.589   0.771   9.472 -1.9072  0.3026  1.2275
  265SOL     OW  793   3.922   1.739   6.078  0.6016  0.0929  0.4264
  265SOL    HW1  794   3.946   1.691   5.998  0.0562  0.7554 -0.1494
  265SOL    HW2  795   3.925   1.673   6.147  0.7646 -0.5660 -0.1896
  266SOL     OW  796   3.979   3.132   6.741 -0.3652 -0.3364  1.3280
  266SOL    HW1  797   3.931   3.215   6.744  1.4951  0.9754 -1.6374
  266SOL    HW2  798   3.946   3.088   6.663  2.7136  0.4023 -0.5545
  267SOL     OW  799   1.207   3.680   6.499  0.3765  0.8566  0.1828
  267SOL    HW1  800   1.195   3.603   6.555  1.3660 -0.2211 -1.0274
  267SOL    HW2  801   1.211   3.754   6.560 -1.2284  0.0448  1.3291
  268SOL     OW  802   1.755   1.617   6.264  0.1875 -0.6642 -0.0318
  268SOL    HW1  803   1.796   1.571   6.191  0.0554 -0.2281 -0.3833
  268SOL    HW2  804   1.802   1.700   6.269 -0.7066 -0.1170 -0.4988
  269SOL     OW  805   4.061   4.037   6.645 -0.0274 -0.5549  0.2120
  269SOL    HW1  806   4.087   3.996   6.728 -1.6444  1.4302  1.8000
  269SOL    HW2  807   3.966   4.032   6.644 -0.1115  0.6315 -0.8895
  270SOL     OW  808   1.988   0.388   9.768  0.0831 -0.0623 -0.5314
  270SOL    HW1  809   1.981   0.483   9.773 -4.4108 -0.2344  1.3897
  270SOL    HW2  810   2.049   0.364   9.839  3.0635  1.2882 -2.4542
  271SOL     OW  811   0.930   4.570   8.707  0.0796 -0.1095 -0.0613
  271SOL    HW1  812   0.920   4.477   8.727 -0.3021  0.0505  0.4907
  271SOL    HW2  813   0.960   4.609   8.789 -1.2398  0.5052  0.1544
  272SOL     OW  814   3.634   1.276   7.517  0.0092  0.6144 -0.4825
  272SOL    HW1  815   3.541   1.294   7.503  0.0527  0.5768 -0.8209
  272SOL    HW2  816   3.677   1.361   7.506 -0.0398  0.7332  0.1898
  273SOL     OW  817   2.745   0.395   6.041  0.0099 -0.0798 -0.2321
  273SOL    HW1  818   2.802   0.437   6.106  1.0793  1.5421 -2.0972
  273SOL    HW2  819   2.780   0.424   5.957  0.0817 -3.8491 -1.6881
  274SOL     OW  820   3.316   1.084   8.469 -0.3106 -0.5770  0.1586
  274SOL    HW1  821   3.247   1.144   8.496  0.3603  1.0735 -1.5993
  274SOL    HW2  822   3.271   1.017   8.417 -0.4331  1.9663 -3.3229
  275SOL     OW  823   3.152   1.221   7.323  1.1436 -0.1005  0.0654
  275SOL    HW1  824   3.159   1.225   7.228  0.6314  0.4159  0.0463
  275SOL    HW2  825   3.119   1.133   7.341 -0.7585  0.4759 -0.3667
  276SOL     OW  826   0.686   0.615   7.920 -0.4154 -0.2174  0.1809
  276SOL    HW1  827   0.684   0.582   7.830 -0.4302 -2.0303  0.8133
  276SOL    HW2  828   0.704   0.708   7.911  2.8039 -0.8757 -1.5982
  277SOL     OW  829   1.359   4.920   8.167  1.1331  0.7231 -0.0793
  277SOL    HW1  830   1.441   4.888   8.130  1.2316  0.2195  0.5483
  277SOL    HW2  831   1.299   4.925   8.093  1.2644 -0.4686 -0.2759
  278SOL     OW  832   2.615   4.818   7.580  0.2078  0.2702 -0.1621
  278SOL    HW1  833   2.670   4.842   7.505 -0.4204  0.9250 -0.4254
  278SOL    HW2  834   2.669   4.757   7.631  0.8531  0.2505 -0.8524
  279SOL     OW  835   4.426   2.728   7.788  0.3543  0.0824 -0.2586
  279SOL    HW1  836   4.394   2.814   7.814  1.4937  0.7264 -0.9125
  279SOL    HW2  837   4.457   2.688   7.869 -1.8793 -0.4958  0.3623
  280SOL     OW  838   4.697   4.192   5.671  0.3152  0.1353 -0.5229
  280SOL    HW1  839   4.792   4.191   5.663  0.4116  1.6103  0.0461
  280SOL    HW2  840   4.675   4.285   5.681 -1.1474 -0.2173 -0.2251
  281SOL     OW  841   0.496   1.309   7.137  0.1141 -0.2195  0.0483
  281SOL    HW1  842   0.577   1.352   7.166  1.1236 -1.6879 -0.4975
  281SOL    HW2  843   0.523   1.251   7.066 -1.7793  0.8541 -1.6666
  282SOL     OW  844   4.387   2.984   7.831  0.0875 -0.0366 -0.2751
  282SOL    HW1  845   4.362   3.027   7.913  1.8169  1.2603 -0.3668
  282SOL    HW2  846   4.384   3.054   7.765  0.3457 -0.6848 -0.9887
  283SOL     OW  847   3.716   1.412   5.619 -0.3778 -0.0688 -0.0574
  283SOL    HW1  848   3.720   1.506   5.605  3.1863 -0.2672 -1.3084
  283SOL    HW2  849   3.751   1.373   5.539 -0.8256 -2.4318  0.7903
  284SOL     OW  850   1.028   3.715  10.308  0.1562  0.7644 -0.6240
  284SOL    HW1  851   1.024   3.679  10.396 -0.3227 -1.4870 -1.5107
  284SOL    HW2  852   1.121   3.734  10.294  0.9833 -2.8698 -1.0676
  285SOL     OW  853   0.510   0.764   5.076 -0.4360 -0.2092 -0.2859
  285SOL    HW1  854   0.475   0.683   5.040 -0.0026 -0.3406 -0.4214
  285SOL    HW2  855   0.548   0.740   5.160 -1.6327  0.1389  0.3708
  286SOL     OW  856   0.090   1.805   6.002 -0.0992  0.2557  0.6591
  286SOL    HW1  857   0.183   1.816   6.017 -0.2262 -1.3447  3.2939
  286SOL    HW2  858   0.049   1.880   6.045 -0.0679  3.6259 -4.3878
  287SOL     OW  859   4.343   4.000   9.811  0.5676 -0.9901 -0.7925
  287SOL    HW1  860   4.414   4.047   9.855  0.3732 -2.7078  1.5877
  287SOL    HW2  861   4.385   3.955   9.738  1.5604 -0.5078 -0.5385
  288SOL     OW  862   4.740   3.825   6.570 -0.0022  0.4941  0.2272
  288SOL    HW1  863   4.734   3.730   6.559 -0.8876  0.7382 -1.8803
  288SOL    HW2  864   4.831   3.840   6.596  0.2304 -0.8928  0.2989
  289SOL     OW  865   4.126   4.079   6.346  0.1769  0.7685  0.3808
  289SOL    HW1  866   4.205   4.128   6.322  0.9217  0.2186  1.5952
  289SOL    HW2  867   4.072   4.141   6.394  1.3398  0.3625  2.3576
  290SOL     OW  868   2.318   1.498   6.960  0.1575 -0.0309  0.1928
  290SOL    HW1  869   2.260   1.455   7.022 -1.0260  0.7824 -0.3058
  290SOL    HW2  870   2.401   1.509   7.007 -0.1907 -0.9087  1.0333
  291SOL     OW  871   1.813   1.283  10.097  0.4783 -0.4293 -0.4818
  291SOL    HW1  872   1.739   1.226  10.119  0.4096  0.2622  1.2925
  291SOL    HW2  873   1.779   1.372  10.110  1.5138 -0.0883  0.0273
  292SOL     OW  874   3.455   4.370   7.846  0.0347  0.1553 -0.3259
  292SOL    HW1  875   3.458   4.367   7.751  1.5496 -0.1879 -0.3056
  292SOL    HW2  876   3.409   4.451   7.867  0.7647  0.8654 -1.3709
  293SOL     OW  877   1.463   1.445   6.022  0.8273 -0.3215  1.1923
  293SOL    HW1  878   1.374   1.414   6.042  0.5023  0.8549  1.6691
  293SOL    HW2  879   1.505   1.454   6.107  0.8548  0.6944  1.0768
  294SOL     OW  880   0.507   0.184   7.225 -0.0795  0.9529 -0.0910
  294SOL    HW1  881   0.486   0.167   7.134 -0.7914 -1.9500  0.5286
  294SOL    HW2  882   0.423   0.205   7.266 -0.0180  0.6689  0.1886
  295SOL     OW  883   0.603   0.104   6.640  0.2834 -0.6706  0.1357
  295SOL    HW1  884   0.516   0.086   6.675 -0.4025  0.3965 -0.9547
  295SOL    HW2  885   0.658   0.034   6.676 -1.4177 -2.5529 -0.7675
  296SOL     OW  886   2.579   1.390   6.857 -0.7679  0.2551 -0.0401
  296SOL    HW1  887   2.556   1.431   6.774  0.9261 -0.9352 -1.1676
  296SOL    HW2  888   2.512   1.323   6.871  0.3970 -1.4330 -1.9453
  297SOL     OW  889   5.012   1.963   7.332  0.3846  0.1535 -0.2206
  297SOL    HW1  890   5.033   2.015   7.255 -1.1666  0.6623 -0.3387
  297SOL    HW2  891   4.933   2.004   7.368 -0.4031 -1.5907  0.1579
  298SOL     OW  892   4.802   4.810   7.794 -0.2525  0.2622  0.0932
  298SOL    HW1  893   4.774   4.784   7.707  2.4261  2.7697 -1.6967
  298SOL    HW2  894   4.775   4.902   7.802  2.1895  1.0139  0.5627
  299SOL     OW  895   2.250   0.267   5.990 -0.1798  0.3916 -0.1990
  299SOL    HW1  896   2.311   0.193   5.987  0.3214  0.7847 -3.9998
  299SOL    HW2  897   2.305   0.341   6.016  0.4979  0.3488 -1.4696
  300SOL     OW  898   3.221   2.437   8.231  0.4519  0.5663  0.7312
  300SOL    HW1  899   3.196   2.501   8.164  1.9602 -1.1568 -1.6530
  300SOL    HW2  900   3.141   2.387   8.247 -0.5157  2.4065  1.9888
  301SOL     OW  901   3.844   1.853   6.654  1.1370 -0.3410  0.2926
  301SOL    HW1  902   3.840   1.781   6.591  1.9232 -0.8741  0.8242
  301SOL    HW2  903   3.755   1.886   6.659  1.1906  0.1581 -1.5920
  302SOL     OW  904   3.333   3.009   8.932 -0.8063  0.6057  0.1264
  302SOL    HW1  905   3.333   3.093   8.884 -3.5231  1.4977  1.4696
  302SOL    HW2  906   3.310   3.033   9.022 -1.4352 -1.5683  0.5968
  303SOL     OW  907   3.070   2.073   8.257  0.2162  0.4252  0.0356
  303SOL    HW1  908   2.982   2.033   8.257 -0.4147  1.5997 -2.2321
  303SOL    HW2  909   3.076   2.117   8.341 -0.2346 -1.9020  1.3930
  304SOL     OW  910   3.208   2.957   8.357  0.4565 -0.2042  0.2964
  304SOL    HW1  911   3.217   2.897   8.283  0.6495 -0.6783  0.6973
  304SOL    HW2  912   3.155   3.029   8.324 -1.9184 -1.7723  0.5164
  305SOL     OW  913   1.188   1.253   5.592 -0.1736 -1.0299  0.6564
  305SOL    HW1  914   1.110   1.213   5.629 -2.1436  0.6686 -1.3654
  305SOL    HW2  915   1.173   1.253   5.498 -0.3547  4.1298  0.4265
  306SOL     OW  916   2.343   0.094   5.522 -0.5847  0.0921 -0.3095
  306SOL    HW1  917   2.375   0.116   5.610  1.8119 -1.4637 -0.6900
  306SOL    HW2  918   2.362   0.172   5.469  1.6318 -0.3203 -0.2272
  307SOL     OW  919   0.534   4.170   8.130  0.1460  0.0202 -0.2763
  307SOL    HW1  920   0.484   4.141   8.054 -0.7948  1.0555 -0.0782
  307SOL    HW2  921   0.534   4.094   8.189 -2.6289  0.4400  0.4220
  308SOL     OW  922   4.475   4.546   6.232 -0.6501 -0.7234 -0.6242
  308SOL    HW1  923   4.486   4.617   6.296 -2.6083  0.7492 -1.7925
  308SOL    HW2  924   4.513   4.581   6.151 -1.3460 -1.1173 -1.1345
  309SOL     OW  925   0.874   4.888   7.908  0.5980 -0.0280  0.7120
  309SOL    HW1  926   0.831   4.824   7.850  0.1721 -1.1421  2.1758
  309SOL    HW2  927   0.967   4.878   7.890  0.6138 -1.7083  1.4502
  310SOL     OW  928   2.221   3.397   6.549 -0.0958 -0.8294 -0.0688
  310SOL    HW1  929   2.243   3.403   6.456  0.7109  0.4912  0.1816
  310SOL    HW2  930   2.285   3.336   6.585 -1.3219 -2.5207 -0.6059
  311SOL     OW  931   1.093   1.841   7.795  0.0553  0.1465 -0.0547
  311SOL    HW1  932   1.135   1.861   7.712 -1.1495  0.3850 -0.6198
  311SOL    HW2  933   1.156   1.870   7.861  1.4594 -0.9357 -0.8430
  312SOL     OW  934   4.026   4.106  10.278  0.0854 -0.5257  0.2937
  312SOL    HW1  935   4.056   4.180  10.226  0.4965 -1.7366 -1.2698
  312SOL    HW2  936   4.090   4.100  10.349  0.4246  0.2008  0.0606
  313SOL     OW  937   0.760   0.284   7.049 -0.0487 -0.2725  0.9797
  313SOL    HW1  938   0.679   0.334   7.042 -0.1668 -0.4246  1.2678
  313SOL    HW2  939   0.807   0.324   7.123  1.4825  1.7387 -0.9279
  314SOL     OW  940   2.248   3.096   4.219 -0.1021 -0.2611  0.3149
  314SOL    HW1  941   2.224   3.177   4.265  0.1656  0.2506 -0.4309
  314SOL    HW2  942   2.165   3.061   4.187  0.0057  1.3560 -2.0179
  315SOL     OW  943   4.130   1.138   9.055 -0.1974 -0.2906  0.8406
  315SOL    HW1  944   4.221   1.169   9.061 -0.2765  0.0853  0.2267
  315SOL    HW2  945   4.117   1.087   9.135  0.7454 -0.8623  0.6466
  316SOL     OW  946   1.238   0.058   6.916  0.0329  0.1714 -0.1283
  316SOL    HW1  947   1.193   0.127   6.965  1.7416  2.5213 -1.6232
  316SOL    HW2  948   1.260  -0.008   6.981 -1.5191  1.1070  1.4271
  317SOL     OW  949   2.331   3.094   8.792  0.7313  0.5474 -0.0890
  317SOL    HW1  950   2.404   3.153   8.810  0.4840  1.0732 -0.7928
  317SOL    HW2  951   2.308   3.110   8.701  1.2804 -1.3271 -0.6213
  318SOL     OW  952   0.890   3.930   8.014 -0.6498 -0.6586  0.7826
  318SOL    HW1  953   0.803   3.965   8.033 -1.5639 -0.4452 -3.0502
  318SOL    HW2  954   0.897   3.852   8.070 -3.3993 -0.7928  1.0787
  319SOL     OW  955   1.036   3.803   6.778 -0.4452  0.2796 -0.1784
  319SOL    HW1  956   1.128   3.819   6.761 -0.7093  0.5971 -1.4214
  319SOL    HW2  957   1.030   3.708   6.789  0.0567  0.2762  0.0756
  320SOL     OW  958   0.203   1.697   7.014  0.8163  1.0490  0.1678
  320SOL    HW1  959   0.108   1.700   7.003  0.1865  1.4928  4.1490
  320SOL    HW2  960   0.227   1.607   6.994 -0.7555  0.4452  0.8735
  321SOL     OW  961   0.871   4.389   9.774  0.6496 -0.2856 -0.7249
  321SOL    HW1  962   0.953   4.340   9.782  0.4612 -0.2989  2.5886
  321SOL    HW2  963   0.807   4.337   9.823  0.0605  2.3421  1.5725
  322SOL     OW  964   4.920   2.324   7.957 -0.1558 -0.0215  0.7259
  322SOL    HW1  965   4.923   2.234   7.988  1.3295 -0.5442 -0.8082
  322SOL    HW2  966   4.993   2.367   8.002  2.8477 -1.0999 -2.6491
  323SOL     OW  967   3.052   2.189   6.770  0.2704 -0.2819 -0.5688
  323SOL    HW1  968   3.071   2.275   6.808  0.5371 -0.3036 -0.6522
  323SOL    HW2  969   3.138   2.152   6.751  0.3756 -2.0138  2.5966
  324SOL     OW  970   0.415   4.657   9.213  0.0302  0.0782  0.6192
  324SOL    HW1  971   0.468   4.595   9.162 -4.1455 -3.2675 -0.1740
  324SOL    HW2  972   0.434   4.635   9.304  2.3753  1.3570  0.5325
  325SOL     OW  973   3.621   4.467  10.182  0.1481 -0.0409  0.8068
  325SOL    HW1  974   3.528   4.462  10.159  0.6890 -1.5281 -1.4070
  325SOL    HW2  975   3.660   4.392  10.138  2.5907  1.1573  0.7819
  326SOL     OW  976   1.337   0.370   9.167  0.5625 -0.6188 -0.5347
  326SOL    HW1  977   1.344   0.465   9.161 -7.0387  0.5982  0.1495
  326SOL    HW2  978   1.346   0.339   9.077 -0.1388  1.2875 -1.2980
  327SOL     OW  979   0.753   1.814   9.589 -0.4013 -0.7087  0.4136
  327SOL    HW1  980   0.668   1.774   9.605  0.1443 -0.9984  2.8961
  327SOL    HW2  981   0.812   1.774   9.652  1.6385 -0.5359 -1.2484
  328SOL     OW  982   1.881   2.418   8.149  0.3389  0.1645 -0.0859
  328SOL    HW1  983   1.951   2.461   8.197 -0.3844 -0.3154  1.4604
  328SOL    HW2  984   1.875   2.467   8.066  2.4837  0.1764 -0.2704
  329SOL     OW  985   0.628   0.049  10.130 -0.2332  0.6158 -0.1909
  329SOL    HW1  986   0.536   0.026  10.145  0.0584 -0.4329  0.0554
  329SOL    HW2  987   0.626   0.102  10.050 -0.9304 -0.4303 -0.8939
  330SOL     OW  988   1.098   3.298   9.093  0.0334 -0.0574 -0.4725
  330SOL    HW1  989   1.148   3.226   9.056  1.4347  1.1044 -0.9479
  330SOL    HW2  990   1.159   3.372   9.094 -0.5662  0.4998  2.3428
  331SOL     OW  991   3.484   3.718   7.506 -0.2305 -0.2227  0.1799
  331SOL    HW1  992   3.475   3.645   7.445  0.9016  0.4052 -0.7736
  331SOL    HW2  993   3.538   3.684   7.577 -1.4180 -0.9062  0.7985
  332SOL     OW  994   1.013   1.870   7.210 -0.4624 -0.8460  0.0422
  332SOL    HW1  995   0.928   1.829   7.193 -0.5296 -0.9857  0.7092
  332SOL    HW2  996   1.033   1.849   7.301 -0.4732  0.5531  0.3923
  333SOL     OW  997   0.061   3.966   6.187  0.6451  0.0299  0.1352
  333SOL    HW1  998   0.031   4.048   6.148 -3.6984 -0.4633  1.8823
  333SOL    HW2  999   0.025   3.897   6.131  1.7080 -0.7288  0.3419
  334SOL     OW 1000   0.605   1.949   6.780 -0.2197  0.3083 -0.1192
  334SOL    HW1 1001   0.642   2.028   6.820 -0.5312 -0.0796  0.9811
  334SOL    HW2 1002   0.511   1.954   6.799 -0.3741  0.1042 -0.8053
  335SOL     OW 1003   1.271   2.503   6.990  0.1691  0.1702  0.3525
  335SOL    HW1 1004   1.211   2.536   6.923  1.0763  0.6652 -0.2419
  335SOL    HW2 1005   1.255   2.409   6.992 -0.1921  0.2103 -0.2447
  336SOL     OW 1006   0.411   4.228   8.410  0.4727  0.0419 -0.0719
  336SOL    HW1 1007   0.388   4.292   8.343 -1.1807  0.8992  1.2222
  336SOL    HW2 1008   0.386   4.143   8.373 -1.2911  0.5854 -0.2460
  337SOL     OW 1009   3.504   1.277   6.823  0.2071  0.1246  0.3197
  337SOL    HW1 1010   3.573   1.214   6.844 -0.1527  0.3687  2.4198
  337SOL    HW2 1011   3.485   1.320   6.906 -2.2082  0.3275 -0.2775
  338SOL     OW 1012   4.145   3.436   6.614 -0.2333 -0.4586 -0.6168
  338SOL    HW1 1013   4.072   3.438   6.676 -1.7694 -1.1436 -2.2871
  338SOL    HW2 1014   4.115   3.491   6.541  1.8374  0.9889 -0.4595
  339SOL     OW 1015   1.013   3.784   7.371  0.6296  0.0439 -0.0220
  339SOL    HW1 1016   1.064   3.777   7.451 -0.1469 -1.1445  0.4081
  339SOL    HW2 1017   1.059   3.849   7.318  1.8546 -0.0747  0.8592
  340SOL     OW 1018   4.467   3.537  10.203  0.6340  0.9064  0.2038
  340SOL    HW1 1019   4.543   3.495  10.163 -0.5661 -0.6423 -0.5898
  340SOL    HW2 1020   4.418   3.464  10.242 -0.5972  1.8274  0.4310
  341SOL     OW 1021   1.356   4.370   4.717  0.2960  0.1959  0.3627
  341SOL    HW1 1022   1.444   4.352   4.750  0.0863  0.8851  1.3174
  341SOL    HW2 1023   1.363   4.356   4.622  1.7050  1.3122  0.2748
  342SOL     OW 1024   0.617   4.748   8.722  0.6353  0.2532  0.2120
  342SOL    HW1 1025   0.630   4.843   8.721 -1.9610  0.7024  1.3904
  342SOL    HW2 1026   0.624   4.722   8.630  1.5970  1.5177 -0.1107
  343SOL     OW 1027   2.224   3.904   6.899 -0.4432  0.5092 -0.1822
  343SOL    HW1 1028   2.297   3.850   6.869 -1.4525 -2.7913  2.5763
  343SOL    HW2 1029   2.154   3.885   6.837 -0.0538  0.6994 -0.6869
  344SOL     OW 1030   4.186   2.476   8.386  0.2180  0.0462 -0.7713
  344SOL    HW1 1031   4.279   2.480   8.365  0.5613 -1.0053  0.4031
  344SOL    HW2 1032   4.179   2.514   8.474 -0.3813 -0.2859 -0.6686
  345SOL     OW 1033   0.494   3.578   6.743  0.3390 -0.2843  0.0549
  345SOL    HW1 1034   0.414   3.599   6.696  1.1847 -0.0364 -1.3397
  345SOL    HW2 1035   0.489   3.629   6.824 -0.5637  0.2927 -0.3532
  346SOL     OW 1036   0.141   2.985   8.136  0.5778  0.0005 -0.2968
  346SOL    HW1 1037   0.170   3.019   8.052 -0.5858  1.4529 -0.1487
  346SOL    HW2 1038   0.083   3.053   8.171  0.0033 -1.1448  1.0835
  347SOL     OW 1039   4.627   4.479   7.858  0.0887 -0.7629 -0.4846
  347SOL    HW1 1040   4.664   4.439   7.936 -1.3751  0.1837  0.7517
  347SOL    HW2 1041   4.549   4.525   7.889 -0.8036 -0.7401 -2.5798
  348SOL     OW 1042   1.256   2.076   5.713 -0.1212 -0.6710  0.1702
  348SOL    HW1 1043   1.324   2.130   5.753 -0.8627  0.8292 -0.5456
  348SOL    HW2 1044   1.284   2.065   5.622 -0.9848  0.2215 -0.2099
  349SOL     OW 1045   4.117   0.311   8.326  0.4532  0.6870 -0.1304
  349SOL    HW1 1046   4.206   0.345   8.313  0.4826  1.4556  1.8084
  349SOL    HW2 1047   4.067   0.348   8.253  1.5096  1.0537 -0.6957
  350SOL     OW 1048   1.775   4.260   9.504 -0.0911  0.3589  0.3317
  350SOL    HW1 1049   1.782   4.335   9.564  1.5907  0.0138  0.6119
  350SOL    HW2 1050   1.689   4.271   9.463  0.9886  3.7538 -1.3741
  351SOL     OW 1051   2.258   4.035   9.249 -0.0807 -0.0745 -0.1376
  351SOL    HW1 1052   2.202   4.108   9.222 -0.0315 -0.2155 -0.6203
  351SOL    HW2 1053   2.342   4.051   9.206  0.5670  0.6288  1.2986
  352SOL     OW 1054   2.065   2.286   5.560 -0.3863  0.2241 -0.4243
  352SOL    HW1 1055   2.078   2.210   5.504  1.3760 -1.6469  2.2337
  352SOL    HW2 1056   1.970   2.301   5.558 -0.7090 -1.5695 -1.6237
  353SOL     OW 1057   1.962   4.350   8.473  0.7902  0.2304  0.0514
  353SOL    HW1 1058   1.929   4.311   8.554 -0.9021 -1.2314 -1.2466
  353SOL    HW2 1059   2.012   4.426   8.501 -1.0181  0.6691  2.3986
  354SOL     OW 1060   2.820   0.255   7.186 -0.4741 -0.7537 -0.0506
  354SOL    HW1 1061   2.904   0.242   7.143 -0.6848 -1.8971 -0.1720
  354SOL    HW2 1062   2.757   0.267   7.114 -0.2362  1.5149  0.0689
  355SOL     OW 1063   3.674   4.488   6.461  0.4090  0.3514 -0.6529
  355SOL    HW1 1064   3.699   4.505   6.371 -0.3550  0.4113 -0.8659
  355SOL    HW2 1065   3.664   4.575   6.500 -0.5836  0.3676 -0.9043
  356SOL     OW 1066   2.374   4.964   7.149 -0.4688  0.5328 -0.2442
  356SOL    HW1 1067   2.300   4.908   7.127  3.1210 -3.8923 -2.7261
  356SOL    HW2 1068   2.361   4.986   7.241 -3.2187 -2.8015  0.3788
  357SOL     OW 1069   0.453   3.248   6.019  0.3602  0.1365 -0.3396
  357SOL    HW1 1070   0.402   3.283   5.945 -0.3489 -0.6186 -0.2149
  357SOL    HW2 1071   0.417   3.292   6.096 -2.5860 -2.8374  0.2203
  358SOL     OW 1072   0.284   1.487   6.612 -0.1526  0.5271 -0.1056
  358SOL    HW1 1073   0.350   1.454   6.550 -1.7846  0.2691 -1.7824
  358SOL    HW2 1074   0.240   1.408   6.643  1.3146  0.5497  2.2938
  359SOL     OW 1075   0.044   0.171   6.903  0.1514  0.0767  0.0131
  359SOL    HW1 1076  -0.014   0.202   6.973 -0.6610 -2.9050  0.8338
  359SOL    HW2 1077  -0.011   0.172   6.825 -0.7574 -1.6550  0.5678
  360SOL     OW 1078   0.203   4.686   6.023 -0.6179 -0.5692  0.1888
  360SOL    HW1 1079   0.126   4.700   6.078 -0.9668 -1.5151 -0.0421
  360SOL    HW2 1080   0.167   4.673   5.935 -0.1261 -0.0126 -0.0977
  361SOL     OW 1081   0.579   3.883   7.761  0.2581  0.3267  0.2330
  361SOL    HW1 1082   0.538   3.904   7.845 -2.2827  3.0871 -1.5030
  361SOL    HW2 1083   0.658   3.936   7.759  1.1280 -0.8522  1.3819
  362SOL     OW 1084   0.384   3.984   7.943  0.4257  0.1072 -0.2506
  362SOL    HW1 1085   0.329   3.949   8.013  1.5358 -0.3796  0.4019
  362SOL    HW2 1086   0.323   4.033   7.887 -0.9287 -1.6083 -0.3621
  363SOL     OW 1087   1.991   0.888   6.614 -0.1635 -0.7369  0.6708
  363SOL    HW1 1088   1.955   0.871   6.527  0.6248 -2.2552  0.5995
  363SOL    HW2 1089   1.914   0.894   6.671 -0.6665 -0.1940 -0.0477
  364SOL     OW 1090   4.399   4.914   8.947 -0.2079 -0.3973  0.4807
  364SOL    HW1 1091   4.332   4.899   9.014 -0.3760 -1.4404  0.1051
  364SOL    HW2 1092   4.464   4.845   8.962  0.1197 -0.1913  0.0264
  365SOL     OW 1093   4.814   4.426   6.667  0.0727 -0.3274 -0.2747
  365SOL    HW1 1094   4.763   4.441   6.588  0.6573 -0.2079 -0.6318
  365SOL    HW2 1095   4.839   4.513   6.696  1.6699 -0.4516 -1.1636
  366SOL     OW 1096   0.967   1.191   8.764  0.9600 -0.7715  0.5699
  366SOL    HW1 1097   0.927   1.158   8.683  2.2899 -1.5717  0.1993
  366SOL    HW2 1098   1.060   1.201   8.743  1.1005  0.3518  1.6029
  367SOL     OW 1099   3.320   0.940   9.161 -0.3502 -0.4599  0.3482
  367SOL    HW1 1100   3.347   1.031   9.171 -1.8375 -0.2475  3.8376
  367SOL    HW2 1101   3.288   0.934   9.071 -0.1445  2.4218 -0.0044
  368SOL     OW 1102   3.656   3.283   1.930 -0.8807  0.1695 -0.4033
  368SOL    HW1 1103   3.628   3.327   2.011  1.7499  0.4351  0.4408
  368SOL    HW2 1104   3.634   3.346   1.861 -2.9546  0.0365  0.0457
  369SOL     OW 1105   2.892   0.116   5.857 -0.2757  0.0406 -0.6523
  369SOL    HW1 1106   2.923   0.175   5.925 -2.6321 -1.2158  1.6992
  369SOL    HW2 1107   2.913   0.160   5.775  1.4161  2.3047  0.8854
  370SOL     OW 1108   3.607   1.422   8.844  0.3835  0.0752  0.0925
  370SOL    HW1 1109   3.528   1.467   8.872 -0.5638 -0.9626 -0.8373
  370SOL    HW2 1110   3.658   1.489   8.799  0.8822  1.1986  2.1813
  371SOL     OW 1111   4.547   2.765   5.894  0.2940 -0.0925 -0.4488
  371SOL    HW1 1112   4.521   2.674   5.908  2.5332 -0.4211  3.1691
  371SOL    HW2 1113   4.640   2.760   5.871  0.5580  1.2550  0.2016
  372SOL     OW 1114   1.051   1.656  10.101 -0.7915  0.3782  0.3003
  372SOL    HW1 1115   1.085   1.567  10.085 -1.2492  0.4334 -1.1939
  372SOL    HW2 1116   1.069   1.672  10.193 -1.8326 -1.7771  0.9548
  373SOL     OW 1117   0.335   1.450   9.369  0.8524  0.1735 -0.0635
  373SOL    HW1 1118   0.353   1.508   9.294  1.1542  0.6885  0.4052
  373SOL    HW2 1119   0.421   1.430   9.405  0.6145  1.4846  1.3152
  374SOL     OW 1120   1.093   2.702   6.060  0.5006 -0.6001  0.2221
  374SOL    HW1 1121   1.086   2.615   6.021 -0.9232 -1.0476  1.3847
  374SOL    HW2 1122   1.089   2.686   6.154 -1.6297  0.8236  0.4421
  375SOL     OW 1123   2.198   2.043   9.893  0.3003  0.6352  0.0299
  375SOL    HW1 1124   2.127   2.105   9.905  1.7825  2.2897  0.7104
  375SOL    HW2 1125   2.220   2.048   9.800 -0.6848 -0.1695 -0.2623
  376SOL     OW 1126   0.518   3.621   6.036  0.2923  0.2646  0.6965
  376SOL    HW1 1127   0.517   3.626   5.940  0.6233 -1.5284  0.5749
  376SOL    HW2 1128   0.549   3.707   6.063  2.2912  0.1207 -0.8936
  377SOL     OW 1129   0.435   0.977   8.922  0.2303 -0.0413 -0.2484
  377SOL    HW1 1130   0.383   1.012   8.994 -1.1849 -0.7021 -0.9102
  377SOL    HW2 1131   0.491   1.051   8.895  1.9520 -0.2177  2.4694
  378SOL     OW 1132   3.267   4.423   6.815  0.8715  0.5208  0.5660
  378SOL    HW1 1133   3.276   4.511   6.779  3.9028  0.8513  1.8195
  378SOL    HW2 1134   3.323   4.368   6.759 -1.5301 -0.8475 -0.6392
  379SOL     OW 1135   1.105   0.165   5.312 -0.3369 -0.3612 -0.1895
  379SOL    HW1 1136   1.134   0.140   5.400 -0.5489  0.2884  0.0751
  379SOL    HW2 1137   1.182   0.152   5.257  0.3748  1.0200  0.4404
  380SOL     OW 1138   4.834   0.044   4.966  0.0710  0.2039  0.0252
  380SOL    HW1 1139   4.872   0.097   5.036  1.3277 -0.2887 -0.2523
  380SOL    HW2 1140   4.815  -0.040   5.007 -1.7446  0.7648  0.4183
  381SOL     OW 1141   0.709   2.627   7.048  0.0679  0.2709 -1.0962
  381SOL    HW1 1142   0.699   2.621   7.143 -3.1278 -0.4683 -1.3541
  381SOL    HW2 1143   0.794   2.669   7.035  2.2893 -2.6665  1.9821
  382SOL     OW 1144   1.031   1.515   8.358 -0.4295  0.5026  0.3666
  382SOL    HW1 1145   0.951   1.465   8.371 -0.9796  1.4007  0.5147
  382SOL    HW2 1146   1.038   1.524   8.263 -0.3424  0.1781  0.3397
  383SOL     OW 1147   2.729   0.116   6.124 -0.7442  0.6082  0.7597
  383SOL    HW1 1148   2.726   0.208   6.098  0.5754  0.9961  1.8585
  383SOL    HW2 1149   2.786   0.115   6.201 -2.2768 -0.8581  1.9472
  384SOL     OW 1150   2.115   1.730   9.833 -0.7771  0.8746  0.3837
  384SOL    HW1 1151   2.118   1.816   9.874 -0.7209  0.3000  1.6289
  384SOL    HW2 1152   2.170   1.675   9.888  1.0256  0.5188 -1.6328
  385SOL     OW 1153   4.267   3.435   7.005 -0.2925  0.0980  0.7532
  385SOL    HW1 1154   4.355   3.449   6.969 -0.3674  0.4089  0.6814
  385SOL    HW2 1155   4.232   3.362   6.956 -0.9145  1.3793 -0.7935
  386SOL     OW 1156   4.367   0.096   6.608 -0.1178 -0.6033 -0.0145
  386SOL    HW1 1157   4.335   0.160   6.545 -1.6032 -1.4308 -0.1506
  386SOL    HW2 1158   4.362   0.012   6.562  2.1513 -0.8197  0.0281
  387SOL     OW 1159   0.472   2.311   7.939  0.5654 -0.4449 -0.4100
  387SOL    HW1 1160   0.395   2.259   7.964  1.0346 -0.1978  1.7868
  387SOL    HW2 1161   0.499   2.353   8.021  2.2315  0.5468 -1.4300
  388SOL     OW 1162   0.671   2.271   9.499 -0.3944  0.6210 -0.5444
  388SOL    HW1 1163   0.674   2.202   9.432  1.3228 -0.1588  0.2741
  388SOL    HW2 1164   0.741   2.248   9.559 -0.9665  2.1199  0.7433
  389SOL     OW 1165   3.381   4.715   9.943 -0.3323  0.7000 -0.7195
  389SOL    HW1 1166   3.419   4.731  10.030  1.5789 -1.5838 -1.0407
  389SOL    HW2 1167   3.303   4.663   9.960 -0.8061  1.5267 -0.3073
  390SOL     OW 1168   1.020   2.180   6.845  0.6025  0.3837 -0.3580
  390SOL    HW1 1169   0.926   2.190   6.827 -0.0447 -3.8413 -0.3879
  390SOL    HW2 1170   1.024   2.139   6.931  2.4397  0.4045 -0.3901
  391SOL     OW 1171   1.416   2.280   6.750  0.2528  0.1264 -0.3290
  391SOL    HW1 1172   1.329   2.296   6.713 -0.6844  1.6874  2.3121
  391SOL    HW2 1173   1.407   2.197   6.797  0.2207  0.2160 -0.1759
  392SOL     OW 1174   0.250   2.233   6.919 -0.0693  0.3074 -0.5126
  392SOL    HW1 1175   0.205   2.291   6.857  0.1093  0.9660 -0.0372
  392SOL    HW2 1176   0.341   2.232   6.890 -0.4368 -1.4038 -1.7608
  393SOL     OW 1177   0.995   2.198   6.434 -0.2632 -0.0077  0.1422
  393SOL    HW1 1178   0.909   2.240   6.426  0.1125  0.6544 -0.5747
  393SOL    HW2 1179   0.975   2.105   6.443 -1.0266 -0.0747 -1.7179
  394SOL     OW 1180   4.140   1.597   8.371 -0.2629  0.4270 -0.5361
  394SOL    HW1 1181   4.198   1.613   8.446 -1.3433  1.1288  0.1771
  394SOL    HW2 1182   4.168   1.512   8.337 -0.4254 -0.4292  1.3319
  395SOL     OW 1183   0.950   3.161   7.399 -0.4876  1.3080 -0.0003
  395SOL    HW1 1184   0.921   3.098   7.465  2.4525 -0.2861 -0.0431
  395SOL    HW2 1185   0.954   3.244   7.446  1.3732  0.2529  1.8886
  396SOL     OW 1186   3.263   3.542  10.597  0.1393  0.6204  0.5554
  396SOL    HW1 1187   3.239   3.630  10.567  1.2231  0.6532 -0.2721
  396SOL    HW2 1188   3.358   3.541  10.597  0.2818 -1.6197 -2.8676
  397SOL     OW 1189   3.693   3.915   8.513  0.3573 -0.2287  0.2641
  397SOL    HW1 1190   3.769   3.860   8.492 -0.2577 -0.5395 -1.2593
  397SOL    HW2 1191   3.620   3.874   8.467 -0.2760  1.3853 -0.2514
  398SOL     OW 1192   4.751   3.594   8.995  0.6402 -0.3101 -0.1010
  398SOL    HW1 1193   4.810   3.519   8.983 -0.0926 -1.4009  2.4970
  398SOL    HW2 1194   4.671   3.569   8.950  1.1861  0.0157 -1.3104
  399SOL     OW 1195   4.665   1.842   9.014  0.1287 -0.4859  0.4731
  399SOL    HW1 1196   4.696   1.930   9.032  0.7314 -0.7091  0.5727
  399SOL    HW2 1197   4.596   1.853   8.949  3.8401 -0.2458 -3.9828
  400SOL     OW 1198   2.002   2.561   9.934  0.1545 -0.0027  0.6553
  400SOL    HW1 1199   2.070   2.498   9.912 -0.7917  0.0871 -3.2310
  400SOL    HW2 1200   1.922   2.509   9.940 -0.3832  0.5655 -1.0575
  401SOL     OW 1201   0.501   1.685   9.622  0.2543  0.3121 -0.1259
  401SOL    HW1 1202   0.435   1.682   9.691 -0.1932 -1.2098 -0.5813
  401SOL    HW2 1203   0.451   1.677   9.540  0.9643 -0.9348 -0.4767
  402SOL     OW 1204   0.582   2.199   5.197 -0.1727 -0.4291  0.3628
  402SOL    HW1 1205   0.504   2.166   5.151  0.8457 -3.2927  0.5150
  402SOL    HW2 1206   0.573   2.167   5.286  2.3008 -3.1256 -0.2031
  403SOL     OW 1207   4.136   1.898   5.126 -0.5970 -0.0906 -0.1858
  403SOL    HW1 1208   4.204   1.936   5.182  0.8673 -1.1808 -1.1703
  403SOL    HW2 1209   4.126   1.962   5.055  1.3095 -1.0713 -1.4242
  404SOL     OW 1210   2.387   1.671   8.546 -0.3044 -0.2530  0.1005
  404SOL    HW1 1211   2.321   1.606   8.568  0.4248 -0.6804  1.1111
  404SOL    HW2 1212   2.399   1.663   8.451 -3.6586  1.7483 -0.6630
  405SOL     OW 1213   2.320   1.597   7.435  0.1298  0.2260  0.6932
  405SOL    HW1 1214   2.389   1.621   7.373  1.7575 -1.2580  1.8013
  405SOL    HW2 1215   2.321   1.501   7.435 -2.0985  0.1509  0.6409
  406SOL     OW 1216   2.982   3.849   9.733 -0.7982 -0.2779 -0.0733
  406SOL    HW1 1217   2.893   3.835   9.701 -1.3874 -0.3220  1.5302
  406SOL    HW2 1218   2.993   3.945   9.732 -0.6419 -0.2954 -0.8032
  407SOL     OW 1219   3.701   0.680   7.585 -0.3812  0.6379 -0.2762
  407SOL    HW1 1220   3.701   0.668   7.680  2.2121  2.3712  0.0453
  407SOL    HW2 1221   3.668   0.769   7.572 -0.9361  0.3323 -1.0449
  408SOL     OW 1222   5.004   1.228   7.394  0.7607  0.1942  0.7189
  408SOL    HW1 1223   5.063   1.263   7.461 -1.0461  2.1601  1.4038
  408SOL    HW2 1224   4.923   1.209   7.442  0.1315 -0.4167 -0.5416
  409SOL     OW 1225   3.356   1.822   7.697 -0.5365 -0.5129  0.1160
  409SOL    HW1 1226   3.399   1.838   7.614 -0.8301 -0.0199  0.0549
  409SOL    HW2 1227   3.355   1.727   7.706  2.9399 -0.5769  1.3728
  410SOL     OW 1228   2.352   0.771   7.513  0.1972 -0.2594 -0.3637
  410SOL    HW1 1229   2.427   0.813   7.471  0.1635  0.3775  0.1990
  410SOL    HW2 1230   2.330   0.698   7.455  0.8691 -0.0860 -0.8476
  411SOL     OW 1231   1.595   1.796  10.156  0.1130  1.0879 -0.2465
  411SOL    HW1 1232   1.525   1.862  10.150 -0.9289  0.0195 -0.1609
  411SOL    HW2 1233   1.652   1.828  10.226 -0.7252  1.5850  0.2257
  412SOL     OW 1234   0.739   3.029   6.974  0.1528  0.1062 -0.8166
  412SOL    HW1 1235   0.766   3.107   6.925  0.6905  0.7683  0.5003
  412SOL    HW2 1236   0.786   2.957   6.931  1.1523  0.7633 -0.8404
  413SOL     OW 1237   3.616   2.208   6.039  0.2338  0.4963  0.0769
  413SOL    HW1 1238   3.537   2.240   6.083  2.0482  2.7448  1.9798
  413SOL    HW2 1239   3.635   2.124   6.083  0.3195  1.2422  1.5390
  414SOL     OW 1240   1.488   1.890   7.041  0.4971 -0.0242  0.0962
  414SOL    HW1 1241   1.410   1.840   7.017  1.5598 -1.5837 -0.1977
  414SOL    HW2 1242   1.492   1.960   6.975 -1.4600  1.0398  1.0076
  415SOL     OW 1243   2.801   2.511   7.054  0.2842 -0.4467 -0.5531
  415SOL    HW1 1244   2.895   2.495   7.061  0.5202  0.5652 -1.2185
  415SOL    HW2 1245   2.763   2.466   7.130  1.6486  1.8541  1.6473
  416SOL     OW 1246   3.600   3.772   5.864 -0.2699  0.2684  0.0440
  416SOL    HW1 1247   3.538   3.810   5.927  1.1636  0.7901  1.2116
  416SOL    HW2 1248   3.546   3.716   5.808 -1.7769  0.6466  1.0402
  417SOL     OW 1249   0.580   0.355   6.489 -1.1999 -0.6981 -0.1105
  417SOL    HW1 1250   0.540   0.306   6.417  1.5500 -0.3764 -1.9929
  417SOL    HW2 1251   0.580   0.293   6.563 -0.2662 -2.6169 -1.6366
  418SOL     OW 1252   3.991   2.685   5.994  0.2714  0.0936 -0.2237
  418SOL    HW1 1253   3.972   2.627   5.920 -0.1573  1.2172 -1.0273
  418SOL    HW2 1254   4.041   2.757   5.955  2.6391 -0.7202  1.1201
  419SOL     OW 1255   3.964   1.748   9.324 -0.7931  0.1276  0.3503
  419SOL    HW1 1256   4.059   1.741   9.339 -0.8584  0.8613  1.1390
  419SOL    HW2 1257   3.951   1.705   9.239  0.5716  2.0338 -0.9048
  420SOL     OW 1258   4.416   2.693   5.609  0.4403 -0.8246  0.6739
  420SOL    HW1 1259   4.478   2.739   5.666  2.0828 -0.0076 -1.6620
  420SOL    HW2 1260   4.467   2.622   5.570 -0.4770 -0.9974 -0.2447
  421SOL     OW 1261   0.863   2.779   5.794 -0.3959 -0.2197 -0.1901
  421SOL    HW1 1262   0.947   2.798   5.835  0.1696 -0.6983 -1.0954
  421SOL    HW2 1263   0.827   2.866   5.773 -0.6163  0.0257  1.1075
  422SOL     OW 1264   3.830   0.046  10.203  0.1722  0.6559 -0.3854
  422SOL    HW1 1265   3.752   0.044  10.146 -0.6024  1.3078  0.6234
  422SOL    HW2 1266   3.854  -0.046  10.213  0.4355  0.5244 -1.8798
  423SOL     OW 1267   0.356   0.802   7.608 -0.2313 -0.2084  0.1579
  423SOL    HW1 1268   0.342   0.830   7.699 -0.5539 -1.6947  0.5966
  423SOL    HW2 1269   0.378   0.709   7.615 -1.3869 -0.6336 -1.3494
  424SOL     OW 1270   2.378   2.434   7.163  0.6068 -0.4294  0.1830
  424SOL    HW1 1271   2.437   2.480   7.103 -2.7698 -0.2896 -3.3797
  424SOL    HW2 1272   2.304   2.493   7.175 -1.4264 -2.7380 -0.2170
  425SOL     OW 1273   0.724   2.056   7.313  0.1845 -0.1046  0.1173
  425SOL    HW1 1274   0.789   2.015   7.370  1.1170  1.1961  0.0205
  425SOL    HW2 1275   0.727   2.149   7.336 -0.8601  0.1369 -0.6642
  426SOL     OW 1276   0.972   3.224  10.553 -0.3296  0.5823  0.5191
  426SOL    HW1 1277   0.884   3.187  10.551 -0.1974  0.2767 -0.6620
  426SOL    HW2 1278   0.996   3.225  10.645 -1.2049 -0.2190  0.7710
  427SOL     OW 1279   4.992   1.475   9.176 -0.1897 -0.4092  0.1613
  427SOL    HW1 1280   4.899   1.483   9.157  0.2160  0.4803 -1.6420
  427SOL    HW2 1281   4.996   1.417   9.252 -2.2872  0.6833  1.2165
  428SOL     OW 1282   0.473   1.416   8.538 -0.8743 -0.3378  0.7135
  428SOL    HW1 1283   0.457   1.499   8.583  2.1226  0.7756  0.0060
  428SOL    HW2 1284   0.513   1.360   8.604  0.0287 -0.0468  0.4319
  429SOL     OW 1285   2.432   4.365   8.612 -0.7330  0.1525 -0.2965
  429SOL    HW1 1286   2.370   4.397   8.545 -2.0026 -0.3733  0.5917
  429SOL    HW2 1287   2.398   4.280   8.637  1.1607 -0.7980 -0.7531
  430SOL     OW 1288   1.404   2.020   7.865 -0.8790  0.0496  0.0305
  430SOL    HW1 1289   1.367   2.019   7.954 -2.2072  1.1360 -0.4800
  430SOL    HW2 1290   1.450   1.936   7.858 -3.9376 -1.8198  0.4614
  431SOL     OW 1291   2.195   0.289   9.027 -0.0584  0.5160 -0.2530
  431SOL    HW1 1292   2.254   0.353   8.987  0.0874  0.4790 -0.0986
  431SOL    HW2 1293   2.113   0.298   8.978  0.4363 -0.2894 -1.2956
  432SOL     OW 1294   0.163   4.131   6.897 -0.0462 -0.2994  0.1879
  432SOL    HW1 1295   0.192   4.100   6.812  0.5560  1.7186 -0.3945
  432SOL    HW2 1296   0.211   4.077   6.960  0.3046 -1.1036 -0.7447
  433SOL     OW 1297   4.569   1.718  10.061 -1.0384  0.7701  0.4759
  433SOL    HW1 1298   4.571   1.775  10.138  0.9119  1.3559  0.0645
  433SOL    HW2 1299   4.602   1.773   9.990  1.4864 -0.9376  0.1768
  434SOL     OW 1300   0.261   2.203  10.072 -0.8621 -0.1265 -0.0333
  434SOL    HW1 1301   0.179   2.230  10.031 -1.1744 -0.1914  0.5440
  434SOL    HW2 1302   0.328   2.257  10.029 -1.2901  0.4270 -0.0153
  435SOL     OW 1303   4.165   2.826   7.680 -0.1369  0.1755  0.6417
  435SOL    HW1 1304   4.256   2.853   7.692 -0.1684  1.0871 -0.8762
  435SOL    HW2 1305   4.162   2.788   7.592 -1.0962 -0.4169  0.9113
  436SOL     OW 1306   2.876   4.792   9.327  0.3160  0.2082  0.1232
  436SOL    HW1 1307   2.969   4.777   9.344  0.6170  1.3082 -0.4507
  436SOL    HW2 1308   2.850   4.718   9.272  0.8320 -0.1454  0.3418
  437SOL     OW 1309   3.596   0.319   8.002  0.1306 -0.1857 -0.0195
  437SOL    HW1 1310   3.592   0.402   8.049  1.2538 -0.0835 -0.0753
  437SOL    HW2 1311   3.687   0.312   7.973  0.3524 -1.9698  0.9530
  438SOL     OW 1312   0.665   4.693   9.059 -0.4986  0.1405  0.1955
  438SOL    HW1 1313   0.678   4.650   8.975  0.6710  0.5673  0.1486
  438SOL    HW2 1314   0.591   4.753   9.044 -0.4617  0.0264 -0.4459
  439SOL     OW 1315   3.615   4.763   5.329  0.1909 -0.4684  0.2503
  439SOL    HW1 1316   3.556   4.710   5.275  0.4366 -0.5974  0.1046
  439SOL    HW2 1317   3.672   4.699   5.371  0.1854 -0.3479  0.4438
  440SOL     OW 1318   1.551   3.678   5.856  0.1447  0.1571 -0.1831
  440SOL    HW1 1319   1.524   3.611   5.918  0.3931 -0.2471 -0.5069
  440SOL    HW2 1320   1.472   3.729   5.839  0.2735  0.8393  1.1564
  441SOL     OW 1321   4.541   2.691   9.205 -0.6812 -0.4765 -0.1490
  441SOL    HW1 1322   4.558   2.648   9.289 -0.3124  1.4249  0.8001
  441SOL    HW2 1323   4.556   2.784   9.222  0.4290 -0.1361 -2.5948
  442SOL     OW 1324   1.245   3.717   8.379 -0.0333  0.0486  0.3927
  442SOL    HW1 1325   1.328   3.765   8.369 -0.5038  0.4398 -2.1949
  442SOL    HW2 1326   1.194   3.771   8.440 -1.0123  3.7717 -3.2541
  443SOL     OW 1327   1.019   4.048   9.918 -0.0023 -0.9900 -0.2334
  443SOL    HW1 1328   0.945   4.109   9.914  0.7018 -0.1400 -0.6623
  443SOL    HW2 1329   1.050   4.053  10.008  1.3901  0.9631 -0.7552
  444SOL     OW 1330   1.221   4.344   6.513 -0.3470  0.0992 -0.0659
  444SOL    HW1 1331   1.181   4.289   6.580  0.1319 -1.1670 -0.7829
  444SOL    HW2 1332   1.171   4.426   6.514 -1.0212 -0.3209  1.0754
  445SOL     OW 1333   3.354   1.749   8.534 -0.4346  0.7213 -0.5436
  445SOL    HW1 1334   3.422   1.816   8.534  2.1329 -1.7121 -1.1917
  445SOL    HW2 1335   3.324   1.746   8.443  0.8030 -0.2279 -0.9452
  446SOL     OW 1336   2.255   2.024   6.568 -0.1955 -0.2041 -0.1673
  446SOL    HW1 1337   2.162   2.006   6.563  0.0497 -1.5853 -0.2586
  446SOL    HW2 1338   2.295   1.968   6.502  0.8430 -0.9878  1.0552
  447SOL     OW 1339   2.443   1.628   5.753 -0.0159 -0.1176  0.1375
  447SOL    HW1 1340   2.520   1.581   5.784 -0.9850 -0.4366  2.2347
  447SOL    HW2 1341   2.476   1.685   5.683  2.0621 -0.3978  0.8288
  448SOL     OW 1342   2.002   1.211   7.643  0.5966  0.5368 -0.0900
  448SOL    HW1 1343   1.954   1.277   7.693 -0.1953  1.6053 -2.1120
  448SOL    HW2 1344   1.965   1.128   7.670 -0.2229  1.1282  0.6402
  449SOL     OW 1345   3.803   0.897   8.407  0.4062 -0.9457  0.3441
  449SOL    HW1 1346   3.826   0.806   8.428  1.8768 -0.3078  1.6686
  449SOL    HW2 1347   3.729   0.917   8.465  1.4983 -0.6327  1.6642
  450SOL     OW 1348   1.141   4.661   9.254  0.5618 -0.0899 -0.6233
  450SOL    HW1 1349   1.115   4.580   9.297 -0.4382  0.4346 -0.2114
  450SOL    HW2 1350   1.134   4.641   9.160  1.9986 -0.9899 -0.5713
  451SOL     OW 1351   3.903   0.991  10.237 -0.0094 -0.0517 -0.4716
  451SOL    HW1 1352   3.987   1.033  10.255 -0.6334  0.9164  0.3006
  451SOL    HW2 1353   3.853   1.057  10.188 -1.7281  0.9999  2.4482
  452SOL     OW 1354   2.512   4.878   9.128 -0.6138  0.2706 -0.5947
  452SOL    HW1 1355   2.549   4.857   9.042 -0.6398 -4.5196  0.2698
  452SOL    HW2 1356   2.588   4.905   9.180  0.1033 -0.4641 -1.2194
  453SOL     OW 1357   3.265   4.287   9.174  0.1087  0.3331  0.5888
  453SOL    HW1 1358   3.242   4.377   9.197  0.5383  1.3076 -2.2935
  453SOL    HW2 1359   3.182   4.240   9.175 -0.3844  1.1809  0.5870
  454SOL     OW 1360   1.718   4.276   8.261 -0.3036 -0.6326 -0.1505
  454SOL    HW1 1361   1.775   4.202   8.244  2.5875  1.5889 -1.0551
  454SOL    HW2 1362   1.752   4.314   8.342  0.0328  1.0796 -1.0267
  455SOL     OW 1363   3.711   1.117   8.667  0.3647  0.0067 -0.2781
  455SOL    HW1 1364   3.673   1.030   8.681 -1.5174  1.0452  1.8482
  455SOL    HW2 1365   3.677   1.144   8.581  0.2958 -1.0214 -0.5890
  456SOL     OW 1366   4.949   0.321   7.417  0.1111 -0.0851  0.8355
  456SOL    HW1 1367   4.924   0.373   7.493  0.3462  0.6615  0.4103
  456SOL    HW2 1368   5.018   0.263   7.449  1.7934  1.7651  0.6996
  457SOL     OW 1369   4.235   1.600   8.658 -0.3808  0.2057 -0.1539
  457SOL    HW1 1370   4.177   1.527   8.680 -1.5171  1.2019  0.2672
  457SOL    HW2 1371   4.311   1.588   8.714 -0.0567 -1.2373 -0.8524
  458SOL     OW 1372   0.636   2.086   9.295  1.4352  0.6228  0.8768
  458SOL    HW1 1373   0.663   2.151   9.231 -2.9727  0.5946 -1.3663
  458SOL    HW2 1374   0.557   2.046   9.258  0.9655 -2.4074  4.4924
  459SOL     OW 1375   2.448   4.114  10.011  0.0396  0.1195  0.2371
  459SOL    HW1 1376   2.488   4.171   9.944 -0.0490  0.1904  0.2436
  459SOL    HW2 1377   2.503   4.036  10.012  0.6304  0.5300  0.7882
  460SOL     OW 1378   1.888   4.573   9.576  0.2144  0.3826 -0.0663
  460SOL    HW1 1379   1.916   4.651   9.624 -0.1513  1.0603 -0.9407
  460SOL    HW2 1380   1.802   4.596   9.541  0.2929 -0.2553 -0.6960
  461SOL     OW 1381   0.913   3.928   9.647  0.8232  0.1957 -0.4024
  461SOL    HW1 1382   0.996   3.884   9.632 -0.1864 -2.3191  0.7682
  461SOL    HW2 1383   0.933   3.996   9.711  1.9063 -0.6300  0.1587
  462SOL     OW 1384   2.333   0.958   7.004  0.5215  0.2805  0.1627
  462SOL    HW1 1385   2.423   0.975   6.976  0.8494 -0.3985  0.7527
  462SOL    HW2 1386   2.301   1.042   7.037  1.4132  0.2364  1.1975
  463SOL     OW 1387   0.413   0.567  10.729 -0.0521 -0.1457  0.4858
  463SOL    HW1 1388   0.476   0.509  10.687  0.6390  1.9641 -1.5812
  463SOL    HW2 1389   0.330   0.549  10.685  0.1083  0.2384  0.0208
  464SOL     OW 1390   1.253   3.017   9.393  0.4836  0.9594 -0.1620
  464SOL    HW1 1391   1.343   2.983   9.389  0.6630  1.3930  0.1000
  464SOL    HW2 1392   1.264   3.111   9.406 -0.0005  0.8195  1.5062
  465SOL     OW 1393   4.316   1.191   8.516  0.2147 -0.0607  0.3880
  465SOL    HW1 1394   4.314   1.102   8.481 -0.0134 -0.8013  2.1995
  465SOL    HW2 1395   4.272   1.244   8.449  1.5598 -1.0397 -1.3550
  466SOL     OW 1396   0.872   3.278   9.337  0.0272  0.0922 -0.3300
  466SOL    HW1 1397   0.810   3.333   9.288 -0.1157 -0.6708 -1.0395
  466SOL    HW2 1398   0.949   3.275   9.281 -0.6179 -1.8754 -1.1907
  467SOL     OW 1399   0.644   4.093   6.178  0.6839 -0.6013 -0.2177
  467SOL    HW1 1400   0.588   4.169   6.197  1.2270  0.2957 -1.9568
  467SOL    HW2 1401   0.717   4.101   6.240  1.7813  1.5106 -1.6326
  468SOL     OW 1402   4.729   4.197   8.541  0.2392  0.0217  0.1701
  468SOL    HW1 1403   4.722   4.104   8.564 -2.0154  0.1221  0.0444
  468SOL    HW2 1404   4.806   4.227   8.589  0.7450 -1.7936  0.5828
  469SOL     OW 1405   0.048   3.131   6.045  0.2768 -0.1613  0.5933
  469SOL    HW1 1406   0.120   3.103   6.102  0.0126 -3.0658 -0.3214
  469SOL    HW2 1407   0.070   3.095   5.959 -1.7508 -0.2723  0.0613
  470SOL     OW 1408   0.276   3.044   6.150  0.9551  0.2874 -0.2143
  470SOL    HW1 1409   0.367   3.067   6.131  1.0195 -0.9443 -1.5362
  470SOL    HW2 1410   0.276   2.948   6.155  0.0166  0.3254  1.4422
  471SOL     OW 1411   0.100   0.570   7.287  0.3358 -0.5488 -0.6035
  471SOL    HW1 1412   0.036   0.590   7.219  0.9629 -1.0290 -1.3530
  471SOL    HW2 1413   0.131   0.482   7.265  1.2773 -0.3097 -0.2842
  472SOL     OW 1414   4.713   1.819   8.118  0.6681 -0.5658  0.5553
  472SOL    HW1 1415   4.776   1.755   8.151  1.2550  0.6683  1.9822
  472SOL    HW2 1416   4.725   1.819   8.023  0.6506 -2.5152  0.5010
  473SOL     OW 1417   3.683   0.725   9.311  0.0398 -0.5446 -0.1816
  473SOL    HW1 1418   3.597   0.683   9.301 -0.1806 -0.1538  0.0520
  473SOL    HW2 1419   3.677   0.772   9.394  1.6791 -3.3535  1.7122
  474SOL     OW 1420   2.555   1.585   7.887 -1.2280 -0.9236 -0.1630
  474SOL    HW1 1421   2.604   1.595   7.805 -1.7589 -1.6660 -0.5821
  474SOL    HW2 1422   2.472   1.628   7.871  0.0843  2.5516  1.3769
  475SOL     OW 1423   1.668   1.064   9.865  0.3699 -0.0287  0.7291
  475SOL    HW1 1424   1.629   1.135   9.814  0.5794  1.2883  2.3452
  475SOL    HW2 1425   1.687   0.996   9.799  4.3498  3.0678 -1.8269
  476SOL     OW 1426   2.739   4.690   8.223  0.4420 -0.4857  0.1875
  476SOL    HW1 1427   2.807   4.632   8.190 -0.0170 -1.9831  1.7072
  476SOL    HW2 1428   2.658   4.640   8.212 -0.4002  1.0675 -1.1445
  477SOL     OW 1429   1.652   1.391   7.189  0.5098  0.6103  0.1303
  477SOL    HW1 1430   1.634   1.482   7.214 -4.9556 -0.3922  1.1147
  477SOL    HW2 1431   1.688   1.351   7.267 -1.2715  1.0680  1.2526
  478SOL     OW 1432   1.045   3.711   6.044 -0.2441  0.9174 -0.1335
  478SOL    HW1 1433   1.085   3.634   6.085  1.6662  1.2679 -1.1910
  478SOL    HW2 1434   0.998   3.676   5.968 -3.0328  0.3713  1.7136
  479SOL     OW 1435   1.176   4.033   7.944  0.3066  0.0373 -0.1133
  479SOL    HW1 1436   1.206   4.111   7.991 -0.1388 -0.9314  1.8562
  479SOL    HW2 1437   1.081   4.042   7.940  0.0339 -1.3822  2.0417
  480SOL     OW 1438   1.071   0.392  10.152  0.5024  0.4049  0.4284
  480SOL    HW1 1439   1.126   0.402  10.075  0.4873  1.1122  0.5008
  480SOL    HW2 1440   1.132   0.384  10.225  0.5188 -0.4074  0.3377
  481SOL     OW 1441   3.474   1.969   9.349 -0.3256 -0.2462 -0.3059
  481SOL    HW1 1442   3.423   1.897   9.313  0.4481  0.5204 -3.1900
  481SOL    HW2 1443   3.565   1.947   9.328  0.0470  0.8650  0.0765
  482SOL     OW 1444   3.037   2.410   8.866 -0.3109 -0.8132  0.2132
  482SOL    HW1 1445   3.076   2.396   8.952  0.3483 -0.8749 -0.0879
  482SOL    HW2 1446   3.067   2.336   8.814  2.2219  0.9607 -1.0588
  483SOL     OW 1447   4.167   3.108   7.955  0.2632 -0.2329 -0.0084
  483SOL    HW1 1448   4.139   3.042   8.019 -0.1435 -1.7941 -1.7121
  483SOL    HW2 1449   4.120   3.085   7.875  0.2239  2.0853 -0.7126
  484SOL     OW 1450   4.462   0.691   8.622  0.2213  0.1214 -0.5598
  484SOL    HW1 1451   4.507   0.720   8.543  0.3569 -1.0565 -0.9314
  484SOL    HW2 1452   4.525   0.710   8.693  0.3693  0.5638 -0.8024
  485SOL     OW 1453   4.969   0.052   8.294  0.0868  0.4800 -0.0439
  485SOL    HW1 1454   4.980  -0.033   8.337  1.5354 -0.2013 -1.6442
  485SOL    HW2 1455   4.883   0.082   8.322 -1.6678 -2.7529 -1.4126
  486SOL     OW 1456   0.366   0.771  10.497  0.1598 -0.2446  0.2546
  486SOL    HW1 1457   0.432   0.719  10.543  1.1000  0.1957 -0.5736
  486SOL    HW2 1458   0.379   0.860  10.527  2.4115  0.5043 -2.5502
  487SOL     OW 1459   4.086   2.536   7.190  0.1467  0.6358 -0.0344
  487SOL    HW1 1460   4.007   2.589   7.177 -0.4496 -0.3419 -0.5329
  487SOL    HW2 1461   4.056   2.458   7.237  1.4390  1.8017  2.9621
  488SOL     OW 1462   2.894   4.155   8.393 -0.4924 -0.0501 -0.3454
  488SOL    HW1 1463   2.944   4.169   8.313  2.3702 -2.0402  0.9255
  488SOL    HW2 1464   2.875   4.243   8.426  2.6152  0.8754 -0.7312
  489SOL     OW 1465   4.279   3.834   8.713 -0.1687 -0.1509 -0.6271
  489SOL    HW1 1466   4.246   3.921   8.691  0.0492  0.0902 -0.0013
  489SOL    HW2 1467   4.214   3.774   8.675 -1.0585  0.3080  0.1215
  490SOL     OW 1468   3.537   3.484  10.299  0.0901  0.5039  0.0240
  490SOL    HW1 1469   3.449   3.473  10.333  0.7322 -1.1949  1.2541
  490SOL    HW2 1470   3.548   3.413  10.236  0.6065  0.6256 -0.0306
  491SOL     OW 1471   1.387   1.012   6.962  0.3668  0.4238 -0.0502
  491SOL    HW1 1472   1.387   1.078   7.030 -0.6515 -0.2550  0.6394
  491SOL    HW2 1473   1.396   0.929   7.008  0.7650  0.0140 -0.8321
  492SOL     OW 1474   3.358   3.121   7.902  0.1051 -0.1632  0.1431
  492SOL    HW1 1475   3.296   3.062   7.859  1.5004 -2.0694  0.5785
  492SOL    HW2 1476   3.356   3.095   7.994 -0.7991  1.9874  0.7836
  493SOL     OW 1477   2.550   0.411   9.121  0.2691  0.4452  0.2709
  493SOL    HW1 1478   2.624   0.440   9.067 -0.8063  1.3755 -0.7506
  493SOL    HW2 1479   2.491   0.368   9.060 -1.6955  2.8440  0.3243
  494SOL     OW 1480   3.769   2.378   8.157 -0.3729 -0.2108 -0.1314
  494SOL    HW1 1481   3.817   2.320   8.217  0.5954 -0.4067 -1.0645
  494SOL    HW2 1482   3.722   2.438   8.215 -0.8345 -1.4559  0.8585
  495SOL     OW 1483   0.604   0.757   8.921 -0.6043 -0.1239 -0.7176
  495SOL    HW1 1484   0.596   0.719   9.009  0.8479  0.7923 -0.1536
  495SOL    HW2 1485   0.548   0.835   8.924  0.0231  0.3225 -0.3391
  496SOL     OW 1486   0.475   4.544   9.895 -0.3955 -0.3274  0.8869
  496SOL    HW1 1487   0.380   4.553   9.908 -0.4573 -0.0116  0.2624
  496SOL    HW2 1488   0.510   4.536   9.984 -0.7769  1.9629  1.3021
  497SOL     OW 1489   1.290   2.892   7.180  0.2694 -0.7840  0.3665
  497SOL    HW1 1490   1.371   2.848   7.154  0.6934  0.6682 -0.8430
  497SOL    HW2 1491   1.260   2.938   7.102  1.2314  3.2006  2.1040
  498SOL     OW 1492   0.830   2.986  10.216  0.2043 -0.5309 -0.3884
  498SOL    HW1 1493   0.805   3.039  10.292 -0.2288 -1.1313 -0.0950
  498SOL    HW2 1494   0.921   3.009  10.198 -0.1954  0.8425 -0.7314
  499SOL     OW 1495   4.960   1.728   8.033  1.0699  0.2456 -0.6797
  499SOL    HW1 1496   5.015   1.779   7.974  1.5769  0.4654 -0.0309
  499SOL    HW2 1497   5.022   1.682   8.090  0.5983 -0.2832 -0.5776
  500SOL     OW 1498   0.304   2.563   8.604 -0.5841  0.4066  0.4535
  500SOL    HW1 1499   0.339   2.482   8.565  1.2787  0.9031  0.9757
  500SOL    HW2 1500   0.215   2.569   8.570 -0.5470 -1.5038 -0.1511
  501SOL     OW 1501   3.418   4.655   9.398 -0.2560 -0.1194 -0.6922
  501SOL    HW1 1502   3.360   4.593   9.354  0.3493 -0.8668 -0.4464
  501SOL    HW2 1503   3.413   4.631   9.491 -0.9749  0.9948 -0.4213
  502SOL     OW 1504   1.244   1.834   9.731  0.1636  0.1687  0.5008
  502SOL    HW1 1505   1.202   1.788   9.659  2.3396  2.1698 -2.2785
  502SOL    HW2 1506   1.312   1.774   9.761 -2.6375 -1.9895  3.2774
  503SOL     OW 1507   0.451   0.971  10.080  0.7244 -0.3045 -0.3545
  503SOL    HW1 1508   0.510   0.973  10.005  0.7326 -3.2495 -0.5385
  503SOL    HW2 1509   0.477   0.893  10.129 -2.3139 -1.1680  0.1190
  504SOL     OW 1510   3.690   3.397   9.839  0.1060  0.3742 -0.2532
  504SOL    HW1 1511   3.638   3.317   9.840  1.6940 -0.7010 -0.7964
  504SOL    HW2 1512   3.752   3.385   9.767  0.5823  1.9801 -0.1624
  505SOL     OW 1513   1.859   0.791   6.295  0.1785  0.1224 -0.3782
  505SOL    HW1 1514   1.891   0.877   6.268 -1.2066  1.8674  2.8882
  505SOL    HW2 1515   1.938   0.743   6.320  0.8289  1.4233  0.1598
  506SOL     OW 1516   0.462   1.993  10.618 -0.6624 -0.0465 -0.4434
  506SOL    HW1 1517   0.380   2.013  10.663 -0.1472 -0.5216  0.7458
  506SOL    HW2 1518   0.455   1.899  10.597 -2.1475  0.7174 -4.0534
  507SOL     OW 1519   2.554   2.173   7.455  0.2771 -0.9238  0.6246
  507SOL    HW1 1520   2.546   2.242   7.521  0.7410  1.8008 -1.9197
  507SOL    HW2 1521   2.468   2.132   7.453 -2.0246  3.2819 -1.2962
  508SOL     OW 1522   4.321   1.606  10.264  0.2387 -0.3268  0.1307
  508SOL    HW1 1523   4.280   1.555  10.193 -0.1347 -2.5133  1.8013
  508SOL    HW2 1524   4.405   1.563  10.277 -0.2167 -0.7901  1.7942
  509SOL     OW 1525   1.462   4.918   8.417  0.0961 -0.3302 -0.0909
  509SOL    HW1 1526   1.401   4.879   8.480  0.4569 -0.3981  0.2189
  509SOL    HW2 1527   1.418   4.909   8.333 -0.2336 -0.5600  0.1029
  510SOL     OW 1528   0.453   3.659   8.044  0.0417 -0.3840  0.3470
  510SOL    HW1 1529   0.387   3.590   8.033 -2.5158  2.0341 -0.7695
  510SOL    HW2 1530   0.463   3.697   7.957 -0.1336  1.8487  1.2301
  511SOL     OW 1531   0.741   4.062   6.448  0.3048 -1.0024  0.1636
  511SOL    HW1 1532   0.801   4.085   6.519  0.6295  1.8029 -0.9161
  511SOL    HW2 1533   0.761   3.970   6.430 -0.3723 -2.1384  4.1796
  512SOL     OW 1534   1.034   1.251   5.193  0.4589  0.6161 -0.4042
  512SOL    HW1 1535   1.094   1.306   5.243  0.6385  1.1675 -1.2070
  512SOL    HW2 1536   1.090   1.192   5.144  0.3292  0.8132 -0.7928
  513SOL     OW 1537   2.470   1.805   8.103 -0.9589 -0.5221  0.7752
  513SOL    HW1 1538   2.469   1.794   8.008 -2.5185  2.9589  0.2643
  513SOL    HW2 1539   2.542   1.866   8.119 -1.9510  0.4798  1.5466
  514SOL     OW 1540   1.381   3.080  10.197  0.4828 -1.0633  0.2651
  514SOL    HW1 1541   1.367   3.135  10.121  3.3838 -0.0993  0.3282
  514SOL    HW2 1542   1.469   3.044  10.186  0.1595 -2.6296  2.1285
  515SOL     OW 1543   0.716   3.901   8.686 -0.1098 -0.1718  0.4317
  515SOL    HW1 1544   0.648   3.968   8.695  0.1027 -0.0454  1.2183
  515SOL    HW2 1545   0.668   3.818   8.683 -0.3906  0.0237 -0.8520
  516SOL     OW 1546   2.454   0.909   9.773  0.7664 -0.0561  0.4537
  516SOL    HW1 1547   2.421   0.828   9.812  1.6495 -0.2766  0.7703
  516SOL    HW2 1548   2.458   0.971   9.845 -1.4644  0.8096 -0.0912
  517SOL     OW 1549   4.855   2.023   7.987 -0.2338 -0.2982 -0.1595
  517SOL    HW1 1550   4.939   1.989   8.017 -0.6548 -2.5291 -1.3035
  517SOL    HW2 1551   4.804   2.036   8.067  0.6168 -0.5241  0.4381
  518SOL     OW 1552   4.119   2.619   8.165 -0.9522  0.5904  0.2266
  518SOL    HW1 1553   4.211   2.645   8.162 -0.4000 -1.2902 -0.9101
  518SOL    HW2 1554   4.118   2.541   8.221 -1.6106 -0.1711 -0.8027
  519SOL     OW 1555   2.999   0.598   9.645 -0.0553 -0.0108  0.2441
  519SOL    HW1 1556   2.974   0.687   9.669  2.1853  0.5204  0.8077
  519SOL    HW2 1557   3.067   0.574   9.707  0.8427 -1.3369 -1.1708
  520SOL     OW 1558   4.716   0.837   9.608 -0.5969 -0.6123 -0.3552
  520SOL    HW1 1559   4.691   0.801   9.694  0.1232 -0.4824 -0.0832
  520SOL    HW2 1560   4.800   0.879   9.624  0.7045 -2.5736 -1.6037
  521SOL     OW 1561   1.326   4.565   4.987  0.4568 -0.1262 -0.4638
  521SOL    HW1 1562   1.408   4.518   5.004 -1.0029 -1.7218  3.0471
  521SOL    HW2 1563   1.269   4.499   4.948  0.4641  0.7442 -2.0570
  522SOL     OW 1564   4.770   3.749   9.515  0.3641  0.2920  0.9739
  522SOL    HW1 1565   4.716   3.776   9.441  2.1996  0.4379 -0.3623
  522SOL    HW2 1566   4.768   3.824   9.574 -1.7403 -0.1115  1.5246
  523SOL     OW 1567   4.389   2.869   9.394 -0.5637 -0.1144  0.9020
  523SOL    HW1 1568   4.461   2.917   9.353 -1.4676  2.7221  2.3556
  523SOL    HW2 1569   4.418   2.855   9.484 -0.0617 -3.0791  0.3879
  524SOL     OW 1570   2.476   4.147   8.463 -0.1660 -1.4210 -0.0963
  524SOL    HW1 1571   2.540   4.075   8.461 -1.6263 -2.8984  2.1971
  524SOL    HW2 1572   2.495   4.194   8.544 -0.4534 -0.3430 -0.6304
  525SOL     OW 1573   1.571   2.627   7.455  0.3080  0.6808  0.4628
  525SOL    HW1 1574   1.522   2.587   7.526 -0.6417  0.1562 -0.4629
  525SOL    HW2 1575   1.573   2.721   7.476 -0.1169  0.5564  1.0796
  526SOL     OW 1576   1.334   2.888   8.971  0.2876 -0.4639 -0.4153
  526SOL    HW1 1577   1.319   2.821   9.037  1.0112 -2.7138 -2.3973
  526SOL    HW2 1578   1.428   2.904   8.973  0.2335 -0.1034 -0.5248
  527SOL     OW 1579   0.134   0.837   7.430 -0.7083  0.1636  0.8894
  527SOL    HW1 1580   0.145   0.753   7.386 -0.4585  1.0361 -0.7881
  527SOL    HW2 1581   0.197   0.835   7.502  0.8353 -0.2709 -0.4196
  528SOL     OW 1582   1.218   4.569   8.886  0.2783  0.1689 -0.6902
  528SOL    HW1 1583   1.285   4.539   8.825 -0.9853 -0.9594 -1.5840
  528SOL    HW2 1584   1.158   4.495   8.895  1.0700 -0.2231  3.0148
  529SOL     OW 1585   4.819   0.038   7.529 -0.5232  0.0645  0.4587
  529SOL    HW1 1586   4.754  -0.030   7.511 -2.7644  1.6793  1.9327
  529SOL    HW2 1587   4.778   0.093   7.596  2.0895  1.6319  0.9126
  530SOL     OW 1588   2.377   1.933   7.438 -0.2806  0.0654 -0.3710
  530SOL    HW1 1589   2.371   1.874   7.513 -1.6174  1.3881  0.6306
  530SOL    HW2 1590   2.450   1.900   7.387  1.3240 -0.2929  2.0177
  531SOL     OW 1591   1.015   1.920   9.449  0.4936  0.0198 -0.1983
  531SOL    HW1 1592   0.922   1.919   9.423  0.2570  0.3102  0.6292
  531SOL    HW2 1593   1.061   1.890   9.370 -0.5988 -4.7204  0.6140
  532SOL     OW 1594   0.413   2.304   8.322 -0.1146  0.7363 -0.7235
  532SOL    HW1 1595   0.405   2.302   8.418  3.4502  1.7982 -0.2624
  532SOL    HW2 1596   0.375   2.388   8.297  2.5029  2.3560  0.3580
  533SOL     OW 1597   0.200   4.541  10.378  0.0573  0.4391 -0.0780
  533SOL    HW1 1598   0.233   4.581  10.458  2.2831  1.6240 -1.4593
  533SOL    HW2 1599   0.272   4.485  10.348 -2.6625 -4.5021  1.4594
  534SOL     OW 1600   1.581   1.342   9.819  0.1630  0.5167  0.5155
  534SOL    HW1 1601   1.613   1.341   9.909  0.6680  1.2549  0.3608
  534SOL    HW2 1602   1.627   1.416   9.779  1.5792 -1.0637 -0.9283
  535SOL     OW 1603   2.382   0.659   8.901 -0.2349 -0.0730  0.5389
  535SOL    HW1 1604   2.376   0.721   8.829  0.0206 -1.7907 -1.0349
  535SOL    HW2 1605   2.295   0.659   8.940 -0.2351  1.2517  0.5898
  536SOL     OW 1606   0.207   1.601   7.806  0.0982 -0.4044 -0.8578
  536SOL    HW1 1607   0.201   1.609   7.902  0.6969 -0.6183 -0.8004
  536SOL    HW2 1608   0.227   1.690   7.777  2.7355 -0.8197 -0.5386
  537SOL     OW 1609   3.825   0.356   7.833 -0.7669 -0.6027  0.0741
  537SOL    HW1 1610   3.893   0.374   7.767 -1.2886  0.9659 -0.0697
  537SOL    HW2 1611   3.804   0.263   7.820  0.9245 -0.9765 -0.2618
  538SOL     OW 1612   1.574   3.139   9.884 -0.2713 -0.3333 -0.3574
  538SOL    HW1 1613   1.630   3.217   9.880  0.3040 -0.5093  2.1374
  538SOL    HW2 1614   1.624   3.071   9.839  0.0315  0.3099 -1.0108
  539SOL     OW 1615   2.284   1.193   7.961  0.2732  0.6244 -0.1551
  539SOL    HW1 1616   2.325   1.166   8.044 -0.0260  1.6264  0.3332
  539SOL    HW2 1617   2.350   1.172   7.894  0.5089 -0.2234  0.3247
  540SOL     OW 1618   4.397   1.298   9.409  0.2461  0.1998  0.4698
  540SOL    HW1 1619   4.456   1.246   9.463 -0.8744 -1.2561  0.3313
  540SOL    HW2 1620   4.314   1.300   9.458 -0.6665 -0.8038 -0.9528
  541SOL     OW 1621   4.198   4.818   8.233  0.2927  0.1645  0.0863
  541SOL    HW1 1622   4.289   4.792   8.221 -0.4922 -1.6502 -3.0722
  541SOL    HW2 1623   4.175   4.786   8.320  2.6632  0.8221  1.0227
  542SOL     OW 1624   1.368   3.195   9.715 -0.3473  0.7657 -0.2792
  542SOL    HW1 1625   1.425   3.190   9.637 -0.0934 -1.3544 -0.0198
  542SOL    HW2 1626   1.428   3.215   9.787 -0.4979  2.1155 -0.4912
  543SOL     OW 1627   2.076   0.325   8.062  0.1908  0.4209 -0.2089
  543SOL    HW1 1628   2.014   0.378   8.113 -0.6471  0.0733 -0.8414
  543SOL    HW2 1629   2.160   0.339   8.105 -0.1160  1.7935 -0.0125
  544SOL     OW 1630   4.755   0.211   8.348 -0.3421 -0.5985  0.1718
  544SOL    HW1 1631   4.681   0.198   8.407 -1.9228  2.4157 -0.9218
  544SOL    HW2 1632   4.796   0.292   8.378  1.3513 -1.1747 -0.4526
  545SOL     OW 1633   3.955   4.621   8.915 -0.1224  0.4756 -0.7818
  545SOL    HW1 1634   4.039   4.579   8.897  0.4334  1.6849 -1.0515
  545SOL    HW2 1635   3.894   4.548   8.926  1.5264 -0.6262  2.6461
  546SOL     OW 1636   0.067   3.907   9.134 -0.5594  0.4055 -0.0321
  546SOL    HW1 1637   0.005   3.835   9.144 -2.7702  2.1625 -0.3257
  546SOL    HW2 1638   0.019   3.973   9.086  0.9055  2.6412  1.3895
  547SOL     OW 1639   2.708   1.011   9.366  0.2763  0.2566  0.2045
  547SOL    HW1 1640   2.744   1.007   9.455  0.4533  1.4320  0.2046
  547SOL    HW2 1641   2.732   1.098   9.335  0.2659 -0.1628 -1.0286
  548SOL     OW 1642   3.844   3.665  10.068  0.8416 -0.0326 -0.2939
  548SOL    HW1 1643   3.939   3.651  10.072  0.9702  0.9130  0.1908
  548SOL    HW2 1644   3.811   3.632  10.152  0.7345 -0.3845 -0.4722
  549SOL     OW 1645   3.660   1.416   9.986 -0.7239  0.5710  0.4979
  549SOL    HW1 1646   3.600   1.468   9.933 -1.8860 -0.8566  0.3280
  549SOL    HW2 1647   3.616   1.331   9.994  1.8269 -0.9899 -0.6942
  550SOL     OW 1648   4.074   2.184   9.989 -0.7878 -0.1044  1.1016
  550SOL    HW1 1649   4.128   2.110   9.963 -0.8134  0.1704  0.2176
  550SOL    HW2 1650   4.045   2.223   9.906 -1.6651  0.2439  1.5528
  551SOL     OW 1651   4.464   2.856  10.065  0.0617 -0.3185 -0.3657
  551SOL    HW1 1652   4.386   2.816  10.028  0.8564 -2.1775 -0.1559
  551SOL    HW2 1653   4.493   2.919   9.999 -0.4346 -1.1381 -1.3917
  552SOL     OW 1654   0.276   1.093   9.105  0.3927 -0.3585 -0.1163
  552SOL    HW1 1655   0.355   1.108   9.156  2.1179 -3.6615 -1.5551
  552SOL    HW2 1656   0.229   1.177   9.109  3.7639  1.6700  1.0239
  553SOL     OW 1657   0.153   1.228   9.361 -0.2818  0.1259 -0.5833
  553SOL    HW1 1658   0.122   1.257   9.447  3.3760  2.6830  0.0776
  553SOL    HW2 1659   0.187   1.308   9.320 -0.2970 -1.3544 -3.7364
  554SOL     OW 1660   0.757   2.857   8.461  0.0996  0.7988 -0.2012
  554SOL    HW1 1661   0.846   2.873   8.430  0.6419  2.0526  1.7868
  554SOL    HW2 1662   0.732   2.774   8.421  1.9418  0.6900 -1.2449
  555SOL     OW 1663   2.750   0.497   8.917 -0.0811 -0.3016  0.4717
  555SOL    HW1 1664   2.688   0.497   8.844  0.0799  1.2325  0.2910
  555SOL    HW2 1665   2.836   0.498   8.876  0.0314 -0.6806  0.6966
  556SOL     OW 1666   3.020   4.451   7.781 -0.4642 -0.0814  0.6882
  556SOL    HW1 1667   3.095   4.447   7.842  0.2098  1.5647  0.0116
  556SOL    HW2 1668   2.990   4.541   7.786 -1.3215 -0.2992 -0.3654
  557SOL     OW 1669   1.725   4.707   9.283  0.5898  0.3201 -0.1212
  557SOL    HW1 1670   1.739   4.625   9.236  0.1812 -1.8329  3.1590
  557SOL    HW2 1671   1.812   4.737   9.308  0.6566  0.0041  0.0233
  558SOL     OW 1672   0.298   0.893   9.806 -0.9056  0.3129 -0.9371
  558SOL    HW1 1673   0.393   0.898   9.795 -0.7645  1.3104  0.3930
  558SOL    HW2 1674   0.286   0.840   9.885 -1.4364  0.4775 -0.8993
  559SOL     OW 1675   4.656   3.466   9.504  0.1800  0.0399  0.5982
  559SOL    HW1 1676   4.707   3.542   9.531 -0.6768  0.6916  0.4298
  559SOL    HW2 1677   4.568   3.482   9.539 -0.7401  0.4850 -1.7111
  560SOL     OW 1678   0.962   3.846   7.730  0.0481  0.2968 -0.7743
  560SOL    HW1 1679   0.951   3.888   7.815  3.3064  0.0198 -0.0839
  560SOL    HW2 1680   1.010   3.910   7.677  0.6966 -0.6729 -1.3924
  561SOL     OW 1681   1.920   1.839   9.383 -0.3740  0.4508 -0.0135
  561SOL    HW1 1682   1.871   1.921   9.396  1.2827  1.2232  2.0660
  561SOL    HW2 1683   1.906   1.791   9.465  2.6015  0.9252  0.8766
  562SOL     OW 1684   1.983   1.680   9.621  0.6492  0.1587 -0.8183
  562SOL    HW1 1685   2.036   1.738   9.567  3.0167  0.1827  1.3461
  562SOL    HW2 1686   2.022   1.685   9.708 -1.7005 -1.4488  0.4506
  563SOL     OW 1687   4.899   2.586   7.316 -0.5123 -0.1671  0.3551
  563SOL    HW1 1688   4.939   2.652   7.372 -0.9171  1.6623 -1.4276
  563SOL    HW2 1689   4.840   2.634   7.258 -3.2399 -2.4553  1.0192
  564SOL     OW 1690   0.426   1.052   8.247 -0.1043  0.0076 -0.1347
  564SOL    HW1 1691   0.404   1.130   8.299 -0.8072 -0.3240  0.0772
  564SOL    HW2 1692   0.342   1.024   8.209  0.2891 -0.1392 -0.9227
  565SOL     OW 1693   2.722   2.009   8.046  0.4092 -0.6142 -0.0688
  565SOL    HW1 1694   2.747   2.046   8.132  0.9324 -0.4818 -0.2702
  565SOL    HW2 1695   2.806   1.990   8.004  0.1469 -1.1779 -0.3431
  566SOL     OW 1696   3.342   2.891   8.597 -0.1416 -0.5719  0.0313
  566SOL    HW1 1697   3.294   2.950   8.539 -1.2462 -0.1826  1.2897
  566SOL    HW2 1698   3.274   2.844   8.646  0.6823  0.6754  2.5462
  567SOL     OW 1699   2.210   1.956   9.208  0.4125  0.9360 -0.0887
  567SOL    HW1 1700   2.132   2.001   9.175  0.3729  2.1346  1.5245
  567SOL    HW2 1701   2.227   1.888   9.144 -2.1794  0.4074 -0.3100
  568SOL     OW 1702   4.390   4.220   8.315 -0.1712 -0.4346  0.2404
  568SOL    HW1 1703   4.439   4.151   8.271  0.7033 -0.5781  1.3956
  568SOL    HW2 1704   4.442   4.299   8.301  0.1885 -0.5115  1.1440
  569SOL     OW 1705   4.880   0.984   7.993  0.1254  0.0489  0.0819
  569SOL    HW1 1706   4.895   1.053   7.929  1.5251  0.7379  1.1125
  569SOL    HW2 1707   4.786   0.988   8.011 -0.0170  0.8700 -0.7617
  570SOL     OW 1708   2.030   4.275   9.340  0.0470 -0.6320  0.1568
  570SOL    HW1 1709   1.991   4.190   9.318 -1.2593  0.3151 -1.3285
  570SOL    HW2 1710   1.955   4.335   9.343  0.7334  0.2082  2.7771
  571SOL     OW 1711   1.094   0.625   9.148  0.0259  0.5294 -0.2255
  571SOL    HW1 1712   1.100   0.719   9.136  1.9140  0.8254  2.2171
  571SOL    HW2 1713   1.185   0.595   9.151 -0.4330 -0.8894  1.8617
  572SOL     OW 1714   2.316   4.533   6.115 -0.9228 -0.2824  0.6443
  572SOL    HW1 1715   2.239   4.514   6.062  1.9484 -0.5040 -3.9936
  572SOL    HW2 1716   2.302   4.623   6.146 -1.7888  0.9735 -2.8630
  573SOL     OW 1717   1.762   0.787   5.934 -0.4162  0.9024  0.3590
  573SOL    HW1 1718   1.692   0.727   5.961  0.5397 -1.0581 -1.1847
  573SOL    HW2 1719   1.774   0.846   6.009 -1.0384 -1.2229  2.2515
  574SOL     OW 1720   1.228   1.395   4.707 -0.0365 -0.7861 -0.4924
  574SOL    HW1 1721   1.181   1.321   4.746 -0.8571  0.6421  1.3875
  574SOL    HW2 1722   1.187   1.407   4.622  0.5775 -2.8918 -1.1299
  575SOL     OW 1723   1.774   2.995   6.691 -0.0292 -0.3506 -0.2242
  575SOL    HW1 1724   1.861   2.956   6.682 -0.7882 -3.0069  2.3788
  575SOL    HW2 1725   1.782   3.058   6.762 -0.3262 -0.9422  0.3365
  576SOL     OW 1726   2.507   2.249   5.425 -0.3046  0.0918 -0.5212
  576SOL    HW1 1727   2.465   2.268   5.509  0.6887  0.2991 -0.0644
  576SOL    HW2 1728   2.510   2.333   5.380 -2.0219 -0.2398 -1.3417
  577SOL     OW 1729   1.450   2.254   5.768  0.1224 -0.3517 -0.5662
  577SOL    HW1 1730   1.541   2.228   5.788 -0.4994 -1.3389  1.3018
  577SOL    HW2 1731   1.455   2.348   5.751  1.6299 -0.5682 -1.5106
  578SOL     OW 1732   0.408   0.448   6.310 -0.4914 -0.1650  0.3285
  578SOL    HW1 1733   0.414   0.527   6.256 -1.8736  0.3338  0.8442
  578SOL    HW2 1734   0.437   0.476   6.397 -0.9732 -0.2082  0.5092
  579SOL     OW 1735   1.190   1.075   5.100 -0.4859  0.3119 -0.1970
  579SOL    HW1 1736   1.265   1.050   5.154  1.4838  1.8426 -2.0526
  579SOL    HW2 1737   1.142   0.993   5.088 -0.0364 -0.4204  2.3146
  580SOL     OW 1738   1.226   2.945   6.220 -0.5544 -0.0155 -0.3290
  580SOL    HW1 1739   1.188   2.875   6.166  0.1762 -1.3653  0.8204
  580SOL    HW2 1740   1.252   2.900   6.300  1.3573  1.3112 -0.1653
  581SOL     OW 1741   2.644   1.296   9.031  0.1852 -0.2637 -0.4339
  581SOL    HW1 1742   2.662   1.229   8.965  2.3617  0.2880 -0.4986
  581SOL    HW2 1743   2.549   1.299   9.037 -0.0228 -1.8751 -1.9377
  582SOL     OW 1744   0.340   3.419   7.985  1.0189  0.1821 -0.4405
  582SOL    HW1 1745   0.381   3.340   7.950  0.5032 -0.6712  0.7859
  582SOL    HW2 1746   0.257   3.425   7.939  1.1780  0.1704 -0.7344
  583SOL     OW 1747   3.489   1.460   6.290  0.0276  0.2671  0.0759
  583SOL    HW1 1748   3.546   1.467   6.367 -1.4166  2.3924  1.0260
  583SOL    HW2 1749   3.549   1.443   6.218  1.5690 -0.4092  1.4486
  584SOL     OW 1750   1.916   2.442   6.314  0.3029 -0.1299  0.0933
  584SOL    HW1 1751   1.916   2.439   6.218  1.9618 -0.8078  0.0729
  584SOL    HW2 1752   1.956   2.526   6.335  1.4299 -0.6534  0.1431
  585SOL     OW 1753   3.947   2.797   8.271  0.4290 -0.5235  0.7261
  585SOL    HW1 1754   3.869   2.742   8.262 -0.2761  0.5930 -0.3685
  585SOL    HW2 1755   4.012   2.755   8.215 -0.1460 -0.2027 -0.2089
  586SOL     OW 1756   0.272   4.099   6.656 -0.0874 -0.0179  1.0111
  586SOL    HW1 1757   0.236   4.065   6.575  0.0397 -2.9801  2.0686
  586SOL    HW2 1758   0.359   4.058   6.663  0.4386  1.1865  2.0400
  587SOL     OW 1759   0.767   1.842   9.088 -0.5358  1.6041 -0.4539
  587SOL    HW1 1760   0.830   1.914   9.087 -1.7194  2.6692 -1.1226
  587SOL    HW2 1761   0.692   1.876   9.137 -1.5991  1.3061 -1.8005
  588SOL     OW 1762   4.835   2.423   5.102 -0.5034 -0.4226  0.1422
  588SOL    HW1 1763   4.774   2.389   5.037  0.0307  0.4129 -0.8263
  588SOL    HW2 1764   4.841   2.517   5.081  3.5482 -0.9310 -1.9169
  589SOL     OW 1765   3.495   4.712  10.457  0.2953  0.1618  0.0154
  589SOL    HW1 1766   3.567   4.745  10.403  0.7236  0.1371  0.5598
  589SOL    HW2 1767   3.416   4.731  10.407  0.6725  0.3090 -0.5303
  590SOL     OW 1768   1.878   3.823   4.217 -0.7435 -0.3773 -0.3217
  590SOL    HW1 1769   1.800   3.794   4.264 -0.1279  0.8085  1.5880
  590SOL    HW2 1770   1.945   3.757   4.237 -0.2830  0.4913  1.1642
  591SOL     OW 1771   4.056   4.312   7.540 -0.2830 -0.2217 -0.1803
  591SOL    HW1 1772   4.092   4.266   7.463 -0.6580  1.0429 -1.1396
  591SOL    HW2 1773   4.106   4.393   7.545  0.7805 -0.9283  1.8666
  592SOL     OW 1774   1.438   2.906   2.786 -0.2942  0.1262 -0.7872
  592SOL    HW1 1775   1.426   2.893   2.880  2.7454  0.4393 -0.2312
  592SOL    HW2 1776   1.533   2.897   2.773 -0.7429 -1.5206 -4.0986
  593SOL     OW 1777   0.335   4.907   6.133 -0.4574 -0.1740 -0.2218
  593SOL    HW1 1778   0.276   4.928   6.061 -0.5232 -1.4337 -0.5577
  593SOL    HW2 1779   0.332   4.811   6.139 -0.2034 -0.1064  1.2417
  594SOL     OW 1780   0.875   4.813   5.476  0.0851  0.3571 -0.3579
  594SOL    HW1 1781   0.958   4.807   5.429  0.0847 -0.3154 -0.2774
  594SOL    HW2 1782   0.899   4.844   5.563  0.0236  2.2506 -0.9568
  595SOL     OW 1783   4.424   1.454   6.732 -0.6937 -0.3472 -0.5360
  595SOL    HW1 1784   4.417   1.543   6.768 -0.8050 -0.4872 -0.2138
  595SOL    HW2 1785   4.476   1.406   6.795 -0.2272 -0.3899 -0.9459
  596SOL     OW 1786   0.387   1.947   7.004  0.1935 -0.3949 -0.3146
  596SOL    HW1 1787   0.327   1.873   7.003 -0.2949 -0.0365  0.7576
  596SOL    HW2 1788   0.330   2.024   6.997  0.7529 -0.1167 -2.3853
  597SOL     OW 1789   2.717   1.027   7.039  0.0230 -0.6993 -0.5032
  597SOL    HW1 1790   2.655   1.086   7.082  0.2881 -1.1595  0.5262
  597SOL    HW2 1791   2.790   1.021   7.100  2.3451  1.8815 -2.7603
  598SOL     OW 1792   0.421   1.233   5.600  0.1233 -0.6500 -0.2073
  598SOL    HW1 1793   0.461   1.254   5.684 -0.2948 -0.8284  0.0340
  598SOL    HW2 1794   0.336   1.276   5.601  0.8893  1.0133 -1.3352
  599SOL     OW 1795   2.768   3.557   8.573  0.0867  0.3753  0.4448
  599SOL    HW1 1796   2.842   3.498   8.589 -0.0019  0.4023  0.9817
  599SOL    HW2 1797   2.806   3.645   8.583  0.8843  0.5681 -3.0721
  600SOL     OW 1798   2.423   2.179   4.653  0.2233 -0.3560 -0.2482
  600SOL    HW1 1799   2.406   2.214   4.566  0.8235 -0.5352 -0.4444
  600SOL    HW2 1800   2.447   2.088   4.638  1.3588 -0.1152 -0.0046
  601SOL     OW 1801   0.191   1.098   8.089 -0.5529 -0.4514 -0.1224
  601SOL    HW1 1802   0.124   1.066   8.029 -1.2488  0.3799  0.1876
  601SOL    HW2 1803   0.165   1.189   8.106  0.0995 -0.4330  0.7880
  602SOL     OW 1804   0.747   4.485   5.654  0.2021 -0.0963  0.0077
  602SOL    HW1 1805   0.768   4.403   5.699 -1.1269 -0.9126 -0.7605
  602SOL    HW2 1806   0.737   4.549   5.724  0.2689 -0.8329  0.7121
  603SOL     OW 1807   4.178   1.742   6.388 -0.2371 -0.7477  0.1770
  603SOL    HW1 1808   4.188   1.668   6.448 -1.1788 -1.3929 -0.4405
  603SOL    HW2 1809   4.127   1.707   6.315 -0.1513  0.3495 -0.4230
  604SOL     OW 1810   2.868   1.246   4.285 -0.3875 -0.5041 -0.5668
  604SOL    HW1 1811   2.823   1.324   4.255 -0.1452  0.1304  0.6582
  604SOL    HW2 1812   2.813   1.212   4.356  0.1361 -0.7408 -0.2699
  605SOL     OW 1813   1.897   0.709   9.186  0.0801 -0.3428  0.0623
  605SOL    HW1 1814   1.837   0.648   9.143 -0.4122  0.7924 -0.9150
  605SOL    HW2 1815   1.857   0.727   9.271 -0.3338 -0.5455 -0.0896
  606SOL     OW 1816   1.203   0.756   6.632  0.7435  0.4939  0.3626
  606SOL    HW1 1817   1.132   0.699   6.660 -0.2733  2.2289  1.4866
  606SOL    HW2 1818   1.162   0.841   6.616  2.0298  0.7332 -2.2398
  607SOL     OW 1819  -0.008   1.126   6.649  0.1704  0.2425  0.1128
  607SOL    HW1 1820  -0.001   1.062   6.721 -2.5809 -1.0539 -0.6297
  607SOL    HW2 1821   0.010   1.074   6.570 -0.1606  0.8589 -0.3716
  608SOL     OW 1822   1.955   2.678   8.056 -0.2350 -0.3457  0.2233
  608SOL    HW1 1823   2.020   2.681   7.986  0.1989 -3.2386  0.3611
  608SOL    HW2 1824   1.878   2.639   8.014 -0.6833 -0.1616  0.8659
  609SOL     OW 1825   1.537   0.560   8.067  0.3481 -0.3524  0.4586
  609SOL    HW1 1826   1.534   0.625   8.137  1.1232  1.4838 -1.1090
  609SOL    HW2 1827   1.453   0.515   8.071 -2.0574  3.5490 -0.8629
  610SOL     OW 1828   2.080   3.357   5.786  0.1612 -0.2881  0.8714
  610SOL    HW1 1829   2.045   3.443   5.811 -1.7994 -1.5798  3.0005
  610SOL    HW2 1830   2.083   3.308   5.869 -0.3544 -2.7955 -0.5115
  611SOL     OW 1831   4.049   4.368   6.816  0.6172  0.2179  0.4258
  611SOL    HW1 1832   3.966   4.320   6.819  0.4590  0.5427  1.8919
  611SOL    HW2 1833   4.072   4.370   6.723 -2.4228  2.5005 -0.4402
  612SOL     OW 1834   2.787   1.097   5.933 -0.2515 -0.1726 -0.5086
  612SOL    HW1 1835   2.737   1.178   5.926 -0.7021 -0.3165  0.7914
  612SOL    HW2 1836   2.765   1.048   5.854  0.2213  1.0604 -1.4440
  613SOL     OW 1837   3.766   0.635   5.039  0.2444 -0.8366  0.3369
  613SOL    HW1 1838   3.776   0.691   4.962  0.8770 -0.2166  0.8534
  613SOL    HW2 1839   3.839   0.661   5.096  1.0717 -2.7631  0.2342
  614SOL     OW 1840   1.317   4.620   7.744  0.0519 -0.4271  0.6718
  614SOL    HW1 1841   1.408   4.603   7.720 -0.1848  0.5460 -1.0883
  614SOL    HW2 1842   1.266   4.567   7.682 -0.5814  0.5218  0.3609
  615SOL     OW 1843   1.862   1.395   5.343  0.0868 -0.0060  0.6013
  615SOL    HW1 1844   1.811   1.316   5.324  0.3855 -0.5389  1.8844
  615SOL    HW2 1845   1.806   1.467   5.315 -0.6559 -0.6407  0.4095
  616SOL     OW 1846   2.960   0.544   5.032 -0.3423 -0.0933 -0.5242
  616SOL    HW1 1847   3.014   0.589   5.096 -2.0571 -0.8440  1.5958
  616SOL    HW2 1848   2.992   0.454   5.031 -0.2450 -0.0581 -0.8315
  617SOL     OW 1849   1.686   3.757   7.636  0.0729 -0.7882  0.2095
  617SOL    HW1 1850   1.749   3.829   7.630  2.0288 -2.4155 -0.1050
  617SOL    HW2 1851   1.602   3.799   7.651  0.9516  1.6123 -1.0571
  618SOL     OW 1852   4.554   3.129   8.230 -0.2335 -0.1560 -0.5894
  618SOL    HW1 1853   4.573   3.170   8.145 -0.1830 -1.4392 -1.2142
  618SOL    HW2 1854   4.462   3.150   8.246  0.1925  1.5475 -0.1124
  619SOL     OW 1855   1.043   1.069   6.898 -0.1511 -0.1937  0.1018
  619SOL    HW1 1856   1.103   1.004   6.861  0.2824  1.0722 -1.5501
  619SOL    HW2 1857   1.099   1.127   6.949 -0.1713  0.1584 -0.2673
  620SOL     OW 1858   4.995   1.464  10.064  0.3685 -0.5228 -0.2347
  620SOL    HW1 1859   4.996   1.433  10.155 -0.0742 -0.8223 -0.3292
  620SOL    HW2 1860   5.000   1.384  10.011  3.2648 -0.2855 -0.5072
  621SOL     OW 1861   1.387   4.135   5.767 -0.6181  0.0232 -0.9038
  621SOL    HW1 1862   1.322   4.064   5.759  0.7901 -1.5106  0.3486
  621SOL    HW2 1863   1.468   4.097   5.732  0.7877  0.0399  2.0262
  622SOL     OW 1864   3.528   4.989   6.242 -0.1515 -0.2595  0.0122
  622SOL    HW1 1865   3.584   5.062   6.214 -2.0934  1.4263  0.2674
  622SOL    HW2 1866   3.506   4.944   6.161 -0.8396  0.9227 -0.4909
  623SOL     OW 1867   2.148   1.338   5.285 -0.3315  0.5278  0.0181
  623SOL    HW1 1868   2.065   1.323   5.328 -0.8683  1.7184 -0.5483
  623SOL    HW2 1869   2.139   1.295   5.200 -1.4588  2.8918 -1.1634
  624SOL     OW 1870   3.896   2.925   5.528 -0.4087 -0.2053  1.0848
  624SOL    HW1 1871   3.846   2.845   5.509 -0.5579 -0.1390  1.2004
  624SOL    HW2 1872   3.988   2.898   5.517 -0.4634 -0.3570  0.9894
  625SOL     OW 1873   3.601   5.027   5.205 -0.6391  0.5108  0.1448
  625SOL    HW1 1874   3.662   5.018   5.131  2.7821  2.1439  2.4710
  625SOL    HW2 1875   3.590   4.938   5.238  2.2002  0.2571  0.7287
  626SOL     OW 1876   4.722   3.789   4.704  0.1886 -0.3800  0.0203
  626SOL    HW1 1877   4.761   3.702   4.700  0.5106 -0.1950 -1.7109
  626SOL    HW2 1878   4.778   3.838   4.764  0.0503 -1.3185  0.9462
  627SOL     OW 1879   0.235   1.332   9.899 -0.2653 -0.0232 -0.3533
  627SOL    HW1 1880   0.187   1.415   9.896 -0.4655 -0.1428 -0.4972
  627SOL    HW2 1881   0.320   1.355   9.934 -1.2068 -0.1975  2.2185
  628SOL     OW 1882   4.445   2.789   8.260  0.8127  0.2239 -0.3908
  628SOL    HW1 1883   4.396   2.871   8.267 -0.3075 -0.5567  1.4304
  628SOL    HW2 1884   4.503   2.789   8.336 -0.2925 -1.3386  0.4955
  629SOL     OW 1885   3.159   3.046   6.346  0.2278  0.2982 -0.1225
  629SOL    HW1 1886   3.102   3.012   6.277  0.2423 -0.9085  0.4408
  629SOL    HW2 1887   3.208   3.117   6.303 -0.8149  0.5577 -0.9385
  630SOL     OW 1888   2.250   4.525   7.169  0.5741 -0.9588 -0.2822
  630SOL    HW1 1889   2.305   4.453   7.203  0.2543 -0.4489  1.3830
  630SOL    HW2 1890   2.181   4.535   7.234 -2.0359 -2.0990 -2.7050
  631SOL     OW 1891   4.977   4.918   6.177  0.1025  0.1004 -0.6436
  631SOL    HW1 1892   4.967   4.990   6.239  1.2862  0.4775 -0.8654
  631SOL    HW2 1893   4.967   4.839   6.230  0.2870  0.4228 -0.1165
  632SOL     OW 1894   3.398   3.793   5.456  0.2957 -0.2740  0.5579
  632SOL    HW1 1895   3.336   3.865   5.462  0.8870  0.1933  1.2957
  632SOL    HW2 1896   3.398   3.754   5.544  1.6159  0.2323  0.8075
  633SOL     OW 1897   1.728   4.606   7.184  0.4417 -0.1637 -0.4439
  633SOL    HW1 1898   1.766   4.540   7.241 -0.6101 -0.2201  0.2251
  633SOL    HW2 1899   1.732   4.687   7.235  0.2327 -0.0544 -0.5969
  634SOL     OW 1900   2.081   2.915   7.179  0.2488 -0.0168 -0.7199
  634SOL    HW1 1901   2.013   2.891   7.242  0.0547  1.0537 -0.5053
  634SOL    HW2 1902   2.041   2.899   7.093 -1.2110  2.8459 -0.6750
  635SOL     OW 1903   0.160   1.346   6.012 -0.2198 -0.6485 -0.3607
  635SOL    HW1 1904   0.180   1.329   6.104  2.7556  0.7111 -0.6458
  635SOL    HW2 1905   0.093   1.415   6.014 -0.8477 -1.2637  0.7403
  636SOL     OW 1906   0.938   3.579   5.793  0.3854 -0.0531  0.0313
  636SOL    HW1 1907   0.921   3.489   5.765  1.0387  0.1137 -0.9560
  636SOL    HW2 1908   0.861   3.602   5.845 -0.1855 -0.8978 -0.4006
  637SOL     OW 1909   2.628   3.967   6.260 -0.0243 -0.2058  0.2465
  637SOL    HW1 1910   2.684   3.913   6.316 -0.4086 -2.3646 -1.3217
  637SOL    HW2 1911   2.661   4.056   6.273  1.8841 -1.0123  1.5364
  638SOL     OW 1912   1.340   1.483   4.991  0.6813  0.0189  0.1150
  638SOL    HW1 1913   1.357   1.468   4.898  1.4640  3.2802 -0.3883
  638SOL    HW2 1914   1.295   1.567   4.993 -1.6691 -1.1472  2.5821
  639SOL     OW 1915   4.929   3.565   5.159 -0.4329  0.6439  0.4340
  639SOL    HW1 1916   4.861   3.498   5.152  0.6882 -0.3659 -1.4289
  639SOL    HW2 1917   4.891   3.642   5.117  1.1776 -1.3513 -5.6515
  640SOL     OW 1918   3.108   1.866   6.227 -0.0721 -0.4395  0.4001
  640SOL    HW1 1919   3.066   1.951   6.216  0.3848 -0.2833 -0.1904
  640SOL    HW2 1920   3.042   1.802   6.203 -1.5843 -0.4754  3.9745
  641SOL     OW 1921   2.593   3.063   6.764  0.2973 -1.0733  0.0925
  641SOL    HW1 1922   2.618   2.970   6.757  2.4727 -0.5922  0.7375
  641SOL    HW2 1923   2.670   3.106   6.800 -1.1109  0.8143  1.0450
  642SOL     OW 1924   3.324   2.877   5.367  0.1618 -0.4497  0.3915
  642SOL    HW1 1925   3.313   2.783   5.382  2.2143 -0.7609  0.1564
  642SOL    HW2 1926   3.245   2.903   5.318 -0.2798 -2.1073  0.1768
  643SOL     OW 1927   2.345   0.593   5.148 -0.1140  0.9098 -0.0728
  643SOL    HW1 1928   2.277   0.660   5.150  0.4204  1.4537  0.4211
  643SOL    HW2 1929   2.426   0.640   5.168  0.0780 -0.0932  1.7669
  644SOL     OW 1930   3.976   2.335   7.376  0.1506  0.1018  0.7427
  644SOL    HW1 1931   4.017   2.258   7.417  1.7339  1.4684  1.8453
  644SOL    HW2 1932   3.901   2.355   7.431 -0.6101 -0.9628  0.1251
  645SOL     OW 1933   4.540   2.694   4.868 -0.7270  0.3044  0.1830
  645SOL    HW1 1934   4.512   2.705   4.777  0.3622  0.7896 -0.1131
  645SOL    HW2 1935   4.459   2.681   4.916 -1.3402  0.2149 -0.8310
  646SOL     OW 1936   4.104   4.602   5.878  0.1366  0.1783  0.2499
  646SOL    HW1 1937   4.155   4.616   5.957 -1.0511 -0.9167  1.2633
  646SOL    HW2 1938   4.122   4.511   5.853 -0.2332  0.2151 -0.1690
  647SOL     OW 1939   3.766   2.480   6.586 -0.1710 -0.2252  0.2327
  647SOL    HW1 1940   3.786   2.427   6.509 -1.3621 -0.2374 -0.0839
  647SOL    HW2 1941   3.798   2.568   6.564 -2.8043  0.4348 -1.3935
  648SOL     OW 1942   1.684   1.878   7.746  0.4125 -0.3343 -0.0644
  648SOL    HW1 1943   1.689   1.942   7.675 -2.1849 -0.3018 -0.2974
  648SOL    HW2 1944   1.768   1.832   7.743  0.8752  0.5524 -2.3032
  649SOL     OW 1945   2.913   1.619   6.360  0.0264  0.1938 -0.3902
  649SOL    HW1 1946   2.975   1.550   6.337  0.1730  0.4722 -0.8484
  649SOL    HW2 1947   2.928   1.636   6.452 -0.4355 -0.8180 -0.1075
  650SOL     OW 1948   3.365   0.645  10.190 -0.0498 -0.2662 -0.3105
  650SOL    HW1 1949   3.321   0.587  10.252 -0.2546 -0.3082 -0.4903
  650SOL    HW2 1950   3.339   0.612  10.104  0.1893 -0.1775 -0.4173
  651SOL     OW 1951   1.159   1.442   6.067 -0.1971  0.1889  0.0270
  651SOL    HW1 1952   1.175   1.439   5.973  2.3613  0.6169  0.3677
  651SOL    HW2 1953   1.063   1.447   6.075 -0.5466 -0.9016 -2.4784
  652SOL     OW 1954   4.946   4.278   5.578  0.7234  0.0051  0.0432
  652SOL    HW1 1955   4.987   4.210   5.524  0.0666 -0.2521 -0.1410
  652SOL    HW2 1956   5.000   4.281   5.657 -0.4375 -2.2828  1.0313
  653SOL     OW 1957   3.837   2.628   4.906 -0.3258  0.2473 -0.3301
  653SOL    HW1 1958   3.841   2.709   4.855  1.2469  0.4249  0.0140
  653SOL    HW2 1959   3.903   2.640   4.975 -1.3327 -0.6020  0.8326
  654SOL     OW 1960   2.240   1.551   6.508 -0.2828  0.1403  0.7041
  654SOL    HW1 1961   2.163   1.567   6.562 -1.1658 -0.5287 -0.3104
  654SOL    HW2 1962   2.229   1.608   6.432 -0.5800 -1.0536 -0.1806
  655SOL     OW 1963   1.944  -0.016   7.369  0.5589 -0.0566  0.2337
  655SOL    HW1 1964   1.985  -0.005   7.455  1.5482  2.2530 -0.4258
  655SOL    HW2 1965   1.981   0.056   7.317 -0.7737 -0.7889 -1.8239
  656SOL     OW 1966   3.552   2.920   4.850  0.1840 -0.7288 -0.1560
  656SOL    HW1 1967   3.622   2.895   4.790 -0.3776  0.9481 -1.6074
  656SOL    HW2 1968   3.582   3.002   4.889  0.1998 -1.4050  1.3257
  657SOL     OW 1969   1.603   0.922   5.742 -0.8730  0.5834 -0.1425
  657SOL    HW1 1970   1.552   0.842   5.755 -0.6262  0.4605  0.0722
  657SOL    HW2 1971   1.661   0.926   5.817 -0.7934  0.8983 -0.2202
  658SOL     OW 1972   2.573   0.908   6.024  0.5926 -0.0118  0.3815
  658SOL    HW1 1973   2.658   0.951   6.037  0.2196  1.0460 -0.5426
  658SOL    HW2 1974   2.509   0.979   6.030  0.0571 -0.1116 -2.6244
  659SOL     OW 1975   1.580   2.461   6.227  0.2722  0.2490  0.0360
  659SOL    HW1 1976   1.602   2.441   6.318  1.4381 -0.2312 -0.3397
  659SOL    HW2 1977   1.594   2.379   6.181 -1.2242  0.2327 -0.4428
  660SOL     OW 1978   2.142   4.759   5.952 -0.1896  0.0851  0.1184
  660SOL    HW1 1979   2.132   4.842   5.904  0.6630  0.5709  0.7532
  660SOL    HW2 1980   2.170   4.785   6.040  0.0420 -0.8753  0.3432
  661SOL     OW 1981   2.061   4.821   6.504 -0.3629 -0.3360 -0.1552
  661SOL    HW1 1982   2.148   4.860   6.502 -0.1445 -0.7350  0.9313
  661SOL    HW2 1983   2.003   4.890   6.473  0.3032  0.0129 -0.6505
  662SOL     OW 1984   1.500   3.428   4.839  0.1607  0.4476  0.7433
  662SOL    HW1 1985   1.412   3.392   4.848 -0.0996 -0.1370 -2.6244
  662SOL    HW2 1986   1.556   3.372   4.892 -1.0378 -1.5031  0.0376
  663SOL     OW 1987   1.241   2.624   8.866 -0.1897  0.2874  0.4512
  663SOL    HW1 1988   1.227   2.685   8.795 -0.9363  0.6099  0.8625
  663SOL    HW2 1989   1.335   2.627   8.883  0.2770 -1.0149 -1.5920
  664SOL     OW 1990   0.463   1.041   5.195  0.0576 -0.1069  0.0201
  664SOL    HW1 1991   0.498   0.963   5.238 -0.4065 -0.1605  0.3122
  664SOL    HW2 1992   0.478   1.111   5.258  0.7466  0.1032 -0.3676
  665SOL     OW 1993   1.370   2.069   6.248  0.2959  0.1779 -0.3190
  665SOL    HW1 1994   1.380   1.994   6.306  4.2872 -0.1643 -1.1247
  665SOL    HW2 1995   1.368   2.145   6.306 -1.1649 -0.3955  0.4075
  666SOL     OW 1996   1.332   4.217   6.243 -0.9940 -0.4559  0.1331
  666SOL    HW1 1997   1.362   4.282   6.307  1.3562 -0.2801 -1.0076
  666SOL    HW2 1998   1.367   4.134   6.275 -2.9960 -1.0310  0.9717
  667SOL     OW 1999   1.170   4.966   8.365 -0.1049 -0.2763  0.9334
  667SOL    HW1 2000   1.239   4.976   8.299  0.4555 -2.4828  1.1382
  667SOL    HW2 2001   1.148   4.873   8.364 -4.1414  0.5046 -0.1285
  668SOL     OW 2002   1.414   4.579   5.853 -0.4345  0.0059  0.8193
  668SOL    HW1 2003   1.331   4.618   5.883 -0.7918  1.4686 -1.7516
  668SOL    HW2 2004   1.387   4.509   5.793  0.1979 -4.5564  5.1414
  669SOL     OW 2005   3.937   2.614   7.566 -0.1405 -0.4806  0.8075
  669SOL    HW1 2006   4.007   2.550   7.551 -2.2933 -3.1396  1.3613
  669SOL    HW2 2007   3.941   2.632   7.659 -0.6606 -1.2712  0.9930
  670SOL     OW 2008   0.319   2.465   9.375 -0.1699  0.2246  0.0210
  670SOL    HW1 2009   0.240   2.479   9.428 -1.1314 -3.2822 -0.2610
  670SOL    HW2 2010   0.371   2.402   9.425  0.6304 -0.4120 -1.5304
  671SOL     OW 2011   3.218   0.276   5.345  0.2663 -0.0497 -0.3223
  671SOL    HW1 2012   3.253   0.230   5.422  0.5795  1.7890  0.6897
  671SOL    HW2 2013   3.133   0.234   5.329 -0.9532  1.0701  2.5608
  672SOL     OW 2014   1.386   4.307   7.737 -0.7404 -0.7979  0.1919
  672SOL    HW1 2015   1.377   4.276   7.827 -0.3481  0.6270  0.7458
  672SOL    HW2 2016   1.298   4.337   7.713 -0.6901 -0.5273  0.3481
  673SOL     OW 2017   3.892   2.335   6.964 -1.1429 -0.0538 -0.0710
  673SOL    HW1 2018   3.978   2.312   7.000 -1.6214 -3.0699 -0.6234
  673SOL    HW2 2019   3.910   2.360   6.873 -0.4962  3.0801  0.7999
  674SOL     OW 2020   2.182   1.153   6.315  0.8464 -0.6921 -0.2432
  674SOL    HW1 2021   2.266   1.155   6.362  0.5311  1.4723  0.3503
  674SOL    HW2 2022   2.147   1.241   6.326 -1.7292 -1.6539 -0.1385
  675SOL     OW 2023   4.092   3.917   9.390  0.2448 -0.4576 -0.1684
  675SOL    HW1 2024   4.031   3.874   9.450 -1.4152 -0.0321 -1.4572
  675SOL    HW2 2025   4.072   4.010   9.400  1.4061 -0.2255  0.1023
  676SOL     OW 2026   4.337   3.547   6.332  0.4185 -0.2103  0.4501
  676SOL    HW1 2027   4.282   3.591   6.268  1.4175  1.5788  0.7694
  676SOL    HW2 2028   4.305   3.456   6.333 -0.5054  0.0499 -1.5423
  677SOL     OW 2029   2.147   1.590   5.387 -0.5418  0.2145 -0.2937
  677SOL    HW1 2030   2.203   1.627   5.319 -0.5782 -2.1338 -1.7010
  677SOL    HW2 2031   2.143   1.496   5.367 -1.7679 -0.3282  2.0986
  678SOL     OW 2032   2.930   4.208   5.669  0.4903 -0.7703  0.0220
  678SOL    HW1 2033   2.871   4.283   5.658  1.3969 -0.1812 -1.0198
  678SOL    HW2 2034   2.915   4.179   5.759  0.3621  0.8848  0.5703
  679SOL     OW 2035   2.456   2.664   6.912 -0.1613  0.4167  0.1961
  679SOL    HW1 2036   2.426   2.602   6.846 -0.1303  0.2990  0.2923
  679SOL    HW2 2037   2.513   2.725   6.864 -0.0664  0.2780  0.1334
  680SOL     OW 2038   0.452   4.405   6.599  0.2484 -0.4712  0.2009
  680SOL    HW1 2039   0.371   4.431   6.642  0.7651  1.0055  0.3149
  680SOL    HW2 2040   0.505   4.485   6.595 -0.4120  0.0342 -4.7122
  681SOL     OW 2041   4.085   2.929   8.935  0.1006 -0.0285  0.0767
  681SOL    HW1 2042   4.059   2.975   9.014 -0.3457 -1.8581  1.0354
  681SOL    HW2 2043   4.107   2.840   8.964  2.1843 -0.1198 -1.4957
  682SOL     OW 2044   3.472   4.601   8.036  0.8472  0.4563  0.0768
  682SOL    HW1 2045   3.566   4.587   8.025  0.8287  1.5033 -1.8155
  682SOL    HW2 2046   3.452   4.562   8.121  2.7169 -1.0630 -0.1161
  683SOL     OW 2047   4.584   4.996   4.482  0.0967  0.0473 -1.0176
  683SOL    HW1 2048   4.540   4.924   4.436  0.7473 -0.9498 -0.1230
  683SOL    HW2 2049   4.651   4.953   4.535 -0.8921  1.1169  1.1952
  684SOL     OW 2050   0.524   2.253   6.809 -0.3799  0.2119 -0.1003
  684SOL    HW1 2051   0.532   2.301   6.891 -1.7658  0.9894 -0.3813
  684SOL    HW2 2052   0.613   2.248   6.775 -0.1573  2.4990  0.0079
  685SOL     OW 2053   3.664   1.878   7.118 -0.0443  0.1082 -0.1153
  685SOL    HW1 2054   3.674   1.928   7.199  1.3304 -2.4985  1.4426
  685SOL    HW2 2055   3.687   1.941   7.049 -0.7293  2.2612  1.4840
  686SOL     OW 2056   1.499   0.932   4.693 -0.6139 -0.2021  0.6182
  686SOL    HW1 2057   1.534   0.852   4.733  0.1552  0.2106  0.7756
  686SOL    HW2 2058   1.405   0.914   4.683 -0.1372 -1.9673 -1.3431
  687SOL     OW 2059   1.031   2.538   8.380  0.2937 -0.1792  0.1732
  687SOL    HW1 2060   1.115   2.507   8.414  1.7432  0.6314 -2.3579
  687SOL    HW2 2061   0.972   2.537   8.455  2.4245 -1.2370  1.9409
  688SOL     OW 2062   3.137   4.011   6.020 -0.6614 -0.2956  0.1697
  688SOL    HW1 2063   3.051   4.042   5.990 -0.4724 -0.4325 -0.5261
  688SOL    HW2 2064   3.124   3.989   6.112 -1.5222 -0.8682 -0.0834
  689SOL     OW 2065   4.497   2.258   5.237  0.1819 -0.7178  0.0758
  689SOL    HW1 2066   4.506   2.339   5.287  1.1453 -1.6400  1.4347
  689SOL    HW2 2067   4.420   2.215   5.274 -0.6937 -0.1950 -1.0442
  690SOL     OW 2068   1.286   2.706   8.446  0.2969 -0.4706  0.2211
  690SOL    HW1 2069   1.280   2.611   8.445 -0.0866 -0.4995 -2.0613
  690SOL    HW2 2070   1.317   2.729   8.358 -2.4850  1.5997 -0.3881
  691SOL     OW 2071   0.052   2.238   6.214  0.0593 -0.9996  0.4277
  691SOL    HW1 2072  -0.016   2.171   6.224 -0.6181 -0.2524  1.0592
  691SOL    HW2 2073   0.102   2.234   6.295  0.4601 -1.2014  0.1756
  692SOL     OW 2074   3.314   2.359   5.519  0.1408 -0.2302 -0.4793
  692SOL    HW1 2075   3.367   2.329   5.593  0.8111  1.0810 -0.4040
  692SOL    HW2 2076   3.319   2.454   5.523 -3.3420  0.0754  0.3590
  693SOL     OW 2077   2.298   4.766   7.475  0.2356  0.4133  0.0858
  693SOL    HW1 2078   2.270   4.768   7.383 -1.9984 -1.5384  0.6220
  693SOL    HW2 2079   2.365   4.698   7.479  0.5195  0.6758 -0.1108
  694SOL     OW 2080   2.042   4.918   5.394  0.0921  0.2534  0.5249
  694SOL    HW1 2081   2.029   4.842   5.338  3.0623 -1.1443  1.5489
  694SOL    HW2 2082   1.988   4.901   5.471 -4.6298  2.5309 -1.8057
  695SOL     OW 2083   1.706   2.180   5.821  0.7808 -0.2180 -0.6736
  695SOL    HW1 2084   1.766   2.183   5.896  0.0581 -0.0160 -0.0882
  695SOL    HW2 2085   1.748   2.235   5.755  0.1584  1.9151  0.5737
  696SOL     OW 2086   0.564   4.433   5.151  0.0140  0.1453  0.0275
  696SOL    HW1 2087   0.633   4.367   5.149  0.8993  0.8837  2.4684
  696SOL    HW2 2088   0.607   4.511   5.185 -1.5337  1.3009 -0.5569
  697SOL     OW 2089   3.518   3.450   5.043 -0.3877  0.1050  0.3778
  697SOL    HW1 2090   3.566   3.447   5.126 -0.6826  1.8834  0.6442
  697SOL    HW2 2091   3.528   3.362   5.007 -1.0405 -1.0213  2.7334
  698SOL     OW 2092   0.549   2.031   7.592  0.0339 -0.4958  0.0805
  698SOL    HW1 2093   0.529   1.983   7.512  0.7690  0.3921 -0.6588
  698SOL    HW2 2094   0.526   2.122   7.572 -2.3502 -0.6245  1.8043
  699SOL     OW 2095   1.265   1.293   5.318  0.0386 -0.6540 -0.0279
  699SOL    HW1 2096   1.327   1.347   5.268  0.2676 -1.2222 -0.3611
  699SOL    HW2 2097   1.295   1.203   5.304  1.6837 -0.7422  3.1464
  700SOL     OW 2098   0.876   3.662   8.445 -0.9174  1.1716 -0.5445
  700SOL    HW1 2099   0.793   3.662   8.397 -0.1130  0.7077 -1.9620
  700SOL    HW2 2100   0.900   3.755   8.451  0.3050  1.1410 -3.4729
  701SOL     OW 2101   3.266   3.540   7.493 -0.9746  0.7526  0.8772
  701SOL    HW1 2102   3.263   3.635   7.506 -1.0474  1.1688 -1.6805
  701SOL    HW2 2103   3.262   3.504   7.581  1.7014  3.1722  2.1698
  702SOL     OW 2104   0.421   4.243   5.698 -0.1353  0.1982 -0.0971
  702SOL    HW1 2105   0.390   4.152   5.702 -1.0721  0.4886 -0.3882
  702SOL    HW2 2106   0.473   4.247   5.618 -1.6131  0.3478 -1.0942
  703SOL     OW 2107   4.914   3.298   6.333  0.1436  0.5553 -0.1897
  703SOL    HW1 2108   4.964   3.222   6.305 -1.5637 -0.2140 -1.3222
  703SOL    HW2 2109   4.829   3.263   6.360 -0.5877  2.0086 -0.4741
  704SOL     OW 2110   0.527   1.410   6.501  0.6640  0.2125 -0.7104
  704SOL    HW1 2111   0.518   1.475   6.431  0.2733  2.6397  1.4300
  704SOL    HW2 2112   0.615   1.426   6.536  0.6784 -0.6691 -0.3350
  705SOL     OW 2113   2.552   1.155   7.492 -0.0282 -0.6648  0.7201
  705SOL    HW1 2114   2.518   1.243   7.510 -1.8530 -0.7469 -1.8803
  705SOL    HW2 2115   2.506   1.098   7.554 -1.9918 -0.2783 -0.3086
  706SOL     OW 2116   1.642   4.325   4.809  0.0617 -0.0304  0.3438
  706SOL    HW1 2117   1.644   4.384   4.884  0.7876  0.7566 -0.2635
  706SOL    HW2 2118   1.689   4.247   4.838 -1.4958 -0.6153  1.3833
  707SOL     OW 2119   2.920   3.629   5.139  0.0835 -0.5155 -0.3813
  707SOL    HW1 2120   2.905   3.564   5.070  2.2252 -1.5828  0.0639
  707SOL    HW2 2121   3.006   3.666   5.118  1.2630 -1.5744  2.1840
  708SOL     OW 2122   1.090   3.268   6.900  0.1182 -0.0093  0.0441
  708SOL    HW1 2123   1.183   3.252   6.882  1.4321  3.2325  2.7972
  708SOL    HW2 2124   1.083   3.264   6.996 -2.3683  0.8292 -0.0257
  709SOL     OW 2125   4.801   3.357   7.305 -0.1819 -0.4415  0.2324
  709SOL    HW1 2126   4.820   3.365   7.212  1.0656  1.8460  0.6118
  709SOL    HW2 2127   4.712   3.322   7.309 -0.1513 -0.8452 -1.7961
  710SOL     OW 2128   3.223   1.522   4.990  0.6617  0.1951 -0.2759
  710SOL    HW1 2129   3.185   1.531   4.902  1.3096 -2.3140 -0.8742
  710SOL    HW2 2130   3.310   1.487   4.975  1.0670  0.4296  1.3681
  711SOL     OW 2131   2.267   2.877   4.721  0.4077  0.0700  0.3724
  711SOL    HW1 2132   2.307   2.831   4.647  0.6566  2.0440 -0.7736
  711SOL    HW2 2133   2.287   2.821   4.796  0.7278 -1.6625 -0.9221
  712SOL     OW 2134   2.247   2.863   5.025 -0.3241 -0.9746 -0.6148
  712SOL    HW1 2135   2.236   2.770   5.008 -0.0057 -0.6370 -2.9405
  712SOL    HW2 2136   2.338   2.881   5.003 -0.6334  0.0538 -1.1265
  713SOL     OW 2137   2.308   3.112   5.167 -0.8706  0.2689  0.1842
  713SOL    HW1 2138   2.275   3.026   5.140 -0.2092 -0.3239  1.2097
  713SOL    HW2 2139   2.257   3.175   5.115 -3.7207 -0.5829  1.7495
  714SOL     OW 2140   1.381   3.476   6.940  0.2066  0.3326  0.1947
  714SOL    HW1 2141   1.443   3.545   6.966 -0.3816  1.2331 -0.7341
  714SOL    HW2 2142   1.375   3.420   7.017 -1.5605  2.9391  2.1208
  715SOL     OW 2143   1.451   2.953   5.183 -0.1751 -0.2747 -0.4291
  715SOL    HW1 2144   1.530   2.987   5.139 -0.1518 -1.6584 -1.5349
  715SOL    HW2 2145   1.378   2.986   5.129 -0.3306  0.4487  0.2083
  716SOL     OW 2146   3.451   4.800   6.420 -0.3799  0.4764  0.4091
  716SOL    HW1 2147   3.410   4.733   6.366  3.0386  0.0863 -2.0424
  716SOL    HW2 2148   3.465   4.874   6.360  2.0664  0.6898  1.1266
  717SOL     OW 2149   4.733   0.881   5.130  0.1765 -0.4975 -0.2024
  717SOL    HW1 2150   4.798   0.833   5.078  2.2202 -1.1286  2.6938
  717SOL    HW2 2151   4.659   0.894   5.070  1.1035 -3.7970 -2.3259
  718SOL     OW 2152   0.015   3.003   5.098 -0.5281 -0.2047  0.3443
  718SOL    HW1 2153   0.017   3.055   5.018  2.0665 -0.2447  0.3171
  718SOL    HW2 2154   0.042   2.915   5.071 -3.0748 -1.1769  0.7125
  719SOL     OW 2155   3.013   0.733   7.925 -0.4702 -0.4832 -0.0326
  719SOL    HW1 2156   3.050   0.704   7.842  0.3546 -1.1096  0.5405
  719SOL    HW2 2157   3.063   0.811   7.948 -0.1514 -0.7675  0.2577
  720SOL     OW 2158   0.987   0.461   5.065  0.0467  0.3528  0.2871
  720SOL    HW1 2159   1.023   0.376   5.088  0.4691  0.3669 -0.3086
  720SOL    HW2 2160   0.899   0.441   5.031  1.3873 -0.2798 -3.2204
  721SOL     OW 2161   0.513   4.777   6.397  0.4516  0.5756 -0.0198
  721SOL    HW1 2162   0.608   4.776   6.406  0.3834  1.2568  0.8891
  721SOL    HW2 2163   0.498   4.772   6.302  1.2600 -3.6367 -0.1051
  722SOL     OW 2164   3.806   1.143   7.708  0.6192  0.0739  0.1688
  722SOL    HW1 2165   3.885   1.108   7.668 -0.1262  0.4766 -1.7368
  722SOL    HW2 2166   3.756   1.181   7.636 -0.1233  2.1704  1.6576
  723SOL     OW 2167   2.711   3.113   8.226  0.8317 -0.4525 -0.0619
  723SOL    HW1 2168   2.691   3.197   8.184  1.1174 -0.7881 -0.8854
  723SOL    HW2 2169   2.663   3.116   8.308 -1.6760 -0.7367 -1.4232
  724SOL     OW 2170   0.361   0.250   5.567 -0.5582 -0.1704  0.4111
  724SOL    HW1 2171   0.399   0.208   5.490 -2.0285 -0.1738 -0.3409
  724SOL    HW2 2172   0.292   0.190   5.596 -1.1295  0.6082  0.7244
  725SOL     OW 2173   1.301   4.973   6.076 -0.4364 -0.1464  0.4741
  725SOL    HW1 2174   1.387   5.006   6.104 -0.2362 -0.2161 -0.0340
  725SOL    HW2 2175   1.283   4.899   6.134 -0.3078  0.0815  0.8035
  726SOL     OW 2176   1.018   1.097   7.446 -0.3295  0.1442 -0.1126
  726SOL    HW1 2177   0.942   1.128   7.397  1.1295  4.2739 -0.1245
  726SOL    HW2 2178   0.987   1.091   7.537 -0.9424  0.7279 -0.2745
  727SOL     OW 2179   2.046   3.773   6.728 -0.1855  0.0682 -0.4909
  727SOL    HW1 2180   1.967   3.786   6.677 -0.4655  2.3032  0.3609
  727SOL    HW2 2181   2.077   3.686   6.705 -2.9574 -0.9325 -0.7403
  728SOL     OW 2182   3.648   4.748   6.621  0.1846 -0.5953 -0.4673
  728SOL    HW1 2183   3.716   4.812   6.601  0.7808 -0.9018  0.5225
  728SOL    HW2 2184   3.572   4.777   6.570  1.4350 -1.0366 -2.7282
  729SOL     OW 2185   2.724   0.509   5.243 -0.1527 -0.2104 -0.1016
  729SOL    HW1 2186   2.797   0.570   5.238  0.6754 -1.1846 -0.0947
  729SOL    HW2 2187   2.707   0.500   5.336  2.3005 -2.9183  0.2305
  730SOL     OW 2188   0.928   1.312   5.700 -1.1980  0.0823 -0.3924
  730SOL    HW1 2189   0.911   1.402   5.728 -0.9380  0.1995 -0.6054
  730SOL    HW2 2190   0.914   1.314   5.605 -0.1270  0.1627 -0.5611
  731SOL     OW 2191   3.006   3.886   6.637  0.4290 -0.4354 -0.5743
  731SOL    HW1 2192   2.957   3.820   6.684  2.6828  0.4825  3.5221
  731SOL    HW2 2193   3.072   3.837   6.588  3.8724 -1.6431  4.4912
  732SOL     OW 2194   1.787   1.712   5.995 -0.6550  0.7199  0.1442
  732SOL    HW1 2195   1.801   1.660   5.915 -0.1261  1.4073 -0.2255
  732SOL    HW2 2196   1.694   1.732   5.995 -2.1931 -4.6639  3.0805
  733SOL     OW 2197   4.025   2.718   6.456  0.3230 -0.2865 -0.7049
  733SOL    HW1 2198   4.073   2.760   6.528 -1.5275  3.7603 -1.6043
  733SOL    HW2 2199   4.093   2.674   6.405  2.3653  1.0524  0.7078
  734SOL     OW 2200   2.025   0.942   5.232  0.3319 -0.2618  0.1471
  734SOL    HW1 2201   2.017   0.847   5.231 -2.5040 -0.1275  0.3815
  734SOL    HW2 2202   2.114   0.959   5.264  0.1762 -2.8474  2.3298
  735SOL     OW 2203   3.604   3.612   6.181 -0.2362  0.1337 -0.1172
  735SOL    HW1 2204   3.537   3.663   6.227  0.7411  3.0538 -1.6543
  735SOL    HW2 2205   3.558   3.570   6.109 -1.0694 -1.3175  1.1956
  736SOL     OW 2206   2.302   1.566   4.536  0.4197  0.4377 -0.1291
  736SOL    HW1 2207   2.317   1.497   4.471 -1.8435  1.3036 -1.7000
  736SOL    HW2 2208   2.212   1.552   4.564 -0.8631  3.8072 -1.9826
  737SOL     OW 2209   1.134   0.517   4.785 -0.2242 -0.9955 -0.4172
  737SOL    HW1 2210   1.114   0.502   4.877 -0.8325 -5.0456 -0.9979
  737SOL    HW2 2211   1.215   0.468   4.769  0.2809  0.2380 -1.9141
  738SOL     OW 2212   0.388   0.517   5.599  0.0997 -0.3775  0.2994
  738SOL    HW1 2213   0.360   0.428   5.619 -0.9778  0.1796  1.4439
  738SOL    HW2 2214   0.308   0.560   5.567  0.7662  0.0086 -0.9132
  739SOL     OW 2215   3.289   1.126   9.454  0.5959 -0.0202  0.3163
  739SOL    HW1 2216   3.365   1.183   9.445  3.0904 -3.1555 -0.1559
  739SOL    HW2 2217   3.325   1.038   9.466 -2.9734 -1.4781  2.0089
  740SOL     OW 2218   3.091   0.727   5.764 -0.1682  0.6190  0.4864
  740SOL    HW1 2219   3.169   0.688   5.726  0.7226  1.8385  0.9761
  740SOL    HW2 2220   3.110   0.821   5.767 -1.2282  0.8330  1.5723
  741SOL     OW 2221   4.241   1.281   5.583 -0.1248  0.7282 -0.3103
  741SOL    HW1 2222   4.247   1.335   5.662  0.3406  1.0561 -0.5701
  741SOL    HW2 2223   4.218   1.194   5.616  2.1014  0.3358  0.4048
  742SOL     OW 2224   1.200   2.568   6.310  0.1517  0.0878 -0.5635
  742SOL    HW1 2225   1.124   2.512   6.322  1.5296 -1.8816 -0.4319
  742SOL    HW2 2226   1.245   2.532   6.234  0.9852  1.1443 -0.5999
  743SOL     OW 2227   4.445   3.146   5.212 -0.7055 -0.2214 -0.0426
  743SOL    HW1 2228   4.518   3.204   5.234  2.4159 -2.9429 -2.2373
  743SOL    HW2 2229   4.440   3.149   5.116 -2.2182 -1.5476 -0.0472
  744SOL     OW 2230   0.359   0.292   9.937 -0.1009  0.0685 -0.1911
  744SOL    HW1 2231   0.305   0.337   9.871 -0.4210  3.0372  1.9236
  744SOL    HW2 2232   0.296   0.238   9.985 -0.3245 -0.0829 -0.6370
  745SOL     OW 2233   2.673   2.991   7.758  0.2812 -0.1307 -0.4157
  745SOL    HW1 2234   2.713   2.938   7.826  1.7586  2.7728  1.1801
  745SOL    HW2 2235   2.608   3.045   7.804 -0.7686 -0.1010 -1.8473
  746SOL     OW 2236   3.955   0.242   5.926 -0.5717  0.4789  0.3297
  746SOL    HW1 2237   3.901   0.167   5.902  0.9512 -0.2897 -0.8839
  746SOL    HW2 2238   3.941   0.306   5.856 -0.3822  0.5408  0.3477
  747SOL     OW 2239  -0.033   0.760   4.976  0.1939  0.6768  0.5360
  747SOL    HW1 2240   0.053   0.722   4.993 -0.0002  0.4795  1.1281
  747SOL    HW2 2241  -0.015   0.846   4.938  0.6402  0.2801 -0.1585
  748SOL     OW 2242   1.801   3.021   5.451  0.2882 -0.6689 -0.4696
  748SOL    HW1 2243   1.811   3.114   5.431  1.9270  0.0842  3.1881
  748SOL    HW2 2244   1.722   3.017   5.505  1.1703 -1.1163  0.8039
  749SOL     OW 2245   0.807   2.246   6.688  0.0013  0.3252 -0.4089
  749SOL    HW1 2246   0.757   2.253   6.606 -0.1149  1.6398 -0.2432
  749SOL    HW2 2247   0.813   2.336   6.720  3.3878  0.4388 -0.9707
  750SOL     OW 2248   2.908   3.706   5.656  0.2272 -0.1182  0.4086
  750SOL    HW1 2249   2.867   3.647   5.593 -0.3090  1.5417 -0.8866
  750SOL    HW2 2250   2.862   3.689   5.738  0.4266 -1.8058  0.2171
  751SOL     OW 2251   4.262   0.563   7.621 -0.2352 -0.0760 -0.2246
  751SOL    HW1 2252   4.178   0.610   7.621  0.1684  0.6688 -0.9097
  751SOL    HW2 2253   4.327   0.633   7.614  0.5315 -0.5155  1.7562
  752SOL     OW 2254   4.531   1.307   8.001 -0.2421 -0.0896  0.6187
  752SOL    HW1 2255   4.450   1.258   8.016  0.2689 -0.9779  0.5388
  752SOL    HW2 2256   4.535   1.320   7.907 -1.0487  1.3149  0.7423
  753SOL     OW 2257   2.282   4.147   7.933 -0.1680  0.2972 -0.0786
  753SOL    HW1 2258   2.315   4.104   8.013  0.6934 -1.0302 -1.1004
  753SOL    HW2 2259   2.342   4.118   7.864 -1.5020  0.5637 -1.4034
  754SOL     OW 2260   0.823   3.059   7.656 -0.2053  0.4031  0.0659
  754SOL    HW1 2261   0.793   3.070   7.746 -0.4957  0.6612 -0.0595
  754SOL    HW2 2262   0.761   2.996   7.618 -0.3902  0.6784 -0.0954
  755SOL     OW 2263   0.235   4.319   8.937  0.1746  0.7887 -0.4669
  755SOL    HW1 2264   0.251   4.341   8.845  0.1961 -0.6997 -0.8457
  755SOL    HW2 2265   0.165   4.378   8.964 -1.6304 -0.4381 -2.2080
  756SOL     OW 2266   4.591   3.535   4.444 -0.2872  0.4407  0.6534
  756SOL    HW1 2267   4.580   3.626   4.472  0.6377  0.1300  2.0925
  756SOL    HW2 2268   4.501   3.504   4.428 -0.7081  1.1898  1.4922
  757SOL     OW 2269   5.014   3.533   6.254 -0.9064 -0.3289 -0.6221
  757SOL    HW1 2270   4.966   3.455   6.282 -1.2734  0.3136  0.5981
  757SOL    HW2 2271   5.018   3.525   6.158 -1.3919 -1.5710 -0.5601
  758SOL     OW 2272   2.497   3.858   5.238 -0.0160 -0.0971 -0.2221
  758SOL    HW1 2273   2.410   3.818   5.235  0.2172 -0.5400 -1.9952
  758SOL    HW2 2274   2.556   3.784   5.251  0.1197  0.2194  1.1338
  759SOL     OW 2275   0.593   4.232   7.339 -0.4242 -0.1889 -0.1653
  759SOL    HW1 2276   0.505   4.265   7.323  0.7282  2.5610 -1.4048
  759SOL    HW2 2277   0.647   4.310   7.350  1.9173 -1.7714  0.3661
  760SOL     OW 2278   4.041   1.458   5.069 -0.0659  0.6456 -0.2759
  760SOL    HW1 2279   4.016   1.432   5.158 -1.4101 -3.2997 -1.5926
  760SOL    HW2 2280   4.033   1.553   5.068 -2.3867  0.6347  3.1454
  761SOL     OW 2281   2.195   3.944   5.689 -0.0331  0.1580 -0.3705
  761SOL    HW1 2282   2.247   3.975   5.615  2.6975 -0.5676  1.1024
  761SOL    HW2 2283   2.164   4.023   5.732 -2.9846  0.6127 -2.9967
  762SOL     OW 2284   1.730   1.821   6.669 -0.3458  0.1357 -0.3886
  762SOL    HW1 2285   1.759   1.900   6.715 -0.9752 -0.4205  1.0079
  762SOL    HW2 2286   1.648   1.847   6.627 -0.3427  0.3260 -0.2798
  763SOL     OW 2287   3.380   3.625   4.694 -0.0811 -0.4918 -0.0945
  763SOL    HW1 2288   3.369   3.665   4.780  0.4964  2.1116 -1.1479
  763SOL    HW2 2289   3.295   3.634   4.652  0.2057  0.1762 -0.5437
  764SOL     OW 2290   4.636   1.270  10.220 -0.6906 -0.1373  0.6924
  764SOL    HW1 2291   4.731   1.272  10.210 -0.8293 -0.7655 -1.2120
  764SOL    HW2 2292   4.617   1.342  10.280  0.8223  1.4693 -0.6287
  765SOL     OW 2293   2.182   4.182   6.643  0.3379 -0.1690 -0.2116
  765SOL    HW1 2294   2.214   4.250   6.583 -0.7454 -0.3701 -1.0519
  765SOL    HW2 2295   2.158   4.230   6.722  2.4079  0.0171  0.3601
  766SOL     OW 2296   3.066   4.728   7.758 -0.3002 -0.3256  0.4942
  766SOL    HW1 2297   3.134   4.695   7.699 -0.6791 -2.1107  0.9987
  766SOL    HW2 2298   3.077   4.823   7.756  2.0048 -0.5379  0.3141
  767SOL     OW 2299   3.696   1.202   5.832  0.4162  0.1452 -0.0561
  767SOL    HW1 2300   3.609   1.240   5.845  0.3136  0.2218 -0.8727
  767SOL    HW2 2301   3.725   1.238   5.748  0.7099 -0.8544 -0.3947
  768SOL     OW 2302   2.473   3.777   5.545  1.0696  0.8028 -0.3509
  768SOL    HW1 2303   2.521   3.786   5.462 -2.2668 -1.1391 -2.7435
  768SOL    HW2 2304   2.420   3.857   5.550 -0.1897  0.0419 -1.1946
  769SOL     OW 2305   2.043   4.565   5.356  0.3798  0.6050 -0.0502
  769SOL    HW1 2306   2.062   4.484   5.403  1.3180  0.1564 -1.1631
  769SOL    HW2 2307   2.035   4.631   5.425 -2.9717 -0.8170  1.1503
  770SOL     OW 2308   1.475   1.532   9.123  0.0931  0.7359 -0.2434
  770SOL    HW1 2309   1.417   1.482   9.181  1.3925 -1.1867 -0.4851
  770SOL    HW2 2310   1.425   1.543   9.042 -0.8029  1.2327  0.3688
  771SOL     OW 2311   0.907   1.625   9.304 -0.5565 -0.6397  0.3415
  771SOL    HW1 2312   0.843   1.688   9.337 -1.5635 -1.6374  0.3304
  771SOL    HW2 2313   0.965   1.678   9.249 -1.4979  0.2493  0.1619
  772SOL     OW 2314   1.374   3.585   5.642 -0.3810 -0.0552 -0.3130
  772SOL    HW1 2315   1.432   3.603   5.567  1.5558  0.4310  1.2118
  772SOL    HW2 2316   1.434   3.566   5.714 -2.1716 -0.1853  1.2157
  773SOL     OW 2317   1.797   1.610   8.401  0.1565  0.4052  0.0592
  773SOL    HW1 2318   1.869   1.672   8.386  0.0469  0.1168 -1.9601
  773SOL    HW2 2319   1.794   1.558   8.321  0.2748 -2.2827  1.6969
  774SOL     OW 2320   3.211   4.985   6.852 -0.5567  0.0716 -0.3666
  774SOL    HW1 2321   3.297   4.947   6.839 -1.1230 -1.3180 -0.2151
  774SOL    HW2 2322   3.210   5.010   6.945  1.2659  4.3644 -1.2194
  775SOL     OW 2323   1.265   0.826   5.298  0.4572 -0.1024  0.4110
  775SOL    HW1 2324   1.185   0.784   5.331 -0.1553  1.3425  0.8520
  775SOL    HW2 2325   1.328   0.816   5.370  0.5651 -0.8859  0.2218
  776SOL     OW 2326   2.009   3.998   5.312 -0.7498 -0.0072  0.3674
  776SOL    HW1 2327   2.057   3.978   5.232 -0.0450  1.5927  0.3485
  776SOL    HW2 2328   1.929   4.041   5.282 -0.3599  0.8372  0.5074
  777SOL     OW 2329   1.817   0.890   7.475  0.1667  0.1342  0.0533
  777SOL    HW1 2330   1.824   0.911   7.568  0.0102  1.2650 -0.1740
  777SOL    HW2 2331   1.854   0.802   7.467  0.2976  0.0744  1.1574
  778SOL     OW 2332   0.614   0.701   6.272 -0.4391  0.3207 -0.2193
  778SOL    HW1 2333   0.707   0.681   6.273 -0.4093  0.4488 -0.3649
  778SOL    HW2 2334   0.600   0.748   6.189 -0.8088 -0.5276 -0.6605
  779SOL     OW 2335   4.812   1.285   8.031 -0.8139  0.0815  0.8338
  779SOL    HW1 2336   4.719   1.288   8.057 -1.2961  2.4849 -0.8569
  779SOL    HW2 2337   4.810   1.288   7.936  1.0226 -0.3357  0.7614
  780SOL     OW 2338   1.566   3.158   5.409 -0.2131 -0.1076  0.3102
  780SOL    HW1 2339   1.575   3.109   5.491 -2.0295 -1.6445 -0.3376
  780SOL    HW2 2340   1.522   3.097   5.350 -0.3219  1.4998 -1.3288
  781SOL     OW 2341   2.740   1.957   6.402 -0.7589  0.6913  0.0822
  781SOL    HW1 2342   2.742   1.942   6.496  0.2258 -2.9470 -0.3585
  781SOL    HW2 2343   2.812   2.018   6.385  0.9695 -0.8350  1.4742
  782SOL     OW 2344   2.101   3.070   5.555  0.0384  0.0143 -0.8770
  782SOL    HW1 2345   2.027   3.069   5.616  1.4317 -0.2618  0.8838
  782SOL    HW2 2346   2.176   3.099   5.608  1.4102 -0.6652 -2.3480
  783SOL     OW 2347   3.595   2.487   4.810  1.0718  0.3654 -0.0779
  783SOL    HW1 2348   3.674   2.527   4.847  0.1804  1.1853  1.0147
  783SOL    HW2 2349   3.619   2.396   4.794  1.7760  0.2054  1.7167
  784SOL     OW 2350   1.506   1.433   4.766 -0.3529  0.2761  0.5279
  784SOL    HW1 2351   1.568   1.376   4.811 -0.5153 -0.1430  0.2317
  784SOL    HW2 2352   1.427   1.379   4.756  0.5819 -0.7184 -2.8404
  785SOL     OW 2353   3.603   2.734   6.858 -0.2637 -0.2607 -0.0729
  785SOL    HW1 2354   3.687   2.694   6.881  1.1476  2.2794 -0.3897
  785SOL    HW2 2355   3.614   2.826   6.880 -2.5322  0.3803 -1.3216
  786SOL     OW 2356   0.565   4.210   9.676 -0.2596 -0.8683  1.0481
  786SOL    HW1 2357   0.473   4.190   9.657 -0.3771 -0.5235  1.2467
  786SOL    HW2 2358   0.598   4.252   9.596  0.3730 -3.0447  0.0948
  787SOL     OW 2359   0.465   0.743   7.137 -0.2936 -0.7228 -0.6462
  787SOL    HW1 2360   0.468   0.743   7.233  0.4430 -3.3364 -0.5982
  787SOL    HW2 2361   0.556   0.731   7.110 -0.7170 -2.1740 -1.5738
  788SOL     OW 2362   0.325   3.133   6.916  0.4915 -0.1449 -0.3873
  788SOL    HW1 2363   0.339   3.053   6.967  1.4909 -0.2944 -0.8709
  788SOL    HW2 2364   0.336   3.204   6.978  1.5177 -0.3283 -0.3462
  789SOL     OW 2365   4.193   0.202   7.905 -0.0046 -0.3648  0.2261
  789SOL    HW1 2366   4.214   0.154   7.825  0.8169 -1.9211  1.3127
  789SOL    HW2 2367   4.161   0.135   7.966 -0.1607  0.6941  1.3526
  790SOL     OW 2368   4.533   3.942   6.381 -0.4577 -0.0058 -0.3062
  790SOL    HW1 2369   4.579   3.899   6.454  0.8246 -1.1708 -1.7285
  790SOL    HW2 2370   4.447   3.901   6.379 -0.6038  0.2303  0.7095
  791SOL     OW 2371   1.538   0.658   6.027 -0.4043  0.1855  0.0512
  791SOL    HW1 2372   1.574   0.617   6.105 -0.3892  0.6600  0.2975
  791SOL    HW2 2373   1.455   0.613   6.013  0.6095 -1.4793 -0.9853
  792SOL     OW 2374   1.640   2.295   8.208 -0.3054  0.2155 -0.0354
  792SOL    HW1 2375   1.731   2.312   8.186  0.3330  1.1917  2.9416
  792SOL    HW2 2376   1.592   2.369   8.171  0.0201 -0.3919 -1.7686
  793SOL     OW 2377   0.375   3.175   7.685 -0.0308  0.1896  0.7428
  793SOL    HW1 2378   0.333   3.200   7.603  1.2149  0.6085  0.2064
  793SOL    HW2 2379   0.461   3.144   7.660 -0.7865 -2.9166  1.5905
  794SOL     OW 2380   1.151   2.837  10.214 -0.0080 -0.4591  0.1439
  794SOL    HW1 2381   1.091   2.896  10.169 -0.2693 -2.4238 -2.3351
  794SOL    HW2 2382   1.239   2.870  10.193 -0.1418  0.7709  1.3932
  795SOL     OW 2383   0.625   4.595   6.710 -0.3463 -0.2620 -0.2231
  795SOL    HW1 2384   0.594   4.656   6.777  1.2833 -0.5620  0.8698
  795SOL    HW2 2385   0.715   4.623   6.691 -0.9941  0.3005 -2.9301
  796SOL     OW 2386   3.448   0.828   7.276 -0.0285 -0.2757 -0.1805
  796SOL    HW1 2387   3.502   0.822   7.355  0.5686 -4.4564 -0.6903
  796SOL    HW2 2388   3.498   0.885   7.217  1.7521 -0.6451  0.8914
  797SOL     OW 2389   4.317   0.931   8.415 -0.6859  0.2338 -0.1576
  797SOL    HW1 2390   4.307   0.877   8.336 -2.1836 -0.6547  0.5820
  797SOL    HW2 2391   4.406   0.912   8.445  0.2853  1.3722 -2.1489
  798SOL     OW 2392   3.538   2.158   7.633 -0.1104 -0.2196 -0.5316
  798SOL    HW1 2393   3.459   2.158   7.578 -0.1055  0.6325 -0.5592
  798SOL    HW2 2394   3.580   2.074   7.615 -1.3551 -0.9802 -0.0076
  799SOL     OW 2395   4.548   1.427   7.022 -0.3715  0.7511 -0.1050
  799SOL    HW1 2396   4.583   1.396   7.105 -0.7280 -0.9561 -0.5603
  799SOL    HW2 2397   4.622   1.467   6.977  0.3031 -0.1800  0.1670
  800SOL     OW 2398   0.780   1.622   6.768 -0.3747 -0.2516 -0.0897
  800SOL    HW1 2399   0.771   1.584   6.856  0.5917  1.4103  0.7750
  800SOL    HW2 2400   0.808   1.712   6.784 -2.7804  0.9654 -2.0176
  801SOL     OW 2401   3.794   2.011   8.016  0.3866 -0.0784 -0.1873
  801SOL    HW1 2402   3.787   2.068   7.940 -0.3022 -0.5514 -0.4873
  801SOL    HW2 2403   3.850   1.939   7.987 -0.4530 -0.6241 -0.4831
  802SOL     OW 2404   3.760   0.433   7.344  0.4258  0.4922  0.2767
  802SOL    HW1 2405   3.764   0.339   7.362  1.3837 -0.0486 -2.2437
  802SOL    HW2 2406   3.774   0.475   7.428 -0.5674 -1.6026  1.5674
  803SOL     OW 2407   3.685   3.947   9.393  0.2977  0.0780 -0.6561
  803SOL    HW1 2408   3.705   3.993   9.312  0.4499 -0.8701 -1.1721
  803SOL    HW2 2409   3.770   3.938   9.437  0.1863  0.7677 -0.2855
  804SOL     OW 2410   1.848   2.479   9.511  0.3273 -0.1057 -0.2564
  804SOL    HW1 2411   1.910   2.408   9.525 -0.8014 -0.8077  1.5625
  804SOL    HW2 2412   1.888   2.534   9.444  3.3924  0.0551  1.5608
  805SOL     OW 2413   0.279   1.464   6.951 -0.1054 -0.1659  0.5267
  805SOL    HW1 2414   0.243   1.417   6.877  0.9292  0.3496 -0.3231
  805SOL    HW2 2415   0.349   1.408   6.985  0.4791  0.3047  0.1164
  806SOL     OW 2416   4.465   2.535   7.421 -0.0625 -0.4198 -0.5216
  806SOL    HW1 2417   4.440   2.473   7.489 -2.7467  0.7474 -0.3181
  806SOL    HW2 2418   4.518   2.484   7.359  0.0143 -2.2009  0.9563
  807SOL     OW 2419   0.904   1.051  10.082  0.0802 -0.1097  0.0609
  807SOL    HW1 2420   0.858   1.059   9.999  1.2938  1.1580 -0.5213
  807SOL    HW2 2421   0.949   0.967  10.077 -1.1668 -0.8115  0.1578
  808SOL     OW 2422   1.700   4.556   5.964 -0.2523  0.4188 -0.5999
  808SOL    HW1 2423   1.618   4.508   5.958  1.1299 -2.3949  1.1398
  808SOL    HW2 2424   1.757   4.500   6.017  2.7797  2.2832 -1.6536
  809SOL     OW 2425   1.578   1.600   8.604 -0.2064 -0.3479 -0.1404
  809SOL    HW1 2426   1.665   1.637   8.586  0.5364 -1.4259  1.0676
  809SOL    HW2 2427   1.543   1.579   8.518 -1.1236  3.9606 -1.0487
  810SOL     OW 2428   4.055   0.430   5.231  0.0614  0.0933  0.0300
  810SOL    HW1 2429   4.076   0.506   5.285  0.7085  0.5577 -0.8378
  810SOL    HW2 2430   4.137   0.381   5.226  0.2120  0.4243 -1.0764
  811SOL     OW 2431   1.933   2.189   7.051 -0.2464 -0.1222  0.3133
  811SOL    HW1 2432   1.956   2.266   7.000  0.9159  0.5174  1.7466
  811SOL    HW2 2433   2.005   2.127   7.034  1.2544  0.8552  2.6694
  812SOL     OW 2434   3.177   2.317   9.097 -0.0520 -0.5477  0.3383
  812SOL    HW1 2435   3.243   2.249   9.113  0.4276  0.0801  1.0595
  812SOL    HW2 2436   3.148   2.344   9.185 -1.0723 -0.6155  0.0396
  813SOL     OW 2437   4.537   4.469   8.624 -0.2361  0.2637 -0.6077
  813SOL    HW1 2438   4.521   4.559   8.597  2.6552  1.2463  0.5308
  813SOL    HW2 2439   4.603   4.437   8.562  0.4325 -0.2522  0.3510
  814SOL     OW 2440   1.506   3.753   7.960  0.8068 -0.4280 -0.0962
  814SOL    HW1 2441   1.527   3.668   7.923 -0.1184  0.8176 -3.9882
  814SOL    HW2 2442   1.448   3.794   7.895  2.3065  3.6937  0.8255
  815SOL     OW 2443   0.299   0.096   6.710 -0.4364  0.8290  0.2026
  815SOL    HW1 2444   0.266   0.141   6.788 -0.1827 -1.6735  1.8677
  815SOL    HW2 2445   0.234   0.029   6.691 -0.5777  1.4654 -1.9162
  816SOL     OW 2446   1.553   1.343   7.983  0.2762 -0.0020  0.0241
  816SOL    HW1 2447   1.606   1.412   7.941  0.0600  0.9357  1.2379
  816SOL    HW2 2448   1.475   1.337   7.928  1.2626 -0.8697 -1.3580
  817SOL     OW 2449   2.906   0.102   6.340 -0.0490 -0.2875 -0.2886
  817SOL    HW1 2450   2.964   0.026   6.340  1.1243  0.5683 -0.8472
  817SOL    HW2 2451   2.945   0.163   6.402 -1.1921 -0.2764  0.4496
  818SOL     OW 2452   2.951   4.400   6.899  0.2327  0.0038 -0.0710
  818SOL    HW1 2453   2.914   4.483   6.927  1.3173  0.4496  0.0882
  818SOL    HW2 2454   3.046   4.410   6.911  0.2697 -1.9996  1.9966
  819SOL     OW 2455   2.134   2.195   8.883  0.0764 -0.5117 -0.2688
  819SOL    HW1 2456   2.173   2.107   8.880  0.6010 -0.3708  1.3329
  819SOL    HW2 2457   2.041   2.181   8.866  0.4274 -1.1276 -1.8974
  820SOL     OW 2458   2.313   2.837   8.813  0.6782  0.9298 -0.5404
  820SOL    HW1 2459   2.300   2.783   8.735  2.8119 -1.5291  0.6763
  820SOL    HW2 2460   2.317   2.926   8.780 -3.6828  0.6528 -2.6025
  821SOL     OW 2461   2.623   0.170   8.856 -0.0446 -0.8567 -0.4676
  821SOL    HW1 2462   2.703   0.126   8.884  0.7147  0.7939  0.0894
  821SOL    HW2 2463   2.596   0.122   8.778  1.0432 -1.9346 -0.2191
  822SOL     OW 2464   2.996   3.609   7.304 -0.5869  0.4845 -0.0132
  822SOL    HW1 2465   2.962   3.698   7.295  0.1763  0.8680  0.8018
  822SOL    HW2 2466   3.058   3.600   7.232  0.2759  1.0647  0.6471
  823SOL     OW 2467   3.794   0.465   6.830 -0.3066  0.2816  0.0787
  823SOL    HW1 2468   3.840   0.527   6.886  2.1141 -0.9089 -0.4157
  823SOL    HW2 2469   3.772   0.392   6.887  1.1924 -0.4522 -0.2111
  824SOL     OW 2470   0.823   4.127   6.991  0.5437 -0.1176  0.8979
  824SOL    HW1 2471   0.913   4.104   7.014  0.6178  1.3457  2.2436
  824SOL    HW2 2472   0.830   4.212   6.949 -0.2966  0.5507  2.0538
  825SOL     OW 2473   1.249   1.353   7.931  0.4896  0.4124 -0.2203
  825SOL    HW1 2474   1.199   1.312   8.001  0.9693  1.3774  0.7208
  825SOL    HW2 2475   1.231   1.447   7.941  1.3469  0.6479 -0.7738
  826SOL     OW 2476   0.189   1.282   6.763  0.0758 -0.1433 -0.7590
  826SOL    HW1 2477   0.102   1.248   6.743  0.4132 -0.0229 -2.6515
  826SOL    HW2 2478   0.246   1.205   6.758  0.6254  0.3278 -3.6259
  827SOL     OW 2479   2.589   1.464   7.574 -0.3539  0.2393 -0.2469
  827SOL    HW1 2480   2.522   1.478   7.641 -0.4893  1.8980 -0.7018
  827SOL    HW2 2481   2.671   1.457   7.624 -0.3268  2.3953  0.0905
  828SOL     OW 2482   1.303   3.031   7.960 -0.1500  0.5962 -0.1355
  828SOL    HW1 2483   1.230   3.092   7.967  1.0223  1.9407  0.9887
  828SOL    HW2 2484   1.334   3.020   8.050  0.8260 -0.2285 -0.5491
  829SOL     OW 2485   2.961   1.139   5.320  0.7178 -0.0468 -0.1047
  829SOL    HW1 2486   2.957   1.075   5.249  0.0102 -0.8705  0.6595
  829SOL    HW2 2487   2.941   1.223   5.278 -7.1577 -1.1618 -0.0079
  830SOL     OW 2488   2.403   2.137   8.676 -0.7908  0.1856 -0.0445
  830SOL    HW1 2489   2.318   2.112   8.640 -1.6576  0.9412  1.3619
  830SOL    HW2 2490   2.390   2.136   8.771  1.9289 -3.7474  0.5432
  831SOL     OW 2491   2.977   2.913   7.434 -0.2333 -0.5938 -0.0372
  831SOL    HW1 2492   2.933   2.859   7.368 -0.3809 -1.0436  0.4220
  831SOL    HW2 2493   2.995   2.853   7.507 -1.4446  0.2230  0.9747
  832SOL     OW 2494   3.492   0.540   8.611 -0.5482  0.1599  0.7407
  832SOL    HW1 2495   3.473   0.627   8.647 -2.5551 -0.5105  1.4418
  832SOL    HW2 2496   3.542   0.496   8.679  0.0252  0.5785  0.5975
  833SOL     OW 2497   0.817   0.670   7.662  0.3832  0.1451  0.2048
  833SOL    HW1 2498   0.813   0.690   7.568  0.9336 -3.2403 -0.6535
  833SOL    HW2 2499   0.895   0.717   7.693  0.1339  1.3907 -0.9422
  834SOL     OW 2500   2.887   4.314   8.838 -0.3401 -0.1221 -0.4407
  834SOL    HW1 2501   2.923   4.225   8.838  1.5137  0.5899 -0.1993
  834SOL    HW2 2502   2.838   4.320   8.920 -0.6249 -0.9641 -0.5358
  835SOL     OW 2503   0.117   2.365  10.319 -1.0923  0.2997  0.9428
  835SOL    HW1 2504   0.204   2.335  10.345 -1.1777  0.7020  1.7321
  835SOL    HW2 2505   0.102   2.325  10.233  0.1277  0.7312  0.5127
  836SOL     OW 2506   0.692  -0.020   5.076  0.0606 -0.1760  0.1585
  836SOL    HW1 2507   0.679   0.063   5.122  0.4769  0.9525 -1.6330
  836SOL    HW2 2508   0.778  -0.011   5.035 -0.1466 -1.2402 -0.5452
  837SOL     OW 2509   1.039   0.152   6.050 -0.5064  0.2301 -0.1813
  837SOL    HW1 2510   1.128   0.116   6.049  0.3829  2.1978  0.9796
  837SOL    HW2 2511   1.000   0.122   5.969  1.4362 -0.2025 -1.0186
  838SOL     OW 2512   4.547   3.998   5.418 -0.7880  0.6087  0.0973
  838SOL    HW1 2513   4.462   3.958   5.404 -1.1204  1.0951  0.6848
  838SOL    HW2 2514   4.541   4.038   5.505 -0.1243  1.0517 -0.0495
  839SOL     OW 2515   1.275   4.283  10.029  0.1299  0.1227  0.7007
  839SOL    HW1 2516   1.353   4.326   9.993 -2.6105  2.7523 -2.9082
  839SOL    HW2 2517   1.304   4.195  10.053  3.8356  0.4213 -1.8974
  840SOL     OW 2518   4.699   0.656   8.284  0.8205 -0.3734  0.7480
  840SOL    HW1 2519   4.730   0.616   8.365  3.8670 -0.2668 -0.2495
  840SOL    HW2 2520   4.755   0.732   8.272 -0.1634  0.1229 -1.0144
  841SOL     OW 2521   1.265   0.823   8.868  0.4002  0.3688 -0.0345
  841SOL    HW1 2522   1.340   0.869   8.905  0.2476 -0.9038  2.0042
  841SOL    HW2 2523   1.292   0.731   8.865 -0.1950  0.2066 -1.6835
  842SOL     OW 2524   2.398   2.534   9.116 -0.2058 -0.5714  0.6198
  842SOL    HW1 2525   2.320   2.496   9.077  0.2456  0.6536 -1.6603
  842SOL    HW2 2526   2.466   2.524   9.049  1.2031 -0.2428  1.9386
  843SOL     OW 2527   2.337   1.225   6.730 -0.0951 -0.0901  0.8799
  843SOL    HW1 2528   2.260   1.178   6.762  0.7414 -0.3944  2.5814
  843SOL    HW2 2529   2.327   1.314   6.764  0.0809 -0.0108  0.7267
  844SOL     OW 2530   4.720   0.356   6.989 -0.5371  0.0485 -0.2804
  844SOL    HW1 2531   4.745   0.428   7.047 -0.3478 -1.4914  1.6509
  844SOL    HW2 2532   4.769   0.280   7.022 -0.4122 -0.9028 -2.4938
  845SOL     OW 2533   0.924   4.494   6.300  0.2584  0.3388  1.0198
  845SOL    HW1 2534   0.923   4.400   6.281  1.3553 -0.1057  2.8752
  845SOL    HW2 2535   0.834   4.522   6.285 -0.1692 -1.0911  0.7572
  846SOL     OW 2536   1.072   1.584   6.820  0.0439  0.5663 -0.4803
  846SOL    HW1 2537   1.062   1.633   6.739  0.1587  1.0451 -0.2093
  846SOL    HW2 2538   1.050   1.494   6.797  2.3574  0.2160 -1.6140
  847SOL     OW 2539   4.442   1.890   8.847  0.0480  0.2353  0.2757
  847SOL    HW1 2540   4.503   1.902   8.774  0.4260  3.0351  0.9288
  847SOL    HW2 2541   4.356   1.902   8.808  0.0268 -1.2380 -0.1954
  848SOL     OW 2542   3.856   0.323  10.235 -0.0660  0.3797  0.0074
  848SOL    HW1 2543   3.925   0.382  10.206 -0.3644  0.7394  0.0328
  848SOL    HW2 2544   3.896   0.236  10.232  0.6960  0.6791  0.9298
  849SOL     OW 2545   4.725   0.761   9.870 -0.0756  0.4508  0.2321
  849SOL    HW1 2546   4.757   0.672   9.855 -0.3706  0.3514  0.1841
  849SOL    HW2 2547   4.779   0.794   9.942  1.4995  1.0088 -1.1258
  850SOL     OW 2548   2.163   2.048   8.620  0.0703  0.2333 -0.7057
  850SOL    HW1 2549   2.095   2.036   8.553 -0.3641 -0.5013 -0.1408
  850SOL    HW2 2550   2.152   1.974   8.679  1.9481 -0.3924 -1.0937
  851SOL     OW 2551   4.888   4.445   5.913 -0.0279 -0.2366 -1.1748
  851SOL    HW1 2552   4.958   4.390   5.879 -0.1112 -1.8613  1.0496
  851SOL    HW2 2553   4.836   4.469   5.836  2.1526 -0.1081 -2.6830
  852SOL     OW 2554   2.174   3.872   7.362  0.1512 -0.0903 -0.6755
  852SOL    HW1 2555   2.250   3.929   7.365  1.1870 -1.4840  0.6329
  852SOL    HW2 2556   2.206   3.791   7.321 -0.8805 -0.3365 -1.0359
  853SOL     OW 2557   2.175   0.722   5.871 -0.6394 -0.1032 -0.0690
  853SOL    HW1 2558   2.165   0.732   5.777 -2.2722 -1.8502 -0.1448
  853SOL    HW2 2559   2.105   0.662   5.897  0.6746 -0.8737  2.0219
  854SOL     OW 2560   2.197   3.296   7.473 -0.0848  0.1664  0.1946
  854SOL    HW1 2561   2.175   3.205   7.496 -1.9710  0.7999  1.1652
  854SOL    HW2 2562   2.254   3.289   7.397  1.2244 -1.8790  1.2804
  855SOL     OW 2563   1.933   4.957   8.981 -0.4885  0.5763 -0.5782
  855SOL    HW1 2564   2.014   4.939   8.933  0.1634  1.7714  0.0512
  855SOL    HW2 2565   1.961   4.997   9.063 -1.7605  2.0660 -0.8319
  856SOL     OW 2566   2.158   0.450   9.540 -0.3659  0.3361  0.2030
  856SOL    HW1 2567   2.140   0.544   9.534  1.3612  0.7381  0.7351
  856SOL    HW2 2568   2.088   0.416   9.595 -0.4453  1.5000  0.8678
  857SOL     OW 2569   4.776   2.068   7.443  0.0397  0.7613 -0.2299
  857SOL    HW1 2570   4.704   2.130   7.430  0.7012  1.4774 -0.5687
  857SOL    HW2 2571   4.776   2.052   7.538 -1.6964 -0.6752 -0.4120
  858SOL     OW 2572   4.934   1.481   7.644 -0.1180  0.4695  0.1210
  858SOL    HW1 2573   5.017   1.488   7.691 -0.7436  0.1444  1.3018
  858SOL    HW2 2574   4.954   1.515   7.557  1.6158 -0.9099 -0.0919
  859SOL     OW 2575   0.180   1.115   7.677  0.4238  0.4201 -0.4930
  859SOL    HW1 2576   0.252   1.060   7.708 -1.3563 -0.8584  1.7317
  859SOL    HW2 2577   0.102   1.078   7.719 -1.0932  3.8474  0.1000
  860SOL     OW 2578   4.398   0.152   5.082 -0.2507 -0.3399 -0.0221
  860SOL    HW1 2579   4.437   0.073   5.118 -0.3892 -0.4058 -0.0194
  860SOL    HW2 2580   4.447   0.168   5.001  1.7541  1.1805  1.3927
  861SOL     OW 2581   4.707   1.385   5.719  0.1008  0.1707  0.0600
  861SOL    HW1 2582   4.713   1.305   5.771  2.7558  0.0956 -0.2189
  861SOL    HW2 2583   4.633   1.370   5.661 -1.4209 -0.7360  2.1217
  862SOL     OW 2584   4.912   1.042  10.187  0.1772  0.4488 -0.3068
  862SOL    HW1 2585   4.825   1.032  10.149  0.6765 -1.9129 -1.0321
  862SOL    HW2 2586   4.971   1.031  10.113  1.1102 -0.2511  0.5168
  863SOL     OW 2587   2.772   4.595   4.561 -0.5090 -0.3529  0.5766
  863SOL    HW1 2588   2.811   4.626   4.479  2.6936 -1.0084  1.7144
  863SOL    HW2 2589   2.817   4.513   4.580 -0.9607 -0.1017  3.1225
  864SOL     OW 2590   2.425   1.845   7.839 -0.4842 -0.0383 -0.0871
  864SOL    HW1 2591   2.355   1.838   7.774 -0.6972  2.8355 -0.2730
  864SOL    HW2 2592   2.505   1.852   7.786 -0.3836 -0.2139  0.0420
  865SOL     OW 2593   4.880   3.056   8.624  0.1102  0.3547  0.1817
  865SOL    HW1 2594   4.825   3.077   8.700 -0.6079 -0.7200 -0.0221
  865SOL    HW2 2595   4.829   3.087   8.549 -0.0679 -0.3304  0.0163
  866SOL     OW 2596   1.966   2.980   5.794 -0.3723  0.0707  0.9439
  866SOL    HW1 2597   1.925   2.988   5.881 -0.1778 -3.4270  1.5051
  866SOL    HW2 2598   2.054   2.948   5.812 -0.4086 -0.9366 -0.5103
  867SOL     OW 2599   4.319   3.317   7.999 -0.5654  0.1741  0.7030
  867SOL    HW1 2600   4.266   3.240   7.981 -2.6261  1.4223  1.1348
  867SOL    HW2 2601   4.372   3.328   7.920 -1.2811 -0.8517  0.0499
  868SOL     OW 2602   2.652   0.428   7.519  0.4239  0.3387 -0.3358
  868SOL    HW1 2603   2.634   0.400   7.608 -0.9911  1.5857 -0.1814
  868SOL    HW2 2604   2.658   0.524   7.525 -0.9873  0.5644 -1.7342
  869SOL     OW 2605   0.665   3.792   7.399 -0.2607  0.2666 -0.2658
  869SOL    HW1 2606   0.649   3.875   7.353 -0.4645  0.1204 -0.4641
  869SOL    HW2 2607   0.689   3.730   7.330  0.3828  0.2823 -0.0563
  870SOL     OW 2608   1.196   4.133   8.240  0.1626  0.6210 -0.0639
  870SOL    HW1 2609   1.115   4.083   8.228  0.9576 -0.3827 -1.5603
  870SOL    HW2 2610   1.222   4.114   8.331 -0.1852 -0.7723 -0.2254
  871SOL     OW 2611   2.424   4.138   5.187  0.0196 -0.3447  0.5489
  871SOL    HW1 2612   2.468   4.053   5.199 -0.5125 -0.8849 -1.0899
  871SOL    HW2 2613   2.465   4.176   5.109 -0.4296  0.4564  0.6940
  872SOL     OW 2614   2.091   1.371   7.422  0.4277  0.3143  0.2541
  872SOL    HW1 2615   2.091   1.307   7.493  0.9654  1.6052  1.4487
  872SOL    HW2 2616   2.010   1.421   7.435  0.6418  0.7038  0.0991
  873SOL     OW 2617   2.452   0.126   6.107 -0.5634  0.0991  0.1440
  873SOL    HW1 2618   2.541   0.091   6.117 -0.5865  0.1129  0.4033
  873SOL    HW2 2619   2.456   0.213   6.147 -1.0616 -0.4707  1.4602
  874SOL     OW 2620   3.930   4.375  10.247  0.3984 -0.4005 -0.3055
  874SOL    HW1 2621   4.023   4.367  10.269  0.2384 -1.6872 -0.0434
  874SOL    HW2 2622   3.890   4.295  10.280 -0.9770  0.5349  0.4010
  875SOL     OW 2623   2.364   3.950   9.759  0.2642  0.1512  0.1640
  875SOL    HW1 2624   2.327   3.871   9.720 -0.2020 -0.1497  1.1847
  875SOL    HW2 2625   2.386   3.925   9.848 -0.3179  1.2908  0.6427
  876SOL     OW 2626   4.519   3.692   5.893  0.1392  0.3417 -0.1905
  876SOL    HW1 2627   4.603   3.738   5.886 -0.9698  2.7820  1.0390
  876SOL    HW2 2628   4.493   3.674   5.803  1.6121  0.2184 -0.6126
  877SOL     OW 2629   3.545   3.939   8.102  0.9293  0.1636 -0.3845
  877SOL    HW1 2630   3.483   3.993   8.052  1.4674 -0.7648 -2.1670
  877SOL    HW2 2631   3.588   4.001   8.161  0.2736  1.3460 -1.0912
  878SOL     OW 2632   0.415   0.130   8.212 -0.8583  0.1636  0.5901
  878SOL    HW1 2633   0.470   0.206   8.230  0.4510 -0.4402 -0.6942
  878SOL    HW2 2634   0.428   0.072   8.287  1.7652 -0.7755 -0.4899
  879SOL     OW 2635   1.192   2.271   6.167  0.3821  0.4121 -0.1051
  879SOL    HW1 2636   1.237   2.187   6.153  1.3370  0.8108  0.4900
  879SOL    HW2 2637   1.109   2.247   6.209  0.3930 -0.2685 -0.4563
  880SOL     OW 2638   0.937   2.120   8.387  0.3157  0.0155 -0.3814
  880SOL    HW1 2639   0.845   2.144   8.400  0.2034 -0.0359 -1.0757
  880SOL    HW2 2640   0.975   2.124   8.475 -0.7439 -1.6411  0.2075
  881SOL     OW 2641   2.549   4.550   9.212 -0.0171 -0.6225  0.1551
  881SOL    HW1 2642   2.476   4.495   9.243  0.5975 -1.7651 -0.3538
  881SOL    HW2 2643   2.510   4.637   9.201 -0.6715 -0.5692  2.4296
  882SOL     OW 2644   1.251   4.416   9.451 -0.0186  0.6574 -0.1264
  882SOL    HW1 2645   1.302   4.456   9.380  0.6596  1.8560  1.0009
  882SOL    HW2 2646   1.282   4.325   9.453  1.8563  1.2533  0.2810
  883SOL     OW 2647   4.835   1.662   6.733  0.1467 -0.3247  0.3921
  883SOL    HW1 2648   4.745   1.653   6.701  0.1994  0.9251 -0.1843
  883SOL    HW2 2649   4.880   1.710   6.663  0.9103  0.2561  1.2668
  884SOL     OW 2650   0.824   3.251   6.852  0.2559  1.1538 -0.0397
  884SOL    HW1 2651   0.912   3.264   6.888  0.5019 -2.3030  0.9888
  884SOL    HW2 2652   0.837   3.191   6.779 -1.3376 -0.8492  1.2222
  885SOL     OW 2653   1.712   2.555   7.938 -0.5962 -0.1482 -0.4443
  885SOL    HW1 2654   1.640   2.492   7.938 -0.2590 -0.6648 -2.9863
  885SOL    HW2 2655   1.685   2.621   7.874  2.1080 -1.6474 -3.3762
  886SOL     OW 2656   3.800   4.300   8.101 -0.1452 -0.6264  0.0482
  886SOL    HW1 2657   3.869   4.281   8.038 -0.3698  0.3186 -0.5001
  886SOL    HW2 2658   3.792   4.220   8.154  2.5515 -0.1949  1.2693
  887SOL     OW 2659   0.542   3.220   5.333  0.0257  0.0772  0.6553
  887SOL    HW1 2660   0.472   3.157   5.350 -1.5068  1.1474 -1.2975
  887SOL    HW2 2661   0.510   3.302   5.370  1.5627  0.0263  2.2705
  888SOL     OW 2662   0.892   0.048   9.209 -0.2806  0.3986 -0.1659
  888SOL    HW1 2663   0.806   0.070   9.244 -0.3363 -0.8997  0.5404
  888SOL    HW2 2664   0.953   0.100   9.262 -0.6411  2.2271 -1.4197
  889SOL     OW 2665   1.131   3.224   7.925 -0.1231  0.2849  0.3911
  889SOL    HW1 2666   1.163   3.300   7.973  0.7428  0.1828  0.0056
  889SOL    HW2 2667   1.112   3.257   7.837  0.6112 -0.0038  0.1141
  890SOL     OW 2668   2.889   4.536   5.469  0.2024  0.0653 -0.3503
  890SOL    HW1 2669   2.926   4.623   5.454 -0.5792  0.6848  1.0658
  890SOL    HW2 2670   2.961   4.476   5.452  0.4596  0.8920 -2.4136
  891SOL     OW 2671   2.219   3.796   5.378  0.1110 -0.0204  0.7426
  891SOL    HW1 2672   2.166   3.873   5.357 -2.5747 -1.5887  1.2473
  891SOL    HW2 2673   2.193   3.773   5.467  4.1571  0.9311  2.4097
  892SOL     OW 2674   2.945   3.422   6.864  0.1875 -0.0018 -0.5930
  892SOL    HW1 2675   2.944   3.503   6.916  1.4781  0.5775 -1.4423
  892SOL    HW2 2676   2.903   3.357   6.921  0.3078  0.9481  0.6168
  893SOL     OW 2677   1.236   3.544   5.366  0.6767 -0.2830  0.6481
  893SOL    HW1 2678   1.301   3.490   5.321 -0.5658 -0.0919 -1.5561
  893SOL    HW2 2679   1.286   3.613   5.408  1.9090  0.4467 -1.8209
  894SOL     OW 2680   2.384   1.922  10.323  0.2071  0.4686  0.5193
  894SOL    HW1 2681   2.432   1.881  10.251 -0.8514 -4.2006  2.1247
  894SOL    HW2 2682   2.439   1.908  10.400 -0.8551  0.8372  1.3785
  895SOL     OW 2683   4.739   3.020   9.965  0.8152 -0.5125 -0.6335
  895SOL    HW1 2684   4.760   3.033  10.057  2.2519 -0.1778 -0.9876
  895SOL    HW2 2685   4.762   3.103   9.923 -0.2709 -0.4946 -1.2334
  896SOL     OW 2686   1.551   1.535   5.473  0.6424 -0.8603  0.0674
  896SOL    HW1 2687   1.546   1.479   5.396  0.1432  0.5262 -0.9642
  896SOL    HW2 2688   1.461   1.541   5.504  0.3788  0.6537 -0.8498
  897SOL     OW 2689   3.894   2.480   8.469  0.0148 -0.5139 -0.0039
  897SOL    HW1 2690   3.955   2.454   8.400 -0.5214  0.7562 -0.9986
  897SOL    HW2 2691   3.950   2.496   8.545  0.5189 -2.9264  0.2234
  898SOL     OW 2692   3.083   4.318   9.959 -0.0454 -0.6229  0.2755
  898SOL    HW1 2693   3.134   4.289  10.035 -0.3109 -0.9886  0.3159
  898SOL    HW2 2694   3.136   4.388   9.921  0.0108 -0.3210  0.8931
  899SOL     OW 2695   3.339   4.114   7.985  0.3776  0.1308  0.0336
  899SOL    HW1 2696   3.375   4.199   7.958  0.2539  0.2488  0.2364
  899SOL    HW2 2697   3.318   4.070   7.903 -1.0361  0.9368 -0.0677
  900SOL     OW 2698   1.428   2.101   5.464 -0.0033  0.3079 -0.3707
  900SOL    HW1 2699   1.518   2.090   5.494  0.4391  0.7911 -1.4508
  900SOL    HW2 2700   1.426   2.190   5.428 -0.5883 -0.1079 -1.4087
  901SOL     OW 2701   0.442   3.370   9.363  0.6352  0.0842 -0.0248
  901SOL    HW1 2702   0.487   3.433   9.420  2.1149  0.7614 -1.8276
  901SOL    HW2 2703   0.353   3.404   9.354  0.5523  0.2889  1.3474
  902SOL     OW 2704   4.520   0.102   9.480 -0.0339  0.3477 -0.0428
  902SOL    HW1 2705   4.540   0.009   9.468 -0.0450  0.3952 -0.4284
  902SOL    HW2 2706   4.428   0.110   9.452 -0.0240  0.4803 -0.0368
  903SOL     OW 2707   0.984   2.437   9.462 -0.1405 -0.0772  0.2060
  903SOL    HW1 2708   0.916   2.396   9.516 -0.0725  2.2068  2.2354
  903SOL    HW2 2709   1.049   2.368   9.449 -2.4041 -2.0990 -1.1473
  904SOL     OW 2710   4.362   1.939   6.474  0.1903 -0.1268  0.4503
  904SOL    HW1 2711   4.319   1.857   6.449  1.0678 -0.2306 -0.8308
  904SOL    HW2 2712   4.301   1.981   6.534 -3.1977  1.1642 -3.4362
  905SOL     OW 2713   2.480   0.590   7.185 -0.1384 -0.3254 -0.0328
  905SOL    HW1 2714   2.456   0.683   7.192 -0.1310 -0.2940 -0.4079
  905SOL    HW2 2715   2.573   0.588   7.208 -0.0242 -0.1748 -0.4795
  906SOL     OW 2716   1.123   3.066   9.693  0.1654  0.0702 -0.0824
  906SOL    HW1 2717   1.132   3.044   9.601  1.8157 -1.2457  0.3433
  906SOL    HW2 2718   1.193   3.128   9.710  0.1508 -0.0323  0.3838
  907SOL     OW 2719   3.343   1.620   5.654  0.5077  0.0169 -1.2486
  907SOL    HW1 2720   3.366   1.550   5.593  1.3185  0.9298 -2.0179
  907SOL    HW2 2721   3.252   1.641   5.633 -1.0689 -3.1704  1.3718
  908SOL     OW 2722   2.448   3.065   9.344 -0.0775 -0.1102  0.1041
  908SOL    HW1 2723   2.442   3.007   9.268 -0.9886  0.3249 -0.1638
  908SOL    HW2 2724   2.542   3.084   9.351  0.0024 -0.0345 -0.9987
  909SOL     OW 2725   1.789   0.931   6.803 -0.3114  0.1355  0.1610
  909SOL    HW1 2726   1.708   0.938   6.754  0.0648  0.1340 -0.4681
  909SOL    HW2 2727   1.783   0.999   6.870 -1.9553 -1.5083  1.7908
  910SOL     OW 2728   1.956   3.472   9.279 -0.4285  0.1087  0.0930
  910SOL    HW1 2729   1.907   3.412   9.335 -0.7759  0.8267  0.5757
  910SOL    HW2 2730   1.969   3.424   9.198  3.4934 -2.5263  1.9936
  911SOL     OW 2731   3.443   1.045  10.231  0.5859  0.0645 -0.1382
  911SOL    HW1 2732   3.352   1.034  10.257  0.3086 -2.4948 -1.8252
  911SOL    HW2 2733   3.492   0.989  10.292  0.8658  0.3471 -0.1036
  912SOL     OW 2734   3.999   1.493   7.267  0.2651 -0.3293 -0.3155
  912SOL    HW1 2735   3.975   1.518   7.178  0.0424 -0.9814 -0.4450
  912SOL    HW2 2736   4.009   1.397   7.263  1.9721 -0.1952 -0.0438
  913SOL     OW 2737   4.872   2.382   5.781  0.4078  0.2840 -0.5620
  913SOL    HW1 2738   4.804   2.427   5.731  0.6350  0.2867 -0.8788
  913SOL    HW2 2739   4.877   2.295   5.741  0.8688  0.4219 -0.8076
  914SOL     OW 2740   2.757   4.527   7.636 -0.5404  0.2233  0.1737
  914SOL    HW1 2741   2.777   4.443   7.594 -4.7080  0.2764 -2.6123
  914SOL    HW2 2742   2.801   4.591   7.581  1.6504  0.0518  1.5992
  915SOL     OW 2743   4.300   1.132   8.065  0.0386 -0.4762 -0.5008
  915SOL    HW1 2744   4.223   1.127   8.008  0.3544 -2.1016 -0.8238
  915SOL    HW2 2745   4.348   1.051   8.048  1.5490  0.2555  0.1065
  916SOL     OW 2746   4.940   2.431   9.498  0.0880  0.2287 -0.5648
  916SOL    HW1 2747   4.847   2.419   9.477  0.2028  0.6115 -1.3417
  916SOL    HW2 2748   4.953   2.526   9.498  0.2806  0.2121  0.4936
  917SOL     OW 2749   1.469   0.695   7.581 -0.9545 -0.0221  0.7352
  917SOL    HW1 2750   1.560   0.682   7.609 -1.1959 -1.4196  0.9481
  917SOL    HW2 2751   1.417   0.654   7.649 -1.6489 -1.3240 -0.5166
  918SOL     OW 2752   1.074   0.449   9.454 -0.4025 -0.2749  0.2295
  918SOL    HW1 2753   1.078   0.353   9.463  2.6416 -0.2296  0.5114
  918SOL    HW2 2754   1.133   0.468   9.382  0.1934  1.4749  1.1272
  919SOL     OW 2755   1.636   2.478   4.888  0.7051 -0.0734 -0.7173
  919SOL    HW1 2756   1.657   2.545   4.823 -0.7157  0.8471 -0.2835
  919SOL    HW2 2757   1.598   2.406   4.838 -1.7938  1.2261 -0.8728
  920SOL     OW 2758   1.510   3.937   6.674 -0.3832 -0.2880 -0.1808
  920SOL    HW1 2759   1.596   3.906   6.646 -0.8651 -2.5482  0.6275
  920SOL    HW2 2760   1.498   3.898   6.761 -2.1514  0.1024 -0.2163
  921SOL     OW 2761   0.557   2.496   9.598  0.3176  0.0296  0.0456
  921SOL    HW1 2762   0.599   2.426   9.547  0.0624  0.5024 -0.8301
  921SOL    HW2 2763   0.486   2.527   9.542 -1.8682 -1.3794  1.8745
  922SOL     OW 2764   2.717   1.509   4.783 -0.8789 -0.1911  0.2880
  922SOL    HW1 2765   2.677   1.596   4.778  0.3920  0.3454 -1.6411
  922SOL    HW2 2766   2.808   1.526   4.805 -0.9540 -1.1725  1.4462
  923SOL     OW 2767   3.430   4.316   7.561 -0.0042 -0.8071  0.1288
  923SOL    HW1 2768   3.348   4.330   7.515  0.5094  1.3646 -0.2465
  923SOL    HW2 2769   3.477   4.399   7.552  1.8893 -1.7138  1.0194
  924SOL     OW 2770   1.123   0.778   7.648  0.0327 -0.3347 -0.5498
  924SOL    HW1 2771   1.206   0.774   7.696 -0.0594  3.4737  0.2840
  924SOL    HW2 2772   1.147   0.761   7.557  2.0751  1.9489 -0.5495
  925SOL     OW 2773   0.812   1.673   7.458  0.3899 -0.5570  0.4900
  925SOL    HW1 2774   0.816   1.651   7.365 -0.5434  2.0802 -0.2652
  925SOL    HW2 2775   0.799   1.768   7.460  2.5371 -0.1820  3.3624
  926SOL     OW 2776   4.293   3.858   6.399  0.1672 -0.0187 -0.5025
  926SOL    HW1 2777   4.228   3.928   6.402 -0.5600 -0.5353 -2.6293
  926SOL    HW2 2778   4.262   3.798   6.331  1.9390 -1.2340 -0.3305
  927SOL     OW 2779   2.547   4.570   8.907  0.1767 -0.0976  0.5499
  927SOL    HW1 2780   2.519   4.509   8.838  0.4292 -1.2957  1.4571
  927SOL    HW2 2781   2.522   4.526   8.988  0.4894  0.9741  1.2444
  928SOL     OW 2782   0.698   2.549   5.968 -0.9145  0.2154  0.2644
  928SOL    HW1 2783   0.773   2.607   5.981  0.4517 -0.8318 -2.2552
  928SOL    HW2 2784   0.727   2.464   6.002 -0.1754 -0.6362 -2.2679
  929SOL     OW 2785   4.556   0.716   7.903  0.6576 -0.9954  0.3539
  929SOL    HW1 2786   4.480   0.751   7.857 -0.5673 -0.4450  2.6536
  929SOL    HW2 2787   4.525   0.634   7.943  1.9986 -2.0347 -0.6525
  930SOL     OW 2788   1.105   1.769   9.190  0.6453 -0.1348 -0.0784
  930SOL    HW1 2789   1.195   1.780   9.159  1.3516 -1.8081  1.1701
  930SOL    HW2 2790   1.059   1.848   9.163  2.3060  0.4220 -1.3963
  931SOL     OW 2791   0.686   1.053   5.991 -0.0628 -0.2637 -0.3743
  931SOL    HW1 2792   0.751   1.069   5.923  1.5243 -0.5558  1.0076
  931SOL    HW2 2793   0.700   0.962   6.018 -2.4584 -1.0366 -1.4372
  932SOL     OW 2794   4.515   2.511   6.263  0.1177  0.3872  0.5173
  932SOL    HW1 2795   4.580   2.540   6.199 -2.6758  1.4625 -2.0728
  932SOL    HW2 2796   4.488   2.424   6.233 -0.1680  0.2744  1.0916
  933SOL     OW 2797   1.242   3.011   6.593 -0.0224 -0.0644 -0.5782
  933SOL    HW1 2798   1.328   3.048   6.573  0.2217 -1.0229 -1.4079
  933SOL    HW2 2799   1.244   2.923   6.554 -0.8774 -0.6299  0.6035
  934SOL     OW 2800   0.389   3.099   6.583  0.0430 -0.5281  0.6474
  934SOL    HW1 2801   0.344   3.136   6.658  1.1265 -0.3089  1.2081
  934SOL    HW2 2802   0.440   3.172   6.547 -0.4796 -0.6258 -0.3095
  935SOL     OW 2803   0.010   4.567  10.167  0.3937 -0.4408 -0.7557
  935SOL    HW1 2804   0.095   4.600  10.139  0.5791  0.1009  0.4054
  935SOL    HW2 2805   0.025   4.533  10.255 -0.8049  0.6653 -0.0895
  936SOL     OW 2806   3.678   2.312   7.476 -1.1372 -0.3454  0.4233
  936SOL    HW1 2807   3.679   2.259   7.396 -1.4760  1.9972 -1.2516
  936SOL    HW2 2808   3.628   2.260   7.539 -1.6721 -1.8821 -1.1937
  937SOL     OW 2809   4.917   4.599   8.893  0.2976  0.1956 -0.1912
  937SOL    HW1 2810   4.990   4.559   8.941  0.6505  0.1115 -0.7886
  937SOL    HW2 2811   4.840   4.552   8.923  0.1615  1.7699  2.1447
  938SOL     OW 2812   2.511   3.013   9.592  0.2974  0.4088  0.2744
  938SOL    HW1 2813   2.603   2.989   9.581 -0.1093 -0.3040 -2.0819
  938SOL    HW2 2814   2.482   3.038   9.504 -2.2096 -1.0082  0.6110
  939SOL     OW 2815   4.366   3.103   6.475  0.1872 -0.0345  0.2856
  939SOL    HW1 2816   4.402   3.031   6.526  1.7649 -0.8775 -1.8474
  939SOL    HW2 2817   4.404   3.182   6.514  1.7169 -0.6800  0.1788
  940SOL     OW 2818   4.445   0.614   5.253  0.0737  0.2380 -0.5534
  940SOL    HW1 2819   4.480   0.527   5.236 -0.6836  0.1651 -1.8006
  940SOL    HW2 2820   4.509   0.674   5.214  1.7221  0.4182  2.1255
  941SOL     OW 2821   2.149   4.859  10.117  0.6414  0.7800 -0.6680
  941SOL    HW1 2822   2.099   4.862  10.199  0.5675 -0.5216 -0.6413
  941SOL    HW2 2823   2.170   4.766  10.105  0.9453  0.9941 -1.9572
  942SOL     OW 2824   2.003   3.324   7.031  0.0571 -0.3958 -0.5237
  942SOL    HW1 2825   1.924   3.297   6.983 -1.7322  0.7123  1.6151
  942SOL    HW2 2826   2.003   3.419   7.024  0.8188 -0.3508  0.0919
  943SOL     OW 2827   4.789   3.978   9.662 -0.5117  0.3955 -0.5843
  943SOL    HW1 2828   4.875   3.972   9.704 -2.5668 -2.7564  4.0102
  943SOL    HW2 2829   4.752   4.060   9.694  0.2027  1.1151 -1.5281
  944SOL     OW 2830   0.701   3.736   9.674 -0.1368 -0.3995  0.5707
  944SOL    HW1 2831   0.722   3.698   9.759  0.6855 -0.9226  0.1465
  944SOL    HW2 2832   0.765   3.807   9.663 -1.8429  1.3776  1.4943
  945SOL     OW 2833   3.767   3.113   9.999  0.4835 -0.0316  0.6873
  945SOL    HW1 2834   3.694   3.167  10.027  0.3277  0.4019 -0.4829
  945SOL    HW2 2835   3.845   3.165  10.019  0.3477  0.5139 -0.1360
  946SOL     OW 2836   1.438   0.922   6.032  0.2881 -1.1334 -0.1192
  946SOL    HW1 2837   1.443   0.838   5.986 -0.6066 -1.2570 -0.0208
  946SOL    HW2 2838   1.482   0.905   6.116  2.3355 -0.7712 -1.0658
  947SOL     OW 2839   1.053   3.340  10.335 -0.6912  0.6060  0.3127
  947SOL    HW1 2840   1.022   3.287  10.261  2.3343 -1.7939  0.5488
  947SOL    HW2 2841   1.010   3.302  10.411  0.6386 -0.9802  0.3496
  948SOL     OW 2842   2.746   0.403   6.767 -0.4345 -0.4071 -0.9086
  948SOL    HW1 2843   2.841   0.412   6.761  0.0803 -2.3524  2.2166
  948SOL    HW2 2844   2.713   0.491   6.750  2.0730  0.7667 -0.2218
  949SOL     OW 2845   0.351   3.769   6.983  0.1146 -0.1330  0.5957
  949SOL    HW1 2846   0.438   3.778   6.942  0.1003  0.3173  0.6655
  949SOL    HW2 2847   0.352   3.680   7.019  0.2587 -0.4114 -0.0751
  950SOL     OW 2848   0.493   1.851   8.052 -0.1528 -0.0752  0.3422
  950SOL    HW1 2849   0.561   1.871   8.117 -0.0871  1.1237 -0.0631
  950SOL    HW2 2850   0.421   1.910   8.074  0.2836  1.1420 -1.3043
  951SOL     OW 2851   0.347   0.504   7.600  0.5439 -0.5268 -0.0981
  951SOL    HW1 2852   0.390   0.425   7.568  0.0504 -0.2949 -1.3625
  951SOL    HW2 2853   0.256   0.495   7.572  0.4175  0.3507  0.0172
  952SOL     OW 2854   3.975   3.549   6.419  0.2124 -0.3250 -0.6200
  952SOL    HW1 2855   3.904   3.512   6.367 -0.0271  0.0148 -0.5402
  952SOL    HW2 2856   4.011   3.618   6.364  0.9604 -0.9656 -0.9604
  953SOL     OW 2857   3.162   1.015   6.141 -0.3220  0.2003  0.2404
  953SOL    HW1 2858   3.166   1.092   6.084 -2.1045  0.6220  0.6339
  953SOL    HW2 2859   3.241   1.022   6.195  0.5556  0.6760 -1.0384
  954SOL     OW 2860   4.006   3.192   5.368 -0.0839 -0.0364  0.1100
  954SOL    HW1 2861   4.074   3.242   5.414 -0.9057  1.2482 -0.0297
  954SOL    HW2 2862   3.924   3.221   5.407 -0.5813 -1.5172  0.2153
  955SOL     OW 2863   1.916   1.629   6.493  0.4870 -0.0659  0.0974
  955SOL    HW1 2864   1.844   1.619   6.431  0.1344 -1.2025  0.6487
  955SOL    HW2 2865   1.875   1.661   6.573  0.9999  1.7861 -0.3442
  956SOL     OW 2866   1.662   3.325   5.031  0.3426 -0.1380  0.3890
  956SOL    HW1 2867   1.730   3.290   4.973  0.0596 -0.9076  0.5034
  956SOL    HW2 2868   1.709   3.380   5.093  0.8246 -0.3903  0.2551
  957SOL     OW 2869   3.464   2.259   7.972 -0.2236  0.0232 -0.3502
  957SOL    HW1 2870   3.410   2.230   7.898  1.9266 -2.0816 -1.2347
  957SOL    HW2 2871   3.464   2.185   8.032 -0.8038  1.1968  1.1475
  958SOL     OW 2872   4.524   3.991   7.559  0.5795  0.2941 -0.0864
  958SOL    HW1 2873   4.547   4.019   7.470  2.0205  4.6565  1.3854
  958SOL    HW2 2874   4.431   4.012   7.567  0.8607  1.6337 -0.0807
  959SOL     OW 2875   1.136   2.396   8.694 -0.4131 -0.8187 -0.2519
  959SOL    HW1 2876   1.195   2.406   8.768  0.1505 -1.2260 -0.6325
  959SOL    HW2 2877   1.068   2.462   8.708 -0.7480 -1.4080  1.0217
  960SOL     OW 2878   2.583   0.291   8.256 -0.2032  0.1618  0.1474
  960SOL    HW1 2879   2.605   0.249   8.339 -0.9951 -0.3950  0.0895
  960SOL    HW2 2880   2.646   0.256   8.193 -1.4637 -1.7833 -0.1261
  961SOL     OW 2881   2.997   4.683   6.908  0.2061 -0.0435 -0.0571
  961SOL    HW1 2882   2.932   4.716   6.846 -1.3292 -0.5136  1.2323
  961SOL    HW2 2883   3.031   4.762   6.952 -1.2303  0.0774  0.8920
  962SOL     OW 2884   1.775   4.650   7.855 -0.3600 -0.6555 -0.0013
  962SOL    HW1 2885   1.846   4.586   7.860  1.0121  0.7732 -0.5014
  962SOL    HW2 2886   1.801   4.720   7.915  0.1787  1.2958 -2.3809
  963SOL     OW 2887   0.673   1.757   5.186  1.0700  0.3953  0.4281
  963SOL    HW1 2888   0.581   1.738   5.203  0.9750 -1.0850 -1.3957
  963SOL    HW2 2889   0.672   1.825   5.119  1.1817 -1.1413 -1.2303
  964SOL     OW 2890   1.693   3.916   6.187 -0.2228 -0.5378 -0.5448
  964SOL    HW1 2891   1.651   3.881   6.109 -0.1781 -0.3015 -0.6772
  964SOL    HW2 2892   1.623   3.966   6.231 -0.6060 -1.7139  0.2432
  965SOL     OW 2893   0.882   4.460   8.137  0.3477  0.2742 -0.0885
  965SOL    HW1 2894   0.829   4.539   8.142 -2.3921 -1.2464 -2.1353
  965SOL    HW2 2895   0.933   4.470   8.057  0.6782  0.3474  0.1303
  966SOL     OW 2896   0.682   4.308   8.426 -0.4991 -0.1034  0.0280
  966SOL    HW1 2897   0.725   4.294   8.342 -1.2164  1.0063 -0.5574
  966SOL    HW2 2898   0.608   4.248   8.426 -0.0776 -0.6285  0.1929
  967SOL     OW 2899   3.895   3.541   5.288 -0.4229 -0.1727  0.5977
  967SOL    HW1 2900   3.804   3.569   5.293 -0.7585 -0.8854 -0.8819
  967SOL    HW2 2901   3.918   3.515   5.377 -0.0637  4.6273  2.1606
  968SOL     OW 2902   0.939   0.154   6.351 -0.1872 -0.4130  0.1669
  968SOL    HW1 2903   0.981   0.203   6.422 -0.8740  0.3549  0.0642
  968SOL    HW2 2904   0.973   0.194   6.271 -1.3892  0.4921  0.0821
  969SOL     OW 2905   2.056   1.387   6.366 -0.1714 -0.0468 -0.2603
  969SOL    HW1 2906   2.034   1.441   6.290 -1.3226  1.5224  1.1421
  969SOL    HW2 2907   2.089   1.449   6.431 -0.4392 -1.1808  0.9957
  970SOL     OW 2908   1.848   0.557   8.875  0.6267  0.1641 -0.4588
  970SOL    HW1 2909   1.780   0.525   8.817 -1.3863  0.6921  1.4788
  970SOL    HW2 2910   1.910   0.485   8.883  1.4743  0.3641 -3.8357
  971SOL     OW 2911   0.015   4.334   5.272  0.3833  0.1637 -0.1721
  971SOL    HW1 2912  -0.033   4.357   5.351 -1.2334 -0.3041 -0.9708
  971SOL    HW2 2913   0.094   4.289   5.304 -0.9164 -1.2803  1.1672
  972SOL     OW 2914   2.124   3.844   9.411  0.8094 -0.0367 -0.0354
  972SOL    HW1 2915   2.035   3.872   9.391  0.7664  0.3383  0.6628
  972SOL    HW2 2916   2.179   3.919   9.387  0.5702  1.3428  3.1862
  973SOL     OW 2917   2.327   3.009   7.265 -0.3026 -0.6719 -0.5582
  973SOL    HW1 2918   2.241   2.969   7.256 -0.7077  0.4272 -2.0426
  973SOL    HW2 2919   2.341   3.015   7.359 -2.9383  1.2487 -0.1647
  974SOL     OW 2920   1.441   4.157   8.920  0.4755  0.4134  0.2302
  974SOL    HW1 2921   1.508   4.224   8.927  0.5008  0.4869 -0.6031
  974SOL    HW2 2922   1.490   4.075   8.908  0.4361  0.5515 -1.0723
  975SOL     OW 2923   4.608   4.433   9.180 -0.5606  0.6437  0.7192
  975SOL    HW1 2924   4.603   4.452   9.087 -1.8445  0.8440  0.8040
  975SOL    HW2 2925   4.700   4.411   9.196 -0.0927  1.6992 -0.3731
  976SOL     OW 2926   4.657   4.289   5.409  0.3592 -0.2679  0.0071
  976SOL    HW1 2927   4.749   4.314   5.409  0.5516 -0.4812  3.3158
  976SOL    HW2 2928   4.654   4.208   5.460 -1.5294 -1.0215 -1.1919
  977SOL     OW 2929   1.219   1.787   7.003  0.4669  0.0981  0.0767
  977SOL    HW1 2930   1.150   1.831   7.053  0.3682  1.4976 -1.2125
  977SOL    HW2 2931   1.172   1.728   6.944  0.2451  1.6867 -1.4164
  978SOL     OW 2932   4.776   2.867   6.191  0.1779  0.5614  0.1894
  978SOL    HW1 2933   4.865   2.888   6.163  0.2017 -1.4796 -1.5819
  978SOL    HW2 2934   4.724   2.943   6.166  1.5043  2.2952  2.2863
  979SOL     OW 2935   0.364   1.292   7.901 -0.3844 -0.2979 -0.3008
  979SOL    HW1 2936   0.284   1.260   7.943 -1.9282  0.2445 -2.6840
  979SOL    HW2 2937   0.341   1.305   7.810  2.3803  0.1497 -1.0427
  980SOL     OW 2938   3.995   3.311   9.264  0.3534 -0.0966 -0.6008
  980SOL    HW1 2939   3.922   3.283   9.319 -0.0549  1.0426 -0.5265
  980SOL    HW2 2940   3.956   3.328   9.178  0.6430 -0.0961 -0.7347
  981SOL     OW 2941   2.413   4.752   9.869 -0.0763 -0.1512 -0.2624
  981SOL    HW1 2942   2.392   4.746   9.775 -0.3652 -1.0109 -0.1475
  981SOL    HW2 2943   2.396   4.665   9.903 -1.0049  0.4269  0.8110
  982SOL     OW 2944   0.481   1.668   8.727 -0.4200  0.6668 -0.4270
  982SOL    HW1 2945   0.451   1.587   8.769  1.1435 -1.3287 -2.8379
  982SOL    HW2 2946   0.577   1.659   8.724 -0.2123  2.5695 -0.8875
  983SOL     OW 2947   3.720   2.473   6.187  0.6131 -0.1782  0.0078
  983SOL    HW1 2948   3.630   2.482   6.155  0.9999  0.7392 -0.8720
  983SOL    HW2 2949   3.749   2.563   6.204  0.8191 -0.5570  1.9053
  984SOL     OW 2950   0.297   3.114   5.400  0.2454  0.3226 -0.8813
  984SOL    HW1 2951   0.239   3.038   5.391 -0.7761  0.9341  0.3130
  984SOL    HW2 2952   0.238   3.189   5.411  1.1462  0.7044  2.6120
  985SOL     OW 2953   3.851   2.691   7.144 -0.7113  0.3383  0.0787
  985SOL    HW1 2954   3.876   2.775   7.103 -2.0024  1.2577  1.1036
  985SOL    HW2 2955   3.826   2.714   7.233  2.9422 -1.7399  1.8610
  986SOL     OW 2956   3.919   4.035   5.645 -0.2011 -0.6606 -0.1885
  986SOL    HW1 2957   3.947   4.127   5.648 -1.0629 -0.3556 -1.1041
  986SOL    HW2 2958   3.964   3.999   5.569  1.6181 -1.5350  1.2297
  987SOL     OW 2959   2.469   1.564   4.972 -0.4425 -0.3417  0.7722
  987SOL    HW1 2960   2.524   1.595   5.045 -1.7773 -0.4548  1.8782
  987SOL    HW2 2961   2.512   1.484   4.942  0.5724  0.1388  0.8845
  988SOL     OW 2962   4.256   3.282   8.598  0.0414 -0.4430 -0.4144
  988SOL    HW1 2963   4.304   3.365   8.597  0.3434 -0.6014 -1.7109
  988SOL    HW2 2964   4.216   3.277   8.511 -0.5516 -1.3355 -0.1052
  989SOL     OW 2965   4.828   2.075   6.210 -0.8481  0.1174 -0.2889
  989SOL    HW1 2966   4.780   2.076   6.127 -1.4320 -0.5058  0.0284
  989SOL    HW2 2967   4.866   1.987   6.215 -2.9175 -0.7612  1.2453
  990SOL     OW 2968   0.440   2.661   8.125  0.3729  0.3013  0.5839
  990SOL    HW1 2969   0.487   2.578   8.138 -1.6544 -1.1787 -0.9252
  990SOL    HW2 2970   0.462   2.686   8.035 -0.5080  0.4041  0.3956
  991SOL     OW 2971   0.496   0.373   9.640  0.0687 -0.5029 -0.9186
  991SOL    HW1 2972   0.546   0.319   9.702  0.4530 -1.8868 -2.3725
  991SOL    HW2 2973   0.428   0.413   9.693  1.3903 -0.2971  0.7122
  992SOL     OW 2974   4.301   3.542   8.358  0.0383 -0.8975 -0.2797
  992SOL    HW1 2975   4.345   3.529   8.274  0.7094  2.2518 -0.5459
  992SOL    HW2 2976   4.360   3.600   8.407 -1.8049 -0.0858  1.0853
  993SOL     OW 2977   3.463   2.490   8.334 -0.1893  0.0689  0.7650
  993SOL    HW1 2978   3.384   2.460   8.289  0.3736  0.2420 -0.3815
  993SOL    HW2 2979   3.464   2.440   8.416  0.1466 -2.2613 -0.5762
  994SOL     OW 2980   0.170   2.783   7.851  0.5340  0.8218 -0.2084
  994SOL    HW1 2981   0.160   2.751   7.940  0.2900  3.0125  0.6261
  994SOL    HW2 2982   0.093   2.749   7.805 -0.2977  1.0961  0.9181
  995SOL     OW 2983   2.618   4.686   6.530 -0.6122 -0.5890  0.2469
  995SOL    HW1 2984   2.668   4.766   6.511 -1.4580 -0.3606 -1.1521
  995SOL    HW2 2985   2.577   4.703   6.615  1.2160 -0.5725  1.1833
  996SOL     OW 2986   1.038   3.856   7.065  1.2616  0.3678 -0.3641
  996SOL    HW1 2987   0.981   3.797   7.114  0.4795  1.4153  0.0311
  996SOL    HW2 2988   1.035   3.823   6.975  2.1568 -1.1587  0.1217
  997SOL     OW 2989   3.586   3.055   9.631  0.3516  0.3387 -0.1527
  997SOL    HW1 2990   3.552   3.057   9.542  0.8851  0.6464 -0.3591
  997SOL    HW2 2991   3.630   3.140   9.642 -2.1261  1.5351  1.3930
  998SOL     OW 2992   0.205   3.403   9.104 -0.0364  0.7049  0.3091
  998SOL    HW1 2993   0.154   3.335   9.060  1.2845 -0.4349  0.4449
  998SOL    HW2 2994   0.222   3.468   9.036 -0.6692  0.5167 -0.0390
  999SOL     OW 2995   0.534   2.079   8.707 -0.3552 -0.0089  0.2031
  999SOL    HW1 2996   0.477   2.005   8.689  0.1181 -0.0162 -1.4152
  999SOL    HW2 2997   0.613   2.039   8.744  0.2300 -0.4398 -1.4231
 1000SOL     OW 2998   2.507   2.300   8.972 -0.3692  0.3878  0.4759
 1000SOL    HW1 2999   2.431   2.304   9.030  0.8221  0.3888  2.1229
 1000SOL    HW2 3000   2.573   2.252   9.023  0.9991  1.0962 -0.5767
 1001SOL     OW 3001   2.113   4.550   9.419  0.0078  0.0653  0.3321
 1001SOL    HW1 3002   2.024   4.550   9.454 -0.9166 -0.4522 -1.8566
 1001SOL    HW2 3003   2.140   4.458   9.421  0.7877  0.2945  1.5892
 1002SOL     OW 3004   3.535   0.990   9.459 -0.7658 -0.0204 -0.2142
 1002SOL    HW1 3005   3.610   0.990   9.399  0.7129 -1.7149  1.5061
 1002SOL    HW2 3006   3.570   1.026   9.540 -1.6294 -1.3856  0.8049
 1003SOL     OW 3007   3.198   4.205   9.520  1.0099 -0.0015  0.6259
 1003SOL    HW1 3008   3.289   4.180   9.512  1.2171  0.7055  0.6886
 1003SOL    HW2 3009   3.168   4.161   9.600 -0.0244 -3.9984 -1.6932
 1004SOL     OW 3010   4.122   1.122   9.473 -0.3713 -0.4847  0.1831
 1004SOL    HW1 3011   4.122   1.200   9.529  0.5494  0.7593 -1.4566
 1004SOL    HW2 3012   4.048   1.070   9.504 -0.4141  0.5561  1.9739
 1005SOL     OW 3013   0.909   2.188   9.653 -0.4219  0.0440  0.7317
 1005SOL    HW1 3014   0.954   2.103   9.646  0.7875  0.7016  0.3070
 1005SOL    HW2 3015   0.938   2.223   9.737  0.7623  0.9470 -0.0168
 1006SOL     OW 3016   4.629   1.837   7.667  0.0568 -0.2797 -0.1599
 1006SOL    HW1 3017   4.672   1.922   7.676 -0.8890  0.1098  1.0279
 1006SOL    HW2 3018   4.699   1.777   7.643  0.9271  0.6587 -0.0490
 1007SOL     OW 3019   4.001   3.510  10.237  0.5056  0.2664 -0.3908
 1007SOL    HW1 3020   4.094   3.491  10.224  0.1464 -1.9357 -0.0980
 1007SOL    HW2 3021   3.957   3.460  10.169 -0.5632 -0.2453  0.6538
 1008SOL     OW 3022   3.966   0.441   9.373  0.1383  0.3385 -0.1406
 1008SOL    HW1 3023   3.995   0.359   9.333 -1.3237  0.1530 -0.8936
 1008SOL    HW2 3024   3.963   0.504   9.300  0.3050  0.8074  0.2469
 1009SOL     OW 3025   3.679   4.551   9.326 -0.3887  0.1854 -0.2303
 1009SOL    HW1 3026   3.592   4.589   9.340 -0.2698  0.2681  0.2892
 1009SOL    HW2 3027   3.733   4.626   9.301 -0.7760 -0.0742 -2.0118
 1010SOL     OW 3028   1.527   2.119   9.961 -0.5182  0.0655  0.6127
 1010SOL    HW1 3029   1.456   2.073  10.005 -2.0045  0.8921 -0.8096
 1010SOL    HW2 3030   1.497   2.210   9.956  0.2474  0.2724 -0.7610
 1011SOL     OW 3031   3.612   4.060   9.795 -0.4204 -0.1453 -0.0299
 1011SOL    HW1 3032   3.674   4.128   9.770 -0.5437 -0.1030 -0.2288
 1011SOL    HW2 3033   3.577   4.089   9.879  0.4184 -0.5765  0.4726
 1012SOL     OW 3034   4.038   0.096   9.600  0.0286  0.2687  0.1105
 1012SOL    HW1 3035   4.049   0.039   9.524  2.7549  0.8365 -0.0219
 1012SOL    HW2 3036   4.046   0.038   9.676  2.0612  0.2735 -0.0363
 1013SOL     OW 3037   0.888   0.428   9.085  0.5870 -0.2218  0.1889
 1013SOL    HW1 3038   0.940   0.500   9.119  0.7715 -0.5908  0.7004
 1013SOL    HW2 3039   0.946   0.382   9.025 -0.4145  1.7456 -2.4923
 1014SOL     OW 3040   3.938   0.424   8.132  0.5213  0.0167  0.4372
 1014SOL    HW1 3041   3.973   0.460   8.051  2.6918 -0.7555  0.9666
 1014SOL    HW2 3042   3.867   0.483   8.156  0.3287  0.6963 -1.6003
 1015SOL     OW 3043   1.620   0.386   9.025 -0.3260 -0.0494 -0.6190
 1015SOL    HW1 3044   1.703   0.355   8.991  0.4199  1.0884  0.0683
 1015SOL    HW2 3045   1.626   0.373   9.120 -0.8273  0.2484 -0.5394
 1016SOL     OW 3046   2.070   0.287  10.130  0.4510 -0.3435  0.3669
 1016SOL    HW1 3047   1.994   0.231  10.112 -0.3010  0.9764 -0.7606
 1016SOL    HW2 3048   2.145   0.227  10.131 -0.4642 -1.5144  0.3686
 1017SOL     OW 3049   0.912   0.836   9.450 -0.4159 -0.4410 -0.0640
 1017SOL    HW1 3050   0.945   0.914   9.493 -2.1689  0.7138 -0.6825
 1017SOL    HW2 3051   0.905   0.861   9.358 -0.8110 -1.4019 -0.3084
 1018SOL     OW 3052   4.499   1.479   9.237  0.2881 -0.1063  0.1396
 1018SOL    HW1 3053   4.447   1.471   9.317 -0.4427  0.2649 -0.2868
 1018SOL    HW2 3054   4.457   1.550   9.188  0.3906 -0.6944 -0.8247
 1019SOL     OW 3055   0.682   4.406   4.787 -0.3306 -0.3077  0.0287
 1019SOL    HW1 3056   0.614   4.354   4.828 -1.1997  1.1174  0.4440
 1019SOL    HW2 3057   0.686   4.373   4.697  0.9492 -2.8130  0.9005
 1020SOL     OW 3058   1.917   0.399   6.357 -0.0186  0.1696  0.1156
 1020SOL    HW1 3059   1.884   0.436   6.439 -0.0543 -0.0858  0.2165
 1020SOL    HW2 3060   2.011   0.419   6.357 -0.0166  0.1566  0.2255
 1021SOL     OW 3061   4.346   3.446   9.126 -0.1806 -0.4181  0.1996
 1021SOL    HW1 3062   4.337   3.351   9.131 -1.4540 -0.4146 -1.0490
 1021SOL    HW2 3063   4.434   3.464   9.157  0.9537 -2.2433 -1.6915
 1022SOL     OW 3064   2.352   2.432   9.878  0.2667 -0.8147  0.6015
 1022SOL    HW1 3065   2.398   2.423   9.794  1.2212 -0.0870  1.0300
 1022SOL    HW2 3066   2.301   2.513   9.869  0.1635 -0.8758  0.6327
 1023SOL     OW 3067   2.036   1.912   7.950  1.2225 -0.2089 -0.0735
 1023SOL    HW1 3068   2.000   1.992   7.988  1.1178 -1.0548  1.7239
 1023SOL    HW2 3069   2.128   1.913   7.975  1.1551 -0.7759  0.2140
 1024SOL     OW 3070   3.471   1.668   9.918 -0.3256  0.3583  0.7490
 1024SOL    HW1 3071   3.513   1.725   9.982  0.3863  0.0558  0.5650
 1024SOL    HW2 3072   3.378   1.674   9.938 -0.0120 -0.9761  2.8461
 1025SOL     OW 3073   2.656   1.733  10.124  0.1848 -0.0426  0.1399
 1025SOL    HW1 3074   2.674   1.826  10.131 -0.7487  0.0620  1.2805
 1025SOL    HW2 3075   2.561   1.727  10.116  0.3655 -0.7893 -2.2595
 1026SOL     OW 3076   0.777   1.379   6.645  0.2963  0.3191  0.0536
 1026SOL    HW1 3077   0.775   1.472   6.670 -1.8195  0.5039 -0.6719
 1026SOL    HW2 3078   0.871   1.359   6.640  0.8170  1.9207  1.9404
 1027SOL     OW 3079   0.175   0.739   8.479  0.4761 -0.4911 -0.3110
 1027SOL    HW1 3080   0.130   0.805   8.532  2.1982 -0.2355  0.9165
 1027SOL    HW2 3081   0.192   0.783   8.395  1.4501  0.5945  0.4283
 1028SOL     OW 3082   0.197   2.053   9.673 -0.7303  0.5485  0.2030
 1028SOL    HW1 3083   0.210   1.984   9.738 -0.5097 -2.4842 -2.8188
 1028SOL    HW2 3084   0.286   2.083   9.652 -0.7343  0.7455  0.4532
 1029SOL     OW 3085   0.665   0.012   8.721 -0.0381  0.6256  0.4448
 1029SOL    HW1 3086   0.663   0.107   8.736 -0.6096  0.6573  0.1879
 1029SOL    HW2 3087   0.712  -0.023   8.798  1.4953  1.2338 -0.1691
 1030SOL     OW 3088   2.286   2.250   9.173 -0.2788 -0.5051 -0.4340
 1030SOL    HW1 3089   2.280   2.157   9.195 -0.2096  0.1429  2.6864
 1030SOL    HW2 3090   2.200   2.285   9.195  0.6120  0.6752  1.3109
 1031SOL     OW 3091   0.301   3.930   8.654  0.0947  0.3464 -0.5997
 1031SOL    HW1 3092   0.274   3.855   8.601 -1.5137  0.9554 -0.6879
 1031SOL    HW2 3093   0.387   3.905   8.687 -1.6498 -3.0588  2.0752
 1032SOL     OW 3094   3.991   4.289   8.939 -0.2852  0.0724 -0.6196
 1032SOL    HW1 3095   3.900   4.277   8.913 -0.6360  0.4541  0.3836
 1032SOL    HW2 3096   4.022   4.201   8.960 -0.8416  0.0907  0.3397
 1033SOL     OW 3097   4.318   4.880   9.504  0.3707  0.1198  0.2301
 1033SOL    HW1 3098   4.402   4.848   9.536  0.4787  2.3949  2.5494
 1033SOL    HW2 3099   4.291   4.946   9.568 -2.1652  1.0196 -1.5852
 1034SOL     OW 3100   0.235   2.195   9.304 -0.6199 -0.0857  0.3672
 1034SOL    HW1 3101   0.226   2.228   9.214 -3.1787 -0.7874  0.2911
 1034SOL    HW2 3102   0.163   2.236   9.352 -0.3282 -1.0511  1.6848
 1035SOL     OW 3103   1.219   1.236   8.694  0.2907 -0.9004 -0.0920
 1035SOL    HW1 3104   1.221   1.324   8.658  0.2449 -0.6992  0.3884
 1035SOL    HW2 3105   1.241   1.179   8.621  1.1812 -0.4294 -0.2011
 1036SOL     OW 3106   3.103   2.898   8.801 -0.3749 -0.3174  0.3024
 1036SOL    HW1 3107   3.133   2.944   8.879 -0.5085 -0.4985  0.4613
 1036SOL    HW2 3108   3.012   2.875   8.821 -0.4594 -0.2211  0.0302
 1037SOL     OW 3109   2.953   3.208   7.472 -0.4008  0.1790 -0.7625
 1037SOL    HW1 3110   2.948   3.211   7.568 -0.7789  0.9026 -0.7987
 1037SOL    HW2 3111   2.957   3.115   7.451 -0.7135 -0.0009 -0.0569
 1038SOL     OW 3112   4.716   2.118   9.050 -0.8133 -0.4608  0.7529
 1038SOL    HW1 3113   4.624   2.147   9.055 -0.0802  1.8551  3.1589
 1038SOL    HW2 3114   4.763   2.195   9.018  0.3538 -1.5826 -0.3175
 1039SOL     OW 3115   0.679   4.870   5.805 -0.2074  0.7551 -0.6694
 1039SOL    HW1 3116   0.758   4.891   5.755 -0.2028  1.0787 -0.5307
 1039SOL    HW2 3117   0.703   4.887   5.897  0.2262 -1.1525 -0.3872
 1040SOL     OW 3118   3.815   1.908   7.398  0.3998 -0.0110  0.1430
 1040SOL    HW1 3119   3.801   2.001   7.381 -0.5476 -0.0240  0.7931
 1040SOL    HW2 3120   3.858   1.905   7.483  1.9188 -0.1138 -0.5890
 1041SOL     OW 3121   2.250   3.047   8.531  0.0395  0.1152  0.0675
 1041SOL    HW1 3122   2.157   3.070   8.542  0.3687  2.1348 -0.8472
 1041SOL    HW2 3123   2.251   2.989   8.455 -0.3993  0.9107 -0.5668
 1042SOL     OW 3124   0.356   4.247   8.699 -0.4097  0.4950  0.6140
 1042SOL    HW1 3125   0.280   4.196   8.673  0.0880 -0.4156  0.9187
 1042SOL    HW2 3126   0.403   4.263   8.617 -0.5900  0.5075  0.5134
 1043SOL     OW 3127   1.522   4.072  10.116  0.1404 -0.3581 -0.4255
 1043SOL    HW1 3128   1.594   4.024  10.157  1.4648 -0.0666 -2.2886
 1043SOL    HW2 3129   1.562   4.155  10.088 -1.3293  0.4959 -0.1134
 1044SOL     OW 3130   4.472   0.449   7.773 -0.1394  0.3583  0.7074
 1044SOL    HW1 3131   4.526   0.526   7.755 -0.3527  0.0840 -1.2657
 1044SOL    HW2 3132   4.385   0.471   7.738 -0.4169 -0.4735  0.8455
 1045SOL     OW 3133   0.178   3.162   9.558  0.4419 -0.1740  0.5477
 1045SOL    HW1 3134   0.259   3.191   9.600  0.8460  0.2896 -0.5148
 1045SOL    HW2 3135   0.121   3.239   9.559  0.2565 -0.3136  0.7241
 1046SOL     OW 3136   3.130   4.225   8.734  0.0742  0.3015 -0.1239
 1046SOL    HW1 3137   3.209   4.245   8.684 -0.9149 -0.7266 -2.2342
 1046SOL    HW2 3138   3.058   4.257   8.680 -1.0204  0.6244  1.4382
 1047SOL     OW 3139   1.286   4.716   4.738 -0.2796 -0.4222  0.2661
 1047SOL    HW1 3140   1.365   4.719   4.684  0.2924 -2.1138  0.9397
 1047SOL    HW2 3141   1.313   4.671   4.818 -1.2275  1.5558  1.7975
 1048SOL     OW 3142   4.560   1.018   7.211  0.0054 -0.1372  0.2516
 1048SOL    HW1 3143   4.576   0.939   7.159  0.1759  0.0389  0.0326
 1048SOL    HW2 3144   4.579   1.090   7.151  2.0368  0.0809  1.0641
 1049SOL     OW 3145   4.451   1.434   9.768 -1.0710 -0.0870  0.2801
 1049SOL    HW1 3146   4.464   1.527   9.784 -1.0245 -0.1505  0.6230
 1049SOL    HW2 3147   4.539   1.398   9.762 -1.0591  0.0956 -1.1520
 1050SOL     OW 3148   2.455   3.427   8.110  0.1126  0.1963  0.8004
 1050SOL    HW1 3149   2.493   3.455   8.193 -0.6381  0.6469  1.0052
 1050SOL    HW2 3150   2.367   3.465   8.110  0.3971  0.9313 -0.5842
 1051SOL     OW 3151   4.473   4.930  10.371 -0.4128  0.5098 -0.2853
 1051SOL    HW1 3152   4.507   5.010  10.331  1.3481  0.9577  1.9414
 1051SOL    HW2 3153   4.397   4.908  10.317 -0.0031  2.7500 -1.9540
 1052SOL     OW 3154   2.700   2.209   9.141  0.2595  0.6824  0.6376
 1052SOL    HW1 3155   2.670   2.124   9.176 -2.9346  1.8357  1.0761
 1052SOL    HW2 3156   2.789   2.219   9.174 -0.3348 -1.1971  3.0925
 1053SOL     OW 3157   3.081   1.704   7.760  0.1199  0.4911  0.0082
 1053SOL    HW1 3158   3.163   1.656   7.752 -0.0868  0.2509 -0.7454
 1053SOL    HW2 3159   3.092   1.781   7.704  0.2013  0.9898  0.6913
 1054SOL     OW 3160   2.047   1.589   9.013  0.4677  0.1670 -0.0902
 1054SOL    HW1 3161   1.965   1.544   9.035  0.7162 -0.2304  0.0335
 1054SOL    HW2 3162   2.026   1.641   8.935  0.0246  0.2831  0.1040
 1055SOL     OW 3163   4.916   0.950   7.626  0.6388  0.0872  0.0421
 1055SOL    HW1 3164   4.928   0.934   7.533 -1.9729  0.3367 -0.4181
 1055SOL    HW2 3165   4.847   0.889   7.652 -0.0603  1.3712  1.3414
 1056SOL     OW 3166   4.870   2.377   7.126  0.2085  0.0953  0.0277
 1056SOL    HW1 3167   4.872   2.468   7.158 -0.3947 -0.0465  0.4724
 1056SOL    HW2 3168   4.947   2.337   7.167  1.5027  0.8307 -1.5267
 1057SOL     OW 3169   1.238   4.780   9.588 -0.1996  0.1689 -0.6497
 1057SOL    HW1 3170   1.154   4.739   9.569  1.1284 -3.0287 -0.2094
 1057SOL    HW2 3171   1.234   4.800   9.682 -0.3154 -0.3735 -0.5374
 1058SOL     OW 3172   1.067   4.399  10.419 -0.0374  0.0007 -0.0683
 1058SOL    HW1 3173   1.063   4.361  10.507 -2.0654  1.6488  0.6354
 1058SOL    HW2 3174   1.004   4.471  10.421  0.8650  0.9696 -2.4784
 1059SOL     OW 3175   1.148   1.122   9.270 -0.3635 -0.9607 -0.1339
 1059SOL    HW1 3176   1.243   1.112   9.276  0.3030  2.5210 -2.1110
 1059SOL    HW2 3177   1.125   1.085   9.185 -0.9609 -2.5149  0.6769
 1060SOL     OW 3178   4.422   2.350   7.595 -0.9554 -0.2014  0.2742
 1060SOL    HW1 3179   4.408   2.256   7.605 -2.8767  0.1853  1.7851
 1060SOL    HW2 3180   4.348   2.391   7.641  0.7706  2.0778  1.2344
 1061SOL     OW 3181   1.172   3.422   8.818 -0.4740 -0.0300 -0.2524
 1061SOL    HW1 3182   1.084   3.442   8.786 -0.6252 -2.1329 -1.3423
 1061SOL    HW2 3183   1.193   3.495   8.877 -2.2431  1.3898 -1.2610
 1062SOL     OW 3184   0.653   1.253   8.698 -0.5780 -0.6304  0.2588
 1062SOL    HW1 3185   0.689   1.302   8.771 -1.5716  0.8605 -0.1906
 1062SOL    HW2 3186   0.710   1.176   8.688  0.1636 -0.3159  1.9113
 1063SOL     OW 3187   4.987   0.207   6.590 -0.3721  0.3582  0.3376
 1063SOL    HW1 3188   4.949   0.276   6.645  0.4716  1.6513 -0.6403
 1063SOL    HW2 3189   5.028   0.254   6.517 -1.3910 -1.2718 -1.4011
 1064SOL     OW 3190   0.638   0.222   9.931 -0.5105  0.6379  0.3854
 1064SOL    HW1 3191   0.672   0.308   9.958 -1.2124  1.1383 -0.3040
 1064SOL    HW2 3192   0.549   0.239   9.902 -0.7902 -0.3980  0.6049
 1065SOL     OW 3193   3.664   1.853  10.022 -0.3699  0.0027 -0.0258
 1065SOL    HW1 3194   3.672   1.875  10.115 -0.5073 -0.5007  0.1099
 1065SOL    HW2 3195   3.702   1.928   9.976 -0.0958  0.1571  0.4419
 1066SOL     OW 3196   3.973   1.683  10.035  0.0404  0.1036 -0.5612
 1066SOL    HW1 3197   3.977   1.661  10.128  0.9598  0.9014 -0.3953
 1066SOL    HW2 3198   4.042   1.749  10.023 -0.5905  0.5908 -1.6461
 1067SOL     OW 3199   3.158   1.878   9.693 -0.9585 -0.6361  0.2695
 1067SOL    HW1 3200   3.165   1.798   9.640 -1.9602 -0.5005 -0.0881
 1067SOL    HW2 3201   3.218   1.939   9.651 -0.2676 -1.1574  0.4778
 1068SOL     OW 3202   2.173   4.573  10.189  0.3489  0.2765  0.3536
 1068SOL    HW1 3203   2.135   4.502  10.241 -0.3030  0.9738  0.8610
 1068SOL    HW2 3204   2.229   4.621  10.250  0.8487  0.1563 -0.0056
 1069SOL     OW 3205   3.549   0.116   9.210 -0.2174 -0.0266 -0.1285
 1069SOL    HW1 3206   3.534   0.158   9.295 -0.4554 -0.3806  0.0032
 1069SOL    HW2 3207   3.577   0.028   9.232 -0.7369 -0.2679 -0.4294
 1070SOL     OW 3208   1.301   2.769   7.451 -0.0274  0.0844 -0.2462
 1070SOL    HW1 3209   1.320   2.780   7.358  1.2585 -2.4091 -0.3560
 1070SOL    HW2 3210   1.284   2.858   7.482 -1.7890  0.8636 -3.0706
 1071SOL     OW 3211   1.560   4.313   7.541 -0.0060  0.2275 -0.3185
 1071SOL    HW1 3212   1.480   4.296   7.591 -1.0295  0.7080 -1.7280
 1071SOL    HW2 3213   1.590   4.399   7.573  0.1229 -0.0799  0.4097
 1072SOL     OW 3214   1.913   3.896   8.858  0.0379  0.5271 -0.2295
 1072SOL    HW1 3215   1.865   3.852   8.788  0.0560  0.7514 -0.3841
 1072SOL    HW2 3216   1.850   3.903   8.929 -0.3310  1.3059 -0.6242
 1073SOL     OW 3217   0.711   2.915   9.251  0.2713 -0.8707 -0.6022
 1073SOL    HW1 3218   0.731   2.826   9.221  1.4397 -0.5074 -0.9300
 1073SOL    HW2 3219   0.794   2.950   9.281 -0.5471 -0.6200  1.5632
 1074SOL     OW 3220   4.947   3.393   9.251  0.0998  0.1736 -0.6609
 1074SOL    HW1 3221   5.035   3.415   9.281  0.6224 -2.8522  0.3117
 1074SOL    HW2 3222   4.955   3.387   9.156  0.8076  0.4880 -0.6286
 1075SOL     OW 3223   1.629   0.876   7.787 -0.6428  0.1226  0.3293
 1075SOL    HW1 3224   1.567   0.841   7.724  2.0330  0.0088 -2.4666
 1075SOL    HW2 3225   1.581   0.943   7.834 -2.7346  0.3853 -2.0073
 1076SOL     OW 3226   3.030   2.682   9.230  0.1415  0.3786  0.0167
 1076SOL    HW1 3227   2.938   2.654   9.237  0.0789  0.6856  0.4826
 1076SOL    HW2 3228   3.032   2.741   9.155  0.1286 -0.2854 -0.5203
 1077SOL     OW 3229   3.634   2.114   8.350  0.6703 -0.1055  0.2081
 1077SOL    HW1 3230   3.728   2.122   8.329  0.5931 -0.1418 -0.1625
 1077SOL    HW2 3231   3.590   2.138   8.268  0.3681 -0.6730  0.2032
 1078SOL     OW 3232   1.846   3.588  10.139  0.2142  0.5813  0.2526
 1078SOL    HW1 3233   1.804   3.520  10.191  0.3786 -1.0856 -1.6651
 1078SOL    HW2 3234   1.927   3.608  10.187  0.9080 -1.6998  0.1700
 1079SOL     OW 3235   3.825   2.294   9.370  0.2946  0.0350  0.3656
 1079SOL    HW1 3236   3.764   2.364   9.347  0.6894  0.2084 -0.1674
 1079SOL    HW2 3237   3.779   2.244   9.438  0.8337  2.0289  2.3080
 1080SOL     OW 3238   1.252   3.188   8.671 -0.1092  0.0097 -0.5446
 1080SOL    HW1 3239   1.171   3.140   8.688  0.9887 -2.2548 -1.2808
 1080SOL    HW2 3240   1.228   3.280   8.679 -2.4932 -0.6210  0.3006
 1081SOL     OW 3241   1.945   1.439   9.468  0.0159  0.1597  0.0259
 1081SOL    HW1 3242   1.877   1.473   9.409 -1.0634 -1.3948  0.3173
 1081SOL    HW2 3243   1.949   1.503   9.539 -1.3558  0.1469  0.1370
 1082SOL     OW 3244   1.043   2.091  10.344 -0.3156  0.0010  0.7433
 1082SOL    HW1 3245   1.081   2.046  10.269 -1.6831 -0.7504  0.4633
 1082SOL    HW2 3246   1.059   2.184  10.328  0.6846 -0.2515  0.2615
 1083SOL     OW 3247   2.471   2.198   8.117 -0.3171  0.8134 -0.3580
 1083SOL    HW1 3248   2.381   2.209   8.085 -0.5145 -1.0896 -0.5283
 1083SOL    HW2 3249   2.477   2.106   8.140  2.0595  0.5334 -1.7847
 1084SOL     OW 3250   2.513   1.643   9.842  0.4303 -0.3603  0.3004
 1084SOL    HW1 3251   2.552   1.557   9.855  0.6572 -0.4910 -1.1250
 1084SOL    HW2 3252   2.491   1.646   9.749 -1.4189  0.3669  0.7143
 1085SOL     OW 3253   3.238   2.654   9.442 -0.6967  0.2809 -0.5034
 1085SOL    HW1 3254   3.219   2.676   9.351 -2.5611 -1.8867 -0.7472
 1085SOL    HW2 3255   3.222   2.735   9.490 -1.2680  1.0550 -1.9230
 1086SOL     OW 3256   3.169   4.777   9.117  0.0123  0.0376  1.1941
 1086SOL    HW1 3257   3.245   4.756   9.063 -0.6697 -1.4442  0.7565
 1086SOL    HW2 3258   3.204   4.822   9.193  1.1782  0.5845  0.3565
 1087SOL     OW 3259   2.818   0.931   9.151 -0.2327 -0.4120 -0.3476
 1087SOL    HW1 3260   2.787   0.976   9.230 -2.1183  1.0893 -1.8468
 1087SOL    HW2 3261   2.746   0.873   9.126  0.6581 -1.4483 -0.5741
 1088SOL     OW 3262   0.826   2.869   6.735 -0.8566 -0.4105  0.5991
 1088SOL    HW1 3263   0.897   2.816   6.771  0.1785  0.0476 -0.6822
 1088SOL    HW2 3264   0.777   2.809   6.679 -0.1985 -0.2311 -0.1795
 1089SOL     OW 3265   1.975   1.970   8.410 -0.1647  0.1876  0.0965
 1089SOL    HW1 3266   2.015   1.997   8.327  1.4623  1.5518  1.2460
 1089SOL    HW2 3267   1.882   1.990   8.400 -0.0093  0.2079 -1.4343
 1090SOL     OW 3268   3.179   3.059   7.246  0.5031 -0.0969 -0.2642
 1090SOL    HW1 3269   3.267   3.038   7.277  0.4149  0.1278  0.1371
 1090SOL    HW2 3270   3.161   3.145   7.283 -0.1187 -0.3965  0.1362
 1091SOL     OW 3271   2.449   3.164   8.387  0.6386  0.1770  0.7109
 1091SOL    HW1 3272   2.375   3.104   8.393 -0.2827  1.2470  0.5503
 1091SOL    HW2 3273   2.410   3.251   8.397  1.2101  1.1158 -3.2392
 1092SOL     OW 3274   4.944   4.917   9.300  0.0542 -0.0653 -0.2704
 1092SOL    HW1 3275   5.034   4.926   9.268  0.5133 -0.6856  0.8118
 1092SOL    HW2 3276   4.894   4.980   9.248  0.3216 -2.5297 -3.8698
 1093SOL     OW 3277   3.737   3.707   7.922 -0.2605 -0.4773  0.2436
 1093SOL    HW1 3278   3.774   3.703   8.010 -0.1923 -0.6065  0.2088
 1093SOL    HW2 3279   3.695   3.793   7.917 -3.2160 -1.7133  1.5552
 1094SOL     OW 3280   0.624   3.655  10.163 -0.0497 -0.4752 -0.6632
 1094SOL    HW1 3281   0.636   3.568  10.202  1.0012 -0.0106  0.0969
 1094SOL    HW2 3282   0.699   3.665  10.105  0.3939  0.3231  0.0335
 1095SOL     OW 3283   0.472   1.545   9.903  0.1623  0.3811  0.0678
 1095SOL    HW1 3284   0.396   1.582   9.947 -1.1856  0.6329 -2.2709
 1095SOL    HW2 3285   0.547   1.572   9.956 -1.1799  2.2156  1.1332
 1096SOL     OW 3286   3.063   0.450  10.340  0.1590 -0.1285 -0.2537
 1096SOL    HW1 3287   3.105   0.364  10.338  0.5937  0.0786 -0.2827
 1096SOL    HW2 3288   3.042   0.469  10.249 -1.0714 -0.7418 -0.1075
 1097SOL     OW 3289   4.696   1.347   9.400 -0.6653  0.3616 -0.4104
 1097SOL    HW1 3290   4.636   1.400   9.348 -1.3087 -1.1540 -1.3051
 1097SOL    HW2 3291   4.653   1.261   9.406  1.0441 -0.5394 -0.3816
 1098SOL     OW 3292   1.902   2.379   7.239  0.5201  0.2612  0.2085
 1098SOL    HW1 3293   1.920   2.302   7.186  2.3224 -0.0926  1.2351
 1098SOL    HW2 3294   1.877   2.447   7.177 -1.6957 -1.2713 -0.6716
 1099SOL     OW 3295   2.696   4.614  10.490  0.1892  0.3138 -0.3043
 1099SOL    HW1 3296   2.777   4.609  10.541 -0.6347  0.7361  1.0890
 1099SOL    HW2 3297   2.688   4.707  10.467 -2.1302  1.2698  3.4682
 1100SOL     OW 3298   0.690   2.711   9.664  1.0068 -0.0469 -0.0753
 1100SOL    HW1 3299   0.767   2.716   9.606  0.8236  2.3838 -0.2087
 1100SOL    HW2 3300   0.663   2.619   9.659  2.0126 -0.3014 -2.5143
 1101SOL     OW 3301   1.716   1.012   8.260  0.0655 -0.4911  0.2727
 1101SOL    HW1 3302   1.647   1.033   8.198 -0.6455 -1.6890  0.6265
 1101SOL    HW2 3303   1.672   1.009   8.345  1.0084  1.0470  0.8409
 1102SOL     OW 3304   4.226   0.009   9.267  0.1326  0.0268 -0.5122
 1102SOL    HW1 3305   4.263  -0.047   9.335  0.3696  1.1093  0.2774
 1102SOL    HW2 3306   4.293   0.076   9.253 -0.3056  0.3379 -1.1610
 1103SOL     OW 3307   4.645   0.493  10.095  0.0515  0.0577  0.2123
 1103SOL    HW1 3308   4.582   0.556  10.131 -0.1761 -0.3122  0.4729
 1103SOL    HW2 3309   4.614   0.477  10.006 -2.6744 -3.1665  1.5212
 1104SOL     OW 3310   4.936   1.071   9.144 -0.4153 -0.3402  0.2924
 1104SOL    HW1 3311   4.976   1.049   9.228 -0.6243  0.4872  0.6212
 1104SOL    HW2 3312   4.855   1.115   9.167 -0.7915 -0.6764 -0.3572
 1105SOL     OW 3313   1.198   4.276   8.861 -1.1131 -0.3062  0.0408
 1105SOL    HW1 3314   1.157   4.226   8.791 -1.0550 -1.1616  0.6033
 1105SOL    HW2 3315   1.267   4.219   8.894 -0.2747  0.6214 -0.0693
 1106SOL     OW 3316   1.268   2.432   8.450 -1.0129 -0.7349  0.0287
 1106SOL    HW1 3317   1.211   2.373   8.498  0.0732 -1.8041  0.0451
 1106SOL    HW2 3318   1.357   2.407   8.475 -0.4797 -0.0704 -1.0899
 1107SOL     OW 3319   0.108   0.112   9.919 -0.3004  0.4615 -0.1367
 1107SOL    HW1 3320   0.133   0.021   9.934 -1.1753 -0.0221 -1.4569
 1107SOL    HW2 3321   0.140   0.131   9.830 -2.8865  0.3792 -1.1795
 1108SOL     OW 3322   0.691   3.072   7.267  0.3125  0.6965 -0.2180
 1108SOL    HW1 3323   0.770   3.052   7.317 -0.1723 -1.2041 -0.1227
 1108SOL    HW2 3324   0.718   3.059   7.175  0.5008  1.5657 -0.2924
 1109SOL     OW 3325   0.072   4.534   7.378  0.7865  0.2945  0.3537
 1109SOL    HW1 3326   0.079   4.439   7.369 -0.6226 -0.0344  2.0949
 1109SOL    HW2 3327  -0.022   4.551   7.373  0.9859  1.5268  0.5576
 1110SOL     OW 3328   2.404   3.704   9.605 -0.5157  0.2355  0.1396
 1110SOL    HW1 3329   2.483   3.680   9.555 -1.0404  1.8324 -1.5707
 1110SOL    HW2 3330   2.350   3.625   9.603  0.4180 -0.4183  0.0770
 1111SOL     OW 3331   2.417   1.032   7.732  0.1837 -0.7201  0.6928
 1111SOL    HW1 3332   2.350   0.967   7.751  0.7018 -1.3352  0.4667
 1111SOL    HW2 3333   2.499   0.982   7.727  0.1583 -0.6598 -2.9054
 1112SOL     OW 3334   2.360   4.806   8.792  0.1333  0.9532 -0.4898
 1112SOL    HW1 3335   2.318   4.883   8.830  0.6611  0.8731  0.2691
 1112SOL    HW2 3336   2.453   4.827   8.790  0.5361 -0.3254  1.4400
 1113SOL     OW 3337   2.940   0.978   8.174  0.5487 -0.5075 -0.4374
 1113SOL    HW1 3338   3.010   0.950   8.115 -0.5690 -2.7190 -0.8128
 1113SOL    HW2 3339   2.872   1.011   8.115 -0.4869 -2.5326 -0.4697
 1114SOL     OW 3340   2.320   1.297   9.480  1.1008 -0.2882  0.2992
 1114SOL    HW1 3341   2.303   1.214   9.434  2.5577 -0.4411  0.0119
 1114SOL    HW2 3342   2.392   1.337   9.432 -0.4796  1.8823 -0.4539
 1115SOL     OW 3343   4.082   2.199   9.227  0.4507  0.4581 -0.2970
 1115SOL    HW1 3344   4.041   2.182   9.312  0.2063 -0.3039 -0.5604
 1115SOL    HW2 3345   4.013   2.240   9.175 -0.5970 -2.2604 -1.2755
 1116SOL     OW 3346   3.181   4.578   9.801 -0.5525 -0.6492  0.0677
 1116SOL    HW1 3347   3.122   4.652   9.790 -0.3566 -0.5685 -0.4490
 1116SOL    HW2 3348   3.263   4.607   9.760  0.1434 -0.4049  1.5670
 1117SOL     OW 3349   4.657   3.263   9.076 -0.5640 -0.6266 -0.4068
 1117SOL    HW1 3350   4.722   3.212   9.123  0.5854  1.0054 -0.1638
 1117SOL    HW2 3351   4.585   3.274   9.138  0.9173  1.4757  1.0730
 1118SOL     OW 3352   2.336   4.897   9.441  0.4567 -0.0456  0.0571
 1118SOL    HW1 3353   2.270   4.965   9.458 -0.3975 -0.6999 -0.5343
 1118SOL    HW2 3354   2.418   4.945   9.431 -0.1392  0.9073 -0.4055
 1119SOL     OW 3355   3.405   0.441  10.012  0.1635  0.7725 -0.6609
 1119SOL    HW1 3356   3.462   0.398  10.075  0.2576  1.9145  0.0649
 1119SOL    HW2 3357   3.372   0.370   9.957 -0.3782 -0.3467  1.0273
 1120SOL     OW 3358   1.076   3.271   7.681 -0.3994 -0.3610  0.0702
 1120SOL    HW1 3359   1.059   3.350   7.630 -1.5811 -0.0130  0.9403
 1120SOL    HW2 3360   0.989   3.235   7.699  0.0827 -1.4593  0.3132
 1121SOL     OW 3361   0.191   0.012   8.917 -0.2211  0.4145 -0.2262
 1121SOL    HW1 3362   0.239  -0.071   8.914  1.0276  1.1386 -2.6807
 1121SOL    HW2 3363   0.256   0.077   8.942 -1.1079  0.7691  1.2986
 1122SOL     OW 3364   3.134   1.612   9.555 -0.6426 -0.8133  0.3146
 1122SOL    HW1 3365   3.213   1.558   9.552 -0.9995 -1.3083 -0.5436
 1122SOL    HW2 3366   3.086   1.580   9.632  0.0927 -0.3380  0.9932
 1123SOL     OW 3367   2.036   1.122   8.839 -0.7523  0.3760 -0.2488
 1123SOL    HW1 3368   2.117   1.150   8.881 -0.9036 -0.0975  0.3731
 1123SOL    HW2 3369   1.970   1.127   8.908 -0.7413 -1.7286 -0.0250
 1124SOL     OW 3370   4.876   2.891   8.205  0.0989  0.2561  0.2033
 1124SOL    HW1 3371   4.866   2.970   8.152  0.6227  0.6759  0.7200
 1124SOL    HW2 3372   4.970   2.871   8.202  0.0750  0.0598  0.6567
 1125SOL     OW 3373   4.832   0.535   1.167 -0.4570  0.7885  0.1667
 1125SOL    HW1 3374   4.857   0.574   1.083  0.3126  2.4328  1.0997
 1125SOL    HW2 3375   4.889   0.578   1.231 -0.3225 -1.1577  1.4246
 1126SOL     OW 3376   4.398   3.470   9.583  0.2913  0.0313 -0.0873
 1126SOL    HW1 3377   4.382   3.505   9.670 -0.9750  0.1220 -0.3412
 1126SOL    HW2 3378   4.338   3.519   9.526  0.5941 -0.5244 -0.9051
 1127SOL     OW 3379   2.654   3.138   8.563 -0.2095 -0.2957 -0.8896
 1127SOL    HW1 3380   2.637   3.190   8.641 -1.9928 -0.2478 -1.2666
 1127SOL    HW2 3381   2.576   3.150   8.508  1.6864  1.1257 -3.5111
 1128SOL     OW 3382   4.087   4.972   8.028  0.3009  1.2466 -1.1477
 1128SOL    HW1 3383   4.014   4.925   7.987  1.4442  0.4590 -2.3465
 1128SOL    HW2 3384   4.126   4.909   8.089  0.1377  1.5962 -0.6673
 1129SOL     OW 3385   0.744   3.240  10.116  0.2760 -0.3003  0.1051
 1129SOL    HW1 3386   0.805   3.313  10.121  1.8703 -1.6283  0.9559
 1129SOL    HW2 3387   0.799   3.162  10.111 -1.3424 -1.5884  1.1482
 1130SOL     OW 3388   2.739   1.359   7.338 -0.4665 -0.4747  0.5367
 1130SOL    HW1 3389   2.660   1.407   7.364  1.0314  0.9522  2.8234
 1130SOL    HW2 3390   2.706   1.279   7.299 -3.0889 -0.6087  2.6936
 1131SOL     OW 3391   1.412   4.876   7.819  0.1343 -0.5282 -1.0474
 1131SOL    HW1 3392   1.507   4.874   7.835  0.2432  1.1526 -1.2860
 1131SOL    HW2 3393   1.381   4.790   7.848  1.5822 -0.7485 -0.0318
 1132SOL     OW 3394   4.539   2.572   9.441 -1.1411  0.1207 -0.2303
 1132SOL    HW1 3395   4.562   2.607   9.528  1.1373 -0.5436 -0.4939
 1132SOL    HW2 3396   4.445   2.557   9.445 -0.9463 -0.9274  2.5322
 1133SOL     OW 3397   2.663   0.468   9.880 -0.7001 -0.1893 -0.8837
 1133SOL    HW1 3398   2.683   0.474   9.787  0.4918 -0.1213 -0.6293
 1133SOL    HW2 3399   2.720   0.399   9.913  0.5502  1.3041  0.2143
 1134SOL     OW 3400   2.641   0.726   9.014  0.4843 -0.1479  0.4129
 1134SOL    HW1 3401   2.553   0.698   9.040 -0.7174 -0.8087 -3.6959
 1134SOL    HW2 3402   2.674   0.654   8.960  1.3429  2.2193 -2.4378
 1135SOL     OW 3403   4.225   1.956   8.096 -0.1711  0.5600 -0.8638
 1135SOL    HW1 3404   4.133   1.938   8.078  0.2864 -0.9580 -1.8289
 1135SOL    HW2 3405   4.264   1.870   8.110  0.7784  1.2824  1.3687
 1136SOL     OW 3406   2.351   1.477   7.673 -0.4710 -0.3812 -0.5260
 1136SOL    HW1 3407   2.319   1.538   7.607 -0.0467  1.3989  0.8208
 1136SOL    HW2 3408   2.282   1.476   7.739  0.7464  0.9965  0.8600
 1137SOL     OW 3409   1.312   4.328   9.163  0.5725 -0.2357 -0.4446
 1137SOL    HW1 3410   1.299   4.243   9.205 -0.1282  0.3216  0.5136
 1137SOL    HW2 3411   1.306   4.310   9.069  3.1325 -1.6767 -0.4107
 1138SOL     OW 3412   4.576   0.982   8.042 -1.0768 -0.5577  0.3015
 1138SOL    HW1 3413   4.582   0.983   8.137 -2.0564  2.0399  0.4368
 1138SOL    HW2 3414   4.564   0.890   8.019 -2.8209 -1.0726  2.8528
 1139SOL     OW 3415   4.004   3.034   9.502  0.2757  0.9798  0.8674
 1139SOL    HW1 3416   3.937   3.075   9.557  0.5712 -1.0923  2.9088
 1139SOL    HW2 3417   4.046   2.969   9.558  0.3066 -1.6479 -1.9144
 1140SOL     OW 3418   3.605   4.833   9.806 -0.0094 -0.3991 -0.0977
 1140SOL    HW1 3419   3.554   4.791   9.876 -0.6950 -0.9993 -0.9307
 1140SOL    HW2 3420   3.692   4.843   9.843 -0.0490 -1.7837  0.4589
 1141SOL     OW 3421   4.155   0.324   7.109  0.1187  0.7963 -0.4638
 1141SOL    HW1 3422   4.198   0.268   7.045 -0.3874  0.5023 -0.5470
 1141SOL    HW2 3423   4.130   0.266   7.181  0.6246  1.1121 -0.0158
 1142SOL     OW 3424   0.341   3.658  10.141  0.1519  0.0954  0.7194
 1142SOL    HW1 3425   0.344   3.686  10.049  2.2089 -2.4327 -0.0935
 1142SOL    HW2 3426   0.428   3.681  10.175 -0.4922  0.7349  2.0063
 1143SOL     OW 3427   4.193   2.885   5.973  1.0393  0.0130  0.5668
 1143SOL    HW1 3428   4.223   2.854   5.887  0.6799  0.7800  0.1524
 1143SOL    HW2 3429   4.165   2.975   5.957 -0.6540 -0.3775  1.1130
 1144SOL     OW 3430   2.447   1.447   6.232 -0.6480  0.0318  0.5413
 1144SOL    HW1 3431   2.425   1.421   6.322 -1.2485  0.5453  0.5417
 1144SOL    HW2 3432   2.374   1.501   6.204 -0.0675  0.5664  0.0329
 1145SOL     OW 3433   1.041   2.955   4.822  0.2810 -0.4395  0.0094
 1145SOL    HW1 3434   0.973   3.009   4.781  0.3981 -1.8341 -2.1959
 1145SOL    HW2 3435   1.119   2.969   4.768  0.6657 -1.7721  0.1889
 1146SOL     OW 3436   0.258   4.181   7.714 -0.6345 -0.0591  0.1116
 1146SOL    HW1 3437   0.248   4.137   7.630 -0.1270  2.0037 -1.1091
 1146SOL    HW2 3438   0.350   4.209   7.716 -0.0393 -1.8373  2.3363
 1147SOL     OW 3439   2.497   1.471   6.617  0.3156  0.8144  0.4577
 1147SOL    HW1 3440   2.544   1.543   6.575 -2.3553  2.8604  0.7379
 1147SOL    HW2 3441   2.412   1.470   6.574 -1.7975  1.6035  4.1995
 1148SOL     OW 3442   3.505   3.088   5.494 -0.5145 -0.3943  0.5316
 1148SOL    HW1 3443   3.440   3.019   5.475 -0.4501 -0.2727 -0.1679
 1148SOL    HW2 3444   3.513   3.088   5.589 -0.0165 -1.8159  0.5091
 1149SOL     OW 3445   0.490   1.852   5.644  0.0589  0.1853  0.0268
 1149SOL    HW1 3446   0.525   1.763   5.647  1.6642  0.7329 -0.9943
 1149SOL    HW2 3447   0.411   1.845   5.591  0.0013 -0.6678  0.2078
 1150SOL     OW 3448   2.820   2.480   5.379 -0.5615  0.0362  0.3014
 1150SOL    HW1 3449   2.829   2.567   5.418 -1.0953 -0.8321  2.5320
 1150SOL    HW2 3450   2.905   2.439   5.391 -0.3407  0.1840 -0.6576
 1151SOL     OW 3451   3.550   0.469   5.067 -0.1744 -0.0507  0.7102
 1151SOL    HW1 3452   3.635   0.513   5.059 -0.3967  0.5892  1.6918
 1151SOL    HW2 3453   3.566   0.399   5.131 -0.2652 -0.2390  0.5258
 1152SOL     OW 3454   0.146   2.956   9.349  0.0610 -0.7508 -0.2492
 1152SOL    HW1 3455   0.208   2.885   9.367 -1.3216 -1.8873  0.2686
 1152SOL    HW2 3456   0.142   3.005   9.431 -0.7236 -1.5113  0.1899
 1153SOL     OW 3457   2.180   2.812   5.809  0.1735  0.1894 -0.2098
 1153SOL    HW1 3458   2.191   2.815   5.904  0.9609 -1.4522 -0.2196
 1153SOL    HW2 3459   2.214   2.726   5.784 -1.1564  0.0867 -1.8282
 1154SOL     OW 3460   4.879   0.214   7.821  0.0923 -0.0637  0.7216
 1154SOL    HW1 3461   4.951   0.274   7.804 -1.1052  1.5046  1.0017
 1154SOL    HW2 3462   4.861   0.223   7.914  0.1238 -1.1431  0.8442
 1155SOL     OW 3463   4.360   0.282   4.556 -0.4010 -0.0750 -0.4275
 1155SOL    HW1 3464   4.394   0.220   4.491  0.2492 -0.9510  0.7015
 1155SOL    HW2 3465   4.320   0.352   4.505 -1.3002 -1.5107 -1.7507
 1156SOL     OW 3466   0.807   1.251   8.989 -0.0765 -0.3230  0.6269
 1156SOL    HW1 3467   0.856   1.226   8.910 -1.4030  1.8504 -1.0225
 1156SOL    HW2 3468   0.845   1.335   9.015 -2.7813  1.5115 -0.7984
 1157SOL     OW 3469   3.277   1.615   6.839  0.7023  0.5275  0.0232
 1157SOL    HW1 3470   3.308   1.630   6.750  2.0848  0.4538  0.4668
 1157SOL    HW2 3471   3.235   1.529   6.834 -1.5380  1.6136 -1.0926
 1158SOL     OW 3472   0.457   0.882   7.394 -0.6329  0.2366  0.2508
 1158SOL    HW1 3473   0.420   0.970   7.388  1.3746  1.0829 -0.7982
 1158SOL    HW2 3474   0.431   0.851   7.481  2.2732  3.7287  2.7068
 1159SOL     OW 3475   1.930   4.696   6.294 -0.2423  0.6696  0.1884
 1159SOL    HW1 3476   1.972   4.774   6.331 -0.4721  0.3763  1.0841
 1159SOL    HW2 3477   1.991   4.625   6.312 -1.4477  0.0795  2.2884
 1160SOL     OW 3478   3.658   4.129   5.908 -0.0108  0.9230  0.2399
 1160SOL    HW1 3479   3.593   4.060   5.895  0.9944 -0.1348  0.6609
 1160SOL    HW2 3480   3.674   4.164   5.821 -0.6518  0.7444  0.0451
 1161SOL     OW 3481   4.566   1.161   8.906 -0.8202  0.0844  0.4937
 1161SOL    HW1 3482   4.579   1.185   8.814  3.2472 -0.6488  0.6747
 1161SOL    HW2 3483   4.501   1.092   8.904 -0.2039 -0.5080 -2.0004
 1162SOL     OW 3484   1.859   3.250   4.792 -0.7311 -0.6185  0.8090
 1162SOL    HW1 3485   1.942   3.236   4.837 -0.8401 -0.0236  1.2092
 1162SOL    HW2 3486   1.829   3.163   4.769  1.7774 -0.7800 -2.6795
 1163SOL     OW 3487   0.344   3.463   6.171  0.1046  0.3387 -0.3821
 1163SOL    HW1 3488   0.396   3.495   6.098  1.3850  1.2825  0.8823
 1163SOL    HW2 3489   0.264   3.517   6.170  1.0412  1.7988  0.1191
 1164SOL     OW 3490   4.475   3.528   5.668 -0.1386  0.0051  0.6051
 1164SOL    HW1 3491   4.534   3.566   5.603 -0.2658 -3.1723 -1.5940
 1164SOL    HW2 3492   4.517   3.445   5.694 -2.9800 -1.8283 -0.2006
 1165SOL     OW 3493   0.257   2.176   5.636  0.1290 -0.5146 -0.2043
 1165SOL    HW1 3494   0.193   2.107   5.623  0.5406 -0.7553 -1.0150
 1165SOL    HW2 3495   0.299   2.186   5.551  1.3658 -0.5698  0.3768
 1166SOL     OW 3496   4.596   2.641   8.932 -0.2327  0.6930 -0.6269
 1166SOL    HW1 3497   4.565   2.670   9.018 -0.2229  1.8100 -0.9815
 1166SOL    HW2 3498   4.669   2.583   8.952  0.0355  1.2653  0.1225
 1167SOL     OW 3499   2.028   3.642   4.351  0.0624  0.7072 -0.4775
 1167SOL    HW1 3500   1.960   3.588   4.390 -0.2902  2.6053  1.7517
 1167SOL    HW2 3501   2.091   3.580   4.315 -0.6159 -1.1708  1.4067
 1168SOL     OW 3502   0.383   3.519   7.065  0.5650 -0.1490  0.0637
 1168SOL    HW1 3503   0.449   3.451   7.074  0.4126 -0.3115 -0.0466
 1168SOL    HW2 3504   0.328   3.511   7.143  0.2874 -0.4332 -0.1592
 1169SOL     OW 3505   2.269   3.186   6.986  0.2629  0.5927 -0.6218
 1169SOL    HW1 3506   2.289   3.109   7.039 -0.9614  0.4646 -0.3234
 1169SOL    HW2 3507   2.174   3.188   6.980  0.1744  2.7251  0.3768
 1170SOL     OW 3508   0.011   2.900   6.964 -0.6773 -0.2891 -0.5845
 1170SOL    HW1 3509   0.015   2.846   7.043  3.8832 -0.1459 -0.4412
 1170SOL    HW2 3510   0.035   2.840   6.893  3.5333  1.0817 -0.5505
 1171SOL     OW 3511   2.389   4.229   8.199 -0.7095 -0.1482 -0.1905
 1171SOL    HW1 3512   2.296   4.227   8.180 -0.8808  0.1282  0.5906
 1171SOL    HW2 3513   2.395   4.230   8.294  0.1489 -3.0048 -0.1197
 1172SOL     OW 3514   0.171   0.435   4.711  0.1217  0.5205  0.0529
 1172SOL    HW1 3515   0.121   0.415   4.632 -0.4927 -0.0227  0.5658
 1172SOL    HW2 3516   0.173   0.531   4.715  0.3315  0.5538 -0.7210
 1173SOL     OW 3517   4.972   1.360   6.432 -0.2904 -0.3514  0.2928
 1173SOL    HW1 3518   4.957   1.305   6.509 -4.2947  1.0178  0.7416
 1173SOL    HW2 3519   5.008   1.441   6.468  0.4987 -0.6971  0.3100
 1174SOL     OW 3520   4.018   2.896   7.898  0.2688 -0.1616  0.1709
 1174SOL    HW1 3521   3.990   2.860   7.813 -0.2722  1.0779 -0.1984
 1174SOL    HW2 3522   4.079   2.831   7.932 -0.1749 -1.1071 -0.7691
 1175SOL     OW 3523   2.981   0.109   6.750  0.2431 -0.1219 -0.0197
 1175SOL    HW1 3524   2.902   0.055   6.738 -0.4719  0.0234  3.1303
 1175SOL    HW2 3525   3.053   0.051   6.724 -0.7956  0.0005 -3.7448
 1176SOL     OW 3526   4.126   2.393   6.432  0.2572  0.2870  0.5608
 1176SOL    HW1 3527   4.050   2.335   6.425 -0.5065  1.3883 -0.7054
 1176SOL    HW2 3528   4.107   2.466   6.372  0.1869  2.9503  3.5453
 1177SOL     OW 3529   1.241   0.475   5.539 -0.0797  0.3946  0.0576
 1177SOL    HW1 3530   1.294   0.479   5.460 -1.2980  0.7011 -0.7786
 1177SOL    HW2 3531   1.235   0.381   5.559  0.8712  0.3667  0.2422
 1178SOL     OW 3532   2.340   0.765   6.537 -0.3829 -0.8024 -0.5198
 1178SOL    HW1 3533   2.342   0.775   6.633  1.3465 -1.3163 -0.4659
 1178SOL    HW2 3534   2.311   0.850   6.505  2.6260  0.7035  0.3649
 1179SOL     OW 3535   1.085   0.170   7.133  0.1961 -0.0395 -0.2448
 1179SOL    HW1 3536   1.140   0.210   7.200  0.1553  0.5144 -0.5417
 1179SOL    HW2 3537   1.008   0.138   7.180  0.2862  0.1169  0.0074
 1180SOL     OW 3538   0.638   3.185   5.082 -0.5247 -0.6010 -0.0758
 1180SOL    HW1 3539   0.596   3.179   5.168 -0.6965 -0.4613 -0.1493
 1180SOL    HW2 3540   0.714   3.127   5.088 -0.1414 -0.0699  0.4043
 1181SOL     OW 3541   2.313   3.359   4.779 -0.0604  0.4178  0.0025
 1181SOL    HW1 3542   2.399   3.374   4.818  0.2507  0.5342 -0.6984
 1181SOL    HW2 3543   2.326   3.284   4.721 -0.6143 -0.0204  0.4289
 1182SOL     OW 3544   2.920   1.347   5.513  0.1102  0.2848  0.4672
 1182SOL    HW1 3545   2.956   1.273   5.464  1.7752 -0.0765  2.1586
 1182SOL    HW2 3546   2.917   1.418   5.448 -1.8800 -1.2545 -1.2968
 1183SOL     OW 3547   0.060   0.737   8.004  0.3121 -0.5303  0.1970
 1183SOL    HW1 3548   0.028   0.651   8.029 -1.5919 -0.0613 -0.4338
 1183SOL    HW2 3549  -0.018   0.792   8.003  1.5220  1.2833  0.8506
 1184SOL     OW 3550   4.007   1.934   5.919 -0.1788  0.4015 -0.4202
 1184SOL    HW1 3551   3.954   1.883   5.980 -2.5883  0.8928 -1.9880
 1184SOL    HW2 3552   3.965   2.019   5.915  1.5466  1.2819 -0.7467
 1185SOL     OW 3553   1.365   3.366   6.457  0.2671  0.1336 -0.0290
 1185SOL    HW1 3554   1.306   3.425   6.410  0.6536 -0.6909 -1.6169
 1185SOL    HW2 3555   1.309   3.292   6.482  0.7456 -1.2165 -2.5683
 1186SOL     OW 3556   1.703   4.793   6.114 -0.6562  0.0802 -0.0235
 1186SOL    HW1 3557   1.748   4.754   6.189  1.8301  2.4534 -0.1315
 1186SOL    HW2 3558   1.683   4.719   6.057  1.3423 -1.3379  0.9914
 1187SOL     OW 3559   4.384   3.483   4.860 -0.1973  0.1020  0.1126
 1187SOL    HW1 3560   4.411   3.570   4.831  1.4803 -0.1061  0.9532
 1187SOL    HW2 3561   4.435   3.422   4.806  0.0888 -0.3311  0.8600
 1188SOL     OW 3562   0.001   3.634   6.703 -1.2958 -0.2904 -0.4471
 1188SOL    HW1 3563   0.023   3.546   6.674  0.5662 -0.2497  0.6800
 1188SOL    HW2 3564   0.004   3.687   6.623  1.5591 -0.5698 -0.6335
 1189SOL     OW 3565   0.168   2.524   8.322 -0.4064 -0.0794 -0.2341
 1189SOL    HW1 3566   0.197   2.615   8.317  1.5098 -0.6439 -0.1501
 1189SOL    HW2 3567   0.100   2.524   8.389  1.6204  0.8454  1.9724
 1190SOL     OW 3568   2.127   3.556   5.151 -0.4627  0.6786 -0.1574
 1190SOL    HW1 3569   2.156   3.642   5.183  0.8763  1.1854 -2.5128
 1190SOL    HW2 3570   2.034   3.552   5.174 -0.1926  2.0699  1.3700
 1191SOL     OW 3571   3.277   0.741   7.014 -0.1281  0.4560 -0.4828
 1191SOL    HW1 3572   3.257   0.799   6.940 -1.8919  0.2516 -0.2167
 1191SOL    HW2 3573   3.296   0.801   7.086 -2.7616  0.8487  0.0189
 1192SOL     OW 3574   4.392   1.730   8.146 -0.7251  0.0703  0.7622
 1192SOL    HW1 3575   4.422   1.642   8.167 -0.1173  0.2131  0.4984
 1192SOL    HW2 3576   4.446   1.757   8.072  0.5654  1.4757  2.1439
 1193SOL     OW 3577   1.259   4.982   6.459  0.1955 -0.2002  0.7605
 1193SOL    HW1 3578   1.192   5.012   6.398 -2.0432 -2.1737  2.0611
 1193SOL    HW2 3579   1.304   4.911   6.413  0.9174  0.6015  0.1864
 1194SOL     OW 3580   1.504   4.161   6.023  0.4700 -0.3669 -0.3506
 1194SOL    HW1 3581   1.437   4.195   6.083  0.3076  1.0439 -1.2855
 1194SOL    HW2 3582   1.465   4.169   5.936  1.5039 -0.3511 -0.8286
 1195SOL     OW 3583   3.803   3.879   6.953  0.4561 -0.9375  0.2887
 1195SOL    HW1 3584   3.852   3.858   6.873 -0.3152  1.0052 -0.7501
 1195SOL    HW2 3585   3.713   3.892   6.923  0.1015 -0.4310  1.5267
 1196SOL     OW 3586   0.793   1.274   5.040 -0.8875  0.0901 -0.0355
 1196SOL    HW1 3587   0.878   1.263   5.082  0.1235  1.4993 -1.5676
 1196SOL    HW2 3588   0.755   1.186   5.039  0.4753 -0.5429  0.8088
 1197SOL     OW 3589   2.990   4.054   6.889  0.4284 -0.2024 -0.5146
 1197SOL    HW1 3590   2.993   3.985   6.823  1.8215 -1.2874  0.6057
 1197SOL    HW2 3591   2.982   4.135   6.839  0.7491 -1.0252 -1.9625
 1198SOL     OW 3592   2.447   0.648   6.294 -0.2270 -0.1755  0.3932
 1198SOL    HW1 3593   2.404   0.670   6.211  0.6071 -0.7110 -0.1956
 1198SOL    HW2 3594   2.398   0.697   6.360 -0.9478  0.2053 -0.4043
 1199SOL     OW 3595   2.918   4.351   7.441  0.6225  0.6925 -1.2849
 1199SOL    HW1 3596   2.983   4.397   7.388 -0.2615  2.3123 -1.0299
 1199SOL    HW2 3597   2.859   4.312   7.376  1.9205 -0.9960 -1.5220
 1200SOL     OW 3598   2.606   3.320   6.311 -0.3385 -0.2646  0.5296
 1200SOL    HW1 3599   2.586   3.395   6.368 -0.4853 -0.6353  0.9756
 1200SOL    HW2 3600   2.684   3.281   6.349 -0.3307 -0.4066  0.3711
 1201SOL     OW 3601   2.403   2.462   6.739 -0.3554 -0.8195  0.1335
 1201SOL    HW1 3602   2.452   2.478   6.658 -0.6742  0.2939  0.1400
 1201SOL    HW2 3603   2.390   2.367   6.741  1.6534 -1.1433  0.0589
 1202SOL     OW 3604   4.728   3.198   8.783 -0.1993 -0.2630 -0.1899
 1202SOL    HW1 3605   4.747   3.281   8.740 -1.0451  0.2080  0.3397
 1202SOL    HW2 3606   4.651   3.215   8.838  0.3704 -1.0499  0.9050
 1203SOL     OW 3607   2.525   4.359   6.049  0.3942 -0.6272 -0.2410
 1203SOL    HW1 3608   2.451   4.413   6.079  0.1008  0.1748 -2.2822
 1203SOL    HW2 3609   2.559   4.405   5.973  4.0577 -0.1271  1.4650
 1204SOL     OW 3610   2.684   4.512   5.032 -0.3463 -0.4689  0.0477
 1204SOL    HW1 3611   2.694   4.417   5.027  0.6074 -0.3172 -1.4621
 1204SOL    HW2 3612   2.768   4.544   5.064 -1.6757 -0.2841  3.8857
 1205SOL     OW 3613   1.265   0.168   5.585 -0.3645 -0.0027  0.0576
 1205SOL    HW1 3614   1.360   0.174   5.599 -0.1338 -0.4976 -1.1602
 1205SOL    HW2 3615   1.230   0.137   5.668  0.5111  0.4391  0.6072
 1206SOL     OW 3616   3.780   4.594   8.449 -0.0857  0.4310  0.0880
 1206SOL    HW1 3617   3.739   4.659   8.505 -1.0910  1.3306 -1.6070
 1206SOL    HW2 3618   3.870   4.588   8.480 -0.8962 -0.0806  2.5838
 1207SOL     OW 3619   3.664   3.569   5.669 -0.6480  0.7801 -0.0950
 1207SOL    HW1 3620   3.669   3.508   5.742 -2.5304  1.7087  0.8716
 1207SOL    HW2 3621   3.756   3.585   5.645 -0.0630 -1.4511  0.3929
 1208SOL     OW 3622   2.112   0.190   6.544  0.0505 -0.1803  0.1258
 1208SOL    HW1 3623   2.111   0.224   6.634  2.8171  2.4843 -0.6936
 1208SOL    HW2 3624   2.025   0.210   6.510 -0.6604 -0.1621  1.8288
 1209SOL     OW 3625   1.419   0.212   6.548 -0.2694  0.6255  0.1158
 1209SOL    HW1 3626   1.512   0.194   6.555 -0.7199 -1.2532  3.3532
 1209SOL    HW2 3627   1.384   0.142   6.492  0.1248  0.8400 -0.4040
 1210SOL     OW 3628   4.530   2.476   5.852 -0.4542 -0.8088 -0.0506
 1210SOL    HW1 3629   4.582   2.431   5.919 -1.3995 -0.5120  0.9160
 1210SOL    HW2 3630   4.456   2.418   5.836 -1.1990 -0.0633  0.5329
 1211SOL     OW 3631   1.821   1.129   5.234  0.0965  0.2954  0.7578
 1211SOL    HW1 3632   1.916   1.114   5.226 -0.3791 -1.8509 -2.7834
 1211SOL    HW2 3633   1.801   1.105   5.324  2.6271 -1.3284  0.9950
 1212SOL     OW 3634   3.997   4.377   5.520 -0.1514 -0.1205 -0.0876
 1212SOL    HW1 3635   4.042   4.294   5.507  1.4552  0.4608  1.4178
 1212SOL    HW2 3636   4.050   4.441   5.472  1.1992  0.6910  2.3047
 1213SOL     OW 3637   2.914   4.857   5.067  0.7409 -0.3993 -0.5770
 1213SOL    HW1 3638   2.864   4.808   5.002  0.3010  1.4918 -1.7670
 1213SOL    HW2 3639   3.001   4.865   5.029  1.6260 -2.5091  0.8623
 1214SOL     OW 3640   4.460   4.534   7.018 -0.4250  0.8831 -0.4238
 1214SOL    HW1 3641   4.480   4.541   7.111 -0.4299 -2.6079 -0.0479
 1214SOL    HW2 3642   4.543   4.554   6.974  0.4210 -0.3834  0.5136
 1215SOL     OW 3643   4.694   1.561   5.442 -0.4749  0.5015  0.3624
 1215SOL    HW1 3644   4.630   1.560   5.514  0.2257  0.7988  1.0118
 1215SOL    HW2 3645   4.668   1.488   5.386 -0.0970 -0.8056  1.7916
 1216SOL     OW 3646   2.019   1.692   7.772  0.0930 -0.0882  0.8426
 1216SOL    HW1 3647   1.963   1.658   7.842  0.5510 -0.1775  1.1758
 1216SOL    HW2 3648   2.055   1.774   7.807  0.0527  0.0460  0.5746
 1217SOL     OW 3649   0.648   0.230   5.252  0.6725 -0.1665 -0.0356
 1217SOL    HW1 3650   0.723   0.239   5.311  0.3811  1.5994  0.1086
 1217SOL    HW2 3651   0.590   0.168   5.297  1.5324 -0.7043  0.3658
 1218SOL     OW 3652   4.890   3.442   7.073 -0.1780  0.3718  0.7097
 1218SOL    HW1 3653   4.890   3.380   7.000  0.2854  1.1560  0.0301
 1218SOL    HW2 3654   4.864   3.525   7.034 -3.1139  0.1895  1.9981
 1219SOL     OW 3655   0.851   1.273   6.927  0.0991 -0.4908  0.1802
 1219SOL    HW1 3656   0.908   1.213   6.879  1.7618 -1.4637  3.1227
 1219SOL    HW2 3657   0.765   1.232   6.925  0.3994 -1.0851 -0.9255
 1220SOL     OW 3658   4.990   4.843   5.904 -0.1981 -0.2063 -0.4455
 1220SOL    HW1 3659   4.898   4.820   5.890 -0.0348 -1.4700  0.4131
 1220SOL    HW2 3660   5.001   4.842   5.999  1.2489 -2.5797 -0.5418
 1221SOL     OW 3661   3.141   1.816   6.954 -0.2713 -0.4865 -0.1172
 1221SOL    HW1 3662   3.171   1.731   6.921  0.2520  0.3597 -1.9627
 1221SOL    HW2 3663   3.066   1.838   6.900 -1.8556 -0.7477  1.8512
 1222SOL     OW 3664   4.068   1.199   7.265  0.3637 -0.4172 -0.2263
 1222SOL    HW1 3665   4.146   1.221   7.213  0.6529 -0.8930  0.0061
 1222SOL    HW2 3666   4.096   1.129   7.323 -0.9067 -2.4771 -1.9513
 1223SOL     OW 3667   0.345   4.526   7.494  0.4993 -0.2861 -0.7188
 1223SOL    HW1 3668   0.275   4.574   7.449 -0.0438  0.4808  0.8787
 1223SOL    HW2 3669   0.304   4.492   7.573  1.3241 -1.9899 -0.9779
 1224SOL     OW 3670   1.696   2.831   7.102 -0.6475  0.7982  0.3388
 1224SOL    HW1 3671   1.642   2.762   7.139 -2.0653 -0.3983 -3.4884
 1224SOL    HW2 3672   1.666   2.911   7.146 -0.4666 -0.6509  3.3224
 1225SOL     OW 3673   1.726   4.335   6.106 -0.0191 -0.4691 -0.2144
 1225SOL    HW1 3674   1.718   4.318   6.200  0.1815 -0.1435 -0.1377
 1225SOL    HW2 3675   1.668   4.270   6.065 -1.2710  0.3424  0.2166
 1226SOL     OW 3676   0.240   0.731   4.766  0.2961 -0.0112  0.9149
 1226SOL    HW1 3677   0.319   0.708   4.816  0.4808 -0.4029  0.4491
 1226SOL    HW2 3678   0.219   0.820   4.794 -0.6262 -0.8251  2.9996
 1227SOL     OW 3679   2.415   3.266   7.859 -0.5351  0.0555 -0.3886
 1227SOL    HW1 3680   2.330   3.223   7.861 -1.7088  2.2349  1.8203
 1227SOL    HW2 3681   2.425   3.304   7.947  1.5720  1.9936 -1.3584
 1228SOL     OW 3682   3.192   4.235   7.074 -0.2685 -0.1058  0.3677
 1228SOL    HW1 3683   3.136   4.224   6.997  1.5574 -0.5296 -0.9440
 1228SOL    HW2 3684   3.144   4.191   7.144 -1.2918 -1.0121 -0.8466
 1229SOL     OW 3685   1.751   3.223   4.529  0.2823  0.5403 -0.4615
 1229SOL    HW1 3686   1.796   3.165   4.591  1.0977  1.5756 -0.0651
 1229SOL    HW2 3687   1.662   3.189   4.525  0.4062  0.0367  0.7534
 1230SOL     OW 3688   2.331   0.383   8.191  0.3623  0.7065  0.2624
 1230SOL    HW1 3689   2.426   0.381   8.180  0.4253 -0.4285  0.8073
 1230SOL    HW2 3690   2.317   0.346   8.278 -0.4973  2.3829  0.8727
 1231SOL     OW 3691   4.242   4.391   5.724 -0.2769  0.3073 -0.1633
 1231SOL    HW1 3692   4.300   4.344   5.784  1.0074 -0.1494 -1.6897
 1231SOL    HW2 3693   4.239   4.335   5.646 -0.9784  1.4233 -0.9570
 1232SOL     OW 3694   4.875   3.600   7.391  0.6448  0.2354  0.3340
 1232SOL    HW1 3695   4.871   3.507   7.369 -3.0934  0.6037 -1.2358
 1232SOL    HW2 3696   4.895   3.643   7.308 -1.1784  0.9449  0.2146
 1233SOL     OW 3697   2.073   4.571   7.357  0.5554 -0.5580  0.2903
 1233SOL    HW1 3698   2.048   4.596   7.446  0.3414  0.1779  0.0307
 1233SOL    HW2 3699   2.009   4.505   7.331 -0.4452  0.4707  0.0612
 1234SOL     OW 3700   0.711   2.284   6.441  0.5529 -0.4501 -0.0141
 1234SOL    HW1 3701   0.659   2.205   6.428  2.1020 -1.6216  0.5024
 1234SOL    HW2 3702   0.688   2.340   6.367 -0.2334 -1.5868 -0.6675
 1235SOL     OW 3703   2.702   1.280   5.672  0.4779  0.4535  0.2230
 1235SOL    HW1 3704   2.665   1.354   5.720  1.5242  0.3213  1.2605
 1235SOL    HW2 3705   2.762   1.320   5.609 -0.4297  0.5897 -0.5715
 1236SOL     OW 3706   1.661   2.250   7.905  0.0781  0.3629  0.3729
 1236SOL    HW1 3707   1.654   2.179   7.841  0.3134  1.6657 -1.1691
 1236SOL    HW2 3708   1.582   2.243   7.958 -1.0206  0.2916 -1.2094
 1237SOL     OW 3709   0.471   3.988   4.988 -0.1116 -0.2178 -0.1113
 1237SOL    HW1 3710   0.501   3.898   4.975 -0.3717 -0.1960 -0.9203
 1237SOL    HW2 3711   0.419   3.984   5.069 -1.3292 -1.1013 -0.9058
 1238SOL     OW 3712   2.348   2.296   5.901  0.4894  0.4623 -0.3197
 1238SOL    HW1 3713   2.265   2.248   5.897 -1.5078  3.5915  0.3639
 1238SOL    HW2 3714   2.382   2.277   5.988 -0.4886  0.6258  0.1106
 1239SOL     OW 3715   1.876   4.212   8.722 -0.0717  0.3945 -0.7556
 1239SOL    HW1 3716   1.793   4.180   8.687 -0.2210  0.7393 -0.7171
 1239SOL    HW2 3717   1.897   4.151   8.794  1.7230 -2.1722 -3.2382
 1240SOL     OW 3718   1.917   3.042   4.347 -0.0482  0.5145  0.8900
 1240SOL    HW1 3719   1.875   3.129   4.346  0.7286  1.0305 -2.7615
 1240SOL    HW2 3720   1.958   3.036   4.433  0.6849  4.2401  0.9706
 1241SOL     OW 3721   0.129   0.846   8.954 -0.6672  0.2079  0.1859
 1241SOL    HW1 3722   0.183   0.912   8.998  1.3790 -1.5492  0.4828
 1241SOL    HW2 3723   0.045   0.848   9.001  0.4482  0.4128  2.2859
 1242SOL     OW 3724   0.983   2.831   8.175  0.4081  0.7504 -0.1447
 1242SOL    HW1 3725   1.006   2.923   8.187  0.2476  1.3557 -3.4946
 1242SOL    HW2 3726   0.889   2.832   8.153  0.8112  0.0587 -2.0866
 1243SOL     OW 3727   4.743   4.726   9.246 -0.2019 -0.4447  0.1297
 1243SOL    HW1 3728   4.757   4.793   9.313  1.1527  0.2863 -0.8318
 1243SOL    HW2 3729   4.829   4.712   9.208 -0.3996 -2.8983  0.3965
 1244SOL     OW 3730   2.621   0.344   7.022  0.5283  0.0426 -0.2267
 1244SOL    HW1 3731   2.639   0.349   6.929  1.7141  1.3373  0.0277
 1244SOL    HW2 3732   2.585   0.430   7.044  2.5145  0.6452  0.9006
 1245SOL     OW 3733   2.849   0.961   4.747  0.2457  0.2798  0.3614
 1245SOL    HW1 3734   2.890   0.874   4.746  0.9617  0.5990  1.0593
 1245SOL    HW2 3735   2.920   1.022   4.727 -0.9460  0.5305 -4.4479
 1246SOL     OW 3736   4.903   0.215   7.165  0.0131 -0.4022  0.3407
 1246SOL    HW1 3737   4.968   0.167   7.217  0.9956  0.0297 -0.4534
 1246SOL    HW2 3738   4.860   0.273   7.228  0.8544 -0.2206  0.7695
 1247SOL     OW 3739   3.143   4.809   5.839 -0.0132  0.4218  0.1788
 1247SOL    HW1 3740   3.140   4.837   5.747 -2.4488 -0.8215 -0.2027
 1247SOL    HW2 3741   3.124   4.715   5.835  0.7098  0.1766  1.9205
 1248SOL     OW 3742   4.541   0.754   6.826 -0.8089  0.0715 -0.1309
 1248SOL    HW1 3743   4.557   0.788   6.738 -4.4557  1.7675 -0.3497
 1248SOL    HW2 3744   4.477   0.684   6.813  0.1206 -1.0359  1.0464
 1249SOL     OW 3745   2.459   0.365   7.348 -1.0290 -0.4506  0.2603
 1249SOL    HW1 3746   2.518   0.391   7.419  0.5624 -2.6325 -0.1563
 1249SOL    HW2 3747   2.482   0.423   7.276 -1.4479  0.6270  0.9639
 1250SOL     OW 3748   2.101   1.056   6.814  0.2019  0.2749  0.2225
 1250SOL    HW1 3749   2.092   0.965   6.842  2.9688 -0.7826 -1.8204
 1250SOL    HW2 3750   2.056   1.060   6.729  0.5275  0.6762  0.0633
 1251SOL     OW 3751   2.923   1.091   8.870 -0.0165  0.0066 -0.0804
 1251SOL    HW1 3752   2.878   1.049   8.944  0.3583 -1.1447 -0.4784
 1251SOL    HW2 3753   2.938   1.020   8.808 -1.9705  1.2642 -2.1307
 1252SOL     OW 3754   4.127   5.013   5.661 -0.4114  0.0908 -0.2901
 1252SOL    HW1 3755   4.128   4.945   5.594 -0.5714  0.4343 -0.6452
 1252SOL    HW2 3756   4.071   4.978   5.730  0.9997 -0.9313  0.3842
 1253SOL     OW 3757   1.226   4.846   7.321 -0.1669 -0.9596  0.1330
 1253SOL    HW1 3758   1.271   4.833   7.404 -0.5692 -0.0096  0.5100
 1253SOL    HW2 3759   1.296   4.866   7.259  0.0474 -0.7835  0.4293
 1254SOL     OW 3760   0.946   4.492   5.161 -0.3408  0.6700 -0.5610
 1254SOL    HW1 3761   0.992   4.552   5.101  0.4190  0.6879  0.0291
 1254SOL    HW2 3762   0.874   4.544   5.196 -1.1268  0.5061 -1.8379
 1255SOL     OW 3763   1.208   3.006   5.051 -0.0004 -0.2891  0.2865
 1255SOL    HW1 3764   1.159   3.072   5.100 -1.4514 -1.1364  0.0483
 1255SOL    HW2 3765   1.142   2.941   5.026  1.2711 -1.5133 -0.0223
 1256SOL     OW 3766   1.824   2.557   7.053  0.3546  0.6165 -0.2543
 1256SOL    HW1 3767   1.781   2.547   6.968 -1.5976 -2.5078  0.9704
 1256SOL    HW2 3768   1.770   2.620   7.100 -0.0270  0.4414 -0.4529
 1257SOL     OW 3769   1.091   0.104   4.815 -0.1145  0.3194 -0.5676
 1257SOL    HW1 3770   1.030   0.089   4.744 -1.5730 -0.2641  0.7659
 1257SOL    HW2 3771   1.057   0.053   4.888  1.0917  1.2241  0.6890
 1258SOL     OW 3772   2.161   0.186   4.989  0.3177  0.0279 -0.0341
 1258SOL    HW1 3773   2.251   0.205   4.963  0.8851 -1.6130  0.5931
 1258SOL    HW2 3774   2.141   0.102   4.946 -0.3687 -0.3891  1.0559
 1259SOL     OW 3775   3.057   2.758   7.077 -0.2711 -0.4826  0.4818
 1259SOL    HW1 3776   3.012   2.842   7.074 -0.9200 -0.7375  2.0886
 1259SOL    HW2 3777   3.143   2.775   7.039 -0.4617  0.8730  0.6195
 1260SOL     OW 3778   4.087   0.982   6.112 -0.5506  0.1487  0.3045
 1260SOL    HW1 3779   4.171   0.966   6.156 -1.3487 -0.2273  1.7485
 1260SOL    HW2 3780   4.052   0.894   6.094 -2.1315  0.1877  2.7380
 1261SOL     OW 3781   2.427   1.181   6.473  0.6147 -0.7560 -0.0368
 1261SOL    HW1 3782   2.387   1.186   6.560  1.8531  0.8145  0.4961
 1261SOL    HW2 3783   2.519   1.163   6.490  0.5748 -2.1304 -1.1379
 1262SOL     OW 3784   4.706   0.614   6.240 -0.1887  0.3343 -0.1169
 1262SOL    HW1 3785   4.689   0.707   6.222  1.1445  0.2653 -1.9408
 1262SOL    HW2 3786   4.670   0.601   6.328 -2.8303  1.9024 -0.8242
 1263SOL     OW 3787   4.772   4.813   5.125  0.1529 -0.5483  0.1586
 1263SOL    HW1 3788   4.681   4.832   5.147 -0.7134 -1.4778 -2.2736
 1263SOL    HW2 3789   4.802   4.752   5.192 -2.0750 -2.7520 -0.7248
 1264SOL     OW 3790   1.453   3.442   8.025 -0.1532 -0.1652 -0.5484
 1264SOL    HW1 3791   1.509   3.430   8.102  1.6993  1.3632 -1.5686
 1264SOL    HW2 3792   1.366   3.413   8.054  0.7452 -0.8530  1.6909
 1265SOL     OW 3793   0.052   4.414   6.991  0.2235 -0.2991  0.4010
 1265SOL    HW1 3794   0.073   4.327   6.957  1.5695  0.5292 -1.0264
 1265SOL    HW2 3795   0.075   4.474   6.919 -1.3281  1.1870  1.0907
 1266SOL     OW 3796   1.211   1.421   5.811  0.5693  0.3709 -0.2065
 1266SOL    HW1 3797   1.180   1.382   5.729  1.2670 -1.2315  0.2466
 1266SOL    HW2 3798   1.307   1.415   5.806  0.6107 -0.7303  1.1315
 1267SOL     OW 3799   2.311   4.655   6.938 -0.3696 -0.1167  0.5750
 1267SOL    HW1 3800   2.308   4.618   7.026 -0.1054  0.0216  0.6435
 1267SOL    HW2 3801   2.354   4.740   6.950  2.7261 -1.4366 -0.1305
 1268SOL     OW 3802   0.243   2.959   7.359  0.0945  0.3441 -0.1073
 1268SOL    HW1 3803   0.232   3.048   7.392 -0.2436  0.0977  0.4665
 1268SOL    HW2 3804   0.261   2.970   7.265 -0.1003  1.0068 -0.0724
 1269SOL     OW 3805   2.175   0.957   8.643  0.0676 -0.1720  0.1895
 1269SOL    HW1 3806   2.088   0.917   8.646  0.3312 -0.7826 -0.1237
 1269SOL    HW2 3807   2.184   1.002   8.728 -0.0107 -1.2647  0.7884
 1270SOL     OW 3808   4.002   3.842   5.358 -0.3506 -0.8205  0.1289
 1270SOL    HW1 3809   3.931   3.809   5.303  0.5826  1.5513 -2.8295
 1270SOL    HW2 3810   4.008   3.779   5.430 -2.6495 -3.4057 -1.6977
 1271SOL     OW 3811   2.798   1.251   7.700 -0.3284  0.0211  0.5967
 1271SOL    HW1 3812   2.814   1.224   7.609  0.7966 -1.3958  1.1622
 1271SOL    HW2 3813   2.832   1.340   7.705 -0.8721  0.3053 -0.4860
 1272SOL     OW 3814   3.018   1.163   4.782  0.0432 -0.3860 -0.1349
 1272SOL    HW1 3815   3.082   1.143   4.851 -0.2783 -1.4681 -0.1242
 1272SOL    HW2 3816   2.992   1.253   4.799 -0.5760 -0.8556  1.6338
 1273SOL     OW 3817   2.518   2.755   5.386 -0.4958 -0.1735  0.4922
 1273SOL    HW1 3818   2.538   2.665   5.357 -3.1893 -1.0660  1.1167
 1273SOL    HW2 3819   2.431   2.748   5.426 -0.5194  2.6359  1.0864
 1274SOL     OW 3820   3.367   0.172   6.395 -0.0945  0.4694 -0.0344
 1274SOL    HW1 3821   3.394   0.261   6.369 -2.0635  0.5508 -2.1195
 1274SOL    HW2 3822   3.438   0.116   6.364  0.6177  1.2028  0.2342
 1275SOL     OW 3823   3.521   0.998   5.362 -0.2101 -0.8634 -0.1135
 1275SOL    HW1 3824   3.553   1.010   5.272  1.8122  1.7566  0.8207
 1275SOL    HW2 3825   3.426   0.997   5.353 -0.4239  4.2827 -2.0670
 1276SOL     OW 3826   1.231   4.037   5.274  0.0039 -0.0436 -0.1405
 1276SOL    HW1 3827   1.211   4.079   5.358  0.4112 -0.5559  0.2203
 1276SOL    HW2 3828   1.259   4.109   5.218  1.3252  0.1245  0.6631
 1277SOL     OW 3829   2.327   1.788   5.325  0.4083  0.2342  0.0780
 1277SOL    HW1 3830   2.340   1.804   5.232  1.6274 -0.4197  0.1213
 1277SOL    HW2 3831   2.310   1.875   5.362  1.9127  0.7733 -0.4564
 1278SOL     OW 3832   3.740   3.063   7.466  0.0492  0.0982 -0.6532
 1278SOL    HW1 3833   3.655   3.065   7.422 -0.0665  0.1785 -0.4254
 1278SOL    HW2 3834   3.739   2.982   7.517  1.2937 -1.5065 -3.0004
 1279SOL     OW 3835   4.712   4.661   6.357 -0.6404 -0.0106 -0.2010
 1279SOL    HW1 3836   4.736   4.568   6.362 -1.6217 -0.3419 -1.1496
 1279SOL    HW2 3837   4.747   4.690   6.273 -0.4581  0.4489  0.0321
 1280SOL     OW 3838   3.051   4.897   6.300  0.0249 -0.0781  0.4666
 1280SOL    HW1 3839   3.049   4.927   6.209 -0.8127  1.8245  1.0653
 1280SOL    HW2 3840   3.047   4.802   6.294 -1.3286  0.0478 -1.4550
 1281SOL     OW 3841   4.148   3.808   4.924  0.1716 -0.7268  0.2196
 1281SOL    HW1 3842   4.158   3.718   4.954 -2.1472 -1.5438 -1.1893
 1281SOL    HW2 3843   4.075   3.843   4.976  0.3894  0.0005  0.0540
 1282SOL     OW 3844   3.230   3.219   6.583  0.8209 -0.1200 -0.5028
 1282SOL    HW1 3845   3.215   3.182   6.496 -1.4915  0.7783 -0.5639
 1282SOL    HW2 3846   3.143   3.224   6.622  1.6304  0.8431  1.3204
 1283SOL     OW 3847   1.159   4.609   6.355  0.3991 -0.0498 -0.5966
 1283SOL    HW1 3848   1.076   4.570   6.329  0.2468 -0.4003  0.3769
 1283SOL    HW2 3849   1.134   4.686   6.406  0.6853  0.3086 -0.9917
 1284SOL     OW 3850   4.300   4.149   4.546 -0.0737  0.1182  0.2033
 1284SOL    HW1 3851   4.213   4.146   4.586 -0.7150  0.0611 -1.1205
 1284SOL    HW2 3852   4.310   4.064   4.503  0.9527 -0.1488  0.9366
 1285SOL     OW 3853   0.042   3.372   6.590  0.5899  0.1710 -0.0303
 1285SOL    HW1 3854   0.078   3.285   6.606  1.1738  0.5925  1.0107
 1285SOL    HW2 3855   0.003   3.366   6.503 -0.6716 -1.5674  0.5864
 1286SOL     OW 3856   3.899   2.011   7.625  0.4600 -0.0323  0.5343
 1286SOL    HW1 3857   3.871   2.066   7.698  1.4702  1.1848  0.0451
 1286SOL    HW2 3858   3.976   2.055   7.590  0.5723 -1.1179 -0.6624
 1287SOL     OW 3859   1.150   3.741   8.663 -0.1578 -0.4305 -0.1781
 1287SOL    HW1 3860   1.235   3.778   8.640 -0.2667 -0.3479 -0.4478
 1287SOL    HW2 3861   1.122   3.790   8.740 -1.4313  1.7755 -1.9369
 1288SOL     OW 3862   0.065   0.716  10.303  0.3952 -0.2846  0.4821
 1288SOL    HW1 3863  -0.003   0.648  10.311  0.5491 -0.2597  2.3198
 1288SOL    HW2 3864   0.017   0.799  10.309  0.2036 -0.1507 -1.7951
 1289SOL     OW 3865   0.812   3.098   6.575 -0.3253  0.0094  0.5090
 1289SOL    HW1 3866   0.825   3.027   6.638  0.5314 -0.0599  0.2663
 1289SOL    HW2 3867   0.865   3.073   6.499 -0.8409  0.4040  0.0139
 1290SOL     OW 3868   2.130   2.097   7.615 -0.5070  0.3975  0.4702
 1290SOL    HW1 3869   2.043   2.061   7.604  0.0645 -0.4588 -1.8488
 1290SOL    HW2 3870   2.121   2.189   7.592 -0.8290  0.3229  0.2898
 1291SOL     OW 3871   2.673   3.676   8.058  0.0363 -0.3723 -0.5070
 1291SOL    HW1 3872   2.685   3.590   8.017  1.7420 -0.0277 -0.8267
 1291SOL    HW2 3873   2.704   3.663   8.148 -0.1189 -0.2057 -0.4316
 1292SOL     OW 3874   4.694   2.681  10.137 -0.0607 -0.3008 -0.2644
 1292SOL    HW1 3875   4.655   2.653  10.220 -1.1013  0.3968 -0.5023
 1292SOL    HW2 3876   4.637   2.752  10.106  1.1749  0.4846 -0.8297
 1293SOL     OW 3877   2.250   3.444   8.417  0.0042 -0.3595  0.4185
 1293SOL    HW1 3878   2.229   3.419   8.327  0.9917  1.8935 -0.5186
 1293SOL    HW2 3879   2.238   3.539   8.419  2.6185  0.0477  1.8665
 1294SOL     OW 3880   4.869   0.136  10.051  0.0360 -0.2107 -0.2104
 1294SOL    HW1 3881   4.873   0.230  10.070  1.1703 -0.3389  0.2704
 1294SOL    HW2 3882   4.945   0.119   9.996  1.2196 -1.2513  1.6657
 1295SOL     OW 3883   1.357   2.587   5.496 -0.2208 -0.4080  0.3284
 1295SOL    HW1 3884   1.360   2.521   5.565  1.5923 -1.3076 -0.5501
 1295SOL    HW2 3885   1.360   2.671   5.543 -2.6068 -0.8500  1.4628
 1296SOL     OW 3886   1.870   3.737   4.897  0.5344  0.6552 -0.1275
 1296SOL    HW1 3887   1.923   3.813   4.876  1.1392  0.2484 -0.0981
 1296SOL    HW2 3888   1.881   3.678   4.822  0.7475  0.2427  0.2197
 1297SOL     OW 3889   4.849   4.160   6.637  0.2517  0.1789 -0.6330
 1297SOL    HW1 3890   4.942   4.138   6.641  0.3026  0.5142  2.9851
 1297SOL    HW2 3891   4.846   4.255   6.647 -0.4617  0.0141  1.1779
 1298SOL     OW 3892   0.227   0.362   8.891 -0.0037  0.3050  0.6444
 1298SOL    HW1 3893   0.193   0.447   8.863  1.1896  0.5117 -0.2359
 1298SOL    HW2 3894   0.193   0.351   8.980 -0.1852  1.6897  0.7626
 1299SOL     OW 3895   3.519   4.585   7.500 -0.0534 -0.0108  0.1261
 1299SOL    HW1 3896   3.578   4.635   7.444  0.9007 -0.8101  0.3916
 1299SOL    HW2 3897   3.527   4.627   7.586  0.3110 -0.2453  0.2121
 1300SOL     OW 3898   1.138   4.886   6.709  0.1296  0.0667  0.2117
 1300SOL    HW1 3899   1.158   4.940   6.785 -2.5770  2.1608 -0.3851
 1300SOL    HW2 3900   1.189   4.925   6.638 -1.0587  1.2919 -0.0050
 1301SOL     OW 3901   2.863   1.678   7.449  0.3842  0.3198  0.1587
 1301SOL    HW1 3902   2.933   1.737   7.422 -1.1415  1.7881 -0.8693
 1301SOL    HW2 3903   2.885   1.594   7.409  0.3019  1.4062 -2.3306
 1302SOL     OW 3904   0.602   2.014   6.491 -0.2348 -0.2674  0.2637
 1302SOL    HW1 3905   0.594   2.021   6.586  1.3231  1.2708  0.3260
 1302SOL    HW2 3906   0.575   1.924   6.471 -0.7515 -0.5589  2.1173
 1303SOL     OW 3907   2.401   3.886   8.992 -0.0980 -0.1460 -0.0548
 1303SOL    HW1 3908   2.336   3.819   9.013  0.1464 -0.0404  1.0791
 1303SOL    HW2 3909   2.421   3.928   9.075  1.4899 -0.2435 -0.3399
 1304SOL     OW 3910   4.418   4.506  10.079 -0.5931  0.6344 -0.7832
 1304SOL    HW1 3911   4.348   4.568  10.099 -3.4372 -2.1326 -1.4242
 1304SOL    HW2 3912   4.440   4.522   9.987 -0.3464  1.4890 -0.5867
 1305SOL     OW 3913   3.019   0.248   6.057 -1.3705  0.3372 -0.0262
 1305SOL    HW1 3914   3.072   0.328   6.061 -1.8097  0.5831  1.3510
 1305SOL    HW2 3915   3.012   0.220   6.148  2.2650 -3.6568 -0.6339
 1306SOL     OW 3916   1.020   3.826   6.312  0.2925  0.2035  0.2214
 1306SOL    HW1 3917   1.014   3.812   6.218  3.1970  0.6264 -0.1337
 1306SOL    HW2 3918   1.099   3.779   6.338 -0.8696 -0.5687  2.6333
 1307SOL     OW 3919   0.454   0.199   4.807 -0.2186  0.2391  0.1888
 1307SOL    HW1 3920   0.509   0.238   4.739 -0.7408 -0.7574 -0.8519
 1307SOL    HW2 3921   0.507   0.129   4.844 -0.8041 -0.8484 -0.9479
 1308SOL     OW 3922   4.353   0.392   8.994  0.6802  0.0805 -0.1816
 1308SOL    HW1 3923   4.395   0.319   8.947 -0.2206 -0.5968  0.0281
 1308SOL    HW2 3924   4.289   0.426   8.931 -1.7950 -1.9561  1.0346
 1309SOL     OW 3925   0.139   2.913   5.351 -0.4705  0.1069 -0.3874
 1309SOL    HW1 3926   0.176   2.836   5.308 -0.1150  1.4416 -2.6112
 1309SOL    HW2 3927   0.068   2.941   5.294 -0.6500  1.3697  0.4092
 1310SOL     OW 3928   2.665   2.381   7.611  0.9131 -0.0933 -0.1713
 1310SOL    HW1 3929   2.582   2.430   7.616  0.7283  0.2608 -4.0210
 1310SOL    HW2 3930   2.662   2.323   7.687 -0.9087  2.6983  2.1334
 1311SOL     OW 3931   1.696   2.811   9.302  0.0890  0.2880 -0.0712
 1311SOL    HW1 3932   1.649   2.746   9.249  1.1523 -0.6242  0.0466
 1311SOL    HW2 3933   1.634   2.882   9.314 -0.8108 -0.3106 -0.9818
 1312SOL     OW 3934   4.670   3.549   8.102  0.3217  0.0824  0.0548
 1312SOL    HW1 3935   4.707   3.466   8.132  0.5027 -0.5391 -1.7907
 1312SOL    HW2 3936   4.591   3.561   8.155  0.0142 -1.5234 -0.0023
 1313SOL     OW 3937   3.925   3.313   8.172 -0.3094 -0.1870  0.3003
 1313SOL    HW1 3938   3.856   3.254   8.142 -1.2822  0.3583  1.4256
 1313SOL    HW2 3939   3.986   3.317   8.098 -1.2655 -0.9890 -0.5633
 1314SOL     OW 3940   3.315   3.429   8.126 -0.5716 -0.1272  0.5730
 1314SOL    HW1 3941   3.386   3.441   8.063 -2.3163 -1.8606 -1.8784
 1314SOL    HW2 3942   3.325   3.339   8.157 -1.7302 -0.4196  0.1290
 1315SOL     OW 3943   1.232   3.363   4.912 -0.2339 -0.6929  0.1196
 1315SOL    HW1 3944   1.159   3.409   4.951  0.9153  1.3885 -0.0340
 1315SOL    HW2 3945   1.217   3.271   4.934 -2.1985 -0.1815  1.1552
 1316SOL     OW 3946   4.927   1.675   7.001  0.1689 -0.0196  0.7348
 1316SOL    HW1 3947   4.906   1.629   6.920  3.8702 -1.1686  0.2652
 1316SOL    HW2 3948   4.922   1.608   7.069  1.2529 -0.0843  0.7572
 1317SOL     OW 3949   4.984   0.939   6.886  0.1933  0.6365  0.3577
 1317SOL    HW1 3950   4.930   0.997   6.941 -2.6181 -3.5854  2.6754
 1317SOL    HW2 3951   5.052   0.907   6.946 -1.0628 -1.7198  0.6353
 1318SOL     OW 3952   4.039   0.465  10.087 -0.4692  0.2763  0.2156
 1318SOL    HW1 3953   4.018   0.471   9.994  0.7140  3.5817  0.0155
 1318SOL    HW2 3954   4.133   0.446  10.090 -0.2136  1.4772  0.6302
 1319SOL     OW 3955   2.015   1.129   9.919 -0.0491  0.4043  0.4553
 1319SOL    HW1 3956   1.952   1.191   9.955 -1.2260  0.1483 -1.0608
 1319SOL    HW2 3957   2.055   1.176   9.846  0.2375 -0.0570  0.3134
 1320SOL     OW 3958   0.518   1.569   9.173 -0.6749 -0.1883 -0.0912
 1320SOL    HW1 3959   0.591   1.561   9.112  0.9912  1.6936  1.5312
 1320SOL    HW2 3960   0.533   1.651   9.219 -1.8676 -1.4324  2.8146
 1321SOL     OW 3961   0.362   4.969   5.738  0.3740  0.1910 -0.0253
 1321SOL    HW1 3962   0.448   5.009   5.752  0.1807 -0.0893  2.4245
 1321SOL    HW2 3963   0.306   5.011   5.803 -1.0816 -0.4670 -0.8087
 1322SOL     OW 3964   0.124   1.359   8.118 -0.0672 -0.4624  0.0343
 1322SOL    HW1 3965   0.030   1.352   8.136  0.3405 -1.1416  2.2406
 1322SOL    HW2 3966   0.132   1.437   8.063 -2.1049 -1.6031 -2.0903
 1323SOL     OW 3967   3.655   3.585   7.693 -0.3421  0.2634  0.1351
 1323SOL    HW1 3968   3.659   3.493   7.720 -0.6427  0.5791  1.3003
 1323SOL    HW2 3969   3.686   3.634   7.769  2.1803  1.0423 -1.2822
 1324SOL     OW 3970   1.955   1.849   6.263 -0.1929 -0.3294 -0.2600
 1324SOL    HW1 3971   1.922   1.921   6.316 -3.4847 -1.4708 -0.5421
 1324SOL    HW2 3972   1.939   1.877   6.173 -3.7922 -2.1688 -0.3701
 1325SOL     OW 3973   1.787   0.496   6.604 -0.2043  0.6612  0.1071
 1325SOL    HW1 3974   1.702   0.537   6.589  0.5568  1.6227 -1.8416
 1325SOL    HW2 3975   1.826   0.548   6.674 -0.1618  1.9230 -0.8188
 1326SOL     OW 3976   0.530   0.402   8.293  0.5744 -0.3649  0.4497
 1326SOL    HW1 3977   0.565   0.473   8.240  0.3491 -0.6136 -0.0310
 1326SOL    HW2 3978   0.608   0.363   8.334  0.6842  0.2594  0.8544
 1327SOL     OW 3979   4.462   0.266   8.004 -0.4363 -0.2498 -0.1224
 1327SOL    HW1 3980   4.367   0.262   8.002 -0.6644  1.5119  2.4508
 1327SOL    HW2 3981   4.486   0.328   7.935 -1.3272  0.9059  0.5954
 1328SOL     OW 3982   4.978   2.662   8.949 -0.6645  0.0775  0.5493
 1328SOL    HW1 3983   5.065   2.632   8.921  0.4010  0.3470  3.2923
 1328SOL    HW2 3984   4.933   2.681   8.867  1.0924 -2.0829 -1.0626
 1329SOL     OW 3985   4.953   1.392   9.455  0.2472  0.1593  0.0827
 1329SOL    HW1 3986   4.865   1.364   9.430  0.8401 -1.1802 -0.5774
 1329SOL    HW2 3987   4.941   1.482   9.485 -1.3767 -0.0574  0.1987
 1330SOL     OW 3988   2.285   4.866   5.072 -1.1081  0.1375  0.0613
 1330SOL    HW1 3989   2.348   4.910   5.129 -0.2802  0.4713 -1.0664
 1330SOL    HW2 3990   2.338   4.811   5.015 -1.9080 -0.2156 -0.3643
 1331SOL     OW 3991   3.511   3.680   7.249 -0.2634 -0.0997  0.6064
 1331SOL    HW1 3992   3.597   3.712   7.222 -1.2984 -0.1988 -3.5003
 1331SOL    HW2 3993   3.528   3.593   7.285  1.3909  0.2085  0.6301
 1332SOL     OW 3994   0.340   0.923   7.872 -0.9047 -0.4929  0.0799
 1332SOL    HW1 3995   0.378   0.973   7.944 -1.6017 -1.7548  1.3900
 1332SOL    HW2 3996   0.298   0.848   7.915  0.8888 -2.7378 -1.8125
 1333SOL     OW 3997   3.667   4.380  10.454 -0.3108  0.1472 -0.1644
 1333SOL    HW1 3998   3.684   4.470  10.484 -1.8622  0.8028 -1.1319
 1333SOL    HW2 3999   3.654   4.388  10.360  3.0850 -1.6752 -0.9425
 1334SOL     OW 4000   4.362   2.704   6.660  0.5048  0.0677  0.2079
 1334SOL    HW1 4001   4.338   2.784   6.706  1.2128  1.4547 -1.6954
 1334SOL    HW2 4002   4.444   2.724   6.616 -0.4327 -0.8616 -2.1969
 1335SOL     OW 4003   0.378   2.273   7.232  0.6191  0.5831 -0.0214
 1335SOL    HW1 4004   0.417   2.316   7.156  0.1308 -2.0764 -1.9085
 1335SOL    HW2 4005   0.453   2.245   7.285  1.0003  1.3740 -0.1273
 1336SOL     OW 4006   3.080   0.641   7.684 -0.4168  0.5455  0.4756
 1336SOL    HW1 4007   3.105   0.706   7.619  1.0779  0.9175  1.3781
 1336SOL    HW2 4008   3.031   0.575   7.635 -1.3406  1.9783 -0.5812
 1337SOL     OW 4009   0.488   1.508   7.489  0.7688 -0.3731 -0.7746
 1337SOL    HW1 4010   0.549   1.564   7.538  0.5688 -0.2258 -0.6908
 1337SOL    HW2 4011   0.536   1.483   7.410  0.4656  0.8096 -1.3411
 1338SOL     OW 4012   3.134   0.812   9.765 -0.4136 -0.0760  0.2635
 1338SOL    HW1 4013   3.219   0.768   9.765 -1.5180 -2.3337 -0.0391
 1338SOL    HW2 4014   3.141   0.876   9.695  0.4424 -1.5161 -1.0384
 1339SOL     OW 4015   2.920   2.631   0.299  0.1472  0.2089 -0.0299
 1339SOL    HW1 4016   2.840   2.605   0.345 -0.0426  1.3411  0.3008
 1339SOL    HW2 4017   2.956   2.548   0.267  0.7775 -0.7609  2.9053
 1340SOL     OW 4018   0.702   4.891   7.537 -0.7644  0.0080 -0.5410
 1340SOL    HW1 4019   0.790   4.902   7.501 -0.0332 -1.9251  0.5176
 1340SOL    HW2 4020   0.655   4.840   7.472  0.0209 -1.9793  0.3815
 1341SOL     OW 4021   4.618   0.571   7.427 -0.8369 -0.0872  0.1062
 1341SOL    HW1 4022   4.555   0.625   7.475  0.2145  0.2456  1.1580
 1341SOL    HW2 4023   4.638   0.499   7.486 -0.9148 -0.7005 -0.6001
 1342SOL     OW 4024   3.370   0.980   8.736  0.1060  0.3800  0.0852
 1342SOL    HW1 4025   3.306   0.926   8.688 -1.0455 -0.9485  2.9059
 1342SOL    HW2 4026   3.445   0.922   8.749  0.3462  0.6768  0.0305
 1343SOL     OW 4027   2.722   2.012   9.922 -0.7837 -0.1531  0.1719
 1343SOL    HW1 4028   2.739   2.049  10.009  1.1089  0.0738 -0.2462
 1343SOL    HW2 4029   2.634   2.041   9.901 -2.3154 -2.2633  3.0135
 1344SOL     OW 4030   2.725   4.953   6.497 -0.1276 -0.2566  0.8549
 1344SOL    HW1 4031   2.785   4.991   6.433 -1.0753  0.4093  0.3209
 1344SOL    HW2 4032   2.640   4.991   6.475 -0.4409  0.2108  2.6877
 1345SOL     OW 4033   0.726   1.000   8.321  0.1264 -0.0661 -0.5906
 1345SOL    HW1 4034   0.645   0.969   8.361  0.3769  0.0446  0.0133
 1345SOL    HW2 4035   0.698   1.041   8.239 -0.2500 -1.5332 -1.2293
 1346SOL     OW 4036   3.782   0.755   9.917 -0.1099  0.4649 -0.4140
 1346SOL    HW1 4037   3.788   0.736  10.010  1.6532 -0.2625 -0.6400
 1346SOL    HW2 4038   3.688   0.764   9.900 -0.9079 -3.7830  0.6078
 1347SOL     OW 4039   2.915   3.807   8.677  0.6458  0.3053 -0.7955
 1347SOL    HW1 4040   2.959   3.785   8.759  0.0194 -2.3905 -1.0722
 1347SOL    HW2 4041   2.979   3.859   8.628  2.5371 -1.2695 -0.1229
 1348SOL     OW 4042   1.461   4.515   8.076 -1.1977 -0.8592  0.3910
 1348SOL    HW1 4043   1.526   4.455   8.114 -1.2195 -1.3081 -0.2845
 1348SOL    HW2 4044   1.493   4.532   7.988 -1.3896 -0.1606  0.4495
 1349SOL     OW 4045   2.448   4.951   7.777  0.3367  0.8047  0.2265
 1349SOL    HW1 4046   2.523   5.010   7.787 -0.8640  2.3383  0.4025
 1349SOL    HW2 4047   2.484   4.875   7.731  1.4424  2.6999 -2.2539
 1350SOL     OW 4048   0.933   3.139   8.092  0.4795  0.7071  0.4007
 1350SOL    HW1 4049   0.973   3.126   8.178 -1.5629  0.2779  1.3419
 1350SOL    HW2 4050   0.992   3.201   8.048  2.2756 -0.0682  1.5799
 1351SOL     OW 4051   4.406   0.362   8.262 -0.7781  0.1382 -0.1092
 1351SOL    HW1 4052   4.476   0.323   8.210 -1.4608 -1.4206  0.0792
 1351SOL    HW2 4053   4.439   0.363   8.352 -0.4019  0.8578 -0.2568
 1352SOL     OW 4054   4.456   0.659   8.167 -0.3004 -0.4779 -0.0913
 1352SOL    HW1 4055   4.435   0.568   8.188  0.8547 -1.1647 -1.6557
 1352SOL    HW2 4056   4.549   0.667   8.188  0.4956 -0.7256 -3.0325
 1353SOL     OW 4057   0.394   3.936   8.278  0.3361 -0.1894 -0.1418
 1353SOL    HW1 4058   0.401   3.875   8.352  0.4489  1.1226  0.9843
 1353SOL    HW2 4059   0.320   3.904   8.227  1.3856 -2.1987 -0.5251
 1354SOL     OW 4060   4.673   3.341   5.295  0.2995 -0.9572 -0.3489
 1354SOL    HW1 4061   4.672   3.436   5.303 -0.7150 -1.1192  2.4734
 1354SOL    HW2 4062   4.764   3.319   5.276  0.3557  0.5856 -2.1067
 1355SOL     OW 4063   4.176   3.672   7.595 -0.6135  0.3453  0.5397
 1355SOL    HW1 4064   4.231   3.739   7.637 -0.1969 -0.8775  2.0089
 1355SOL    HW2 4065   4.126   3.721   7.529  1.8955  1.6143 -0.6068
 1356SOL     OW 4066   2.359   2.900   9.102 -0.2904 -1.0377  0.1191
 1356SOL    HW1 4067   2.385   2.814   9.135 -2.1821 -2.0295 -0.8000
 1356SOL    HW2 4068   2.360   2.890   9.007  0.7402  0.4008 -0.0602
 1357SOL     OW 4069   1.395   4.653   7.021  0.4634 -0.7618  0.4629
 1357SOL    HW1 4070   1.421   4.726   7.076 -0.4029  1.0557 -1.3688
 1357SOL    HW2 4071   1.361   4.588   7.081 -0.9912  1.3497  2.0787
 1358SOL     OW 4072   0.176   3.366   5.429  0.1369 -0.0227  0.0699
 1358SOL    HW1 4073   0.108   3.398   5.488 -0.5541 -2.1164  0.5214
 1358SOL    HW2 4074   0.256   3.370   5.480  0.6881  3.5580 -0.8485
 1359SOL     OW 4075   3.828   2.078   9.975 -0.6630  0.1971  0.3231
 1359SOL    HW1 4076   3.907   2.131   9.978 -1.1930  1.0057  3.9347
 1359SOL    HW2 4077   3.759   2.140   9.949 -0.2579 -0.5821 -3.1954
 1360SOL     OW 4078   3.696   2.719   8.151 -0.2241 -0.0317 -0.7151
 1360SOL    HW1 4079   3.633   2.672   8.096  1.3525 -0.0798 -2.5771
 1360SOL    HW2 4080   3.652   2.729   8.235 -1.9682 -1.7264 -1.3661
 1361SOL     OW 4081   0.122   4.498   4.854  0.8580 -0.0598 -0.1900
 1361SOL    HW1 4082   0.132   4.406   4.878 -0.7362 -0.2368 -0.0783
 1361SOL    HW2 4083   0.211   4.533   4.853  1.6482 -1.9653 -1.7301
 1362SOL     OW 4084   1.719   3.509   6.791  0.8970 -0.1683 -0.0961
 1362SOL    HW1 4085   1.663   3.582   6.764  0.2487 -0.1389  1.2438
 1362SOL    HW2 4086   1.781   3.547   6.852  3.3198  0.0669 -2.5063
 1363SOL     OW 4087   0.527   4.886   7.738 -0.5121 -0.2494 -0.8823
 1363SOL    HW1 4088   0.450   4.839   7.706 -1.3588  0.2408  0.3580
 1363SOL    HW2 4089   0.568   4.921   7.659 -0.0644 -2.6868 -1.8172
 1364SOL     OW 4090   4.383   0.949   9.100 -0.9605  0.1354 -0.7338
 1364SOL    HW1 4091   4.327   0.915   9.169  0.8595 -0.6983  0.3981
 1364SOL    HW2 4092   4.382   1.044   9.113 -1.1984  0.0397 -0.0421
 1365SOL     OW 4093   0.483   3.110   8.103 -0.6820  0.6040 -0.4427
 1365SOL    HW1 4094   0.493   3.016   8.086  2.9122  0.2423  2.3584
 1365SOL    HW2 4095   0.460   3.116   8.195 -1.0118  2.4814 -0.6046
 1366SOL     OW 4096   2.460   2.920   6.184  0.3179  0.3055  0.1966
 1366SOL    HW1 4097   2.433   3.011   6.180  0.8889  0.4556 -2.8572
 1366SOL    HW2 4098   2.524   2.916   6.255 -0.1985  2.1277  0.8030
 1367SOL     OW 4099   2.927   2.397  10.195 -0.7799 -0.4251  0.9351
 1367SOL    HW1 4100   2.903   2.443  10.115 -2.2457 -0.8782  1.0850
 1367SOL    HW2 4101   3.019   2.419  10.209 -0.2228 -1.0472 -1.3432
 1368SOL     OW 4102   3.099   3.416   5.487  0.4948 -0.3945 -0.2514
 1368SOL    HW1 4103   3.117   3.501   5.447 -2.0593  0.8989  1.1645
 1368SOL    HW2 4104   3.081   3.358   5.413  0.0489  0.8510 -1.1400
 1369SOL     OW 4105   2.575   2.008   5.865 -0.1390  0.2563 -0.4233
 1369SOL    HW1 4106   2.510   2.004   5.935 -1.5427 -0.4601 -1.7043
 1369SOL    HW2 4107   2.527   2.042   5.789  0.9313 -0.4713 -1.4697
 1370SOL     OW 4108   3.190   3.902   9.074  0.6121  0.1628 -0.3083
 1370SOL    HW1 4109   3.262   3.855   9.032  0.1121  0.0491 -1.0465
 1370SOL    HW2 4110   3.188   3.868   9.163  2.1902  0.9567  0.0776
 1371SOL     OW 4111   1.101   4.274   9.704  0.0040 -0.7502  0.0288
 1371SOL    HW1 4112   1.169   4.211   9.729  1.6659  0.2855 -1.6431
 1371SOL    HW2 4113   1.147   4.339   9.651 -1.9245  1.1289  0.5327
 1372SOL     OW 4114   2.905   2.941   6.671 -0.5269  0.0467  0.6759
 1372SOL    HW1 4115   2.955   2.996   6.731 -2.1146  1.2604  0.9289
 1372SOL    HW2 4116   2.899   2.992   6.591 -0.6398 -0.4602  0.3585
 1373SOL     OW 4117   1.925   0.950   5.719 -0.8542 -0.5790  0.1816
 1373SOL    HW1 4118   1.867   0.879   5.746 -0.9237 -1.1704 -1.4107
 1373SOL    HW2 4119   1.959   0.986   5.801 -2.6905 -0.8586  1.1156
 1374SOL     OW 4120   1.462   0.805   9.228 -0.0790 -0.8985 -0.2597
 1374SOL    HW1 4121   1.554   0.814   9.254  0.0581  0.0343 -1.0124
 1374SOL    HW2 4122   1.419   0.769   9.305  0.8839 -1.1550  0.1754
 1375SOL     OW 4123   2.150   2.070   6.856 -0.1312 -0.6075  0.6443
 1375SOL    HW1 4124   2.105   2.072   6.771 -0.1903 -1.4473  0.6419
 1375SOL    HW2 4125   2.233   2.027   6.837 -1.3187 -3.5689  1.4852
 1376SOL     OW 4126   3.134   0.227   7.288  0.0792  0.2235 -0.2864
 1376SOL    HW1 4127   3.088   0.268   7.214  0.3570  1.8337  0.4014
 1376SOL    HW2 4128   3.198   0.169   7.247  0.7246  1.6319 -1.3409
 1377SOL     OW 4129   4.589   3.502   9.245  0.2523  0.5704  0.1553
 1377SOL    HW1 4130   4.664   3.532   9.194 -0.9094  3.0385 -0.2503
 1377SOL    HW2 4131   4.626   3.484   9.332  1.5446  0.2616 -0.4228
 1378SOL     OW 4132   3.279   1.236   7.913  0.3625 -0.5580 -0.0681
 1378SOL    HW1 4133   3.213   1.304   7.925 -0.7765 -0.9405 -3.1830
 1378SOL    HW2 4134   3.354   1.282   7.876  0.0951 -0.7627 -0.8879
 1379SOL     OW 4135   4.075   3.044   9.209 -0.2053  0.0961 -0.3773
 1379SOL    HW1 4136   4.113   3.126   9.242 -1.9561  1.2609 -1.0928
 1379SOL    HW2 4137   4.029   3.007   9.284  0.8980 -0.4651  0.0489
 1380SOL     OW 4138   4.146   2.217   8.698  0.0477 -0.3188  0.0753
 1380SOL    HW1 4139   4.058   2.224   8.660  0.1052  0.4109  0.0569
 1380SOL    HW2 4140   4.205   2.235   8.625  0.2839 -2.4069 -0.2942
 1381SOL     OW 4141   0.017   2.828   7.452  0.0527  0.2026 -0.1355
 1381SOL    HW1 4142  -0.035   2.907   7.436  0.6036  0.1824 -2.1719
 1381SOL    HW2 4143   0.108   2.858   7.454  0.2158 -0.2757 -0.0860
 1382SOL     OW 4144   3.523   3.166   6.628  0.7710  0.4344 -0.5770
 1382SOL    HW1 4145   3.435   3.198   6.608  1.1987  0.6126 -2.4040
 1382SOL    HW2 4146   3.582   3.226   6.581  1.9271  0.7371  1.1677
 1383SOL     OW 4147   4.200   3.945   7.663 -0.2841  0.0385  0.3185
 1383SOL    HW1 4148   4.133   3.955   7.731  1.3782  2.4426  1.7216
 1383SOL    HW2 4149   4.173   4.007   7.594 -0.5902 -0.5192 -0.0709
 1384SOL     OW 4150   1.559   1.013   8.533 -0.3487  0.2585 -0.3072
 1384SOL    HW1 4151   1.625   1.008   8.602 -1.6606  2.0061  1.1902
 1384SOL    HW2 4152   1.488   0.956   8.562  0.4072 -1.5916 -1.8934
 1385SOL     OW 4153   0.782   2.106   6.210 -0.1581 -0.5265 -0.1148
 1385SOL    HW1 4154   0.846   2.056   6.260 -0.7682  0.9695  2.2950
 1385SOL    HW2 4155   0.698   2.065   6.230 -0.3382 -0.3517 -0.4973
 1386SOL     OW 4156   0.408   0.293   5.989  0.4748 -0.6804 -0.4378
 1386SOL    HW1 4157   0.460   0.371   5.970 -0.4419  0.5342  1.6815
 1386SOL    HW2 4158   0.461   0.243   6.051  0.4483 -1.0228 -0.6875
 1387SOL     OW 4159   1.850   3.813   9.462 -0.2696 -0.5758  0.3630
 1387SOL    HW1 4160   1.898   3.730   9.465  1.9395  0.6633  2.2020
 1387SOL    HW2 4161   1.775   3.800   9.520  0.0715 -1.2728  0.6584
 1388SOL     OW 4162   0.140   0.711   9.646  0.6234 -0.2126  0.7285
 1388SOL    HW1 4163   0.197   0.782   9.676  1.7000 -1.8345  2.7824
 1388SOL    HW2 4164   0.201   0.642   9.621 -0.4141 -0.5318 -1.0739
 1389SOL     OW 4165   4.630   2.752   7.609  0.6118 -0.1907  0.2553
 1389SOL    HW1 4166   4.574   2.711   7.675 -1.1118 -1.4913 -1.8555
 1389SOL    HW2 4167   4.581   2.830   7.582  2.0218  1.1956  1.4720
 1390SOL     OW 4168   2.119   1.077   5.499  0.7929  0.0043  0.1347
 1390SOL    HW1 4169   2.178   1.039   5.434  3.0241  0.9253  1.4740
 1390SOL    HW2 4170   2.144   1.035   5.581  0.8964  1.7576  1.0424
 1391SOL     OW 4171   4.800   1.478   8.801 -0.0041 -0.1469 -0.3230
 1391SOL    HW1 4172   4.800   1.454   8.894  1.9064  1.3338  0.1339
 1391SOL    HW2 4173   4.709   1.501   8.782 -0.2371  0.6383  1.5069
 1392SOL     OW 4174   4.255   1.873   5.795  0.7264 -0.2843 -0.4267
 1392SOL    HW1 4175   4.274   1.784   5.824  1.2220 -0.2468 -0.6199
 1392SOL    HW2 4176   4.177   1.898   5.843  0.1757 -1.0773 -0.8767
 1393SOL     OW 4177   1.585   2.732   8.333  0.3447  0.9800  0.2658
 1393SOL    HW1 4178   1.671   2.751   8.296  1.0047 -4.2334 -1.7454
 1393SOL    HW2 4179   1.598   2.730   8.427  1.7123  2.8390  0.1504
 1394SOL     OW 4180   2.625   1.817   8.492 -0.3545 -0.1537 -0.1121
 1394SOL    HW1 4181   2.687   1.771   8.549 -1.8797 -0.3412  1.5015
 1394SOL    HW2 4182   2.540   1.777   8.513 -1.3508  1.6212 -0.5798
 1395SOL     OW 4183   0.822   4.686   9.746 -0.2973  0.2275  0.2683
 1395SOL    HW1 4184   0.810   4.690   9.651  0.3648 -0.3018  0.1585
 1395SOL    HW2 4185   0.837   4.593   9.765 -4.7262 -0.4498  1.4501
 1396SOL     OW 4186   1.321   3.497   5.918 -0.0908 -0.3663  0.5104
 1396SOL    HW1 4187   1.324   3.496   6.013  1.0711 -1.2501  0.4808
 1396SOL    HW2 4188   1.266   3.422   5.895  2.2201 -2.1602  0.4642
 1397SOL     OW 4189   4.167   2.838   5.534 -0.8004  0.0046  0.5007
 1397SOL    HW1 4190   4.200   2.766   5.587 -1.6120  0.7892  2.1432
 1397SOL    HW2 4191   4.223   2.839   5.457 -1.2915 -2.9079 -0.0004
 1398SOL     OW 4192   2.471   3.812   8.433  0.0420 -0.2860  0.5937
 1398SOL    HW1 4193   2.543   3.837   8.491 -0.0422  0.3597  0.4225
 1398SOL    HW2 4194   2.492   3.854   8.350 -0.8024  0.3595  0.6938
 1399SOL     OW 4195   0.414   1.296   5.901  0.3032 -0.1545  0.0513
 1399SOL    HW1 4196   0.401   1.226   5.965 -1.5161  2.3918  2.7378
 1399SOL    HW2 4197   0.326   1.329   5.884  1.0425  1.0599 -1.6543
 1400SOL     OW 4198   2.157   3.225   7.901 -0.4906 -0.0425  0.0070
 1400SOL    HW1 4199   2.143   3.182   7.986 -2.0773 -2.6259 -1.4591
 1400SOL    HW2 4200   2.069   3.239   7.866  0.0358  2.8290 -0.4656
 1401SOL     OW 4201   1.948   1.768   4.573 -0.1147 -0.2770  0.0003
 1401SOL    HW1 4202   1.959   1.722   4.657  0.2747  2.4211  1.5617
 1401SOL    HW2 4203   2.035   1.766   4.533 -0.2458 -1.3837 -0.2503
 1402SOL     OW 4204   4.390   0.839   6.475 -0.1206 -0.5251 -0.3731
 1402SOL    HW1 4205   4.337   0.816   6.552 -0.1226  0.8074  0.0432
 1402SOL    HW2 4206   4.423   0.926   6.494 -0.5504  0.0547 -2.1382
 1403SOL     OW 4207   1.406   3.727   9.844  0.0045  0.0787  0.0216
 1403SOL    HW1 4208   1.445   3.814   9.851  0.6279  0.0032 -1.8393
 1403SOL    HW2 4209   1.474   3.667   9.875 -0.1207  0.2022  0.5347
 1404SOL     OW 4210   2.350   4.077   5.457 -0.5305 -1.0261 -0.0562
 1404SOL    HW1 4211   2.373   4.170   5.468 -1.4724 -1.0030  2.0902
 1404SOL    HW2 4212   2.302   4.075   5.374 -0.4188  0.3901 -0.1910
 1405SOL     OW 4213   2.603   2.781   8.348  0.3135  0.0848  0.6302
 1405SOL    HW1 4214   2.571   2.712   8.407  1.3971 -2.7260 -1.8088
 1405SOL    HW2 4215   2.684   2.812   8.389  0.7035 -1.3238  0.9877
 1406SOL     OW 4216   4.853   3.914   7.477  0.5488 -0.1943  0.2816
 1406SOL    HW1 4217   4.786   3.924   7.409  1.0785  2.2257  0.0152
 1406SOL    HW2 4218   4.912   3.847   7.443  2.9807  3.4609 -3.6967
 1407SOL     OW 4219   1.982   4.789   5.088 -0.1589  0.2108  0.0644
 1407SOL    HW1 4220   1.993   4.733   5.011 -0.0439 -0.0253  0.2513
 1407SOL    HW2 4221   2.071   4.822   5.106  0.1026 -0.9231  0.9912
 1408SOL     OW 4222   3.996   4.338   9.734  0.1295  0.1801 -0.3479
 1408SOL    HW1 4223   4.050   4.373   9.663  2.0877 -0.0834  0.9621
 1408SOL    HW2 4224   3.968   4.415   9.784  2.5264  0.1430  1.1850
 1409SOL     OW 4225   2.982   0.250   8.365 -0.9352  0.1651 -1.0117
 1409SOL    HW1 4226   3.031   0.281   8.289  0.8605 -0.8157 -0.3466
 1409SOL    HW2 4227   3.030   0.285   8.440 -0.3259 -2.0009 -0.3007
 1410SOL     OW 4228   1.005   1.452   9.778 -0.0958  0.1518 -0.5480
 1410SOL    HW1 4229   1.034   1.477   9.690  0.6557 -1.3927 -0.7893
 1410SOL    HW2 4230   0.995   1.357   9.773  0.8022 -0.0722  1.2665
 1411SOL     OW 4231   2.123   3.381   8.912  0.1270 -0.5972 -0.6159
 1411SOL    HW1 4232   2.115   3.466   8.954 -0.9844 -2.2625  2.9706
 1411SOL    HW2 4233   2.213   3.378   8.880  0.9935  1.0146  1.4589
 1412SOL     OW 4234   0.712   0.973   7.366  0.0275 -0.0034 -0.8945
 1412SOL    HW1 4235   0.737   1.024   7.289  0.2461  1.6951  0.2353
 1412SOL    HW2 4236   0.618   0.987   7.375  0.2617  1.1374  0.0231
 1413SOL     OW 4237   2.133   3.559   9.801  0.4213 -0.7486 -0.6307
 1413SOL    HW1 4238   2.139   3.651   9.775 -0.0381 -0.6412 -0.3607
 1413SOL    HW2 4239   2.197   3.550   9.872 -3.3015  0.7975  3.3698
 1414SOL     OW 4240   0.260   2.411   9.884  1.0189 -0.0134 -0.1519
 1414SOL    HW1 4241   0.239   2.366   9.802  0.4016 -0.1149  0.0560
 1414SOL    HW2 4242   0.203   2.488   9.886  1.2720  0.1760  0.0250
 1415SOL     OW 4243   1.652   0.289   8.261  0.0071  0.0726  0.0385
 1415SOL    HW1 4244   1.707   0.298   8.183  2.2485 -0.9229  1.3879
 1415SOL    HW2 4245   1.680   0.361   8.318 -0.8285  0.1545  0.3544
 1416SOL     OW 4246   3.365   1.293   9.873  0.1551 -0.8507 -0.4058
 1416SOL    HW1 4247   3.271   1.296   9.851  0.2159  1.4980 -0.6289
 1416SOL    HW2 4248   3.397   1.381   9.853  2.3695 -1.5133 -0.0492
 1417SOL     OW 4249   3.818   1.195   7.162  0.6104  0.4063  0.0771
 1417SOL    HW1 4250   3.884   1.208   7.230  1.3784  1.6067 -0.8620
 1417SOL    HW2 4251   3.822   1.274   7.109 -0.1576 -0.3980 -1.2282
 1418SOL     OW 4252   0.192   2.499   8.040  0.0105 -0.1164  0.3679
 1418SOL    HW1 4253   0.287   2.502   8.047  0.0221  3.2570  0.6966
 1418SOL    HW2 4254   0.161   2.521   8.128 -0.8746  2.2788 -0.4384
 1419SOL     OW 4255   0.551   2.012   5.857 -0.0144 -0.2094 -0.5821
 1419SOL    HW1 4256   0.513   1.980   5.776 -0.6424  1.1342 -0.8483
 1419SOL    HW2 4257   0.604   2.088   5.831  1.1176 -0.7462  0.0650
 1420SOL     OW 4258   1.367   1.558   8.820 -0.5757 -0.2330 -0.0458
 1420SOL    HW1 4259   1.440   1.619   8.815 -0.2772 -0.5422  0.4197
 1420SOL    HW2 4260   1.406   1.473   8.799 -0.5016 -0.6230  1.5192
 1421SOL     OW 4261   1.923   0.919   9.009  0.4916  0.3034 -0.8565
 1421SOL    HW1 4262   1.919   0.847   9.071 -0.0445 -0.6781 -1.9847
 1421SOL    HW2 4263   1.917   0.998   9.062 -0.1688 -0.5121  0.3136
 1422SOL     OW 4264   1.288   2.592  10.060  0.8258 -0.2866  0.0177
 1422SOL    HW1 4265   1.330   2.639  10.132  0.1347 -0.1832  0.3612
 1422SOL    HW2 4266   1.216   2.649  10.033 -0.8976 -1.7153  1.3506
 1423SOL     OW 4267   2.008   1.633   6.977  0.6473 -0.0880  0.1265
 1423SOL    HW1 4268   2.046   1.620   7.063  1.2579 -1.9381 -0.3768
 1423SOL    HW2 4269   2.064   1.698   6.935 -1.2383  2.9816  1.9933
 1424SOL     OW 4270   0.668   4.878   9.346  0.6382 -0.1510 -0.2769
 1424SOL    HW1 4271   0.744   4.845   9.394  0.0773  0.8287  1.3922
 1424SOL    HW2 4272   0.637   4.803   9.295  2.6684 -0.5674 -0.9713
 1425SOL     OW 4273   2.934   2.200   9.241  0.2363 -0.9909  0.5099
 1425SOL    HW1 4274   2.941   2.139   9.314  1.0845 -1.3591  0.1406
 1425SOL    HW2 4275   2.972   2.282   9.275  0.1763 -1.0167  0.6390
 1426SOL     OW 4276   1.767   3.756   8.602  0.2529 -0.0480 -0.3960
 1426SOL    HW1 4277   1.836   3.804   8.556 -0.1715  0.2050 -0.7795
 1426SOL    HW2 4278   1.732   3.696   8.537 -1.7315  1.7194 -1.0819
 1427SOL     OW 4279   1.032   1.184   7.797 -0.4452  0.4976 -0.0283
 1427SOL    HW1 4280   1.102   1.154   7.855 -0.4821 -0.2668 -0.3669
 1427SOL    HW2 4281   1.055   1.275   7.777 -0.8834  1.0431  1.8277
 1428SOL     OW 4282   1.647   3.965   9.264 -0.0438 -0.3168  0.3395
 1428SOL    HW1 4283   1.686   4.046   9.231 -0.5260 -0.3487 -0.3352
 1428SOL    HW2 4284   1.696   3.945   9.344  0.3858  0.3874  0.2586
 1429SOL     OW 4285   2.321   3.034   9.788  0.4194  0.4626  0.0374
 1429SOL    HW1 4286   2.323   3.129   9.801  0.0968  0.8061 -2.1140
 1429SOL    HW2 4287   2.373   3.019   9.710  0.4974 -1.1607  0.3679
 1430SOL     OW 4288   2.499   0.631   9.283 -0.1730  0.0226  0.2795
 1430SOL    HW1 4289   2.494   0.573   9.207  1.4555  1.1779 -0.7786
 1430SOL    HW2 4290   2.505   0.572   9.358 -1.0881 -1.1481 -0.5313
 1431SOL     OW 4291   0.342   2.532   9.088  0.0973 -0.4617  0.0377
 1431SOL    HW1 4292   0.271   2.496   9.036  2.6426 -4.2991 -1.2030
 1431SOL    HW2 4293   0.330   2.494   9.175  0.1920 -0.4154  0.0713
 1432SOL     OW 4294   4.392   4.610   8.261  0.0097 -0.7821  0.0983
 1432SOL    HW1 4295   4.455   4.552   8.218 -0.0309  0.1597 -1.2772
 1432SOL    HW2 4296   4.312   4.557   8.269 -0.2448 -0.7642 -1.7617
 1433SOL     OW 4297   2.664   4.339  10.400  0.2532  0.1124 -0.2998
 1433SOL    HW1 4298   2.683   4.404  10.468 -0.7768  0.1301 -0.0255
 1433SOL    HW2 4299   2.569   4.337  10.393  0.3280  1.3020 -2.8799
 1434SOL     OW 4300   1.148   1.778   5.633 -0.1228  0.0738  0.5000
 1434SOL    HW1 4301   1.106   1.840   5.573 -0.8039  0.6613  1.5418
 1434SOL    HW2 4302   1.202   1.832   5.690 -1.0239 -0.1952  1.6746
 1435SOL     OW 4303   3.590   0.617  10.355  0.5893  0.2065  0.0257
 1435SOL    HW1 4304   3.521   0.616  10.288  0.9395 -0.9227 -0.3369
 1435SOL    HW2 4305   3.543   0.610  10.438  0.1798  1.1294 -0.1184
 1436SOL     OW 4306   2.064   3.894   6.015  0.0376 -0.3563 -0.2691
 1436SOL    HW1 4307   2.009   3.971   6.004  0.2140 -0.1982 -0.0363
 1436SOL    HW2 4308   2.116   3.889   5.934 -1.0827 -1.1236 -0.9712
 1437SOL     OW 4309   2.878   2.618   6.270 -0.1595  0.3694  0.1557
 1437SOL    HW1 4310   2.857   2.548   6.208 -1.5309 -0.6323  1.6649
 1437SOL    HW2 4311   2.974   2.618   6.274  0.0216  0.9703 -2.4314
 1438SOL     OW 4312   4.706   4.874   7.276  0.1719 -0.1145  0.8762
 1438SOL    HW1 4313   4.782   4.932   7.270  1.7922 -2.2322 -1.3613
 1438SOL    HW2 4314   4.630   4.933   7.274  1.7160  1.9675  0.1259
 1439SOL     OW 4315   2.143   1.417   9.276 -0.3255  0.1101  0.8421
 1439SOL    HW1 4316   2.146   1.419   9.372 -1.1229  1.5405  0.8509
 1439SOL    HW2 4317   2.051   1.431   9.254 -0.5337 -2.2359 -0.1402
 1440SOL     OW 4318   0.409   2.939   9.595  0.3953  0.3514 -0.0667
 1440SOL    HW1 4319   0.338   2.893   9.639 -1.8899  2.2580 -1.5226
 1440SOL    HW2 4320   0.416   3.023   9.640 -2.0580  2.3887 -3.0910
 1441SOL     OW 4321   0.892   3.046   9.037  0.5514 -0.5334 -0.0476
 1441SOL    HW1 4322   0.812   3.097   9.045  0.0148 -0.8799 -2.4349
 1441SOL    HW2 4323   0.954   3.089   9.095 -0.9259  0.6471  0.7120
 1442SOL     OW 4324   2.110   2.597   9.363  0.5149 -0.1942 -0.2187
 1442SOL    HW1 4325   2.189   2.544   9.354  1.2781  0.6027  1.2992
 1442SOL    HW2 4326   2.123   2.646   9.444 -0.9757  0.9359 -0.6059
 1443SOL     OW 4327   4.115   4.581  10.111 -0.3583  0.6816  0.0642
 1443SOL    HW1 4328   4.065   4.513  10.066  1.0975  0.5335 -1.4017
 1443SOL    HW2 4329   4.126   4.650  10.045  0.1329  1.3495  0.8250
 1444SOL     OW 4330   4.778   4.469   8.431  0.4708 -0.5595  0.5961
 1444SOL    HW1 4331   4.816   4.539   8.484 -1.4298 -0.2027  1.5812
 1444SOL    HW2 4332   4.846   4.402   8.426  1.8128  0.7581  0.8294
 1445SOL     OW 4333   1.794   3.158   8.589 -0.0346  0.2982  0.1640
 1445SOL    HW1 4334   1.706   3.172   8.625 -0.2531  0.0073 -0.2475
 1445SOL    HW2 4335   1.835   3.245   8.591 -0.1541  0.3437  0.8161
 1446SOL     OW 4336   0.591   3.229   8.563 -0.3686 -0.5087  0.4673
 1446SOL    HW1 4337   0.608   3.320   8.541 -0.2567 -1.2705 -3.3436
 1446SOL    HW2 4338   0.671   3.183   8.537 -0.3472 -1.7156  2.5000
 1447SOL     OW 4339   1.205   3.013   5.817 -0.1245  0.2539 -0.2311
 1447SOL    HW1 4340   1.219   2.920   5.837  3.6745  1.2687  3.1869
 1447SOL    HW2 4341   1.263   3.030   5.743  0.5489  0.1652  0.2586
 1448SOL     OW 4342   3.456   4.103   9.562  0.5562 -0.3082  0.3121
 1448SOL    HW1 4343   3.511   4.110   9.639 -0.5782 -0.7552  1.1936
 1448SOL    HW2 4344   3.505   4.046   9.502 -0.0686 -3.0004  2.1743
 1449SOL     OW 4345   3.282   3.781  10.441  0.4316  0.5032 -0.2964
 1449SOL    HW1 4346   3.309   3.858  10.391 -0.9035  0.7947 -0.6065
 1449SOL    HW2 4347   3.363   3.746  10.478  0.9883  2.4632  0.4370
 1450SOL     OW 4348   4.473   4.537   9.816 -0.2250  0.3495  0.3378
 1450SOL    HW1 4349   4.517   4.622   9.819  1.1179 -0.3169  0.1063
 1450SOL    HW2 4350   4.400   4.550   9.756 -1.3196  1.8907  1.8937
 1451SOL     OW 4351   1.512   3.026   6.631  0.4205 -0.7492  0.3762
 1451SOL    HW1 4352   1.605   3.008   6.618  0.4140 -0.9184  0.5740
 1451SOL    HW2 4353   1.503   3.041   6.725  0.1204 -1.4319  0.4563
 1452SOL     OW 4354   4.502   0.097   8.732 -0.2432  0.2416 -0.4955
 1452SOL    HW1 4355   4.492   0.079   8.826  1.7935  0.5203 -0.1957
 1452SOL    HW2 4356   4.421   0.063   8.693 -0.7636 -0.6495  1.2497
 1453SOL     OW 4357   0.565   2.372   7.050  0.4374 -0.3285  0.5302
 1453SOL    HW1 4358   0.563   2.467   7.037  1.7967 -0.4635 -0.9929
 1453SOL    HW2 4359   0.653   2.354   7.082  1.6227 -1.4051 -2.9077
 1454SOL     OW 4360   3.581   4.413   8.369 -0.3869 -0.1398  0.3821
 1454SOL    HW1 4361   3.497   4.432   8.328 -0.2270  1.5647  0.7840
 1454SOL    HW2 4362   3.634   4.492   8.353  0.5172 -0.4461  1.7034
 1455SOL     OW 4363   1.883   4.367   7.321  0.3207 -0.1314 -0.3761
 1455SOL    HW1 4364   1.867   4.316   7.400  1.5560 -2.4184 -1.5063
 1455SOL    HW2 4365   1.853   4.311   7.250 -0.2564  1.6437 -1.6069
 1456SOL     OW 4366   2.836   3.788   7.061  1.4493 -0.0013  0.0367
 1456SOL    HW1 4367   2.788   3.733   7.000  0.3065 -0.6041  1.4044
 1456SOL    HW2 4368   2.767   3.830   7.114  2.2667  2.6231 -0.7991
 1457SOL     OW 4369   1.494   0.464   8.669 -0.2051 -0.0600 -0.5376
 1457SOL    HW1 4370   1.497   0.438   8.577 -0.1390 -3.1691  0.2354
 1457SOL    HW2 4371   1.578   0.436   8.704 -0.7716 -0.2059  0.7520
 1458SOL     OW 4372   1.373   1.525   9.711  0.4157  0.7022  0.7288
 1458SOL    HW1 4373   1.364   1.430   9.723  0.8127  0.7590  1.5886
 1458SOL    HW2 4374   1.409   1.556   9.794 -0.0958  1.6664  0.6109
 1459SOL     OW 4375   1.755   4.758   7.402 -0.0638 -0.6083 -0.0277
 1459SOL    HW1 4376   1.765   4.853   7.402 -0.1565 -0.5888  0.8968
 1459SOL    HW2 4377   1.833   4.726   7.446 -0.9338 -0.8384  1.3931
 1460SOL     OW 4378   3.456   2.107   8.555  0.4393 -0.4971  0.8707
 1460SOL    HW1 4379   3.517   2.094   8.483 -0.6112 -3.7062  0.4410
 1460SOL    HW2 4380   3.511   2.140   8.627  1.9840  0.0657 -0.5030
 1461SOL     OW 4381   2.271   4.692   9.621 -0.1134 -0.4481 -0.0053
 1461SOL    HW1 4382   2.187   4.655   9.593 -1.4107  2.2626  0.0176
 1461SOL    HW2 4383   2.301   4.743   9.545  1.6176 -1.4544 -0.0501
 1462SOL     OW 4384   0.613   3.386   8.786 -0.2340  0.2627  0.2251
 1462SOL    HW1 4385   0.672   3.381   8.861 -1.0906  1.1668  0.9896
 1462SOL    HW2 4386   0.641   3.315   8.729  1.7701  0.8491  0.4037
 1463SOL     OW 4387   4.665   0.278   9.340  0.3901 -1.0699  0.0530
 1463SOL    HW1 4388   4.602   0.292   9.269  0.8724  1.7097  0.0580
 1463SOL    HW2 4389   4.618   0.223   9.403 -1.5886 -0.1834 -0.5441
 1464SOL     OW 4390   0.987   3.473   7.157  0.4012  0.2003 -0.0034
 1464SOL    HW1 4391   1.077   3.442   7.145 -0.4084 -2.2506 -0.2906
 1464SOL    HW2 4392   0.958   3.433   7.239  0.0646  2.3288  0.9793
 1465SOL     OW 4393   2.634   3.716   9.158  0.0163  0.2568 -0.2175
 1465SOL    HW1 4394   2.575   3.656   9.205  1.3709 -0.9493 -0.0016
 1465SOL    HW2 4395   2.575   3.770   9.105 -1.2211 -2.1951 -1.5165
 1466SOL     OW 4396   0.510   3.816   9.918 -0.9377  0.1069 -0.6611
 1466SOL    HW1 4397   0.541   3.751   9.981 -0.2895 -1.7841 -2.8185
 1466SOL    HW2 4398   0.528   3.777   9.833 -0.4316  3.1865 -2.0789
 1467SOL     OW 4399   1.002   3.102   8.798  0.4159  0.1090 -0.0681
 1467SOL    HW1 4400   0.977   3.055   8.878  0.4629 -0.1062 -0.1786
 1467SOL    HW2 4401   0.920   3.138   8.764  0.5065  0.9108  0.5214
 1468SOL     OW 4402   2.174   3.353   9.501  0.0234 -0.4464 -0.4382
 1468SOL    HW1 4403   2.138   3.371   9.414  1.3050  0.1376 -0.8859
 1468SOL    HW2 4404   2.146   3.426   9.555 -0.2702 -0.4998 -0.5168
 1469SOL     OW 4405   4.354   3.586   8.061 -0.1758  0.7068 -0.4179
 1469SOL    HW1 4406   4.282   3.648   8.057 -1.5101 -0.7054  0.7847
 1469SOL    HW2 4407   4.313   3.500   8.056  1.4727 -0.1372 -0.2518
 1470SOL     OW 4408   0.656   1.513  10.245 -0.4430  0.4017 -0.3035
 1470SOL    HW1 4409   0.695   1.425  10.246 -0.1328  0.3923 -3.7254
 1470SOL    HW2 4410   0.562   1.497  10.256 -0.1869 -0.0466  1.8383
 1471SOL     OW 4411   0.195   0.112   9.667 -0.6480  0.0725  0.1689
 1471SOL    HW1 4412   0.253   0.152   9.602 -0.1582  0.1327  0.6380
 1471SOL    HW2 4413   0.240   0.031   9.692 -1.8810 -1.0881 -1.1684
 1472SOL     OW 4414   3.500   2.245   7.066 -0.3531 -0.2521 -0.0699
 1472SOL    HW1 4415   3.554   2.276   6.993  0.0176 -0.0369  0.2931
 1472SOL    HW2 4416   3.424   2.204   7.024 -0.8328  1.0868 -0.5677
 1473SOL     OW 4417   2.362   0.864   9.361 -0.2946 -0.2995  0.0849
 1473SOL    HW1 4418   2.434   0.815   9.321 -0.7410 -2.1907  1.4108
 1473SOL    HW2 4419   2.365   0.838   9.454 -0.5568  2.2921  0.8862
 1474SOL     OW 4420   3.145   0.033  10.131  0.1239 -0.3807 -0.2389
 1474SOL    HW1 4421   3.105   0.030  10.218 -0.1689 -1.6543 -0.3922
 1474SOL    HW2 4422   3.071   0.032  10.071  0.3012  1.2485 -0.5217
 1475SOL     OW 4423   0.202   3.083   5.721 -0.0123 -0.7952  0.5662
 1475SOL    HW1 4424   0.178   3.010   5.779 -3.2387  0.5147  1.0446
 1475SOL    HW2 4425   0.206   3.043   5.634  1.7410 -2.1592  1.2047
 1476SOL     OW 4426   4.627   0.056   6.675  0.3088 -0.2512  0.1703
 1476SOL    HW1 4427   4.675   0.096   6.603 -0.8283  0.6815 -0.1015
 1476SOL    HW2 4428   4.549   0.019   6.634 -1.0418  1.4806  1.0634
 1477SOL     OW 4429   0.286   1.846  10.442 -0.2899 -0.3634 -0.4251
 1477SOL    HW1 4430   0.347   1.877  10.375 -0.8085  3.1599  0.5543
 1477SOL    HW2 4431   0.204   1.889  10.422 -0.5762  0.4344  2.1499
 1478SOL     OW 4432   2.537   1.655   9.574 -0.2371 -0.0403 -0.6319
 1478SOL    HW1 4433   2.519   1.673   9.481 -2.6443 -0.0082 -0.2308
 1478SOL    HW2 4434   2.573   1.567   9.575 -1.6420 -0.6566 -1.5059
 1479SOL     OW 4435   4.506   3.880   6.858 -0.1954 -0.5481 -0.3378
 1479SOL    HW1 4436   4.540   3.918   6.939  1.1871 -1.1150 -0.6246
 1479SOL    HW2 4437   4.523   3.947   6.791  2.2220 -1.5633 -0.8397
 1480SOL     OW 4438   3.999   4.685   9.501 -0.1245  0.6631 -0.3165
 1480SOL    HW1 4439   3.939   4.610   9.501  1.8153 -0.9859  0.7333
 1480SOL    HW2 4440   4.040   4.682   9.414  0.5095 -0.0007 -0.0047
 1481SOL     OW 4441   4.347   0.858   6.202  0.1096  0.6209 -0.0035
 1481SOL    HW1 4442   4.380   0.948   6.211 -1.3145  1.2116 -0.3667
 1481SOL    HW2 4443   4.348   0.823   6.291 -0.6769  1.5201  0.3817
 1482SOL     OW 4444   3.506   0.586   9.041 -0.5462 -0.0833 -0.1483
 1482SOL    HW1 4445   3.596   0.555   9.052 -0.9733 -1.3593 -0.0496
 1482SOL    HW2 4446   3.462   0.563   9.123 -1.9599 -3.2691 -1.6048
 1483SOL     OW 4447   1.128   3.772  10.016 -0.5848  0.2393 -0.2690
 1483SOL    HW1 4448   1.178   3.809   9.944  0.9355 -1.8900 -0.4035
 1483SOL    HW2 4449   1.066   3.841  10.041  2.8897  3.3716  0.4385
 1484SOL     OW 4450   0.534   1.928   9.922  0.4131 -0.5510  0.1718
 1484SOL    HW1 4451   0.580   1.856   9.965  0.8562 -0.4966 -0.2113
 1484SOL    HW2 4452   0.597   1.999   9.918 -0.3432  0.2429  1.5025
 1485SOL     OW 4453   2.965   4.529  10.560  0.3237  0.3348  0.1309
 1485SOL    HW1 4454   2.969   4.447  10.512 -2.8756 -1.1540  2.0792
 1485SOL    HW2 4455   3.045   4.531  10.612  0.9908 -0.9404 -0.7996
 1486SOL     OW 4456   2.055   0.678   9.749 -0.1533 -0.3993  0.6743
 1486SOL    HW1 4457   2.024   0.726   9.825  0.7233 -0.3033  0.9821
 1486SOL    HW2 4458   2.150   0.688   9.751  0.0483 -1.9903  0.6597
 1487SOL     OW 4459   4.306   4.293   5.367 -0.2130  0.0482  0.5573
 1487SOL    HW1 4460   4.398   4.312   5.382 -0.4634 -0.4757  3.3797
 1487SOL    HW2 4461   4.271   4.373   5.327  0.8487  1.5135  2.4111
 1488SOL     OW 4462   3.294   5.018   7.145  0.1577  0.3218  0.0858
 1488SOL    HW1 4463   3.356   4.988   7.078 -2.1202  1.0395 -2.5432
 1488SOL    HW2 4464   3.239   4.942   7.163 -0.6447  0.7162 -0.6124
 1489SOL     OW 4465   0.869   3.234   8.518  0.0097 -0.3168 -0.1199
 1489SOL    HW1 4466   0.901   3.325   8.516 -1.7839  0.3422 -2.1112
 1489SOL    HW2 4467   0.933   3.185   8.468 -0.3124  0.3509 -1.2112
 1490SOL     OW 4468   4.201   4.060   7.006 -0.2710  0.4763 -0.0737
 1490SOL    HW1 4469   4.248   4.098   6.932  1.4676  0.0677  0.7672
 1490SOL    HW2 4470   4.250   3.980   7.027 -1.6978 -0.2769  0.4863
 1491SOL     OW 4471   1.418   3.734   8.927  0.2082 -0.4196 -0.8610
 1491SOL    HW1 4472   1.462   3.684   8.995  1.7330  0.0271 -1.4735
 1491SOL    HW2 4473   1.326   3.735   8.953  0.5778 -1.2309  0.5640
 1492SOL     OW 4474   2.629   0.252   8.566 -0.3789 -0.7187 -0.2500
 1492SOL    HW1 4475   2.659   0.164   8.590  0.3206 -0.3337  0.3307
 1492SOL    HW2 4476   2.708   0.305   8.566 -0.7154 -0.2010 -1.1534
 1493SOL     OW 4477   4.018   4.323   8.502  0.0487 -0.1406 -0.1471
 1493SOL    HW1 4478   3.931   4.285   8.493  0.9990 -2.2208 -1.3213
 1493SOL    HW2 4479   4.023   4.352   8.593 -1.6647 -0.4918  0.0873
 1494SOL     OW 4480   1.755   4.606  10.065  0.2110  0.2058  0.5270
 1494SOL    HW1 4481   1.692   4.678  10.076 -0.2387 -0.0989 -0.0432
 1494SOL    HW2 4482   1.825   4.626  10.128  0.6701  1.7659 -0.4145
 1495SOL     OW 4483   4.952   2.149   8.280 -0.0597 -0.3283 -0.4733
 1495SOL    HW1 4484   4.863   2.149   8.246  0.4434  2.5690 -2.1140
 1495SOL    HW2 4485   4.998   2.084   8.226 -1.4840 -3.6716  1.9319
 1496SOL     OW 4486   4.123   3.301   9.626 -0.0945 -1.1772 -0.2885
 1496SOL    HW1 4487   4.215   3.305   9.599  0.3749 -0.5460  1.3005
 1496SOL    HW2 4488   4.077   3.265   9.550  1.2291 -0.0597 -1.6742
 1497SOL     OW 4489   4.522   0.259  10.102  0.3614 -0.1295  0.0728
 1497SOL    HW1 4490   4.584   0.327  10.127 -1.9593  1.6138  1.5532
 1497SOL    HW2 4491   4.576   0.184  10.079  2.9811  1.4638  0.6256
 1498SOL     OW 4492   2.282   0.056   8.261  0.2654  0.8818 -0.4185
 1498SOL    HW1 4493   2.375   0.036   8.250  0.3692 -0.3082  1.9352
 1498SOL    HW2 4494   2.281   0.128   8.323 -0.3792  1.1828 -0.7776
 1499SOL     OW 4495   1.347   0.635   7.000 -0.4216 -0.2843 -0.0226
 1499SOL    HW1 4496   1.427   0.583   6.987 -0.2365  0.0075 -0.0656
 1499SOL    HW2 4497   1.366   0.689   7.077  0.5506  1.8887 -1.6885
 1500SOL     OW 4498   1.365   2.897   8.605  0.4839  0.0658 -0.6738
 1500SOL    HW1 4499   1.351   2.841   8.529  3.3868  1.3087 -2.2504
 1500SOL    HW2 4500   1.284   2.947   8.613 -0.6851 -1.5958 -1.5637
 1501SOL     OW 4501   1.016   4.616   7.401 -0.4174 -0.1619 -0.6612
 1501SOL    HW1 4502   1.055   4.626   7.488 -1.8826  1.1409 -0.1195
 1501SOL    HW2 4503   1.084   4.573   7.349  0.3575 -1.2667  1.2054
 1502SOL     OW 4504   1.888   4.731   8.558  0.4472  0.0899 -0.0482
 1502SOL    HW1 4505   1.844   4.688   8.484  1.5679  0.3704 -0.8955
 1502SOL    HW2 4506   1.885   4.666   8.628  0.8811 -0.8525 -0.8812
 1503SOL     OW 4507   1.769   1.931   8.936 -0.3013 -0.4371 -0.2188
 1503SOL    HW1 4508   1.829   1.894   9.000 -0.8354 -0.0761  0.4985
 1503SOL    HW2 4509   1.782   2.025   8.941 -1.0144 -0.3433  0.0475
 1504SOL     OW 4510   2.592   1.703   6.790 -0.0371 -0.0071  0.7498
 1504SOL    HW1 4511   2.680   1.709   6.753  1.0704 -0.0208  3.2015
 1504SOL    HW2 4512   2.565   1.613   6.773  0.5012 -0.0678  0.1656
 1505SOL     OW 4513   4.092   4.812   9.939  0.6855  1.1820 -0.3854
 1505SOL    HW1 4514   4.174   4.850   9.970 -0.1779  2.7820  0.0385
 1505SOL    HW2 4515   4.035   4.887   9.925 -0.3222  0.1788 -1.8466
 1506SOL     OW 4516   1.422   2.569   9.833 -0.4900 -0.2455  0.1731
 1506SOL    HW1 4517   1.411   2.664   9.830 -0.4166 -0.2597 -1.2033
 1506SOL    HW2 4518   1.395   2.545   9.922 -0.4022  1.0634  0.5794
 1507SOL     OW 4519   3.265   2.665   7.911  0.5636 -0.2795 -0.5014
 1507SOL    HW1 4520   3.339   2.615   7.946 -0.2074  0.0903  1.8587
 1507SOL    HW2 4521   3.188   2.614   7.936 -0.3379  2.3884  2.9823
 1508SOL     OW 4522   0.673   3.584   8.241 -0.5459 -0.6794 -0.1787
 1508SOL    HW1 4523   0.630   3.621   8.164 -2.4586 -0.7557  0.7906
 1508SOL    HW2 4524   0.718   3.506   8.209  0.3719  0.3716 -1.5520
 1509SOL     OW 4525   2.721   4.593   9.864  0.3544 -0.4116  0.1671
 1509SOL    HW1 4526   2.634   4.555   9.876 -0.0439 -0.1696 -1.6658
 1509SOL    HW2 4527   2.704   4.678   9.822  1.5449 -1.5530 -2.8554
 1510SOL     OW 4528   4.631   4.106   8.292  0.0129 -0.3057 -0.6178
 1510SOL    HW1 4529   4.622   4.024   8.340  2.1779 -0.5769 -0.5703
 1510SOL    HW2 4530   4.684   4.161   8.349  0.6809  0.2072 -1.7039
 1511SOL     OW 4531   1.058   3.435   6.510 -0.2524 -1.2136  0.2328
 1511SOL    HW1 4532   1.041   3.342   6.522  0.1691 -1.3282 -0.0179
 1511SOL    HW2 4533   0.972   3.474   6.494 -0.5768 -1.3672  1.5066
 1512SOL     OW 4534   4.257   4.108   5.132  0.5659  0.8110  0.1536
 1512SOL    HW1 4535   4.176   4.127   5.085 -0.0204 -1.6287  0.0462
 1512SOL    HW2 4536   4.258   4.172   5.204 -2.3447 -0.0966  1.1566
 1513SOL     OW 4537   2.697   2.207   8.561  0.1215 -0.0555  0.2610
 1513SOL    HW1 4538   2.669   2.281   8.614 -1.7646 -1.3989  1.2545
 1513SOL    HW2 4539   2.710   2.135   8.624 -1.2377 -1.4332 -0.9540
 1514SOL     OW 4540   2.799   2.895   8.521 -0.9228 -0.1050  0.3654
 1514SOL    HW1 4541   2.881   2.927   8.484 -1.1866  0.2420  0.0852
 1514SOL    HW2 4542   2.739   2.970   8.519 -1.6171 -0.6588 -0.5248
 1515SOL     OW 4543   3.554   0.284  10.151 -0.1636  0.0654 -0.2000
 1515SOL    HW1 4544   3.625   0.325  10.201 -0.0763  0.8435 -0.9432
 1515SOL    HW2 4545   3.587   0.197  10.130  0.4840  0.3426 -0.3501
 1516SOL     OW 4546   3.533   1.284   9.393  0.3581  0.4618 -0.4417
 1516SOL    HW1 4547   3.618   1.327   9.383  0.7407  0.0222  0.8022
 1516SOL    HW2 4548   3.521   1.235   9.312  1.1088  0.8182 -0.7777
 1517SOL     OW 4549   1.122   0.197   8.803 -0.2150  0.5048  0.1932
 1517SOL    HW1 4550   1.176   0.260   8.756  0.4691  1.0871  1.6983
 1517SOL    HW2 4551   1.170   0.179   8.884 -0.5101 -1.7717 -0.0593
 1518SOL     OW 4552   4.850   3.059   7.463 -0.5047  0.7488  0.9922
 1518SOL    HW1 4553   4.866   3.153   7.474  1.5645  0.5872 -0.2704
 1518SOL    HW2 4554   4.761   3.055   7.428 -0.5971  2.2452  0.9748
 1519SOL     OW 4555   0.062   3.996   8.350 -0.7670 -0.0011  0.2406
 1519SOL    HW1 4556   0.015   3.927   8.395  2.0931 -0.8412  2.1900
 1519SOL    HW2 4557   0.027   4.077   8.386 -0.2628 -0.6250  2.2311
 1520SOL     OW 4558   4.603   0.457   9.835 -0.7596  0.8445 -0.2752
 1520SOL    HW1 4559   4.604   0.544   9.794  1.2919  0.6622 -0.7317
 1520SOL    HW2 4560   4.692   0.425   9.823 -1.8489 -2.0375 -1.5832
 1521SOL     OW 4561   3.121   3.623   9.851 -0.1086  0.5462  0.3107
 1521SOL    HW1 4562   3.089   3.706   9.816 -1.6962 -0.0436  0.2425
 1521SOL    HW2 4563   3.173   3.646   9.928  0.2871  1.6418 -0.2737
 1522SOL     OW 4564   3.149   3.159   8.692  0.3505 -0.5018  0.1894
 1522SOL    HW1 4565   3.158   3.070   8.726 -1.1183 -0.3935  0.9440
 1522SOL    HW2 4566   3.230   3.174   8.643 -0.6096 -3.3430 -2.5869
 1523SOL     OW 4567   0.217   2.189   7.742  0.4474  0.4254 -0.3686
 1523SOL    HW1 4568   0.131   2.228   7.757 -0.1541 -0.6988 -0.7662
 1523SOL    HW2 4569   0.205   2.134   7.665  1.7643  0.9409 -0.9670
 1524SOL     OW 4570   3.105   2.541   8.632  0.3836  0.0578  0.5469
 1524SOL    HW1 4571   3.072   2.533   8.722 -0.7832  0.1155  0.1500
 1524SOL    HW2 4572   3.158   2.463   8.620 -0.2891 -0.4842  0.9674
 1525SOL     OW 4573   1.155   4.660   8.448 -0.0120 -0.0117 -0.3484
 1525SOL    HW1 4574   1.175   4.655   8.542 -3.6138 -0.6729  0.5612
 1525SOL    HW2 4575   1.140   4.570   8.422  0.5196  0.2163 -1.4810
 1526SOL     OW 4576   3.943   3.717   5.681  0.2937 -0.3914 -0.3394
 1526SOL    HW1 4577   4.021   3.662   5.678  1.0586  0.6906 -2.8016
 1526SOL    HW2 4578   3.963   3.784   5.747  3.1631  2.0716 -3.4106
 1527SOL     OW 4579   2.550   4.083   6.927  0.5606  0.3392 -0.0180
 1527SOL    HW1 4580   2.476   4.026   6.946 -0.2927  1.8349  1.4080
 1527SOL    HW2 4581   2.591   4.098   7.012  1.3881  1.0188 -0.5201
 1528SOL     OW 4582   2.760   2.880   4.339 -0.7658 -0.2355  0.1230
 1528SOL    HW1 4583   2.807   2.955   4.302 -0.6556  0.9812  2.5064
 1528SOL    HW2 4584   2.676   2.881   4.295  0.8741 -1.7308 -3.3728
 1529SOL     OW 4585   3.830   4.858   7.186  0.6672 -0.6103  0.1270
 1529SOL    HW1 4586   3.738   4.862   7.212  1.2852  0.2332  2.5242
 1529SOL    HW2 4587   3.829   4.830   7.095 -1.9587 -0.4293  0.0345
 1530SOL     OW 4588   2.908   0.239   7.721 -0.0527 -0.2594  0.2820
 1530SOL    HW1 4589   2.922   0.314   7.778 -2.7977  0.5863 -0.0257
 1530SOL    HW2 4590   2.983   0.240   7.661  0.5496  1.5391  0.9942
 1531SOL     OW 4591   1.339   2.036   6.801 -0.1952 -0.6128 -0.0020
 1531SOL    HW1 4592   1.377   1.967   6.748 -0.9503 -0.4634 -0.7724
 1531SOL    HW2 4593   1.246   2.014   6.805 -0.6195  0.8309 -1.0515
 1532SOL     OW 4594   3.957   0.425   5.731  1.1912 -0.2530  0.1988
 1532SOL    HW1 4595   3.888   0.427   5.664 -0.6486 -0.6442  1.9884
 1532SOL    HW2 4596   4.034   0.394   5.684  0.5801  1.5736 -2.2131
 1533SOL     OW 4597   2.047   0.238   7.823  0.2475  0.1518  0.0198
 1533SOL    HW1 4598   2.039   0.266   7.914 -1.5293 -2.0116  0.6133
 1533SOL    HW2 4599   2.141   0.236   7.806  0.5871  0.8735  1.6989
 1534SOL     OW 4600   0.065   4.604   5.726  0.0297  0.1564 -0.0771
 1534SOL    HW1 4601   0.013   4.670   5.770 -0.6774 -1.4472  1.6275
 1534SOL    HW2 4602   0.136   4.653   5.684 -1.2015  2.0848 -0.0095
 1535SOL     OW 4603   3.334   0.663   5.680 -0.3500 -0.4694  0.1338
 1535SOL    HW1 4604   3.401   0.647   5.613  0.6013 -1.3743  1.2466
 1535SOL    HW2 4605   3.384   0.679   5.760 -1.4242 -2.4331  1.2770
 1536SOL     OW 4606   1.350   0.308   7.584 -0.8929  0.0401 -0.5015
 1536SOL    HW1 4607   1.333   0.259   7.665 -1.5022  1.6148  0.3682
 1536SOL    HW2 4608   1.406   0.380   7.612 -1.8907  1.1463 -1.2968
 1537SOL     OW 4609   2.448   2.543   7.993  0.2113 -1.0832 -0.0610
 1537SOL    HW1 4610   2.530   2.578   8.029 -1.2736  1.9484  0.6990
 1537SOL    HW2 4611   2.389   2.539   8.069 -1.2149 -0.2348 -1.0826
 1538SOL     OW 4612   2.776   2.096   5.607  0.4005 -0.1954  0.1159
 1538SOL    HW1 4613   2.683   2.108   5.625 -0.4729  0.6795 -4.0672
 1538SOL    HW2 4614   2.782   2.010   5.566  1.3918 -0.1001  0.0208
 1539SOL     OW 4615   2.959   4.800   5.314 -0.8400  0.2169  0.0353
 1539SOL    HW1 4616   2.891   4.861   5.344  0.1557  0.8877  0.9902
 1539SOL    HW2 4617   2.948   4.798   5.219 -1.7642  0.8186  0.1107
 1540SOL     OW 4618   0.272   2.297   5.886 -0.9414  0.2332 -0.2344
 1540SOL    HW1 4619   0.291   2.258   5.972 -0.9900  0.1184 -0.2754
 1540SOL    HW2 4620   0.293   2.228   5.823  1.6667  1.1516 -0.5201
 1541SOL     OW 4621   2.479   0.238   5.726  1.3898  0.0508 -0.5664
 1541SOL    HW1 4622   2.539   0.215   5.797  0.7580  1.4502  0.4584
 1541SOL    HW2 4623   2.531   0.290   5.665  1.6410 -0.1909 -0.5589
 1542SOL     OW 4624   0.085   4.762   8.155  0.0081  0.4872  0.1730
 1542SOL    HW1 4625   0.121   4.757   8.243  1.8273 -0.5081 -0.5550
 1542SOL    HW2 4626   0.131   4.835   8.114 -1.1273  1.2144  0.1310
 1543SOL     OW 4627   4.695   2.079   8.187  0.5799 -1.0762 -0.1775
 1543SOL    HW1 4628   4.605   2.109   8.202  0.5499 -1.1555 -0.1991
 1543SOL    HW2 4629   4.688   1.984   8.184  0.5845 -1.0623 -0.6825
 1544SOL     OW 4630   4.507   0.503   5.546  0.0311  0.2357 -0.4385
 1544SOL    HW1 4631   4.517   0.595   5.522  1.3896  0.1234 -0.3852
 1544SOL    HW2 4632   4.437   0.503   5.611  0.6455  1.3709  0.2600
 1545SOL     OW 4633   3.212   0.832   7.546 -0.3174 -0.0982  0.0434
 1545SOL    HW1 4634   3.293   0.780   7.541 -0.6577 -0.6473  0.0961
 1545SOL    HW2 4635   3.242   0.921   7.563  0.2144 -0.6462  2.4267
 1546SOL     OW 4636   1.669   0.535   5.778 -0.2890 -0.1591  0.2779
 1546SOL    HW1 4637   1.694   0.572   5.694 -2.2154 -1.4564 -0.9519
 1546SOL    HW2 4638   1.582   0.569   5.795 -0.0110 -0.0671  1.6997
 1547SOL     OW 4639   4.897   0.933   7.229  0.5037  0.1092  0.1277
 1547SOL    HW1 4640   4.856   0.848   7.212  0.5104 -0.4687  2.6299
 1547SOL    HW2 4641   4.991   0.915   7.225  0.5984  0.7494 -2.4273
 1548SOL     OW 4642   2.093   3.038   7.536 -0.6841  0.7643  0.1501
 1548SOL    HW1 4643   2.037   2.994   7.471 -2.1933  1.8100  0.6854
 1548SOL    HW2 4644   2.050   3.020   7.620  0.0378  1.2321  0.6240
 1549SOL     OW 4645   3.029   1.229   5.966  0.6742  0.1146  0.1354
 1549SOL    HW1 4646   2.950   1.179   5.944  1.8166 -1.2840 -1.0452
 1549SOL    HW2 4647   2.998   1.298   6.025 -1.1374 -1.4377  1.1339
 1550SOL     OW 4648   4.828   2.719   5.893  0.4120 -0.4170  0.2419
 1550SOL    HW1 4649   4.859   2.684   5.977  3.1733  0.7655 -0.1451
 1550SOL    HW2 4650   4.812   2.642   5.839 -2.4223 -1.2581  2.0526
 1551SOL     OW 4651   4.914   0.570   5.364  0.3682  0.0181 -0.3870
 1551SOL    HW1 4652   4.906   0.488   5.314 -0.6410 -0.6888  0.8878
 1551SOL    HW2 4653   4.838   0.621   5.339  1.3417  0.8997 -1.6930
 1552SOL     OW 4654   1.090   1.718   6.041 -0.4006  0.1348  0.8441
 1552SOL    HW1 4655   1.105   1.629   6.073  1.1074  0.1804  0.3920
 1552SOL    HW2 4656   1.074   1.708   5.947  1.1515  0.3907  0.5113
 1553SOL     OW 4657   4.082   1.196   4.960 -0.3636 -0.3143  0.2154
 1553SOL    HW1 4658   4.075   1.292   4.957  0.0044 -0.3156 -1.9253
 1553SOL    HW2 4659   4.103   1.177   5.051 -1.8191  1.5307  1.0158
 1554SOL     OW 4660   1.606   0.707   4.817  0.0792 -0.3527 -0.2744
 1554SOL    HW1 4661   1.566   0.662   4.891 -0.6400  2.1174  0.9220
 1554SOL    HW2 4662   1.692   0.665   4.808 -0.2952 -1.5233  1.1405
 1555SOL     OW 4663   2.724   1.564   5.793  0.1922  0.3143 -0.4688
 1555SOL    HW1 4664   2.724   1.640   5.851 -2.1689 -0.3264  0.5023
 1555SOL    HW2 4665   2.816   1.537   5.788  0.7502  1.7514  1.1206
 1556SOL     OW 4666   3.132   3.323   4.819  0.3107  0.3444 -0.2535
 1556SOL    HW1 4667   3.174   3.368   4.746 -0.1593 -1.3495 -1.6283
 1556SOL    HW2 4668   3.074   3.259   4.778  0.1774 -0.8031  1.5988
 1557SOL     OW 4669   0.759   4.879   6.752 -0.4921  0.8551 -0.2671
 1557SOL    HW1 4670   0.804   4.877   6.667  0.4973 -3.6883  0.0650
 1557SOL    HW2 4671   0.812   4.937   6.806 -0.6624  3.2016 -2.4161
 1558SOL     OW 4672   0.762   0.217   4.781  0.2049 -0.1203  0.5154
 1558SOL    HW1 4673   0.745   0.285   4.717  2.7541  2.4855  2.3563
 1558SOL    HW2 4674   0.765   0.263   4.865  6.3068 -1.4492  1.5008
 1559SOL     OW 4675   1.723   1.603   6.860  0.4036 -0.1210 -0.1255
 1559SOL    HW1 4676   1.769   1.626   6.941  0.1061 -1.6581  0.5206
 1559SOL    HW2 4677   1.743   1.674   6.800 -0.6176  1.9023  1.7716
 1560SOL     OW 4678   3.920   1.703   6.928  0.1468  0.0122 -0.3750
 1560SOL    HW1 4679   3.900   1.748   7.010 -0.4409  1.0673 -1.0713
 1560SOL    HW2 4680   3.920   1.772   6.862  0.5928 -0.8170 -1.2715
 1561SOL     OW 4681   0.089   3.684   6.976  0.7711 -0.7437  0.2660
 1561SOL    HW1 4682   0.064   3.647   6.892  0.0454  0.2265  0.0370
 1561SOL    HW2 4683   0.181   3.707   6.966  1.2478 -2.4720  0.4284
 1562SOL     OW 4684   3.287   0.530   6.613  0.2309  0.6696 -0.0219
 1562SOL    HW1 4685   3.219   0.567   6.557 -0.7571  1.2485  1.5127
 1562SOL    HW2 4686   3.245   0.456   6.657  1.0121  0.1715 -0.0737
 1563SOL     OW 4687   2.037   0.184   5.263 -0.3385 -0.6356 -0.4475
 1563SOL    HW1 4688   2.051   0.105   5.316  2.5175  0.0741  0.0031
 1563SOL    HW2 4689   2.076   0.163   5.178  0.2295  0.1848 -0.4004
 1564SOL     OW 4690   2.443   0.224   4.865  0.3225  0.3131 -0.1958
 1564SOL    HW1 4691   2.491   0.256   4.941  0.5218  0.6730 -0.4729
 1564SOL    HW2 4692   2.481   0.138   4.847  2.5345  1.5530 -1.8602
 1565SOL     OW 4693   4.053   4.649   7.143 -0.1573 -0.4834  0.0173
 1565SOL    HW1 4694   3.972   4.600   7.155 -0.9021 -0.0357 -2.6905
 1565SOL    HW2 4695   4.119   4.582   7.126 -0.7888 -0.7136 -1.7260
 1566SOL     OW 4696   3.255   2.846   6.936  1.1552 -0.6870  0.4890
 1566SOL    HW1 4697   3.343   2.885   6.934  1.2958 -1.0197 -0.2087
 1566SOL    HW2 4698   3.207   2.892   6.867 -0.0032  1.2192  2.4355
 1567SOL     OW 4699   1.906   4.246   5.476  0.5046 -0.5136  0.3874
 1567SOL    HW1 4700   1.843   4.280   5.412 -0.5066 -0.8059  1.1872
 1567SOL    HW2 4701   1.967   4.194   5.424 -0.1604 -0.5544 -0.3833
 1568SOL     OW 4702   1.473   1.421   7.728 -0.0867 -0.6934  0.9747
 1568SOL    HW1 4703   1.381   1.402   7.707 -0.3054 -0.0030  1.2606
 1568SOL    HW2 4704   1.523   1.363   7.671 -0.6503  1.2642 -1.7140
 1569SOL     OW 4705   1.718   0.184   5.817  0.1348  0.2414  0.0563
 1569SOL    HW1 4706   1.803   0.180   5.859  0.4428  1.1870 -0.4614
 1569SOL    HW2 4707   1.698   0.277   5.810  1.0323  0.3046 -3.6673
 1570SOL     OW 4708   0.576   4.118   4.729 -0.1082 -0.3366 -0.5869
 1570SOL    HW1 4709   0.528   4.063   4.791 -0.6183  1.1280  0.3562
 1570SOL    HW2 4710   0.668   4.106   4.753 -0.1541 -1.2168 -0.7894
 1571SOL     OW 4711   2.621   3.535   6.942 -0.9671  0.0733 -0.4365
 1571SOL    HW1 4712   2.602   3.589   7.018  0.5234 -0.9736  0.7138
 1571SOL    HW2 4713   2.582   3.450   6.962  0.7127 -0.6637 -0.1359
 1572SOL     OW 4714   1.943   1.849   5.354 -0.0607  0.3340  0.5491
 1572SOL    HW1 4715   1.873   1.806   5.404 -0.0485  0.0402  0.3181
 1572SOL    HW2 4716   2.012   1.783   5.350  0.0863  0.4944  0.4704
 1573SOL     OW 4717   0.118   2.179   7.181  0.8135 -0.0237  0.2921
 1573SOL    HW1 4718   0.134   2.200   7.089 -1.7301  0.4014 -0.1472
 1573SOL    HW2 4719   0.198   2.204   7.226  2.0744 -0.1128 -1.7879
 1574SOL     OW 4720   4.486   0.336   6.320  0.6207 -0.0886  0.3330
 1574SOL    HW1 4721   4.396   0.306   6.331  0.6308 -0.3606 -0.2847
 1574SOL    HW2 4722   4.477   0.425   6.283  0.5918 -0.7475 -1.3413
 1575SOL     OW 4723   0.857   4.826   8.520 -0.3481  0.3939 -0.1474
 1575SOL    HW1 4724   0.883   4.904   8.569 -2.8841  0.5464  1.1118
 1575SOL    HW2 4725   0.901   4.754   8.566  1.6557  0.9692 -1.0513
 1576SOL     OW 4726   2.265   2.072   9.627  0.0445 -0.0703  0.0431
 1576SOL    HW1 4727   2.249   1.982   9.598  0.2706  0.4598 -1.8600
 1576SOL    HW2 4728   2.336   2.103   9.571 -0.8111  1.6594 -0.1404
 1577SOL     OW 4729   3.864   4.230   7.706 -0.4460 -1.0504 -0.4061
 1577SOL    HW1 4730   3.926   4.253   7.637  0.0342  0.6325  0.5284
 1577SOL    HW2 4731   3.898   4.148   7.742  1.9364  0.3021  0.7546
 1578SOL     OW 4732   4.307   2.646   4.991  0.1403  0.1391  0.4393
 1578SOL    HW1 4733   4.334   2.572   5.045  0.5245 -0.5922 -0.7164
 1578SOL    HW2 4734   4.213   2.656   5.009  0.3621  0.2683  1.6225
 1579SOL     OW 4735   3.486   2.043   6.434  0.2588 -0.5496 -0.0503
 1579SOL    HW1 4736   3.580   2.052   6.415  0.2512 -0.4855 -0.0604
 1579SOL    HW2 4737   3.445   2.112   6.382  0.3615  0.5031  1.1979
 1580SOL     OW 4738   1.651   3.481   5.491  0.4381  0.3651  0.0640
 1580SOL    HW1 4739   1.708   3.405   5.494 -1.7024 -1.3168  1.8287
 1580SOL    HW2 4740   1.702   3.552   5.531  1.4241 -1.0010  1.3284
 1581SOL     OW 4741   2.028   2.479   5.142  0.3727  0.5033  0.3849
 1581SOL    HW1 4742   1.989   2.504   5.225 -0.3876 -0.2750  0.2754
 1581SOL    HW2 4743   2.100   2.421   5.165  0.3300  0.5001  0.5090
 1582SOL     OW 4744   3.515   0.352   6.988 -0.4668  0.4706 -0.0016
 1582SOL    HW1 4745   3.467   0.422   6.943  0.3014  0.7177 -0.4469
 1582SOL    HW2 4746   3.498   0.369   7.081 -1.7908  0.1469 -0.1633
 1583SOL     OW 4747   3.947   3.536   4.830  0.6173 -0.1700  0.3490
 1583SOL    HW1 4748   3.975   3.521   4.920  0.6438 -0.9803  0.2154
 1583SOL    HW2 4749   3.866   3.587   4.838  0.5909 -0.2817  0.8342
 1584SOL     OW 4750   0.239   0.089   5.187 -0.1306 -0.0509  0.5766
 1584SOL    HW1 4751   0.284   0.034   5.123 -0.2333  1.4737 -0.8485
 1584SOL    HW2 4752   0.165   0.035   5.217 -0.5502 -0.5254 -1.1879
 1585SOL     OW 4753   2.526   1.468   5.379  0.0179 -0.0762  0.8586
 1585SOL    HW1 4754   2.484   1.529   5.318 -0.9189 -0.8309  0.7312
 1585SOL    HW2 4755   2.462   1.398   5.391  0.6844 -0.5490  1.7686
 1586SOL     OW 4756   1.987   1.232   4.807  0.0536 -0.9906 -0.1429
 1586SOL    HW1 4757   1.909   1.263   4.761  0.0629 -1.1655 -0.2786
 1586SOL    HW2 4758   1.972   1.138   4.817 -1.0175 -0.6580  2.2228
 1587SOL     OW 4759   2.025   0.586   5.505 -0.3172 -0.5014 -0.1627
 1587SOL    HW1 4760   2.064   0.530   5.572 -0.0362 -0.9393 -0.6817
 1587SOL    HW2 4761   1.933   0.562   5.504  0.1064 -2.2740 -1.6187
 1588SOL     OW 4762   4.165   3.698   6.143 -0.1596  0.5185  0.3422
 1588SOL    HW1 4763   4.087   3.649   6.115  0.1837  0.8873 -1.3611
 1588SOL    HW2 4764   4.153   3.785   6.106  0.1921  1.1574  1.6772
 1589SOL     OW 4765   1.702   4.460   6.936  0.4748 -0.3300 -0.3412
 1589SOL    HW1 4766   1.795   4.481   6.927  0.3110  0.5114 -0.2187
 1589SOL    HW2 4767   1.671   4.519   7.005 -0.2769 -0.1429 -0.8187
 1590SOL     OW 4768   1.803   2.747   5.022 -0.3999  0.4737  0.4390
 1590SOL    HW1 4769   1.889   2.770   5.058 -0.8790  1.7345  0.8171
 1590SOL    HW2 4770   1.787   2.658   5.055  1.3013 -0.3154 -0.7005
 1591SOL     OW 4771   2.638   1.766   4.793 -0.1471 -0.3855 -0.0005
 1591SOL    HW1 4772   2.570   1.797   4.733  0.2634 -0.7658 -0.6762
 1591SOL    HW2 4773   2.622   1.814   4.874 -0.6054  0.2677 -0.4660
 1592SOL     OW 4774   2.682   3.040   7.309  0.7019  0.2067  0.7435
 1592SOL    HW1 4775   2.601   2.989   7.308 -0.4598  1.9300  1.2478
 1592SOL    HW2 4776   2.693   3.067   7.400  0.6420  1.7409  0.3306
 1593SOL     OW 4777   1.071   4.407   7.199 -0.4054  0.3358 -0.0275
 1593SOL    HW1 4778   1.068   4.486   7.146 -0.0560  1.1915  1.1876
 1593SOL    HW2 4779   1.002   4.351   7.163 -0.0418  0.7847 -1.4914
 1594SOL     OW 4780   4.528   4.708   5.512 -0.1184  0.3297  0.3532
 1594SOL    HW1 4781   4.525   4.767   5.587  0.5271  0.8559 -0.0197
 1594SOL    HW2 4782   4.457   4.646   5.526  0.6222 -0.2116  1.9068
 1595SOL     OW 4783   3.764   4.997   5.932  0.1204 -0.3641  0.6021
 1595SOL    HW1 4784   3.668   5.004   5.940 -0.0240  0.9638 -1.3892
 1595SOL    HW2 4785   3.779   4.909   5.897 -0.4899 -0.1920 -0.1309
 1596SOL     OW 4786   4.162   1.680   6.766  0.8485  0.1216 -0.3409
 1596SOL    HW1 4787   4.074   1.643   6.773  0.9240 -0.4537 -2.0510
 1596SOL    HW2 4788   4.148   1.772   6.745  0.6760  0.2628  0.3522
 1597SOL     OW 4789   3.093   4.834   7.245  0.7582  0.1026 -0.6130
 1597SOL    HW1 4790   3.007   4.875   7.244  1.8896  2.9415  2.0929
 1597SOL    HW2 4791   3.086   4.765   7.311  0.8974  1.3033  0.6841
 1598SOL     OW 4792   1.234   0.702   7.421  0.0804 -0.0047  0.4443
 1598SOL    HW1 4793   1.157   0.645   7.429 -1.0093  1.5211  1.3911
 1598SOL    HW2 4794   1.308   0.644   7.433 -0.9015 -1.5697 -0.7044
 1599SOL     OW 4795   3.940   2.189   5.821  0.8444 -0.3761  0.1394
 1599SOL    HW1 4796   3.993   2.260   5.857  1.2015 -0.8102  0.4721
 1599SOL    HW2 4797   3.854   2.199   5.863  0.6850  0.2620 -0.3199
 1600SOL     OW 4798   1.001   0.258   6.598  0.4603  0.4602  0.3642
 1600SOL    HW1 4799   0.976   0.170   6.624 -0.2236  0.8014  0.9147
 1600SOL    HW2 4800   1.023   0.302   6.681 -0.0810  1.0661  0.1972
 1601SOL     OW 4801   4.369   0.359   5.932 -0.4369  0.4672  0.8796
 1601SOL    HW1 4802   4.437   0.381   5.995  0.5672  1.4137 -0.4757
 1601SOL    HW2 4803   4.389   0.412   5.855 -1.6915 -0.5445 -0.1992
 1602SOL     OW 4804   2.958   1.833   5.341  0.6671  0.2162 -0.1243
 1602SOL    HW1 4805   3.051   1.809   5.350  1.0072  0.0876 -3.0525
 1602SOL    HW2 4806   2.946   1.848   5.247 -1.9476  1.7605  0.3669
 1603SOL     OW 4807   3.684   4.928   4.962 -0.0961 -0.3677  0.0226
 1603SOL    HW1 4808   3.643   4.871   4.898  3.8911 -1.0321 -2.2799
 1603SOL    HW2 4809   3.774   4.897   4.969  1.0284  2.7525  2.2767
 1604SOL     OW 4810   0.433   1.718   5.240 -0.2300 -0.2322  0.4547
 1604SOL    HW1 4811   0.360   1.739   5.298 -1.2901 -0.2446 -0.8279
 1604SOL    HW2 4812   0.407   1.636   5.198  0.0131  0.3057 -0.7922
 1605SOL     OW 4813   3.145   0.216   7.567  0.5130  0.6698 -0.4608
 1605SOL    HW1 4814   3.227   0.191   7.609  0.5647  2.1129  0.3575
 1605SOL    HW2 4815   3.162   0.205   7.474  1.9126  1.6547 -0.3571
 1606SOL     OW 4816   3.673   0.253   6.135 -0.1046 -0.2754  0.5519
 1606SOL    HW1 4817   3.588   0.276   6.172  1.5606 -0.0132  4.8593
 1606SOL    HW2 4818   3.717   0.337   6.121 -0.4864 -0.4020 -1.7335
 1607SOL     OW 4819   2.957   1.579   4.483  0.2360  0.2508 -0.4335
 1607SOL    HW1 4820   2.977   1.608   4.394  1.8802  0.8800  0.0924
 1607SOL    HW2 4821   2.984   1.487   4.484 -2.7053 -0.7304 -1.4108
 1608SOL     OW 4822   2.336   2.082   5.300  0.3469 -0.1045  0.1745
 1608SOL    HW1 4823   2.335   2.074   5.205 -2.2567 -1.3359  0.2265
 1608SOL    HW2 4824   2.413   2.136   5.319  1.0455 -0.0090 -2.5882
 1609SOL     OW 4825   0.033   4.901   5.244 -0.6464  0.0064  0.5420
 1609SOL    HW1 4826   0.052   4.840   5.172 -0.3222 -1.6012  1.9145
 1609SOL    HW2 4827  -0.056   4.878   5.272 -0.8228  0.7124  0.5800
 1610SOL     OW 4828   0.272   2.794   4.719 -0.8195 -0.7701 -0.7336
 1610SOL    HW1 4829   0.300   2.706   4.746 -1.2020 -1.2545 -1.8584
 1610SOL    HW2 4830   0.222   2.827   4.794 -1.7694 -2.0383 -0.7728
 1611SOL     OW 4831   2.336   4.879   6.139  0.5689 -0.4846  0.1485
 1611SOL    HW1 4832   2.329   4.969   6.171 -1.1576 -0.0435 -1.2753
 1611SOL    HW2 4833   2.428   4.867   6.118  0.7092  1.2271 -0.3364
 1612SOL     OW 4834   1.865   3.425   4.358  0.9585 -0.7390 -0.3986
 1612SOL    HW1 4835   1.789   3.429   4.299  1.5223 -2.7629 -1.3593
 1612SOL    HW2 4836   1.832   3.381   4.437 -0.5117  4.3085  2.2044
 1613SOL     OW 4837   4.836   1.120   5.967  0.5626 -1.1996  0.8144
 1613SOL    HW1 4838   4.868   1.171   6.041  0.2427 -2.9247  2.1917
 1613SOL    HW2 4839   4.905   1.128   5.901  0.9707  0.1388  1.3720
 1614SOL     OW 4840   3.760   2.186   7.801  0.2157 -0.1829 -0.1195
 1614SOL    HW1 4841   3.809   2.264   7.828  1.1412 -0.5257 -0.7798
 1614SOL    HW2 4842   3.673   2.220   7.780  0.2572  0.4903  0.7164
 1615SOL     OW 4843   3.136   2.734   6.587 -0.6751  0.3292  0.1850
 1615SOL    HW1 4844   3.226   2.768   6.578 -0.2502 -0.7322  0.3468
 1615SOL    HW2 4845   3.083   2.813   6.600  0.2484  0.9670  0.2324
 1616SOL     OW 4846   4.041   4.090   4.652  0.0631 -0.3793 -0.6195
 1616SOL    HW1 4847   3.962   4.137   4.680  1.6247  1.2029  1.3947
 1616SOL    HW2 4848   4.079   4.058   4.733  2.8871  1.2404 -1.1874
 1617SOL     OW 4849   4.066   4.412   6.286 -0.3589 -0.1076  0.2184
 1617SOL    HW1 4850   3.989   4.363   6.316 -0.6825  0.8053  0.9210
 1617SOL    HW2 4851   4.115   4.349   6.233  0.1021 -1.7195  2.4421
 1618SOL     OW 4852   1.754   3.901   4.661 -0.3708 -0.4055  0.2772
 1618SOL    HW1 4853   1.717   3.821   4.699  1.6472 -1.0679  0.9887
 1618SOL    HW2 4854   1.693   3.926   4.592 -2.1819 -1.3146  1.4856
 1619SOL     OW 4855   4.524   4.250   4.726  0.7660  0.6886  0.1479
 1619SOL    HW1 4856   4.515   4.258   4.821  1.1748  2.4745  0.0750
 1619SOL    HW2 4857   4.436   4.234   4.694  0.3848  1.5756  0.7224
 1620SOL     OW 4858   3.043   2.494   7.938 -0.0811  0.0307  0.1564
 1620SOL    HW1 4859   3.033   2.401   7.957 -0.8053 -0.1147 -0.8686
 1620SOL    HW2 4860   2.997   2.507   7.855  0.1542  1.2712  0.1989
 1621SOL     OW 4861   2.678   1.179   4.455 -0.6973 -0.2767  0.4236
 1621SOL    HW1 4862   2.595   1.134   4.440  0.5449 -2.6534  0.0418
 1621SOL    HW2 4863   2.687   1.183   4.550 -1.1218 -0.3009  0.4646
 1622SOL     OW 4864   0.077   4.165   7.894 -0.0177  0.3495  0.4523
 1622SOL    HW1 4865   0.160   4.204   7.866 -0.3956 -0.1820 -1.5646
 1622SOL    HW2 4866   0.029   4.149   7.813 -1.3936 -0.9327  1.4535
 1623SOL     OW 4867   0.118   3.158   4.878  0.6956 -0.2770  0.4982
 1623SOL    HW1 4868   0.144   3.237   4.924 -1.0989  1.0023 -0.5834
 1623SOL    HW2 4869   0.140   3.175   4.786  0.2505 -1.0117  0.2449
 1624SOL     OW 4870   1.545   5.017   6.160  0.4378  0.3626 -0.2944
 1624SOL    HW1 4871   1.599   4.941   6.142  1.2809  0.7908  0.3652
 1624SOL    HW2 4872   1.550   5.029   6.255  1.5638  2.1310 -0.5354
 1625SOL     OW 4873   1.438   4.956   5.400  0.1283  0.0685  0.6053
 1625SOL    HW1 4874   1.466   4.988   5.485  2.2354  1.6698 -0.5962
 1625SOL    HW2 4875   1.518   4.928   5.356 -0.8152 -0.2171 -1.0406
 1626SOL     OW 4876   0.443   0.473   7.026 -0.0133  0.5624 -0.3792
 1626SOL    HW1 4877   0.444   0.560   7.065 -1.8698  0.8216 -0.8347
 1626SOL    HW2 4878   0.471   0.487   6.935  3.3570  0.0923  0.4511
 1627SOL     OW 4879   4.934   4.176   4.646 -0.1931  0.3358 -0.2120
 1627SOL    HW1 4880   4.986   4.148   4.571  0.7844 -0.0586  0.5857
 1627SOL    HW2 4881   4.845   4.188   4.611 -0.2555 -1.8695 -1.0165
 1628SOL     OW 4882   1.446   0.502   5.324  0.4075 -0.0861  0.6852
 1628SOL    HW1 4883   1.508   0.572   5.301 -0.4179  0.8521  1.2006
 1628SOL    HW2 4884   1.500   0.432   5.360  1.2165  0.4959  0.6314
 1629SOL     OW 4885   1.495   3.107   6.207 -0.0987  0.0457 -0.1397
 1629SOL    HW1 4886   1.563   3.171   6.230  0.8412 -1.0409  0.1653
 1629SOL    HW2 4887   1.457   3.142   6.127 -0.3015  1.5081  0.5411
 1630SOL     OW 4888   3.723   1.724   9.482 -0.0136  0.2728 -0.1985
 1630SOL    HW1 4889   3.685   1.643   9.447  0.4792 -0.3999  0.7726
 1630SOL    HW2 4890   3.802   1.739   9.430  0.1135 -0.1039 -0.1162
 1631SOL     OW 4891   2.945   4.544   5.152 -0.6701 -0.6757 -0.1540
 1631SOL    HW1 4892   2.904   4.576   5.233  1.9657 -0.0035  1.0176
 1631SOL    HW2 4893   3.039   4.551   5.168 -0.0245 -2.6739 -2.4671
 1632SOL     OW 4894   2.748   1.091   7.301  0.1101 -0.3968  0.1969
 1632SOL    HW1 4895   2.755   0.996   7.292  1.1481 -0.4848  1.5167
 1632SOL    HW2 4896   2.685   1.104   7.372 -1.0230 -0.0342 -0.8425
 1633SOL     OW 4897   0.069   3.334   7.939  0.1273  0.4622  0.6943
 1633SOL    HW1 4898   0.030   3.372   7.860  2.6597  1.0290 -0.4006
 1633SOL    HW2 4899   0.118   3.258   7.907  0.5605  0.2340  1.8412
 1634SOL     OW 4900   4.102   1.123   7.561  0.4284  0.6121  0.2795
 1634SOL    HW1 4901   4.132   1.043   7.518 -1.6956  0.2151 -0.5637
 1634SOL    HW2 4902   4.140   1.194   7.509 -0.9086  0.1317 -1.4478
 1635SOL     OW 4903   2.480   3.567   7.208  0.2523  0.4772 -0.0461
 1635SOL    HW1 4904   2.456   3.478   7.236  0.5503  0.4649  0.1802
 1635SOL    HW2 4905   2.399   3.617   7.217  0.4959  0.6376  1.5557
 1636SOL     OW 4906   1.457   2.063   5.147 -0.4600 -0.1915 -0.1504
 1636SOL    HW1 4907   1.467   2.094   5.238  1.3307  0.3827 -0.4934
 1636SOL    HW2 4908   1.384   2.114   5.113  0.2305  1.1986  0.3492
 1637SOL     OW 4909   0.834   1.005   7.866  0.4070 -0.6644  0.5780
 1637SOL    HW1 4910   0.848   0.930   7.923  1.0549 -0.4419  0.7122
 1637SOL    HW2 4911   0.899   1.070   7.894 -0.1750 -0.0346  0.4918
 1638SOL     OW 4912   3.718   1.546   8.062 -0.0687 -0.3526 -0.5810
 1638SOL    HW1 4913   3.654   1.606   8.100  0.7781  0.9332 -1.1219
 1638SOL    HW2 4914   3.694   1.460   8.097 -0.5694  0.4660  1.1792
 1639SOL     OW 4915   1.935   3.545   6.117 -0.2960  0.1361 -0.9501
 1639SOL    HW1 4916   1.991   3.468   6.127  0.4167  0.4246 -2.4064
 1639SOL    HW2 4917   1.986   3.617   6.152 -1.2456 -0.1065  1.0774
 1640SOL     OW 4918   2.508   0.078   6.418  0.1086  0.8300  0.0307
 1640SOL    HW1 4919   2.516   0.137   6.493 -0.1557  0.6769  0.1822
 1640SOL    HW2 4920   2.439   0.117   6.364 -1.4122 -0.2938  1.0542
 1641SOL     OW 4921   3.938   0.870   6.675 -0.1825  0.0411 -0.1989
 1641SOL    HW1 4922   4.014   0.815   6.695 -0.3994 -0.2666 -0.2183
 1641SOL    HW2 4923   3.927   0.864   6.580 -1.3777 -1.4427  0.0072
 1642SOL     OW 4924   2.117   4.687   7.686 -0.0906 -0.5540 -0.0776
 1642SOL    HW1 4925   2.148   4.734   7.609  1.4555 -0.6742  0.4461
 1642SOL    HW2 4926   2.132   4.747   7.759 -0.7301 -0.7799  0.2447
 1643SOL     OW 4927   3.433   2.792   7.137  0.2589 -1.0337 -0.4481
 1643SOL    HW1 4928   3.440   2.698   7.150  0.7161 -1.3589 -2.6894
 1643SOL    HW2 4929   3.369   2.802   7.066 -0.4380  0.4168  0.3217
 1644SOL     OW 4930   2.612   2.614   5.068 -0.1167  0.0023 -0.1007
 1644SOL    HW1 4931   2.637   2.561   4.992 -2.8646 -0.4411 -0.7834
 1644SOL    HW2 4932   2.595   2.701   5.031  1.3039  0.5783  0.5211
 1645SOL     OW 4933   0.180   4.069   7.428 -0.1237 -0.2241 -0.2005
 1645SOL    HW1 4934   0.234   4.021   7.365  1.1045  2.8860 -1.7125
 1645SOL    HW2 4935   0.138   4.137   7.377 -4.4757 -1.5238  1.2075
 1646SOL     OW 4936   1.491   4.255   6.488 -0.2319  0.3051  0.2804
 1646SOL    HW1 4937   1.468   4.169   6.524 -0.8458 -0.1816 -1.2101
 1646SOL    HW2 4938   1.413   4.308   6.500 -1.7146 -0.8334 -3.1909
 1647SOL     OW 4939   2.758   0.356   8.009 -0.3185  0.3242  0.0093
 1647SOL    HW1 4940   2.783   0.449   8.006 -0.3713  0.3340 -2.3916
 1647SOL    HW2 4941   2.838   0.310   8.031  0.3411  0.8000 -1.2680
 1648SOL     OW 4942   3.143   0.999   5.823  0.3512 -0.3310  0.2512
 1648SOL    HW1 4943   3.103   1.084   5.843 -0.5102 -0.7237  0.2715
 1648SOL    HW2 4944   3.235   1.018   5.809  0.0264  0.7575 -0.6085
 1649SOL     OW 4945   2.517   0.871   5.361 -0.0878 -0.3613  0.0363
 1649SOL    HW1 4946   2.598   0.825   5.383  0.1365  0.0817  0.1337
 1649SOL    HW2 4947   2.522   0.953   5.409  1.4745  1.6882 -3.2355
 1650SOL     OW 4948   4.705   0.787   5.688 -0.2654  0.3018 -0.4594
 1650SOL    HW1 4949   4.743   0.700   5.698 -0.4154  0.4034  1.1166
 1650SOL    HW2 4950   4.755   0.826   5.615  1.7560 -0.0658  0.6478
 1651SOL     OW 4951   1.108   2.703   6.762 -0.2506  0.0072 -0.3097
 1651SOL    HW1 4952   1.146   2.689   6.675 -0.1371  1.6618 -0.5515
 1651SOL    HW2 4953   1.062   2.621   6.781  0.8536 -0.8919 -1.3328
 1652SOL     OW 4954   1.226   0.771   4.974  0.0099 -0.0004  0.1257
 1652SOL    HW1 4955   1.131   0.775   4.959 -0.2216 -2.1716  0.5935
 1652SOL    HW2 4956   1.238   0.803   5.063 -0.4435 -0.7446  0.4639
 1653SOL     OW 4957   2.939   2.236   7.985  0.5224 -0.3110  0.2040
 1653SOL    HW1 4958   2.893   2.203   7.908  0.3661  2.1128 -0.8129
 1653SOL    HW2 4959   2.903   2.184   8.058 -0.8892 -1.1991 -1.0645
 1654SOL     OW 4960   3.319   3.554   6.517  0.2502  0.0146  0.9728
 1654SOL    HW1 4961   3.341   3.466   6.486  0.3100 -0.0026  1.0614
 1654SOL    HW2 4962   3.274   3.539   6.600 -1.6054 -0.0331  0.0016
 1655SOL     OW 4963   0.583   3.923   5.266 -0.8379  0.0980 -0.1688
 1655SOL    HW1 4964   0.568   3.831   5.245  0.6834 -0.0647 -0.7118
 1655SOL    HW2 4965   0.678   3.932   5.268 -0.9296  1.2724  1.6891
 1656SOL     OW 4966   2.897   2.633   4.865  0.5910  0.3906  0.6123
 1656SOL    HW1 4967   2.990   2.616   4.856  0.6205  0.6104  0.5028
 1656SOL    HW2 4968   2.891   2.721   4.901  0.4034  1.0332 -0.9015
 1657SOL     OW 4969   2.513   2.871   5.040 -0.2190 -0.0583  0.5907
 1657SOL    HW1 4970   2.513   2.871   5.135 -2.6898 -0.9990  0.6484
 1657SOL    HW2 4971   2.564   2.949   5.016  2.1157 -0.8314  2.5737
 1658SOL     OW 4972   3.251   4.515   7.119 -0.6708 -0.3001  0.7720
 1658SOL    HW1 4973   3.196   4.554   7.050 -4.0850 -2.3769  2.0245
 1658SOL    HW2 4974   3.260   4.424   7.093 -0.4641 -0.6927  2.1314
 1659SOL     OW 4975   3.222   4.611   5.543  0.6509 -0.7736  0.2645
 1659SOL    HW1 4976   3.194   4.573   5.626 -0.9891  1.1332  0.6728
 1659SOL    HW2 4977   3.177   4.695   5.539  2.6050  0.2950 -1.4350
 1660SOL     OW 4978   4.351   4.911   7.878  0.7872 -0.3814  0.2153
 1660SOL    HW1 4979   4.311   4.936   7.962 -0.3907 -0.0290 -0.4254
 1660SOL    HW2 4980   4.307   4.967   7.814  1.8934 -0.4344 -0.6085
 1661SOL     OW 4981   4.014   2.224   5.195  0.2193  0.6641  0.0133
 1661SOL    HW1 4982   3.940   2.184   5.240 -0.5909  1.3594 -0.6898
 1661SOL    HW2 4983   4.090   2.173   5.226 -0.5678 -0.2572  0.4943
 1662SOL     OW 4984   0.883   2.533   5.496  0.2267 -0.3912  0.0682
 1662SOL    HW1 4985   0.941   2.559   5.568 -0.5799  1.3223  0.1449
 1662SOL    HW2 4986   0.795   2.538   5.532 -0.3258  2.0864 -1.3997
 1663SOL     OW 4987   2.124   1.227   5.054  0.5592 -0.3540  0.4082
 1663SOL    HW1 4988   2.206   1.242   5.007  0.3746 -0.2793  0.1096
 1663SOL    HW2 4989   2.056   1.243   4.989  0.3036 -0.3023  0.6889
 1664SOL     OW 4990   3.404   3.460   6.977 -0.6882 -0.0388 -0.5401
 1664SOL    HW1 4991   3.363   3.382   6.939 -1.5786 -0.1524  0.6202
 1664SOL    HW2 4992   3.335   3.500   7.030  0.3924  0.3502  0.6120
 1665SOL     OW 4993   2.533   2.640   6.042 -0.3320 -0.2406  0.2444
 1665SOL    HW1 4994   2.524   2.707   6.110 -0.0525  2.0884 -1.8493
 1665SOL    HW2 4995   2.446   2.634   6.002  0.4523  1.9324 -2.1124
 1666SOL     OW 4996   4.614   0.797   7.074 -0.6444  0.2423 -0.1700
 1666SOL    HW1 4997   4.611   0.797   6.978  2.1729  0.4264 -0.3479
 1666SOL    HW2 4998   4.583   0.710   7.099  1.1110 -0.8345 -1.4628
 1667SOL     OW 4999   1.138   3.955   5.727  0.5569 -0.3496  0.1194
 1667SOL    HW1 5000   1.090   3.998   5.656  0.8765  1.4670  0.9493
 1667SOL    HW2 5001   1.143   3.863   5.700 -3.5431 -0.7405  0.0620
 1668SOL     OW 5002   3.565   3.002   6.889 -0.3789  0.2191 -0.2613
 1668SOL    HW1 5003   3.531   3.077   6.938 -1.2231 -0.8994  0.9525
 1668SOL    HW2 5004   3.542   3.020   6.798 -1.5201  0.9536  0.1462
 1669SOL     OW 5005   4.205   0.623   5.442 -0.4540  0.1669 -0.0974
 1669SOL    HW1 5006   4.230   0.639   5.533 -1.0802  0.1271  0.0858
 1669SOL    HW2 5007   4.288   0.609   5.396 -0.0941  0.8707  0.3336
 1670SOL     OW 5008   0.662   0.612   5.594 -0.2237  0.3287  0.0593
 1670SOL    HW1 5009   0.581   0.566   5.571  0.5069 -0.6341 -0.6760
 1670SOL    HW2 5010   0.693   0.648   5.510 -1.1877  2.9176  0.7151
 1671SOL     OW 5011   0.280   2.102   5.164 -0.0465 -0.0013 -0.4353
 1671SOL    HW1 5012   0.276   2.055   5.081  0.9295 -1.5107  0.3172
 1671SOL    HW2 5013   0.192   2.136   5.178 -0.7389 -1.4663 -1.1149
 1672SOL     OW 5014   1.315   2.941   5.554  0.0266  0.4357  0.4280
 1672SOL    HW1 5015   1.290   2.900   5.471  2.3686 -0.7908  0.2494
 1672SOL    HW2 5016   1.308   3.035   5.538 -0.3904  0.1969 -0.8858
 1673SOL     OW 5017   1.815   3.153   7.573 -0.2436  0.0160 -0.0081
 1673SOL    HW1 5018   1.754   3.218   7.539  2.4045  2.3157 -0.7641
 1673SOL    HW2 5019   1.878   3.141   7.502  1.2817 -0.7177  1.4113
 1674SOL     OW 5020   3.837   3.170   5.589  0.3005  0.2697 -0.3746
 1674SOL    HW1 5021   3.743   3.171   5.606  0.6187  0.0408  1.6602
 1674SOL    HW2 5022   3.857   3.079   5.569  0.5420 -0.3644  2.4337
 1675SOL     OW 5023   0.524   0.550   5.983 -0.2812 -0.9360 -0.7509
 1675SOL    HW1 5024   0.620   0.551   5.991  0.0863 -0.8642 -4.0211
 1675SOL    HW2 5025   0.500   0.641   5.969 -0.9156 -0.9149  0.3327
 1676SOL     OW 5026   4.862   2.164   5.605  0.0663 -0.3252  0.1091
 1676SOL    HW1 5027   4.931   2.099   5.618  0.3458 -0.3146 -1.2008
 1676SOL    HW2 5028   4.901   2.230   5.547 -1.8052 -1.6428 -2.8771
 1677SOL     OW 5029   4.716   4.571   5.387  0.0870  0.7159  0.2618
 1677SOL    HW1 5030   4.667   4.498   5.351  2.1307 -0.6687  0.1129
 1677SOL    HW2 5031   4.652   4.621   5.437 -1.5550 -0.6726 -0.3660
 1678SOL     OW 5032   2.506   4.721   8.029 -0.2857  0.1196 -0.0707
 1678SOL    HW1 5033   2.566   4.688   7.962 -0.2329 -2.6399  1.1741
 1678SOL    HW2 5034   2.554   4.792   8.071  1.4682 -0.9354 -0.1778
 1679SOL     OW 5035   4.900   1.022   8.638  0.0175  0.3116  0.0897
 1679SOL    HW1 5036   4.877   1.053   8.725 -0.3225  0.1989  0.0418
 1679SOL    HW2 5037   4.836   1.064   8.580  0.1787  0.3074 -0.0906
 1680SOL     OW 5038   3.488   2.535   8.021  0.2922 -0.3636  0.1459
 1680SOL    HW1 5039   3.479   2.445   7.990 -2.4050  0.2526 -1.1623
 1680SOL    HW2 5040   3.450   2.534   8.109 -1.6949 -0.1819 -0.6573
 1681SOL     OW 5041   3.376   2.686   7.639 -1.2718  0.4444 -0.1970
 1681SOL    HW1 5042   3.311   2.684   7.709 -1.4418 -1.2103 -0.3632
 1681SOL    HW2 5043   3.359   2.606   7.588  1.1374 -0.2508 -0.0071
 1682SOL     OW 5044   1.591   0.694   8.340  0.0882  0.1741 -0.1680
 1682SOL    HW1 5045   1.660   0.755   8.316 -0.8518  0.5728 -2.0578
 1682SOL    HW2 5046   1.637   0.610   8.353  0.8461  0.1378 -2.5898
 1683SOL     OW 5047   3.170   4.887   4.976  0.3578 -0.0072 -1.3578
 1683SOL    HW1 5048   3.217   4.815   4.935 -0.6066 -1.7369  0.4010
 1683SOL    HW2 5049   3.236   4.931   5.030  0.3027 -1.6613  0.1338
 1684SOL     OW 5050   3.583   4.114   5.634 -0.2274 -0.4198 -0.5548
 1684SOL    HW1 5051   3.626   4.037   5.596 -1.9234  0.0803 -3.9222
 1684SOL    HW2 5052   3.617   4.188   5.583 -1.4893  0.5662 -0.0361
 1685SOL     OW 5053   1.362   3.447   7.206  0.1332 -0.3950 -0.1868
 1685SOL    HW1 5054   1.338   3.355   7.190  1.0686 -0.5662 -0.6869
 1685SOL    HW2 5055   1.322   3.468   7.290  0.3092 -1.4153  0.1693
 1686SOL     OW 5056   3.381   2.061   7.422 -0.0746 -0.5944  0.1763
 1686SOL    HW1 5057   3.390   2.021   7.336  0.3228  0.1280 -0.1273
 1686SOL    HW2 5058   3.294   2.100   7.421 -0.1373 -0.7353  0.1633
 1687SOL     OW 5059   2.832   4.949   5.656 -0.4459  0.6566 -0.2170
 1687SOL    HW1 5060   2.856   5.003   5.732  0.2134  1.0622 -0.7134
 1687SOL    HW2 5061   2.825   4.860   5.692  1.9110  0.4869 -0.0608
 1688SOL     OW 5062   4.590   3.102   5.482 -0.2112  0.4463  0.1959
 1688SOL    HW1 5063   4.505   3.126   5.518 -1.1642  0.0301 -1.6909
 1688SOL    HW2 5064   4.632   3.186   5.462  0.1991  0.6744  1.8685
 1689SOL     OW 5065   2.378   4.325  10.347 -0.8875 -0.5374  0.2606
 1689SOL    HW1 5066   2.331   4.407  10.357  2.5020  1.4769  1.1055
 1689SOL    HW2 5067   2.325   4.261  10.394 -4.5014  0.6453 -1.8069
 1690SOL     OW 5068   2.567   4.032   6.621  0.1055  0.2324  0.2616
 1690SOL    HW1 5069   2.514   3.967   6.667  0.0050  0.8651  1.0496
 1690SOL    HW2 5070   2.587   4.098   6.687 -0.6326  1.5227 -0.7556
 1691SOL     OW 5071   3.287   4.447   5.958 -0.0271  0.6920 -0.3877
 1691SOL    HW1 5072   3.299   4.417   6.048  3.8797  2.2749 -0.1486
 1691SOL    HW2 5073   3.334   4.383   5.905 -0.1560  1.0830 -0.9848
 1692SOL     OW 5074   2.353   4.559   4.720 -0.6329 -0.4413 -0.3522
 1692SOL    HW1 5075   2.314   4.647   4.720 -2.6103 -1.1631  2.6255
 1692SOL    HW2 5076   2.375   4.543   4.812 -1.9294 -3.6793 -0.4707
 1693SOL     OW 5077   2.840   3.846   4.895  1.1457  0.4184 -0.0226
 1693SOL    HW1 5078   2.751   3.880   4.892  0.8535 -0.3458 -1.2105
 1693SOL    HW2 5079   2.869   3.858   4.985 -0.5894 -0.3629  0.6802
 1694SOL     OW 5080   3.794   2.663   5.492 -0.0402  0.6023 -0.0295
 1694SOL    HW1 5081   3.729   2.612   5.540  0.8487  0.8328  1.4982
 1694SOL    HW2 5082   3.845   2.598   5.444 -0.1983  0.2417  0.2864
 1695SOL     OW 5083   0.495   2.890   7.411  0.4931 -0.4995  0.5332
 1695SOL    HW1 5084   0.555   2.959   7.382  1.3289 -2.1020 -1.7862
 1695SOL    HW2 5085   0.409   2.921   7.385  0.9973 -0.8395 -1.7261
 1696SOL     OW 5086   2.396   4.029   7.320  0.5122 -0.1503 -0.0300
 1696SOL    HW1 5087   2.343   4.081   7.259 -2.5890 -4.2399 -1.2582
 1696SOL    HW2 5088   2.474   4.006   7.271  0.5042  0.8344 -0.5274
 1697SOL     OW 5089   4.548   2.040   6.900 -0.1935  0.5813 -0.7493
 1697SOL    HW1 5090   4.611   2.074   6.963  0.1726  1.1624 -1.4072
 1697SOL    HW2 5091   4.573   1.949   6.887 -0.7168  0.2392  0.4678
 1698SOL     OW 5092   3.465   1.408   4.922 -0.1459  0.1591  0.3128
 1698SOL    HW1 5093   3.487   1.364   4.840 -0.4463 -1.3163  0.9896
 1698SOL    HW2 5094   3.549   1.426   4.964 -0.0271  0.1810  0.0670
 1699SOL     OW 5095   1.772   4.200   7.053 -0.3030 -0.2319 -0.1606
 1699SOL    HW1 5096   1.719   4.194   7.132  1.0933  0.4688  0.8676
 1699SOL    HW2 5097   1.738   4.276   7.007  1.1977  1.6208  1.6299
 1700SOL     OW 5098   3.085   1.073   4.361  0.9490 -0.3593 -0.3911
 1700SOL    HW1 5099   3.155   1.050   4.300  0.5474 -2.9652  0.0281
 1700SOL    HW2 5100   3.012   1.100   4.305  0.6017 -2.6673 -1.1549
 1701SOL     OW 5101   0.095   0.703   6.783 -0.2895  0.4934  0.1214
 1701SOL    HW1 5102   0.040   0.780   6.769 -1.3511 -0.2865 -0.0899
 1701SOL    HW2 5103   0.093   0.657   6.699 -2.0547 -1.2625  1.0543
 1702SOL     OW 5104   3.309   4.866   5.330 -0.7031 -0.3781  0.1140
 1702SOL    HW1 5105   3.269   4.945   5.294  1.0235  0.4195 -0.1740
 1702SOL    HW2 5106   3.258   4.794   5.293 -2.1452  0.5818  0.1686
 1703SOL     OW 5107   0.730   4.675   8.130  0.0594 -0.5419  0.1219
 1703SOL    HW1 5108   0.686   4.735   8.190 -2.3193 -0.3050 -1.7136
 1703SOL    HW2 5109   0.765   4.731   8.061 -2.5085 -1.1031 -1.8108
 1704SOL     OW 5110   4.234   4.696   6.190 -0.3110 -0.5107  0.0824
 1704SOL    HW1 5111   4.192   4.712   6.274 -2.9535 -1.4185 -0.9745
 1704SOL    HW2 5112   4.295   4.624   6.207  0.4232  0.3917  1.5192
 1705SOL     OW 5113   0.014   3.717   6.435  0.1899 -0.9345  0.3117
 1705SOL    HW1 5114   0.002   3.650   6.368 -0.0625 -0.7102  0.1264
 1705SOL    HW2 5115   0.077   3.778   6.397 -1.1209  0.0418 -0.4004
 1706SOL     OW 5116   1.181   2.504   7.388 -0.5634 -0.0801  0.3566
 1706SOL    HW1 5117   1.207   2.596   7.381 -2.6224  0.5229  0.0878
 1706SOL    HW2 5118   1.254   2.462   7.434  0.9844  1.4073 -0.6267
 1707SOL     OW 5119   4.794   0.714   7.772 -1.1424  0.2087 -0.4779
 1707SOL    HW1 5120   4.704   0.733   7.797 -1.9700 -0.9673 -2.3165
 1707SOL    HW2 5121   4.822   0.644   7.832 -0.7724  1.7549  1.2445
 1708SOL     OW 5122   1.919   3.540   4.708  0.0063 -0.4734  0.3839
 1708SOL    HW1 5123   1.900   3.446   4.703  1.2727 -0.7427  0.2076
 1708SOL    HW2 5124   2.006   3.549   4.668  0.6155  0.5285  1.8466
 1709SOL     OW 5125   3.975   0.106   7.172  0.4350 -0.5513  0.1705
 1709SOL    HW1 5126   3.915   0.171   7.137  0.4754 -0.1721  0.7999
 1709SOL    HW2 5127   3.922   0.028   7.185 -0.1701  0.0909  1.7043
 1710SOL     OW 5128   1.096   0.574   6.294  1.1260  0.1992 -0.0331
 1710SOL    HW1 5129   1.015   0.523   6.299  1.2198  0.0067 -0.4690
 1710SOL    HW2 5130   1.133   0.569   6.382  0.7279  0.1840  0.1352
 1711SOL     OW 5131   4.290   1.401   7.157 -0.3505  0.7634 -0.1469
 1711SOL    HW1 5132   4.273   1.494   7.146 -1.1600  0.6673  0.1800
 1711SOL    HW2 5133   4.377   1.387   7.119  1.8856  2.4843  3.7382
 1712SOL     OW 5134   3.673   4.252   6.260 -0.0457  0.5672  0.1394
 1712SOL    HW1 5135   3.612   4.319   6.231  0.4097  0.8564 -0.1734
 1712SOL    HW2 5136   3.700   4.207   6.179 -0.5936 -0.2163  0.3767
 1713SOL     OW 5137   0.206   2.656   6.734 -0.4106  1.0039  0.1960
 1713SOL    HW1 5138   0.246   2.619   6.655  1.3531 -0.6105  1.7293
 1713SOL    HW2 5139   0.112   2.644   6.721 -0.0545 -2.3983 -0.3111
 1714SOL     OW 5140   3.689   4.319   5.527  0.0563  0.0022 -0.5078
 1714SOL    HW1 5141   3.779   4.329   5.495 -0.3074 -0.1192 -1.6406
 1714SOL    HW2 5142   3.687   4.366   5.610  0.8225  1.1867 -1.1270
 1715SOL     OW 5143   4.680   0.760   5.378  0.1009 -0.4663 -0.4689
 1715SOL    HW1 5144   4.584   0.767   5.379  0.1010 -0.4143 -0.7425
 1715SOL    HW2 5145   4.707   0.816   5.305  0.2577 -1.3927 -1.1460
 1716SOL     OW 5146   0.486   0.017   8.494  0.1593 -0.4897 -0.0844
 1716SOL    HW1 5147   0.410   0.052   8.540 -1.0973 -1.9022 -0.9839
 1716SOL    HW2 5148   0.555   0.011   8.561 -1.5201 -2.2597  1.6255
 1717SOL     OW 5149   2.546   2.645   6.525 -0.5568  0.4962 -0.2698
 1717SOL    HW1 5150   2.623   2.611   6.570 -0.8997 -0.6546 -0.5322
 1717SOL    HW2 5151   2.572   2.733   6.498  1.6813 -0.7697 -2.6972
 1718SOL     OW 5152   0.050   0.938   3.162 -0.5599 -0.9750 -0.5369
 1718SOL    HW1 5153   0.004   1.021   3.152 -1.0991 -1.1766  0.2159
 1718SOL    HW2 5154  -0.013   0.872   3.134  0.9985 -0.9996 -4.6739
 1719SOL     OW 5155   3.637   3.260   5.341 -0.5370 -0.5793  0.6872
 1719SOL    HW1 5156   3.615   3.175   5.378 -1.3251 -0.3499  0.7549
 1719SOL    HW2 5157   3.582   3.322   5.388 -0.3642 -0.0929  0.2630
 1720SOL     OW 5158   2.818   3.495   7.662 -0.3095 -0.6165 -0.1715
 1720SOL    HW1 5159   2.903   3.451   7.655 -0.5115 -0.8803 -1.1446
 1720SOL    HW2 5160   2.798   3.522   7.572  0.0583  1.9825  0.4327
 1721SOL     OW 5161   3.559   2.721   6.078 -0.2460 -0.0999 -0.0924
 1721SOL    HW1 5162   3.509   2.778   6.136  0.7912  1.6049 -0.8261
 1721SOL    HW2 5163   3.601   2.780   6.015  1.1370 -1.6401 -0.6933
 1722SOL     OW 5164   1.771   1.333   4.688  0.0110  0.5165 -0.0504
 1722SOL    HW1 5165   1.817   1.365   4.611  1.6511 -0.6033  0.4190
 1722SOL    HW2 5166   1.748   1.243   4.667  2.1062 -0.4332  1.3658
 1723SOL     OW 5167   4.058   0.711   5.033 -0.3497 -0.0582  0.1131
 1723SOL    HW1 5168   4.063   0.648   4.961  0.5498 -0.4630  0.5080
 1723SOL    HW2 5169   4.075   0.796   4.992 -0.4160 -0.2152 -0.2416
 1724SOL     OW 5170   2.243   1.581   6.002  0.0532  0.0766  0.0307
 1724SOL    HW1 5171   2.326   1.628   5.992 -0.8300  1.4791 -1.2404
 1724SOL    HW2 5172   2.211   1.569   5.913 -1.1848 -0.2995  0.4966
 1725SOL     OW 5173   2.907   1.689   6.812  0.5534  0.1701 -0.4912
 1725SOL    HW1 5174   2.913   1.682   6.907  1.0797  0.7927 -0.4778
 1725SOL    HW2 5175   2.931   1.602   6.780 -1.8982 -0.7692  0.0111
 1726SOL     OW 5176   0.214   2.440   5.516  0.4040 -0.2527 -0.8812
 1726SOL    HW1 5177   0.207   2.517   5.572  3.1917  0.7738 -1.7524
 1726SOL    HW2 5178   0.244   2.370   5.574  1.4511  0.3139 -0.7194
 1727SOL     OW 5179   4.533   3.765   4.920  0.1424 -0.0484 -0.6626
 1727SOL    HW1 5180   4.504   3.846   4.962 -0.9871 -0.5793 -0.3829
 1727SOL    HW2 5181   4.548   3.790   4.829 -1.5812  0.2092 -0.9134
 1728SOL     OW 5182   3.007   3.177   4.644 -0.2291 -0.4689  0.2380
 1728SOL    HW1 5183   2.931   3.174   4.586  0.8134 -0.8300 -1.1570
 1728SOL    HW2 5184   3.036   3.086   4.651  0.2474 -0.3006  0.5192
 1729SOL     OW 5185   1.296   2.790   6.439 -0.6151  0.0385 -0.1447
 1729SOL    HW1 5186   1.391   2.775   6.431 -0.8104 -1.0148 -0.7810
 1729SOL    HW2 5187   1.257   2.714   6.395 -1.7529  0.7967 -0.4703
 1730SOL     OW 5188   4.640   1.848   7.205 -1.0224  0.0886  0.2722
 1730SOL    HW1 5189   4.555   1.881   7.176 -1.0849  0.7618  1.1759
 1730SOL    HW2 5190   4.677   1.919   7.257 -0.7592 -0.9167  1.5133
 1731SOL     OW 5191   0.902   1.481   6.004  0.4572  0.3543  0.1318
 1731SOL    HW1 5192   0.922   1.497   5.911  0.4653 -1.6372 -0.2590
 1731SOL    HW2 5193   0.833   1.544   6.025 -0.2558  0.1831 -1.5346
 1732SOL     OW 5194   3.901   4.732   5.756 -0.0834 -0.1451 -0.3516
 1732SOL    HW1 5195   3.978   4.700   5.802 -0.0846  1.9981  1.3088
 1732SOL    HW2 5196   3.856   4.653   5.727  1.8899 -1.4834  0.0125
 1733SOL     OW 5197   0.713   3.262   5.966 -0.5310  0.4808 -0.2433
 1733SOL    HW1 5198   0.730   3.173   5.995 -1.0268  0.5599  0.3007
 1733SOL    HW2 5199   0.619   3.274   5.979 -0.2893  1.4474  0.7298
 1734SOL     OW 5200   3.068   2.332   5.466 -0.0758  0.2139 -0.2173
 1734SOL    HW1 5201   3.163   2.336   5.455  0.3039 -4.0951 -0.4660
 1734SOL    HW2 5202   3.055   2.294   5.552 -1.4057 -1.3697 -1.0551
 1735SOL     OW 5203   1.646   0.620   5.209 -0.0336 -0.2387  0.5069
 1735SOL    HW1 5204   1.699   0.698   5.226  0.4088 -0.4621  0.1822
 1735SOL    HW2 5205   1.579   0.650   5.147  0.9139 -0.3974 -0.6375
 1736SOL     OW 5206   0.484   1.912   7.331 -0.9908  0.1155  0.1202
 1736SOL    HW1 5207   0.451   1.894   7.243  0.6959 -2.4897 -0.1118
 1736SOL    HW2 5208   0.563   1.963   7.316 -0.1435 -1.1758 -0.0320
 1737SOL     OW 5209   4.911   4.058   5.081 -0.3418  0.8389  0.0881
 1737SOL    HW1 5210   4.863   4.098   5.008 -0.5511  0.0619 -0.2078
 1737SOL    HW2 5211   4.889   4.113   5.156 -0.5398  1.3423 -0.3258
 1738SOL     OW 5212   3.429   0.511   7.533 -0.1701 -0.5667 -0.4997
 1738SOL    HW1 5213   3.461   0.517   7.442 -1.5225  0.6533 -0.9252
 1738SOL    HW2 5214   3.509   0.505   7.586  0.7519  1.0254 -1.6085
 1739SOL     OW 5215   4.063   0.773   8.943 -0.3966 -0.1536 -0.1702
 1739SOL    HW1 5216   4.143   0.777   8.995 -1.8757 -0.6399  2.2842
 1739SOL    HW2 5217   4.016   0.853   8.966 -2.6406 -1.9570  2.1022
 1740SOL     OW 5218   1.440   2.554   8.135  0.0514 -0.2326 -0.0694
 1740SOL    HW1 5219   1.362   2.595   8.172  1.0515 -0.1034  2.0378
 1740SOL    HW2 5220   1.513   2.595   8.182  1.5753  0.9579 -3.1734
 1741SOL     OW 5221   4.788   3.879   8.963  0.5812  0.0831  0.6732
 1741SOL    HW1 5222   4.781   3.794   8.920  0.1210 -0.3687  1.6132
 1741SOL    HW2 5223   4.727   3.875   9.036  1.9621  0.4791  1.9170
 1742SOL     OW 5224   1.698   4.036   8.615  0.5425  0.4178 -0.2432
 1742SOL    HW1 5225   1.613   4.037   8.571  0.6087  1.0638 -0.3646
 1742SOL    HW2 5226   1.744   3.960   8.577 -0.6292 -1.0280  1.0997
 1743SOL     OW 5227   3.606   4.470   7.027  0.1366  0.0588 -0.8742
 1743SOL    HW1 5228   3.696   4.496   7.048 -0.0319 -0.6538  0.9534
 1743SOL    HW2 5229   3.592   4.391   7.079 -2.4386  1.6894  1.1793
 1744SOL     OW 5230   2.046   4.089   7.697  0.1600 -0.2836 -0.2434
 1744SOL    HW1 5231   2.017   4.051   7.779  0.6518  0.9337  0.5292
 1744SOL    HW2 5232   2.142   4.083   7.701  0.1600 -2.0761 -1.6741
 1745SOL     OW 5233   3.261   0.852   5.359  0.4749  0.1308 -0.0698
 1745SOL    HW1 5234   3.193   0.849   5.427 -0.1792 -3.3606 -0.6571
 1745SOL    HW2 5235   3.235   0.925   5.302 -1.4597  0.3669  1.0225
 1746SOL     OW 5236   4.969   0.753   9.176  0.2910 -0.2473 -0.1658
 1746SOL    HW1 5237   4.906   0.816   9.211  0.5323 -0.4272  0.5942
 1746SOL    HW2 5238   5.044   0.759   9.234  0.4718 -0.9616 -0.3204
 1747SOL     OW 5239   4.419   2.387   9.119  0.6431 -0.2011 -0.1900
 1747SOL    HW1 5240   4.376   2.435   9.048 -2.3981 -0.5130  1.2824
 1747SOL    HW2 5241   4.422   2.296   9.088 -2.1878 -0.6626  0.5374
 1748SOL     OW 5242   2.016   3.707   7.675  0.1617 -0.8570  0.6601
 1748SOL    HW1 5243   2.075   3.635   7.652 -0.4579 -0.4240 -2.9551
 1748SOL    HW2 5244   2.058   3.784   7.638 -1.3088 -0.0852  0.5446
 1749SOL     OW 5245   0.445   3.194   9.166 -0.0746  0.0869 -0.2903
 1749SOL    HW1 5246   0.420   3.107   9.196  0.6387 -0.3100 -0.8274
 1749SOL    HW2 5247   0.432   3.250   9.242 -1.0704 -0.3832 -0.1025
 1750SOL     OW 5248   2.917   1.410   8.160 -0.0265  0.7513  0.4089
 1750SOL    HW1 5249   2.916   1.412   8.256  1.1153 -0.4968  0.4821
 1750SOL    HW2 5250   2.846   1.351   8.136  0.0178  0.6567  0.5105
 1751SOL     OW 5251   4.379   3.107   4.881  0.0214  0.0448  0.7135
 1751SOL    HW1 5252   4.352   3.019   4.857  1.9310 -1.1350  2.6040
 1751SOL    HW2 5253   4.297   3.153   4.899 -1.2222 -0.3867 -2.9237
 1752SOL     OW 5254   0.454   2.652   6.041  1.0700  0.0739 -0.4127
 1752SOL    HW1 5255   0.528   2.602   6.007 -0.7365 -1.2041 -2.8512
 1752SOL    HW2 5256   0.442   2.723   5.978  0.8178  0.8886  0.5212
 1753SOL     OW 5257   4.656   4.722  10.430  0.1912 -0.7135  0.3859
 1753SOL    HW1 5258   4.629   4.786  10.496  1.8398 -0.7961  1.1872
 1753SOL    HW2 5259   4.649   4.769  10.347 -2.9020 -0.9222  0.4231
 1754SOL     OW 5260   3.763   1.689   5.435 -1.3814  0.2486 -0.1090
 1754SOL    HW1 5261   3.795   1.765   5.484 -1.1726  0.5311 -0.6736
 1754SOL    HW2 5262   3.823   1.680   5.361 -1.2537 -0.6318  0.0901
 1755SOL     OW 5263   2.070   4.306   8.205 -0.4236 -0.2711 -0.1087
 1755SOL    HW1 5264   1.981   4.325   8.234 -0.0528  1.0823  0.2132
 1755SOL    HW2 5265   2.085   4.364   8.130  1.1716  1.7485  1.6580
 1756SOL     OW 5266   0.179   3.619   7.316 -0.3369 -0.6174  0.3216
 1756SOL    HW1 5267   0.254   3.661   7.358  0.5815  0.0963 -1.9063
 1756SOL    HW2 5268   0.121   3.692   7.293 -1.6363 -1.1353  1.7287
 1757SOL     OW 5269   1.351   2.569   6.644  0.7402  0.0453  0.4457
 1757SOL    HW1 5270   1.347   2.482   6.684  1.3400 -1.7482 -3.0316
 1757SOL    HW2 5271   1.391   2.555   6.559 -2.4630  3.1025 -1.8781
 1758SOL     OW 5272   3.828   2.140   5.362  0.2445 -0.5487  0.1624
 1758SOL    HW1 5273   3.875   2.165   5.442 -0.4548  1.6165 -0.0394
 1758SOL    HW2 5274   3.739   2.122   5.392 -0.0862  0.5386 -0.1592
 1759SOL     OW 5275   4.594   4.307   6.439 -0.0296 -0.6107  0.0102
 1759SOL    HW1 5276   4.628   4.238   6.383 -0.6788  0.5115 -1.8513
 1759SOL    HW2 5277   4.655   4.379   6.429 -0.4680 -0.1880  0.2935
 1760SOL     OW 5278   3.850   4.664   7.495 -0.1319  0.3005 -0.4408
 1760SOL    HW1 5279   3.851   4.610   7.416  2.5583 -0.4717  0.0439
 1760SOL    HW2 5280   3.877   4.605   7.565  0.8499  1.7589  0.4647
 1761SOL     OW 5281   4.917   0.404   6.766 -0.1906 -0.1383 -1.1510
 1761SOL    HW1 5282   5.000   0.443   6.740  0.6790 -0.4238  0.9658
 1761SOL    HW2 5283   4.858   0.478   6.778  0.3027  0.2171 -0.9097
 1762SOL     OW 5284   4.184   3.123   9.987  0.6231 -0.1728 -0.1776
 1762SOL    HW1 5285   4.166   3.036   9.949  0.7665 -0.6708  0.8699
 1762SOL    HW2 5286   4.156   3.115  10.078  2.7146  0.1707  0.5508
 1763SOL     OW 5287   0.236   3.227   8.650 -0.0752 -0.2048  0.3367
 1763SOL    HW1 5288   0.269   3.149   8.605  2.7945  0.0935  1.7135
 1763SOL    HW2 5289   0.257   3.213   8.742  0.4571  2.1300  0.6472
 1764SOL     OW 5290   4.559   3.047   7.136 -0.8602 -0.0352  0.3739
 1764SOL    HW1 5291   4.565   2.963   7.182 -0.5460 -1.1095 -1.4839
 1764SOL    HW2 5292   4.544   3.022   7.044  0.9053  1.8789 -0.5140
 1765SOL     OW 5293   4.923   4.124   8.873  0.3527 -0.9978  0.5425
 1765SOL    HW1 5294   4.908   4.145   8.966 -0.4775 -1.4681  0.5249
 1765SOL    HW2 5295   4.907   4.030   8.867  0.6091 -1.0057 -0.0415
 1766SOL     OW 5296   4.322   2.757   9.676  0.3053  0.2538 -0.1377
 1766SOL    HW1 5297   4.268   2.688   9.637 -0.7921  0.9341  0.1168
 1766SOL    HW2 5298   4.309   2.747   9.771 -0.0311  0.9238 -0.1038
 1767SOL     OW 5299   2.924   0.868   8.728 -0.1349  0.5623  0.7022
 1767SOL    HW1 5300   2.832   0.881   8.705 -0.1429  0.0865  0.4430
 1767SOL    HW2 5301   2.961   0.823   8.652  0.2978  0.6886  0.8343
 1768SOL     OW 5302   3.714   4.183   8.913  0.1427 -0.1895 -0.4853
 1768SOL    HW1 5303   3.624   4.153   8.929 -0.2643  0.1662 -2.0327
 1768SOL    HW2 5304   3.733   4.156   8.823 -0.0464  3.6038 -1.8196
 1769SOL     OW 5305   1.267   1.475   7.407 -0.2963  0.4631  0.4006
 1769SOL    HW1 5306   1.272   1.501   7.315 -1.6758  0.4750  0.3137
 1769SOL    HW2 5307   1.186   1.515   7.439 -1.9176 -2.6809  0.5816
 1770SOL     OW 5308   1.610   4.870   8.711 -0.0005  0.6924 -0.4322
 1770SOL    HW1 5309   1.565   4.953   8.699  1.6483  1.7417  0.1376
 1770SOL    HW2 5310   1.680   4.871   8.645 -0.4799 -0.6422 -0.9766
 1771SOL     OW 5311   4.226   2.882   4.818 -0.7355  0.8110  0.6308
 1771SOL    HW1 5312   4.249   2.816   4.884 -1.2526 -0.8379 -0.7401
 1771SOL    HW2 5313   4.132   2.868   4.802  0.0425 -1.5950 -3.1418
 1772SOL     OW 5314   3.428   2.739   8.908  0.5048  0.6133  0.1311
 1772SOL    HW1 5315   3.404   2.831   8.917  0.5891  0.9918 -2.6080
 1772SOL    HW2 5316   3.345   2.694   8.894  0.4333  0.1716  1.7449
 1773SOL     OW 5317   2.797   1.333  10.117  0.6154 -0.1128  0.3603
 1773SOL    HW1 5318   2.823   1.410  10.166  2.2473 -0.8499  0.7269
 1773SOL    HW2 5319   2.765   1.272  10.184 -0.3129  0.1058  0.1171
 1774SOL     OW 5320   4.864   1.945   6.927 -0.8400  0.1525  0.9405
 1774SOL    HW1 5321   4.892   1.875   6.987 -1.6974 -0.5868  0.4958
 1774SOL    HW2 5322   4.840   2.017   6.985 -2.5069 -0.8547  1.5752
 1775SOL     OW 5323   1.588   2.400   6.504 -0.0371  0.2150 -0.3378
 1775SOL    HW1 5324   1.609   2.491   6.525 -3.4890  0.4559  3.2375
 1775SOL    HW2 5325   1.655   2.349   6.550  1.4749  0.8799 -1.7386
 1776SOL     OW 5326   1.440   0.592   4.995 -0.2625  0.0151  0.5955
 1776SOL    HW1 5327   1.366   0.653   4.992  1.0971  1.7909  1.1908
 1776SOL    HW2 5328   1.400   0.508   5.020 -2.2019  0.6220 -0.2150
 1777SOL     OW 5329   2.647   4.105   7.450 -0.1242 -0.5231  0.2209
 1777SOL    HW1 5330   2.635   4.027   7.395 -1.1820  0.7827 -1.5252
 1777SOL    HW2 5331   2.728   4.089   7.497  0.2498 -2.2205 -0.9052
 1778SOL     OW 5332   2.115   4.914   8.077  0.0035 -0.5458 -0.6008
 1778SOL    HW1 5333   2.127   4.950   7.989  1.5923 -3.5950 -1.7806
 1778SOL    HW2 5334   2.177   4.962   8.131  0.9287 -0.4058 -1.7456
 1779SOL     OW 5335   2.545   0.387   7.771  0.1832  0.3126 -0.6029
 1779SOL    HW1 5336   2.573   0.303   7.807 -1.3995 -0.0416 -0.1067
 1779SOL    HW2 5337   2.593   0.452   7.822  0.8274 -0.2626 -0.4526
 1780SOL     OW 5338   4.743   1.387   9.064  0.9476  0.1470 -0.2123
 1780SOL    HW1 5339   4.678   1.453   9.089  1.3010  0.7672 -0.8977
 1780SOL    HW2 5340   4.691   1.316   9.025  0.4519 -0.5396  1.5713
 1781SOL     OW 5341   3.551   1.121   9.990 -0.4186  0.0917 -1.2459
 1781SOL    HW1 5342   3.466   1.144   9.951 -0.0327 -0.3389 -2.3810
 1781SOL    HW2 5343   3.528   1.076  10.072 -1.2453  1.1639 -0.8625
 1782SOL     OW 5344   0.732   4.634   5.917  0.7019  0.8944  0.3163
 1782SOL    HW1 5345   0.801   4.650   5.981  0.8650  3.3436 -0.3739
 1782SOL    HW2 5346   0.734   4.711   5.860 -2.1572  0.7363 -0.1442
 1783SOL     OW 5347   0.660   1.089   6.554 -0.5502 -0.3138  0.1128
 1783SOL    HW1 5348   0.639   1.180   6.575 -2.3377 -0.6247 -0.1892
 1783SOL    HW2 5349   0.754   1.090   6.538 -0.0292  0.9799  2.6545
 1784SOL     OW 5350   0.620   1.795   9.328  0.1571 -0.0471  0.2628
 1784SOL    HW1 5351   0.533   1.798   9.367  0.5924 -0.1656  1.2755
 1784SOL    HW2 5352   0.674   1.849   9.386  0.5222  0.9556 -0.9876
 1785SOL     OW 5353   4.289   2.544   8.927 -0.7326  0.5676  0.6727
 1785SOL    HW1 5354   4.301   2.473   8.864 -3.1401 -0.5960  1.4146
 1785SOL    HW2 5355   4.311   2.623   8.877  0.7416 -0.5446 -0.5584
 1786SOL     OW 5356   0.830   1.682   5.414  0.8763  0.2103  1.0302
 1786SOL    HW1 5357   0.775   1.709   5.341  0.7463  2.0137  1.7566
 1786SOL    HW2 5358   0.894   1.622   5.375 -0.4181 -0.4585 -0.1557
 1787SOL     OW 5359   3.759   4.436   9.050 -0.1711  0.4985  0.0092
 1787SOL    HW1 5360   3.760   4.448   9.145 -0.3449 -1.6981  0.3558
 1787SOL    HW2 5361   3.727   4.346   9.038  1.2878  0.1888 -2.0528
 1788SOL     OW 5362   3.115   2.609   6.115 -0.6470 -0.0904 -0.3253
 1788SOL    HW1 5363   3.150   2.698   6.111  0.4757 -0.5403 -1.1595
 1788SOL    HW2 5364   3.120   2.577   6.025 -1.6187 -0.7974 -0.1539
 1789SOL     OW 5365   2.095   4.132   9.880  0.4861  0.4578 -0.1933
 1789SOL    HW1 5366   2.108   4.176   9.796 -0.2777 -1.7406 -1.5605
 1789SOL    HW2 5367   2.130   4.043   9.866 -1.9277 -0.7636  0.9130
 1790SOL     OW 5368   4.204   1.525   6.552  0.0343 -0.6737 -0.4452
 1790SOL    HW1 5369   4.205   1.436   6.587 -2.6450 -1.3619 -1.8242
 1790SOL    HW2 5370   4.188   1.580   6.628  0.4987 -1.4782  0.2617
 1791SOL     OW 5371   2.769   2.054   8.325  0.0015 -0.0017 -0.2994
 1791SOL    HW1 5372   2.749   1.970   8.366  3.0906 -0.2159  1.0996
 1791SOL    HW2 5373   2.752   2.119   8.393  1.6731  0.0068  0.1619
 1792SOL     OW 5374   4.004   0.354   9.639  0.0680  0.4730 -0.3912
 1792SOL    HW1 5375   4.006   0.385   9.548 -0.3794  0.9957 -0.2266
 1792SOL    HW2 5376   4.024   0.260   9.633  0.6706  0.6300 -0.9661
 1793SOL     OW 5377   4.498   0.014   8.161  0.3816 -0.5790 -0.3369
 1793SOL    HW1 5378   4.577  -0.038   8.151  1.3224  0.6968  0.2006
 1793SOL    HW2 5379   4.513   0.092   8.108 -0.1516  0.0611  0.4139
 1794SOL     OW 5380   3.691   2.608   7.447 -0.3458  0.2235  0.6117
 1794SOL    HW1 5381   3.673   2.515   7.431 -0.5012 -0.3893  3.7193
 1794SOL    HW2 5382   3.778   2.609   7.488  0.8320  1.7913 -1.6850
 1795SOL     OW 5383   3.299   3.645   5.226  0.1626  0.1561  0.5755
 1795SOL    HW1 5384   3.230   3.696   5.183  0.9154  1.6976  1.1010
 1795SOL    HW2 5385   3.308   3.686   5.312 -0.8268 -2.4216  1.9851
 1796SOL     OW 5386   0.905   0.499   4.589 -0.3949 -0.7809  0.4054
 1796SOL    HW1 5387   0.959   0.495   4.510 -1.3888 -1.4671 -0.2635
 1796SOL    HW2 5388   0.967   0.487   4.661  0.3742 -1.3392 -0.3213
 1797SOL     OW 5389   3.839   1.444   7.039  0.3147 -0.4845 -0.7377
 1797SOL    HW1 5390   3.787   1.512   7.083 -0.5285 -0.9395 -1.0077
 1797SOL    HW2 5391   3.845   1.473   6.948  2.2373  0.5622 -0.3192
 1798SOL     OW 5392   0.181   2.808   9.659  0.1469  0.7209 -0.9551
 1798SOL    HW1 5393   0.206   2.724   9.697  0.7468  0.1828 -2.4623
 1798SOL    HW2 5394   0.086   2.810   9.665 -0.0706 -1.0404 -2.7826
 1799SOL     OW 5395   1.160   2.339   6.657 -0.1691 -0.1480 -0.0362
 1799SOL    HW1 5396   1.094   2.299   6.713 -1.2870 -1.5171 -2.1777
 1799SOL    HW2 5397   1.127   2.326   6.568  2.5497 -0.0947 -1.1709
 1800SOL     OW 5398   0.490   4.323   7.810  0.1790 -0.1197 -0.1518
 1800SOL    HW1 5399   0.412   4.376   7.822  0.5657  0.2766  0.7429
 1800SOL    HW2 5400   0.563   4.382   7.830  0.6209 -0.9556  0.8590
 1801SOL     OW 5401   0.265   1.868   7.734  0.0527  0.0784  0.0675
 1801SOL    HW1 5402   0.218   1.929   7.677 -2.1677 -0.5314  1.1169
 1801SOL    HW2 5403   0.352   1.905   7.744 -0.7979  2.3328 -0.4326
 1802SOL     OW 5404   2.862   1.200   6.867  0.2694 -0.4188  0.0979
 1802SOL    HW1 5405   2.809   1.133   6.912 -1.1883 -0.1901 -1.2079
 1802SOL    HW2 5406   2.811   1.280   6.877 -0.2932 -0.4323 -2.2111
 1803SOL     OW 5407   1.739   2.551   8.991 -0.5165 -0.3707  0.2303
 1803SOL    HW1 5408   1.700   2.464   8.983 -0.8650 -0.3432  1.4608
 1803SOL    HW2 5409   1.793   2.546   9.070  0.1151  0.2946 -0.1449
 1804SOL     OW 5410   0.306   1.412   7.646  0.3203  0.2267 -0.3543
 1804SOL    HW1 5411   0.383   1.445   7.600 -1.0275  2.3975 -1.1899
 1804SOL    HW2 5412   0.262   1.490   7.678 -1.3734 -0.9889  0.4278
 1805SOL     OW 5413   1.561   0.760   8.803 -0.2819  0.1253 -0.1322
 1805SOL    HW1 5414   1.633   0.699   8.819  1.7554  2.3710 -0.2241
 1805SOL    HW2 5415   1.524   0.731   8.720 -0.5867 -2.0342  0.6894
 1806SOL     OW 5416   3.425   1.994   6.893  0.3398  0.1467  0.2713
 1806SOL    HW1 5417   3.366   2.056   6.851 -0.2953 -0.0815  0.8122
 1806SOL    HW2 5418   3.373   1.955   6.963  0.7732 -0.8757  0.0472
 1807SOL     OW 5419   3.039   1.399   7.694  0.0654  0.6644  0.3802
 1807SOL    HW1 5420   3.072   1.415   7.783  1.3510 -0.1074  0.0609
 1807SOL    HW2 5421   3.044   1.484   7.651 -0.0264  0.9209  0.8655
 1808SOL     OW 5422   1.338   0.113   5.144 -0.4578  0.8029 -0.2458
 1808SOL    HW1 5423   1.387   0.077   5.218 -3.1370 -1.7834  0.4789
 1808SOL    HW2 5424   1.380   0.076   5.067  1.9606  3.0158 -0.1424
 1809SOL     OW 5425   2.455   3.283   7.345 -0.1724 -0.2993 -0.1973
 1809SOL    HW1 5426   2.506   3.309   7.421  0.3577  0.3994 -0.7769
 1809SOL    HW2 5427   2.448   3.188   7.353  1.4568 -0.4538 -0.2192
 1810SOL     OW 5428   3.092   1.088   7.688  0.3111 -0.5006 -0.5101
 1810SOL    HW1 5429   3.003   1.062   7.708 -0.0863  0.2680 -1.1829
 1810SOL    HW2 5430   3.099   1.178   7.721  0.4329 -0.1195 -1.5247
 1811SOL     OW 5431   2.142   4.842   7.146 -0.9283  0.1481 -0.1876
 1811SOL    HW1 5432   2.097   4.810   7.225  0.5018  0.7793  0.9108
 1811SOL    HW2 5433   2.080   4.824   7.075 -2.5599  0.2323  1.1573
 1812SOL     OW 5434   1.601   3.494  10.220  0.1770  0.0882 -0.2175
 1812SOL    HW1 5435   1.527   3.481  10.279 -0.2243  1.4840 -0.3900
 1812SOL    HW2 5436   1.589   3.582  10.185  0.6960 -0.4995 -1.9787
 1813SOL     OW 5437   2.786   1.603   5.108 -0.0185 -0.5555 -0.2212
 1813SOL    HW1 5438   2.816   1.681   5.062 -0.5179 -0.0190  0.3526
 1813SOL    HW2 5439   2.702   1.628   5.146  0.9728 -0.5421  2.1202
 1814SOL     OW 5440   1.716   0.629   5.538  0.6337 -0.3890 -0.7041
 1814SOL    HW1 5441   1.756   0.695   5.481 -0.0961  0.8334  0.1570
 1814SOL    HW2 5442   1.623   0.629   5.513 -0.1455  1.6656  1.7666
 1815SOL     OW 5443   2.452   1.804   9.326  0.3641  0.2501  0.0923
 1815SOL    HW1 5444   2.491   1.734   9.274 -0.1997 -0.1109  0.1436
 1815SOL    HW2 5445   2.416   1.865   9.262  0.5376  0.3087  0.0505
 1816SOL     OW 5446   2.059   2.085   5.392  0.0032  0.2046 -0.2136
 1816SOL    HW1 5447   1.996   2.028   5.349 -0.8059  0.3117  0.7896
 1816SOL    HW2 5448   2.143   2.065   5.350 -0.3187 -1.4757 -0.0853
 1817SOL     OW 5449   2.307   3.728   7.631  0.0264 -0.1003  0.6799
 1817SOL    HW1 5450   2.331   3.636   7.643  2.8757  0.6809  1.9450
 1817SOL    HW2 5451   2.376   3.764   7.574 -3.2153  0.5058 -3.3607
 1818SOL     OW 5452   4.276   3.488   5.108  0.0434 -0.0556 -0.1392
 1818SOL    HW1 5453   4.186   3.470   5.083 -0.1382  0.4776  0.1007
 1818SOL    HW2 5454   4.326   3.481   5.027 -0.2246 -0.2815 -0.2842
 1819SOL     OW 5455   3.421   1.058   5.773  0.3742 -0.0030  0.5205
 1819SOL    HW1 5456   3.416   1.124   5.704 -0.6040 -0.7962 -0.1984
 1819SOL    HW2 5457   3.499   1.007   5.752  0.7278  0.4659  0.6717
 1820SOL     OW 5458   3.073   1.808   7.378 -0.1731  0.9625  0.1500
 1820SOL    HW1 5459   3.133   1.882   7.376 -0.1599  0.9416 -0.3105
 1820SOL    HW2 5460   3.124   1.736   7.413 -0.5765  1.5100  1.9580
 1821SOL     OW 5461   3.432   3.798   6.945 -0.2391  0.0662  0.6690
 1821SOL    HW1 5462   3.445   3.837   6.859 -1.3383  0.5434  0.7151
 1821SOL    HW2 5463   3.490   3.721   6.945  0.4813  0.5888 -0.1318
 1822SOL     OW 5464   1.564   1.744   8.838  0.3968  0.2500  0.3930
 1822SOL    HW1 5465   1.609   1.828   8.829  3.3413 -1.3013 -0.6931
 1822SOL    HW2 5466   1.585   1.697   8.757  0.2370 -2.1310  1.6552
 1823SOL     OW 5467   3.825   2.673   9.388  0.7635  0.4708  0.2937
 1823SOL    HW1 5468   3.849   2.676   9.296  0.3702 -2.3157  0.0033
 1823SOL    HW2 5469   3.881   2.738   9.430  1.3210  1.4227 -1.8203
 1824SOL     OW 5470   4.575   3.018   9.258 -0.4540  0.1944 -0.5968
 1824SOL    HW1 5471   4.541   3.028   9.169  0.7401 -0.0202 -1.0950
 1824SOL    HW2 5472   4.669   3.008   9.246 -0.2506  0.4313  0.7182
 1825SOL     OW 5473   0.206   1.704  10.067  0.5293 -0.3144  0.4834
 1825SOL    HW1 5474   0.177   1.777  10.122  1.4242  0.1105  0.4007
 1825SOL    HW2 5475   0.132   1.643  10.068 -0.5422  0.9085 -0.0365
 1826SOL     OW 5476   0.218   0.140   7.224  0.3762 -0.1367 -0.0882
 1826SOL    HW1 5477   0.191   0.067   7.168 -0.6417  0.7111 -0.7433
 1826SOL    HW2 5478   0.199   0.218   7.172 -0.3079  0.6640  1.3109
 1827SOL     OW 5479   4.205   0.991   6.945 -0.5199  0.2003 -0.2437
 1827SOL    HW1 5480   4.196   0.897   6.961 -1.7864  0.0480 -1.6209
 1827SOL    HW2 5481   4.298   1.002   6.923 -0.7351 -1.1040 -2.0698
 1828SOL     OW 5482   3.609   1.111   9.717 -0.1399  0.4804 -0.0593
 1828SOL    HW1 5483   3.601   1.102   9.812 -1.6673 -0.2426 -0.2170
 1828SOL    HW2 5484   3.538   1.170   9.693 -2.0698 -2.0476 -1.0749
 1829SOL     OW 5485   3.703   1.913   9.680 -0.2182  0.7858  0.8945
 1829SOL    HW1 5486   3.690   1.853   9.606 -1.1947 -0.0308  1.6856
 1829SOL    HW2 5487   3.722   1.856   9.754  2.7377  1.6954  0.9338
 1830SOL     OW 5488   1.430   0.710   8.582  0.2653 -0.2992 -0.6683
 1830SOL    HW1 5489   1.427   0.616   8.596  0.6410 -0.3282 -0.7538
 1830SOL    HW2 5490   1.449   0.720   8.489 -1.5227 -0.1160 -1.0362
 1831SOL     OW 5491   1.518   3.673   5.304  0.4347  1.0994  0.0580
 1831SOL    HW1 5492   1.572   3.646   5.229  2.5104 -0.9609  2.0931
 1831SOL    HW2 5493   1.563   3.634   5.379 -1.8913  2.5415  2.3158
 1832SOL     OW 5494   1.158   4.084   7.154  0.4282  0.3818 -0.4651
 1832SOL    HW1 5495   1.112   4.004   7.129  2.3705 -1.4396  1.3202
 1832SOL    HW2 5496   1.245   4.075   7.114  0.4124  2.0798 -0.9717
 1833SOL     OW 5497   2.216   4.097   7.118 -0.2441  0.0215 -0.7392
 1833SOL    HW1 5498   2.203   4.010   7.081  1.7880  0.2599 -2.1357
 1833SOL    HW2 5499   2.205   4.157   7.044  0.3685  0.7920 -0.2284
 1834SOL     OW 5500   3.674   1.605   7.809  0.2096  0.2403  0.8297
 1834SOL    HW1 5501   3.689   1.594   7.903  1.4216  2.1265  0.9141
 1834SOL    HW2 5502   3.677   1.700   7.795 -3.3633  0.3320 -0.6043
 1835SOL     OW 5503   2.084   1.614   7.242 -0.4298  0.2040  0.4968
 1835SOL    HW1 5504   2.103   1.521   7.229 -0.0983  0.4549 -0.8930
 1835SOL    HW2 5505   2.139   1.640   7.316 -0.8399 -0.7873  1.1732
 1836SOL     OW 5506   0.650   0.684   6.556 -0.6226 -0.0812  0.1558
 1836SOL    HW1 5507   0.652   0.588   6.556 -1.8777 -0.1906 -2.1436
 1836SOL    HW2 5508   0.607   0.707   6.473 -0.3775  2.4810  0.6509
 1837SOL     OW 5509   0.419   1.581   6.325 -0.0683 -0.2404 -0.2312
 1837SOL    HW1 5510   0.343   1.526   6.344  0.1814 -1.2820 -2.0806
 1837SOL    HW2 5511   0.386   1.671   6.334 -0.6501 -0.6157  2.1619
 1838SOL     OW 5512   3.524   0.086   7.318 -0.4091 -0.5806  0.0275
 1838SOL    HW1 5513   3.509   0.059   7.409 -1.2233 -2.9486 -0.7270
 1838SOL    HW2 5514   3.441   0.070   7.274  0.5046 -1.3210 -1.5168
 1839SOL     OW 5515   4.113   4.239   7.977  0.1989 -0.1491 -0.1289
 1839SOL    HW1 5516   4.141   4.284   7.898 -0.2997  2.1966  0.9551
 1839SOL    HW2 5517   4.195   4.218   8.023  0.4852  3.5982  1.3711
 1840SOL     OW 5518   2.207   3.718   8.463  0.1863 -0.4595 -0.3372
 1840SOL    HW1 5519   2.298   3.750   8.468  0.9481 -2.3794 -1.0278
 1840SOL    HW2 5520   2.156   3.785   8.509  1.9825  0.5138  0.3645
 1841SOL     OW 5521   1.936   4.414   6.684 -0.2040  0.4544  1.0575
 1841SOL    HW1 5522   1.951   4.366   6.765  0.1978  0.8987  1.2510
 1841SOL    HW2 5523   1.977   4.499   6.699  1.5882 -0.1022 -0.2993
 1842SOL     OW 5524   2.670   0.865   8.585 -0.5229 -0.5207  0.3669
 1842SOL    HW1 5525   2.587   0.845   8.627 -0.4258 -2.1257 -0.1300
 1842SOL    HW2 5526   2.654   0.852   8.492  0.2359 -0.6866  0.2521
 1843SOL     OW 5527   2.891   0.729   5.322 -0.1805 -0.0152  0.3587
 1843SOL    HW1 5528   2.864   0.749   5.411  3.0076  1.7098  1.1021
 1843SOL    HW2 5529   2.971   0.678   5.331  2.6408  3.6520 -1.2129
 1844SOL     OW 5530   3.938   4.129   9.485  0.1693 -0.3275 -0.2383
 1844SOL    HW1 5531   3.953   4.092   9.572  0.4058 -0.7443 -0.4517
 1844SOL    HW2 5532   3.884   4.207   9.501 -1.1310 -1.2626  0.1396
 1845SOL     OW 5533   0.054   0.112   8.595  0.6239 -0.5253  0.0227
 1845SOL    HW1 5534   0.030   0.196   8.634 -0.2505 -0.9943  0.5360
 1845SOL    HW2 5535   0.149   0.115   8.587  0.7323 -0.0116  1.2650
 1846SOL     OW 5536   3.916   1.635   9.030  0.9314  0.4847 -0.4804
 1846SOL    HW1 5537   3.826   1.631   9.062  1.9242 -1.0290  2.5045
 1846SOL    HW2 5538   3.945   1.543   9.028  2.4364  0.9345 -1.3859
 1847SOL     OW 5539   4.428   1.645   5.971 -0.5668 -0.4718  0.0332
 1847SOL    HW1 5540   4.501   1.611   6.023 -0.5231 -2.5772 -1.2692
 1847SOL    HW2 5541   4.394   1.718   6.022 -0.5636 -2.3930  3.0222
 1848SOL     OW 5542   4.638   2.190   6.457 -0.0687  0.0902  0.2429
 1848SOL    HW1 5543   4.594   2.115   6.497  0.2821  0.4024  1.2603
 1848SOL    HW2 5544   4.688   2.154   6.384 -1.6381 -0.3344 -0.6611
 1849SOL     OW 5545   3.599   2.596   9.525  0.8399 -0.0502  0.4597
 1849SOL    HW1 5546   3.544   2.669   9.552  1.4278  0.1263  1.2064
 1849SOL    HW2 5547   3.675   2.636   9.482  0.1251 -0.3139 -1.1115
 1850SOL     OW 5548   4.658   4.128   6.971 -0.2421  0.0763 -0.4085
 1850SOL    HW1 5549   4.600   4.167   6.905 -3.0785 -1.0292  1.2526
 1850SOL    HW2 5550   4.683   4.201   7.028  2.9378  1.2205 -2.9629
 1851SOL     OW 5551   1.056   3.764   5.344 -0.4178  0.1411  0.4826
 1851SOL    HW1 5552   1.078   3.792   5.432 -2.8044 -0.7610  1.4574
 1851SOL    HW2 5553   1.079   3.671   5.341  1.6269  0.6118 -0.6333
 1852SOL     OW 5554   3.580   4.867   9.351 -0.0731 -0.1035  0.6848
 1852SOL    HW1 5555   3.511   4.815   9.393 -0.1455 -0.3533  0.2717
 1852SOL    HW2 5556   3.656   4.857   9.408  0.3241 -1.7958 -0.0493
 1853SOL     OW 5557   2.696   4.789   8.899 -0.9795 -0.3557  0.1035
 1853SOL    HW1 5558   2.672   4.697   8.909 -2.6840 -0.1658 -1.6301
 1853SOL    HW2 5559   2.774   4.787   8.844 -0.4021 -0.7623  0.9024
 1854SOL     OW 5560   1.597   2.979   7.890 -0.0222 -0.5342 -0.9302
 1854SOL    HW1 5561   1.506   2.953   7.903  0.2770 -0.1867  3.6401
 1854SOL    HW2 5562   1.592   3.071   7.864 -1.0262 -0.3143 -0.0179
 1855SOL     OW 5563   2.642   3.825   7.814 -0.2851  0.6555  0.8698
 1855SOL    HW1 5564   2.723   3.801   7.770 -0.7011  0.2042  0.3465
 1855SOL    HW2 5565   2.642   3.772   7.894 -1.8247 -2.2041 -0.8818
 1856SOL     OW 5566   1.863   2.807   8.292  0.3788 -0.0168 -0.2127
 1856SOL    HW1 5567   1.876   2.747   8.365 -1.6237 -0.3903 -0.1227
 1856SOL    HW2 5568   1.891   2.758   8.214 -0.6459 -0.8426 -0.0701
 1857SOL     OW 5569   1.407   0.736   6.421 -0.0811 -0.2811  0.0020
 1857SOL    HW1 5570   1.359   0.710   6.500 -2.7883 -0.1210 -1.4520
 1857SOL    HW2 5571   1.434   0.826   6.439 -1.4380  0.0749  0.4660
 1858SOL     OW 5572   1.769   0.545   6.179 -0.2354 -0.2325 -0.0019
 1858SOL    HW1 5573   1.848   0.501   6.210 -0.0365  0.2582  0.2117
 1858SOL    HW2 5574   1.795   0.637   6.173 -0.7730 -0.0799  0.0039
 1859SOL     OW 5575   2.098   0.065   9.496  0.2521  0.1964 -0.8215
 1859SOL    HW1 5576   2.006   0.082   9.478 -0.4552 -3.4099 -1.4504
 1859SOL    HW2 5577   2.146   0.127   9.441 -1.5737  3.8834  1.3168
 1860SOL     OW 5578   3.416   4.393   9.867 -0.6580  0.3827  0.2795
 1860SOL    HW1 5579   3.416   4.298   9.877  0.4956  0.3600  0.1262
 1860SOL    HW2 5580   3.377   4.425   9.948  1.4032 -0.1312  1.5527
 1861SOL     OW 5581   1.989   0.101   7.118 -0.1309 -0.0855  0.1790
 1861SOL    HW1 5582   2.033   0.016   7.121 -1.3967 -0.7539  0.4942
 1861SOL    HW2 5583   2.058   0.162   7.091  1.2832 -0.8765  1.7577
 1862SOL     OW 5584   4.938   0.079   8.832 -1.0818 -0.1389  0.6281
 1862SOL    HW1 5585   5.014   0.047   8.881 -1.8660 -1.2992  1.1301
 1862SOL    HW2 5586   4.963   0.070   8.740 -0.6003 -0.4583  0.7834
 1863SOL     OW 5587   4.964   1.921   9.120 -0.4565  0.4396  0.3627
 1863SOL    HW1 5588   5.022   1.877   9.182  0.8322  1.1358 -0.3063
 1863SOL    HW2 5589   4.921   1.849   9.073  0.4064 -0.1029  0.3753
 1864SOL     OW 5590   3.138   3.310   8.399 -0.0909  0.1709  0.1908
 1864SOL    HW1 5591   3.206   3.256   8.439  1.6192  0.6447 -1.8753
 1864SOL    HW2 5592   3.080   3.247   8.356  1.3633 -0.1506 -1.4126
 1865SOL     OW 5593   1.929   3.938   8.497 -1.2687 -0.1295 -0.5277
 1865SOL    HW1 5594   2.016   3.978   8.499 -0.1692 -2.4255  0.2026
 1865SOL    HW2 5595   1.899   3.952   8.408  0.5381 -0.6747 -1.2618
 1866SOL     OW 5596   4.873   0.850   8.241  0.1491 -0.2031 -0.3442
 1866SOL    HW1 5597   4.952   0.856   8.295  0.8919 -1.4171 -1.2162
 1866SOL    HW2 5598   4.904   0.872   8.153 -0.5983 -0.1731 -0.6001
 1867SOL     OW 5599   4.280   4.460   7.784  0.1018  0.2526  0.1874
 1867SOL    HW1 5600   4.315   4.398   7.848 -1.8412 -0.3892  0.6940
 1867SOL    HW2 5601   4.350   4.525   7.773  1.0295 -0.3847  1.9011
 1868SOL     OW 5602   4.372   3.946   6.069  0.0028 -0.1351 -0.8937
 1868SOL    HW1 5603   4.342   3.880   6.005 -2.1085  0.6716 -0.8131
 1868SOL    HW2 5604   4.300   4.008   6.075  2.8854  3.9705 -3.1623
 1869SOL     OW 5605   2.363   1.937   8.403  0.4896 -0.4280 -0.1140
 1869SOL    HW1 5606   2.333   1.956   8.492 -2.3540  0.4354 -1.1446
 1869SOL    HW2 5607   2.457   1.921   8.412  0.5308  0.8836  2.8352
 1870SOL     OW 5608   4.383   1.224   5.179  0.0892 -0.4396  0.3411
 1870SOL    HW1 5609   4.290   1.249   5.181 -0.0176 -0.6665 -1.0626
 1870SOL    HW2 5610   4.383   1.135   5.143  1.0132  0.5095 -2.1869
 1871SOL     OW 5611   0.566   4.498   9.548 -0.0256  0.1668  0.4208
 1871SOL    HW1 5612   0.546   4.462   9.635 -0.1056  0.4076  0.5017
 1871SOL    HW2 5613   0.662   4.507   9.549  0.0570 -0.5944  0.1847
 1872SOL     OW 5614   0.078   1.990   5.638  0.6286 -0.4841 -0.0620
 1872SOL    HW1 5615   0.101   1.937   5.561  0.2477 -0.6603 -0.0530
 1872SOL    HW2 5616   0.031   1.931   5.696  1.1623 -0.4279  0.4427
 1873SOL     OW 5617   2.173   1.196   8.460  0.4338 -0.0901 -0.5112
 1873SOL    HW1 5618   2.161   1.112   8.503 -0.0434 -0.2049 -0.8503
 1873SOL    HW2 5619   2.099   1.202   8.399 -1.1783  1.8061  1.4719
 1874SOL     OW 5620   1.735   1.566   9.709 -0.3707  0.6470 -1.4228
 1874SOL    HW1 5621   1.806   1.621   9.678 -0.0272  1.2490  0.3128
 1874SOL    HW2 5622   1.708   1.606   9.792 -1.3104 -0.7738 -1.0058
 1875SOL     OW 5623   3.670   0.311   5.241  0.3883  0.1129 -0.4833
 1875SOL    HW1 5624   3.647   0.218   5.246  0.8308 -0.1299 -2.1930
 1875SOL    HW2 5625   3.765   0.313   5.249  0.5951  0.1721 -2.4472
 1876SOL     OW 5626   1.179   1.265   6.317  1.0055  0.0835  0.0483
 1876SOL    HW1 5627   1.183   1.171   6.298  0.5742  0.0439  0.1446
 1876SOL    HW2 5628   1.152   1.306   6.235  0.6226  0.0618  0.1591
 1877SOL     OW 5629   2.212   3.878   6.229  0.6627 -0.1860  0.4733
 1877SOL    HW1 5630   2.226   3.968   6.260  1.0411 -0.2973  0.6305
 1877SOL    HW2 5631   2.168   3.889   6.144  1.0785  0.1634  0.2937
 1878SOL     OW 5632   3.402   4.837   8.713  0.1927  0.2690 -0.3663
 1878SOL    HW1 5633   3.489   4.870   8.691  1.3250  0.3646  3.4700
 1878SOL    HW2 5634   3.416   4.782   8.790 -2.9631 -1.1790 -0.6759
 1879SOL     OW 5635   4.290   2.120   5.650  0.1903 -0.4873 -0.0651
 1879SOL    HW1 5636   4.231   2.062   5.698  1.6823 -2.1404 -0.1146
 1879SOL    HW2 5637   4.363   2.134   5.710  0.4478  0.3101 -0.5496
 1880SOL     OW 5638   4.123   1.382   5.347  0.1260 -0.3051  0.3070
 1880SOL    HW1 5639   4.167   1.333   5.417 -0.6833  0.0484  1.0762
 1880SOL    HW2 5640   4.122   1.472   5.378 -1.2256 -0.3247  0.3521
 1881SOL     OW 5641   2.007   3.910   7.936 -0.2247 -1.1199  0.6441
 1881SOL    HW1 5642   2.001   3.816   7.918  1.6812 -0.8008 -2.3331
 1881SOL    HW2 5643   2.096   3.922   7.970  1.8165  0.1051 -4.3452
 1882SOL     OW 5644   0.183   0.338   6.145  0.0634 -0.0661 -0.1705
 1882SOL    HW1 5645   0.262   0.308   6.189  0.8572  0.1723 -1.3670
 1882SOL    HW2 5646   0.212   0.361   6.057 -1.3207  0.1446 -0.6055
 1883SOL     OW 5647   2.111   5.019   8.728 -0.0707 -0.4940  0.6930
 1883SOL    HW1 5648   2.195   4.992   8.691 -0.4948 -0.9620  0.0739
 1883SOL    HW2 5649   2.045   4.984   8.668 -0.6763  0.8844  0.5071
 1884SOL     OW 5650   0.226   0.452  10.302  0.0237 -0.5876  0.4398
 1884SOL    HW1 5651   0.161   0.412  10.245  1.1166 -0.1690 -1.1855
 1884SOL    HW2 5652   0.205   0.545  10.300  1.6281 -0.1864 -1.5459
 1885SOL     OW 5653   1.396   0.387   6.729  0.0745  0.0474 -0.3119
 1885SOL    HW1 5654   1.301   0.376   6.729 -0.2230  1.9625  1.5465
 1885SOL    HW2 5655   1.424   0.353   6.644 -2.4320  0.6920 -1.4893
 1886SOL     OW 5656   1.058   2.910   8.495  0.1486  0.1266  0.0574
 1886SOL    HW1 5657   1.063   2.962   8.575  3.8600  1.8713 -1.0759
 1886SOL    HW2 5658   1.056   2.819   8.525  1.1121  0.7409  2.1244
 1887SOL     OW 5659   0.985   1.136   9.510  1.3330  0.2884 -0.4675
 1887SOL    HW1 5660   0.952   1.227   9.509  1.0403  0.2753 -3.6998
 1887SOL    HW2 5661   1.032   1.127   9.427 -0.1740 -3.0184 -1.1200
 1888SOL     OW 5662   2.512   0.902   7.307  0.2629  0.1294 -1.1845
 1888SOL    HW1 5663   2.578   0.897   7.238  1.2266  2.1117 -0.4848
 1888SOL    HW2 5664   2.477   0.991   7.300  0.7331  0.5641  1.1668
 1889SOL     OW 5665   0.748   4.145   9.889  0.7368  0.2520 -0.5373
 1889SOL    HW1 5666   0.720   4.154   9.798 -1.4456 -0.5999 -0.0120
 1889SOL    HW2 5667   0.667   4.152   9.939  1.6289 -1.3025  1.2037
 1890SOL     OW 5668   1.369   0.313   8.907 -0.5111 -0.0034  0.7650
 1890SOL    HW1 5669   1.407   0.233   8.869 -2.2030  0.1954 -1.5005
 1890SOL    HW2 5670   1.442   0.374   8.911  0.0040 -0.4117 -1.2130
 1891SOL     OW 5671   3.520   1.831   9.089 -0.2957 -0.6281  1.2159
 1891SOL    HW1 5672   3.538   1.743   9.122 -2.4681 -0.7443  2.3154
 1891SOL    HW2 5673   3.425   1.832   9.077  0.0003  0.5957 -1.7542
 1892SOL     OW 5674   3.175   0.934  10.357  0.3669  0.2159  0.0117
 1892SOL    HW1 5675   3.214   0.870  10.417 -0.7581  1.8036  2.6338
 1892SOL    HW2 5676   3.096   0.890  10.323  0.2332 -0.2227  0.8643
 1893SOL     OW 5677   1.592   0.624   7.229 -0.3729  0.8380 -0.2074
 1893SOL    HW1 5678   1.637   0.631   7.145  0.8986  0.0357  0.3743
 1893SOL    HW2 5679   1.620   0.539   7.264 -0.8848  1.1603  1.0234
 1894SOL     OW 5680   2.691   0.123   7.827  0.2638  0.1593  0.8998
 1894SOL    HW1 5681   2.744   0.172   7.764 -0.1606 -0.1480  0.2993
 1894SOL    HW2 5682   2.708   0.166   7.911 -1.4791  2.5557  0.1501
 1895SOL     OW 5683   1.217   4.122   9.373  0.5000  0.7234  0.5453
 1895SOL    HW1 5684   1.247   4.122   9.464  0.8559  1.3860  0.4357
 1895SOL    HW2 5685   1.125   4.148   9.377  0.4671  0.5687  0.7359
 1896SOL     OW 5686   2.888   0.698   4.823 -0.7664 -0.0668 -0.3333
 1896SOL    HW1 5687   2.796   0.675   4.813 -0.2301 -2.7256  0.1434
 1896SOL    HW2 5688   2.921   0.637   4.889  1.3397  0.8518 -0.4602
 1897SOL     OW 5689   3.399   1.201   8.902 -0.6649  0.3569 -0.0421
 1897SOL    HW1 5690   3.404   1.130   8.838 -0.7205  1.4420 -1.3129
 1897SOL    HW2 5691   3.464   1.265   8.871 -1.0951  1.1522  0.6650
 1898SOL     OW 5692   1.400   2.186   9.252  0.1438  0.0893 -0.0227
 1898SOL    HW1 5693   1.444   2.104   9.275 -4.2946 -2.7908 -0.4712
 1898SOL    HW2 5694   1.309   2.172   9.279 -0.6598  5.6579  1.4147
 1899SOL     OW 5695   1.612   5.012   9.159  0.2001  0.2847  0.8094
 1899SOL    HW1 5696   1.639   4.923   9.183  1.8909 -0.0028 -1.8022
 1899SOL    HW2 5697   1.518   5.005   9.141 -0.0388 -0.5573  2.2177
 1900SOL     OW 5698   2.781   2.570   5.817  0.2703  0.0422 -0.1311
 1900SOL    HW1 5699   2.763   2.485   5.858  1.6203 -1.7306 -2.8421
 1900SOL    HW2 5700   2.874   2.585   5.833  0.6393 -0.3043 -1.7167
 1901SOL     OW 5701   2.674   0.668   6.726  0.5212  0.3038  0.4256
 1901SOL    HW1 5702   2.596   0.657   6.671  0.7987  1.8503 -0.3133
 1901SOL    HW2 5703   2.639   0.688   6.813  0.0941  0.5284  0.2046
 1902SOL     OW 5704   3.818   3.251   5.151 -0.2287  0.1227  0.0789
 1902SOL    HW1 5705   3.897   3.230   5.201  0.4921  2.2241 -0.0874
 1902SOL    HW2 5706   3.748   3.253   5.217  0.1450 -0.1548  0.4903
 1903SOL     OW 5707   3.389   2.276   5.778 -0.7047 -0.2036  0.5421
 1903SOL    HW1 5708   3.350   2.193   5.804 -2.1114 -0.2841 -1.5032
 1903SOL    HW2 5709   3.417   2.317   5.860  3.1199 -4.0060  1.4535
 1904SOL     OW 5710   1.409   4.006   7.614 -0.6077  1.4662 -0.1258
 1904SOL    HW1 5711   1.439   4.019   7.525  0.2746 -0.5178 -0.1431
 1904SOL    HW2 5712   1.458   4.070   7.666 -0.4843  2.0211 -0.9219
 1905SOL     OW 5713   4.459   2.079   7.938 -0.0012  0.2470 -0.1463
 1905SOL    HW1 5714   4.389   2.069   8.002 -1.1076  0.6454 -1.2455
 1905SOL    HW2 5715   4.457   2.172   7.914 -0.6008 -0.1389 -1.7799
 1906SOL     OW 5716   0.332   4.881   8.028  0.3920  0.0878 -0.3377
 1906SOL    HW1 5717   0.338   4.964   8.074  4.0254  0.4306 -1.1390
 1906SOL    HW2 5718   0.406   4.882   7.967 -1.5717 -2.2050 -3.0440
 1907SOL     OW 5719   2.499   2.173   9.914  0.1386  0.0223 -0.1824
 1907SOL    HW1 5720   2.468   2.189   9.824  2.0979  2.2129 -0.5646
 1907SOL    HW2 5721   2.457   2.241   9.966  0.6985  0.1292  0.1369
 1908SOL     OW 5722   1.580   3.743  10.072  0.3467 -0.4562  0.4631
 1908SOL    HW1 5723   1.627   3.823  10.094 -0.9521  0.6239 -0.5103
 1908SOL    HW2 5724   1.648   3.676  10.065  1.3079  0.1500  2.9009
 1909SOL     OW 5725   3.398   0.816   9.672 -0.1313 -0.0100  0.1651
 1909SOL    HW1 5726   3.451   0.774   9.740 -0.0400 -1.3869 -0.7277
 1909SOL    HW2 5727   3.449   0.806   9.592 -0.1895  1.6773 -0.1291
 1910SOL     OW 5728   1.135   3.555   6.848 -0.2394  0.3462  0.3319
 1910SOL    HW1 5729   1.122   3.461   6.851 -1.6170  0.5505  1.6693
 1910SOL    HW2 5730   1.225   3.568   6.879 -0.1798 -0.4831  0.5080
 1911SOL     OW 5731   1.009   2.592  10.199  0.1060  0.2143  0.3269
 1911SOL    HW1 5732   0.972   2.619  10.115  0.7836 -2.0652 -0.7866
 1911SOL    HW2 5733   1.050   2.672  10.233 -1.9671  1.7084 -0.4602
 1912SOL     OW 5734   3.251   1.105   5.224  0.5373  0.5078  0.0649
 1912SOL    HW1 5735   3.251   1.158   5.144 -0.1930 -0.5527 -0.6572
 1912SOL    HW2 5736   3.182   1.143   5.278 -0.7858 -0.3650 -0.9375
 1913SOL     OW 5737   3.077   4.274   8.168 -0.0678  0.2591 -0.0891
 1913SOL    HW1 5738   2.991   4.261   8.128 -0.1435 -0.3185  0.2513
 1913SOL    HW2 5739   3.125   4.328   8.105 -0.7343  0.7281 -0.2024
 1914SOL     OW 5740   0.439   3.478   5.408  0.8338 -0.0319 -0.7553
 1914SOL    HW1 5741   0.511   3.542   5.412  0.4132  0.4022  0.1657
 1914SOL    HW2 5742   0.370   3.523   5.360  0.6198  0.1237 -0.3034
 1915SOL     OW 5743   0.906   1.267   6.194  0.1895  0.6695 -0.8161
 1915SOL    HW1 5744   0.881   1.187   6.148 -1.7452  0.9800 -0.3978
 1915SOL    HW2 5745   0.878   1.338   6.136 -2.1586  1.0687  0.6523
 1916SOL     OW 5746   3.106   4.893   8.626  0.3525 -0.9903 -0.6690
 1916SOL    HW1 5747   3.198   4.877   8.648  1.0850  3.0164 -0.0162
 1916SOL    HW2 5748   3.109   4.962   8.559 -2.1540 -0.0397  0.0836
 1917SOL     OW 5749   4.423   0.082   5.942 -0.3162  0.6391  0.1008
 1917SOL    HW1 5750   4.361   0.154   5.931  2.1462  2.8799 -0.1673
 1917SOL    HW2 5751   4.497   0.121   5.988  0.3196 -2.2745  1.7773
 1918SOL     OW 5752   2.589   3.298   9.771 -0.2743  0.7390  0.5117
 1918SOL    HW1 5753   2.591   3.330   9.681  0.3705 -2.7023 -0.8295
 1918SOL    HW2 5754   2.496   3.279   9.787 -0.2242 -0.0014 -0.0077
 1919SOL     OW 5755   0.989   1.525   8.727  0.1596  0.2599  0.0103
 1919SOL    HW1 5756   1.007   1.499   8.817  0.4860  1.9192  0.4608
 1919SOL    HW2 5757   1.064   1.493   8.677 -0.0479 -0.7126  0.3061
 1920SOL     OW 5758   3.624   0.948   6.413 -0.0839 -0.2540  0.2654
 1920SOL    HW1 5759   3.638   0.912   6.501  1.0701  0.2441  0.3029
 1920SOL    HW2 5760   3.646   0.875   6.354 -0.2829 -0.4067  0.3791
 1921SOL     OW 5761   0.182   0.392   7.092  0.5553 -0.3891  0.7413
 1921SOL    HW1 5762   0.274   0.402   7.066  0.5296  1.4661  1.2522
 1921SOL    HW2 5763   0.132   0.420   7.016  0.4107 -1.0582  0.5879
 1922SOL     OW 5764   0.669   4.508  10.087  0.0332 -0.0966  0.3835
 1922SOL    HW1 5765   0.748   4.489  10.037 -0.0399 -1.1461  0.6383
 1922SOL    HW2 5766   0.674   4.601  10.105  0.0032  0.3649 -1.6734
 1923SOL     OW 5767   4.606   4.344   9.507 -0.9632 -0.7352  0.5271
 1923SOL    HW1 5768   4.620   4.438   9.500  0.2295 -0.8931  0.6143
 1923SOL    HW2 5769   4.530   4.327   9.451  0.1332 -0.0190 -1.2505
 1924SOL     OW 5770   0.800   3.675   7.606 -0.3224 -0.4838 -0.5223
 1924SOL    HW1 5771   0.785   3.722   7.524  0.6269  0.5364 -0.1456
 1924SOL    HW2 5772   0.865   3.729   7.652  1.3267 -2.5078 -0.3265
 1925SOL     OW 5773   0.978   0.592   6.654 -0.0900  0.3634  0.0638
 1925SOL    HW1 5774   0.932   0.673   6.675  2.2361  1.8123 -0.0366
 1925SOL    HW2 5775   0.933   0.557   6.577 -2.2300  0.5672  1.1588
 1926SOL     OW 5776   1.286   3.845   7.787 -0.8042  0.0203 -0.2735
 1926SOL    HW1 5777   1.252   3.912   7.847 -0.8293  1.4819 -1.8355
 1926SOL    HW2 5778   1.338   3.894   7.724  1.6730 -1.8002  0.2046
 1927SOL     OW 5779   0.335   4.888   9.716 -0.5955 -0.1159  0.1757
 1927SOL    HW1 5780   0.352   4.870   9.623 -2.0822 -1.3205  0.0922
 1927SOL    HW2 5781   0.422   4.899   9.754  0.0292  0.9504 -1.4456
 1928SOL     OW 5782   2.824   4.848   6.737 -0.2865 -0.3685  0.5425
 1928SOL    HW1 5783   2.794   4.853   6.647 -0.8799  0.4610  0.7816
 1928SOL    HW2 5784   2.781   4.770   6.772  0.7153 -1.2770 -0.1481
 1929SOL     OW 5785   1.134   2.414   5.950 -0.3616 -0.1247  0.4654
 1929SOL    HW1 5786   1.150   2.361   6.028 -0.3211  1.1517  1.3650
 1929SOL    HW2 5787   1.217   2.415   5.903 -0.7333 -1.9513 -0.2986
 1930SOL     OW 5788   0.335   1.767   9.413  0.2585  0.4300 -0.2647
 1930SOL    HW1 5789   0.256   1.785   9.464 -1.4810  0.9735 -2.9401
 1930SOL    HW2 5790   0.303   1.741   9.327  2.9736 -3.0586 -0.4346
 1931SOL     OW 5791   4.050   3.608   6.943  0.2492 -0.2943 -0.0930
 1931SOL    HW1 5792   3.989   3.598   7.016  0.9610 -0.0606  0.5486
 1931SOL    HW2 5793   4.111   3.535   6.954  0.2564 -0.3635 -0.5673
 1932SOL     OW 5794   3.450   0.555   8.302  0.3532 -0.4748  0.1188
 1932SOL    HW1 5795   3.541   0.583   8.294 -0.1579  1.0262 -0.7205
 1932SOL    HW2 5796   3.442   0.526   8.393  1.7729 -1.0822  0.0786
 1933SOL     OW 5797   4.131   0.347   6.774  0.2983 -0.1946  0.2273
 1933SOL    HW1 5798   4.044   0.328   6.810 -0.7208  2.8359 -0.3072
 1933SOL    HW2 5799   4.159   0.266   6.732  1.2430 -3.9539  6.7282
 1934SOL     OW 5800   4.172   4.467   8.867 -0.0609 -0.5282 -0.0272
 1934SOL    HW1 5801   4.108   4.401   8.894  1.5877 -1.5480  1.5860
 1934SOL    HW2 5802   4.241   4.418   8.822  0.6218  0.2681  0.1158
 1935SOL     OW 5803   4.460   4.746   8.514 -0.0913 -0.3653 -0.7959
 1935SOL    HW1 5804   4.460   4.837   8.486  0.3894 -0.4749 -1.1671
 1935SOL    HW2 5805   4.453   4.696   8.433 -3.3942 -0.6555 -0.4688
 1936SOL     OW 5806   2.398   4.304   9.330  0.9184 -0.6706 -0.1976
 1936SOL    HW1 5807   2.382   4.247   9.405  1.0088 -0.1806  0.2003
 1936SOL    HW2 5808   2.338   4.272   9.262  1.4483 -1.6558 -0.2119
 1937SOL     OW 5809   0.847   3.916   5.211 -0.2421 -0.2032  0.2585
 1937SOL    HW1 5810   0.897   3.875   5.140 -1.9938 -0.1260 -1.0802
 1937SOL    HW2 5811   0.898   3.897   5.290  2.5144  0.9032 -1.1243
 1938SOL     OW 5812   2.559   1.262   6.025  0.2848  0.0351  0.2916
 1938SOL    HW1 5813   2.550   1.205   6.102 -0.6677 -0.2479 -0.0113
 1938SOL    HW2 5814   2.570   1.350   6.061 -0.6847 -0.0221  0.7581
 1939SOL     OW 5815   2.920   4.230   6.688 -0.0095  0.3479  0.8706
 1939SOL    HW1 5816   2.826   4.217   6.694 -0.1966 -1.0706 -2.8214
 1939SOL    HW2 5817   2.936   4.313   6.733 -3.2760  1.4547  0.2302
 1940SOL     OW 5818   1.030   2.889   7.870  0.0805  0.3046  0.2311
 1940SOL    HW1 5819   0.949   2.843   7.892 -0.5075  1.7475  1.2338
 1940SOL    HW2 5820   1.013   2.981   7.893  1.6386  0.8219 -0.5245
 1941SOL     OW 5821   2.705   2.894   8.030  1.0546  0.2677 -0.5554
 1941SOL    HW1 5822   2.649   2.822   8.060 -1.4786  2.3667  0.0422
 1941SOL    HW2 5823   2.716   2.950   8.106  0.5135  1.9855 -1.6785
 1942SOL     OW 5824   0.181   3.094   7.869  0.1468  0.2889  0.0394
 1942SOL    HW1 5825   0.138   3.029   7.813 -0.8070 -0.2173  1.2806
 1942SOL    HW2 5826   0.247   3.134   7.814 -1.2710  0.3840 -1.6786
 1943SOL     OW 5827   3.440   4.571   9.660 -0.2555  0.0281  0.0379
 1943SOL    HW1 5828   3.438   4.485   9.701 -2.6066  0.5326  1.1506
 1943SOL    HW2 5829   3.476   4.629   9.727 -1.0612  0.3138  0.2337
 1944SOL     OW 5830   1.458   1.215   7.161  0.1746  0.0392  0.2042
 1944SOL    HW1 5831   1.496   1.154   7.225 -2.8377  1.0641  3.3031
 1944SOL    HW2 5832   1.513   1.293   7.168  0.7056 -0.3463  0.4872
 1945SOL     OW 5833   1.624   2.807   4.824 -0.8679  0.4190 -0.4147
 1945SOL    HW1 5834   1.566   2.858   4.881 -2.0796 -1.3513  0.0077
 1945SOL    HW2 5835   1.696   2.779   4.880 -1.7454 -0.8059  0.1403
 1946SOL     OW 5836   3.173   2.224   7.455  0.1430 -0.1046 -0.1943
 1946SOL    HW1 5837   3.085   2.240   7.490 -1.0322 -0.4049 -2.7966
 1946SOL    HW2 5838   3.213   2.311   7.451 -1.0342  0.4080 -1.4131
 1947SOL     OW 5839   0.698   2.584   7.328 -0.3311  0.5251  0.5839
 1947SOL    HW1 5840   0.769   2.581   7.392 -1.1685 -0.5516  1.5152
 1947SOL    HW2 5841   0.638   2.650   7.362  0.0810  1.2417 -0.0602
 1948SOL     OW 5842   3.590   1.965   6.674  0.1974  0.6804  0.4012
 1948SOL    HW1 5843   3.545   1.981   6.757  0.7132 -3.1447  1.6110
 1948SOL    HW2 5844   3.528   1.995   6.607 -1.7941  0.6050  2.1155
 1949SOL     OW 5845   0.852   4.991   8.226 -0.5432  0.4932 -0.5426
 1949SOL    HW1 5846   0.946   4.986   8.207 -0.6460 -0.2770 -0.8513
 1949SOL    HW2 5847   0.840   4.937   8.304 -0.6317  1.1306 -0.1043
 1950SOL     OW 5848   0.318   3.335   5.789  0.0780 -0.8726  0.7322
 1950SOL    HW1 5849   0.371   3.344   5.710 -0.1668 -0.4425  0.6119
 1950SOL    HW2 5850   0.270   3.254   5.777 -0.0431 -0.7525  0.3834
 1951SOL     OW 5851   2.625   3.894   9.997 -0.1923 -0.0983  0.3508
 1951SOL    HW1 5852   2.614   3.809  10.040 -1.5984  0.2790  0.7781
 1951SOL    HW2 5853   2.701   3.934  10.040 -0.9947 -0.1218  1.8491
 1952SOL     OW 5854   2.703   4.310   7.074 -0.5297 -0.4195 -0.2712
 1952SOL    HW1 5855   2.720   4.382   7.135 -1.1956  0.4474 -1.0614
 1952SOL    HW2 5856   2.789   4.288   7.039 -0.4765  1.0966 -1.1817
 1953SOL     OW 5857   1.492   2.231   8.506  0.5029 -0.4591 -0.0583
 1953SOL    HW1 5858   1.531   2.264   8.426  0.4051  2.4558  0.9759
 1953SOL    HW2 5859   1.406   2.197   8.479 -1.4764  4.3421 -0.8690
 1954SOL     OW 5860   1.701   4.189   9.827  0.5582  0.3844 -0.3987
 1954SOL    HW1 5861   1.780   4.139   9.847  1.1397  1.0880 -0.8549
 1954SOL    HW2 5862   1.729   4.281   9.834 -0.1183  0.6392 -0.9451
 1955SOL     OW 5863   0.330   4.762  10.019  0.6884 -0.8999  0.2949
 1955SOL    HW1 5864   0.401   4.736   9.960  0.6349  1.8016 -1.1155
 1955SOL    HW2 5865   0.250   4.730   9.977  0.6091  1.3850 -1.4857
 1956SOL     OW 5866   4.212   1.972   9.780 -0.5572  0.0246 -0.0201
 1956SOL    HW1 5867   4.120   1.987   9.757 -0.2994 -1.8158 -2.7596
 1956SOL    HW2 5868   4.262   2.016   9.711  0.4050 -2.6864 -1.2258
 1957SOL     OW 5869   2.806   0.797   7.227 -0.1604  0.1925 -0.2022
 1957SOL    HW1 5870   2.790   0.706   7.201 -1.3330 -0.5687  2.7897
 1957SOL    HW2 5871   2.902   0.804   7.231 -0.0030 -0.3257 -2.1590
 1958SOL     OW 5872   2.327   3.513   9.982  0.1722 -0.8636  0.2941
 1958SOL    HW1 5873   2.308   3.468  10.065 -0.6369 -1.4934 -0.2141
 1958SOL    HW2 5874   2.413   3.479   9.957  1.0792  0.3933  1.5548
 1959SOL     OW 5875   1.601   0.816  10.476  0.9993  0.3452 -0.5624
 1959SOL    HW1 5876   1.534   0.881  10.497 -0.6438 -1.1386 -0.9272
 1959SOL    HW2 5877   1.611   0.823  10.381  0.6333 -0.1010 -0.6339
 1960SOL     OW 5878   4.671   4.439   7.577  0.1321 -0.5491 -0.3616
 1960SOL    HW1 5879   4.749   4.383   7.584  0.9015  0.6362  1.2144
 1960SOL    HW2 5880   4.649   4.459   7.668 -1.3910  0.0139 -0.8348
 1961SOL     OW 5881   1.229   0.438   8.662  0.4298  0.4115  0.3161
 1961SOL    HW1 5882   1.315   0.463   8.698 -0.1934  1.4570  1.1309
 1961SOL    HW2 5883   1.184   0.521   8.646 -1.0256 -0.1240  1.4102
 1962SOL     OW 5884   1.283   3.242   9.999 -0.1606 -0.4792  0.2579
 1962SOL    HW1 5885   1.291   3.242   9.903  1.3058 -1.2302  0.3550
 1962SOL    HW2 5886   1.275   3.334  10.022  1.2335 -0.1295 -0.4959
 1963SOL     OW 5887   2.834   4.376   8.566 -0.1847 -0.0056  0.6746
 1963SOL    HW1 5888   2.855   4.375   8.659 -0.9791 -1.1793  0.8625
 1963SOL    HW2 5889   2.762   4.439   8.558  0.9066  1.2824  0.5820
 1964SOL     OW 5890   4.095   0.164   7.478  0.2257 -0.4012 -0.6576
 1964SOL    HW1 5891   4.077   0.105   7.405 -1.7002 -2.1993  1.1138
 1964SOL    HW2 5892   4.167   0.219   7.448 -1.2603 -0.1793 -4.3530
 1965SOL     OW 5893   1.701   4.567   6.603 -0.2681 -0.3085 -0.1609
 1965SOL    HW1 5894   1.755   4.488   6.599  2.7917  1.5178  0.7099
 1965SOL    HW2 5895   1.689   4.583   6.697  1.7419  1.6951 -0.1446
 1966SOL     OW 5896   2.230   1.842   9.490  0.0953  0.0846  0.0475
 1966SOL    HW1 5897   2.324   1.825   9.488 -0.1753 -1.8955  1.2714
 1966SOL    HW2 5898   2.212   1.889   9.408  1.8675 -1.1420 -1.1129
 1967SOL     OW 5899   1.211   0.736   5.872  0.7093  0.1884 -0.0680
 1967SOL    HW1 5900   1.234   0.804   5.936  0.8170 -0.4209  0.5499
 1967SOL    HW2 5901   1.118   0.720   5.887 -0.1296  2.3188 -2.2525
 1968SOL     OW 5902   1.460   2.492   7.754 -0.4103 -0.0241 -0.8056
 1968SOL    HW1 5903   1.494   2.424   7.813 -1.0184 -0.0461 -0.4694
 1968SOL    HW2 5904   1.396   2.538   7.807 -0.2395  0.6045 -1.1422
 1969SOL     OW 5905   4.009   3.396   7.617 -0.6707  0.4242 -0.0030
 1969SOL    HW1 5906   4.102   3.398   7.594 -0.1117 -0.6258  1.9147
 1969SOL    HW2 5907   3.978   3.485   7.597 -0.3806 -0.2917 -4.5841
 1970SOL     OW 5908   0.596   4.584   8.505  0.0599 -0.0430 -0.3203
 1970SOL    HW1 5909   0.638   4.638   8.438 -2.4467  3.0274  0.3131
 1970SOL    HW2 5910   0.626   4.495   8.487  2.7184  1.1981 -2.8896
 1971SOL     OW 5911   2.552   4.962   9.956  0.2169  0.2888  0.7589
 1971SOL    HW1 5912   2.501   4.881   9.943  2.0322 -0.7280 -0.4217
 1971SOL    HW2 5913   2.546   5.007   9.872 -2.6792  2.6463  2.0527
 1972SOL     OW 5914   3.614   3.808   9.944  0.6276 -0.0544 -0.1588
 1972SOL    HW1 5915   3.661   3.859   9.878  2.5432 -0.9545  0.4536
 1972SOL    HW2 5916   3.680   3.783  10.008 -1.1606  0.7312  2.1444
 1973SOL     OW 5917   1.344   0.156   7.803 -0.1517  0.5372 -0.2446
 1973SOL    HW1 5918   1.367   0.063   7.808 -0.4628  0.2191 -3.2346
 1973SOL    HW2 5919   1.287   0.170   7.879 -0.4726 -1.8447  0.0399
 1974SOL     OW 5920   4.337   2.070   7.620  0.2889 -0.0227 -0.1335
 1974SOL    HW1 5921   4.316   1.985   7.581  1.1973 -1.2413  1.8969
 1974SOL    HW2 5922   4.392   2.050   7.696  1.0650  2.4315  0.0593
 1975SOL     OW 5923   1.288   0.525   9.675  0.7903 -0.0500 -0.1006
 1975SOL    HW1 5924   1.338   0.443   9.683 -1.8344 -1.6125  1.8466
 1975SOL    HW2 5925   1.222   0.506   9.609 -0.6691 -0.0485  1.2969
 1976SOL     OW 5926   3.039   4.485   9.509  0.0404  0.7781  0.1926
 1976SOL    HW1 5927   2.971   4.490   9.576  0.8858 -0.8595  1.2217
 1976SOL    HW2 5928   3.031   4.397   9.472  0.2686  1.2942 -1.1561
 1977SOL     OW 5929   4.498   2.530   8.162 -0.4404 -0.6642  0.1370
 1977SOL    HW1 5930   4.524   2.524   8.071  0.5445  0.0209  0.3671
 1977SOL    HW2 5931   4.490   2.624   8.180 -1.6703 -0.8091  0.4758
 1978SOL     OW 5932   0.750   3.441   7.711  1.1884  0.1610  0.2781
 1978SOL    HW1 5933   0.784   3.509   7.652 -0.3109  2.1961  1.6206
 1978SOL    HW2 5934   0.745   3.362   7.657  1.0005  1.6344 -1.9726
 1979SOL     OW 5935   2.941   1.588   9.763  0.0137 -0.2812  0.1617
 1979SOL    HW1 5936   2.915   1.677   9.740  0.2096  0.0578  1.1994
 1979SOL    HW2 5937   2.858   1.541   9.775 -0.1018 -0.6209 -1.6991
 1980SOL     OW 5938   1.100   1.002   8.402 -0.4713  0.0967  0.0171
 1980SOL    HW1 5939   1.060   0.916   8.389 -3.7553  0.9448  3.0621
 1980SOL    HW2 5940   1.185   0.983   8.443 -0.8562 -1.6880  0.0717
 1981SOL     OW 5941   3.834   4.639  10.322 -1.2175  0.4228 -0.2977
 1981SOL    HW1 5942   3.791   4.557  10.296  0.5959  0.2131 -3.0698
 1981SOL    HW2 5943   3.926   4.616  10.331 -1.0554  1.6152  1.9081
 1982SOL     OW 5944   4.857   0.559  10.260 -0.2259  0.4864 -0.0620
 1982SOL    HW1 5945   4.805   0.560  10.341 -0.7595  0.9824 -0.4004
 1982SOL    HW2 5946   4.793   0.539  10.192  0.4261 -1.1503 -0.2412
 1983SOL     OW 5947   3.246   2.636   9.834 -0.1215 -0.4764  0.4003
 1983SOL    HW1 5948   3.288   2.675   9.757 -0.5107 -0.7275  0.0579
 1983SOL    HW2 5949   3.163   2.684   9.843 -0.6064 -1.2195 -0.0267
 1984SOL     OW 5950   1.957   4.953  10.298 -0.9888 -0.4815  0.0779
 1984SOL    HW1 5951   1.924   5.041  10.282 -0.4095 -0.2748  0.0025
 1984SOL    HW2 5952   1.973   4.950  10.392  3.1674  1.0348 -0.3628
 1985SOL     OW 5953   1.048   2.796   8.765  0.7027 -0.1804 -0.5115
 1985SOL    HW1 5954   0.957   2.799   8.797  0.6544 -2.4399 -0.2831
 1985SOL    HW2 5955   1.101   2.808   8.844  0.5879 -0.7960 -0.3362
 1986SOL     OW 5956   3.273   3.157   9.179 -0.4351 -0.0942  0.1339
 1986SOL    HW1 5957   3.219   3.130   9.254 -0.2997 -2.0299 -0.4044
 1986SOL    HW2 5958   3.233   3.238   9.149 -3.1968 -1.5059 -0.3238
 1987SOL     OW 5959   2.940   0.185   9.949 -0.4821 -0.1116  0.1130
 1987SOL    HW1 5960   2.937   0.212   9.858  2.2985  2.0481  0.5415
 1987SOL    HW2 5961   2.980   0.258   9.995 -2.9524 -0.5588  3.3771
 1988SOL     OW 5962   2.616   0.031   9.404 -0.9593 -0.3524  1.0197
 1988SOL    HW1 5963   2.633   0.036   9.498 -2.5797  1.3045  1.2836
 1988SOL    HW2 5964   2.702   0.015   9.365  0.5897  3.3328  2.4893
 1989SOL     OW 5965   1.212   4.005   8.489 -0.0440 -0.3870  0.1331
 1989SOL    HW1 5966   1.180   4.086   8.528 -2.0393 -1.2351  0.3855
 1989SOL    HW2 5967   1.150   3.938   8.518  1.7465 -2.1053  0.2572
 1990SOL     OW 5968   0.550   1.386   9.704  0.2710 -0.7430 -0.2579
 1990SOL    HW1 5969   0.530   1.469   9.748  1.2125 -0.2639 -0.6986
 1990SOL    HW2 5970   0.510   1.319   9.760  0.4291 -0.0664  0.6941
 1991SOL     OW 5971   2.793   1.243   9.236 -0.0503 -0.3507 -0.1112
 1991SOL    HW1 5972   2.845   1.322   9.250 -0.5813 -0.4962  3.7239
 1991SOL    HW2 5973   2.730   1.268   9.167  2.8908  0.8189 -2.5996
 1992SOL     OW 5974   0.282   0.428   8.298  0.0841  0.7187  0.3529
 1992SOL    HW1 5975   0.374   0.403   8.291  0.0113  0.8443 -2.1798
 1992SOL    HW2 5976   0.282   0.523   8.281 -0.6037  0.4606 -1.2922
 1993SOL     OW 5977   1.041   4.843   7.691  0.3478  0.5589 -0.8248
 1993SOL    HW1 5978   1.129   4.878   7.675  0.4193  0.5783 -0.4173
 1993SOL    HW2 5979   0.994   4.857   7.609  0.8052  0.3014 -1.1376
 1994SOL     OW 5980   0.970   2.548   8.975 -0.3875  0.1261 -0.6914
 1994SOL    HW1 5981   0.934   2.635   8.955  1.6167  1.0203 -0.6761
 1994SOL    HW2 5982   1.058   2.566   9.008 -0.1143 -1.9052 -0.2001
 1995SOL     OW 5983   3.131   3.601   8.784 -0.1891  0.8657 -0.0526
 1995SOL    HW1 5984   3.071   3.591   8.710 -1.0700  0.6411  0.6733
 1995SOL    HW2 5985   3.217   3.613   8.744 -0.6720  0.8813 -1.1105
 1996SOL     OW 5986   2.164   1.178   7.038 -0.2006 -0.4452 -0.1341
 1996SOL    HW1 5987   2.162   1.146   6.948  1.3075  0.4845 -0.5393
 1996SOL    HW2 5988   2.100   1.124   7.084  1.4433 -3.3695 -1.0010
 1997SOL     OW 5989   3.872   0.606   8.477 -0.5245  0.3466  0.3358
 1997SOL    HW1 5990   3.829   0.606   8.563 -1.9718  1.8808 -0.3155
 1997SOL    HW2 5991   3.965   0.619   8.496 -0.8405  0.8094  1.6676
 1998SOL     OW 5992   0.049   2.186   9.027 -0.0792  0.0422  0.0325
 1998SOL    HW1 5993   0.004   2.239   9.093 -1.9013 -0.9124 -0.3887
 1998SOL    HW2 5994   0.024   2.096   9.048  0.3529 -0.3714 -1.1832
 1999SOL     OW 5995   2.527   1.556   9.212  0.0676 -0.0368 -0.3557
 1999SOL    HW1 5996   2.445   1.509   9.197 -1.0441  0.6037  2.8784
 1999SOL    HW2 5997   2.595   1.497   9.180 -1.5175 -1.7941 -0.6472
 2000SOL     OW 5998   0.348   4.550   7.916  0.4010 -0.5961  0.4023
 2000SOL    HW1 5999   0.420   4.530   7.976  0.4537 -0.3511  0.4250
 2000SOL    HW2 6000   0.273   4.568   7.974  0.1105 -1.6135  0.3610
 2001SOL     OW 6001   1.293   1.202   7.504  0.5615  0.2650 -0.1456
 2001SOL    HW1 6002   1.269   1.289   7.469  1.2380  0.6008  0.2229
 2001SOL    HW2 6003   1.232   1.142   7.460  1.3352  0.6842 -1.8695
 2002SOL     OW 6004   1.947   4.601   5.792  0.0025  0.0454 -0.1232
 2002SOL    HW1 6005   2.013   4.653   5.839 -2.0908  0.1678  2.9761
 2002SOL    HW2 6006   1.873   4.595   5.853 -3.2627  0.6007 -3.6514
 2003SOL     OW 6007   4.836   1.393  10.380 -0.2217  0.0174 -0.4173
 2003SOL    HW1 6008   4.918   1.350  10.354  0.1228 -0.8791  1.8843
 2003SOL    HW2 6009   4.837   1.390  10.476 -2.7426  0.4270 -0.3105
 2004SOL     OW 6010   0.894   4.706   9.449  0.0441 -0.3894 -0.4536
 2004SOL    HW1 6011   0.867   4.618   9.424  0.1861 -0.3926 -0.5923
 2004SOL    HW2 6012   0.954   4.734   9.380  1.5046 -0.9194  0.5750
 2005SOL     OW 6013   1.593   2.270   7.463 -0.4475 -0.0902  0.0893
 2005SOL    HW1 6014   1.511   2.314   7.486  0.5470  1.4674  0.8512
 2005SOL    HW2 6015   1.589   2.260   7.368 -1.2643  0.5261  0.0447
 2006SOL     OW 6016   0.912   1.979   7.527 -0.0695 -0.2660 -0.1769
 2006SOL    HW1 6017   1.001   1.946   7.536 -0.4442 -1.4223 -0.5289
 2006SOL    HW2 6018   0.874   1.973   7.615  1.1365  3.2607  0.7718
 2007SOL     OW 6019   0.545   3.002  10.116 -0.0388 -0.0713 -0.2832
 2007SOL    HW1 6020   0.622   2.953  10.148 -0.9983 -1.3861  0.0944
 2007SOL    HW2 6021   0.582   3.079  10.074  1.6075 -1.5007 -1.6187
 2008SOL     OW 6022   1.531   4.233   8.041  0.9033 -0.2564 -0.4611
 2008SOL    HW1 6023   1.552   4.259   8.131  2.5779  0.2510 -0.9652
 2008SOL    HW2 6024   1.505   4.141   8.048 -0.4120  0.1687  0.7099
 2009SOL     OW 6025   4.530   2.494   8.544 -0.1321  0.1696  0.2478
 2009SOL    HW1 6026   4.497   2.501   8.634  1.1269 -0.4134  0.7700
 2009SOL    HW2 6027   4.587   2.569   8.533 -0.8882  0.6759 -0.3518
 2010SOL     OW 6028   2.137   0.544  10.054  0.0126 -0.2092  0.9685
 2010SOL    HW1 6029   2.118   0.452  10.073  0.3211 -0.4200  0.2958
 2010SOL    HW2 6030   2.230   0.545  10.030  0.5318  0.5808  2.7900
 2011SOL     OW 6031   4.111   3.630   8.624 -0.5639 -0.0254 -0.1446
 2011SOL    HW1 6032   4.139   3.581   8.701 -0.0165  1.9525  0.9886
 2011SOL    HW2 6033   4.142   3.578   8.550  0.9267 -0.8525  1.0036
 2012SOL     OW 6034   2.696   4.927  10.505  0.9850  0.0605  0.2407
 2012SOL    HW1 6035   2.692   4.975  10.422 -0.9495 -2.5541 -1.3539
 2012SOL    HW2 6036   2.622   4.960  10.555  2.0513  1.5203  0.9112
 2013SOL     OW 6037   2.351   1.323   9.090 -0.3698 -0.0520 -0.2357
 2013SOL    HW1 6038   2.278   1.328   9.152 -0.2743 -2.8311  0.2591
 2013SOL    HW2 6039   2.318   1.365   9.010 -1.5566  0.9831  0.7638
 2014SOL     OW 6040   0.988   0.424  10.560 -0.4157  1.1739  0.7891
 2014SOL    HW1 6041   0.972   0.516  10.583  0.7068  1.8736 -1.0504
 2014SOL    HW2 6042   0.903   0.381  10.573 -0.8203  2.3201  2.2414
 2015SOL     OW 6043   3.483   3.361   9.480  0.1848 -0.2986  0.2825
 2015SOL    HW1 6044   3.538   3.437   9.498  0.5568 -0.7095  0.9442
 2015SOL    HW2 6045   3.404   3.375   9.532  0.3429 -0.4545  0.5714
 2016SOL     OW 6046   1.692  -0.015   8.267  0.8617  0.2400  0.0873
 2016SOL    HW1 6047   1.697   0.081   8.272  0.8710  0.2569 -0.2138
 2016SOL    HW2 6048   1.627  -0.040   8.333  3.0274  0.2196  2.3450
 2017SOL     OW 6049   2.190   0.690   9.076  0.8470 -0.5819  0.2917
 2017SOL    HW1 6050   2.101   0.688   9.111  0.3951 -0.3082 -0.7853
 2017SOL    HW2 6051   2.246   0.713   9.150  0.0482 -0.9857  1.0290
 2018SOL     OW 6052   1.846   3.733   9.073 -0.1831 -0.2515 -0.5013
 2018SOL    HW1 6053   1.846   3.671   9.146 -1.4126  0.3405  0.0398
 2018SOL    HW2 6054   1.782   3.697   9.011 -0.8758  0.4271 -0.2009
 2019SOL     OW 6055   4.990   4.730   6.529 -0.3646 -0.0480 -0.0144
 2019SOL    HW1 6056   4.934   4.702   6.601  1.4825 -0.4184  1.3521
 2019SOL    HW2 6057   5.044   4.800   6.567  1.5379 -1.1295 -0.6229
 2020SOL     OW 6058   0.789   1.125   7.597 -0.5701 -0.1083  0.3036
 2020SOL    HW1 6059   0.819   1.079   7.676 -0.3922  0.8163  0.7885
 2020SOL    HW2 6060   0.732   1.062   7.554 -2.0992 -0.0292  2.0857
 2021SOL     OW 6061   4.810   5.002   9.079  0.4423  0.1063  0.5620
 2021SOL    HW1 6062   4.826   5.024   8.987  1.3610 -0.5882  0.5365
 2021SOL    HW2 6063   4.779   4.912   9.077  2.3003 -0.6066  1.0204
 2022SOL     OW 6064   3.534   1.314   7.812  0.6182  0.2010 -1.0930
 2022SOL    HW1 6065   3.614   1.337   7.860  1.6797 -0.9627 -2.2334
 2022SOL    HW2 6066   3.564   1.262   7.738 -1.1969 -0.1354 -1.6504
 2023SOL     OW 6067   2.721   0.494   9.616 -0.1200  0.3457 -0.0681
 2023SOL    HW1 6068   2.746   0.434   9.546 -3.5808  0.1760 -1.3746
 2023SOL    HW2 6069   2.769   0.574   9.597 -0.7830  0.2346 -2.6277
 2024SOL     OW 6070   4.489   0.678  10.234  0.3578 -0.6786 -0.1773
 2024SOL    HW1 6071   4.498   0.773  10.232  0.8398 -0.7254 -0.3680
 2024SOL    HW2 6072   4.395   0.663  10.238  0.2177 -0.2131 -1.3121
 2025SOL     OW 6073   2.308   0.240   7.745  0.0631  0.0783  0.0650
 2025SOL    HW1 6074   2.288   0.254   7.653  0.7659  0.3015 -0.0590
 2025SOL    HW2 6075   2.385   0.294   7.762  0.1164 -0.1841  0.7099
 2026SOL     OW 6076   3.750   4.257   9.709 -0.3137 -0.1211  0.4299
 2026SOL    HW1 6077   3.838   4.291   9.725 -0.6046 -0.1618  2.3885
 2026SOL    HW2 6078   3.722   4.299   9.628  1.0431  0.8292  0.4190
 2027SOL     OW 6079   2.944   4.724   8.798  0.4709  0.0991 -0.2196
 2027SOL    HW1 6080   3.002   4.777   8.744  0.3532  0.8931  0.4185
 2027SOL    HW2 6081   2.996   4.647   8.821  1.3699  0.9128  0.5435
 2028SOL     OW 6082   0.810   0.526   8.302  0.4624  1.1753 -0.1127
 2028SOL    HW1 6083   0.838   0.515   8.212 -0.2228  0.0202 -0.2178
 2028SOL    HW2 6084   0.806   0.436   8.337 -1.7970  1.3432  0.2492
 2029SOL     OW 6085   0.978   1.795   8.638  0.0007  0.7054 -0.8878
 2029SOL    HW1 6086   1.061   1.828   8.672  0.4652 -0.1616 -1.1499
 2029SOL    HW2 6087   0.993   1.701   8.627 -0.6946  0.6983 -1.8515
 2030SOL     OW 6088   2.688   0.957   9.984  0.2810  0.2920 -0.5270
 2030SOL    HW1 6089   2.771   0.996  10.011  0.6622 -0.7403 -0.1580
 2030SOL    HW2 6090   2.683   0.875  10.033 -2.0924  1.4113  1.3515
 2031SOL     OW 6091   4.932   3.317   8.945  0.1788 -0.3650 -0.1130
 2031SOL    HW1 6092   4.873   3.268   8.888  0.6523 -1.3318  0.2087
 2031SOL    HW2 6093   5.017   3.275   8.934  0.9636  1.3356 -0.9725
 2032SOL     OW 6094   3.461   3.321  10.014 -0.2002 -0.2413 -0.4519
 2032SOL    HW1 6095   3.427   3.401   9.973 -0.1706  2.2829  3.8103
 2032SOL    HW2 6096   3.387   3.287  10.065  1.2866  0.7992  2.6708
 2033SOL     OW 6097   4.814   1.813   8.414 -0.5842  0.0623 -0.5250
 2033SOL    HW1 6098   4.840   1.724   8.392 -1.2307 -0.1257 -0.5558
 2033SOL    HW2 6099   4.724   1.820   8.382 -0.1946  1.0605 -1.4493
 2034SOL     OW 6100   3.165   3.119   9.563  0.2284  0.3333  0.2019
 2034SOL    HW1 6101   3.161   3.213   9.544  1.3055  0.2979 -0.3104
 2034SOL    HW2 6102   3.143   3.077   9.479  0.2441  0.1428  0.2926
 2035SOL     OW 6103   1.607   4.860  10.065 -1.1834  0.6157  0.1920
 2035SOL    HW1 6104   1.596   4.933  10.127 -0.2383  1.1402 -0.2431
 2035SOL    HW2 6105   1.632   4.902   9.983  2.3718 -0.2805  0.6496
 2036SOL     OW 6106   1.064   2.223   2.807  0.1374 -0.0323  0.1045
 2036SOL    HW1 6107   1.092   2.225   2.899  2.4908  0.7645 -0.5490
 2036SOL    HW2 6108   0.973   2.252   2.809  0.2118  0.2377  2.1516
 2037SOL     OW 6109   3.294   0.752   8.601  0.5971 -0.6717  0.5977
 2037SOL    HW1 6110   3.259   0.777   8.515 -1.0692 -2.4767  0.6930
 2037SOL    HW2 6111   3.329   0.664   8.588 -1.2754 -1.7114  2.1208
 2038SOL     OW 6112   4.253   4.388   6.602 -0.5941  0.0523  0.1491
 2038SOL    HW1 6113   4.327   4.445   6.622 -1.6423  1.8168 -0.6716
 2038SOL    HW2 6114   4.248   4.388   6.506 -0.9495 -0.9940  0.1585
 2039SOL     OW 6115   1.699   0.006   9.828  0.1840  0.0515  0.3597
 2039SOL    HW1 6116   1.729   0.091   9.795 -0.8081 -0.0988 -0.9690
 2039SOL    HW2 6117   1.611  -0.004   9.794 -0.6369 -0.4767  2.4672
 2040SOL     OW 6118   1.472   0.109   8.628 -0.6719 -0.0998 -0.1711
 2040SOL    HW1 6119   1.443   0.200   8.619 -0.9850  0.0113  1.6301
 2040SOL    HW2 6120   1.474   0.076   8.538 -2.1069  1.2078 -0.7448
 2041SOL     OW 6121   1.715   1.553   7.891 -0.5318 -0.5398  0.1859
 2041SOL    HW1 6122   1.628   1.581   7.862  0.8100  2.5983 -1.2467
 2041SOL    HW2 6123   1.729   1.599   7.974 -0.8509 -2.4348  1.3478
 2042SOL     OW 6124   2.553   4.607   6.799 -0.0709  0.1043 -0.5169
 2042SOL    HW1 6125   2.465   4.603   6.834  0.1873  0.7731  0.2325
 2042SOL    HW2 6126   2.586   4.517   6.806  0.6635  0.4869  2.8626
 2043SOL     OW 6127   3.080   0.588   6.436 -0.4883 -0.4955  0.1366
 2043SOL    HW1 6128   3.105   0.671   6.395  1.2164 -1.1839 -0.3012
 2043SOL    HW2 6129   3.025   0.613   6.510 -0.6713  0.9670 -0.4656
 2044SOL     OW 6130   0.109   3.411   9.673 -0.5805 -0.4416 -0.2131
 2044SOL    HW1 6131   0.069   3.436   9.756 -0.4491  0.4237 -0.4063
 2044SOL    HW2 6132   0.115   3.492   9.623 -0.7376 -0.9640 -1.1078
 2045SOL     OW 6133   3.096   4.504   8.895  0.1441  0.8558 -0.7539
 2045SOL    HW1 6134   3.050   4.434   8.849 -0.7936  1.0703 -0.1541
 2045SOL    HW2 6135   3.171   4.459   8.936 -1.3792 -0.1776  1.0520
 2046SOL     OW 6136   1.372   1.088   6.506 -0.2206  0.1092 -0.3309
 2046SOL    HW1 6137   1.281   1.109   6.527  0.5179  2.6415  0.7373
 2046SOL    HW2 6138   1.384   1.119   6.417  0.2605  2.4701  0.4784
 2047SOL     OW 6139   1.522   3.021   9.212  0.0952  0.3416 -0.4439
 2047SOL    HW1 6140   1.452   3.068   9.166  0.3450  0.1857 -0.9937
 2047SOL    HW2 6141   1.602   3.048   9.168  0.2893 -0.1999 -0.4240
 2048SOL     OW 6142   0.430   1.113   9.365  0.7031  0.0081 -0.3907
 2048SOL    HW1 6143   0.501   1.175   9.379  0.1808  0.1245  2.2618
 2048SOL    HW2 6144   0.350   1.162   9.386  0.0542 -0.8298 -0.8218
 2049SOL     OW 6145   1.098   1.567   9.543 -0.2031  0.4672  0.1771
 2049SOL    HW1 6146   1.036   1.565   9.470 -0.8953  0.0116  0.7569
 2049SOL    HW2 6147   1.180   1.599   9.505 -0.7626  0.9688 -0.6279
 2050SOL     OW 6148   1.927   0.085  10.036  0.3937  0.2559 -0.1558
 2050SOL    HW1 6149   1.911   0.093   9.942  0.5114  0.4382 -0.1600
 2050SOL    HW2 6150   1.899  -0.004  10.057  0.4987  0.1661 -0.3896
 2051SOL     OW 6151   0.220   3.037  10.205  0.2052  0.2208  0.3008
 2051SOL    HW1 6152   0.307   3.006  10.179 -0.3390  0.2514 -1.7125
 2051SOL    HW2 6153   0.167   2.957  10.211  0.4107  0.1704  1.8268
 2052SOL     OW 6154   2.471   4.631   8.482 -0.2497  0.1666 -0.8547
 2052SOL    HW1 6155   2.381   4.655   8.507  0.3023  1.2120  0.2433
 2052SOL    HW2 6156   2.490   4.552   8.533  0.1039  1.0512  0.4504
 2053SOL     OW 6157   3.431   3.745   9.362  0.8300  0.2871  0.1532
 2053SOL    HW1 6158   3.482   3.822   9.385  2.8225 -0.9587  0.1434
 2053SOL    HW2 6159   3.346   3.758   9.405  1.8717  1.4483  1.9761
 2054SOL     OW 6160   4.119   0.019   8.810 -1.2254  0.4753 -0.5010
 2054SOL    HW1 6161   4.181  -0.024   8.868 -3.1105 -1.7274 -0.0032
 2054SOL    HW2 6162   4.173   0.078   8.757  0.8604  0.7548  1.7974
 2055SOL     OW 6163   3.910   3.395   8.543  0.7264  1.2060 -0.3832
 2055SOL    HW1 6164   3.984   3.377   8.486 -0.1554  0.1069 -1.2183
 2055SOL    HW2 6165   3.929   3.347   8.624 -0.2251 -1.2360 -1.5286
 2056SOL     OW 6166   3.345   3.926   9.820 -0.5596 -0.1344 -0.1090
 2056SOL    HW1 6167   3.348   3.967   9.734 -0.3310 -0.1834 -0.1256
 2056SOL    HW2 6168   3.437   3.904   9.840 -0.8035 -1.7225 -0.6097
 2057SOL     OW 6169   2.283   1.082  12.677  0.5602  0.1821  0.7942
 2057SOL    HW1 6170   2.269   1.114  12.588 -0.0394  0.3587  0.9440
 2057SOL    HW2 6171   2.254   0.990  12.675 -0.2604  0.4224  0.9976
 2058SOL     OW 6172   2.445   0.634   9.780  0.2649  0.7231 -0.4576
 2058SOL    HW1 6173   2.453   0.543   9.808  0.7958  1.0203  0.4066
 2058SOL    HW2 6174   2.486   0.636   9.694 -3.6391 -0.7475 -2.6093
 2059SOL     OW 6175   1.480   1.009   7.986 -0.1140 -0.7647 -0.0100
 2059SOL    HW1 6176   1.391   0.987   7.958 -0.0656 -3.1425  1.3789
 2059SOL    HW2 6177   1.478   1.103   8.003 -1.9063 -0.4781 -1.5071
 2060SOL     OW 6178   4.262   1.732   9.369 -0.1468  0.2328  0.2886
 2060SOL    HW1 6179   4.302   1.774   9.445  1.0765  2.7294 -1.5737
 2060SOL    HW2 6180   4.333   1.729   9.304 -1.8101  0.6849 -1.6398
 2061SOL     OW 6181   4.542   1.750   8.380 -0.6756 -0.4850 -0.4276
 2061SOL    HW1 6182   4.484   1.787   8.313 -1.3326  0.4690  0.6379
 2061SOL    HW2 6183   4.530   1.655   8.371 -0.9440 -0.3674 -1.4870
 2062SOL     OW 6184   4.611   4.468   8.180  0.0780 -0.5844  0.0915
 2062SOL    HW1 6185   4.663   4.455   8.258 -2.0044 -0.8373  1.5296
 2062SOL    HW2 6186   4.658   4.535   8.130 -0.0927  1.9985  3.1032
 2063SOL     OW 6187   2.481   4.490   7.553  0.6341  0.1351 -0.5049
 2063SOL    HW1 6188   2.421   4.511   7.625  0.7823 -0.8927 -0.0646
 2063SOL    HW2 6189   2.564   4.468   7.596  0.6516 -0.7474 -0.9642
 2064SOL     OW 6190   0.486   3.606   8.811  0.7671 -0.4066 -0.2897
 2064SOL    HW1 6191   0.540   3.529   8.795 -0.9955 -1.5020 -1.3639
 2064SOL    HW2 6192   0.485   3.616   8.906  1.0339 -1.7107 -0.1382
 2065SOL     OW 6193   3.284   0.335   7.850 -0.2589 -0.2875 -1.0446
 2065SOL    HW1 6194   3.290   0.397   7.777  0.2719  0.0999 -0.6719
 2065SOL    HW2 6195   3.342   0.263   7.825  1.1596  0.5633 -0.3092
 2066SOL     OW 6196   3.425   0.676   9.315  0.1555 -0.6222 -0.2010
 2066SOL    HW1 6197   3.345   0.628   9.339  0.1729 -0.4718  0.1684
 2066SOL    HW2 6198   3.394   0.756   9.273  0.1301 -1.1427 -1.1973
 2067SOL     OW 6199   4.259   2.658   9.167 -0.0219  0.2631 -0.3421
 2067SOL    HW1 6200   4.348   2.642   9.199 -0.0270 -0.4713 -0.6652
 2067SOL    HW2 6201   4.251   2.602   9.089 -0.0713  1.8842 -1.5424
 2068SOL     OW 6202   2.936   2.652   8.444 -0.0895  0.5297 -0.6471
 2068SOL    HW1 6203   2.941   2.741   8.480 -1.1802  1.0614 -1.7488
 2068SOL    HW2 6204   3.009   2.606   8.486 -0.2846  1.5670  0.9599
 2069SOL     OW 6205   3.417   2.280   9.210 -0.4557  0.0487 -0.3120
 2069SOL    HW1 6206   3.438   2.195   9.248 -0.8663 -0.2253 -0.6897
 2069SOL    HW2 6207   3.423   2.341   9.283 -2.1081 -0.5952  0.4108
 2070SOL     OW 6208   3.344   1.727   9.326  0.3746 -0.2198  0.3065
 2070SOL    HW1 6209   3.252   1.714   9.301  1.0770 -0.9067 -2.2410
 2070SOL    HW2 6210   3.360   1.662   9.394 -1.1741  0.3750  1.2887
 2071SOL     OW 6211   3.133   0.807   8.933  0.6989  0.0254 -0.1048
 2071SOL    HW1 6212   3.202   0.837   8.875  0.2716 -1.7916 -1.6669
 2071SOL    HW2 6213   3.052   0.818   8.883  0.3034 -1.4807  0.1526
 2072SOL     OW 6214   4.262   1.219   8.793  0.8671  0.2876  0.5952
 2072SOL    HW1 6215   4.236   1.127   8.801  0.2417  0.2330 -1.5215
 2072SOL    HW2 6216   4.261   1.236   8.699 -1.4584  3.1380  1.0065
 2073SOL     OW 6217   0.673   1.003   4.990 -0.2738 -0.3477  0.2443
 2073SOL    HW1 6218   0.694   0.946   4.915 -0.4307 -2.1470  1.5101
 2073SOL    HW2 6219   0.596   0.962   5.030 -1.2199  1.5259  0.4548
 2074SOL     OW 6220   1.178   3.810   9.632  0.0865 -0.0037 -0.7342
 2074SOL    HW1 6221   1.229   3.830   9.554 -0.9313 -0.0088 -1.4132
 2074SOL    HW2 6222   1.243   3.781   9.696  0.9129 -0.1767 -1.6276
 2075SOL     OW 6223   3.340   4.359   8.579  0.1778  0.4698  0.2388
 2075SOL    HW1 6224   3.427   4.359   8.539 -0.6474 -0.9276 -1.6878
 2075SOL    HW2 6225   3.286   4.409   8.518 -0.5768  0.4780  0.9044
 2076SOL     OW 6226   4.006   4.006   7.399 -0.0852  0.5262  0.2781
 2076SOL    HW1 6227   3.917   4.038   7.391 -0.7351 -1.5559 -1.6656
 2076SOL    HW2 6228   4.059   4.068   7.350 -1.3227 -1.1433 -3.5043
 2077SOL     OW 6229   2.939   4.058   9.439  0.3134  0.0936  0.2491
 2077SOL    HW1 6230   2.994   4.008   9.500  0.5160  1.3939  1.1834
 2077SOL    HW2 6231   2.853   4.061   9.482  0.4248  0.9126  0.4370
 2078SOL     OW 6232   0.416   2.512   6.590 -0.8696  0.1748  0.0732
 2078SOL    HW1 6233   0.422   2.418   6.579 -0.5284  0.2482 -0.3705
 2078SOL    HW2 6234   0.482   2.533   6.656 -2.5240 -0.1871  1.9586
 2079SOL     OW 6235   0.544   2.317   9.870  0.4582 -0.7406 -0.4286
 2079SOL    HW1 6236   0.462   2.295   9.915  0.1982  0.8602 -0.0564
 2079SOL    HW2 6237   0.524   2.398   9.822  2.5523  1.4608  2.0833
 2080SOL     OW 6238   4.864   3.110   9.199  0.5068  0.7552 -0.4555
 2080SOL    HW1 6239   4.906   3.190   9.167  1.2690  1.2300  1.5560
 2080SOL    HW2 6240   4.937   3.053   9.223 -0.0226  0.3327  0.1630
 2081SOL     OW 6241   4.294   3.753   9.374  0.4411 -0.2196 -0.1741
 2081SOL    HW1 6242   4.246   3.836   9.370  0.9350  0.1609  1.1072
 2081SOL    HW2 6243   4.227   3.686   9.362 -0.3107  0.3205  0.8156
 2082SOL     OW 6244   2.623   1.086   8.895 -0.2538  0.1959  0.3345
 2082SOL    HW1 6245   2.671   1.004   8.905 -1.0509 -0.3427 -0.1140
 2082SOL    HW2 6246   2.531   1.060   8.899 -0.5311  0.9294 -0.7532
 2083SOL     OW 6247   3.903   2.216   8.580 -0.1793 -1.0889 -0.0634
 2083SOL    HW1 6248   3.811   2.190   8.575 -1.6396  2.1690  4.1745
 2083SOL    HW2 6249   3.904   2.308   8.555  1.0936 -0.0318  3.3054
 2084SOL     OW 6250   1.785   0.738   8.039  0.4651 -0.0876  0.5526
 2084SOL    HW1 6251   1.719   0.713   7.975  0.4882  0.9230  0.1240
 2084SOL    HW2 6252   1.745   0.810   8.088  0.5017 -0.7451  1.5937
 2085SOL     OW 6253   3.885   1.110   9.981 -0.2130  0.4058 -0.2869
 2085SOL    HW1 6254   3.832   1.190   9.976 -0.1838  0.5558  1.2441
 2085SOL    HW2 6255   3.843   1.050   9.920 -1.8682  0.7106  0.4793
 2086SOL     OW 6256   3.913   2.732   8.871  0.7611  0.5873  0.2645
 2086SOL    HW1 6257   3.965   2.812   8.870  0.9835  0.4510 -0.9542
 2086SOL    HW2 6258   3.873   2.728   8.784  0.4786 -0.4470  0.4243
 2087SOL     OW 6259   3.705   0.481   9.442  0.0681 -0.8254  0.0288
 2087SOL    HW1 6260   3.793   0.448   9.422 -0.8925 -2.1429 -2.2720
 2087SOL    HW2 6261   3.699   0.563   9.393 -0.0961 -0.8876 -0.0549
 2088SOL     OW 6262   0.348   2.843   9.087 -0.7460 -0.1830  0.1987
 2088SOL    HW1 6263   0.297   2.764   9.107 -1.3823  0.1004 -0.2976
 2088SOL    HW2 6264   0.388   2.867   9.171 -1.8846 -0.0808  0.7306
 2089SOL     OW 6265   2.462   0.339  10.096  0.7428  0.1762  0.7065
 2089SOL    HW1 6266   2.414   0.296  10.025  0.1818 -1.2185  1.8929
 2089SOL    HW2 6267   2.512   0.408  10.052 -2.3923  1.8637 -0.6352
 2090SOL     OW 6268   4.996   0.943   9.954 -0.1604  0.3312 -0.1438
 2090SOL    HW1 6269   4.931   0.979   9.895  1.8981  5.1726  0.0723
 2090SOL    HW2 6270   5.058   0.897   9.897 -0.8496  0.5459 -1.0861
 2091SOL     OW 6271   1.471   4.008   9.851 -0.5620  0.3159  0.0773
 2091SOL    HW1 6272   1.561   4.033   9.831 -0.4288 -0.3541 -0.1865
 2091SOL    HW2 6273   1.462   4.023   9.945 -0.6077  1.6997 -0.1220
 2092SOL     OW 6274   0.150   1.956  10.221  0.5589 -0.9578 -0.2835
 2092SOL    HW1 6275   0.246   1.954  10.217  0.5735  0.1647 -0.9934
 2092SOL    HW2 6276   0.125   2.033  10.169 -0.6900 -0.7664  0.5369
 2093SOL     OW 6277   0.630   0.689  10.863  0.0174 -0.0765 -0.4593
 2093SOL    HW1 6278   0.558   0.644  10.818 -0.4381  0.2438 -0.0642
 2093SOL    HW2 6279   0.588   0.763  10.907  0.5208 -0.1635  0.1735
 2094SOL     OW 6280   0.819   2.610   6.643 -0.5157 -0.6820 -0.8113
 2094SOL    HW1 6281   0.794   2.670   6.572 -0.5821  0.5499  0.2194
 2094SOL    HW2 6282   0.751   2.622   6.709  0.0602 -1.0977 -0.1296
 2095SOL     OW 6283   4.242   1.493   7.957  0.2574 -0.3455  0.8201
 2095SOL    HW1 6284   4.333   1.467   7.975  0.4894 -1.1131 -1.1924
 2095SOL    HW2 6285   4.194   1.411   7.949 -0.3372  0.0221  0.5327
 2096SOL     OW 6286   1.824   4.855   8.057 -0.0410  0.2485  0.1557
 2096SOL    HW1 6287   1.804   4.931   8.111  0.4097 -0.0273  0.7250
 2096SOL    HW2 6288   1.918   4.841   8.070 -0.0271 -0.1091 -0.3267
 2097SOL     OW 6289   4.212   3.530   7.246  0.3717  1.0876  0.0388
 2097SOL    HW1 6290   4.224   3.483   7.164  0.3067 -0.6106  0.9659
 2097SOL    HW2 6291   4.300   3.539   7.282  0.4170  1.9600 -0.2570
 2098SOL     OW 6292   4.159   2.301   7.065  0.1489 -0.3632 -0.2440
 2098SOL    HW1 6293   4.177   2.390   7.095 -1.5071 -0.4493  1.1242
 2098SOL    HW2 6294   4.228   2.283   7.001  1.7173  1.1433  0.9402
 2099SOL     OW 6295   3.464   0.519   5.886  0.0535 -0.4004 -0.1309
 2099SOL    HW1 6296   3.382   0.475   5.864 -1.2487 -1.0080  4.7873
 2099SOL    HW2 6297   3.509   0.458   5.944  2.3319  1.3712  0.1139
 2100SOL     OW 6298   1.111   0.039  10.371  0.1463 -0.1444 -0.6952
 2100SOL    HW1 6299   1.151   0.090  10.442 -0.2872 -1.0132  0.2095
 2100SOL    HW2 6300   1.043   0.096  10.336 -0.7701 -0.2946  0.7338
 2101SOL     OW 6301   3.737   3.202   6.122 -0.9003  0.8857 -0.4533
 2101SOL    HW1 6302   3.745   3.119   6.075 -0.4544 -1.5130  3.3870
 2101SOL    HW2 6303   3.826   3.222   6.151 -1.0142  2.7375 -1.2637
 2102SOL     OW 6304   1.136   0.485   7.102  0.8568 -0.1870  0.2481
 2102SOL    HW1 6305   1.226   0.517   7.095  0.9399  0.2495  2.5508
 2102SOL    HW2 6306   1.131   0.446   7.189 -0.0623 -4.0267 -1.2984
 2103SOL     OW 6307   1.352   1.719   7.542  0.3155  0.1250  0.0805
 2103SOL    HW1 6308   1.419   1.659   7.508 -0.0120 -2.5202  3.5261
 2103SOL    HW2 6309   1.276   1.663   7.557 -0.8045  1.9073  1.3384
 2104SOL     OW 6310   2.042   4.433   5.105 -0.3543 -0.0334  0.6071
 2104SOL    HW1 6311   1.971   4.371   5.123 -1.0631  0.3045 -0.8362
 2104SOL    HW2 6312   2.062   4.472   5.189 -0.0663 -2.0220  1.5174
 2105SOL     OW 6313   3.927   2.890   4.750  0.1746  0.1982 -0.4781
 2105SOL    HW1 6314   3.902   2.936   4.670  0.0358 -0.1476 -0.6331
 2105SOL    HW2 6315   3.929   2.959   4.817  5.1271  1.6183 -1.6555
 2106SOL     OW 6316   0.438   2.859   6.446  0.0569 -0.1429  0.9513
 2106SOL    HW1 6317   0.373   2.921   6.480 -0.0377  0.6676 -0.6130
 2106SOL    HW2 6318   0.395   2.774   6.452 -1.5181  0.4706 -0.8049
 2107SOL     OW 6319   4.893   3.911   8.577  0.7820  0.0232  0.1049
 2107SOL    HW1 6320   4.894   3.839   8.640 -0.6439 -1.2917 -1.2989
 2107SOL    HW2 6321   4.938   3.983   8.622 -1.2379 -0.4254  3.1013
 2108SOL     OW 6322   1.694   3.126   5.918 -0.1307  0.0445  0.1849
 2108SOL    HW1 6323   1.696   3.207   5.970 -0.0850  0.5047 -0.5183
 2108SOL    HW2 6324   1.761   3.070   5.957 -2.0793 -0.8302  2.5246
 2109SOL     OW 6325   3.069   2.194   6.307  0.8835 -0.1836 -0.5383
 2109SOL    HW1 6326   3.158   2.228   6.309  0.8103 -0.0123  1.4377
 2109SOL    HW2 6327   3.030   2.222   6.390 -0.9537 -0.4339 -1.2515
 2110SOL     OW 6328   3.636   2.263   6.738 -0.0071  0.1981  0.1233
 2110SOL    HW1 6329   3.668   2.343   6.695 -1.1543 -0.5388 -2.2875
 2110SOL    HW2 6330   3.606   2.208   6.666 -2.3826 -1.0445  1.9265
 2111SOL     OW 6331   3.441   2.756   6.630 -0.2059 -0.4000 -0.0163
 2111SOL    HW1 6332   3.479   2.843   6.639  0.2912 -0.6548  0.4049
 2111SOL    HW2 6333   3.462   2.712   6.712 -2.4941 -0.1366  0.7936
 2112SOL     OW 6334   4.474   1.010   6.908  0.5687  1.1462  0.4492
 2112SOL    HW1 6335   4.479   0.915   6.921 -2.3775  0.5354 -1.6878
 2112SOL    HW2 6336   4.538   1.028   6.839 -1.7704 -0.2236 -2.3124
 2113SOL     OW 6337   3.007   3.365   5.993  0.4397  1.0041  0.1577
 2113SOL    HW1 6338   2.959   3.369   6.076  0.3329 -0.6243  0.2048
 2113SOL    HW2 6339   2.972   3.287   5.949  3.4204 -0.6223  0.4531
 2114SOL     OW 6340   2.713   3.197   5.522 -0.1310 -0.2343  0.6820
 2114SOL    HW1 6341   2.636   3.225   5.572  0.0384 -0.0736  0.8514
 2114SOL    HW2 6342   2.695   3.106   5.501 -1.5532  0.4758 -1.4713
 2115SOL     OW 6343   0.983   0.892   5.081 -0.2417 -0.2853 -0.0383
 2115SOL    HW1 6344   0.912   0.829   5.071 -1.0141  0.6423 -0.6466
 2115SOL    HW2 6345   0.942   0.965   5.128  0.8591 -0.5812  1.4463
 2116SOL     OW 6346   2.666   1.281   6.380 -0.2374  0.3997 -0.8947
 2116SOL    HW1 6347   2.757   1.279   6.353  0.2786  2.7488  0.3800
 2116SOL    HW2 6348   2.644   1.374   6.382 -1.4269  0.1867  2.6129
 2117SOL     OW 6349   4.083   3.965   6.101  0.8042  1.0068  0.4486
 2117SOL    HW1 6350   4.054   3.948   6.191 -1.3834  1.2216 -0.1581
 2117SOL    HW2 6351   4.005   3.947   6.047  2.1482  0.5754 -1.4491
 2118SOL     OW 6352   3.076   0.266   4.993 -0.3024 -0.6862 -0.0135
 2118SOL    HW1 6353   3.156   0.285   4.944 -0.6982 -1.2926 -0.9140
 2118SOL    HW2 6354   3.081   0.173   5.014  0.3019 -0.2589  1.9529
 2119SOL     OW 6355   2.114   0.315   6.800  0.4109  0.0092  0.3271
 2119SOL    HW1 6356   2.136   0.255   6.872  1.7603 -0.1487 -0.2015
 2119SOL    HW2 6357   2.094   0.398   6.844 -0.4594 -0.5227  0.9914
 2120SOL     OW 6358   3.705   0.706   5.427  0.4309 -0.5495  0.4310
 2120SOL    HW1 6359   3.609   0.707   5.431  0.3622 -1.2156 -0.5881
 2120SOL    HW2 6360   3.724   0.682   5.336  1.5532 -2.9185  1.2237
 2121SOL     OW 6361   2.596   4.528   5.851 -0.1693 -0.3665  0.2880
 2121SOL    HW1 6362   2.658   4.537   5.779 -0.6806 -2.1189 -0.4192
 2121SOL    HW2 6363   2.522   4.584   5.826  0.4732  0.5800  0.4389
 2122SOL     OW 6364   4.596   1.411   6.339 -0.0053  0.1859  0.2970
 2122SOL    HW1 6365   4.623   1.496   6.304 -0.1006 -0.9448 -2.8743
 2122SOL    HW2 6366   4.633   1.347   6.278 -2.8971 -1.8652  0.4739
 2123SOL     OW 6367   2.316   0.962  10.216 -0.5237 -0.0576 -0.7589
 2123SOL    HW1 6368   2.327   1.043  10.266  0.6069  0.9459 -2.5526
 2123SOL    HW2 6369   2.387   0.905  10.247 -1.4301 -0.5024  0.6356
 2124SOL     OW 6370   2.567   3.958   8.195  0.0178 -0.6580 -0.4400
 2124SOL    HW1 6371   2.530   4.044   8.173 -1.4104 -0.8346  1.0738
 2124SOL    HW2 6372   2.626   3.938   8.122  0.1603  1.4615 -0.9785
 2125SOL     OW 6373   4.170   0.296   5.668  0.3175 -0.6709  0.8560
 2125SOL    HW1 6374   4.147   0.203   5.663  0.6505 -0.7064 -0.0308
 2125SOL    HW2 6375   4.224   0.312   5.592 -1.2554  0.6924 -0.0446
 2126SOL     OW 6376   3.752   4.730   6.015 -0.5729  0.2312 -0.4115
 2126SOL    HW1 6377   3.800   4.765   6.090  0.3852  2.1082 -1.8049
 2126SOL    HW2 6378   3.820   4.706   5.951 -1.3621 -1.2612 -0.7342
 2127SOL     OW 6379   4.532   4.278   5.002  0.3065 -0.2589  0.2296
 2127SOL    HW1 6380   4.471   4.220   5.047 -0.4204 -0.6666 -1.1987
 2127SOL    HW2 6381   4.611   4.225   4.989 -0.5816 -1.2341 -1.6446
 2128SOL     OW 6382   2.911   2.026   7.813  0.4902  0.2908  0.2070
 2128SOL    HW1 6383   2.884   1.934   7.810 -1.1637  0.6082  2.4113
 2128SOL    HW2 6384   2.949   2.042   7.727  3.4094 -3.1531  0.5954
 2129SOL     OW 6385   0.808   2.186   5.783 -1.0515  0.2696 -0.9393
 2129SOL    HW1 6386   0.832   2.215   5.694  2.1699  0.0883 -0.2669
 2129SOL    HW2 6387   0.882   2.133   5.811 -1.0137  1.9371  2.5942
 2130SOL     OW 6388   4.217   0.789   9.905 -0.3670 -0.4345 -0.2247
 2130SOL    HW1 6389   4.311   0.788   9.919 -0.6357  1.3714  2.4653
 2130SOL    HW2 6390   4.182   0.736   9.977 -1.4962  2.2109  1.3495
 2131SOL     OW 6391   1.488   0.785   5.454  0.1230 -0.2025 -0.3709
 2131SOL    HW1 6392   1.543   0.861   5.470  0.0836  0.1331 -1.7430
 2131SOL    HW2 6393   1.495   0.733   5.534  1.1050  0.6434  0.1120
 2132SOL     OW 6394   0.915   4.923   5.725  0.3350 -0.9031  0.5113
 2132SOL    HW1 6395   0.996   4.910   5.776  1.3499 -1.5752 -1.1864
 2132SOL    HW2 6396   0.890   5.013   5.744  1.9531 -0.4024  0.4688
 2133SOL     OW 6397   4.177   3.002   6.272  0.7754 -0.0356 -0.9462
 2133SOL    HW1 6398   4.170   2.907   6.258 -2.0350  0.0649 -0.9154
 2133SOL    HW2 6399   4.240   3.011   6.344  1.7252 -1.7990 -1.5014
 2134SOL     OW 6400   3.436   0.941   4.453 -0.3669  0.9886 -0.2429
 2134SOL    HW1 6401   3.489   0.918   4.377 -1.0736 -0.8887 -0.2079
 2134SOL    HW2 6402   3.499   0.949   4.524 -0.0575 -1.0514 -0.2359
 2135SOL     OW 6403   2.171   4.601   6.370 -0.7716 -0.0815 -0.5355
 2135SOL    HW1 6404   2.249   4.583   6.422 -0.2893 -1.1710 -1.5735
 2135SOL    HW2 6405   2.140   4.686   6.400  0.9695  0.4978 -0.2941
 2136SOL     OW 6406   3.275   0.316   5.820 -0.3649 -0.4313  0.3741
 2136SOL    HW1 6407   3.188   0.338   5.786  0.2154  0.5825 -0.5188
 2136SOL    HW2 6408   3.262   0.234   5.868 -1.6787 -0.6465 -0.2972
 2137SOL     OW 6409   2.273   4.820   5.600  0.6800  0.2801  0.2135
 2137SOL    HW1 6410   2.231   4.795   5.518 -0.1883 -0.9808  0.9960
 2137SOL    HW2 6411   2.249   4.912   5.613 -1.8502 -0.3642  0.5848
 2138SOL     OW 6412   2.907   2.201   4.745  0.0828 -0.4866 -0.2005
 2138SOL    HW1 6413   2.914   2.295   4.764  0.0061 -0.4806 -0.2015
 2138SOL    HW2 6414   2.948   2.191   4.659  0.5746 -0.5406  0.0364
 2139SOL     OW 6415   1.766   2.075   6.775  0.1815 -0.0976  0.0569
 2139SOL    HW1 6416   1.724   2.083   6.861  0.2841  3.1002 -0.0425
 2139SOL    HW2 6417   1.755   2.162   6.735 -0.7844 -1.7126 -3.6488
 2140SOL     OW 6418   0.303   4.213   5.283 -0.4253 -0.4844  0.0700
 2140SOL    HW1 6419   0.266   4.190   5.198 -2.3174  1.2095  0.3891
 2140SOL    HW2 6420   0.346   4.297   5.269 -1.1595  0.0436  0.8725
 2141SOL     OW 6421   0.005   1.578   6.170 -0.3761  0.4289  0.3288
 2141SOL    HW1 6422   0.050   1.580   6.254 -0.0302  0.5928  0.1410
 2141SOL    HW2 6423   0.051   1.643   6.117 -1.0345  0.8290  0.2390
 2142SOL     OW 6424   3.060   0.923   5.499 -0.0921  0.1315 -0.1505
 2142SOL    HW1 6425   3.105   0.978   5.563  1.3855 -2.7463  1.4864
 2142SOL    HW2 6426   2.969   0.920   5.529 -0.4340  2.3072 -0.8162
 2143SOL     OW 6427   0.725   1.409   7.317  0.2787 -0.2511 -0.3076
 2143SOL    HW1 6428   0.714   1.337   7.379 -0.2774  2.3086  2.8381
 2143SOL    HW2 6429   0.804   1.454   7.348 -1.5981  2.7417  0.4536
 2144SOL     OW 6430   2.467   1.374   4.747  0.0170 -0.0867  0.0544
 2144SOL    HW1 6431   2.558   1.348   4.761  0.0761  0.3540  0.5106
 2144SOL    HW2 6432   2.473   1.453   4.693 -0.1231 -0.3862 -0.4148
 2145SOL     OW 6433   1.505   1.431   5.207 -0.3235 -0.0752  0.3314
 2145SOL    HW1 6434   1.445   1.408   5.136  0.2857 -0.8504  0.0656
 2145SOL    HW2 6435   1.531   1.521   5.187  0.0340 -0.3709 -0.5653
 2146SOL     OW 6436   3.271   2.923   5.755 -0.6556  0.4325 -0.1642
 2146SOL    HW1 6437   3.196   2.975   5.727  0.2862  1.2108 -1.3628
 2146SOL    HW2 6438   3.268   2.845   5.699 -1.8683 -0.6880  1.3932
 2147SOL     OW 6439   3.333   2.087   8.230  0.4699 -0.8631  0.2741
 2147SOL    HW1 6440   3.339   2.131   8.315  1.2187  1.6969 -0.9901
 2147SOL    HW2 6441   3.240   2.071   8.218 -0.2588  2.7920 -0.1883
 2148SOL     OW 6442   4.224   3.674   5.516 -0.1011 -0.6059  0.5084
 2148SOL    HW1 6443   4.309   3.646   5.550  1.4190 -0.2892 -2.6108
 2148SOL    HW2 6444   4.175   3.593   5.502  0.6094 -0.9883  0.2099
 2149SOL     OW 6445   1.679   2.057   5.557 -0.3119 -0.1172  0.7144
 2149SOL    HW1 6446   1.690   1.962   5.566 -0.4562 -0.1584  0.4326
 2149SOL    HW2 6447   1.747   2.093   5.615  1.6952 -0.3625 -1.3194
 2150SOL     OW 6448   4.595   3.508   6.255  1.0212  0.1846 -0.6750
 2150SOL    HW1 6449   4.501   3.523   6.271  0.8982  0.7312 -1.8315
 2150SOL    HW2 6450   4.639   3.572   6.312  0.6295  1.1802 -1.4576
 2151SOL     OW 6451   2.610   4.460   7.312  0.8901  0.2954  0.1024
 2151SOL    HW1 6452   2.551   4.451   7.387 -0.0086  1.2120 -0.4638
 2151SOL    HW2 6453   2.629   4.371   7.285  0.7097 -0.0342  1.0191
 2152SOL     OW 6454   0.806   4.177   8.206  0.3089  0.3900  0.6312
 2152SOL    HW1 6455   0.877   4.223   8.162  0.2107 -0.1630 -0.1239
 2152SOL    HW2 6456   0.731   4.185   8.147  0.3323 -0.8470  0.3948
 2153SOL     OW 6457   4.350   4.256   6.268 -0.0470 -0.1887  0.2017
 2153SOL    HW1 6458   4.405   4.263   6.345 -0.2804  0.8091  0.2941
 2153SOL    HW2 6459   4.390   4.316   6.205 -1.7331  1.5729  0.7252
 2154SOL     OW 6460   1.900   2.224   5.988  0.4923 -0.3201  0.5303
 2154SOL    HW1 6461   1.927   2.143   6.031  1.2133 -0.0530  0.6060
 2154SOL    HW2 6462   1.962   2.234   5.915  1.0489  0.6548  1.1024
 2155SOL     OW 6463   2.434   1.082   5.772 -0.1341 -0.0291 -0.6823
 2155SOL    HW1 6464   2.454   1.071   5.679 -1.5623  2.5580 -1.3797
 2155SOL    HW2 6465   2.516   1.112   5.811  0.4356 -0.9947 -1.1070
 2156SOL     OW 6466   3.084   4.116   6.351 -0.1323 -0.3936 -0.8457
 2156SOL    HW1 6467   3.030   4.195   6.352 -1.6986 -1.4207  0.2538
 2156SOL    HW2 6468   3.118   4.109   6.440  0.1690 -0.8567 -0.9948
 2157SOL     OW 6469   1.919   2.942   6.051 -0.5690  0.3977 -0.2388
 2157SOL    HW1 6470   1.999   2.893   6.069 -0.2018  0.3597 -1.7911
 2157SOL    HW2 6471   1.855   2.909   6.113  0.6857  0.6364  1.2459
 2158SOL     OW 6472   3.114   3.591   8.012  0.1022  0.0128  0.0581
 2158SOL    HW1 6473   3.065   3.617   8.090  0.4169  2.1745 -0.4024
 2158SOL    HW2 6474   3.192   3.548   8.047 -0.3405 -0.1325  0.8977
 2159SOL     OW 6475   0.169   1.941   6.244 -0.4042  0.1425 -1.1821
 2159SOL    HW1 6476   0.142   1.861   6.289 -0.2705  0.8243  0.1507
 2159SOL    HW2 6477   0.245   1.914   6.192 -0.4392 -0.6196 -0.8617
 2160SOL     OW 6478   3.904   0.186   6.799  0.1008 -0.4130  0.5043
 2160SOL    HW1 6479   3.811   0.176   6.777  0.1758  2.2641 -1.4697
 2160SOL    HW2 6480   3.950   0.129   6.738 -0.1636  0.2264 -0.3157
 2161SOL     OW 6481   1.793   2.995   4.695  1.2030 -0.4091 -0.2808
 2161SOL    HW1 6482   1.863   2.933   4.674  1.2165 -1.3054  2.1238
 2161SOL    HW2 6483   1.719   2.940   4.719  0.7332  0.5170  0.4484
 2162SOL     OW 6484   1.716   1.799   5.023 -0.1327 -0.1853 -0.2252
 2162SOL    HW1 6485   1.671   1.765   4.946 -0.7655 -0.3274  0.1955
 2162SOL    HW2 6486   1.663   1.769   5.097 -0.0344  0.6991  0.2205
 2163SOL     OW 6487   0.541   1.254   9.053 -0.6130 -0.3018 -0.0382
 2163SOL    HW1 6488   0.637   1.246   9.060 -0.5328  0.1763 -0.5117
 2163SOL    HW2 6489   0.519   1.328   9.109 -0.5513  0.3852 -0.9065
 2164SOL     OW 6490   1.445   1.833   4.797  0.3416 -0.0993  0.4626
 2164SOL    HW1 6491   1.469   1.752   4.753 -1.1086  1.4144 -3.5620
 2164SOL    HW2 6492   1.514   1.895   4.773  0.4518  0.3835  1.9171
 2165SOL     OW 6493   1.658   4.177   7.341  0.2300 -0.3089 -0.0943
 2165SOL    HW1 6494   1.731   4.117   7.329  2.0640  1.6457  0.6714
 2165SOL    HW2 6495   1.661   4.201   7.433 -1.5203 -0.2939 -0.0006
 2166SOL     OW 6496   0.437   0.895   6.697 -0.4142  0.2764  0.5392
 2166SOL    HW1 6497   0.362   0.899   6.756 -0.3335 -0.5674  0.7020
 2166SOL    HW2 6498   0.479   0.981   6.706  0.2244 -0.2112  2.5324
 2167SOL     OW 6499   2.114   1.492   8.471  0.1041  0.1617 -0.3489
 2167SOL    HW1 6500   2.143   1.525   8.387  0.5422  0.3574 -0.1229
 2167SOL    HW2 6501   2.123   1.397   8.464 -0.2510  0.1457 -0.6600
 2168SOL     OW 6502   4.754   0.403   7.619 -0.3084  0.0035 -0.5664
 2168SOL    HW1 6503   4.749   0.343   7.694  3.5031 -0.6553 -0.6616
 2168SOL    HW2 6504   4.806   0.477   7.651 -2.6861  2.1470 -1.2631
 2169SOL     OW 6505   3.153   3.861   6.281  0.1689 -0.1853 -0.2229
 2169SOL    HW1 6506   3.115   3.941   6.316  0.6309 -0.4141  0.8403
 2169SOL    HW2 6507   3.084   3.823   6.226 -2.3263 -2.0225  3.7462
 2170SOL     OW 6508   1.874   1.312   7.898 -0.4586 -0.2467  0.5742
 2170SOL    HW1 6509   1.950   1.369   7.907 -0.7005  0.2933 -0.5419
 2170SOL    HW2 6510   1.799   1.372   7.896 -0.7790 -0.6485  0.1636
 2171SOL     OW 6511   2.234   2.833   6.095  0.0222 -1.3650 -0.7591
 2171SOL    HW1 6512   2.233   2.758   6.155  0.7809 -1.3483 -0.7105
 2171SOL    HW2 6513   2.321   2.871   6.107 -0.8472  0.3965  0.2883
 2172SOL     OW 6514   4.436   4.121   5.672 -0.1350  0.5656  0.3184
 2172SOL    HW1 6515   4.405   4.179   5.742  1.5916  1.2392  0.5607
 2172SOL    HW2 6516   4.531   4.121   5.681  0.0530 -0.2234 -1.3403
 2173SOL     OW 6517   3.207   0.371   6.309  0.3074  0.0312 -1.1439
 2173SOL    HW1 6518   3.176   0.321   6.385  1.1783 -0.9933 -1.4405
 2173SOL    HW2 6519   3.177   0.460   6.326 -1.5327 -0.6201 -0.7283
 2174SOL     OW 6520   3.607   2.441   5.184  0.4727  0.2969 -0.8407
 2174SOL    HW1 6521   3.700   2.417   5.183  0.4107 -0.0378 -3.2825
 2174SOL    HW2 6522   3.606   2.531   5.215  1.6036  0.2691 -0.6920
 2175SOL     OW 6523   4.190   2.088   7.246 -0.4790  0.5379  0.1943
 2175SOL    HW1 6524   4.123   2.047   7.191  0.7833  0.5825 -1.4683
 2175SOL    HW2 6525   4.200   2.176   7.210 -0.1838  0.8498  1.0196
 2176SOL     OW 6526   4.339   1.338   6.292 -0.7435  0.0820 -0.8458
 2176SOL    HW1 6527   4.425   1.369   6.318 -1.0629 -1.4973  2.8060
 2176SOL    HW2 6528   4.299   1.308   6.374 -3.5817 -2.0791 -2.8139
 2177SOL     OW 6529   4.495   3.613   5.213 -0.1102 -1.0334 -0.7950
 2177SOL    HW1 6530   4.518   3.668   5.138  0.7373 -1.1470 -0.6254
 2177SOL    HW2 6531   4.418   3.564   5.184 -0.3316 -0.4189 -1.2669
 2178SOL     OW 6532   2.512   3.342   9.460 -0.2802 -0.4921  0.2520
 2178SOL    HW1 6533   2.438   3.282   9.463 -1.4249  0.7204 -1.7275
 2178SOL    HW2 6534   2.582   3.291   9.417 -0.5601 -1.0561  0.4550
 2179SOL     OW 6535   3.723   1.471   6.146 -0.2084 -0.4112 -0.6257
 2179SOL    HW1 6536   3.750   1.521   6.070 -0.6470 -1.6975 -1.6717
 2179SOL    HW2 6537   3.762   1.385   6.133  2.7155  0.2647  2.3900
 2180SOL     OW 6538   4.823   3.256   6.850  0.0638  0.4916 -0.3301
 2180SOL    HW1 6539   4.768   3.299   6.785 -1.0190 -1.0341 -0.4764
 2180SOL    HW2 6540   4.765   3.192   6.892  1.3181 -0.0632  0.6330
 2181SOL     OW 6541   1.772   2.243   5.126  0.0717 -0.7131  0.0215
 2181SOL    HW1 6542   1.750   2.335   5.145 -0.6184 -1.0916  1.2217
 2181SOL    HW2 6543   1.687   2.199   5.121  0.3727 -1.1933 -1.1474
 2182SOL     OW 6544   0.144   0.723   5.272 -1.0742  0.1740 -0.9764
 2182SOL    HW1 6545   0.057   0.692   5.246  0.0505 -2.1015 -2.2577
 2182SOL    HW2 6546   0.178   0.767   5.194 -1.4289  2.0097 -0.1479
 2183SOL     OW 6547   0.713   4.020   5.672 -0.2670  0.1110 -0.1392
 2183SOL    HW1 6548   0.671   4.058   5.595 -0.8761 -1.4795 -0.6260
 2183SOL    HW2 6549   0.644   3.969   5.715  0.9267 -2.0023 -0.5773
 2184SOL     OW 6550   2.248   1.135   7.341 -0.5119  0.3519 -0.5826
 2184SOL    HW1 6551   2.159   1.169   7.344 -1.0587 -0.9546  2.9809
 2184SOL    HW2 6552   2.291   1.174   7.417  1.2870 -0.7095 -1.0024
 2185SOL     OW 6553   4.996   3.957   5.757 -0.6803  0.0144  0.5363
 2185SOL    HW1 6554   4.935   3.965   5.684 -0.5506  1.3848  0.5556
 2185SOL    HW2 6555   4.944   3.920   5.829 -0.7191 -1.6945 -0.3326
 2186SOL     OW 6556   0.842   1.402   7.866  0.0987  0.5947  0.2175
 2186SOL    HW1 6557   0.801   1.320   7.839  1.1332 -0.4030  1.5058
 2186SOL    HW2 6558   0.795   1.470   7.819 -0.6220 -0.7627 -1.0835
 2187SOL     OW 6559   4.209   2.130   5.371 -0.8212  0.5235  0.8286
 2187SOL    HW1 6560   4.205   2.163   5.461  1.5427  1.8343  0.5167
 2187SOL    HW2 6561   4.261   2.050   5.377 -0.1979  0.9034  0.5756
 2188SOL     OW 6562   3.689   2.478   7.041 -0.3200 -0.4263 -0.6220
 2188SOL    HW1 6563   3.736   2.551   7.082 -2.5107  0.7811 -0.0971
 2188SOL    HW2 6564   3.757   2.426   6.999  1.5724  0.6315  0.9686
 2189SOL     OW 6565   3.240   4.564   5.264  0.3247  0.1672  0.4314
 2189SOL    HW1 6566   3.329   4.599   5.267 -0.0968  1.2479  2.1724
 2189SOL    HW2 6567   3.223   4.534   5.354 -0.8071 -0.7181 -0.0536
 2190SOL     OW 6568   1.936   4.580   8.759 -0.2469 -0.4951 -0.3316
 2190SOL    HW1 6569   1.935   4.499   8.810 -1.2204 -0.5890 -0.4797
 2190SOL    HW2 6570   1.986   4.641   8.813 -1.8448 -0.3681  1.1272
 2191SOL     OW 6571   2.782   0.358   5.592  0.4536  0.4429  0.0144
 2191SOL    HW1 6572   2.839   0.422   5.634 -0.3662  1.1970  0.0249
 2191SOL    HW2 6573   2.721   0.411   5.540 -0.5237 -0.2927  0.3752
 2192SOL     OW 6574   2.507   3.634   7.486  0.5622  0.7141  0.0260
 2192SOL    HW1 6575   2.488   3.547   7.521  2.1069  0.6478  0.8258
 2192SOL    HW2 6576   2.503   3.623   7.391  0.7955 -0.2618  0.1132
 2193SOL     OW 6577   2.175   3.112   6.008 -0.0267  0.0314  0.5425
 2193SOL    HW1 6578   2.171   3.022   6.039 -2.7266 -1.2332 -2.8487
 2193SOL    HW2 6579   2.258   3.118   5.961  0.8629 -0.1257  2.0198
 2194SOL     OW 6580   2.137   3.660   5.617 -0.1576  0.3873 -0.0693
 2194SOL    HW1 6581   2.168   3.746   5.647  0.0762 -0.2728  1.7397
 2194SOL    HW2 6582   2.062   3.642   5.674  0.9136 -1.3842  0.8512
 2195SOL     OW 6583   3.046   2.674   5.426  0.2937 -0.3397 -0.3602
 2195SOL    HW1 6584   3.033   2.676   5.331  0.7927 -0.0925 -0.4255
 2195SOL    HW2 6585   2.958   2.658   5.461  0.4340 -2.7963 -0.9482
 2196SOL     OW 6586   0.126   0.650   5.569 -0.4599  0.5961  0.6047
 2196SOL    HW1 6587   0.119   0.743   5.591 -1.8762  1.2301 -2.0641
 2196SOL    HW2 6588   0.088   0.643   5.482  1.5192 -2.1785 -0.1884
 2197SOL     OW 6589   2.676   2.937   5.520 -0.2071  0.4063  0.8152
 2197SOL    HW1 6590   2.651   2.916   5.610 -1.1299  2.4135  1.0637
 2197SOL    HW2 6591   2.624   2.878   5.466  0.6192 -1.0670  1.5720
 2198SOL     OW 6592   3.108   4.868   5.540 -0.0066 -0.2371 -0.3591
 2198SOL    HW1 6593   3.182   4.902   5.489 -0.6215  1.4853 -0.1672
 2198SOL    HW2 6594   3.041   4.849   5.474 -1.8222  4.5353 -0.2382
 2199SOL     OW 6595   4.027   4.977   6.664  0.1536 -0.7567 -0.1561
 2199SOL    HW1 6596   4.118   4.947   6.656  0.1176 -0.9438  0.1250
 2199SOL    HW2 6597   3.994   4.932   6.742 -0.6792 -1.9852 -1.1610
 2200SOL     OW 6598   3.971   2.396   6.063 -0.0251 -0.1365  0.1753
 2200SOL    HW1 6599   3.890   2.411   6.111 -0.1714 -2.3409  0.7663
 2200SOL    HW2 6600   4.020   2.478   6.071 -1.5072  0.6884  1.1893
 2201SOL     OW 6601   1.843   2.028   4.970  0.4539 -0.1926 -0.6303
 2201SOL    HW1 6602   1.767   1.971   4.974 -2.1733  2.8554 -2.4351
 2201SOL    HW2 6603   1.825   2.096   5.035  1.6888  0.5772 -1.0561
 2202SOL     OW 6604   0.036   3.940   9.790 -0.7495 -0.2362  0.0671
 2202SOL    HW1 6605   0.044   3.845   9.789 -4.6490 -0.6957 -1.6473
 2202SOL    HW2 6606   0.091   3.967   9.864  0.7012 -3.7122  0.4591
 2203SOL     OW 6607   3.437   1.684   7.129  0.6107 -0.6951  0.5477
 2203SOL    HW1 6608   3.440   1.672   7.034 -0.8195  4.7154 -0.4657
 2203SOL    HW2 6609   3.528   1.702   7.154  0.6459  0.3026 -0.2706
 2204SOL     OW 6610   2.009   2.978   8.640  0.2256  0.1303 -0.2613
 2204SOL    HW1 6611   1.935   3.038   8.632  1.4695  1.6145 -1.3881
 2204SOL    HW2 6612   2.015   2.958   8.733 -2.0484 -0.6715 -0.2415
 2205SOL     OW 6613   2.886   3.428   6.260 -0.4548 -0.0926  0.1859
 2205SOL    HW1 6614   2.940   3.472   6.326  1.0064 -0.3383 -0.8176
 2205SOL    HW2 6615   2.816   3.492   6.241  0.1717  0.7424  0.6127
 2206SOL     OW 6616   2.552   2.491   5.302  0.3737 -0.1727 -0.2654
 2206SOL    HW1 6617   2.556   2.525   5.212 -0.2179  1.0368  0.1437
 2206SOL    HW2 6618   2.641   2.460   5.319  0.8416  0.7888 -0.8385
 2207SOL     OW 6619   0.510   3.664   5.185  0.1722  0.3748  0.6076
 2207SOL    HW1 6620   0.423   3.649   5.220  0.5607  1.3775  2.0719
 2207SOL    HW2 6621   0.524   3.590   5.125 -2.0073  0.6900 -0.3890
 2208SOL     OW 6622   3.029   1.461   6.702  0.0334 -0.1012 -0.2543
 2208SOL    HW1 6623   2.988   1.375   6.698  0.7062 -0.5508  1.4409
 2208SOL    HW2 6624   3.086   1.464   6.625  1.0714 -1.7709  0.4004
 2209SOL     OW 6625   1.538   3.970   5.364  0.1038 -0.2441 -0.9815
 2209SOL    HW1 6626   1.559   3.882   5.334  1.5372 -0.9934  1.8561
 2209SOL    HW2 6627   1.478   4.005   5.297  0.1489 -3.0132 -2.6161
 2210SOL     OW 6628   0.246   1.195   7.199 -0.6626  0.4923 -0.0877
 2210SOL    HW1 6629   0.265   1.165   7.288  3.7795 -2.2555 -1.6508
 2210SOL    HW2 6630   0.323   1.247   7.175  0.0252 -1.7600 -3.3671
 2211SOL     OW 6631   1.891   0.952   4.937 -0.1152  0.3232 -0.0218
 2211SOL    HW1 6632   1.799   0.947   4.963  0.0249 -1.6859  0.2599
 2211SOL    HW2 6633   1.938   0.966   5.020 -0.2400  4.4157 -0.4266
 2212SOL     OW 6634   0.506   3.607   5.765 -0.1259 -0.0184  0.3199
 2212SOL    HW1 6635   0.427   3.571   5.726 -0.9610  2.6152 -0.6238
 2212SOL    HW2 6636   0.526   3.685   5.713  2.2028  0.2734  1.4967
 2213SOL     OW 6637   2.998   2.217   5.706 -0.4315  0.7336 -0.3989
 2213SOL    HW1 6638   2.919   2.182   5.665 -0.8975 -0.1330  1.1485
 2213SOL    HW2 6639   3.058   2.142   5.710  0.5168  1.3892 -1.5863
 2214SOL     OW 6640   0.986   4.414   5.493 -0.3826 -0.1982 -0.0608
 2214SOL    HW1 6641   1.002   4.480   5.425 -0.8114 -2.2943 -2.3381
 2214SOL    HW2 6642   0.966   4.334   5.444 -1.6775 -1.6061  2.5769
 2215SOL     OW 6643   3.862   3.883   8.125 -0.5544  0.0591  0.0953
 2215SOL    HW1 6644   3.931   3.920   8.181  2.4169 -0.9927 -2.5789
 2215SOL    HW2 6645   3.810   3.828   8.184  1.6388 -0.0717  2.0488
 2216SOL     OW 6646   3.244   1.801   6.429 -0.1328 -0.6956  0.3908
 2216SOL    HW1 6647   3.271   1.891   6.448 -1.4058 -0.6073  2.0280
 2216SOL    HW2 6648   3.198   1.807   6.345 -0.7298  0.3109  0.7741
 2217SOL     OW 6649   4.195   4.439   8.295  0.4024  0.1701 -0.1931
 2217SOL    HW1 6650   4.192   4.354   8.253 -0.3462  0.6606 -1.1698
 2217SOL    HW2 6651   4.136   4.432   8.370  2.7561 -1.1325  1.7123
 2218SOL     OW 6652   4.391   3.227   5.629 -0.1624 -0.1283  0.4129
 2218SOL    HW1 6653   4.473   3.240   5.675 -0.9727  1.8235  1.4433
 2218SOL    HW2 6654   4.375   3.311   5.585 -2.1192 -0.0799  1.1299
 2219SOL     OW 6655   3.525   3.074   8.237  0.3690 -0.2247 -0.3060
 2219SOL    HW1 6656   3.596   3.079   8.173  1.4502  1.2566  0.9232
 2219SOL    HW2 6657   3.487   2.988   8.224  2.9297 -1.4289 -0.4959
 2220SOL     OW 6658   3.438   1.658   6.571  0.1335  0.2260  0.2119
 2220SOL    HW1 6659   3.521   1.705   6.580 -0.7576  1.7019  0.9934
 2220SOL    HW2 6660   3.383   1.715   6.517 -0.5947 -0.4287  0.2414
 2221SOL     OW 6661   4.583   3.617   5.453  0.3004  0.6131  0.1852
 2221SOL    HW1 6662   4.601   3.711   5.454  1.6874  0.4358 -2.2907
 2221SOL    HW2 6663   4.534   3.603   5.373  1.9642 -1.0226 -0.6190
 2222SOL     OW 6664   2.935   2.317   7.539  0.7210  0.1018 -0.4028
 2222SOL    HW1 6665   2.864   2.354   7.591  0.9174 -1.2550  0.8846
 2222SOL    HW2 6666   2.890   2.276   7.465  0.3663  1.2017 -0.8251
 2223SOL     OW 6667   4.091   0.419   8.643  0.5289 -0.2108 -0.1135
 2223SOL    HW1 6668   4.031   0.376   8.703 -0.3192 -0.4276 -1.0875
 2223SOL    HW2 6669   4.103   0.506   8.680  0.7015 -0.6308  0.8240
 2224SOL     OW 6670   4.693   0.191   6.425  0.4965 -0.0025  0.5959
 2224SOL    HW1 6671   4.675   0.121   6.363  1.0280 -1.8150  2.4061
 2224SOL    HW2 6672   4.613   0.243   6.426 -0.2841 -1.1521 -0.0845
 2225SOL     OW 6673   4.061   2.745   5.067  0.1726 -0.0713  0.8124
 2225SOL    HW1 6674   4.037   2.829   5.106 -0.8156  1.3987 -2.5892
 2225SOL    HW2 6675   4.079   2.689   5.142 -2.0807  2.2617  3.3558
 2226SOL     OW 6676   0.664   2.576   5.655  0.0548 -0.2443 -0.1933
 2226SOL    HW1 6677   0.575   2.542   5.664 -0.6960  1.6771  0.1155
 2226SOL    HW2 6678   0.703   2.563   5.742  0.6829 -2.5439 -0.7520
 2227SOL     OW 6679   0.232   0.097   5.952  0.2548  0.0320 -0.0963
 2227SOL    HW1 6680   0.286   0.163   5.995  1.5811  0.4567 -2.3014
 2227SOL    HW2 6681   0.154   0.091   6.007  1.8296  0.5060  2.3430
 2228SOL     OW 6682   0.545   1.067   6.295  0.3923 -0.2993 -0.0567
 2228SOL    HW1 6683   0.557   1.079   6.389  0.9521  0.1450 -0.1819
 2228SOL    HW2 6684   0.595   1.138   6.255 -1.6259  0.8995 -0.6505
 2229SOL     OW 6685   3.937   1.217   6.024 -0.1030 -0.4334 -0.4045
 2229SOL    HW1 6686   3.965   1.125   6.029 -1.9878 -1.0153  0.7863
 2229SOL    HW2 6687   3.877   1.220   5.950  1.4506  0.3304 -1.6757
 2230SOL     OW 6688   2.252   0.898   5.357  0.0129 -0.6461 -0.7718
 2230SOL    HW1 6689   2.220   0.809   5.373 -2.3379  0.1429 -0.7075
 2230SOL    HW2 6690   2.347   0.890   5.360 -0.1140 -2.6165  2.3127
 2231SOL     OW 6691   4.020   3.475   5.073  0.2399 -0.2085  0.1982
 2231SOL    HW1 6692   3.965   3.397   5.072  0.8269 -0.6322  0.0432
 2231SOL    HW2 6693   3.994   3.522   5.152 -0.8769  0.0060 -0.2835
 2232SOL     OW 6694   4.618   2.314   6.074  0.8243  0.8055  0.2280
 2232SOL    HW1 6695   4.545   2.256   6.097  0.5418  1.0939  0.0729
 2232SOL    HW2 6696   4.696   2.260   6.086  0.4997 -0.0682 -1.2851
 2233SOL     OW 6697   0.003   0.573   7.548  0.1957  0.2314  0.1192
 2233SOL    HW1 6698   0.011   0.571   7.452 -3.1659 -0.6702 -0.2995
 2233SOL    HW2 6699  -0.001   0.665   7.570  0.0274  0.4447 -0.7491
 2234SOL     OW 6700   0.403   4.282   4.962  0.5660 -0.4423  0.6266
 2234SOL    HW1 6701   0.440   4.221   4.898  0.2824  0.2067 -0.1595
 2234SOL    HW2 6702   0.475   4.297   5.024  0.8552 -1.0397  0.4440
 2235SOL     OW 6703   3.773   4.288   8.572  0.9228  0.3932  0.1593
 2235SOL    HW1 6704   3.713   4.298   8.646 -0.5551 -1.4782 -0.6647
 2235SOL    HW2 6705   3.736   4.345   8.504  2.4239  2.3092  0.8669
 2236SOL     OW 6706   0.414   2.095   8.147 -0.7293 -0.0455  0.1099
 2236SOL    HW1 6707   0.509   2.102   8.160 -0.4757  3.0295 -2.1975
 2236SOL    HW2 6708   0.376   2.126   8.229  0.3807  1.0602  0.2449
 2237SOL     OW 6709   3.736   0.553   7.975  0.2646 -0.2601 -0.5479
 2237SOL    HW1 6710   3.655   0.595   7.948  0.7556  1.6416  0.7015
 2237SOL    HW2 6711   3.764   0.503   7.899 -0.4107  1.6924 -2.1617
 2238SOL     OW 6712   4.978   4.513   6.173 -1.2137 -0.5619  1.1400
 2238SOL    HW1 6713   5.043   4.444   6.187 -0.9518 -0.5751 -0.0038
 2238SOL    HW2 6714   4.952   4.502   6.081  0.1959  2.0013  0.3614
 2239SOL     OW 6715   4.116   2.993   5.208  0.1030 -0.6261  0.0734
 2239SOL    HW1 6716   4.087   3.048   5.282 -0.3983  0.1526 -0.6700
 2239SOL    HW2 6717   4.073   3.032   5.132  4.3485  1.7059 -1.4629
 2240SOL     OW 6718   3.181   0.331   9.566  1.5292 -0.2986  0.4312
 2240SOL    HW1 6719   3.183   0.262   9.500  0.9057 -1.1704  1.2993
 2240SOL    HW2 6720   3.156   0.409   9.517  1.7659 -0.7738 -0.4817
 2241SOL     OW 6721   3.019   4.662   8.431 -0.2286  0.3820  0.4895
 2241SOL    HW1 6722   2.951   4.718   8.392  0.8019  1.4386  0.1766
 2241SOL    HW2 6723   3.075   4.722   8.480 -0.3748 -0.6755  2.0291
 2242SOL     OW 6724   3.358   1.283   7.514 -0.1329  0.9041 -0.2451
 2242SOL    HW1 6725   3.387   1.198   7.547 -0.3254  0.4896 -1.1220
 2242SOL    HW2 6726   3.285   1.262   7.456 -0.4816  1.7143 -0.1081
 2243SOL     OW 6727   2.888   3.496   4.916  0.8198  0.8039  0.3895
 2243SOL    HW1 6728   2.960   3.437   4.892 -0.4534 -0.6920  0.0656
 2243SOL    HW2 6729   2.884   3.559   4.843  1.4875  0.6189  0.1802
 2244SOL     OW 6730   0.723   3.151   7.904 -0.5018 -0.0945  0.8245
 2244SOL    HW1 6731   0.788   3.147   7.974  0.8103 -0.3022 -0.3595
 2244SOL    HW2 6732   0.639   3.157   7.949  0.3456  0.3758  2.3967
 2245SOL     OW 6733   2.521   2.354   4.839  0.2410  0.1896 -0.5618
 2245SOL    HW1 6734   2.524   2.274   4.786 -0.9213 -0.0406 -0.2966
 2245SOL    HW2 6735   2.557   2.421   4.781  2.9778 -0.8073 -0.1761
 2246SOL     OW 6736   3.178   5.012   6.546  0.5674 -0.2781  0.8385
 2246SOL    HW1 6737   3.270   5.026   6.524  0.5329 -1.2356 -0.0118
 2246SOL    HW2 6738   3.151   4.939   6.489 -1.3999  1.5957 -0.7776
 2247SOL     OW 6739   1.716   1.071   4.588  0.1168  0.0545  0.0494
 2247SOL    HW1 6740   1.780   1.001   4.574 -0.4385 -0.3005 -0.7774
 2247SOL    HW2 6741   1.638   1.026   4.621 -0.2453  0.2777 -0.4929
 2248SOL     OW 6742   1.740   2.213   4.728 -0.2981  0.2840  0.3616
 2248SOL    HW1 6743   1.713   2.125   4.702  1.1115 -0.1896  0.4200
 2248SOL    HW2 6744   1.820   2.199   4.779 -0.1065  1.5968  0.4429
 2249SOL     OW 6745   2.351   1.086   6.095  0.1655 -0.1322 -0.0102
 2249SOL    HW1 6746   2.306   1.139   6.160 -0.6751 -2.4583  1.4379
 2249SOL    HW2 6747   2.330   1.127   6.011 -4.1785 -0.6495  0.6341
 2250SOL     OW 6748   2.523   3.269   8.814  0.7375  0.7749  0.4676
 2250SOL    HW1 6749   2.453   3.334   8.804  1.3727  1.7326  1.9603
 2250SOL    HW2 6750   2.602   3.321   8.830  1.8686 -0.2791 -1.3669
 2251SOL     OW 6751   2.003   3.898   4.495 -0.4146 -1.1134  0.7061
 2251SOL    HW1 6752   1.981   3.834   4.427  1.7785  2.0583 -3.4252
 2251SOL    HW2 6753   1.918   3.928   4.527 -1.5231 -3.2423  0.0146
 2252SOL     OW 6754   1.915   3.582   5.842  0.7570 -0.2357 -0.6435
 2252SOL    HW1 6755   1.833   3.535   5.828 -0.2519  1.2353  0.0506
 2252SOL    HW2 6756   1.919   3.594   5.937  1.5587  0.1078 -0.7132
 2253SOL     OW 6757   3.511   3.100   5.770  0.3894 -0.0461 -0.0173
 2253SOL    HW1 6758   3.452   3.031   5.797  0.1625  0.0914 -0.1573
 2253SOL    HW2 6759   3.460   3.181   5.782  0.6434  0.0951  0.1256
 2254SOL     OW 6760   3.766   1.501   7.485 -0.3714 -0.3312  0.4195
 2254SOL    HW1 6761   3.797   1.591   7.497 -1.2810  0.0694 -0.1468
 2254SOL    HW2 6762   3.846   1.449   7.482  0.3750  0.8082 -2.2149
 2255SOL     OW 6763   3.537   4.731   7.738 -0.3328  1.0992 -0.0589
 2255SOL    HW1 6764   3.547   4.703   7.829 -0.0097 -1.6701 -0.8489
 2255SOL    HW2 6765   3.620   4.775   7.717  2.0612 -3.0913 -0.4700
 2256SOL     OW 6766   4.626   3.262   6.381 -0.0719 -0.0419 -0.6814
 2256SOL    HW1 6767   4.631   3.339   6.324 -0.8572  2.6812  2.5262
 2256SOL    HW2 6768   4.551   3.212   6.348 -0.3209  1.2500 -2.1804
 2257SOL     OW 6769   4.291   1.909   6.909 -0.3374  0.5351 -0.0126
 2257SOL    HW1 6770   4.274   1.865   6.993 -1.3806  1.4843  0.3066
 2257SOL    HW2 6771   4.382   1.887   6.888 -0.9489 -2.2006 -0.1570
 2258SOL     OW 6772   0.817   0.161   5.831  0.6746 -0.8477 -0.8430
 2258SOL    HW1 6773   0.785   0.141   5.919  1.7834 -1.0325 -0.4613
 2258SOL    HW2 6774   0.749   0.216   5.792  1.0537  0.9153  0.8393
 2259SOL     OW 6775   3.044   2.477   5.865 -0.3139  0.0401 -0.0983
 2259SOL    HW1 6776   3.041   2.387   5.898 -0.4162 -0.1656 -0.6543
 2259SOL    HW2 6777   3.049   2.467   5.770  0.2355  0.6170 -0.1355
 2260SOL     OW 6778   1.524   1.755   6.049 -0.0838 -0.2432  0.3835
 2260SOL    HW1 6779   1.510   1.816   6.121  0.8060 -2.0140  2.1691
 2260SOL    HW2 6780   1.489   1.672   6.081  0.3667 -1.1024 -1.2175
 2261SOL     OW 6781   0.647   2.523   6.278  0.9565 -0.2336 -1.0088
 2261SOL    HW1 6782   0.671   2.609   6.311  2.7424 -1.5852  1.6302
 2261SOL    HW2 6783   0.562   2.536   6.235 -0.4680  2.2727  2.1330
 2262SOL     OW 6784   1.433   1.067   5.267  0.0498  0.1937 -0.3670
 2262SOL    HW1 6785   1.496   1.072   5.339 -1.5199  2.9704  0.9903
 2262SOL    HW2 6786   1.442   0.978   5.233  3.0043 -0.2678  1.2444
 2263SOL     OW 6787   4.108   4.239   6.062  0.0191  0.1408 -0.3249
 2263SOL    HW1 6788   4.022   4.240   6.020 -0.7471 -2.4683  0.9598
 2263SOL    HW2 6789   4.118   4.150   6.095  3.7843 -0.0623 -1.4579
 2264SOL     OW 6790   1.008   0.677   5.507 -0.1347  0.0851  0.8772
 2264SOL    HW1 6791   1.082   0.635   5.552  0.1242  0.0663  0.4361
 2264SOL    HW2 6792   0.977   0.611   5.445 -0.5015  0.1083  1.0345
 2265SOL     OW 6793   0.856   0.732   7.360 -0.0275  0.0207  0.0485
 2265SOL    HW1 6794   0.786   0.798   7.367  1.5912  1.6907  1.5616
 2265SOL    HW2 6795   0.915   0.767   7.293  0.9240  0.2230  0.9679
 2266SOL     OW 6796   3.971   4.003   7.887 -0.4888 -0.1577  0.2308
 2266SOL    HW1 6797   4.011   4.080   7.926 -3.5019  2.4663 -1.3911
 2266SOL    HW2 6798   3.929   3.957   7.960 -0.4606  0.9521  0.9591
 2267SOL     OW 6799   1.069   2.382   7.133 -0.3273 -0.0265  0.1976
 2267SOL    HW1 6800   1.041   2.380   7.224 -0.7241  1.1644  0.1154
 2267SOL    HW2 6801   1.130   2.456   7.128  0.3985 -0.6372 -0.3165
 2268SOL     OW 6802   2.443   3.122   5.806 -0.2164  0.0800  0.1083
 2268SOL    HW1 6803   2.445   3.217   5.795  2.1550  0.1626  0.7172
 2268SOL    HW2 6804   2.535   3.096   5.815 -0.8767 -2.0761  1.6501
 2269SOL     OW 6805   1.098   4.516   4.772  0.6908 -0.1137  0.4026
 2269SOL    HW1 6806   1.168   4.582   4.774 -1.0849  1.9493 -0.8038
 2269SOL    HW2 6807   1.019   4.566   4.752 -1.0804 -2.4142  1.1906
 2270SOL     OW 6808   4.005   2.627   5.715  0.2917 -0.5196 -0.4623
 2270SOL    HW1 6809   3.953   2.555   5.678 -0.0685 -1.0417  0.9718
 2270SOL    HW2 6810   4.041   2.672   5.639 -3.1178  0.5569 -1.6251
 2271SOL     OW 6811   2.690   0.082   5.047 -0.2493  0.3336 -0.3160
 2271SOL    HW1 6812   2.756   0.036   5.098 -2.9567 -1.9514  1.4297
 2271SOL    HW2 6813   2.705   0.053   4.957  1.5887  0.5784 -0.1268
 2272SOL     OW 6814   4.379   3.296   6.679  0.0682  0.0546  0.0360
 2272SOL    HW1 6815   4.305   3.352   6.655 -0.8139 -1.2740 -0.4832
 2272SOL    HW2 6816   4.371   3.287   6.775 -0.2876  0.1551  0.0201
 2273SOL     OW 6817   3.384   3.624   5.680 -0.0048  0.1355 -0.3262
 2273SOL    HW1 6818   3.455   3.573   5.642  0.0440  1.0653 -1.5848
 2273SOL    HW2 6819   3.317   3.560   5.702  1.0645 -0.7182  0.5535
 2274SOL     OW 6820   1.599   3.931   8.921 -0.0718  0.4338 -0.5306
 2274SOL    HW1 6821   1.527   3.868   8.932 -1.1247  1.8040  1.0006
 2274SOL    HW2 6822   1.632   3.914   8.833 -0.4072 -2.1215 -0.2422
 2275SOL     OW 6823   1.251   4.549   6.791  0.1407  0.3403 -0.4755
 2275SOL    HW1 6824   1.318   4.583   6.850  0.1146  0.4621 -0.5167
 2275SOL    HW2 6825   1.209   4.479   6.840  1.2732 -0.7287 -0.9604
 2276SOL     OW 6826   0.192   3.378   5.046 -0.1951 -0.1862  0.2322
 2276SOL    HW1 6827   0.110   3.378   5.096  0.2262 -2.3384  1.0636
 2276SOL    HW2 6828   0.193   3.462   5.000 -2.3964  0.2898  0.9452
 2277SOL     OW 6829   3.692   0.961   5.973  0.0900 -0.4792 -0.4676
 2277SOL    HW1 6830   3.607   0.981   6.012  0.0337  0.3652 -0.9986
 2277SOL    HW2 6831   3.714   1.039   5.921  0.6188 -1.1759 -1.3209
 2278SOL     OW 6832   2.937   2.974   6.101 -0.1707 -0.1840  0.6262
 2278SOL    HW1 6833   2.862   2.915   6.100  1.6905 -2.9908 -3.8898
 2278SOL    HW2 6834   2.935   3.017   6.015  1.6744  2.1558  1.6291
 2279SOL     OW 6835   2.569   1.727   5.197  0.4504  0.1872 -0.2644
 2279SOL    HW1 6836   2.583   1.806   5.143 -0.3766  0.8260  0.4316
 2279SOL    HW2 6837   2.502   1.753   5.260  0.8118 -0.8079  0.5477
 2280SOL     OW 6838   0.866   4.002   6.713  0.4409  0.2729  0.2932
 2280SOL    HW1 6839   0.803   4.020   6.784  2.0446  0.3648  1.7703
 2280SOL    HW2 6840   0.920   3.930   6.747  1.8775  0.9777 -0.4044
 2281SOL     OW 6841   1.578   1.036   5.490  0.8081 -0.0677  0.0741
 2281SOL    HW1 6842   1.667   1.070   5.503  1.9800 -3.1088  1.0731
 2281SOL    HW2 6843   1.548   1.016   5.579 -0.0106 -1.0158 -0.4030
 2282SOL     OW 6844   3.719   2.054   6.333 -0.3150  0.0635  0.2392
 2282SOL    HW1 6845   3.810   2.050   6.365  0.3918  1.3690 -1.4543
 2282SOL    HW2 6846   3.720   2.002   6.253 -1.8755 -2.5281  1.7813
 2283SOL     OW 6847   0.021   0.215   5.063 -0.4958 -0.0961  0.8931
 2283SOL    HW1 6848   0.055   0.228   4.974 -0.6763 -1.8677  0.5192
 2283SOL    HW2 6849   0.091   0.169   5.109 -1.3355 -1.4326  0.8913
 2284SOL     OW 6850   1.402   3.717   5.015 -0.8479  0.3455 -0.9653
 2284SOL    HW1 6851   1.367   3.658   4.949  1.5035 -2.2582 -0.0749
 2284SOL    HW2 6852   1.408   3.664   5.094  0.9848  1.8952  0.0321
 2285SOL     OW 6853   4.391   2.557   5.226  0.7727 -0.1489 -1.0436
 2285SOL    HW1 6854   4.486   2.567   5.224  0.8285  0.0280  0.8933
 2285SOL    HW2 6855   4.358   2.646   5.238  0.6475 -0.5415  2.7766
 2286SOL     OW 6856   3.494   1.394   7.062  0.0301  0.8252  0.1799
 2286SOL    HW1 6857   3.432   1.440   7.118  0.0157  0.3764  0.5400
 2286SOL    HW2 6858   3.570   1.378   7.119 -1.4068 -2.9835  1.3236
 2287SOL     OW 6859   0.070   4.096   5.433 -0.1005 -0.0081  0.1638
 2287SOL    HW1 6860   0.138   4.102   5.365  0.1444 -0.5085  0.3579
 2287SOL    HW2 6861   0.045   4.003   5.433 -1.7291  0.3887 -0.8161
 2288SOL     OW 6862   4.164   4.481   4.959  0.0091  0.6751  0.5243
 2288SOL    HW1 6863   4.200   4.427   4.889  0.8514 -0.1272  1.5449
 2288SOL    HW2 6864   4.179   4.571   4.930  2.8537  0.3942  0.8568
 2289SOL     OW 6865   3.938   0.488   7.071  0.2118  0.5554 -1.0310
 2289SOL    HW1 6866   4.014   0.430   7.079  0.3299  0.7840 -0.3784
 2289SOL    HW2 6867   3.888   0.473   7.151  1.2215  2.6984  0.1165
 2290SOL     OW 6868   0.418   2.501   5.762  0.2560 -0.2865  0.3965
 2290SOL    HW1 6869   0.341   2.558   5.759  1.3689  1.3339  0.9419
 2290SOL    HW2 6870   0.395   2.432   5.824 -0.1834  1.1374  1.9044
 2291SOL     OW 6871   2.409   3.940   4.919 -0.4163  0.0487  0.3140
 2291SOL    HW1 6872   2.347   4.010   4.902 -0.7429 -0.3085  0.0065
 2291SOL    HW2 6873   2.363   3.880   4.977 -0.4625 -0.3567 -0.1334
 2292SOL     OW 6874   4.672   3.850   6.071  0.2548  0.5368 -0.2519
 2292SOL    HW1 6875   4.676   3.864   6.165 -0.5416  1.5393 -0.3503
 2292SOL    HW2 6876   4.584   3.879   6.046  0.7689  1.1523 -1.4267
 2293SOL     OW 6877   2.043   4.512   6.982  0.1148  0.4576  1.3064
 2293SOL    HW1 6878   2.100   4.524   7.058  0.2380 -1.5114  1.5867
 2293SOL    HW2 6879   2.093   4.548   6.908  0.3912  1.5320  1.9908
 2294SOL     OW 6880   4.503   2.333   9.696  0.0649 -0.1012  0.3235
 2294SOL    HW1 6881   4.563   2.380   9.638  0.9683  1.4751  2.3997
 2294SOL    HW2 6882   4.554   2.258   9.727 -0.8832 -1.7768 -1.8389
 2295SOL     OW 6883   2.941   1.327   6.332 -0.0459 -0.1125 -0.1172
 2295SOL    HW1 6884   2.940   1.250   6.389 -1.3392  0.4653  0.6891
 2295SOL    HW2 6885   3.031   1.333   6.302 -0.1282 -2.5708 -1.0973
 2296SOL     OW 6886   1.997   4.601   4.884 -0.0637  0.2866  0.1990
 2296SOL    HW1 6887   2.019   4.520   4.930  2.2637  0.1896 -0.9624
 2296SOL    HW2 6888   1.932   4.574   4.820 -1.5912 -0.0210  1.7878
 2297SOL     OW 6889   1.609   1.380   6.896  0.0042  0.0540 -0.7010
 2297SOL    HW1 6890   1.648   1.462   6.864 -0.8102  0.6529 -0.2218
 2297SOL    HW2 6891   1.615   1.387   6.991 -0.8827 -0.0198 -0.6312
 2298SOL     OW 6892   2.068   1.053   5.945 -0.6913 -0.1293  0.8133
 2298SOL    HW1 6893   2.122   1.026   6.019  0.7290  0.1140 -0.1102
 2298SOL    HW2 6894   2.100   1.140   5.922 -1.2316 -0.1350  0.0114
 2299SOL     OW 6895   4.418   4.492   5.185  0.7460  0.9378  0.5139
 2299SOL    HW1 6896   4.491   4.469   5.127  0.4144 -1.1837  0.8360
 2299SOL    HW2 6897   4.353   4.532   5.127  1.2970  0.8690 -0.1735
 2300SOL     OW 6898   4.880   0.039   5.460  0.2468  0.8037  0.4620
 2300SOL    HW1 6899   4.957   0.060   5.514  0.6348  1.8781 -0.4800
 2300SOL    HW2 6900   4.914   0.036   5.370 -0.7830  1.0962  0.0507
 2301SOL     OW 6901   1.763   1.155   7.436  0.5203  0.3004  0.0340
 2301SOL    HW1 6902   1.703   1.095   7.392  1.8709 -3.1291  2.4249
 2301SOL    HW2 6903   1.840   1.159   7.379  0.7464 -1.0018  0.2270
 2302SOL     OW 6904   2.856   2.434   4.469  0.2452 -0.2024 -0.6080
 2302SOL    HW1 6905   2.812   2.396   4.394  0.6604 -0.4779 -0.7127
 2302SOL    HW2 6906   2.939   2.467   4.435  1.4317 -2.2459  0.0939
 2303SOL     OW 6907   4.989   1.599   5.247 -0.7811  0.7240 -0.6930
 2303SOL    HW1 6908   4.922   1.560   5.191 -1.7346  1.8462 -0.3613
 2303SOL    HW2 6909   5.072   1.566   5.212 -1.5095 -2.4459  0.1630
 2304SOL     OW 6910   2.984   3.368   8.614 -0.0058 -0.4295  0.2146
 2304SOL    HW1 6911   2.999   3.280   8.647 -1.4878 -0.3649  1.1510
 2304SOL    HW2 6912   3.047   3.378   8.542 -0.8092 -2.7928 -0.9184
 2305SOL     OW 6913   4.155   3.506   9.330  0.3221 -0.8671 -0.0819
 2305SOL    HW1 6914   4.209   3.509   9.250  0.5373  1.7333  0.0920
 2305SOL    HW2 6915   4.088   3.440   9.311  0.8731 -0.9169 -2.0710
 2306SOL     OW 6916   3.979   3.502   6.039  0.0336  0.1400 -0.1211
 2306SOL    HW1 6917   3.917   3.476   6.107 -0.3039  0.1574 -0.4159
 2306SOL    HW2 6918   4.019   3.420   6.010  2.3304  0.3561  2.0842
 2307SOL     OW 6919   1.542   3.724   7.202  0.2077 -0.2982  0.4633
 2307SOL    HW1 6920   1.579   3.738   7.289  3.2897 -1.2181 -0.5773
 2307SOL    HW2 6921   1.527   3.629   7.198  1.3814 -0.4667 -0.4256
 2308SOL     OW 6922   4.449   1.750   9.180  0.5674  0.2257 -0.3159
 2308SOL    HW1 6923   4.399   1.816   9.133  0.8281  2.0824  1.8193
 2308SOL    HW2 6924   4.540   1.764   9.152  0.2900 -1.3667 -2.1844
 2309SOL     OW 6925   0.899   1.087   5.830 -0.7852 -0.2383  0.2791
 2309SOL    HW1 6926   0.976   1.103   5.886  0.8329 -2.2717 -1.1855
 2309SOL    HW2 6927   0.892   1.165   5.776 -0.6678  0.6011  1.4535
 2310SOL     OW 6928   1.031   2.148   8.654 -0.7910  0.5296  0.2962
 2310SOL    HW1 6929   1.103   2.112   8.707  1.4412  2.7620 -0.9869
 2310SOL    HW2 6930   1.035   2.243   8.671 -1.2702  1.0784 -2.3076
 2311SOL     OW 6931   4.956   3.924   4.792  0.8410 -0.4229  0.3566
 2311SOL    HW1 6932   5.030   3.957   4.843  0.0825 -0.0176  1.2064
 2311SOL    HW2 6933   4.960   3.974   4.710  2.3585 -1.4353 -0.2271
 2312SOL     OW 6934   2.560   1.474   8.199  0.2121 -0.3904 -0.7980
 2312SOL    HW1 6935   2.612   1.422   8.137 -1.4194 -0.7951 -1.8870
 2312SOL    HW2 6936   2.593   1.563   8.189  0.6195 -0.6155 -1.5478
 2313SOL     OW 6937   4.383   2.312   8.821  0.2843  0.0352  0.0347
 2313SOL    HW1 6938   4.302   2.291   8.775  1.5791  1.8332 -3.4137
 2313SOL    HW2 6939   4.449   2.253   8.784  1.2525  1.0755  0.0358
 2314SOL     OW 6940   4.156   4.128   8.430 -0.1471  0.0668 -1.0035
 2314SOL    HW1 6941   4.103   4.204   8.453  2.0305  0.7048  2.7639
 2314SOL    HW2 6942   4.243   4.164   8.410  1.5560 -1.2784  2.9434
 2315SOL     OW 6943   2.962   3.771   6.126 -0.8641 -0.1214  0.1734
 2315SOL    HW1 6944   2.982   3.696   6.069 -0.4798 -0.5898  0.9066
 2315SOL    HW2 6945   2.936   3.841   6.066 -0.7907 -0.7061 -0.5532
 2316SOL     OW 6946   1.532   3.605   6.404  0.1124 -0.2403  0.8649
 2316SOL    HW1 6947   1.515   3.539   6.472  3.8880 -1.5482  0.7462
 2316SOL    HW2 6948   1.624   3.628   6.415  0.4856  0.6741 -2.8360
 2317SOL     OW 6949   3.500   4.926   5.607 -0.1146  0.7244  0.1471
 2317SOL    HW1 6950   3.502   4.918   5.512  1.7104  2.3218 -0.0101
 2317SOL    HW2 6951   3.535   4.843   5.639 -0.7027  0.1944 -0.5696
 2318SOL     OW 6952   4.792   0.654   6.829  0.2193 -0.7912 -0.4832
 2318SOL    HW1 6953   4.699   0.654   6.804  0.8994 -1.3450 -3.3619
 2318SOL    HW2 6954   4.837   0.690   6.753  2.2426  1.7389  1.7400
 2319SOL     OW 6955   3.019   2.037   7.586 -0.1957 -0.2751 -0.2566
 2319SOL    HW1 6956   3.092   2.097   7.594 -1.5281  1.3101  0.7575
 2319SOL    HW2 6957   2.979   2.058   7.501  0.4178 -1.0482 -0.7495
 2320SOL     OW 6958   4.691   4.209   9.713  0.1458 -0.4220  0.0458
 2320SOL    HW1 6959   4.679   4.248   9.800 -0.7835 -0.9776  0.1786
 2320SOL    HW2 6960   4.665   4.278   9.653  1.0688  0.0665  0.1829
 2321SOL     OW 6961   1.716   0.979   8.749  0.3693 -0.4360  0.7522
 2321SOL    HW1 6962   1.798   0.973   8.799 -0.6496  0.0176  2.5483
 2321SOL    HW2 6963   1.668   0.900   8.772  0.1644 -0.5708 -0.0922
 2322SOL     OW 6964   4.677   2.547   5.598  0.4251 -0.0474 -0.4079
 2322SOL    HW1 6965   4.678   2.511   5.509 -1.5248 -0.8488 -0.1755
 2322SOL    HW2 6966   4.687   2.641   5.586 -2.3910  0.1900 -1.7863
 2323SOL     OW 6967   2.804   2.145   5.941  0.0594 -0.0953 -0.4853
 2323SOL    HW1 6968   2.721   2.117   5.902 -0.6249  0.1945  0.6841
 2323SOL    HW2 6969   2.865   2.152   5.868 -2.2141  4.7557 -2.3735
 2324SOL     OW 6970   3.695   2.009   8.935 -1.0836  1.2271 -0.9411
 2324SOL    HW1 6971   3.649   1.940   8.984 -0.1000  0.4874 -1.0265
 2324SOL    HW2 6972   3.773   1.965   8.900  1.6777  3.2055  2.1389
 2325SOL     OW 6973   1.883   0.884   4.642  0.1722  0.2962  0.3422
 2325SOL    HW1 6974   1.958   0.824   4.638 -0.9739 -1.1872  0.2134
 2325SOL    HW2 6975   1.873   0.904   4.735 -0.7313 -1.4851  0.6734
 2326SOL     OW 6976   0.470   3.608   7.727  0.1629  0.3583 -0.0961
 2326SOL    HW1 6977   0.541   3.658   7.686 -1.0142  1.5251 -0.7885
 2326SOL    HW2 6978   0.514   3.554   7.793  2.0406 -0.8655 -2.1787
 2327SOL     OW 6979   4.759   4.185   9.135  0.2003 -0.2569 -0.3367
 2327SOL    HW1 6980   4.714   4.105   9.111 -0.6910  0.2029 -0.2247
 2327SOL    HW2 6981   4.758   4.186   9.230 -0.8462  0.4645 -0.3454
 2328SOL     OW 6982   3.314   3.515   9.667 -0.2048  0.1761 -0.0586
 2328SOL    HW1 6983   3.228   3.519   9.709  0.0435  2.4842  0.3717
 2328SOL    HW2 6984   3.372   3.560   9.728  1.3294 -1.2870 -0.3791
 2329SOL     OW 6985   1.197   0.399  10.405 -0.0086  0.0941  0.8371
 2329SOL    HW1 6986   1.125   0.420  10.465  0.0940  0.2875  0.8943
 2329SOL    HW2 6987   1.275   0.433  10.449 -0.0751  1.3015  0.0623
 2330SOL     OW 6988   1.716   1.776   5.555  0.3097 -0.2171  0.2611
 2330SOL    HW1 6989   1.689   1.687   5.534 -1.4866  0.3972 -0.2462
 2330SOL    HW2 6990   1.635   1.826   5.555  1.4943  1.9931 -2.3257
 2331SOL     OW 6991   0.734   0.541   7.186 -0.3381  0.3699  0.2137
 2331SOL    HW1 6992   0.750   0.549   7.092  0.5924 -0.7064  0.2558
 2331SOL    HW2 6993   0.788   0.610   7.226  0.5799 -0.2303  0.0457
 2332SOL     OW 6994   0.240   3.560   5.240  0.4090  1.0874 -0.1101
 2332SOL    HW1 6995   0.246   3.464   5.233  2.8647  1.2110 -0.4578
 2332SOL    HW2 6996   0.147   3.576   5.258  0.0315 -1.3922  0.6343
 2333SOL     OW 6997   3.317   2.195   6.764  0.0565  0.5663  0.8691
 2333SOL    HW1 6998   3.358   2.223   6.682  1.5626 -0.3383  1.2620
 2333SOL    HW2 6999   3.328   2.269   6.823 -2.5734  1.9052 -0.1726
 2334SOL     OW 7000   4.106   3.727   8.055  0.3041  0.4657 -0.7720
 2334SOL    HW1 7001   4.010   3.733   8.054  0.3153  0.9756 -2.4472
 2334SOL    HW2 7002   4.135   3.812   8.022  1.1853 -0.9074 -3.9215
 2335SOL     OW 7003   3.621   0.949   5.632  0.0664 -0.1002 -0.1677
 2335SOL    HW1 7004   3.559   0.984   5.568 -1.1007 -0.9069  0.4631
 2335SOL    HW2 7005   3.693   0.914   5.579  0.0753  0.9935 -0.9120
 2336SOL     OW 7006   4.664   2.455   7.653 -0.1090 -0.3041  1.2601
 2336SOL    HW1 7007   4.659   2.532   7.596 -1.3151  0.6282  2.5622
 2336SOL    HW2 7008   4.575   2.419   7.651  0.4893 -1.8081  0.5178
 2337SOL     OW 7009   2.030   3.380   8.582  0.4135  0.6024  0.2602
 2337SOL    HW1 7010   2.102   3.392   8.520 -0.2853  1.1314 -0.4731
 2337SOL    HW2 7011   2.062   3.419   8.664  1.7364 -1.0016  0.5632
 2338SOL     OW 7012   0.648   0.705   5.312 -0.3457 -0.7284 -0.9863
 2338SOL    HW1 7013   0.712   0.633   5.316  0.0960 -0.3420 -0.9671
 2338SOL    HW2 7014   0.699   0.783   5.332 -0.8388 -0.4158 -0.9368
 2339SOL     OW 7015   2.380   1.780  10.032  0.0199 -0.3626 -0.1056
 2339SOL    HW1 7016   2.425   1.711   9.984  3.0748  1.6666 -0.4410
 2339SOL    HW2 7017   2.369   1.851   9.968 -1.5755  0.0945  0.6260
 2340SOL     OW 7018   0.764   1.682   7.169 -0.3339 -1.2003  0.5617
 2340SOL    HW1 7019   0.678   1.640   7.165 -0.1125 -1.7671  1.3734
 2340SOL    HW2 7020   0.822   1.624   7.119 -0.9122  0.5831 -2.3899
 2341SOL     OW 7021   4.683   2.155   7.100  0.4125  0.5306 -0.8698
 2341SOL    HW1 7022   4.765   2.199   7.123 -0.9151  2.3631  0.7824
 2341SOL    HW2 7023   4.615   2.217   7.127 -1.5240 -0.5855 -2.8918
 2342SOL     OW 7024   1.802   2.084   9.464  0.3224 -0.4296  0.2465
 2342SOL    HW1 7025   1.708   2.071   9.474  0.4592 -1.9796 -0.2701
 2342SOL    HW2 7026   1.826   2.139   9.538 -0.8183 -0.8555  0.9652
 2343SOL     OW 7027   2.410   2.998   7.512  0.5881 -0.1617 -0.2570
 2343SOL    HW1 7028   2.339   2.961   7.564  0.7675 -1.3045 -0.7870
 2343SOL    HW2 7029   2.489   2.985   7.565  0.5930 -0.1421 -0.2591
 2344SOL     OW 7030   0.281   1.862   9.855 -0.0002  0.1879  0.1873
 2344SOL    HW1 7031   0.369   1.879   9.887  0.2447  1.1607 -0.9394
 2344SOL    HW2 7032   0.239   1.814   9.926  0.6755  1.7513  1.7210
 2345SOL     OW 7033   4.171   1.369   5.999  0.4910 -0.0192 -0.2278
 2345SOL    HW1 7034   4.101   1.304   6.010 -2.0366  1.9577 -3.0612
 2345SOL    HW2 7035   4.246   1.331   6.046 -0.9382 -4.6340 -1.1222
 2346SOL     OW 7036   2.066   3.271   6.195  0.0038  0.2194 -0.5142
 2346SOL    HW1 7037   1.991   3.221   6.227  1.0525 -1.1888 -0.2035
 2346SOL    HW2 7038   2.107   3.215   6.130  0.0980  1.4968 -1.5876
 2347SOL     OW 7039   4.900   1.019   9.694  0.1901  0.0517 -0.7373
 2347SOL    HW1 7040   4.964   0.988   9.629  0.9518  1.0980 -0.5145
 2347SOL    HW2 7041   4.931   1.107   9.718 -0.2543 -0.1850  0.8100
 2348SOL     OW 7042   1.228   3.015   7.535  0.4371 -0.6226  0.0549
 2348SOL    HW1 7043   1.142   3.055   7.524  0.6583 -0.2082 -0.1519
 2348SOL    HW2 7044   1.259   3.049   7.619  1.2690  0.8425 -0.8104
 2349SOL     OW 7045   2.001   2.473   9.102  0.7191  0.1564  0.3870
 2349SOL    HW1 7046   2.063   2.520   9.047 -0.9901  2.3957  0.2273
 2349SOL    HW2 7047   2.030   2.491   9.192 -0.5387  2.6719  0.3883
 2350SOL     OW 7048   3.465   3.990   4.848  0.5869  0.4017  0.7567
 2350SOL    HW1 7049   3.550   3.973   4.890  0.4207  0.6763  1.2064
 2350SOL    HW2 7050   3.435   3.904   4.820 -0.4022 -0.1599  3.2837
 2351SOL     OW 7051   4.518   3.488   8.790  0.6870 -0.5162  0.0303
 2351SOL    HW1 7052   4.425   3.513   8.795  0.4234 -1.1969 -1.1281
 2351SOL    HW2 7053   4.528   3.453   8.702  2.5965  1.6520 -0.7063
 2352SOL     OW 7054   4.688   1.633   7.382  0.0386 -0.9206  0.0249
 2352SOL    HW1 7055   4.642   1.684   7.449  0.6383  1.3167 -1.1617
 2352SOL    HW2 7056   4.686   1.689   7.304  0.9296 -2.6666 -1.3185
 2353SOL     OW 7057   3.750   4.794   9.545  0.0482 -0.1094 -0.4196
 2353SOL    HW1 7058   3.842   4.772   9.560  0.4926  0.6751 -1.8159
 2353SOL    HW2 7059   3.709   4.782   9.630  1.2638 -1.3282  0.0353
 2354SOL     OW 7060   0.259   2.763   8.333 -0.6375  0.6214  0.4874
 2354SOL    HW1 7061   0.254   2.849   8.290  0.2188  0.3640 -0.1571
 2354SOL    HW2 7062   0.319   2.713   8.279 -1.8462 -0.7125  0.3334
 2355SOL     OW 7063   0.899   4.898   6.050 -0.1173 -0.2475  0.0238
 2355SOL    HW1 7064   0.937   4.982   6.076 -1.9443  0.1946  1.4684
 2355SOL    HW2 7065   0.805   4.915   6.042 -0.3585 -1.8551 -1.0083
 2356SOL     OW 7066   3.997   4.394   9.228  0.7011  0.4167  0.3630
 2356SOL    HW1 7067   3.947   4.368   9.151 -0.2590  2.0309  0.3997
 2356SOL    HW2 7068   4.082   4.352   9.216  0.5519  0.5550 -1.5465
 2357SOL     OW 7069   3.984   4.963   5.238  0.0088 -0.2111 -0.1014
 2357SOL    HW1 7070   3.936   5.044   5.220 -0.7255 -0.4379  0.7551
 2357SOL    HW2 7071   4.073   4.992   5.259  0.4000  0.1869 -2.0798
 2358SOL     OW 7072   3.395   1.568   8.950 -0.3726 -0.3624  0.2310
 2358SOL    HW1 7073   3.315   1.516   8.950  0.1627 -1.2179  0.6334
 2358SOL    HW2 7074   3.370   1.651   8.910 -1.5400 -0.4800  0.6701
 2359SOL     OW 7075   2.665   1.345   8.001  0.5483 -0.5973  0.0152
 2359SOL    HW1 7076   2.621   1.416   7.955  1.8234 -0.2132 -0.6700
 2359SOL    HW2 7077   2.692   1.285   7.932  1.7177 -0.4497  0.3073
 2360SOL     OW 7078   1.964   2.431   4.839  0.0673 -0.3662 -0.5676
 2360SOL    HW1 7079   1.974   2.404   4.930  0.2612  0.2922 -0.3927
 2360SOL    HW2 7080   1.917   2.358   4.798  1.6649 -1.5706 -0.3947
 2361SOL     OW 7081   1.446   0.328   6.101  0.0772  0.1680  0.1249
 2361SOL    HW1 7082   1.536   0.296   6.106  0.2807  0.5883 -0.6873
 2361SOL    HW2 7083   1.433   0.377   6.182  1.6789  2.8210 -1.0853
 2362SOL     OW 7084   0.219   4.908   9.254 -0.1274 -0.1995  0.3686
 2362SOL    HW1 7085   0.259   4.895   9.168  2.1161 -0.3043  1.3824
 2362SOL    HW2 7086   0.239   4.828   9.302  1.7156  1.2156  2.1012
 2363SOL     OW 7087   3.532   2.465   8.868  0.3401  0.4091  1.0243
 2363SOL    HW1 7088   3.561   2.553   8.890  1.7375  0.9873 -2.5069
 2363SOL    HW2 7089   3.601   2.408   8.904  2.9991  1.3648 -2.0539
 2364SOL     OW 7090   2.659   4.252   6.247 -0.3126 -0.9008  0.1542
 2364SOL    HW1 7091   2.591   4.270   6.183 -1.6786 -0.1132  1.7275
 2364SOL    HW2 7092   2.676   4.337   6.288 -0.4691 -1.5851  1.7201
 2365SOL     OW 7093   2.044   0.032   9.759  0.1252 -1.1606 -0.4049
 2365SOL    HW1 7094   2.063   0.036   9.665  2.3703 -2.1542 -0.0556
 2365SOL    HW2 7095   2.120   0.072   9.800 -0.2719 -1.8258  1.0262
 2366SOL     OW 7096   0.334   4.193   6.396 -0.2035 -0.8457 -0.6723
 2366SOL    HW1 7097   0.338   4.121   6.458 -2.7264 -1.3088 -0.9411
 2366SOL    HW2 7098   0.374   4.267   6.442  0.2529 -1.8019  0.5148
 2367SOL     OW 7099   3.383   3.194   8.518  0.5073  0.0063 -0.5652
 2367SOL    HW1 7100   3.444   3.260   8.552 -0.2025 -0.8472  2.7664
 2367SOL    HW2 7101   3.436   3.136   8.465  1.9457  0.9761 -0.2341
 2368SOL     OW 7102   2.109   0.618   4.730 -0.1279  0.2380  0.2211
 2368SOL    HW1 7103   2.114   0.689   4.794 -0.4244  1.7318 -1.3454
 2368SOL    HW2 7104   2.191   0.569   4.743  0.7731  1.7198  0.3786
 2369SOL     OW 7105   4.992   3.484   5.989  0.0142  0.5101 -0.1282
 2369SOL    HW1 7106   5.053   3.484   5.915  1.7699 -0.3286  1.2451
 2369SOL    HW2 7107   4.952   3.397   5.986  0.3023  0.3691  0.0642
 2370SOL     OW 7108   1.548   0.308   5.547 -0.0523 -0.1825  0.0774
 2370SOL    HW1 7109   1.582   0.269   5.627  0.1738  2.0008  1.1264
 2370SOL    HW2 7110   1.596   0.264   5.477  3.3385  1.0583  1.3751
 2371SOL     OW 7111   0.855   4.254   8.648 -0.4110 -0.3688  0.4290
 2371SOL    HW1 7112   0.827   4.281   8.561 -1.5619  0.0714  0.9213
 2371SOL    HW2 7113   0.775   4.247   8.699  0.2065 -1.0267  1.3516
 2372SOL     OW 7114   3.884   1.485   5.864  1.1727 -0.1232 -0.5934
 2372SOL    HW1 7115   3.822   1.481   5.791  1.8593  0.4381 -1.2384
 2372SOL    HW2 7116   3.940   1.408   5.851  1.4833  0.1399 -0.8517
 2373SOL     OW 7117   4.939   2.316   7.673 -0.4047 -0.3244 -0.7108
 2373SOL    HW1 7118   4.883   2.381   7.631  1.2027  0.5102 -1.6942
 2373SOL    HW2 7119   4.938   2.340   7.766 -0.9405  0.2524 -0.8596
 2374SOL     OW 7120   4.418   0.018   8.410 -0.0700  0.9746  0.0102
 2374SOL    HW1 7121   4.346   0.079   8.426 -1.5361 -0.4879 -0.7175
 2374SOL    HW2 7122   4.421   0.009   8.315  0.8790  0.7527  0.0464
 2375SOL     OW 7123   1.719   3.588   7.412  0.0256  0.5652 -0.0424
 2375SOL    HW1 7124   1.724   3.644   7.489  1.0363 -0.0172  0.3412
 2375SOL    HW2 7125   1.811   3.572   7.388 -0.2644  0.6260 -1.2879
 2376SOL     OW 7126   4.911   4.759   9.502  0.1792  0.3335  0.2009
 2376SOL    HW1 7127   4.958   4.693   9.451  4.5328  0.6850  3.2180
 2376SOL    HW2 7128   4.914   4.838   9.448 -0.0483 -0.4951 -1.0814
 2377SOL     OW 7129   2.898   2.893   4.914  0.3956  0.3442  0.3817
 2377SOL    HW1 7130   2.961   2.965   4.912 -0.7331  1.4566  1.9920
 2377SOL    HW2 7131   2.862   2.895   5.003  0.7644 -2.6510  0.7101
 2378SOL     OW 7132   0.998   2.883   7.232  0.2941  0.6624  0.1991
 2378SOL    HW1 7133   1.001   2.827   7.310  0.9283  1.3256  0.6697
 2378SOL    HW2 7134   1.089   2.887   7.202  0.4551  2.2257  0.7694
 2379SOL     OW 7135   1.796   2.578   5.717  0.1959 -0.7780 -0.1217
 2379SOL    HW1 7136   1.853   2.582   5.795 -1.6105  0.3062  1.2320
 2379SOL    HW2 7137   1.833   2.644   5.658  0.4479 -0.1789  0.6753
 2380SOL     OW 7138   3.807   3.608   8.194 -0.0355  0.0394  0.5230
 2380SOL    HW1 7139   3.747   3.534   8.206  2.8414 -2.4971  0.3455
 2380SOL    HW2 7140   3.830   3.635   8.283  1.9295 -2.0179  0.7115
 2381SOL     OW 7141   1.865   0.243   9.128 -0.0141  0.0324 -0.0711
 2381SOL    HW1 7142   1.803   0.200   9.187 -1.1971  1.3808 -0.2638
 2381SOL    HW2 7143   1.945   0.251   9.180  0.2990 -2.4300 -0.0805
 2382SOL     OW 7144   3.246   4.700   6.182 -0.0650 -0.3770 -0.5528
 2382SOL    HW1 7145   3.218   4.707   6.091  0.7007  1.2550 -0.7042
 2382SOL    HW2 7146   3.186   4.637   6.221 -0.8096 -0.6274 -2.0300
 2383SOL     OW 7147   1.745   4.324   6.365  0.1113 -0.3215  0.7543
 2383SOL    HW1 7148   1.687   4.325   6.441 -0.3945  0.0117  0.3705
 2383SOL    HW2 7149   1.777   4.414   6.358 -2.0639  0.4181 -1.0752
 2384SOL     OW 7150   4.890   2.686   7.761  0.0148 -0.4710 -0.5413
 2384SOL    HW1 7151   4.830   2.620   7.725 -1.5615  1.3470 -1.3971
 2384SOL    HW2 7152   4.861   2.769   7.723  0.7903  1.0002  1.8390
 2385SOL     OW 7153   0.094   3.450   5.691 -0.1971  0.9307 -0.0524
 2385SOL    HW1 7154   0.130   3.539   5.691  0.3381  0.7612  1.8017
 2385SOL    HW2 7155   0.163   3.397   5.732 -1.1572 -0.0349  0.3588
 2386SOL     OW 7156   0.444   2.094   9.615  0.2276 -0.0575  0.2052
 2386SOL    HW1 7157   0.520   2.137   9.576  0.4196 -0.0217  0.6144
 2386SOL    HW2 7158   0.481   2.032   9.677 -0.0928  0.9308  1.4214
 2387SOL     OW 7159   4.066   0.674   6.266  0.0198 -0.0315  0.8747
 2387SOL    HW1 7160   4.023   0.592   6.289  0.4394  0.3766  3.5357
 2387SOL    HW2 7161   4.030   0.738   6.328  0.0616  1.7042 -0.8102
 2388SOL     OW 7162   3.834   4.161   6.742 -0.3922  0.0068  0.8829
 2388SOL    HW1 7163   3.821   4.155   6.836  0.0351 -2.5136  0.8466
 2388SOL    HW2 7164   3.748   4.144   6.704 -0.5710  1.0515  0.7945
 2389SOL     OW 7165   3.432   2.359   9.496  0.3168  0.1661 -0.1904
 2389SOL    HW1 7166   3.490   2.434   9.497 -0.6670  0.9485  0.7521
 2389SOL    HW2 7167   3.345   2.395   9.479  0.1561 -1.0602 -2.3825
 2390SOL     OW 7168   1.374   1.836   9.077  0.3429  0.3724 -0.4207
 2390SOL    HW1 7169   1.451   1.810   9.128  1.8702  3.1337 -1.0989
 2390SOL    HW2 7170   1.389   1.796   8.991  0.0822 -0.5434 -0.0548
 2391SOL     OW 7171   0.808   4.817   6.463  0.3374  0.0058 -0.2037
 2391SOL    HW1 7172   0.809   4.897   6.411 -1.2424  1.3676  1.6867
 2391SOL    HW2 7173   0.863   4.755   6.414  2.4594  2.5268 -1.2380
 2392SOL     OW 7174   1.848   3.147   6.387 -0.2009 -0.2904  0.5397
 2392SOL    HW1 7175   1.766   3.194   6.375 -0.1167  0.3212  2.1346
 2392SOL    HW2 7176   1.902   3.206   6.439  0.2172 -1.8006  1.9101
 2393SOL     OW 7177   1.824   0.406   8.053 -0.2036 -0.5910  0.6891
 2393SOL    HW1 7178   1.773   0.483   8.079  1.7155  1.0448 -0.0634
 2393SOL    HW2 7179   1.793   0.386   7.964  0.0105  0.0229  0.4649
 2394SOL     OW 7180   2.720   1.935   9.239 -0.4044 -0.3011 -0.6574
 2394SOL    HW1 7181   2.725   1.913   9.332  0.3066  1.5961 -0.1960
 2394SOL    HW2 7182   2.781   1.876   9.197  1.3971  0.6368  0.5086
 2395SOL     OW 7183   4.438   4.866   4.906 -0.5130  0.1091 -0.0856
 2395SOL    HW1 7184   4.423   4.960   4.902  0.8065  0.3969  1.0799
 2395SOL    HW2 7185   4.500   4.848   4.835  1.3392  0.5994  1.3512
 2396SOL     OW 7186   2.566   4.301   4.789  0.1765 -0.2338 -0.8349
 2396SOL    HW1 7187   2.476   4.313   4.819  0.5933 -1.3251  1.0144
 2396SOL    HW2 7188   2.590   4.385   4.750 -1.5171  0.1814 -1.0701
 2397SOL     OW 7189   2.947   2.266   6.533 -0.0488  0.1125 -0.0598
 2397SOL    HW1 7190   2.937   2.359   6.553 -2.7492 -0.4236  1.7154
 2397SOL    HW2 7191   2.995   2.230   6.607 -1.6349 -0.3244  0.8060
 2398SOL     OW 7192   2.455   0.750   7.777 -0.2029  0.0945  0.3997
 2398SOL    HW1 7193   2.393   0.730   7.707 -0.4528 -2.4723  1.2653
 2398SOL    HW2 7194   2.400   0.777   7.851  0.0805  3.3334 -0.4153
 2399SOL     OW 7195   1.083   2.502   5.703 -0.0419  0.0322  0.5294
 2399SOL    HW1 7196   1.066   2.424   5.650  0.5999 -0.6788  1.3245
 2399SOL    HW2 7197   1.069   2.472   5.793  0.4570  0.7696  0.8602
 2400SOL     OW 7198   3.806   1.293   5.382 -0.2231  0.2996 -0.0812
 2400SOL    HW1 7199   3.779   1.204   5.407  1.7138 -0.2782  0.1028
 2400SOL    HW2 7200   3.900   1.286   5.365  0.0526  2.3941  0.2849
 2401SOL     OW 7201   0.747   3.600   9.910 -0.3341  0.6159  0.2332
 2401SOL    HW1 7202   0.659   3.562   9.906  0.2604 -0.7794 -0.5268
 2401SOL    HW2 7203   0.801   3.530   9.946  0.3367  1.7626  1.5405
 2402SOL     OW 7204   3.661   3.169   8.752 -0.0404  0.5608  0.6983
 2402SOL    HW1 7205   3.604   3.172   8.829 -0.4758  3.8875  0.3991
 2402SOL    HW2 7206   3.680   3.076   8.740 -0.8812 -0.1878  4.0979
 2403SOL     OW 7207   3.444   4.920   6.775  0.3543  0.3677 -0.5212
 2403SOL    HW1 7208   3.505   4.989   6.799  0.8354  0.6432 -2.3688
 2403SOL    HW2 7209   3.499   4.842   6.766  0.0857  0.1270 -0.0836
 2404SOL     OW 7210   2.202   4.119  10.168 -0.1212  0.0771 -0.1658
 2404SOL    HW1 7211   2.161   4.205  10.159 -0.5140  0.0710  1.2899
 2404SOL    HW2 7212   2.287   4.129  10.125  0.1448  1.4301  0.6008
 2405SOL     OW 7213   0.895   0.663   5.761  0.8903 -0.5261 -0.5953
 2405SOL    HW1 7214   0.810   0.641   5.724  0.1513  1.6941 -0.3207
 2405SOL    HW2 7215   0.949   0.687   5.685  1.9098 -3.5207 -0.9766
 2406SOL     OW 7216   0.245   1.310   6.295  0.1088  0.4620 -0.9269
 2406SOL    HW1 7217   0.174   1.267   6.344  1.5717 -0.1507  0.7357
 2406SOL    HW2 7218   0.325   1.276   6.334  1.3388  1.6487 -2.3215
 2407SOL     OW 7219   0.340   0.582   9.518 -0.4595  0.2877 -0.0650
 2407SOL    HW1 7220   0.426   0.549   9.546 -1.2222  0.5984  2.9859
 2407SOL    HW2 7221   0.318   0.528   9.441  0.9740 -2.1616  1.1080
 2408SOL     OW 7222   2.826   2.118   7.069 -0.1850 -0.2217  0.1810
 2408SOL    HW1 7223   2.830   2.175   6.992  1.8046 -1.5268 -0.7653
 2408SOL    HW2 7224   2.766   2.048   7.043  1.4151 -1.3188 -0.7328
 2409SOL     OW 7225   1.470   2.640   7.183  0.2962 -0.6311 -0.2887
 2409SOL    HW1 7226   1.476   2.588   7.264  1.1695  0.1145  0.1375
 2409SOL    HW2 7227   1.416   2.586   7.125  0.3202 -1.5473  0.5010
 2410SOL     OW 7228   3.519   4.146  10.049 -0.0950  0.0644 -0.4015
 2410SOL    HW1 7229   3.511   4.203  10.126 -1.2226  1.3472 -1.4266
 2410SOL    HW2 7230   3.543   4.061  10.085  1.7114  1.1537  1.1910
 2411SOL     OW 7231   4.380   4.268   8.762 -0.3050 -0.2393 -0.2604
 2411SOL    HW1 7232   4.432   4.335   8.718 -0.7927 -0.3589 -1.0417
 2411SOL    HW2 7233   4.444   4.211   8.803  0.2094 -0.5441 -1.4362
 2412SOL     OW 7234   0.582   0.496   8.743 -0.0544 -0.3580 -0.0216
 2412SOL    HW1 7235   0.514   0.519   8.680  1.6505 -1.9305 -2.6691
 2412SOL    HW2 7236   0.596   0.575   8.795 -0.9840  1.3321 -2.2111
 2413SOL     OW 7237   4.451   4.273   7.175  0.4897 -0.1044 -0.0315
 2413SOL    HW1 7238   4.388   4.294   7.107 -0.3620  0.8727  1.0141
 2413SOL    HW2 7239   4.529   4.324   7.152  0.3619 -0.1141 -0.4993
 2414SOL     OW 7240   0.261   0.369   6.665 -0.3171 -0.0223  0.0124
 2414SOL    HW1 7241   0.256   0.275   6.683  1.4748 -0.2451 -0.4603
 2414SOL    HW2 7242   0.229   0.379   6.576  1.3525 -0.5012 -0.6800
 2415SOL     OW 7243   0.533   4.463   8.096 -0.7350 -0.3204 -0.4657
 2415SOL    HW1 7244   0.586   4.384   8.083 -0.0426 -0.2682  1.5805
 2415SOL    HW2 7245   0.592   4.526   8.137 -1.9094  0.3663  0.2688
 2416SOL     OW 7246   3.405   1.126   6.239  0.4546  0.4469  0.0037
 2416SOL    HW1 7247   3.446   1.079   6.312  0.0610  0.2885  0.1251
 2416SOL    HW2 7248   3.455   1.208   6.233  0.9414  0.1566 -0.0046
 2417SOL     OW 7249   3.161   2.478   6.635 -0.6775 -0.5676  0.4580
 2417SOL    HW1 7250   3.156   2.570   6.609  1.2512 -0.3925  0.5429
 2417SOL    HW2 7251   3.180   2.480   6.729  1.3459 -0.9495  0.1095
 2418SOL     OW 7252   1.918   3.215   7.274  0.5111 -0.1338  1.3567
 2418SOL    HW1 7253   1.969   3.250   7.200 -0.9210  1.2453  0.9533
 2418SOL    HW2 7254   1.890   3.129   7.245  1.9747 -0.6175  1.2986
 2419SOL     OW 7255   0.125   3.114   8.961  0.4504  0.0592 -1.2024
 2419SOL    HW1 7256   0.094   3.049   9.024 -0.2710 -0.0477 -1.6559
 2419SOL    HW2 7257   0.168   3.061   8.893  1.2668  0.1768 -0.7891
 2420SOL     OW 7258   3.806   3.452   6.227  0.0762 -0.0339 -0.0989
 2420SOL    HW1 7259   3.737   3.518   6.218 -1.3167 -1.1808  1.4969
 2420SOL    HW2 7260   3.762   3.369   6.206  1.7526 -0.5406 -1.9244
 2421SOL     OW 7261   0.564   2.167   9.023  0.3270 -0.6224 -0.1907
 2421SOL    HW1 7262   0.556   2.152   8.929 -0.9927 -0.7244 -0.0894
 2421SOL    HW2 7263   0.473   2.174   9.053  0.7467  1.0662  0.8013
 2422SOL     OW 7264   1.415   3.515   9.637  0.2163  0.0343 -0.6741
 2422SOL    HW1 7265   1.419   3.420   9.647  0.7111  0.1096 -0.0579
 2422SOL    HW2 7266   1.324   3.538   9.653  0.5604 -0.0717  1.9867
 2423SOL     OW 7267   3.607   2.875   8.693 -0.2419 -0.1528 -0.7231
 2423SOL    HW1 7268   3.566   2.822   8.761  0.8133  0.0101  0.0624
 2423SOL    HW2 7269   3.535   2.904   8.638 -1.2690  0.7459  1.0452
 2424SOL     OW 7270   4.123   1.081   6.661  0.6384 -0.3678  0.7536
 2424SOL    HW1 7271   4.082   1.001   6.629  0.1230 -0.7596  2.3074
 2424SOL    HW2 7272   4.141   1.064   6.754 -0.4233  1.6678  1.4008
 2425SOL     OW 7273   1.535   3.794   6.927  0.3765  0.6105 -0.1603
 2425SOL    HW1 7274   1.521   3.801   7.021 -1.1707  1.5423 -0.4321
 2425SOL    HW2 7275   1.601   3.861   6.907  2.5215 -1.1507  0.5473
 2426SOL     OW 7276   2.461   2.710   9.660 -0.2860 -0.5544  0.3537
 2426SOL    HW1 7277   2.463   2.796   9.702 -1.3061 -1.6164  2.7977
 2426SOL    HW2 7278   2.553   2.690   9.643 -0.0989  1.5221 -1.5362
 2427SOL     OW 7279   0.318   1.289   8.343 -0.6159 -0.0460  0.3591
 2427SOL    HW1 7280   0.336   1.319   8.254 -0.0184 -1.5984 -0.0739
 2427SOL    HW2 7281   0.375   1.343   8.398 -1.1497  1.0776 -0.1503
 2428SOL     OW 7282   3.729   2.390   9.709  0.2069 -0.1634 -0.0405
 2428SOL    HW1 7283   3.667   2.463   9.707  0.9396  0.4954  0.5857
 2428SOL    HW2 7284   3.683   2.318   9.667 -0.4275  0.7427 -0.9496
 2429SOL     OW 7285   2.756   4.437   9.336  0.1379 -0.3086 -0.2699
 2429SOL    HW1 7286   2.813   4.507   9.304  0.8477  0.0606  1.6786
 2429SOL    HW2 7287   2.672   4.454   9.295  1.4581 -1.2112 -3.7046
 2430SOL     OW 7288   3.731   1.609   7.238  0.3965  0.4801  0.6622
 2430SOL    HW1 7289   3.765   1.555   7.309 -1.6712 -0.1693  1.2262
 2430SOL    HW2 7290   3.755   1.699   7.264  0.2587  0.1972  1.8457
 2431SOL     OW 7291   2.648   2.001  10.517 -0.3753  0.1617  0.6944
 2431SOL    HW1 7292   2.726   1.945  10.514  0.0453  0.7968 -0.6921
 2431SOL    HW2 7293   2.679   2.087  10.491 -0.9601  1.1807  3.0906
 2432SOL     OW 7294   1.306   3.824  10.272 -0.1128  0.1319  0.2010
 2432SOL    HW1 7295   1.377   3.762  10.288  0.0877  0.5939  1.1856
 2432SOL    HW2 7296   1.338   3.879  10.200  0.9269  0.9006  1.2111
 2433SOL     OW 7297   4.993   2.693  10.206  0.4703  0.5791 -0.5145
 2433SOL    HW1 7298   4.898   2.701  10.191 -0.0308 -2.2788  0.4882
 2433SOL    HW2 7299   5.001   2.622  10.270  3.2892  1.2821  0.0477
 2434SOL     OW 7300   1.135   4.242   8.570  0.1156  0.0095  0.4741
 2434SOL    HW1 7301   1.048   4.267   8.601  0.1250 -0.6831  1.0672
 2434SOL    HW2 7302   1.161   4.315   8.513 -1.5206 -0.4944 -1.0336
 2435SOL     OW 7303   2.803   1.582   5.426 -0.0101  0.1496 -0.1462
 2435SOL    HW1 7304   2.821   1.646   5.357 -0.2040  0.2750 -0.0817
 2435SOL    HW2 7305   2.707   1.573   5.425 -0.1055  0.8973  0.7748
 2436SOL     OW 7306   0.310   4.771   8.890 -0.4376 -0.0228  0.8442
 2436SOL    HW1 7307   0.273   4.723   8.816 -1.4015  0.8695  0.7180
 2436SOL    HW2 7308   0.405   4.766   8.877 -0.5965  1.3490 -1.2916
 2437SOL     OW 7309   4.624   3.873   8.550  0.0055 -0.5076 -0.7085
 2437SOL    HW1 7310   4.572   3.795   8.569  1.4016 -1.6784 -1.5109
 2437SOL    HW2 7311   4.713   3.840   8.539  1.7863  1.7179  4.0572
 2438SOL     OW 7312   2.276   2.931   8.011  0.5509 -0.4931 -0.3394
 2438SOL    HW1 7313   2.223   2.922   7.932  0.9911 -0.2736 -0.6644
 2438SOL    HW2 7314   2.366   2.917   7.981  1.4481  4.6125 -0.9937
 2439SOL     OW 7315   0.580   2.727   7.877 -0.0855 -0.0046 -0.3358
 2439SOL    HW1 7316   0.556   2.800   7.820  0.1589 -1.6177 -2.6426
 2439SOL    HW2 7317   0.607   2.657   7.817  3.0776 -0.8853  1.8227
 2440SOL     OW 7318   3.359   1.983   7.915 -0.9201 -0.0872  0.5744
 2440SOL    HW1 7319   3.269   2.005   7.940 -1.4329 -1.7533  0.3563
 2440SOL    HW2 7320   3.349   1.925   7.839  0.3120 -0.7188  0.8688
 2441SOL     OW 7321   2.656   4.066   7.911  0.4606 -0.5212  0.1775
 2441SOL    HW1 7322   2.561   4.071   7.898  0.4874 -1.9275 -0.7599
 2441SOL    HW2 7323   2.679   3.976   7.886  2.0422 -0.1945  0.3731
 2442SOL     OW 7324   1.098   3.131   7.132  0.4990 -0.1320  0.0894
 2442SOL    HW1 7325   1.048   3.104   7.210 -0.9583  1.9026 -0.0571
 2442SOL    HW2 7326   1.099   3.052   7.077 -1.5753 -0.6249  0.6332
 2443SOL     OW 7327   0.961   1.381   7.551  0.3877 -0.7763  0.5605
 2443SOL    HW1 7328   0.899   1.319   7.589 -0.6379 -0.4917 -0.5853
 2443SOL    HW2 7329   1.008   1.330   7.485  0.5489 -0.6773  0.5969
 2444SOL     OW 7330   2.810   3.993   9.059 -0.4943  0.9813  0.1061
 2444SOL    HW1 7331   2.890   3.994   9.006  2.5182  0.2466  4.1099
 2444SOL    HW2 7332   2.771   3.907   9.042  0.9974  0.3107 -0.0919
 2445SOL     OW 7333   2.186   2.612   4.952  0.2896  0.0325 -0.3654
 2445SOL    HW1 7334   2.135   2.597   5.031  1.9251  0.7426  0.8860
 2445SOL    HW2 7335   2.140   2.563   4.884 -0.9761 -0.8759  1.0801
 2446SOL     OW 7336   2.987   3.802   8.201 -0.3342 -0.5824  0.1049
 2446SOL    HW1 7337   3.058   3.861   8.228 -0.0753  0.2103 -2.1058
 2446SOL    HW2 7338   2.934   3.790   8.280  0.4647  1.4094  1.0043
 2447SOL     OW 7339   4.856   2.034   9.703 -0.0543  0.0920  0.4936
 2447SOL    HW1 7340   4.814   2.072   9.626 -1.6373  2.3367  2.3262
 2447SOL    HW2 7341   4.907   1.960   9.669 -2.7092 -0.6262 -2.3656
 2448SOL     OW 7342   1.650   2.429   6.850  0.4893  0.3078 -0.5704
 2448SOL    HW1 7343   1.612   2.432   6.938  0.5772 -0.8674 -0.4743
 2448SOL    HW2 7344   1.581   2.394   6.795  1.3362 -1.7366 -0.4168
 2449SOL     OW 7345   4.212   0.097   5.298 -0.2257 -0.6836 -0.3356
 2449SOL    HW1 7346   4.265   0.136   5.228  1.3821  0.3422  1.3606
 2449SOL    HW2 7347   4.261   0.117   5.378 -0.9836 -3.4935  0.9248
 2450SOL     OW 7348   3.078   0.854   6.385 -0.5975 -0.0399 -0.5145
 2450SOL    HW1 7349   3.079   0.867   6.290  0.4964  0.7467 -0.4156
 2450SOL    HW2 7350   3.065   0.941   6.421  2.0451  0.2106  0.0785
 2451SOL     OW 7351   0.867   0.617   9.613 -0.3475 -0.0766  0.8936
 2451SOL    HW1 7352   0.867   0.697   9.560 -2.1160 -0.3662  0.3727
 2451SOL    HW2 7353   0.912   0.553   9.559 -4.0188 -1.0033 -1.4972
 2452SOL     OW 7354   3.185   3.367   5.204  0.3086 -0.2284  0.0654
 2452SOL    HW1 7355   3.243   3.307   5.251  0.8895  0.6008  0.4295
 2452SOL    HW2 7356   3.240   3.443   5.184 -0.0573 -0.3371 -1.5246
 2453SOL     OW 7357   3.958   4.817   8.710 -0.1969 -0.5145 -0.5285
 2453SOL    HW1 7358   4.001   4.896   8.743  1.2511 -0.8368 -1.5436
 2453SOL    HW2 7359   3.958   4.757   8.785 -1.1268  0.3388  0.1918
 2454SOL     OW 7360   3.414   4.762   7.105 -0.0482 -0.2109  0.2622
 2454SOL    HW1 7361   3.390   4.675   7.136 -3.4159  0.3857 -0.2371
 2454SOL    HW2 7362   3.427   4.751   7.011 -0.6191 -0.1910  0.1747
 2455SOL     OW 7363   1.355   3.203   7.089 -0.1559 -0.1037 -0.2893
 2455SOL    HW1 7364   1.388   3.148   7.160  1.2827  1.0870  0.0184
 2455SOL    HW2 7365   1.261   3.183   7.085 -0.2613 -0.3014  1.8445
 2456SOL     OW 7366   3.122   3.750   6.913  0.4126  0.2886 -0.5700
 2456SOL    HW1 7367   3.214   3.772   6.925 -0.1309  2.3153  0.3028
 2456SOL    HW2 7368   3.080   3.774   6.995 -0.8328 -1.1945 -0.7081
 2457SOL     OW 7369   0.058   0.408   8.086  0.1306 -0.7503  0.1394
 2457SOL    HW1 7370   0.092   0.405   8.175 -1.7211 -1.8367  0.8801
 2457SOL    HW2 7371  -0.005   0.336   8.082 -0.9565  0.2122 -1.5536
 2458SOL     OW 7372   4.382   3.922   7.986  0.8084 -0.4379  0.5382
 2458SOL    HW1 7373   4.370   3.827   7.992  1.4751 -0.7789 -2.1489
 2458SOL    HW2 7374   4.458   3.933   7.929 -1.3833  1.6603 -2.2718
 2459SOL     OW 7375   2.964   0.292   9.713  0.0116 -0.2833  0.4610
 2459SOL    HW1 7376   2.899   0.273   9.645 -0.4822  0.8978  0.5776
 2459SOL    HW2 7377   3.038   0.330   9.665  0.6244 -1.5506  0.3381
 2460SOL     OW 7378   0.470   2.320   8.617  0.1875  0.3401 -0.1317
 2460SOL    HW1 7379   0.509   2.398   8.656  1.0311  0.4701 -1.2021
 2460SOL    HW2 7380   0.495   2.249   8.676  0.6574  0.6598  0.0625
 2461SOL     OW 7381   2.228   2.432   8.804  0.1506  0.1883 -0.6722
 2461SOL    HW1 7382   2.179   2.357   8.836  2.1678 -1.1216 -0.4360
 2461SOL    HW2 7383   2.277   2.399   8.729  0.9226  1.3228 -0.6973
 2462SOL     OW 7384   1.723   2.084   7.230 -0.1741  0.8611 -0.1136
 2462SOL    HW1 7385   1.803   2.120   7.191  0.6856 -0.1965  0.5957
 2462SOL    HW2 7386   1.720   1.994   7.199  0.9196 -0.2564  2.6745
 2463SOL     OW 7387   1.325   4.905   7.573  0.1467 -0.1988 -0.7131
 2463SOL    HW1 7388   1.308   4.998   7.560 -0.7614 -0.4478 -1.4903
 2463SOL    HW2 7389   1.375   4.900   7.654  0.7737  1.0109 -1.0004
 2464SOL     OW 7390   1.823   2.767   7.717 -0.0125 -0.6453 -0.4637
 2464SOL    HW1 7391   1.819   2.674   7.742  1.7840 -0.5764  0.1913
 2464SOL    HW2 7392   1.740   2.803   7.749 -1.7149 -2.4055 -2.5679
 2465SOL     OW 7393   3.711   3.670   4.897 -0.6293  0.2168  0.5737
 2465SOL    HW1 7394   3.721   3.759   4.929 -2.8298  0.7769 -0.0814
 2465SOL    HW2 7395   3.633   3.637   4.942 -0.4298 -1.0072  0.0565
 2466SOL     OW 7396   2.158   2.494   7.530 -0.0832  0.1127 -0.6311
 2466SOL    HW1 7397   2.214   2.459   7.461  0.1063 -0.6846 -0.0960
 2466SOL    HW2 7398   2.080   2.439   7.528 -0.1374  0.1776 -0.3174
 2467SOL     OW 7399   2.561   1.872   7.008  0.1928 -0.3069  0.1294
 2467SOL    HW1 7400   2.477   1.910   6.980 -0.9630 -2.4548  0.4651
 2467SOL    HW2 7401   2.583   1.810   6.938  0.7889 -0.7394  0.6917
 2468SOL     OW 7402   1.509   2.691   8.919  0.2118  0.5325  0.6054
 2468SOL    HW1 7403   1.584   2.631   8.927  0.5819  1.1257  1.9187
 2468SOL    HW2 7404   1.517   2.728   8.831  0.3239 -0.8774  0.0071
 2469SOL     OW 7405   0.525   3.985   6.642  0.0811 -0.5715 -0.5481
 2469SOL    HW1 7406   0.593   3.924   6.671  0.6168 -0.1010 -0.7849
 2469SOL    HW2 7407   0.570   4.043   6.581 -0.6261 -0.4742 -0.9837
 2470SOL     OW 7408   2.527   1.784   8.810  0.2711 -0.2364  0.1359
 2470SOL    HW1 7409   2.453   1.756   8.756 -0.8903 -0.3354  1.7174
 2470SOL    HW2 7410   2.593   1.715   8.797 -0.4946 -0.9431 -0.1131
 2471SOL     OW 7411   2.385   2.482   7.735 -0.8476 -0.1272  1.5627
 2471SOL    HW1 7412   2.289   2.485   7.735 -1.1077 -3.6923  2.5991
 2471SOL    HW2 7413   2.409   2.522   7.819 -1.2281  2.2656  0.6060
 2472SOL     OW 7414   1.177   0.318   7.358 -0.4071  0.2158 -1.0408
 2472SOL    HW1 7415   1.122   0.249   7.397  1.2422 -0.6044 -0.0866
 2472SOL    HW2 7416   1.239   0.341   7.427 -0.0449  1.6948 -1.8258
 2473SOL     OW 7417   2.812   1.662   7.706  0.0252  0.3974 -0.3908
 2473SOL    HW1 7418   2.827   1.644   7.613  1.7256  4.4352 -1.1389
 2473SOL    HW2 7419   2.900   1.662   7.745 -0.5259  0.1823  0.9175
 2474SOL     OW 7420   1.851   1.086   5.502  0.2119  0.2260  0.2410
 2474SOL    HW1 7421   1.859   1.034   5.582 -1.4937  0.7295  0.7914
 2474SOL    HW2 7422   1.941   1.107   5.477  0.8662 -1.7575  0.8004
 2475SOL     OW 7423   2.888   4.271   7.948 -0.3002 -1.9198 -0.5690
 2475SOL    HW1 7424   2.818   4.208   7.964 -1.5438 -0.6951 -0.9688
 2475SOL    HW2 7425   2.852   4.331   7.883  1.2699 -1.4590 -1.0646
 2476SOL     OW 7426   1.627   2.394   9.259 -0.2548 -0.6194 -0.0493
 2476SOL    HW1 7427   1.553   2.345   9.295 -0.0725 -2.2472 -1.7488
 2476SOL    HW2 7428   1.700   2.373   9.318 -0.7784 -0.2015  0.7724
 2477SOL     OW 7429   1.095   4.260   5.830  0.2531  0.1888 -0.3716
 2477SOL    HW1 7430   1.087   4.195   5.760  2.6412 -0.1942 -0.3524
 2477SOL    HW2 7431   1.086   4.210   5.911  0.2156  0.1992 -0.3691
 2478SOL     OW 7432   3.800   1.648   6.451 -0.7294 -0.1267 -0.3647
 2478SOL    HW1 7433   3.746   1.594   6.510  1.3629  0.4423  2.3093
 2478SOL    HW2 7434   3.828   1.588   6.382  0.3159 -2.1619  1.6948
 2479SOL     OW 7435   3.164   3.201  11.040  0.3815  0.0952  0.1490
 2479SOL    HW1 7436   3.128   3.113  11.030 -0.5061  0.5945 -1.4196
 2479SOL    HW2 7437   3.148   3.244  10.956  1.8266  1.3973  0.4758
 2480SOL     OW 7438   1.447   2.469   9.492 -0.4842 -0.4432  0.3300
 2480SOL    HW1 7439   1.399   2.431   9.566  0.4873 -0.3401  1.0368
 2480SOL    HW2 7440   1.409   2.556   9.481  0.4198  0.1856  1.7927
 2481SOL     OW 7441   0.214   2.666   5.670 -0.4379 -0.4437 -1.0559
 2481SOL    HW1 7442   0.227   2.690   5.762  1.2516  1.1672 -1.6722
 2481SOL    HW2 7443   0.181   2.745   5.628  2.3415  0.0694 -2.5226
 2482SOL     OW 7444   4.416   4.255   8.007  0.2617 -1.0490  0.4891
 2482SOL    HW1 7445   4.509   4.276   7.996  0.4486 -0.9608  2.0174
 2482SOL    HW2 7446   4.415   4.170   8.051 -0.4314 -1.9604 -1.2066
 2483SOL     OW 7447   4.106   2.523  10.055  0.3915 -0.2000 -0.7255
 2483SOL    HW1 7448   4.030   2.466  10.041 -0.0019 -0.2416  1.2721
 2483SOL    HW2 7449   4.179   2.477  10.014 -0.2560 -1.2774 -0.6946
 2484SOL     OW 7450   2.576   1.457   7.133  0.4376 -0.1339  0.3036
 2484SOL    HW1 7451   2.588   1.548   7.163  1.6030 -0.8192  2.0745
 2484SOL    HW2 7452   2.624   1.453   7.051  0.9508  0.6905  0.5410
 2485SOL     OW 7453   0.758   3.012   6.044  0.1244 -0.4123  0.4045
 2485SOL    HW1 7454   0.700   3.004   6.120  1.8783  1.4758  2.0788
 2485SOL    HW2 7455   0.813   2.934   6.048 -2.0604 -2.1549 -1.1273
 2486SOL     OW 7456   4.330   0.745   7.236  0.7456 -0.5300  0.6268
 2486SOL    HW1 7457   4.398   0.678   7.227  3.0386  1.5810  0.7879
 2486SOL    HW2 7458   4.276   0.736   7.158 -0.9185 -4.3545  1.9981
 2487SOL     OW 7459   4.698   2.683   7.102  0.2379  0.9243 -0.8040
 2487SOL    HW1 7460   4.622   2.726   7.140 -1.6644 -2.0292 -0.9038
 2487SOL    HW2 7461   4.696   2.708   7.009 -0.7493  0.7595 -0.8401
 2488SOL     OW 7462   3.701   1.120   7.966  0.1612  0.3883  0.2807
 2488SOL    HW1 7463   3.776   1.087   8.016  1.1247  3.2169  0.9174
 2488SOL    HW2 7464   3.731   1.117   7.875  1.5097  2.2734  0.5863
 2489SOL     OW 7465   0.067   1.686   7.363 -0.3208 -0.3909 -0.1046
 2489SOL    HW1 7466   0.154   1.697   7.402 -0.0432 -0.9139 -0.5666
 2489SOL    HW2 7467   0.039   1.775   7.340  1.0266 -0.3887 -1.9415
 2490SOL     OW 7468   4.446   3.525   6.815  0.1279  0.1493 -0.0651
 2490SOL    HW1 7469   4.411   3.601   6.768 -0.7254 -1.8681 -2.9312
 2490SOL    HW2 7470   4.450   3.456   6.749  1.5072 -2.1471  2.2612
 2491SOL     OW 7471   1.634   3.315   7.055  0.5118 -0.0388  0.7339
 2491SOL    HW1 7472   1.635   3.394   7.108 -0.4414  0.5782 -0.1291
 2491SOL    HW2 7473   1.542   3.289   7.051  0.8157 -1.2684  1.0991
 2492SOL     OW 7474   2.458   2.645   9.356 -0.0459 -0.4369 -0.2248
 2492SOL    HW1 7475   2.410   2.608   9.282  0.8296  2.0725 -2.2066
 2492SOL    HW2 7476   2.393   2.696   9.403 -0.4140 -1.2989  0.2146
 2493SOL     OW 7477   4.300   1.820   7.180 -0.8390  0.1909  0.1703
 2493SOL    HW1 7478   4.222   1.765   7.193  0.6955 -1.3700  4.6108
 2493SOL    HW2 7479   4.288   1.893   7.240  0.7593  0.2953  0.4009
 2494SOL     OW 7480   0.413   2.856   7.716  0.3123  0.3655 -0.2408
 2494SOL    HW1 7481   0.328   2.838   7.755  0.6299 -1.2933 -0.2256
 2494SOL    HW2 7482   0.394   2.879   7.626 -0.1464 -0.3997 -0.3509
 2495SOL     OW 7483   3.822   4.757   6.293 -0.2281 -0.0829 -0.4557
 2495SOL    HW1 7484   3.798   4.848   6.273  0.5210  0.2284  0.0008
 2495SOL    HW2 7485   3.739   4.713   6.308 -0.5752  0.6724 -0.1045
 2496SOL     OW 7486   3.522   4.074   7.666 -0.2829 -0.5013 -0.2153
 2496SOL    HW1 7487   3.504   4.160   7.630 -0.5106 -0.2195  0.5564
 2496SOL    HW2 7488   3.616   4.075   7.686 -0.1865 -0.6080 -0.6577
 2497SOL     OW 7489   3.323   4.899  10.321 -0.4542 -0.1757  0.5311
 2497SOL    HW1 7490   3.322   4.920  10.414 -4.0276 -2.5104  1.2106
 2497SOL    HW2 7491   3.291   4.978  10.278  1.1527  0.8974  1.2289
 2498SOL     OW 7492   2.062   3.074   6.648  0.0680  0.0649  0.8100
 2498SOL    HW1 7493   2.119   3.152   6.646  2.2554 -1.4448 -2.0362
 2498SOL    HW2 7494   2.123   3.000   6.641 -2.1517 -1.6517 -3.4905
 2499SOL     OW 7495   3.051   0.536   8.871  0.2127 -0.1829  0.7579
 2499SOL    HW1 7496   3.094   0.616   8.900  3.2885 -1.0620 -0.9009
 2499SOL    HW2 7497   3.123   0.474   8.856 -1.8796 -2.6458  0.1671
 2500SOL     OW 7498   2.048   3.101   4.938 -0.9613  0.2519  0.5629
 2500SOL    HW1 7499   2.106   3.034   4.975 -0.3697 -0.2642 -1.2241
 2500SOL    HW2 7500   2.084   3.183   4.971  2.2314  0.1472 -2.1153
 2501SOL     OW 7501   4.314   0.842   5.897  0.7087  0.4287 -0.3052
 2501SOL    HW1 7502   4.308   0.867   5.989  2.1392  0.3188 -0.1596
 2501SOL    HW2 7503   4.253   0.769   5.888  1.1642 -0.1048  0.7544
 2502SOL     OW 7504   0.044   4.962   6.672 -0.2133 -0.0998  0.3907
 2502SOL    HW1 7505  -0.028   4.937   6.730 -0.3922 -1.2835 -0.3054
 2502SOL    HW2 7506   0.016   5.044   6.633 -0.6959  0.0061  0.9445
 2503SOL     OW 7507   4.929   2.621   8.455 -0.0229  0.7372 -0.3772
 2503SOL    HW1 7508   4.881   2.657   8.381  1.7727 -0.2417 -2.0947
 2503SOL    HW2 7509   4.940   2.695   8.515 -3.5722  1.0223  0.1641
 2504SOL     OW 7510   3.558   4.011   8.740 -0.2182  0.1546  0.0732
 2504SOL    HW1 7511   3.587   3.985   8.653  0.2795  5.2140 -1.5982
 2504SOL    HW2 7512   3.465   4.031   8.730  0.0628  1.7322  0.3774
 2505SOL     OW 7513   2.012   4.303  10.094 -0.6024 -0.4860 -0.5459
 2505SOL    HW1 7514   1.921   4.315  10.067 -0.3357 -1.7377 -2.1621
 2505SOL    HW2 7515   2.054   4.261  10.019  2.0119  2.5409 -1.0093
 2506SOL     OW 7516   1.366   2.377   7.554  0.4121  0.7088  0.2212
 2506SOL    HW1 7517   1.394   2.426   7.631 -1.2293  1.0934  0.6089
 2506SOL    HW2 7518   1.349   2.288   7.586  0.6805  0.6080  0.0904
 2507SOL     OW 7519   2.787   1.806   9.470  0.4492  0.2680 -0.1459
 2507SOL    HW1 7520   2.709   1.787   9.522  1.1122 -1.7119  0.1796
 2507SOL    HW2 7521   2.853   1.832   9.535  0.9905 -1.2563 -0.0533
 2508SOL     OW 7522   4.140   0.307   6.103  0.1616 -0.3016 -0.5351
 2508SOL    HW1 7523   4.076   0.289   6.035 -0.2968  1.7456 -0.6994
 2508SOL    HW2 7524   4.202   0.368   6.063  0.8617 -0.4129  0.3498
 2509SOL     OW 7525   2.885   4.585  10.134 -0.0931  0.6560  0.0007
 2509SOL    HW1 7526   2.848   4.612  10.050 -2.3038  1.1223  1.0435
 2509SOL    HW2 7527   2.870   4.660  10.192 -1.2822 -0.6867  1.5391
 2510SOL     OW 7528   2.808   2.551   8.986 -0.7628 -0.4490 -0.8321
 2510SOL    HW1 7529   2.866   2.598   8.926  0.7904 -0.4448  0.5989
 2510SOL    HW2 7530   2.815   2.459   8.959  0.1795 -0.4907 -0.4727
 2511SOL     OW 7531   3.872   4.402   9.458  0.3179 -0.1864 -0.2487
 2511SOL    HW1 7532   3.938   4.379   9.393 -1.1496 -1.3235 -1.4249
 2511SOL    HW2 7533   3.795   4.425   9.406 -0.0535  1.7770  1.0524
 2512SOL     OW 7534   1.929   1.216   8.284 -0.4561 -0.7825 -0.0134
 2512SOL    HW1 7535   1.908   1.301   8.244 -0.4666 -1.6740 -1.9873
 2512SOL    HW2 7536   1.854   1.161   8.266  0.4880 -1.8743 -0.7672
 2513SOL     OW 7537   4.975   1.164   7.079  0.5364 -0.0439  0.1680
 2513SOL    HW1 7538   5.061   1.180   7.118  0.0964  0.7726  0.8504
 2513SOL    HW2 7539   4.929   1.110   7.144  0.9931 -1.6828 -0.8184
 2514SOL     OW 7540   4.686   1.277   7.574  0.0967  0.1832  0.0868
 2514SOL    HW1 7541   4.722   1.364   7.560  1.5176  0.2232  3.2201
 2514SOL    HW2 7542   4.726   1.223   7.506 -0.9229  1.8988 -2.0053
 2515SOL     OW 7543   2.222   0.270   7.421  0.0059  0.2597  0.0385
 2515SOL    HW1 7544   2.280   0.193   7.418 -0.7382 -0.3283  0.6062
 2515SOL    HW2 7545   2.282   0.344   7.419  0.7298 -0.3194 -0.8503
 2516SOL     OW 7546   2.936   0.216   5.400 -0.0541  0.1727  0.1076
 2516SOL    HW1 7547   2.852   0.248   5.431  0.9030  2.0077  0.8933
 2516SOL    HW2 7548   2.955   0.268   5.322 -0.4541 -1.5015 -1.1877
 2517SOL     OW 7549   0.944   0.129   8.592  0.0828  0.3743 -0.1763
 2517SOL    HW1 7550   0.868   0.116   8.649 -0.2084  0.9003 -0.4424
 2517SOL    HW2 7551   1.015   0.149   8.653 -0.1055  0.4075  0.0380
 2518SOL     OW 7552   4.170   1.387   7.491  0.2643 -0.5242  0.2616
 2518SOL    HW1 7553   4.115   1.429   7.556 -0.2531  2.3047 -1.8104
 2518SOL    HW2 7554   4.168   1.446   7.415  2.7888 -2.3748 -1.4435
 2519SOL     OW 7555   4.363   2.166   6.062  0.1698 -0.2731 -0.5429
 2519SOL    HW1 7556   4.324   2.227   5.999  2.8944  1.4632 -0.7331
 2519SOL    HW2 7557   4.313   2.181   6.143  1.8367  3.8801  0.0157
 2520SOL     OW 7558   3.062   3.052   6.903  0.3266 -0.0613 -0.5826
 2520SOL    HW1 7559   3.024   3.013   6.981  2.3170 -0.3183  0.3307
 2520SOL    HW2 7560   3.063   3.146   6.920  0.5316 -0.0959 -0.4002
 2521SOL     OW 7561   1.398   0.811   7.201  0.3261  0.1808 -0.0463
 2521SOL    HW1 7562   1.450   0.734   7.226 -0.5300 -0.6168 -0.6687
 2521SOL    HW2 7563   1.349   0.834   7.280  2.7937  1.9763  1.0868
 2522SOL     OW 7564   1.839   0.084   9.388  0.3713 -0.0796 -0.0118
 2522SOL    HW1 7565   1.772   0.082   9.457 -0.6974 -1.4168 -1.0137
 2522SOL    HW2 7566   1.851  -0.008   9.364 -0.5556  0.4091 -2.7421
 2523SOL     OW 7567   4.201   4.563   9.693  0.6707  0.0182  0.1909
 2523SOL    HW1 7568   4.139   4.557   9.766 -0.0111  1.4252 -0.2354
 2523SOL    HW2 7569   4.159   4.622   9.630  1.0190 -1.5360 -1.5868
 2524SOL     OW 7570   2.706   1.285   9.548 -0.6568  0.4727  0.2121
 2524SOL    HW1 7571   2.797   1.255   9.541 -1.0684 -0.5358 -1.3894
 2524SOL    HW2 7572   2.666   1.224   9.610 -0.0151  1.6228  1.8357
 2525SOL     OW 7573   2.372   3.511   8.836 -0.0213  0.5875  0.1763
 2525SOL    HW1 7574   2.343   3.595   8.872  0.1213  0.6122  0.2349
 2525SOL    HW2 7575   2.436   3.534   8.768  0.8151  0.5018  0.9107
 2526SOL     OW 7576   1.141   2.938   6.930  0.0491  0.4548 -0.0561
 2526SOL    HW1 7577   1.061   2.934   6.877 -0.6839 -2.7391  1.0445
 2526SOL    HW2 7578   1.206   2.890   6.878  0.3240  0.2849  0.4448
 2527SOL     OW 7579   2.753   3.421   7.942 -0.8614  0.4605  0.4777
 2527SOL    HW1 7580   2.789   3.407   7.854 -0.0038 -1.4169  1.0858
 2527SOL    HW2 7581   2.663   3.390   7.937 -1.1252  1.2732  0.0255
 2528SOL     OW 7582   3.604   0.054   9.964  0.0882  0.4891  0.0793
 2528SOL    HW1 7583   3.635  -0.006   9.897  1.4897  0.7592  0.4608
 2528SOL    HW2 7584   3.563   0.126   9.915  0.2966  0.2534 -0.4435
 2529SOL     OW 7585   3.739   4.113  10.298  0.0228  0.4681 -0.0568
 2529SOL    HW1 7586   3.819   4.070  10.328 -0.4335 -1.6508 -1.5896
 2529SOL    HW2 7587   3.711   4.168  10.371  1.0047 -1.4197  1.8282
 2530SOL     OW 7588   4.273   0.085   7.656 -0.3812 -1.3574  0.2364
 2530SOL    HW1 7589   4.204   0.116   7.597  0.3685 -0.5789 -0.2688
 2530SOL    HW2 7590   4.346   0.145   7.641 -1.6176  2.0643  5.4046
 2531SOL     OW 7591   2.958   1.446   9.110 -0.1383 -0.2497 -0.4677
 2531SOL    HW1 7592   3.003   1.400   9.039  1.2071  1.3344 -0.7143
 2531SOL    HW2 7593   2.932   1.530   9.071 -1.1963 -0.1560  0.3775
 2532SOL     OW 7594   1.537   0.649   9.729 -0.0138 -0.2571  0.2408
 2532SOL    HW1 7595   1.449   0.616   9.748 -1.6694  2.5773 -1.7162
 2532SOL    HW2 7596   1.578   0.659   9.815 -1.1451 -2.6836  1.1324
 2533SOL     OW 7597   3.984   1.133   8.624  0.2891  0.0414 -0.0389
 2533SOL    HW1 7598   3.989   1.093   8.538  0.7609 -0.1635  0.0781
 2533SOL    HW2 7599   3.893   1.123   8.651  0.6981 -2.4351  0.6920
 2534SOL     OW 7600   4.823   1.067   8.886 -0.4502 -0.4004  0.3437
 2534SOL    HW1 7601   4.851   1.036   8.972 -1.4474  1.2749  1.3234
 2534SOL    HW2 7602   4.732   1.095   8.899 -1.0579 -1.3260 -1.5852
 2535SOL     OW 7603   2.710   3.949   9.718  0.7682 -0.1842 -0.2663
 2535SOL    HW1 7604   2.614   3.949   9.727  0.3980  0.5736 -3.1895
 2535SOL    HW2 7605   2.742   3.928   9.806 -2.0720 -1.0801  0.6719
 2536SOL     OW 7606   3.184   1.535   7.138  0.1754 -0.0354 -0.6046
 2536SOL    HW1 7607   3.145   1.515   7.223  1.5129 -6.3091 -0.9787
 2536SOL    HW2 7608   3.268   1.576   7.159 -0.2022 -0.0238  0.9984
 2537SOL     OW 7609   2.064   2.952   9.947 -0.2462  0.3013 -0.0304
 2537SOL    HW1 7610   2.132   2.992   9.892  0.1885  0.1065  0.3585
 2537SOL    HW2 7611   2.013   2.899   9.886 -0.4752  0.9820 -0.4501
 2538SOL     OW 7612   0.198   4.530   9.938  0.8755 -0.3278  0.4190
 2538SOL    HW1 7613   0.113   4.509   9.977  0.1374 -1.1577 -1.5042
 2538SOL    HW2 7614   0.178   4.544   9.845  2.8515 -0.5675 -0.0765
 2539SOL     OW 7615   1.970   3.471   7.380  0.2265 -0.0595 -0.2208
 2539SOL    HW1 7616   1.930   3.396   7.335  0.1277 -0.0620 -0.1279
 2539SOL    HW2 7617   2.029   3.432   7.444 -0.7535 -0.0843  0.7015
 2540SOL     OW 7618   4.399   4.282   5.903  0.9003  0.5430  0.6212
 2540SOL    HW1 7619   4.470   4.238   5.950  0.7066  0.1734  0.5669
 2540SOL    HW2 7620   4.344   4.319   5.972 -0.0744 -1.0596  0.7447
 2541SOL     OW 7621   2.767   4.289   9.094 -0.8840  0.4879  0.0172
 2541SOL    HW1 7622   2.790   4.333   9.176 -2.6447  0.0703  0.7901
 2541SOL    HW2 7623   2.808   4.203   9.101  0.1937  0.9606 -0.2289
 2542SOL     OW 7624   4.747   3.216   9.469 -0.8113  0.2449 -0.1534
 2542SOL    HW1 7625   4.830   3.227   9.423  0.0090  0.7391  1.3755
 2542SOL    HW2 7626   4.725   3.303   9.501 -0.9724 -0.1949  1.0003
 2543SOL     OW 7627   3.798   4.762  10.093  0.6982 -0.0163  0.2197
 2543SOL    HW1 7628   3.719   4.754  10.145  2.2028 -0.4730  2.5874
 2543SOL    HW2 7629   3.861   4.702  10.134  1.6002 -1.5204 -3.0275
 2544SOL     OW 7630   4.164   3.302   4.839 -0.3794 -0.6151 -0.7370
 2544SOL    HW1 7631   4.246   3.352   4.838  0.7017 -2.3098 -0.6727
 2544SOL    HW2 7632   4.100   3.361   4.800  0.4313  1.4631  0.8534
 2545SOL     OW 7633   1.607   0.958   4.970  0.1142 -0.3333  0.1581
 2545SOL    HW1 7634   1.614   1.051   4.991 -0.1248 -0.3688  0.4034
 2545SOL    HW2 7635   1.575   0.956   4.880 -1.9199 -0.1682  0.8447
 2546SOL     OW 7636   2.423   1.329   8.656  0.3867 -0.3986  0.0526
 2546SOL    HW1 7637   2.512   1.300   8.638  0.3416 -0.8259  0.5054
 2546SOL    HW2 7638   2.374   1.306   8.577  0.4102 -1.3227  0.2947
 2547SOL     OW 7639   1.517   0.967   6.718 -0.0019  0.5155  0.0000
 2547SOL    HW1 7640   1.472   0.993   6.799 -0.4937  1.0198 -0.4153
 2547SOL    HW2 7641   1.458   0.998   6.648  1.8167  2.8896 -0.6313
 2548SOL     OW 7642   4.186   0.629   7.039 -0.6032  0.6665  0.2415
 2548SOL    HW1 7643   4.228   0.543   7.044 -0.0793  1.0144  2.2918
 2548SOL    HW2 7644   4.094   0.611   7.058 -0.0903  0.8024  3.3475
 2549SOL     OW 7645   1.699  -0.009   7.010 -0.0264  0.4226 -0.2422
 2549SOL    HW1 7646   1.677   0.073   6.964  0.6933  0.1527 -1.1042
 2549SOL    HW2 7647   1.787   0.006   7.044 -1.0537  1.1411  2.3462
 2550SOL     OW 7648   2.816   0.639   8.095  0.3293 -0.0411 -0.1598
 2550SOL    HW1 7649   2.751   0.706   8.073  0.0801 -0.2751 -0.1416
 2550SOL    HW2 7650   2.894   0.664   8.045  0.4806  0.6839  0.4274
 2551SOL     OW 7651   2.337   3.440   7.644  0.3988 -0.0721  0.2016
 2551SOL    HW1 7652   2.276   3.383   7.598 -0.7071  0.5308  0.8946
 2551SOL    HW2 7653   2.359   3.392   7.724 -1.5354  0.9507  1.4241
 2552SOL     OW 7654   0.853   4.094   8.999 -0.6244  0.2486 -0.3399
 2552SOL    HW1 7655   0.779   4.101   8.938 -1.6202  0.0720  0.8277
 2552SOL    HW2 7656   0.888   4.183   9.005 -1.3268  0.5157 -0.1740
 2553SOL     OW 7657   3.005   0.700   9.978  0.1056  0.9847 -0.3592
 2553SOL    HW1 7658   2.919   0.699   9.936  0.6608  2.1734 -1.5784
 2553SOL    HW2 7659   3.054   0.768   9.932  2.6713 -1.5313 -1.6680
 2554SOL     OW 7660   3.428   5.025   8.259  0.4066  0.4111 -0.1363
 2554SOL    HW1 7661   3.382   4.946   8.289 -0.5642 -0.1139 -2.7612
 2554SOL    HW2 7662   3.518   4.995   8.245  0.0617 -0.2340 -1.0454
 2555SOL     OW 7663   2.580   2.612   8.561 -0.3292 -0.5924 -0.0148
 2555SOL    HW1 7664   2.665   2.649   8.586 -0.7270 -0.5302  1.3532
 2555SOL    HW2 7665   2.569   2.537   8.619 -1.8882  0.3183  0.9641
 2556SOL     OW 7666   2.847   1.710   9.127  0.0061  0.0210 -0.3544
 2556SOL    HW1 7667   2.802   1.671   9.202 -2.1152  1.6708 -0.6563
 2556SOL    HW2 7668   2.782   1.707   9.056  0.8652  1.2209 -1.2387
 2557SOL     OW 7669   4.098   0.719   8.289  0.1323 -0.2482 -0.3771
 2557SOL    HW1 7670   4.095   0.727   8.384  1.8405 -0.6410 -0.2616
 2557SOL    HW2 7671   4.117   0.627   8.273 -1.5437 -0.5034 -1.1777
 2558SOL     OW 7672   1.748   3.958  10.217  0.7736  0.0286 -0.1397
 2558SOL    HW1 7673   1.835   3.973  10.181  1.1365 -1.7195 -0.0768
 2558SOL    HW2 7674   1.764   3.911  10.299 -0.1647  1.4468  0.8967
 2559SOL     OW 7675   1.137   1.955   8.964 -0.1719 -0.3991  0.9354
 2559SOL    HW1 7676   1.156   2.016   8.893 -0.4475  0.8526  1.8929
 2559SOL    HW2 7677   1.213   1.897   8.966  1.1615  1.2685  1.3531
 2560SOL     OW 7678   3.083   4.985   7.756  0.4496  0.8254  0.1839
 2560SOL    HW1 7679   3.030   4.957   7.832  0.2260 -4.2108 -1.4289
 2560SOL    HW2 7680   3.028   5.048   7.710 -1.8712 -0.2434  1.3354
 2561SOL     OW 7681   0.615   1.824   7.801  0.2331 -0.7403 -0.1038
 2561SOL    HW1 7682   0.602   1.911   7.765  1.2240 -1.1524 -1.5209
 2561SOL    HW2 7683   0.556   1.820   7.876 -0.0906  1.0087 -0.2344
 2562SOL     OW 7684   3.104   0.439  10.065 -0.3211 -0.0206 -0.0952
 2562SOL    HW1 7685   3.084   0.530  10.044 -0.5116  0.1431  0.7458
 2562SOL    HW2 7686   3.181   0.418  10.013 -0.6958  0.3954 -0.8318
 2563SOL     OW 7687   4.183   2.775   9.934 -0.0424  0.6040  0.0285
 2563SOL    HW1 7688   4.134   2.697   9.960 -0.6716  1.2520  0.8550
 2563SOL    HW2 7689   4.119   2.846   9.934  0.7602  1.3655  0.5946
 2564SOL     OW 7690   3.101   3.560   6.691  0.3835 -0.0508 -0.0765
 2564SOL    HW1 7691   3.062   3.483   6.733  3.0209 -1.3572  0.1310
 2564SOL    HW2 7692   3.108   3.624   6.762  0.4600 -0.5228  0.3497
 2565SOL     OW 7693   3.209   4.497   7.398 -0.4028  0.2818  0.3979
 2565SOL    HW1 7694   3.220   4.502   7.303 -1.2976 -0.0653  0.2636
 2565SOL    HW2 7695   3.292   4.528   7.434  0.4132 -0.7994 -0.5033
 2566SOL     OW 7696   0.368   1.859   6.066 -0.2743  0.1259  0.8064
 2566SOL    HW1 7697   0.453   1.869   6.108 -0.2402  3.4668  0.1809
 2566SOL    HW2 7698   0.387   1.849   5.973 -0.5148  2.3247  0.4752
 2567SOL     OW 7699   4.566   2.413   7.146  0.2142  0.2370 -0.4668
 2567SOL    HW1 7700   4.526   2.500   7.136 -1.5092 -0.5453 -0.7442
 2567SOL    HW2 7701   4.659   2.427   7.128 -0.4237  1.5312 -3.3076
 2568SOL     OW 7702   4.324   2.614   7.093 -0.5426  0.7133 -0.4879
 2568SOL    HW1 7703   4.309   2.627   6.999 -0.4406 -0.3795 -0.6658
 2568SOL    HW2 7704   4.237   2.619   7.132 -0.3671  3.6817 -0.2752
 2569SOL     OW 7705   0.306   0.675   9.131  0.3286  0.0491  0.0411
 2569SOL    HW1 7706   0.339   0.742   9.189 -0.9110 -0.0042  0.8369
 2569SOL    HW2 7707   0.273   0.723   9.054  1.6829  0.1396 -0.5025
 2570SOL     OW 7708   4.853   0.612   8.947 -0.2008 -1.0534 -0.2220
 2570SOL    HW1 7709   4.901   0.661   9.013  0.5484  2.4464 -3.0461
 2570SOL    HW2 7710   4.875   0.520   8.964  0.6265 -0.3180  3.6863
 2571SOL     OW 7711   2.225   1.110   9.316 -0.6693  0.3078 -0.3550
 2571SOL    HW1 7712   2.203   1.092   9.224  1.5385 -2.2299 -0.5043
 2571SOL    HW2 7713   2.282   1.038   9.342 -0.5881  1.3563  2.8272
 2572SOL     OW 7714   4.427   0.754   7.511 -0.6231  0.3892  0.2747
 2572SOL    HW1 7715   4.425   0.843   7.548 -3.5256  0.3517  0.4184
 2572SOL    HW2 7716   4.383   0.762   7.426 -2.8157 -1.1833  1.1687
 2573SOL     OW 7717   4.275   3.105   8.279 -0.1555  0.0907  0.4036
 2573SOL    HW1 7718   4.217   3.034   8.308 -0.0356 -0.3208 -0.3182
 2573SOL    HW2 7719   4.223   3.184   8.287 -1.1089 -0.3660 -0.9666
 2574SOL     OW 7720   2.725   2.170   9.513 -0.0421  0.2527  0.3446
 2574SOL    HW1 7721   2.819   2.186   9.507 -0.1243  0.6614  0.0530
 2574SOL    HW2 7722   2.717   2.097   9.574  0.6058 -1.2734 -1.3292
 2575SOL     OW 7723   4.033   0.566   9.803 -0.4385  0.3584 -0.0264
 2575SOL    HW1 7724   4.051   0.495   9.742  1.3186 -1.1500  2.0826
 2575SOL    HW2 7725   4.069   0.644   9.760  2.8881 -1.0324 -0.0774
 2576SOL     OW 7726   3.674   3.247   7.925 -0.0940  0.1753 -0.6260
 2576SOL    HW1 7727   3.671   3.232   7.831 -0.5597  0.8146 -0.7162
 2576SOL    HW2 7728   3.667   3.159   7.964  1.0938 -0.1915 -1.1858
 2577SOL     OW 7729   3.953   3.559   7.220 -0.6096  0.1394  1.0289
 2577SOL    HW1 7730   3.925   3.474   7.254 -1.0940 -0.1436 -0.0362
 2577SOL    HW2 7731   4.047   3.561   7.236 -0.8540  0.1680  2.6678
 2578SOL     OW 7732   3.150   2.496   6.921 -0.4815  0.3815  0.9419
 2578SOL    HW1 7733   3.163   2.445   7.001  1.3030 -0.7844 -0.0493
 2578SOL    HW2 7734   3.225   2.555   6.917 -0.7709  0.7211  0.3320
 2579SOL     OW 7735   2.771   1.931   6.699 -0.0180  0.4372 -0.0469
 2579SOL    HW1 7736   2.821   1.849   6.700 -1.0864 -0.2285 -0.1034
 2579SOL    HW2 7737   2.838   1.999   6.690  1.1099 -0.2320  2.4144
 2580SOL     OW 7738   1.267   0.688   9.385 -0.3407  0.4493 -0.3353
 2580SOL    HW1 7739   1.196   0.740   9.346 -1.6430 -0.2441  0.9807
 2580SOL    HW2 7740   1.242   0.680   9.478  0.8462 -0.8419 -0.0981
 2581SOL     OW 7741   0.948   4.126   9.407 -0.1501  0.5268 -0.1295
 2581SOL    HW1 7742   0.931   4.082   9.491  2.5676  0.3469  0.4174
 2581SOL    HW2 7743   0.865   4.122   9.361 -0.6868 -3.2168  0.8068
 2582SOL     OW 7744   4.600   4.119   8.812 -0.0800 -0.4049 -0.0545
 2582SOL    HW1 7745   4.619   4.099   8.720  0.7402 -0.8579  0.1981
 2582SOL    HW2 7746   4.594   4.033   8.854 -3.5140 -0.3800 -0.2182
 2583SOL     OW 7747   2.906   3.557   9.227 -0.0640 -0.2664 -0.9611
 2583SOL    HW1 7748   2.880   3.572   9.136 -2.8654 -2.2365 -0.6023
 2583SOL    HW2 7749   2.834   3.593   9.279  0.7558 -0.5728  0.4379
 2584SOL     OW 7750   0.331   3.301  10.116  0.4580  0.1089 -0.2208
 2584SOL    HW1 7751   0.252   3.248  10.128 -0.4094  0.2060 -4.1589
 2584SOL    HW2 7752   0.299   3.391  10.109  1.1794  0.4040  0.1292
 2585SOL     OW 7753   4.843   2.443  10.262  0.0904  0.0341 -0.0134
 2585SOL    HW1 7754   4.918   2.386  10.282  0.2276  0.9142  2.4101
 2585SOL    HW2 7755   4.795   2.397  10.194  2.5852 -0.7739 -1.3707
 2586SOL     OW 7756   4.436   4.643   7.932  0.7760 -0.0645 -0.6470
 2586SOL    HW1 7757   4.462   4.733   7.915 -0.1376  0.1818 -0.7798
 2586SOL    HW2 7758   4.415   4.640   8.025  0.7356 -0.1225 -0.6575
 2587SOL     OW 7759   3.724   0.494   9.842 -0.0535  0.1359  0.3005
 2587SOL    HW1 7760   3.784   0.507   9.769 -0.8230  0.0837 -0.3650
 2587SOL    HW2 7761   3.733   0.572   9.895  1.7520 -0.5481  1.0892
 2588SOL     OW 7762   3.343   4.453  10.157  0.7850 -0.1303 -0.2276
 2588SOL    HW1 7763   3.328   4.396  10.232  1.4970 -0.6429 -0.4555
 2588SOL    HW2 7764   3.290   4.530  10.174  1.5900  0.1321  1.2198
 2589SOL     OW 7765   2.013   0.692  10.220 -0.4844 -0.2387 -0.6602
 2589SOL    HW1 7766   2.072   0.644  10.161  0.6727 -1.6686  1.5107
 2589SOL    HW2 7767   2.012   0.781  10.185 -0.6438 -1.1817 -3.3488
 2590SOL     OW 7768   4.555   4.907   6.383 -0.3001 -0.5464 -0.1682
 2590SOL    HW1 7769   4.495   4.847   6.427  0.8203 -1.9410 -0.4495
 2590SOL    HW2 7770   4.610   4.850   6.329  0.5514  0.7848 -0.7527
 2591SOL     OW 7771   1.195   2.228   5.271 -0.1909  0.5411  0.3167
 2591SOL    HW1 7772   1.220   2.144   5.309 -2.3574  0.6599  2.1599
 2591SOL    HW2 7773   1.150   2.204   5.190  0.9539  0.0836 -0.2190
 2592SOL     OW 7774   3.446   4.139   9.005  0.1318 -0.0449  0.3731
 2592SOL    HW1 7775   3.373   4.175   9.056  0.8308  0.3215  1.1209
 2592SOL    HW2 7776   3.425   4.046   8.996 -0.3425  0.0241  0.7322
 2593SOL     OW 7777   3.771   3.260   7.660 -0.3823 -0.1190 -0.1776
 2593SOL    HW1 7778   3.861   3.289   7.648 -0.4130 -0.7471 -2.4103
 2593SOL    HW2 7779   3.768   3.173   7.621 -1.7680 -0.4783  0.6490
 2594SOL     OW 7780   4.129   1.120   5.210 -0.2759 -1.0718  0.0202
 2594SOL    HW1 7781   4.136   1.163   5.295  0.1134 -1.6835  0.3041
 2594SOL    HW2 7782   4.126   1.027   5.230  2.1055 -1.3613 -0.7322
 2595SOL     OW 7783   2.081   2.219   9.494 -0.2513  0.2931  0.1016
 2595SOL    HW1 7784   2.066   2.193   9.403 -1.7237 -1.0837  0.6971
 2595SOL    HW2 7785   2.145   2.156   9.527  1.6546  1.8523 -0.4150
 2596SOL     OW 7786   3.797   1.170   8.304  0.6628  0.8436  0.3180
 2596SOL    HW1 7787   3.802   1.074   8.298 -0.9092  0.8133 -2.2897
 2596SOL    HW2 7788   3.751   1.186   8.386  0.4726 -0.6621  0.5456
 2597SOL     OW 7789   4.794   4.626   7.234 -0.1764 -0.5082  0.5577
 2597SOL    HW1 7790   4.726   4.565   7.263 -0.3117 -0.3993  0.4715
 2597SOL    HW2 7791   4.754   4.712   7.243  0.5409 -0.3025  2.1934
 2598SOL     OW 7792   2.247   1.660   8.278 -0.3549  0.5102 -0.3965
 2598SOL    HW1 7793   2.330   1.641   8.235 -0.5640 -2.3381  0.2322
 2598SOL    HW2 7794   2.199   1.716   8.217  1.2971  0.7160 -1.5557
 2599SOL     OW 7795   0.852   4.552  10.337 -0.1740  0.3268 -0.0351
 2599SOL    HW1 7796   0.880   4.629  10.288  2.1675 -0.0947  0.5252
 2599SOL    HW2 7797   0.799   4.502  10.275 -0.4555  1.6236 -0.8871
 2600SOL     OW 7798   4.417   3.014   9.756  0.3145  0.1316  0.2510
 2600SOL    HW1 7799   4.371   2.935   9.729  0.2977 -0.3994  1.7440
 2600SOL    HW2 7800   4.509   2.987   9.763  0.1835 -0.0210  1.6308
 2601SOL     OW 7801   1.922   2.820   9.448  0.0684  0.2157  0.1019
 2601SOL    HW1 7802   1.981   2.821   9.373 -0.9013  1.1676 -0.6789
 2601SOL    HW2 7803   1.843   2.776   9.416 -0.1956  0.2429  0.6989
 2602SOL     OW 7804   4.121   4.725   8.487 -0.2109  0.0273 -0.0726
 2602SOL    HW1 7805   4.047   4.753   8.541  0.0410  0.3519  0.1084
 2602SOL    HW2 7806   4.194   4.719   8.548  0.7132  2.9044 -0.7642
 2603SOL     OW 7807   0.856   0.180  10.242  0.1970  0.0342  0.5010
 2603SOL    HW1 7808   0.913   0.206  10.169  0.4969  0.6363  0.9351
 2603SOL    HW2 7809   0.828   0.091  10.220  0.5448  0.0846 -0.1866
 2604SOL     OW 7810   1.091   4.890   8.062  0.5660 -0.0113  0.0547
 2604SOL    HW1 7811   1.140   4.812   8.090 -1.3814 -0.4593  2.5319
 2604SOL    HW2 7812   1.002   4.859   8.051 -0.4142  1.9614  1.8044
 2605SOL     OW 7813   1.104   3.178   5.265 -0.3174  0.1579 -0.3807
 2605SOL    HW1 7814   1.105   3.274   5.275  1.6414  0.1844 -0.4650
 2605SOL    HW2 7815   1.080   3.145   5.352  0.9866  0.7132  0.2215
 2606SOL     OW 7816   4.479   0.379   4.777  0.7909  0.0089 -0.2088
 2606SOL    HW1 7817   4.533   0.309   4.814 -1.1035 -0.8787  1.0285
 2606SOL    HW2 7818   4.445   0.343   4.695  1.9476  0.5374 -0.9469
 2607SOL     OW 7819   0.108   4.546   9.373  0.3961 -0.8362 -0.2886
 2607SOL    HW1 7820   0.195   4.553   9.413 -0.0017 -0.8949  0.6284
 2607SOL    HW2 7821   0.068   4.470   9.416 -1.8392  1.8414  2.8974
 2608SOL     OW 7822   3.947   4.592   9.824  0.0721 -0.7850  0.0970
 2608SOL    HW1 7823   3.949   4.686   9.807 -0.5408 -0.8668 -0.4122
 2608SOL    HW2 7824   3.882   4.582   9.893  0.3977 -0.8032  0.4089
 2609SOL     OW 7825   0.919   3.523  10.135 -0.0446  0.2215 -0.0901
 2609SOL    HW1 7826   0.957   3.516  10.222  1.0058 -1.4949 -0.6449
 2609SOL    HW2 7827   0.966   3.596  10.094  0.2645  0.2901  0.3750
 2610SOL     OW 7828   4.356   3.733   6.663 -0.0496 -0.2299  0.0756
 2610SOL    HW1 7829   4.312   3.782   6.594 -0.6413  0.3349  0.8337
 2610SOL    HW2 7830   4.424   3.792   6.694 -1.0876  0.3530  1.3372
 2611SOL     OW 7831   3.249   3.471  10.313  0.1969  0.3457 -0.3776
 2611SOL    HW1 7832   3.235   3.461  10.407  1.9555 -3.0702 -0.3219
 2611SOL    HW2 7833   3.285   3.559  10.302  1.9276  0.0873  2.4350
 2612SOL     OW 7834   2.592   0.066  10.233  0.1876  1.0439 -0.5189
 2612SOL    HW1 7835   2.617   0.040  10.144  0.3755  1.0120 -0.4562
 2612SOL    HW2 7836   2.570   0.159  10.226  1.1713  1.2919 -0.3971
 2613SOL     OW 7837   3.217   4.894   9.751 -0.0953  0.8801 -0.0407
 2613SOL    HW1 7838   3.288   4.850   9.798  0.3084  0.5051 -0.9817
 2613SOL    HW2 7839   3.259   4.936   9.677 -0.4156  3.2648  1.0457
 2614SOL     OW 7840   3.595   0.805   8.789 -0.1182  0.0000 -0.3494
 2614SOL    HW1 7841   3.646   0.728   8.764 -0.9934  0.1772 -2.9617
 2614SOL    HW2 7842   3.618   0.820   8.881  1.5170 -2.2180 -0.3137
 2615SOL     OW 7843   1.519   1.949   8.217  0.2310  0.4063 -0.3370
 2615SOL    HW1 7844   1.491   1.859   8.201 -1.5610  0.7499  0.5782
 2615SOL    HW2 7845   1.468   2.001   8.155 -0.4829  0.9840  0.7165
 2616SOL     OW 7846   2.909   3.403   9.942 -0.2972  0.5106 -0.1498
 2616SOL    HW1 7847   2.834   3.368   9.895 -1.4551  1.4749  0.9208
 2616SOL    HW2 7848   2.971   3.427   9.873 -1.0311 -0.1231 -1.0590
 2617SOL     OW 7849   0.828   2.567   9.263 -0.1579  0.5338  0.0955
 2617SOL    HW1 7850   0.796   2.493   9.211  1.9053  0.8271 -1.7672
 2617SOL    HW2 7851   0.890   2.527   9.325 -0.2391  0.5353  0.1776
 2618SOL     OW 7852   3.347   4.527   8.276  0.2033  0.5953 -0.4079
 2618SOL    HW1 7853   3.313   4.616   8.266 -2.3334  0.2266  3.0803
 2618SOL    HW2 7854   3.271   4.474   8.298  1.7659 -2.3577 -1.5293
 2619SOL     OW 7855   3.122   1.332   9.781 -0.1607  0.5081  0.2631
 2619SOL    HW1 7856   3.066   1.410   9.777  1.0123  1.3171 -0.9845
 2619SOL    HW2 7857   3.087   1.274   9.713  1.6414  1.8564 -1.9587
 2620SOL     OW 7858   1.799   3.402   9.045  0.6239 -0.0222  0.8354
 2620SOL    HW1 7859   1.804   3.315   9.086  1.0921 -0.2198  0.3821
 2620SOL    HW2 7860   1.765   3.385   8.957 -0.3160  0.3891  1.1071
 2621SOL     OW 7861   1.284   3.394   7.458  0.1920  0.4719  0.1296
 2621SOL    HW1 7862   1.193   3.422   7.461  0.0171 -0.1505  0.7282
 2621SOL    HW2 7863   1.299   3.348   7.540  0.6749 -0.5654 -0.5032
 2622SOL     OW 7864   3.016   2.747   8.033 -0.3437  0.5252  0.2554
 2622SOL    HW1 7865   3.005   2.655   8.008  0.5528  0.6886 -0.8483
 2622SOL    HW2 7866   2.975   2.754   8.119 -1.8997 -0.5241 -0.3559
 2623SOL     OW 7867   3.953   2.613   9.142 -0.5023 -0.2296 -0.1016
 2623SOL    HW1 7868   3.924   2.523   9.124 -3.2482  0.5960 -0.3477
 2623SOL    HW2 7869   3.939   2.659   9.059  0.6476  0.4973  0.0943
 2624SOL     OW 7870   2.463   2.387   9.624  0.2852  0.1322  0.2891
 2624SOL    HW1 7871   2.504   2.330   9.558 -1.9670 -1.0094 -0.2147
 2624SOL    HW2 7872   2.411   2.449   9.572 -0.9400 -0.3246  0.9268
 2625SOL     OW 7873   2.075   2.802   6.901 -0.5080 -0.7734 -0.5380
 2625SOL    HW1 7874   2.166   2.803   6.870 -0.7258 -1.6040 -1.2253
 2625SOL    HW2 7875   2.050   2.710   6.902 -1.2775 -0.5710 -0.1513
 2626SOL     OW 7876   3.025   2.993   9.938 -0.5195 -0.2792  0.2045
 2626SOL    HW1 7877   3.102   3.034   9.978 -0.5088  1.7897 -1.7692
 2626SOL    HW2 7878   2.950   3.037   9.980 -0.5083  1.8087 -1.7606
 2627SOL     OW 7879   1.949   4.039   9.170 -0.2560  0.6535 -1.0288
 2627SOL    HW1 7880   1.948   3.947   9.145  0.4370  0.7743 -1.5361
 2627SOL    HW2 7881   2.032   4.072   9.136 -1.1406  1.8151 -2.1584
 2628SOL     OW 7882   2.770   2.918   9.534 -0.1237 -0.8111 -0.3670
 2628SOL    HW1 7883   2.860   2.919   9.567 -0.2370 -0.9764 -0.0492
 2628SOL    HW2 7884   2.734   2.834   9.564 -1.2222  0.3343  1.8167
 2629SOL     OW 7885   0.981   3.560   9.399  0.2107  0.2163  0.5888
 2629SOL    HW1 7886   1.031   3.620   9.343 -2.4052  1.8670 -0.1295
 2629SOL    HW2 7887   0.914   3.524   9.341 -0.3893 -0.7609  1.8526
 2630SOL     OW 7888   0.662   2.205   8.437 -0.2198  0.3059  0.0324
 2630SOL    HW1 7889   0.595   2.218   8.371  0.8635  2.5436 -0.7168
 2630SOL    HW2 7890   0.614   2.204   8.520 -1.2440  1.1964 -0.5261
 2631SOL     OW 7891   1.802   3.621   6.434  0.0024 -0.0128 -0.7280
 2631SOL    HW1 7892   1.843   3.548   6.479 -0.0224 -0.3458 -1.2310
 2631SOL    HW2 7893   1.872   3.659   6.381 -0.6074 -1.4124 -2.6314
 2632SOL     OW 7894   4.332   2.443   9.866  0.7203  0.3473  0.4389
 2632SOL    HW1 7895   4.403   2.424   9.805 -1.8163 -0.8945 -2.4024
 2632SOL    HW2 7896   4.273   2.501   9.817 -2.4171 -2.2832  0.7544
 2633SOL     OW 7897   2.236   0.292   8.647  0.7953  0.0895  0.2684
 2633SOL    HW1 7898   2.291   0.360   8.685  0.0905 -0.3755  2.2708
 2633SOL    HW2 7899   2.237   0.222   8.712 -0.0937 -0.9939 -0.8310
 2634SOL     OW 7900   3.754   3.876   8.935  0.1031 -0.6470 -0.1113
 2634SOL    HW1 7901   3.689   3.912   8.874  0.3888  2.1589  1.0776
 2634SOL    HW2 7902   3.833   3.927   8.919  0.8567 -1.4100  1.0492
 2635SOL     OW 7903   2.982   2.510   9.622 -0.3309  1.2521  0.2216
 2635SOL    HW1 7904   3.072   2.506   9.656  0.4120 -0.2869 -1.7521
 2635SOL    HW2 7905   2.931   2.456   9.682  0.6407 -0.1439 -0.1620
 2636SOL     OW 7906   3.028   3.969   8.889 -0.5754  0.2702  0.0889
 2636SOL    HW1 7907   3.076   3.945   8.968  0.2573 -1.5038 -0.8966
 2636SOL    HW2 7908   3.080   4.038   8.848  0.5280 -0.7849 -0.3403
 2637SOL     OW 7909   1.511   4.368   9.377 -0.1695 -0.2392 -0.3852
 2637SOL    HW1 7910   1.459   4.348   9.298 -3.2033  0.2204  1.3351
 2637SOL    HW2 7911   1.503   4.463   9.387 -0.9089 -0.4418  1.1302
 2638SOL     OW 7912   4.033   3.986   8.913  0.0116  0.1565  0.3114
 2638SOL    HW1 7913   4.093   4.003   8.841 -2.4175  1.5769 -1.5398
 2638SOL    HW2 7914   4.018   3.892   8.911  0.2969  0.1241 -0.7905
 2639SOL     OW 7915   2.936   4.341  10.324  0.0034  0.0311 -0.9463
 2639SOL    HW1 7916   2.844   4.331  10.348  0.2425 -0.3113 -0.1558
 2639SOL    HW2 7917   2.935   4.405  10.253 -0.7355  0.9030 -0.1681
 2640SOL     OW 7918   2.949   4.332   6.418  0.0316 -0.0275 -0.2594
 2640SOL    HW1 7919   2.881   4.381   6.371  0.4678  0.0483 -0.8293
 2640SOL    HW2 7920   2.933   4.351   6.510 -1.2227 -0.6557 -0.3238
 2641SOL     OW 7921   3.728   3.858   3.049  0.0449 -0.3654  0.4127
 2641SOL    HW1 7922   3.724   3.950   3.073 -1.6054  0.4175 -2.3185
 2641SOL    HW2 7923   3.820   3.843   3.028  0.2607  0.8053  0.4365
 2642SOL     OW 7924   3.925   4.660   9.200  0.2061  0.0289 -0.4440
 2642SOL    HW1 7925   3.931   4.670   9.105 -3.4790 -1.9166 -1.0918
 2642SOL    HW2 7926   3.956   4.571   9.217 -0.5109 -0.1622 -0.0766
 2643SOL     OW 7927   0.740   2.188   7.752  0.0019 -0.3963 -0.2694
 2643SOL    HW1 7928   0.658   2.143   7.769 -0.9095  0.8450 -1.2135
 2643SOL    HW2 7929   0.717   2.259   7.691  1.7634 -0.0210 -0.5577
 2644SOL     OW 7930   0.990   4.525   7.887 -0.0761  0.8465  1.0769
 2644SOL    HW1 7931   0.941   4.584   7.830  0.6805 -0.9355 -1.6118
 2644SOL    HW2 7932   1.077   4.564   7.892  1.1270 -0.9426 -2.5811
 2645SOL     OW 7933   1.897   0.860   9.589 -0.3012 -0.7827  0.1448
 2645SOL    HW1 7934   1.939   0.943   9.565 -0.6354 -1.0214 -1.3787
 2645SOL    HW2 7935   1.916   0.850   9.682 -0.3756  1.0652  0.3970
 2646SOL     OW 7936   3.467   3.292   8.928  0.6440 -0.4788 -0.0347
 2646SOL    HW1 7937   3.440   3.375   8.889 -2.8678 -2.0681 -1.3786
 2646SOL    HW2 7938   3.466   3.309   9.023 -2.1797  0.5098 -0.1549
 2647SOL     OW 7939   2.015   2.183   9.234 -0.1132 -0.7657  0.4463
 2647SOL    HW1 7940   1.987   2.240   9.163  1.4015  0.6887  0.9562
 2647SOL    HW2 7941   1.934   2.160   9.280 -0.7008  1.9509  0.9310
 2648SOL     OW 7942   4.058   1.532   6.247  0.4927  0.3101 -0.1645
 2648SOL    HW1 7943   4.102   1.482   6.315  0.1424 -0.1772 -0.2903
 2648SOL    HW2 7944   4.071   1.481   6.167  2.0476  1.5416 -0.7481
 2649SOL     OW 7945   1.645   2.962  10.142  0.3575 -0.3228 -0.5731
 2649SOL    HW1 7946   1.662   3.013  10.063  3.4879  0.3696  0.4052
 2649SOL    HW2 7947   1.706   2.889  10.138 -0.3385 -1.0086  0.6160
 2650SOL     OW 7948   4.218   2.517   9.620 -0.0911  0.2925 -0.9779
 2650SOL    HW1 7949   4.149   2.513   9.553  0.5363 -1.1518 -1.5852
 2650SOL    HW2 7950   4.267   2.435   9.609  0.7147  0.5299  0.5289
 2651SOL     OW 7951   0.878   0.790   9.852 -0.1909  0.7022 -0.3771
 2651SOL    HW1 7952   0.928   0.787   9.771  1.5573  1.0147  0.6396
 2651SOL    HW2 7953   0.879   0.699   9.884 -0.7478  0.6088 -0.6060
 2652SOL     OW 7954   3.306   0.035   9.161  0.7090 -0.2680  0.3931
 2652SOL    HW1 7955   3.304   0.055   9.068  2.8021 -1.5347  0.0051
 2652SOL    HW2 7956   3.395   0.058   9.189  0.1423  0.0432  2.0805
 2653SOL     OW 7957   4.065   4.898   7.414  0.0547  0.2988  0.4328
 2653SOL    HW1 7958   4.045   4.893   7.321 -1.8680 -1.1037  0.8369
 2653SOL    HW2 7959   4.005   4.834   7.454  0.9081  0.7790  2.6072
 2654SOL     OW 7960   1.056   4.794  10.221 -0.2220 -0.0792  1.4065
 2654SOL    HW1 7961   1.146   4.823  10.202 -0.9390  1.2816 -0.1532
 2654SOL    HW2 7962   1.035   4.836  10.305 -0.0991  1.2850  0.7731
 2655SOL     OW 7963   4.678   2.392   9.138 -0.3639 -0.0830  0.1665
 2655SOL    HW1 7964   4.583   2.390   9.143 -0.2889 -0.5929  2.9465
 2655SOL    HW2 7965   4.697   2.411   9.046 -3.0791 -3.4055 -1.2741
 2656SOL     OW 7966   2.865   1.896   9.728 -0.2460 -0.0658  0.2702
 2656SOL    HW1 7967   2.954   1.930   9.739 -0.5477  0.5862  0.8058
 2656SOL    HW2 7968   2.819   1.926   9.807 -0.7069 -1.1533  0.4288
 2657SOL     OW 7969   4.527   3.975   9.079 -0.8336 -0.4563  0.2998
 2657SOL    HW1 7970   4.444   4.023   9.082 -1.4798 -1.5211 -0.0927
 2657SOL    HW2 7971   4.504   3.886   9.107  0.5462 -0.2952  2.0996
 2658SOL     OW 7972   0.979   2.336  10.230  0.3622 -0.3833  0.3485
 2658SOL    HW1 7973   0.897   2.316  10.275 -0.8399 -1.0099 -1.9900
 2658SOL    HW2 7974   0.991   2.430  10.242 -1.3534 -0.0592 -0.2738
 2659SOL     OW 7975   1.057   0.644   8.615 -0.1463  0.1469  0.0308
 2659SOL    HW1 7976   1.041   0.680   8.528 -1.0328  0.4596  0.3147
 2659SOL    HW2 7977   0.984   0.677   8.669  1.3938  1.5936  1.3803
 2660SOL     OW 7978   3.631   1.577   9.089  0.0468 -0.3233 -1.0040
 2660SOL    HW1 7979   3.562   1.536   9.141 -1.6341  1.5533 -1.6593
 2660SOL    HW2 7980   3.602   1.569   8.998  2.1125 -2.0099 -1.6122
 2661SOL     OW 7981   1.420   0.540  10.474 -0.1944  0.4899 -0.2224
 2661SOL    HW1 7982   1.490   0.481  10.445  0.1913  1.6476 -1.7330
 2661SOL    HW2 7983   1.463   0.601  10.534  0.0727  1.0772 -0.9957
 2662SOL     OW 7984   2.017   4.352  10.392 -1.1059  0.5669 -0.2153
 2662SOL    HW1 7985   1.941   4.304  10.424 -1.3871  1.2705  0.2079
 2662SOL    HW2 7986   2.012   4.346  10.297 -0.5054 -1.1806 -0.1725
 2663SOL     OW 7987   0.581   2.688  10.192  0.1753 -0.0547  0.7756
 2663SOL    HW1 7988   0.526   2.618  10.157  0.5840 -0.4526  0.9286
 2663SOL    HW2 7989   0.662   2.683  10.143 -0.1282  0.9084  0.1486
 2664SOL     OW 7990   2.006   4.469   7.859 -0.0199 -0.4652  0.0420
 2664SOL    HW1 7991   2.019   4.544   7.801 -1.1965 -0.7254 -0.5845
 2664SOL    HW2 7992   2.090   4.424   7.860  0.9124  1.1848  0.9286
 2665SOL     OW 7993   4.705   2.490   9.942 -0.3993  0.8742 -0.5439
 2665SOL    HW1 7994   4.633   2.431   9.921 -0.3634  0.5110  0.2957
 2665SOL    HW2 7995   4.677   2.535  10.022  1.2204 -0.9976  1.2182
 2666SOL     OW 7996   4.075   3.881   8.328 -0.3691 -0.0840 -0.0801
 2666SOL    HW1 7997   4.159   3.885   8.282  0.7529  0.0083  1.8577
 2666SOL    HW2 7998   4.079   3.954   8.391  0.1860 -2.7793  3.3046
 2667SOL     OW 7999   4.789   4.780   5.583 -0.7870  0.0984  0.2152
 2667SOL    HW1 8000   4.812   4.867   5.549 -1.1368  0.0324 -0.1887
 2667SOL    HW2 8001   4.820   4.719   5.516  2.2804 -0.3364  1.8227
 2668SOL     OW 8002   2.996   1.816   4.969 -0.0723  0.4429  0.7555
 2668SOL    HW1 8003   2.995   1.911   4.957  1.1349  0.1999 -2.0228
 2668SOL    HW2 8004   2.974   1.780   4.883 -0.7604 -1.8361  1.7854
 2669SOL     OW 8005   2.649   0.715   5.848 -0.4522  0.2774 -1.3091
 2669SOL    HW1 8006   2.585   0.744   5.783 -1.8252 -1.1278 -0.6645
 2669SOL    HW2 8007   2.618   0.752   5.931 -1.0113 -1.1641 -0.8420
 2670SOL     OW 8008   1.027   2.283   8.109 -0.2316 -0.4319  0.5623
 2670SOL    HW1 8009   0.976   2.231   8.047  1.0889 -0.8271 -0.2373
 2670SOL    HW2 8010   0.994   2.258   8.195 -1.9934  0.0116  0.0600
 2671SOL     OW 8011   1.419   4.726   5.199 -0.3096  0.2219 -0.1264
 2671SOL    HW1 8012   1.362   4.660   5.159  0.4647 -1.3783  1.2617
 2671SOL    HW2 8013   1.371   4.754   5.278  0.9815 -1.5799  1.3818
 2672SOL     OW 8014   4.888   3.272   5.783 -0.2511  0.0438  0.0299
 2672SOL    HW1 8015   4.943   3.217   5.839 -1.4166  0.7620  1.9611
 2672SOL    HW2 8016   4.941   3.287   5.705  3.2092  2.2280  2.4963
 2673SOL     OW 8017   0.123   0.385   6.434 -0.0573  0.1294  0.1492
 2673SOL    HW1 8018   0.054   0.413   6.374 -0.4273  0.4216  0.7063
 2673SOL    HW2 8019   0.179   0.328   6.381  0.2805  1.2914 -0.8074
 2674SOL     OW 8020   3.632   3.420   6.528  0.6662 -1.0816  0.2396
 2674SOL    HW1 8021   3.692   3.443   6.599  3.4858 -0.2381 -2.2036
 2674SOL    HW2 8022   3.681   3.357   6.475 -0.8358 -0.7790 -1.6211
 2675SOL     OW 8023   3.620   4.163   6.940 -0.3771  0.2526 -0.2566
 2675SOL    HW1 8024   3.582   4.251   6.934  0.2113  0.7393  2.1420
 2675SOL    HW2 8025   3.617   4.142   7.033  1.0432 -1.5875 -0.5713
 2676SOL     OW 8026   3.104   3.836   5.098 -0.1401 -0.3714  0.3648
 2676SOL    HW1 8027   3.158   3.914   5.113 -1.0255  0.1726  0.8802
 2676SOL    HW2 8028   3.112   3.819   5.004 -2.6608  2.5009 -0.5307
 2677SOL     OW 8029   2.786   0.830   5.586 -0.2582  0.3128  0.4927
 2677SOL    HW1 8030   2.802   0.783   5.668 -1.8658 -1.3017 -0.0471
 2677SOL    HW2 8031   2.728   0.902   5.611  0.4294  0.7144  0.9764
 2678SOL     OW 8032   2.338   2.558   5.820  0.1845 -0.3485 -0.0358
 2678SOL    HW1 8033   2.342   2.486   5.884 -2.3085 -1.1107 -0.6373
 2678SOL    HW2 8034   2.333   2.515   5.735  1.6340  0.6291 -0.6536
 2679SOL     OW 8035   4.139   0.629   5.949 -0.6213  0.2966  0.4904
 2679SOL    HW1 8036   4.084   0.554   5.924 -1.1251  0.2531  1.6874
 2679SOL    HW2 8037   4.118   0.645   6.040  0.5568  0.9938  0.6603
 2680SOL     OW 8038   2.930   3.598   6.452  1.0681  0.2648 -0.0908
 2680SOL    HW1 8039   2.973   3.583   6.536  0.6709  1.1245  0.2789
 2680SOL    HW2 8040   2.842   3.627   6.476  1.6641  2.7782 -0.7400
 2681SOL     OW 8041   0.052   4.715   5.062  0.0945  0.3398 -0.2773
 2681SOL    HW1 8042   0.012   4.666   4.990  0.6758  0.9188 -1.0117
 2681SOL    HW2 8043   0.135   4.672   5.078 -0.7644 -0.8640  1.2536
 2682SOL     OW 8044   4.756   2.710   5.116 -0.8526 -0.3994  0.0267
 2682SOL    HW1 8045   4.716   2.766   5.183  0.3579  1.7760 -0.9467
 2682SOL    HW2 8046   4.709   2.730   5.036  1.3921  1.5133 -0.9390
 2683SOL     OW 8047   3.691   3.392   4.688  0.5985 -0.0060 -0.4277
 2683SOL    HW1 8048   3.744   3.469   4.668  0.1194  0.9162  1.6531
 2683SOL    HW2 8049   3.611   3.427   4.726  1.2781 -1.5085  2.7047
 2684SOL     OW 8050   5.011   4.332   9.476  0.0066 -0.5029  0.4219
 2684SOL    HW1 8051   5.049   4.263   9.531 -0.5076 -0.8622  0.3336
 2684SOL    HW2 8052   4.935   4.291   9.435 -2.5176  1.1161  3.1586
 2685SOL     OW 8053   1.639   1.376   5.844  0.4263 -0.1055 -0.5103
 2685SOL    HW1 8054   1.582   1.396   5.918  0.6264 -1.8105  0.1430
 2685SOL    HW2 8055   1.583   1.332   5.781  0.9710 -1.7542  0.1187
 2686SOL     OW 8056   1.215   4.748   5.635 -0.3027 -0.0196 -0.5152
 2686SOL    HW1 8057   1.184   4.666   5.675 -1.1147  0.9499  0.9189
 2686SOL    HW2 8058   1.183   4.817   5.693  0.5266  1.3259 -1.5932
 2687SOL     OW 8059   1.278   2.577   4.868 -0.0214  0.5907  0.3669
 2687SOL    HW1 8060   1.333   2.608   4.795 -0.1297 -1.2136 -0.5326
 2687SOL    HW2 8061   1.296   2.639   4.939  0.7859  1.8737 -0.8942
 2688SOL     OW 8062   0.026  -0.026   4.738  0.2376  0.4097  0.5303
 2688SOL    HW1 8063   0.084   0.050   4.734  1.9785 -0.8139  1.5946
 2688SOL    HW2 8064  -0.042  -0.002   4.801  2.0028  0.3321  2.5546
 2689SOL     OW 8065   1.481   1.871   6.561  0.0848 -0.4817 -0.0083
 2689SOL    HW1 8066   1.487   1.961   6.529 -1.9245  0.4535  1.8850
 2689SOL    HW2 8067   1.403   1.836   6.519 -0.2843 -0.6082  0.7525
 2690SOL     OW 8068   2.502   3.705   5.821  0.6599 -0.2401  0.0049
 2690SOL    HW1 8069   2.482   3.738   5.733 -0.4077  1.0886  0.7074
 2690SOL    HW2 8070   2.457   3.766   5.880  1.5468 -0.9720  1.4852
 2691SOL     OW 8071   0.666   1.926   8.270 -0.5723  0.6375 -0.1129
 2691SOL    HW1 8072   0.717   2.007   8.272  1.7337 -0.6012 -2.5144
 2691SOL    HW2 8073   0.695   1.878   8.347 -1.4854  1.7528  0.9756
 2692SOL     OW 8074   0.173   3.165   4.482 -0.0470 -0.0615 -0.0048
 2692SOL    HW1 8075   0.160   3.190   4.390  1.3964  1.2874  0.1115
 2692SOL    HW2 8076   0.197   3.072   4.478  0.5631  0.1217 -1.0617
 2693SOL     OW 8077   2.037   4.300   5.980  0.0176 -0.3698  0.4169
 2693SOL    HW1 8078   2.017   4.392   5.962 -1.1418 -0.6077  0.4001
 2693SOL    HW2 8079   2.019   4.289   6.074 -0.5244 -0.7275  0.2806
 2694SOL     OW 8080   2.397   0.502   4.832 -0.2237 -0.5247 -0.2367
 2694SOL    HW1 8081   2.374   0.525   4.922 -0.3537  0.8429 -0.5961
 2694SOL    HW2 8082   2.409   0.407   4.834 -0.2835 -0.5280  1.2045
 2695SOL     OW 8083   4.691   0.217   5.790  0.3269  1.2440  0.7279
 2695SOL    HW1 8084   4.668   0.190   5.880  0.7308 -1.0266  0.2077
 2695SOL    HW2 8085   4.771   0.268   5.800  0.8176  0.3370  1.6109
 2696SOL     OW 8086   3.924   2.739   6.771 -1.1342  0.3350  0.0961
 2696SOL    HW1 8087   3.907   2.653   6.809 -0.1646 -0.5390 -1.3500
 2696SOL    HW2 8088   4.006   2.768   6.811 -1.0208  0.2052 -0.0427
 2697SOL     OW 8089   0.321   4.531   5.111 -0.5306 -0.6474 -0.2865
 2697SOL    HW1 8090   0.288   4.458   5.058 -0.1592 -0.9736 -0.0668
 2697SOL    HW2 8091   0.410   4.507   5.134 -0.1436  0.2064 -0.8222
 2698SOL     OW 8092   1.984   0.774   8.761  0.5245 -0.4843  0.0816
 2698SOL    HW1 8093   1.954   0.692   8.801  0.9350 -0.6032  0.1522
 2698SOL    HW2 8094   2.004   0.830   8.836  0.2985 -0.3375  0.0338
 2699SOL     OW 8095   1.362   4.771   6.275  0.1512 -0.2284  0.2673
 2699SOL    HW1 8096   1.310   4.691   6.275  0.5968 -0.5291 -0.1524
 2699SOL    HW2 8097   1.428   4.757   6.343  0.9070 -0.6877 -0.5354
 2700SOL     OW 8098   2.329   2.723   8.560 -0.4416  0.1984  0.3473
 2700SOL    HW1 8099   2.392   2.651   8.563  0.9004  1.1868 -1.6395
 2700SOL    HW2 8100   2.330   2.752   8.469 -1.4984  2.2366  0.9109
 2701SOL     OW 8101   2.669   1.331   5.058 -0.1306 -0.0648  0.2089
 2701SOL    HW1 8102   2.684   1.308   5.150 -1.6630 -0.4827  0.3720
 2701SOL    HW2 8103   2.716   1.414   5.047  1.7832 -1.0070  0.7914
 2702SOL     OW 8104   1.840   2.145   4.395  0.0333  0.2435  0.5898
 2702SOL    HW1 8105   1.772   2.206   4.367  1.6950  1.0533 -2.0660
 2702SOL    HW2 8106   1.804   2.058   4.378 -0.0910  0.6717 -1.6153
 2703SOL     OW 8107   2.101   3.195   8.176  0.3159  0.4531  0.2773
 2703SOL    HW1 8108   2.121   3.106   8.148 -1.3372  0.7924 -2.3222
 2703SOL    HW2 8109   2.032   3.183   8.242  0.8360 -0.1836  0.7341
 2704SOL     OW 8110   3.353   4.200   5.800  0.1533 -0.6465 -0.2572
 2704SOL    HW1 8111   3.320   4.120   5.841  2.0817 -0.6823  1.4213
 2704SOL    HW2 8112   3.419   4.169   5.737 -0.6762 -0.4543 -1.2345
 2705SOL     OW 8113   2.773   3.143   4.534  0.0478  0.5305  0.1022
 2705SOL    HW1 8114   2.713   3.147   4.609 -1.4849  0.8856 -1.0841
 2705SOL    HW2 8115   2.730   3.083   4.473  1.4860 -0.0925 -0.3278
 2706SOL     OW 8116   1.989   1.755   4.887 -0.1024 -0.0024  0.4241
 2706SOL    HW1 8117   2.050   1.725   4.954  0.4021  0.7745  0.3308
 2706SOL    HW2 8118   1.916   1.793   4.936 -0.4457 -0.8019  0.5359
 2707SOL     OW 8119   0.194   0.183   4.797 -0.3820  0.5618  0.2426
 2707SOL    HW1 8120   0.175   0.268   4.759  0.0877  0.1868 -0.8724
 2707SOL    HW2 8121   0.289   0.183   4.811 -0.2909  0.0163 -0.3169
 2708SOL     OW 8122   2.190   3.989   5.142  0.8272 -0.6403  0.3633
 2708SOL    HW1 8123   2.279   4.022   5.154  0.0227  0.9326  2.5731
 2708SOL    HW2 8124   2.152   4.046   5.075  0.5599  0.7604  1.6509
 2709SOL     OW 8125   3.353   1.543   7.766 -1.0886 -0.1729 -0.3845
 2709SOL    HW1 8126   3.352   1.459   7.720 -1.3644  0.8211 -2.3177
 2709SOL    HW2 8127   3.445   1.556   7.790 -1.2457 -1.5879  1.0854
 2710SOL     OW 8128   4.587   4.110   6.652  0.3983  0.8575 -0.4153
 2710SOL    HW1 8129   4.555   4.146   6.569  1.4450 -2.3721 -2.4298
 2710SOL    HW2 8130   4.682   4.109   6.642  0.4682 -2.3911 -0.6800
 2711SOL     OW 8131   3.193   4.477   7.981 -0.7698 -0.3204  0.2031
 2711SOL    HW1 8132   3.270   4.525   8.012  1.1666 -2.0203 -1.6163
 2711SOL    HW2 8133   3.120   4.514   8.031  1.1153  1.7539  1.6480
 2712SOL     OW 8134   2.461   3.564   5.166 -0.2588 -0.5826  0.2102
 2712SOL    HW1 8135   2.542   3.600   5.203  0.8257 -1.7252 -0.9344
 2712SOL    HW2 8136   2.445   3.484   5.217  0.1384 -1.0979 -0.4454
 2713SOL     OW 8137   0.932   2.485   6.426  0.0261  0.0577  0.8805
 2713SOL    HW1 8138   0.841   2.479   6.397 -0.2769  0.8628  1.6202
 2713SOL    HW2 8139   0.928   2.537   6.507  1.0075 -0.9342  1.5842
 2714SOL     OW 8140   0.816   2.781   8.937  0.2378  1.0558  0.8301
 2714SOL    HW1 8141   0.748   2.728   8.978 -1.4604  2.1978 -0.4104
 2714SOL    HW2 8142   0.811   2.865   8.982  0.3785  1.3565  0.2876
 2715SOL     OW 8143   0.759   3.553   6.018  0.4020 -0.3401 -0.9714
 2715SOL    HW1 8144   0.737   3.466   5.986  0.4679 -0.6261 -0.2528
 2715SOL    HW2 8145   0.676   3.588   6.051  1.0876 -2.0422  3.2477
 2716SOL     OW 8146   1.909   2.802   5.580  0.2285 -0.2976 -0.1486
 2716SOL    HW1 8147   1.979   2.850   5.625  1.1326 -1.0321 -0.7089
 2716SOL    HW2 8148   1.857   2.869   5.537 -0.2475  0.3649  1.4014
 2717SOL     OW 8149   0.711   3.415   6.662 -0.0889 -0.4617 -0.2223
 2717SOL    HW1 8150   0.636   3.456   6.704  1.7000  1.3569  1.4593
 2717SOL    HW2 8151   0.759   3.373   6.734  1.6449  0.3589 -0.8463
 2718SOL     OW 8152   3.238   2.356   7.137 -0.3119  0.4045 -0.1527
 2718SOL    HW1 8153   3.319   2.372   7.185  1.0780 -1.8389 -1.5281
 2718SOL    HW2 8154   3.205   2.273   7.172  0.1715 -0.7288 -2.2012
 2719SOL     OW 8155   4.676   1.082   5.704  0.5321  0.5536  0.2569
 2719SOL    HW1 8156   4.680   0.987   5.719 -1.0280  0.2181 -1.1076
 2719SOL    HW2 8157   4.691   1.092   5.610 -0.7955  1.5059  0.1240
 2720SOL     OW 8158   0.656   3.761   6.947  0.2581  0.1821  0.6028
 2720SOL    HW1 8159   0.705   3.679   6.936  0.7617  0.5613 -0.0151
 2720SOL    HW2 8160   0.690   3.797   7.029 -0.5388 -0.6113  1.3018
 2721SOL     OW 8161   3.742   3.367   5.874 -0.8467  0.0911  0.0826
 2721SOL    HW1 8162   3.672   3.319   5.918  1.0853 -0.3503  3.0261
 2721SOL    HW2 8163   3.810   3.377   5.941  0.6330  3.2678 -1.6394
 2722SOL     OW 8164   3.367   3.641   8.642  0.4959 -0.5172 -0.4393
 2722SOL    HW1 8165   3.456   3.662   8.671  0.6279 -1.0906 -0.4213
 2722SOL    HW2 8166   3.377   3.622   8.549  0.7177 -2.4224 -0.0600
 2723SOL     OW 8167   4.770   4.844   4.677 -1.1467 -0.4212  0.3505
 2723SOL    HW1 8168   4.866   4.851   4.668 -1.0074 -1.6590  0.7117
 2723SOL    HW2 8169   4.757   4.771   4.736 -2.2261  2.7516  4.4663
 2724SOL     OW 8170   2.930   0.912   5.128  0.6787 -0.3422 -0.4188
 2724SOL    HW1 8171   2.846   0.891   5.086  0.6611  0.5654 -0.8736
 2724SOL    HW2 8172   2.939   0.848   5.199 -0.8464  0.1200  0.2282
 2725SOL     OW 8173   2.104   1.325   5.597 -0.2191  0.9054 -0.6567
 2725SOL    HW1 8174   2.023   1.370   5.573  1.2797  3.3741 -1.5098
 2725SOL    HW2 8175   2.144   1.304   5.513  0.9655  1.6384 -0.2981
 2726SOL     OW 8176   1.124   1.116   6.620  0.2213  0.2619  0.2419
 2726SOL    HW1 8177   1.112   1.185   6.685 -1.3667 -0.5616  0.8611
 2726SOL    HW2 8178   1.050   1.057   6.633  0.0257 -0.1036 -2.1050
 2727SOL     OW 8179   3.756   0.705   4.527  0.0315  0.5052 -0.2447
 2727SOL    HW1 8180   3.825   0.710   4.593 -0.8331 -0.9898  0.8160
 2727SOL    HW2 8181   3.694   0.774   4.551 -0.2906 -0.0444  0.5594
 2728SOL     OW 8182   2.825   3.175   5.894  0.0339 -0.5142  0.1021
 2728SOL    HW1 8183   2.783   3.105   5.844  0.6094 -0.1986 -0.8468
 2728SOL    HW2 8184   2.754   3.214   5.944 -0.2701 -1.9008  0.8203
 2729SOL     OW 8185   3.328   2.431   6.225  0.3697  0.1523 -0.3283
 2729SOL    HW1 8186   3.337   2.506   6.282  3.1094  1.3345 -2.0776
 2729SOL    HW2 8187   3.254   2.452   6.168 -0.6889  0.1538  1.0063
 2730SOL     OW 8188   1.934   1.199   7.202  0.6257 -0.5508  0.3943
 2730SOL    HW1 8189   1.891   1.273   7.159 -0.8791 -0.4888  1.8978
 2730SOL    HW2 8190   1.896   1.122   7.161 -0.3731 -0.4868  1.1583
 2731SOL     OW 8191   1.561   1.950   9.742  0.8674 -0.2117  0.5558
 2731SOL    HW1 8192   1.636   1.904   9.780  2.4208  0.9443 -0.9102
 2731SOL    HW2 8193   1.546   2.024   9.801  1.1958 -0.2042  0.6363
 2732SOL     OW 8194   3.887   3.865   5.931  0.3048 -0.5218 -0.0111
 2732SOL    HW1 8195   3.839   3.919   5.868 -0.2080  1.1590  1.7000
 2732SOL    HW2 8196   3.825   3.796   5.955 -0.5981  0.5153  0.7564
 2733SOL     OW 8197   3.485   4.660   8.924 -0.3433  0.7157 -0.0119
 2733SOL    HW1 8198   3.530   4.639   8.842  0.7975  0.9161  0.5309
 2733SOL    HW2 8199   3.474   4.575   8.967  1.1407  0.8215  0.6343
 2734SOL     OW 8200   1.319   4.373   5.672  0.2627 -0.3267 -0.1971
 2734SOL    HW1 8201   1.224   4.373   5.686  0.5835  0.3502  2.3663
 2734SOL    HW2 8202   1.346   4.283   5.691  0.1298 -0.6209 -1.3082
 2735SOL     OW 8203   0.995   4.259   4.851 -0.3895 -0.3574  0.5237
 2735SOL    HW1 8204   1.034   4.335   4.808  1.4034 -0.9501  1.0456
 2735SOL    HW2 8205   0.931   4.296   4.912  0.8710  0.7779  1.2008
 2736SOL     OW 8206   3.437   1.215   5.554  0.2869  0.2984 -0.7780
 2736SOL    HW1 8207   3.462   1.157   5.482  1.3350  0.1917 -0.3573
 2736SOL    HW2 8208   3.426   1.301   5.513  0.0371  0.0688 -1.1948
 2737SOL     OW 8209   1.994   1.822   5.688  0.0041  0.2038 -0.0758
 2737SOL    HW1 8210   2.069   1.767   5.667 -0.1588 -0.3350  0.6963
 2737SOL    HW2 8211   1.921   1.781   5.643  0.2032  0.9119 -1.0961
 2738SOL     OW 8212   0.697   0.624   6.911 -0.7185 -0.3025  0.0256
 2738SOL    HW1 8213   0.637   0.568   6.861 -2.3195  0.6936  0.7551
 2738SOL    HW2 8214   0.711   0.700   6.854  3.4746 -2.3222 -2.1101
 2739SOL     OW 8215   2.606   1.834   7.619  0.4812  0.0095  0.2784
 2739SOL    HW1 8216   2.664   1.911   7.613 -0.7689  1.0137  0.6223
 2739SOL    HW2 8217   2.663   1.760   7.601  1.5363  1.0921 -1.0570
 2740SOL     OW 8218   3.721   0.710   6.281  0.2089  0.1581  0.0645
 2740SOL    HW1 8219   3.724   0.615   6.280 -0.7134  0.1260 -0.7535
 2740SOL    HW2 8220   3.729   0.735   6.189  1.3134  0.9205  0.3401
 2741SOL     OW 8221   2.181   3.319   5.024  0.3852 -0.0106  0.2411
 2741SOL    HW1 8222   2.175   3.399   5.076  1.4666  0.4621 -0.3235
 2741SOL    HW2 8223   2.226   3.347   4.944 -3.0774 -0.2184 -1.9657
 2742SOL     OW 8224   2.329   4.595   5.766 -0.1129 -0.1510  0.7304
 2742SOL    HW1 8225   2.314   4.655   5.694 -1.0703 -1.7386 -0.4610
 2742SOL    HW2 8226   2.287   4.637   5.841 -0.3200  0.8837  0.0586
 2743SOL     OW 8227   1.014   4.661   6.731 -0.3960 -0.0978  0.3216
 2743SOL    HW1 8228   1.040   4.744   6.691 -0.0413 -0.3128  0.0889
 2743SOL    HW2 8229   1.096   4.610   6.735 -0.2966  0.1357  1.8794
 2744SOL     OW 8230   1.115   1.097   8.071 -0.0146  0.1600  0.2108
 2744SOL    HW1 8231   1.087   1.160   8.137 -0.0767 -1.1767  1.5141
 2744SOL    HW2 8232   1.058   1.021   8.084  2.1130 -1.4389  0.8832
 2745SOL     OW 8233   3.790   0.016   6.491  0.3282  0.7904 -0.1447
 2745SOL    HW1 8234   3.802   0.062   6.408 -2.7049  2.0635  0.0115
 2745SOL    HW2 8235   3.879   0.007   6.526  1.4714  2.3363 -2.3908
 2746SOL     OW 8236   4.672   3.963   7.293 -0.1064  0.3444 -0.3042
 2746SOL    HW1 8237   4.700   3.991   7.205  3.3973 -3.2852 -0.6318
 2746SOL    HW2 8238   4.580   3.940   7.282 -0.2184  1.5412 -2.5921
 2747SOL     OW 8239   4.562   2.936   6.556  0.5533  0.1120 -0.2012
 2747SOL    HW1 8240   4.643   2.986   6.563  1.7161 -1.2682 -2.6958
 2747SOL    HW2 8241   4.580   2.869   6.490 -2.1100 -1.2911  0.3544
 2748SOL     OW 8242   2.666   1.635   6.457 -0.0435 -0.4115 -0.8319
 2748SOL    HW1 8243   2.635   1.716   6.416 -1.5799  1.5355  3.6210
 2748SOL    HW2 8244   2.741   1.609   6.403  1.0003  4.3583 -2.1985
 2749SOL     OW 8245   1.649   4.518   5.022 -0.1428 -0.4163 -0.0414
 2749SOL    HW1 8246   1.730   4.550   4.983 -1.2228  1.9408 -0.5664
 2749SOL    HW2 8247   1.667   4.514   5.116  0.7161 -0.4122 -0.1991
 2750SOL     OW 8248   4.218   3.031   5.723  1.3763 -0.4390  0.6204
 2750SOL    HW1 8249   4.188   2.966   5.660  3.0669 -1.0620  0.4045
 2750SOL    HW2 8250   4.280   3.086   5.674  0.7889  0.6737  1.0866
 2751SOL     OW 8251   0.038   2.976   6.521  0.1042 -0.6986  0.2138
 2751SOL    HW1 8252  -0.035   2.915   6.531 -1.4824  1.2434  1.1514
 2751SOL    HW2 8253   0.033   3.033   6.597  0.0511  2.0737 -1.6974
 2752SOL     OW 8254   0.225   0.846   5.057  0.2915  0.0596  0.0638
 2752SOL    HW1 8255   0.314   0.818   5.077  0.6514  0.9244 -0.2735
 2752SOL    HW2 8256   0.226   0.941   5.068 -0.4333  0.1485 -0.5061
 2753SOL     OW 8257   4.281   4.842   6.514 -0.5778  0.2324  0.0296
 2753SOL    HW1 8258   4.194   4.803   6.503 -0.2412 -1.0264  1.5697
 2753SOL    HW2 8259   4.337   4.770   6.544  0.5021  1.4627  1.1144
 2754SOL     OW 8260   3.639   3.157   4.986  0.2192  0.0177 -0.5547
 2754SOL    HW1 8261   3.723   3.191   5.017 -0.1601  0.2122  0.2876
 2754SOL    HW2 8262   3.609   3.100   5.057 -0.9766  0.9744 -0.2470
 2755SOL     OW 8263   1.027   3.018   6.417 -0.5234 -0.6638  0.0390
 2755SOL    HW1 8264   1.098   3.001   6.479 -0.1879 -0.8596 -0.3972
 2755SOL    HW2 8265   1.070   3.029   6.332 -1.1235 -2.3409 -0.5244
 2756SOL     OW 8266   2.398   0.797   8.653  0.4318 -0.1669 -0.2463
 2756SOL    HW1 8267   2.398   0.737   8.578  0.3900 -1.1375  0.5147
 2756SOL    HW2 8268   2.312   0.838   8.650  0.5577  0.0650 -0.9315
 2757SOL     OW 8269   2.157   0.791   4.949  0.3063 -0.4095  0.2395
 2757SOL    HW1 8270   2.122   0.880   4.940  2.7751  0.8747  1.9641
 2757SOL    HW2 8271   2.125   0.762   5.035  0.9184 -0.4457  0.4611
 2758SOL     OW 8272   0.134   4.295   7.256  0.0204 -0.2372 -0.2616
 2758SOL    HW1 8273   0.224   4.327   7.259 -0.5437  1.4896 -0.7360
 2758SOL    HW2 8274   0.095   4.340   7.181 -1.3610 -0.6304  0.1904
 2759SOL     OW 8275   0.691   4.550   5.395  0.5543  0.0124 -0.6668
 2759SOL    HW1 8276   0.744   4.625   5.367 -1.3286  2.5505  1.8777
 2759SOL    HW2 8277   0.728   4.525   5.479 -1.2816  0.9353  0.4857
 2760SOL     OW 8278   4.645   2.474   7.925  0.0635  0.0151 -0.7294
 2760SOL    HW1 8279   4.709   2.404   7.940  1.5732  1.4705 -0.0193
 2760SOL    HW2 8280   4.653   2.495   7.832 -1.1149 -1.3659 -1.1845
 2761SOL     OW 8281   1.290   0.230   5.859 -0.2827 -0.3817  0.6532
 2761SOL    HW1 8282   1.269   0.315   5.821  0.2440 -0.7710 -0.5473
 2761SOL    HW2 8283   1.343   0.251   5.936 -0.3396  0.3758  0.4936
 2762SOL     OW 8284   1.335   3.300   5.534  0.4192  0.3335 -0.5350
 2762SOL    HW1 8285   1.310   3.389   5.511  1.3164 -0.0085 -3.2335
 2762SOL    HW2 8286   1.426   3.292   5.504  0.3011 -1.5312 -0.5332
 2763SOL     OW 8287   3.146   3.040   4.325  0.2130  0.6005  0.0522
 2763SOL    HW1 8288   3.118   2.953   4.352  2.6105  0.1764  1.5077
 2763SOL    HW2 8289   3.242   3.036   4.326  0.4578  3.6319  1.5180
 2764SOL     OW 8290   1.524   1.973   9.470  0.0241  0.1838 -0.4122
 2764SOL    HW1 8291   1.429   1.981   9.475 -0.0218  0.1263 -1.0874
 2764SOL    HW2 8292   1.551   1.950   9.559 -0.7428 -1.3062 -0.5417
 2765SOL     OW 8293   2.120   4.120   4.927 -0.4152  0.3755 -0.0729
 2765SOL    HW1 8294   2.143   4.041   4.877 -3.0128  0.1976 -1.1135
 2765SOL    HW2 8295   2.145   4.192   4.870  0.9015  0.3350  0.4026
 2766SOL     OW 8296   3.211   0.979   8.011 -0.3220  0.4453  0.1696
 2766SOL    HW1 8297   3.304   0.956   8.011  0.2316  2.4735  0.0131
 2766SOL    HW2 8298   3.206   1.060   7.959 -2.3831 -0.3378 -0.9647
 2767SOL     OW 8299   3.514   2.198   4.796 -0.4561  0.0618 -0.0390
 2767SOL    HW1 8300   3.515   2.158   4.883  0.6342  0.8916  0.3488
 2767SOL    HW2 8301   3.422   2.213   4.777 -0.6332  1.9509  1.9557
 2768SOL     OW 8302   3.324   0.808   4.778 -0.2828  0.1829 -0.0354
 2768SOL    HW1 8303   3.260   0.842   4.842 -0.6475 -1.5485  0.5834
 2768SOL    HW2 8304   3.272   0.794   4.699  0.0520  1.7906 -0.5888
 2769SOL     OW 8305   1.720   2.916   6.276  0.7497 -0.3664  0.5002
 2769SOL    HW1 8306   1.785   2.976   6.314  1.5570 -0.3761 -0.8088
 2769SOL    HW2 8307   1.639   2.967   6.274  1.7268  1.2967 -1.9301
 2770SOL     OW 8308   3.908   4.766   5.038  0.1999 -0.2500  0.5560
 2770SOL    HW1 8309   3.937   4.819   5.112  2.0612 -0.2907 -0.0851
 2770SOL    HW2 8310   3.988   4.752   4.986 -0.6942 -1.7384 -0.4986
 2771SOL     OW 8311   2.883   4.148   6.013  0.0791  0.3687  0.0557
 2771SOL    HW1 8312   2.827   4.187   6.081 -0.7468  0.2169 -0.5281
 2771SOL    HW2 8313   2.821   4.115   5.947  0.8830  1.5563 -1.3448
 2772SOL     OW 8314   3.641   2.267   8.996  0.7141 -0.1139  0.5008
 2772SOL    HW1 8315   3.656   2.181   8.958  1.0196  0.8726 -1.7763
 2772SOL    HW2 8316   3.571   2.254   9.059  0.1198 -1.8734 -0.4671
 2773SOL     OW 8317   1.110   4.708   5.122  0.0867  0.2915 -0.3239
 2773SOL    HW1 8318   1.189   4.674   5.080 -0.2663 -2.3744  0.9618
 2773SOL    HW2 8319   1.140   4.735   5.209 -0.3836 -0.8498  0.2160
 2774SOL     OW 8320   2.642   3.666   6.514 -0.7057  0.5893  0.0024
 2774SOL    HW1 8321   2.641   3.729   6.586 -2.0710  0.7065 -0.0782
 2774SOL    HW2 8322   2.549   3.656   6.490 -0.4678 -1.0161 -0.3646
 2775SOL     OW 8323   2.549   3.668   6.180 -0.0649 -0.6522  0.2881
 2775SOL    HW1 8324   2.584   3.753   6.206 -0.2638 -0.5990  0.3768
 2775SOL    HW2 8325   2.565   3.663   6.086  0.8394 -0.9269  0.4441
 2776SOL     OW 8326   3.880   3.881   6.254  0.3356 -0.0357  0.1683
 2776SOL    HW1 8327   3.787   3.884   6.233 -0.0733  0.7469  1.9013
 2776SOL    HW2 8328   3.884   3.896   6.348  2.1302 -1.5436  0.4068
 2777SOL     OW 8329   0.230   0.993   5.882 -0.2169  0.0126 -0.0995
 2777SOL    HW1 8330   0.295   0.982   5.812  0.5469 -0.1670  0.6221
 2777SOL    HW2 8331   0.280   0.986   5.963 -0.8795  1.4024  0.4761
 2778SOL     OW 8332   4.829   4.384   6.357 -0.8093 -0.4544  0.2813
 2778SOL    HW1 8333   4.904   4.409   6.304 -2.0910  1.1300 -0.8670
 2778SOL    HW2 8334   4.818   4.290   6.341  2.1128 -1.2651  2.1224
 2779SOL     OW 8335   3.139   0.850   4.969 -0.4757  0.0320  0.4343
 2779SOL    HW1 8336   3.083   0.796   4.913 -0.4731 -1.8065  2.0829
 2779SOL    HW2 8337   3.082   0.876   5.042  0.4182 -0.7817  1.4689
 2780SOL     OW 8338   3.990   3.190   6.222  0.5807 -0.3217  0.6055
 2780SOL    HW1 8339   4.001   3.097   6.240 -0.4143 -0.5162  0.2961
 2780SOL    HW2 8340   4.074   3.218   6.185  0.3550 -1.4874 -0.8650
 2781SOL     OW 8341   4.250   0.712   7.968 -0.2096 -0.1769 -0.2476
 2781SOL    HW1 8342   4.188   0.781   7.992 -0.2290 -1.0000  2.4803
 2781SOL    HW2 8343   4.298   0.694   8.050  0.7355 -2.4304 -1.2146
 2782SOL     OW 8344   1.704   4.793   6.843 -0.1318 -1.0279  0.0694
 2782SOL    HW1 8345   1.689   4.870   6.898 -0.4013  0.6486 -2.1891
 2782SOL    HW2 8346   1.617   4.763   6.819 -0.0618  0.0219 -1.6657
 2783SOL     OW 8347   1.358   4.969   9.172  0.4019 -0.7300  0.4125
 2783SOL    HW1 8348   1.346   4.937   9.082 -0.8032  0.8625 -0.0409
 2783SOL    HW2 8349   1.271   4.962   9.211  0.9652 -1.6129  1.5665
 2784SOL     OW 8350   3.388   2.017   5.870  0.2394  0.0308  0.0372
 2784SOL    HW1 8351   3.406   1.945   5.930 -2.4017  0.2014  1.1278
 2784SOL    HW2 8352   3.314   1.987   5.818  1.2158  0.6954 -1.8425
 2785SOL     OW 8353   1.165   1.707   4.937  0.8264  0.8466  0.0333
 2785SOL    HW1 8354   1.073   1.693   4.917  1.0564 -0.4527 -0.2001
 2785SOL    HW2 8355   1.184   1.794   4.902  0.2204  0.2609 -1.8700
 2786SOL     OW 8356   0.187   1.149   9.702 -0.2669 -0.2875 -0.5100
 2786SOL    HW1 8357   0.250   1.085   9.734  0.6436  0.3054 -1.0748
 2786SOL    HW2 8358   0.201   1.226   9.757 -0.6524 -0.2228 -0.4990
 2787SOL     OW 8359   1.976   2.775   4.718  0.4629 -0.2524  0.0629
 2787SOL    HW1 8360   1.945   2.685   4.720 -0.8501  0.0650 -2.1753
 2787SOL    HW2 8361   2.060   2.773   4.763 -1.7301 -1.5619  4.6722
 2788SOL     OW 8362   0.629   2.329   7.411  0.3511 -1.0825  0.3230
 2788SOL    HW1 8363   0.569   2.333   7.485 -0.7034 -1.2282 -0.5010
 2788SOL    HW2 8364   0.661   2.419   7.401 -2.1788 -0.2700 -1.1670
 2789SOL     OW 8365   4.301   1.265   6.569  0.2546  0.0282 -0.3358
 2789SOL    HW1 8366   4.235   1.224   6.626  0.3817 -1.7017 -1.3456
 2789SOL    HW2 8367   4.340   1.334   6.623 -1.2784  0.0523  0.8249
 2790SOL     OW 8368   3.776   3.034   8.066  0.6575  0.2083  0.1150
 2790SOL    HW1 8369   3.766   2.978   8.143  1.3691 -0.4137 -0.2258
 2790SOL    HW2 8370   3.840   2.988   8.011 -1.8619 -0.8547 -2.1995
 2791SOL     OW 8371   2.673   1.197   4.783  1.1443 -0.0880  0.3001
 2791SOL    HW1 8372   2.699   1.234   4.867 -2.1801  0.6303  1.1750
 2791SOL    HW2 8373   2.680   1.102   4.795  0.1773 -0.0175  1.6549
 2792SOL     OW 8374   1.188   1.002   6.216 -0.2845 -0.0390 -0.3175
 2792SOL    HW1 8375   1.245   1.028   6.144  0.2205 -0.0817  0.0606
 2792SOL    HW2 8376   1.212   0.911   6.233 -0.9472 -0.2770 -0.6022
 2793SOL     OW 8377   3.248   1.997   5.400  0.3092  0.0812 -0.7233
 2793SOL    HW1 8378   3.203   2.020   5.319  2.5107 -0.8269 -2.3046
 2793SOL    HW2 8379   3.307   2.070   5.417  3.8819 -1.9207 -3.1629
 2794SOL     OW 8380   0.461   2.295   7.649 -0.1908  0.3645  0.1974
 2794SOL    HW1 8381   0.462   2.287   7.744 -0.0200  1.0561  0.2618
 2794SOL    HW2 8382   0.368   2.299   7.626 -0.3227 -1.9614  0.1128
 2795SOL     OW 8383   2.777   0.126   4.740 -0.8247 -0.0212  0.5581
 2795SOL    HW1 8384   2.707   0.191   4.750 -0.5633  0.7037 -1.7393
 2795SOL    HW2 8385   2.857   0.177   4.736 -0.6241 -0.4023 -1.3429
 2796SOL     OW 8386   1.726   0.338   8.712 -0.3406  0.1056  0.1525
 2796SOL    HW1 8387   1.715   0.258   8.764  0.7697 -1.8666 -2.4357
 2796SOL    HW2 8388   1.807   0.324   8.663 -0.8866  2.1985 -1.4869
 2797SOL     OW 8389   0.243   0.740  10.035  0.0230  0.7599  0.2381
 2797SOL    HW1 8390   0.322   0.748  10.090 -0.6990 -2.7100  2.0914
 2797SOL    HW2 8391   0.170   0.749  10.097 -0.9026 -0.2821 -0.6546
 2798SOL     OW 8392   4.843   4.234   4.897  0.5349  0.7245 -0.1490
 2798SOL    HW1 8393   4.814   4.325   4.894  0.6292  0.7354 -2.7402
 2798SOL    HW2 8394   4.879   4.218   4.810  4.1879 -0.6382  1.4273
 2799SOL     OW 8395   1.983   2.570   6.628  0.4651 -0.0711  0.1427
 2799SOL    HW1 8396   2.023   2.602   6.709  0.3572  4.0217 -1.1828
 2799SOL    HW2 8397   1.889   2.578   6.644  0.3954 -0.9501  0.1900
 2800SOL     OW 8398   3.880   2.117   8.262 -0.7336  0.2328  0.1079
 2800SOL    HW1 8399   3.971   2.099   8.283 -0.5967  2.9697  2.5474
 2800SOL    HW2 8400   3.874   2.102   8.167  2.2613  0.1043 -0.1620
 2801SOL     OW 8401   1.414   4.464   7.281 -0.4358  0.3554  0.0960
 2801SOL    HW1 8402   1.486   4.405   7.303 -0.4761  0.6931  1.1973
 2801SOL    HW2 8403   1.337   4.422   7.321 -0.4616  1.1436  0.8980
 2802SOL     OW 8404   0.809   3.358   5.455 -0.2179 -0.1864 -0.3162
 2802SOL    HW1 8405   0.766   3.293   5.399  2.0972 -1.9694 -0.1695
 2802SOL    HW2 8406   0.771   3.343   5.542 -0.8729 -0.2011 -0.5960
 2803SOL     OW 8407   2.158   0.817   5.617 -0.0560  0.6957  0.1601
 2803SOL    HW1 8408   2.118   0.741   5.576 -1.9273  0.2738  2.5765
 2803SOL    HW2 8409   2.084   0.872   5.644  1.2171  3.5834 -1.6973
 2804SOL     OW 8410   4.026   0.819   5.661 -0.2907  0.2564 -0.2336
 2804SOL    HW1 8411   3.997   0.760   5.730 -1.4259  2.2615  1.0911
 2804SOL    HW2 8412   3.958   0.813   5.594  0.5881 -1.3553 -1.0252
 2805SOL     OW 8413   4.369   0.067   6.238 -0.0386 -0.8162 -0.1718
 2805SOL    HW1 8414   4.431   0.004   6.274  0.4964  0.3218  0.9805
 2805SOL    HW2 8415   4.336   0.025   6.158  1.9758 -1.5908 -0.6733
 2806SOL     OW 8416   0.508   3.751   8.576  0.1724  0.1555 -0.5070
 2806SOL    HW1 8417   0.464   3.699   8.508 -0.1961 -0.0737 -0.0961
 2806SOL    HW2 8418   0.496   3.701   8.656  3.5781 -1.3784 -0.7875
 2807SOL     OW 8419   1.619   0.391   6.356  0.1107  0.0576  0.6631
 2807SOL    HW1 8420   1.562   0.460   6.391 -0.6287  0.6823 -1.6312
 2807SOL    HW2 8421   1.681   0.437   6.299 -1.1935 -1.2061 -1.9234
 2808SOL     OW 8422   2.588   3.286   7.596  0.5228  0.1785 -0.3382
 2808SOL    HW1 8423   2.664   3.317   7.644  0.7169 -2.3723  1.1976
 2808SOL    HW2 8424   2.514   3.302   7.654  0.0789  1.1431 -1.1327
 2809SOL     OW 8425   1.429   4.017   7.292 -0.3276 -0.4041 -0.0057
 2809SOL    HW1 8426   1.439   3.979   7.204 -0.4589 -0.9696  0.2181
 2809SOL    HW2 8427   1.479   4.098   7.289  3.5189 -2.5141  0.7153
 2810SOL     OW 8428   4.036   1.783   7.292 -0.2187  0.2606 -0.0765
 2810SOL    HW1 8429   4.012   1.690   7.290 -0.7271  0.3895 -0.0648
 2810SOL    HW2 8430   3.969   1.824   7.346 -0.1658  0.6872 -0.3336
 2811SOL     OW 8431   2.073   0.933  10.096 -0.9012  0.3055 -0.0972
 2811SOL    HW1 8432   2.078   0.999  10.027  1.4531 -1.2330 -1.5432
 2811SOL    HW2 8433   2.154   0.945  10.146 -0.5837 -1.2408 -0.1990
 2812SOL     OW 8434   2.357   4.305   7.422 -0.4541 -0.2712  0.2012
 2812SOL    HW1 8435   2.396   4.220   7.441 -1.8114 -0.8387  0.5459
 2812SOL    HW2 8436   2.392   4.364   7.489 -0.2610 -0.7827  0.5529
 2813SOL     OW 8437   2.870   4.439   5.869  0.6628 -0.3616 -0.1886
 2813SOL    HW1 8438   2.866   4.454   5.964  1.3384 -2.3610  0.1984
 2813SOL    HW2 8439   2.781   4.455   5.839  0.0551 -1.2283  1.0614
 2814SOL     OW 8440   4.404   3.921   7.256 -0.5873  0.2731  0.1266
 2814SOL    HW1 8441   4.393   3.862   7.181  2.0246  2.7741 -2.4664
 2814SOL    HW2 8442   4.319   3.963   7.267 -0.9348  0.1507 -1.7571
 2815SOL     OW 8443   0.737   4.968   9.005  0.5815 -0.2486  0.4321
 2815SOL    HW1 8444   0.703   4.892   9.052 -1.5241  1.1907  1.3529
 2815SOL    HW2 8445   0.798   5.009   9.066 -0.5142  0.4038  1.1244
 2816SOL     OW 8446   1.126   3.700   5.618  0.0006 -0.6296 -1.2330
 2816SOL    HW1 8447   1.062   3.664   5.679  1.5295  1.9720  2.2721
 2816SOL    HW2 8448   1.202   3.643   5.625 -0.0087 -0.6322 -1.1590
 2817SOL     OW 8449   1.633   3.065   7.220 -0.3092 -0.3237  0.1059
 2817SOL    HW1 8450   1.682   3.114   7.154 -1.2397 -0.1918 -0.5010
 2817SOL    HW2 8451   1.585   3.132   7.269 -1.9150 -0.6036 -0.9947
 2818SOL     OW 8452   4.731   1.538   5.073  0.4138  0.2257  0.1961
 2818SOL    HW1 8453   4.659   1.490   5.114 -0.6338 -0.9471 -2.7821
 2818SOL    HW2 8454   4.703   1.553   4.983  3.5294  0.4913 -0.8726
 2819SOL     OW 8455   4.834   2.919   6.759  0.4002  0.5676 -0.7348
 2819SOL    HW1 8456   4.812   2.827   6.746 -1.1255  0.9606 -1.1194
 2819SOL    HW2 8457   4.889   2.919   6.837  0.9138 -0.7282 -1.0733
 2820SOL     OW 8458   4.314   3.435   7.504  0.6397 -0.1045  0.7088
 2820SOL    HW1 8459   4.376   3.464   7.437  0.9143 -0.6070  0.7364
 2820SOL    HW2 8460   4.300   3.513   7.559 -1.5793  1.0959 -1.3692
 2821SOL     OW 8461   4.641   2.622   9.700  0.9338 -0.6958 -0.3879
 2821SOL    HW1 8462   4.697   2.551   9.730  0.5377 -1.4374 -1.3257
 2821SOL    HW2 8463   4.646   2.688   9.769  0.2368 -2.2035  1.1913
 2822SOL     OW 8464   4.396   4.363   7.543  1.0255  0.0502 -0.5124
 2822SOL    HW1 8465   4.490   4.346   7.549  1.6483  2.8979 -0.9618
 2822SOL    HW2 8466   4.369   4.379   7.633  0.3471 -3.0454 -0.0233
 2823SOL     OW 8467   3.398   4.400   8.831 -0.2689  0.3054 -0.7997
 2823SOL    HW1 8468   3.403   4.359   8.745 -1.2247 -1.6156  0.0082
 2823SOL    HW2 8469   3.424   4.331   8.892  1.2543  1.8633  0.4416
 2824SOL     OW 8470   0.947   1.974   9.961  0.9480 -0.1121  0.2043
 2824SOL    HW1 8471   0.857   1.994   9.937  0.3466 -0.6041  1.9790
 2824SOL    HW2 8472   0.965   1.889   9.919  0.6034 -0.0214 -0.1318
 2825SOL     OW 8473   2.975   2.793   9.652 -0.4227  0.2634 -0.1461
 2825SOL    HW1 8474   3.057   2.834   9.680  0.0191 -1.1566  0.7627
 2825SOL    HW2 8475   2.993   2.699   9.656 -2.2337 -0.0969  0.4674
 2826SOL     OW 8476   4.819   2.069   7.708 -0.5930 -0.1324  0.0639
 2826SOL    HW1 8477   4.820   2.043   7.800  0.6485 -2.4838 -0.5238
 2826SOL    HW2 8478   4.868   2.151   7.705 -1.2333  0.3432  1.5496
 2827SOL     OW 8479   0.725   0.298   7.354  0.5306  0.7775  0.3117
 2827SOL    HW1 8480   0.653   0.239   7.332  0.8284 -0.5551  2.6687
 2827SOL    HW2 8481   0.691   0.385   7.336 -2.2007  0.2925  2.5307
 2828SOL     OW 8482   0.641   4.807   8.351 -0.6269 -0.2995  0.7720
 2828SOL    HW1 8483   0.719   4.786   8.402 -0.2809 -0.8497  0.0469
 2828SOL    HW2 8484   0.611   4.891   8.385  2.6208  2.0785 -1.5435
 2829SOL     OW 8485   2.747   2.402   9.738  0.0708  0.1859 -0.2084
 2829SOL    HW1 8486   2.716   2.395   9.828  0.4016 -2.5517 -0.2091
 2829SOL    HW2 8487   2.677   2.362   9.685  0.1196  1.2558 -1.1156
 2830SOL     OW 8488   1.857   0.746   8.516  0.5727  0.0385  0.7559
 2830SOL    HW1 8489   1.873   0.759   8.609  4.2587 -1.3879  0.4994
 2830SOL    HW2 8490   1.922   0.802   8.473  0.6146 -1.1685 -0.8642
 2831SOL     OW 8491   1.940   3.833   7.152 -0.5776 -0.1869  0.4353
 2831SOL    HW1 8492   1.928   3.789   7.236  0.7603  0.4405  0.9707
 2831SOL    HW2 8493   1.938   3.927   7.173  1.8847 -0.0074  0.1309
 2832SOL     OW 8494   4.096   2.749   9.364 -0.6179 -0.6484  0.0877
 2832SOL    HW1 8495   4.169   2.810   9.363 -1.0208 -0.1282 -1.8708
 2832SOL    HW2 8496   4.098   2.707   9.278 -1.0069 -2.6379  0.9750
 2833SOL     OW 8497   2.953   4.596   8.034  0.8476 -0.2534 -0.3726
 2833SOL    HW1 8498   2.980   4.675   7.987 -2.0479  0.6179 -0.7555
 2833SOL    HW2 8499   2.873   4.568   7.990  0.4094 -1.9307  1.3677
 2834SOL     OW 8500   4.892   1.672   9.564 -0.2111 -0.3390  0.0937
 2834SOL    HW1 8501   4.804   1.672   9.526 -0.3025  0.5789  0.2903
 2834SOL    HW2 8502   4.933   1.750   9.529  0.9751 -1.4029 -0.9799
 2835SOL     OW 8503   0.798   1.870   5.910  0.3622  0.2325 -0.1332
 2835SOL    HW1 8504   0.744   1.941   5.875  0.8428  0.0658 -1.2490
 2835SOL    HW2 8505   0.876   1.913   5.943 -0.6557  0.5432  2.0276
 2836SOL     OW 8506   2.414   2.005   6.792 -0.5300  0.3269 -0.2102
 2836SOL    HW1 8507   2.457   1.922   6.770  0.3126  0.4075  1.0182
 2836SOL    HW2 8508   2.363   2.027   6.714 -1.9570 -2.0723 -0.0336
 2837SOL     OW 8509   1.232   4.227   7.372 -0.4197  0.4866  0.5451
 2837SOL    HW1 8510   1.190   4.280   7.304 -1.9639  0.1966  1.2260
 2837SOL    HW2 8511   1.275   4.156   7.324 -0.0147  1.2312 -0.2299
 2838SOL     OW 8512   0.412   3.497   7.472 -0.3128  0.0342 -0.1086
 2838SOL    HW1 8513   0.414   3.529   7.563  1.2958  0.4140 -0.2479
 2838SOL    HW2 8514   0.405   3.576   7.419  0.9227 -0.0097 -0.3661
 2839SOL     OW 8515   2.122   2.650   6.346 -0.8023 -0.0839  0.3220
 2839SOL    HW1 8516   2.096   2.579   6.405 -0.2708  0.3812  1.1439
 2839SOL    HW2 8517   2.209   2.675   6.377 -1.7292  2.2078  1.3083
 2840SOL     OW 8518   1.957   1.650  10.081  0.1515  0.4334 -0.4306
 2840SOL    HW1 8519   2.007   1.679  10.157  1.6710 -3.0545  0.1067
 2840SOL    HW2 8520   2.015   1.590  10.035 -0.4839  2.7234 -4.8232
 2841SOL     OW 8521   0.983   1.727   9.841  0.9076  0.1962  0.3316
 2841SOL    HW1 8522   1.003   1.691   9.927  1.9108  0.3972  0.2003
 2841SOL    HW2 8523   1.003   1.655   9.780  4.7916  1.3781 -0.1082
 2842SOL     OW 8524   4.614   3.904   7.798 -1.2973 -0.4722  0.3661
 2842SOL    HW1 8525   4.688   3.862   7.753 -0.4937  0.9523  0.3026
 2842SOL    HW2 8526   4.568   3.953   7.730  1.3370  3.7500  1.2276
 2843SOL     OW 8527   1.735   2.045   8.330  0.4012  0.1175 -0.0362
 2843SOL    HW1 8528   1.662   1.985   8.313  0.1196 -0.0040  1.4279
 2843SOL    HW2 8529   1.703   2.130   8.299  0.8196 -0.4498 -2.1669
 2844SOL     OW 8530   4.495   0.533   7.141 -0.2116 -0.3097  0.3163
 2844SOL    HW1 8531   4.589   0.523   7.149 -0.3358 -1.1251  0.7868
 2844SOL    HW2 8532   4.465   0.449   7.105 -0.7928 -0.1733  0.4760
 2845SOL     OW 8533   4.863   4.663   6.773 -0.5579  0.6609  0.3289
 2845SOL    HW1 8534   4.892   4.629   6.857 -0.3236 -1.7628 -0.6525
 2845SOL    HW2 8535   4.789   4.720   6.794  0.2973  1.1266  2.2536
 2846SOL     OW 8536   2.817   2.677   7.273 -0.0963 -0.3123  0.3636
 2846SOL    HW1 8537   2.730   2.709   7.296 -0.1610 -0.2514  0.0401
 2846SOL    HW2 8538   2.809   2.649   7.182  0.5235  0.8151 -0.0561
 2847SOL     OW 8539   1.971   1.093   9.463 -0.9587 -0.5127 -0.5155
 2847SOL    HW1 8540   1.919   1.173   9.467 -1.7796 -1.0953  1.5475
 2847SOL    HW2 8541   2.037   1.112   9.396 -0.5612  2.2352  0.4960
 2848SOL     OW 8542   4.406   1.925   5.373 -0.1022  0.1818 -0.1789
 2848SOL    HW1 8543   4.456   1.952   5.449  0.9062 -0.1321 -0.7095
 2848SOL    HW2 8544   4.470   1.920   5.302 -1.0059  0.4158 -1.0377
 2849SOL     OW 8545   1.181   2.655   8.188 -0.5752  0.1567 -0.3566
 2849SOL    HW1 8546   1.126   2.732   8.172 -1.6350 -0.0313  2.0541
 2849SOL    HW2 8547   1.136   2.607   8.257  1.0820 -1.6299 -0.4387
 2850SOL     OW 8548   0.422   1.968  10.250 -0.2497  0.0431  0.4976
 2850SOL    HW1 8549   0.502   1.945  10.203  0.1723 -1.4177  1.8237
 2850SOL    HW2 8550   0.446   2.046  10.301  0.2296 -0.2038  0.6518
 2851SOL     OW 8551   3.240   3.626   7.153 -0.1652  1.2941 -0.0043
 2851SOL    HW1 8552   3.218   3.582   7.235 -0.0778 -3.3430 -2.1718
 2851SOL    HW2 8553   3.330   3.656   7.165  0.3087 -0.4743  1.2435
 2852SOL     OW 8554   0.488   1.427   8.159  0.2656 -0.4169 -0.1705
 2852SOL    HW1 8555   0.452   1.369   8.091  2.7037 -2.3559  0.0308
 2852SOL    HW2 8556   0.574   1.452   8.125  0.4601  0.7242  1.0989
 2853SOL     OW 8557   4.603   4.134   6.063 -0.6404 -0.7812 -0.9191
 2853SOL    HW1 8558   4.594   4.142   6.158  0.9505  3.7375 -0.9281
 2853SOL    HW2 8559   4.683   4.085   6.050  0.0876  0.0573  0.1905
 2854SOL     OW 8560   2.272   2.362   5.001  0.1010 -0.4116 -0.7865
 2854SOL    HW1 8561   2.295   2.454   4.986 -3.3171  0.6579 -0.2298
 2854SOL    HW2 8562   2.294   2.318   4.919 -0.1509  1.3462 -1.8370
 2855SOL     OW 8563   2.651   4.082  10.287 -0.1809 -0.5819  0.4237
 2855SOL    HW1 8564   2.654   4.154  10.349  0.5603  0.1160 -0.4008
 2855SOL    HW2 8565   2.588   4.110  10.220 -0.4308 -1.0169  0.4663
 2856SOL     OW 8566   3.459   2.496   6.893  0.0477 -0.2886 -0.4307
 2856SOL    HW1 8567   3.531   2.470   6.951 -1.6489  0.7060  2.3194
 2856SOL    HW2 8568   3.465   2.591   6.889 -1.2088 -0.1734  0.0372
 2857SOL     OW 8569   4.606   1.151   8.475  0.1308  0.3484 -0.4938
 2857SOL    HW1 8570   4.521   1.188   8.497  1.4183  1.5241  3.2237
 2857SOL    HW2 8571   4.652   1.221   8.428  0.3726  1.2386  1.0121
 2858SOL     OW 8572   4.851   0.694   8.545 -0.0384  0.1022 -0.3824
 2858SOL    HW1 8573   4.800   0.744   8.609 -1.8608 -1.5378 -0.4639
 2858SOL    HW2 8574   4.933   0.743   8.536 -0.4269  1.3025  1.8966
 2859SOL     OW 8575   3.298   0.586   8.082  0.3121  0.1243 -0.6067
 2859SOL    HW1 8576   3.370   0.590   8.144  0.9794  2.6750 -1.4289
 2859SOL    HW2 8577   3.316   0.509   8.028  3.2077  1.3669 -1.6164
 2860SOL     OW 8578   1.995   3.666   8.268 -0.5226  0.3737 -0.2007
 2860SOL    HW1 8579   2.047   3.746   8.276 -1.6923  1.1976 -0.6102
 2860SOL    HW2 8580   1.958   3.654   8.355 -1.6353  1.1995 -0.5438
 2861SOL     OW 8581   4.297   0.119   6.910  0.0870  0.1403 -0.3504
 2861SOL    HW1 8582   4.216   0.069   6.919  0.0834 -0.0083 -1.1849
 2861SOL    HW2 8583   4.322   0.109   6.818  0.7839  0.6001 -0.2192
 2862SOL     OW 8584   4.574   3.757   9.356 -0.4994  0.0428 -0.3764
 2862SOL    HW1 8585   4.479   3.759   9.345 -0.4824  0.4550 -0.4818
 2862SOL    HW2 8586   4.602   3.677   9.311 -1.0530 -1.4799  1.8524
 2863SOL     OW 8587   3.854   3.276   7.347  0.3950  0.5721 -0.3793
 2863SOL    HW1 8588   3.798   3.207   7.381  0.1009 -0.1626 -2.2018
 2863SOL    HW2 8589   3.943   3.248   7.368  0.2136  0.3431  0.0885
 2864SOL     OW 8590   4.233   0.166   8.585  0.0276 -0.8892 -0.0650
 2864SOL    HW1 8591   4.237   0.260   8.597  0.1692 -1.2096  3.1607
 2864SOL    HW2 8592   4.174   0.154   8.510 -0.7339  1.7193  0.0200
 2865SOL     OW 8593   2.841   1.676   7.119  0.0293  0.0757  0.5724
 2865SOL    HW1 8594   2.882   1.756   7.154  2.7237 -1.7027  1.8671
 2865SOL    HW2 8595   2.841   1.616   7.193 -3.7235 -0.6250  0.1731
 2866SOL     OW 8596   0.659   2.752   9.927  1.0859  0.0777 -0.3105
 2866SOL    HW1 8597   0.680   2.730   9.836  1.8662  0.5345 -0.2444
 2866SOL    HW2 8598   0.569   2.786   9.924  0.1957 -2.1154 -0.5653
 2867SOL     OW 8599   4.364   3.029   8.634  0.0641 -0.1293 -0.0011
 2867SOL    HW1 8600   4.319   3.110   8.654 -0.0821 -0.2016 -0.0366
 2867SOL    HW2 8601   4.306   2.984   8.572 -0.4371 -0.8100  0.9394
 2868SOL     OW 8602   2.945   0.278  10.501  0.7895 -0.5357  0.0179
 2868SOL    HW1 8603   2.924   0.308  10.589  2.3344  0.8007 -0.0258
 2868SOL    HW2 8604   2.991   0.351  10.460  0.2352 -1.1720 -1.8678
 2869SOL     OW 8605   1.445   4.953   9.750  0.3879 -0.4575  0.9114
 2869SOL    HW1 8606   1.381   4.978   9.816 -0.1042  1.2053 -0.1222
 2869SOL    HW2 8607   1.452   4.858   9.757 -1.7156 -0.6119  1.4753
 2870SOL     OW 8608   2.080   2.706   7.783 -0.0233  0.0530  0.0060
 2870SOL    HW1 8609   2.008   2.759   7.750  0.3307  0.9270  0.6053
 2870SOL    HW2 8610   2.104   2.650   7.709  0.1865  1.3683 -0.9624
 2871SOL     OW 8611   2.588   4.458   8.185  0.1648  0.0653 -0.1323
 2871SOL    HW1 8612   2.609   4.455   8.091 -1.7208  2.2036 -0.7020
 2871SOL    HW2 8613   2.531   4.383   8.199  1.8941 -1.3379 -0.2234
 2872SOL     OW 8614   1.140   4.907   9.358  0.2342 -0.1232 -0.3810
 2872SOL    HW1 8615   1.189   4.861   9.427  2.6993  0.6068 -1.5302
 2872SOL    HW2 8616   1.141   4.847   9.284  1.2812  0.7236 -1.0842
 2873SOL     OW 8617   0.595   4.155   8.853 -0.9109 -0.5019  0.0651
 2873SOL    HW1 8618   0.545   4.211   8.793 -1.5673  0.2664  1.2912
 2873SOL    HW2 8619   0.544   4.155   8.934 -0.3484 -2.0044  0.4439
 2874SOL     OW 8620   1.937   4.770   6.983 -0.3606 -0.4620 -0.6693
 2874SOL    HW1 8621   1.933   4.686   7.029 -1.2268 -0.5930 -0.9544
 2874SOL    HW2 8622   1.860   4.769   6.927  0.1410  0.1282 -1.3745
 2875SOL     OW 8623   1.258   1.755   8.485  0.1906 -0.2392  0.8270
 2875SOL    HW1 8624   1.224   1.740   8.397 -3.0094  2.1664  1.4666
 2875SOL    HW2 8625   1.330   1.816   8.473 -2.3848  2.8555 -0.0600
 2876SOL     OW 8626   3.845   4.525   5.177 -0.3663  0.2291 -0.0865
 2876SOL    HW1 8627   3.819   4.537   5.268  0.8851  0.7929  0.2070
 2876SOL    HW2 8628   3.870   4.612   5.147 -0.1607 -0.0595 -0.7702
 2877SOL     OW 8629   2.184   4.924   7.806 -0.7501 -0.1794 -0.2017
 2877SOL    HW1 8630   2.142   4.982   7.742 -1.0076  0.3122  0.4022
 2877SOL    HW2 8631   2.275   4.954   7.808 -1.2925  1.5697  1.5518
 2878SOL     OW 8632   1.669   0.486   9.566 -0.1663  0.4025 -0.1529
 2878SOL    HW1 8633   1.624   0.445   9.492  0.5005 -1.1158  0.2387
 2878SOL    HW2 8634   1.605   0.546   9.604 -1.0237  0.0629 -1.0435
 2879SOL     OW 8635   4.035   1.774   8.602  0.4016  0.6193  0.4910
 2879SOL    HW1 8636   4.071   1.796   8.516  0.1610 -0.8330 -0.0073
 2879SOL    HW2 8637   4.086   1.699   8.632 -0.5280  0.1323  0.9044
 2880SOL     OW 8638   0.796   1.595   9.047 -0.1160 -0.4625 -0.4979
 2880SOL    HW1 8639   0.780   1.689   9.057 -0.5361 -0.5723 -0.1110
 2880SOL    HW2 8640   0.882   1.581   9.086  0.6321 -0.0005 -1.8822
 2881SOL     OW 8641   1.221   1.459   8.566  0.9163  0.2522  0.3543
 2881SOL    HW1 8642   1.259   1.545   8.581 -1.3079  1.3897 -0.0992
 2881SOL    HW2 8643   1.149   1.475   8.505  0.3895 -1.9232  0.3147
 2882SOL     OW 8644   1.916   1.050   6.231 -0.3671 -0.1877  0.1340
 2882SOL    HW1 8645   1.979   1.111   6.270  0.5653 -1.3240  0.4691
 2882SOL    HW2 8646   1.929   1.059   6.137 -1.4516  1.3548  0.0958
 2883SOL     OW 8647   4.605   1.356   5.233  0.8072 -0.2357  0.7050
 2883SOL    HW1 8648   4.521   1.325   5.199  0.4205 -0.0954  1.5076
 2883SOL    HW2 8649   4.646   1.277   5.269 -0.1621  0.1096  2.7173
 2884SOL     OW 8650   3.262   3.587   9.053 -0.0778 -0.4279 -0.3541
 2884SOL    HW1 8651   3.354   3.601   9.071 -0.1997  0.6744 -0.5369
 2884SOL    HW2 8652   3.249   3.623   8.965 -0.4676 -1.5108 -0.7582
 2885SOL     OW 8653   3.975   2.288   6.712 -0.8246  0.2086  0.1354
 2885SOL    HW1 8654   3.975   2.198   6.680 -1.4390  0.8782 -1.9350
 2885SOL    HW2 8655   4.052   2.328   6.671 -1.7024  1.1363 -0.6520
 2886SOL     OW 8656   1.043   4.388   8.342 -0.2331 -0.0841  0.0193
 2886SOL    HW1 8657   1.083   4.323   8.284  1.3628 -0.7788  1.7930
 2886SOL    HW2 8658   0.960   4.410   8.300  0.6527 -0.8308 -2.2935
 2887SOL     OW 8659   2.648   2.051  10.174  0.0622  0.4504  0.0980
 2887SOL    HW1 8660   2.653   2.081  10.264 -1.9829 -2.3124  1.2683
 2887SOL    HW2 8661   2.568   2.090  10.139 -0.7422 -0.7912  0.4970
 2888SOL     OW 8662   2.281   4.065   8.815  0.3083  0.0324  0.3482
 2888SOL    HW1 8663   2.331   3.988   8.840  1.0315  0.3058 -0.2307
 2888SOL    HW2 8664   2.285   4.123   8.891  0.2530 -0.2491  0.5675
 2889SOL     OW 8665   3.763   0.978   6.945 -0.1925  0.2234  0.7779
 2889SOL    HW1 8666   3.766   1.031   7.024 -0.0717  1.9896 -0.3621
 2889SOL    HW2 8667   3.854   0.975   6.914 -0.4133  0.5824  0.0689
 2890SOL     OW 8668   0.525   0.354  10.609  0.2805 -0.3199 -0.3604
 2890SOL    HW1 8669   0.578   0.279  10.638 -0.1867 -0.4426  0.2098
 2890SOL    HW2 8670   0.520   0.345  10.514  4.6310  1.9068 -1.0027
 2891SOL     OW 8671   3.319   4.245   6.199  0.4091  0.0743 -0.2172
 2891SOL    HW1 8672   3.334   4.260   6.293  0.7348 -2.5575  0.2475
 2891SOL    HW2 8673   3.231   4.208   6.195  0.2768  0.4724 -0.9936
 2892SOL     OW 8674   2.560   1.100   5.519  0.5735 -0.0272 -0.1715
 2892SOL    HW1 8675   2.515   1.158   5.458 -0.1414 -0.0054  0.3750
 2892SOL    HW2 8676   2.599   1.158   5.584 -1.0593 -0.1798  1.0024
 2893SOL     OW 8677   0.534   0.302  10.317 -0.0631 -0.3551  0.5947
 2893SOL    HW1 8678   0.624   0.304  10.283  0.1411 -0.5555  1.1073
 2893SOL    HW2 8679   0.480   0.284  10.241  0.5839 -3.4200  0.7478
 2894SOL     OW 8680   4.813   3.689   7.648  0.6729  0.0177  0.3850
 2894SOL    HW1 8681   4.776   3.699   7.560 -0.1067 -0.7926  0.5991
 2894SOL    HW2 8682   4.907   3.679   7.633  0.8101  1.8768 -0.1908
 2895SOL     OW 8683   1.396   3.379   5.227  0.0067  0.3203 -0.8144
 2895SOL    HW1 8684   1.485   3.349   5.248 -0.7851 -0.4418  1.8509
 2895SOL    HW2 8685   1.365   3.317   5.160  1.2068  0.1667 -1.2532
 2896SOL     OW 8686   1.975   0.235   8.853 -0.1855 -1.0712 -0.5901
 2896SOL    HW1 8687   2.024   0.154   8.841  0.3239 -1.2262  1.8679
 2896SOL    HW2 8688   1.911   0.214   8.921 -0.0580  0.5577  0.0738
 2897SOL     OW 8689   1.202   3.680   7.584 -0.0072 -0.7584 -0.1292
 2897SOL    HW1 8690   1.220   3.721   7.669 -3.5644  0.9888 -0.0134
 2897SOL    HW2 8691   1.288   3.659   7.548  1.6954 -0.1710  3.2217
 2898SOL     OW 8692   0.450   2.870   9.330 -0.7320  0.0924 -0.1061
 2898SOL    HW1 8693   0.545   2.873   9.320 -0.7749 -1.6928 -1.5115
 2898SOL    HW2 8694   0.434   2.914   9.413  1.3844 -0.2203  0.5354
 2899SOL     OW 8695   2.075   3.041   8.929  0.0733  0.0070 -0.2243
 2899SOL    HW1 8696   2.069   3.135   8.912  1.4849  0.4687  1.4531
 2899SOL    HW2 8697   2.160   3.015   8.892  0.4798 -0.2045  0.8090
 2900SOL     OW 8698   3.110   1.270   8.879 -0.2295 -0.0179  0.0716
 2900SOL    HW1 8699   3.040   1.205   8.891 -0.5052  0.6338  2.6441
 2900SOL    HW2 8700   3.184   1.234   8.928  0.5896  0.2606 -0.9382
 2901SOL     OW 8701   4.143   4.350   7.062 -0.8750 -0.5435 -0.2394
 2901SOL    HW1 8702   4.103   4.361   6.976  0.7047  0.3580 -0.9056
 2901SOL    HW2 8703   4.200   4.274   7.053  1.2088  0.9756 -0.8294
 2902SOL     OW 8704   1.679   0.248   7.138  1.1875 -0.5377 -0.3017
 2902SOL    HW1 8705   1.692   0.153   7.140 -1.1310 -0.9551  2.4864
 2902SOL    HW2 8706   1.587   0.259   7.113  1.1438  0.9119  0.3863
 2903SOL     OW 8707   2.627   3.553   8.337  0.0334  0.2660  0.3368
 2903SOL    HW1 8708   2.561   3.614   8.368 -0.1940  0.3963 -0.3921
 2903SOL    HW2 8709   2.682   3.537   8.414 -0.1046  1.1140  0.6261
 2904SOL     OW 8710   2.750   3.811   9.390  0.3011  0.0841  0.3278
 2904SOL    HW1 8711   2.758   3.907   9.388  1.2956  0.0034 -0.0190
 2904SOL    HW2 8712   2.706   3.789   9.308  0.4079  0.2103  0.2366
 2905SOL     OW 8713   2.649   4.102   9.508  0.0684 -0.1479 -0.0488
 2905SOL    HW1 8714   2.608   4.187   9.522 -0.9939 -0.2260 -2.2701
 2905SOL    HW2 8715   2.651   4.062   9.594 -0.9412  1.4524  0.7680
 2906SOL     OW 8716   2.782   0.708   9.795 -0.5106  0.1052  0.0167
 2906SOL    HW1 8717   2.717   0.753   9.741 -0.7168 -0.1457  0.0516
 2906SOL    HW2 8718   2.733   0.635   9.835 -0.0404 -0.4922 -0.4887
 2907SOL     OW 8719   2.871   4.878  10.146  0.6076  0.5231  0.5661
 2907SOL    HW1 8720   2.822   4.933  10.084  0.1601  1.5468  1.7751
 2907SOL    HW2 8721   2.881   4.933  10.224  0.9742 -0.7979  1.4858
 2908SOL     OW 8722   4.099   1.275   7.953  0.6041  0.3239 -0.3786
 2908SOL    HW1 8723   4.028   1.313   8.004 -1.1273 -3.3773  0.3574
 2908SOL    HW2 8724   4.055   1.237   7.876  2.2381  0.3464 -1.3687
 2909SOL     OW 8725   2.324   0.720   6.844  0.6762 -0.1221 -0.4112
 2909SOL    HW1 8726   2.356   0.806   6.871  0.2579 -0.1912  0.3458
 2909SOL    HW2 8727   2.248   0.705   6.900  1.6162 -1.6364  0.5202
 2910SOL     OW 8728   3.434   0.640   5.430  0.4032 -0.1220  0.0512
 2910SOL    HW1 8729   3.386   0.574   5.381  1.0546 -1.1888  0.8191
 2910SOL    HW2 8730   3.383   0.720   5.418 -1.6779 -1.2350  0.9899
 2911SOL     OW 8731   2.536   4.956   8.265 -0.5371 -0.4641  0.1532
 2911SOL    HW1 8732   2.478   4.899   8.314 -1.2409 -0.1158 -0.2598
 2911SOL    HW2 8733   2.619   4.909   8.261 -1.4099 -1.9701 -1.1120
 2912SOL     OW 8734   2.840   1.608  10.341 -0.1279 -0.1356 -0.8029
 2912SOL    HW1 8735   2.891   1.665  10.398  1.8049 -0.0269 -2.5297
 2912SOL    HW2 8736   2.807   1.667  10.273 -0.9690 -0.5398 -0.7565
 2913SOL     OW 8737   3.374   3.720   6.273  0.0325 -0.4958 -0.3265
 2913SOL    HW1 8738   3.299   3.774   6.297 -0.2980 -1.1620  0.1706
 2913SOL    HW2 8739   3.373   3.649   6.337  0.7682 -0.8026 -0.6550
 2914SOL     OW 8740   1.581   0.340   9.312  0.0643 -0.1774 -0.7405
 2914SOL    HW1 8741   1.494   0.363   9.282  0.0993 -0.0027 -0.7100
 2914SOL    HW2 8742   1.593   0.249   9.286 -0.0295 -0.1248 -0.9657
 2915SOL     OW 8743   0.060   4.189   6.393  0.4583 -0.4221  0.2671
 2915SOL    HW1 8744   0.083   4.123   6.327 -0.7016 -1.5270  0.9080
 2915SOL    HW2 8745   0.144   4.226   6.419  1.0623 -0.9706 -0.8085
 2916SOL     OW 8746   0.999   1.426   8.094  0.3104 -0.1769 -0.3215
 2916SOL    HW1 8747   0.939   1.411   8.021 -0.4899 -1.0151  0.4657
 2916SOL    HW2 8748   0.995   1.344   8.145  0.0935  0.7365  1.1853
 2917SOL     OW 8749   1.251   3.122  10.442  0.3230 -0.4428 -0.2551
 2917SOL    HW1 8750   1.281   3.071  10.367 -0.0078 -5.8758  2.7729
 2917SOL    HW2 8751   1.158   3.139  10.423  0.0540 -2.3430 -0.8669
 2918SOL     OW 8752   2.474   0.712   8.399  0.6618 -0.5432 -0.4575
 2918SOL    HW1 8753   2.542   0.658   8.358  0.8786 -1.2800  0.8021
 2918SOL    HW2 8754   2.411   0.730   8.329  1.0187 -1.7283 -1.1033
 2919SOL     OW 8755   1.590   4.357  10.082  0.1034 -0.5225 -0.3800
 2919SOL    HW1 8756   1.585   4.448  10.110  1.6700 -0.5621  0.1545
 2919SOL    HW2 8757   1.595   4.362   9.986 -0.3348 -0.0784 -0.3816
 2920SOL     OW 8758   1.351   3.452  10.371 -0.2047  0.3475 -0.1403
 2920SOL    HW1 8759   1.328   3.392  10.442 -2.8275 -0.4203 -1.5113
 2920SOL    HW2 8760   1.285   3.436  10.304  0.8020  2.6781 -1.8148
 2921SOL     OW 8761   4.305   3.803   8.995 -0.2153  0.0115  0.3878
 2921SOL    HW1 8762   4.308   3.828   8.902 -3.0313 -1.6816 -0.2725
 2921SOL    HW2 8763   4.258   3.875   9.037  0.3551  0.4032  0.3656
 2922SOL     OW 8764   4.049   2.004   6.388  0.0939 -0.2979  0.2731
 2922SOL    HW1 8765   4.077   1.912   6.391 -0.2169 -0.3712  1.5589
 2922SOL    HW2 8766   4.097   2.046   6.459  0.5359  0.6434 -0.5582
 2923SOL     OW 8767   2.893   2.594   6.778 -0.1656 -0.5095  0.3915
 2923SOL    HW1 8768   2.989   2.598   6.769  0.1457 -2.3837  2.1170
 2923SOL    HW2 8769   2.879   2.568   6.869 -2.4431  2.5952  1.0819
 2924SOL     OW 8770   1.723   0.130   8.891  0.0693 -0.0013 -0.1278
 2924SOL    HW1 8771   1.765   0.052   8.926 -0.6247 -0.6778 -0.7489
 2924SOL    HW2 8772   1.651   0.148   8.952  0.8978  0.8182  0.6227
 2925SOL     OW 8773   0.813   4.400   7.412 -0.3131  0.1509  0.0622
 2925SOL    HW1 8774   0.765   4.450   7.477 -0.9703  0.5119 -0.6847
 2925SOL    HW2 8775   0.894   4.449   7.398 -1.1718  1.3018 -1.0319
 2926SOL     OW 8776   1.774   0.234   9.619 -0.0032  0.0712 -0.0766
 2926SOL    HW1 8777   1.841   0.256   9.683  0.8489  1.4294 -1.3637
 2926SOL    HW2 8778   1.758   0.316   9.572 -0.5236 -0.8857 -1.6615
 2927SOL     OW 8779   2.950   4.567   9.131  0.5406  0.0463 -0.0917
 2927SOL    HW1 8780   2.937   4.483   9.086 -0.6967  1.1876 -1.9856
 2927SOL    HW2 8781   3.005   4.618   9.071  2.2175  0.2666  1.5354
 2928SOL     OW 8782   2.659   0.549   8.291  0.4568  0.8785 -0.6430
 2928SOL    HW1 8783   2.730   0.575   8.233 -1.2606  1.1588 -2.7775
 2928SOL    HW2 8784   2.651   0.455   8.279 -0.7830  1.1172 -2.0466
 2929SOL     OW 8785   2.806   3.137   9.144  0.3167  0.1037  0.2379
 2929SOL    HW1 8786   2.764   3.063   9.100 -0.0293 -0.6924  1.8550
 2929SOL    HW2 8787   2.849   3.185   9.073 -0.0257 -1.2545 -0.9417
 2930SOL     OW 8788   0.481   4.462   9.004 -0.7832  0.4349 -0.7524
 2930SOL    HW1 8789   0.409   4.402   9.022  1.3570 -2.5892 -1.5567
 2930SOL    HW2 8790   0.517   4.433   8.920  2.0676  1.0413  0.1439
 2931SOL     OW 8791   3.050   0.553   6.984  0.6210 -0.3511  0.7757
 2931SOL    HW1 8792   3.105   0.623   6.948  1.5776 -1.8872 -0.9212
 2931SOL    HW2 8793   3.074   0.548   7.076  0.3526  1.6675  1.0086
 2932SOL     OW 8794   3.232   0.898   6.792 -0.5125  0.4021  0.4876
 2932SOL    HW1 8795   3.175   0.856   6.728  1.0556 -1.4915  0.2134
 2932SOL    HW2 8796   3.237   0.989   6.765  1.0169 -0.5315 -2.8976
 2933SOL     OW 8797   3.624   0.245  10.464 -0.1640  0.0752 -0.2897
 2933SOL    HW1 8798   3.668   0.285  10.389  0.7449 -2.1344 -1.0212
 2933SOL    HW2 8799   3.695   0.228  10.527 -0.5209 -0.3740  0.0024
 2934SOL     OW 8800   4.790   2.366   8.359 -0.3443  0.6781  0.0850
 2934SOL    HW1 8801   4.810   2.458   8.379 -0.8561  1.0479 -1.0142
 2934SOL    HW2 8802   4.871   2.319   8.377 -0.3252  1.2127  1.4660
 2935SOL     OW 8803   4.824   4.948   8.064  0.1812  0.1015 -0.5021
 2935SOL    HW1 8804   4.820   4.859   8.029  0.4167  0.3689 -1.2420
 2935SOL    HW2 8805   4.885   4.943   8.137  0.0009 -0.3939 -0.3841
 2936SOL     OW 8806   4.326   0.585   6.207  0.1119 -0.1766  0.1536
 2936SOL    HW1 8807   4.352   0.663   6.157  0.3331 -1.2844 -1.5536
 2936SOL    HW2 8808   4.231   0.583   6.200  0.1280 -0.2217 -0.0738
 2937SOL     OW 8809   2.056   0.082   7.601  0.8649 -0.4835 -0.1609
 2937SOL    HW1 8810   2.030   0.133   7.678 -1.0630 -0.5672 -0.6986
 2937SOL    HW2 8811   2.119   0.139   7.556 -0.7094  1.1769 -0.3797
 2938SOL     OW 8812   4.160   2.728   6.226 -0.3040 -0.1716 -0.1000
 2938SOL    HW1 8813   4.244   2.716   6.181  0.4118  0.2268  1.0769
 2938SOL    HW2 8814   4.095   2.702   6.161  0.7187 -0.4638 -1.0607
 2939SOL     OW 8815   0.944   0.486   8.072 -0.3526 -0.5754  0.9246
 2939SOL    HW1 8816   0.963   0.525   7.987 -1.1514 -0.1005  0.9492
 2939SOL    HW2 8817   0.889   0.410   8.052 -1.4123  0.1249  1.0542
 2940SOL     OW 8818   4.282   1.487   5.798 -0.3945 -0.7374 -0.2210
 2940SOL    HW1 8819   4.359   1.523   5.842 -0.3590  2.0428 -2.3414
 2940SOL    HW2 8820   4.233   1.444   5.869  2.0671 -0.8452  1.5540
 2941SOL     OW 8821   1.419   3.961   6.254 -1.0852 -0.0097  0.1177
 2941SOL    HW1 8822   1.365   3.889   6.286  0.7815 -2.0386 -1.0887
 2941SOL    HW2 8823   1.414   3.955   6.159  0.8280  0.0204 -0.0275
 2942SOL     OW 8824   3.655   0.069   8.021 -0.4393 -0.3158 -0.4043
 2942SOL    HW1 8825   3.704   0.068   8.103  0.3639 -1.6487 -0.8738
 2942SOL    HW2 8826   3.599   0.146   8.028  1.5800  1.2063  0.2396
 2943SOL     OW 8827   2.393   4.026   7.719  0.7222  0.1331  0.3114
 2943SOL    HW1 8828   2.376   3.932   7.717 -0.1196  0.2976 -1.6981
 2943SOL    HW2 8829   2.464   4.039   7.657  1.1313  0.7876  0.9036
 2944SOL     OW 8830   4.067   4.067   9.730 -0.2137 -0.6919 -0.4928
 2944SOL    HW1 8831   4.155   4.045   9.760  0.1148  0.8738 -0.2222
 2944SOL    HW2 8832   4.065   4.163   9.728 -2.0391 -0.6801 -0.0905
 2945SOL     OW 8833   2.507   1.263   8.377 -0.3649  0.2771  0.5330
 2945SOL    HW1 8834   2.521   1.339   8.320 -1.1652  0.0501  0.0182
 2945SOL    HW2 8835   2.426   1.223   8.345  0.3672 -1.1558  0.3958
 2946SOL     OW 8836   3.852   2.298   6.362  0.3566 -0.1500 -0.8109
 2946SOL    HW1 8837   3.789   2.227   6.352 -1.1832  1.2750 -1.6960
 2946SOL    HW2 8838   3.805   2.376   6.334  1.6787  1.3950  1.0130
 2947SOL     OW 8839   1.677   0.063   7.500  0.2900  0.5961  0.8497
 2947SOL    HW1 8840   1.756   0.098   7.539 -0.0355  2.1721  0.1901
 2947SOL    HW2 8841   1.612   0.132   7.512 -0.2492  0.4514 -0.9574
 2948SOL     OW 8842   1.307   4.583   7.478 -0.4168 -0.3661 -0.1042
 2948SOL    HW1 8843   1.388   4.564   7.432 -0.6565  0.5659 -0.9485
 2948SOL    HW2 8844   1.315   4.675   7.504 -1.1890 -0.2644 -0.1959
 2949SOL     OW 8845   0.494   0.086   9.397 -0.0185  0.0257 -0.6994
 2949SOL    HW1 8846   0.406   0.117   9.377 -1.7086 -2.5785  1.8149
 2949SOL    HW2 8847   0.505   0.009   9.341 -1.1722 -2.0676  1.7384
 2950SOL     OW 8848   3.648   0.913   6.695  0.4663 -0.0717  0.3589
 2950SOL    HW1 8849   3.739   0.912   6.725  0.8849 -0.0277 -0.8190
 2950SOL    HW2 8850   3.598   0.879   6.768  1.3718  0.3974  1.2233
 2951SOL     OW 8851   2.092   3.819   9.682  0.8246  0.5859  0.4908
 2951SOL    HW1 8852   2.105   3.776   9.597 -1.0525  0.2763  0.3124
 2951SOL    HW2 8853   2.068   3.909   9.660 -0.0714  0.3979  0.6461
 2952SOL     OW 8854   3.074   3.977   8.513 -0.8459  0.2879 -0.1640
 2952SOL    HW1 8855   3.001   4.036   8.498  0.5497  1.8792 -1.1830
 2952SOL    HW2 8856   3.140   4.004   8.448  2.1330  1.5198  3.0243
 2953SOL     OW 8857   3.528   4.861  10.153  0.0133  0.0968  0.5231
 2953SOL    HW1 8858   3.464   4.884  10.220  0.3485  0.0240  0.8704
 2953SOL    HW2 8859   3.532   4.938  10.096 -1.9386 -0.6651 -0.7431
 2954SOL     OW 8860   2.812   0.968   9.633  1.0956  0.4948  0.3507
 2954SOL    HW1 8861   2.834   0.896   9.691 -1.2393 -1.5626 -1.1130
 2954SOL    HW2 8862   2.878   0.964   9.563  1.3069  0.1630  0.5700
 2955SOL     OW 8863   3.123   0.194   9.323 -0.3759  0.4796 -0.6975
 2955SOL    HW1 8864   3.161   0.133   9.260  0.9699  1.1544 -0.5945
 2955SOL    HW2 8865   3.029   0.193   9.305 -0.1295 -0.0227 -2.0910
 2956SOL     OW 8866   1.665   0.124  10.175 -0.8432  0.5770 -0.1084
 2956SOL    HW1 8867   1.702   0.171  10.250 -1.1838  1.1352 -0.2863
 2956SOL    HW2 8868   1.739   0.115  10.114 -0.5736  0.1528  0.2709
 2957SOL     OW 8869   4.374   3.219   9.313  0.1440 -0.5534 -0.1054
 2957SOL    HW1 8870   4.399   3.270   9.391  1.0981 -1.7730  0.4077
 2957SOL    HW2 8871   4.422   3.137   9.321 -0.2517 -0.9678 -1.6682
 2958SOL     OW 8872   0.314   2.956   8.562  0.0772  0.5623 -0.5192
 2958SOL    HW1 8873   0.347   2.911   8.641 -0.0418 -0.4803 -1.0404
 2958SOL    HW2 8874   0.291   2.885   8.502 -1.8177  1.2928 -0.7151
 2959SOL     OW 8875   0.368   0.561   8.590  0.1987  0.0533 -0.3492
 2959SOL    HW1 8876   0.322   0.612   8.524 -0.2487  0.7371  0.4712
 2959SOL    HW2 8877   0.303   0.548   8.659  1.3416  1.4815  1.0758
 2960SOL     OW 8878   3.224   0.424   9.208  0.2500 -0.8108 -0.5258
 2960SOL    HW1 8879   3.203   0.338   9.245  1.4256 -0.1336  1.9097
 2960SOL    HW2 8880   3.248   0.477   9.284 -1.4856  2.0367 -1.8080
 2961SOL     OW 8881   2.112   0.910   7.256 -0.2318  0.1583 -0.9447
 2961SOL    HW1 8882   2.148   0.992   7.288  1.6313 -0.7674 -0.5010
 2961SOL    HW2 8883   2.034   0.895   7.310 -1.9529  2.6585 -2.5206
 2962SOL     OW 8884   2.645   4.537   7.871  0.6025 -0.3136 -0.0684
 2962SOL    HW1 8885   2.705   4.532   7.796 -1.3862 -0.9959 -1.7018
 2962SOL    HW2 8886   2.561   4.509   7.836 -0.9850  1.7206  1.8347
 2963SOL     OW 8887   0.942   4.605   9.002 -0.9430  0.0070  0.8966
 2963SOL    HW1 8888   0.871   4.565   9.054 -1.9953  1.1340  0.3740
 2963SOL    HW2 8889   0.929   4.699   9.014 -0.4388  0.2535 -0.4120
 2964SOL     OW 8890   2.084   1.944   7.388  0.2784 -0.0378 -0.1484
 2964SOL    HW1 8891   2.170   1.903   7.376  0.1408 -0.4620  0.3168
 2964SOL    HW2 8892   2.099   2.015   7.450  0.1390 -0.6336  0.5774
 2965SOL     OW 8893   3.000   0.471   6.714  1.3764  0.6178 -0.1465
 2965SOL    HW1 8894   3.047   0.396   6.678  2.9094  1.4029  0.1253
 2965SOL    HW2 8895   3.051   0.496   6.792  0.2413  1.2389  0.4216
 2966SOL     OW 8896   4.768   2.404   8.883 -0.0150  1.0791 -0.0386
 2966SOL    HW1 8897   4.689   2.433   8.837 -1.3248 -1.0029  0.7234
 2966SOL    HW2 8898   4.825   2.370   8.813  0.1690  2.4346 -0.5759
 2967SOL     OW 8899   1.640   4.493   9.719  0.0398 -0.2650 -0.1132
 2967SOL    HW1 8900   1.704   4.557   9.751  0.1972 -0.8633  0.7889
 2967SOL    HW2 8901   1.586   4.543   9.657  2.3812 -0.1350 -2.2282
 2968SOL     OW 8902   0.630   1.719   6.559 -0.4294  0.7033 -0.0755
 2968SOL    HW1 8903   0.657   1.730   6.650 -1.1967  0.4768  0.1853
 2968SOL    HW2 8904   0.535   1.704   6.563 -0.2009 -1.1582 -0.7646
 2969SOL     OW 8905   4.404   0.295   9.811 -0.5514  0.3166  0.5694
 2969SOL    HW1 8906   4.481   0.346   9.836 -1.2993  0.9623  1.6447
 2969SOL    HW2 8907   4.347   0.300   9.887 -1.3234 -0.8142  0.0801
 2970SOL     OW 8908   3.238   1.619   8.069  0.4449  0.0961 -0.5443
 2970SOL    HW1 8909   3.328   1.641   8.094 -0.0654  2.5598 -0.5729
 2970SOL    HW2 8910   3.203   1.701   8.033 -2.1708 -0.4448  0.5687
 2971SOL     OW 8911   3.939   4.130   7.067  0.5490  0.3459  0.1585
 2971SOL    HW1 8912   3.913   4.044   7.035 -2.4589  0.8832  0.8937
 2971SOL    HW2 8913   4.032   4.137   7.045  0.4219 -2.3033 -1.5739
 2972SOL     OW 8914   2.275   0.095  10.098  0.9078 -0.6821  0.2243
 2972SOL    HW1 8915   2.343   0.072  10.161 -0.4859  0.7099  2.3526
 2972SOL    HW2 8916   2.221   0.016  10.090  0.6296 -0.6287  1.4485
 2973SOL     OW 8917   4.118   0.740   8.623 -0.5700  0.0447 -0.0413
 2973SOL    HW1 8918   4.152   0.703   8.704  1.7712 -1.2131 -1.4851
 2973SOL    HW2 8919   4.183   0.805   8.596 -1.0772  0.1346 -1.1278
 2974SOL     OW 8920   0.325   3.846   9.172 -0.7748 -0.2336 -0.5500
 2974SOL    HW1 8921   0.235   3.878   9.165 -1.0789 -1.1346 -1.0121
 2974SOL    HW2 8922   0.380   3.921   9.150 -1.3272  0.8912  1.6225
 2975SOL     OW 8923   4.371   2.955   9.070 -0.5532  0.1772 -0.1047
 2975SOL    HW1 8924   4.364   2.863   9.045 -1.6425  0.2786 -0.2038
 2975SOL    HW2 8925   4.287   2.976   9.110  0.4188  0.5811  1.8273
 2976SOL     OW 8926   2.751   2.633   9.247 -0.2780  0.2840  0.0998
 2976SOL    HW1 8927   2.669   2.632   9.296  0.8249 -1.0579  2.0873
 2976SOL    HW2 8928   2.732   2.587   9.166 -1.9204  1.6726 -0.3692
 2977SOL     OW 8929   2.550   4.050   9.197  0.0825 -0.4310 -0.3200
 2977SOL    HW1 8930   2.613   4.020   9.131  0.4544  1.4087 -0.8702
 2977SOL    HW2 8931   2.604   4.077   9.271 -0.2273 -0.9669  0.1074
 2978SOL     OW 8932   1.224   2.382   9.761 -0.3654  0.9190 -0.5295
 2978SOL    HW1 8933   1.160   2.372   9.832  0.5379 -1.0515  0.0741
 2978SOL    HW2 8934   1.280   2.455   9.789  1.5235 -1.3546  2.1321
 2979SOL     OW 8935   3.376   1.499   9.478 -0.4721  0.3667  0.2526
 2979SOL    HW1 8936   3.426   1.496   9.560 -0.5939 -1.3382  0.3134
 2979SOL    HW2 8937   3.429   1.448   9.416 -1.2233  0.1281 -0.2101
 2980SOL     OW 8938   3.151   4.657  10.149 -0.2520 -0.8353  0.5607
 2980SOL    HW1 8939   3.066   4.617  10.132  0.7031 -2.1930 -1.2440
 2980SOL    HW2 8940   3.142   4.747  10.119 -0.3606 -1.6408 -1.9951
 2981SOL     OW 8941   4.868   0.349   9.655  0.0828 -0.1625 -0.7173
 2981SOL    HW1 8942   4.807   0.315   9.589  0.7890 -2.3163 -0.3485
 2981SOL    HW2 8943   4.955   0.335   9.618  0.4420  1.7734 -0.7268
 2982SOL     OW 8944   0.873   0.227   9.727 -0.2818 -0.8239  0.3371
 2982SOL    HW1 8945   0.877   0.131   9.723  2.1213 -0.7730 -0.0749
 2982SOL    HW2 8946   0.919   0.256   9.648 -1.2099  0.6904  0.3106
 2983SOL     OW 8947   2.694   2.794   6.814 -0.3515  0.3102 -0.0940
 2983SOL    HW1 8948   2.785   2.823   6.806 -0.1089 -0.6527 -0.9955
 2983SOL    HW2 8949   2.697   2.699   6.805 -1.4956  0.2963 -0.5999
 2984SOL     OW 8950   0.164   3.699   9.945  0.1744  0.0407  0.3441
 2984SOL    HW1 8951   0.175   3.693  10.039  1.8114  4.5577  0.6969
 2984SOL    HW2 8952   0.232   3.643   9.908  1.1819  0.1682  1.9389
 2985SOL     OW 8953   0.017   2.568   6.194 -0.2015  0.3617  0.4403
 2985SOL    HW1 8954   0.018   2.488   6.247 -0.2735 -0.4414 -0.7451
 2985SOL    HW2 8955   0.037   2.638   6.257  0.6050 -0.6579  1.3618
 2986SOL     OW 8956   1.505   4.943   9.427 -0.4496  0.1601  0.4400
 2986SOL    HW1 8957   1.472   5.026   9.462 -0.0500  0.0427  1.1085
 2986SOL    HW2 8958   1.468   4.938   9.339 -1.5954  0.3969  0.8844
 2987SOL     OW 8959   1.121   1.589   7.614  0.4094  0.2338 -0.4135
 2987SOL    HW1 8960   1.049   1.527   7.606 -0.1922  0.2122  3.2203
 2987SOL    HW2 8961   1.085   1.660   7.668  2.4744  1.3081 -0.3425
 2988SOL     OW 8962   2.001   0.290   8.418 -0.2442  0.0617  0.5543
 2988SOL    HW1 8963   1.985   0.207   8.462  0.5646 -1.6535 -2.1372
 2988SOL    HW2 8964   2.059   0.338   8.478 -0.2636 -1.5346  1.9365
 2989SOL     OW 8965   3.044   0.790   9.182 -0.2384 -0.2619  0.1590
 2989SOL    HW1 8966   3.105   0.799   9.109  2.1625 -0.1329  2.0541
 2989SOL    HW2 8967   2.958   0.798   9.142  0.9882  1.9286 -2.3623
 2990SOL     OW 8968   4.096   0.452   7.866  0.2752 -0.1781 -0.4030
 2990SOL    HW1 8969   4.173   0.509   7.872 -0.1066  0.2717  0.3516
 2990SOL    HW2 8970   4.131   0.364   7.881  0.4221  0.1947  1.7045
 2991SOL     OW 8971   3.035   1.544   8.726 -0.3035  0.0377  0.1956
 2991SOL    HW1 8972   3.042   1.464   8.779  1.1608  0.4742  0.7071
 2991SOL    HW2 8973   3.108   1.598   8.755 -1.3686  1.6462 -0.0259
 2992SOL     OW 8974   1.716   1.765   9.923  0.2392 -0.3130  0.2891
 2992SOL    HW1 8975   1.654   1.790   9.992  1.1879  4.1375 -0.1416
 2992SOL    HW2 8976   1.799   1.752   9.968  0.3577  0.2639  0.2446
 2993SOL     OW 8977   4.956   1.536   8.355  0.0126  0.0287  0.2278
 2993SOL    HW1 8978   4.950   1.529   8.451  0.6549 -1.0655  0.2122
 2993SOL    HW2 8979   5.050   1.530   8.337 -0.2108 -2.4493 -0.5884
 2994SOL     OW 8980   2.169   3.519   8.120 -0.0975 -0.3233  0.1708
 2994SOL    HW1 8981   2.129   3.462   8.054  0.0673 -0.1734 -0.0570
 2994SOL    HW2 8982   2.097   3.537   8.182 -0.2045 -0.6081  0.1329
 2995SOL     OW 8983   0.551   2.339  10.221 -0.1254 -0.9554 -0.7709
 2995SOL    HW1 8984   0.583   2.250  10.234  2.4690 -0.0317 -0.2017
 2995SOL    HW2 8985   0.613   2.378  10.159 -0.3347  0.8518  0.0837
 2996SOL     OW 8986   3.737   0.107   8.317  0.0590 -0.2216  0.1215
 2996SOL    HW1 8987   3.811   0.054   8.345  0.2723 -0.5812 -1.0567
 2996SOL    HW2 8988   3.739   0.184   8.375 -0.5535 -1.6840  2.1945
 2997SOL     OW 8989   3.065   2.409   9.353 -0.1062 -0.2972  0.6622
 2997SOL    HW1 8990   3.034   2.470   9.420  0.7546  1.0418 -0.1127
 2997SOL    HW2 8991   3.098   2.465   9.283  1.7584 -1.6389  0.3891
 2998SOL     OW 8992   2.583   0.521   5.510  0.2990  0.8942 -0.8636
 2998SOL    HW1 8993   2.553   0.593   5.565  0.1942  0.9434 -0.9867
 2998SOL    HW2 8994   2.507   0.495   5.459 -0.2903 -0.7383  0.7199
 2999SOL     OW 8995   4.021   2.970   8.681 -0.3100 -0.3932  0.0683
 2999SOL    HW1 8996   4.060   2.974   8.768 -2.3276 -0.4568  1.0362
 2999SOL    HW2 8997   3.945   2.914   8.691 -0.5946 -0.3935 -1.7507
 3000SOL     OW 8998   1.276   0.452   8.069 -0.3792  0.8623  1.0097
 3000SOL    HW1 8999   1.225   0.493   8.138 -0.5643  0.8030  0.9089
 3000SOL    HW2 9000   1.214   0.392   8.027 -0.2789  0.9317  0.7651
 3001SOL     OW 9001   1.386   0.620   9.034  0.3605 -0.1177  0.0853
 3001SOL    HW1 9002   1.469   0.576   9.016  0.5073 -0.7411  2.0881
 3001SOL    HW2 9003   1.410   0.703   9.075  0.0659 -1.1035  2.4413
 3002SOL     OW 9004   2.710   4.820   8.479  0.4616  0.1980  0.3633
 3002SOL    HW1 9005   2.644   4.753   8.497 -2.6897  2.7452 -0.6386
 3002SOL    HW2 9006   2.746   4.795   8.394 -1.1578  0.0380 -0.3256
 3003SOL     OW 9007   4.965   2.251  10.009  0.3353  0.4991  0.4384
 3003SOL    HW1 9008   5.005   2.337   9.997 -1.9466  1.7302  1.0380
 3003SOL    HW2 9009   4.938   2.225   9.921  0.7497  0.5416  0.2978
 3004SOL     OW 9010   2.236   0.288   9.351 -0.9693  0.8146 -0.4547
 3004SOL    HW1 9011   2.290   0.346   9.297  0.7112  0.5944  0.8904
 3004SOL    HW2 9012   2.215   0.339   9.428 -1.9161  0.5709 -0.5412
 3005SOL     OW 9013   1.842   4.415   9.899  0.3378 -0.3277  0.0067
 3005SOL    HW1 9014   1.932   4.442   9.879  0.8635 -1.2452  1.0537
 3005SOL    HW2 9015   1.811   4.480   9.963  0.9877 -1.1678  1.1972
 3006SOL     OW 9016   0.228   1.780   5.492 -0.0603  0.2196 -0.2804
 3006SOL    HW1 9017   0.221   1.742   5.580  1.8930 -0.9252 -0.5610
 3006SOL    HW2 9018   0.145   1.757   5.449 -0.3809 -0.5966  0.7353
 3007SOL     OW 9019   1.667   4.128   7.798  0.6593  0.0465 -0.2394
 3007SOL    HW1 9020   1.714   4.066   7.854  0.6579  0.9694  0.8299
 3007SOL    HW2 9021   1.685   4.213   7.837  1.4466  0.8437 -2.2443
 3008SOL     OW 9022   2.698   3.684  10.151  0.8128  0.1309  0.4401
 3008SOL    HW1 9023   2.634   3.633  10.201  1.4375  0.5522  1.7101
 3008SOL    HW2 9024   2.783   3.650  10.179  1.1851  0.6067 -0.0947
 3009SOL     OW 9025   2.065   2.279   9.976 -0.4315 -0.2052 -0.2437
 3009SOL    HW1 9026   2.149   2.268  10.020 -0.6026 -2.3378 -0.3587
 3009SOL    HW2 9027   2.088   2.301   9.885 -0.0611  1.4335  0.2111
 3010SOL     OW 9028   2.940   3.011   7.151  0.3076  0.5078 -0.7481
 3010SOL    HW1 9029   3.002   3.013   7.225  0.4243  2.8065 -0.8517
 3010SOL    HW2 9030   2.854   3.023   7.192  0.0068 -1.3079 -0.7445
 3011SOL     OW 9031   4.613   0.957   8.284  1.0236  0.1001 -0.0517
 3011SOL    HW1 9032   4.702   0.923   8.278  0.1976 -2.6768  1.8289
 3011SOL    HW2 9033   4.616   1.020   8.357  1.5796  0.5309 -0.4454
 3012SOL     OW 9034   3.759   1.354   9.293 -0.0210  0.3862 -0.0602
 3012SOL    HW1 9035   3.772   1.365   9.198 -0.8408  0.2867 -0.1911
 3012SOL    HW2 9036   3.839   1.311   9.323  0.4551  0.8485 -0.6248
 3013SOL     OW 9037   0.725   1.766  10.073  0.1396 -0.1032  0.1356
 3013SOL    HW1 9038   0.729   1.705  10.148  1.1559 -2.5900 -1.7757
 3013SOL    HW2 9039   0.817   1.786  10.054 -0.1629  1.6211  0.3337
 3014SOL     OW 9040   3.030   2.613   7.392 -0.0900 -0.2160 -0.3160
 3014SOL    HW1 9041   3.049   2.700   7.356  0.9202 -0.5608 -0.6538
 3014SOL    HW2 9042   2.943   2.592   7.356 -0.7110  0.9643  0.4102
 3015SOL     OW 9043   2.504   4.217   8.934 -0.6447  0.1303 -0.4529
 3015SOL    HW1 9044   2.589   4.253   8.960 -0.6293 -0.6424  0.6462
 3015SOL    HW2 9045   2.525   4.132   8.894 -0.8405  0.3324 -0.9896
 3016SOL     OW 9046   0.341   0.433   9.255 -0.1462  0.1009  0.5092
 3016SOL    HW1 9047   0.308   0.519   9.228 -1.4762 -1.1736 -2.3652
 3016SOL    HW2 9048   0.432   0.432   9.225  0.2326  0.8710  1.5799
 3017SOL     OW 9049   1.937   4.211  12.192 -0.2138  0.3538  0.2703
 3017SOL    HW1 9050   1.947   4.297  12.150  0.8388 -0.5053 -1.3118
 3017SOL    HW2 9051   2.014   4.203  12.248  1.1451 -0.6599 -1.6689
 3018SOL     OW 9052   3.411   2.595   5.357  0.0716  0.1506 -0.4178
 3018SOL    HW1 9053   3.485   2.636   5.311  1.1632  0.0591  1.1724
 3018SOL    HW2 9054   3.410   2.505   5.324 -2.0228  1.1554 -3.5516
 3019SOL     OW 9055   2.611   2.222   7.894  0.1706  0.4504 -0.3823
 3019SOL    HW1 9056   2.572   2.298   7.937  0.7060  0.7272 -0.3702
 3019SOL    HW2 9057   2.641   2.166   7.966  2.8909  1.8462 -0.2903
 3020SOL     OW 9058   0.262   3.332   8.271  0.4057  0.5721 -0.3868
 3020SOL    HW1 9059   0.307   3.267   8.326 -3.6113 -1.7375  0.6141
 3020SOL    HW2 9060   0.299   3.319   8.183  0.8674 -2.0248  0.1093
 3021SOL     OW 9061   0.405   1.414   8.837 -0.2511 -0.2884 -0.7610
 3021SOL    HW1 9062   0.452   1.358   8.899 -0.7601  1.2164  1.0672
 3021SOL    HW2 9063   0.318   1.375   8.830 -0.5955  0.2009  0.4865
 3022SOL     OW 9064   1.939   3.446  10.376  0.2940  0.2923  0.2270
 3022SOL    HW1 9065   2.022   3.420  10.415  0.6538  0.6934 -0.2505
 3022SOL    HW2 9066   1.881   3.371  10.390  1.1379 -0.5471 -0.6503
 3023SOL     OW 9067   4.659   2.193   9.846 -0.6353 -0.1009 -0.8605
 3023SOL    HW1 9068   4.720   2.239   9.904  0.3812 -0.6115 -1.5061
 3023SOL    HW2 9069   4.714   2.154   9.778 -1.3758 -2.6779 -0.0990
 3024SOL     OW 9070   4.469   0.975   7.646  0.3070 -0.3950 -0.3452
 3024SOL    HW1 9071   4.540   1.037   7.666  0.1460  0.1623 -1.4341
 3024SOL    HW2 9072   4.390   1.029   7.644 -0.3398 -1.1691  1.8458
 3025SOL     OW 9073   3.523   0.967   5.072 -0.1537 -0.3580 -0.6156
 3025SOL    HW1 9074   3.497   0.876   5.056 -0.3628  0.1118 -3.2974
 3025SOL    HW2 9075   3.457   1.019   5.028  2.3574  0.9834 -3.0832
 3026SOL     OW 9076   2.144   2.651   8.935  0.0650  0.6717 -0.2105
 3026SOL    HW1 9077   2.191   2.733   8.918 -0.0214  0.8876  0.5477
 3026SOL    HW2 9078   2.192   2.585   8.885 -0.0780  1.2387 -1.1217
 3027SOL     OW 9079   3.130   4.141  10.172 -0.1334 -0.2588  0.5417
 3027SOL    HW1 9080   3.098   4.192  10.247  0.6375 -0.9775  1.3745
 3027SOL    HW2 9081   3.093   4.054  10.185  0.5306 -0.5565  0.4293
 3028SOL     OW 9082   1.755   3.235  10.410  0.2870 -0.1574 -0.0766
 3028SOL    HW1 9083   1.670   3.274  10.432 -0.1048 -1.9865  2.0153
 3028SOL    HW2 9084   1.741   3.141  10.419  2.3569 -0.5510 -0.4522
 3029SOL     OW 9085   0.980   4.453   9.305  0.2196 -0.4471 -0.8066
 3029SOL    HW1 9086   1.046   4.387   9.324  1.3718  0.7506 -0.5372
 3029SOL    HW2 9087   0.951   4.433   9.216  1.3685 -0.6306 -1.1487
 3030SOL     OW 9088   0.858   0.040   7.220 -0.5372  0.0024  0.1314
 3030SOL    HW1 9089   0.815  -0.035   7.179  0.2261 -0.3463 -0.0524
 3030SOL    HW2 9090   0.791   0.109   7.221 -1.1652 -0.5978  0.0706
 3031SOL     OW 9091   2.767   3.849   6.772 -0.2513 -0.9418  0.3546
 3031SOL    HW1 9092   2.706   3.905   6.723 -2.6844 -2.1581  1.8029
 3031SOL    HW2 9093   2.800   3.905   6.842 -0.2723 -0.4515 -0.0255
 3032SOL     OW 9094   2.975   1.891   8.792  0.7102  0.2707 -0.0024
 3032SOL    HW1 9095   2.901   1.926   8.841  0.3579 -0.9159  0.3427
 3032SOL    HW2 9096   2.981   1.946   8.714 -1.2573 -0.3146 -0.6206
 3033SOL     OW 9097   1.331   4.140   9.629  0.3343 -0.0446 -0.1602
 3033SOL    HW1 9098   1.303   4.092   9.706  0.5200 -1.0127 -0.6718
 3033SOL    HW2 9099   1.425   4.151   9.640  0.3394 -0.0678 -0.1778
 3034SOL     OW 9100   0.992   3.535   8.667  0.6905 -0.2394 -0.3024
 3034SOL    HW1 9101   1.072   3.589   8.667 -0.6527  1.8576 -0.3617
 3034SOL    HW2 9102   0.936   3.576   8.601 -0.5039 -1.5870 -0.1565
 3035SOL     OW 9103   3.743   4.129   8.296  0.0130  0.4425 -0.0247
 3035SOL    HW1 9104   3.696   4.073   8.359 -2.2844  1.1328 -1.0081
 3035SOL    HW2 9105   3.750   4.213   8.341 -5.0999  2.1784 -1.7729
 3036SOL     OW 9106   1.007   4.011   5.976  0.0309  0.2604 -0.3370
 3036SOL    HW1 9107   0.966   3.947   6.033  0.3038  0.3109 -0.0792
 3036SOL    HW2 9108   1.046   3.959   5.905 -2.8234  0.3820 -2.1398
 3037SOL     OW 9109   4.763   3.538   6.551  0.1316  0.0898 -0.1216
 3037SOL    HW1 9110   4.846   3.491   6.553 -0.4242 -0.8854  0.8151
 3037SOL    HW2 9111   4.712   3.501   6.623 -0.9872  0.9283 -0.4459
 3038SOL     OW 9112   4.385   4.299   9.333  0.1347  0.0463  1.0816
 3038SOL    HW1 9113   4.386   4.204   9.316 -0.2560  0.1937  0.1417
 3038SOL    HW2 9114   4.427   4.337   9.256  2.9892  0.4953  2.7230
 3039SOL     OW 9115   4.099   2.135   7.504 -0.4155 -0.0282 -0.7598
 3039SOL    HW1 9116   4.179   2.125   7.556 -1.1409  0.9810  0.6136
 3039SOL    HW2 9117   4.126   2.114   7.415  0.8383 -1.9585  0.0127
 3040SOL     OW 9118   1.471   1.672   7.837  0.1096 -0.1700  0.3014
 3040SOL    HW1 9119   1.471   1.739   7.770 -1.3978  0.5724  0.9823
 3040SOL    HW2 9120   1.453   1.590   7.790  0.3539  0.1412 -0.3388
 3041SOL     OW 9121   2.225   4.671   8.015  0.2769 -0.5186  0.5990
 3041SOL    HW1 9122   2.317   4.680   8.043  0.7077 -2.4490 -0.0429
 3041SOL    HW2 9123   2.183   4.751   8.046  2.0820  0.2163  1.3021
 3042SOL     OW 9124   4.658   1.088   9.857 -0.4555  0.0749  0.2692
 3042SOL    HW1 9125   4.648   1.050   9.770  1.3125 -1.2303  0.5596
 3042SOL    HW2 9126   4.678   1.180   9.842  0.8660 -0.3481 -0.8038
 3043SOL     OW 9127   1.680   1.350   9.506  0.2531  0.5354 -0.0850
 3043SOL    HW1 9128   1.681   1.409   9.582  3.5704 -1.8269  1.9915
 3043SOL    HW2 9129   1.771   1.350   9.475 -0.5172 -0.4662 -2.5622
 3044SOL     OW 9130   4.018   2.448   9.468  0.1521  0.4386  0.4670
 3044SOL    HW1 9131   3.948   2.383   9.463  0.9638 -0.7842  3.1993
 3044SOL    HW2 9132   3.989   2.519   9.410 -1.9344 -1.2617 -0.7177
 3045SOL     OW 9133   4.347   0.256   9.234 -0.0876 -0.2867 -0.2065
 3045SOL    HW1 9134   4.324   0.329   9.292  0.0416 -0.0490 -0.4525
 3045SOL    HW2 9135   4.369   0.298   9.150 -0.0327 -0.6088 -0.3552
 3046SOL     OW 9136   1.510   4.263   6.801 -0.1023  0.0513  0.3339
 3046SOL    HW1 9137   1.561   4.335   6.840 -1.0028  1.1487 -0.4422
 3046SOL    HW2 9138   1.532   4.266   6.708 -0.4210 -0.4505  0.2434
 3047SOL     OW 9139   1.566   1.214   7.589  0.1724 -0.2259 -0.2598
 3047SOL    HW1 9140   1.496   1.188   7.529  1.0572  1.3046 -2.0899
 3047SOL    HW2 9141   1.647   1.197   7.540  0.9703  0.4811  0.7576
 3048SOL     OW 9142   3.587   0.405   6.686  0.0815 -0.5245  0.6072
 3048SOL    HW1 9143   3.531   0.479   6.709 -0.2302 -0.5358 -0.1087
 3048SOL    HW2 9144   3.670   0.424   6.730  0.2833  0.6867 -0.2376
 3049SOL     OW 9145   3.203   2.675   4.660 -0.4661  0.9996  0.2473
 3049SOL    HW1 9146   3.253   2.599   4.630  0.3870  1.1138  1.3288
 3049SOL    HW2 9147   3.248   2.704   4.739 -2.9571  0.3170  2.0680
 3050SOL     OW 9148   4.746   2.051   5.962  0.0485  0.2638 -0.2711
 3050SOL    HW1 9149   4.820   2.075   5.907  0.7757 -1.0357  0.1023
 3050SOL    HW2 9150   4.682   2.013   5.901 -0.5230  1.7673 -0.6544
 3051SOL     OW 9151   1.707   3.341   6.097 -0.3908  0.0395  0.1263
 3051SOL    HW1 9152   1.678   3.323   6.187 -4.0103  0.9704 -0.6792
 3051SOL    HW2 9153   1.758   3.422   6.104 -0.6621  0.1250  1.3403
 3052SOL     OW 9154   4.620   1.777   6.893  0.2482  0.5701  0.2328
 3052SOL    HW1 9155   4.715   1.787   6.885  0.2432  2.3523  1.6768
 3052SOL    HW2 9156   4.606   1.748   6.983 -0.6541  4.2192  1.4679
 3053SOL     OW 9157   0.248   3.261   7.403  0.2930  0.1979 -0.3439
 3053SOL    HW1 9158   0.163   3.286   7.367  0.3870 -0.7231 -1.2455
 3053SOL    HW2 9159   0.301   3.339   7.395 -0.7959  1.1905  1.3762
 3054SOL     OW 9160   1.788   0.504   8.395 -0.0226  0.1834  0.2074
 3054SOL    HW1 9161   1.828   0.583   8.432  3.1839 -1.7195  1.1619
 3054SOL    HW2 9162   1.861   0.445   8.379 -2.3961 -3.7593  2.2314
 3055SOL     OW 9163   3.733   2.889   5.959  0.6621 -0.0060 -0.2954
 3055SOL    HW1 9164   3.818   2.884   6.003  1.0622 -0.2324 -1.0610
 3055SOL    HW2 9165   3.754   2.921   5.871 -0.2483  1.4991  0.0166
 3056SOL     OW 9166   4.401   0.790   5.618 -0.7502 -0.2203 -0.4502
 3056SOL    HW1 9167   4.455   0.805   5.696  0.6619  1.1529 -1.5966
 3056SOL    HW2 9168   4.325   0.847   5.631 -0.1179  0.6497 -0.4096
 3057SOL     OW 9169   4.871   0.223   8.094 -0.0832 -0.2721  0.1322
 3057SOL    HW1 9170   4.915   0.138   8.096 -1.3053 -0.9375 -0.2989
 3057SOL    HW2 9171   4.811   0.221   8.169 -1.2726 -0.4606 -0.7932
 3058SOL     OW 9172   3.121   0.737   6.075  0.4018  0.7346 -0.4922
 3058SOL    HW1 9173   3.111   0.706   5.985 -2.1174  0.3870 -0.1655
 3058SOL    HW2 9174   3.102   0.831   6.070  0.0065  0.6672 -0.3029
 3059SOL     OW 9175   1.516   4.841   5.794  0.3551  0.4934 -0.1822
 3059SOL    HW1 9176   1.452   4.854   5.865  0.7028  1.2681 -0.0045
 3059SOL    HW2 9177   1.526   4.746   5.789  4.7229  0.2379  4.8519
 3060SOL     OW 9178   4.545   3.211   7.829 -0.3179  0.0534  0.0633
 3060SOL    HW1 9179   4.635   3.213   7.797 -1.0854  0.7807 -2.2215
 3060SOL    HW2 9180   4.525   3.118   7.842  0.0686 -0.2772 -1.5619
 3061SOL     OW 9181   4.359   4.616   6.789  0.0964  0.3228 -0.0561
 3061SOL    HW1 9182   4.283   4.671   6.806 -0.0799 -0.1159  0.5789
 3061SOL    HW2 9183   4.381   4.578   6.874  0.2940 -0.4954 -0.4687
 3062SOL     OW 9184   2.562   1.919   9.672  0.4327 -0.6773  0.0366
 3062SOL    HW1 9185   2.548   1.832   9.636  2.5286 -1.7679  1.6277
 3062SOL    HW2 9186   2.593   1.904   9.762  4.4444  1.4355 -0.7322
 3063SOL     OW 9187   1.719   4.929   5.206 -0.3222  0.5878  0.5585
 3063SOL    HW1 9188   1.677   4.879   5.136  0.4710 -0.3693  0.7491
 3063SOL    HW2 9189   1.804   4.887   5.218  0.2337  1.7916  0.9518
 3064SOL     OW 9190   3.089   3.085   4.973  0.3465  0.6253 -0.1276
 3064SOL    HW1 9191   3.104   3.179   4.961  0.9649  0.7994  1.6843
 3064SOL    HW2 9192   3.174   3.045   4.953  0.2494  0.5073 -0.3064
 3065SOL     OW 9193   0.489   3.434   5.030 -1.1095 -0.2122  0.4763
 3065SOL    HW1 9194   0.404   3.391   5.029 -0.8225 -0.7865  0.8170
 3065SOL    HW2 9195   0.552   3.364   5.046 -0.5672  0.2060  0.2238
 3066SOL     OW 9196   3.997   3.746   6.674  0.0009 -0.1434  0.3499
 3066SOL    HW1 9197   3.984   3.713   6.762 -2.4935 -0.4456 -0.0464
 3066SOL    HW2 9198   4.058   3.685   6.634  0.0162 -0.8492  1.4171
 3067SOL     OW 9199   3.503   4.488   6.171 -0.0017  0.3553 -0.8258
 3067SOL    HW1 9200   3.460   4.552   6.114  0.5100  0.9277 -0.5922
 3067SOL    HW2 9201   3.433   4.431   6.201 -0.7420  1.7170  0.1443
 3068SOL     OW 9202   0.226   2.861   4.419  0.1303  0.1108 -0.6254
 3068SOL    HW1 9203   0.265   2.873   4.506 -0.8002 -1.0187 -0.0239
 3068SOL    HW2 9204   0.165   2.788   4.430 -1.3199  1.0918 -1.8015
 3069SOL     OW 9205   1.732   4.347   5.251 -1.2718  0.0850  0.6547
 3069SOL    HW1 9206   1.657   4.357   5.309 -3.5023 -1.0694 -1.8627
 3069SOL    HW2 9207   1.734   4.254   5.230  1.8376 -0.2178  1.7597
 3070SOL     OW 9208   4.326   2.137   9.607 -0.4654  0.1696  0.2674
 3070SOL    HW1 9209   4.371   2.199   9.665 -0.8378  1.2811 -0.5902
 3070SOL    HW2 9210   4.328   2.179   9.521  3.1598 -2.9718 -1.4612
 3071SOL     OW 9211   2.985   1.458   5.754  0.0683  0.5843 -0.5776
 3071SOL    HW1 9212   3.003   1.373   5.796 -1.1449 -0.2927 -1.7492
 3071SOL    HW2 9213   2.991   1.440   5.660  0.7441  2.0432 -0.8429
 3072SOL     OW 9214   2.602   4.858   7.153  0.0223 -0.0841 -0.6020
 3072SOL    HW1 9215   2.516   4.900   7.149 -0.3638 -0.8852 -0.9272
 3072SOL    HW2 9216   2.626   4.846   7.061 -0.2125 -1.2353 -0.5274
 3073SOL     OW 9217   0.502   1.560   5.817  0.3420  0.0604 -0.5077
 3073SOL    HW1 9218   0.472   1.470   5.830 -1.8863  0.5229 -1.8978
 3073SOL    HW2 9219   0.553   1.557   5.736 -1.8034  0.3908 -1.9482
 3074SOL     OW 9220   0.091   2.791   6.343  0.5874 -0.2740  0.4580
 3074SOL    HW1 9221   0.183   2.768   6.359  0.0457 -1.8405  1.5723
 3074SOL    HW2 9222   0.080   2.876   6.384  1.6696  0.2070 -0.1997
 3075SOL     OW 9223   0.500   0.608   8.114 -0.0012 -0.0260  0.1497
 3075SOL    HW1 9224   0.578   0.602   8.058 -0.9535 -2.4006 -1.0640
 3075SOL    HW2 9225   0.427   0.595   8.054 -1.1504 -1.0499  1.7028
 3076SOL     OW 9226   1.042   3.087   5.519 -0.2806 -0.0714 -0.4846
 3076SOL    HW1 9227   1.051   3.156   5.585  1.9449 -0.5146 -0.2375
 3076SOL    HW2 9228   0.981   3.025   5.558 -1.4422  1.1892 -0.2269
 3077SOL     OW 9229   3.661   0.689   6.003 -0.5525 -0.4045  0.4662
 3077SOL    HW1 9230   3.574   0.655   5.981  0.0222 -0.6480 -1.7212
 3077SOL    HW2 9231   3.658   0.781   5.977 -0.7231  0.1157  2.2165
 3078SOL     OW 9232   4.695   4.243   7.995 -0.3072  0.4598  0.0115
 3078SOL    HW1 9233   4.724   4.212   8.081  2.5313  2.5843 -0.0515
 3078SOL    HW2 9234   4.762   4.211   7.934 -2.4236 -1.2726 -1.5767
 3079SOL     OW 9235   1.193   0.586   4.480 -0.3871  0.7197 -0.0410
 3079SOL    HW1 9236   1.226   0.617   4.564  1.0244  1.5236 -0.8700
 3079SOL    HW2 9237   1.265   0.537   4.442 -0.3958  1.7758 -1.5106
 3080SOL     OW 9238   0.056   0.981   6.184 -0.0298 -0.4664 -0.3195
 3080SOL    HW1 9239   0.011   0.956   6.103  0.8551  0.3959 -1.1049
 3080SOL    HW2 9240   0.145   1.002   6.156  0.2890 -0.1366  0.8865
 3081SOL     OW 9241   3.051   1.318   4.513 -0.1321  0.5364 -0.9729
 3081SOL    HW1 9242   3.062   1.261   4.437  3.2333 -1.4287  0.7509
 3081SOL    HW2 9243   3.057   1.259   4.588 -0.2891  2.7384  0.8592
 3082SOL     OW 9244   4.837   1.396   6.929  0.0873 -0.0881 -0.4124
 3082SOL    HW1 9245   4.822   1.327   6.863  0.4872  0.8405 -1.5044
 3082SOL    HW2 9246   4.889   1.352   6.996 -0.7891 -1.2089 -0.4238
 3083SOL     OW 9247   0.727   4.726   5.180 -0.3803  0.3692  0.7869
 3083SOL    HW1 9248   0.718   4.818   5.205 -0.0035  0.4084  0.7923
 3083SOL    HW2 9249   0.722   4.727   5.084  0.1821  0.4706  0.7506
 3084SOL     OW 9250   3.407   4.005   6.679 -0.5613 -0.0796  0.5555
 3084SOL    HW1 9251   3.323   4.051   6.669 -0.3518  0.0132 -1.1232
 3084SOL    HW2 9252   3.470   4.062   6.635 -0.0596 -1.3323 -0.3905
 3085SOL     OW 9253   2.921   2.547   7.696 -0.7944 -0.8182  0.2835
 3085SOL    HW1 9254   2.963   2.543   7.610 -0.5845 -1.7481  0.4187
 3085SOL    HW2 9255   2.830   2.523   7.679 -0.7317 -1.0896  0.3393
 3086SOL     OW 9256   2.334   0.482   5.745 -0.3830  0.7057 -0.7361
 3086SOL    HW1 9257   2.331   0.387   5.739 -1.9528  0.8272 -2.5034
 3086SOL    HW2 9258   2.275   0.503   5.817 -0.8496  0.3888 -1.0236
 3087SOL     OW 9259   4.001   2.136   6.141 -0.1603 -0.2605 -0.2296
 3087SOL    HW1 9260   4.035   2.113   6.227 -1.4075  0.2878  0.4374
 3087SOL    HW2 9261   3.993   2.231   6.142 -0.1707 -0.2461 -0.9530
 3088SOL     OW 9262   2.099   4.626   6.707 -0.1758  0.3921  0.1733
 3088SOL    HW1 9263   2.066   4.664   6.626  2.9143  1.1321 -0.8703
 3088SOL    HW2 9264   2.143   4.698   6.752  1.0348 -0.7187  0.8616
 3089SOL     OW 9265   1.838  -0.022   6.383  0.0086  0.3401 -0.0388
 3089SOL    HW1 9266   1.866   0.031   6.309  2.5242  0.6857  1.0307
 3089SOL    HW2 9267   1.783   0.037   6.435 -2.2631 -0.0839 -1.8008
 3090SOL     OW 9268   0.920   2.568   7.507  0.0276 -0.1976  0.5163
 3090SOL    HW1 9269   0.977   2.621   7.563  0.3217 -0.7480  0.7396
 3090SOL    HW2 9270   0.975   2.496   7.477 -0.3813 -0.4011  0.2369
 3091SOL     OW 9271   4.872   0.784   5.943  0.0584 -0.1644  0.3560
 3091SOL    HW1 9272   4.826   0.722   5.999 -0.9887  2.4480  2.5743
 3091SOL    HW2 9273   4.804   0.824   5.889  0.2848  0.8773  0.8090
 3092SOL     OW 9274   2.427   0.731   5.699  0.5763 -0.4604  0.0719
 3092SOL    HW1 9275   2.412   0.641   5.727  2.1522 -0.7006  0.2164
 3092SOL    HW2 9276   2.339   0.769   5.692 -0.1524 -2.2213 -0.7849
 3093SOL     OW 9277   2.925   1.409   8.467  0.0686  0.5160 -0.1721
 3093SOL    HW1 9278   2.981   1.334   8.488  1.1232  1.5598  0.8308
 3093SOL    HW2 9279   2.913   1.455   8.550  0.9447  2.4745 -1.0668
 3094SOL     OW 9280   2.897   2.068   5.025 -0.5372  0.3108  0.2864
 3094SOL    HW1 9281   2.905   2.128   5.099  0.1907  0.1081  0.3819
 3094SOL    HW2 9282   2.916   2.121   4.948  2.9844 -0.3248  0.5565
 3095SOL     OW 9283   4.725   0.500   8.025  0.6310  0.0164  0.0624
 3095SOL    HW1 9284   4.740   0.409   8.050 -0.0922  0.1062  0.8404
 3095SOL    HW2 9285   4.683   0.540   8.101  1.1587  1.0691 -0.1779
 3096SOL     OW 9286   2.215   1.942   4.707 -0.5352  0.2127  0.1125
 3096SOL    HW1 9287   2.183   1.888   4.779  0.4464  0.6067  0.8549
 3096SOL    HW2 9288   2.179   2.029   4.723 -4.3589 -0.6486 -2.5063
 3097SOL     OW 9289   1.961   3.772   6.297 -0.0761  0.7363 -0.1831
 3097SOL    HW1 9290   1.892   3.831   6.268 -0.0612  0.7223 -0.2469
 3097SOL    HW2 9291   2.035   3.790   6.239 -0.3379  0.0793 -0.7368
 3098SOL     OW 9292   3.278   1.957   7.168  0.1695  0.0725  0.2858
 3098SOL    HW1 9293   3.255   1.884   7.111  1.0499  0.7069 -0.9301
 3098SOL    HW2 9294   3.203   2.016   7.162 -0.2805 -0.4306  0.7945
 3099SOL     OW 9295   3.534   3.483   5.443 -0.4700  0.4948 -0.6002
 3099SOL    HW1 9296   3.490   3.561   5.407 -0.9768  0.2068 -0.6045
 3099SOL    HW2 9297   3.581   3.516   5.519 -2.0564  0.5001  0.4135
 3100SOL     OW 9298   0.210   2.167   6.430 -0.6159  0.3178 -0.3453
 3100SOL    HW1 9299   0.205   2.095   6.368 -1.2877  0.6229 -0.6533
 3100SOL    HW2 9300   0.218   2.125   6.515  2.9430 -0.1180 -0.7704
 3101SOL     OW 9301   0.833   4.045   4.905  0.7505 -0.4777  0.2887
 3101SOL    HW1 9302   0.893   4.106   4.863 -0.1728  0.0559 -0.2938
 3101SOL    HW2 9303   0.877   3.960   4.901  0.6095 -0.4897 -1.9878
 3102SOL     OW 9304   4.615   0.083   5.558  0.0497 -0.6223  0.2555
 3102SOL    HW1 9305   4.634   0.125   5.642  0.0582 -3.1109  1.5841
 3102SOL    HW2 9306   4.701   0.054   5.526 -0.1115 -0.8866  0.0605
 3103SOL     OW 9307   2.573   4.780   5.529 -0.1700  0.8466  0.4570
 3103SOL    HW1 9308   2.480   4.790   5.552 -0.9618  0.4648 -2.2879
 3103SOL    HW2 9309   2.592   4.856   5.474  0.9947  0.6192  0.5330
 3104SOL     OW 9310   4.994   4.866   7.449 -0.2112 -0.3898 -0.6559
 3104SOL    HW1 9311   4.934   4.932   7.484  2.5912  0.9485  2.1552
 3104SOL    HW2 9312   4.958   4.782   7.480  0.7572  0.5705  3.8171
 3105SOL     OW 9313   2.998   0.194   8.041  0.0282  0.4028  0.3294
 3105SOL    HW1 9314   3.019   0.270   7.986 -0.4173  2.4566  2.8182
 3105SOL    HW2 9315   3.083   0.166   8.075  0.1953 -0.2749 -0.6036
 3106SOL     OW 9316   2.912   4.109   7.213 -0.2730 -0.0698  0.2499
 3106SOL    HW1 9317   2.991   4.084   7.261 -0.6722 -2.0245 -0.0070
 3106SOL    HW2 9318   2.913   4.055   7.134 -2.2650 -0.7943  0.6446
 3107SOL     OW 9319   4.940   1.806   5.459  0.1259 -0.2382 -0.4146
 3107SOL    HW1 9320   4.925   1.795   5.553 -0.0709  2.3371 -0.0642
 3107SOL    HW2 9321   4.940   1.717   5.424 -2.8493 -1.1765  1.5577
 3108SOL     OW 9322   1.626   1.676   7.199 -0.5722 -0.3558  0.2028
 3108SOL    HW1 9323   1.719   1.687   7.215 -0.7854 -0.5744  1.8486
 3108SOL    HW2 9324   1.593   1.764   7.180  0.0312 -0.3502 -0.8550
 3109SOL     OW 9325   4.873   3.917   7.972 -0.1222  0.0488 -0.1887
 3109SOL    HW1 9326   4.919   3.961   7.901 -2.1172  4.9680  1.0914
 3109SOL    HW2 9327   4.782   3.914   7.943 -0.4090 -1.2704  0.7552
 3110SOL     OW 9328   4.828   3.527   4.733 -0.5478 -0.3464 -0.0372
 3110SOL    HW1 9329   4.922   3.510   4.748 -0.4848  0.5799  0.7439
 3110SOL    HW2 9330   4.797   3.450   4.686  0.7814 -0.3208 -1.0201
 3111SOL     OW 9331   0.417   3.466   6.414 -0.2083 -0.1859  0.5898
 3111SOL    HW1 9332   0.476   3.541   6.402  0.5480 -0.3272  2.9678
 3111SOL    HW2 9333   0.389   3.444   6.325  1.5367  1.3208 -0.4187
 3112SOL     OW 9334   4.300   0.526   5.723 -0.7298  0.3738  0.5371
 3112SOL    HW1 9335   4.231   0.463   5.702  0.5106 -1.3572  1.3775
 3112SOL    HW2 9336   4.260   0.586   5.785 -2.5877  1.8193 -1.8497
 3113SOL     OW 9337   3.956   1.367   8.174 -0.6493 -0.0109 -0.0014
 3113SOL    HW1 9338   3.890   1.315   8.219  0.9831 -0.5558  1.8862
 3113SOL    HW2 9339   3.918   1.455   8.168 -1.3843 -0.2015  1.4634
 3114SOL     OW 9340   0.913   4.227   5.262  0.0058  0.1696  0.2586
 3114SOL    HW1 9341   0.887   4.159   5.200  2.7845  0.1699 -1.0746
 3114SOL    HW2 9342   0.893   4.309   5.218 -1.5366  0.2535  1.0461
 3115SOL     OW 9343   2.563   2.794   7.180 -0.5828  0.1349  0.8162
 3115SOL    HW1 9344   2.485   2.849   7.171  1.7004  3.2792 -2.1584
 3115SOL    HW2 9345   2.564   2.740   7.102  1.0149  1.4167 -0.1114
 3116SOL     OW 9346   0.979   2.445   5.262  0.4804  0.1186 -0.4615
 3116SOL    HW1 9347   1.049   2.510   5.252  1.0404 -0.2414  0.8521
 3116SOL    HW2 9348   0.943   2.462   5.349 -1.8830  1.0290 -1.5453
 3117SOL     OW 9349   3.483   1.471   5.449 -0.3837 -0.0650  0.1015
 3117SOL    HW1 9350   3.461   1.558   5.417 -0.7032  1.4676  3.9694
 3117SOL    HW2 9351   3.575   1.477   5.474 -0.7549 -0.2970  1.6807
 3118SOL     OW 9352   4.533   1.344   5.515  0.0857  0.5451 -0.0766
 3118SOL    HW1 9353   4.440   1.331   5.495  0.0825  1.4505 -0.7270
 3118SOL    HW2 9354   4.579   1.297   5.446  0.1072  0.7408 -0.1947
 3119SOL     OW 9355   4.898   0.339   6.026 -0.2345  0.2423 -0.7088
 3119SOL    HW1 9356   4.929   0.371   6.111 -2.0013  0.3839 -0.0767
 3119SOL    HW2 9357   4.973   0.348   5.968  0.7958  0.8379  0.6659
 3120SOL     OW 9358   3.120   4.327   5.511  0.2322  0.0300 -0.2649
 3120SOL    HW1 9359   3.056   4.284   5.567 -0.9410  1.8002 -0.1785
 3120SOL    HW2 9360   3.179   4.372   5.571  0.9555 -0.7215 -0.3847
 3121SOL     OW 9361   4.731   3.303   4.516  0.5706 -0.2516 -0.1430
 3121SOL    HW1 9362   4.670   3.373   4.490  1.2190  1.3814  2.4289
 3121SOL    HW2 9363   4.780   3.284   4.435 -0.7474  1.0835 -1.3269
 3122SOL     OW 9364   5.006   1.504   8.612  0.4617 -0.3540 -0.5425
 3122SOL    HW1 9365   5.017   1.410   8.597 -0.1182 -0.0911 -2.9717
 3122SOL    HW2 9366   4.934   1.510   8.675 -0.5333 -1.5353 -1.5175
 3123SOL     OW 9367   4.851   3.739   8.203  0.1770  0.2646 -0.5875
 3123SOL    HW1 9368   4.789   3.678   8.162 -0.6344  0.7316 -0.0948
 3123SOL    HW2 9369   4.877   3.798   8.132  0.6264 -0.3846 -0.9653
 3124SOL     OW 9370   2.756   0.800   7.490  1.1260 -0.6517  0.0443
 3124SOL    HW1 9371   2.824   0.863   7.514  2.4569 -1.4732 -1.3757
 3124SOL    HW2 9372   2.758   0.797   7.394 -0.9051 -0.7436 -0.0310
 3125SOL     OW 9373   1.280   1.038   7.757 -0.4418  0.2548 -0.4321
 3125SOL    HW1 9374   1.314   1.100   7.692 -1.3656  0.6359 -0.5714
 3125SOL    HW2 9375   1.193   1.014   7.723  0.4530 -2.2239 -1.1301
 3126SOL     OW 9376   0.796   2.285   5.050  0.2240 -0.5137  0.1283
 3126SOL    HW1 9377   0.721   2.284   5.109  0.7655  0.0485  0.8501
 3126SOL    HW2 9378   0.852   2.355   5.084  1.1601 -1.0490 -0.2727
 3127SOL     OW 9379   4.061   1.392   8.604 -0.3978  0.2332  0.0389
 3127SOL    HW1 9380   4.118   1.390   8.527  3.5424 -0.8597  2.6976
 3127SOL    HW2 9381   4.035   1.301   8.617 -3.4098  0.7659 -1.3876
 3128SOL     OW 9382   3.010   0.223   6.997  0.5453  0.0897  0.5809
 3128SOL    HW1 9383   2.998   0.175   6.916 -1.2028  1.2534  0.0987
 3128SOL    HW2 9384   3.059   0.301   6.972  0.0112  0.4468  0.6231
 3129SOL     OW 9385   3.598   1.991   5.431 -0.2006 -0.3293 -0.4499
 3129SOL    HW1 9386   3.558   2.009   5.516 -0.5966  0.6479 -0.8264
 3129SOL    HW2 9387   3.607   1.896   5.428 -0.8050 -0.4228  0.3986
 3130SOL     OW 9388   2.818   2.100   7.372 -0.4454 -0.5690  0.4150
 3130SOL    HW1 9389   2.725   2.096   7.393 -0.9027 -0.0672 -1.3282
 3130SOL    HW2 9390   2.827   2.047   7.292  1.0182 -1.7110  1.2807
 3131SOL     OW 9391   1.745   0.373   5.046  0.1701  0.8487 -0.1717
 3131SOL    HW1 9392   1.709   0.444   5.099  0.8611 -0.2922  1.9480
 3131SOL    HW2 9393   1.719   0.294   5.093  0.6381 -0.2410 -1.7044
 3132SOL     OW 9394   1.919   2.348   7.530 -0.0526  0.4151 -0.0090
 3132SOL    HW1 9395   1.898   2.371   7.440 -1.4288  5.5552  1.2416
 3132SOL    HW2 9396   1.834   2.336   7.572  0.1676  3.1960  1.4703
 3133SOL     OW 9397   1.698   0.202   5.340 -0.3829  0.1846 -0.1626
 3133SOL    HW1 9398   1.785   0.230   5.310 -0.5991  0.7776 -0.2327
 3133SOL    HW2 9399   1.693   0.110   5.313  1.8367 -1.1746  3.3623
 3134SOL     OW 9400   0.879   3.009   5.116  0.2215 -0.2339 -0.3215
 3134SOL    HW1 9401   0.942   3.078   5.137 -2.0753  1.0043  3.8028
 3134SOL    HW2 9402   0.919   2.929   5.150  0.6175  0.1087  0.0242
 3135SOL     OW 9403   1.342   1.926  10.172 -0.0058 -0.2455  0.5565
 3135SOL    HW1 9404   1.305   2.009  10.143 -0.9622 -0.0810  2.1130
 3135SOL    HW2 9405   1.288   1.859  10.131  0.1167 -0.0808  0.1224
 3136SOL     OW 9406   3.498   4.361   6.697  0.8009  0.4983 -0.1312
 3136SOL    HW1 9407   3.494   4.287   6.636  0.1683  1.0364 -0.7560
 3136SOL    HW2 9408   3.577   4.408   6.673  1.9080 -0.6350  1.0796
 3137SOL     OW 9409   4.446   4.519  10.426  0.5120 -0.9748  0.5525
 3137SOL    HW1 9410   4.443   4.563  10.511 -0.2687  2.7436 -1.1769
 3137SOL    HW2 9411   4.497   4.579  10.371 -1.3790 -1.8117 -2.2898
 3138SOL     OW 9412   4.188   4.164   5.560  0.1256 -0.0903  0.1857
 3138SOL    HW1 9413   4.198   4.200   5.473 -0.2561 -0.6197 -0.0832
 3138SOL    HW2 9414   4.266   4.111   5.574  0.8631  1.0870  0.7224
 3139SOL     OW 9415   0.260   3.568   6.592 -0.5390  0.7308 -0.8686
 3139SOL    HW1 9416   0.183   3.514   6.579 -1.2712  0.5659  2.9857
 3139SOL    HW2 9417   0.326   3.531   6.534 -1.9316 -2.3111 -0.6713
 3140SOL     OW 9418   4.447   3.085   6.174  0.0550 -0.0431 -0.2406
 3140SOL    HW1 9419   4.355   3.080   6.150  0.3715 -3.1803 -1.1621
 3140SOL    HW2 9420   4.494   3.048   6.100  1.8544 -0.8433  1.2091
 3141SOL     OW 9421   4.272   4.646   5.612 -0.4306  0.8906 -0.0804
 3141SOL    HW1 9422   4.304   4.714   5.672 -2.6829  1.9694  0.0086
 3141SOL    HW2 9423   4.247   4.574   5.669 -1.7485  1.5769  0.2552
 3142SOL     OW 9424   2.507   2.213   5.079  0.2393  0.3498 -0.1575
 3142SOL    HW1 9425   2.477   2.263   5.155  2.2108  1.1208  0.1614
 3142SOL    HW2 9426   2.508   2.277   5.007 -0.0820  0.0097 -0.4753
 3143SOL     OW 9427   3.197   4.293   5.231  0.7620  0.2122  0.0283
 3143SOL    HW1 9428   3.275   4.335   5.268  0.4429  2.2835 -1.5040
 3143SOL    HW2 9429   3.141   4.277   5.307  2.5223 -1.1449  1.1431
 3144SOL     OW 9430   3.840   2.980   7.097  0.0803 -0.0600 -0.2344
 3144SOL    HW1 9431   3.777   2.967   7.167 -0.9938  0.8379 -1.0013
 3144SOL    HW2 9432   3.794   3.033   7.032  1.9278  1.4776 -0.3846
 3145SOL     OW 9433   0.774   0.286   8.421  0.4939 -0.1007  0.1358
 3145SOL    HW1 9434   0.758   0.205   8.372 -1.2101  0.5800 -0.5124
 3145SOL    HW2 9435   0.830   0.259   8.494 -0.3515 -1.9468  0.1795
 3146SOL     OW 9436   3.362   1.051   7.671 -0.3993 -0.1413 -0.5087
 3146SOL    HW1 9437   3.274   1.088   7.672 -0.3396 -0.0003 -0.4199
 3146SOL    HW2 9438   3.385   1.042   7.764 -1.2702 -2.4661 -0.4396
 3147SOL     OW 9439   1.489   3.707   8.642  0.4936 -0.5832 -0.2254
 3147SOL    HW1 9440   1.462   3.710   8.734  0.7341  0.4881 -0.1720
 3147SOL    HW2 9441   1.581   3.733   8.643  0.5682 -0.8254 -0.7406
 3148SOL     OW 9442   2.460   2.373   6.131  0.0061  0.9889  0.1825
 3148SOL    HW1 9443   2.519   2.335   6.196  0.0045 -2.9198 -1.8412
 3148SOL    HW2 9444   2.499   2.458   6.111  2.7299  0.2441  1.7486
 3149SOL     OW 9445   1.295   0.722   6.179  0.5285  0.3552 -0.7337
 3149SOL    HW1 9446   1.353   0.717   6.255  0.4656  0.9003 -0.6402
 3149SOL    HW2 9447   1.248   0.639   6.179 -1.6199  1.3955  1.5817
 3150SOL     OW 9448   1.908   1.407   5.887 -0.3155 -0.8425 -0.0402
 3150SOL    HW1 9449   1.964   1.335   5.859  0.8766  0.7381 -2.0086
 3150SOL    HW2 9450   1.825   1.393   5.841  0.1170 -0.6780 -0.8925
 3151SOL     OW 9451   3.711   2.146   7.262 -0.2128 -0.5826 -0.1053
 3151SOL    HW1 9452   3.766   2.193   7.200  2.1503 -2.3685  0.4775
 3151SOL    HW2 9453   3.625   2.145   7.222  0.5842  0.6913 -2.0018
 3152SOL     OW 9454   3.936   0.886   6.380  0.3622 -0.0103 -0.4841
 3152SOL    HW1 9455   3.859   0.849   6.337 -1.3028  0.1186  2.1596
 3152SOL    HW2 9456   3.921   0.981   6.380 -1.0227 -0.0993  2.4320
 3153SOL     OW 9457   1.753   3.948   6.793 -0.3396 -0.2600  0.5842
 3153SOL    HW1 9458   1.820   3.956   6.726 -0.5284 -2.8933 -0.0358
 3153SOL    HW2 9459   1.794   3.980   6.873  0.3391  1.6741 -0.4981
 3154SOL     OW 9460   1.648   2.344   8.806  0.2591  0.2769 -0.1150
 3154SOL    HW1 9461   1.621   2.256   8.779 -0.4877 -0.3359  2.3752
 3154SOL    HW2 9462   1.614   2.402   8.737 -0.6642 -1.2117 -0.9672
 3155SOL     OW 9463   1.351   4.842   8.929  0.0515  0.4990  0.1645
 3155SOL    HW1 9464   1.409   4.831   8.854 -0.2032  1.1498 -0.1431
 3155SOL    HW2 9465   1.318   4.754   8.947 -0.5883  0.4521 -1.0724
 3156SOL     OW 9466   0.753   4.346   9.093  0.2031  0.3892  0.3534
 3156SOL    HW1 9467   0.732   4.354   9.186  1.9276 -0.1360  0.8304
 3156SOL    HW2 9468   0.678   4.384   9.048 -1.0072 -0.0512  1.9310
 3157SOL     OW 9469   4.198   3.465   5.759 -0.0486  0.8943  0.1244
 3157SOL    HW1 9470   4.290   3.488   5.776  0.8094 -1.7400 -0.5086
 3157SOL    HW2 9471   4.176   3.402   5.828 -0.6709 -0.0953 -0.9418
 3158SOL     OW 9472   4.014   1.600   7.825 -0.2451  0.2579 -0.0444
 3158SOL    HW1 9473   3.963   1.589   7.905 -0.1692  0.0354 -0.0266
 3158SOL    HW2 9474   4.101   1.568   7.847 -0.2477  0.1108 -0.2386
 3159SOL     OW 9475   0.102   4.298   5.789  0.2394  0.1460 -0.4469
 3159SOL    HW1 9476   0.122   4.391   5.777 -1.0770  0.4819 -0.1857
 3159SOL    HW2 9477   0.182   4.253   5.763  0.6789  1.3243 -1.2276
 3160SOL     OW 9478   0.730   2.002   5.020  0.3728  0.4010 -0.1824
 3160SOL    HW1 9479   0.683   2.064   5.076  1.6336  2.3584 -1.1471
 3160SOL    HW2 9480   0.778   2.058   4.958  1.7474 -1.5654 -0.9959
 3161SOL     OW 9481   2.418   4.412   6.437  0.2897 -0.3879  0.3695
 3161SOL    HW1 9482   2.483   4.448   6.377 -0.0285 -1.0017 -0.3658
 3161SOL    HW2 9483   2.433   4.317   6.434 -0.8311 -0.5661 -0.0570
 3162SOL     OW 9484   0.099   2.762   5.012 -0.1541  0.3231 -0.0881
 3162SOL    HW1 9485   0.182   2.715   5.010  0.8254  1.9652 -0.8196
 3162SOL    HW2 9486   0.032   2.696   4.992  0.7982 -1.2843  1.7407
 3163SOL     OW 9487   0.242   1.477   5.167  0.2817  0.0543  0.5347
 3163SOL    HW1 9488   0.243   1.405   5.103 -2.0166 -0.3758  0.8889
 3163SOL    HW2 9489   0.297   1.447   5.239 -1.7517 -2.0526  1.3215
 3164SOL     OW 9490   3.379   3.231   6.243 -0.3224 -0.1115 -0.1034
 3164SOL    HW1 9491   3.365   3.323   6.218 -0.5644  0.1821  1.0301
 3164SOL    HW2 9492   3.456   3.204   6.193  0.7142  1.2013  0.6897
 3165SOL     OW 9493   3.701   3.858   5.556 -0.4507 -0.0579 -0.1539
 3165SOL    HW1 9494   3.666   3.811   5.632  2.1156 -0.3742  0.9366
 3165SOL    HW2 9495   3.786   3.817   5.540 -1.0155 -0.2289 -3.4875
 3166SOL     OW 9496   4.031   4.727   7.784  0.1668  0.1251  0.3299
 3166SOL    HW1 9497   4.109   4.675   7.803  0.3575  0.6760  1.0951
 3166SOL    HW2 9498   3.966   4.663   7.757  1.6933 -0.1519 -3.3557
 3167SOL     OW 9499   4.490   0.124   7.088  0.8975 -0.1139  0.2227
 3167SOL    HW1 9500   4.552   0.192   7.063 -0.0682  1.2342  1.2999
 3167SOL    HW2 9501   4.446   0.100   7.006 -0.3350  2.2593  0.0777
 3168SOL     OW 9502   3.620   3.871   5.287 -0.4262  0.1667 -0.4243
 3168SOL    HW1 9503   3.639   3.865   5.381  0.9384  0.4051 -0.6696
 3168SOL    HW2 9504   3.528   3.846   5.280 -0.8413  1.1351  1.0897
 3169SOL     OW 9505   1.019   0.539   7.473  0.2884  0.2663  0.6623
 3169SOL    HW1 9506   0.930   0.547   7.509 -0.6701 -0.0814 -1.4841
 3169SOL    HW2 9507   1.028   0.446   7.453  0.6025  0.5179 -0.3915
 3170SOL     OW 9508   3.262   3.523   4.941 -1.0499 -0.0933  0.1207
 3170SOL    HW1 9509   3.332   3.508   5.004  0.7213 -1.6809 -2.0867
 3170SOL    HW2 9510   3.242   3.436   4.906 -2.2553  0.6772 -1.2057
 3171SOL     OW 9511   0.653   3.246   6.406  0.4401  0.2513 -0.0016
 3171SOL    HW1 9512   0.721   3.228   6.471  2.2465  2.3190 -1.1891
 3171SOL    HW2 9513   0.626   3.336   6.424 -0.2128  0.2999 -1.1135
 3172SOL     OW 9514   3.725   4.862   7.634 -0.5206  0.5718 -0.1739
 3172SOL    HW1 9515   3.775   4.813   7.569  0.3656  2.1290 -0.7288
 3172SOL    HW2 9516   3.764   4.950   7.633  0.3656  0.3723  3.2787
 3173SOL     OW 9517   3.801   1.359   4.960 -0.0472  0.5205  0.5397
 3173SOL    HW1 9518   3.835   1.270   4.956 -1.5502 -0.0690  0.1200
 3173SOL    HW2 9519   3.873   1.411   4.996  0.5334 -1.0139  1.6874
 3174SOL     OW 9520   3.897   2.349   9.068  0.7268 -0.1319  0.7857
 3174SOL    HW1 9521   3.956   2.296   9.013  1.1842  1.7516 -0.6696
 3174SOL    HW2 9522   3.812   2.342   9.025  1.2532  2.0016 -0.7947
 3175SOL     OW 9523   4.862   4.480   5.039  0.1730  1.0103 -0.3673
 3175SOL    HW1 9524   4.891   4.396   5.076 -2.2532 -0.0325 -0.6249
 3175SOL    HW2 9525   4.907   4.546   5.091  0.9307 -0.4445  0.9146
 3176SOL     OW 9526   3.195   0.282   6.682 -0.3427 -0.1377  0.3296
 3176SOL    HW1 9527   3.131   0.221   6.720 -0.0911  0.7805  2.3428
 3176SOL    HW2 9528   3.256   0.226   6.634 -2.3294 -1.0838 -1.2597
 3177SOL     OW 9529   2.200   3.603   4.841 -0.3462 -0.0450 -0.0775
 3177SOL    HW1 9530   2.242   3.539   4.784 -0.0052  1.7057 -1.8974
 3177SOL    HW2 9531   2.171   3.552   4.917  4.5128 -1.5609  1.1577
 3178SOL     OW 9532   4.094   0.845   5.272  0.5678 -0.4883  0.3574
 3178SOL    HW1 9533   4.105   0.793   5.352 -2.1027 -1.3785  0.2398
 3178SOL    HW2 9534   4.088   0.781   5.202 -0.7289  0.0436 -0.0531
 3179SOL     OW 9535   0.476   0.532   6.752 -0.0608 -0.0117  0.3316
 3179SOL    HW1 9536   0.421   0.465   6.710  1.0139 -0.3375 -0.5905
 3179SOL    HW2 9537   0.433   0.615   6.729 -0.7037 -0.3053  0.4394
 3180SOL     OW 9538   4.000   2.464   5.414  0.2850 -0.7978  0.2615
 3180SOL    HW1 9539   4.055   2.465   5.336  2.3900 -1.3616  1.6624
 3180SOL    HW2 9540   3.972   2.373   5.422 -1.9115 -0.2997 -1.0912
 3181SOL     OW 9541   0.097   0.164   5.725 -0.3243 -0.2703  0.1375
 3181SOL    HW1 9542   0.140   0.113   5.793  1.0518  0.1822 -0.3590
 3181SOL    HW2 9543   0.081   0.250   5.766  2.0585  0.5833 -0.5643
 3182SOL     OW 9544   3.438   0.366   6.165 -0.2134  0.3744 -0.2092
 3182SOL    HW1 9545   3.344   0.352   6.168  0.1989 -3.0229 -0.0734
 3182SOL    HW2 9546   3.458   0.413   6.246 -1.5385 -0.7800  0.8264
 3183SOL     OW 9547   0.874   2.738   5.160  0.0215  0.9047  0.5520
 3183SOL    HW1 9548   0.867   2.677   5.087 -0.9738  1.4576  0.1624
 3183SOL    HW2 9549   0.884   2.682   5.237  2.0050  0.3363 -0.0714
 3184SOL     OW 9550   4.474   1.074   6.470 -0.9006 -0.4605 -0.0630
 3184SOL    HW1 9551   4.462   1.082   6.376 -1.7818  0.1102  0.0796
 3184SOL    HW2 9552   4.429   1.150   6.506  0.4662 -0.0195  0.7611
 3185SOL     OW 9553   0.551   1.630  14.509  0.0539  0.3631 -0.3849
 3185SOL    HW1 9554   0.492   1.592  14.575  1.5066 -0.5104  0.4736
 3185SOL    HW2 9555   0.636   1.633  14.553  0.4836  2.5049 -1.2527
 3186SOL     OW 9556   4.546   2.894   5.264  0.4304  0.5167 -0.4483
 3186SOL    HW1 9557   4.499   2.964   5.218 -3.0909 -1.5267 -0.3055
 3186SOL    HW2 9558   4.581   2.936   5.342  2.7686  3.0972 -2.6638
 3187SOL     OW 9559   0.437   4.408  10.274  0.1429 -0.1835  0.1640
 3187SOL    HW1 9560   0.471   4.496  10.255 -4.0499  1.0945 -3.0591
 3187SOL    HW2 9561   0.508   4.349  10.249  2.9150  2.1410  1.8989
 3188SOL     OW 9562   0.928   1.923   6.338 -0.2213  0.0676  0.3112
 3188SOL    HW1 9563   0.912   1.832   6.365  2.4014 -0.0452  1.7496
 3188SOL    HW2 9564   0.982   1.915   6.260  1.7710  0.3170  1.6089
 3189SOL     OW 9565   4.715   0.104   5.247 -0.5438  0.8927  0.4595
 3189SOL    HW1 9566   4.644   0.041   5.233  1.5206 -1.1608 -1.7127
 3189SOL    HW2 9567   4.681   0.164   5.314 -3.1238 -1.7657  1.7573
 3190SOL     OW 9568   4.882   2.068   8.529  1.2995 -0.0784  0.9242
 3190SOL    HW1 9569   4.859   1.976   8.518  1.4502 -0.0719  0.5282
 3190SOL    HW2 9570   4.902   2.099   8.440  0.9415  0.4203  1.0108
 3191SOL     OW 9571   2.129   1.319   9.714  0.1481 -0.2428 -0.3778
 3191SOL    HW1 9572   2.072   1.307   9.638 -0.1959  1.2592 -0.3683
 3191SOL    HW2 9573   2.217   1.323   9.677  0.0300 -0.0603 -0.6399
 3192SOL     OW 9574   0.967   2.017   9.170  0.2612  0.6328 -0.1348
 3192SOL    HW1 9575   1.022   2.026   9.092 -2.6534  0.4438 -2.4122
 3192SOL    HW2 9576   0.923   2.102   9.178 -0.9911 -0.0003 -0.0048
 3193SOL     OW 9577   2.053   0.674   7.981 -0.4687  0.8928  0.0890
 3193SOL    HW1 9578   2.053   0.579   7.994  0.0663  0.8443 -0.2288
 3193SOL    HW2 9579   1.964   0.701   8.004 -0.5194  0.3669  0.5424
 3194SOL     OW 9580   4.297   4.695   7.314  0.4184  0.1659 -0.1409
 3194SOL    HW1 9581   4.211   4.704   7.272  1.2614  2.8419 -1.5319
 3194SOL    HW2 9582   4.277   4.694   7.408 -1.1488  0.4283 -0.4320
 3195SOL     OW 9583   1.149   2.776   9.860 -0.1940 -0.4607 -0.2402
 3195SOL    HW1 9584   1.093   2.842   9.820 -1.0019 -0.8879  0.1481
 3195SOL    HW2 9585   1.223   2.825   9.896 -0.6889  0.2063 -0.1117
 3196SOL     OW 9586   1.878   3.657   6.955 -0.1202 -0.1879 -0.0218
 3196SOL    HW1 9587   1.916   3.721   6.895  0.0072  1.2045  1.4599
 3196SOL    HW2 9588   1.856   3.708   7.033  1.9295 -2.2376  2.0909
 3197SOL     OW 9589   0.835   0.750   8.725 -0.0699  0.3954 -1.0558
 3197SOL    HW1 9590   0.786   0.750   8.807  2.6256  0.1104  0.6847
 3197SOL    HW2 9591   0.780   0.701   8.664 -0.6270 -2.6812  1.6313
 3198SOL     OW 9592   1.107   4.051   7.561  0.7220  0.0178  0.1733
 3198SOL    HW1 9593   1.117   4.146   7.574 -4.3041  0.6121  1.9617
 3198SOL    HW2 9594   1.124   4.038   7.468  1.7120  2.6537 -0.0905
 3199SOL     OW 9595   0.743   4.844   7.104  0.4100 -0.1178 -0.2069
 3199SOL    HW1 9596   0.822   4.791   7.090  0.4417  0.0578 -0.7017
 3199SOL    HW2 9597   0.697   4.841   7.021 -0.0247 -0.0768  0.0297
 3200SOL     OW 9598   3.993   2.362   9.794 -0.0535 -0.2652  0.0121
 3200SOL    HW1 9599   4.043   2.411   9.729  0.0917  0.0535  0.3619
 3200SOL    HW2 9600   3.903   2.391   9.781 -0.0279 -0.2210 -0.0654
 3201SOL     OW 9601   1.299   3.861   9.351 -0.2028 -0.1721 -0.3532
 3201SOL    HW1 9602   1.392   3.862   9.374 -0.6753 -0.3740  1.7387
 3201SOL    HW2 9603   1.274   3.953   9.345 -0.1568 -0.1081  0.3963
 3202SOL     OW 9604   2.064   3.009   5.266  0.5250 -0.4233  0.2379
 3202SOL    HW1 9605   2.131   3.076   5.256  0.6498 -0.3730  1.3062
 3202SOL    HW2 9606   2.018   3.033   5.347 -1.9085  0.5252 -1.2819
 3203SOL     OW 9607   3.232   2.808   5.996  0.1520 -0.8218  0.8772
 3203SOL    HW1 9608   3.250   2.902   5.999 -0.2209 -0.7546  1.1504
 3203SOL    HW2 9609   3.242   2.785   5.904 -1.0826 -0.2363  0.5642
 3204SOL     OW 9610   1.528   4.840   7.202  0.5429 -0.5824  0.0750
 3204SOL    HW1 9611   1.601   4.884   7.158  1.0878 -0.6339  0.9099
 3204SOL    HW2 9612   1.566   4.805   7.282 -0.6290  0.3147  1.0617
 3205SOL     OW 9613   4.746   2.769   8.734  0.1588 -0.2418 -0.3315
 3205SOL    HW1 9614   4.705   2.736   8.814 -1.2516  1.1556 -0.4413
 3205SOL    HW2 9615   4.808   2.835   8.765 -2.4323  2.4112 -0.4393
 3206SOL     OW 9616   0.900   1.120   9.768  0.1530 -0.1048 -0.2801
 3206SOL    HW1 9617   0.910   1.030   9.800  0.8105 -0.0421 -0.2946
 3206SOL    HW2 9618   0.939   1.118   9.680  0.0300  0.1562 -0.3411
 3207SOL     OW 9619   3.544   2.981   7.303 -0.1076  0.1188 -0.1976
 3207SOL    HW1 9620   3.502   2.922   7.241 -1.4564  1.6940 -0.8565
 3207SOL    HW2 9621   3.558   2.928   7.382  1.2283 -1.7775 -1.6344
 3208SOL     OW 9622   1.373   2.128   7.613 -0.2144  0.6278 -0.3147
 3208SOL    HW1 9623   1.372   2.112   7.707 -1.8313  0.5628 -0.3274
 3208SOL    HW2 9624   1.457   2.092   7.584 -0.8939 -1.9944  0.6708
 3209SOL     OW 9625   3.958   2.973   9.864  0.2538  0.2921  0.2245
 3209SOL    HW1 9626   3.881   3.007   9.909 -0.6221  0.3829 -1.2956
 3209SOL    HW2 9627   3.923   2.910   9.801  1.5611 -0.7530  0.4912
 3210SOL     OW 9628   4.958   3.266   5.236  0.6517 -0.1075  0.4038
 3210SOL    HW1 9629   4.970   3.179   5.196  2.5951  0.8802 -1.3928
 3210SOL    HW2 9630   5.007   3.261   5.319  1.2342 -0.5764  0.0403
 3211SOL     OW 9631   0.952   4.859   4.957  0.1455 -0.4126  1.0173
 3211SOL    HW1 9632   0.924   4.792   4.895 -0.4357  0.1276  0.6906
 3211SOL    HW2 9633   1.005   4.812   5.021  1.9019 -0.7887 -0.6167
 3212SOL     OW 9634   0.348   0.972   6.131  0.1057 -0.4606  0.2433
 3212SOL    HW1 9635   0.434   1.004   6.159 -0.2830  0.0961  0.8297
 3212SOL    HW2 9636   0.326   0.903   6.193 -0.5197  0.4097  1.0123
 3213SOL     OW 9637   2.139   2.590   7.151  0.4473 -0.0029  0.5373
 3213SOL    HW1 9638   2.068   2.526   7.152 -1.2668  1.7616 -0.4621
 3213SOL    HW2 9639   2.116   2.652   7.220  1.6924 -0.0458  1.0142
 3214SOL     OW 9640   0.038   2.567   9.993 -0.3088  0.2077  0.1974
 3214SOL    HW1 9641  -0.039   2.602   9.949  1.3699  2.6567 -1.0052
 3214SOL    HW2 9642   0.048   2.621  10.071  0.3833  0.1759  0.1404
 3215SOL     OW 9643   3.802   2.450   7.899  0.4733 -0.0351  0.3047
 3215SOL    HW1 9644   3.723   2.502   7.882  1.2265  0.3929 -2.5531
 3215SOL    HW2 9645   3.781   2.398   7.976 -2.1192  0.9757  0.3830
 3216SOL     OW 9646   1.777   0.148   7.918  0.1121  0.0652 -0.9148
 3216SOL    HW1 9647   1.738   0.062   7.931 -1.0087  0.3341 -2.1835
 3216SOL    HW2 9648   1.869   0.137   7.939  0.2146 -1.7333 -2.0943
 3217SOL     OW 9649   3.729   2.864   9.750  0.4344  0.8800  0.8542
 3217SOL    HW1 9650   3.676   2.941   9.728 -1.1846 -0.5799 -0.6825
 3217SOL    HW2 9651   3.686   2.826   9.826  0.0609  0.4281  0.4209
 3218SOL     OW 9652   3.869   0.465   6.330 -0.1750  0.3992 -0.3662
 3218SOL    HW1 9653   3.870   0.466   6.426 -1.0008  0.6539 -0.3535
 3218SOL    HW2 9654   3.887   0.374   6.307 -1.7797 -0.0788  0.0914
 3219SOL     OW 9655   1.924   3.797   7.440 -0.1289 -0.9451  0.1954
 3219SOL    HW1 9656   1.964   3.735   7.500  0.0446  1.1773  2.4521
 3219SOL    HW2 9657   1.997   3.852   7.411 -0.2382 -1.8316 -1.9322
 3220SOL     OW 9658   0.369   0.477   5.288 -0.1188 -0.3238  0.3136
 3220SOL    HW1 9659   0.296   0.442   5.339 -0.1259 -1.5660 -0.5047
 3220SOL    HW2 9660   0.426   0.519   5.353  0.1845 -2.3879  1.4615
 3221SOL     OW 9661   3.826   2.723   8.618 -0.3288  0.1707  0.0380
 3221SOL    HW1 9662   3.769   2.800   8.619 -0.8883 -0.2311  0.9210
 3221SOL    HW2 9663   3.804   2.679   8.536  0.3041  1.1486 -0.6868
 3222SOL     OW 9664   1.495   4.662   9.542 -0.6225 -0.1172 -0.1282
 3222SOL    HW1 9665   1.549   4.732   9.506 -0.9925  0.6275  0.7286
 3222SOL    HW2 9666   1.408   4.701   9.553 -0.7232 -0.5723  0.7748
 3223SOL     OW 9667   2.690   3.656   5.276 -0.2526  0.5181  0.1668
 3223SOL    HW1 9668   2.742   3.617   5.345 -2.0107 -2.6409 -0.0828
 3223SOL    HW2 9669   2.753   3.682   5.209  1.1815 -0.3693  1.1345
 3224SOL     OW 9670   4.050   0.216   9.230  0.2235 -0.2580  0.2789
 3224SOL    HW1 9671   4.073   0.129   9.264  2.2168  1.5170  4.1015
 3224SOL    HW2 9672   4.135   0.257   9.211 -0.6156  1.2660 -0.2817
 3225SOL     OW 9673   0.751   3.415   7.370  0.1251  0.6763 -0.3333
 3225SOL    HW1 9674   0.753   3.385   7.278 -1.7852 -4.3422  0.9066
 3225SOL    HW2 9675   0.659   3.435   7.386  0.5216  1.9527  0.4117
 3226SOL     OW 9676   2.631   0.539   8.688 -0.4713  0.7111 -0.6108
 3226SOL    HW1 9677   2.616   0.493   8.605 -1.6077  0.6755 -0.3935
 3226SOL    HW2 9678   2.639   0.631   8.663  0.7526  0.5418 -0.9232
 3227SOL     OW 9679   0.358   4.619   9.504  0.0981  0.5767 -0.0212
 3227SOL    HW1 9680   0.439   4.568   9.510  1.0733  2.0980  0.3224
 3227SOL    HW2 9681   0.351   4.664   9.588 -1.8930 -0.6183  0.5115
 3228SOL     OW 9682   0.200   2.618   5.278  0.4118 -0.8590 -0.4422
 3228SOL    HW1 9683   0.270   2.557   5.254 -0.0285 -1.4923 -0.1230
 3228SOL    HW2 9684   0.193   2.611   5.373  1.1679  0.5873 -0.2420
 3229SOL     OW 9685   0.316   3.665   8.365  0.5311  0.5601 -0.1235
 3229SOL    HW1 9686   0.276   3.640   8.282 -0.9474 -0.0145  0.7045
 3229SOL    HW2 9687   0.257   3.627   8.431  0.7639  2.3718  1.1868
 3230SOL     OW 9688   3.832   1.526   8.715  0.5289 -0.0885  0.3476
 3230SOL    HW1 9689   3.887   1.569   8.780  1.1407 -1.3893  0.7206
 3230SOL    HW2 9690   3.893   1.476   8.660 -0.1463 -0.4514 -0.0979
 3231SOL     OW 9691   0.095   2.886   5.842 -0.5024 -0.1414 -0.7302
 3231SOL    HW1 9692   0.092   2.808   5.897 -2.2488  0.8870  0.7274
 3231SOL    HW2 9693   0.004   2.902   5.817 -0.3553  2.0311 -0.0681
 3232SOL     OW 9694   2.126   3.872   4.802  0.5935 -0.0591 -0.4576
 3232SOL    HW1 9695   2.074   3.868   4.722 -0.8634  2.5461  0.2302
 3232SOL    HW2 9696   2.142   3.781   4.826 -1.5945 -0.9331 -2.0342
 3233SOL     OW 9697   0.151   3.920   8.077 -0.6882 -0.2865 -0.1691
 3233SOL    HW1 9698   0.142   3.944   8.169  0.9952 -0.5769  0.1105
 3233SOL    HW2 9699   0.075   3.958   8.034  0.5623  3.4760  0.6353
 3234SOL     OW 9700   2.470   1.186   7.135  0.4490 -0.2980 -0.1761
 3234SOL    HW1 9701   2.391   1.174   7.188 -0.0242 -1.4735 -1.1093
 3234SOL    HW2 9702   2.485   1.280   7.135 -0.6544 -0.1084  0.4492
 3235SOL     OW 9703   3.772   3.772   7.217  0.0512 -0.4222 -1.2483
 3235SOL    HW1 9704   3.837   3.702   7.220 -1.0494 -1.5995 -3.0280
 3235SOL    HW2 9705   3.793   3.821   7.137  1.8140  2.4057  0.7662
 3236SOL     OW 9706   1.359   0.560   7.787  0.4211 -0.3902  0.5706
 3236SOL    HW1 9707   1.393   0.593   7.870 -3.5939  0.3148  2.2078
 3236SOL    HW2 9708   1.301   0.488   7.812  0.8165 -1.6798 -1.9241
 3237SOL     OW 9709   3.405   3.935   6.014 -0.0993  0.0012  0.0856
 3237SOL    HW1 9710   3.314   3.966   6.015  0.7101  2.6989 -0.8788
 3237SOL    HW2 9711   3.422   3.908   6.104 -2.0736 -1.4836  0.0928
 3238SOL     OW 9712   3.457   0.627   7.852 -0.1099 -0.3464  0.6810
 3238SOL    HW1 9713   3.384   0.629   7.914 -1.4017 -2.9660 -0.6146
 3238SOL    HW2 9714   3.416   0.621   7.766  1.6463 -0.7441 -0.1674
 3239SOL     OW 9715   2.986   3.121   8.232  1.3422 -0.3894 -0.5989
 3239SOL    HW1 9716   3.013   3.156   8.147  1.7586 -0.2385 -0.4065
 3239SOL    HW2 9717   2.894   3.098   8.220  1.0524  0.7737 -0.7236
 3240SOL     OW 9718   0.065   0.960   6.440 -0.1859  0.0397  0.1254
 3240SOL    HW1 9719   0.040   0.972   6.348 -2.3373  2.0245  0.8690
 3240SOL    HW2 9720   0.137   0.897   6.437  1.2598  1.5768 -3.1064
 3241SOL     OW 9721   1.735   0.575   7.677 -0.3735  0.1838 -0.3410
 3241SOL    HW1 9722   1.792   0.502   7.652 -0.3709  0.3937 -0.9729
 3241SOL    HW2 9723   1.768   0.602   7.763  0.0553 -0.1261 -0.3998
 3242SOL     OW 9724   2.818   3.470   5.452  0.3791 -0.1329 -0.5819
 3242SOL    HW1 9725   2.891   3.418   5.486  0.4879  1.5316  1.9693
 3242SOL    HW2 9726   2.740   3.419   5.474  0.4549  0.8151  2.3067
 3243SOL     OW 9727   2.216   3.410  10.227 -0.2600  0.0242 -0.1214
 3243SOL    HW1 9728   2.145   3.468  10.200  0.7570  1.7883  0.7881
 3243SOL    HW2 9729   2.205   3.332  10.174 -1.5770  1.1333 -1.5662
 3244SOL     OW 9730   4.935   0.360   8.947  0.1291  0.1289 -0.4054
 3244SOL    HW1 9731   4.942   0.289   8.882  0.6986  1.5433 -1.9452
 3244SOL    HW2 9732   4.981   0.327   9.024 -2.0967 -2.3359  0.0390
 3245SOL     OW 9733   3.205   3.973   8.202  0.1538  0.1063 -0.4454
 3245SOL    HW1 9734   3.250   3.921   8.136  0.8335 -0.1948  0.2357
 3245SOL    HW2 9735   3.172   4.049   8.154  1.5707  0.4406 -0.9451
 3246SOL     OW 9736   1.439   3.144   7.370  0.3163 -0.0337 -0.2087
 3246SOL    HW1 9737   1.386   3.100   7.437  2.2119 -2.4481 -0.1766
 3246SOL    HW2 9738   1.470   3.224   7.414 -0.2246 -0.4705  1.0322
 3247SOL     OW 9739   0.820   0.531  10.108 -0.0884  0.2460 -0.0023
 3247SOL    HW1 9740   0.912   0.511  10.124 -0.4400 -0.3628  1.3654
 3247SOL    HW2 9741   0.806   0.506  10.016  1.5677  2.2048 -0.8599
 3248SOL     OW 9742   3.987   1.989   9.607 -0.2661  0.7483 -0.5563
 3248SOL    HW1 9743   3.894   1.971   9.620 -0.6907  0.0584 -3.7306
 3248SOL    HW2 9744   3.993   2.084   9.601 -0.2948  0.9883  2.0348
 3249SOL     OW 9745   4.616   4.807   9.848 -0.4894 -0.3003  0.1886
 3249SOL    HW1 9746   4.675   4.777   9.918 -0.9060 -2.0158 -0.1483
 3249SOL    HW2 9747   4.624   4.902   9.849  2.6430 -0.4553 -0.1381
 3250SOL     OW 9748   4.648   0.043   7.782 -0.6249  0.0590 -0.3025
 3250SOL    HW1 9749   4.620   0.053   7.873 -1.0086  1.6472 -0.5641
 3250SOL    HW2 9750   4.725   0.099   7.774  0.5130 -1.4744 -0.5270
 3251SOL     OW 9751   4.758   4.762   5.841 -0.1812 -0.5499  0.2127
 3251SOL    HW1 9752   4.680   4.707   5.849 -0.2546 -0.7136 -1.3990
 3251SOL    HW2 9753   4.764   4.783   5.748  0.3918  1.3960  0.6367
 3252SOL     OW 9754   0.344   3.574   9.807  0.1662 -0.0239  0.3472
 3252SOL    HW1 9755   0.399   3.496   9.809 -0.4232 -0.4781 -0.4519
 3252SOL    HW2 9756   0.294   3.566   9.725 -0.5662  0.7261  0.7069
 3253SOL     OW 9757   1.890   3.174   9.213  0.1945  0.1963  0.1026
 3253SOL    HW1 9758   1.956   3.119   9.172  0.1868  0.4793 -0.2965
 3253SOL    HW2 9759   1.867   3.129   9.294 -0.5657 -0.9015 -0.7072
 3254SOL     OW 9760   4.244   3.365   6.039 -1.0197  0.0909 -0.1559
 3254SOL    HW1 9761   4.249   3.338   6.131  0.2371  1.2227  0.1433
 3254SOL    HW2 9762   4.326   3.412   6.023 -0.8011 -0.8832 -2.1466
 3255SOL     OW 9763   2.922   4.939   7.982 -0.0794  0.7976  0.4993
 3255SOL    HW1 9764   2.954   5.022   8.017  1.0825 -0.2303  2.0120
 3255SOL    HW2 9765   2.870   4.902   8.054 -2.6014  1.2411 -0.9912
 3256SOL     OW 9766   0.962   2.995   9.323 -0.1247  0.2873 -0.6536
 3256SOL    HW1 9767   1.054   2.984   9.300  0.8869 -0.1891  3.0047
 3256SOL    HW2 9768   0.959   3.076   9.374 -0.6316 -2.0078  3.4090
 3257SOL     OW 9769   1.491   2.829   6.020  0.4906  0.3262 -0.8829
 3257SOL    HW1 9770   1.420   2.891   6.034  0.9115  1.1213 -2.0922
 3257SOL    HW2 9771   1.568   2.871   6.057  0.6330  0.1922 -1.0207
 3258SOL     OW 9772   3.558   0.928   8.519 -0.4823 -0.0730 -0.6151
 3258SOL    HW1 9773   3.479   0.981   8.509 -1.0639 -0.5412  1.0809
 3258SOL    HW2 9774   3.530   0.854   8.573  1.3802  0.4431  1.1599
 3259SOL     OW 9775   4.248   2.524   7.724  0.0950  0.2221 -0.3049
 3259SOL    HW1 9776   4.162   2.513   7.764 -0.6454  0.3156 -1.7957
 3259SOL    HW2 9777   4.270   2.616   7.738 -0.8570  0.6419 -1.4021
 3260SOL     OW 9778   3.179   4.478   4.994 -1.0492  0.2724 -0.0365
 3260SOL    HW1 9779   3.231   4.507   5.069 -1.3469  2.3306 -0.5635
 3260SOL    HW2 9780   3.139   4.396   5.023 -0.1215  0.3388  1.5618
 3261SOL     OW 9781   0.489   3.219  10.485  1.0671  0.3603  0.2261
 3261SOL    HW1 9782   0.550   3.290  10.465  1.0775  0.6990  1.4253
 3261SOL    HW2 9783   0.402   3.259  10.477  1.0280  0.1767 -0.3263
 3262SOL     OW 9784   4.825   0.424   8.511 -0.0312 -0.7042  0.1747
 3262SOL    HW1 9785   4.848   0.494   8.572 -2.5136  1.0731 -0.7505
 3262SOL    HW2 9786   4.907   0.403   8.466  0.8752  1.3586  0.7530
 3263SOL     OW 9787   0.637   2.605   9.025 -0.3407  0.8897 -0.1444
 3263SOL    HW1 9788   0.604   2.574   9.109  0.4080  0.4012 -0.0225
 3263SOL    HW2 9789   0.561   2.603   8.967  0.0465 -3.8817 -0.9351
 3264SOL     OW 9790   2.327   1.953   5.050 -0.0790  0.0092  0.0535
 3264SOL    HW1 9791   2.336   1.876   4.995 -3.4003 -2.0654  2.0158
 3264SOL    HW2 9792   2.256   2.003   5.010  0.6675  0.9690 -0.0880
 3265SOL     OW 9793   2.458   4.943   6.856  0.2049  0.5561  0.0766
 3265SOL    HW1 9794   2.515   5.007   6.813  0.5901 -0.3869 -0.8582
 3265SOL    HW2 9795   2.375   4.988   6.868 -1.3595 -0.2310 -5.3801
 3266SOL     OW 9796   3.810   1.039   5.031  0.0913  0.4452  0.0093
 3266SOL    HW1 9797   3.840   1.021   5.121  2.4445 -1.2143 -0.9751
 3266SOL    HW2 9798   3.716   1.050   5.039  0.1575 -0.1094  2.6397
 3267SOL     OW 9799   2.877   4.029   7.599 -0.5525 -0.0349  0.4851
 3267SOL    HW1 9800   2.940   4.100   7.612  0.0951 -0.2749 -1.0191
 3267SOL    HW2 9801   2.932   3.951   7.588 -1.0443 -0.1524 -1.4725
 3268SOL     OW 9802   0.038   4.602   9.743  0.4627  0.4445  0.9577
 3268SOL    HW1 9803   0.064   4.637   9.658  3.6228  1.1556  2.0649
 3268SOL    HW2 9804  -0.043   4.649   9.765 -1.0402 -0.4956 -1.9850
 3269SOL     OW 9805   3.326   4.518  10.606 -0.4117  0.3555  0.3032
 3269SOL    HW1 9806   3.401   4.459  10.613 -0.0080  0.7477 -0.5883
 3269SOL    HW2 9807   3.365   4.605  10.600 -0.9611  0.6089  0.3600
 3270SOL     OW 9808   0.251   1.591   8.363 -0.2769  0.3506 -0.1066
 3270SOL    HW1 9809   0.343   1.617   8.369 -0.5128  0.9859  1.3116
 3270SOL    HW2 9810   0.235   1.540   8.442 -1.6610  2.0645  0.8010
 3271SOL     OW 9811   1.534   2.522   5.716  0.1920 -1.0224  0.3143
 3271SOL    HW1 9812   1.513   2.540   5.808  0.8410  1.4533  0.0682
 3271SOL    HW2 9813   1.623   2.557   5.705 -0.8046  1.1956 -1.8094
 3272SOL     OW 9814   2.651   4.328   6.791  0.4945 -0.3165 -1.0853
 3272SOL    HW1 9815   2.647   4.309   6.885 -0.9400  4.7606  0.2133
 3272SOL    HW2 9816   2.563   4.313   6.759 -0.1693  1.8183 -0.4654
 3273SOL     OW 9817   4.311   1.425  10.013 -0.4852  0.5161  0.2900
 3273SOL    HW1 9818   4.222   1.394   9.997 -0.1539  0.4401 -1.6220
 3273SOL    HW2 9819   4.360   1.401   9.934  1.9007 -1.7133  2.2294
 3274SOL     OW 9820   3.551   4.680   6.858  0.6720 -0.7426  0.3906
 3274SOL    HW1 9821   3.588   4.682   6.770 -3.0897 -2.1199 -1.4244
 3274SOL    HW2 9822   3.590   4.603   6.898  1.7283 -0.6428 -0.3921
 3275SOL     OW 9823   1.890   2.853   7.355  0.6238 -0.0927 -0.4697
 3275SOL    HW1 9824   1.877   2.760   7.371  2.9447 -0.0280  2.7644
 3275SOL    HW2 9825   1.803   2.892   7.365 -0.5387 -1.9181 -2.7352
 3276SOL     OW 9826   1.964   4.827   9.412 -0.6088 -0.1665 -0.3093
 3276SOL    HW1 9827   2.009   4.908   9.438 -1.0127  0.1413 -0.5689
 3276SOL    HW2 9828   2.033   4.760   9.415  0.2767  0.5634 -2.1871
 3277SOL     OW 9829   1.708   1.522  10.109 -0.1669  0.0590  0.3817
 3277SOL    HW1 9830   1.651   1.595  10.136 -0.9167 -0.4335  0.1418
 3277SOL    HW2 9831   1.789   1.565  10.081 -1.6268  1.1161 -2.7093
 3278SOL     OW 9832   2.337   3.226   6.714 -0.5378 -0.1621 -0.0178
 3278SOL    HW1 9833   2.417   3.180   6.741 -1.3698 -1.0452  1.0029
 3278SOL    HW2 9834   2.307   3.270   6.793 -1.8505 -1.0476  0.0079
 3279SOL     OW 9835   4.717   0.764   8.787  0.3204 -1.1191  0.1266
 3279SOL    HW1 9836   4.759   0.847   8.810 -1.6635 -0.1797  0.6005
 3279SOL    HW2 9837   4.761   0.699   8.841  0.6111 -0.0520  1.2095
 3280SOL     OW 9838   2.752   3.208   6.987 -0.7806 -0.6948 -0.0858
 3280SOL    HW1 9839   2.788   3.140   7.045 -0.3081 -1.1792 -0.9280
 3280SOL    HW2 9840   2.665   3.227   7.024 -0.3291 -0.6851  1.0216
 3281SOL     OW 9841   2.963   1.242   9.537 -0.2554 -0.0860 -0.0234
 3281SOL    HW1 9842   2.940   1.250   9.445  1.7576 -1.7561 -0.7617
 3281SOL    HW2 9843   3.050   1.282   9.543 -1.0323  1.4712  1.5278
 3282SOL     OW 9844   3.240   2.908   8.033 -0.2644 -0.0789 -0.2414
 3282SOL    HW1 9845   3.150   2.877   8.047 -0.5053 -0.8089 -2.8279
 3282SOL    HW2 9846   3.278   2.844   7.974  1.3102  1.3110 -0.8020
 3283SOL     OW 9847   2.356   4.485   9.963  0.2971  0.2550  0.3605
 3283SOL    HW1 9848   2.423   4.421   9.989  0.7085  0.7505  0.5417
 3283SOL    HW2 9849   2.282   4.466  10.020  0.5212  0.1228  0.6120
 3284SOL     OW 9850   0.239   0.493   9.797 -0.9130  0.6815  0.2465
 3284SOL    HW1 9851   0.148   0.506   9.822 -1.2077 -0.3550 -0.2374
 3284SOL    HW2 9852   0.287   0.561   9.845 -1.7583  0.3664  1.6143
 3285SOL     OW 9853   0.982   1.193   8.280  0.1941 -1.0693 -0.1583
 3285SOL    HW1 9854   1.021   1.110   8.309 -0.9032 -1.5295  0.0222
 3285SOL    HW2 9855   0.968   1.243   8.360  1.3243 -0.4780 -0.3064
 3286SOL     OW 9856   1.424   0.668   5.719  0.8984 -0.3955  0.5006
 3286SOL    HW1 9857   1.353   0.691   5.779 -0.3436  0.1284 -1.0963
 3286SOL    HW2 9858   1.387   0.598   5.664  1.2162  0.5688 -1.0038
 3287SOL     OW 9859   2.137   3.873   8.700 -0.0582  0.7554  0.4960
 3287SOL    HW1 9860   2.191   3.943   8.738 -1.9504  1.7249  1.6208
 3287SOL    HW2 9861   2.054   3.881   8.747 -1.7561  0.4261 -2.2406
 3288SOL     OW 9862   4.619   0.967   6.680  0.8238  0.4588  0.3559
 3288SOL    HW1 9863   4.574   1.023   6.617 -0.3981 -1.3408 -0.4509
 3288SOL    HW2 9864   4.708   0.958   6.646  0.5965  0.6902 -0.2986
 3289SOL     OW 9865   0.708   0.739   8.471  0.2475  0.1682  0.1213
 3289SOL    HW1 9866   0.618   0.760   8.447  1.3396  1.1907 -3.6638
 3289SOL    HW2 9867   0.741   0.683   8.401  1.8373 -2.6446  2.8233
 3290SOL     OW 9868   1.364   3.149   7.722 -0.3698  0.5571 -0.5106
 3290SOL    HW1 9869   1.450   3.180   7.749  0.1745  0.2743 -1.8248
 3290SOL    HW2 9870   1.321   3.124   7.803  1.2227 -0.3823  0.0963
 3291SOL     OW 9871   0.333   5.001  10.123 -0.2536 -0.3677 -0.4182
 3291SOL    HW1 9872   0.333   4.907  10.102 -0.6972  0.2133 -3.5521
 3291SOL    HW2 9873   0.266   5.011  10.190 -0.6065 -2.2257 -0.4503
 3292SOL     OW 9874   2.076   4.552   9.912  0.0136  0.0395 -0.3167
 3292SOL    HW1 9875   2.100   4.574  10.002  0.4823  1.8156 -0.8441
 3292SOL    HW2 9876   2.115   4.621   9.859 -1.2069 -0.3426 -1.7857
 3293SOL     OW 9877   0.940   2.960   9.836  0.0610  0.3240 -0.7022
 3293SOL    HW1 9878   0.851   2.952   9.801 -0.0761  1.6883 -0.7283
 3293SOL    HW2 9879   0.992   2.992   9.762  0.3756  0.4687 -0.4196
 3294SOL     OW 9880   0.118   4.525   9.058  0.5143 -1.1006  0.1482
 3294SOL    HW1 9881   0.069   4.503   9.137  1.0013 -0.1972  0.7290
 3294SOL    HW2 9882   0.185   4.587   9.088 -0.6330  0.9726 -1.3179
 3295SOL     OW 9883   2.879   3.922  10.221  0.5833  0.6314 -0.4060
 3295SOL    HW1 9884   2.813   3.991  10.220 -0.7533 -0.4493 -3.9361
 3295SOL    HW2 9885   2.829   3.841  10.228  2.0346 -0.1862  2.3676
 3296SOL     OW 9886   1.127   4.385   7.703  0.2636  0.8392 -0.6996
 3296SOL    HW1 9887   1.076   4.422   7.775  0.7113  0.5232 -0.2156
 3296SOL    HW2 9888   1.068   4.388   7.628 -1.2169 -1.4340  0.2916
 3297SOL     OW 9889   2.578   2.285   5.722  0.7472  0.3144 -0.5443
 3297SOL    HW1 9890   2.633   2.364   5.724  2.1075 -0.5567  2.5637
 3297SOL    HW2 9891   2.503   2.307   5.776  1.4269 -0.6663  0.8339
 3298SOL     OW 9892   0.093   3.117   6.735  0.0472 -0.1856  0.8191
 3298SOL    HW1 9893   0.154   3.125   6.809  0.3618 -1.1836  0.6909
 3298SOL    HW2 9894   0.008   3.099   6.775 -0.0439  0.5472  0.9737
 3299SOL     OW 9895   3.075   2.153   7.201  0.2294 -0.2921  0.2702
 3299SOL    HW1 9896   3.071   2.205   7.281  1.2121  0.7834 -0.3503
 3299SOL    HW2 9897   2.985   2.153   7.168  0.1873  0.9273  0.3489
 3300SOL     OW 9898   3.875   4.961   9.851  0.9543 -0.2567  0.2716
 3300SOL    HW1 9899   3.844   5.004   9.931 -1.1138 -2.4017  0.7388
 3300SOL    HW2 9900   3.834   5.011   9.780  0.2875 -0.1775  0.7042
 3301SOL     OW 9901   4.777   1.269   8.314 -0.3983 -0.4649 -0.0869
 3301SOL    HW1 9902   4.778   1.234   8.225 -0.3102 -0.6488 -0.0115
 3301SOL    HW2 9903   4.865   1.303   8.328 -0.0838 -1.4134  0.3234
 3302SOL     OW 9904   0.417   2.121   5.420  0.3360  0.2989 -0.0142
 3302SOL    HW1 9905   0.340   2.111   5.364 -0.1124  1.3716  0.3973
 3302SOL    HW2 9906   0.441   2.031   5.443  0.2545 -0.1461 -1.5349
 3303SOL     OW 9907   2.469   3.414   5.792 -0.2443 -0.3378  0.3907
 3303SOL    HW1 9908   2.416   3.425   5.713 -0.8919  1.5431  1.0322
 3303SOL    HW2 9909   2.487   3.503   5.822 -2.8282 -0.8449  4.1741
 3304SOL     OW 9910   3.714   4.530   8.002 -0.8165  0.2338  0.3382
 3304SOL    HW1 9911   3.660   4.460   8.038  0.1014 -0.4754  0.3778
 3304SOL    HW2 9912   3.804   4.504   8.023 -0.5166  2.1720  1.6977
 3305SOL     OW 9913   2.093   4.169   5.759  0.0988 -0.2957  0.5141
 3305SOL    HW1 9914   2.066   4.231   5.691 -2.2018 -0.3963  1.2650
 3305SOL    HW2 9915   2.085   4.218   5.841 -0.8725 -1.2805  1.0327
 3306SOL     OW 9916   0.674   2.105  10.187  0.3511  0.0737  0.3162
 3306SOL    HW1 9917   0.712   2.074  10.270 -0.9214  0.0441  0.9182
 3306SOL    HW2 9918   0.732   2.069  10.120  0.9594 -0.5816  1.1548
 3307SOL     OW 9919   3.845   4.503   7.729 -0.9787  0.4838  0.3075
 3307SOL    HW1 9920   3.847   4.407   7.723  0.1969  0.4762  0.5491
 3307SOL    HW2 9921   3.791   4.521   7.806  0.3260 -0.0636  1.3931
 3308SOL     OW 9922   0.707   1.576   8.220 -0.2813  0.1557 -0.5549
 3308SOL    HW1 9923   0.642   1.642   8.197  0.9807  1.7816  0.2856
 3308SOL    HW2 9924   0.777   1.625   8.264  0.8467 -1.7146 -0.1159
 3309SOL     OW 9925   2.728   3.817   7.416 -0.1779 -0.2747  0.5720
 3309SOL    HW1 9926   2.665   3.752   7.447 -1.6345  0.6371 -0.3651
 3309SOL    HW2 9927   2.801   3.811   7.478  0.3327 -3.6408 -0.1816
 3310SOL     OW 9928   4.704   2.728   8.349 -0.0748  0.7083 -0.4809
 3310SOL    HW1 9929   4.755   2.805   8.323 -0.6506  0.7390 -1.5955
 3310SOL    HW2 9930   4.673   2.692   8.266 -1.2861  0.2989  0.1348
 3311SOL     OW 9931   1.103   4.063  10.175 -0.1456  0.1102  0.4030
 3311SOL    HW1 9932   1.062   4.142  10.211 -1.9540 -0.5001 -0.1950
 3311SOL    HW2 9933   1.120   4.008  10.252 -0.7977  0.2415  0.6486
 3312SOL     OW 9934   2.623   0.278   6.579  0.9735  0.1918 -0.5344
 3312SOL    HW1 9935   2.644   0.344   6.513  0.4705 -0.6366 -1.5527
 3312SOL    HW2 9936   2.657   0.314   6.661  2.3830  0.8570 -1.3838
 3313SOL     OW 9937   2.391   4.399   6.702  0.0087 -0.2430 -0.5994
 3313SOL    HW1 9938   2.381   4.424   6.610  1.9511 -0.1570 -0.8348
 3313SOL    HW2 9939   2.385   4.481   6.751  2.3074  0.2445 -1.0041
 3314SOL     OW 9940   3.990   1.679   5.275 -0.4036  0.5889 -0.1300
 3314SOL    HW1 9941   4.017   1.749   5.216  0.1504  1.0970  0.6960
 3314SOL    HW2 9942   4.048   1.688   5.351 -2.3406  1.1760  1.3613
 3315SOL     OW 9943   3.360   2.327   6.522 -0.4527 -0.6126  0.0270
 3315SOL    HW1 9944   3.374   2.375   6.440 -0.9022 -1.5727 -0.6411
 3315SOL    HW2 9945   3.294   2.378   6.569  1.7709  1.4725  1.1204
 3316SOL     OW 9946   1.666   3.391   9.997 -0.3770 -0.2610 -0.3118
 3316SOL    HW1 9947   1.745   3.444  10.004 -0.0477 -0.7051 -0.6521
 3316SOL    HW2 9948   1.613   3.417  10.073 -1.0117  1.8402 -1.3766
 3317SOL     OW 9949   4.198   1.709   5.493 -0.2993  0.1403 -0.1850
 3317SOL    HW1 9950   4.249   1.790   5.500  0.6509 -0.4629  0.0041
 3317SOL    HW2 9951   4.233   1.653   5.562  0.1734 -1.0252 -1.3431
 3318SOL     OW 9952   1.421   0.410  10.124 -0.0609  0.4292 -0.2616
 3318SOL    HW1 9953   1.426   0.394  10.219  2.5417 -0.9994 -0.5457
 3318SOL    HW2 9954   1.498   0.463  10.105 -1.0435  1.4734 -1.4870
 3319SOL     OW 9955   4.289   4.937   7.160 -0.4402 -0.3185  0.4367
 3319SOL    HW1 9956   4.314   4.866   7.220  1.4089 -0.1904 -0.1281
 3319SOL    HW2 9957   4.363   4.997   7.162 -1.2828  0.7922 -0.3577
 3320SOL     OW 9958   4.394   1.780   9.818 -0.3943 -0.3654 -0.3442
 3320SOL    HW1 9959   4.405   1.756   9.909  0.4332  1.1672 -0.0014
 3320SOL    HW2 9960   4.311   1.829   9.816 -0.7368 -0.9483 -0.5399
 3321SOL     OW 9961   1.843   3.175   7.876  0.0375 -0.0234  0.4954
 3321SOL    HW1 9962   1.867   3.094   7.921  0.2783  0.0551  0.5097
 3321SOL    HW2 9963   1.843   3.151   7.783  0.7194  0.1144  0.4577
 3322SOL     OW 9964   3.600   4.257   9.221  0.1148 -0.1658  0.0004
 3322SOL    HW1 9965   3.581   4.349   9.239 -0.6142 -0.3279  0.0775
 3322SOL    HW2 9966   3.526   4.227   9.169 -1.2010 -1.4940  2.4538
 3323SOL     OW 9967   0.357   2.912   9.958 -0.8452 -0.1839  0.7755
 3323SOL    HW1 9968   0.422   2.908  10.028 -0.0500 -0.6015  0.0249
 3323SOL    HW2 9969   0.381   2.989   9.906  1.2848 -2.2638 -1.5929
 3324SOL     OW 9970   5.030   2.208   5.161  0.7962  0.1992  0.6218
 3324SOL    HW1 9971   5.004   2.283   5.109 -1.5204 -0.8769  0.0719
 3324SOL    HW2 9972   4.948   2.174   5.197  1.7838 -1.8653  1.1200
 3325SOL     OW 9973   1.812   1.515   8.147 -0.9093 -0.2740 -0.2235
 3325SOL    HW1 9974   1.728   1.473   8.167  0.0215 -1.7838  0.6911
 3325SOL    HW2 9975   1.833   1.487   8.058 -0.7922 -0.9176  0.0024
 3326SOL     OW 9976   0.918   1.136   6.457  0.0072 -0.5241 -0.3401
 3326SOL    HW1 9977   1.014   1.138   6.458  0.1739 -2.2315 -3.0181
 3326SOL    HW2 9978   0.894   1.202   6.392 -0.7161  0.4460  0.8804
 3327SOL     OW 9979   2.254   3.875   8.096 -0.2326 -0.2322  0.2163
 3327SOL    HW1 9980   2.231   3.878   8.189 -0.6816  0.0225  0.1031
 3327SOL    HW2 9981   2.320   3.806   8.090 -0.0943 -0.1545  0.7456
 3328SOL     OW 9982   2.425   1.781   4.616 -0.2666  0.6237 -0.1781
 3328SOL    HW1 9983   2.383   1.701   4.586 -0.0921 -0.3971  2.0965
 3328SOL    HW2 9984   2.354   1.846   4.619 -0.8643 -0.0290 -0.0275
 3329SOL     OW 9985   3.269   4.649   6.657  0.0989  0.1559  0.5019
 3329SOL    HW1 9986   3.337   4.714   6.639  0.3441 -0.4573 -0.8308
 3329SOL    HW2 9987   3.201   4.699   6.703  0.3303  1.3435 -0.3811
 3330SOL     OW 9988   1.239   3.926   6.646  0.2774  0.1342  0.4270
 3330SOL    HW1 9989   1.330   3.944   6.668  0.8741 -0.6135 -1.2441
 3330SOL    HW2 9990   1.224   3.973   6.563 -0.2237 -1.3345 -0.3494
 3331SOL     OW 9991   2.688   1.414   9.852 -0.2334 -0.4294 -0.2116
 3331SOL    HW1 9992   2.698   1.384   9.942  1.2772 -2.2135 -0.9067
 3331SOL    HW2 9993   2.691   1.334   9.799  4.0130  0.7456 -2.1992
 3332SOL     OW 9994   1.961   2.822   9.732  0.8490 -0.2489  0.2803
 3332SOL    HW1 9995   1.939   2.729   9.730 -0.6358  0.0861 -0.4845
 3332SOL    HW2 9996   1.938   2.853   9.645  1.6141  0.7900  0.4331
 3333SOL     OW 9997   4.579   4.813   9.521 -1.0351  0.1283  0.1497
 3333SOL    HW1 9998   4.592   4.734   9.468 -2.8277 -0.0137 -0.1421
 3333SOL    HW2 9999   4.644   4.806   9.592 -1.1142 -1.5704  0.0841
 3334SOL     OW10000   3.446   3.850  10.229  0.1008 -0.2220  0.2328
 3334SOL    HW110001   3.537   3.828  10.211  0.1723  1.2300 -1.4019
 3334SOL    HW210002   3.399   3.825  10.150 -0.2293  2.7449 -0.6174
 3335SOL     OW10003   4.033   2.173   8.928 -0.2601 -0.3572  0.4350
 3335SOL    HW110004   3.966   2.105   8.924 -0.9699  0.3570 -0.2553
 3335SOL    HW210005   4.076   2.169   8.843  1.1622 -1.3534  1.1555
 3336SOL     OW10006   4.462   1.775   7.863  0.5756  0.1593  0.1679
 3336SOL    HW110007   4.445   1.868   7.881  0.6330  0.0209  0.9520
 3336SOL    HW210008   4.547   1.774   7.819  1.4495  0.3374  1.7884
 3337SOL     OW10009   2.156   3.627   9.238  0.4316 -0.0718 -0.1010
 3337SOL    HW110010   2.070   3.590   9.257  0.7640 -1.4829 -1.2025
 3337SOL    HW210011   2.172   3.688   9.310 -1.0455 -0.5387  0.6633
 3338SOL     OW10012   1.116   0.974   9.035  0.9614  0.8749  0.5263
 3338SOL    HW110013   1.059   1.033   8.986  0.5935 -0.7742 -1.1295
 3338SOL    HW210014   1.155   0.917   8.969  3.3897  0.9415  1.7705
 3339SOL     OW10015   3.063   3.351   9.380  0.3897  0.3176  1.0643
 3339SOL    HW110016   3.108   3.436   9.386 -1.0412  1.3928 -1.4543
 3339SOL    HW210017   2.970   3.374   9.376 -0.0057 -1.3196 -0.1512
 3340SOL     OW10018   4.264   0.589   8.781  0.8835 -0.5705  0.8376
 3340SOL    HW110019   4.300   0.633   8.858 -1.3572  3.3978 -0.1253
 3340SOL    HW210020   4.336   0.589   8.718  2.0519 -1.8232  2.0906
 3341SOL     OW10021   2.165   3.633   7.217  0.0555 -0.0763 -0.3968
 3341SOL    HW110022   2.093   3.573   7.236 -1.8740  1.8517 -1.2611
 3341SOL    HW210023   2.124   3.707   7.171  2.6236  1.0137 -1.1158
 3342SOL     OW10024   2.696   0.862   7.786  0.9832 -0.2500  0.4554
 3342SOL    HW110025   2.611   0.821   7.805 -0.3969  2.2734  0.2794
 3342SOL    HW210026   2.739   0.803   7.725 -0.4183 -1.8730  0.9642
 3343SOL     OW10027   0.581   3.399   9.817  0.1425 -0.6192 -0.1315
 3343SOL    HW110028   0.594   3.306   9.835 -0.3151 -1.1488 -2.2561
 3343SOL    HW210029   0.590   3.406   9.722  0.5417  1.5855  0.0268
 3344SOL     OW10030   1.738   1.123   6.983 -0.2171 -0.2122  0.4704
 3344SOL    HW110031   1.648   1.102   6.957 -0.4858  0.0225  1.1954
 3344SOL    HW210032   1.761   1.199   6.929 -0.2945 -0.5438 -0.0342
 3345SOL     OW10033   0.395   3.167   9.842  0.1638 -0.1923  0.7302
 3345SOL    HW110034   0.381   3.206   9.928  0.0089 -0.0625  0.6471
 3345SOL    HW210035   0.310   3.176   9.798  0.9565  2.2605 -0.4577
 3346SOL     OW10036   4.128   0.713  10.212  0.1165 -0.3327 -0.6550
 3346SOL    HW110037   4.062   0.781  10.223 -0.6316 -0.7095 -2.3815
 3346SOL    HW210038   4.079   0.635  10.187  1.0047 -1.4064  0.7583
 3347SOL     OW10039   2.025   1.186   9.130  0.4561 -0.0305 -0.0757
 3347SOL    HW110040   2.100   1.229   9.170  0.5028 -1.1146  1.0423
 3347SOL    HW210041   1.949   1.232   9.166  0.5412  0.7731 -0.8680
 3348SOL     OW10042   1.269   2.631   7.895 -0.3063  0.6476 -0.1849
 3348SOL    HW110043   1.277   2.685   7.973 -1.0198 -0.4900  0.7207
 3348SOL    HW210044   1.189   2.662   7.852  0.0692  1.2529 -0.4590
 3349SOL     OW10045   1.849   2.782  10.082  0.6562  0.1100 -0.2506
 3349SOL    HW110046   1.879   2.725  10.011  0.3086  2.0383 -2.0366
 3349SOL    HW210047   1.927   2.834  10.105  1.1798 -1.4602  1.8790
 3350SOL     OW10048   2.151   1.372   7.834 -0.0473 -0.1692  0.0585
 3350SOL    HW110049   2.193   1.310   7.893 -0.0485 -0.8588 -0.6514
 3350SOL    HW210050   2.135   1.322   7.754 -1.0839  0.4281 -0.1211
 3351SOL     OW10051   4.331   2.271   9.368  0.0481  0.4652 -0.1965
 3351SOL    HW110052   4.237   2.252   9.358 -0.1723  1.5029 -0.2520
 3351SOL    HW210053   4.353   2.321   9.289 -0.3394  3.7327  1.5750
 3352SOL     OW10054   2.255   1.424   8.865  0.0633  0.3227  0.7117
 3352SOL    HW110055   2.306   1.396   8.789  0.5447  1.2944  0.6521
 3352SOL    HW210056   2.169   1.447   8.829  0.4406  1.2468  0.3592
 3353SOL     OW10057   1.539   2.122   6.474  0.1955  0.1049 -0.0677
 3353SOL    HW110058   1.521   2.212   6.502 -2.0033  0.2678 -1.6549
 3353SOL    HW210059   1.612   2.130   6.414 -0.1727  0.9090 -0.4318
 3354SOL     OW10060   1.014   3.492   7.487 -0.5887 -0.8016 -1.0944
 3354SOL    HW110061   0.929   3.525   7.459  0.0164  0.4176 -1.5501
 3354SOL    HW210062   1.046   3.556   7.550 -0.3270 -1.6489 -0.3312
 3355SOL     OW10063   4.633   2.264   8.662  0.1167 -0.3310 -0.1472
 3355SOL    HW110064   4.680   2.208   8.600  1.0085 -1.3341  1.3699
 3355SOL    HW210065   4.571   2.313   8.608 -0.4171 -2.4705 -1.6029
 3356SOL     OW10066   2.849   3.230   7.756  0.6004  0.2658 -0.5398
 3356SOL    HW110067   2.798   3.153   7.780 -0.4662  1.2400  0.4355
 3356SOL    HW210068   2.910   3.242   7.829  0.2576  0.7598 -0.3265
 3357SOL     OW10069   1.483   4.040   8.446 -0.0071  0.2433  0.1536
 3357SOL    HW110070   1.390   4.036   8.470 -0.6075 -1.2253 -2.0500
 3357SOL    HW210071   1.484   4.016   8.353  2.4734  1.5402 -0.2332
 3358SOL     OW10072   1.254   3.513  10.035 -0.2366  0.3595  0.8056
 3358SOL    HW110073   1.199   3.584  10.068  2.1693  0.9316  4.1384
 3358SOL    HW210074   1.342   3.550  10.031  0.7663 -1.8663  0.6951
 3359SOL     OW10075   0.744   4.798  10.114 -0.1079  0.3184  0.3454
 3359SOL    HW110076   0.706   4.881  10.140  0.4492  0.3951  0.9572
 3359SOL    HW210077   0.839   4.813  10.119 -0.0025 -0.1688 -0.1274
 3360SOL     OW10078   0.114   0.966   8.315 -1.2776  0.3633  0.0794
 3360SOL    HW110079   0.126   1.028   8.243 -0.5713  0.8536  0.6219
 3360SOL    HW210080   0.140   1.013   8.394  1.7743 -1.3496  0.2625
 3361SOL     OW10081   1.619   0.896   6.226 -0.0648  0.0055 -0.4602
 3361SOL    HW110082   1.636   0.990   6.227 -0.1174  0.0441  1.6539
 3361SOL    HW210083   1.706   0.855   6.229  0.0379 -0.1049 -2.8993
 3362SOL     OW10084   2.799   4.642   7.220 -0.8397  0.3054 -0.4892
 3362SOL    HW110085   2.773   4.731   7.200 -0.7434  1.2887  3.0752
 3362SOL    HW210086   2.717   4.595   7.234 -0.9075  0.9425  1.5137
 3363SOL     OW10087   1.056   3.790   9.268 -0.6899 -0.2558  0.7060
 3363SOL    HW110088   1.001   3.831   9.336  0.3448  0.9254  0.8592
 3363SOL    HW210089   1.146   3.808   9.296 -0.2403 -0.1833 -0.7183
 3364SOL     OW10090   1.173   0.443   8.361 -0.0015 -0.5360  0.2145
 3364SOL    HW110091   1.160   0.429   8.455  0.6826  0.0379  0.4011
 3364SOL    HW210092   1.129   0.368   8.320  0.8451 -1.5294  1.0512
 3365SOL     OW10093   0.665   4.363   9.330 -0.0951 -0.2655 -0.8171
 3365SOL    HW110094   0.604   4.424   9.372 -0.4748 -0.5534 -0.9467
 3365SOL    HW210095   0.738   4.357   9.392 -1.4654 -2.0940  0.7284
 3366SOL     OW10096   0.565   0.963   9.780 -0.0417 -0.2117 -0.3925
 3366SOL    HW110097   0.615   0.885   9.756 -2.4183 -1.4888 -1.6190
 3366SOL    HW210098   0.577   1.023   9.706 -2.1643 -1.5309 -1.9307
 3367SOL     OW10099   1.793   1.330   9.250  0.1902 -0.5162  0.6170
 3367SOL    HW110100   1.763   1.385   9.178  0.8922 -1.7939 -0.7049
 3367SOL    HW210101   1.713   1.293   9.287 -0.1012 -1.2211 -0.6703
 3368SOL     OW10102   2.972   2.021   9.469 -0.5190 -0.3408 -0.1765
 3368SOL    HW110103   2.977   1.939   9.420  1.1929 -1.3323  1.5496
 3368SOL    HW210104   3.061   2.036   9.500 -1.3359  0.7427  1.8152
 3369SOL     OW10105   0.952   4.568  10.053 -0.2397  0.4451 -0.4409
 3369SOL    HW110106   1.032   4.520  10.033 -1.2792 -1.6336  0.1043
 3369SOL    HW210107   0.976   4.626  10.126  0.8218  0.0736 -0.4833
 3370SOL     OW10108   0.819   0.241   8.026  0.1555  0.1189 -0.2506
 3370SOL    HW110109   0.819   0.172   8.092 -0.0752  0.1486 -0.2179
 3370SOL    HW210110   0.754   0.213   7.962  0.6199 -0.0739 -0.6413
 3371SOL     OW10111   3.643   3.561   6.985  0.1103  0.8185 -0.1253
 3371SOL    HW110112   3.687   3.520   7.059  0.1594 -2.1851 -1.6795
 3371SOL    HW210113   3.559   3.516   6.979 -0.2926  1.6715 -1.3512
 3372SOL     OW10114   3.456   3.586   9.883 -0.2012 -0.1150  0.9004
 3372SOL    HW110115   3.493   3.666   9.919 -0.1791  0.7800 -1.0205
 3372SOL    HW210116   3.532   3.530   9.866  0.1375  0.8361 -0.9361
 3373SOL     OW10117   1.639   0.540  10.156  0.2943 -0.5558  0.1703
 3373SOL    HW110118   1.716   0.509  10.204  1.4612  0.6580 -0.8169
 3373SOL    HW210119   1.642   0.636  10.167 -0.7593 -0.4539 -0.3454
 3374SOL     OW10120   0.402   0.175   8.977  0.0038 -0.1628 -0.2881
 3374SOL    HW110121   0.474   0.194   9.038  0.3421 -0.9911 -0.4074
 3374SOL    HW210122   0.379   0.260   8.939  0.6830  0.1661  0.0177
 3375SOL     OW10123   3.592   3.623   8.826  0.5714  0.3098 -0.5534
 3375SOL    HW110124   3.646   3.545   8.819 -0.9796 -1.0640  1.3263
 3375SOL    HW210125   3.654   3.695   8.835  2.0575 -0.8274 -1.3001
 3376SOL     OW10126   0.323   4.438   8.253 -0.5520  0.3398 -0.4999
 3376SOL    HW110127   0.261   4.486   8.198 -0.5311  0.1141 -0.7256
 3376SOL    HW210128   0.406   4.442   8.205 -0.7552 -0.6931 -0.9879
 3377SOL     OW10129   0.070   2.882   9.955 -0.0193  0.8703  0.4132
 3377SOL    HW110130   0.164   2.898   9.948  0.2732 -1.1284 -1.5162
 3377SOL    HW210131   0.063   2.814  10.023  0.5101 -2.0278 -2.1905
 3378SOL     OW10132   3.214   1.265   7.063 -0.3951 -0.6011  0.2684
 3378SOL    HW110133   3.183   1.353   7.040 -0.1516  0.6717  4.1361
 3378SOL    HW210134   3.305   1.264   7.034 -1.1892 -0.8075 -2.4942
 3379SOL     OW10135   0.700   3.319   5.699  0.2595 -0.0771  0.6076
 3379SOL    HW110136   0.638   3.254   5.666 -0.4531  0.3046  1.1720
 3379SOL    HW210137   0.706   3.301   5.793 -1.9734  2.2769  1.3067
 3380SOL     OW10138   3.751   3.677   6.758 -0.2492  0.1447 -0.3085
 3380SOL    HW110139   3.712   3.632   6.832 -1.8435  1.0160 -0.5938
 3380SOL    HW210140   3.677   3.703   6.703  0.7810  1.0161 -1.3425
 3381SOL     OW10141   3.664   3.605   9.526  0.2229  0.2536 -0.0157
 3381SOL    HW110142   3.691   3.684   9.572 -0.9873  0.6586  0.0254
 3381SOL    HW210143   3.589   3.632   9.472 -1.4552 -1.2170  1.4399
 3382SOL     OW10144   2.324   0.032   8.968 -0.0399 -0.8666 -0.0070
 3382SOL    HW110145   2.405   0.047   9.016  1.7119  0.9749 -3.2623
 3382SOL    HW210146   2.274   0.113   8.978  1.0044  0.1428 -2.3019
 3383SOL     OW10147   3.893   0.542   8.968 -0.9198 -0.2165 -0.2605
 3383SOL    HW110148   3.950   0.614   8.943  0.1151 -1.2844 -1.1462
 3383SOL    HW210149   3.866   0.562   9.057  3.1769 -0.9812  1.3866
 3384SOL     OW10150   0.070   4.850   7.788 -0.6536 -0.1153  0.2603
 3384SOL    HW110151   0.057   4.943   7.807 -2.8085  0.1139 -1.8206
 3384SOL    HW210152  -0.016   4.810   7.804 -0.2402 -1.4020 -0.5907
 3385SOL     OW10153   3.590   0.235   9.466 -0.1365 -0.4999 -0.3490
 3385SOL    HW110154   3.631   0.315   9.432 -0.1619 -0.5064 -0.3951
 3385SOL    HW210155   3.649   0.206   9.535  1.7572 -2.3669 -2.5824
 3386SOL     OW10156   4.685   4.844   8.720 -0.0798 -0.5233  0.9616
 3386SOL    HW110157   4.612   4.799   8.762 -0.9532  0.2311  0.3016
 3386SOL    HW210158   4.676   4.935   8.747  1.9115 -0.7497  2.6261
 3387SOL     OW10159   1.209   0.074   9.836  0.2975  0.0626 -0.2122
 3387SOL    HW110160   1.176   0.159   9.866  2.5913  0.8008  0.4027
 3387SOL    HW210161   1.130   0.026   9.810 -1.2755  1.5630  1.4703
 3388SOL     OW10162   1.809   2.745   8.836  0.3010  0.5909  0.5200
 3388SOL    HW110163   1.892   2.730   8.791 -0.3924  1.4616 -1.1249
 3388SOL    HW210164   1.804   2.675   8.901  1.2244 -0.8909 -0.9369
 3389SOL     OW10165   0.369   4.397   7.240 -0.2447  0.2751 -0.3096
 3389SOL    HW110166   0.373   4.439   7.327 -0.4849 -0.6581  0.1645
 3389SOL    HW210167   0.384   4.469   7.179  1.1519  0.7544  0.5424
 3390SOL     OW10168   0.016   4.289   8.433 -0.1076 -0.8002  0.1109
 3390SOL    HW110169   0.068   4.331   8.365 -1.0068 -0.4680 -0.3930
 3390SOL    HW210170   0.080   4.261   8.499  0.7309 -0.7078 -0.6420
 3391SOL     OW10171   2.411   0.376   8.862 -0.3880  0.2815 -0.1510
 3391SOL    HW110172   2.423   0.470   8.849  2.8293  0.7176  3.9994
 3391SOL    HW210173   2.496   0.338   8.840 -0.6691 -1.1988  1.1646
 3392SOL     OW10174   1.430   0.386   8.432 -0.4642  0.4626 -0.3222
 3392SOL    HW110175   1.463   0.331   8.361 -0.9575  1.8286 -1.6490
 3392SOL    HW210176   1.341   0.408   8.406 -0.2711  1.9201  0.1532
 3393SOL     OW10177   3.711   4.538   5.743  0.1100  0.0730 -0.0719
 3393SOL    HW110178   3.732   4.476   5.813  1.4431  0.2650 -0.2775
 3393SOL    HW210179   3.629   4.578   5.771  0.6647  0.2425  1.4701
 3394SOL     OW10180   0.199   1.690   9.143  0.0022  0.4375  0.3207
 3394SOL    HW110181   0.143   1.614   9.129  1.9914 -0.8590 -1.2180
 3394SOL    HW210182   0.230   1.714   9.055  1.5422  1.3205  1.0506
 3395SOL     OW10183   2.608   1.155   9.773  0.1217  0.4319 -0.5744
 3395SOL    HW110184   2.668   1.084   9.797 -1.7848 -1.7130 -1.7606
 3395SOL    HW210185   2.526   1.111   9.752 -1.4273  3.1052 -0.5890
 3396SOL     OW10186   0.789   1.364   8.436 -0.4773  0.3921  0.0520
 3396SOL    HW110187   0.717   1.302   8.439  0.7141 -1.1234 -0.9473
 3396SOL    HW210188   0.747   1.450   8.442 -2.2017 -0.4660  1.0880
 3397SOL     OW10189   2.704   1.562   8.912  0.4339 -0.8105 -0.2435
 3397SOL    HW110190   2.739   1.575   8.824 -0.5109 -0.2089 -0.5514
 3397SOL    HW210191   2.656   1.480   8.907  1.4931 -1.4670  0.0901
 3398SOL     OW10192   4.419   2.121   9.074 -0.7790 -0.5087  0.2984
 3398SOL    HW110193   4.375   2.084   8.997 -2.0898  0.1251  0.7154
 3398SOL    HW210194   4.383   2.072   9.148  0.3862 -1.0321  0.5400
 3399SOL     OW10195   4.396   2.244   6.798 -0.1195 -0.5577 -0.2625
 3399SOL    HW110196   4.453   2.169   6.815  0.3685 -0.2522 -0.5496
 3399SOL    HW210197   4.425   2.278   6.714 -0.0121  0.2614  0.0961
 3400SOL     OW10198   0.469   0.828   9.343  0.6279  0.1685 -0.1469
 3400SOL    HW110199   0.387   0.796   9.381  0.1957  0.5314 -0.7483
 3400SOL    HW210200   0.465   0.923   9.355  1.3171  0.1315  0.4908
 3401SOL     OW10201   2.209   1.894   8.157  0.2486  0.2064 -0.0746
 3401SOL    HW110202   2.229   1.931   8.242  1.6926  0.9153 -0.7006
 3401SOL    HW210203   2.274   1.825   8.144 -0.0762 -0.0212 -0.5339
 3402SOL     OW10204   2.245   0.833   7.938  0.8472 -0.3322  0.4136
 3402SOL    HW110205   2.173   0.771   7.951 -0.3730  0.9952  0.1776
 3402SOL    HW210206   2.203   0.914   7.909  2.2144  1.2171  2.4858
 3403SOL     OW10207   3.863   2.971   6.569  0.0244  0.2403 -0.3724
 3403SOL    HW110208   3.857   2.902   6.503 -3.1600 -0.0130  0.0029
 3403SOL    HW210209   3.856   2.925   6.653  2.4503  0.7047  0.1577
 3404SOL     OW10210   1.430   1.681   8.112 -0.3543  0.7553  0.1519
 3404SOL    HW110211   1.456   1.673   8.020 -0.9090  0.8300 -0.0140
 3404SOL    HW210212   1.455   1.596   8.151 -0.4941  0.5688 -0.1604
 3405SOL     OW10213   4.390   3.280  10.245 -0.3705  0.3092 -0.8216
 3405SOL    HW110214   4.377   3.189  10.271 -0.2337  0.5411  0.0876
 3405SOL    HW210215   4.388   3.278  10.149  1.5117 -0.9242 -0.8719
 3406SOL     OW10216   1.084   2.697   7.665 -0.0492 -0.0666 -0.2926
 3406SOL    HW110217   1.062   2.775   7.716 -1.7141 -0.5008 -0.2838
 3406SOL    HW210218   1.162   2.722   7.616  0.3555  1.0677  0.8727
 3407SOL     OW10219   0.065   1.268   8.874  0.6082 -0.0631 -0.6864
 3407SOL    HW110220   0.032   1.347   8.915  2.7409 -0.2018  1.4872
 3407SOL    HW210221   0.012   1.197   8.911  0.6482  0.0700 -0.3776
 3408SOL     OW10222   4.950   0.661   7.061 -0.0148  0.0165 -0.1937
 3408SOL    HW110223   5.017   0.711   7.014  1.7614 -2.8321 -0.9419
 3408SOL    HW210224   4.886   0.637   6.994 -0.1472  0.1263 -0.1086
 3409SOL     OW10225   3.876   1.021   9.520 -0.0510 -0.1023  0.5254
 3409SOL    HW110226   3.851   1.112   9.538  3.4467  1.1147  0.1411
 3409SOL    HW210227   3.910   0.990   9.604 -0.9090 -0.9681  0.5615
 3410SOL     OW10228   1.395   4.961  10.239 -0.0995 -0.7312 -0.1888
 3410SOL    HW110229   1.327   4.990  10.299  1.6414  0.4147  1.3185
 3410SOL    HW210230   1.400   5.031  10.173 -0.0280 -0.5510  0.0051
 3411SOL     OW10231   3.486   1.712   8.133  0.4367  0.4163  0.4475
 3411SOL    HW110232   3.528   1.726   8.218 -1.8597 -1.4597  2.0462
 3411SOL    HW210233   3.461   1.800   8.104  0.9400  1.0639  1.8979
 3412SOL     OW10234   2.837   0.064   9.263 -0.5256  0.0503 -0.5470
 3412SOL    HW110235   2.859   0.083   9.171  1.4778 -0.3569 -0.1862
 3412SOL    HW210236   2.858  -0.028   9.274  0.5393  0.4152  0.6545
 3413SOL     OW10237   3.137   0.599   9.387  0.0611 -0.0262  0.7224
 3413SOL    HW110238   3.119   0.675   9.332 -1.1962 -1.7499 -1.4314
 3413SOL    HW210239   3.056   0.585   9.436 -0.1153 -0.6250  0.2666
 3414SOL     OW10240   0.341   3.953   7.201  0.2815  0.2608  0.4914
 3414SOL    HW110241   0.347   3.892   7.127 -0.0442 -0.3593  0.9586
 3414SOL    HW210242   0.360   4.039   7.164  1.7852 -0.2475  0.0083
 3415SOL     OW10243   2.049   2.726   8.521  0.1765  0.3422 -0.2852
 3415SOL    HW110244   2.142   2.704   8.518  0.2925  0.2328  2.0498
 3415SOL    HW210245   2.046   2.819   8.543 -0.3251  1.0790 -3.1301
 3416SOL     OW10246   2.803   2.873   8.829  0.3142 -0.3842  0.2250
 3416SOL    HW110247   2.741   2.939   8.798  1.2470  0.9959  1.1733
 3416SOL    HW210248   2.833   2.830   8.749 -0.4682  0.2060 -0.4078
 3417SOL     OW10249   0.487   3.589   9.098  0.7054 -0.4984 -0.0043
 3417SOL    HW110250   0.431   3.532   9.150  0.5484  1.4452  2.1300
 3417SOL    HW210251   0.453   3.677   9.114  3.6942  0.6756  0.5953
 3418SOL     OW10252   2.344   4.185   9.577  0.2120 -0.3897 -0.2202
 3418SOL    HW110253   2.317   4.262   9.627  2.8083 -0.5743  1.6475
 3418SOL    HW210254   2.323   4.111   9.633 -2.5984 -1.2184 -2.1471
 3419SOL     OW10255   1.932   1.558   8.694 -1.0343 -0.8996 -0.0019
 3419SOL    HW110256   1.980   1.563   8.611  2.2058 -0.2987  1.7363
 3419SOL    HW210257   1.893   1.644   8.705  0.1839 -0.3191 -0.0476
 3420SOL     OW10258   4.233   4.145  10.465 -0.1896  0.5249  0.0699
 3420SOL    HW110259   4.279   4.209  10.411  0.1413  0.1044 -0.1549
 3420SOL    HW210260   4.290   4.134  10.542 -0.3041  0.5903  0.1637
 3421SOL     OW10261   1.670   3.318   8.821  0.8594  0.1449 -0.4288
 3421SOL    HW110262   1.592   3.373   8.825  1.4301  0.9188  0.4467
 3421SOL    HW210263   1.640   3.237   8.778 -1.0196 -0.5581  1.9360
 3422SOL     OW10264  -0.005   3.367   8.222  0.0879 -0.1308 -0.5377
 3422SOL    HW110265  -0.012   3.379   8.127 -0.6277 -0.4711 -0.5392
 3422SOL    HW210266   0.085   3.338   8.236  0.7889  1.7590 -0.8924
 3423SOL     OW10267   0.525   4.041  10.085  0.4162  0.4047 -0.4523
 3423SOL    HW110268   0.511   3.973  10.019 -1.2076 -0.3863  0.6410
 3423SOL    HW210269   0.522   3.994  10.168  0.2311  1.6758  0.2824
 3424SOL     OW10270   2.468   3.540   9.297 -0.4049 -0.6251  0.2744
 3424SOL    HW110271   2.473   3.470   9.363 -0.0238 -0.2957  0.6056
 3424SOL    HW210272   2.394   3.516   9.242  0.3450 -1.8449 -0.2656
 3425SOL     OW10273   3.206   2.661   5.676 -0.3164 -0.1329  0.2574
 3425SOL    HW110274   3.111   2.665   5.685 -0.4836 -3.3949  0.9205
 3425SOL    HW210275   3.221   2.654   5.582 -0.5811  1.5657  0.0465
 3426SOL     OW10276   0.685   1.669   6.042  0.2195  0.3977 -0.5395
 3426SOL    HW110277   0.723   1.747   6.002 -0.9420  0.5719 -1.3747
 3426SOL    HW210278   0.603   1.655   5.993 -0.0746 -0.7666  0.2472
 3427SOL     OW10279   2.286   4.135   6.104 -0.6729  0.4328 -0.1030
 3427SOL    HW110280   2.208   4.179   6.136 -0.5563  0.8101 -0.3354
 3427SOL    HW210281   2.346   4.205   6.082  1.2955  0.2445  3.7044
 3428SOL     OW10282   4.002   4.220   4.988  0.0018  0.0483 -0.2838
 3428SOL    HW110283   3.910   4.230   5.012 -0.4460 -2.0751 -0.8287
 3428SOL    HW210284   4.041   4.305   5.004 -2.0072  0.9394  0.1943
 3429SOL     OW10285   0.216   1.585   5.698  0.0633  0.0935  0.0393
 3429SOL    HW110286   0.203   1.491   5.690 -0.5386  0.0406  1.3577
 3429SOL    HW210287   0.288   1.594   5.762  0.6726  0.5260 -0.6860
 3430SOL     OW10288   4.101   2.957   8.430 -0.4012  0.3328  0.1882
 3430SOL    HW110289   4.023   2.911   8.400 -0.6603  1.5253 -1.0682
 3430SOL    HW210290   4.074   3.002   8.509 -0.4811 -0.6622  0.7385
 3431SOL     OW10291   4.655   1.872   6.433 -0.2996  0.6490  0.6748
 3431SOL    HW110292   4.640   1.803   6.498 -0.9172  1.8866  1.9026
 3431SOL    HW210293   4.569   1.910   6.418 -1.1599 -2.3734 -4.2974
 3432SOL     OW10294   0.082   0.916   5.629  0.3549 -0.2075  0.4896
 3432SOL    HW110295   0.093   0.946   5.719  2.5498  1.5583 -0.2831
 3432SOL    HW210296   0.162   0.942   5.584 -0.4348 -1.5137 -1.8730
 3433SOL     OW10297   3.849   1.137   4.745 -0.5000  0.1890  0.1990
 3433SOL    HW110298   3.926   1.130   4.688 -0.3050  2.8770 -0.0099
 3433SOL    HW210299   3.885   1.133   4.834 -0.2800  0.2471  0.1143
 3434SOL     OW10300   3.971   0.464   6.581 -0.7672  0.1992 -0.6828
 3434SOL    HW110301   3.928   0.464   6.667 -1.0614 -1.9372 -0.7796
 3434SOL    HW210302   4.061   0.438   6.600 -0.5188  0.8701 -0.9118
 3435SOL     OW10303   0.265   0.395   5.051 -0.2875  0.5439  0.4252
 3435SOL    HW110304   0.206   0.325   5.081  0.5749 -1.2003 -1.7510
 3435SOL    HW210305   0.318   0.416   5.128 -3.3756  1.9675  2.4025
 3436SOL     OW10306   4.924   1.791   5.754 -0.1657 -0.5684 -0.2510
 3436SOL    HW110307   4.965   1.778   5.840 -0.3696  0.7136  0.0644
 3436SOL    HW210308   4.842   1.743   5.759 -0.1440 -0.5573  0.2430
 3437SOL     OW10309   3.360   0.005   9.503 -0.5144 -0.0888  0.5365
 3437SOL    HW110310   3.308   0.070   9.456 -0.7544  0.3265  1.3617
 3437SOL    HW210311   3.451   0.024   9.477 -0.6724 -0.1383 -0.0772
 3438SOL     OW10312   2.085   1.538   4.696 -0.3221  0.2200  0.0166
 3438SOL    HW110313   2.069   1.588   4.776  0.7597 -1.3188  1.2679
 3438SOL    HW210314   2.135   1.462   4.725  0.0735 -0.4167 -2.1413
 3439SOL     OW10315   3.328   1.388   6.611 -0.8434 -0.3674  0.5151
 3439SOL    HW110316   3.410   1.365   6.567 -0.9815 -0.7026  0.4377
 3439SOL    HW210317   3.318   1.482   6.594 -1.2597 -0.6266 -0.7625
 3440SOL     OW10318   4.228   0.240   6.402 -0.6892  0.6459  0.1338
 3440SOL    HW110319   4.162   0.300   6.365 -0.8694 -0.9268 -2.3878
 3440SOL    HW210320   4.241   0.174   6.333 -0.0606 -1.8806  2.4783
 3441SOL     OW10321   2.327   1.926   5.666  0.0789  0.3552  1.2197
 3441SOL    HW110322   2.282   1.843   5.649  0.9384  0.2497 -0.8808
 3441SOL    HW210323   2.266   1.993   5.635 -0.0951  0.4451  1.7441
 3442SOL     OW10324   3.481   4.930   5.986 -0.2655 -0.4055 -0.1156
 3442SOL    HW110325   3.387   4.929   5.965 -0.7072 -1.8658  1.6797
 3442SOL    HW210326   3.521   4.875   5.919 -1.0309 -1.5483  0.3336
 3443SOL     OW10327   2.127   2.113   4.988  0.2362  0.4028  0.4042
 3443SOL    HW110328   2.038   2.088   5.011 -0.7520  0.6293 -2.7092
 3443SOL    HW210329   2.128   2.209   4.994 -0.1149  0.4843 -0.6556
 3444SOL     OW10330   0.227   4.247   9.926  0.1905 -0.6163 -0.5799
 3444SOL    HW110331   0.280   4.183   9.972  1.1093  1.1905  0.9835
 3444SOL    HW210332   0.275   4.330   9.933 -0.5472  0.1485 -3.2141
 3445SOL     OW10333   2.102   2.518   6.881  0.0587 -0.5124 -0.4885
 3445SOL    HW110334   2.185   2.492   6.841  0.4608 -1.5338  0.9300
 3445SOL    HW210335   2.124   2.539   6.971 -1.2016 -0.6745 -0.1187
 3446SOL     OW10336   4.595   0.363   5.334  0.3651  0.2980  0.5568
 3446SOL    HW110337   4.662   0.406   5.281  2.1031 -1.8769  0.8756
 3446SOL    HW210338   4.600   0.407   5.419  2.6324 -0.9026  1.1148
 3447SOL     OW10339   4.666   3.292   6.654  0.3531 -0.2094 -0.2527
 3447SOL    HW110340   4.576   3.277   6.682 -0.1206  0.3225 -1.4132
 3447SOL    HW210341   4.667   3.265   6.562  1.7106 -1.4074  0.0817
 3448SOL     OW10342   1.950   3.393   6.548  0.3179 -0.2016  0.7688
 3448SOL    HW110343   1.933   3.412   6.641 -0.2159  1.1650  0.4166
 3448SOL    HW210344   2.046   3.389   6.542  0.4457  1.3942  1.1101
 3449SOL     OW10345   1.935   3.995   6.617  0.0474  0.3392 -0.1160
 3449SOL    HW110346   2.015   4.048   6.621 -0.2218  0.6711  1.6092
 3449SOL    HW210347   1.903   4.006   6.528  1.4312  0.9504 -0.5606
 3450SOL     OW10348   4.704   4.190   4.514 -0.6986 -0.1912 -0.0261
 3450SOL    HW110349   4.643   4.240   4.568 -1.8124 -0.0466 -1.3417
 3450SOL    HW210350   4.650   4.121   4.475  0.4800 -1.4683  0.5283
 3451SOL     OW10351   0.500   4.815   7.331  0.3258  0.1436  0.6913
 3451SOL    HW110352   0.506   4.866   7.250  0.5408  0.2279  0.7584
 3451SOL    HW210353   0.412   4.832   7.364  0.4845  0.6778  0.8474
 3452SOL     OW10354   0.251   4.299   6.161  0.0722 -0.1595 -0.0391
 3452SOL    HW110355   0.280   4.263   6.245  0.6643 -0.5382 -0.3917
 3452SOL    HW210356   0.316   4.266   6.098  0.0187  0.6649 -0.5385
 3453SOL     OW10357   2.346   3.174   6.213 -0.0626 -0.1487  0.1386
 3453SOL    HW110358   2.253   3.149   6.205  0.3220 -2.1676  1.1727
 3453SOL    HW210359   2.345   3.269   6.213 -1.7655 -0.0020 -3.6933
 3454SOL     OW10360   4.552   2.298   8.308 -0.1853 -0.8980  0.0435
 3454SOL    HW110361   4.517   2.367   8.251 -1.4425 -2.5368 -1.2807
 3454SOL    HW210362   4.639   2.329   8.332  0.3855 -0.0525 -2.7560
 3455SOL     OW10363   0.155   2.041   8.050 -0.1895 -0.2601 -0.0553
 3455SOL    HW110364   0.238   2.068   8.090 -0.0044 -0.0619 -0.5582
 3455SOL    HW210365   0.175   2.033   7.957 -1.3991  2.5505 -0.6406
 3456SOL     OW10366   0.911   1.521   7.014 -0.4320  0.4107  0.0517
 3456SOL    HW110367   0.889   1.430   6.997  2.3596 -0.5489  1.0472
 3456SOL    HW210368   0.998   1.533   6.976  0.7506  1.6118  2.8073
 3457SOL     OW10369  -0.007   2.315   5.423  0.0632 -0.7190 -0.0701
 3457SOL    HW110370   0.059   2.383   5.439  0.6484 -1.7887  2.5548
 3457SOL    HW210371   0.014   2.282   5.335  0.7982  1.3140 -0.7222
 3458SOL     OW10372   0.816   2.106   8.002 -0.3905 -0.7613  0.3914
 3458SOL    HW110373   0.790   2.153   7.923 -1.9340 -0.8893  0.7883
 3458SOL    HW210374   0.833   2.017   7.973 -3.3022 -1.4485  0.4907
 3459SOL     OW10375   3.622   1.884   7.792  0.8577  0.0650  0.3942
 3459SOL    HW110376   3.609   1.895   7.886 -0.5370 -3.8376  0.8457
 3459SOL    HW210377   3.543   1.921   7.753  0.2967 -0.4451  1.0181
 3460SOL     OW10378   0.267   4.754   5.592  0.6181  0.8934 -0.6010
 3460SOL    HW110379   0.311   4.821   5.646  3.7683  0.5424 -2.4636
 3460SOL    HW210380   0.275   4.787   5.503  0.7287 -1.1586 -1.3963
 3461SOL     OW10381   4.284   2.816   5.308  0.4853  0.8067  0.1160
 3461SOL    HW110382   4.227   2.881   5.266  2.0184  0.7639 -2.2575
 3461SOL    HW210383   4.372   2.851   5.297  1.1470 -0.4873  1.0742
 3462SOL     OW10384   0.809   1.994   7.027 -0.1480 -0.3561 -0.0174
 3462SOL    HW110385   0.798   2.011   7.120 -1.7458 -1.6260  0.0720
 3462SOL    HW210386   0.786   1.902   7.016 -0.4022 -0.1307 -1.7200
 3463SOL     OW10387   1.585   3.974   5.651 -0.5269 -0.0923 -0.4387
 3463SOL    HW110388   1.680   3.984   5.652 -0.4734 -0.5184  0.9388
 3463SOL    HW210389   1.561   3.980   5.558  0.6325  1.7311 -0.6634
 3464SOL     OW10390   1.826   2.303   6.622  0.5505 -0.1982 -0.4929
 3464SOL    HW110391   1.903   2.316   6.567  0.1518 -1.2429 -1.3285
 3464SOL    HW210392   1.834   2.369   6.691  3.8583 -2.2159  1.3162
 3465SOL     OW10393   4.840   4.609   4.793  0.3027 -0.1472  0.5599
 3465SOL    HW110394   4.933   4.597   4.772  0.3757 -1.0351  1.3438
 3465SOL    HW210395   4.830   4.572   4.881 -1.0967 -1.4310 -0.0901
 3466SOL     OW10396   0.858   0.255   5.414 -0.4026 -0.1673  0.0851
 3466SOL    HW110397   0.854   0.206   5.496  0.4822 -0.2792  0.0708
 3466SOL    HW210398   0.920   0.206   5.359 -1.6918 -0.6285 -1.0258
 3467SOL     OW10399   1.875   2.226   8.953 -0.5736  0.1188  0.2879
 3467SOL    HW110400   1.797   2.267   8.917 -0.4227  1.1507  1.0949
 3467SOL    HW210401   1.942   2.294   8.950  1.1707 -1.5039 -3.0140
 3468SOL     OW10402   1.576   3.395   8.239  0.4404  0.3408 -0.4045
 3468SOL    HW110403   1.660   3.371   8.200 -0.2599 -1.2014 -1.0596
 3468SOL    HW210404   1.588   3.378   8.333  0.5403 -0.9558 -0.6321
 3469SOL     OW10405   4.524   3.446   6.005  0.3851  0.7086 -0.2256
 3469SOL    HW110406   4.522   3.533   5.965  1.2734  0.3962 -1.0013
 3469SOL    HW210407   4.581   3.457   6.081  0.5149  0.7997 -0.3348
 3470SOL     OW10408   2.023   4.959  12.614 -0.0404 -0.0277 -0.6617
 3470SOL    HW110409   2.089   4.902  12.653  0.6500  0.8293 -0.5453
 3470SOL    HW210410   2.037   5.044  12.656  1.0187  1.0512 -3.0235
 3471SOL     OW10411   4.045   4.079   9.154 -0.4184 -0.2854 -0.0262
 3471SOL    HW110412   3.963   4.074   9.203 -0.0419 -1.4084  0.5276
 3471SOL    HW210413   4.026   4.035   9.072 -0.6570  0.3791 -0.3337
 3472SOL     OW10414   0.684   4.170   5.099 -0.0056  0.2767 -0.3430
 3472SOL    HW110415   0.619   4.105   5.128 -0.2054  0.3904 -0.5336
 3472SOL    HW210416   0.742   4.120   5.041 -0.0020  0.2050 -0.2779
 3473SOL     OW10417   1.627   2.887   7.466  0.2791  0.1009 -0.4203
 3473SOL    HW110418   1.585   2.905   7.381 -1.0982 -0.9099  0.0098
 3473SOL    HW210419   1.597   2.958   7.523 -0.9399 -0.6281 -0.1090
 3474SOL     OW10420   1.217   4.816   5.368  0.4492 -0.0767  0.0390
 3474SOL    HW110421   1.285   4.883   5.369 -0.1593  0.7651  4.1162
 3474SOL    HW210422   1.201   4.797   5.461 -1.2605 -4.0315 -0.8447
 3475SOL     OW10423   2.184   1.699   6.290  0.1780 -0.2756 -0.4193
 3475SOL    HW110424   2.108   1.752   6.313  2.6530  1.9725  3.7471
 3475SOL    HW210425   2.212   1.733   6.205 -0.8795  2.0747  0.0912
 3476SOL     OW10426   3.470   4.670   5.724 -0.1841  0.5164 -0.0337
 3476SOL    HW110427   3.417   4.670   5.804 -1.0435  0.0572 -0.5835
 3476SOL    HW210428   3.409   4.644   5.656  0.9626 -0.8788 -0.5684
 3477SOL     OW10429   4.717   0.585   9.242 -0.2036 -0.1372  0.2732
 3477SOL    HW110430   4.786   0.636   9.200 -2.3014 -0.0847 -3.5992
 3477SOL    HW210431   4.751   0.496   9.247  1.3997  0.4979  1.9237
 3478SOL     OW10432   1.002   0.777   4.603  0.2975 -0.2100  0.6321
 3478SOL    HW110433   1.003   0.794   4.509  0.0449  0.6001  0.7716
 3478SOL    HW210434   1.027   0.685   4.611  0.8232 -0.1500 -0.1986
 3479SOL     OW10435   0.856   0.941   5.464  0.3216 -0.0666 -0.2724
 3479SOL    HW110436   0.864   1.008   5.532  1.5883  0.9045 -1.3244
 3479SOL    HW210437   0.912   0.869   5.494  0.6358  0.2356 -0.1214
 3480SOL     OW10438   2.944   0.544   6.175 -0.1109  0.2098 -0.0424
 3480SOL    HW110439   2.963   0.538   6.268 -0.0058 -1.4712 -0.1333
 3480SOL    HW210440   3.006   0.610   6.142  2.6677 -1.9649  0.4322
 3481SOL     OW10441   3.861   0.968   5.412 -0.2740 -0.2736 -0.2984
 3481SOL    HW110442   3.794   0.902   5.399 -0.0558 -0.0029 -3.3575
 3481SOL    HW210443   3.940   0.931   5.372  0.9564  0.2280  1.4918
 3482SOL     OW10444   0.224   4.831   7.205 -0.6833  0.0203  0.4656
 3482SOL    HW110445   0.232   4.857   7.297  1.0505 -2.0283  0.9689
 3482SOL    HW210446   0.189   4.742   7.208 -1.5503  0.2882 -0.9248
 3483SOL     OW10447   4.407   1.842   9.576  0.1872 -0.5317 -0.3396
 3483SOL    HW110448   4.422   1.819   9.668  1.2352 -0.9915 -0.6116
 3483SOL    HW210449   4.416   1.937   9.573 -0.7260 -0.4126  0.1771
 3484SOL     OW10450   1.085   1.912   8.225  0.1111 -0.0224  0.3361
 3484SOL    HW110451   1.009   1.963   8.252  0.8384  0.6465  1.1897
 3484SOL    HW210452   1.049   1.829   8.195 -1.0924  0.9223 -0.9664
 3485SOL     OW10453   0.085   2.596   5.926  0.6590  0.4613 -0.2106
 3485SOL    HW110454   0.067   2.557   6.012 -0.0158  0.9410 -0.1248
 3485SOL    HW210455   0.039   2.539   5.864  3.5295 -1.6371 -0.6167
 3486SOL     OW10456   3.881   0.025   6.195 -0.4397 -0.1383  0.2530
 3486SOL    HW110457   3.848   0.054   6.110 -0.7995  3.7034  1.5306
 3486SOL    HW210458   3.970   0.060   6.199  0.4448 -2.2776  0.6341
 3487SOL     OW10459   0.886   0.142   6.819  0.0112 -0.0304 -0.6455
 3487SOL    HW110460   0.940   0.142   6.898 -1.5803 -2.2101  0.5501
 3487SOL    HW210461   0.848   0.230   6.816  0.0498  0.0833  1.0896
 3488SOL     OW10462   1.287   1.575   5.516 -0.4975  0.2480 -0.0117
 3488SOL    HW110463   1.263   1.653   5.567  1.5027  0.6942  0.3310
 3488SOL    HW210464   1.209   1.556   5.464 -1.3027  2.0308  0.4554
 3489SOL     OW10465   0.865   1.314   5.417 -0.3819  0.7109 -0.6514
 3489SOL    HW110466   0.802   1.336   5.348 -2.4447 -3.2782 -0.3752
 3489SOL    HW210467   0.930   1.260   5.373 -0.7781 -0.4602  0.1469
 3490SOL     OW10468   1.133   3.255   5.963  0.2433 -1.0087  0.3042
 3490SOL    HW110469   1.091   3.170   5.975 -0.8543 -0.4337  0.7171
 3490SOL    HW210470   1.122   3.273   5.869 -1.5745 -0.3273  0.6076
 3491SOL     OW10471   0.891   1.723   4.935  0.4343 -1.3142  0.0028
 3491SOL    HW110472   0.844   1.804   4.915  0.9162 -0.7748  0.9827
 3491SOL    HW210473   0.824   1.664   4.969  0.2582 -0.9810  0.2302
 3492SOL     OW10474   2.832   3.091   6.358 -0.3193  0.6840  0.5876
 3492SOL    HW110475   2.874   3.129   6.281  2.6350 -0.6157  1.4202
 3492SOL    HW210476   2.865   3.141   6.432  0.5586 -0.9564  1.3563
 3493SOL     OW10477   4.221   3.288   6.320  0.3899 -0.1592  0.1431
 3493SOL    HW110478   4.139   3.262   6.362  1.3182 -2.3302  0.7311
 3493SOL    HW210479   4.286   3.225   6.352  2.0678  0.8058 -1.1763
 3494SOL     OW10480   1.385   3.886   8.201  0.0165 -0.0022 -0.9243
 3494SOL    HW110481   1.294   3.904   8.175  0.5229  0.7270 -2.2942
 3494SOL    HW210482   1.420   3.833   8.129 -0.3412 -3.5525  1.2997
 3495SOL     OW10483   3.587   1.090   7.288 -0.2385 -0.2803  0.3015
 3495SOL    HW110484   3.653   1.139   7.337 -1.3871 -0.7991  2.5095
 3495SOL    HW210485   3.608   1.107   7.196  0.1870  3.3184  0.9165
 3496SOL     OW10486   0.094   2.412   8.845  0.2450 -0.1078  0.4918
 3496SOL    HW110487   0.060   2.355   8.915  0.5279  0.6078  1.2319
 3496SOL    HW210488   0.123   2.351   8.777  1.9580 -0.9467  1.9000
 3497SOL     OW10489   3.417   0.712   5.052  0.3077  0.3185  0.1095
 3497SOL    HW110490   3.450   0.626   5.078 -0.4684  0.6548  2.3911
 3497SOL    HW210491   3.375   0.697   4.967  0.9529 -1.3468  0.0508
 3498SOL     OW10492   0.004   3.712   8.706 -0.7948 -0.3419 -0.1238
 3498SOL    HW110493   0.076   3.657   8.736  0.0064  0.1277 -1.1296
 3498SOL    HW210494  -0.044   3.658   8.643 -1.4217 -0.7052  0.6535
 3499SOL     OW10495   3.240   1.246   5.000 -0.2576 -0.0666 -0.4268
 3499SOL    HW110496   3.167   1.308   4.994 -0.6883 -0.5253  0.0233
 3499SOL    HW210497   3.317   1.298   4.975 -0.5831  0.7169  0.1466
 3500SOL     OW10498   4.779   3.343   7.573  0.6941 -0.4258  0.1899
 3500SOL    HW110499   4.798   3.410   7.507 -5.7070  0.3801 -1.5447
 3500SOL    HW210500   4.789   3.388   7.656  2.7999  0.5110 -0.4894
 3501SOL     OW10501   4.015   0.026   8.363  0.6355  0.1020 -0.2997
 3501SOL    HW110502   4.019  -0.060   8.321  0.1453  1.1663 -2.6755
 3501SOL    HW210503   4.068   0.083   8.307 -0.9475  1.8420 -0.1351
 3502SOL     OW10504   2.058   4.404   5.611 -0.3717  0.3617 -0.4259
 3502SOL    HW110505   1.981   4.348   5.604 -1.0508  1.4601 -2.8355
 3502SOL    HW210506   2.026   4.485   5.652 -0.4018  0.6001 -0.9060
 3503SOL     OW10507   4.036   3.204   5.856  0.0087 -1.4384  0.1793
 3503SOL    HW110508   4.122   3.174   5.826 -0.3011 -2.6012  0.3715
 3503SOL    HW210509   3.982   3.208   5.777  1.2973  3.7221 -0.8062
 3504SOL     OW10510   0.424   2.458   5.283 -0.5137 -0.5014  0.1355
 3504SOL    HW110511   0.476   2.382   5.256 -0.5642  0.0100 -1.5086
 3504SOL    HW210512   0.419   2.450   5.378  3.4379 -0.0382  0.5693
 3505SOL     OW10513   3.681   2.158   9.568  0.6363 -0.1572 -0.5856
 3505SOL    HW110514   3.686   2.071   9.607  0.7294 -0.3050 -0.9275
 3505SOL    HW210515   3.593   2.162   9.529  0.2622  0.2626  0.2759
 3506SOL     OW10516   1.802   1.438   7.524 -0.1384 -0.2367  0.3843
 3506SOL    HW110517   1.750   1.467   7.599 -0.2061  1.3898 -0.2529
 3506SOL    HW210518   1.781   1.345   7.516 -2.2455  0.1460  0.7274
 3507SOL     OW10519   4.733   4.462   5.683  0.1544  0.7658  0.3530
 3507SOL    HW110520   4.690   4.547   5.672  0.1613  0.8778  1.1369
 3507SOL    HW210521   4.789   4.454   5.605  0.6115  1.7585  0.5517
 3508SOL     OW10522   4.468   2.976   7.512  0.0725  0.8826  0.6325
 3508SOL    HW110523   4.423   3.027   7.579 -1.7581  0.1713  0.0143
 3508SOL    HW210524   4.398   2.934   7.462  1.4074  0.4012 -0.9559
 3509SOL     OW10525   0.628   0.410   4.659 -0.3303 -0.3952 -0.1262
 3509SOL    HW110526   0.674   0.493   4.644 -0.5225 -0.4872 -1.3290
 3509SOL    HW210527   0.593   0.386   4.573 -0.7722 -1.4349  0.3241
 3510SOL     OW10528   4.228   1.838   7.520 -0.2180 -0.4814  0.0632
 3510SOL    HW110529   4.133   1.826   7.522 -0.3097  0.2200  0.4100
 3510SOL    HW210530   4.263   1.756   7.554 -0.7010 -0.7802 -0.1546
 3511SOL     OW10531   4.491   2.774   7.245  0.1330 -0.3703  0.3346
 3511SOL    HW110532   4.467   2.740   7.331 -2.1978  0.4680  0.0920
 3511SOL    HW210533   4.426   2.737   7.186 -0.6395  1.9880 -0.4161
 3512SOL     OW10534   3.965   1.379   9.030  0.1416 -0.2534 -0.6493
 3512SOL    HW110535   3.885   1.328   9.020  0.3770 -0.5352 -1.2080
 3512SOL    HW210536   4.033   1.313   9.043  0.1950  0.0146  0.4791
 3513SOL     OW10537   2.690   2.530   4.705  0.4067 -0.6531  0.3926
 3513SOL    HW110538   2.756   2.551   4.771 -0.5599  0.6215  1.0037
 3513SOL    HW210539   2.739   2.514   4.625  1.4144  1.5417  0.5034
 3514SOL     OW10540   3.107   0.525   5.324  0.4583 -0.8923  0.1722
 3514SOL    HW110541   3.166   0.457   5.358  0.7935  0.6678  3.0741
 3514SOL    HW210542   3.163   0.578   5.268  1.0807 -1.1346  0.5455
 3515SOL     OW10543   4.714   4.857   8.418 -0.0461 -0.8277 -0.1131
 3515SOL    HW110544   4.691   4.830   8.507 -0.6853  0.1016  0.0110
 3515SOL    HW210545   4.645   4.918   8.392  1.2345  0.5556 -0.4487
 3516SOL     OW10546   4.814   3.749   5.002 -0.2101  0.0265 -0.5437
 3516SOL    HW110547   4.857   3.826   4.963 -1.2552  0.1458 -1.5055
 3516SOL    HW210548   4.727   3.748   4.963 -0.8808 -0.5794  0.8797
 3517SOL     OW10549   1.467   2.641   5.272 -0.3053  0.2050 -0.0824
 3517SOL    HW110550   1.420   2.619   5.353 -0.6301  0.6079 -0.1569
 3517SOL    HW210551   1.450   2.734   5.259  0.1707  0.2593 -0.3432
 3518SOL     OW10552   4.865   2.065   9.348  0.7004 -0.6068  0.2413
 3518SOL    HW110553   4.826   2.017   9.275 -0.3430 -1.6136  1.4232
 3518SOL    HW210554   4.879   2.153   9.314 -1.6801 -0.4801 -0.5626
 3519SOL     OW10555   4.423   2.695   4.600  0.2095 -0.4661 -0.3161
 3519SOL    HW110556   4.341   2.742   4.614  0.1760  0.0432 -2.0106
 3519SOL    HW210557   4.444   2.710   4.508  1.3534 -1.9501 -0.3412
 3520SOL     OW10558   2.732   1.794   5.962 -0.6045 -0.8184  0.8086
 3520SOL    HW110559   2.777   1.822   6.041  1.6284  2.1668 -1.2810
 3520SOL    HW210560   2.673   1.866   5.941  0.3017 -0.5570 -1.1690
 3521SOL     OW10561   2.866   0.551   5.749  0.5652 -0.2728  0.3361
 3521SOL    HW110562   2.941   0.605   5.773 -0.0877  0.7393  0.1829
 3521SOL    HW210563   2.790   0.599   5.784 -0.1115 -0.6048 -0.6219
 3522SOL     OW10564   4.318   4.791   7.566 -0.3054  0.6168  0.2762
 3522SOL    HW110565   4.264   4.865   7.540  0.7370  2.5843  3.2873
 3522SOL    HW210566   4.358   4.817   7.649  2.3028 -2.2400  0.1090
 3523SOL     OW10567   2.943   0.464   7.536 -0.7151 -0.1084  0.1897
 3523SOL    HW110568   2.850   0.480   7.518 -1.2253 -1.1188  1.7882
 3523SOL    HW210569   2.965   0.386   7.486 -0.8469 -0.1341  0.1735
 3524SOL     OW10570   4.171   1.314   8.295 -0.1436 -0.3497 -0.4793
 3524SOL    HW110571   4.175   1.248   8.225 -0.9487 -0.2214 -0.6536
 3524SOL    HW210572   4.083   1.350   8.289 -0.1459 -0.1830  0.4726
 3525SOL     OW10573   1.356   3.162   8.209 -0.3372  0.0269 -0.5309
 3525SOL    HW110574   1.439   3.150   8.164 -0.4986 -1.4711 -0.4953
 3525SOL    HW210575   1.364   3.246   8.254  1.0885 -0.0210 -0.6677
 3526SOL     OW10576   0.698   0.046   6.344  0.1520  0.1567  0.2716
 3526SOL    HW110577   0.645   0.064   6.422  0.3437 -1.4259  0.8118
 3526SOL    HW210578   0.780   0.093   6.359 -0.0705  0.4073  0.7257
 3527SOL     OW10579   4.905   1.862   6.489  0.7433  0.2106  0.4100
 3527SOL    HW110580   4.823   1.890   6.447  1.5427  0.4685 -1.0396
 3527SOL    HW210581   4.915   1.921   6.564  1.3079  2.5027 -1.3581
 3528SOL     OW10582   1.580   0.532   6.948 -0.8390  0.1473 -0.0120
 3528SOL    HW110583   1.673   0.532   6.924 -1.1085  0.2813 -1.0686
 3528SOL    HW210584   1.539   0.469   6.890 -1.6276  1.0270 -0.4446
 3529SOL     OW10585   1.675   3.017   5.043 -0.0318  0.6305 -0.5187
 3529SOL    HW110586   1.723   3.094   5.074  1.0325 -0.4048  0.4920
 3529SOL    HW210587   1.742   2.950   5.032 -1.0040 -0.2909 -0.9736
 3530SOL     OW10588   2.249   4.325   4.744  0.4307 -0.2867 -0.3544
 3530SOL    HW110589   2.247   4.262   4.672 -3.5952  0.7436 -1.3750
 3530SOL    HW210590   2.298   4.400   4.709  1.5721 -1.1428 -0.6554
 3531SOL     OW10591   4.362   4.187   6.775 -0.2212 -0.5618 -0.0677
 3531SOL    HW110592   4.451   4.164   6.746  1.0151  0.4261  2.6494
 3531SOL    HW210593   4.322   4.226   6.697  2.0014 -0.3429 -1.1993
 3532SOL     OW10594   2.386   4.594   4.997  0.0497 -0.6098  0.3094
 3532SOL    HW110595   2.307   4.590   5.049 -0.7504  2.6525 -0.4289
 3532SOL    HW210596   2.452   4.632   5.055 -0.0418  0.3074 -0.1645
 3533SOL     OW10597   1.814   2.607   7.353  0.2918  0.4172  0.2167
 3533SOL    HW110598   1.831   2.522   7.313 -0.7916  1.1688 -1.9838
 3533SOL    HW210599   1.724   2.602   7.384 -0.3878  1.3148 -1.5296
 3534SOL     OW10600   3.535   4.563   5.170 -0.3932 -0.0436  0.0206
 3534SOL    HW110601   3.630   4.561   5.165 -0.3201  1.9446 -0.1039
 3534SOL    HW210602   3.507   4.549   5.079 -0.2246 -0.4664  0.0307
 3535SOL     OW10603   4.287   2.342   5.795 -0.0435  0.0715 -0.2539
 3535SOL    HW110604   4.280   2.296   5.711 -0.9087  0.9082 -0.6643
 3535SOL    HW210605   4.215   2.406   5.793 -0.0417  0.1444  1.1004
 3536SOL     OW10606   0.706   3.063  10.468  0.0455 -0.2330  0.0017
 3536SOL    HW110607   0.622   3.108  10.465  0.0348 -0.2813 -0.7978
 3536SOL    HW210608   0.688   2.975  10.434  0.4875 -0.0995 -0.6119
 3537SOL     OW10609   2.975   2.783   5.792 -0.0218  0.1917  0.4136
 3537SOL    HW110610   3.052   2.744   5.833  1.4701  1.5713 -0.9298
 3537SOL    HW210611   3.006   2.867   5.759 -2.3078  1.0891  0.4229
 3538SOL     OW10612   4.506   3.983   5.103  0.0275 -0.0545 -0.3482
 3538SOL    HW110613   4.413   4.001   5.117 -0.2433 -1.9319  0.6746
 3538SOL    HW210614   4.548   4.010   5.185  0.2232 -0.1006 -0.4348
 3539SOL     OW10615   2.478   0.397   6.193 -0.1399  0.2675 -0.0935
 3539SOL    HW110616   2.569   0.387   6.167 -0.5460  0.1290 -1.5462
 3539SOL    HW210617   2.477   0.476   6.246  0.7809  0.4264 -0.2911
 3540SOL     OW10618   3.891   4.292   6.481 -0.1411  0.1887 -0.3385
 3540SOL    HW110619   3.807   4.333   6.465 -0.8947 -0.9334  0.5301
 3540SOL    HW210620   3.884   4.257   6.570  1.8398  1.4712  0.4031
 3541SOL     OW10621   1.321   1.580   7.163  0.1427  0.4397 -0.2566
 3541SOL    HW110622   1.413   1.577   7.140  0.6391  1.8106  1.3128
 3541SOL    HW210623   1.279   1.629   7.092  0.8501  0.8923 -0.3667
 3542SOL     OW10624   1.163   1.145   5.914  0.5019 -0.7768 -0.5818
 3542SOL    HW110625   1.194   1.234   5.894  1.2155 -0.1581  2.6222
 3542SOL    HW210626   1.237   1.089   5.891  0.8273 -0.2934 -0.7441
 3543SOL     OW10627   1.424   2.798   6.893  0.7575 -0.3417 -0.4147
 3543SOL    HW110628   1.506   2.813   6.846  0.8586 -1.1221 -0.4875
 3543SOL    HW210629   1.382   2.726   6.847 -0.3968  0.6075 -0.9232
 3544SOL     OW10630   1.604   1.211   4.998  0.2060 -0.6945 -0.0751
 3544SOL    HW110631   1.696   1.203   5.023  0.5629  2.2987 -0.0752
 3544SOL    HW210632   1.563   1.259   5.071 -0.3334  1.7383 -1.8362
 3545SOL     OW10633   3.974   3.435   5.562 -0.2991 -0.7189 -0.4403
 3545SOL    HW110634   3.916   3.361   5.578 -0.4925 -0.6850 -0.9815
 3545SOL    HW210635   4.037   3.431   5.634 -0.9086 -0.8118  0.1060
 3546SOL     OW10636   1.621   3.319   6.366 -0.0083 -0.0883 -0.8407
 3546SOL    HW110637   1.526   3.328   6.376  0.1445  2.6351 -1.0899
 3546SOL    HW210638   1.658   3.386   6.423  1.7107 -0.1883 -1.7714
 3547SOL     OW10639   2.664   4.535   6.322 -0.6320 -0.5682  0.9637
 3547SOL    HW110640   2.651   4.584   6.403  1.4259 -0.0724  1.0333
 3547SOL    HW210641   2.651   4.600   6.253  2.0377  0.1497  1.0543
 3548SOL     OW10642   0.607   4.115   5.447 -0.5066 -0.4244 -0.1013
 3548SOL    HW110643   0.556   4.184   5.405 -0.6802 -0.5767 -0.1414
 3548SOL    HW210644   0.639   4.061   5.375  0.8997  0.4658 -0.1946
 3549SOL     OW10645   3.024   1.376   5.180  0.5219 -0.6006  0.1260
 3549SOL    HW110646   3.104   1.421   5.152  0.9595  0.0987  2.2532
 3549SOL    HW210647   2.958   1.445   5.183  0.9326 -0.2279  2.3892
 3550SOL     OW10648   3.833   4.618   5.451 -0.8737 -0.3799  0.4636
 3550SOL    HW110649   3.809   4.590   5.539 -2.8705  0.9730  0.4011
 3550SOL    HW210650   3.913   4.670   5.463 -0.4112 -1.2584  1.2876
 3551SOL     OW10651   0.980   1.982   5.396 -0.3145  0.7976  0.9255
 3551SOL    HW110652   1.035   1.958   5.321 -0.6102  3.1344 -0.1341
 3551SOL    HW210653   0.891   1.957   5.370 -0.0228 -1.4982  1.9658
 3552SOL     OW10654   0.253   4.031   5.790  0.9858  0.5540 -0.1404
 3552SOL    HW110655   0.168   4.040   5.747  1.1701  5.9770 -0.0154
 3552SOL    HW210656   0.232   4.010   5.881  0.0856 -1.4607 -0.7566
 3553SOL     OW10657   0.436   2.883   7.085  0.0507  0.4059 -0.5404
 3553SOL    HW110658   0.426   2.866   6.991 -0.0445 -2.2112 -0.1298
 3553SOL    HW210659   0.528   2.865   7.103 -0.4186 -1.4326  0.2285
 3554SOL     OW10660   4.303   4.018   4.853 -0.1938  0.0040 -0.0876
 3554SOL    HW110661   4.318   4.043   4.944 -0.1418 -2.1403  0.5428
 3554SOL    HW210662   4.266   3.930   4.857  0.0417 -0.2562 -2.1549
 3555SOL     OW10663   3.769   1.781   8.607 -0.1304  0.5961  0.2828
 3555SOL    HW110664   3.788   1.699   8.652 -0.9937 -0.8410 -1.7949
 3555SOL    HW210665   3.855   1.821   8.594  0.9351 -2.1203 -2.3499
 3556SOL     OW10666   4.049   4.677   6.792  0.4248 -0.1211 -0.6406
 3556SOL    HW110667   4.012   4.695   6.706 -1.9828  0.0751  0.3630
 3556SOL    HW210668   4.051   4.581   6.799  3.7378 -0.3099 -2.0726
 3557SOL     OW10669   4.424   1.304   7.665 -0.0346  0.6977  0.5865
 3557SOL    HW110670   4.366   1.331   7.594  0.6825  3.3705  0.9362
 3557SOL    HW210671   4.512   1.321   7.632  0.3546  0.9410  1.7206
 3558SOL     OW10672   4.683   2.867   5.603 -0.2958 -0.0310  0.5117
 3558SOL    HW110673   4.667   2.959   5.585  0.3739  0.0873  0.5068
 3558SOL    HW210674   4.755   2.866   5.666 -1.6777 -0.4866  2.1568
 3559SOL     OW10675   4.416   3.263   9.958 -1.3949  0.1468 -0.1090
 3559SOL    HW110676   4.342   3.205   9.937  0.0129 -1.6905 -0.2431
 3559SOL    HW210677   4.490   3.224   9.912 -0.0899  1.2678  0.9658
 3560SOL     OW10678   3.491   2.184   5.100  0.1616 -0.0873 -0.0678
 3560SOL    HW110679   3.531   2.268   5.122  2.0049  0.0044 -3.1814
 3560SOL    HW210680   3.531   2.122   5.160  1.5703  0.7285 -0.1120
 3561SOL     OW10681   1.593   4.324   5.500 -0.3049  0.8246 -0.1151
 3561SOL    HW110682   1.611   4.283   5.585  1.8172 -0.5064 -1.1120
 3561SOL    HW210683   1.497   4.324   5.493 -0.4778 -0.5618  1.5807
 3562SOL     OW10684   3.560   0.923   4.684 -0.2796  0.2672 -0.6863
 3562SOL    HW110685   3.482   0.885   4.726 -0.2755  1.0387  0.0511
 3562SOL    HW210686   3.590   0.990   4.745  0.7815  0.2071 -1.1213
 3563SOL     OW10687   1.539   0.180   6.864 -0.1948  0.2389 -0.3911
 3563SOL    HW110688   1.501   0.255   6.819 -0.9387  0.7407  1.0295
 3563SOL    HW210689   1.478   0.108   6.848 -0.5324  0.4529 -0.0539
 3564SOL     OW10690   4.631   3.299   5.751 -0.2376 -0.2223  0.0617
 3564SOL    HW110691   4.726   3.288   5.751 -0.1040  0.5878  2.0544
 3564SOL    HW210692   4.611   3.332   5.838 -2.0115  2.5282 -1.2754
 3565SOL     OW10693   4.621   2.089   5.528  0.0645 -0.2513 -0.0654
 3565SOL    HW110694   4.697   2.137   5.561 -0.4639 -0.6223  1.7753
 3565SOL    HW210695   4.653   2.046   5.448  0.6850  2.6848 -1.5578
 3566SOL     OW10696   1.979   1.527   6.138  0.1451  0.9090  0.4433
 3566SOL    HW110697   2.060   1.577   6.129 -0.0977  1.1838 -0.2912
 3566SOL    HW210698   1.955   1.505   6.048  0.6262 -1.1520  0.7640
 3567SOL     OW10699   2.646   0.882   4.914 -0.3496 -0.0409 -0.4415
 3567SOL    HW110700   2.592   0.822   4.863 -0.8389  0.3720 -0.4153
 3567SOL    HW210701   2.731   0.880   4.871 -0.0393 -1.5421  0.1652
 3568SOL     OW10702   0.134   2.316   9.639  0.4456 -0.2014 -0.0058
 3568SOL    HW110703   0.059   2.352   9.591  1.0909  1.5165  0.2234
 3568SOL    HW210704   0.129   2.222   9.623 -0.4289  0.1219 -1.8901
 3569SOL     OW10705   2.199   2.664   9.614 -0.3928  0.5511 -0.1067
 3569SOL    HW110706   2.286   2.685   9.648 -0.3507  0.3899 -0.1117
 3569SOL    HW210707   2.144   2.737   9.641 -0.4555  0.2250  0.6674
 3570SOL     OW10708   2.996   2.911   4.573  0.2836 -0.7754 -0.3294
 3570SOL    HW110709   2.971   2.824   4.607  0.1985 -0.9462 -0.8247
 3570SOL    HW210710   2.932   2.929   4.505 -1.2384  0.7721  1.3976
 3571SOL     OW10711   3.048   0.907   9.464 -0.6157 -0.1535  0.8913
 3571SOL    HW110712   3.115   0.975   9.458 -1.0478  0.2921  1.0930
 3571SOL    HW210713   3.044   0.870   9.376 -0.2593 -0.0354  0.8225
 3572SOL     OW10714   3.519   1.247   8.139  0.9688  0.4018  0.3538
 3572SOL    HW110715   3.457   1.277   8.072  2.1953  1.7505 -0.2289
 3572SOL    HW210716   3.581   1.191   8.091  2.4658  2.1968  0.0634
 3573SOL     OW10717   4.329   2.758   8.787 -0.0420  1.0508  0.0370
 3573SOL    HW110718   4.316   2.851   8.766  0.8380  1.4434  1.1334
 3573SOL    HW210719   4.424   2.750   8.800  0.1886 -0.4771 -2.1249
 3574SOL     OW10720   0.299   4.713   7.710 -0.1368 -0.1338  0.5374
 3574SOL    HW110721   0.220   4.755   7.743 -0.1151 -0.2092  0.6853
 3574SOL    HW210722   0.329   4.658   7.782  1.5440  1.9092  1.5320
 3575SOL     OW10723   1.187   2.074  10.001 -0.4660 -0.4414  0.2326
 3575SOL    HW110724   1.106   2.023   9.994 -1.1609  0.8176 -1.6180
 3575SOL    HW210725   1.189   2.127   9.922  0.5745  1.9176  1.7229
 3576SOL     OW10726   0.370   3.782   7.425 -0.5366  0.3548 -0.0470
 3576SOL    HW110727   0.363   3.839   7.348  2.0672 -0.4009 -0.9445
 3576SOL    HW210728   0.442   3.819   7.475  1.7668 -2.4057 -1.0351
 3577SOL     OW10729   0.865   3.309   6.194 -0.4441 -0.8160  0.3936
 3577SOL    HW110730   0.771   3.321   6.202 -0.3866  0.3384 -0.3019
 3577SOL    HW210731   0.879   3.283   6.103  0.0225  0.8326 -0.0477
 3578SOL     OW10732   0.264   1.069   8.688 -0.4191 -0.1791 -0.2275
 3578SOL    HW110733   0.257   1.022   8.771 -1.3972  0.4738  0.0724
 3578SOL    HW210734   0.355   1.057   8.662 -0.2276 -0.8307  0.6729
 3579SOL     OW10735   1.805   1.365   8.804 -0.8647  0.1465 -0.5888
 3579SOL    HW110736   1.870   1.298   8.781  0.7217  1.3546  0.2204
 3579SOL    HW210737   1.828   1.441   8.750 -0.6380  1.0961  0.7912
 3580SOL     OW10738   3.541   0.301   9.018  0.1203  0.1688  0.2823
 3580SOL    HW110739   3.454   0.293   9.059  0.9764 -1.3175  1.9988
 3580SOL    HW210740   3.591   0.229   9.057  1.1429 -1.2884 -3.3184
 3581SOL     OW10741   1.592   3.334   7.474  0.5538 -0.0757 -0.1315
 3581SOL    HW110742   1.608   3.425   7.447 -2.6436  0.4311 -0.7068
 3581SOL    HW210743   1.558   3.341   7.563  1.3254 -0.8475  0.2383
 3582SOL     OW10744   2.673   3.945   7.187  0.8072  0.1393  0.1113
 3582SOL    HW110745   2.735   4.017   7.194  0.5832  0.3491 -0.0542
 3582SOL    HW210746   2.690   3.891   7.265  0.5461  0.7071  0.5630
 3583SOL     OW10747   3.175   2.544   5.077 -0.1138  1.0230 -0.1146
 3583SOL    HW110748   3.261   2.504   5.067 -0.9981 -1.4482  1.1896
 3583SOL    HW210749   3.191   2.638   5.075  2.6319  0.6273  0.3071
 3584SOL     OW10750   4.884   2.716   9.223 -0.0697  0.4616  0.2481
 3584SOL    HW110751   4.900   2.754   9.136 -0.2070 -1.2341 -0.5508
 3584SOL    HW210752   4.860   2.625   9.206 -1.3966  0.4319  1.9881
 3585SOL     OW10753   2.449   0.436   6.745 -0.5411 -0.2827 -0.7204
 3585SOL    HW110754   2.413   0.361   6.698 -0.4522 -0.3654 -0.6576
 3585SOL    HW210755   2.380   0.502   6.741 -0.5988 -0.3482 -0.8227
 3586SOL     OW10756   3.614   1.455   6.538 -0.8610 -0.1982 -0.8499
 3586SOL    HW110757   3.551   1.506   6.588 -1.4180 -0.3918 -1.3400
 3586SOL    HW210758   3.597   1.364   6.563 -1.8391 -0.3940 -2.1247
 3587SOL     OW10759   2.731   2.673   9.639  0.1413 -0.1233  0.3269
 3587SOL    HW110760   2.739   2.586   9.676 -0.2343  0.2680  1.3583
 3587SOL    HW210761   2.816   2.714   9.655  0.3017 -0.2732 -0.1154
 3588SOL     OW10762   3.982   2.244   5.574 -0.6067  0.2421  0.2330
 3588SOL    HW110763   4.049   2.312   5.575 -2.0341  1.7625 -0.6583
 3588SOL    HW210764   3.988   2.202   5.660  2.3709 -0.6848 -0.3051
 3589SOL     OW10765   0.905   2.599   9.943 -0.2223 -0.2357  0.0422
 3589SOL    HW110766   0.832   2.661   9.944 -0.8553 -0.9387 -0.6213
 3589SOL    HW210767   0.931   2.594   9.851 -0.6870 -1.4893 -0.0483
 3590SOL     OW10768   3.452   3.863   8.947  0.6727 -0.5972 -0.2643
 3590SOL    HW110769   3.501   3.782   8.960  2.2846 -0.1999 -3.1073
 3590SOL    HW210770   3.460   3.881   8.853 -3.9989  0.1602 -0.7642
 3591SOL     OW10771   3.753   3.644   9.280  0.0472  0.0791 -0.1881
 3591SOL    HW110772   3.738   3.733   9.313 -3.6019 -0.3536 -0.2269
 3591SOL    HW210773   3.756   3.590   9.359  1.5164  0.1069 -0.2009
 3592SOL     OW10774   2.292   1.753   9.015  0.1556 -0.5047  0.6248
 3592SOL    HW110775   2.383   1.722   9.010  0.1806 -0.9478  2.7494
 3592SOL    HW210776   2.241   1.674   9.032 -0.7276 -0.3114 -0.8928
 3593SOL     OW10777   4.772   0.502   7.215 -0.1015  0.0831  0.3258
 3593SOL    HW110778   4.735   0.521   7.301  0.3075  0.4488  0.4234
 3593SOL    HW210779   4.862   0.534   7.219 -0.4248  1.1915 -0.6330
 3594SOL     OW10780   3.349   3.905   7.295 -0.3211  0.3551  0.5460
 3594SOL    HW110781   3.410   3.946   7.234 -1.6450  0.6687 -0.6156
 3594SOL    HW210782   3.400   3.834   7.335  0.5565 -0.0028 -1.0862
 3595SOL     OW10783   0.631   0.435   9.189 -0.2760  0.5431 -0.5665
 3595SOL    HW110784   0.638   0.442   9.284 -1.2105 -1.4153 -0.3033
 3595SOL    HW210785   0.722   0.434   9.158  0.0418  2.3568  0.1379
 3596SOL     OW10786   3.488   2.469   5.950 -0.8698  0.3952  0.3025
 3596SOL    HW110787   3.477   2.564   5.951 -1.4821  0.3725 -1.3066
 3596SOL    HW210788   3.583   2.456   5.947 -0.7936  0.9730  0.0175
 3597SOL     OW10789   3.476   2.519   7.240 -0.2837 -0.1408  0.3828
 3597SOL    HW110790   3.457   2.469   7.160  0.6727  0.3772 -0.1921
 3597SOL    HW210791   3.570   2.505   7.255 -0.2588  0.5118  0.8927
 3598SOL     OW10792   3.655   4.173   7.251  0.2946 -0.2727  0.0705
 3598SOL    HW110793   3.704   4.094   7.276  0.1956 -0.2840  0.2297
 3598SOL    HW210794   3.585   4.179   7.316 -1.6696 -1.8497 -1.7324
 3599SOL     OW10795   1.802   3.588   7.828  0.0514 -0.2723  0.4274
 3599SOL    HW110796   1.871   3.585   7.762 -1.3526 -2.9411 -1.1007
 3599SOL    HW210797   1.729   3.633   7.785 -0.0135  0.2992  1.1193
 3600SOL     OW10798   1.046   3.113  10.047  0.1504 -0.3624 -0.2466
 3600SOL    HW110799   1.135   3.142  10.025 -0.0648 -0.1076 -0.8180
 3600SOL    HW210800   1.017   3.067   9.968  0.1991 -1.4737  0.3569
 3601SOL     OW10801   2.792   0.552   7.139  0.1705  0.2619 -0.0048
 3601SOL    HW110802   2.846   0.536   7.062 -0.9411  0.5139 -0.8636
 3601SOL    HW210803   2.772   0.465   7.173 -0.0994  0.1028 -0.5585
 3602SOL     OW10804   2.879   3.522   8.929 -0.5257  0.7304 -0.2298
 3602SOL    HW110805   2.969   3.522   8.962 -0.8394  3.0548  0.8226
 3602SOL    HW210806   2.882   3.575   8.850 -0.7146 -0.5834 -1.1526
 3603SOL     OW10807   4.590   0.098   4.848  0.5526  0.5237 -0.0303
 3603SOL    HW110808   4.662   0.082   4.910  1.2050  0.3611 -0.8187
 3603SOL    HW210809   4.631   0.096   4.762 -0.0890  2.1977 -0.4145
 3604SOL     OW10810   1.733   2.063   7.525  0.1270  0.5938 -0.2071
 3604SOL    HW110811   1.740   2.016   7.442 -1.5045  0.6475 -0.4201
 3604SOL    HW210812   1.682   2.142   7.504 -0.7651  0.3483  0.9216
 3605SOL     OW10813   4.192   2.044   6.662  0.9168  0.1511 -0.3491
 3605SOL    HW110814   4.232   2.121   6.701 -1.9090  1.6475 -0.1757
 3605SOL    HW210815   4.164   1.991   6.736  0.2220  0.4295 -0.4055
 3606SOL     OW10816   4.292   0.403  10.148  0.0821 -0.4478  0.3152
 3606SOL    HW110817   4.317   0.419  10.239 -0.9356 -0.2042  0.5634
 3606SOL    HW210818   4.353   0.335  10.119  0.3484 -0.6185  1.2191
 3607SOL     OW10819   2.871   4.982   8.976 -0.2335  0.0194  0.3718
 3607SOL    HW110820   2.954   4.935   8.965 -1.1247 -1.8843  1.4060
 3607SOL    HW210821   2.807   4.914   8.995 -2.3722  1.2618 -1.8427
 3608SOL     OW10822   1.929   1.945   5.990  0.0652 -0.0138 -0.4490
 3608SOL    HW110823   1.964   1.928   5.902  1.7100 -0.2321  0.2041
 3608SOL    HW210824   1.867   1.874   6.006 -1.2976  0.7844 -1.9384
 3609SOL     OW10825   0.091   0.624   6.512 -0.1653 -0.0649  0.1283
 3609SOL    HW110826   0.099   0.532   6.488 -1.7317 -0.1504 -0.1802
 3609SOL    HW210827   0.078   0.670   6.429  0.3504  0.4163  0.3039
 3610SOL     OW10828   0.949   3.890   8.870 -0.4524 -0.4582 -0.5241
 3610SOL    HW110829   0.907   3.960   8.919 -0.8927 -0.0728 -1.4336
 3610SOL    HW210830   0.890   3.872   8.797  0.8587 -0.0226 -1.7318
 3611SOL     OW10831   3.550   1.727   7.521  0.5101 -0.4897  0.2680
 3611SOL    HW110832   3.611   1.778   7.468  1.3208 -1.8228 -0.1232
 3611SOL    HW210833   3.575   1.636   7.505 -1.7429 -1.0936 -0.1009
 3612SOL     OW10834   4.860   3.107   8.020 -0.5476 -0.0737 -0.2880
 3612SOL    HW110835   4.931   3.128   7.959  0.2303 -1.2887  0.1468
 3612SOL    HW210836   4.861   3.177   8.084 -0.3130  0.3670 -0.7640
 3613SOL     OW10837   1.723   3.636   8.361 -0.2461  0.0786 -0.4323
 3613SOL    HW110838   1.751   3.648   8.270 -1.4050  2.0563 -0.5898
 3613SOL    HW210839   1.641   3.586   8.355  0.1900 -0.6701 -0.3682
 3614SOL     OW10840   3.124   4.758   9.460 -0.2984 -0.4998  1.3035
 3614SOL    HW110841   3.218   4.769   9.477  0.1942  0.7725 -1.7239
 3614SOL    HW210842   3.104   4.671   9.494  2.1037 -1.0249  1.5656
 3615SOL     OW10843   4.590   3.014   6.855 -0.4813 -0.0287 -0.1682
 3615SOL    HW110844   4.672   2.970   6.832 -0.9960 -0.5903 -0.9924
 3615SOL    HW210845   4.527   2.984   6.789 -1.0892  1.2184 -0.1861
 3616SOL     OW10846   3.193   1.854   5.157 -0.0646  0.1337 -0.4314
 3616SOL    HW110847   3.117   1.863   5.099 -0.2522 -0.6627 -0.3153
 3616SOL    HW210848   3.237   1.775   5.126  0.7525  0.6208 -0.5308
 3617SOL     OW10849   0.315   0.232   8.627 -1.0511  0.3149  0.5391
 3617SOL    HW110850   0.388   0.269   8.576  0.9644 -2.7912  0.8919
 3617SOL    HW210851   0.321   0.276   8.712 -0.5867  1.1951  0.0685
 3618SOL     OW10852   2.192   1.606   5.036  0.4305 -0.1726 -1.0028
 3618SOL    HW110853   2.269   1.569   4.992  3.5823  1.0621  2.8796
 3618SOL    HW210854   2.169   1.542   5.103 -1.1065  0.0970 -1.2418
 3619SOL     OW10855   3.253   3.453   6.105  0.3141 -0.3416 -0.3391
 3619SOL    HW110856   3.262   3.509   6.027  0.8876  0.2058  0.1161
 3619SOL    HW210857   3.166   3.413   6.095  0.1997  0.0629 -1.0429
 3620SOL     OW10858   1.367   4.086   6.947  0.1799  0.5946 -0.1327
 3620SOL    HW110859   1.407   4.171   6.928  0.4078  0.1288 -1.9352
 3620SOL    HW210860   1.377   4.036   6.866  1.7518 -1.8374  1.4191
 3621SOL     OW10861   1.731   3.699   9.686 -0.0251 -0.5810 -0.3227
 3621SOL    HW110862   1.682   3.619   9.707  0.0245 -0.5395 -0.0422
 3621SOL    HW210863   1.823   3.672   9.689  0.0578 -0.2575  0.9570
 3622SOL     OW10864   4.632   0.240   6.049  0.1966  0.1941  0.1140
 3622SOL    HW110865   4.609   0.241   6.142  1.2675 -1.7703  0.4643
 3622SOL    HW210866   4.717   0.284   6.045  0.7903 -0.8713  0.3265
 3623SOL     OW10867   3.527   3.560  10.548  0.1905  0.3744 -0.3006
 3623SOL    HW110868   3.556   3.513  10.469 -2.0773 -1.0072 -0.3909
 3623SOL    HW210869   3.591   3.535  10.615  0.6158 -0.6280 -1.0410
 3624SOL     OW10870   3.617   3.426   7.328  0.1589 -0.1674 -0.0521
 3624SOL    HW110871   3.707   3.399   7.347  0.8591  1.9140 -0.1816
 3624SOL    HW210872   3.567   3.344   7.330  1.8847 -1.2727  0.8825
 3625SOL     OW10873   1.691   1.157   6.019 -0.0259 -0.2455  0.4354
 3625SOL    HW110874   1.712   1.244   5.986  0.7500 -0.6845 -0.2569
 3625SOL    HW210875   1.602   1.165   6.054 -1.1988  0.1134 -2.3336
 3626SOL     OW10876   4.952   4.279   2.140 -0.1829  0.2960  0.0006
 3626SOL    HW110877   4.931   4.372   2.144  1.1697  0.7283 -1.8050
 3626SOL    HW210878   5.036   4.275   2.093  0.3462 -1.7598  0.9843
 3627SOL     OW10879   4.783   0.912   6.307 -0.3169 -0.3500  0.0553
 3627SOL    HW110880   4.839   0.854   6.255 -0.5110  0.5954 -1.2774
 3627SOL    HW210881   4.839   0.985   6.330 -1.3827  1.6924 -3.1334
 3628SOL     OW10882   0.108   3.645   9.512  0.1686  0.2828  0.9493
 3628SOL    HW110883   0.020   3.653   9.476 -0.5333  1.9609  2.8627
 3628SOL    HW210884   0.138   3.735   9.523  2.1154 -0.2591  0.4150
 3629SOL     OW10885   2.179   1.466   9.956 -0.3572 -0.6008  0.7612
 3629SOL    HW110886   2.205   1.397  10.017  2.0215 -0.6975 -0.2483
 3629SOL    HW210887   2.173   1.422   9.871  3.8571  0.7045 -0.4476
 3630SOL     OW10888   3.092   4.221   7.593 -0.4692 -0.0537 -0.9421
 3630SOL    HW110889   3.028   4.291   7.579 -1.1113 -0.1606  1.1510
 3630SOL    HW210890   3.154   4.258   7.656 -0.4955 -1.1873 -0.2366
 3631SOL     OW10891   2.813   4.218  10.004 -0.4290 -0.1424  0.3753
 3631SOL    HW110892   2.830   4.313  10.008  0.0779  0.3011 -4.9411
 3631SOL    HW210893   2.898   4.178  10.021  0.3331  0.6739 -1.2718
 3632SOL     OW10894   1.705   2.595   9.771  0.4607 -0.1379 -0.0237
 3632SOL    HW110895   1.716   2.564   9.681 -0.3458  5.6848 -2.6088
 3632SOL    HW210896   1.614   2.574   9.793  0.3202 -0.6858 -1.0608
 3633SOL     OW10897   3.116   3.363   9.070  0.2121  0.1690 -0.0455
 3633SOL    HW110898   3.071   3.388   9.150  1.0536  0.1629  0.4368
 3633SOL    HW210899   3.184   3.430   9.058  2.0855 -1.4664  0.9227
 3634SOL     OW10900   0.615   1.328   9.396  0.2811 -0.4812 -0.7922
 3634SOL    HW110901   0.690   1.312   9.452  1.3710 -3.6908 -2.8946
 3634SOL    HW210902   0.635   1.410   9.351  2.2169 -0.9279 -0.8138
 3635SOL     OW10903   0.606   2.988   6.251  0.0654 -0.4881  0.1215
 3635SOL    HW110904   0.606   3.075   6.291  1.4148 -0.1835 -0.4777
 3635SOL    HW210905   0.571   2.931   6.318  2.2695 -0.0043  1.8161
 3636SOL     OW10906   3.830   1.277   9.567 -0.2235 -0.4458  0.2306
 3636SOL    HW110907   3.788   1.252   9.649  0.1855  3.6451  1.9340
 3636SOL    HW210908   3.832   1.373   9.569  1.1891 -0.1613 -3.9159
 3637SOL     OW10909   4.967   3.753   7.186 -0.5630 -0.3147 -0.6787
 3637SOL    HW110910   4.894   3.809   7.160 -1.4621 -1.6597 -1.1130
 3637SOL    HW210911   4.998   3.713   7.105  1.1361  0.7422 -0.6136
 3638SOL     OW10912   2.241   4.624   8.983  0.6164  0.6042 -0.9956
 3638SOL    HW110913   2.264   4.655   9.070  0.3866  0.1785 -0.7840
 3638SOL    HW210914   2.290   4.682   8.924  0.2766  1.2998 -0.6061
 3639SOL     OW10915   0.920   3.966   8.470  0.0023 -0.0372  0.1735
 3639SOL    HW110916   0.898   3.953   8.563 -0.1077 -0.9829  0.0219
 3639SOL    HW210917   0.837   3.993   8.430  0.0100  0.2025  0.3161
 3640SOL     OW10918   4.616   2.081   9.466 -0.2302  0.2681 -0.5707
 3640SOL    HW110919   4.555   2.071   9.394 -1.0770 -1.0870  0.2908
 3640SOL    HW210920   4.697   2.040   9.436 -1.1299 -1.9446 -0.1384
 3641SOL     OW10921   0.412   3.169   8.863 -0.3928 -0.2507  0.3492
 3641SOL    HW110922   0.434   3.168   8.956 -1.1298  0.8037  0.5497
 3641SOL    HW210923   0.461   3.243   8.828 -2.0603  0.9320  0.4201
 3642SOL     OW10924   1.289   2.095   8.786 -0.5678 -0.3107 -0.4996
 3642SOL    HW110925   1.269   2.157   8.716  1.4664 -0.0122 -0.8950
 3642SOL    HW210926   1.381   2.111   8.806 -0.3219 -2.3553  0.2468
 3643SOL     OW10927   0.807   1.988   8.767  0.0366  0.7652 -0.3786
 3643SOL    HW110928   0.815   1.893   8.756 -2.4344  0.5698 -1.2289
 3643SOL    HW210929   0.896   2.021   8.757  0.7617 -1.3289 -1.6055
 3644SOL     OW10930   3.377   3.846   8.444  0.4846  0.4791 -0.0506
 3644SOL    HW110931   3.339   3.759   8.456 -0.4961  0.6074 -1.8179
 3644SOL    HW210932   3.347   3.873   8.357 -0.2494  3.0974  0.9408
 3645SOL     OW10933   4.887   2.072   6.686  0.6152  1.1260  0.3173
 3645SOL    HW110934   4.910   2.011   6.756  1.1231 -1.8644 -2.2364
 3645SOL    HW210935   4.800   2.105   6.710 -0.3730 -1.7915  1.1492
 3646SOL     OW10936   0.884   1.675   6.446 -0.0378 -0.3238 -1.1713
 3646SOL    HW110937   0.809   1.690   6.504  1.2347 -0.9287  0.7499
 3646SOL    HW210938   0.851   1.614   6.380 -1.1341 -1.0123 -0.0429
 3647SOL     OW10939   4.368   1.876   6.110  0.6833  0.3626  0.3057
 3647SOL    HW110940   4.412   1.956   6.083  0.4042  0.1266 -0.9080
 3647SOL    HW210941   4.298   1.905   6.167  0.8405  0.9489  0.2072
 3648SOL     OW10942   2.954   3.213   8.930  0.5549  0.0099 -0.5692
 3648SOL    HW110943   3.013   3.255   8.992 -0.0320  1.1451 -0.7682
 3648SOL    HW210944   2.968   3.259   8.848 -1.4287  1.1442 -0.3556
 3649SOL     OW10945   3.763   1.996   6.062  0.1200  0.5969 -0.0166
 3649SOL    HW110946   3.787   1.904   6.072  2.0214  1.1858  1.4187
 3649SOL    HW210947   3.841   2.044   6.090 -2.3507  2.7090  4.1465
 3650SOL     OW10948   0.233   1.695   8.086  0.1290 -0.2260  0.1746
 3650SOL    HW110949   0.226   1.662   8.176  1.0784 -0.3226  0.2184
 3650SOL    HW210950   0.325   1.720   8.077 -0.5700  2.8498  0.2967
 3651SOL     OW10951   0.522   0.671   9.885 -0.7659 -1.0592  0.9122
 3651SOL    HW110952   0.616   0.660   9.899 -0.4458  0.1948 -0.0045
 3651SOL    HW210953   0.481   0.625   9.957  0.4713 -3.5966  0.0904
 3652SOL     OW10954   4.132   4.906   6.958  0.4123 -0.0143 -0.4174
 3652SOL    HW110955   4.155   4.935   7.046  0.3071  1.0853 -0.7407
 3652SOL    HW210956   4.100   4.816   6.970  2.5385 -0.7255  0.3389
 3653SOL     OW10957   4.212   1.367   9.611 -0.0332 -0.0623 -0.4051
 3653SOL    HW110958   4.162   1.444   9.636 -1.4818 -1.4260  1.1935
 3653SOL    HW210959   4.283   1.362   9.675  0.8764  0.6244 -1.3156
 3654SOL     OW10960   1.132   0.390   6.808 -0.1884 -0.1991  1.0808
 3654SOL    HW110961   1.135   0.390   6.904 -2.3871  0.6277  1.1909
 3654SOL    HW210962   1.071   0.460   6.785  2.4423  1.6119 -1.0728
 3655SOL     OW10963   2.940  -0.021   8.366  0.7499  0.3771  0.2723
 3655SOL    HW110964   2.943   0.073   8.348 -1.7595  0.3566 -0.4942
 3655SOL    HW210965   2.898  -0.027   8.452  0.0742 -0.0717 -0.0859
 3656SOL     OW10966   0.835   2.283   9.093  0.5028 -0.5276 -0.6446
 3656SOL    HW110967   0.753   2.250   9.056  1.2644 -0.7888 -2.2179
 3656SOL    HW210968   0.856   2.360   9.041  1.2105 -0.4163 -0.2107
 3657SOL     OW10969   3.897   1.726   7.602  0.1275 -0.4494  0.3957
 3657SOL    HW110970   3.900   1.806   7.655  0.8587  0.2428 -0.6470
 3657SOL    HW210971   3.922   1.657   7.662  1.9084  0.4486  0.7660
 3658SOL     OW10972   2.906   3.707   7.841  0.0980  0.1382 -0.1718
 3658SOL    HW110973   2.941   3.619   7.828  0.0500  0.3407 -1.9603
 3658SOL    HW210974   2.907   3.719   7.936  1.7530 -1.1199  0.0312
 3659SOL     OW10975   1.907   0.912   7.764  0.3116  0.1383 -0.3084
 3659SOL    HW110976   1.815   0.900   7.788  0.5870 -1.9777 -0.0591
 3659SOL    HW210977   1.955   0.902   7.847  0.7610  1.8918 -0.3204
 3660SOL     OW10978   0.206   4.629   8.647 -0.5853 -0.5993 -0.1070
 3660SOL    HW110979   0.200   4.613   8.553 -3.2108 -1.7628  0.1864
 3660SOL    HW210980   0.116   4.641   8.676  0.2634  1.5039  2.0353
 3661SOL     OW10981   3.040   3.275   7.999  0.3538  0.1871  0.4064
 3661SOL    HW110982   3.131   3.303   8.004  0.2527  0.2195  3.6594
 3661SOL    HW210983   2.989   3.356   8.000  0.1971  0.2254 -2.4060
 3662SOL     OW10984   0.980   2.558   9.692 -0.2731  0.1867  0.0246
 3662SOL    HW110985   0.986   2.515   9.606 -1.3870 -0.0352  0.0322
 3662SOL    HW210986   1.070   2.582   9.713 -0.2000  2.4233 -2.2917
 3663SOL     OW10987   2.213   4.045   8.415  0.0727 -0.5841  0.1584
 3663SOL    HW110988   2.201   4.137   8.394 -1.7038 -0.3847  1.8178
 3663SOL    HW210989   2.307   4.037   8.434 -0.2041  1.7418  3.4634
 3664SOL     OW10990   0.450   2.851   5.829 -0.1570 -0.8646 -0.2181
 3664SOL    HW110991   0.477   2.842   5.738 -1.6565  2.4247 -1.1425
 3664SOL    HW210992   0.504   2.922   5.864 -1.7107  0.0491  0.4534
 3665SOL     OW10993   4.789   4.152   9.419 -0.3901  0.5921 -0.1927
 3665SOL    HW110994   4.710   4.178   9.466  0.0862  1.4696  0.1384
 3665SOL    HW210995   4.842   4.105   9.484 -0.4504  0.3644 -0.3049
 3666SOL     OW10996   1.249   2.078   9.577 -0.6609  0.0050 -0.9487
 3666SOL    HW110997   1.239   2.158   9.628 -0.7010 -0.8029  0.3565
 3666SOL    HW210998   1.264   2.010   9.643  0.5506 -0.8788 -2.0802
 3667SOL     OW10999   4.323   1.931  10.103 -0.5222  0.1147 -0.0835
 3667SOL    HW111000   4.375   1.960  10.177  0.8830 -0.3456 -0.8621
 3667SOL    HW211001   4.386   1.917  10.033 -1.5224 -1.7603 -0.6765
 3668SOL     OW11002   0.542   3.095   5.630  0.2103  0.0141 -0.3236
 3668SOL    HW111003   0.602   3.025   5.606 -1.4260 -1.0945 -1.3916
 3668SOL    HW211004   0.471   3.089   5.566 -0.1615  2.4283 -0.2236
 3669SOL     OW11005   0.413   3.134   8.374 -0.0553 -0.1706  0.4453
 3669SOL    HW111006   0.494   3.158   8.419 -0.3720  0.2070  0.8153
 3669SOL    HW211007   0.362   3.086   8.440  0.5136 -1.8005 -0.2312
 3670SOL     OW11008   1.994   0.440   5.027 -0.0621 -1.1831 -0.4111
 3670SOL    HW111009   2.027   0.351   5.025 -0.4703 -1.3338 -0.6941
 3670SOL    HW211010   1.900   0.431   5.010  0.0008 -0.6550 -1.0937
 3671SOL     OW11011   0.039   2.107   5.910 -0.0903 -0.0731 -0.4331
 3671SOL    HW111012   0.063   2.122   6.002 -1.3545  2.0810 -0.3776
 3671SOL    HW211013   0.074   2.184   5.865  2.5223 -2.1358 -2.2471
 3672SOL     OW11014   4.369   1.212   9.152  0.1502  0.1698 -0.2858
 3672SOL    HW111015   4.391   1.299   9.116 -0.4687  0.3387 -0.2601
 3672SOL    HW211016   4.363   1.226   9.246  0.6099 -0.0280 -0.2217
 3673SOL     OW11017   0.730   3.386   7.092 -0.1132  0.1251 -0.3521
 3673SOL    HW111018   0.817   3.428   7.088  0.2423 -0.5499  0.1540
 3673SOL    HW211019   0.729   3.327   7.017 -0.2181  0.2848 -0.4774
 3674SOL     OW11020   2.124   4.361   9.727 -0.1571  0.4477  0.4073
 3674SOL    HW111021   2.131   4.423   9.800 -0.8551  0.4498  0.4731
 3674SOL    HW211022   2.074   4.408   9.660  1.6001  0.9450 -0.6228
 3675SOL     OW11023   1.305   3.159   8.955  0.7978  0.3195  0.3798
 3675SOL    HW111024   1.314   3.195   8.866  1.3701 -0.2059  0.2189
 3675SOL    HW211025   1.285   3.067   8.941 -2.0255  0.7794  0.7663
 3676SOL     OW11026   1.699   0.839  10.196 -1.1143  0.3735 -0.1671
 3676SOL    HW111027   1.737   0.858  10.111  0.0441 -3.2864 -0.6447
 3676SOL    HW211028   1.774   0.829  10.255 -1.6623 -0.6423  0.3987
 3677SOL     OW11029   0.186   2.284   8.480 -0.1095 -0.3235  0.0080
 3677SOL    HW111030   0.167   2.249   8.566  1.3769  1.7457  1.2816
 3677SOL    HW211031   0.102   2.286   8.435 -1.4221  0.9335  2.3772
 3678SOL     OW11032   4.767   3.854   7.038  0.4588  0.9610  0.1694
 3678SOL    HW111033   4.816   3.921   6.992  2.0597  0.3067  0.8567
 3678SOL    HW211034   4.766   3.779   6.979  0.3826  0.9369  0.2009
 3679SOL     OW11035   3.470   0.915   7.935 -0.4848 -0.2856 -0.0211
 3679SOL    HW111036   3.529   0.988   7.952 -1.4626  0.3520  0.7276
 3679SOL    HW211037   3.523   0.837   7.954 -0.6953  0.3003  3.6370
 3680SOL     OW11038   0.912   0.897   8.131 -0.0210  0.4713  0.1744
 3680SOL    HW111039   0.956   0.816   8.156 -1.5287 -0.1800  0.8166
 3680SOL    HW211040   0.884   0.936   8.213 -1.3895  0.4090 -0.2315
 3681SOL     OW11041   1.217   1.298   7.093  0.2383  0.4753 -0.4334
 3681SOL    HW111042   1.295   1.263   7.134 -0.9858 -2.9749 -0.6879
 3681SOL    HW211043   1.177   1.354   7.160  2.4471  1.7051 -0.0519
 3682SOL     OW11044   1.916   4.081   8.252 -0.4852 -1.2330 -0.9100
 3682SOL    HW111045   1.919   4.063   8.158 -0.3512 -2.5413 -0.6739
 3682SOL    HW211046   1.988   4.142   8.268 -1.2676 -0.0084 -1.8320
 3683SOL     OW11047   0.726   2.112   9.860 -0.1126  0.5555 -0.6786
 3683SOL    HW111048   0.656   2.177   9.854  0.9306  1.9952  1.5820
 3683SOL    HW211049   0.789   2.138   9.792  1.3128  3.3442  1.5324
 3684SOL     OW11050   3.890   3.797   9.560  0.0561  0.1655 -0.5861
 3684SOL    HW111051   3.949   3.722   9.559  0.0154  0.1367 -1.6514
 3684SOL    HW211052   3.906   3.839   9.644  0.6716 -0.5695 -0.3295
 3685SOL     OW11053   0.800   1.785   8.457  0.9151  0.6606  0.3212
 3685SOL    HW111054   0.730   1.761   8.518  1.1135  1.9854  1.0970
 3685SOL    HW211055   0.878   1.791   8.511  1.4489  0.1219 -0.3821
 3686SOL     OW11056   2.248   2.799   5.436 -0.4685  0.1666  0.7433
 3686SOL    HW111057   2.176   2.783   5.374  0.1980 -0.0335  0.0091
 3686SOL    HW211058   2.230   2.887   5.470  1.1609  1.9877 -2.5915
 3687SOL     OW11059   2.428   2.707   4.582 -0.3870 -0.1364 -0.6153
 3687SOL    HW111060   2.495   2.760   4.539  0.2774  0.7806  1.3812
 3687SOL    HW211061   2.477   2.654   4.645 -1.4854  0.5777  0.9193
 3688SOL     OW11062  -0.007   3.108   9.773 -0.6351 -0.3408 -0.2480
 3688SOL    HW111063  -0.004   3.038   9.838 -1.6528 -0.1675  0.0031
 3688SOL    HW211064   0.052   3.078   9.703 -0.8972 -1.3542 -0.0574
 3689SOL     OW11065   1.893   4.942  10.610 -0.5185 -0.2597  0.5239
 3689SOL    HW111066   1.944   4.879  10.661 -0.0224  0.3760  0.8349
 3689SOL    HW211067   1.812   4.953  10.660  0.3566  1.0814  1.7467
 3690SOL     OW11068   4.549   0.069   9.796 -0.1722  0.3332 -0.2922
 3690SOL    HW111069   4.568   0.079   9.703  0.9871 -1.5952 -0.3205
 3690SOL    HW211070   4.491   0.143   9.817 -2.0180 -0.1842 -2.9699
 3691SOL     OW11071   0.353   2.674   4.972 -1.0546  0.4327  0.3084
 3691SOL    HW111072   0.370   2.763   5.003 -1.0957  1.6131 -2.6630
 3691SOL    HW211073   0.439   2.635   4.960 -0.7182  1.7545 -2.4847
 3692SOL     OW11074   2.201   1.654   5.656  0.2066  0.4223  0.0921
 3692SOL    HW111075   2.195   1.608   5.572 -0.6992  0.1411  0.3016
 3692SOL    HW211076   2.274   1.612   5.701 -0.6390 -0.8833  0.3033
 3693SOL     OW11077   4.771   4.112   6.328  0.1348 -0.4403 -0.4503
 3693SOL    HW111078   4.857   4.115   6.368 -0.5432  0.3745  1.0126
 3693SOL    HW211079   4.732   4.031   6.361  0.3080 -0.7823 -1.0683
 3694SOL     OW11080   3.673   4.978   8.714 -0.2301 -0.1418  0.4174
 3694SOL    HW111081   3.753   4.925   8.715  0.7131  1.0776 -1.7932
 3694SOL    HW211082   3.692   5.048   8.652 -2.1637  1.6299  1.6942
 3695SOL     OW11083   2.719   4.799   6.189 -0.3702 -0.4414  0.6059
 3695SOL    HW111084   2.687   4.842   6.268 -1.1853 -1.3821  0.7917
 3695SOL    HW211085   2.783   4.861   6.153  1.3013 -0.7143  2.8971
 3696SOL     OW11086   0.700   4.061   9.272 -0.1808 -0.3753  0.0572
 3696SOL    HW111087   0.753   4.021   9.203 -2.7303 -0.1181 -2.2130
 3696SOL    HW211088   0.672   4.144   9.235 -0.5885  0.3704  1.9681
 3697SOL     OW11089   2.460   2.202   9.405 -0.1866  0.7871  0.4773
 3697SOL    HW111090   2.472   2.250   9.323 -0.5467  1.8173  1.0182
 3697SOL    HW211091   2.548   2.176   9.431 -0.1885 -0.9109 -1.0177
 3698SOL     OW11092   4.561   1.979   5.770  0.0725  0.3152 -0.0489
 3698SOL    HW111093   4.474   1.938   5.772  0.4099 -0.5317 -1.7688
 3698SOL    HW211094   4.567   2.019   5.683  1.7590 -0.4278 -0.3103
 3699SOL     OW11095   0.573   3.660   6.482 -0.4216 -0.1031  0.2860
 3699SOL    HW111096   0.567   3.637   6.574 -1.6718  2.9536  1.1154
 3699SOL    HW211097   0.659   3.700   6.472 -0.5550  0.2087  0.3438
 3700SOL     OW11098   3.506   0.713   9.921  0.0232  0.0502  0.1242
 3700SOL    HW111099   3.449   0.641   9.949 -5.3962  3.4104 -0.7413
 3700SOL    HW211100   3.532   0.756  10.002 -2.0737  0.6267  0.5404
 3701SOL     OW11101   4.741   2.601   6.150 -0.1399 -0.4296 -0.1714
 3701SOL    HW111102   4.834   2.597   6.172 -0.1354 -0.0106 -0.1102
 3701SOL    HW211103   4.721   2.695   6.147 -0.6823 -0.5217  0.3537
 3702SOL     OW11104   3.400   3.179   7.013  0.4288  0.4296  0.2445
 3702SOL    HW111105   3.336   3.138   7.072  1.4972 -1.3032  0.2871
 3702SOL    HW211106   3.419   3.264   7.053  1.6831 -0.9747  2.8944
 3703SOL     OW11107   0.099   4.188   9.694 -0.0067 -0.7772  0.4524
 3703SOL    HW111108   0.131   4.219   9.779  1.0680  0.2330 -0.3106
 3703SOL    HW211109   0.044   4.113   9.716 -1.2745  0.5791  2.2137
 3704SOL     OW11110   2.272   2.873   8.326  0.2330 -1.0141  0.0123
 3704SOL    HW111111   2.346   2.854   8.268 -0.0788  1.6161 -1.3962
 3704SOL    HW211112   2.195   2.863   8.271 -0.1046  1.0643  0.0234
 3705SOL     OW11113   3.922   1.439   9.942  0.1411  0.1870  0.2752
 3705SOL    HW111114   3.944   1.523   9.983  1.6216 -1.3615  2.9615
 3705SOL    HW211115   3.828   1.428   9.957 -0.3032  1.8395 -1.1336
 3706SOL     OW11116   3.188   0.432   8.404 -0.5224  0.3312 -0.1517
 3706SOL    HW111117   3.274   0.400   8.377 -1.6071 -2.3966 -0.7005
 3706SOL    HW211118   3.201   0.526   8.418  2.4353  0.0885 -0.5351
 3707SOL     OW11119   2.086   3.349   9.952  0.4048 -0.1774 -0.0707
 3707SOL    HW111120   2.040   3.270   9.924 -0.0857 -0.4094  1.2845
 3707SOL    HW211121   2.048   3.420   9.900  0.9951 -0.8382 -1.4458
 3708SOL     OW11122   0.583   3.411  10.285  0.0613 -0.4479  0.4111
 3708SOL    HW111123   0.497   3.391  10.249  0.0803  0.9633 -0.5116
 3708SOL    HW211124   0.644   3.359  10.233  0.1382  1.9357 -2.1292
 3709SOL     OW11125   2.698   3.946   8.558  0.7596 -0.0881 -0.6232
 3709SOL    HW111126   2.768   3.917   8.616  2.9616  0.4038 -2.8672
 3709SOL    HW211127   2.743   3.983   8.482 -1.9478  1.8360 -1.4469
 3710SOL     OW11128   3.138   3.784   9.468  0.0024  1.3817  0.2835
 3710SOL    HW111129   3.065   3.768   9.408  0.9736 -0.2613 -0.5652
 3710SOL    HW211130   3.103   3.763   9.555 -0.3644 -0.1533 -0.1975
 3711SOL     OW11131   2.715   0.017   9.684  0.2878  0.3211 -0.1850
 3711SOL    HW111132   2.763  -0.044   9.628 -1.2807 -0.9826 -0.1737
 3711SOL    HW211133   2.782   0.077   9.717  1.2077  1.5615 -3.9180
 3712SOL     OW11134   2.951   4.882   9.708 -0.6265  0.2273  0.1711
 3712SOL    HW111135   3.037   4.871   9.747  0.7089  3.2395 -1.5144
 3712SOL    HW211136   2.968   4.910   9.618 -3.4604 -1.7317 -1.1442
 3713SOL     OW11137   4.642   1.750   9.456  0.4017  0.3690 -0.5129
 3713SOL    HW111138   4.588   1.689   9.406  1.4185 -1.4912  0.5561
 3713SOL    HW211139   4.579   1.801   9.506 -0.7428  3.0012 -4.2068
 3714SOL     OW11140   0.984   2.287   9.917  1.0460  0.0869  0.0331
 3714SOL    HW111141   1.006   2.237   9.996 -3.3477 -2.7773 -0.1820
 3714SOL    HW211142   0.925   2.355   9.947  0.6286  0.0028 -0.5780
 3715SOL     OW11143   1.643   2.719   8.587  0.9737  0.0948  0.1404
 3715SOL    HW111144   1.700   2.741   8.661  0.3577  0.9048  0.3895
 3715SOL    HW211145   1.575   2.787   8.588  0.4940 -0.3570 -0.6748
 3716SOL     OW11146   1.706   4.177   9.099  0.5892 -0.0024 -0.3893
 3716SOL    HW111147   1.795   4.174   9.135  1.0774 -0.7322 -1.5884
 3716SOL    HW211148   1.690   4.087   9.070 -1.2032 -0.2998  1.3094
 3717SOL     OW11149   2.162   1.885   8.829 -0.2870 -0.5597 -0.2955
 3717SOL    HW111150   2.114   1.810   8.794 -0.8056 -1.3021  1.8603
 3717SOL    HW211151   2.219   1.847   8.895  0.4751  0.8064 -0.1499
 3718SOL     OW11152   1.592   4.589   8.824 -0.6371  0.4360  0.1880
 3718SOL    HW111153   1.562   4.679   8.808 -1.0311  0.2223 -0.2922
 3718SOL    HW211154   1.685   4.599   8.847  0.0323  0.7830 -2.3056
 3719SOL     OW11155   0.745   4.681   7.763  0.4395 -0.2873 -0.6228
 3719SOL    HW111156   0.762   4.641   7.678 -0.4723 -0.8837 -0.5415
 3719SOL    HW211157   0.670   4.739   7.749  0.3594 -0.2948 -0.2532
 3720SOL     OW11158   3.494   3.588   9.168 -0.0655  0.3875 -0.5635
 3720SOL    HW111159   3.490   3.501   9.208 -1.4441  0.5696 -0.2583
 3720SOL    HW211160   3.482   3.649   9.240  1.3268  0.8864 -0.7079
 3721SOL     OW11161   3.745   0.810   8.131 -0.2224 -0.6530  0.6202
 3721SOL    HW111162   3.739   0.815   8.226 -0.1313 -1.2037  0.6621
 3721SOL    HW211163   3.763   0.717   8.114 -1.0684 -0.7192  0.0283
 3722SOL     OW11164   0.438   0.709  10.229 -0.2637 -0.4832  0.2806
 3722SOL    HW111165   0.411   0.738  10.317  2.4251  0.2953  0.9420
 3722SOL    HW211166   0.452   0.614  10.238  3.2919  0.0227  1.7998
 3723SOL     OW11167   0.246   0.312   7.917 -0.1763 -0.2325 -0.6712
 3723SOL    HW111168   0.185   0.359   7.974 -1.4408  0.0013 -2.1426
 3723SOL    HW211169   0.290   0.249   7.975 -1.4141 -0.0190  0.5485
 3724SOL     OW11170   0.109   0.271   9.141  0.5018 -0.3361 -0.7785
 3724SOL    HW111171   0.189   0.291   9.190 -0.4772  0.6510  0.4886
 3724SOL    HW211172   0.122   0.182   9.109  2.9605  0.4903 -2.3803
 3725SOL     OW11173   3.106   3.784  10.172 -0.1873  0.3759  0.6375
 3725SOL    HW111174   3.024   3.833  10.175  0.8348  2.4283 -1.9846
 3725SOL    HW211175   3.143   3.796  10.259 -0.5525  3.3531  0.4876
 3726SOL     OW11176   1.595   0.988   7.322 -0.8120  0.3151 -0.8469
 3726SOL    HW111177   1.626   0.947   7.403 -0.7454 -1.2955 -1.6458
 3726SOL    HW211178   1.549   0.917   7.276 -3.9765  2.0585 -0.6277
 3727SOL     OW11179   0.818   3.808   6.482  0.2573  0.2957  0.0186
 3727SOL    HW111180   0.859   3.841   6.562  0.8036  0.1592 -0.1982
 3727SOL    HW211181   0.890   3.802   6.419 -0.4685  2.1173 -1.0440
 3728SOL     OW11182   3.268   2.887   9.613 -0.6638 -0.0755 -0.7756
 3728SOL    HW111183   3.342   2.909   9.670 -0.4518 -2.2394 -0.1254
 3728SOL    HW211184   3.225   2.971   9.596  1.3808  1.1265 -0.4156
 3729SOL     OW11185   4.001   0.186   9.961 -0.5825  0.5004 -0.4804
 3729SOL    HW111186   3.950   0.211  10.038 -1.3622  0.7378 -1.0617
 3729SOL    HW211187   3.975   0.249   9.894  2.0751  2.0094 -0.2087
 3730SOL     OW11188   3.541   3.488   7.987  0.2113  0.4772  0.0967
 3730SOL    HW111189   3.601   3.417   7.963 -0.2986 -0.3532  1.1752
 3730SOL    HW211190   3.597   3.566   7.988  1.0498 -0.1003  0.0438
 3731SOL     OW11191   3.489   3.309   9.202  0.3404 -0.4611  0.6462
 3731SOL    HW111192   3.513   3.312   9.295  1.7833 -0.0091  0.2800
 3731SOL    HW211193   3.431   3.233   9.195 -0.3301 -0.1008  2.0339
 3732SOL     OW11194   3.929   0.312   8.834  0.3454  0.0511 -0.4990
 3732SOL    HW111195   3.930   0.366   8.914 -0.1349  0.0735 -0.5038
 3732SOL    HW211196   3.944   0.223   8.866 -0.6944 -0.0651 -0.2695
 3733SOL     OW11197   4.945   0.601   9.770  0.2280 -0.2008 -0.1938
 3733SOL    HW111198   5.008   0.664   9.735 -1.5232  0.7524 -1.8091
 3733SOL    HW211199   4.939   0.534   9.702 -1.2385  0.2669 -0.5573
 3734SOL     OW11200   3.844   0.351   8.431 -0.2445  0.1266  0.2146
 3734SOL    HW111201   3.859   0.442   8.459 -3.2129  0.4485  1.0680
 3734SOL    HW211202   3.932   0.314   8.425  1.0590  2.9336  0.1869
 3735SOL     OW11203   1.790   3.061   8.304  0.4706  0.0481  0.3570
 3735SOL    HW111204   1.798   3.089   8.395  1.7667  1.4803 -0.1424
 3735SOL    HW211205   1.796   2.966   8.307  1.1179  0.1140  1.7262
 3736SOL     OW11206   4.077   0.720   9.389  0.9421  0.2503 -0.3201
 3736SOL    HW111207   4.148   0.691   9.446  0.3340  0.2408  0.4527
 3736SOL    HW211208   3.998   0.687   9.431  0.1874  3.0554  0.6669
 3737SOL     OW11209   3.953   0.904   9.762 -0.2116 -0.4592 -0.4862
 3737SOL    HW111210   4.038   0.908   9.805  0.6883  0.3135 -2.2324
 3737SOL    HW211211   3.902   0.843   9.816  1.4528 -1.0238  0.5451
 3738SOL     OW11212   4.630   4.743   8.980  0.2544  0.1118 -0.5405
 3738SOL    HW111213   4.637   4.733   9.075  0.1094  1.4456 -0.3685
 3738SOL    HW211214   4.713   4.708   8.947 -0.3676 -1.9453 -0.0994
 3739SOL     OW11215   0.727   3.482   9.159  0.7071  0.1419 -0.2767
 3739SOL    HW111216   0.771   3.532   9.091 -0.1533 -0.4761 -1.3215
 3739SOL    HW211217   0.634   3.500   9.146  0.2103 -2.8703 -1.7195
 3740SOL     OW11218   0.300   3.861   9.451 -0.0426  0.5459  0.6225
 3740SOL    HW111219   0.392   3.871   9.475 -0.1684 -2.0012  2.7705
 3740SOL    HW211220   0.301   3.831   9.361  1.1220  1.6638  0.2377
 3741SOL     OW11221   0.109   4.141   8.660 -0.1796  0.0960 -0.3044
 3741SOL    HW111222   0.051   4.131   8.735 -0.2577 -0.5066 -0.4373
 3741SOL    HW211223   0.153   4.056   8.653 -0.2864  0.0955 -1.0232
 3742SOL     OW11224   2.992   1.460   7.339 -0.8667  0.1435  0.2128
 3742SOL    HW111225   2.904   1.421   7.331 -0.0546 -1.8125  0.1796
 3742SOL    HW211226   3.048   1.387   7.363  1.3624  0.5465 -3.0516
 3743SOL     OW11227   1.914   4.800   9.716  0.2921 -0.2836 -0.2245
 3743SOL    HW111228   1.970   4.871   9.749  0.7868 -0.6124 -0.3312
 3743SOL    HW211229   1.826   4.836   9.716  0.3465 -0.1053  0.9873
 3744SOL     OW11230   0.377   4.598   7.064  0.3702  0.2048 -0.3055
 3744SOL    HW111231   0.296   4.631   7.025 -0.3437 -1.2645 -0.1301
 3744SOL    HW211232   0.446   4.651   7.024 -0.6009  0.9211 -1.0897
 3745SOL     OW11233   0.281   2.926   8.838 -0.0414  1.1129 -0.5639
 3745SOL    HW111234   0.351   2.991   8.832  0.4619  0.4905 -1.8496
 3745SOL    HW211235   0.292   2.886   8.924 -0.1444  2.4764  0.0980
 3746SOL     OW11236   2.414   1.902   6.378 -0.4225  0.1936  0.4364
 3746SOL    HW111237   2.508   1.889   6.388 -0.4083  0.1615  0.2622
 3746SOL    HW211238   2.400   1.911   6.284 -0.8527 -1.8704  0.2526
 3747SOL     OW11239   3.183   3.299  10.098 -0.4187  0.8129  0.3168
 3747SOL    HW111240   3.186   3.337  10.186 -0.8786 -0.2148  0.7842
 3747SOL    HW211241   3.098   3.328  10.062 -1.6090 -1.2027  1.3584
 3748SOL     OW11242   0.049   1.217   8.502  0.2415  0.3945 -0.5456
 3748SOL    HW111243   0.072   1.163   8.578 -0.5621  0.5854 -0.1555
 3748SOL    HW211244   0.133   1.235   8.459  0.7083  0.3175  0.3193
 3749SOL     OW11245   2.037   4.078   9.562 -0.4308 -0.2334 -0.1714
 3749SOL    HW111246   1.955   4.107   9.522 -0.0458  0.1807 -0.6718
 3749SOL    HW211247   2.089   4.158   9.572 -0.0486 -0.5044  0.0650
 3750SOL     OW11248   3.251   2.043   9.490  0.2127 -0.5656 -0.2542
 3750SOL    HW111249   3.330   2.084   9.525  0.2528 -1.3222  0.5827
 3750SOL    HW211250   3.266   2.035   9.396 -0.5790  3.1051 -0.8551
 3751SOL     OW11251   3.395   2.768   8.289  0.0824  0.6477  0.0067
 3751SOL    HW111252   3.391   2.858   8.320 -3.8768  0.1984  1.3113
 3751SOL    HW211253   3.426   2.718   8.364  0.5663  0.6810 -0.1635
 3752SOL     OW11254   2.863   3.127   4.276 -0.2782 -0.5815  0.3025
 3752SOL    HW111255   2.850   3.156   4.366 -0.7403 -0.6276  0.2549
 3752SOL    HW211256   2.943   3.172   4.247 -0.2401 -0.4125  0.6681
 3753SOL     OW11257   4.329   0.691   9.547  0.0403  0.0114 -0.1157
 3753SOL    HW111258   4.383   0.725   9.475 -1.1330  0.4224 -0.8354
 3753SOL    HW211259   4.386   0.695   9.624  0.9736  0.5830 -0.8159
 3754SOL     OW11260   0.183   0.879   9.389 -0.6834  0.6014 -0.1006
 3754SOL    HW111261   0.174   0.863   9.483  1.7819 -0.9351 -0.0377
 3754SOL    HW211262   0.219   0.968   9.383 -1.7126  1.0607  0.3294
 3755SOL     OW11263   3.487   0.434   6.423 -0.0148 -0.3272 -0.5386
 3755SOL    HW111264   3.453   0.524   6.418 -0.8510 -0.6816 -2.1149
 3755SOL    HW211265   3.491   0.415   6.516  0.5471  1.4750 -0.1438
 3756SOL     OW11266   2.772   0.347   9.379  0.4242 -0.5839  0.0334
 3756SOL    HW111267   2.703   0.297   9.336  1.6225 -2.2370 -0.0440
 3756SOL    HW211268   2.824   0.384   9.308 -0.5737  1.0278  0.0857
 3757SOL     OW11269   4.226   4.182   7.398  0.1469  0.0643 -0.6988
 3757SOL    HW111270   4.250   4.244   7.467 -2.2135  0.6508 -0.3300
 3757SOL    HW211271   4.295   4.191   7.332  0.9922  1.4874  0.3255
 3758SOL     OW11272   3.683   0.884   9.042 -0.6520  0.1781  0.0859
 3758SOL    HW111273   3.611   0.931   9.084  0.3370  0.9888  0.9333
 3758SOL    HW211274   3.756   0.891   9.104  0.2121 -0.4701 -0.8216
 3759SOL     OW11275   1.052   0.222   8.322  0.3834  0.3788  0.0319
 3759SOL    HW111276   1.104   0.142   8.318  0.6085  0.5402 -0.3483
 3759SOL    HW211277   0.982   0.203   8.385 -1.0847 -1.0435 -1.9023
 3760SOL     OW11278   0.154   4.551   6.779  0.0349  0.4671  0.3900
 3760SOL    HW111279   0.150   4.550   6.684 -2.1690  0.2709  0.4388
 3760SOL    HW211280   0.213   4.624   6.800  0.0536  0.9057 -1.1082
 3761SOL     OW11281   4.610   1.117   9.512 -0.2173 -0.2902  0.0543
 3761SOL    HW111282   4.696   1.100   9.551 -0.5172 -2.0457  0.0502
 3761SOL    HW211283   4.568   1.031   9.510 -1.6941  0.4194 -0.6228
 3762SOL     OW11284   3.567   1.248   8.422 -0.4791 -0.5086 -0.7319
 3762SOL    HW111285   3.555   1.270   8.329 -3.6968  2.9369  0.2351
 3762SOL    HW211286   3.478   1.244   8.457  0.6407  0.0251  2.5279
 3763SOL     OW11287   3.325   0.310  10.337 -0.8416 -0.0838 -0.4042
 3763SOL    HW111288   3.345   0.240  10.276  1.0895  0.7383 -0.7876
 3763SOL    HW211289   3.395   0.306  10.402 -3.1935 -1.4042  2.3152
 3764SOL     OW11290   4.466   4.615   6.561 -0.2433 -0.0078 -0.6435
 3764SOL    HW111291   4.448   4.611   6.655  0.1270  2.1572 -0.4137
 3764SOL    HW211292   4.561   4.625   6.555 -0.4696  3.3681 -0.9432
 3765SOL     OW11293   4.948   1.395   5.577 -0.7012 -0.2870  0.1995
 3765SOL    HW111294   4.916   1.445   5.501  0.3474 -1.4180 -1.0407
 3765SOL    HW211295   4.872   1.387   5.634 -1.3523  1.1709 -0.4139
 3766SOL     OW11296   1.875   0.661   6.858  0.2956  0.1291 -0.0085
 3766SOL    HW111297   1.966   0.660   6.888  0.6378  1.1771 -0.9470
 3766SOL    HW211298   1.845   0.750   6.877 -0.3139  0.0041 -0.3740
 3767SOL     OW11299   4.669   4.978  10.127  0.1403 -0.0680 -0.1155
 3767SOL    HW111300   4.705   4.894  10.156  1.3774  0.1930 -0.8354
 3767SOL    HW211301   4.744   5.026  10.093 -0.6811  1.0422 -0.4171
 3768SOL     OW11302   1.292   4.505  10.259  0.1462 -0.0877 -0.2451
 3768SOL    HW111303   1.228   4.447  10.217 -2.5910  1.9040  0.9120
 3768SOL    HW211304   1.319   4.459  10.338  0.5935 -1.1574 -0.9921
 3769SOL     OW11305   4.289  -0.022   9.920 -0.0603  0.4062  0.0783
 3769SOL    HW111306   4.286   0.054   9.978 -0.9649  0.0088  0.5691
 3769SOL    HW211307   4.382  -0.031   9.898 -0.1611  3.1201 -1.9664
 3770SOL     OW11308   4.258   0.362   9.479  0.2564 -0.7482 -0.6843
 3770SOL    HW111309   4.292   0.307   9.549  1.3486  0.1289 -0.4917
 3770SOL    HW211310   4.259   0.451   9.515  0.4953 -0.3290 -1.6772
 3771SOL     OW11311   4.651   0.928   9.204  0.2812 -0.5113  0.0328
 3771SOL    HW111312   4.588   0.956   9.137  0.0984  0.7916  0.7200
 3771SOL    HW211313   4.602   0.868   9.260  0.4386 -1.6241 -0.9862
 3772SOL     OW11314   1.545   2.115   8.912 -0.4418  0.6566  0.7416
 3772SOL    HW111315   1.515   2.202   8.939  4.3671  2.8796 -0.0066
 3772SOL    HW211316   1.543   2.063   8.993 -3.3932  1.3494  1.2073
 3773SOL     OW11317   1.696   3.922   7.992 -0.1084 -0.0557  0.5870
 3773SOL    HW111318   1.625   3.859   7.986 -1.1708  0.9567  1.7641
 3773SOL    HW211319   1.753   3.886   8.060  0.2412 -0.6173  0.0027
 3774SOL     OW11320   4.820   4.691   8.205  0.3347  0.0239  0.1838
 3774SOL    HW111321   4.915   4.703   8.200  0.0967  3.0227  0.8496
 3774SOL    HW211322   4.799   4.710   8.297 -0.7488 -2.7243  0.5875
 3775SOL     OW11323   1.814   4.136   4.879  0.2248  0.3507 -0.7864
 3775SOL    HW111324   1.910   4.143   4.880  0.1266  3.8448 -2.0494
 3775SOL    HW211325   1.795   4.084   4.801  1.0862  1.1764 -1.5732
 3776SOL     OW11326   4.890   2.816   9.667  0.2901  0.1029 -1.0915
 3776SOL    HW111327   4.887   2.780   9.756 -2.3168 -0.6404 -1.3856
 3776SOL    HW211328   4.818   2.878   9.664  0.6830  0.5196 -2.5365
 3777SOL     OW11329   4.088   2.589   8.657  0.2755  0.0408  0.7395
 3777SOL    HW111330   4.111   2.566   8.748  0.9759 -1.7397  0.1663
 3777SOL    HW211331   4.019   2.654   8.665  0.7158  0.3353  2.5567
 3778SOL     OW11332   2.878   2.868   9.092  0.1905  0.5376  0.4927
 3778SOL    HW111333   2.836   2.845   9.009  2.1221 -1.4328 -0.0661
 3778SOL    HW211334   2.828   2.821   9.158  0.7480 -0.8438 -0.0248
 3779SOL     OW11335   0.662   2.915   8.707  0.1706 -0.0229  0.1864
 3779SOL    HW111336   0.717   2.862   8.765 -0.2369  0.5090  1.0858
 3779SOL    HW211337   0.690   2.891   8.619  0.3721 -1.3145  0.5827
 3780SOL     OW11338   1.036   0.110   9.496 -0.0647  0.2176 -0.0106
 3780SOL    HW111339   0.947   0.083   9.475 -0.2079 -1.9697  2.8281
 3780SOL    HW211340   1.090   0.034   9.473  0.8522  0.8628 -0.0561
 3781SOL     OW11341   1.555   1.288   8.478 -0.6217 -0.1553  0.0259
 3781SOL    HW111342   1.531   1.327   8.562  2.0489  1.4369  0.1476
 3781SOL    HW211343   1.540   1.194   8.489  1.1767 -0.2032  2.8852
 3782SOL     OW11344   3.959   1.890   8.872  0.1684  0.5950 -0.7014
 3782SOL    HW111345   3.957   1.823   8.940 -3.1162  0.3920 -0.8568
 3782SOL    HW211346   3.993   1.845   8.795  0.6526 -0.1106 -0.0898
 3783SOL     OW11347   3.261   0.305   9.825  0.3026 -0.3189  0.6264
 3783SOL    HW111348   3.225   0.320   9.738  1.1475 -0.3046  0.2715
 3783SOL    HW211349   3.244   0.213   9.844  2.3294 -1.0250 -0.6356
 3784SOL     OW11350   1.747   0.705   9.417  0.0368  0.2112 -0.5121
 3784SOL    HW111351   1.723   0.633   9.475 -0.8881 -1.6028 -2.9861
 3784SOL    HW211352   1.787   0.770   9.475  1.6254 -2.5650  1.7625
 3785SOL     OW11353   0.055   1.253  10.291  0.2688  0.4292 -0.0146
 3785SOL    HW111354   0.014   1.168  10.275  0.5227  0.2174  0.4536
 3785SOL    HW211355   0.146   1.241  10.263  0.0986  0.8023 -0.7490
 3786SOL     OW11356   1.554   3.558   9.117  0.1404  0.0392  0.3154
 3786SOL    HW111357   1.606   3.478   9.111 -0.2269 -0.1277 -0.8563
 3786SOL    HW211358   1.586   3.602   9.196 -0.1356 -1.6049  1.3934
 3787SOL     OW11359   0.841   4.350   9.522  1.2420  0.8039 -0.1706
 3787SOL    HW111360   0.885   4.373   9.604  0.8289  2.3949 -0.3587
 3787SOL    HW211361   0.884   4.270   9.493  1.1602  0.0106  1.7696
 3788SOL     OW11362   2.118   0.692   6.287 -0.0778  0.2810 -0.1655
 3788SOL    HW111363   2.147   0.711   6.198  1.1695  0.7592  0.3088
 3788SOL    HW211364   2.191   0.720   6.342 -0.7948 -0.0690  1.0069
 3789SOL     OW11365   0.664   0.480   9.446  0.3561 -0.2818 -0.1277
 3789SOL    HW111366   0.723   0.528   9.505 -0.1977 -0.6892  0.7786
 3789SOL    HW211367   0.601   0.438   9.504 -0.5294 -0.2691 -1.0469
 3790SOL     OW11368   4.121   1.794  10.241 -0.2151  0.3124  0.2131
 3790SOL    HW111369   4.169   1.730  10.293  0.7659  1.3170  0.5861
 3790SOL    HW211370   4.186   1.833  10.183 -1.2270 -0.5613 -1.6068
 3791SOL     OW11371   3.729   1.228   8.959  0.2226 -0.4178  0.6617
 3791SOL    HW111372   3.658   1.290   8.941  1.2639  1.4057  2.4084
 3791SOL    HW211373   3.769   1.212   8.874  1.4681  3.3583  0.3681
 3792SOL     OW11374   3.530   2.409   8.607  0.0203 -0.1336  0.0710
 3792SOL    HW111375   3.528   2.431   8.701  2.5559 -1.1794  0.4345
 3792SOL    HW211376   3.609   2.452   8.575  1.3171 -2.9434 -0.7029
 3793SOL     OW11377   0.575   4.818   9.832  0.7535  0.7079  0.1873
 3793SOL    HW111378   0.644   4.770   9.787  1.4648  2.9239 -1.2343
 3793SOL    HW211379   0.601   4.817   9.925 -0.8620 -4.1263  0.8509
 3794SOL     OW11380   2.213   4.228   9.033 -0.0893  0.0836 -0.2608
 3794SOL    HW111381   2.153   4.298   9.006 -0.3567 -0.5866 -1.4496
 3794SOL    HW211382   2.300   4.269   9.032 -0.2999  0.5301 -0.4641
 3795SOL     OW11383   3.561   0.273   9.782  0.0155 -0.0262  0.6044
 3795SOL    HW111384   3.610   0.355   9.787  0.4868 -0.2203 -0.5633
 3795SOL    HW211385   3.477   0.297   9.743  0.3618 -0.1775 -0.2468
 3796SOL     OW11386   0.787   0.475   9.834 -0.1324  0.0779 -0.0657
 3796SOL    HW111387   0.777   0.524   9.753  2.1988 -1.0529 -1.1494
 3796SOL    HW211388   0.822   0.390   9.806 -0.3722 -0.7672  2.0309
 3797SOL     OW11389   4.896   1.516   9.784 -0.3972 -0.4746  0.7878
 3797SOL    HW111390   4.931   1.585   9.841  2.3500 -0.0344 -1.2241
 3797SOL    HW211391   4.887   1.558   9.698  2.7779 -2.8343 -0.8858
 3798SOL     OW11392   4.005   0.908   8.073 -0.3015  0.3410 -0.2371
 3798SOL    HW111393   4.031   0.860   8.153 -1.7691  1.8055  1.1978
 3798SOL    HW211394   3.924   0.866   8.046  0.1260 -0.0662 -0.9346
 3799SOL     OW11395   0.851   3.623   7.968 -0.1664  0.5040  0.3863
 3799SOL    HW111396   0.819   3.544   7.924  0.1915  0.7441 -0.3104
 3799SOL    HW211397   0.860   3.688   7.898  0.6328  0.8237  0.7781
 3800SOL     OW11398   4.121   2.857   7.017  0.3758 -0.0649 -0.5170
 3800SOL    HW111399   4.200   2.893   7.056  0.6351 -3.2119  2.3680
 3800SOL    HW211400   4.049   2.903   7.061  0.6570  0.0513 -0.1704
 3801SOL     OW11401   3.127   4.495   6.270  0.1048  0.2353 -0.1182
 3801SOL    HW111402   3.083   4.474   6.188 -3.7845  0.4406  1.7137
 3801SOL    HW211403   3.102   4.425   6.330  0.6474  1.4615  1.6116
 3802SOL     OW11404   4.684   4.347   9.947 -0.3833 -0.5918 -0.1386
 3802SOL    HW111405   4.598   4.388   9.942 -0.5444 -0.7398  1.0100
 3802SOL    HW211406   4.707   4.353  10.040  0.6235 -0.9983 -0.3541
 3803SOL     OW11407   4.612   1.947  10.246 -0.6237  0.0301 -0.0325
 3803SOL    HW111408   4.707   1.959  10.236 -0.8026  2.1056  0.3342
 3803SOL    HW211409   4.592   1.984  10.332 -1.5722 -1.9056  0.6406
 3804SOL     OW11410   1.706   1.920   4.647 -0.1648  0.3649  0.8587
 3804SOL    HW111411   1.662   1.840   4.619  4.2393 -2.8229  1.8962
 3804SOL    HW211412   1.798   1.907   4.621  1.9415  2.4374  5.9666
 3805SOL     OW11413   2.349   4.357   5.555  0.2336  0.7258 -0.3871
 3805SOL    HW111414   2.260   4.350   5.588  0.5666  0.9712  0.6128
 3805SOL    HW211415   2.391   4.421   5.613  0.8249  1.2468 -1.3598
 3806SOL     OW11416   2.325   1.958   5.981 -0.5812 -0.4176 -0.4957
 3806SOL    HW111417   2.307   1.922   5.894 -1.8630  0.3801 -0.5800
 3806SOL    HW211418   2.266   2.033   5.989 -0.7682 -0.7133  1.2264
 3807SOL     OW11419   1.023   2.229   5.524  0.3658 -0.3872 -0.3249
 3807SOL    HW111420   1.075   2.261   5.451 -0.0015  1.2541  0.1012
 3807SOL    HW211421   1.036   2.134   5.523 -1.7461 -0.8322 -4.1786
 3808SOL     OW11422   1.523   4.800   6.490  0.0154 -0.5870  0.5943
 3808SOL    HW111423   1.602   4.844   6.462 -0.1094 -0.7113  0.0469
 3808SOL    HW211424   1.554   4.730   6.548  0.2886 -0.5283  0.5198
 3809SOL     OW11425   0.375   1.157   7.443 -0.0021 -0.0107 -0.3988
 3809SOL    HW111426   0.384   1.251   7.459 -0.3890 -0.1134  0.4532
 3809SOL    HW211427   0.305   1.129   7.501  0.2340 -0.8629 -0.5129
 3810SOL     OW11428   3.096   3.801   5.423  0.2773 -0.0548  0.6318
 3810SOL    HW111429   3.070   3.740   5.492  3.2486 -1.3411  0.7545
 3810SOL    HW211430   3.015   3.845   5.399 -0.8983  1.1752  5.5761
 3811SOL     OW11431   0.917   1.561  10.327 -0.2563  0.5774  0.1315
 3811SOL    HW111432   0.835   1.542  10.281  0.3894  0.5635 -1.0426
 3811SOL    HW211433   0.942   1.477  10.366 -0.6497  0.5118  0.2455
 3812SOL     OW11434   4.879   1.345   6.138  0.2296  0.1407  0.5769
 3812SOL    HW111435   4.885   1.441   6.144  0.9467  0.1179  0.2728
 3812SOL    HW211436   4.942   1.313   6.202  2.7302 -0.1003 -1.7862
 3813SOL     OW11437   0.778   0.779   4.807 -0.0437  0.1746  0.0456
 3813SOL    HW111438   0.768   0.686   4.828  0.9388  0.6270  2.9783
 3813SOL    HW211439   0.843   0.780   4.736 -1.2017 -1.3843 -1.1126
 3814SOL     OW11440   4.287   3.431   5.367 -0.5154 -0.2881  0.2549
 3814SOL    HW111441   4.237   3.500   5.323  1.2010  0.9745  0.1472
 3814SOL    HW211442   4.328   3.382   5.295 -2.1371 -1.8055  0.3101
 3815SOL     OW11443   1.249   2.095   8.114  0.2895  0.1322 -0.0291
 3815SOL    HW111444   1.194   2.018   8.127  1.9477 -1.0065  0.5703
 3815SOL    HW211445   1.189   2.162   8.079 -0.2830 -3.0838 -6.7481
 3816SOL     OW11446   0.467   0.067   5.374  0.3124  0.2362 -0.0316
 3816SOL    HW111447   0.480  -0.012   5.426  1.8997  1.0878  0.9386
 3816SOL    HW211448   0.389   0.049   5.322  1.2947 -2.4346 -0.7406
 3817SOL     OW11449   1.892   1.358   6.899 -0.1602  0.1214  0.3685
 3817SOL    HW111450   1.877   1.449   6.875 -0.2894 -0.1662 -0.7139
 3817SOL    HW211451   1.987   1.350   6.905  0.2423 -0.6444 -3.9484
 3818SOL     OW11452   0.625   1.303   6.148  0.4394  0.2474 -0.5124
 3818SOL    HW111453   0.672   1.283   6.067 -2.3785  0.9713 -2.4475
 3818SOL    HW211454   0.547   1.350   6.120 -0.5443  0.7415  2.6804
 3819SOL     OW11455   1.436   0.550   4.659  0.2072  0.4803  0.1281
 3819SOL    HW111456   1.470   0.633   4.694  0.8910  0.3238 -0.1518
 3819SOL    HW211457   1.461   0.485   4.724 -4.6225  1.0271  3.0330
 3820SOL     OW11458   4.609   1.703   6.207 -0.2129 -0.1928 -0.2063
 3820SOL    HW111459   4.521   1.740   6.214 -0.2115 -0.2352  0.0163
 3820SOL    HW211460   4.663   1.776   6.176  0.8193  1.5234  4.7789
 3821SOL     OW11461   2.171   4.724   8.506 -0.0342 -0.9064  0.4916
 3821SOL    HW111462   2.170   4.755   8.416 -0.0512 -2.5997 -0.1134
 3821SOL    HW211463   2.086   4.750   8.541 -0.4623 -1.1961 -0.3129
 3822SOL     OW11464   0.349   4.005   5.466 -0.3946  0.1836 -0.1972
 3822SOL    HW111465   0.405   4.031   5.393 -2.1775  0.2737 -1.6248
 3822SOL    HW211466   0.273   4.064   5.460 -0.9002 -0.2596  1.3272
 3823SOL     OW11467   4.590   3.405   8.558 -0.4156 -0.4268  0.4433
 3823SOL    HW111468   4.669   3.457   8.572 -0.7296 -0.3996  2.3953
 3823SOL    HW211469   4.617   3.335   8.499 -0.0439  1.9795 -2.5630
 3824SOL     OW11470   3.607   2.444   5.677  0.2893  0.2529  0.0537
 3824SOL    HW111471   3.581   2.509   5.742  0.1624 -1.2095  1.5144
 3824SOL    HW211472   3.545   2.372   5.688  0.2662 -0.0469 -1.7004
 3825SOL     OW11473   2.782   2.537   6.528 -0.3861 -0.4594 -0.3004
 3825SOL    HW111474   2.859   2.543   6.586 -0.3494  0.2880 -0.4116
 3825SOL    HW211475   2.812   2.575   6.446 -0.9028 -0.0765 -0.3160
 3826SOL     OW11476   2.623   3.153   4.961  0.1797  0.1029 -0.7574
 3826SOL    HW111477   2.565   3.227   4.943 -2.0208 -1.8688 -2.4813
 3826SOL    HW211478   2.649   3.164   5.052 -0.2923  2.8017 -0.8813
 3827SOL     OW11479   0.592   2.641   6.799 -0.0154 -0.6506  0.9884
 3827SOL    HW111480   0.531   2.715   6.800 -0.1947 -0.7610 -0.2750
 3827SOL    HW211481   0.627   2.638   6.888  0.9351  1.7272  0.7733
 3828SOL     OW11482   1.216   1.660   5.225 -0.6683 -0.0173  0.2945
 3828SOL    HW111483   1.194   1.752   5.213 -0.1424 -0.0099 -0.7779
 3828SOL    HW211484   1.223   1.625   5.136 -0.7177 -1.0602  0.6839
 3829SOL     OW11485   0.266   4.858   7.462 -0.7042 -0.2235  0.1928
 3829SOL    HW111486   0.285   4.825   7.550 -1.6246 -2.0865 -0.2510
 3829SOL    HW211487   0.172   4.878   7.465 -0.0557  3.5056  0.7266
 3830SOL     OW11488   0.332   0.848   6.451 -0.4576  0.4519  0.4615
 3830SOL    HW111489   0.402   0.849   6.386 -1.5949 -1.1559 -0.8802
 3830SOL    HW211490   0.378   0.844   6.535  1.0416  2.2952 -0.2087
 3831SOL     OW11491   4.388   0.225   5.452  0.5666 -0.2282  0.0198
 3831SOL    HW111492   4.446   0.194   5.522 -0.0961 -0.3672  0.5155
 3831SOL    HW211493   4.446   0.271   5.391  1.5470 -2.2577 -0.6456
 3832SOL     OW11494   4.609   4.566   6.023  0.0787 -0.3386 -0.1808
 3832SOL    HW111495   4.694   4.551   6.065  0.4959  2.6357  0.2350
 3832SOL    HW211496   4.604   4.497   5.956  2.4224 -1.1256  0.3274
 3833SOL     OW11497   1.464   1.296   6.668  0.8467 -0.0458 -0.9360
 3833SOL    HW111498   1.470   1.204   6.642 -1.0413 -0.4835  0.0216
 3833SOL    HW211499   1.529   1.305   6.738  0.0345 -1.0570 -0.0236
 3834SOL     OW11500   0.500   1.605   7.160  0.0217  0.3600  0.1009
 3834SOL    HW111501   0.444   1.583   7.086  1.0627  0.8439 -0.8496
 3834SOL    HW211502   0.443   1.595   7.237 -1.3363  0.7712 -0.8195
 3835SOL     OW11503   1.479   1.466   6.484  0.1677 -0.0492 -0.2024
 3835SOL    HW111504   1.563   1.501   6.514 -1.9961  3.6962  2.3264
 3835SOL    HW211505   1.460   1.394   6.545  0.7438  0.2905  0.3926
 3836SOL     OW11506   2.747   4.647   5.655  0.4216 -0.1626  0.5563
 3836SOL    HW111507   2.794   4.611   5.579 -1.7387 -0.0221 -0.9549
 3836SOL    HW211508   2.680   4.704   5.617 -0.0588  0.7848  2.6575
 3837SOL     OW11509   0.748   4.661   4.886  0.1647 -0.1446 -0.0756
 3837SOL    HW111510   0.724   4.575   4.850 -0.2296 -0.2167  0.3472
 3837SOL    HW211511   0.684   4.721   4.849 -0.1836 -0.2039  0.4300
 3838SOL     OW11512   2.202   4.110   4.573  0.0305 -0.6876 -0.4729
 3838SOL    HW111513   2.280   4.062   4.545 -0.4310 -0.7369 -1.7654
 3838SOL    HW211514   2.130   4.049   4.557 -0.1494 -1.5132  2.8134
 3839SOL     OW11515   0.614   2.836   5.032 -0.4988  0.0553  1.1958
 3839SOL    HW111516   0.703   2.810   5.057 -0.6511 -2.9474 -0.8942
 3839SOL    HW211517   0.617   2.932   5.029  2.3937  0.0809  2.0636
 3840SOL     OW11518   4.533   4.539   7.297 -0.1146 -0.1077 -0.4336
 3840SOL    HW111519   4.499   4.628   7.293  1.7195  0.6015 -1.6222
 3840SOL    HW211520   4.469   4.491   7.349 -0.9962  1.9690  0.5059
 3841SOL     OW11521   0.301   0.134   6.336  0.3830  0.5368 -0.2469
 3841SOL    HW111522   0.250   0.110   6.414  0.4197  0.4638 -0.2460
 3841SOL    HW211523   0.318   0.051   6.291  1.0608  0.4821  0.0967
 3842SOL     OW11524   0.365   0.778   5.685 -0.7703  0.7623  0.0401
 3842SOL    HW111525   0.275   0.759   5.656 -1.1185  0.4978  1.2108
 3842SOL    HW211526   0.409   0.693   5.682 -0.9997  0.5992  0.8627
 3843SOL     OW11527   4.311   3.787   7.050 -0.2446  0.8955 -0.2520
 3843SOL    HW111528   4.221   3.756   7.041  0.0172 -0.7355  1.8796
 3843SOL    HW211529   4.353   3.767   6.966 -0.9662 -1.6850 -0.0798
 3844SOL     OW11530   1.747   1.348   6.507 -0.4273  0.7390  0.1322
 3844SOL    HW111531   1.805   1.279   6.540  1.1548  1.4094 -1.1087
 3844SOL    HW211532   1.806   1.421   6.488 -1.2634  0.6696 -3.3655
 3845SOL     OW11533   3.437   2.936   6.308  0.3688  0.3554 -0.5364
 3845SOL    HW111534   3.352   2.971   6.335  0.5778 -0.1008  0.8203
 3845SOL    HW211535   3.491   2.940   6.388  2.0391  1.7898 -1.6661
 3846SOL     OW11536   0.737   0.843   6.761 -0.2661 -0.3840  0.0138
 3846SOL    HW111537   0.693   0.807   6.684  0.5868 -4.2048  1.1242
 3846SOL    HW211538   0.680   0.914   6.791 -1.7953 -0.3116 -2.7380
 3847SOL     OW11539   1.839   3.660   5.174  0.3401  0.2143  0.3703
 3847SOL    HW111540   1.863   3.679   5.083 -1.1493 -1.3651 -0.3940
 3847SOL    HW211541   1.846   3.745   5.218 -1.4282  1.5855 -1.8107
 3848SOL     OW11542   3.773   2.048   6.934  0.4804 -0.5540  0.0144
 3848SOL    HW111543   3.755   2.039   6.840  1.3563  1.4425 -0.4012
 3848SOL    HW211544   3.779   2.143   6.948  1.7858 -0.8525  1.8025
 3849SOL     OW11545   4.621   2.736   6.395 -0.2131  0.0658 -0.1183
 3849SOL    HW111546   4.673   2.776   6.325  0.2275  0.7362  0.5882
 3849SOL    HW211547   4.563   2.675   6.349  0.3586  0.1907 -1.0321
 3850SOL     OW11548   0.423   3.852   5.668 -0.5138 -0.1700  0.1126
 3850SOL    HW111549   0.424   3.896   5.583  2.3983  0.0468  0.1689
 3850SOL    HW211550   0.367   3.907   5.723 -1.4251  0.3598 -1.2848
 3851SOL     OW11551   3.759   3.902   6.534 -0.2214 -0.1812  0.6704
 3851SOL    HW111552   3.820   3.841   6.575 -2.4747 -0.9819  3.1343
 3851SOL    HW211553   3.678   3.852   6.524 -0.9595  1.2506 -1.0373
 3852SOL     OW11554   4.415   1.215   5.934  0.0502 -0.3113 -0.7053
 3852SOL    HW111555   4.352   1.216   5.862 -1.2072 -2.6463  0.2384
 3852SOL    HW211556   4.490   1.166   5.899 -1.3010 -3.0985 -0.0097
 3853SOL     OW11557   1.755   0.864   5.218 -0.3204  0.5263 -0.3185
 3853SOL    HW111558   1.700   0.872   5.140  1.1875  2.3702 -1.2749
 3853SOL    HW211559   1.810   0.942   5.217  1.3399 -0.5336  1.3641
 3854SOL     OW11560   4.307   0.333   7.448 -0.3666  0.1599  0.3302
 3854SOL    HW111561   4.291   0.399   7.515 -3.5426 -0.5991  0.4708
 3854SOL    HW211562   4.320   0.383   7.368 -1.8406  1.0330  0.5915
 3855SOL     OW11563   3.148   1.543   6.466 -0.3210  0.2176  0.0994
 3855SOL    HW111564   3.163   1.637   6.463  3.1348 -0.1845  0.6176
 3855SOL    HW211565   3.169   1.512   6.378 -2.9435 -0.0079 -0.5353
 3856SOL     OW11566   1.828   0.554   4.812  0.2481  0.3077  0.0002
 3856SOL    HW111567   1.806   0.461   4.815 -1.1560  0.6238  1.9143
 3856SOL    HW211568   1.918   0.558   4.845  0.0135 -0.3310  0.7797
 3857SOL     OW11569   3.121   1.115   6.434  0.3062 -0.2967  0.0011
 3857SOL    HW111570   3.195   1.059   6.408  1.0167  1.5357 -2.2309
 3857SOL    HW211571   3.150   1.156   6.516  0.8242 -1.2189  0.3034
 3858SOL     OW11572   3.436   4.280   1.493  0.6874 -0.3289  0.1513
 3858SOL    HW111573   3.360   4.234   1.531  0.2415  0.0067 -0.3207
 3858SOL    HW211574   3.480   4.213   1.441 -0.4305 -0.0379 -1.2103
 3859SOL     OW11575   0.793   3.582   5.067  0.0757  0.5199 -0.0217
 3859SOL    HW111576   0.770   3.611   5.156 -0.7442 -0.4534  0.0996
 3859SOL    HW211577   0.713   3.542   5.033  1.7897 -4.5203  1.0101
 3860SOL     OW11578   4.633   1.898   8.645 -0.6956 -0.8212  0.2237
 3860SOL    HW111579   4.665   1.821   8.597  1.1577  1.0597 -1.8296
 3860SOL    HW211580   4.697   1.967   8.624 -2.2556  1.2860  1.9559
 3861SOL     OW11581   0.950   0.877   6.608 -0.6513  0.1950 -0.6700
 3861SOL    HW111582   0.885   0.885   6.678  1.8137  1.4921  1.6777
 3861SOL    HW211583   0.904   0.830   6.538 -2.7311 -3.1907  2.5719
 3862SOL     OW11584   4.699   2.472   6.529 -0.7696  0.3147 -0.0654
 3862SOL    HW111585   4.665   2.385   6.506  2.4915 -0.3424 -3.4353
 3862SOL    HW211586   4.663   2.530   6.462 -0.7948  1.0245  0.5603
 3863SOL     OW11587   1.733   2.681   6.657  0.5206 -0.0408 -0.1265
 3863SOL    HW111588   1.767   2.758   6.702  1.6619 -0.6365  0.0545
 3863SOL    HW211589   1.680   2.717   6.585 -0.3452  0.9042  0.9487
 3864SOL     OW11590   0.817   1.051   8.571 -0.9549  0.1930 -0.3968
 3864SOL    HW111591   0.777   1.030   8.486  0.3254 -1.8020 -0.5901
 3864SOL    HW211592   0.821   0.967   8.616  2.9716  0.1794 -0.4532
 3865SOL     OW11593   2.596   2.988   4.713 -0.1444 -0.2885 -0.1986
 3865SOL    HW111594   2.653   2.918   4.744 -0.2421 -0.6552 -0.8436
 3865SOL    HW211595   2.587   3.047   4.789  0.6154 -0.5260  0.0794
 3866SOL     OW11596   4.474   0.816   5.052 -0.8107  0.0578  0.1991
 3866SOL    HW111597   4.385   0.850   5.061 -1.1939 -1.0139  0.5956
 3866SOL    HW211598   4.463   0.731   5.009 -0.2036 -1.0660  2.1477
 3867SOL     OW11599   2.386   4.549   7.810  0.1453 -0.0095  0.2668
 3867SOL    HW111600   2.309   4.603   7.796  0.5025  0.6925  0.9334
 3867SOL    HW211601   2.391   4.538   7.905  0.5394 -0.5403  0.1937
 3868SOL     OW11602   3.423   0.588   6.855 -0.3564  0.1420 -0.6902
 3868SOL    HW111603   3.368   0.587   6.776 -2.9863  0.6147  1.0047
 3868SOL    HW211604   3.381   0.653   6.912 -1.1902 -3.1476  2.8250
 3869SOL     OW11605   1.234   1.961   6.481 -0.5010  0.2947 -0.5789
 3869SOL    HW111606   1.243   2.046   6.526  1.7519 -0.4831  0.6354
 3869SOL    HW211607   1.160   1.919   6.523  1.2402 -0.2009  2.2790
 3870SOL     OW11608   3.203   3.398   5.730  0.1819  0.0426  0.4351
 3870SOL    HW111609   3.134   3.416   5.793 -0.0325  1.1607 -0.0865
 3870SOL    HW211610   3.157   3.381   5.648  0.5222  1.1890 -0.0098
 3871SOL     OW11611   3.446   4.603   4.889 -0.1136 -0.2674 -0.0878
 3871SOL    HW111612   3.360   4.561   4.888  0.7095 -2.0833 -0.0093
 3871SOL    HW211613   3.473   4.602   4.797 -0.6753  1.4634 -0.2976
 3872SOL     OW11614   2.584   3.230   6.035  0.3512 -0.3488 -0.4338
 3872SOL    HW111615   2.564   3.201   6.124 -0.7515  0.2107 -0.4846
 3872SOL    HW211616   2.540   3.314   6.027  3.2481  1.3012 -0.3761
 3873SOL     OW11617   1.422   2.562   5.958 -0.5808  0.2054 -0.3951
 3873SOL    HW111618   1.432   2.511   6.039 -0.3942  0.6108 -0.1576
 3873SOL    HW211619   1.462   2.646   5.978 -1.8773  0.8501 -0.3952
 3874SOL     OW11620   3.201   1.570   5.935 -0.1788  0.4350 -0.6259
 3874SOL    HW111621   3.249   1.582   5.853 -1.4844  4.2202 -1.0289
 3874SOL    HW211622   3.109   1.574   5.910 -0.6150  1.2299  0.9584
 3875SOL     OW11623   4.707   4.769   7.562  0.1876  0.4494  0.7502
 3875SOL    HW111624   4.615   4.769   7.590  0.0688  0.8866  0.3824
 3875SOL    HW211625   4.704   4.740   7.471  0.5445 -0.7109  1.0896
 3876SOL     OW11626   1.085   3.087   8.302  0.3456  0.7099  0.4784
 3876SOL    HW111627   1.094   3.018   8.368 -0.8204 -1.4656 -1.4870
 3876SOL    HW211628   1.169   3.133   8.304  0.5114  0.4590  3.1120
 3877SOL     OW11629   4.347   0.527   6.707  0.7211 -0.1229 -0.0130
 3877SOL    HW111630   4.265   0.479   6.716  0.6745  0.1717  1.3321
 3877SOL    HW211631   4.415   0.464   6.729  0.8814 -0.3893 -1.2063
 3878SOL     OW11632   3.633   0.128   6.826 -0.0921  0.8916  0.2589
 3878SOL    HW111633   3.587   0.193   6.879  3.3812  4.1528 -0.2887
 3878SOL    HW211634   3.612   0.151   6.736 -1.1266 -0.7445  0.0339
 3879SOL     OW11635   1.940   4.992   8.473  0.7975 -0.2883  0.4226
 3879SOL    HW111636   1.908   5.037   8.395  0.8596 -1.8740 -0.5603
 3879SOL    HW211637   1.896   4.908   8.472 -0.1288  0.0809  2.7942
 3880SOL     OW11638   0.599   0.250   5.698 -0.0014 -0.1275 -0.0719
 3880SOL    HW111639   0.565   0.332   5.661 -0.3273  0.4807  1.4555
 3880SOL    HW211640   0.540   0.182   5.665  0.8008  0.1063 -2.0735
 3881SOL     OW11641   3.039   1.699   5.593 -0.3292  0.0561 -0.4597
 3881SOL    HW111642   3.003   1.681   5.680  0.0838 -1.7671 -0.6363
 3881SOL    HW211643   2.962   1.700   5.536 -0.4202 -0.6085 -0.3534
 3882SOL     OW11644   1.569   0.047   5.641 -0.3796  0.5068 -0.3399
 3882SOL    HW111645   1.539  -0.030   5.689 -1.8767  0.9778 -0.4615
 3882SOL    HW211646   1.649   0.074   5.686  1.1839 -2.0834 -1.3264
 3883SOL     OW11647   0.603   1.517   5.538  0.6534 -0.4050 -0.7176
 3883SOL    HW111648   0.549   1.474   5.472  1.8761 -0.4763 -1.7009
 3883SOL    HW211649   0.665   1.570   5.488 -2.0015  4.2578  0.3751
 3884SOL     OW11650   4.719   1.120   5.306  0.3767 -0.1276 -0.6512
 3884SOL    HW111651   4.788   1.116   5.373 -0.5837  0.1389  0.3871
 3884SOL    HW211652   4.744   1.053   5.242  2.3352  0.9040 -1.0502
 3885SOL     OW11653   1.532   3.152   8.623  0.3340  0.4896  0.3549
 3885SOL    HW111654   1.510   3.071   8.578 -0.0116  1.0555 -0.5391
 3885SOL    HW211655   1.449   3.183   8.658  0.4301  0.5571  0.5231
 3886SOL     OW11656   2.902   2.204   5.262  0.2977  0.4176  0.6332
 3886SOL    HW111657   2.965   2.253   5.315 -2.1448  1.6079  2.7136
 3886SOL    HW211658   2.818   2.246   5.281 -1.0777 -0.6069 -2.5260
 3887SOL     OW11659   2.020   0.692   5.169 -0.0554  0.5908  0.1945
 3887SOL    HW111660   2.053   0.607   5.140  2.6015  0.9047  1.8665
 3887SOL    HW211661   1.930   0.696   5.138  0.4587 -1.8393 -1.9031
 3888SOL     OW11662   4.863   0.380   6.296  0.2333 -0.3512 -0.0878
 3888SOL    HW111663   4.802   0.450   6.273  2.3729  1.8272  0.4246
 3888SOL    HW211664   4.808   0.312   6.336 -1.8379  1.4679  0.3605
 3889SOL     OW11665   4.935   3.835   5.997  0.2387  0.0804 -0.4376
 3889SOL    HW111666   4.847   3.843   6.033  0.6074  2.1391  0.1274
 3889SOL    HW211667   4.950   3.741   5.991 -2.0285 -0.3202 -0.6652
 3890SOL     OW11668   0.867   0.524   5.295  0.4868  0.2173 -0.3486
 3890SOL    HW111669   0.913   0.495   5.216  1.2991  1.0187 -0.1817
 3890SOL    HW211670   0.864   0.446   5.351  1.5810  0.1268 -0.3993
 3891SOL     OW11671   1.618   3.636   4.647 -0.2513  0.3843 -0.6683
 3891SOL    HW111672   1.678   3.576   4.692 -1.2783 -1.6511 -1.8698
 3891SOL    HW211673   1.534   3.590   4.648 -0.7296  1.1036 -3.0064
 3892SOL     OW11674   0.092   2.132   8.705  1.4867 -0.4364 -0.1468
 3892SOL    HW111675   0.031   2.079   8.654 -0.0866  0.6502  0.5341
 3892SOL    HW211676   0.063   2.123   8.795  3.0167 -0.7430  0.3447
 3893SOL     OW11677   4.603   2.505   6.863  0.0606  0.1846  0.5417
 3893SOL    HW111678   4.603   2.423   6.814 -0.7013  0.9996 -0.8718
 3893SOL    HW211679   4.576   2.480   6.951 -1.9878 -0.8518 -0.3291
 3894SOL     OW11680   4.936   4.908   9.800  0.0710  0.2997 -0.1640
 3894SOL    HW111681   4.945   5.003   9.796  0.4170  0.2365 -1.8977
 3894SOL    HW211682   4.928   4.881   9.708 -2.3147 -1.1409  0.3654
 3895SOL     OW11683   1.870   4.052   6.352  0.2611 -0.3521 -0.1151
 3895SOL    HW111684   1.829   4.138   6.356 -0.2512 -0.5482 -0.9152
 3895SOL    HW211685   1.810   3.998   6.301  0.6268 -1.1622  0.2755
 3896SOL     OW11686   2.881   4.427   9.735  0.2287  0.2574 -0.0945
 3896SOL    HW111687   2.954   4.412   9.796  0.7607  1.0383 -0.5164
 3896SOL    HW211688   2.823   4.486   9.782 -0.7533 -1.2878  0.7050
 3897SOL     OW11689   0.319   0.616   7.893  0.5933 -0.1001  0.5786
 3897SOL    HW111690   0.225   0.604   7.899  0.5447  0.8641  2.4530
 3897SOL    HW211691   0.346   0.559   7.821 -1.4602 -0.0217 -0.3095
 3898SOL     OW11692   0.755   1.499   6.283  0.5727  0.0593  0.0329
 3898SOL    HW111693   0.722   1.568   6.224 -0.2348 -0.4756 -0.1600
 3898SOL    HW211694   0.707   1.421   6.256  2.2584 -0.8471 -0.4823
 3899SOL     OW11695   4.871   4.681   8.651  0.4456  0.4885 -0.1645
 3899SOL    HW111696   4.889   4.622   8.724  0.3090 -1.6906 -1.7885
 3899SOL    HW211697   4.837   4.760   8.692  1.3074 -0.2689  2.1738
 3900SOL     OW11698   3.440   4.210  10.289 -0.3100 -0.4061 -0.5787
 3900SOL    HW111699   3.498   4.164  10.350  0.1036  0.4608 -0.3038
 3900SOL    HW211700   3.370   4.148  10.271 -0.5410 -0.6105  0.9308
 3901SOL     OW11701   0.897   2.524   8.076 -0.0984  0.2111  0.1287
 3901SOL    HW111702   0.961   2.579   8.122 -0.0263  1.5515 -1.4789
 3901SOL    HW211703   0.936   2.437   8.078 -0.4941 -0.0002  3.2638
 3902SOL     OW11704   2.070   2.375   9.721 -0.0019  0.4984  0.4314
 3902SOL    HW111705   2.050   2.308   9.655  3.1910 -1.7254  1.4862
 3902SOL    HW211706   2.150   2.416   9.689  0.5175  0.7204  1.9627
 3903SOL     OW11707   3.566   1.850   8.403  0.3946 -0.0246 -0.2563
 3903SOL    HW111708   3.633   1.835   8.470  0.3809  1.9421  0.2743
 3903SOL    HW211709   3.589   1.935   8.365 -2.0000  0.9198  0.2398
 3904SOL     OW11710   1.193   3.463   8.049 -1.0342 -0.3049  0.5281
 3904SOL    HW111711   1.202   3.469   8.144 -0.1453  1.1200  0.3817
 3904SOL    HW211712   1.185   3.554   8.019  2.5903 -0.3379 -1.0633
 3905SOL     OW11713   2.123   4.945   6.884  0.4471  0.2505  0.5239
 3905SOL    HW111714   2.057   4.883   6.916 -0.2988  1.7896  2.1156
 3905SOL    HW211715   2.073   5.007   6.830  0.9640  0.2085 -0.0054
 3906SOL     OW11716   0.603   4.605   7.472  0.3012  0.2861  0.1333
 3906SOL    HW111717   0.519   4.563   7.490  0.7423 -0.0176  1.6984
 3906SOL    HW211718   0.586   4.666   7.400 -0.9061 -0.8241 -0.5466
 3907SOL     OW11719   0.048   1.902   9.492 -0.5082 -0.4331  0.3775
 3907SOL    HW111720  -0.016   1.958   9.447  0.5024 -0.9959 -1.9478
 3907SOL    HW211721   0.108   1.963   9.534  0.0532  0.2848 -1.3446
 3908SOL     OW11722   2.647   1.970   5.037 -0.2305  0.5655 -0.4686
 3908SOL    HW111723   2.739   1.996   5.028 -0.3065  0.4993 -1.7216
 3908SOL    HW211724   2.602   2.050   5.065  0.1990  0.5982  0.1559
 3909SOL     OW11725   4.342   3.678   9.868  0.4519  0.7229  0.3871
 3909SOL    HW111726   4.344   3.707   9.959  1.9549 -1.5269  1.1478
 3909SOL    HW211727   4.344   3.759   9.817 -2.3018  2.1265  2.2810
 3910SOL     OW11728   0.804   2.142  10.441 -0.1868 -0.0553  0.3007
 3910SOL    HW111729   0.791   2.065  10.496  0.4693  0.4035  1.1239
 3910SOL    HW211730   0.897   2.142  10.421 -0.0568  0.8417  0.8238
 3911SOL     OW11731   4.002   3.535   9.551 -0.3163 -0.2560  0.7069
 3911SOL    HW111732   4.059   3.477   9.602 -0.1540 -0.9477 -0.2234
 3911SOL    HW211733   4.055   3.558   9.474 -1.4105 -1.2130 -0.3656
 3912SOL     OW11734   3.279   0.178   8.127 -0.7571  0.4643 -0.4662
 3912SOL    HW111735   3.331   0.223   8.060 -0.3024 -0.6306 -0.8774
 3912SOL    HW211736   3.344   0.132   8.180 -1.1158  1.3018  0.7309
 3913SOL     OW11737   1.801   3.080   9.445 -0.3857 -0.4011 -0.0122
 3913SOL    HW111738   1.817   2.990   9.416  1.3471 -0.0462 -0.2797
 3913SOL    HW211739   1.869   3.097   9.510 -1.5173  0.2839  1.0225
 3914SOL     OW11740   1.583   2.695   6.400  0.8346 -0.0251 -0.5733
 3914SOL    HW111741   1.571   2.626   6.334  3.0179 -1.8883  0.8053
 3914SOL    HW211742   1.626   2.766   6.353  3.2913 -1.7150 -1.0450
 3915SOL     OW11743   4.286   4.120   9.050 -1.0435  0.3270 -0.7337
 3915SOL    HW111744   4.267   4.182   8.979 -3.6293 -0.3332 -0.7444
 3915SOL    HW211745   4.200   4.103   9.089  0.0885 -0.5975  1.5138
 3916SOL     OW11746   4.917   2.304   9.245  0.4067 -0.3609  0.1499
 3916SOL    HW111747   4.827   2.333   9.235  0.5490  0.5007  1.2038
 3916SOL    HW211748   4.946   2.341   9.328  2.0291  0.1839 -0.5916
 3917SOL     OW11749   3.238   4.796   8.220  0.2235  0.1491 -0.4981
 3917SOL    HW111750   3.160   4.847   8.242  0.7484  1.0334 -0.6163
 3917SOL    HW211751   3.264   4.829   8.134  0.9328  0.1162 -0.2988
 3918SOL     OW11752   2.816   2.217  10.370 -0.3915  0.2177  1.1881
 3918SOL    HW111753   2.794   2.291  10.313 -0.6741 -1.2300 -0.6872
 3918SOL    HW211754   2.905   2.193  10.344 -0.8691 -1.0494  0.6552
 3919SOL     OW11755   1.777   3.390   8.062 -0.5222  0.2633 -0.2257
 3919SOL    HW111756   1.825   3.323   8.013 -2.7060  0.4720 -2.8946
 3919SOL    HW211757   1.774   3.465   8.002 -1.3031  1.4122  1.1980
 3920SOL     OW11758   3.010   4.156   9.197  0.1155 -0.0318 -0.1197
 3920SOL    HW111759   2.976   4.068   9.181  2.5051 -1.2379  0.9143
 3920SOL    HW211760   3.009   4.165   9.293  0.9231  0.6224 -0.1612
 3921SOL     OW11761   0.610   2.444   8.157 -0.2252  0.1338  0.6005
 3921SOL    HW111762   0.622   2.370   8.216  1.0014 -1.6381 -1.6931
 3921SOL    HW211763   0.693   2.491   8.161  1.2617 -1.9737 -2.0987
 3922SOL     OW11764   0.330   4.302   9.394  0.0773 -0.4868 -0.2218
 3922SOL    HW111765   0.304   4.250   9.470  0.3474 -1.1453 -0.5707
 3922SOL    HW211766   0.248   4.323   9.350  0.0209 -1.2994 -0.5110
 3923SOL     OW11767   4.448   1.584   8.848  0.1405 -0.0116  1.0021
 3923SOL    HW111768   4.376   1.533   8.883 -0.6670  0.7053  0.4440
 3923SOL    HW211769   4.417   1.675   8.852  0.0719  0.1374 -1.2822
 3924SOL     OW11770   3.183   1.728   9.967  0.3671 -0.4855  0.4332
 3924SOL    HW111771   3.195   1.799   9.902 -0.5645 -0.4447  0.2965
 3924SOL    HW211772   3.113   1.674   9.930 -0.3639 -0.3106  1.5357
 3925SOL     OW11773   3.193   0.812   8.361 -0.8692  0.2966 -0.4537
 3925SOL    HW111774   3.146   0.870   8.301  1.1514  0.8275 -1.5954
 3925SOL    HW211775   3.219   0.737   8.307 -1.9168 -0.8754  0.5930
 3926SOL     OW11776   3.554   0.941   7.517  0.3103 -0.1830  0.3661
 3926SOL    HW111777   3.561   0.989   7.434  0.0625  0.4684  0.7187
 3926SOL    HW211778   3.505   0.999   7.575  4.2477  1.3892  2.4609
 3927SOL     OW11779   4.053   2.556   7.903  0.3722 -0.1877  0.0652
 3927SOL    HW111780   3.965   2.521   7.895 -0.2373  1.4595 -0.8582
 3927SOL    HW211781   4.059   2.585   7.994  0.0587 -0.5645  0.2065
 3928SOL     OW11782   4.113   3.359   8.363  0.0223 -0.3549  0.9435
 3928SOL    HW111783   4.164   3.438   8.347  0.6001 -0.7908  0.5934
 3928SOL    HW211784   4.045   3.360   8.294 -0.0087 -0.1321  0.9789
 3929SOL     OW11785   2.977   4.676   7.460  0.2321  1.1141  0.8246
 3929SOL    HW111786   2.905   4.689   7.398 -1.5433  0.0249  2.5010
 3929SOL    HW211787   3.026   4.602   7.425 -0.3230  0.9534  0.3648
 3930SOL     OW11788   3.109   1.542   4.744 -0.0695  0.1308  0.5388
 3930SOL    HW111789   3.068   1.541   4.657 -0.4029  1.9415  0.6461
 3930SOL    HW211790   3.094   1.630   4.777  1.1753 -0.1349  1.9198
 3931SOL     OW11791   0.726   2.797   6.473 -0.2851 -0.0670 -0.1720
 3931SOL    HW111792   0.632   2.811   6.461 -0.0231  1.5425 -0.5912
 3931SOL    HW211793   0.767   2.877   6.439  1.2030 -0.4910  0.5311
 3932SOL     OW11794   1.371   2.356   8.967 -0.1513  0.1059 -0.2811
 3932SOL    HW111795   1.357   2.340   9.060 -0.8942  3.0621  0.2316
 3932SOL    HW211796   1.312   2.428   8.946  1.9397  1.3647 -2.3643
 3933SOL     OW11797   4.223   2.707   7.432 -0.0231  0.5436  0.3178
 3933SOL    HW111798   4.147   2.721   7.376  1.9274  2.3721 -2.1164
 3933SOL    HW211799   4.271   2.636   7.390  2.6343  3.3916 -1.9992
 3934SOL     OW11800   3.187   4.160   6.643  0.1500  0.4404 -0.4347
 3934SOL    HW111801   3.179   4.226   6.711 -1.9546  1.4987 -1.6165
 3934SOL    HW211802   3.097   4.135   6.623  0.7900 -0.9595 -1.7779
 3935SOL     OW11803   3.371   2.645   6.382  0.7269 -0.8485 -0.2367
 3935SOL    HW111804   3.398   2.670   6.471  0.7849 -0.7553 -0.2805
 3935SOL    HW211805   3.333   2.725   6.345 -0.9279 -1.3276  0.3167
 3936SOL     OW11806   0.595   3.495   9.566  0.0757 -0.3505  0.4921
 3936SOL    HW111807   0.610   3.579   9.607  0.9617 -1.3387  2.2941
 3936SOL    HW211808   0.673   3.480   9.512  1.0065 -0.9778  1.9447
 3937SOL     OW11809   3.628   3.363   8.566 -0.5677  0.0586 -0.1934
 3937SOL    HW111810   3.648   3.298   8.633 -0.8500 -1.0200 -1.1201
 3937SOL    HW211811   3.712   3.381   8.524 -0.6439 -0.4929 -0.6017
 3938SOL     OW11812   3.574   2.845   7.519 -0.4200 -0.0279  0.0490
 3938SOL    HW111813   3.634   2.773   7.503 -2.0293 -1.4412  0.0825
 3938SOL    HW211814   3.500   2.805   7.565 -1.0408  1.7879  0.7248
 3939SOL     OW11815   4.711   1.889   5.356  0.9821 -0.4150 -0.3692
 3939SOL    HW111816   4.794   1.904   5.401  1.1993 -2.4304 -0.0063
 3939SOL    HW211817   4.701   1.793   5.354 -0.6676 -0.2709 -1.6256
 3940SOL     OW11818   4.486   3.577   7.333  0.2096  0.3896 -0.5261
 3940SOL    HW111819   4.456   3.668   7.333 -2.9278 -0.5343 -0.4961
 3940SOL    HW211820   4.530   3.566   7.248 -2.0627  1.2054 -1.8989
 3941SOL     OW11821   3.769   2.771   7.785  0.7378 -0.0282  0.0588
 3941SOL    HW111822   3.731   2.684   7.794  2.0984 -0.6369  0.2558
 3941SOL    HW211823   3.751   2.813   7.869  1.0016 -0.5231  0.3717
 3942SOL     OW11824   4.505   4.922   5.290  0.5739  0.3592 -0.2150
 3942SOL    HW111825   4.454   4.844   5.310  0.3775  0.2286 -1.1525
 3942SOL    HW211826   4.522   4.963   5.375 -0.7900  0.2226  0.1421
 3943SOL     OW11827   1.070   4.815   9.840 -0.2496 -0.2352  0.2381
 3943SOL    HW111828   0.978   4.790   9.851  0.0360 -0.4376  2.5810
 3943SOL    HW211829   1.112   4.792   9.922  0.9041  4.1622  1.1719
 3944SOL     OW11830   1.256   0.366   9.932  0.3723  0.0149  0.2938
 3944SOL    HW111831   1.314   0.395  10.002  0.1926  0.6646  0.1821
 3944SOL    HW211832   1.279   0.421   9.858 -1.0906  1.0173  0.5459
 3945SOL     OW11833   4.738   4.343   7.114 -0.4678  0.1613  0.0895
 3945SOL    HW111834   4.747   4.300   7.199  0.5554 -0.5620 -0.3586
 3945SOL    HW211835   4.784   4.427   7.124 -0.9676  0.3996  0.4475
 3946SOL     OW11836   4.236   4.358  10.290 -0.0795 -0.4872  0.7515
 3946SOL    HW111837   4.233   4.389  10.200  0.0527 -2.6965 -0.0775
 3946SOL    HW211838   4.321   4.387  10.323 -1.5196  3.5466  1.5228
 3947SOL     OW11839   4.601   0.326   6.741 -0.1922 -0.6307  0.0017
 3947SOL    HW111840   4.629   0.240   6.711  0.8676 -0.5121  0.5963
 3947SOL    HW211841   4.640   0.335   6.828  0.5655  0.8506 -0.4566
 3948SOL     OW11842   1.546   1.264   8.768  0.4491 -0.4029  0.0056
 3948SOL    HW111843   1.620   1.316   8.801 -1.2297  1.5240  0.9439
 3948SOL    HW211844   1.552   1.181   8.815  1.4636  0.0880  0.7963
 3949SOL     OW11845  -0.010   1.442   7.213  0.4233 -0.6816  0.3385
 3949SOL    HW111846   0.034   1.371   7.260  1.2886 -1.6813 -1.8175
 3949SOL    HW211847   0.015   1.521   7.260 -0.8308 -1.7855  3.0144
 3950SOL     OW11848   2.352   3.520   5.497 -0.0654 -0.3136  0.0609
 3950SOL    HW111849   2.416   3.583   5.530 -1.3991  0.3294  1.5638
 3950SOL    HW211850   2.268   3.562   5.512 -0.9309 -1.8976 -0.1895
 3951SOL     OW11851   2.792  -0.011   5.392  0.0287 -0.0585 -0.6268
 3951SOL    HW111852   2.776  -0.056   5.476  2.0183 -0.3784 -0.3758
 3951SOL    HW211853   2.828   0.074   5.416 -1.7977  0.9382 -1.1609
 3952SOL     OW11854   1.771   4.095   5.173  0.2461  0.7795  0.0461
 3952SOL    HW111855   1.739   4.009   5.149 -0.2852  0.5809  1.4225
 3952SOL    HW211856   1.826   4.121   5.098  2.4993 -1.8037  0.6257
 3953SOL     OW11857   2.213   1.816   7.648 -0.4230 -0.0507 -0.1611
 3953SOL    HW111858   2.167   1.740   7.683 -0.6278  0.0906 -0.1243
 3953SOL    HW211859   2.159   1.844   7.574 -0.1732 -0.1421 -0.3778
 3954SOL     OW11860   2.028   4.482   9.025 -0.5001 -0.5243  0.4049
 3954SOL    HW111861   2.001   4.530   9.103 -0.4361 -0.4555  0.3836
 3954SOL    HW211862   2.103   4.530   8.991 -0.7949 -0.2977  0.0523
 3955SOL     OW11863   3.282   2.476   7.448  0.5311  0.4741 -0.0230
 3955SOL    HW111864   3.199   2.523   7.439  0.6257  1.3882  2.8303
 3955SOL    HW211865   3.343   2.525   7.392 -0.2618  1.3993 -0.1148
 3956SOL     OW11866   1.147   3.742   9.014 -0.0245 -0.2830 -0.0267
 3956SOL    HW111867   1.111   3.739   9.102 -0.6420  0.0528 -0.2617
 3956SOL    HW211868   1.084   3.792   8.963 -1.6759 -3.5552 -1.5557
 3957SOL     OW11869   3.022   3.001   9.314  0.0079 -0.4293 -0.6434
 3957SOL    HW111870   2.991   2.965   9.231 -0.3269  0.3424 -0.8622
 3957SOL    HW211871   2.944   3.036   9.356  0.1750 -0.8017  0.0013
 3958SOL     OW11872   3.328   3.838   7.672  0.2399 -0.5652 -0.1582
 3958SOL    HW111873   3.354   3.929   7.684 -1.9834  0.2261 -0.7523
 3958SOL    HW211874   3.387   3.804   7.605 -2.3920  2.2918 -4.4787
 3959SOL     OW11875   0.021   0.442   5.806  0.5194  0.4085 -0.7896
 3959SOL    HW111876   0.073   0.471   5.730 -1.2765  0.8376 -1.9112
 3959SOL    HW211877  -0.057   0.497   5.804  1.4068  2.1430  2.8111
 3960SOL     OW11878   4.444   1.114   6.207 -0.6629  0.3096 -0.0137
 3960SOL    HW111879   4.372   1.175   6.220 -0.4399  0.4441  0.6104
 3960SOL    HW211880   4.488   1.145   6.128 -0.7454  0.7647  0.1204
 3961SOL     OW11881   3.531   0.932   7.050 -0.2091 -0.2980  0.3348
 3961SOL    HW111882   3.621   0.948   7.020  0.5698 -0.8589  2.2749
 3961SOL    HW211883   3.507   0.848   7.010  0.4365 -0.5529  0.4693
 3962SOL     OW11884   4.250   1.446   8.949 -0.3275  0.1764 -0.1106
 3962SOL    HW111885   4.167   1.464   8.994 -0.7764 -0.0519 -0.8276
 3962SOL    HW211886   4.235   1.363   8.903  0.0144  0.5547 -0.9234
 3963SOL     OW11887   1.049   0.463   7.802 -0.3453  0.0123 -0.2161
 3963SOL    HW111888   1.034   0.548   7.761  2.8406 -0.2725 -2.2654
 3963SOL    HW211889   1.052   0.401   7.729 -0.7421 -1.5813  1.0649
 3964SOL     OW11890   0.760   0.159   9.460  0.4765 -0.3808  0.1278
 3964SOL    HW111891   0.697   0.096   9.424  1.0567 -1.1514  0.4440
 3964SOL    HW211892   0.709   0.238   9.473 -0.3571 -0.8922  0.0621
 3965SOL     OW11893   2.179   3.683   8.982  0.3892 -0.0957  0.3756
 3965SOL    HW111894   2.151   3.682   9.074 -0.3864  0.1247  0.1482
 3965SOL    HW211895   2.116   3.740   8.938  1.0561  0.2016 -0.2048
 3966SOL     OW11896   0.175   0.639   8.793 -0.4985 -0.7635  0.3465
 3966SOL    HW111897   0.154   0.710   8.853  0.0862  0.4289 -0.8011
 3966SOL    HW211898   0.115   0.650   8.719  0.1675 -0.9260 -0.2357
 3967SOL     OW11899   3.731   3.967   7.458  0.3986  0.7619  0.5354
 3967SOL    HW111900   3.650   3.939   7.501  0.9871 -1.1400  0.4964
 3967SOL    HW211901   3.763   3.888   7.415  0.2563  2.3552 -2.7975
 3968SOL     OW11902   2.524   3.419   4.940 -0.9204  0.0760  0.3625
 3968SOL    HW111903   2.479   3.465   5.010 -0.3367 -2.1360  2.3078
 3968SOL    HW211904   2.617   3.426   4.962 -0.8549 -3.1820  1.6246
 3969SOL     OW11905   0.642   0.715   9.199  0.2252  0.0935 -0.5190
 3969SOL    HW111906   0.567   0.750   9.248  0.4060  0.0207 -0.1834
 3969SOL    HW211907   0.654   0.627   9.235 -1.7799 -1.3308 -3.0419
 3970SOL     OW11908   3.467   4.933   7.539 -0.5049 -0.3563  0.1513
 3970SOL    HW111909   3.437   4.847   7.570 -0.2103 -1.1529 -1.6444
 3970SOL    HW211910   3.560   4.936   7.562 -0.4441 -0.6616 -0.0394
 3971SOL     OW11911   3.716   0.548   8.267  0.2714  0.6616 -0.1267
 3971SOL    HW111912   3.724   0.458   8.298 -2.5789  0.4159  0.1293
 3971SOL    HW211913   3.787   0.595   8.310  1.3218 -1.2846  0.3581
 3972SOL     OW11914   0.632   0.028   6.062 -0.0244  0.1460  0.1834
 3972SOL    HW111915   0.651   0.022   6.155  3.8249 -3.7992 -0.4985
 3972SOL    HW211916   0.539   0.006   6.055 -1.0291  2.7502  3.0391
 3973SOL     OW11917   1.864   0.846   9.912  0.0684 -0.1073 -1.0669
 3973SOL    HW111918   1.829   0.934   9.893  0.1197 -0.5273 -3.4716
 3973SOL    HW211919   1.934   0.862   9.975 -1.2407  1.3210  0.1114
 3974SOL     OW11920   4.205   3.558   8.930  1.3889  0.8075  1.3013
 3974SOL    HW111921   4.239   3.644   8.953  1.9581  0.0607  3.5050
 3974SOL    HW211922   4.236   3.500   9.000 -0.1093 -0.9215  0.6289
 3975SOL     OW11923   0.138   3.411   7.179  0.4219 -0.2893 -0.0322
 3975SOL    HW111924   0.133   3.485   7.240  0.9086  0.9823 -1.4626
 3975SOL    HW211925   0.058   3.417   7.128 -0.3904 -1.8637  0.9878
 3976SOL     OW11926   0.191   0.241   7.495 -0.1351  0.2274  0.1504
 3976SOL    HW111927   0.216   0.202   7.411 -0.8042  1.5294 -0.6894
 3976SOL    HW211928   0.184   0.167   7.555  2.2711 -0.5524 -0.4093
 3977SOL     OW11929   2.697   0.507   6.439 -0.0285 -0.2677 -0.2039
 3977SOL    HW111930   2.766   0.556   6.484  0.2051 -0.2628 -0.5582
 3977SOL    HW211931   2.632   0.573   6.416 -0.6623 -0.4315  1.0570
 3978SOL     OW11932   4.704   1.332   9.727  0.8741  0.0049 -0.3052
 3978SOL    HW111933   4.734   1.379   9.649  0.9411  3.0239  1.3563
 3978SOL    HW211934   4.777   1.340   9.789  0.5350 -1.6485  0.3708
 3979SOL     OW11935   3.285   3.988   8.715  0.2241  0.1857  0.6101
 3979SOL    HW111936   3.224   4.037   8.660 -0.5469  0.4130  1.6189
 3979SOL    HW211937   3.273   3.897   8.689 -1.1556  0.1353  1.3219
 3980SOL     OW11938   0.729   1.598   7.709 -0.7515  1.3084 -0.2624
 3980SOL    HW111939   0.710   1.676   7.762 -4.8491  2.0580 -2.4276
 3980SOL    HW211940   0.753   1.633   7.623  2.1931  0.0711 -0.0733
 3981SOL     OW11941   3.265   1.580   7.477 -0.2463  0.8696  0.7931
 3981SOL    HW111942   3.346   1.612   7.436 -2.3716  1.1427 -3.8146
 3981SOL    HW211943   3.287   1.491   7.506  1.5984  0.6808 -0.9619
 3982SOL     OW11944   0.255   4.876   6.926 -0.0190 -0.2727  0.3757
 3982SOL    HW111945   0.171   4.919   6.909 -1.5203 -2.5374  1.6007
 3982SOL    HW211946   0.267   4.883   7.021  0.4743 -1.1568  0.3907
 3983SOL     OW11947   0.276   1.181  10.143  0.4916 -0.1846  0.1404
 3983SOL    HW111948   0.222   1.170  10.064 -0.5053 -0.1674  0.8077
 3983SOL    HW211949   0.349   1.121  10.129  0.8811  0.5533 -1.2594
 3984SOL     OW11950   3.972   3.102   4.980 -0.0705 -0.3127  0.4834
 3984SOL    HW111951   3.925   3.156   5.044  0.9184 -0.9618  1.8079
 3984SOL    HW211952   4.017   3.165   4.924  2.0245  0.3754  2.7221
 3985SOL     OW11953   0.226   1.804   8.807  0.5560 -0.5723  0.0585
 3985SOL    HW111954   0.299   1.744   8.794  1.0653 -0.0333  0.3446
 3985SOL    HW211955   0.182   1.808   8.722 -1.0166 -3.2605  0.6368
 3986SOL     OW11956   1.961   1.836   9.105  0.6751 -0.4371 -0.1774
 3986SOL    HW111957   1.893   1.837   9.172  1.9274  1.7428  1.1793
 3986SOL    HW211958   2.014   1.759   9.125 -2.1074 -3.1947 -2.2425
 3987SOL     OW11959   0.819   1.112   7.162  0.5093 -0.4813 -0.2439
 3987SOL    HW111960   0.891   1.054   7.185  0.3508  0.0819  1.8992
 3987SOL    HW211961   0.852   1.163   7.089  2.4200 -0.0800  0.8146
 3988SOL     OW11962   0.377   2.284  10.454 -0.1246  0.1337 -0.1503
 3988SOL    HW111963   0.438   2.302  10.525 -0.5204 -0.1010  0.2523
 3988SOL    HW211964   0.420   2.318  10.376 -0.8432  2.9725  0.5528
 3989SOL     OW11965   0.388   4.761   6.720 -0.1849  0.1814 -0.1108
 3989SOL    HW111966   0.366   4.852   6.741 -0.9267 -0.1386  0.5339
 3989SOL    HW211967   0.437   4.767   6.638  1.4713  1.3546  0.8781
 3990SOL     OW11968   1.273   0.963   8.596  0.1067 -0.4789 -0.0138
 3990SOL    HW111969   1.222   0.980   8.675 -1.5609 -0.7808 -0.9807
 3990SOL    HW211970   1.312   0.877   8.611  0.1905 -0.3344  0.6509
 3991SOL     OW11971   0.881   2.526   8.654 -0.8026  0.2111 -0.3204
 3991SOL    HW111972   0.827   2.452   8.683  1.0623 -0.4208  1.8716
 3991SOL    HW211973   0.865   2.594   8.719 -0.3869  0.7159 -0.7388
 3992SOL     OW11974   0.410   4.177   9.099 -0.1586  0.0380 -0.4163
 3992SOL    HW111975   0.343   4.220   9.046 -2.0764 -1.6691  0.5007
 3992SOL    HW211976   0.394   4.210   9.188  0.3186 -0.2766 -0.2142
 3993SOL     OW11977   2.922   1.124  10.011 -0.2155 -0.2929 -0.3668
 3993SOL    HW111978   3.005   1.131   9.963 -0.1212 -0.2787 -0.2040
 3993SOL    HW211979   2.905   1.213  10.042  0.9770 -0.7103  1.7025
 3994SOL     OW11980   0.712   4.029   7.225 -0.0302 -0.4097  0.0632
 3994SOL    HW111981   0.740   4.058   7.139  1.8919 -1.2728  0.3379
 3994SOL    HW211982   0.675   4.107   7.267  1.9446  0.8453 -0.3997
 3995SOL     OW11983   2.091   0.721   9.432 -0.5732 -0.5834 -0.1513
 3995SOL    HW111984   2.100   0.779   9.357  1.1348  0.4188  0.7517
 3995SOL    HW211985   2.011   0.750   9.476  0.3823  1.3483  0.4259
 3996SOL     OW11986   1.285   2.105   8.375  0.5206  0.3504  0.0382
 3996SOL    HW111987   1.214   2.041   8.381 -0.7770  1.8832  3.3369
 3996SOL    HW211988   1.286   2.130   8.283 -1.9102 -1.1824 -0.5114
 3997SOL     OW11989   0.715   4.512   6.974  0.2843 -0.5524  0.5181
 3997SOL    HW111990   0.702   4.479   6.885  2.5988 -0.9742  0.2669
 3997SOL    HW211991   0.669   4.449   7.030 -0.8626 -0.5005 -0.3375
 3998SOL     OW11992   3.101   4.403   8.419 -0.3823  0.2190 -0.1275
 3998SOL    HW111993   3.055   4.356   8.350 -1.4236  1.5896 -0.4189
 3998SOL    HW211994   3.063   4.491   8.417  4.0576  2.4281 -2.2667
 3999SOL     OW11995   2.992   3.801   7.580 -0.4785 -0.5402 -0.2694
 3999SOL    HW111996   2.961   3.764   7.663 -2.0829  5.2554  2.2201
 3999SOL    HW211997   3.086   3.783   7.580 -1.0446 -4.5178  0.3184
 4000SOL     OW11998   0.792   1.284  10.282 -1.0918  0.5300  0.4376
 4000SOL    HW111999   0.845   1.215  10.241 -0.0034  0.7259  1.4752
 4000SOL    HW212000   0.764   1.247  10.365 -1.3073  0.9853  0.5702
 4001SOL     OW12001   4.341   3.191   7.632  0.0954 -0.0177  0.0092
 4001SOL    HW112002   4.427   3.224   7.658  0.2078 -0.8775  0.7686
 4001SOL    HW212003   4.304   3.260   7.576  0.9565  0.6930  0.3109
 4002SOL     OW12004   3.007   0.036  10.391  0.7676  0.6546  0.6466
 4002SOL    HW112005   3.013   0.126  10.421 -1.4896  0.7108  1.1254
 4002SOL    HW212006   2.967  -0.012  10.464 -1.1980  0.0059 -0.7567
 4003SOL     OW12007   3.021   4.110   9.739  0.0307  0.4118  0.0075
 4003SOL    HW112008   3.071   4.091   9.818  0.9054  2.1292 -0.0904
 4003SOL    HW212009   2.974   4.190   9.759  0.2764  0.8752 -1.2058
 4004SOL     OW12010   2.004   3.942  10.145  0.2620 -0.4960  0.8545
 4004SOL    HW112011   2.069   4.009  10.167  0.7568  0.1637 -2.1934
 4004SOL    HW212012   2.056   3.869  10.110 -0.5013 -0.0037 -1.5129
 4005SOL     OW12013   3.245   3.555   7.758  0.0701 -0.8970 -0.3746
 4005SOL    HW112014   3.269   3.646   7.772 -0.4870 -0.2177 -3.3271
 4005SOL    HW212015   3.249   3.516   7.846  0.7787  1.8086  0.9029
 4006SOL     OW12016   2.058   2.904   9.160  0.0918 -0.1002 -0.8345
 4006SOL    HW112017   2.140   2.954   9.155  0.6784 -1.0113 -0.5626
 4006SOL    HW212018   2.048   2.867   9.073 -0.3144  0.4287 -1.0191
 4007SOL     OW12019   2.807   1.066   7.944  0.5053 -0.0070 -0.4783
 4007SOL    HW112020   2.855   1.079   7.862  0.1028 -2.5311 -1.2003
 4007SOL    HW212021   2.724   1.025   7.917  0.4730 -1.1393  1.1777
 4008SOL     OW12022   1.487   2.631   9.211 -0.6516  0.1494 -0.4919
 4008SOL    HW112023   1.516   2.541   9.223  1.3621  0.6263 -1.3489
 4008SOL    HW212024   1.547   2.668   9.146  0.2980  2.8704  1.7207
 4009SOL     OW12025   1.116   0.258   7.986 -0.0043 -0.0593  0.8310
 4009SOL    HW112026   1.068   0.187   8.029  0.1530  0.3218  1.6690
 4009SOL    HW212027   1.050   0.307   7.937  0.0350 -1.3477 -0.5777
 4010SOL     OW12028   0.421   2.841   6.824  0.5970 -0.0825 -0.0053
 4010SOL    HW112029   0.335   2.804   6.804  0.6828 -0.9443  1.1485
 4010SOL    HW212030   0.424   2.922   6.772 -0.0321 -1.0939 -1.7092
 4011SOL     OW12031   0.754   0.258   8.778 -0.6050 -0.3913 -0.4630
 4011SOL    HW112032   0.828   0.273   8.837 -0.1960 -0.6640 -0.8980
 4011SOL    HW212033   0.698   0.335   8.789 -1.5378 -1.2803  1.7262
 4012SOL     OW12034   2.711   3.150   9.387 -1.3269  0.0827  0.0429
 4012SOL    HW112035   2.758   3.143   9.303 -3.0225 -1.5533 -0.8408
 4012SOL    HW212036   2.741   3.073   9.437 -0.4368  0.9709  0.9201
 4013SOL     OW12037   1.315   3.412   8.314  0.7714  0.1973  0.3764
 4013SOL    HW112038   1.294   3.491   8.364  0.2758  0.1167  0.2991
 4013SOL    HW212039   1.406   3.426   8.285  1.9370 -0.7356  3.1853
 4014SOL     OW12040   1.812   4.120   7.548  0.5258 -0.2762  0.2463
 4014SOL    HW112041   1.731   4.119   7.598 -1.2189 -3.6921 -2.2805
 4014SOL    HW212042   1.879   4.092   7.610 -0.7620 -0.2899  1.6769
 4015SOL     OW12043   3.973   3.339   9.984 -0.1945 -0.0968 -0.1078
 4015SOL    HW112044   3.919   3.405   9.940 -2.0219 -0.7047  1.1070
 4015SOL    HW212045   4.039   3.315   9.919 -1.9642 -0.0173 -2.0238
 4016SOL     OW12046   4.844   1.169   7.778  0.2358  0.7727  0.1447
 4016SOL    HW112047   4.783   1.223   7.728  1.6673  1.6744 -0.6803
 4016SOL    HW212048   4.844   1.085   7.732 -3.2849 -0.7078  2.3887
 4017SOL     OW12049   2.547   2.367   8.716 -0.5408 -0.2598  0.7627
 4017SOL    HW112050   2.504   2.290   8.678 -3.0030  0.7456  1.3066
 4017SOL    HW212051   2.536   2.356   8.810 -1.3883  0.9703  0.8291
 4018SOL     OW12052   3.777   1.705   9.842  0.3208  0.2121  0.3509
 4018SOL    HW112053   3.699   1.733   9.890  0.8012  1.7352  0.2825
 4018SOL    HW212054   3.849   1.713   9.904  0.5028 -0.8807  0.3115
 4019SOL     OW12055   1.013   0.698   8.323 -0.7111  0.1659  0.4605
 4019SOL    HW112056   1.092   0.645   8.317 -0.6525  0.3916 -2.0490
 4019SOL    HW212057   0.942   0.634   8.336 -0.4029 -0.3406 -0.2847
 4020SOL     OW12058   1.824   1.816   8.684  0.0306 -0.3952  0.1711
 4020SOL    HW112059   1.815   1.873   8.608 -0.7269 -1.1601 -0.3377
 4020SOL    HW212060   1.825   1.875   8.759 -1.8611  0.2565 -0.2542
 4021SOL     OW12061   1.324   4.734  10.094 -0.7162  0.3989  0.0801
 4021SOL    HW112062   1.397   4.792  10.114  0.4733 -0.8191 -0.5384
 4021SOL    HW212063   1.323   4.670  10.165 -2.4022  1.4633  1.0879
 4022SOL     OW12064   3.072   0.221   9.000  0.1036  0.0913  0.3122
 4022SOL    HW112065   3.002   0.176   8.952  0.6764  0.2828 -0.7130
 4022SOL    HW212066   3.031   0.302   9.031  0.1654  0.7470 -1.2619
 4023SOL     OW12067   2.946   0.469   9.150 -0.1314 -0.5314 -0.0149
 4023SOL    HW112068   2.922   0.519   9.073 -0.7970  0.4328  0.8087
 4023SOL    HW212069   3.039   0.487   9.162 -0.3790  0.5731  0.3129
 4024SOL     OW12070   5.005   2.694   9.452  0.1088 -0.5142 -0.6342
 4024SOL    HW112071   4.963   2.708   9.368 -0.8424 -1.1109 -0.2733
 4024SOL    HW212072   4.969   2.763   9.508  1.4541  0.4758 -0.9441
 4025SOL     OW12073   3.249   1.152   6.702 -0.1220  0.5174 -0.2648
 4025SOL    HW112074   3.289   1.238   6.690  0.2951  0.6013  1.4593
 4025SOL    HW212075   3.204   1.158   6.787  1.7633 -1.6021  0.9789
 4026SOL     OW12076   2.765   1.297   8.701 -0.6015  0.8481  0.0627
 4026SOL    HW112077   2.795   1.244   8.775  1.6402  2.3444  0.3278
 4026SOL    HW212078   2.797   1.250   8.624 -2.2759 -0.3063  0.0073
 4027SOL     OW12079   0.704   2.790   8.148 -0.8110  0.2026 -0.6823
 4027SOL    HW112080   0.630   2.770   8.206 -0.1164  1.4531  0.7018
 4027SOL    HW212081   0.680   2.750   8.064 -3.2098  0.8350 -0.3808
 4028SOL     OW12082   2.386   4.610  10.348  0.4747 -0.7231 -0.0132
 4028SOL    HW112083   2.427   4.573  10.270 -0.8817 -0.3383 -0.9389
 4028SOL    HW212084   2.458   4.651  10.396  0.9285  1.9962 -2.7277
 4029SOL     OW12085   1.098   3.466   9.661 -0.2950 -0.2974 -0.5289
 4029SOL    HW112086   1.035   3.526   9.700  0.5967  0.6455 -0.4965
 4029SOL    HW212087   1.068   3.454   9.571 -1.1872 -0.8277 -0.1728
 4030SOL     OW12088   2.766   1.587   8.646  0.4567  0.4828  0.8270
 4030SOL    HW112089   2.755   1.497   8.615  0.1905  0.5072  0.8487
 4030SOL    HW212090   2.858   1.592   8.674  0.8024  0.5473 -0.2427
 4031SOL     OW12091   3.605   0.248   8.749  0.6681  0.1743  0.0384
 4031SOL    HW112092   3.604   0.280   8.839  0.2059  1.7448 -0.4813
 4031SOL    HW212093   3.576   0.157   8.754  0.6765  0.2389  1.4692
 4032SOL     OW12094   1.697   2.893   9.798 -1.0686 -0.8504  0.0781
 4032SOL    HW112095   1.676   2.801   9.780 -1.7774 -0.7503  0.3501
 4032SOL    HW212096   1.779   2.890   9.847 -0.5782 -1.2771 -0.7429
 4033SOL     OW12097   2.591   0.779   9.536 -0.2722 -0.1480 -0.5674
 4033SOL    HW112098   2.542   0.837   9.594  0.3077 -0.2076 -0.0032
 4033SOL    HW212099   2.645   0.838   9.483  1.3328 -0.1743  0.9281
 4034SOL     OW12100   4.194   4.096   8.714 -0.5846 -0.9634  0.0705
 4034SOL    HW112101   4.266   4.158   8.725  0.0201 -1.3564 -1.4578
 4034SOL    HW212102   4.193   4.076   8.620 -1.7031 -2.1448  0.3012
 4035SOL     OW12103   3.858   1.501   9.686  0.4020 -0.6139  0.0777
 4035SOL    HW112104   3.887   1.464   9.769  2.3306 -0.4659 -0.4643
 4035SOL    HW212105   3.851   1.595   9.703  1.4525 -0.4928 -0.0539
 4036SOL     OW12106   4.687   3.046   9.663 -0.6033  0.0975  0.0020
 4036SOL    HW112107   4.709   3.079   9.576 -0.0934  1.4576  0.6128
 4036SOL    HW212108   4.757   3.081   9.720 -0.9216 -0.7714  0.9517
 4037SOL     OW12109   1.879   0.456  10.254  0.0838 -0.4998 -0.0659
 4037SOL    HW112110   1.933   0.534  10.262  1.1672 -1.3661  1.7536
 4037SOL    HW212111   1.938   0.390  10.218 -0.2979 -0.9467  0.1196
 4038SOL     OW12112   4.548   0.354   8.516 -0.2560  0.3741 -0.3268
 4038SOL    HW112113   4.622   0.387   8.567 -2.9053  3.6706  1.7651
 4038SOL    HW212114   4.500   0.298   8.577 -0.8103  0.2965 -0.8264
 4039SOL     OW12115   1.417   0.285   9.689  0.5106  0.4665  0.5468
 4039SOL    HW112116   1.384   0.195   9.695 -0.5809  0.8117 -0.1286
 4039SOL    HW212117   1.512   0.275   9.691  0.4062 -0.5931  1.8370
 4040SOL     OW12118   0.683   3.225   9.033  0.0401  0.2404 -0.3365
 4040SOL    HW112119   0.603   3.175   9.051 -0.0261  0.4239 -0.1199
 4040SOL    HW212120   0.672   3.307   9.082 -0.3041  0.9000 -1.4852
 4041SOL     OW12121   4.687   4.418   8.922  1.0749 -0.2779  0.6893
 4041SOL    HW112122   4.730   4.333   8.932 -1.0134 -1.6686 -1.1189
 4041SOL    HW212123   4.631   4.407   8.845 -1.9732  1.5560  2.4491
 4042SOL     OW12124   4.767   1.101   7.384 -0.5681 -0.0797 -0.3349
 4042SOL    HW112125   4.679   1.089   7.348 -0.5171 -1.9011  0.1053
 4042SOL    HW212126   4.824   1.054   7.324 -0.0587 -0.1235  0.1766
 4043SOL     OW12127   4.745   4.705  10.106 -0.3424  0.2129  0.0552
 4043SOL    HW112128   4.712   4.627  10.150 -0.0938 -1.0165 -1.8029
 4043SOL    HW212129   4.840   4.694  10.107 -0.3494 -0.0222 -1.0763
 4044SOL     OW12130   0.384   1.989   9.199  0.0843 -0.2108 -0.2806
 4044SOL    HW112131   0.358   1.904   9.164  0.7355 -0.3795 -0.3503
 4044SOL    HW212132   0.320   2.006   9.269 -1.8996  0.5989 -2.1536
 4045SOL     OW12133   1.361   2.940   9.924 -0.6930  0.2075 -1.1201
 4045SOL    HW112134   1.434   2.984   9.879 -1.3530 -0.1277 -2.5866
 4045SOL    HW212135   1.319   3.009   9.975  0.6153  0.4073 -0.2637
 4046SOL     OW12136   1.567   3.295   7.788 -0.8000 -0.5310 -0.6761
 4046SOL    HW112137   1.643   3.281   7.843 -0.5404 -0.9122 -1.1237
 4046SOL    HW212138   1.500   3.329   7.847 -0.3361 -0.3487 -0.2495
 4047SOL     OW12139   0.595   4.436   8.730 -0.9162  0.1769  0.4821
 4047SOL    HW112140   0.628   4.518   8.693 -1.4895 -0.0633 -0.6072
 4047SOL    HW212141   0.559   4.389   8.654 -2.6125 -0.1187  1.4310
 4048SOL     OW12142   0.204   3.728   7.634  0.7927 -0.3417  0.5766
 4048SOL    HW112143   0.281   3.693   7.679  1.2684  0.4178  0.3696
 4048SOL    HW212144   0.238   3.760   7.550  0.3021  0.2208  0.5864
 4049SOL     OW12145   4.233   1.956   9.187 -0.1441 -0.2827 -0.0225
 4049SOL    HW112146   4.210   1.935   9.278  0.4230  0.3591  0.2824
 4049SOL    HW212147   4.183   2.035   9.167  1.7726  1.1845  0.6840
 4050SOL     OW12148   4.591   3.153   8.496  0.0895 -0.4901 -0.2392
 4050SOL    HW112149   4.517   3.110   8.539 -0.5973  0.1749 -0.7191
 4050SOL    HW212150   4.569   3.151   8.403 -0.9365  2.5661 -0.1723
 4051SOL     OW12151   1.635   3.867   5.027 -0.2237  1.2212 -0.1514
 4051SOL    HW112152   1.669   3.808   4.959  0.9393  0.9971  0.5975
 4051SOL    HW212153   1.543   3.844   5.035  0.2180 -0.5979  0.2087
 4052SOL     OW12154   1.772   4.487   9.135 -0.3339  0.8089 -0.6781
 4052SOL    HW112155   1.721   4.412   9.164 -1.8531 -0.1107 -4.9372
 4052SOL    HW212156   1.837   4.451   9.076  3.7959  2.2957  2.4823
 4053SOL     OW12157   2.129   0.040   9.211  0.0177  0.6221  0.2598
 4053SOL    HW112158   2.198  -0.027   9.211 -0.8406 -0.4131 -2.8527
 4053SOL    HW212159   2.174   0.121   9.185  0.3975  0.4663  0.4137
 4054SOL     OW12160   0.478   0.771   8.332  0.3276 -0.0033  0.5837
 4054SOL    HW112161   0.433   0.850   8.301  2.7968  2.2758  2.3425
 4054SOL    HW212162   0.502   0.725   8.252 -0.8486  1.2062 -0.5274
 4055SOL     OW12163   2.933   3.566  10.191  0.1216 -0.5381 -0.0160
 4055SOL    HW112164   3.018   3.608  10.176 -0.0782  0.4247  1.3722
 4055SOL    HW212165   2.916   3.518  10.110  0.3776  2.0265 -1.7003
   5.00000   5.00000  15.00000
