Water Slab for Clausius-Clapeyron Phase 1 in water
12165
    1SOL     OW    1   1.273   1.022   5.177  0.8564  0.0904  0.1367
    1SOL    HW1    2   1.178   1.034   5.183  0.8460  0.7317 -1.0720
    1SOL    HW2    3   1.306   1.051   5.263 -0.0452 -0.3279  0.6396
    2SOL     OW    4   3.651   1.674   5.594  0.1116  0.5506 -0.3552
    2SOL    HW1    5   3.586   1.701   5.659 -0.5665 -0.1094 -0.7449
    2SOL    HW2    6   3.721   1.739   5.603 -0.5219  1.1895  0.1761
    3SOL     OW    7   4.777   0.691   6.714  0.2441 -0.1358 -0.2999
    3SOL    HW1    8   4.860   0.717   6.754  0.6970 -1.2340 -0.4973
    3SOL    HW2    9   4.776   0.737   6.630  1.2031 -0.9684 -0.8035
    4SOL     OW   10   2.416   2.174   9.338  0.1344 -0.3466 -0.0739
    4SOL    HW1   11   2.505   2.197   9.367 -0.7660  1.6100  1.3166
    4SOL    HW2   12   2.380   2.122   9.410 -0.7926  1.2846  0.6827
    5SOL     OW   13   1.517   2.263   5.281 -0.1301  0.5391 -0.4998
    5SOL    HW1   14   1.554   2.191   5.333  3.3375  1.3614 -1.5415
    5SOL    HW2   15   1.450   2.221   5.228  0.6986 -1.6326  0.0247
    6SOL     OW   16   4.700   1.869   5.138 -0.0203  0.7356 -0.8945
    6SOL    HW1   17   4.697   1.963   5.119 -3.0391  0.8612 -0.3270
    6SOL    HW2   18   4.612   1.838   5.117  0.3751 -1.6272  0.6078
    7SOL     OW   19   1.836   1.250   5.799 -0.3636 -0.0230 -0.3080
    7SOL    HW1   20   1.800   1.318   5.857 -0.0234 -1.6769  1.9874
    7SOL    HW2   21   1.759   1.207   5.762 -0.5898  0.9298 -0.9804
    8SOL     OW   22   4.962   0.463   8.861  0.1924 -0.4794 -0.2448
    8SOL    HW1   23   5.049   0.461   8.903  0.5940  1.0536 -0.9035
    8SOL    HW2   24   4.901   0.443   8.932  0.9530  0.6044  0.7607
    9SOL     OW   25   3.140   3.689   5.794 -0.3731 -0.0355 -0.4790
    9SOL    HW1   26   3.081   3.716   5.724 -3.8286 -0.2874  2.0523
    9SOL    HW2   27   3.182   3.769   5.824 -3.4449  1.2352  0.8943
   10SOL     OW   28   3.185   1.225   5.437 -0.2649 -0.8502 -0.0148
   10SOL    HW1   29   3.091   1.239   5.446  0.1585  0.7303  4.3181
   10SOL    HW2   30   3.204   1.251   5.346 -3.8386 -0.5042 -0.8274
   11SOL     OW   31   0.081   4.549   7.663 -0.4731 -0.6477  0.1740
   11SOL    HW1   32   0.166   4.509   7.643 -0.4634 -0.2318 -0.6581
   11SOL    HW2   33   0.022   4.474   7.671  0.0631 -0.9672  1.2478
   12SOL     OW   34   3.738   2.479   7.328 -0.5648 -0.3239 -0.1348
   12SOL    HW1   35   3.652   2.435   7.328 -1.7053  1.6276 -2.8124
   12SOL    HW2   36   3.752   2.504   7.237  1.6464  1.7360  0.6677
   13SOL     OW   37   3.894   2.408   5.179 -0.0671  0.0816 -0.2080
   13SOL    HW1   38   3.976   2.428   5.223  0.0705  0.3529 -0.5801
   13SOL    HW2   39   3.890   2.312   5.177  0.7281  0.0465 -1.0634
   14SOL     OW   40   1.207   3.717   6.206  0.1577  0.7569 -0.1523
   14SOL    HW1   41   1.275   3.688   6.146  0.6044  1.0267  0.2193
   14SOL    HW2   42   1.126   3.683   6.169  0.3369  1.5349 -1.3225
   15SOL     OW   43   0.750   4.961   6.285  0.2977  0.7597  0.6080
   15SOL    HW1   44   0.676   4.921   6.240  0.2792  0.3472  0.9995
   15SOL    HW2   45   0.822   4.900   6.272  1.6056  2.7024 -2.7541
   16SOL     OW   46   1.213   1.721   9.284 -0.3959 -0.0797  0.0161
   16SOL    HW1   47   1.182   1.694   9.370 -1.3170 -0.7532 -0.5134
   16SOL    HW2   48   1.301   1.756   9.300 -1.1608  1.2966  1.4576
   17SOL     OW   49   3.083   1.395   8.345 -0.0221 -0.5621 -0.4447
   17SOL    HW1   50   3.152   1.452   8.379 -0.0981  0.2021 -1.5171
   17SOL    HW2   51   3.020   1.389   8.417  0.4950 -0.1524  0.0550
   18SOL     OW   52   1.920   2.891   7.545  0.4024 -0.0856 -0.5137
   18SOL    HW1   53   1.836   2.920   7.509 -1.1280  0.2221  2.8896
   18SOL    HW2   54   1.954   2.830   7.480 -1.0694  1.8564 -3.3016
   19SOL     OW   55   3.299   1.333   5.854  0.4036  0.2817  0.4884
   19SOL    HW1   56   3.285   1.386   5.932 -3.4336  0.3770 -0.1195
   19SOL    HW2   57   3.317   1.396   5.785  1.0896  0.3776  0.7435
   20SOL     OW   58   1.430   2.277   7.468  0.3043 -0.6669  0.0678
   20SOL    HW1   59   1.434   2.373   7.472  1.5253 -0.7310  1.3592
   20SOL    HW2   60   1.347   2.255   7.510  0.4934 -0.1936  0.7090
   21SOL     OW   61   1.460   1.168   6.630 -0.4218 -0.2360  0.2198
   21SOL    HW1   62   1.530   1.170   6.566 -1.2085 -1.1757 -0.6938
   21SOL    HW2   63   1.492   1.110   6.700  0.5013  0.9215  0.7941
   22SOL     OW   64   3.642   1.486   4.647 -0.1155 -0.3951  0.3028
   22SOL    HW1   65   3.557   1.516   4.680 -1.0481  0.4984 -2.5971
   22SOL    HW2   66   3.632   1.391   4.638 -0.6218 -0.3639  0.4955
   23SOL     OW   67   2.223   0.665   8.067  0.5467  0.3135  0.3602
   23SOL    HW1   68   2.274   0.666   7.986  2.2355 -0.4271  1.3749
   23SOL    HW2   69   2.183   0.752   8.072  1.2708  0.7203 -0.7281
   24SOL     OW   70   0.702   4.596   6.782 -0.2685 -0.1626  0.5103
   24SOL    HW1   71   0.646   4.602   6.860 -1.8408  0.1396 -0.6153
   24SOL    HW2   72   0.671   4.518   6.736 -0.4174  0.5353 -0.6095
   25SOL     OW   73   0.582   3.491   6.350  0.6931  0.1618  0.2068
   25SOL    HW1   74   0.669   3.522   6.327  0.6950  0.6075  0.8011
   25SOL    HW2   75   0.593   3.398   6.368  0.5831 -0.3892 -2.1751
   26SOL     OW   76   2.415   0.549   7.461 -0.3149  0.7639  0.4220
   26SOL    HW1   77   2.389   0.585   7.376  1.4212  0.8644 -0.1263
   26SOL    HW2   78   2.472   0.617   7.499 -0.0090  0.1606  1.0642
   27SOL     OW   79   1.483   0.755   6.756  0.7501  0.3571  0.2978
   27SOL    HW1   80   1.538   0.790   6.685  2.1644 -2.7576 -0.3068
   27SOL    HW2   81   1.537   0.764   6.834 -0.3136  2.6222  0.8586
   28SOL     OW   82   3.608   4.826   6.044 -0.5967  0.3093  0.2206
   28SOL    HW1   83   3.578   4.853   6.130 -0.8772 -0.5676  0.4109
   28SOL    HW2   84   3.588   4.732   6.040  0.3523  0.1214 -0.4002
   29SOL     OW   85   0.973   2.704   5.611  0.3331  0.3854  0.2544
   29SOL    HW1   86   0.888   2.738   5.583  0.9302  1.6851 -0.0475
   29SOL    HW2   87   1.035   2.773   5.589  1.5046 -0.6141  0.3115
   30SOL     OW   88   3.270   4.827   6.987  0.0015 -0.0735  0.4132
   30SOL    HW1   89   3.235   4.892   6.926  2.3935  1.3472  0.4381
   30SOL    HW2   90   3.208   4.754   6.983 -1.0914  0.8904 -2.0386
   31SOL     OW   91   3.594   1.228   4.651 -0.1658  0.6628 -0.0717
   31SOL    HW1   92   3.541   1.162   4.607 -0.3004  1.9092 -1.9039
   31SOL    HW2   93   3.617   1.189   4.735 -2.9051 -0.4196  0.2727
   32SOL     OW   94   3.130   4.934   5.602  0.1964 -0.1339  0.0990
   32SOL    HW1   95   3.113   5.028   5.591 -0.5309 -0.4056 -1.3723
   32SOL    HW2   96   3.056   4.892   5.559  0.8643 -1.3973  0.1523
   33SOL     OW   97   3.530   4.180   6.416  0.3781 -0.2811  0.1751
   33SOL    HW1   98   3.611   4.224   6.386  0.7432 -0.6466  0.6208
   33SOL    HW2   99   3.501   4.233   6.490  0.9316 -0.8894  0.8449
   34SOL     OW  100   2.880   1.188   7.680 -0.2892  0.6427 -0.3524
   34SOL    HW1  101   2.968   1.227   7.675  0.1060 -0.2611 -0.7819
   34SOL    HW2  102   2.844   1.221   7.762 -0.1495  2.2446 -0.8920
   35SOL     OW  103   4.539   4.269   5.509 -0.2419  0.5149  0.0985
   35SOL    HW1  104   4.525   4.187   5.463 -0.7967  0.9892 -0.6063
   35SOL    HW2  105   4.514   4.337   5.446 -0.1543  1.2118  0.7901
   36SOL     OW  106   2.350   2.438   5.402  0.4096 -0.3019 -0.2241
   36SOL    HW1  107   2.255   2.428   5.410  0.4497 -2.4065 -1.4569
   36SOL    HW2  108   2.385   2.410   5.487 -0.0560 -0.3791 -0.0591
   37SOL     OW  109   1.849   0.372   7.861  0.4238  0.0195  0.1807
   37SOL    HW1  110   1.936   0.399   7.891  1.0288  0.4002 -1.7269
   37SOL    HW2  111   1.811   0.452   7.823 -0.9402 -0.0513  1.2948
   38SOL     OW  112   0.760   1.288   4.981  0.1329  0.0156  0.3791
   38SOL    HW1  113   0.667   1.269   4.971 -0.1443  0.7281  1.3824
   38SOL    HW2  114   0.787   1.238   5.058  0.1422  1.1532  1.1420
   39SOL     OW  115   2.955   0.254   7.489 -0.2194  0.0289 -0.1369
   39SOL    HW1  116   2.960   0.210   7.404 -1.3594 -0.6648  0.1319
   39SOL    HW2  117   2.861   0.262   7.506 -0.0749  2.4425 -0.0779
   40SOL     OW  118   1.746   4.969   6.805  0.1647 -0.0144  0.2113
   40SOL    HW1  119   1.674   4.978   6.742 -0.1531  0.1114  0.5859
   40SOL    HW2  120   1.825   4.967   6.751 -0.2287 -2.5669 -0.4127
   41SOL     OW  121   4.198   4.976   5.072  0.4667 -0.6328  0.2372
   41SOL    HW1  122   4.126   5.036   5.054  0.5150 -0.3122  1.0872
   41SOL    HW2  123   4.255   4.985   4.996  0.5352  0.4921  0.4000
   42SOL     OW  124   4.012   2.277   6.208  0.5683  0.7097  0.2310
   42SOL    HW1  125   4.007   2.220   6.284  2.3029 -0.4321 -0.4399
   42SOL    HW2  126   4.094   2.251   6.164 -0.1734  1.5786 -1.7923
   43SOL     OW  127   2.985   2.829   5.994  0.1455 -0.3398  0.1511
   43SOL    HW1  128   3.062   2.842   6.049 -0.6293  1.4430  0.8933
   43SOL    HW2  129   3.021   2.806   5.908  1.6726  2.5308 -0.1168
   44SOL     OW  130   1.380   1.602   7.326 -0.5277  0.1906 -0.2089
   44SOL    HW1  131   1.304   1.658   7.309 -0.4862  0.5784  0.8126
   44SOL    HW2  132   1.348   1.536   7.387 -0.1839  0.0167 -0.2151
   45SOL     OW  133   2.144   4.447   5.985  0.3473 -0.4165 -0.0982
   45SOL    HW1  134   2.175   4.393   5.913 -0.0058  0.0718 -0.6248
   45SOL    HW2  135   2.105   4.524   5.943  1.3293  0.5214  0.6445
   46SOL     OW  136   0.041   1.058   6.801 -0.0398 -0.1132 -0.0678
   46SOL    HW1  137   0.133   1.082   6.800  0.2874 -1.3130 -0.7564
   46SOL    HW2  138   0.020   1.037   6.710 -0.1383 -2.8057  0.4662
   47SOL     OW  139   0.493   4.224   5.749  0.0002 -0.3819  0.0047
   47SOL    HW1  140   0.558   4.156   5.731  0.7068  0.5848 -1.2765
   47SOL    HW2  141   0.519   4.259   5.835  0.4010 -0.8386  0.0767
   48SOL     OW  142   1.439   4.676   6.137  0.3356 -0.0886 -0.2233
   48SOL    HW1  143   1.427   4.704   6.228  0.8049  1.3363 -0.5645
   48SOL    HW2  144   1.532   4.690   6.119 -0.1917  2.3162 -1.6876
   49SOL     OW  145   0.556   4.079   6.863  0.1652  0.1095  0.4745
   49SOL    HW1  146   0.600   4.065   6.947  0.1203 -0.8477  0.3546
   49SOL    HW2  147   0.624   4.061   6.797  0.1457  0.6523  0.3008
   50SOL     OW  148   3.098   3.421   5.841 -0.0971 -0.6279  0.0637
   50SOL    HW1  149   3.104   3.509   5.804 -0.7207 -0.6563 -0.1322
   50SOL    HW2  150   3.070   3.435   5.932 -0.7874 -0.6330 -0.1366
   51SOL     OW  151   0.459   4.653   5.869  0.2692  0.3969  0.4571
   51SOL    HW1  152   0.453   4.599   5.790  1.2719  1.3135 -0.2706
   51SOL    HW2  153   0.386   4.624   5.923 -0.4058 -0.2962 -0.7753
   52SOL     OW  154   0.582   0.685   7.805  0.4845  0.7032  0.4893
   52SOL    HW1  155   0.582   0.734   7.723 -0.9338 -1.6119 -1.0057
   52SOL    HW2  156   0.495   0.702   7.842  1.5152  2.6671  2.2109
   53SOL     OW  157   4.074   0.611   7.092 -0.1811  0.7085  0.2257
   53SOL    HW1  158   4.092   0.522   7.120 -0.3883  0.4069 -0.5543
   53SOL    HW2  159   4.154   0.638   7.046 -0.1719  0.8732  0.3377
   54SOL     OW  160   1.779   1.482   6.896 -0.0985  0.2023  0.3559
   54SOL    HW1  161   1.825   1.499   6.978 -0.6663  3.5803  0.0792
   54SOL    HW2  162   1.845   1.496   6.828  0.1783 -1.8777  0.1188
   55SOL     OW  163   0.443   2.569   5.291 -0.2114 -0.0236  0.3120
   55SOL    HW1  164   0.378   2.525   5.346 -1.0273  2.0253  1.0997
   55SOL    HW2  165   0.394   2.638   5.247  1.6288  2.7468  2.2483
   56SOL     OW  166   1.923   3.288   5.393 -0.2618 -0.3387 -0.1378
   56SOL    HW1  167   1.850   3.237   5.429  0.4626 -1.9667 -0.8623
   56SOL    HW2  168   2.001   3.240   5.421  0.3733 -0.8666 -2.6213
   57SOL     OW  169   4.156   1.534   6.256 -0.3971  0.2175 -0.0571
   57SOL    HW1  170   4.134   1.614   6.208 -2.2550 -0.6721 -0.7867
   57SOL    HW2  171   4.240   1.506   6.220 -0.3137  1.1993 -0.6467
   58SOL     OW  172   3.166   2.236   6.287 -0.4825  0.7418 -0.4266
   58SOL    HW1  173   3.210   2.260   6.368 -0.3143  0.3091 -0.3872
   58SOL    HW2  174   3.073   2.239   6.308 -0.4916  1.7066 -0.5216
   59SOL     OW  175   4.193   1.125   6.448  0.5756 -0.2588  0.1096
   59SOL    HW1  176   4.270   1.116   6.504 -0.8361  1.1956  2.4766
   59SOL    HW2  177   4.141   1.047   6.465  0.2199  0.1087  0.7339
   60SOL     OW  178   0.395   0.016   5.437  0.1944 -0.1904  0.0875
   60SOL    HW1  179   0.411   0.056   5.351 -0.6446 -1.7787 -0.8608
   60SOL    HW2  180   0.302  -0.006   5.435  0.5176 -1.6780  0.7703
   61SOL     OW  181   2.182   2.653   6.480 -0.0532 -0.0486 -0.6382
   61SOL    HW1  182   2.147   2.573   6.518  2.6101 -0.7131  0.7055
   61SOL    HW2  183   2.228   2.624   6.402  2.0128 -0.1363  0.5344
   62SOL     OW  184   0.581   2.434   7.226  0.6626  0.0744  0.0260
   62SOL    HW1  185   0.633   2.501   7.270 -0.6376  0.4656  1.0198
   62SOL    HW2  186   0.630   2.413   7.147  2.3980  0.3048  1.0018
   63SOL     OW  187   1.909   0.918   5.094 -0.3197 -0.5290  0.0818
   63SOL    HW1  188   1.968   0.942   5.023 -1.1430  1.9489  0.1462
   63SOL    HW2  189   1.837   0.871   5.051  1.0797 -2.5933 -0.1322
   64SOL     OW  190   4.074   2.797   6.201  0.9354 -0.0722 -0.9777
   64SOL    HW1  191   4.102   2.769   6.289 -1.7079 -2.0736 -0.6439
   64SOL    HW2  192   4.019   2.874   6.217  1.1060  0.0491 -0.9719
   65SOL     OW  193   1.418   2.416   6.118 -0.5635  0.5231 -0.0848
   65SOL    HW1  194   1.436   2.440   6.027 -0.8721  0.2978 -0.2081
   65SOL    HW2  195   1.454   2.488   6.170  0.4956  0.1757 -0.3257
   66SOL     OW  196   0.482   4.263   5.361 -0.7333  0.6094 -0.5240
   66SOL    HW1  197   0.575   4.282   5.371 -0.2971 -1.0170 -1.1018
   66SOL    HW2  198   0.475   4.227   5.272 -1.4448 -1.6269  0.3673
   67SOL     OW  199   1.055   4.858   6.521  0.0408 -0.0850 -0.0756
   67SOL    HW1  200   1.124   4.808   6.565 -0.1850  0.8150  1.3541
   67SOL    HW2  201   0.991   4.875   6.590 -0.1296  1.7385 -0.6501
   68SOL     OW  202   4.842   3.143   5.944 -0.0575  0.3609 -0.6713
   68SOL    HW1  203   4.816   3.234   5.933 -1.5229  0.0760  0.2369
   68SOL    HW2  204   4.792   3.095   5.878 -0.1030  0.0852 -0.4389
   69SOL     OW  205   1.206   2.665   6.204 -0.1760 -0.6789  0.3853
   69SOL    HW1  206   1.296   2.662   6.173 -0.3025 -0.7171  0.0045
   69SOL    HW2  207   1.198   2.750   6.248  0.0804 -0.7323  0.5360
   70SOL     OW  208   2.584   3.480   7.224 -0.1659 -0.1945  0.7384
   70SOL    HW1  209   2.656   3.538   7.247  0.5193 -0.2744 -1.0877
   70SOL    HW2  210   2.523   3.535   7.175 -1.9763  0.1593  3.1894
   71SOL     OW  211   2.241   1.520   7.810 -0.1027  0.3980 -0.4328
   71SOL    HW1  212   2.269   1.447   7.755  0.1416 -0.9738  1.4253
   71SOL    HW2  213   2.294   1.513   7.889 -1.0612  1.7578  0.3746
   72SOL     OW  214   0.692  -0.009   7.964  0.2106  0.5014 -0.0546
   72SOL    HW1  215   0.693   0.079   7.928  1.0270  0.0213 -1.2856
   72SOL    HW2  216   0.762  -0.055   7.917 -1.9058 -1.5603 -1.4211
   73SOL     OW  217   4.738   1.687   6.690 -0.4074  0.3781  0.4050
   73SOL    HW1  218   4.800   1.744   6.735  1.9688 -1.1811 -0.7117
   73SOL    HW2  219   4.723   1.615   6.751  0.9268 -0.5208 -0.2897
   74SOL     OW  220   4.691   1.462   5.384  0.1611  0.1220 -0.0516
   74SOL    HW1  221   4.710   1.509   5.302 -0.5015  1.2351  0.4103
   74SOL    HW2  222   4.600   1.435   5.375 -0.4454  1.6675  0.9484
   75SOL     OW  223   1.877   0.791   5.402  0.1063  0.7761  0.4292
   75SOL    HW1  224   1.799   0.748   5.437 -1.4853  1.8105 -1.6829
   75SOL    HW2  225   1.863   0.794   5.307  3.5792 -0.6796 -0.3175
   76SOL     OW  226   1.292   4.759   5.522 -0.0055 -0.3949  0.1764
   76SOL    HW1  227   1.275   4.761   5.616  0.0612 -2.1555  0.2462
   76SOL    HW2  228   1.303   4.851   5.498 -1.3534  0.1825  1.6346
   77SOL     OW  229   4.972   1.772   5.748 -0.3652 -0.0569 -0.2757
   77SOL    HW1  230   4.897   1.831   5.750  0.8286  1.6608 -2.2237
   77SOL    HW2  231   5.024   1.796   5.825  0.3060  1.8062 -1.2500
   78SOL     OW  232   1.523   0.513   7.620  0.6323  0.4887  0.2937
   78SOL    HW1  233   1.602   0.529   7.671  1.7872 -0.4903 -1.1032
   78SOL    HW2  234   1.461   0.476   7.682  1.0919  1.6748  1.5088
   79SOL     OW  235   0.782   4.851   5.393  0.4857 -0.0550 -0.1538
   79SOL    HW1  236   0.698   4.804   5.392 -1.6261  3.1911  2.4644
   79SOL    HW2  237   0.848   4.782   5.379 -2.4305 -3.2045  0.1840
   80SOL     OW  238   2.011   2.161   8.710  0.8229  0.4017  0.2016
   80SOL    HW1  239   1.925   2.194   8.735  0.5311 -0.6256  0.6094
   80SOL    HW2  240   2.071   2.201   8.773  0.2514 -1.1203  1.8078
   81SOL     OW  241   0.927   2.915   6.167 -0.1565  0.2581 -0.0132
   81SOL    HW1  242   0.955   2.956   6.085  1.6348  0.9518  0.9034
   81SOL    HW2  243   0.936   2.821   6.151 -0.3968  0.3593 -0.7928
   82SOL     OW  244   4.466   0.062   5.711 -0.1662  0.1911 -0.2645
   82SOL    HW1  245   4.478   0.128   5.642 -0.4686  0.1159 -0.3927
   82SOL    HW2  246   4.375   0.033   5.700 -0.6892  1.2044  1.0521
   83SOL     OW  247   2.602   1.083   5.850 -0.1663 -0.4040 -0.2447
   83SOL    HW1  248   2.665   1.077   5.778  0.5744 -0.9743  0.4401
   83SOL    HW2  249   2.653   1.116   5.924 -0.8840  0.0047  0.0783
   84SOL     OW  250   1.139   4.263   5.829  0.6935  0.6010 -0.0683
   84SOL    HW1  251   1.068   4.210   5.793  0.9130 -0.3490  0.8496
   84SOL    HW2  252   1.096   4.323   5.889  0.5557  0.7627 -0.3254
   85SOL     OW  253   1.368   1.001   4.932 -0.7701  0.0552  0.6483
   85SOL    HW1  254   1.326   0.992   5.017 -0.5288 -1.8422  0.6149
   85SOL    HW2  255   1.462   1.006   4.952 -0.7506  0.2018  0.5230
   86SOL     OW  256   1.189   4.695   6.697 -0.2704 -0.3171  0.0771
   86SOL    HW1  257   1.103   4.664   6.726 -0.3953  0.2286  0.3086
   86SOL    HW2  258   1.240   4.616   6.684 -1.7014 -0.8516 -3.0128
   87SOL     OW  259   2.511   4.125   5.050  0.7811  0.2052  0.2429
   87SOL    HW1  260   2.418   4.127   5.072  0.7997  0.8195  0.2674
   87SOL    HW2  261   2.520   4.048   4.993  0.5079 -0.6486  1.3148
   88SOL     OW  262   0.761   1.660   5.985  0.2194  0.5448  0.7236
   88SOL    HW1  263   0.682   1.622   6.022 -0.7229  0.9663 -0.7738
   88SOL    HW2  264   0.762   1.630   5.894  0.9129  1.8428  0.2767
   89SOL     OW  265   0.725   1.069   5.201 -0.0336 -0.0573  0.0592
   89SOL    HW1  266   0.665   1.000   5.174 -0.3332  0.6040 -1.0242
   89SOL    HW2  267   0.670   1.135   5.242  0.0768  0.1301 -0.0926
   90SOL     OW  268   1.955   3.459   6.693 -0.4960 -0.4822  0.1854
   90SOL    HW1  269   1.891   3.389   6.688 -0.5521 -0.8387  3.4127
   90SOL    HW2  270   2.036   3.416   6.719 -0.6011  0.5557  2.5108
   91SOL     OW  271   0.530   1.879   6.998  0.2412 -0.3401  0.3245
   91SOL    HW1  272   0.608   1.829   6.976 -0.0491 -0.6567 -0.0014
   91SOL    HW2  273   0.563   1.956   7.044  0.7827 -0.2177 -0.2555
   92SOL     OW  274  -0.009   1.299   4.755 -0.3205  0.8992 -0.1816
   92SOL    HW1  275  -0.023   1.370   4.817  0.5684  2.8951 -2.1410
   92SOL    HW2  276   0.044   1.338   4.685 -0.0045 -1.6305 -1.4705
   93SOL     OW  277   4.799   1.323   5.004  0.6745 -0.3724 -0.3593
   93SOL    HW1  278   4.756   1.247   5.043  0.5323 -0.8355 -1.3704
   93SOL    HW2  279   4.869   1.285   4.951 -0.0829  0.1012 -1.7575
   94SOL     OW  280   1.813   1.418   6.029  0.1399 -0.4018 -0.2120
   94SOL    HW1  281   1.895   1.467   6.022  0.2066 -0.1771  1.5652
   94SOL    HW2  282   1.838   1.335   6.070 -0.4482 -0.5100 -0.0584
   95SOL     OW  283   0.398   0.955   7.735  0.7226  0.0769  0.4639
   95SOL    HW1  284   0.437   1.003   7.662  0.1042  1.3631  0.9548
   95SOL    HW2  285   0.305   0.951   7.713  0.7278 -0.6662  0.5671
   96SOL     OW  286   1.566   3.203   7.099  0.5632  0.3179 -0.2916
   96SOL    HW1  287   1.538   3.233   7.013  1.1326  1.3631 -0.1414
   96SOL    HW2  288   1.649   3.249   7.114  0.3383  0.3661  0.9141
   97SOL     OW  289   4.944   2.912   4.713 -0.1229  0.2983  0.2428
   97SOL    HW1  290   4.961   2.818   4.724  0.3132  0.4568  1.0307
   97SOL    HW2  291   4.862   2.916   4.664 -0.5874 -0.5006  0.9324
   98SOL     OW  292   0.998   0.926   7.233  0.1288  0.5314 -0.4944
   98SOL    HW1  293   1.013   1.020   7.231  1.2520  0.4996  2.1545
   98SOL    HW2  294   0.906   0.917   7.257  0.4130  1.0228  0.8790
   99SOL     OW  295   0.786   1.594   8.740  0.3140  0.1450  0.0893
   99SOL    HW1  296   0.814   1.603   8.649  0.8599 -1.4068  0.0690
   99SOL    HW2  297   0.697   1.627   8.741  0.3076  0.1975 -1.0192
  100SOL     OW  298   4.675   0.129   9.399  0.3320  0.3420  0.6094
  100SOL    HW1  299   4.685   0.046   9.447 -1.6658 -0.2226  0.1559
  100SOL    HW2  300   4.720   0.114   9.316 -2.9742 -1.7681 -1.0400
  101SOL     OW  301   4.062   1.503   5.275  0.5368 -0.1024  0.4171
  101SOL    HW1  302   3.989   1.441   5.272 -0.1944  0.6776  1.4133
  101SOL    HW2  303   4.020   1.589   5.273  1.5531  0.4165 -1.6612
  102SOL     OW  304   1.795   0.062   7.462  0.2259 -0.4175  0.3983
  102SOL    HW1  305   1.751   0.052   7.377  0.2413  0.3849  0.2913
  102SOL    HW2  306   1.871   0.003   7.456  0.3211 -0.2457 -0.2116
  103SOL     OW  307   3.355   4.615   7.366 -0.8235  0.7483  0.1839
  103SOL    HW1  308   3.370   4.704   7.337 -0.6494  1.6380  2.7259
  103SOL    HW2  309   3.337   4.566   7.286  0.1502  2.8107 -1.3974
  104SOL     OW  310   3.251   2.501   7.194 -0.2861 -0.0563 -0.3312
  104SOL    HW1  311   3.218   2.415   7.219  0.9438 -0.6650 -0.7001
  104SOL    HW2  312   3.190   2.563   7.233 -0.4510 -1.0691  1.0894
  105SOL     OW  313   2.494   1.574   5.026  0.8707 -0.1573  0.1603
  105SOL    HW1  314   2.475   1.480   5.020 -0.7595  0.2198 -1.3405
  105SOL    HW2  315   2.580   1.578   5.068  1.3835 -2.3516 -0.5325
  106SOL     OW  316   2.235   1.439   6.683  0.3243  0.3736  0.3967
  106SOL    HW1  317   2.232   1.357   6.633 -1.6699 -1.2645  2.9217
  106SOL    HW2  318   2.324   1.472   6.670  1.5618 -2.7265  0.0359
  107SOL     OW  319   3.807   0.142   7.528  0.3045 -0.9912 -0.1405
  107SOL    HW1  320   3.720   0.141   7.487  0.2755  1.4670 -0.2894
  107SOL    HW2  321   3.839   0.053   7.518 -1.7045 -1.6621 -1.1696
  108SOL     OW  322   3.125   3.709   5.300  0.6063  0.6973 -0.5986
  108SOL    HW1  323   3.217   3.689   5.319 -0.0280 -1.4203  0.6031
  108SOL    HW2  324   3.085   3.722   5.387 -0.7550 -1.1833 -0.8814
  109SOL     OW  325   2.038   0.564   5.952 -0.1096 -0.2238  0.2341
  109SOL    HW1  326   1.943   0.554   5.939 -0.1932  0.8525 -0.0559
  109SOL    HW2  327   2.074   0.567   5.864  0.1509 -0.2273  0.3419
  110SOL     OW  328   0.187   1.713   6.794 -0.5256 -0.1811  0.3628
  110SOL    HW1  329   0.112   1.706   6.852 -0.5826  1.3685  0.4983
  110SOL    HW2  330   0.155   1.760   6.718  0.5404  1.4529  0.8811
  111SOL     OW  331   1.671   2.888   6.773 -0.0367 -0.0661  0.5065
  111SOL    HW1  332   1.658   2.909   6.681  0.2003 -0.0736  0.4712
  111SOL    HW2  333   1.723   2.962   6.807  3.5445 -1.9605 -0.3144
  112SOL     OW  334   0.460   2.317   6.768  0.3510  0.1324 -0.0751
  112SOL    HW1  335   0.392   2.365   6.722 -0.7987 -1.0016  0.3824
  112SOL    HW2  336   0.420   2.232   6.788 -0.0355  1.1382  4.7031
  113SOL     OW  337   2.457   0.138   6.000 -0.2713 -0.1104  0.4213
  113SOL    HW1  338   2.478   0.055   5.957 -0.5885 -0.1031  0.2474
  113SOL    HW2  339   2.393   0.179   5.942  2.5905  2.0048 -1.5340
  114SOL     OW  340   4.754   1.147   6.187 -0.5472  0.3629 -0.4916
  114SOL    HW1  341   4.666   1.163   6.220 -1.0036  0.0187 -1.5166
  114SOL    HW2  342   4.742   1.090   6.111  0.6581 -0.8324  0.1674
  115SOL     OW  343   1.739   2.572   5.799 -0.4157  0.5810 -1.1112
  115SOL    HW1  344   1.740   2.666   5.784 -0.8742  0.6227 -0.8978
  115SOL    HW2  345   1.735   2.563   5.894 -3.5689  0.4018 -1.1821
  116SOL     OW  346   1.512   2.298   7.098 -0.5016 -0.7191  0.1646
  116SOL    HW1  347   1.563   2.375   7.073 -3.0400  1.0391  0.0667
  116SOL    HW2  348   1.526   2.237   7.025  0.0713  0.3942 -0.7077
  117SOL     OW  349   1.824   1.169   6.180 -0.0606  0.5644 -0.5468
  117SOL    HW1  350   1.733   1.188   6.159 -0.1418 -0.5247 -1.2506
  117SOL    HW2  351   1.822   1.134   6.270 -0.3643  0.3639 -0.6311
  118SOL     OW  352   4.093   0.250   5.386  0.8488  0.1302 -0.0350
  118SOL    HW1  353   4.019   0.190   5.371  0.3104  0.5944  0.7057
  118SOL    HW2  354   4.166   0.192   5.407  0.4498 -0.2987  0.2142
  119SOL     OW  355   0.944   4.677   5.083  0.3749 -0.3521  0.4136
  119SOL    HW1  356   0.982   4.714   5.162  0.4897 -0.9857  0.6618
  119SOL    HW2  357   1.019   4.645   5.032  0.4326  1.3372 -0.6442
  120SOL     OW  358   0.631   2.428   6.948  0.0110 -0.1554 -0.1827
  120SOL    HW1  359   0.581   2.376   6.886 -0.5653  0.8742 -0.6003
  120SOL    HW2  360   0.714   2.447   6.903  0.0172 -0.2916 -0.2275
  121SOL     OW  361   0.850   2.541   6.827  0.5000 -0.3786 -0.0663
  121SOL    HW1  362   0.929   2.516   6.779  0.1102  0.3180 -1.1135
  121SOL    HW2  363   0.822   2.623   6.786  0.3635  0.4715  1.6307
  122SOL     OW  364   1.444   1.133   5.345 -0.4123 -0.1972  0.3106
  122SOL    HW1  365   1.528   1.102   5.311 -0.6616 -0.9621  0.3717
  122SOL    HW2  366   1.452   1.228   5.346  0.1344 -0.2249 -0.4966
  123SOL     OW  367   1.905   1.020   6.398  0.3416  0.1467  0.4877
  123SOL    HW1  368   2.000   1.008   6.394  0.2348 -0.5920 -2.6165
  123SOL    HW2  369   1.870   0.931   6.410  0.0142  0.3150  0.8117
  124SOL     OW  370   0.230   1.152   8.349  0.4502 -0.3074  0.8436
  124SOL    HW1  371   0.201   1.061   8.358 -0.8607 -0.2774 -2.0217
  124SOL    HW2  372   0.311   1.146   8.298  0.2763  0.1388  0.5133
  125SOL     OW  373   4.608   2.767   5.867  0.2785 -0.2768  0.2832
  125SOL    HW1  374   4.679   2.715   5.831 -0.2457 -1.3791  0.7985
  125SOL    HW2  375   4.625   2.770   5.961 -1.0605 -1.7613  0.6288
  126SOL     OW  376   1.169   0.836   8.592 -0.4382  0.2330 -0.2159
  126SOL    HW1  377   1.117   0.870   8.519  0.3972  1.0937 -0.4224
  126SOL    HW2  378   1.229   0.773   8.551 -1.4869 -0.9941  0.0650
  127SOL     OW  379   1.756   0.590   8.273 -0.0792 -0.0072 -0.5691
  127SOL    HW1  380   1.747   0.683   8.252  0.8209  0.0290 -0.8264
  127SOL    HW2  381   1.671   0.552   8.251 -0.8742  0.9533  0.6797
  128SOL     OW  382   0.570   4.984   5.186 -0.3915 -0.3881  0.5993
  128SOL    HW1  383   0.490   5.023   5.150  0.9294 -0.1063 -2.2882
  128SOL    HW2  384   0.603   4.929   5.115  2.1973 -0.1415  1.5323
  129SOL     OW  385   0.428   2.749   5.606  0.4001 -0.0532  0.2022
  129SOL    HW1  386   0.408   2.782   5.694 -0.2513  2.4300 -0.7928
  129SOL    HW2  387   0.343   2.727   5.569  0.6414 -0.7537  0.0590
  130SOL     OW  388   1.671   3.153   4.949  0.3876  0.0719  0.2583
  130SOL    HW1  389   1.670   3.102   5.030  0.3222  1.1001  0.9252
  130SOL    HW2  390   1.720   3.232   4.971  1.3752 -0.1441 -1.0476
  131SOL     OW  391   1.850   3.842   7.953 -0.0017 -0.4011 -0.1792
  131SOL    HW1  392   1.943   3.862   7.937  0.4875 -1.9377  0.5979
  131SOL    HW2  393   1.810   3.928   7.965  1.6465  0.2494  1.1130
  132SOL     OW  394   0.814   0.845   7.902  0.0945  0.2780  0.6007
  132SOL    HW1  395   0.796   0.869   7.993 -0.3894  0.1845  0.5288
  132SOL    HW2  396   0.731   0.811   7.868  0.0496  1.0754 -0.1228
  133SOL     OW  397   0.746   0.238   7.045  0.4673 -0.0301  0.3284
  133SOL    HW1  398   0.771   0.330   7.040  1.2012 -0.2566 -0.3560
  133SOL    HW2  399   0.674   0.229   6.982  1.7583 -0.3366 -1.1704
  134SOL     OW  400   1.220   2.458   7.302 -0.2050 -0.1829  0.2807
  134SOL    HW1  401   1.313   2.433   7.304 -0.2605 -0.4006  0.2132
  134SOL    HW2  402   1.176   2.387   7.349 -0.4806 -0.7252 -0.7643
  135SOL     OW  403   3.176   1.230   7.955  0.3993  0.4214 -0.0050
  135SOL    HW1  404   3.234   1.265   7.888  0.1410 -0.0492 -0.4833
  135SOL    HW2  405   3.132   1.307   7.993  0.6657  0.6982 -0.2606
  136SOL     OW  406   2.202   3.149   5.862 -0.5612 -0.4021 -0.4063
  136SOL    HW1  407   2.185   3.221   5.801 -1.2305 -0.8515 -0.7640
  136SOL    HW2  408   2.288   3.117   5.837 -0.1501  0.4149 -0.0933
  137SOL     OW  409   0.556   1.248   5.349 -0.3290  0.6376 -0.2110
  137SOL    HW1  410   0.527   1.327   5.396 -0.0141  1.0864 -0.7556
  137SOL    HW2  411   0.586   1.189   5.418  0.7040  1.5263  0.1256
  138SOL     OW  412   0.764   4.705   7.697  0.1520 -0.4391  0.0367
  138SOL    HW1  413   0.773   4.612   7.675  0.0145 -0.6054  0.6477
  138SOL    HW2  414   0.676   4.713   7.733 -0.1121  0.0801 -0.7016
  139SOL     OW  415   4.962   0.992   5.037 -0.0746 -0.0334  0.1157
  139SOL    HW1  416   5.028   1.045   5.081  0.5069  0.7672 -1.6545
  139SOL    HW2  417   4.986   0.995   4.944 -1.0177 -1.9947 -0.2454
  140SOL     OW  418   0.072   3.964   6.028 -0.0541  0.2024 -0.6029
  140SOL    HW1  419   0.035   4.021   5.960 -3.8659 -3.3505 -1.9243
  140SOL    HW2  420   0.032   3.994   6.109 -0.8794  0.3261 -1.0485
  141SOL     OW  421   2.789   1.899   5.379  0.0328  0.3705  0.1000
  141SOL    HW1  422   2.744   1.817   5.396  1.7147 -0.0863  3.0861
  141SOL    HW2  423   2.721   1.957   5.345 -2.1349 -1.0811  1.6672
  142SOL     OW  424   3.492   0.340   5.198 -0.2400 -0.0651 -0.4890
  142SOL    HW1  425   3.475   0.434   5.186  0.3952 -0.1132 -1.9753
  142SOL    HW2  426   3.494   0.328   5.293 -0.8072  1.3317 -0.2729
  143SOL     OW  427   2.439   4.107   5.579 -0.1711  0.0200 -0.5794
  143SOL    HW1  428   2.444   4.202   5.572 -1.5605  0.3602  1.7349
  143SOL    HW2  429   2.391   4.079   5.501 -1.1554  1.4108 -0.5096
  144SOL     OW  430   0.270   3.532   5.573  0.2106  0.5906 -0.0557
  144SOL    HW1  431   0.195   3.585   5.550  0.3880  1.5230  1.3971
  144SOL    HW2  432   0.233   3.455   5.617  0.0618  0.5624 -0.2300
  145SOL     OW  433   3.551   4.215   6.116 -0.3637 -0.0530  0.1753
  145SOL    HW1  434   3.603   4.218   6.196 -0.4467 -0.4826  0.2487
  145SOL    HW2  435   3.607   4.254   6.049 -0.0311 -0.3146  0.2998
  146SOL     OW  436   1.926   2.147   5.108 -0.0430 -0.1103  0.0922
  146SOL    HW1  437   1.992   2.126   5.174  1.2446  1.7254 -0.5531
  146SOL    HW2  438   1.852   2.089   5.129  2.0088 -2.8297  0.3596
  147SOL     OW  439   2.313   1.494   5.733  0.0703  1.0988  0.2971
  147SOL    HW1  440   2.274   1.412   5.762  0.6759  0.6872 -0.0162
  147SOL    HW2  441   2.293   1.557   5.802 -0.4867  0.7123  0.4875
  148SOL     OW  442   0.659   2.220   4.850 -0.9072 -0.5553 -0.1859
  148SOL    HW1  443   0.721   2.155   4.819  1.0550  0.3605  1.5426
  148SOL    HW2  444   0.609   2.176   4.919  0.4303 -0.2857  0.9962
  149SOL     OW  445   1.845   2.207   5.775  0.4847  0.0266  0.3537
  149SOL    HW1  446   1.838   2.252   5.859  0.6063  0.5426  0.0906
  149SOL    HW2  447   1.880   2.120   5.797  0.2691  0.0655  0.8584
  150SOL     OW  448   1.588   1.721   5.050 -0.2391 -0.2934  0.1690
  150SOL    HW1  449   1.678   1.694   5.070  0.5651  1.5501 -0.7372
  150SOL    HW2  450   1.551   1.646   5.003  1.0207 -0.8755  0.0469
  151SOL     OW  451   3.614   3.053   6.150  0.3297 -0.4272  0.1964
  151SOL    HW1  452   3.691   3.014   6.193  1.5724  2.3585  0.7624
  151SOL    HW2  453   3.540   3.001   6.181  1.7100 -1.5223  1.8566
  152SOL     OW  454   4.811   1.524   8.429  0.4700 -0.5155  0.2289
  152SOL    HW1  455   4.757   1.574   8.490  0.1300 -1.9510  1.1511
  152SOL    HW2  456   4.817   1.437   8.468  1.3266 -1.1115 -1.1555
  153SOL     OW  457   0.255   4.214   5.108  0.0904  0.2334  0.5962
  153SOL    HW1  458   0.179   4.226   5.051  0.2332 -2.8899 -0.4687
  153SOL    HW2  459   0.221   4.169   5.185  0.3980  1.6754  1.6017
  154SOL     OW  460   1.361   2.012   5.963 -0.0765  0.0436  0.2584
  154SOL    HW1  461   1.345   1.930   6.009  0.7279 -0.4172 -0.2607
  154SOL    HW2  462   1.379   2.075   6.033 -1.5911  0.0031  0.7072
  155SOL     OW  463   5.001   2.187   5.356  0.3393 -0.1345  0.2549
  155SOL    HW1  464   4.911   2.195   5.388 -0.2824  0.4215 -1.4797
  155SOL    HW2  465   4.995   2.127   5.282  1.4572 -0.3289  0.3031
  156SOL     OW  466   4.067   4.573   5.507  0.0022  0.0936 -0.3532
  156SOL    HW1  467   4.121   4.496   5.486 -0.0955  0.0369 -0.3958
  156SOL    HW2  468   3.998   4.573   5.440 -0.8295 -0.5939  0.4854
  157SOL     OW  469   4.887   1.208   6.520 -0.1298 -0.1157 -0.1232
  157SOL    HW1  470   4.899   1.140   6.453 -0.6748  0.2542 -0.6030
  157SOL    HW2  471   4.973   1.248   6.529  0.0489 -0.4564 -0.2921
  158SOL     OW  472   3.653   2.975   5.013  0.0536 -0.0055  0.5923
  158SOL    HW1  473   3.667   3.069   4.998 -0.1902 -0.0427  0.0993
  158SOL    HW2  474   3.733   2.945   5.055  1.8159 -0.3354 -2.6765
  159SOL     OW  475   1.858   1.626   6.493  0.1133  0.3160  0.5298
  159SOL    HW1  476   1.872   1.660   6.581 -0.3701  1.4282  0.1964
  159SOL    HW2  477   1.879   1.699   6.435 -1.8396  0.3989 -0.1718
  160SOL     OW  478   3.891   2.461   5.679 -0.1715 -0.1906  0.2872
  160SOL    HW1  479   3.825   2.422   5.737 -1.8898 -0.0083 -1.4362
  160SOL    HW2  480   3.854   2.452   5.592  1.8610  0.4743 -0.7063
  161SOL     OW  481   4.507   3.174   5.923  0.3364  0.6378  0.5546
  161SOL    HW1  482   4.507   3.094   5.871 -0.2654 -0.4688  2.1741
  161SOL    HW2  483   4.587   3.221   5.895  0.3360 -0.1709 -0.8951
  162SOL     OW  484   2.591   3.178   7.924  0.0298  0.1367 -0.2812
  162SOL    HW1  485   2.658   3.218   7.980 -0.1780 -1.4488  1.1764
  162SOL    HW2  486   2.630   3.179   7.836  2.0952 -0.9021  0.5494
  163SOL     OW  487   4.124   4.163   5.541  0.0494 -0.2056 -0.7091
  163SOL    HW1  488   4.186   4.182   5.612  0.0247 -1.0591 -0.4517
  163SOL    HW2  489   4.038   4.163   5.583  0.0487 -0.8784 -0.6965
  164SOL     OW  490   1.540   0.539   6.083  0.0271 -0.0300 -0.0858
  164SOL    HW1  491   1.491   0.579   6.154 -2.2374 -1.4159 -0.7807
  164SOL    HW2  492   1.624   0.515   6.122 -0.5374  0.6894  1.6647
  165SOL     OW  493   2.327   0.746   5.899  0.1691  0.0042 -0.1919
  165SOL    HW1  494   2.262   0.694   5.852  2.2015  0.7647 -4.3195
  165SOL    HW2  495   2.277   0.812   5.945 -2.1388 -2.2054  0.7121
  166SOL     OW  496   4.810   2.438   4.892 -0.7098  0.1201 -0.1717
  166SOL    HW1  497   4.763   2.503   4.944 -1.0874  0.2325 -0.6502
  166SOL    HW2  498   4.742   2.386   4.850 -0.4216 -1.2935  1.0490
  167SOL     OW  499   4.243   1.494   5.512 -0.3682 -0.0252 -0.4613
  167SOL    HW1  500   4.274   1.584   5.511 -0.9430  0.1854 -1.3831
  167SOL    HW2  501   4.166   1.495   5.455 -0.9692 -0.8955  0.3061
  168SOL     OW  502   1.570   4.698   5.370  0.1975  0.9912  0.1434
  168SOL    HW1  503   1.477   4.701   5.348  0.3921  1.5116 -0.6590
  168SOL    HW2  504   1.593   4.605   5.365  0.2657  1.0672 -2.1595
  169SOL     OW  505   1.961   2.385   5.960  0.3277 -0.3428  0.3995
  169SOL    HW1  506   1.932   2.411   5.873 -1.2037  1.1884  1.2913
  169SOL    HW2  507   2.050   2.420   5.967  0.6093 -0.8263 -0.6784
  170SOL     OW  508   4.869   3.055   6.193 -0.0259  0.3115  0.4278
  170SOL    HW1  509   4.866   3.087   6.103 -2.3961 -0.9297 -0.0367
  170SOL    HW2  510   4.934   2.985   6.192 -1.3368 -0.9792 -0.8869
  171SOL     OW  511   4.310   2.241   7.160 -0.1525 -0.4413 -0.3140
  171SOL    HW1  512   4.221   2.257   7.128 -0.5032 -1.3639  0.1682
  171SOL    HW2  513   4.300   2.224   7.253  0.3723 -1.7841 -0.4837
  172SOL     OW  514   1.377   0.580   5.834  0.2132  0.5697 -0.4463
  172SOL    HW1  515   1.365   0.542   5.921 -1.0885  0.3879 -0.6882
  172SOL    HW2  516   1.464   0.620   5.837  1.1084 -1.3018  0.2398
  173SOL     OW  517   2.904   2.441   5.485  0.0594 -0.0807  0.3860
  173SOL    HW1  518   2.942   2.407   5.404  0.6405  0.3874  0.4523
  173SOL    HW2  519   2.814   2.463   5.462  0.1123 -0.2917 -0.0367
  174SOL     OW  520   2.683   3.219   7.212 -0.2551  0.7620  0.3916
  174SOL    HW1  521   2.633   3.296   7.188  1.1380  1.5110 -0.2095
  174SOL    HW2  522   2.737   3.200   7.135  0.9718  0.4698  1.2944
  175SOL     OW  523   4.380   1.417   6.470 -0.3955 -0.7414  0.5403
  175SOL    HW1  524   4.402   1.363   6.547  0.1046 -1.7781 -0.2956
  175SOL    HW2  525   4.294   1.385   6.442  0.5364 -2.2333 -0.8428
  176SOL     OW  526   4.073   0.784   6.044 -0.4113  0.5145 -0.3772
  176SOL    HW1  527   4.063   0.713   5.982  1.4895  1.6764 -2.1332
  176SOL    HW2  528   4.053   0.863   5.994 -1.6086  1.3279  1.2823
  177SOL     OW  529   0.429   4.610   6.929  0.4629 -0.3136 -0.2430
  177SOL    HW1  530   0.343   4.628   6.967  0.7465 -0.9535  0.7495
  177SOL    HW2  531   0.425   4.517   6.906  0.6427 -0.1668 -0.8861
  178SOL     OW  532   4.133   2.193   6.900 -0.4041  0.1363 -0.0061
  178SOL    HW1  533   4.149   2.241   6.819 -0.0577  1.0568  0.5883
  178SOL    HW2  534   4.051   2.147   6.885  0.2533 -0.6733 -1.3143
  179SOL     OW  535   3.350   2.154   5.101  0.5520 -0.3884 -0.3529
  179SOL    HW1  536   3.336   2.229   5.042  0.8898  0.4259  0.5705
  179SOL    HW2  537   3.300   2.176   5.179  0.9949 -0.9365  0.0877
  180SOL     OW  538   1.068   0.169   6.644 -0.0589  0.3906  0.3981
  180SOL    HW1  539   1.034   0.101   6.701 -0.4725 -0.0026 -0.2990
  180SOL    HW2  540   1.034   0.147   6.557  2.6144 -0.4903 -0.5048
  181SOL     OW  541   0.889   2.184   6.881  0.5930  0.1258  0.4923
  181SOL    HW1  542   0.889   2.205   6.975  0.0876 -2.0693  1.0251
  181SOL    HW2  543   0.802   2.208   6.851  0.4951  0.1208  0.7660
  182SOL     OW  544   0.669   0.261   7.829 -0.0797  0.2071  0.6256
  182SOL    HW1  545   0.580   0.295   7.840 -0.0934  0.2592  0.3670
  182SOL    HW2  546   0.661   0.199   7.756  0.5237  1.8425 -0.9205
  183SOL     OW  547   1.769   1.904   5.681  0.8429  0.9874 -0.3277
  183SOL    HW1  548   1.690   1.901   5.626  0.1006  1.3421  0.6806
  183SOL    HW2  549   1.736   1.926   5.768  1.9176 -0.1116  0.3887
  184SOL     OW  550   2.569   4.366   5.199  0.4133  0.6604  0.3838
  184SOL    HW1  551   2.611   4.316   5.269  1.0061  0.3628 -0.1688
  184SOL    HW2  552   2.544   4.299   5.135 -0.1393  0.9279  0.3140
  185SOL     OW  553   1.905   4.215   6.661 -0.1809  0.0519  0.3750
  185SOL    HW1  554   1.853   4.141   6.690  1.6285 -1.2326  0.5369
  185SOL    HW2  555   1.986   4.209   6.711 -0.1949  2.5153  0.8184
  186SOL     OW  556   4.663   2.538   6.563 -0.4024 -0.0705 -0.3861
  186SOL    HW1  557   4.569   2.540   6.548 -0.6899  2.0016  1.2386
  186SOL    HW2  558   4.702   2.572   6.483 -1.2829  2.2532  0.1146
  187SOL     OW  559   4.661   4.536   5.554 -0.0077  0.1895  0.3063
  187SOL    HW1  560   4.605   4.600   5.510 -1.8169 -2.0069 -0.8080
  187SOL    HW2  561   4.600   4.469   5.585  1.9022 -1.8576 -0.1341
  188SOL     OW  562   2.641   2.516   5.451 -0.3648  0.3931  0.5729
  188SOL    HW1  563   2.655   2.589   5.391 -1.5753  1.0165  1.0023
  188SOL    HW2  564   2.586   2.553   5.521 -0.9368 -0.9052  0.8437
  189SOL     OW  565   0.254   4.931   6.454 -0.0451  0.6339 -0.5977
  189SOL    HW1  566   0.300   5.003   6.411 -0.2535 -0.0042 -1.9605
  189SOL    HW2  567   0.163   4.960   6.461  0.0728  0.9119 -0.1663
  190SOL     OW  568   1.899   0.634   6.984  0.7340 -0.5280  0.0924
  190SOL    HW1  569   1.871   0.571   6.918  1.2696  0.0095 -0.6636
  190SOL    HW2  570   1.835   0.625   7.054 -1.8073  1.0968 -1.8368
  191SOL     OW  571   0.545   3.017   6.766 -0.5146  0.5823  0.7238
  191SOL    HW1  572   0.519   2.988   6.678 -2.1855  0.3261  1.2693
  191SOL    HW2  573   0.556   3.112   6.758  1.0058  0.3695 -0.1231
  192SOL     OW  574   3.834   0.282   4.893 -0.2100  0.2138  0.2439
  192SOL    HW1  575   3.823   0.243   4.807  0.7210 -0.4839  0.4362
  192SOL    HW2  576   3.771   0.236   4.949  0.6283 -0.7654  0.3890
  193SOL     OW  577   1.356   2.131   5.130  0.9625 -0.5547 -0.1087
  193SOL    HW1  578   1.283   2.169   5.080  0.6926  0.3342  0.9180
  193SOL    HW2  579   1.349   2.037   5.114  1.3977 -0.2550 -2.3985
  194SOL     OW  580   1.072   1.535   6.895  0.1885 -0.4208  0.0389
  194SOL    HW1  581   1.149   1.586   6.921  0.5470 -1.5906  1.3488
  194SOL    HW2  582   1.055   1.478   6.969 -0.6922 -1.6485 -1.0783
  195SOL     OW  583   0.532   1.907   4.795 -0.5591 -0.8413  0.2567
  195SOL    HW1  584   0.530   1.947   4.708 -1.5372  0.1952  0.7319
  195SOL    HW2  585   0.606   1.948   4.839  1.2517 -2.8621 -0.7255
  196SOL     OW  586   0.999   4.009   5.717 -0.3403 -0.1632  0.2731
  196SOL    HW1  587   1.054   3.954   5.660  1.4098  1.9956 -0.2625
  196SOL    HW2  588   0.921   4.027   5.665 -1.3723 -2.7031  0.7705
  197SOL     OW  589   2.278   1.065   8.991  0.0693  0.1221 -0.3337
  197SOL    HW1  590   2.354   1.007   8.991 -0.8527 -1.1702  0.7027
  197SOL    HW2  591   2.219   1.027   8.925  0.2483  1.0382 -1.0406
  198SOL     OW  592   0.246   2.713   5.190 -0.0944 -0.0594 -0.6298
  198SOL    HW1  593   0.216   2.631   5.151 -0.3089  0.1858 -0.9770
  198SOL    HW2  594   0.181   2.778   5.164 -1.2217 -0.2068  1.5374
  199SOL     OW  595   0.862   2.244   7.164 -0.1324  0.7312  0.3107
  199SOL    HW1  596   0.839   2.310   7.229 -0.8074  0.6348  0.1882
  199SOL    HW2  597   0.956   2.230   7.174 -0.5395 -0.7887  2.6707
  200SOL     OW  598   0.681   0.537   5.542 -0.1922  0.3863  0.4117
  200SOL    HW1  599   0.697   0.497   5.627 -2.6592 -1.0020  0.3336
  200SOL    HW2  600   0.737   0.614   5.540  2.1570 -1.1333  2.0346
  201SOL     OW  601   4.109   0.881   6.866 -0.3777  0.0743 -0.0242
  201SOL    HW1  602   4.152   0.830   6.797 -0.6380 -0.1953  0.0069
  201SOL    HW2  603   4.079   0.960   6.823  0.3562  0.3775  0.0052
  202SOL     OW  604   1.636   2.288   5.619 -0.3112  0.2382  0.1380
  202SOL    HW1  605   1.710   2.263   5.675  1.5359  2.9986 -0.8201
  202SOL    HW2  606   1.660   2.256   5.532 -2.3153 -2.4374  0.4313
  203SOL     OW  607   4.726   2.060   5.359 -0.0874 -0.6306  0.3137
  203SOL    HW1  608   4.755   1.985   5.308  0.4151  0.6883 -1.4533
  203SOL    HW2  609   4.672   2.023   5.429 -0.5963 -2.5525 -1.0350
  204SOL     OW  610   1.733   2.342   5.056 -0.0161 -0.5188  0.5081
  204SOL    HW1  611   1.669   2.322   5.125  0.3113  1.0955  1.3403
  204SOL    HW2  612   1.803   2.277   5.068  0.3767  0.1610  2.1946
  205SOL     OW  613   0.569   0.847   5.498  0.8140  0.3681  0.5921
  205SOL    HW1  614   0.640   0.784   5.485 -0.5289 -1.8775  3.1700
  205SOL    HW2  615   0.604   0.910   5.560  0.8357 -0.3023  1.2761
  206SOL     OW  616   1.790   0.492   6.190 -0.2336  0.0609  0.0918
  206SOL    HW1  617   1.849   0.560   6.156  0.3615 -1.6245 -2.5153
  206SOL    HW2  618   1.849   0.427   6.228 -0.7726  0.6473  2.0411
  207SOL     OW  619   1.956   0.451   6.780 -0.3461  0.5147 -0.5885
  207SOL    HW1  620   1.981   0.362   6.806 -0.4112  0.3125 -1.2015
  207SOL    HW2  621   2.039   0.495   6.761 -0.0212  1.6242  2.8321
  208SOL     OW  622   2.476   2.939   6.548 -0.2456 -0.4232  0.1265
  208SOL    HW1  623   2.427   2.960   6.468  0.7910  1.5263 -0.0734
  208SOL    HW2  624   2.484   3.024   6.593  1.2755 -1.0347  1.0816
  209SOL     OW  625   1.822   4.168   5.938  0.1700  0.2708  0.1787
  209SOL    HW1  626   1.824   4.162   6.033  0.7622  0.5494  0.1856
  209SOL    HW2  627   1.911   4.150   5.910 -0.3033 -1.3208 -0.4289
  210SOL     OW  628   4.597   0.184   5.431  0.2769 -0.0497  0.6144
  210SOL    HW1  629   4.673   0.220   5.477  2.2975  2.0953 -3.7756
  210SOL    HW2  630   4.632   0.112   5.379 -1.3296 -0.8343  0.5732
  211SOL     OW  631   3.864   4.077   5.975 -0.6586 -0.2015 -0.0732
  211SOL    HW1  632   3.924   4.116   6.039 -0.1805 -0.3285 -0.4323
  211SOL    HW2  633   3.824   4.151   5.930  0.0422 -0.1077 -0.5653
  212SOL     OW  634   2.500   4.242   6.616 -0.1312 -0.1239 -0.0553
  212SOL    HW1  635   2.443   4.308   6.655  0.4318  1.0294 -1.1240
  212SOL    HW2  636   2.579   4.289   6.591  0.4159 -1.2625 -0.5655
  213SOL     OW  637   1.645   1.973   5.919 -0.3174 -0.4257 -0.3604
  213SOL    HW1  638   1.557   2.011   5.926  0.2045  0.8583 -0.5652
  213SOL    HW2  639   1.691   2.005   5.996  0.5918  0.6618 -1.3095
  214SOL     OW  640   3.746   1.998   6.405  0.5898  0.1487  0.1774
  214SOL    HW1  641   3.700   2.006   6.489  1.2090 -1.5353  0.6993
  214SOL    HW2  642   3.687   2.040   6.342 -0.1775  0.8698  1.3404
  215SOL     OW  643   3.007   4.176   7.107 -0.0710  0.0835  0.1231
  215SOL    HW1  644   2.983   4.268   7.100 -0.7113  0.0402  1.3767
  215SOL    HW2  645   3.027   4.149   7.018  0.0565  1.4121 -0.2673
  216SOL     OW  646   3.080   1.608   7.068  0.9788  0.3221  0.5991
  216SOL    HW1  647   3.105   1.541   7.131  1.4857 -0.5825 -0.5210
  216SOL    HW2  648   3.079   1.562   6.984  0.3124  1.4868 -0.0518
  217SOL     OW  649   1.480   2.449   6.827  0.0515  0.7541  0.0212
  217SOL    HW1  650   1.412   2.445   6.895 -0.7745  0.4106 -0.7930
  217SOL    HW2  651   1.556   2.486   6.871 -0.2505 -0.0724  1.3103
  218SOL     OW  652   1.549   4.099   6.217 -0.0519  0.5240 -0.2958
  218SOL    HW1  653   1.585   4.013   6.192  1.2898  0.9368  0.0972
  218SOL    HW2  654   1.565   4.155   6.141  3.5857  1.6500  1.0626
  219SOL     OW  655   4.439   2.187   7.858 -0.1445 -0.0092 -1.1012
  219SOL    HW1  656   4.510   2.196   7.795  1.3539 -0.7929  0.3816
  219SOL    HW2  657   4.402   2.276   7.865  2.7281  1.2168  0.2916
  220SOL     OW  658   2.733   4.846   8.038  0.2751  0.4287 -0.3407
  220SOL    HW1  659   2.698   4.822   7.952 -0.0165  0.3216 -0.1945
  220SOL    HW2  660   2.810   4.790   8.048 -0.5258 -0.6488  0.0960
  221SOL     OW  661   0.869   2.677   8.674 -0.5392  0.2824  0.3407
  221SOL    HW1  662   0.812   2.618   8.625 -1.7026  1.8517 -0.2722
  221SOL    HW2  663   0.811   2.747   8.704  0.7397  0.9757  1.2978
  222SOL     OW  664   4.162   4.481   7.379  0.8577 -0.5338  0.7673
  222SOL    HW1  665   4.183   4.551   7.317  1.9377 -0.4388  1.2329
  222SOL    HW2  666   4.158   4.402   7.325  0.2933 -0.2278  0.3469
  223SOL     OW  667   0.766   3.511   5.422  0.1748  0.0294 -0.7972
  223SOL    HW1  668   0.697   3.566   5.459  0.9751 -0.2996  1.3523
  223SOL    HW2  669   0.720   3.439   5.379 -0.8276  0.6886 -0.8561
  224SOL     OW  670   0.210   1.389   8.173  0.4872  0.0763  0.3071
  224SOL    HW1  671   0.272   1.315   8.171 -0.6100 -1.0054  2.6941
  224SOL    HW2  672   0.136   1.356   8.223  0.4395  3.1805  2.5441
  225SOL     OW  673   4.101   3.511   9.247 -0.2233 -0.5709  0.2243
  225SOL    HW1  674   4.177   3.567   9.257 -1.8212  1.4867  1.5913
  225SOL    HW2  675   4.053   3.547   9.173  0.3006 -2.1551 -0.9535
  226SOL     OW  676   2.003   1.445   8.582  0.4828 -0.3832  0.5916
  226SOL    HW1  677   2.058   1.420   8.508  0.4115  1.4556 -0.1527
  226SOL    HW2  678   1.933   1.380   8.583  0.5907 -0.5602 -0.8674
  227SOL     OW  679   4.626   4.204   9.604 -0.5171 -0.0231  0.0106
  227SOL    HW1  680   4.594   4.114   9.610  1.5269 -0.8341 -0.3712
  227SOL    HW2  681   4.721   4.197   9.620 -0.3190  2.0636  0.0070
  228SOL     OW  682   2.154   4.475   7.197 -0.2055 -0.1134  0.2486
  228SOL    HW1  683   2.064   4.505   7.205  0.2398  1.2773  0.2898
  228SOL    HW2  684   2.173   4.435   7.282 -1.0704 -1.2693 -0.0897
  229SOL     OW  685   1.050   0.213   9.869  0.3396 -0.5809 -0.1811
  229SOL    HW1  686   1.089   0.178   9.948 -1.3637  0.6740  1.3067
  229SOL    HW2  687   1.090   0.300   9.858  0.0999 -0.4819 -0.3017
  230SOL     OW  688   0.952   1.336   8.835 -0.5053  0.2774 -0.2720
  230SOL    HW1  689   0.885   1.403   8.823  0.6746  1.8629  1.4339
  230SOL    HW2  690   1.028   1.369   8.787 -0.0324 -0.0380  0.2510
  231SOL     OW  691   0.852   1.927   7.158 -0.1716  0.2738 -0.1859
  231SOL    HW1  692   0.790   1.996   7.135 -0.4718  0.0187 -0.1553
  231SOL    HW2  693   0.798   1.859   7.200  0.1968  0.2597  0.2846
  232SOL     OW  694   3.547   2.075   9.012 -0.0324  0.0225  0.5498
  232SOL    HW1  695   3.555   2.088   9.106  1.0257  0.4323  0.4171
  232SOL    HW2  696   3.612   2.008   8.991  1.3559  1.5314 -0.2009
  233SOL     OW  697   4.042   0.229   7.358  0.6670 -0.0924  0.6253
  233SOL    HW1  698   3.981   0.238   7.431 -0.3619 -0.4944 -0.1653
  233SOL    HW2  699   4.039   0.136   7.336 -1.2734  0.4318 -1.7754
  234SOL     OW  700   2.075   2.411   6.620 -0.5194  0.2458 -0.5421
  234SOL    HW1  701   2.069   2.342   6.686 -0.2404  0.0121 -0.7650
  234SOL    HW2  702   2.014   2.384   6.552  0.0456 -0.0942 -0.9183
  235SOL     OW  703   2.695   4.361   8.761  0.0538  0.0805 -0.4742
  235SOL    HW1  704   2.643   4.283   8.740  2.3847 -1.6985 -0.0727
  235SOL    HW2  705   2.691   4.367   8.857  1.1280 -0.5410 -0.3694
  236SOL     OW  706   4.532   0.474   8.156  0.1657  0.0590  0.1385
  236SOL    HW1  707   4.465   0.542   8.150  0.1253  0.2146  1.8050
  236SOL    HW2  708   4.482   0.393   8.169  0.2449 -0.1142 -0.6398
  237SOL     OW  709   2.093   1.539   8.977 -0.3443 -0.1222  0.0170
  237SOL    HW1  710   2.128   1.628   8.978 -0.4104 -0.0955  0.5897
  237SOL    HW2  711   2.166   1.484   9.003 -0.2172 -0.2741 -0.6455
  238SOL     OW  712   4.341   2.716   8.876 -0.4009  0.4710 -0.6504
  238SOL    HW1  713   4.307   2.632   8.909 -0.6168  1.2195  1.1163
  238SOL    HW2  714   4.296   2.782   8.929  1.2859  1.6275 -0.6067
  239SOL     OW  715   3.147   0.926   7.124  0.5280  0.0225 -1.0431
  239SOL    HW1  716   3.169   1.010   7.164 -1.3671 -0.1479  0.5271
  239SOL    HW2  717   3.222   0.870   7.143  0.6492  0.6182  0.3270
  240SOL     OW  718   3.144   1.768   8.668 -0.0024  0.2303 -0.3778
  240SOL    HW1  719   3.213   1.819   8.709 -0.0099  1.2652 -1.5939
  240SOL    HW2  720   3.063   1.816   8.687 -0.2819 -0.4463  0.2021
  241SOL     OW  721   0.200   0.736   6.912  0.3536 -0.5722 -0.0201
  241SOL    HW1  722   0.246   0.726   6.996 -1.3457 -1.5178  0.8658
  241SOL    HW2  723   0.108   0.737   6.936 -0.1244  1.2920 -1.7230
  242SOL     OW  724   4.486   1.390   7.740  0.6109  0.2282  0.2701
  242SOL    HW1  725   4.393   1.370   7.752  1.1633 -1.4071  2.4692
  242SOL    HW2  726   4.496   1.477   7.778  0.1202  0.0529  0.8279
  243SOL     OW  727   0.478   3.484   9.666  0.6022  0.2407 -0.1816
  243SOL    HW1  728   0.516   3.406   9.707 -0.0334  0.7499  1.4533
  243SOL    HW2  729   0.552   3.529   9.627  1.4803  0.3839  1.5410
  244SOL     OW  730   1.615   0.256   7.990 -0.4949 -0.7394 -0.7360
  244SOL    HW1  731   1.622   0.168   7.951 -0.1991 -0.0957 -2.2033
  244SOL    HW2  732   1.682   0.307   7.946  0.0731 -0.0314  0.9117
  245SOL     OW  733   1.900   2.734   5.470 -0.0650  0.5902 -0.2336
  245SOL    HW1  734   1.875   2.772   5.386 -1.9331  0.6362  0.2844
  245SOL    HW2  735   1.897   2.639   5.454 -0.4828  0.5974 -0.2100
  246SOL     OW  736   1.537   1.233   5.062  0.5386 -0.4554  0.8309
  246SOL    HW1  737   1.511   1.294   5.130  0.9646 -0.9112  1.4084
  246SOL    HW2  738   1.459   1.224   5.006  0.0691 -0.3767  1.4681
  247SOL     OW  739   4.669   1.726   9.126 -0.3209 -0.1833  0.8420
  247SOL    HW1  740   4.625   1.643   9.145 -1.1065  0.2557  1.0011
  247SOL    HW2  741   4.762   1.707   9.134 -0.2174 -1.9820 -2.6378
  248SOL     OW  742   0.026   1.720   7.038 -0.1773 -0.5996 -0.0206
  248SOL    HW1  743   0.086   1.734   7.112  1.0786 -0.5672 -1.0070
  248SOL    HW2  744   0.041   1.629   7.012  1.1910  0.0315 -1.7023
  249SOL     OW  745   2.554   2.402   7.763  0.7150 -0.3894  0.2117
  249SOL    HW1  746   2.596   2.316   7.761  0.5131 -0.4946  0.4503
  249SOL    HW2  747   2.619   2.459   7.805  1.4183 -0.1063 -1.1877
  250SOL     OW  748   4.254   2.429   7.731  0.1530 -0.2191 -0.5337
  250SOL    HW1  749   4.294   2.428   7.818  0.9698  0.3310 -0.8824
  250SOL    HW2  750   4.216   2.516   7.723  0.9411  0.0889 -1.0849
  251SOL     OW  751   3.969   0.410   5.591 -0.4077  0.2461  0.0094
  251SOL    HW1  752   3.928   0.495   5.606 -0.2887  0.2642  0.2349
  251SOL    HW2  753   4.004   0.415   5.502 -4.1198 -1.0642 -1.7539
  252SOL     OW  754   4.136   4.972   8.499  0.0424 -0.1745  0.0114
  252SOL    HW1  755   4.157   5.032   8.570 -2.3518  1.1752 -0.2908
  252SOL    HW2  756   4.212   4.976   8.441  0.3520  1.9021  0.4667
  253SOL     OW  757   2.556   0.636   6.014 -0.6576 -0.0728 -0.3489
  253SOL    HW1  758   2.479   0.668   5.967 -0.2963  2.3466  0.5818
  253SOL    HW2  759   2.579   0.706   6.074  1.9481 -0.9426 -0.1831
  254SOL     OW  760   3.831   0.270   9.707 -0.1957 -0.0113 -0.8434
  254SOL    HW1  761   3.755   0.248   9.653 -0.4170  0.2221 -0.6338
  254SOL    HW2  762   3.811   0.358   9.740  0.4741  0.3293 -1.3259
  255SOL     OW  763   2.534   4.097   9.100 -0.3749  0.7568 -0.6635
  255SOL    HW1  764   2.579   4.181   9.093 -1.0295  1.0152 -2.2638
  255SOL    HW2  765   2.578   4.041   9.036  0.4549 -0.3368  0.8183
  256SOL     OW  766   4.197   2.795   6.467 -0.4148 -0.0295 -0.1269
  256SOL    HW1  767   4.263   2.864   6.464  0.9348 -1.2696 -0.2253
  256SOL    HW2  768   4.176   2.785   6.560 -0.4941  0.3869 -0.0986
  257SOL     OW  769   0.741   1.168   7.491 -0.3776  0.4408  0.3948
  257SOL    HW1  770   0.648   1.157   7.471 -0.3133  1.7764 -0.8024
  257SOL    HW2  771   0.743   1.195   7.583 -1.3187  1.8698  0.0350
  258SOL     OW  772   0.075   2.585   6.127  0.1255 -0.4547 -0.1531
  258SOL    HW1  773   0.146   2.536   6.168 -0.0703 -1.6565 -1.2011
  258SOL    HW2  774   0.088   2.676   6.157  0.6318 -1.0713  1.6477
  259SOL     OW  775   4.057   1.013   8.941 -0.5703  0.4238  0.3990
  259SOL    HW1  776   4.055   0.981   9.031 -2.0329  0.1939  0.3190
  259SOL    HW2  777   3.992   0.959   8.896  2.2468 -1.5913 -1.5810
  260SOL     OW  778   0.826   4.740   9.359 -0.0419  0.1638 -0.5194
  260SOL    HW1  779   0.826   4.768   9.268 -1.0142  0.5231 -0.4223
  260SOL    HW2  780   0.756   4.791   9.400  1.3514  1.1270  0.7844
  261SOL     OW  781   1.090   1.355   7.112 -0.3771  0.1976  0.1364
  261SOL    HW1  782   1.022   1.338   7.178 -1.1322 -0.1924 -0.7250
  261SOL    HW2  783   1.160   1.293   7.132 -0.7065 -0.0877  0.4120
  262SOL     OW  784   4.035   4.704   9.299 -0.0488 -0.1211 -0.1784
  262SOL    HW1  785   4.126   4.717   9.272  0.1786  0.0960  0.6422
  262SOL    HW2  786   4.003   4.793   9.319 -0.8451 -0.0518 -1.6546
  263SOL     OW  787   3.481   2.374   6.075 -0.6935  0.0825  0.3546
  263SOL    HW1  788   3.495   2.280   6.072 -1.7291 -0.0582 -0.6671
  263SOL    HW2  789   3.539   2.405   6.145  2.2346 -0.8413 -1.4504
  264SOL     OW  790   2.489   1.091   6.867 -0.0899  0.2147  0.2399
  264SOL    HW1  791   2.512   1.017   6.809 -1.9837 -0.5344  0.3888
  264SOL    HW2  792   2.497   1.168   6.811  0.4505 -0.2425 -0.3346
  265SOL     OW  793   2.408   1.665   9.271 -1.1513  1.0732 -0.2484
  265SOL    HW1  794   2.423   1.685   9.363  1.0930  1.7598 -0.6842
  265SOL    HW2  795   2.461   1.587   9.254 -0.0038  2.0292 -1.3195
  266SOL     OW  796   1.818   2.138   8.192 -0.1222 -0.1771 -0.1628
  266SOL    HW1  797   1.747   2.201   8.190 -0.2050 -0.2250  0.9165
  266SOL    HW2  798   1.868   2.156   8.112 -2.4493 -1.4725 -2.0371
  267SOL     OW  799   3.903   4.506   7.858 -0.9613  0.2226  0.6173
  267SOL    HW1  800   3.980   4.562   7.867 -2.1943  2.6706 -2.2271
  267SOL    HW2  801   3.937   4.422   7.829  0.6956  1.0950 -0.1052
  268SOL     OW  802   0.111   1.914   8.024  0.1165  0.5322 -0.4282
  268SOL    HW1  803   0.137   2.004   8.040  0.2577  0.4899 -0.4160
  268SOL    HW2  804   0.191   1.872   7.991  0.7507 -0.2042  1.8890
  269SOL     OW  805   2.072   2.856   8.289  0.7289 -0.5436  0.2365
  269SOL    HW1  806   2.054   2.764   8.270  0.5225 -0.5015  0.2215
  269SOL    HW2  807   2.119   2.855   8.371  1.1362 -0.6932  0.0024
  270SOL     OW  808   1.040   0.392   7.047 -0.3035  0.0011  0.1195
  270SOL    HW1  809   1.038   0.297   7.056 -1.3240  0.1302  1.6838
  270SOL    HW2  810   1.014   0.408   6.957  0.4434 -1.2049 -0.3397
  271SOL     OW  811   0.698   4.538   6.007 -0.9183 -0.1008 -0.1058
  271SOL    HW1  812   0.609   4.537   5.972 -1.4360  1.3999  1.0292
  271SOL    HW2  813   0.687   4.564   6.098  0.8079  2.2034 -0.4634
  272SOL     OW  814   2.590   1.220   9.352  0.4828 -0.2187 -0.0587
  272SOL    HW1  815   2.578   1.255   9.264  1.6140 -4.1481 -2.0253
  272SOL    HW2  816   2.640   1.287   9.398  1.0508  1.4321 -2.8311
  273SOL     OW  817   3.460   1.478   6.373  0.3038 -0.0551  0.1137
  273SOL    HW1  818   3.543   1.522   6.357  0.7480 -0.8810  0.0683
  273SOL    HW2  819   3.477   1.423   6.450  0.3843 -1.6630 -1.0095
  274SOL     OW  820   2.834   1.814   5.862 -0.1211 -0.0652 -0.1530
  274SOL    HW1  821   2.919   1.821   5.906 -0.5805  0.4140  0.6909
  274SOL    HW2  822   2.809   1.722   5.874  1.1109 -0.7068 -2.0499
  275SOL     OW  823   2.459   1.696   5.595  0.5284 -0.1739  0.1778
  275SOL    HW1  824   2.459   1.611   5.640 -1.2036 -1.3417 -1.8723
  275SOL    HW2  825   2.513   1.682   5.517 -1.0944  0.0453 -1.0410
  276SOL     OW  826   2.703   2.143   9.153  0.0194  0.6139  0.3665
  276SOL    HW1  827   2.625   2.198   9.143  0.9423  1.5904 -2.3994
  276SOL    HW2  828   2.671   2.054   9.137 -0.7469  0.8666  0.4434
  277SOL     OW  829   1.679   2.439   8.919  0.4452  0.2026  0.2490
  277SOL    HW1  830   1.715   2.443   9.008  0.0746 -0.6180  0.4459
  277SOL    HW2  831   1.589   2.468   8.928 -0.4417 -2.3615  0.6608
  278SOL     OW  832   0.695   3.879   7.466 -0.0893  0.0964  0.1049
  278SOL    HW1  833   0.631   3.930   7.515  0.4480  0.8130  0.0845
  278SOL    HW2  834   0.766   3.863   7.529 -0.3745 -0.8794  0.1947
  279SOL     OW  835   1.122   1.638   9.522  0.1252 -0.5802 -0.0948
  279SOL    HW1  836   1.050   1.582   9.551 -1.4604  0.8412 -1.0891
  279SOL    HW2  837   1.101   1.725   9.558  2.0098 -0.3587  0.6028
  280SOL     OW  838   0.534   3.778   9.336 -0.5278  0.6390  0.1426
  280SOL    HW1  839   0.626   3.756   9.348  0.3473  2.0319 -2.9106
  280SOL    HW2  840   0.500   3.710   9.279 -0.8904  1.0656 -0.1573
  281SOL     OW  841   3.013   0.930   7.371 -0.5078 -0.0063 -0.4427
  281SOL    HW1  842   3.085   0.891   7.422 -1.4609  1.1025  1.8950
  281SOL    HW2  843   2.966   0.854   7.336  1.4253 -0.7622 -1.5794
  282SOL     OW  844   0.959   3.812   7.249  0.4200  0.3064  0.4248
  282SOL    HW1  845   0.901   3.742   7.220  0.7323 -0.2178  1.0354
  282SOL    HW2  846   0.902   3.872   7.298 -0.1174  1.2162 -1.2263
  283SOL     OW  847   1.137   1.960   5.315 -0.5658  0.1673 -0.3084
  283SOL    HW1  848   1.198   1.903   5.268  0.0654 -0.7200  1.5220
  283SOL    HW2  849   1.051   1.924   5.293 -0.3025 -0.1313 -0.9011
  284SOL     OW  850   4.790   1.204   9.639  0.0121 -0.0611 -0.2679
  284SOL    HW1  851   4.784   1.285   9.689  0.2086  0.2935 -0.8065
  284SOL    HW2  852   4.699   1.183   9.616 -0.0167  0.1410 -0.3394
  285SOL     OW  853   2.149   1.140   7.877 -0.7713 -0.1505 -0.1850
  285SOL    HW1  854   2.073   1.168   7.928 -1.3610 -0.1883 -1.0278
  285SOL    HW2  855   2.119   1.062   7.830  0.1500 -0.8607  0.3606
  286SOL     OW  856   2.543   3.064   6.849  0.4308 -0.2070  0.7739
  286SOL    HW1  857   2.481   3.092   6.916  0.1865 -1.7928  1.2396
  286SOL    HW2  858   2.519   2.973   6.830 -1.7545  1.0518 -3.9312
  287SOL     OW  859   4.497   4.652   5.173 -0.0938 -0.2692  0.9422
  287SOL    HW1  860   4.511   4.722   5.237 -0.7951 -0.3419  1.1775
  287SOL    HW2  861   4.562   4.586   5.195  1.5824  0.8974 -0.1662
  288SOL     OW  862   1.803   0.322   8.330  0.5345  0.0104 -0.4828
  288SOL    HW1  863   1.797   0.411   8.297  3.2125  0.3716 -0.1886
  288SOL    HW2  864   1.856   0.328   8.409  0.2113 -1.7561 -0.0769
  289SOL     OW  865   1.282   0.908   8.132  0.0769 -0.4745  0.6284
  289SOL    HW1  866   1.196   0.869   8.144 -0.2097 -0.0909 -0.1422
  289SOL    HW2  867   1.280   0.987   8.185 -1.8402  2.2104 -3.0038
  290SOL     OW  868   4.886   3.558   7.128  0.1128 -0.4639  0.1065
  290SOL    HW1  869   4.865   3.576   7.219 -1.1752 -0.5858 -0.1345
  290SOL    HW2  870   4.811   3.507   7.096  0.7175 -0.7540 -0.9133
  291SOL     OW  871   2.616   2.130   8.243 -0.3216  0.0337 -0.5997
  291SOL    HW1  872   2.583   2.186   8.172  0.6410 -2.1080 -2.8621
  291SOL    HW2  873   2.553   2.144   8.314 -1.4153  2.1927 -1.8642
  292SOL     OW  874   1.013   2.008   8.694 -0.1241 -0.1141  0.3445
  292SOL    HW1  875   1.074   1.965   8.634 -1.3907  0.0783 -1.1485
  292SOL    HW2  876   1.008   2.098   8.662  0.9778  0.6754  2.2266
  293SOL     OW  877   1.036   3.250   8.317  0.6944 -0.3515  0.4691
  293SOL    HW1  878   1.102   3.318   8.304 -0.1140  0.6407  1.3881
  293SOL    HW2  879   1.068   3.200   8.392  0.1513  0.4617  1.2542
  294SOL     OW  880   2.645   1.685   7.784  0.1001  0.5951  0.7560
  294SOL    HW1  881   2.576   1.649   7.839 -1.3100 -0.6624 -1.6861
  294SOL    HW2  882   2.612   1.770   7.755  0.6612  1.0716  1.4765
  295SOL     OW  883   1.008   4.247   7.039 -0.1721 -0.3883  0.2704
  295SOL    HW1  884   1.067   4.184   7.080  1.6165  1.1065  0.1294
  295SOL    HW2  885   1.053   4.271   6.958 -2.0770 -0.8463 -0.9808
  296SOL     OW  886   4.528   4.764   5.468  1.4773 -0.0211 -0.9226
  296SOL    HW1  887   4.555   4.855   5.471  0.8262  0.1601 -0.1564
  296SOL    HW2  888   4.437   4.765   5.497  1.1132 -0.7893 -1.9638
  297SOL     OW  889   4.720   1.286   7.998  0.0932 -0.1788 -0.3089
  297SOL    HW1  890   4.716   1.360   8.058 -0.6821 -0.9025  0.5678
  297SOL    HW2  891   4.763   1.320   7.920  1.5085  0.6699  0.8110
  298SOL     OW  892   1.462   4.498   5.926  0.0100  0.3916  0.0124
  298SOL    HW1  893   1.384   4.516   5.873  0.7155  1.6532 -0.6519
  298SOL    HW2  894   1.445   4.540   6.010 -0.9391 -1.2628  0.7011
  299SOL     OW  895   2.458   4.391   7.909 -0.1107 -0.3531 -0.0599
  299SOL    HW1  896   2.502   4.448   7.845  0.9622 -1.3560 -0.2518
  299SOL    HW2  897   2.495   4.416   7.993 -0.3781 -0.0829 -0.0236
  300SOL     OW  898   0.947   0.261   7.740 -0.0351 -0.2547  0.4416
  300SOL    HW1  899   0.858   0.264   7.774 -0.3500 -2.3208 -0.0834
  300SOL    HW2  900   0.998   0.316   7.800 -1.3562 -0.3327  1.6745
  301SOL     OW  901   2.087   0.485   7.381  0.1244  0.7241 -0.3303
  301SOL    HW1  902   1.995   0.459   7.375  0.0446  0.7316  0.6927
  301SOL    HW2  903   2.136   0.404   7.365 -0.1319 -0.5135  3.9901
  302SOL     OW  904   1.285   1.608   7.029 -0.2641 -0.4841 -0.0041
  302SOL    HW1  905   1.331   1.586   7.110  0.4255  2.6724  0.5752
  302SOL    HW2  906   1.345   1.581   6.959  0.1701 -1.0908  0.5944
  303SOL     OW  907   2.463   0.654   6.582 -0.8092 -0.4620 -0.0588
  303SOL    HW1  908   2.485   0.630   6.672 -0.2065  3.3061  0.9648
  303SOL    HW2  909   2.539   0.627   6.530 -1.2334 -2.8355  0.4075
  304SOL     OW  910   2.781   1.294   7.905 -0.0351  0.2576 -0.4959
  304SOL    HW1  911   2.797   1.209   7.945 -0.0592 -0.5866 -2.1782
  304SOL    HW2  912   2.709   1.332   7.956 -0.2024 -0.8460  0.1194
  305SOL     OW  913   4.686   0.030   6.550  0.4962 -0.4492 -0.6643
  305SOL    HW1  914   4.678  -0.065   6.561  1.3691 -0.5807 -1.0534
  305SOL    HW2  915   4.649   0.048   6.464 -0.1606 -0.3530 -0.3692
  306SOL     OW  916   0.949   2.756   5.885  0.5396 -0.1043  0.2325
  306SOL    HW1  917   0.963   2.734   5.793  3.3662 -0.0946  0.5798
  306SOL    HW2  918   1.010   2.827   5.903  0.5881 -0.5866  2.2782
  307SOL     OW  919   1.582   4.649   7.880 -0.2687  0.0692  0.4979
  307SOL    HW1  920   1.622   4.668   7.795  1.4285  1.0034  1.4739
  307SOL    HW2  921   1.645   4.681   7.945 -1.7359 -0.1891  2.1241
  308SOL     OW  922   1.775   1.776   9.484 -0.3745  0.0589  0.1717
  308SOL    HW1  923   1.759   1.756   9.392  1.9926  0.1843 -0.3282
  308SOL    HW2  924   1.852   1.724   9.507 -2.0036 -1.4380  2.6650
  309SOL     OW  925   4.027   0.562   9.589  0.3667 -0.2028 -0.2480
  309SOL    HW1  926   4.067   0.648   9.604  0.5708 -0.4051  0.3930
  309SOL    HW2  927   3.999   0.533   9.676 -1.1347 -0.0964 -0.6740
  310SOL     OW  928   4.724   1.265   8.949  0.0328  0.0330 -0.2548
  310SOL    HW1  929   4.639   1.221   8.956  0.3220 -0.6985 -1.1098
  310SOL    HW2  930   4.788   1.197   8.970  0.4505  0.2875 -0.6749
  311SOL     OW  931   0.733   0.753   9.467 -0.0334  0.0041  0.3895
  311SOL    HW1  932   0.640   0.731   9.464 -0.0725  0.0289  1.1181
  311SOL    HW2  933   0.741   0.833   9.416 -0.7601  1.1113  1.9362
  312SOL     OW  934   0.318   2.677   8.090 -0.4449  0.5198 -0.0912
  312SOL    HW1  935   0.252   2.637   8.147  0.6213 -1.4147 -0.1066
  312SOL    HW2  936   0.268   2.716   8.018 -1.5997 -0.3623  0.2047
  313SOL     OW  937   4.591   3.545   6.838  0.0633  0.3097  0.1925
  313SOL    HW1  938   4.651   3.488   6.885 -1.8926 -1.6521  0.4394
  313SOL    HW2  939   4.513   3.551   6.894 -1.7677 -0.9256 -2.0190
  314SOL     OW  940   1.000   2.977   6.758 -0.0193  0.6882 -0.2575
  314SOL    HW1  941   0.969   2.995   6.670 -2.1441  0.1592  0.3235
  314SOL    HW2  942   1.028   2.885   6.756 -1.2952  0.2722 -0.1047
  315SOL     OW  943   4.138   3.741   7.076 -0.6231  0.0217  0.1688
  315SOL    HW1  944   4.198   3.752   7.149  0.3489  0.1223 -0.6286
  315SOL    HW2  945   4.097   3.656   7.091 -2.0248  0.9429  1.9489
  316SOL     OW  946   2.813   4.636   8.814  0.5051 -0.5102  0.2010
  316SOL    HW1  947   2.900   4.663   8.844 -0.6128  2.2067  1.3191
  316SOL    HW2  948   2.818   4.642   8.719  1.1782  1.0758  0.2938
  317SOL     OW  949   1.298   4.095   9.194  0.1856  0.3787  0.4365
  317SOL    HW1  950   1.384   4.055   9.186 -0.4002 -0.8924  0.3304
  317SOL    HW2  951   1.291   4.153   9.118  0.6191 -0.1405 -0.0073
  318SOL     OW  952   1.037   1.141   8.997  0.1158 -0.4232 -0.0668
  318SOL    HW1  953   1.005   1.061   8.956 -0.3744 -1.1781  1.7150
  318SOL    HW2  954   1.018   1.210   8.932  0.7351 -1.7372 -1.7006
  319SOL     OW  955   0.415   1.354   7.897  0.3749  0.2125 -0.6222
  319SOL    HW1  956   0.339   1.363   7.838  0.8012 -0.3360 -1.2633
  319SOL    HW2  957   0.443   1.444   7.913  0.3501  0.3639 -1.3893
  320SOL     OW  958   2.159   3.691   7.703 -0.2643 -0.1730  0.1227
  320SOL    HW1  959   2.226   3.760   7.698  0.0025 -0.4809 -0.7262
  320SOL    HW2  960   2.194   3.628   7.766 -0.8539  0.8113  1.4901
  321SOL     OW  961   0.577   1.263   9.025  0.3071 -0.3855 -0.1347
  321SOL    HW1  962   0.541   1.178   8.999  0.2297 -0.8780  1.4681
  321SOL    HW2  963   0.666   1.242   9.054  1.2359  0.5083 -2.0978
  322SOL     OW  964   0.969   5.024   5.853 -0.5448 -0.0150  0.0928
  322SOL    HW1  965   0.998   4.934   5.837 -1.9014 -0.1449 -2.0956
  322SOL    HW2  966   0.881   5.014   5.890 -0.7985  0.3757 -0.3823
  323SOL     OW  967   2.090   4.740   9.178  0.4165 -0.0493  0.6992
  323SOL    HW1  968   2.104   4.652   9.212  1.1130  0.9957  3.4323
  323SOL    HW2  969   2.020   4.776   9.233  0.6830  1.3317  0.1788
  324SOL     OW  970   3.511   2.684   9.501  0.6940 -0.5860 -0.0779
  324SOL    HW1  971   3.466   2.661   9.420  2.2589 -0.9765 -0.8858
  324SOL    HW2  972   3.577   2.616   9.511  2.9656  1.4180 -0.5051
  325SOL     OW  973   1.343   0.610   8.446  0.5393 -0.0820 -0.1627
  325SOL    HW1  974   1.283   0.610   8.371 -0.2270 -0.0008  0.4347
  325SOL    HW2  975   1.347   0.519   8.473  0.8461 -0.1167 -0.3246
  326SOL     OW  976   1.102   4.261   7.461 -1.3071  0.6573 -0.3635
  326SOL    HW1  977   1.157   4.318   7.407  1.6511 -1.7192 -0.1022
  326SOL    HW2  978   1.105   4.301   7.548  0.1875  0.5231 -0.3264
  327SOL     OW  979   3.612   4.468   7.902 -0.7579  0.2326 -0.3699
  327SOL    HW1  980   3.704   4.490   7.891 -1.0192  1.0816 -0.9429
  327SOL    HW2  981   3.592   4.493   7.992  0.4182 -3.1889  1.0105
  328SOL     OW  982   1.219   1.769   6.576  0.1762 -0.3948  0.6345
  328SOL    HW1  983   1.313   1.757   6.561  0.0452 -1.7494  0.8497
  328SOL    HW2  984   1.178   1.737   6.496 -0.1331 -0.2114  0.7188
  329SOL     OW  985   0.880   1.848   9.490  0.7557 -0.3549  0.0477
  329SOL    HW1  986   0.798   1.892   9.513  1.5547  0.4678  1.4476
  329SOL    HW2  987   0.937   1.862   9.565  1.2824 -3.2939  0.3461
  330SOL     OW  988   0.160   0.608   7.400 -0.3425 -0.1809  0.2200
  330SOL    HW1  989   0.130   0.697   7.423  1.6052  0.5330  0.2100
  330SOL    HW2  990   0.138   0.598   7.308 -2.5700 -0.6248  0.7261
  331SOL     OW  991   4.408   3.326   5.096  0.5073  0.4576  0.6414
  331SOL    HW1  992   4.321   3.294   5.074  1.5835 -1.3264 -1.3621
  331SOL    HW2  993   4.400   3.421   5.096 -1.3871  0.3307  0.3934
  332SOL     OW  994   4.574   1.311   8.330 -0.2888 -0.2760 -0.1586
  332SOL    HW1  995   4.620   1.379   8.280  1.6006 -1.6952 -0.4605
  332SOL    HW2  996   4.587   1.336   8.421  0.6807 -0.3971 -0.2554
  333SOL     OW  997   1.149   0.530   7.477 -0.7685  0.6371  0.3479
  333SOL    HW1  998   1.231   0.484   7.456 -1.0090  1.1258 -1.9334
  333SOL    HW2  999   1.102   0.470   7.534 -0.0875 -0.9857 -0.7207
  334SOL     OW 1000   2.458   4.509   9.270 -0.2692  0.1708  0.3621
  334SOL    HW1 1001   2.431   4.466   9.190 -2.6788 -0.2134  1.2917
  334SOL    HW2 1002   2.529   4.455   9.305  0.7511  0.3060 -1.4085
  335SOL     OW 1003   0.470   4.848   9.333 -0.1308  0.5077  0.2011
  335SOL    HW1 1004   0.502   4.873   9.420 -1.8583  1.1450  0.6999
  335SOL    HW2 1005   0.416   4.770   9.348  0.8392 -0.3274 -0.5554
  336SOL     OW 1006   0.151   4.940   5.604  0.5332 -0.0277 -0.3291
  336SOL    HW1 1007   0.190   4.992   5.674 -1.6570 -1.3508  2.0481
  336SOL    HW2 1008   0.063   4.919   5.635 -0.1417 -1.7187 -2.9901
  337SOL     OW 1009   4.200   0.336   6.496 -0.2757 -0.5586 -0.1256
  337SOL    HW1 1010   4.232   0.246   6.506 -0.1460 -0.3890  1.1992
  337SOL    HW2 1011   4.112   0.326   6.459 -1.0008 -1.3564  1.7140
  338SOL     OW 1012   0.289   2.099   6.212 -0.2456  0.3477  0.0497
  338SOL    HW1 1013   0.299   2.159   6.287  0.8440 -0.7923  0.8589
  338SOL    HW2 1014   0.257   2.018   6.250 -1.1719  0.2145 -0.9662
  339SOL     OW 1015   2.872   1.238   6.501 -0.3281  0.4458  0.3755
  339SOL    HW1 1016   2.875   1.271   6.412 -0.7801 -0.0641  0.1591
  339SOL    HW2 1017   2.964   1.224   6.525 -0.1418  1.6266  0.4024
  340SOL     OW 1018   4.993   4.119   8.354  0.2339 -0.1602  0.0608
  340SOL    HW1 1019   4.942   4.042   8.382 -0.2580  0.7985  2.0166
  340SOL    HW2 1020   4.961   4.190   8.410 -0.1037  1.7732 -2.4165
  341SOL     OW 1021   0.053   3.896   5.650  0.1228  0.1199 -0.1361
  341SOL    HW1 1022  -0.013   3.949   5.606 -0.4709 -0.8674 -0.4643
  341SOL    HW2 1023   0.133   3.948   5.644 -0.6720  1.4680  0.5206
  342SOL     OW 1024   0.205   1.216   5.328 -0.3952  0.0507 -0.9186
  342SOL    HW1 1025   0.170   1.294   5.285 -0.0963  0.0756 -1.1143
  342SOL    HW2 1026   0.133   1.186   5.384 -0.2715  0.8823 -0.2943
  343SOL     OW 1027   1.524   0.726  10.006  0.1782  1.2677 -0.5085
  343SOL    HW1 1028   1.594   0.744   9.944  1.3043  1.0590  0.6648
  343SOL    HW2 1029   1.486   0.643   9.975  1.5576  0.5012 -0.2160
  344SOL     OW 1030   0.316   0.133   5.197  0.4850  0.1482 -0.4090
  344SOL    HW1 1031   0.248   0.181   5.150 -0.1549  0.7664  1.1077
  344SOL    HW2 1032   0.375   0.201   5.229 -0.5277 -0.0099  1.9208
  345SOL     OW 1033   4.665   1.529   6.942  0.2914 -0.0153 -0.0927
  345SOL    HW1 1034   4.703   1.571   7.020 -0.7233 -0.2667  0.5461
  345SOL    HW2 1035   4.664   1.436   6.964 -0.6025 -0.0194 -0.1381
  346SOL     OW 1036   2.799   0.342   9.669  0.0018 -0.0366 -0.2216
  346SOL    HW1 1037   2.747   0.263   9.683 -2.6097  1.7310  0.9134
  346SOL    HW2 1038   2.829   0.367   9.756  0.5833  0.3783 -0.5360
  347SOL     OW 1039   1.772   2.909   8.319  0.6519 -0.0678 -0.1987
  347SOL    HW1 1040   1.741   2.820   8.340 -0.3535  0.4545  0.6606
  347SOL    HW2 1041   1.855   2.916   8.365  1.8723 -1.3036 -2.0729
  348SOL     OW 1042   4.379   2.652   6.134  0.1285  0.4922 -0.2826
  348SOL    HW1 1043   4.359   2.740   6.167 -1.5521  0.6202 -1.5042
  348SOL    HW2 1044   4.344   2.652   6.045 -0.5211 -1.6380 -0.0654
  349SOL     OW 1045   4.401   1.338   8.947  0.1809 -0.3183 -0.3368
  349SOL    HW1 1046   4.348   1.279   8.894  0.4016  0.0139 -0.9375
  349SOL    HW2 1047   4.442   1.281   9.012  1.1988 -1.0203 -1.5384
  350SOL     OW 1048   2.473   1.238   8.857  0.0416 -0.3752  0.7707
  350SOL    HW1 1049   2.537   1.224   8.787 -1.0209 -0.0436 -0.3052
  350SOL    HW2 1050   2.418   1.160   8.856  0.5302 -0.7409  1.8108
  351SOL     OW 1051   1.466   1.124   7.382 -0.3063  0.4608 -0.4275
  351SOL    HW1 1052   1.545   1.112   7.329 -1.8560 -2.1195 -2.4043
  351SOL    HW2 1053   1.450   1.038   7.421 -1.5755  1.2148  0.8214
  352SOL     OW 1054   4.673   3.852   8.109 -0.9566  0.0832  0.5597
  352SOL    HW1 1055   4.629   3.797   8.044  1.5756 -0.3875 -0.8810
  352SOL    HW2 1056   4.698   3.792   8.178 -0.0591 -0.2250 -0.0132
  353SOL     OW 1057   4.863   0.969   9.523 -0.1884  0.1131  0.0642
  353SOL    HW1 1058   4.858   1.053   9.569 -2.1402 -0.0721  0.2865
  353SOL    HW2 1059   4.883   0.993   9.432 -0.6157  0.8147  0.1453
  354SOL     OW 1060   4.483   1.631   7.859  0.1230  0.0327  0.0663
  354SOL    HW1 1061   4.440   1.634   7.944 -0.4514  0.5268 -0.2331
  354SOL    HW2 1062   4.576   1.620   7.879  0.0140  0.3424  0.7635
  355SOL     OW 1063   1.375   1.562   9.638  0.2939 -0.5925  0.4466
  355SOL    HW1 1064   1.303   1.576   9.577 -0.0237  0.4955  1.0436
  355SOL    HW2 1065   1.431   1.639   9.628 -1.0000  0.8426  3.1583
  356SOL     OW 1066   1.275   2.040   6.849  0.5656  0.2529 -0.1102
  356SOL    HW1 1067   1.208   1.990   6.894  0.5403  0.5252  0.1602
  356SOL    HW2 1068   1.227   2.108   6.802  0.6258  0.2391 -0.1922
  357SOL     OW 1069   1.295   1.200   7.687 -0.1704 -0.3051 -0.7226
  357SOL    HW1 1070   1.276   1.124   7.632 -1.0433 -0.5460 -0.1043
  357SOL    HW2 1071   1.244   1.186   7.767  0.8712  0.1716  0.0521
  358SOL     OW 1072   4.983   0.121   5.359 -0.1734 -0.8944  0.4826
  358SOL    HW1 1073   5.027   0.136   5.443 -1.5998  2.1037  0.8464
  358SOL    HW2 1074   4.960   0.209   5.329 -1.7018 -2.0356 -1.9772
  359SOL     OW 1075   1.064   0.702   8.127  0.1267  0.5841 -0.6251
  359SOL    HW1 1076   1.094   0.643   8.195 -0.1633 -0.4709 -1.3955
  359SOL    HW2 1077   0.969   0.697   8.131 -0.0023  2.7502  0.7952
  360SOL     OW 1078   1.382   4.847   5.011  0.2939  0.2777  0.4287
  360SOL    HW1 1079   1.473   4.820   5.002  0.5826  0.8815  1.4374
  360SOL    HW2 1080   1.351   4.803   5.090  0.2027  1.3223  0.9985
  361SOL     OW 1081   2.320   4.935   8.772  0.5625  0.7348  0.0513
  361SOL    HW1 1082   2.381   4.867   8.801 -0.0247 -0.3860 -1.2219
  361SOL    HW2 1083   2.374   5.000   8.727  0.8369 -0.2833 -1.1328
  362SOL     OW 1084   1.661   3.166   8.759 -0.0205  0.7921  0.3254
  362SOL    HW1 1085   1.651   3.209   8.673  1.0184  0.7164  0.1541
  362SOL    HW2 1086   1.728   3.100   8.745 -0.2182  0.4247  1.0785
  363SOL     OW 1087   1.015   3.422   6.912  0.1325 -0.3706 -1.1025
  363SOL    HW1 1088   0.943   3.361   6.897  0.4477 -1.0488  0.0109
  363SOL    HW2 1089   0.989   3.502   6.867 -2.1172 -0.0118  0.6277
  364SOL     OW 1090   1.616   2.007   8.403 -0.0292  0.4983 -0.5256
  364SOL    HW1 1091   1.711   2.004   8.387  0.2074 -0.6825  0.8513
  364SOL    HW2 1092   1.590   1.915   8.404 -1.2290  0.8216 -0.9979
  365SOL     OW 1093   3.359   4.752   7.773  0.3514  0.3997 -0.0306
  365SOL    HW1 1094   3.402   4.786   7.851 -1.8816  3.2330  0.1260
  365SOL    HW2 1095   3.408   4.790   7.700  0.3466  0.6331  0.0852
  366SOL     OW 1096  -0.009   0.871   7.507 -0.6944  0.6896 -0.0622
  366SOL    HW1 1097   0.030   0.917   7.581  0.0172 -2.7203  1.8779
  366SOL    HW2 1098   0.057   0.877   7.438 -0.2931  1.8429  0.3965
  367SOL     OW 1099   0.463   4.984   8.409 -0.1065 -0.1413 -0.0419
  367SOL    HW1 1100   0.478   4.891   8.392  0.1427  0.1771 -1.6893
  367SOL    HW2 1101   0.376   4.986   8.449  0.5277 -1.1981  1.4942
  368SOL     OW 1102   1.703   1.394   6.531  0.0117  0.1785  0.5111
  368SOL    HW1 1103   1.644   1.443   6.474  0.7536  1.4245  0.7717
  368SOL    HW2 1104   1.790   1.429   6.511  0.3276  0.3982  2.1458
  369SOL     OW 1105   2.078   2.160   7.410  0.3219  0.3938  0.1877
  369SOL    HW1 1106   2.134   2.134   7.336  0.6318  3.2961 -0.7469
  369SOL    HW2 1107   2.064   2.254   7.396 -3.7333  0.0790  1.1277
  370SOL     OW 1108   1.207   0.588   9.194 -0.6884 -0.5267  0.4744
  370SOL    HW1 1109   1.288   0.627   9.228 -2.8115  2.6392  2.4420
  370SOL    HW2 1110   1.165   0.548   9.271 -1.3973 -1.4139 -0.3412
  371SOL     OW 1111   1.012   1.276   7.458 -0.2429 -0.2954 -0.2078
  371SOL    HW1 1112   0.983   1.345   7.399 -0.0051  0.8895  0.9937
  371SOL    HW2 1113   0.941   1.212   7.458 -1.2336  0.7857 -0.0657
  372SOL     OW 1114   1.934   0.590   8.500  0.3565 -0.1266  0.5540
  372SOL    HW1 1115   1.947   0.496   8.485 -0.6611 -0.7504  3.1326
  372SOL    HW2 1116   1.842   0.605   8.480  0.6994  0.5211 -0.6131
  373SOL     OW 1117   1.456   2.967   5.769  0.4231  0.3200  0.3766
  373SOL    HW1 1118   1.441   2.880   5.731 -0.1400 -0.4137  2.1944
  373SOL    HW2 1119   1.480   3.022   5.694 -1.1089 -0.9340 -1.1110
  374SOL     OW 1120   2.452   2.017   8.896  0.7191  0.0820  0.3857
  374SOL    HW1 1121   2.395   1.971   8.834 -0.4742 -0.3256  1.7239
  374SOL    HW2 1122   2.423   2.108   8.892  0.8296  0.1073  0.1513
  375SOL     OW 1123   0.562   2.006   6.075  0.0658 -0.4941  0.1588
  375SOL    HW1 1124   0.504   2.066   6.122  0.5853  0.1061  0.0497
  375SOL    HW2 1125   0.510   1.975   6.000  0.4894  1.5043 -1.0221
  376SOL     OW 1126   4.559   3.865   9.928  0.3267  0.0560  0.0033
  376SOL    HW1 1127   4.469   3.866   9.960  1.3891 -0.5813  3.4031
  376SOL    HW2 1128   4.595   3.950   9.955  0.7923  0.2899 -1.2854
  377SOL     OW 1129   2.097   0.556   9.338  0.5677 -0.7912 -0.0766
  377SOL    HW1 1130   2.114   0.611   9.262  0.5719  0.3388  0.7237
  377SOL    HW2 1131   2.173   0.567   9.394  0.0411 -0.6738  0.6306
  378SOL     OW 1132   4.275   3.288   8.990 -0.1298 -0.1709 -0.3297
  378SOL    HW1 1133   4.312   3.371   9.017  0.2564 -0.2048 -0.7411
  378SOL    HW2 1134   4.209   3.268   9.057  0.6872 -0.1817  0.4904
  379SOL     OW 1135   1.052   3.644   6.512 -0.2200 -0.4536 -0.2978
  379SOL    HW1 1136   1.043   3.653   6.606 -0.3289  0.4089 -0.3885
  379SOL    HW2 1137   0.989   3.575   6.488 -1.1855  0.2826  0.0800
  380SOL     OW 1138   2.068   1.009   8.808 -0.4855 -0.1248  0.4152
  380SOL    HW1 1139   1.999   1.075   8.819 -0.3854  0.0604 -0.0359
  380SOL    HW2 1140   2.080   1.003   8.713 -0.6133 -0.9219  0.4469
  381SOL     OW 1141   0.273   4.087   8.911  0.2819 -0.5505 -0.1917
  381SOL    HW1 1142   0.197   4.054   8.863 -1.4323  1.7544  0.7512
  381SOL    HW2 1143   0.328   4.128   8.844  0.0623 -1.0671 -0.7023
  382SOL     OW 1144   0.520   0.101   6.918  0.3446 -0.1563 -0.1146
  382SOL    HW1 1145   0.531   0.121   6.825 -1.2051 -1.1228 -0.5410
  382SOL    HW2 1146   0.521   0.006   6.922 -1.8186 -0.2165  0.4899
  383SOL     OW 1147   4.568   4.687   9.242  0.1191 -0.2853  0.1553
  383SOL    HW1 1148   4.594   4.702   9.151  2.3277  0.0951  0.7819
  383SOL    HW2 1149   4.557   4.775   9.278 -0.4348 -0.4319  0.3526
  384SOL     OW 1150   0.371   1.652   7.024 -0.4454 -0.2847 -0.5866
  384SOL    HW1 1151   0.435   1.722   7.008  0.2212 -0.4800  1.0116
  384SOL    HW2 1152   0.316   1.651   6.946  1.1154  0.3281 -1.7474
  385SOL     OW 1153   1.679   1.035   7.231  0.8068 -0.3292 -0.1574
  385SOL    HW1 1154   1.650   0.985   7.155  0.1352 -0.0668 -0.0768
  385SOL    HW2 1155   1.772   1.052   7.215  1.1968 -2.0895  0.0788
  386SOL     OW 1156   0.231   1.658   7.635 -0.1662  0.0690  0.2183
  386SOL    HW1 1157   0.202   1.746   7.659 -1.6713 -0.6354  1.1293
  386SOL    HW2 1158   0.196   1.645   7.547 -0.7243  0.0549  0.4380
  387SOL     OW 1159   0.806   4.545   7.431  0.1768  0.1651 -0.0199
  387SOL    HW1 1160   0.773   4.544   7.341 -1.3472  1.3385  0.4779
  387SOL    HW2 1161   0.891   4.588   7.425 -0.1182  0.6575 -0.8478
  388SOL     OW 1162   4.712   4.449   7.872 -0.0033  0.0758  0.2820
  388SOL    HW1 1163   4.760   4.407   7.943 -1.5061  0.3319  1.4994
  388SOL    HW2 1164   4.759   4.530   7.856  0.1863  0.1578  1.2140
  389SOL     OW 1165   0.591   4.752   8.393  0.4466 -0.4480 -0.1673
  389SOL    HW1 1166   0.619   4.775   8.304  0.3974  0.6278  0.0836
  389SOL    HW2 1167   0.667   4.769   8.447 -0.1547  0.8823  0.2829
  390SOL     OW 1168   3.968   0.604   6.532  0.4280 -0.0489  0.1324
  390SOL    HW1 1169   3.980   0.624   6.439 -0.1734  0.7755  0.2164
  390SOL    HW2 1170   3.887   0.551   6.534  0.7733 -0.5842  0.1335
  391SOL     OW 1171   1.142   4.442  10.091  0.6047  0.4568 -0.2051
  391SOL    HW1 1172   1.178   4.468  10.006  0.5057 -1.2369 -0.8055
  391SOL    HW2 1173   1.217   4.441  10.150  0.2954  4.3659  0.5496
  392SOL     OW 1174   1.064   0.401   9.442  0.0003  0.7914 -0.1745
  392SOL    HW1 1175   0.988   0.410   9.385 -0.2285  0.7021  0.1123
  392SOL    HW2 1176   1.107   0.321   9.412  0.3312  1.1715 -0.7390
  393SOL     OW 1177   0.133   0.594   5.238  0.5011 -0.0095 -0.3490
  393SOL    HW1 1178   0.132   0.534   5.163  1.6847 -1.6938  0.9099
  393SOL    HW2 1179   0.212   0.572   5.285 -0.3341  0.8434  1.5417
  394SOL     OW 1180   0.872   4.972   6.997 -0.5046 -0.1148  0.1240
  394SOL    HW1 1181   0.826   4.936   6.922 -0.0027  0.3228 -0.4067
  394SOL    HW2 1182   0.814   5.041   7.030 -0.5218 -0.0009 -0.1423
  395SOL     OW 1183   2.007   2.598   7.148 -0.2048  0.1474 -0.0226
  395SOL    HW1 1184   2.057   2.521   7.122  0.7974  0.9090 -0.4372
  395SOL    HW2 1185   2.016   2.659   7.074 -3.1287 -0.2625 -0.8498
  396SOL     OW 1186   1.594   3.251   9.503  0.1145 -0.2738  0.0306
  396SOL    HW1 1187   1.632   3.336   9.524  0.4713 -0.4743  0.2177
  396SOL    HW2 1188   1.523   3.270   9.442  0.2794  0.1446 -0.0336
  397SOL     OW 1189   2.683   0.589   8.632  0.0754  0.4099  0.1001
  397SOL    HW1 1190   2.626   0.537   8.576 -0.5966 -0.4275  1.5316
  397SOL    HW2 1191   2.734   0.643   8.570 -0.9658 -0.1305 -1.2763
  398SOL     OW 1192   1.068   1.288   9.499 -0.1315 -0.4641 -0.6242
  398SOL    HW1 1193   1.009   1.327   9.434  0.2781 -0.0549 -0.7628
  398SOL    HW2 1194   1.142   1.255   9.448 -1.2296 -2.9786 -0.6966
  399SOL     OW 1195   3.217   1.118   8.811  0.2372  1.3812 -0.1917
  399SOL    HW1 1196   3.236   1.027   8.789  0.3065  0.9560  1.4451
  399SOL    HW2 1197   3.126   1.131   8.784  0.1392  0.7364 -0.1956
  400SOL     OW 1198   0.936   1.061   6.393  0.2409  0.5089 -0.3729
  400SOL    HW1 1199   0.943   1.141   6.445  2.5331  0.9275 -1.2266
  400SOL    HW2 1200   1.026   1.031   6.382 -0.5582 -2.5057  0.3142
  401SOL     OW 1201   4.867   1.769   7.676 -0.1678 -1.0131 -0.1505
  401SOL    HW1 1202   4.893   1.822   7.752 -0.5445 -2.0933  0.7602
  401SOL    HW2 1203   4.919   1.803   7.604  0.1460  0.0926  0.5782
  402SOL     OW 1204   4.836   4.043  10.347 -0.2212 -1.3074  0.1514
  402SOL    HW1 1205   4.859   3.971  10.405 -0.1938 -0.7861  0.7935
  402SOL    HW2 1206   4.756   4.014  10.303 -0.7916 -1.3100  1.1651
  403SOL     OW 1207   4.393   0.546   7.330  0.4669  0.0305  0.0727
  403SOL    HW1 1208   4.326   0.513   7.270  0.7544 -0.2082 -0.1164
  403SOL    HW2 1209   4.469   0.562   7.275 -0.4037  3.4721 -0.3589
  404SOL     OW 1210   2.861   0.939   8.428  0.0190  0.1433  0.1757
  404SOL    HW1 1211   2.788   0.877   8.423  0.8276 -0.7728 -0.8985
  404SOL    HW2 1212   2.929   0.900   8.373  2.4802 -0.5714  3.4172
  405SOL     OW 1213   2.679   3.136   7.654 -0.0239  0.4876 -0.4969
  405SOL    HW1 1214   2.640   3.068   7.599  1.1729  0.2772 -1.1203
  405SOL    HW2 1215   2.719   3.197   7.592 -2.5956  2.8184 -0.0847
  406SOL     OW 1216   2.017   4.782   8.704 -0.0491  0.2548  0.2281
  406SOL    HW1 1217   2.088   4.736   8.749 -0.0517  1.0640  1.0815
  406SOL    HW2 1218   2.044   4.873   8.703  0.1872  0.2106 -1.8945
  407SOL     OW 1219   2.427   2.078   8.020  0.4357  0.5679 -0.3787
  407SOL    HW1 1220   2.471   1.993   8.029 -0.8108  0.0640  1.7349
  407SOL    HW2 1221   2.336   2.056   7.999  0.3272  1.4217 -0.8170
  408SOL     OW 1222   3.428   4.338   6.613 -0.4296  0.7675 -0.4463
  408SOL    HW1 1223   3.478   4.407   6.657 -1.9676  1.1929  0.7008
  408SOL    HW2 1224   3.355   4.383   6.571  0.1473  0.1684 -2.2081
  409SOL     OW 1225   4.539   3.952   9.632  0.3326 -0.1083 -0.4608
  409SOL    HW1 1226   4.562   3.895   9.705  3.1616 -0.1995 -1.2840
  409SOL    HW2 1227   4.548   3.897   9.554  0.9695  0.8700 -1.1099
  410SOL     OW 1228   1.650   1.878   6.229 -0.1331  0.2947  0.1744
  410SOL    HW1 1229   1.588   1.868   6.157 -0.3627  0.2394  0.3739
  410SOL    HW2 1230   1.594   1.887   6.307  0.1020  0.8170  0.2888
  411SOL     OW 1231   2.236   1.639   8.638 -0.0589  0.0326  0.2282
  411SOL    HW1 1232   2.189   1.709   8.683 -1.9592 -1.5089  0.7754
  411SOL    HW2 1233   2.284   1.594   8.708 -0.2994 -0.3096  0.1734
  412SOL     OW 1234   1.968   1.968   6.626  0.0139 -0.0615  0.0757
  412SOL    HW1 1235   1.990   2.010   6.542 -1.6210  0.0979 -0.3077
  412SOL    HW2 1236   1.875   1.946   6.618  0.6146 -3.1941  0.5420
  413SOL     OW 1237   0.721   0.594   8.268 -0.9743  0.0351  0.4486
  413SOL    HW1 1238   0.717   0.516   8.323 -1.5142  0.4268  0.9784
  413SOL    HW2 1239   0.631   0.623   8.262 -0.7128  0.9286  0.7126
  414SOL     OW 1240   1.937   0.212   5.243  0.1099  0.6114  0.2961
  414SOL    HW1 1241   1.997   0.143   5.269 -1.3091 -0.2143  1.5590
  414SOL    HW2 1242   1.985   0.293   5.262  0.5556 -0.0073  2.0737
  415SOL     OW 1243   0.124   2.030   9.147 -0.4213 -0.2733 -0.4690
  415SOL    HW1 1244   0.172   1.988   9.076 -0.5575 -0.4263 -0.4707
  415SOL    HW2 1245   0.190   2.046   9.214 -0.3930 -0.6035 -0.4170
  416SOL     OW 1246   3.461   0.682   7.828 -0.1676  0.0328  0.6754
  416SOL    HW1 1247   3.389   0.708   7.886 -0.1512  0.7652  0.3698
  416SOL    HW2 1248   3.418   0.653   7.748 -0.1128  0.7936  0.3666
  417SOL     OW 1249   0.965   4.691  10.024 -0.1410  0.0191 -0.2791
  417SOL    HW1 1250   0.918   4.712   9.943 -0.5281  1.2241  0.2215
  417SOL    HW2 1251   1.043   4.644   9.996  0.1033  1.0597 -1.4127
  418SOL     OW 1252   1.912   2.171  10.131  0.1165 -0.7515  0.1773
  418SOL    HW1 1253   1.913   2.265  10.114 -0.3354 -0.8712 -0.5502
  418SOL    HW2 1254   1.964   2.160  10.211  1.5659 -0.0559 -0.6380
  419SOL     OW 1255   2.945   1.173   8.788  0.3938  0.3386  0.4141
  419SOL    HW1 1256   2.896   1.220   8.855  0.6688  0.9448  0.1959
  419SOL    HW2 1257   2.917   1.082   8.797  0.3140  0.4348  1.2481
  420SOL     OW 1258   1.197   3.917   7.185  0.7253 -0.2064 -0.4830
  420SOL    HW1 1259   1.210   3.927   7.280  0.6614 -1.3245 -0.3427
  420SOL    HW2 1260   1.102   3.903   7.175  0.4222  1.8520 -0.9212
  421SOL     OW 1261   1.329   0.713   7.765 -0.6490  0.3320 -0.0506
  421SOL    HW1 1262   1.235   0.712   7.783 -0.8768 -1.5629 -1.1371
  421SOL    HW2 1263   1.353   0.621   7.755  1.3665  0.7774  0.3536
  422SOL     OW 1264   1.138   1.229   5.980  0.5175 -0.3966 -0.2687
  422SOL    HW1 1265   1.099   1.157   6.029  1.2171 -0.1482  0.6859
  422SOL    HW2 1266   1.063   1.278   5.946  0.0245 -0.9921 -0.0631
  423SOL     OW 1267   1.304   0.791   6.199 -0.4961 -0.3740 -0.1278
  423SOL    HW1 1268   1.209   0.799   6.199 -0.4466  0.2561 -0.1508
  423SOL    HW2 1269   1.320   0.698   6.213 -1.1304 -0.6445 -1.1013
  424SOL     OW 1270   2.136   3.122   8.383  0.2864  0.0425 -0.0703
  424SOL    HW1 1271   2.110   3.043   8.335  1.0967 -0.8490  0.8773
  424SOL    HW2 1272   2.070   3.132   8.452 -1.2828  1.7373 -1.7249
  425SOL     OW 1273   0.851   1.900   5.299 -0.2947 -0.1557 -0.0698
  425SOL    HW1 1274   0.832   1.987   5.333 -0.0107  0.2629 -0.9514
  425SOL    HW2 1275   0.765   1.863   5.277 -0.5250 -0.6304  1.5245
  426SOL     OW 1276   4.360   4.442   8.834  0.1368 -0.1466  0.0245
  426SOL    HW1 1277   4.420   4.405   8.898  0.7356  0.9064  0.0810
  426SOL    HW2 1278   4.325   4.366   8.787  1.5739 -0.7635 -0.0751
  427SOL     OW 1279   3.678   3.221   9.179  0.9686  0.0983  0.0639
  427SOL    HW1 1280   3.670   3.152   9.114 -1.6707 -0.0144  0.3876
  427SOL    HW2 1281   3.668   3.176   9.263  1.3079  0.6223  0.3940
  428SOL     OW 1282   4.688   2.979   9.190  0.0077  0.1318 -0.1442
  428SOL    HW1 1283   4.663   2.922   9.263 -0.2257  0.2701 -0.1178
  428SOL    HW2 1284   4.625   2.959   9.122 -0.6640  1.0487  0.1981
  429SOL     OW 1285   0.629   2.607   8.571  0.1613 -0.7481  0.0845
  429SOL    HW1 1286   0.588   2.523   8.552  1.7363 -1.7872  0.9695
  429SOL    HW2 1287   0.565   2.672   8.545 -0.9608 -2.2173 -0.9802
  430SOL     OW 1288   0.996   2.898   9.049 -0.1052  0.2559  0.5599
  430SOL    HW1 1289   0.991   2.816   8.999  0.0193 -0.0077  0.9740
  430SOL    HW2 1290   0.941   2.882   9.126 -0.7319  0.8513  0.2407
  431SOL     OW 1291   1.281   1.323   8.145  0.4141 -0.1117  0.2514
  431SOL    HW1 1292   1.349   1.332   8.078  1.2765  0.5562  1.1814
  431SOL    HW2 1293   1.202   1.302   8.096  1.5527 -2.3582 -0.7658
  432SOL     OW 1294   4.908   4.726   9.075 -0.4115  0.1710 -0.3359
  432SOL    HW1 1295   4.995   4.763   9.057  0.0418 -0.7191 -0.0658
  432SOL    HW2 1296   4.900   4.652   9.015 -1.0282  0.3098 -0.4286
  433SOL     OW 1297   0.033   3.146   9.342  0.4160  0.1432 -0.5220
  433SOL    HW1 1298   0.020   3.073   9.282  0.1521  0.1014 -0.4145
  433SOL    HW2 1299  -0.046   3.200   9.333 -0.0659 -0.3575  0.4744
  434SOL     OW 1300   0.185   0.963   9.263  0.1346 -0.0538  0.0435
  434SOL    HW1 1301   0.254   0.898   9.278 -0.4328 -0.7197 -0.1699
  434SOL    HW2 1302   0.128   0.923   9.197 -1.9319 -0.7056  2.0836
  435SOL     OW 1303   4.685   4.412   9.776 -0.2907  0.1825 -0.0572
  435SOL    HW1 1304   4.639   4.328   9.772 -1.7712  0.6261  3.4663
  435SOL    HW2 1305   4.615   4.478   9.772  0.5432  1.1060  0.0839
  436SOL     OW 1306   0.804   3.289   9.948  0.4492  0.4442  0.1093
  436SOL    HW1 1307   0.737   3.242   9.898  0.2358  0.3240  0.5117
  436SOL    HW2 1308   0.845   3.223  10.003  1.2947  0.4045 -0.5444
  437SOL     OW 1309   4.708   2.375   9.807 -0.2776  0.3459  0.3475
  437SOL    HW1 1310   4.802   2.364   9.820 -0.1890  0.8953  0.1955
  437SOL    HW2 1311   4.701   2.447   9.744 -0.8456  1.4707  1.6651
  438SOL     OW 1312   1.051   3.114   7.857 -0.6348 -0.1943  0.0309
  438SOL    HW1 1313   0.972   3.168   7.857  0.7898  1.9831 -0.0212
  438SOL    HW2 1314   1.032   3.044   7.794 -3.2824 -1.0125  1.5454
  439SOL     OW 1315   3.701   0.294   9.981 -0.2786  0.6137 -0.0244
  439SOL    HW1 1316   3.755   0.246   9.918 -0.9756  1.3625 -1.2390
  439SOL    HW2 1317   3.764   0.343  10.034  0.2970  0.4398 -0.5356
  440SOL     OW 1318   4.965   2.378   9.750  0.2383 -0.3938 -0.1340
  440SOL    HW1 1319   4.979   2.324   9.671  1.3933  0.7181 -0.7398
  440SOL    HW2 1320   5.054   2.404   9.776 -0.3277  2.6923 -0.9525
  441SOL     OW 1321   2.519   0.596   8.172 -0.2111 -0.1355  0.7078
  441SOL    HW1 1322   2.471   0.646   8.237 -0.0618  1.0046 -0.0327
  441SOL    HW2 1323   2.458   0.527   8.145 -0.4457 -0.3260  1.6879
  442SOL     OW 1324   2.358   0.625   8.573  0.2952 -0.5037  0.3668
  442SOL    HW1 1325   2.271   0.639   8.534  0.3808 -0.1219  0.3136
  442SOL    HW2 1326   2.398   0.557   8.518 -0.1592 -1.0472  0.6925
  443SOL     OW 1327   3.992   0.208   8.865 -0.0436  0.3447  0.3598
  443SOL    HW1 1328   3.989   0.184   8.957  0.9483 -0.7269  0.1513
  443SOL    HW2 1329   4.077   0.252   8.854 -0.0419  0.2416 -0.0826
  444SOL     OW 1330   0.360   1.153   9.473 -0.0503  0.2832  0.2713
  444SOL    HW1 1331   0.269   1.182   9.465  0.0609  0.3037 -1.2351
  444SOL    HW2 1332   0.356   1.058   9.458  0.0920  0.1706  0.9320
  445SOL     OW 1333   3.429   0.381   8.232 -0.1781 -0.0920  0.6870
  445SOL    HW1 1334   3.431   0.460   8.177  0.2790  0.2278  1.1595
  445SOL    HW2 1335   3.336   0.360   8.241 -0.3027  0.4299  0.6198
  446SOL     OW 1336   3.002   4.614   8.218 -0.1807  0.4772 -0.3674
  446SOL    HW1 1337   3.018   4.526   8.185  1.5575  0.3139  0.7803
  446SOL    HW2 1338   2.933   4.603   8.283 -0.6131  0.1276 -0.8756
  447SOL     OW 1339   1.509   1.794   9.589  0.3844  0.1654 -0.0801
  447SOL    HW1 1340   1.497   1.881   9.550  1.6442  0.6317  0.5065
  447SOL    HW2 1341   1.596   1.766   9.559  0.1708 -0.7032  0.0896
  448SOL     OW 1342   3.454   3.933   9.156 -0.3209  0.2342 -0.3052
  448SOL    HW1 1343   3.360   3.952   9.163 -0.4524  0.4841 -2.1276
  448SOL    HW2 1344   3.466   3.853   9.208 -2.0202 -1.1552 -1.8817
  449SOL     OW 1345   3.771   1.061   9.109 -0.1201 -0.4466 -0.3949
  449SOL    HW1 1346   3.729   1.080   9.193 -1.5450 -0.5616 -1.0418
  449SOL    HW2 1347   3.708   1.093   9.044  0.9840 -0.3015 -1.4230
  450SOL     OW 1348   0.317   0.269   8.461  0.3848  0.3844  0.1446
  450SOL    HW1 1349   0.253   0.270   8.390  0.3308 -0.3554  0.1714
  450SOL    HW2 1350   0.304   0.352   8.507 -1.4261 -0.2731  0.9160
  451SOL     OW 1351   2.885   4.268   9.279 -0.4925 -0.1665  0.0491
  451SOL    HW1 1352   2.950   4.337   9.292  0.0764 -0.5779 -0.5828
  451SOL    HW2 1353   2.931   4.200   9.230 -1.1865 -0.7866  0.2387
  452SOL     OW 1354   1.321   3.236   7.526  0.5082 -0.1701  0.5054
  452SOL    HW1 1355   1.361   3.316   7.559  2.2488 -0.5667 -0.5005
  452SOL    HW2 1356   1.316   3.179   7.603  0.0897  0.5759  1.0413
  453SOL     OW 1357   3.921   3.895   9.399 -0.1731  0.1808  0.0426
  453SOL    HW1 1358   3.894   3.889   9.307  0.8601  0.7181 -0.3104
  453SOL    HW2 1359   3.872   3.970   9.433  0.9254  1.2389 -0.6342
  454SOL     OW 1360   2.455   2.639   8.754  0.1075 -0.4324  0.0134
  454SOL    HW1 1361   2.432   2.715   8.700 -0.0802 -0.1264  0.5133
  454SOL    HW2 1362   2.453   2.565   8.694 -3.0565 -0.5810  0.1610
  455SOL     OW 1363   0.733   1.271   8.148 -0.6900 -0.4271 -0.2481
  455SOL    HW1 1364   0.710   1.283   8.240 -1.6313 -1.3569 -0.3360
  455SOL    HW2 1365   0.688   1.342   8.102  0.4615  0.5433  0.0749
  456SOL     OW 1366   3.760   4.620   9.253  0.7512  0.3109 -0.3751
  456SOL    HW1 1367   3.850   4.651   9.265  0.5165  1.2967 -1.1003
  456SOL    HW2 1368   3.727   4.669   9.178 -0.6609  0.5084  0.3477
  457SOL     OW 1369   0.274   3.473   9.428 -0.2484  0.2315  0.4340
  457SOL    HW1 1370   0.321   3.524   9.494  0.4459  0.8022 -0.4848
  457SOL    HW2 1371   0.321   3.490   9.346 -1.6971  0.3436 -0.4025
  458SOL     OW 1372   0.508   1.095   6.251  0.1872 -0.2350  0.0736
  458SOL    HW1 1373   0.471   1.011   6.226  1.0606 -0.5988 -0.0046
  458SOL    HW2 1374   0.596   1.096   6.214  0.3264  0.5560  0.3925
  459SOL     OW 1375   1.530   2.679   9.370  0.0031 -0.4314 -0.9404
  459SOL    HW1 1376   1.592   2.721   9.430 -0.0554  0.5195 -1.5178
  459SOL    HW2 1377   1.444   2.693   9.412  0.1000 -1.1624 -0.4736
  460SOL     OW 1378   4.946   3.674   9.962 -0.6225  0.0284  0.7774
  460SOL    HW1 1379   5.006   3.627   9.904 -1.6392 -2.0057  1.2849
  460SOL    HW2 1380   4.859   3.650   9.931 -1.1845  1.0192  1.5248
  461SOL     OW 1381   1.251   1.078   6.948 -0.0402 -0.3363  0.0962
  461SOL    HW1 1382   1.259   1.019   7.023  0.2503  1.4196  1.5084
  461SOL    HW2 1383   1.316   1.147   6.964  0.3677 -0.1561 -2.0278
  462SOL     OW 1384   4.403   0.338   9.622  0.2108 -0.7998  0.6249
  462SOL    HW1 1385   4.428   0.315   9.712 -1.9837  1.7040  2.0285
  462SOL    HW2 1386   4.468   0.403   9.595 -1.0719  1.1493  1.9174
  463SOL     OW 1387   3.153   0.607   7.336 -0.2202  0.3222 -0.1739
  463SOL    HW1 1388   3.159   0.539   7.269  1.9062 -0.7887  1.0152
  463SOL    HW2 1389   3.205   0.680   7.302  1.7312 -0.6294  0.5968
  464SOL     OW 1390   2.054   2.431   9.933 -0.1332  0.0256 -0.2599
  464SOL    HW1 1391   2.149   2.435   9.928  0.2550 -3.1731  1.7145
  464SOL    HW2 1392   2.028   2.519   9.961  2.0836  1.2649 -1.7781
  465SOL     OW 1393   2.715   4.715   9.672 -0.0354  0.0241  0.7367
  465SOL    HW1 1394   2.689   4.678   9.588  1.3232  1.1702 -0.2429
  465SOL    HW2 1395   2.750   4.801   9.651  0.8361  0.1359  2.4061
  466SOL     OW 1396   1.592   0.103   9.192  0.0672  0.4259  0.0741
  466SOL    HW1 1397   1.648   0.069   9.123 -0.3342 -1.3016  0.5543
  466SOL    HW2 1398   1.521   0.147   9.146  1.6262  2.4431 -0.5473
  467SOL     OW 1399   0.133   2.819   9.764 -0.5404 -0.2444 -0.4078
  467SOL    HW1 1400   0.124   2.821   9.859 -0.6376 -0.6779 -0.4065
  467SOL    HW2 1401   0.060   2.872   9.732  0.7616  1.8042 -0.1783
  468SOL     OW 1402   1.175   3.528   7.725 -0.2527 -0.6703  0.2970
  468SOL    HW1 1403   1.104   3.493   7.779  0.3217 -0.0100  1.5232
  468SOL    HW2 1404   1.132   3.557   7.645 -1.0358 -2.3116  0.0666
  469SOL     OW 1405   1.763   1.125   9.920  0.1256 -0.5052  0.1609
  469SOL    HW1 1406   1.707   1.203   9.926 -1.3703 -1.6276  1.7117
  469SOL    HW2 1407   1.796   1.127   9.830 -2.2903  0.3286 -0.7986
  470SOL     OW 1408   1.914   3.512   9.044 -0.4711 -0.0310  0.3339
  470SOL    HW1 1409   1.937   3.546   8.957  2.5795 -1.7572  0.3165
  470SOL    HW2 1410   1.850   3.444   9.027  1.6202 -1.8086 -0.9103
  471SOL     OW 1411   0.169   2.685   9.232  0.1276  0.1293 -0.3187
  471SOL    HW1 1412   0.166   2.590   9.221 -0.7185  0.2403 -1.1399
  471SOL    HW2 1413   0.090   2.707   9.281  0.4743  0.3786  0.1360
  472SOL     OW 1414   2.984   3.101   9.293 -0.0884 -0.3793 -0.2125
  472SOL    HW1 1415   2.954   3.190   9.313  0.9440 -0.1695  0.4859
  472SOL    HW2 1416   3.050   3.114   9.225 -1.4794 -0.8374 -1.7312
  473SOL     OW 1417   0.077   3.807   8.745 -0.2367  0.9954 -0.3227
  473SOL    HW1 1418   0.048   3.772   8.829 -0.6966  0.0001 -0.8701
  473SOL    HW2 1419   0.168   3.776   8.737 -0.3406  0.7029 -0.3897
  474SOL     OW 1420   3.797   0.055   9.089 -0.0617 -0.2707 -1.0046
  474SOL    HW1 1421   3.770  -0.035   9.105 -0.9280  0.0935 -0.3288
  474SOL    HW2 1422   3.879   0.065   9.138 -2.0000  0.4389  2.4274
  475SOL     OW 1423   0.874   4.197   7.849  0.0704 -0.3002  0.0752
  475SOL    HW1 1424   0.876   4.261   7.778  0.2752  1.3562  1.5020
  475SOL    HW2 1425   0.897   4.248   7.927 -0.3263 -2.0173  1.3562
  476SOL     OW 1426   4.751   3.668   8.729  0.1216  0.6445  0.8626
  476SOL    HW1 1427   4.797   3.749   8.751 -0.8742  1.1449  1.1614
  476SOL    HW2 1428   4.807   3.599   8.764  0.0703  1.2899  2.3010
  477SOL     OW 1429   2.207   1.780   9.068 -0.4361  0.1986  1.1932
  477SOL    HW1 1430   2.215   1.875   9.067  1.5824  0.2463 -3.2775
  477SOL    HW2 1431   2.267   1.751   9.137  2.4608  2.1903 -0.2892
  478SOL     OW 1432   1.007   2.666   8.888 -0.3998 -0.2933  0.0715
  478SOL    HW1 1433   1.024   2.572   8.887  0.9261 -0.0791  0.8038
  478SOL    HW2 1434   0.954   2.681   8.810 -0.5395 -1.6228 -0.1198
  479SOL     OW 1435   1.497   2.647   7.190  0.0267  0.0291  0.6005
  479SOL    HW1 1436   1.474   2.620   7.279  0.0989 -0.0651  0.5912
  479SOL    HW2 1437   1.527   2.737   7.199 -1.7191  0.6754  0.4035
  480SOL     OW 1438   2.974   0.756   9.642 -0.3459 -0.4521  0.7640
  480SOL    HW1 1439   2.918   0.833   9.644  1.3655  0.8891  0.1078
  480SOL    HW2 1440   2.927   0.692   9.588 -0.3425  1.3910 -1.5568
  481SOL     OW 1441   4.433   0.767   8.165  0.3154  1.1422 -0.3888
  481SOL    HW1 1442   4.455   0.858   8.143  0.7440  0.7029 -1.8695
  481SOL    HW2 1443   4.416   0.725   8.080 -0.1901 -0.0905  0.2964
  482SOL     OW 1444   0.692   2.619   9.213 -0.1411  0.5268  0.4021
  482SOL    HW1 1445   0.625   2.572   9.162 -1.4969 -0.0827  2.5892
  482SOL    HW2 1446   0.761   2.554   9.227  0.1016  0.6091 -0.3990
  483SOL     OW 1447   0.627   1.336   9.312  0.2842 -0.7814  0.6315
  483SOL    HW1 1448   0.592   1.316   9.225  0.0616 -1.9000  0.9613
  483SOL    HW2 1449   0.715   1.369   9.294 -0.0847 -0.1385 -0.0661
  484SOL     OW 1450   0.342   4.359   9.413  0.1861 -0.2077  0.4604
  484SOL    HW1 1451   0.377   4.295   9.351  1.9300  1.5051 -0.4322
  484SOL    HW2 1452   0.344   4.314   9.498  0.7332 -1.5349 -0.2290
  485SOL     OW 1453   1.676   3.682   9.386 -0.1383  0.2321 -0.3938
  485SOL    HW1 1454   1.628   3.607   9.352 -0.0195  0.8944 -2.1428
  485SOL    HW2 1455   1.711   3.653   9.470 -1.9112 -0.9195 -0.0037
  486SOL     OW 1456   0.040   0.763   9.762  0.1388 -0.3026 -0.4322
  486SOL    HW1 1457   0.059   0.732   9.673  0.1999 -0.2873 -0.4236
  486SOL    HW2 1458   0.087   0.703   9.819 -1.2075 -1.3244 -0.3481
  487SOL     OW 1459   3.256   2.776   8.199  0.0964 -0.3907  0.3071
  487SOL    HW1 1460   3.300   2.693   8.218 -0.4131 -1.0209 -1.1152
  487SOL    HW2 1461   3.198   2.756   8.125 -0.2350  1.1704  0.1124
  488SOL     OW 1462   0.725   2.885   7.486 -0.3751 -0.3258 -0.4078
  488SOL    HW1 1463   0.687   2.897   7.399 -1.6464 -2.0680 -0.1434
  488SOL    HW2 1464   0.685   2.954   7.539 -0.1486  0.2894 -1.0228
  489SOL     OW 1465   1.582   1.986   8.669  0.0532  0.6260 -0.2001
  489SOL    HW1 1466   1.545   2.074   8.672 -1.6430  0.1226 -2.7953
  489SOL    HW2 1467   1.641   1.987   8.594  0.8813 -0.1829  0.4161
  490SOL     OW 1468   0.689   2.841   8.745 -0.4251 -0.1315 -0.2917
  490SOL    HW1 1469   0.625   2.805   8.683 -2.5222 -0.1412  1.7456
  490SOL    HW2 1470   0.642   2.845   8.828  2.5631 -1.0948  1.6059
  491SOL     OW 1471   0.179   3.661   7.735 -0.1184  0.1395  0.1581
  491SOL    HW1 1472   0.264   3.653   7.778 -0.2070 -0.7560  0.1982
  491SOL    HW2 1473   0.146   3.747   7.761 -0.2470 -0.4290  2.0332
  492SOL     OW 1474   1.690   2.382   7.904  0.6701  0.2020  0.7956
  492SOL    HW1 1475   1.747   2.320   7.949  2.3283  1.4012  0.4410
  492SOL    HW2 1476   1.675   2.343   7.818  0.9126 -0.1436  0.9075
  493SOL     OW 1477   0.884   1.541   7.341  0.2655  0.6159  0.0157
  493SOL    HW1 1478   0.852   1.571   7.426  0.7511 -0.1893  0.4940
  493SOL    HW2 1479   0.958   1.599   7.321 -0.3450  1.3257 -0.2531
  494SOL     OW 1480   4.490   4.423   9.556 -0.1002 -0.4426  0.1460
  494SOL    HW1 1481   4.537   4.341   9.574  1.7160  0.7714  1.2336
  494SOL    HW2 1482   4.431   4.434   9.631 -0.2171 -0.6531  0.0860
  495SOL     OW 1483   0.953   3.700   9.045  0.1339  0.1532  0.1489
  495SOL    HW1 1484   0.980   3.785   9.082 -1.0862  0.5198  0.2268
  495SOL    HW2 1485   0.970   3.709   8.951  0.3379  0.3556  0.2039
  496SOL     OW 1486   2.285   2.712  10.017  0.5105  0.0235 -0.1631
  496SOL    HW1 1487   2.342   2.788  10.025  1.1808 -0.5422  0.5407
  496SOL    HW2 1488   2.202   2.740  10.054  1.0988  0.0527  1.1674
  497SOL     OW 1489   1.035   4.591   9.173 -0.3669  0.0588  0.4461
  497SOL    HW1 1490   1.013   4.684   9.178  0.4424  0.3040 -0.3089
  497SOL    HW2 1491   1.025   4.569   9.080  0.2178 -0.3971  0.4836
  498SOL     OW 1492   4.255   0.837   9.281  0.6947  0.1389  0.4135
  498SOL    HW1 1493   4.235   0.747   9.304 -0.8168  0.0479 -1.0659
  498SOL    HW2 1494   4.170   0.877   9.261  1.4260  1.5718 -0.0324
  499SOL     OW 1495   4.230   3.622   8.833  0.1373  0.0183 -0.3413
  499SOL    HW1 1496   4.171   3.630   8.759  0.7069  0.2998 -0.7716
  499SOL    HW2 1497   4.318   3.624   8.795  0.4878  1.7189  0.4616
  500SOL     OW 1498   0.677   4.915   9.505 -0.0699  0.1174 -0.0377
  500SOL    HW1 1499   0.672   4.892   9.597  0.4283  4.0090  1.1470
  500SOL    HW2 1500   0.744   4.984   9.501  0.1743 -0.1266 -3.3901
  501SOL     OW 1501   1.644   2.201   7.677  0.4020  0.0113 -0.6330
  501SOL    HW1 1502   1.731   2.179   7.643  0.2625 -0.1737 -0.8810
  501SOL    HW2 1503   1.598   2.239   7.601 -0.5620 -2.1646 -1.2225
  502SOL     OW 1504   0.865   4.155   7.322 -0.3614 -0.1675  0.3381
  502SOL    HW1 1505   0.950   4.159   7.366 -0.7572 -2.0667  1.4043
  502SOL    HW2 1506   0.856   4.240   7.280  2.0243  0.1268  0.2508
  503SOL     OW 1507   0.729   3.968   9.769  0.3501 -0.7527  0.3456
  503SOL    HW1 1508   0.641   3.996   9.746  0.5310 -0.7988 -0.4388
  503SOL    HW2 1509   0.731   3.875   9.746  0.5977 -0.7556  0.3766
  504SOL     OW 1510   1.941   1.202   8.026  0.1881  0.2331 -0.1526
  504SOL    HW1 1511   1.925   1.189   8.120  0.6594  2.1742  0.2429
  504SOL    HW2 1512   1.854   1.211   7.988 -0.0201 -0.8666  0.0217
  505SOL     OW 1513   4.206   4.401   9.763  0.1390  0.4384 -0.2827
  505SOL    HW1 1514   4.159   4.368   9.840 -0.1623 -0.6922 -0.9319
  505SOL    HW2 1515   4.250   4.323   9.728  1.9041  1.3229 -0.1144
  506SOL     OW 1516   0.236   2.169  10.038  0.4786 -0.6967  0.3935
  506SOL    HW1 1517   0.298   2.116   9.987 -0.1467  0.3175 -1.5319
  506SOL    HW2 1518   0.253   2.259  10.009  0.3208 -0.0083  2.2883
  507SOL     OW 1519   0.786   0.513   7.808  0.4198  0.0867  0.5827
  507SOL    HW1 1520   0.724   0.584   7.825 -0.9025 -1.1129  0.9217
  507SOL    HW2 1521   0.732   0.439   7.782  1.8189 -0.6362 -0.3905
  508SOL     OW 1522   4.353   3.111   9.736 -0.4023  0.0667  0.2766
  508SOL    HW1 1523   4.289   3.071   9.795  0.1831  0.8235  1.4741
  508SOL    HW2 1524   4.304   3.181   9.693 -0.7669 -0.3148  0.0575
  509SOL     OW 1525   4.886   4.457   9.970  0.4200 -0.5663 -0.4902
  509SOL    HW1 1526   4.811   4.427   9.919 -0.1753 -0.9975  0.6183
  509SOL    HW2 1527   4.907   4.383  10.027  0.1278  0.4249  0.9475
  510SOL     OW 1528   4.418   3.233   8.184 -0.0785  0.1233  0.4387
  510SOL    HW1 1529   4.421   3.314   8.234  1.4364 -0.1588  0.8366
  510SOL    HW2 1530   4.510   3.211   8.167 -0.4867 -1.0566 -0.3957
  511SOL     OW 1531   2.161   3.968   9.692 -0.1348  0.2290 -0.2655
  511SOL    HW1 1532   2.174   3.873   9.698 -0.2329  0.3015  3.0306
  511SOL    HW2 1533   2.087   3.978   9.633 -0.3728 -1.7940 -0.3881
  512SOL     OW 1534   1.528   0.068   9.807  0.0869 -0.4720 -0.0226
  512SOL    HW1 1535   1.495  -0.019   9.784  0.5076 -0.6599  0.0867
  512SOL    HW2 1536   1.492   0.125   9.739  2.0765 -1.1614 -1.7944
  513SOL     OW 1537   4.107   4.501  10.044  0.2974 -0.1468  0.5466
  513SOL    HW1 1538   4.126   4.409  10.059  2.2757  0.1968  0.4992
  513SOL    HW2 1539   4.013   4.505  10.028  0.0149 -2.0083  1.5356
  514SOL     OW 1540   0.705   2.031   8.495 -0.0273 -0.4344  0.0247
  514SOL    HW1 1541   0.621   2.055   8.534 -0.5559 -1.3944 -0.4723
  514SOL    HW2 1542   0.758   2.111   8.500 -0.7504  0.0046  0.9125
  515SOL     OW 1543   3.367   3.376   9.958  0.1674  0.2550  0.5808
  515SOL    HW1 1544   3.351   3.357   9.866  1.6499  2.4661 -0.1911
  515SOL    HW2 1545   3.308   3.316  10.005 -0.8115 -0.7391 -1.7698
  516SOL     OW 1546   2.598   0.086  10.524 -0.4115 -0.1615 -0.2166
  516SOL    HW1 1547   2.640   0.084  10.438 -0.5809 -1.3567 -0.2900
  516SOL    HW2 1548   2.559   0.173  10.529  1.7179  0.8742 -0.2997
  517SOL     OW 1549   0.071   0.442   7.167  0.2421 -0.0032 -1.0123
  517SOL    HW1 1550   0.117   0.365   7.199 -1.4670 -1.2107 -1.3478
  517SOL    HW2 1551   0.057   0.425   7.074  2.2812  2.0055 -1.7929
  518SOL     OW 1552   2.162   4.441  10.279 -0.2781 -0.1232 -0.2536
  518SOL    HW1 1553   2.103   4.488  10.220 -0.3834  0.8456  0.6040
  518SOL    HW2 1554   2.128   4.459  10.367  0.4346 -0.7714  0.1710
  519SOL     OW 1555   0.269   3.785   9.591 -0.5782  0.1362 -0.1743
  519SOL    HW1 1556   0.190   3.809   9.639  0.4454  1.0955  1.1330
  519SOL    HW2 1557   0.283   3.693   9.613 -2.8514 -0.9195 -2.7368
  520SOL     OW 1558   4.369   0.946   8.534 -0.9820  0.1043 -0.5167
  520SOL    HW1 1559   4.381   1.011   8.466 -0.8995 -1.2938 -1.8913
  520SOL    HW2 1560   4.301   0.983   8.591 -0.7931  1.4574 -1.1392
  521SOL     OW 1561   2.150   3.235   7.364 -0.3999 -0.7488  1.5820
  521SOL    HW1 1562   2.146   3.302   7.433  0.0790 -0.2360  1.1293
  521SOL    HW2 1563   2.065   3.192   7.367 -0.6501 -0.2384  2.0139
  522SOL     OW 1564   2.524   1.429   7.273 -0.0075 -0.1061  0.2446
  522SOL    HW1 1565   2.554   1.408   7.361  2.0216 -0.2938 -0.4549
  522SOL    HW2 1566   2.557   1.358   7.218 -1.3510 -0.0656 -0.6688
  523SOL     OW 1567   4.950   2.719   8.409 -0.9726  0.6686 -0.0283
  523SOL    HW1 1568   4.897   2.648   8.446 -2.3526  0.5505 -2.0176
  523SOL    HW2 1569   4.961   2.781   8.480  2.3441 -2.5002  2.5799
  524SOL     OW 1570   0.516   4.502   8.596  0.0669  0.0106  0.0435
  524SOL    HW1 1571   0.537   4.444   8.669 -3.2761 -1.3579  0.0797
  524SOL    HW2 1572   0.489   4.584   8.637 -0.7666 -0.3982  0.3429
  525SOL     OW 1573   1.738   1.266   7.744  0.3844  0.1103 -0.7456
  525SOL    HW1 1574   1.757   1.196   7.682  2.5552 -0.6081  0.6503
  525SOL    HW2 1575   1.689   1.224   7.814  0.3645  0.3214 -0.6316
  526SOL     OW 1576   0.718   4.485   9.686  0.1745 -0.3607  0.0014
  526SOL    HW1 1577   0.664   4.551   9.641  0.1700  1.1008  1.9935
  526SOL    HW2 1578   0.656   4.436   9.739  0.4108 -0.7847 -0.1135
  527SOL     OW 1579   2.490   3.816   9.350 -0.1848  0.4594 -0.5022
  527SOL    HW1 1580   2.505   3.837   9.258 -0.9155 -1.4294 -1.0989
  527SOL    HW2 1581   2.460   3.898   9.389  2.0076  1.8049 -1.4605
  528SOL     OW 1582   2.636   1.224   8.642  0.6888  0.2798  0.2711
  528SOL    HW1 1583   2.633   1.153   8.578  1.6976  2.0310 -1.8450
  528SOL    HW2 1584   2.724   1.261   8.633 -0.5025  3.2552 -0.4744
  529SOL     OW 1585   4.457   4.941   9.321 -0.1420 -0.3162  0.2530
  529SOL    HW1 1586   4.460   4.959   9.415  1.1749  1.2415 -0.0489
  529SOL    HW2 1587   4.506   5.013   9.281 -0.5055 -1.0549 -1.6205
  530SOL     OW 1588   2.101   4.289   7.739  0.3199 -0.5918 -0.5541
  530SOL    HW1 1589   2.116   4.311   7.831 -1.4889 -3.7878  0.7163
  530SOL    HW2 1590   2.178   4.238   7.714  2.0197  2.3734 -1.7664
  531SOL     OW 1591   0.218   4.763   9.785  0.4101  0.1776  0.2505
  531SOL    HW1 1592   0.184   4.730   9.702  0.1062 -2.6921  1.4164
  531SOL    HW2 1593   0.216   4.688   9.844  0.3523  2.1496  2.9739
  532SOL     OW 1594   0.999   4.453   8.919  0.1134  0.6804  0.3354
  532SOL    HW1 1595   1.039   4.400   8.850  0.6436  1.0186  0.3721
  532SOL    HW2 1596   0.906   4.434   8.913 -0.0561  1.7800 -1.4353
  533SOL     OW 1597   2.219   1.280   7.442 -0.1435  0.6120 -0.0617
  533SOL    HW1 1598   2.219   1.186   7.428 -0.9673  0.5776  0.0982
  533SOL    HW2 1599   2.164   1.293   7.519  1.5422  1.0735  1.1099
  534SOL     OW 1600   0.951   3.078   9.718  0.1136 -0.2195  0.2199
  534SOL    HW1 1601   0.904   3.023   9.655 -2.2693  1.6482  0.2279
  534SOL    HW2 1602   1.004   3.137   9.664  1.3487 -1.3462  0.1609
  535SOL     OW 1603   0.833   4.526   8.407  0.3661 -0.1752  0.2984
  535SOL    HW1 1604   0.746   4.505   8.374  0.2795 -3.2037  1.9778
  535SOL    HW2 1605   0.888   4.532   8.329 -1.1329  0.7392 -0.7317
  536SOL     OW 1606   0.820   4.761   8.888 -0.1007  0.0806  0.2463
  536SOL    HW1 1607   0.736   4.800   8.912 -0.9300 -1.1640 -0.5232
  536SOL    HW2 1608   0.805   4.722   8.802  1.1949 -0.3925  0.2055
  537SOL     OW 1609   1.800   3.430   8.504 -0.0605  0.8008 -0.0722
  537SOL    HW1 1610   1.822   3.422   8.412 -0.9629  0.8770 -0.3073
  537SOL    HW2 1611   1.715   3.475   8.505 -1.8948 -2.3651  0.5842
  538SOL     OW 1612   2.399   2.741   9.597  0.2036 -0.8201 -0.1049
  538SOL    HW1 1613   2.325   2.683   9.579 -0.2900 -0.2755  0.1360
  538SOL    HW2 1614   2.469   2.683   9.627  1.3299 -1.9384 -4.2060
  539SOL     OW 1615   0.101   3.260   9.075  0.2418 -0.3126 -0.2521
  539SOL    HW1 1616   0.130   3.305   9.155 -1.2732  0.7363 -0.2498
  539SOL    HW2 1617   0.046   3.189   9.107 -0.7171  0.3671 -0.3366
  540SOL     OW 1618   0.662   4.383   8.826 -0.1508 -0.2945 -0.3085
  540SOL    HW1 1619   0.711   4.304   8.850  0.9934  0.5455  0.2504
  540SOL    HW2 1620   0.596   4.392   8.894  0.2088 -0.3642  0.0553
  541SOL     OW 1621   0.578   0.271   8.549  0.2022 -1.0472 -0.0493
  541SOL    HW1 1622   0.585   0.178   8.573  1.6712 -1.7260 -2.7204
  541SOL    HW2 1623   0.489   0.280   8.515 -0.1448 -1.3106  0.7648
  542SOL     OW 1624   1.982   0.963  10.138  0.7839  0.1470 -0.5782
  542SOL    HW1 1625   1.953   0.906  10.210 -0.0267  0.4444 -0.6532
  542SOL    HW2 1626   1.904   1.014  10.116  1.3555  0.9024 -0.8776
  543SOL     OW 1627   4.757   1.123   8.245  0.3971 -0.0753  0.5784
  543SOL    HW1 1628   4.729   1.058   8.181  1.1298 -1.3995  1.5307
  543SOL    HW2 1629   4.690   1.191   8.242 -0.6039 -1.0547 -0.1974
  544SOL     OW 1630   0.440   2.287   9.712 -0.4275  0.3096  0.1069
  544SOL    HW1 1631   0.465   2.337   9.634  2.6719 -0.3476  0.5517
  544SOL    HW2 1632   0.507   2.220   9.720 -1.2759 -0.3401  2.7326
  545SOL     OW 1633   0.473   1.490   8.164 -0.2866 -0.1491  0.1787
  545SOL    HW1 1634   0.378   1.483   8.155 -0.2785  1.5885 -2.3332
  545SOL    HW2 1635   0.487   1.506   8.258 -2.4793 -0.1989  0.5669
  546SOL     OW 1636   0.342   0.337   9.686 -0.4123 -0.3141  0.0463
  546SOL    HW1 1637   0.358   0.272   9.618 -1.7750  0.0366 -0.6546
  546SOL    HW2 1638   0.428   0.376   9.703 -0.3155  1.2773 -3.2250
  547SOL     OW 1639   4.328   3.149  10.089  0.1257  0.0927 -0.4070
  547SOL    HW1 1640   4.330   3.056  10.068 -0.8977  0.4659 -2.4070
  547SOL    HW2 1641   4.295   3.153  10.179  0.2986 -1.4760 -0.2601
  548SOL     OW 1642   4.723   3.446   8.511  0.3693  0.4562  0.0521
  548SOL    HW1 1643   4.643   3.432   8.561  0.0171  0.0976 -0.5856
  548SOL    HW2 1644   4.771   3.363   8.518  0.4001  0.4641 -0.0562
  549SOL     OW 1645   3.401   0.758   9.809 -0.5171  0.2190  0.0907
  549SOL    HW1 1646   3.424   0.840   9.766  2.7169 -1.3441 -1.5583
  549SOL    HW2 1647   3.355   0.707   9.743 -1.6273  0.2968  0.7791
  550SOL     OW 1648   0.575   3.068   9.490  0.4057 -0.2854 -0.7171
  550SOL    HW1 1649   0.518   3.108   9.425 -0.6190  0.3040  0.5039
  550SOL    HW2 1650   0.523   2.995   9.526  0.3675  0.2790  0.4300
  551SOL     OW 1651   4.286   3.442  10.030  0.4274  0.2207  0.2399
  551SOL    HW1 1652   4.260   3.352  10.013 -0.6857  0.8748 -1.8059
  551SOL    HW2 1653   4.334   3.438  10.113  3.2486 -2.7386 -1.3285
  552SOL     OW 1654   3.282  -0.022   8.988  0.3589 -0.3651 -0.7876
  552SOL    HW1 1655   3.241   0.015   9.066  2.8256  0.1507  0.3768
  552SOL    HW2 1656   3.278   0.049   8.924 -1.2278 -0.6196 -1.0200
  553SOL     OW 1657   2.808   0.711  10.312 -0.3459  0.5107 -0.2640
  553SOL    HW1 1658   2.802   0.716  10.216  2.0617  1.5093 -0.4431
  553SOL    HW2 1659   2.822   0.802  10.340 -0.7728  0.2016  1.0237
  554SOL     OW 1660   3.767   1.804   7.827  0.0930 -0.0112  0.4202
  554SOL    HW1 1661   3.791   1.727   7.880  0.6909 -0.7429 -0.8415
  554SOL    HW2 1662   3.850   1.852   7.817 -0.4701  1.3707  2.0270
  555SOL     OW 1663   0.488   0.667   9.918  0.8634 -0.3295  0.3344
  555SOL    HW1 1664   0.569   0.718   9.913  0.0690  1.1573  1.6511
  555SOL    HW2 1665   0.513   0.578   9.892  2.7350  0.2663 -0.0167
  556SOL     OW 1666   3.321   4.191   8.954  0.4802  0.0018  0.8102
  556SOL    HW1 1667   3.290   4.227   8.872  1.2014 -0.1387  0.4651
  556SOL    HW2 1668   3.251   4.208   9.017  0.5401  1.4367  0.5140
  557SOL     OW 1669   0.140   3.752   6.613 -0.1822 -0.5410  0.4550
  557SOL    HW1 1670   0.214   3.803   6.646  2.0453 -1.9859 -1.8717
  557SOL    HW2 1671   0.108   3.801   6.537 -0.1085 -0.9948  0.1217
  558SOL     OW 1672   1.195   4.514   9.823  0.0677  0.4427 -0.2450
  558SOL    HW1 1673   1.250   4.447   9.782  1.3149  2.0920 -1.3846
  558SOL    HW2 1674   1.246   4.595   9.816 -1.5804  1.6155  0.6708
  559SOL     OW 1675   4.872   0.421   8.055  0.0520 -0.5357 -0.1557
  559SOL    HW1 1676   4.901   0.484   7.988 -0.0791 -1.5775 -1.2206
  559SOL    HW2 1677   4.839   0.476   8.126  0.1375  0.6067 -0.9624
  560SOL     OW 1678   3.080   3.106   7.589 -0.6672  0.5654  0.1992
  560SOL    HW1 1679   3.027   3.029   7.567  0.3729  0.4262 -2.1750
  560SOL    HW2 1680   3.050   3.132   7.676 -3.7565 -0.2037 -0.5086
  561SOL     OW 1681   0.049   4.648   8.136 -0.2739  0.1797 -0.1091
  561SOL    HW1 1682   0.144   4.650   8.124  0.1005  1.3688  2.3741
  561SOL    HW2 1683   0.031   4.721   8.196 -2.3351 -1.7772  1.8495
  562SOL     OW 1684   1.314   4.527  10.366 -0.0627 -0.1482 -0.6138
  562SOL    HW1 1685   1.367   4.459  10.325 -0.8188 -0.2001 -1.5519
  562SOL    HW2 1686   1.262   4.481  10.432  0.7541 -0.1604  0.0340
  563SOL     OW 1687   4.034   0.789   9.877 -0.1928  0.0362  0.0916
  563SOL    HW1 1688   4.071   0.878   9.877 -1.0702  0.4288 -1.5425
  563SOL    HW2 1689   3.945   0.800   9.909 -0.4642 -0.1843 -0.5847
  564SOL     OW 1690   3.824   4.489   8.932  0.6017  0.4851  0.3428
  564SOL    HW1 1691   3.839   4.395   8.927 -1.5678  0.0898  0.1633
  564SOL    HW2 1692   3.911   4.527   8.938  1.6327 -1.4282 -1.3217
  565SOL     OW 1693   4.738   4.721   8.720 -0.1956  0.3476 -0.0145
  565SOL    HW1 1694   4.750   4.748   8.629  0.2606 -1.0453 -0.3945
  565SOL    HW2 1695   4.679   4.646   8.716 -1.0560  0.9453  0.9570
  566SOL     OW 1696   0.649   2.081   9.021 -0.2461  0.1405 -0.9588
  566SOL    HW1 1697   0.724   2.137   9.045  1.7484 -1.7026 -2.4854
  566SOL    HW2 1698   0.572   2.134   9.043  1.4801  2.5595 -0.2490
  567SOL     OW 1699   2.306   4.076   8.654  0.6034 -0.0204 -0.4073
  567SOL    HW1 1700   2.360   4.145   8.614  0.0298  0.0760 -1.0330
  567SOL    HW2 1701   2.370   4.010   8.684  1.1436  0.6833  0.0285
  568SOL     OW 1702   4.336   4.505   9.364  0.7238 -0.6748 -0.3179
  568SOL    HW1 1703   4.395   4.485   9.437  0.0006 -2.4609 -0.1813
  568SOL    HW2 1704   4.386   4.567   9.310  2.5028 -1.6827  0.0825
  569SOL     OW 1705   1.593   0.487   9.611  0.5391  0.0745 -0.0678
  569SOL    HW1 1706   1.562   0.492   9.701 -2.8434 -0.2054 -1.0632
  569SOL    HW2 1707   1.665   0.423   9.613  1.1635  0.7696  2.5048
  570SOL     OW 1708   0.282   0.641   9.530  0.3975 -0.5416 -0.9813
  570SOL    HW1 1709   0.196   0.647   9.490 -0.2812  3.2288  0.5797
  570SOL    HW2 1710   0.267   0.596   9.613  0.8492 -3.6319 -2.4420
  571SOL     OW 1711   0.184   1.495   9.010 -0.5840  0.0880 -0.2887
  571SOL    HW1 1712   0.234   1.474   8.931 -1.2525 -0.1217 -0.6640
  571SOL    HW2 1713   0.186   1.414   9.062  0.9352  0.6084  0.5202
  572SOL     OW 1714   3.616   2.354   4.922 -0.1541  0.0562  0.0816
  572SOL    HW1 1715   3.646   2.269   4.957 -2.3431 -0.8733 -0.1569
  572SOL    HW2 1716   3.653   2.357   4.834  1.5740  0.2895  0.7770
  573SOL     OW 1717   1.902   1.779   6.292 -0.1378  0.0090  0.2360
  573SOL    HW1 1718   1.958   1.849   6.258  0.3941 -0.8208 -0.6663
  573SOL    HW2 1719   1.842   1.760   6.220  1.3151 -2.1096 -0.5154
  574SOL     OW 1720   0.590   3.975   5.677  0.0614 -0.4403  0.1142
  574SOL    HW1 1721   0.668   3.966   5.623 -0.9989  0.1812 -1.6191
  574SOL    HW2 1722   0.544   3.892   5.667 -0.1122 -0.3418  0.0942
  575SOL     OW 1723   2.108   1.636   5.311  0.0252 -0.1748 -0.0362
  575SOL    HW1 1724   2.129   1.682   5.393  0.3659 -0.3616 -0.0168
  575SOL    HW2 1725   2.125   1.544   5.330 -0.3599 -0.2737 -0.1713
  576SOL     OW 1726   2.474   4.760   6.438  0.0105 -0.0349  0.3419
  576SOL    HW1 1727   2.388   4.798   6.418  0.0881  0.9916  1.7939
  576SOL    HW2 1728   2.460   4.665   6.436 -1.2266  0.1296  0.8630
  577SOL     OW 1729   0.624   3.332   7.012 -0.2308  0.1273  0.0913
  577SOL    HW1 1730   0.578   3.400   7.061  0.1750  0.0270  0.6280
  577SOL    HW2 1731   0.588   3.336   6.924  0.9381  2.1493 -0.3512
  578SOL     OW 1732   1.783   3.888   5.115  0.5405  0.6942 -0.3436
  578SOL    HW1 1733   1.788   3.868   5.209 -0.2041  2.5667  0.1354
  578SOL    HW2 1734   1.690   3.903   5.098  0.6241  0.0266 -1.4813
  579SOL     OW 1735   1.431   1.963   6.420 -0.1500 -0.0582 -0.0508
  579SOL    HW1 1736   1.373   1.898   6.379 -0.9981  0.4054  0.3963
  579SOL    HW2 1737   1.422   1.948   6.514 -0.3416  0.6866  0.0573
  580SOL     OW 1738   3.190   3.590   6.921 -0.2070 -0.2061  0.4871
  580SOL    HW1 1739   3.163   3.681   6.933  1.0121  0.2767 -0.2580
  580SOL    HW2 1740   3.119   3.539   6.960 -0.6746  1.0653  1.3827
  581SOL     OW 1741   3.273   4.123   5.087  0.5685 -0.6226  0.0806
  581SOL    HW1 1742   3.244   4.211   5.109  0.8956 -0.4834 -0.0432
  581SOL    HW2 1743   3.206   4.090   5.027 -0.5781 -1.1774  1.5933
  582SOL     OW 1744   0.330   3.130   7.134 -0.2743 -0.1574 -0.7087
  582SOL    HW1 1745   0.275   3.119   7.211 -0.0262 -1.2380 -0.6653
  582SOL    HW2 1746   0.419   3.121   7.167  0.0555  2.7125 -0.5823
  583SOL     OW 1747   4.402   0.080   4.905 -0.2165  0.0259  0.1200
  583SOL    HW1 1748   4.419   0.093   4.998  0.4122  0.8691 -0.1002
  583SOL    HW2 1749   4.487   0.095   4.862 -0.6751  0.4994 -0.6606
  584SOL     OW 1750   0.589   0.085   7.640  0.3653 -0.0263 -0.1739
  584SOL    HW1 1751   0.502   0.070   7.604  0.8504  0.3939 -1.5992
  584SOL    HW2 1752   0.646   0.025   7.592  1.1581  1.0922 -0.6766
  585SOL     OW 1753   0.178   3.034   5.604  0.6513 -0.4656 -0.0700
  585SOL    HW1 1754   0.149   2.957   5.555 -0.8789  0.9628 -1.5478
  585SOL    HW2 1755   0.269   3.016   5.626 -0.0814 -3.3831  1.0921
  586SOL     OW 1756   4.953   0.303   9.221  0.2913 -0.1173  0.0971
  586SOL    HW1 1757   5.016   0.342   9.282  0.2412 -0.6361  0.4859
  586SOL    HW2 1758   4.980   0.212   9.215 -2.0581 -1.1052  2.4636
  587SOL     OW 1759   3.976   1.257   5.529  0.1734  0.2361 -0.8766
  587SOL    HW1 1760   4.066   1.244   5.558  0.6550  0.8471 -2.0498
  587SOL    HW2 1761   3.961   1.188   5.464  0.0843  0.6464 -1.2986
  588SOL     OW 1762   1.136   4.554   6.234  0.0163  0.1557  0.4335
  588SOL    HW1 1763   1.068   4.488   6.245  0.9660 -1.0774 -0.7885
  588SOL    HW2 1764   1.219   4.505   6.236  0.7848  1.3785  0.1065
  589SOL     OW 1765   4.701   3.648   5.930  0.7902  0.1063 -0.0973
  589SOL    HW1 1766   4.673   3.691   6.011  3.5994 -1.5798  1.9161
  589SOL    HW2 1767   4.779   3.695   5.903  0.1659  0.3343 -1.6162
  590SOL     OW 1768   3.838   3.676   4.994 -0.0345  0.3454 -0.1660
  590SOL    HW1 1769   3.872   3.636   5.074 -0.5003  0.2242 -0.0274
  590SOL    HW2 1770   3.802   3.760   5.022  2.6121  1.7656 -0.7399
  591SOL     OW 1771   0.772   4.448   5.132  0.3113 -0.3106 -0.5503
  591SOL    HW1 1772   0.843   4.401   5.176  0.3695 -1.6874 -2.0182
  591SOL    HW2 1773   0.811   4.532   5.106  1.3755 -0.9750 -1.1763
  592SOL     OW 1774   3.812   2.808   6.972 -0.3085 -0.6689  0.3210
  592SOL    HW1 1775   3.739   2.809   6.910  0.8185 -0.1092 -1.0582
  592SOL    HW2 1776   3.814   2.719   7.006 -1.3764 -0.7966  0.0731
  593SOL     OW 1777   1.793   2.618   6.060 -0.0540 -0.3535  0.4322
  593SOL    HW1 1778   1.793   2.609   6.155 -0.9887  1.6971  0.6901
  593SOL    HW2 1779   1.885   2.623   6.036  0.2373 -2.1035  1.0463
  594SOL     OW 1780   1.632   2.541   5.515 -0.8083  0.2212  0.1967
  594SOL    HW1 1781   1.633   2.454   5.554 -0.9820  0.1470  0.0328
  594SOL    HW2 1782   1.677   2.596   5.580 -0.3353 -0.0650  0.1193
  595SOL     OW 1783   1.402   3.673   5.983  0.0402 -0.3905  0.0397
  595SOL    HW1 1784   1.350   3.670   5.902  0.9669  0.5382 -0.6199
  595SOL    HW2 1785   1.426   3.766   5.992  1.8597 -0.8454  0.1285
  596SOL     OW 1786   0.073   2.368   5.647  0.7588  0.5385  0.4593
  596SOL    HW1 1787   0.031   2.376   5.732 -1.2700  1.7882 -0.5739
  596SOL    HW2 1788   0.036   2.288   5.609  0.2100  0.9982  0.0168
  597SOL     OW 1789   3.443   1.129   5.934  0.0452  0.8496 -0.0444
  597SOL    HW1 1790   3.367   1.171   5.894 -0.5528  0.9410  1.1460
  597SOL    HW2 1791   3.518   1.181   5.906 -0.1412  0.0190 -2.2846
  598SOL     OW 1792   0.506   2.516   6.019 -0.1600  0.3867 -0.2298
  598SOL    HW1 1793   0.574   2.450   6.033 -0.7947 -0.4034 -0.8438
  598SOL    HW2 1794   0.515   2.540   5.927 -2.1226 -1.3519 -0.9401
  599SOL     OW 1795   1.102   4.301   6.788  0.7697 -0.6721 -0.2078
  599SOL    HW1 1796   1.085   4.388   6.751  1.1044 -0.7275 -0.5019
  599SOL    HW2 1797   1.197   4.290   6.779  0.7958 -0.8605  0.2929
  600SOL     OW 1798   4.674   3.783   6.190 -0.0526 -0.3424  0.1898
  600SOL    HW1 1799   4.767   3.763   6.200  0.4922  0.5733 -2.3149
  600SOL    HW2 1800   4.658   3.855   6.252  1.6415  1.3540 -1.2318
  601SOL     OW 1801   1.680   2.933   6.507 -0.1700  0.5379 -0.0993
  601SOL    HW1 1802   1.603   2.979   6.472 -0.9182 -0.9698 -0.4915
  601SOL    HW2 1803   1.748   2.946   6.441 -1.4545 -1.9834 -2.1012
  602SOL     OW 1804   3.182   4.040   5.498  0.0416  0.0951  0.2842
  602SOL    HW1 1805   3.233   4.096   5.557  1.1063 -0.5404 -0.0071
  602SOL    HW2 1806   3.248   3.994   5.446 -0.8753  0.2460 -1.0335
  603SOL     OW 1807   0.513   1.337   5.709 -0.2366 -0.3381 -0.3280
  603SOL    HW1 1808   0.472   1.393   5.644 -1.4787  2.0078  2.2544
  603SOL    HW2 1809   0.606   1.362   5.707 -0.6034  1.1930  0.0898
  604SOL     OW 1810   1.957   3.789   7.557  0.0410  0.2394 -0.5259
  604SOL    HW1 1811   1.890   3.757   7.616 -0.8969  1.7407 -0.7011
  604SOL    HW2 1812   2.037   3.743   7.582 -1.0184 -1.4933 -0.2284
  605SOL     OW 1813   2.159   3.486   6.485 -0.3663  0.1515 -0.5145
  605SOL    HW1 1814   2.178   3.490   6.579 -0.0435 -3.9441 -0.2470
  605SOL    HW2 1815   2.068   3.456   6.480  0.5243 -2.7712 -1.3052
  606SOL     OW 1816   0.190   1.663   8.716 -0.1530  0.0069 -0.0281
  606SOL    HW1 1817   0.241   1.582   8.720  0.6636  0.4697 -0.7391
  606SOL    HW2 1818   0.150   1.662   8.629 -3.7653 -1.7206  1.4261
  607SOL     OW 1819   0.390   3.844   5.407 -0.5443 -0.0090 -0.1090
  607SOL    HW1 1820   0.298   3.850   5.431 -0.6797  0.4828 -0.7066
  607SOL    HW2 1821   0.392   3.868   5.314  0.1483 -0.2999 -0.1778
  608SOL     OW 1822   4.116   3.430   5.403 -0.0481  0.1018  0.3993
  608SOL    HW1 1823   4.072   3.362   5.453 -2.7718  2.7181  1.8865
  608SOL    HW2 1824   4.199   3.445   5.449 -1.3281  0.6437  2.6841
  609SOL     OW 1825   1.740   4.621   5.875  0.1234 -0.4708  0.2777
  609SOL    HW1 1826   1.665   4.573   5.910  0.2109  0.7370  2.2701
  609SOL    HW2 1827   1.703   4.673   5.803 -1.1920  0.6915  1.7086
  610SOL     OW 1828   1.190   2.361   6.290  0.2957  0.5245 -0.6909
  610SOL    HW1 1829   1.226   2.418   6.222 -0.7005  2.2287  0.1411
  610SOL    HW2 1830   1.237   2.385   6.369  1.1978 -1.1972 -0.6497
  611SOL     OW 1831   4.757   3.367   5.594  0.3314  0.4883  0.5907
  611SOL    HW1 1832   4.845   3.334   5.609  0.0835 -0.1599  0.6639
  611SOL    HW2 1833   4.709   3.292   5.558 -0.3599  0.6357  1.1719
  612SOL     OW 1834   1.510   1.341   5.712 -0.1228  0.2275  0.3404
  612SOL    HW1 1835   1.467   1.281   5.773 -1.1288  0.2269 -0.3511
  612SOL    HW2 1836   1.445   1.355   5.643 -0.8580  3.7781  1.5240
  613SOL     OW 1837   1.699   1.370   7.381 -0.7348 -0.1050  0.0458
  613SOL    HW1 1838   1.676   1.429   7.309  0.6183  0.4541  0.0471
  613SOL    HW2 1839   1.663   1.412   7.458 -3.3756 -1.3554 -0.3593
  614SOL     OW 1840   3.329   3.359   7.920 -0.1611 -0.1257  0.1449
  614SOL    HW1 1841   3.296   3.353   7.830  1.2720  0.4759 -0.4636
  614SOL    HW2 1842   3.338   3.268   7.947  0.5871 -0.3620 -0.8156
  615SOL     OW 1843   0.071   2.874   7.146  0.5302  0.4206  0.2255
  615SOL    HW1 1844   0.113   2.960   7.146 -2.8066  2.2243 -0.6340
  615SOL    HW2 1845   0.027   2.869   7.061  0.2842 -2.0213  0.4205
  616SOL     OW 1846   1.123   1.809   5.591  0.1847  0.0414 -0.7311
  616SOL    HW1 1847   1.144   1.879   5.654  1.0756 -0.2995 -0.6316
  616SOL    HW2 1848   1.149   1.845   5.506 -2.0849  0.9505 -1.1008
  617SOL     OW 1849   2.055   3.485   7.929  0.4480 -0.0160  0.6764
  617SOL    HW1 1850   1.976   3.446   7.968 -0.9597  1.4905 -0.5029
  617SOL    HW2 1851   2.044   3.471   7.835 -0.5953  3.7475  0.0572
  618SOL     OW 1852   0.059   1.597   6.161 -0.2892 -0.3099  0.4137
  618SOL    HW1 1853  -0.010   1.531   6.171  0.7138 -1.2202  1.6539
  618SOL    HW2 1854   0.125   1.574   6.227  0.0014  2.0953  1.0763
  619SOL     OW 1855   0.757   1.057   6.191  0.5307  0.4192  0.5027
  619SOL    HW1 1856   0.812   1.023   6.261 -0.5267 -1.7788  0.3768
  619SOL    HW2 1857   0.814   1.061   6.114  0.7981 -0.8155  0.6204
  620SOL     OW 1858   3.236   2.214   7.568 -0.7747  0.2304 -0.0213
  620SOL    HW1 1859   3.189   2.283   7.522  0.1907  0.4322 -0.7244
  620SOL    HW2 1860   3.172   2.144   7.578 -1.6889  1.1027  0.4555
  621SOL     OW 1861   1.819   4.055   7.014 -0.1216 -0.0305  0.1485
  621SOL    HW1 1862   1.879   4.122   6.980 -0.7202  0.0588 -0.7688
  621SOL    HW2 1863   1.834   4.056   7.109  1.2689  0.0308 -0.0453
  622SOL     OW 1864   1.106   1.870   4.880 -0.2263 -0.4504  0.0162
  622SOL    HW1 1865   1.022   1.837   4.911  0.5097 -1.4208  1.0318
  622SOL    HW2 1866   1.101   1.965   4.894  0.1529 -0.8050  3.5258
  623SOL     OW 1867   2.486   2.488   6.082  0.3731 -0.2073 -0.2453
  623SOL    HW1 1868   2.552   2.460   6.145  1.4495 -0.0803 -1.2989
  623SOL    HW2 1869   2.535   2.517   6.006 -0.9111 -1.6679 -1.7124
  624SOL     OW 1870   4.926   3.716   6.202 -0.2437  0.4929 -0.4153
  624SOL    HW1 1871   4.922   3.668   6.119 -0.3879  1.1421 -0.7933
  624SOL    HW2 1872   4.935   3.648   6.269  4.1051 -0.0146 -1.1816
  625SOL     OW 1873   4.030   3.609   7.944 -0.2446 -0.4198 -0.3664
  625SOL    HW1 1874   3.983   3.593   7.862 -1.9815 -1.5830  0.7931
  625SOL    HW2 1875   3.972   3.576   8.012  1.0137  0.7910  1.3884
  626SOL     OW 1876   0.218   4.510   6.335 -0.0420 -0.0712  0.3908
  626SOL    HW1 1877   0.298   4.562   6.340  0.2009 -0.3032 -0.8222
  626SOL    HW2 1878   0.150   4.571   6.309 -0.1413  0.0109  0.8423
  627SOL     OW 1879   4.592   3.165   5.511 -0.0896 -0.9360  0.5903
  627SOL    HW1 1880   4.516   3.210   5.547 -0.6049 -0.2291 -1.3055
  627SOL    HW2 1881   4.559   3.083   5.477 -0.4844  0.2345 -2.0913
  628SOL     OW 1882   1.999   2.902   5.125  0.8182  0.0023  0.2952
  628SOL    HW1 1883   2.072   2.906   5.188  0.3735  0.3032  0.7999
  628SOL    HW2 1884   1.921   2.904   5.180  0.4240  0.1931 -0.2746
  629SOL     OW 1885   1.161   2.726   7.587  0.2667  0.2142 -0.3440
  629SOL    HW1 1886   1.139   2.655   7.526 -0.3799 -0.2500  0.3958
  629SOL    HW2 1887   1.147   2.687   7.674 -0.8651  1.4804  0.0675
  630SOL     OW 1888   1.479   0.280   4.928  0.1462  0.2504 -0.2766
  630SOL    HW1 1889   1.570   0.257   4.947  1.1802  1.1442 -3.4884
  630SOL    HW2 1890   1.433   0.269   5.011  3.0985 -0.6020  1.3663
  631SOL     OW 1891   4.833   1.889   7.948 -0.4647  0.0485  0.1261
  631SOL    HW1 1892   4.798   1.926   8.028  2.1162  0.6250  1.0593
  631SOL    HW2 1893   4.928   1.894   7.958 -0.0521 -1.5988 -2.1631
  632SOL     OW 1894   2.108   2.863   6.359 -0.0004 -0.8043  0.0480
  632SOL    HW1 1895   2.188   2.915   6.364 -0.3745 -0.3348  2.8818
  632SOL    HW2 1896   2.130   2.781   6.403 -0.8759 -0.8972  0.3358
  633SOL     OW 1897   3.380   3.529   5.076 -0.3113 -0.2406  0.0287
  633SOL    HW1 1898   3.393   3.456   5.015 -0.8441 -1.0513  0.8455
  633SOL    HW2 1899   3.387   3.607   5.022 -0.1757 -0.9132 -0.9621
  634SOL     OW 1900   2.628   1.911   6.091  0.3995  0.1743 -0.4466
  634SOL    HW1 1901   2.713   1.877   6.061  1.9155 -0.5682  3.9814
  634SOL    HW2 1902   2.640   2.006   6.091  1.4828  0.0564  0.6524
  635SOL     OW 1903   0.950   0.930   6.887 -0.4152  0.6282  0.9645
  635SOL    HW1 1904   1.020   0.877   6.925 -1.0845 -0.5994  0.5310
  635SOL    HW2 1905   0.961   1.016   6.928  0.9707  0.2995  1.3447
  636SOL     OW 1906   4.674   3.000   5.776 -0.1729  0.2720  0.2274
  636SOL    HW1 1907   4.650   2.918   5.818 -3.2816  1.9689  2.1041
  636SOL    HW2 1908   4.656   2.986   5.684 -2.0870 -0.7335  0.7070
  637SOL     OW 1909   4.357   1.880   5.816  0.2729  0.0591 -0.2121
  637SOL    HW1 1910   4.365   1.814   5.884  1.4735  0.0757 -0.3229
  637SOL    HW2 1911   4.297   1.945   5.854  0.5056 -0.1896  0.6149
  638SOL     OW 1912   3.672   2.502   7.699  0.0130 -0.3910  0.7470
  638SOL    HW1 1913   3.654   2.408   7.690 -2.2172  0.0814 -0.5632
  638SOL    HW2 1914   3.740   2.520   7.635  0.0407 -1.0202  0.5940
  639SOL     OW 1915   3.261   2.105   7.146  0.9046  0.1087 -0.2539
  639SOL    HW1 1916   3.248   2.014   7.118  1.0549 -0.1159  0.3791
  639SOL    HW2 1917   3.316   2.098   7.225 -0.0371  0.6631  0.4800
  640SOL     OW 1918   0.222   0.489   6.347  0.2865  0.4238 -0.1869
  640SOL    HW1 1919   0.230   0.467   6.440  0.3314  1.7844  0.1638
  640SOL    HW2 1920   0.309   0.470   6.311  0.1762 -0.4171 -0.0359
  641SOL     OW 1921   0.201   1.937   7.605  0.0431 -0.0400 -1.0063
  641SOL    HW1 1922   0.177   1.996   7.677  2.4012 -0.3646  0.1284
  641SOL    HW2 1923   0.210   1.995   7.529  0.1348  0.7385 -0.4176
  642SOL     OW 1924   1.157   2.807   9.986  0.1964 -0.0427  0.1143
  642SOL    HW1 1925   1.219   2.735   9.972  0.8088 -0.0547  2.5671
  642SOL    HW2 1926   1.132   2.800  10.078 -3.6610 -0.1518 -0.7768
  643SOL     OW 1927   4.420   0.976   7.867 -0.1360  0.0486  0.5305
  643SOL    HW1 1928   4.442   0.886   7.841 -1.5769  0.0016 -0.6585
  643SOL    HW2 1929   4.327   0.984   7.849  0.2035  2.1768 -0.5787
  644SOL     OW 1930   0.737   2.793   5.530 -0.2678 -0.0729  0.5432
  644SOL    HW1 1931   0.649   2.766   5.559 -0.3948  0.0153  0.2482
  644SOL    HW2 1932   0.722   2.876   5.484 -0.1668 -0.5331 -0.3384
  645SOL     OW 1933   4.975   0.280   5.595  0.2348  0.3368 -0.1150
  645SOL    HW1 1934   5.032   0.338   5.646  0.4935  0.4023 -0.4743
  645SOL    HW2 1935   4.900   0.265   5.652  1.1353 -0.6865  0.8697
  646SOL     OW 1936   0.333   3.304   5.229 -0.3232 -0.8468  0.2876
  646SOL    HW1 1937   0.368   3.224   5.269  1.0806 -0.7582 -0.7125
  646SOL    HW2 1938   0.250   3.318   5.274  0.3345 -1.7566  1.8828
  647SOL     OW 1939   2.281   2.904   5.598  0.4429  0.4777 -0.0587
  647SOL    HW1 1940   2.311   2.850   5.671  0.1617  0.6672  0.1959
  647SOL    HW2 1941   2.323   2.989   5.613  0.8389  0.3501 -0.4271
  648SOL     OW 1942   0.329   2.713   6.083  0.4191  0.4277 -0.3124
  648SOL    HW1 1943   0.378   2.753   6.154 -1.3535 -0.3688  1.4511
  648SOL    HW2 1944   0.384   2.641   6.054  0.9980  0.5012  0.5675
  649SOL     OW 1945   4.616   0.545   7.194 -0.8613 -0.3034 -0.2100
  649SOL    HW1 1946   4.641   0.454   7.176 -0.4883  0.0531 -1.6670
  649SOL    HW2 1947   4.696   0.585   7.228 -1.1347 -0.5944  0.8200
  650SOL     OW 1948   3.087   4.626   6.707  0.1524 -0.0969 -0.0243
  650SOL    HW1 1949   3.058   4.638   6.617  1.8138  0.9057 -0.4721
  650SOL    HW2 1950   3.046   4.698   6.755  1.2657  0.9111 -0.5198
  651SOL     OW 1951   1.436   4.534   6.603 -0.1575  0.5019 -0.0594
  651SOL    HW1 1952   1.498   4.579   6.660  0.1651  0.5477 -0.4416
  651SOL    HW2 1953   1.410   4.601   6.539  0.8417 -0.0356 -1.0407
  652SOL     OW 1954   0.819   3.559   7.149 -0.5544 -0.0236  0.1771
  652SOL    HW1 1955   0.851   3.506   7.077  0.3110  1.1873 -0.3615
  652SOL    HW2 1956   0.734   3.591   7.120 -1.3487 -1.5331  0.7408
  653SOL     OW 1957   1.636   0.864   5.070 -0.4068  0.0369 -0.3445
  653SOL    HW1 1958   1.576   0.816   5.127  0.2483 -0.8705 -0.3931
  653SOL    HW2 1959   1.655   0.945   5.118 -0.5081 -0.3466  0.3540
  654SOL     OW 1960   4.247   3.257   5.955  0.0218 -0.2552 -0.1430
  654SOL    HW1 1961   4.182   3.194   5.922 -1.0867  1.3093 -1.0846
  654SOL    HW2 1962   4.330   3.225   5.922 -0.5418 -1.1481 -0.7424
  655SOL     OW 1963   1.474   3.234   6.796  0.0289  0.1115 -0.2520
  655SOL    HW1 1964   1.393   3.182   6.794 -0.1301  0.3729 -1.2228
  655SOL    HW2 1965   1.523   3.205   6.719 -0.2970  1.7384 -1.1133
  656SOL     OW 1966   3.630   0.936   7.907 -0.6200 -0.3024 -0.1831
  656SOL    HW1 1967   3.706   0.942   7.849 -0.2850 -1.2881  0.1297
  656SOL    HW2 1968   3.570   0.877   7.862 -0.3506 -1.0860  0.4540
  657SOL     OW 1969   0.366   1.897   5.157  0.0642  0.1462 -0.3555
  657SOL    HW1 1970   0.310   1.930   5.227 -0.1466  0.6193 -0.7373
  657SOL    HW2 1971   0.365   1.802   5.167 -0.8769  0.1458 -0.4019
  658SOL     OW 1972   0.525   3.635   5.540  0.2244  0.3080 -0.1170
  658SOL    HW1 1973   0.442   3.592   5.559  0.4486  0.4350  1.2426
  658SOL    HW2 1974   0.501   3.706   5.480 -0.6138  0.1874  0.0570
  659SOL     OW 1975   0.652   3.350   7.544 -0.3117  0.1720 -0.0301
  659SOL    HW1 1976   0.685   3.409   7.477  0.7327  1.0912  1.2411
  659SOL    HW2 1977   0.613   3.407   7.610  0.7672 -0.4918  1.2567
  660SOL     OW 1978   2.068   2.915   6.932  0.0743 -0.2739  0.2196
  660SOL    HW1 1979   2.100   2.936   6.844 -1.2448  1.9384  0.1975
  660SOL    HW2 1980   2.126   2.964   6.991  0.0770 -0.6068  0.4957
  661SOL     OW 1981   4.357   3.600   5.162 -0.6755 -0.4214 -0.6230
  661SOL    HW1 1982   4.436   3.608   5.215 -1.6870 -1.6786  1.2020
  661SOL    HW2 1983   4.306   3.679   5.183 -0.4688 -0.2519 -0.7667
  662SOL     OW 1984   2.689   3.872   7.467  0.0715  0.3959 -0.6057
  662SOL    HW1 1985   2.600   3.909   7.461  0.0478  0.2920 -0.9155
  662SOL    HW2 1986   2.742   3.944   7.500 -0.3253  0.1448  0.6569
  663SOL     OW 1987   1.033   0.023   5.529 -0.1316  0.5138 -0.1942
  663SOL    HW1 1988   0.946   0.016   5.569 -0.1729 -1.3414 -0.5523
  663SOL    HW2 1989   1.070   0.102   5.568 -1.5733  0.7729  0.7418
  664SOL     OW 1990   0.789   4.193   5.536  0.9261  0.6330  0.4230
  664SOL    HW1 1991   0.697   4.213   5.548  1.0709  0.7214  1.4791
  664SOL    HW2 1992   0.790   4.104   5.500  0.4307  0.6830  0.2822
  665SOL     OW 1993   4.962   3.755   5.863  0.1670  0.0326  0.0131
  665SOL    HW1 1994   4.993   3.789   5.780  0.9596 -0.5950  0.0374
  665SOL    HW2 1995   5.008   3.807   5.929  0.7495 -0.5206  0.0503
  666SOL     OW 1996   4.728   3.224   6.329  0.0987 -0.2200  0.0300
  666SOL    HW1 1997   4.655   3.223   6.267  1.0632  1.8036 -1.2616
  666SOL    HW2 1998   4.795   3.169   6.287  0.9190  1.5078 -1.0331
  667SOL     OW 1999   2.087   3.384   5.750 -0.6324 -0.3903 -0.4481
  667SOL    HW1 2000   2.079   3.426   5.836 -0.5443 -0.5627 -0.3549
  667SOL    HW2 2001   2.049   3.447   5.689 -0.1748 -0.0251 -0.3548
  668SOL     OW 2002   0.882   1.785   6.462 -0.2293  0.3189 -0.3383
  668SOL    HW1 2003   0.924   1.871   6.461 -0.3859  0.4072  0.5577
  668SOL    HW2 2004   0.819   1.789   6.389  1.1095  0.2641 -1.5463
  669SOL     OW 2005   3.601   1.977   5.356  0.6919 -0.2670  0.5450
  669SOL    HW1 2006   3.518   1.945   5.391  0.8187 -1.9232 -0.5132
  669SOL    HW2 2007   3.660   1.979   5.432  0.3125 -1.4330  0.9027
  670SOL     OW 2008   4.046   1.154   8.423 -0.3349 -0.2660  0.2816
  670SOL    HW1 2009   4.137   1.161   8.395 -0.0189  0.8647  1.4472
  670SOL    HW2 2010   4.042   1.074   8.475 -0.1475 -0.5897 -0.1921
  671SOL     OW 2011   0.813   2.319   6.370  0.6229  0.1925 -0.8065
  671SOL    HW1 2012   0.866   2.243   6.394  0.1198 -0.4295 -1.5749
  671SOL    HW2 2013   0.753   2.285   6.302 -0.3883  0.9949 -0.3417
  672SOL     OW 2014   2.439   3.131   5.691 -0.4021  0.6208  0.2922
  672SOL    HW1 2015   2.525   3.088   5.691 -0.2687  0.7979  1.9573
  672SOL    HW2 2016   2.456   3.219   5.725 -1.0137  1.2377 -0.9462
  673SOL     OW 2017   2.502   1.702   5.942  0.1992 -0.0210  0.0143
  673SOL    HW1 2018   2.420   1.734   5.904  0.7556  0.7270 -0.5846
  673SOL    HW2 2019   2.538   1.778   5.987  0.5632 -0.3520  0.2799
  674SOL     OW 2020   1.797   3.336   5.728 -0.3137  0.0989  0.3000
  674SOL    HW1 2021   1.840   3.275   5.667 -0.8282 -0.2190  0.2522
  674SOL    HW2 2022   1.731   3.283   5.772  1.8266 -0.4389  3.1437
  675SOL     OW 2023   0.281   1.444   5.535  0.2755 -0.0682  0.6081
  675SOL    HW1 2024   0.273   1.369   5.476  0.9118 -0.6154  1.2088
  675SOL    HW2 2025   0.228   1.420   5.611 -0.5433  0.6359  0.2792
  676SOL     OW 2026   3.753   3.780   6.429 -0.3782 -0.7997 -0.0484
  676SOL    HW1 2027   3.803   3.796   6.348 -0.6363 -1.6348 -0.3882
  676SOL    HW2 2028   3.728   3.688   6.423 -2.1522 -0.3451  0.0043
  677SOL     OW 2029   4.722   2.900   5.245 -0.2884 -0.0652  0.0678
  677SOL    HW1 2030   4.667   2.856   5.310  0.9164 -0.4748  0.8475
  677SOL    HW2 2031   4.663   2.959   5.199 -1.6426 -1.4210 -0.0035
  678SOL     OW 2032   1.211   3.180   5.995  0.2197  0.2148  0.5608
  678SOL    HW1 2033   1.172   3.216   6.074  1.7003 -0.1641  1.5105
  678SOL    HW2 2034   1.245   3.094   6.022 -0.4342 -0.5289 -0.8398
  679SOL     OW 2035   1.686   3.022   5.591  0.4003 -0.2364 -0.4128
  679SOL    HW1 2036   1.651   3.103   5.552 -0.4305 -0.2553  0.2907
  679SOL    HW2 2037   1.772   3.013   5.550  0.1609  0.5495 -1.1382
  680SOL     OW 2038   2.651   3.560   6.950  0.3828  0.2743  0.4064
  680SOL    HW1 2039   2.563   3.578   6.917 -0.6995 -0.8595  2.5032
  680SOL    HW2 2040   2.670   3.471   6.918 -0.1185 -0.2987  1.6609
  681SOL     OW 2041   0.788   2.139   5.399 -0.1381  0.2715  0.0550
  681SOL    HW1 2042   0.698   2.169   5.409 -0.6297 -1.5557  1.6202
  681SOL    HW2 2043   0.835   2.178   5.472 -0.5637 -1.8206  1.5188
  682SOL     OW 2044   1.163   0.862   5.693  0.3318  0.2365  0.1540
  682SOL    HW1 2045   1.139   0.773   5.667 -1.2924  0.5214  0.5922
  682SOL    HW2 2046   1.241   0.850   5.748 -0.3403 -1.0029  0.8834
  683SOL     OW 2047   1.351   3.506   7.160  0.1564  0.5488  0.3314
  683SOL    HW1 2048   1.396   3.482   7.241 -1.0520 -1.9635  0.3571
  683SOL    HW2 2049   1.265   3.463   7.166 -0.4776  1.3737 -1.7177
  684SOL     OW 2050   4.538   4.863   5.857 -1.1093  0.0504  0.2260
  684SOL    HW1 2051   4.453   4.821   5.870 -1.1500 -0.0419 -0.2965
  684SOL    HW2 2052   4.517   4.942   5.806 -0.8626 -0.0494 -0.0281
  685SOL     OW 2053   1.889   1.896   7.218 -0.3962  0.1622 -0.6267
  685SOL    HW1 2054   1.982   1.894   7.199 -0.0777  1.9663  0.5027
  685SOL    HW2 2055   1.872   1.812   7.261  1.2062  0.6730  1.1269
  686SOL     OW 2056   1.205   0.380   6.105  0.0754  0.1839  0.0681
  686SOL    HW1 2057   1.226   0.432   6.183 -0.8406  0.1374  0.3528
  686SOL    HW2 2058   1.136   0.430   6.060 -1.0201 -0.9090  0.4941
  687SOL     OW 2059   0.227   1.993   5.366 -0.4744 -0.4372 -0.5354
  687SOL    HW1 2060   0.246   1.966   5.456  1.0421  2.3006  0.0836
  687SOL    HW2 2061   0.155   2.055   5.374  0.1102  0.3361 -1.1151
  688SOL     OW 2062   2.178   2.518   5.083 -0.1567  0.1603 -0.0980
  688SOL    HW1 2063   2.254   2.558   5.124  1.6841 -0.5451 -2.5868
  688SOL    HW2 2064   2.123   2.593   5.057 -0.0133  0.7119  1.1340
  689SOL     OW 2065   1.452   1.916   6.674  0.1346  0.4609 -0.1432
  689SOL    HW1 2066   1.383   1.972   6.709 -0.9143 -1.3110  0.7981
  689SOL    HW2 2067   1.486   1.869   6.751  0.9219 -0.2392 -0.8959
  690SOL     OW 2068   0.349   2.930   4.933 -0.5916  0.0311 -0.1426
  690SOL    HW1 2069   0.299   2.854   4.964 -0.5364  0.5411  1.2319
  690SOL    HW2 2070   0.438   2.898   4.925 -0.4100  0.1301  1.2209
  691SOL     OW 2071   0.794   4.237   6.336  0.2011 -0.1687  0.4399
  691SOL    HW1 2072   0.850   4.193   6.272 -1.5788 -1.3214 -0.4101
  691SOL    HW2 2073   0.841   4.318   6.357  2.2851 -1.2054  0.0093
  692SOL     OW 2074   2.401   1.901   6.747 -0.0178 -0.1226 -0.0444
  692SOL    HW1 2075   2.464   1.937   6.809  0.1836  1.3422 -1.0557
  692SOL    HW2 2076   2.415   1.950   6.666  0.0687 -2.3198 -1.4384
  693SOL     OW 2077   0.621   2.532   5.762 -0.1098  0.9186 -0.1612
  693SOL    HW1 2078   0.716   2.523   5.751 -0.1590  1.9612 -1.7076
  693SOL    HW2 2079   0.587   2.537   5.673 -1.7637 -0.5070  0.3415
  694SOL     OW 2080   4.107   2.694   8.354 -0.5101  0.7353  0.1860
  694SOL    HW1 2081   4.017   2.726   8.347 -1.1333 -1.0082 -0.0297
  694SOL    HW2 2082   4.115   2.628   8.285  0.5739  0.0443  0.9521
  695SOL     OW 2083   2.467   2.660   5.577 -0.3175 -0.5159 -0.1031
  695SOL    HW1 2084   2.395   2.652   5.515 -0.7823 -1.4988  0.5279
  695SOL    HW2 2085   2.486   2.754   5.581 -1.6098 -0.2337 -0.2318
  696SOL     OW 2086   4.384   2.884   6.907  0.2171  0.0500 -0.4020
  696SOL    HW1 2087   4.419   2.973   6.897  0.7965 -0.2429 -1.0595
  696SOL    HW2 2088   4.411   2.839   6.827  1.4262 -1.2231  0.6844
  697SOL     OW 2089   1.892   4.690   6.089  0.1808 -0.2931  0.0189
  697SOL    HW1 2090   1.838   4.675   6.011 -0.1691 -0.0549  0.2105
  697SOL    HW2 2091   1.972   4.730   6.055 -0.5933  1.2523 -0.0919
  698SOL     OW 2092   1.251   4.093   6.984 -0.2333 -0.2688 -1.1593
  698SOL    HW1 2093   1.230   4.036   7.058  1.5074  1.0436  0.4794
  698SOL    HW2 2094   1.345   4.081   6.970  0.2515  2.1798 -0.6345
  699SOL     OW 2095   3.282   1.462   6.107 -0.5065 -0.2157  0.3879
  699SOL    HW1 2096   3.243   1.535   6.156 -0.3510  0.5464 -0.5948
  699SOL    HW2 2097   3.342   1.421   6.170 -1.2870 -0.0809  1.2460
  700SOL     OW 2098   0.281   0.773   5.008 -0.3376 -0.2394 -0.2808
  700SOL    HW1 2099   0.207   0.790   5.065 -1.3007 -2.5466 -0.7312
  700SOL    HW2 2100   0.322   0.859   4.994 -3.1534  1.1906 -0.3663
  701SOL     OW 2101   0.909   1.374   5.912  0.3266  0.1464  0.0538
  701SOL    HW1 2102   0.896   1.415   5.827  2.7465 -0.9806 -0.9633
  701SOL    HW2 2103   0.847   1.301   5.913  0.6769 -0.1886 -1.0377
  702SOL     OW 2104   1.468   2.216   6.466 -0.2603  0.6298 -0.1125
  702SOL    HW1 2105   1.436   2.131   6.437 -0.6016  0.5780  0.4067
  702SOL    HW2 2106   1.487   2.203   6.559 -1.5571  1.4743  0.2897
  703SOL     OW 2107   4.217   2.977   5.200  0.4851 -0.5664  0.2538
  703SOL    HW1 2108   4.247   2.993   5.110  0.4460 -1.1465  0.1375
  703SOL    HW2 2109   4.128   2.945   5.190  0.1765  0.1688  0.5516
  704SOL     OW 2110   2.597   4.908   6.630 -0.0251  0.6271 -0.2031
  704SOL    HW1 2111   2.655   4.943   6.562 -0.5509  0.0914 -0.9393
  704SOL    HW2 2112   2.533   4.855   6.582 -0.0654 -0.2221  0.7670
  705SOL     OW 2113   4.687   2.034   6.041 -0.0881  0.5892  0.1501
  705SOL    HW1 2114   4.611   1.980   6.063  0.3476  0.6390  1.9309
  705SOL    HW2 2115   4.758   1.999   6.095  1.0689  0.7984 -1.1852
  706SOL     OW 2116   1.113   3.531   9.921 -0.2650 -0.1336  0.1432
  706SOL    HW1 2117   1.018   3.528   9.909 -0.2014  0.1953 -0.4788
  706SOL    HW2 2118   1.132   3.621   9.946  0.0546  0.2346 -1.3616
  707SOL     OW 2119   0.337   4.633   5.006  0.2029  0.6290 -0.0099
  707SOL    HW1 2120   0.402   4.575   5.045  1.3094  0.9374 -1.3078
  707SOL    HW2 2121   0.298   4.582   4.935  1.0507  1.3745 -1.0415
  708SOL     OW 2122   4.827   1.415   6.175 -0.3481 -0.0783 -0.7659
  708SOL    HW1 2123   4.797   1.441   6.263 -1.8186  0.5182 -1.4146
  708SOL    HW2 2124   4.822   1.320   6.176 -1.9485 -0.0121 -0.7160
  709SOL     OW 2125   1.656   1.827   5.334  0.1783 -0.6686  0.0551
  709SOL    HW1 2126   1.731   1.771   5.315  0.7687 -0.5557  1.8785
  709SOL    HW2 2127   1.635   1.868   5.250  2.3004 -0.5269 -0.4552
  710SOL     OW 2128   1.759   3.717   7.733  0.4700 -0.0537 -0.5764
  710SOL    HW1 2129   1.802   3.750   7.812 -0.6162 -1.1415  0.5066
  710SOL    HW2 2130   1.669   3.748   7.740  0.9041  1.8884 -2.6404
  711SOL     OW 2131   0.677   1.829   7.355  0.4136  0.2711  0.1617
  711SOL    HW1 2132   0.729   1.803   7.431 -0.4043 -1.5543  0.1403
  711SOL    HW2 2133   0.587   1.808   7.378  0.0395  0.5116 -0.9839
  712SOL     OW 2134   2.643   4.587   6.816  0.4807  0.1043  0.1568
  712SOL    HW1 2135   2.706   4.514   6.816  0.5326  0.1473  0.3649
  712SOL    HW2 2136   2.557   4.544   6.816  0.5105  0.0442 -0.0428
  713SOL     OW 2137   4.390   1.275   5.564 -0.0806 -0.8091 -0.2450
  713SOL    HW1 2138   4.319   1.237   5.616  0.9245 -0.6237  1.3164
  713SOL    HW2 2139   4.357   1.362   5.540 -1.8693 -2.0427 -2.7577
  714SOL     OW 2140   1.218   3.594   4.993 -0.2804 -0.4223  0.3616
  714SOL    HW1 2141   1.291   3.542   4.958  0.4947  0.7904  0.1156
  714SOL    HW2 2142   1.161   3.530   5.035  2.0766 -1.2166  2.6301
  715SOL     OW 2143   2.613   0.853   7.088  0.1564 -0.4186 -0.5710
  715SOL    HW1 2144   2.525   0.891   7.081 -0.2617 -1.2911 -0.2435
  715SOL    HW2 2145   2.672   0.929   7.090 -0.6447  0.2065  0.0656
  716SOL     OW 2146   0.950   3.717   5.351  0.2122 -0.5561 -0.2492
  716SOL    HW1 2147   0.959   3.739   5.258 -1.6598 -0.5260 -0.4622
  716SOL    HW2 2148   0.879   3.653   5.353 -0.2651 -0.0088  1.2429
  717SOL     OW 2149   0.625   2.832   7.248  0.2351 -0.0150  0.6908
  717SOL    HW1 2150   0.535   2.863   7.238 -0.0181 -0.7422  0.6382
  717SOL    HW2 2151   0.663   2.843   7.161 -0.6628 -2.2901 -0.0677
  718SOL     OW 2152   1.036   0.369   5.289  0.3194  0.7247 -0.3112
  718SOL    HW1 2153   1.046   0.316   5.210 -1.7292 -0.6007  0.2663
  718SOL    HW2 2154   0.949   0.407   5.282  1.0824  2.7072  0.1360
  719SOL     OW 2155   2.860   0.807   5.816  0.7982 -0.2814  0.1075
  719SOL    HW1 2156   2.891   0.726   5.854 -1.6411 -0.1265  2.7813
  719SOL    HW2 2157   2.928   0.871   5.837  1.3383 -1.0351  0.7069
  720SOL     OW 2158   1.656   3.129   5.248 -0.1406  0.3832 -0.3518
  720SOL    HW1 2159   1.692   3.213   5.219 -0.8220  0.7265 -0.2347
  720SOL    HW2 2160   1.601   3.152   5.323 -1.1755 -0.0256 -0.9681
  721SOL     OW 2161   2.022   4.627   5.087  0.4973 -0.2779 -0.2270
  721SOL    HW1 2162   1.964   4.598   5.158  0.6712 -1.3475 -0.5035
  721SOL    HW2 2163   1.989   4.713   5.063 -0.8552 -0.7700 -0.2236
  722SOL     OW 2164   2.133   4.370   5.583 -0.3336  0.3547  0.0208
  722SOL    HW1 2165   2.141   4.435   5.513 -2.1033 -0.9958 -1.5428
  722SOL    HW2 2166   2.060   4.401   5.636 -0.5125  0.1762 -0.1198
  723SOL     OW 2167   4.609   2.305   6.175 -0.3678 -0.0563 -0.2023
  723SOL    HW1 2168   4.697   2.280   6.203 -0.2225  0.7088  0.0375
  723SOL    HW2 2169   4.571   2.349   6.250 -1.2656 -1.0824 -0.0292
  724SOL     OW 2170   4.056   3.266   5.635  0.5114 -0.2359  0.0820
  724SOL    HW1 2171   4.011   3.194   5.677  0.6727 -0.0924  0.5040
  724SOL    HW2 2172   3.996   3.340   5.642 -0.0816 -0.5743 -1.2455
  725SOL     OW 2173   2.891   4.054   5.490 -0.3683  0.3613 -0.3529
  725SOL    HW1 2174   2.855   3.972   5.456 -0.0349  0.0433  0.0536
  725SOL    HW2 2175   2.986   4.043   5.484 -0.3155  0.5472  0.0990
  726SOL     OW 2176   4.837   0.755   7.255 -0.2606  0.1169  0.6035
  726SOL    HW1 2177   4.863   0.750   7.347 -0.3399  1.3267  0.7178
  726SOL    HW2 2178   4.762   0.815   7.256 -0.9411 -0.7086 -0.1244
  727SOL     OW 2179   1.704   0.672   5.748 -0.3214  0.3992  0.1977
  727SOL    HW1 2180   1.741   0.588   5.773  0.1020  0.4202 -0.3207
  727SOL    HW2 2181   1.647   0.652   5.674 -0.7986  0.4665  0.5458
  728SOL     OW 2182   0.822   2.680   4.901  0.4499 -0.0319  0.1715
  728SOL    HW1 2183   0.851   2.594   4.931 -1.0148 -0.5217  0.2716
  728SOL    HW2 2184   0.841   2.680   4.807  1.6694  0.0687  0.4092
  729SOL     OW 2185   4.482   3.621   6.360  0.3952 -0.1515  0.6887
  729SOL    HW1 2186   4.518   3.639   6.447 -1.1924  1.5661  1.0440
  729SOL    HW2 2187   4.558   3.630   6.302  1.5002 -1.4056  1.8571
  730SOL     OW 2188   3.467   3.412   6.812 -0.7394 -0.5566 -0.1592
  730SOL    HW1 2189   3.481   3.379   6.724 -0.7354 -0.3446 -0.2386
  730SOL    HW2 2190   3.404   3.483   6.801 -0.5153 -0.3368 -0.0280
  731SOL     OW 2191   0.862   3.652   6.254  0.6774 -0.6797 -0.0547
  731SOL    HW1 2192   0.902   3.737   6.275 -0.9811  0.6202 -1.7568
  731SOL    HW2 2193   0.863   3.648   6.159 -0.0896 -2.1876 -0.0287
  732SOL     OW 2194   2.699   4.745   5.978 -0.2185 -0.2611  0.8659
  732SOL    HW1 2195   2.738   4.660   5.959  0.2147  0.4763 -1.9397
  732SOL    HW2 2196   2.770   4.808   5.965 -0.8374  0.6476  1.7350
  733SOL     OW 2197   1.167   3.397   7.373 -0.0862  0.0789 -0.1413
  733SOL    HW1 2198   1.224   3.333   7.416  0.3634  0.8022  0.3449
  733SOL    HW2 2199   1.166   3.370   7.281  1.1197  0.1253 -0.1787
  734SOL     OW 2200   2.705   2.901   6.270 -0.2972  0.5667 -0.1649
  734SOL    HW1 2201   2.709   2.806   6.282  0.9042  0.2516 -2.3729
  734SOL    HW2 2202   2.749   2.938   6.346 -2.1878 -0.5112  1.5385
  735SOL     OW 2203   3.050   1.393   6.903  0.0427  0.1257  0.1100
  735SOL    HW1 2204   2.963   1.388   6.863  0.0126 -1.9575  0.3116
  735SOL    HW2 2205   3.105   1.434   6.836 -0.5854 -0.7956 -0.9943
  736SOL     OW 2206   3.697   1.441   6.074  0.0906  0.2501 -0.6832
  736SOL    HW1 2207   3.635   1.513   6.089 -1.8408 -1.1457 -1.4574
  736SOL    HW2 2208   3.673   1.408   5.987  0.2240 -1.9680  0.0802
  737SOL     OW 2209   2.162   2.958   6.087 -0.5106  0.3130  0.2862
  737SOL    HW1 2210   2.124   2.887   6.139  0.8311 -0.5345  0.1593
  737SOL    HW2 2211   2.094   2.982   6.025 -1.5833  0.2877  1.4065
  738SOL     OW 2212   1.542   4.437   5.375  0.1494 -1.1053 -0.3291
  738SOL    HW1 2213   1.562   4.421   5.467 -0.4734  1.8487  0.4023
  738SOL    HW2 2214   1.544   4.350   5.335  0.5349 -2.4681  2.4246
  739SOL     OW 2215   4.591   2.813   5.547  0.2001 -0.6462  0.0916
  739SOL    HW1 2216   4.562   2.728   5.582  1.7012 -1.8029 -1.3072
  739SOL    HW2 2217   4.683   2.799   5.525  0.5614  1.4699  0.0981
  740SOL     OW 2218   1.092   0.622   6.639  0.6316 -0.3221 -0.0362
  740SOL    HW1 2219   1.141   0.701   6.663  0.0661 -0.1898  0.7588
  740SOL    HW2 2220   1.079   0.576   6.723  0.5158 -0.9974 -0.4185
  741SOL     OW 2221   2.590   4.470   8.160  0.1760  0.1272 -0.3153
  741SOL    HW1 2222   2.561   4.532   8.227  1.2191  0.5101 -0.2097
  741SOL    HW2 2223   2.678   4.445   8.187  0.6423  0.3406 -1.5753
  742SOL     OW 2224   3.941   1.627   6.806  0.3030  0.5119  0.1551
  742SOL    HW1 2225   3.982   1.606   6.890  0.2921  0.3466  0.1192
  742SOL    HW2 2226   3.965   1.719   6.790 -0.1521  0.7157  0.6010
  743SOL     OW 2227   2.078   4.528   8.227 -0.0108 -0.4359  0.1086
  743SOL    HW1 2228   2.051   4.448   8.272 -0.8634  0.8463  2.0185
  743SOL    HW2 2229   2.078   4.595   8.295 -2.1389  1.8263 -1.8937
  744SOL     OW 2230   3.686   3.635   5.402 -0.3927  0.0773 -0.3873
  744SOL    HW1 2231   3.705   3.578   5.475 -0.7172  2.4033  1.6496
  744SOL    HW2 2232   3.736   3.599   5.329  0.3569 -2.0403  1.0958
  745SOL     OW 2233   2.329   2.319   6.477 -0.0413 -0.8322 -0.3347
  745SOL    HW1 2234   2.265   2.364   6.532  0.9451 -0.9106  0.9301
  745SOL    HW2 2235   2.410   2.369   6.488  0.7086 -2.0478 -0.0347
  746SOL     OW 2236   2.890   3.627   6.636  0.6876 -0.2497 -0.2486
  746SOL    HW1 2237   2.951   3.678   6.689 -0.5726  1.8194 -0.6265
  746SOL    HW2 2238   2.880   3.679   6.556 -1.6606 -0.3635 -0.1126
  747SOL     OW 2239   3.040   4.437   5.667 -0.1394 -0.2032 -0.0367
  747SOL    HW1 2240   3.085   4.482   5.739 -1.2198  2.5965 -0.9750
  747SOL    HW2 2241   3.013   4.354   5.704 -0.1973  0.9084  2.6482
  748SOL     OW 2242   1.551   2.654   6.561 -0.0750 -0.2296 -0.2378
  748SOL    HW1 2243   1.611   2.727   6.577 -0.0147 -0.1677 -0.7244
  748SOL    HW2 2244   1.604   2.576   6.575 -0.5087 -0.2208  1.7320
  749SOL     OW 2245   4.134   2.458   5.785 -0.6111 -0.0636  0.1347
  749SOL    HW1 2246   4.123   2.522   5.855 -0.8669  0.0936 -0.0484
  749SOL    HW2 2247   4.045   2.434   5.760 -0.5372  0.4601 -0.6665
  750SOL     OW 2248   3.944   4.411   6.158 -0.4513  0.5879  0.5318
  750SOL    HW1 2249   3.930   4.496   6.115 -0.1603 -0.4384 -1.7299
  750SOL    HW2 2250   4.036   4.392   6.142 -0.2953  0.2172  1.7959
  751SOL     OW 2251   1.350   0.528   5.452 -0.8857  0.5877 -0.0306
  751SOL    HW1 2252   1.358   0.434   5.438  1.9576  0.5845  1.0852
  751SOL    HW2 2253   1.286   0.556   5.386  1.4665 -1.4590 -3.4954
  752SOL     OW 2254   3.912   1.714   5.282 -0.2604 -0.0942 -0.1388
  752SOL    HW1 2255   3.834   1.696   5.229  0.3972  0.9276 -1.5178
  752SOL    HW2 2256   3.954   1.788   5.238  1.1562 -0.2237  0.9391
  753SOL     OW 2257   4.988   1.353   5.281 -0.5082  0.5601  0.1305
  753SOL    HW1 2258   4.923   1.308   5.227 -1.1206  0.6818  0.7449
  753SOL    HW2 2259   4.988   1.443   5.248 -0.0579  0.3687 -0.4003
  754SOL     OW 2260   1.562   3.588   6.415 -0.2278 -0.2274 -0.0453
  754SOL    HW1 2261   1.567   3.493   6.414  1.0735 -0.2155  1.3336
  754SOL    HW2 2262   1.477   3.607   6.455 -0.0148 -0.8287  0.7087
  755SOL     OW 2263   0.902   2.734   7.030  0.0494  0.3662 -0.0207
  755SOL    HW1 2264   0.828   2.795   7.025  1.6707  2.3979 -0.6759
  755SOL    HW2 2265   0.884   2.669   6.961 -1.8598 -0.1452  0.8883
  756SOL     OW 2266   2.198   3.732   6.107  0.1908  0.4517  0.1453
  756SOL    HW1 2267   2.159   3.815   6.137  1.5287  1.0288  0.3421
  756SOL    HW2 2268   2.270   3.759   6.050  1.4025 -0.5473  1.1672
  757SOL     OW 2269   4.749   4.688   5.774  0.0853 -0.3663 -0.0570
  757SOL    HW1 2270   4.714   4.634   5.702  0.5182  0.1076 -0.6353
  757SOL    HW2 2271   4.675   4.743   5.800  0.2432  0.3104 -0.9654
  758SOL     OW 2272   2.659   3.006   5.807 -0.3140 -0.0603  0.0515
  758SOL    HW1 2273   2.636   2.946   5.879  1.8433 -0.0270  0.8390
  758SOL    HW2 2274   2.680   3.088   5.850  3.3480 -0.6874 -0.2641
  759SOL     OW 2275   4.714   0.602   5.893 -0.9368  0.1897  0.5916
  759SOL    HW1 2276   4.748   0.690   5.881 -0.5461 -0.1658 -1.2249
  759SOL    HW2 2277   4.619   0.611   5.884 -0.7895  0.2221 -1.3139
  760SOL     OW 2278   1.917   3.801   5.973 -0.6752 -0.3964 -0.0504
  760SOL    HW1 2279   1.875   3.835   6.052  1.6218  0.0098  1.0629
  760SOL    HW2 2280   1.974   3.872   5.943  1.0749 -1.7640 -0.0721
  761SOL     OW 2281   2.032   1.219   5.126  0.3594 -0.2871 -0.4693
  761SOL    HW1 2282   1.977   1.293   5.098  1.6088  0.6290 -0.5934
  761SOL    HW2 2283   1.976   1.169   5.186  0.0927  1.9110  1.2821
  762SOL     OW 2284   2.784   4.006   6.282  0.2757  0.6395 -0.2510
  762SOL    HW1 2285   2.696   3.985   6.253 -0.2536  0.5655  1.3130
  762SOL    HW2 2286   2.778   4.010   6.378  1.5313  2.5415 -0.1871
  763SOL     OW 2287   0.102   3.178   5.098  0.0554  0.1666 -0.0670
  763SOL    HW1 2288   0.133   3.171   5.007 -0.5432  1.2191 -0.3732
  763SOL    HW2 2289   0.162   3.241   5.138  0.0640  0.0153  0.1569
  764SOL     OW 2290   0.668   2.984   6.239 -0.5633  0.3502 -0.1943
  764SOL    HW1 2291   0.756   2.956   6.215 -1.0032 -1.3827  0.0582
  764SOL    HW2 2292   0.626   2.905   6.274 -1.7940  1.4440  0.9242
  765SOL     OW 2293   0.262   4.413   5.354 -0.4532  0.4520 -0.1692
  765SOL    HW1 2294   0.314   4.335   5.374  1.1957  1.6230  0.2846
  765SOL    HW2 2295   0.311   4.458   5.286 -0.7625  1.6801  0.3856
  766SOL     OW 2296   3.758   4.357   6.758  0.2197  0.1812  0.2395
  766SOL    HW1 2297   3.715   4.302   6.823 -1.0184  1.1000  0.2288
  766SOL    HW2 2298   3.835   4.306   6.732 -0.5747 -1.3022  0.6175
  767SOL     OW 2299   0.567   4.372   6.707  1.0124 -0.3354  0.0530
  767SOL    HW1 2300   0.508   4.393   6.634  0.8791  1.0849  0.5452
  767SOL    HW2 2301   0.511   4.328   6.771  0.7377 -0.0184  0.0327
  768SOL     OW 2302   0.328   3.183   5.992 -0.4932 -0.2317 -0.4488
  768SOL    HW1 2303   0.419   3.184   5.964 -0.1595 -1.5111  0.4962
  768SOL    HW2 2304   0.296   3.271   5.974  0.3814 -0.2726 -2.4873
  769SOL     OW 2305   1.135   3.851   5.558  0.1223 -0.5254  0.0196
  769SOL    HW1 2306   1.212   3.908   5.558 -0.3974  0.2624  1.8583
  769SOL    HW2 2307   1.124   3.826   5.467  1.4874  0.8106 -0.5589
  770SOL     OW 2308   1.450   3.491   8.749  0.1048 -0.1204 -0.2556
  770SOL    HW1 2309   1.503   3.550   8.802  1.0692  0.9334 -2.2572
  770SOL    HW2 2310   1.416   3.426   8.811  1.1335  1.0274  1.6004
  771SOL     OW 2311   0.920   1.920   6.050 -0.8554  0.0689 -0.8067
  771SOL    HW1 2312   0.989   1.863   6.015  0.2161 -0.4302  1.8340
  771SOL    HW2 2313   0.842   1.866   6.051 -0.1340 -1.0282  0.5057
  772SOL     OW 2314   3.635   3.317   5.163  0.2997  0.8326 -0.3458
  772SOL    HW1 2315   3.602   3.261   5.234 -2.0953 -0.1288 -2.1078
  772SOL    HW2 2316   3.728   3.325   5.182  0.4493 -2.3301  0.9972
  773SOL     OW 2317   1.311   4.072   5.633 -0.6155 -0.4023  0.4416
  773SOL    HW1 2318   1.276   4.121   5.707  1.7527  1.5807  0.3398
  773SOL    HW2 2319   1.402   4.055   5.655 -0.6081 -2.2778 -0.8136
  774SOL     OW 2320   1.571   1.592   5.505 -0.1232  0.6364  0.3363
  774SOL    HW1 2321   1.485   1.604   5.547 -0.9876  0.2344 -1.2441
  774SOL    HW2 2322   1.590   1.677   5.466 -0.2939  0.4426 -0.1769
  775SOL     OW 2323   3.054   4.032   4.971  0.4493  0.0218 -0.2959
  775SOL    HW1 2324   2.986   4.029   5.038 -0.3529 -3.7539 -1.0389
  775SOL    HW2 2325   3.011   4.075   4.896 -1.2917 -2.3071 -0.7545
  776SOL     OW 2326   2.122   2.251   5.680  0.4492 -0.4296  0.0236
  776SOL    HW1 2327   2.144   2.297   5.600  0.0973 -1.4028 -0.6567
  776SOL    HW2 2328   2.026   2.246   5.680  0.4493 -0.4610  0.4828
  777SOL     OW 2329   0.506   1.024   5.921  0.7995 -0.0892 -0.3010
  777SOL    HW1 2330   0.451   1.102   5.931  0.4328 -0.5986  1.9834
  777SOL    HW2 2331   0.448   0.951   5.938  1.3852 -0.8553 -1.4269
  778SOL     OW 2332   2.570   2.812   5.990  0.2587 -0.1164  0.5013
  778SOL    HW1 2333   2.591   2.816   6.083  0.6588 -3.3956  0.6642
  778SOL    HW2 2334   2.585   2.720   5.965 -0.3509  0.5103 -2.6814
  779SOL     OW 2335   0.087   3.381   5.352  0.1507 -0.8550  0.4240
  779SOL    HW1 2336   0.007   3.331   5.337  0.1109 -0.7874  0.4097
  779SOL    HW2 2337   0.057   3.472   5.360  0.4663 -0.4908 -1.9457
  780SOL     OW 2338   2.589   1.954   6.940  0.0211  0.0166  0.3520
  780SOL    HW1 2339   2.610   1.864   6.964 -0.3018  0.1069  1.0010
  780SOL    HW2 2340   2.582   2.000   7.023 -1.7771  0.1901  0.1429
  781SOL     OW 2341   1.540   0.313   5.762  0.4339  0.5027 -0.3017
  781SOL    HW1 2342   1.616   0.343   5.813  0.5732 -1.9047  1.0722
  781SOL    HW2 2343   1.469   0.305   5.826  0.7093 -2.9336 -0.2143
  782SOL     OW 2344   2.947   0.965   5.152 -0.0099  0.2269 -0.1206
  782SOL    HW1 2345   2.972   0.927   5.068 -1.4632  1.0837 -0.9879
  782SOL    HW2 2346   2.869   0.917   5.179 -0.8535  1.4020 -0.3792
  783SOL     OW 2347   2.184   2.862   5.324  0.0377 -0.2563 -0.0332
  783SOL    HW1 2348   2.236   2.790   5.287 -1.5036 -1.9198  0.8901
  783SOL    HW2 2349   2.196   2.854   5.419 -0.4892  0.4615  0.1068
  784SOL     OW 2350   4.357   2.702   5.257 -0.1883  0.2825 -0.1337
  784SOL    HW1 2351   4.299   2.776   5.239  2.0774  2.7380  1.7849
  784SOL    HW2 2352   4.407   2.729   5.334  2.9530 -1.9276 -1.1868
  785SOL     OW 2353   4.775   1.605   5.898 -0.1511  0.2427  0.4572
  785SOL    HW1 2354   4.814   1.521   5.922 -0.9483  0.1182  1.3974
  785SOL    HW2 2355   4.835   1.643   5.834  2.0646  0.5691  2.6172
  786SOL     OW 2356   0.087   2.865   6.206  0.2629 -1.4653  0.1724
  786SOL    HW1 2357   0.124   2.831   6.287  0.1345 -2.0164  0.0053
  786SOL    HW2 2358   0.156   2.853   6.141  0.6409 -0.3526  0.3373
  787SOL     OW 2359   1.243   2.946   8.890  0.1282 -0.2063 -0.1449
  787SOL    HW1 2360   1.177   2.892   8.933 -0.9396  1.0931 -0.0837
  787SOL    HW2 2361   1.207   2.963   8.803  1.7754 -1.9210 -1.2182
  788SOL     OW 2362   0.458   2.472   7.519  0.0078  0.2636  0.4134
  788SOL    HW1 2363   0.542   2.483   7.564 -0.6155  1.0369  1.4484
  788SOL    HW2 2364   0.478   2.421   7.441  1.6743  1.6431 -0.1006
  789SOL     OW 2365   0.310   4.720   7.698  0.1409  0.0178 -0.4210
  789SOL    HW1 2366   0.392   4.683   7.730  0.0252  1.8081  2.2817
  789SOL    HW2 2367   0.242   4.666   7.738 -0.0234 -0.3443 -1.1745
  790SOL     OW 2368   2.270   0.452   8.301 -0.2027  0.0678  0.0088
  790SOL    HW1 2369   2.339   0.422   8.241 -0.4420  1.3907 -0.9757
  790SOL    HW2 2370   2.209   0.379   8.305  1.1001 -1.0342  0.6944
  791SOL     OW 2371   4.390   3.232   7.185  0.5131 -0.0507 -0.1629
  791SOL    HW1 2372   4.342   3.212   7.266  1.3791  0.2713  0.4458
  791SOL    HW2 2373   4.322   3.233   7.117 -0.1977 -0.5446  0.5184
  792SOL     OW 2374   0.796   3.239   7.883  0.1725 -0.3211  0.2248
  792SOL    HW1 2375   0.806   3.185   7.961  0.5766 -0.7207 -0.0936
  792SOL    HW2 2376   0.706   3.271   7.887  0.0134 -0.8052  0.5577
  793SOL     OW 2377   0.502   3.164   8.924 -0.4137  0.6102  0.4755
  793SOL    HW1 2378   0.432   3.102   8.946  0.4141 -1.4091 -2.0481
  793SOL    HW2 2379   0.580   3.129   8.968  0.0374 -0.1873 -0.8887
  794SOL     OW 2380   1.331   3.592   6.545 -0.1456  0.1114  0.0828
  794SOL    HW1 2381   1.309   3.553   6.630  1.0695  1.5053  1.0922
  794SOL    HW2 2382   1.252   3.639   6.519 -0.8848 -1.1864 -0.0966
  795SOL     OW 2383   0.778   0.523   9.678  0.0188  0.3135  0.3026
  795SOL    HW1 2384   0.771   0.599   9.621 -1.2410  1.3225  1.7170
  795SOL    HW2 2385   0.872   0.511   9.692  0.2816  0.8068 -0.9472
  796SOL     OW 2386   1.317   2.469   6.524  0.1920  0.1719  0.2585
  796SOL    HW1 2387   1.382   2.539   6.523  0.3547  0.0288  0.5619
  796SOL    HW2 2388   1.366   2.391   6.550 -0.3634  0.3545  1.9711
  797SOL     OW 2389   4.086   0.612   8.013 -0.2568  0.1819 -0.4298
  797SOL    HW1 2390   4.114   0.588   8.102  1.4155  0.3153 -0.9025
  797SOL    HW2 2391   4.016   0.676   8.027  0.8343  1.1497  0.7885
  798SOL     OW 2392   1.522   2.902   8.466  0.1860  0.0720 -0.0062
  798SOL    HW1 2393   1.573   2.821   8.457  1.2567  0.6726  0.4686
  798SOL    HW2 2394   1.580   2.962   8.513 -0.4206  1.2630 -0.7213
  799SOL     OW 2395   1.585   4.097   5.648 -0.0959 -0.5701 -0.5085
  799SOL    HW1 2396   1.640   4.067   5.721  1.9054  0.9045 -1.3403
  799SOL    HW2 2397   1.638   4.085   5.570  0.3155  3.5535 -1.0711
  800SOL     OW 2398   1.405   3.568   7.576 -0.3244 -0.0604  0.0104
  800SOL    HW1 2399   1.395   3.660   7.555  2.6529  0.8911  2.0822
  800SOL    HW2 2400   1.358   3.557   7.659 -0.8579 -0.4847 -0.3421
  801SOL     OW 2401   3.382   3.499   8.312  0.0747  0.2329 -1.1212
  801SOL    HW1 2402   3.435   3.560   8.364 -1.5659 -0.5106  1.6319
  801SOL    HW2 2403   3.417   3.413   8.333  0.2736 -0.0171 -2.4066
  802SOL     OW 2404   1.045   2.077   9.352  0.1040 -0.2421  0.2467
  802SOL    HW1 2405   1.019   2.001   9.404  0.4225 -0.7904 -0.3746
  802SOL    HW2 2406   1.120   2.114   9.399 -0.3879  0.0106  0.8388
  803SOL     OW 2407   2.565   0.884   8.712  0.3722 -0.3086  0.4077
  803SOL    HW1 2408   2.584   0.815   8.647 -1.3227  1.4772 -2.1857
  803SOL    HW2 2409   2.470   0.898   8.704  0.5398  1.7152  1.4728
  804SOL     OW 2410   1.479   4.546   8.742 -0.2292  0.0013 -0.0288
  804SOL    HW1 2411   1.385   4.559   8.728 -0.2603 -1.5761 -1.7629
  804SOL    HW2 2412   1.489   4.537   8.836 -2.1846 -2.0005  0.0568
  805SOL     OW 2413   1.529   2.045   5.457  0.8796 -0.3390 -0.0897
  805SOL    HW1 2414   1.570   1.985   5.394  1.2647 -0.0053 -0.1605
  805SOL    HW2 2415   1.478   1.988   5.515  2.1009 -0.8528  0.5108
  806SOL     OW 2416   0.983   1.969   8.950  0.0672 -0.2441 -0.1046
  806SOL    HW1 2417   0.997   1.980   8.856 -0.5804  0.8544 -0.0904
  806SOL    HW2 2418   0.888   1.968   8.960  0.1338 -0.2039  0.5420
  807SOL     OW 2419   3.327   1.735   9.067  0.5534 -0.1187  0.1925
  807SOL    HW1 2420   3.309   1.675   8.995 -1.7304 -1.7672  1.9593
  807SOL    HW2 2421   3.259   1.802   9.061  2.1492  1.5126 -0.8379
  808SOL     OW 2422   3.641   3.705   7.931  0.4338 -0.0074 -0.2336
  808SOL    HW1 2423   3.678   3.740   8.012  0.0743  0.6606 -0.3426
  808SOL    HW2 2424   3.562   3.659   7.959  0.8788 -0.6911 -0.0941
  809SOL     OW 2425   0.864   4.148   5.004 -0.3782  0.0573  0.4179
  809SOL    HW1 2426   0.826   4.230   4.971  1.3439  1.1603  1.0261
  809SOL    HW2 2427   0.925   4.176   5.072  1.5454 -1.5605 -0.5264
  810SOL     OW 2428   2.645   1.592   8.470  0.4761  0.2135  0.5547
  810SOL    HW1 2429   2.637   1.687   8.458  1.0439  0.1669 -0.2991
  810SOL    HW2 2430   2.652   1.558   8.381  1.3624 -0.5282  0.9026
  811SOL     OW 2431   2.691   2.555   8.851 -0.4957  0.2620  0.1050
  811SOL    HW1 2432   2.628   2.582   8.784 -0.5163  0.0211  0.0275
  811SOL    HW2 2433   2.640   2.554   8.932 -0.6247 -0.0543  0.0223
  812SOL     OW 2434   4.615   2.936   6.577 -0.2628 -0.7765 -0.5648
  812SOL    HW1 2435   4.559   2.859   6.592 -1.5630  0.1341 -0.5659
  812SOL    HW2 2436   4.560   2.995   6.525  0.8634 -0.0128 -0.9122
  813SOL     OW 2437   0.280   3.749   6.024 -0.1023 -0.5078 -0.0983
  813SOL    HW1 2438   0.281   3.766   6.119 -1.8091 -0.5697 -0.0417
  813SOL    HW2 2439   0.247   3.830   5.985 -3.3306 -1.7403 -0.2442
  814SOL     OW 2440   0.455   0.484   9.052  0.0227 -0.3909  0.2796
  814SOL    HW1 2441   0.492   0.567   9.082 -1.2190 -0.0309  0.8873
  814SOL    HW2 2442   0.531   0.425   9.045  0.7664  0.4470  0.9987
  815SOL     OW 2443   0.920   3.446   7.742 -0.1583  0.2493 -0.0368
  815SOL    HW1 2444   0.856   3.474   7.676 -2.0292 -0.6135  1.3059
  815SOL    HW2 2445   0.879   3.371   7.785  2.5795 -1.5203 -0.2618
  816SOL     OW 2446   0.578   0.108   9.021  0.4512 -0.1727 -0.2497
  816SOL    HW1 2447   0.643   0.152   8.966 -0.3736  1.2062 -0.1735
  816SOL    HW2 2448   0.617   0.106   9.108  0.2897  0.9509 -0.1308
  817SOL     OW 2449   2.542   3.693   7.615 -0.4420 -0.0764  0.3253
  817SOL    HW1 2450   2.464   3.746   7.634 -0.5427  0.3115 -1.0610
  817SOL    HW2 2451   2.595   3.749   7.559  0.8735 -0.3233  1.2784
  818SOL     OW 2452   2.112   1.417   8.096  0.2423 -0.2045 -0.1036
  818SOL    HW1 2453   2.158   1.400   8.178  1.0603  0.1359 -0.4809
  818SOL    HW2 2454   2.030   1.368   8.104  1.2195 -1.8997  0.0517
  819SOL     OW 2455   2.593   0.043   9.044  0.0897  0.1732 -0.2421
  819SOL    HW1 2456   2.514   0.088   9.018  0.3181  1.0508  0.5375
  819SOL    HW2 2457   2.562  -0.039   9.084 -0.5619  1.3395  1.7764
  820SOL     OW 2458   2.394   2.462   8.091 -0.1779  0.2524  0.1149
  820SOL    HW1 2459   2.406   2.555   8.073 -0.7518  0.4230  0.5656
  820SOL    HW2 2460   2.425   2.418   8.011 -1.2615  0.9058 -0.7037
  821SOL     OW 2461   3.633   4.073   7.477 -0.2502  0.0132 -0.1442
  821SOL    HW1 2462   3.704   4.122   7.519  0.1264  0.0197 -0.7776
  821SOL    HW2 2463   3.611   4.125   7.400 -2.3693  1.1208  1.1048
  822SOL     OW 2464   1.309   1.582   5.617 -0.1378 -0.6412 -1.0557
  822SOL    HW1 2465   1.238   1.644   5.600  1.8950  1.6483 -1.7217
  822SOL    HW2 2466   1.327   1.590   5.710 -0.1325 -0.5511 -1.0650
  823SOL     OW 2467   2.510   4.895   9.840 -0.0733 -0.3196  0.0661
  823SOL    HW1 2468   2.447   4.831   9.871 -0.4986 -0.2298 -0.5976
  823SOL    HW2 2469   2.571   4.845   9.785 -0.5982 -0.1149 -0.7226
  824SOL     OW 2470   3.459   3.376   7.094  0.2279 -0.5630 -0.1109
  824SOL    HW1 2471   3.429   3.285   7.092 -1.6260 -0.0105  0.5697
  824SOL    HW2 2472   3.430   3.413   7.011 -1.4926  0.0965  0.7394
  825SOL     OW 2473   0.084   3.155   7.864 -0.6162  0.2349  0.0705
  825SOL    HW1 2474   0.125   3.231   7.823  0.2185  0.6734  1.6453
  825SOL    HW2 2475   0.156   3.093   7.876 -0.9751 -0.1396  0.2887
  826SOL     OW 2476   0.631   3.869   8.681  0.1523  0.4830 -0.5786
  826SOL    HW1 2477   0.672   3.868   8.595  3.0109 -0.5902  0.6515
  826SOL    HW2 2478   0.590   3.783   8.689 -0.8474  0.8870 -1.1209
  827SOL     OW 2479   3.540   2.954   9.551  0.0237  0.0202  0.4884
  827SOL    HW1 2480   3.610   2.944   9.487  0.2987 -1.7765  0.9884
  827SOL    HW2 2481   3.499   2.867   9.555  1.0198 -0.4296  3.8448
  828SOL     OW 2482   3.235   3.461   9.204  0.2495  0.1019  0.6159
  828SOL    HW1 2483   3.300   3.515   9.158 -1.1200  0.1865 -1.3283
  828SOL    HW2 2484   3.231   3.380   9.153 -2.1417  0.6466 -0.1693
  829SOL     OW 2485   1.560   3.341   8.267  0.3230 -0.4800  0.0310
  829SOL    HW1 2486   1.565   3.280   8.193 -0.6783  0.4486 -0.8254
  829SOL    HW2 2487   1.596   3.292   8.341  1.3467 -1.4350 -1.0609
  830SOL     OW 2488   0.738   0.142   7.303 -0.5147 -0.4191 -0.2397
  830SOL    HW1 2489   0.781   0.204   7.363  1.1697 -1.3997 -0.3636
  830SOL    HW2 2490   0.738   0.187   7.219 -0.1833 -0.2054 -0.1283
  831SOL     OW 2491   1.209   3.253   9.977  0.0796  0.0649 -0.0894
  831SOL    HW1 2492   1.183   3.342   9.951 -0.3318 -0.2525 -0.7765
  831SOL    HW2 2493   1.128   3.210  10.001  0.1488 -0.4407 -0.7344
  832SOL     OW 2494   1.859   2.938   6.320  0.5692  0.2836 -0.4299
  832SOL    HW1 2495   1.864   2.976   6.233 -0.5076 -1.7670 -1.4553
  832SOL    HW2 2496   1.949   2.910   6.339  0.8333  0.8590 -0.8008
  833SOL     OW 2497   2.758   2.354   7.411 -0.0679 -0.3820  0.1702
  833SOL    HW1 2498   2.664   2.358   7.396  0.1019 -0.1142 -0.9557
  833SOL    HW2 2499   2.777   2.431   7.465 -0.5604 -0.7427  0.8714
  834SOL     OW 2500   2.364   3.541   7.456  0.1535 -0.2181 -0.3712
  834SOL    HW1 2501   2.427   3.479   7.420  0.1391 -0.3660 -0.1371
  834SOL    HW2 2502   2.417   3.611   7.493  0.1682 -0.0359 -0.7281
  835SOL     OW 2503   3.579   2.289   9.765  0.1242 -0.0071 -0.1620
  835SOL    HW1 2504   3.529   2.357   9.811  0.6837 -0.6874  1.5218
  835SOL    HW2 2505   3.670   2.316   9.775  0.2677 -0.2500 -0.7665
  836SOL     OW 2506   1.633   4.759   5.660  0.3339  0.2327 -0.0519
  836SOL    HW1 2507   1.576   4.724   5.591  1.5404 -0.3754 -0.7771
  836SOL    HW2 2508   1.601   4.848   5.675 -0.2970  0.1797 -0.9986
  837SOL     OW 2509   4.806   0.144   6.769 -1.5063  0.0885  0.4324
  837SOL    HW1 2510   4.742   0.121   6.836 -1.1948 -4.5947 -0.5405
  837SOL    HW2 2511   4.770   0.110   6.687  1.2307 -0.8889 -0.5014
  838SOL     OW 2512   1.910   2.520   8.720 -0.3739  0.1010 -0.1004
  838SOL    HW1 2513   1.902   2.608   8.682  0.1279 -0.4245 -1.4847
  838SOL    HW2 2514   1.825   2.505   8.762 -0.0724  1.6904  1.1935
  839SOL     OW 2515   4.230   4.876   9.153  0.4027  0.3499  0.3102
  839SOL    HW1 2516   4.261   4.827   9.077 -0.1006 -0.4149  0.5830
  839SOL    HW2 2517   4.305   4.928   9.181  1.1057 -0.6457  0.3043
  840SOL     OW 2518   0.814   3.185   6.875  0.1735 -0.2903  0.7406
  840SOL    HW1 2519   0.826   3.091   6.882 -1.6634 -0.7832 -1.5529
  840SOL    HW2 2520   0.749   3.207   6.943  0.3416 -0.7237  1.0417
  841SOL     OW 2521   0.840   2.311   8.564 -0.0857 -0.5845 -0.0438
  841SOL    HW1 2522   0.804   2.327   8.651  0.2729  1.1539 -0.1806
  841SOL    HW2 2523   0.769   2.336   8.504  0.7016  1.1384 -0.2837
  842SOL     OW 2524   3.379   1.492   7.172 -0.6616  0.3284  0.5281
  842SOL    HW1 2525   3.298   1.480   7.223 -0.2929 -1.9152  0.7201
  842SOL    HW2 2526   3.422   1.406   7.177 -0.0304  0.3546 -2.5959
  843SOL     OW 2527   2.648   4.196   5.874  0.2873  0.0252  0.1113
  843SOL    HW1 2528   2.705   4.173   5.800 -0.0289  2.2036 -0.8873
  843SOL    HW2 2529   2.704   4.188   5.951  1.5915  0.8206 -0.7127
  844SOL     OW 2530   2.130   3.414   7.548 -0.0431  0.4893 -0.0227
  844SOL    HW1 2531   2.155   3.375   7.632  2.8125 -1.2150 -1.5094
  844SOL    HW2 2532   2.191   3.487   7.536 -0.5498  0.8331 -0.5658
  845SOL     OW 2533   1.615   4.567   7.168 -0.0286  0.0639 -0.1391
  845SOL    HW1 2534   1.617   4.531   7.079 -1.3238  0.3849 -0.3165
  845SOL    HW2 2535   1.527   4.604   7.177 -0.1021 -0.4098  1.4524
  846SOL     OW 2536   4.316   4.212   7.027 -0.4301 -0.0335  0.6848
  846SOL    HW1 2537   4.318   4.292   7.079 -0.8764  0.2167  0.3201
  846SOL    HW2 2538   4.321   4.242   6.936  0.2983 -0.4616  0.5726
  847SOL     OW 2539   2.068   0.257   8.266  0.0737  0.4985 -0.0360
  847SOL    HW1 2540   1.994   0.312   8.290 -0.5843 -0.2758 -0.2412
  847SOL    HW2 2541   2.034   0.200   8.197  0.4968 -0.7400  0.7588
  848SOL     OW 2542   1.878   4.109   9.491 -0.1547 -0.3793 -0.2205
  848SOL    HW1 2543   1.940   4.162   9.441  0.7046  0.5037  1.6689
  848SOL    HW2 2544   1.923   4.025   9.504 -0.1242 -0.3936 -0.4272
  849SOL     OW 2545   2.811   3.511   7.934 -0.4048 -0.0497  0.4587
  849SOL    HW1 2546   2.741   3.568   7.966 -0.0858  0.7715 -0.2649
  849SOL    HW2 2547   2.784   3.487   7.845 -0.5050 -0.9963  0.7341
  850SOL     OW 2548   1.078   2.154   4.874  0.2013  0.4567  0.7434
  850SOL    HW1 2549   1.088   2.214   4.948  1.5653  1.0894  0.0778
  850SOL    HW2 2550   1.105   2.205   4.798  0.7160 -0.7832  0.0656
  851SOL     OW 2551   2.775   3.231   9.077 -0.4074  0.3368  0.0980
  851SOL    HW1 2552   2.805   3.260   8.991 -0.5180  0.2416  0.0255
  851SOL    HW2 2553   2.768   3.136   9.069  2.5818 -0.0727  1.1407
  852SOL     OW 2554   1.235   1.029   9.135 -0.5381 -0.1905  0.2057
  852SOL    HW1 2555   1.184   1.056   9.059 -0.2217  0.0074  0.0618
  852SOL    HW2 2556   1.177   0.970   9.183  0.3489 -2.9326 -1.8514
  853SOL     OW 2557   0.349   2.895   6.951  0.3900 -0.2403 -0.0532
  853SOL    HW1 2558   0.323   2.955   7.021  1.6278 -1.4969  1.5618
  853SOL    HW2 2559   0.415   2.943   6.902  2.2539 -0.6197  1.9494
  854SOL     OW 2560   1.433   4.093   6.454 -0.2182  0.2018  0.2936
  854SOL    HW1 2561   1.490   4.078   6.378  2.5425  1.2370  1.9958
  854SOL    HW2 2562   1.375   4.016   6.456  1.5242 -1.2658 -1.2465
  855SOL     OW 2563   2.028   3.157   8.898  0.6504  0.9812  0.0212
  855SOL    HW1 2564   1.950   3.213   8.900  0.0566  0.1614  0.2944
  855SOL    HW2 2565   2.100   3.217   8.878  0.1149  1.9424  0.8646
  856SOL     OW 2566   2.214   3.294   7.777  0.4282 -0.3638  0.0253
  856SOL    HW1 2567   2.268   3.215   7.771 -0.1550 -1.0148  2.4476
  856SOL    HW2 2568   2.262   3.353   7.834  1.0053  1.2621 -1.9974
  857SOL     OW 2569   0.294   2.447   7.934 -0.8426  0.1538 -0.0410
  857SOL    HW1 2570   0.301   2.512   8.004  1.0525 -0.8267  0.7876
  857SOL    HW2 2571   0.365   2.469   7.873 -2.5647  1.0831 -1.8031
  858SOL     OW 2572   4.201   0.604   8.291 -0.4834 -0.2612  0.0822
  858SOL    HW1 2573   4.122   0.628   8.340 -0.8250 -0.7080 -0.2463
  858SOL    HW2 2574   4.263   0.675   8.310 -0.9006  0.0013  0.4860
  859SOL     OW 2575   2.802   4.255   7.826  0.9506 -0.2340  0.0796
  859SOL    HW1 2576   2.850   4.336   7.809  0.2128  0.4258  0.9690
  859SOL    HW2 2577   2.827   4.196   7.755 -0.5237  1.6577 -2.1524
  860SOL     OW 2578   4.375   3.776   7.735  0.3090  0.1398 -0.4684
  860SOL    HW1 2579   4.370   3.685   7.706  0.4001  0.9211 -3.1611
  860SOL    HW2 2580   4.283   3.803   7.745  0.2701 -0.0068 -0.4203
  861SOL     OW 2581   3.338   3.155   6.245  0.3228 -0.1773  0.4110
  861SOL    HW1 2582   3.344   3.193   6.157 -1.4130 -0.3892  0.1667
  861SOL    HW2 2583   3.349   3.230   6.304 -0.4991  0.3081 -0.0328
  862SOL     OW 2584   1.759   2.724   9.164 -0.4579 -0.0665 -0.4319
  862SOL    HW1 2585   1.686   2.726   9.226  0.8498 -2.0187  1.3007
  862SOL    HW2 2586   1.809   2.803   9.184 -0.2558 -0.4827  0.7754
  863SOL     OW 2587   0.170   2.990   6.694 -0.0697  0.2669  0.2904
  863SOL    HW1 2588   0.181   3.031   6.780 -0.6863  0.5480  0.2346
  863SOL    HW2 2589   0.146   3.061   6.635 -0.6856 -0.0896  0.0994
  864SOL     OW 2590   2.666   4.365   9.060  0.1075 -0.3615  0.5213
  864SOL    HW1 2591   2.753   4.329   9.041 -0.5801 -1.4123 -0.7477
  864SOL    HW2 2592   2.680   4.460   9.062  0.8222 -0.2734 -2.6599
  865SOL     OW 2593   1.286   1.456   5.995  0.1456  0.2616 -0.3099
  865SOL    HW1 2594   1.227   1.381   5.992 -0.1541  0.3180  2.2170
  865SOL    HW2 2595   1.360   1.426   6.049  1.1899  1.0358 -1.2523
  866SOL     OW 2596   3.206   2.747   6.127 -0.0498  0.4660 -0.0114
  866SOL    HW1 2597   3.281   2.774   6.179  0.1060  1.6528 -0.8315
  866SOL    HW2 2598   3.244   2.710   6.047 -0.3014 -0.8949  0.4682
  867SOL     OW 2599   0.743   1.616   9.412 -0.5373  0.1769 -0.0527
  867SOL    HW1 2600   0.678   1.668   9.366  1.3497  0.9111 -2.0769
  867SOL    HW2 2601   0.791   1.679   9.466  0.0716  0.0887 -0.4837
  868SOL     OW 2602   1.878   3.441   7.692  0.6478 -0.0243 -0.6580
  868SOL    HW1 2603   1.924   3.420   7.611  0.1732  0.0502 -0.9451
  868SOL    HW2 2604   1.850   3.531   7.681 -2.1441 -0.9353 -1.7354
  869SOL     OW 2605   0.204   1.873   6.313  0.5671  1.0166  0.1401
  869SOL    HW1 2606   0.273   1.806   6.312  0.3456  0.7863  0.0612
  869SOL    HW2 2607   0.175   1.876   6.405  0.9395  1.3828  0.2473
  870SOL     OW 2608   1.411   1.330   7.929  0.0408  0.0321  0.2950
  870SOL    HW1 2609   1.392   1.339   7.835 -0.3877  1.8251  0.5106
  870SOL    HW2 2610   1.503   1.304   7.932 -0.0696 -0.5359 -0.6215
  871SOL     OW 2611   4.887   4.460   8.214 -0.7446 -0.3659  0.0250
  871SOL    HW1 2612   4.801   4.496   8.192  0.0939  1.4289 -0.5883
  871SOL    HW2 2613   4.949   4.517   8.168  0.7345 -2.9654 -1.4584
  872SOL     OW 2614   1.266   1.846   7.755 -0.6801 -0.2367 -0.2834
  872SOL    HW1 2615   1.329   1.918   7.749  0.0812 -0.9954 -1.6979
  872SOL    HW2 2616   1.312   1.778   7.804 -0.2494 -0.9037 -1.5689
  873SOL     OW 2617   0.806   3.505   8.605  0.5098 -0.8481 -0.1830
  873SOL    HW1 2618   0.826   3.543   8.520  4.6859 -2.1264  0.0331
  873SOL    HW2 2619   0.740   3.438   8.587 -0.1108  0.2030 -2.0280
  874SOL     OW 2620   0.110   1.789   6.555  0.2855  0.0190  0.1951
  874SOL    HW1 2621   0.098   1.705   6.511  0.1228 -0.2805  0.7975
  874SOL    HW2 2622   0.021   1.820   6.572  0.3230 -0.7409  1.9287
  875SOL     OW 2623   3.896   2.815   9.184 -0.8857  0.3255 -0.5324
  875SOL    HW1 2624   3.866   2.753   9.118  0.6896 -1.2558  0.1725
  875SOL    HW2 2625   3.932   2.888   9.134 -2.0235  0.3393 -1.3754
  876SOL     OW 2626   1.584   4.858   7.398  0.4152 -0.1923 -0.1149
  876SOL    HW1 2627   1.568   4.951   7.384 -0.9583 -0.1151  1.6533
  876SOL    HW2 2628   1.677   4.852   7.420 -0.0054  1.1302  2.2670
  877SOL     OW 2629   0.713   2.159   7.615  0.6135 -0.3204 -0.6697
  877SOL    HW1 2630   0.786   2.109   7.652  0.5404 -1.1890 -1.6664
  877SOL    HW2 2631   0.679   2.210   7.689  0.8686 -1.5356  0.3120
  878SOL     OW 2632   2.159   3.745   8.066  0.0728 -0.2532  0.6349
  878SOL    HW1 2633   2.150   3.737   8.161  2.4756 -1.1773  0.8403
  878SOL    HW2 2634   2.104   3.675   8.030 -0.1161 -0.4929  1.3777
  879SOL     OW 2635   2.920   1.247   8.539 -0.0674  0.1350 -0.0522
  879SOL    HW1 2636   2.987   1.208   8.483  0.4904 -0.3086  0.9059
  879SOL    HW2 2637   2.951   1.232   8.628 -0.5558  1.5032  0.3799
  880SOL     OW 2638   3.285   2.542   9.634  0.3010 -0.1832  0.1811
  880SOL    HW1 2639   3.375   2.556   9.607  0.2316  1.2875  0.6391
  880SOL    HW2 2640   3.256   2.465   9.583  1.7348 -0.5708 -0.0796
  881SOL     OW 2641   2.608   3.768   8.930  0.3129 -0.7492  0.0207
  881SOL    HW1 2642   2.698   3.734   8.941  0.7707  0.4198  0.0287
  881SOL    HW2 2643   2.552   3.693   8.950  1.2021 -0.6790  3.5464
  882SOL     OW 2644   2.278   1.690   9.658 -0.6643  0.5446 -0.9479
  882SOL    HW1 2645   2.292   1.597   9.645 -0.8933  0.2504  0.7065
  882SOL    HW2 2646   2.358   1.721   9.700  0.1305  1.4892 -3.0003
  883SOL     OW 2647   2.592   0.217  10.077  0.1167  0.1353  0.3079
  883SOL    HW1 2648   2.630   0.184  10.158  0.8924 -0.7707 -0.4063
  883SOL    HW2 2649   2.623   0.307  10.070 -0.0379  0.2530  1.0517
  884SOL     OW 2650   1.855   2.286   9.803 -0.5271  0.3262  0.2648
  884SOL    HW1 2651   1.929   2.335   9.838 -0.7228 -0.9372  2.6823
  884SOL    HW2 2652   1.790   2.289   9.874 -1.3125 -1.6837 -0.3171
  885SOL     OW 2653   4.041   4.878   6.675 -0.1049  0.0974  0.5538
  885SOL    HW1 2654   4.083   4.794   6.657  0.8007  0.5232  0.6730
  885SOL    HW2 2655   4.045   4.887   6.771 -2.9237 -1.1204  0.9043
  886SOL     OW 2656   0.623   2.366   8.402  0.2626 -0.0248 -0.4632
  886SOL    HW1 2657   0.642   2.333   8.314  0.8176 -1.6337  0.2371
  886SOL    HW2 2658   0.536   2.334   8.422  0.5409 -0.5149 -0.0336
  887SOL     OW 2659   2.715   1.712  10.191  0.3095  0.7074 -0.0130
  887SOL    HW1 2660   2.646   1.649  10.172 -2.3270  3.0586  1.0612
  887SOL    HW2 2661   2.704   1.732  10.284  1.5627  2.1872 -0.1453
  888SOL     OW 2662   1.497   0.079   8.861  0.2437  0.4219 -0.2383
  888SOL    HW1 2663   1.530   0.148   8.804 -0.3145 -0.9313 -2.2985
  888SOL    HW2 2664   1.534  -0.002   8.825 -0.1240 -0.5120  1.3502
  889SOL     OW 2665   1.503   3.003   9.599 -0.1587 -0.0993  0.6505
  889SOL    HW1 2666   1.421   2.978   9.558  2.2625 -1.9577 -3.8106
  889SOL    HW2 2667   1.522   3.091   9.566  0.4164 -0.3886  0.1850
  890SOL     OW 2668   1.071   1.740   7.245 -0.0404 -0.0607  0.1437
  890SOL    HW1 2669   1.130   1.748   7.170 -0.0424  0.0790  0.1573
  890SOL    HW2 2670   1.016   1.819   7.241 -0.0708 -0.0760  0.2654
  891SOL     OW 2671   2.581   1.533   6.456 -0.0475 -0.6695 -0.7262
  891SOL    HW1 2672   2.672   1.542   6.484 -0.5474  0.1437  0.7313
  891SOL    HW2 2673   2.531   1.587   6.517 -1.5127 -1.0032 -1.5660
  892SOL     OW 2674   3.142   2.232   9.227 -0.1129 -0.5930 -0.0939
  892SOL    HW1 2675   3.083   2.200   9.159  0.7106 -1.4641 -0.4257
  892SOL    HW2 2676   3.135   2.327   9.222 -0.3524 -0.6499 -1.1381
  893SOL     OW 2677   3.224   0.711   7.981  0.9929 -0.0648 -0.2274
  893SOL    HW1 2678   3.157   0.644   7.997  1.2537 -1.5152 -4.0625
  893SOL    HW2 2679   3.179   0.794   7.999 -0.9100 -1.1054  0.1212
  894SOL     OW 2680   4.015   4.683   8.982  0.0794  0.0153  0.1827
  894SOL    HW1 2681   4.103   4.660   9.011  0.1957 -1.8371 -1.4201
  894SOL    HW2 2682   4.027   4.763   8.930  0.4965  0.7987  1.4205
  895SOL     OW 2683   4.207   1.406   7.877  0.2102 -0.0960 -0.3729
  895SOL    HW1 2684   4.167   1.328   7.914  0.1554 -0.6308 -1.5225
  895SOL    HW2 2685   4.216   1.466   7.951  1.5189 -1.6891  0.8043
  896SOL     OW 2686   2.328   3.267   8.694  0.0343 -0.4233 -0.4953
  896SOL    HW1 2687   2.279   3.317   8.760  0.9121  1.5938 -1.2989
  896SOL    HW2 2688   2.285   3.182   8.693  0.6306 -0.9612  3.4288
  897SOL     OW 2689   1.107   4.484   8.531 -0.0144 -0.3800  0.1107
  897SOL    HW1 2690   1.013   4.472   8.521 -0.1143  1.6782 -2.5666
  897SOL    HW2 2691   1.146   4.404   8.495 -0.6500 -1.7692  2.3216
  898SOL     OW 2692   0.201   2.188   8.067 -0.0519 -0.0081 -0.0523
  898SOL    HW1 2693   0.294   2.170   8.083  0.6901 -0.2556 -3.8571
  898SOL    HW2 2694   0.200   2.270   8.019 -1.7261 -0.4967 -0.9193
  899SOL     OW 2695   1.442   0.815  10.276 -0.1936 -0.1394 -0.1692
  899SOL    HW1 2696   1.495   0.755  10.329  0.3603  0.4452 -0.0527
  899SOL    HW2 2697   1.448   0.781  10.187 -1.5996 -1.4742  0.1829
  900SOL     OW 2698   2.773   1.731   9.791  0.2268 -0.8124 -0.3147
  900SOL    HW1 2699   2.805   1.818   9.765 -0.3230 -0.5581 -0.1486
  900SOL    HW2 2700   2.807   1.672   9.723  0.6675 -0.4794 -0.3863
  901SOL     OW 2701   2.082   2.640   7.484  0.2962 -0.1058 -0.3492
  901SOL    HW1 2702   2.042   2.616   7.400  2.4040 -1.0092 -1.1685
  901SOL    HW2 2703   2.057   2.569   7.543  0.1126 -0.2975 -0.6478
  902SOL     OW 2704   1.486   2.868   7.731 -0.1664 -0.0702 -0.9761
  902SOL    HW1 2705   1.434   2.948   7.718 -0.0016  0.0498 -0.9011
  902SOL    HW2 2706   1.548   2.890   7.801  0.0499 -0.1791 -1.1305
  903SOL     OW 2707   1.142   3.300   7.139  0.2260  0.1405  0.6773
  903SOL    HW1 2708   1.173   3.216   7.106 -2.9086 -1.3894  1.3133
  903SOL    HW2 2709   1.082   3.333   7.072  0.4564  1.2921  1.0029
  904SOL     OW 2710   3.200   1.123   9.085  0.0521  0.1023  0.5391
  904SOL    HW1 2711   3.281   1.077   9.107 -0.3219 -0.6655  0.3390
  904SOL    HW2 2712   3.192   1.113   8.990 -0.8009 -0.7164  0.6878
  905SOL     OW 2713   0.092   2.540   8.237 -0.2980  0.0215 -0.1367
  905SOL    HW1 2714   0.065   2.448   8.234 -1.7723  0.4384 -0.8889
  905SOL    HW2 2715   0.054   2.574   8.318 -0.3405  0.1388 -0.2054
  906SOL     OW 2716   0.348   3.911   7.439 -0.8351 -0.0027  0.1747
  906SOL    HW1 2717   0.372   3.992   7.393 -1.2436 -0.8794 -1.6249
  906SOL    HW2 2718   0.338   3.939   7.531 -1.0959  2.0163 -0.4114
  907SOL     OW 2719   1.564   0.724   8.532 -0.5896 -0.5637 -0.6397
  907SOL    HW1 2720   1.563   0.673   8.613 -1.2311  1.9814  1.0858
  907SOL    HW2 2721   1.488   0.693   8.483 -0.9010 -1.3220  0.2909
  908SOL     OW 2722   1.861   2.728   6.922  1.0485 -0.3088  0.6836
  908SOL    HW1 2723   1.790   2.786   6.895  0.9168 -1.5041 -1.8203
  908SOL    HW2 2724   1.937   2.786   6.929  0.5471  0.4575  0.0594
  909SOL     OW 2725   3.176   1.985   9.106 -1.0402  0.0617 -0.2277
  909SOL    HW1 2726   3.101   1.987   9.047 -1.4411 -1.7259  0.1372
  909SOL    HW2 2727   3.159   2.053   9.171 -2.2015 -0.1159 -0.3309
  910SOL     OW 2728   0.263   2.945   9.485  0.9534  0.2119  0.2577
  910SOL    HW1 2729   0.218   2.940   9.569  2.7688 -0.2023  1.2667
  910SOL    HW2 2730   0.203   2.904   9.422 -1.2389  2.1926  0.9443
  911SOL     OW 2731   1.281   4.266   8.979  0.4528 -0.1501  0.3006
  911SOL    HW1 2732   1.338   4.340   8.999 -0.8748  0.6885  1.1531
  911SOL    HW2 2733   1.232   4.295   8.902 -0.1747 -0.0610  0.7265
  912SOL     OW 2734   2.256   3.078   7.068 -0.6368 -0.2761  0.4698
  912SOL    HW1 2735   2.314   3.002   7.075 -1.2313 -0.9492 -1.3235
  912SOL    HW2 2736   2.255   3.115   7.156  1.3112 -1.1168  0.9024
  913SOL     OW 2737   0.566   1.009   7.151  0.2450 -0.2322  0.1315
  913SOL    HW1 2738   0.583   1.042   7.063 -0.1777  0.5711  0.3373
  913SOL    HW2 2739   0.495   1.064   7.184 -0.1573 -1.0591  0.6747
  914SOL     OW 2740   0.609   3.126   7.174  0.5230  0.0268  0.2876
  914SOL    HW1 2741   0.702   3.123   7.199  0.6791  2.6408  0.2388
  914SOL    HW2 2742   0.600   3.207   7.124 -1.4369 -1.1191 -1.3614
  915SOL     OW 2743   0.511   1.616   8.699  0.6142 -0.0663  0.4155
  915SOL    HW1 2744   0.473   1.539   8.741 -0.2921 -0.0518 -0.3175
  915SOL    HW2 2745   0.436   1.674   8.685  1.4273  1.3782  1.8010
  916SOL     OW 2746   1.032   1.702   8.891  0.2988 -0.1230  0.0249
  916SOL    HW1 2747   1.016   1.794   8.912 -0.5163 -0.2202 -0.1404
  916SOL    HW2 2748   0.978   1.685   8.814  0.1650 -0.8341  0.2663
  917SOL     OW 2749   1.660   1.782   8.846 -0.4564 -0.4466  0.1570
  917SOL    HW1 2750   1.623   1.849   8.790  1.1737  0.4211  0.0614
  917SOL    HW2 2751   1.742   1.756   8.803  0.1276 -0.7701  1.4084
  918SOL     OW 2752   1.445   0.475   9.333 -0.1911  0.0013  0.2673
  918SOL    HW1 2753   1.493   0.547   9.291  0.6014 -0.5682  0.1823
  918SOL    HW2 2754   1.491   0.461   9.416 -0.2057 -0.5650  0.1788
  919SOL     OW 2755   2.696   1.335   5.557  0.1176  0.2613  0.0661
  919SOL    HW1 2756   2.735   1.287   5.630 -2.1178  0.4509  1.5015
  919SOL    HW2 2757   2.667   1.418   5.596 -0.4084  0.7169 -1.2403
  920SOL     OW 2758   1.374   2.807   6.735 -0.2011 -0.4212 -0.4884
  920SOL    HW1 2759   1.439   2.758   6.685 -0.2725 -2.1055  0.9574
  920SOL    HW2 2760   1.389   2.780   6.826 -0.9490  1.4908  0.2585
  921SOL     OW 2761   4.822   2.635   7.731  0.4552 -0.1673  0.3410
  921SOL    HW1 2762   4.878   2.598   7.799  0.8135  0.1171  0.2053
  921SOL    HW2 2763   4.865   2.612   7.649 -1.8736 -3.8000 -0.0893
  922SOL     OW 2764   1.561   1.371   9.964 -0.1098 -0.2104  0.3846
  922SOL    HW1 2765   1.545   1.406  10.052 -1.4942  2.2414 -0.7432
  922SOL    HW2 2766   1.475   1.343   9.933 -0.1768  1.5346 -1.1649
  923SOL     OW 2767   0.388   1.385   8.807 -0.2527 -0.5165 -0.5061
  923SOL    HW1 2768   0.407   1.316   8.744  2.7990 -0.5212  0.2502
  923SOL    HW2 2769   0.434   1.358   8.887 -3.1990 -0.0698  1.5031
  924SOL     OW 2770   1.286   3.454   9.105 -0.7302  0.1255 -0.1525
  924SOL    HW1 2771   1.190   3.449   9.102 -0.8451  0.6923  1.6865
  924SOL    HW2 2772   1.315   3.379   9.053 -2.1502  0.2682 -1.2220
  925SOL     OW 2773   1.761   0.347   6.626  0.3886 -0.2687  0.2986
  925SOL    HW1 2774   1.719   0.276   6.675 -3.4901  2.1747  1.0228
  925SOL    HW2 2775   1.826   0.383   6.687 -1.1447 -0.1421  1.9514
  926SOL     OW 2776   3.591   0.161   8.841  0.6274  0.4647 -0.5979
  926SOL    HW1 2777   3.656   0.093   8.824 -0.2477 -0.6970  0.4657
  926SOL    HW2 2778   3.624   0.207   8.919  0.5454  0.3570 -0.4987
  927SOL     OW 2779   1.581   4.107   9.270  0.1995 -0.1901 -0.1453
  927SOL    HW1 2780   1.618   4.157   9.197 -0.1167 -1.0254 -0.9038
  927SOL    HW2 2781   1.656   4.087   9.325  0.9196 -1.6713 -1.5551
  928SOL     OW 2782   1.186   4.795   7.593 -0.2373  0.0482  0.1446
  928SOL    HW1 2783   1.172   4.887   7.617  0.5649  0.4729 -0.9326
  928SOL    HW2 2784   1.279   4.790   7.568  0.2696 -1.5035  2.0615
  929SOL     OW 2785   1.904   3.097   9.787 -0.5673 -0.3551  0.2883
  929SOL    HW1 2786   1.818   3.069   9.757 -0.4697 -1.2482  0.7910
  929SOL    HW2 2787   1.958   3.018   9.783  0.4777  0.3768 -0.8367
  930SOL     OW 2788   1.518   0.393   8.208 -0.6161  0.0160 -0.1259
  930SOL    HW1 2789   1.541   0.354   8.124 -1.7182 -0.4922 -0.2122
  930SOL    HW2 2790   1.498   0.484   8.188  0.8369  0.3519 -0.1171
  931SOL     OW 2791   4.724   4.006   7.579 -0.8328  0.0177 -0.1691
  931SOL    HW1 2792   4.646   4.040   7.624 -2.2547 -1.4296 -1.4332
  931SOL    HW2 2793   4.762   3.944   7.641 -1.0124  0.3058  0.2372
  932SOL     OW 2794   1.152   0.061   7.677 -0.3706 -0.5710  0.1648
  932SOL    HW1 2795   1.170   0.138   7.623 -0.5488 -0.5543  0.1310
  932SOL    HW2 2796   1.073   0.083   7.726  0.6765  0.0690  1.6550
  933SOL     OW 2797   2.169   2.529   8.662  0.0275  0.6208  0.1650
  933SOL    HW1 2798   2.181   2.595   8.730  0.3806 -0.9485  1.6756
  933SOL    HW2 2799   2.078   2.501   8.670  0.1119  0.3193  0.0978
  934SOL     OW 2800   2.145   1.070   9.241  0.0139 -0.7274 -0.6498
  934SOL    HW1 2801   2.085   0.998   9.260  1.6475 -1.8288  0.4978
  934SOL    HW2 2802   2.172   1.056   9.150 -0.5969 -0.8492 -0.8165
  935SOL     OW 2803   0.051   1.729   8.229  0.3188 -0.0793  0.1029
  935SOL    HW1 2804   0.073   1.768   8.145 -0.4899 -2.0304 -1.0834
  935SOL    HW2 2805  -0.040   1.752   8.244  0.6078  0.6978  0.7208
  936SOL     OW 2806   0.876   4.395   7.651  0.3377  0.1540 -0.2385
  936SOL    HW1 2807   0.949   4.440   7.695 -1.4591  3.7296 -0.5735
  936SOL    HW2 2808   0.867   4.441   7.568 -3.6868  1.5615  0.7637
  937SOL     OW 2809   4.367   3.268   9.309 -0.4002 -0.3058 -0.6984
  937SOL    HW1 2810   4.360   3.347   9.363 -3.1767 -0.4421 -0.7303
  937SOL    HW2 2811   4.387   3.302   9.221 -2.9057  0.5937 -1.0148
  938SOL     OW 2812   1.619   4.016   7.603  0.2683  0.1148  0.0999
  938SOL    HW1 2813   1.682   3.993   7.672 -0.5145  0.6669  1.0349
  938SOL    HW2 2814   1.559   4.078   7.646 -1.4325 -1.0630 -0.4799
  939SOL     OW 2815   2.853   3.254   8.034 -0.2751 -0.2293 -0.4967
  939SOL    HW1 2816   2.837   3.340   7.996 -4.0094 -0.6562 -0.2071
  939SOL    HW2 2817   2.869   3.271   8.127  1.1605  0.2225 -0.7923
  940SOL     OW 2818   0.752   0.508   7.111 -0.1216 -0.1139 -0.0059
  940SOL    HW1 2819   0.733   0.584   7.056  0.1665  0.4477  0.6482
  940SOL    HW2 2820   0.846   0.492   7.099 -0.7551 -2.5428 -2.8130
  941SOL     OW 2821   1.092   4.564   7.748  0.8683  0.6747 -0.2142
  941SOL    HW1 2822   1.136   4.643   7.717  2.0555  0.2458  0.3402
  941SOL    HW2 2823   1.161   4.511   7.787 -0.0759 -0.1947  0.3358
  942SOL     OW 2824   1.783   3.594   5.784  0.2936 -0.1759  0.0431
  942SOL    HW1 2825   1.751   3.572   5.871  0.2807 -1.1719 -0.1972
  942SOL    HW2 2826   1.774   3.512   5.734 -0.6765  0.6400 -1.1809
  943SOL     OW 2827   1.396   3.970   8.700 -1.0903  0.7905  0.2180
  943SOL    HW1 2828   1.392   3.987   8.794 -1.5453  0.8653  0.1868
  943SOL    HW2 2829   1.461   3.900   8.691 -1.1948  0.6435  0.6047
  944SOL     OW 2830   4.134   2.508   6.984 -0.3842 -0.2313 -0.4794
  944SOL    HW1 2831   4.105   2.434   7.038 -0.7917 -0.0835 -0.4918
  944SOL    HW2 2832   4.228   2.515   7.000 -0.1807 -1.2846 -1.1107
  945SOL     OW 2833   3.145   0.308   8.284 -0.1642 -0.7017 -0.2740
  945SOL    HW1 2834   3.074   0.280   8.341  0.4090 -2.0457 -0.1869
  945SOL    HW2 2835   3.138   0.252   8.207  0.7645 -0.8229 -0.2848
  946SOL     OW 2836   1.861   1.457   8.847  0.0034 -0.3456  0.8199
  946SOL    HW1 2837   1.934   1.492   8.898  1.9215 -0.6804 -1.5144
  946SOL    HW2 2838   1.882   1.480   8.757 -2.6343 -0.7974  0.0044
  947SOL     OW 2839   0.043   5.032   9.200  0.4183 -0.6385 -0.7721
  947SOL    HW1 2840   0.051   5.003   9.291 -0.4492 -1.1165 -0.8302
  947SOL    HW2 2841   0.074   4.958   9.148  1.4950 -0.1372 -0.8671
  948SOL     OW 2842   0.423   4.072   6.035 -0.0120  0.2360  0.1525
  948SOL    HW1 2843   0.375   4.155   6.029  0.7966  0.7525  0.7571
  948SOL    HW2 2844   0.445   4.051   5.944 -0.1671  0.7119  0.0011
  949SOL     OW 2845   4.797   4.385   6.203 -0.5656  0.0347 -0.3435
  949SOL    HW1 2846   4.713   4.426   6.180 -1.7140 -0.1021  2.9828
  949SOL    HW2 2847   4.836   4.446   6.265 -0.9877 -2.3962  2.5437
  950SOL     OW 2848   1.462   1.013   6.263 -0.2852 -0.2055  0.0663
  950SOL    HW1 2849   1.401   1.018   6.336  1.3779 -1.2206  1.5972
  950SOL    HW2 2850   1.476   0.919   6.250 -1.1530 -0.0888 -2.1276
  951SOL     OW 2851   1.837   2.689   7.325  0.1583  0.0845 -0.4105
  951SOL    HW1 2852   1.880   2.659   7.245  3.2789  1.3022  0.6418
  951SOL    HW2 2853   1.771   2.752   7.295 -0.6796 -1.5247 -2.1059
  952SOL     OW 2854   4.669   2.855   7.026 -0.0452 -0.1466 -0.1232
  952SOL    HW1 2855   4.621   2.922   6.977 -0.6860  0.0017  0.6907
  952SOL    HW2 2856   4.761   2.872   7.005 -0.0525  1.9872  1.2474
  953SOL     OW 2857   0.136   0.113   8.936 -0.0286 -0.1554 -0.2278
  953SOL    HW1 2858   0.047   0.114   8.971  0.2908  0.0191  0.5777
  953SOL    HW2 2859   0.123   0.108   8.841 -0.8950 -0.8448 -0.0945
  954SOL     OW 2860   1.318   1.884   7.180  0.5701 -0.6993  0.1651
  954SOL    HW1 2861   1.362   1.822   7.123 -0.8489 -1.7204  0.1368
  954SOL    HW2 2862   1.380   1.957   7.189  1.4486 -1.2178 -1.3970
  955SOL     OW 2863   0.402   2.237   9.050  0.0290  0.0156 -0.8950
  955SOL    HW1 2864   0.418   2.284   9.132 -0.5862 -2.1250  0.5245
  955SOL    HW2 2865   0.318   2.272   9.018  0.6697  1.4520 -1.1187
  956SOL     OW 2866   1.163   3.808   8.218  0.3060 -0.4584 -0.2179
  956SOL    HW1 2867   1.171   3.868   8.292  0.2382 -1.3565  0.5330
  956SOL    HW2 2868   1.233   3.833   8.159 -0.7856  1.5109 -0.7628
  957SOL     OW 2869   4.008   3.216   7.870  0.2885 -0.0168  0.0663
  957SOL    HW1 2870   3.996   3.300   7.826  0.5472 -0.9807 -1.9986
  957SOL    HW2 2871   3.922   3.194   7.904 -0.7838 -0.6867 -2.8394
  958SOL     OW 2872   0.972   3.916   5.972  0.6480  0.1499  0.3426
  958SOL    HW1 2873   0.993   3.958   5.888  0.1354 -0.3287 -0.0321
  958SOL    HW2 2874   1.045   3.939   6.029  0.1767  1.9484  0.2965
  959SOL     OW 2875   4.112   2.568   8.082  0.3044 -0.3687 -0.6161
  959SOL    HW1 2876   4.022   2.550   8.055  0.5821 -1.5374 -0.8213
  959SOL    HW2 2877   4.142   2.636   8.021 -0.5274  0.2631 -0.3433
  960SOL     OW 2878   2.753  -0.023   8.712 -0.4038  0.0929  0.2919
  960SOL    HW1 2879   2.762   0.072   8.724 -0.2564  0.2457 -0.9568
  960SOL    HW2 2880   2.803  -0.042   8.633 -2.1752 -0.6949 -0.6852
  961SOL     OW 2881   2.693   4.052   8.656 -1.3369 -0.2535  0.0569
  961SOL    HW1 2882   2.626   3.990   8.685 -0.6556 -0.1502  2.0395
  961SOL    HW2 2883   2.743   4.004   8.590 -3.3240 -0.3198 -1.4740
  962SOL     OW 2884   4.502   1.900   7.009 -0.2317 -0.4156 -0.0703
  962SOL    HW1 2885   4.490   1.870   7.100 -1.8546 -0.0053 -0.1055
  962SOL    HW2 2886   4.525   1.820   6.961 -0.4646 -0.8526  0.5262
  963SOL     OW 2887   1.474   1.228   6.997 -0.3257  1.3768  0.5271
  963SOL    HW1 2888   1.516   1.160   6.945 -4.5513 -1.4072  0.2714
  963SOL    HW2 2889   1.543   1.292   7.014  3.4998 -2.0072 -0.8312
  964SOL     OW 2890   1.832   3.347   7.164 -0.2016 -0.0506 -0.2740
  964SOL    HW1 2891   1.838   3.404   7.241  0.2736  0.5372 -0.7315
  964SOL    HW2 2892   1.873   3.398   7.094 -1.2643 -0.2697 -1.0889
  965SOL     OW 2893   0.551   2.099   7.401 -0.4114 -0.8758  0.2484
  965SOL    HW1 2894   0.605   2.144   7.466  1.8844  0.4521 -2.4039
  965SOL    HW2 2895   0.602   2.023   7.375  0.0493  0.1132 -1.9378
  966SOL     OW 2896   4.104   2.158   8.110 -0.3022 -0.0606  1.1566
  966SOL    HW1 2897   4.058   2.203   8.181  2.0983  0.1952  2.6482
  966SOL    HW2 2898   4.152   2.227   8.065 -0.2435 -0.5088  0.5263
  967SOL     OW 2899   0.223   1.833   8.983  0.0914 -0.3722  0.2920
  967SOL    HW1 2900   0.215   1.742   8.955 -0.9335 -0.1803 -0.0719
  967SOL    HW2 2901   0.317   1.845   9.000  0.7160 -0.6609 -2.4807
  968SOL     OW 2902   3.412   1.731   8.354 -0.1710  0.4549  0.0552
  968SOL    HW1 2903   3.425   1.666   8.286 -0.9703 -0.3272  0.6384
  968SOL    HW2 2904   3.501   1.754   8.383  0.1052 -1.0230  0.4415
  969SOL     OW 2905   0.833   0.262   8.996  0.2713 -0.3875 -0.4815
  969SOL    HW1 2906   0.783   0.318   8.937 -0.6775 -1.5422 -0.8135
  969SOL    HW2 2907   0.889   0.210   8.939  3.6510  2.3951 -0.0379
  970SOL     OW 2908   3.772   3.702   8.962  0.2067  0.2010  0.1504
  970SOL    HW1 2909   3.867   3.688   8.968 -0.0748 -1.3195  2.5393
  970SOL    HW2 2910   3.748   3.735   9.049 -1.7851 -2.1544  0.5925
  971SOL     OW 2911   2.894   1.655   9.540  0.0809  0.1857  0.7030
  971SOL    HW1 2912   2.978   1.608   9.544  1.0218  1.3932 -2.2232
  971SOL    HW2 2913   2.915   1.737   9.497 -2.4912  0.9565  0.7600
  972SOL     OW 2914   4.782   2.386   7.120 -0.9171 -0.4059  0.1019
  972SOL    HW1 2915   4.838   2.327   7.172  0.6153  0.5737 -0.3728
  972SOL    HW2 2916   4.714   2.329   7.084  0.7475 -1.9998 -0.6700
  973SOL     OW 2917   1.572   0.933   9.297 -0.2405 -0.2220 -0.1226
  973SOL    HW1 2918   1.538   1.017   9.329  2.4968  0.1794  2.0994
  973SOL    HW2 2919   1.560   0.873   9.370 -1.5059 -1.6547 -1.4420
  974SOL     OW 2920   2.731   2.546  10.302  0.0554  0.1641  0.5570
  974SOL    HW1 2921   2.698   2.545  10.392  2.3660  0.1463  1.4716
  974SOL    HW2 2922   2.654   2.525  10.248 -1.0984 -1.2673  2.6093
  975SOL     OW 2923   1.197   2.379   8.111 -0.3106 -0.0127 -0.3994
  975SOL    HW1 2924   1.152   2.300   8.140  1.7688 -0.9322  0.5023
  975SOL    HW2 2925   1.277   2.347   8.069  1.9438  1.6021  2.3475
  976SOL     OW 2926   3.869   0.800   7.970  0.4156 -0.0152  0.1510
  976SOL    HW1 2927   3.819   0.832   8.045  0.1344 -0.3567  0.1133
  976SOL    HW2 2928   3.922   0.875   7.942 -2.0922  1.2335 -1.5398
  977SOL     OW 2929   2.851   2.031   6.856  0.3920  0.2985 -0.4566
  977SOL    HW1 2930   2.896   1.948   6.874  2.1723  1.3101  0.0065
  977SOL    HW2 2931   2.760   2.014   6.877  1.1385 -0.7895  2.3230
  978SOL     OW 2932   0.121   0.770   4.780  0.5101  0.7154 -0.2084
  978SOL    HW1 2933   0.188   0.770   4.849 -0.2052  0.5202  0.5114
  978SOL    HW2 2934   0.108   0.862   4.759 -0.2077  0.8860  0.8889
  979SOL     OW 2935   4.679   1.193   6.669  0.0445 -0.0615  0.6388
  979SOL    HW1 2936   4.758   1.176   6.619 -0.3075 -1.7105  0.5721
  979SOL    HW2 2937   4.707   1.192   6.761 -0.1594 -2.7960  0.7534
  980SOL     OW 2938   0.382   4.050   9.945  0.1439 -0.1018 -0.0987
  980SOL    HW1 2939   0.402   4.018   9.857 -1.5492  1.7305 -1.2310
  980SOL    HW2 2940   0.467   4.078   9.979  1.0483 -2.0503 -0.5564
  981SOL     OW 2941   2.893   2.435   7.841 -1.0915  0.4627 -0.0759
  981SOL    HW1 2942   2.896   2.339   7.836 -2.3974  0.3308  1.0271
  981SOL    HW2 2943   2.977   2.459   7.881 -0.3765 -0.1358 -1.1825
  982SOL     OW 2944   3.278   2.926   7.785  0.0932 -0.3917 -0.3339
  982SOL    HW1 2945   3.269   2.992   7.853  2.9764 -0.3051  0.0453
  982SOL    HW2 2946   3.260   2.973   7.703  2.3961  1.0194 -0.0999
  983SOL     OW 2947   1.955   1.981   9.711  0.2037  0.5328 -0.3209
  983SOL    HW1 2948   1.985   1.927   9.638  1.0731 -2.0732  1.8451
  983SOL    HW2 2949   2.034   2.002   9.760 -0.4158  1.8870  0.1553
  984SOL     OW 2950   1.930   1.673   8.443 -0.1171  0.1285  0.3998
  984SOL    HW1 2951   1.847   1.661   8.397 -0.1990  1.1179  0.2753
  984SOL    HW2 2952   1.949   1.587   8.481 -0.0549 -0.7315 -1.4661
  985SOL     OW 2953   0.831   3.153   8.192  0.4951 -0.8360 -0.0877
  985SOL    HW1 2954   0.918   3.172   8.228  0.2150 -1.2855  0.8451
  985SOL    HW2 2955   0.774   3.219   8.231  0.3276 -0.8342 -0.3337
  986SOL     OW 2956   1.684   3.167   8.420 -0.5634  0.0817  0.4021
  986SOL    HW1 2957   1.772   3.169   8.457 -0.9464 -2.4262  1.6575
  986SOL    HW2 2958   1.672   3.077   8.390 -2.5448  0.4625 -0.1295
  987SOL     OW 2959   4.537   1.277   5.819  0.2789 -0.5398 -0.3796
  987SOL    HW1 2960   4.568   1.364   5.793 -0.1433 -0.7087 -1.5181
  987SOL    HW2 2961   4.465   1.259   5.758  1.2120 -2.2382 -1.0399
  988SOL     OW 2962   4.282   2.415   8.868 -0.1251 -0.4591 -0.3012
  988SOL    HW1 2963   4.245   2.329   8.890  0.3090 -0.9637 -1.4675
  988SOL    HW2 2964   4.361   2.395   8.817  0.2225  0.6309 -0.2178
  989SOL     OW 2965   2.460   1.380   8.407 -0.0135  0.1996  0.0225
  989SOL    HW1 2966   2.446   1.473   8.388  1.1646  0.2945 -0.5152
  989SOL    HW2 2967   2.525   1.380   8.478  0.0214 -0.2184 -0.0068
  990SOL     OW 2968   0.391   4.728   6.320 -0.6101 -0.2007 -0.5375
  990SOL    HW1 2969   0.420   4.708   6.409  1.7010 -1.6486 -1.5064
  990SOL    HW2 2970   0.332   4.802   6.330  1.5483  1.3756  2.0042
  991SOL     OW 2971   0.874   2.669   6.422 -0.3388  0.0134 -0.1513
  991SOL    HW1 2972   0.864   2.642   6.331  1.4348  2.3286 -1.1379
  991SOL    HW2 2973   0.840   2.758   6.424  1.7414  0.8521  0.8417
  992SOL     OW 2974   4.928   3.183   6.803  0.2594  0.0722  0.2791
  992SOL    HW1 2975   4.996   3.245   6.832 -1.0235  1.5457  0.2552
  992SOL    HW2 2976   4.933   3.185   6.707  0.1080  0.2712  0.2750
  993SOL     OW 2977   3.134   0.586   7.594  0.2564 -0.2487  0.2463
  993SOL    HW1 2978   3.207   0.525   7.601 -1.4530 -2.5103 -0.7240
  993SOL    HW2 2979   3.131   0.609   7.501 -0.3579 -0.3002  0.2506
  994SOL     OW 2980   3.394   1.820   7.367  0.0756  0.7460  0.2997
  994SOL    HW1 2981   3.430   1.907   7.350  1.4012  0.4615  1.4684
  994SOL    HW2 2982   3.471   1.764   7.381 -0.7629 -0.4752  0.2123
  995SOL     OW 2983   4.656   1.104   7.745  0.0738 -0.1536  0.0692
  995SOL    HW1 2984   4.663   1.056   7.827  0.2952  0.0601  0.1762
  995SOL    HW2 2985   4.562   1.124   7.737  0.1068  0.1870  0.4777
  996SOL     OW 2986   1.374   3.033   9.928 -0.4187 -0.0293  0.6006
  996SOL    HW1 2987   1.304   2.980   9.967 -0.6948  1.7573  2.7071
  996SOL    HW2 2988   1.338   3.122   9.924  0.5124  0.3216 -1.5807
  997SOL     OW 2989   3.936   1.885   7.261  0.5617 -0.0432  0.4321
  997SOL    HW1 2990   3.887   1.803   7.259  0.2186  0.1373 -1.9212
  997SOL    HW2 2991   4.027   1.858   7.255  0.5741 -0.2907  1.5861
  998SOL     OW 2992   1.891   1.506   9.686  0.0046  0.1975 -0.8340
  998SOL    HW1 2993   1.860   1.569   9.752  0.0365 -2.0316  1.4720
  998SOL    HW2 2994   1.814   1.487   9.633 -0.8213 -0.1248  0.4327
  999SOL     OW 2995   1.665   3.290   7.527  0.8895  0.4219  0.2016
  999SOL    HW1 2996   1.637   3.198   7.522 -1.0095  0.8991  0.9245
  999SOL    HW2 2997   1.733   3.290   7.594  0.8021 -0.4465  0.3070
 1000SOL     OW 2998   1.390   3.519   9.565 -0.0708 -0.3264 -0.3062
 1000SOL    HW1 2999   1.367   3.585   9.631  0.0695 -0.9492  0.3870
 1000SOL    HW2 3000   1.486   3.518   9.565 -0.0725 -0.6916 -0.1379
 1001SOL     OW 3001   3.017   1.423   9.241 -0.0341 -0.3287 -0.8534
 1001SOL    HW1 3002   3.033   1.457   9.329  1.1837 -0.5069 -0.9871
 1001SOL    HW2 3003   3.072   1.477   9.184 -0.3066 -0.6387 -1.4176
 1002SOL     OW 3004   3.585   4.872   7.411 -0.5669  0.1240 -0.3335
 1002SOL    HW1 3005   3.620   4.791   7.375 -1.2613 -1.6337  2.6429
 1002SOL    HW2 3006   3.517   4.899   7.349 -0.7105 -1.8808 -1.1021
 1003SOL     OW 3007   3.620   0.348   8.423  0.2042 -0.1636 -0.1546
 1003SOL    HW1 3008   3.581   0.347   8.510  0.5619 -0.1543  0.0049
 1003SOL    HW2 3009   3.550   0.382   8.366 -0.4948 -1.4643 -0.1008
 1004SOL     OW 3010   4.359   4.090   8.486  0.0946 -0.5865 -0.2456
 1004SOL    HW1 3011   4.353   4.183   8.509 -0.6740 -0.8297  0.6075
 1004SOL    HW2 3012   4.269   4.057   8.495  0.5957 -1.7235  0.8812
 1005SOL     OW 3013   4.681   3.637   9.834 -0.7874  0.4060  0.1354
 1005SOL    HW1 3014   4.597   3.602   9.803 -0.6350  0.2615 -0.1166
 1005SOL    HW2 3015   4.658   3.718   9.878 -0.9159  1.1250 -1.2017
 1006SOL     OW 3016   1.942   2.953   9.266  0.4746  0.4517  0.2055
 1006SOL    HW1 3017   1.904   3.040   9.278  3.0024  1.6422  0.2535
 1006SOL    HW2 3018   1.918   2.905   9.346 -0.7081  1.1905  0.3122
 1007SOL     OW 3019   0.376   0.358   7.819  0.2645  0.0483 -0.0029
 1007SOL    HW1 3020   0.374   0.443   7.863 -0.4568 -0.3212  0.7113
 1007SOL    HW2 3021   0.310   0.363   7.751  1.4606  0.6607 -1.1742
 1008SOL     OW 3022   1.030   2.746   9.747  0.3956 -0.5770 -0.1892
 1008SOL    HW1 3023   1.086   2.762   9.823 -0.5027  0.2022  0.3372
 1008SOL    HW2 3024   1.050   2.657   9.720  2.6915  0.0205 -0.7092
 1009SOL     OW 3025   4.684   0.735  10.074  0.0773 -0.3238 -0.1837
 1009SOL    HW1 3026   4.593   0.745  10.045  0.0297  1.0714  0.3789
 1009SOL    HW2 3027   4.730   0.808  10.032  0.6858 -0.2824  0.5458
 1010SOL     OW 3028   0.130   2.025   8.425 -0.0894  0.1825  0.1599
 1010SOL    HW1 3029   0.068   1.980   8.366  0.4439 -1.9841  1.1350
 1010SOL    HW2 3030   0.109   1.990   8.512  0.7830  1.4162  0.8865
 1011SOL     OW 3031   0.462   2.973   8.218 -0.0425 -0.2924  1.1646
 1011SOL    HW1 3032   0.525   2.927   8.274 -0.3287 -1.3864  0.6154
 1011SOL    HW2 3033   0.388   2.913   8.211  0.8187 -1.2158 -2.0927
 1012SOL     OW 3034   3.278   4.165   7.413 -0.2836  0.2053  0.3755
 1012SOL    HW1 3035   3.351   4.218   7.447 -1.1995  1.1060  0.9852
 1012SOL    HW2 3036   3.265   4.097   7.479 -0.8328  0.8313  0.9317
 1013SOL     OW 3037   2.867   0.327   9.943  0.0853 -0.0601  0.2485
 1013SOL    HW1 3038   2.885   0.240   9.977 -0.9773 -0.0813  0.7933
 1013SOL    HW2 3039   2.814   0.369  10.011 -0.0957  0.7270 -0.3629
 1014SOL     OW 3040   0.788   2.758   6.667 -0.1990  0.0073 -0.1093
 1014SOL    HW1 3041   0.864   2.742   6.611  0.4596 -0.1653  0.8003
 1014SOL    HW2 3042   0.775   2.853   6.663  1.1764  0.2778  1.0861
 1015SOL     OW 3043   1.387   1.182   9.365 -1.1409 -0.3434 -0.1775
 1015SOL    HW1 3044   1.319   1.223   9.312  0.8392  1.3533 -1.5558
 1015SOL    HW2 3045   1.459   1.244   9.364 -0.5405 -0.7477  3.6371
 1016SOL     OW 3046   0.586   4.846   6.970 -0.0512 -0.4250  1.2364
 1016SOL    HW1 3047   0.526   4.772   6.975  1.8322 -2.0093  1.9140
 1016SOL    HW2 3048   0.604   4.870   7.061 -1.4925  1.6917  1.0447
 1017SOL     OW 3049   2.754   3.291   9.348 -0.2317  0.1765  0.1781
 1017SOL    HW1 3050   2.676   3.243   9.320 -0.5190  0.6028  0.2339
 1017SOL    HW2 3051   2.787   3.333   9.269  0.5581 -0.8463 -0.0597
 1018SOL     OW 3052   0.751   0.271   9.552 -0.2820 -0.4704 -0.4176
 1018SOL    HW1 3053   0.743   0.351   9.604  0.5597 -0.5739 -0.1157
 1018SOL    HW2 3054   0.764   0.201   9.617  1.2310 -0.5400 -0.7609
 1019SOL     OW 3055   4.432   4.041   7.731 -0.0722  0.8136 -0.0313
 1019SOL    HW1 3056   4.437   3.948   7.711  0.3875  0.8607 -0.1623
 1019SOL    HW2 3057   4.486   4.052   7.810 -2.6834  0.4662  1.9315
 1020SOL     OW 3058   3.090   2.907   8.664  0.2312 -0.0059  0.4498
 1020SOL    HW1 3059   3.140   2.871   8.591  0.2038 -0.8357  0.8355
 1020SOL    HW2 3060   3.138   2.878   8.742 -0.5440 -0.3504  0.8050
 1021SOL     OW 3061   2.474   3.153   9.696 -0.4380  0.5138  0.1186
 1021SOL    HW1 3062   2.538   3.202   9.748  0.0127  0.5203 -0.4256
 1021SOL    HW2 3063   2.419   3.109   9.761 -0.9464  1.8336  0.6218
 1022SOL     OW 3064   1.151   1.815   8.536 -0.0911  0.0172 -0.4066
 1022SOL    HW1 3065   1.211   1.837   8.465 -1.0368 -0.1337 -1.2735
 1022SOL    HW2 3066   1.187   1.736   8.575  1.4310  1.0921  0.4785
 1023SOL     OW 3067   4.489   1.110   9.066 -0.4053 -0.0195 -0.2482
 1023SOL    HW1 3068   4.496   1.039   9.002 -1.5426  0.4116 -0.8949
 1023SOL    HW2 3069   4.498   1.068   9.151  1.3876 -0.5733 -0.6825
 1024SOL     OW 3070   0.492   4.398   9.852  0.6741  0.4263 -0.4661
 1024SOL    HW1 3071   0.531   4.348   9.924 -1.5287 -1.5772 -0.5322
 1024SOL    HW2 3072   0.446   4.471   9.895  1.1271  0.4626 -0.0424
 1025SOL     OW 3073   0.351   3.635   6.285 -0.4814  0.5205  0.0974
 1025SOL    HW1 3074   0.387   3.722   6.268 -0.2037  0.3001 -0.4968
 1025SOL    HW2 3075   0.428   3.582   6.308 -0.1227 -0.3291 -2.6851
 1026SOL     OW 3076   0.724   0.810   9.866  0.1331 -0.2944  0.6898
 1026SOL    HW1 3077   0.713   0.837   9.775  1.3260 -0.3609  0.5176
 1026SOL    HW2 3078   0.766   0.884   9.909 -2.0960  0.4935  1.6588
 1027SOL     OW 3079   1.535   2.095   8.082 -0.1888  0.4449 -0.2762
 1027SOL    HW1 3080   1.531   2.109   8.176 -2.3648 -2.4483  0.1868
 1027SOL    HW2 3081   1.597   2.023   8.071  0.8242  1.4134 -1.2171
 1028SOL     OW 3082   0.185   4.866   8.277 -0.1301 -0.5046 -0.1415
 1028SOL    HW1 3083   0.251   4.797   8.271 -1.5711 -1.9916  0.1778
 1028SOL    HW2 3084   0.175   4.881   8.371  1.3535  1.4149 -0.2200
 1029SOL     OW 3085   1.407   4.730   7.239  0.5486 -0.5410  0.0074
 1029SOL    HW1 3086   1.477   4.762   7.296  1.5962 -1.8623 -0.4748
 1029SOL    HW2 3087   1.336   4.793   7.251  1.0817 -0.2245  2.0086
 1030SOL     OW 3088   2.374  -0.018   9.330  0.2966  0.2792 -0.3659
 1030SOL    HW1 3089   2.337   0.058   9.285 -1.1214  0.1099  0.4529
 1030SOL    HW2 3090   2.427   0.020   9.400 -0.8560  0.5458  0.3916
 1031SOL     OW 3091   4.625   4.316   8.555 -0.5663 -0.5952  0.4828
 1031SOL    HW1 3092   4.570   4.393   8.567 -0.7208 -0.4989 -0.6805
 1031SOL    HW2 3093   4.708   4.351   8.522  0.1140 -0.7647  1.9298
 1032SOL     OW 3094   0.300   3.422   8.931  0.4737  0.4774  0.9194
 1032SOL    HW1 3095   0.212   3.387   8.945  0.4843 -0.5259 -1.1714
 1032SOL    HW2 3096   0.358   3.350   8.954  0.5692 -0.2037 -1.2124
 1033SOL     OW 3097   1.710   2.353   8.489 -0.1527  0.6493 -0.2052
 1033SOL    HW1 3098   1.724   2.447   8.487 -0.1064  0.6372 -0.4164
 1033SOL    HW2 3099   1.798   2.316   8.486 -0.1793  0.5955 -0.3293
 1034SOL     OW 3100   0.331   1.793   7.919 -0.1224  0.0352  0.1906
 1034SOL    HW1 3101   0.335   1.778   7.824 -0.0980  0.7842  0.0680
 1034SOL    HW2 3102   0.415   1.834   7.941  0.0654 -0.5621  0.6233
 1035SOL     OW 3103   1.254   3.719   6.993  0.9675  0.4267  0.4233
 1035SOL    HW1 3104   1.227   3.751   7.079  0.2217 -0.5889  0.5861
 1035SOL    HW2 3105   1.325   3.658   7.011  0.2323 -0.4457  0.4009
 1036SOL     OW 3106   2.735   2.462   9.219 -0.0888  0.0222  0.4030
 1036SOL    HW1 3107   2.659   2.411   9.190  1.3088 -2.2346  0.4832
 1036SOL    HW2 3108   2.797   2.396   9.250  1.3854  1.8921  1.6172
 1037SOL     OW 3109   3.373   4.941   8.236 -0.1494  0.2508 -0.5317
 1037SOL    HW1 3110   3.304   4.887   8.275  1.7021 -2.1596 -0.4074
 1037SOL    HW2 3111   3.423   4.973   8.311  0.4434 -0.2425 -0.7103
 1038SOL     OW 3112   0.166   1.991   5.659  0.1841 -0.0268 -0.2333
 1038SOL    HW1 3113   0.082   2.001   5.613  1.0464 -1.7788 -2.4118
 1038SOL    HW2 3114   0.147   1.931   5.731 -0.7436  0.9316  0.3454
 1039SOL     OW 3115   0.113   0.616   9.110  0.8858 -0.2819 -0.2125
 1039SOL    HW1 3116   0.187   0.644   9.163  0.9920 -1.6833  0.3936
 1039SOL    HW2 3117   0.144   0.540   9.062 -0.2169 -1.0259  0.2125
 1040SOL     OW 3118   3.155   4.006   9.489  0.0423 -0.1331 -0.4251
 1040SOL    HW1 3119   3.214   4.080   9.506  0.7132 -0.3269 -1.7304
 1040SOL    HW2 3120   3.080   4.021   9.546  1.7008 -0.3234  1.9293
 1041SOL     OW 3121   3.604   2.432   7.957  0.3236  0.1934 -0.2008
 1041SOL    HW1 3122   3.570   2.479   7.880  0.3651 -0.4872 -0.6386
 1041SOL    HW2 3123   3.538   2.448   8.025 -1.8376 -2.4620 -1.4702
 1042SOL     OW 3124   1.100   3.834   9.958 -0.1023  0.4168  0.3851
 1042SOL    HW1 3125   1.099   3.849  10.053  0.3535  1.2136  0.2667
 1042SOL    HW2 3126   1.083   3.919   9.920  0.9328  0.3424 -0.2696
 1043SOL     OW 3127   1.895   4.359   7.519  0.0327  0.1444 -0.3317
 1043SOL    HW1 3128   1.875   4.284   7.463 -1.3197 -0.0870  0.4290
 1043SOL    HW2 3129   1.959   4.325   7.582  0.8055  0.1456 -1.0816
 1044SOL     OW 3130   3.569   4.360   8.974 -0.2557  0.0029 -0.2775
 1044SOL    HW1 3131   3.659   4.360   8.939 -0.6981 -1.1579 -1.5102
 1044SOL    HW2 3132   3.548   4.267   8.985 -0.6111  0.2953  1.9511
 1045SOL     OW 3133   4.588   3.704   7.895  0.1644 -0.0822 -0.7474
 1045SOL    HW1 3134   4.521   3.724   7.829  0.6086  2.5853 -0.4731
 1045SOL    HW2 3135   4.569   3.614   7.921 -1.3524 -0.4747 -2.9463
 1046SOL     OW 3136   3.125   0.048   7.737  0.0850  0.1237 -0.0038
 1046SOL    HW1 3137   3.114  -0.042   7.768 -3.0438  1.1438  2.2666
 1046SOL    HW2 3138   3.216   0.069   7.758  0.7561 -2.3040 -0.1566
 1047SOL     OW 3139   0.916   2.276   7.887 -0.6240 -0.5576 -0.5018
 1047SOL    HW1 3140   1.005   2.243   7.873 -0.8043 -1.2311 -0.1468
 1047SOL    HW2 3141   0.880   2.218   7.954 -0.9981  0.3236  0.0785
 1048SOL     OW 3142   3.841   4.010   9.717 -0.0978 -0.3891 -0.0626
 1048SOL    HW1 3143   3.865   4.102   9.713  1.0759 -0.5447  2.0041
 1048SOL    HW2 3144   3.757   4.009   9.763 -0.2561 -0.3383 -0.3494
 1049SOL     OW 3145   2.691   2.627   7.853 -0.0239  0.4235  0.3307
 1049SOL    HW1 3146   2.722   2.690   7.788 -0.0809 -0.8345 -0.9877
 1049SOL    HW2 3147   2.764   2.565   7.863 -0.1449  0.4077  1.2261
 1050SOL     OW 3148   4.597   4.782   9.906 -0.4246 -0.2758  0.0083
 1050SOL    HW1 3149   4.691   4.763   9.915  0.2193  1.4761 -2.2371
 1050SOL    HW2 3150   4.556   4.727   9.973  2.2920 -0.0805  2.0267
 1051SOL     OW 3151   1.912   3.120   8.554  0.0722 -0.5657  0.2632
 1051SOL    HW1 3152   1.891   3.052   8.618  0.0655  1.1431  2.1751
 1051SOL    HW2 3153   1.967   3.182   8.601  0.5577  0.4852 -1.5778
 1052SOL     OW 3154   1.818   0.316   9.606 -0.2816 -0.3644  0.1391
 1052SOL    HW1 3155   1.804   0.247   9.541 -2.7793 -0.7778  1.0069
 1052SOL    HW2 3156   1.869   0.273   9.676  0.3311 -0.5901 -0.4324
 1053SOL     OW 3157   4.862   4.715   9.915 -0.0018 -0.2153  0.0660
 1053SOL    HW1 3158   4.867   4.620   9.932 -1.7914 -0.2105  0.8698
 1053SOL    HW2 3159   4.951   4.739   9.890  0.6245 -2.0136  0.3571
 1054SOL     OW 3160   1.769   1.591   8.177 -0.3078  0.0920 -0.4356
 1054SOL    HW1 3161   1.731   1.676   8.155 -2.9014 -0.9825 -0.4968
 1054SOL    HW2 3162   1.765   1.540   8.096  0.2740 -0.4161 -0.1565
 1055SOL     OW 3163   2.080   2.321  10.348  0.1462 -0.5606 -0.0415
 1055SOL    HW1 3164   2.127   2.328  10.431 -0.3356  0.0153  0.1889
 1055SOL    HW2 3165   2.148   2.332  10.281  0.3827  0.0308  0.2862
 1056SOL     OW 3166   1.054   1.999  10.022 -0.6770  0.0910 -0.9784
 1056SOL    HW1 3167   1.003   2.018  10.102 -1.0917  0.2398 -1.2732
 1056SOL    HW2 3168   1.018   1.916   9.991  1.0862 -1.2130  0.2705
 1057SOL     OW 3169   2.398   3.344   7.967  0.2148 -0.3443  0.3934
 1057SOL    HW1 3170   2.441   3.273   7.919  0.4866  0.3770 -0.4480
 1057SOL    HW2 3171   2.389   3.310   8.056 -0.2038 -1.6658 -0.1225
 1058SOL     OW 3172   0.382   4.121   8.195 -0.3189 -0.0851  0.2132
 1058SOL    HW1 3173   0.346   4.199   8.237 -0.9187  1.5076 -2.9973
 1058SOL    HW2 3174   0.339   4.048   8.241 -1.5931  1.5118  1.7109
 1059SOL     OW 3175   1.071   3.268   8.910  0.4668  0.2486  0.4985
 1059SOL    HW1 3176   1.158   3.275   8.873  1.2841 -1.2757  1.9612
 1059SOL    HW2 3177   1.019   3.225   8.842 -0.1822  4.1106 -1.7397
 1060SOL     OW 3178   2.197   3.389   8.889  0.0783 -0.0388 -0.3738
 1060SOL    HW1 3179   2.136   3.460   8.909 -0.4068 -0.8759  1.3276
 1060SOL    HW2 3180   2.264   3.395   8.956  1.0723 -0.0478 -1.3429
 1061SOL     OW 3181   2.548   1.295   6.662 -0.2001  0.7880 -0.0970
 1061SOL    HW1 3182   2.545   1.215   6.610 -0.2677  1.3266 -0.9530
 1061SOL    HW2 3183   2.579   1.362   6.601  1.1221  1.1702  0.9316
 1062SOL     OW 3184   1.815   3.875   8.932 -0.5403  0.1601 -0.2096
 1062SOL    HW1 3185   1.910   3.887   8.939 -0.4254 -0.9954  0.5501
 1062SOL    HW2 3186   1.795   3.808   8.996 -2.0211  1.0051  0.2576
 1063SOL     OW 3187   1.036   3.106   9.223 -0.0256 -0.2966 -0.0730
 1063SOL    HW1 3188   1.047   3.035   9.160 -1.0050  0.5296 -1.2147
 1063SOL    HW2 3189   1.071   3.184   9.178 -0.5060  0.2604  0.5030
 1064SOL     OW 3190   1.373   3.545  10.081 -0.2653 -0.0795 -0.1271
 1064SOL    HW1 3191   1.330   3.537   9.997 -0.0116  0.8340 -0.3537
 1064SOL    HW2 3192   1.334   3.476  10.135 -0.0982 -0.9712 -1.1187
 1065SOL     OW 3193   0.570   4.360   8.347 -0.2756 -0.2663  0.0669
 1065SOL    HW1 3194   0.538   4.398   8.429 -0.5260 -1.0982  0.3718
 1065SOL    HW2 3195   0.601   4.273   8.373  1.1777  0.0746 -0.4274
 1066SOL     OW 3196   0.043   2.056   9.861 -0.0473  0.2705  0.5262
 1066SOL    HW1 3197   0.010   2.144   9.875  0.4620  1.0687 -2.5549
 1066SOL    HW2 3198   0.131   2.057   9.898  0.0209  1.1401  0.3668
 1067SOL     OW 3199   4.473   0.969   9.314  0.2364 -0.5246 -0.4740
 1067SOL    HW1 3200   4.385   0.931   9.308  0.3702 -0.9592  0.2477
 1067SOL    HW2 3201   4.532   0.896   9.295  0.4610 -0.3855 -0.3140
 1068SOL     OW 3202   4.762   3.224   9.310 -0.6696  0.1515  0.1052
 1068SOL    HW1 3203   4.735   3.147   9.261 -1.9374  1.6359 -1.6518
 1068SOL    HW2 3204   4.685   3.247   9.362 -1.3567  1.8305 -1.5571
 1069SOL     OW 3205   0.083   0.786   8.666 -0.6470 -0.1374  0.5666
 1069SOL    HW1 3206   0.039   0.736   8.734  0.3370 -1.6443  0.1237
 1069SOL    HW2 3207   0.023   0.782   8.591 -1.4356  0.9883  1.1011
 1070SOL     OW 3208   1.712   2.535   7.640  0.3339  1.0885  0.2865
 1070SOL    HW1 3209   1.800   2.571   7.633  1.2911 -1.1019  0.1347
 1070SOL    HW2 3210   1.690   2.542   7.732  0.7915  1.3714  0.3750
 1071SOL     OW 3211   1.391   4.047  10.129 -0.3692 -0.4033  0.0725
 1071SOL    HW1 3212   1.412   4.033  10.222 -0.4751 -0.3015  0.1123
 1071SOL    HW2 3213   1.298   4.073  10.129  0.2030  1.8721  0.1533
 1072SOL     OW 3214   0.192   2.941   8.976 -0.2973 -0.3423  0.0406
 1072SOL    HW1 3215   0.119   2.997   9.003  0.9264  2.3221 -1.7602
 1072SOL    HW2 3216   0.261   2.960   9.039 -0.5937 -1.6200  0.7735
 1073SOL     OW 3217   1.277   2.184   9.427 -0.1709  0.2753 -0.0716
 1073SOL    HW1 3218   1.261   2.242   9.502  0.0124  0.7186 -0.3712
 1073SOL    HW2 3219   1.320   2.240   9.363  0.5952 -0.3623 -0.1189
 1074SOL     OW 3220   0.201   1.415   7.730 -0.2068  0.7070 -0.5327
 1074SOL    HW1 3221   0.214   1.504   7.697  0.7977 -0.1009 -2.4596
 1074SOL    HW2 3222   0.184   1.362   7.652 -1.0828 -0.7696  0.5946
 1075SOL     OW 3223   0.320   1.926   9.837 -0.1279  0.4096 -0.1436
 1075SOL    HW1 3224   0.335   1.834   9.816  0.9229  0.1801  1.4547
 1075SOL    HW2 3225   0.403   1.969   9.815 -0.0266  0.6641  0.6996
 1076SOL     OW 3226   4.926   1.078   9.284  0.8151  0.3490 -0.4901
 1076SOL    HW1 3227   5.021   1.091   9.282  0.7693  0.6393 -1.4287
 1076SOL    HW2 3228   4.900   1.085   9.192 -0.0100 -0.5159 -0.3368
 1077SOL     OW 3229   2.976   2.374   9.879 -0.8243  0.2383  0.4979
 1077SOL    HW1 3230   2.960   2.392   9.971  1.1454  0.7023  0.7878
 1077SOL    HW2 3231   3.009   2.456   9.843 -0.2226 -0.3201 -0.2741
 1078SOL     OW 3232   2.023   0.074   9.669  0.6148  0.3708 -0.2891
 1078SOL    HW1 3233   2.089   0.005   9.664 -0.7815 -1.0300 -0.2680
 1078SOL    HW2 3234   1.977   0.070   9.585  0.2137  0.9577 -0.1055
 1079SOL     OW 3235   3.360   0.011   8.635  0.0106 -0.3492  0.1351
 1079SOL    HW1 3236   3.272   0.017   8.597 -0.2733 -1.8148  0.5233
 1079SOL    HW2 3237   3.415   0.061   8.574 -1.3711  2.3654  0.9450
 1080SOL     OW 3238   2.154   1.544   9.849  0.3783  0.1135 -0.0139
 1080SOL    HW1 3239   2.083   1.518   9.790  0.9742 -0.6751 -0.3944
 1080SOL    HW2 3240   2.201   1.613   9.802 -1.1726  1.9631  0.9763
 1081SOL     OW 3241   1.837   0.429   9.341 -0.0792  0.3188 -0.5209
 1081SOL    HW1 3242   1.921   0.473   9.326  1.0087 -0.5842  2.3613
 1081SOL    HW2 3243   1.832   0.418   9.436 -2.6588 -1.2469 -0.7524
 1082SOL     OW 3244   1.054   4.667   9.478  0.4647 -0.4666  0.0211
 1082SOL    HW1 3245   0.970   4.682   9.435  1.0979  0.3435 -1.0024
 1082SOL    HW2 3246   1.117   4.661   9.406  1.2389 -1.3802  0.7485
 1083SOL     OW 3247   3.899   3.205   8.276  0.0930 -0.3766  0.0329
 1083SOL    HW1 3248   3.808   3.211   8.248 -0.4391  0.0209  1.7396
 1083SOL    HW2 3249   3.917   3.111   8.279 -1.6868 -0.7553  3.7660
 1084SOL     OW 3250   0.888   2.553   7.875  0.4199 -0.0607  0.5914
 1084SOL    HW1 3251   0.842   2.550   7.791  1.2352  1.0047  0.0866
 1084SOL    HW2 3252   0.916   2.463   7.891  0.8321 -0.1529 -0.6049
 1085SOL     OW 3253   4.745   0.558   8.252  0.1298 -0.2653 -0.1068
 1085SOL    HW1 3254   4.732   0.651   8.232  1.8712 -0.0676 -0.5101
 1085SOL    HW2 3255   4.669   0.514   8.213 -1.1135  1.0325  0.7381
 1086SOL     OW 3256   0.723   2.553   7.633  0.3162  0.5359  0.3960
 1086SOL    HW1 3257   0.777   2.480   7.605 -1.7866 -1.3886  1.0516
 1086SOL    HW2 3258   0.732   2.619   7.564  2.5429 -0.1650 -0.0383
 1087SOL     OW 3259   4.324   2.144   9.587 -0.1912 -0.1372 -0.1034
 1087SOL    HW1 3260   4.259   2.084   9.550 -1.1281  2.1271 -2.3426
 1087SOL    HW2 3261   4.401   2.135   9.530 -0.0615  0.2548  0.0070
 1088SOL     OW 3262   1.723   0.810   9.820  0.1114 -0.3674  0.2614
 1088SOL    HW1 3263   1.800   0.794   9.765  0.2647 -2.2624  0.9308
 1088SOL    HW2 3264   1.740   0.894   9.861  0.9442  0.1195 -1.0134
 1089SOL     OW 3265   3.068   1.947   9.635  0.4750 -0.2364 -0.2540
 1089SOL    HW1 3266   3.121   2.003   9.692  1.8826  0.7463 -2.3902
 1089SOL    HW2 3267   3.133   1.896   9.586 -0.7376 -3.3245  1.0894
 1090SOL     OW 3268   1.136   2.677   8.537  0.0955 -0.6443  0.2192
 1090SOL    HW1 3269   1.099   2.671   8.449  0.5396  0.8319 -0.0925
 1090SOL    HW2 3270   1.064   2.650   8.594 -1.1347  1.0192 -0.4515
 1091SOL     OW 3271   3.386   1.950   8.177  0.4034 -0.9400 -0.4663
 1091SOL    HW1 3272   3.380   1.893   8.254  2.7619  0.4415  0.8871
 1091SOL    HW2 3273   3.437   1.899   8.114  1.4052 -0.8630  0.2457
 1092SOL     OW 3274   1.136   3.946   8.905  0.3877  0.3952 -0.2327
 1092SOL    HW1 3275   1.192   3.876   8.871  0.1157 -0.4627  1.0075
 1092SOL    HW2 3276   1.119   3.921   8.996 -1.2640  1.1077 -0.3136
 1093SOL     OW 3277   0.809   0.981   9.335 -0.2344 -0.0545 -0.1590
 1093SOL    HW1 3278   0.903   0.977   9.347 -0.0594  1.5919 -0.7815
 1093SOL    HW2 3279   0.795   1.051   9.271 -1.9704  1.1688  1.4172
 1094SOL     OW 3280   0.716   3.138   9.110 -0.1616  0.4273 -0.6247
 1094SOL    HW1 3281   0.803   3.098   9.099 -0.7784 -2.2954  2.6952
 1094SOL    HW2 3282   0.724   3.188   9.191 -2.0971 -1.5664  0.9106
 1095SOL     OW 3283   0.441   1.760   7.460 -0.0072  0.3567 -0.0446
 1095SOL    HW1 3284   0.400   1.702   7.524  0.3152  0.6447  0.4395
 1095SOL    HW2 3285   0.411   1.848   7.485 -0.0240  0.4533 -0.4029
 1096SOL     OW 3286   4.154   1.198   9.364  0.1927  0.3061 -0.4094
 1096SOL    HW1 3287   4.129   1.284   9.330 -1.6906  0.4090  1.0636
 1096SOL    HW2 3288   4.071   1.152   9.375  1.0271 -1.0331  0.5548
 1097SOL     OW 3289   1.214   1.312   9.183  0.1092  0.4313  0.3961
 1097SOL    HW1 3290   1.226   1.365   9.104 -0.0364  1.3531  0.9842
 1097SOL    HW2 3291   1.138   1.258   9.163 -0.3508  1.1506  0.1460
 1098SOL     OW 3292   1.250   3.044   7.095 -0.1188  0.4383 -0.1631
 1098SOL    HW1 3293   1.278   2.973   7.037 -0.8315 -0.6030  0.7392
 1098SOL    HW2 3294   1.183   3.005   7.151  1.6529  0.8850  2.4862
 1099SOL     OW 3295   4.805   4.299   8.941  0.2157 -0.4047 -0.6697
 1099SOL    HW1 3296   4.776   4.247   8.866 -0.6317 -2.5210  1.0050
 1099SOL    HW2 3297   4.727   4.306   8.996  1.1438 -0.0762  0.6423
 1100SOL     OW 3298   2.042   2.507   9.305  0.0743  0.8445 -0.0695
 1100SOL    HW1 3299   1.974   2.537   9.365 -1.7777  1.6108 -2.3958
 1100SOL    HW2 3300   2.013   2.421   9.276  0.3599  0.9491 -0.6863
 1101SOL     OW 3301   1.916   4.266  10.189 -0.0888  0.3278  0.4921
 1101SOL    HW1 3302   2.005   4.255  10.223  0.9271  2.2938 -1.2843
 1101SOL    HW2 3303   1.907   4.198  10.123  0.1570  0.2250  0.5606
 1102SOL     OW 3304   1.424   4.670  10.144 -0.1937  0.1421  0.6426
 1102SOL    HW1 3305   1.505   4.711  10.174 -0.9716  2.8988 -0.7373
 1102SOL    HW2 3306   1.378   4.645  10.225  1.4748 -0.4474  1.4588
 1103SOL     OW 3307   1.909   4.001   8.472 -0.1054 -0.3976 -0.1459
 1103SOL    HW1 3308   1.870   3.958   8.396 -1.4580  0.8377 -0.2040
 1103SOL    HW2 3309   1.834   4.035   8.521  0.7204 -1.2411  1.8112
 1104SOL     OW 3310   4.519   0.662   7.628 -0.2264  0.0935  0.6387
 1104SOL    HW1 3311   4.449   0.703   7.577 -1.1930 -1.8291  0.3074
 1104SOL    HW2 3312   4.599   0.705   7.599 -1.1566  1.6288  0.2506
 1105SOL     OW 3313   2.347   3.481   9.661 -0.0418 -0.5909  0.8415
 1105SOL    HW1 3314   2.401   3.498   9.584 -1.6399  2.1200  0.1588
 1105SOL    HW2 3315   2.299   3.401   9.640 -0.3019 -0.0094 -0.9447
 1106SOL     OW 3316   0.772   2.341   8.850 -0.6431  0.2655  0.2935
 1106SOL    HW1 3317   0.712   2.274   8.816  0.2930 -0.1673 -0.5457
 1106SOL    HW2 3318   0.714   2.410   8.882 -1.6200  0.5738 -1.9083
 1107SOL     OW 3319   3.245   1.852   9.903 -0.4064  0.0771  0.6344
 1107SOL    HW1 3320   3.323   1.895   9.867  0.3774 -1.5918  0.2275
 1107SOL    HW2 3321   3.179   1.920   9.906  1.0075  1.4913  0.7743
 1108SOL     OW 3322   2.774   0.952   7.530 -0.3011  0.5232 -0.4371
 1108SOL    HW1 3323   2.834   0.928   7.460 -1.0320 -2.5767 -0.1374
 1108SOL    HW2 3324   2.828   1.003   7.590  1.9733 -1.5953 -0.4903
 1109SOL     OW 3325   0.812   2.863   9.259  0.2504  0.3545  0.8135
 1109SOL    HW1 3326   0.841   2.880   9.349 -3.0637  0.4428  2.0131
 1109SOL    HW2 3327   0.780   2.773   9.262  1.3999 -0.1489 -0.7355
 1110SOL     OW 3328   1.278   2.884   8.593 -0.3701  1.0140  0.6321
 1110SOL    HW1 3329   1.236   2.800   8.575 -0.5887  1.1404  0.5549
 1110SOL    HW2 3330   1.360   2.881   8.542 -1.4556  1.7915 -1.2751
 1111SOL     OW 3331   2.322   3.132   8.194 -0.3426  0.6293 -0.5820
 1111SOL    HW1 3332   2.289   3.173   8.274  1.9380 -1.3628  1.5386
 1111SOL    HW2 3333   2.244   3.098   8.151 -1.5950  1.3094  1.0415
 1112SOL     OW 3334   1.493   2.097   7.275  0.4798 -0.2277  0.3940
 1112SOL    HW1 3335   1.515   2.156   7.204 -1.5030 -0.3261 -0.3533
 1112SOL    HW2 3336   1.479   2.154   7.351  0.8343  0.0419  0.2555
 1113SOL     OW 3337   3.361   3.896   8.776 -0.5465  0.0582  0.7122
 1113SOL    HW1 3338   3.450   3.916   8.806 -1.1959 -0.3152  3.1053
 1113SOL    HW2 3339   3.374   3.833   8.705  1.0886 -0.0790  1.0738
 1114SOL     OW 3340   3.266   3.948   7.248 -0.0225 -0.0169 -0.7023
 1114SOL    HW1 3341   3.234   4.018   7.305 -0.0950 -1.0353  0.5882
 1114SOL    HW2 3342   3.206   3.875   7.265  2.0456 -1.5247  0.7213
 1115SOL     OW 3343   2.329   0.099  10.098  0.5790  0.1755 -0.2573
 1115SOL    HW1 3344   2.331   0.012  10.060  0.4898 -0.6757  1.5453
 1115SOL    HW2 3345   2.420   0.126  10.102  1.5407 -2.4849  4.5471
 1116SOL     OW 3346   1.428   2.355   8.863 -0.3283  0.1157 -0.0151
 1116SOL    HW1 3347   1.445   2.264   8.890  2.7965 -0.1324 -2.2531
 1116SOL    HW2 3348   1.384   2.394   8.938  4.0924 -1.4875  3.9049
 1117SOL     OW 3349   4.124   1.052   9.858 -0.4439  0.2155 -0.5563
 1117SOL    HW1 3350   4.069   1.093   9.791  0.4538  1.0293 -0.8157
 1117SOL    HW2 3351   4.085   1.080   9.941 -0.7248  0.3454 -0.7292
 1118SOL     OW 3352   0.419   3.698   8.126  0.5043 -0.3239 -0.1983
 1118SOL    HW1 3353   0.349   3.731   8.182 -1.2429 -0.0732 -2.3711
 1118SOL    HW2 3354   0.390   3.611   8.099 -0.2986  0.7171 -3.0768
 1119SOL     OW 3355   0.924   4.836   7.890 -0.1943  0.0523 -0.1955
 1119SOL    HW1 3356   0.877   4.799   7.816  0.4774 -0.3943 -0.4081
 1119SOL    HW2 3357   0.977   4.764   7.924  1.1163  0.7936 -0.6043
 1120SOL     OW 3358   1.993   3.322   9.702  1.1961 -0.2144  0.0334
 1120SOL    HW1 3359   2.085   3.305   9.684  1.3983 -2.0579  2.3369
 1120SOL    HW2 3360   1.959   3.239   9.736 -1.5824  0.1401 -1.5396
 1121SOL     OW 3361   2.264   2.809   7.563 -0.1579  0.4502  0.0928
 1121SOL    HW1 3362   2.185   2.761   7.538  0.3302 -1.0824  1.2948
 1121SOL    HW2 3363   2.255   2.822   7.658  0.7665  0.7588  0.1490
 1122SOL     OW 3364   2.639   1.835   8.771 -0.0255 -1.0005 -0.7461
 1122SOL    HW1 3365   2.587   1.895   8.825  1.2809 -0.2056 -0.3171
 1122SOL    HW2 3366   2.586   1.756   8.766  0.0212 -1.3669  2.2876
 1123SOL     OW 3367   3.269   4.282   9.783 -0.7881 -0.0893 -0.8282
 1123SOL    HW1 3368   3.245   4.271   9.690 -0.7673 -1.8277 -0.6670
 1123SOL    HW2 3369   3.186   4.272   9.830 -0.5712 -0.8467 -0.5849
 1124SOL     OW 3370   2.336   0.684   9.131  0.0262  0.2277  0.4234
 1124SOL    HW1 3371   2.400   0.739   9.086  1.0942 -1.8924 -0.7949
 1124SOL    HW2 3372   2.252   0.727   9.114  0.8421  1.6870 -0.1125
 1125SOL     OW 3373   2.739   2.012   8.017 -0.5470  0.2532 -0.4358
 1125SOL    HW1 3374   2.667   1.951   8.029  1.0144 -1.7646 -0.7080
 1125SOL    HW2 3375   2.753   2.051   8.103  0.9160 -2.7896  0.8449
 1126SOL     OW 3376   2.515   3.140   9.319 -0.0144  0.0334 -0.0557
 1126SOL    HW1 3377   2.559   3.059   9.292  0.3658  0.3879 -0.5207
 1126SOL    HW2 3378   2.449   3.112   9.382 -0.0703 -0.6720 -0.4232
 1127SOL     OW 3379   1.584   3.614   9.909 -0.3038 -0.8309 -0.1803
 1127SOL    HW1 3380   1.664   3.564   9.925  1.1891  1.0666 -1.3050
 1127SOL    HW2 3381   1.539   3.615   9.993  1.2203 -1.3151  0.6821
 1128SOL     OW 3382   0.272   3.243   6.866 -0.8144 -0.0300 -0.1654
 1128SOL    HW1 3383   0.196   3.302   6.858 -0.9936 -0.3662 -1.0803
 1128SOL    HW2 3384   0.293   3.244   6.959 -2.4202 -0.5005  0.2433
 1129SOL     OW 3385   4.301   0.194   9.371 -0.4052 -0.1800 -0.2230
 1129SOL    HW1 3386   4.284   0.116   9.423 -1.8101 -0.1229 -0.5569
 1129SOL    HW2 3387   4.270   0.266   9.425  2.8066  0.4658  1.0198
 1130SOL     OW 3388   1.130   3.091   8.545 -0.1797 -0.2707 -0.0003
 1130SOL    HW1 3389   1.186   3.013   8.546 -1.3241 -1.1237  0.0879
 1130SOL    HW2 3390   1.051   3.064   8.592 -0.6091  0.9462  0.0052
 1131SOL     OW 3391   2.229   0.757   9.954 -0.2404  0.3590 -0.4423
 1131SOL    HW1 3392   2.224   0.671   9.913  2.9719 -0.6610  0.9532
 1131SOL    HW2 3393   2.165   0.754  10.025  1.2660 -1.8656  0.9870
 1132SOL     OW 3394   4.467   0.125   8.349 -0.1835 -0.4484  0.0878
 1132SOL    HW1 3395   4.394   0.166   8.301 -0.6957 -0.6058  0.7185
 1132SOL    HW2 3396   4.486   0.045   8.299  0.0383 -0.0434 -0.4841
 1133SOL     OW 3397   3.818   0.185   8.648  0.1796  0.1284 -0.0981
 1133SOL    HW1 3398   3.797   0.269   8.689  0.3059  0.5960 -0.9519
 1133SOL    HW2 3399   3.883   0.146   8.706  1.4718  1.4450 -0.5904
 1134SOL     OW 3400   4.916   3.414   7.810  0.1175 -0.0796  0.2155
 1134SOL    HW1 3401   5.007   3.384   7.811  0.3883  0.4886 -1.8717
 1134SOL    HW2 3402   4.865   3.338   7.784 -0.0247 -0.3994  1.3907
 1135SOL     OW 3403   1.886   2.646   9.945 -0.0790  0.2933 -0.1626
 1135SOL    HW1 3404   1.815   2.586   9.967 -1.6279  2.3529  0.8449
 1135SOL    HW2 3405   1.844   2.713   9.890  0.9327  1.7803  0.7795
 1136SOL     OW 3406   3.882   0.595   9.367 -0.5178 -0.0284 -0.2608
 1136SOL    HW1 3407   3.910   0.517   9.319 -0.9258  1.5372 -3.3586
 1136SOL    HW2 3408   3.927   0.590   9.451  1.1715 -2.4807 -1.1987
 1137SOL     OW 3409   3.217   1.586   9.903 -0.4103 -0.0662  0.2181
 1137SOL    HW1 3410   3.254   1.672   9.922  0.2607 -0.4404  0.6216
 1137SOL    HW2 3411   3.126   1.593   9.930 -0.6176  0.8091 -0.6277
 1138SOL     OW 3412   0.156   2.383   7.582 -0.5902 -0.2756 -0.8982
 1138SOL    HW1 3413   0.241   2.420   7.559 -1.0085  2.9208  1.9615
 1138SOL    HW2 3414   0.095   2.424   7.521 -0.5810  1.1070 -0.0291
 1139SOL     OW 3415   3.852   0.634   9.088 -0.4596 -0.2399 -0.7426
 1139SOL    HW1 3416   3.864   0.636   9.183 -0.5274  1.0819 -0.7435
 1139SOL    HW2 3417   3.776   0.577   9.074 -0.3671 -0.5480 -0.0249
 1140SOL     OW 3418   0.377   2.873   8.495 -0.1729  0.0784 -0.0768
 1140SOL    HW1 3419   0.283   2.884   8.509 -0.0966  0.1340  0.4351
 1140SOL    HW2 3420   0.413   2.960   8.510 -0.1956  0.3929 -1.7309
 1141SOL     OW 3421   0.038   2.618   9.561 -0.5816  0.2918  0.8911
 1141SOL    HW1 3422   0.067   2.526   9.561 -0.0415  0.4482  0.0091
 1141SOL    HW2 3423   0.098   2.662   9.622  0.4391  0.4110 -0.1445
 1142SOL     OW 3424   4.520   0.332   6.745  0.0453 -0.8415  0.6556
 1142SOL    HW1 3425   4.521   0.377   6.661 -3.0619 -2.4565 -0.3818
 1142SOL    HW2 3426   4.495   0.399   6.808 -1.4158 -0.3865 -0.3530
 1143SOL     OW 3427   0.980   4.407   5.965 -0.5407 -0.5857 -0.2144
 1143SOL    HW1 3428   0.888   4.394   5.941 -0.4702 -0.3317 -0.6149
 1143SOL    HW2 3429   0.985   4.498   5.994 -0.4380 -0.6353 -0.0701
 1144SOL     OW 3430   1.832   4.536   6.302  0.2473  0.1763  0.3209
 1144SOL    HW1 3431   1.841   4.559   6.209 -0.6916 -1.1191 -0.1201
 1144SOL    HW2 3432   1.747   4.494   6.308  1.0139 -1.3068  1.4431
 1145SOL     OW 3433   0.074   0.846   6.640  0.6900  1.1739 -0.2101
 1145SOL    HW1 3434   0.119   0.827   6.723 -0.3269 -0.7507 -0.0405
 1145SOL    HW2 3435   0.143   0.842   6.574  1.0570 -0.2213  0.2237
 1146SOL     OW 3436   4.377   1.309   7.504  0.3196 -0.1527 -0.8113
 1146SOL    HW1 3437   4.431   1.317   7.582 -3.1043  0.3447  1.7866
 1146SOL    HW2 3438   4.331   1.226   7.515 -1.2692  0.5827 -1.4983
 1147SOL     OW 3439   1.020   4.708   5.392  0.0353  0.5177 -0.0562
 1147SOL    HW1 3440   1.018   4.633   5.451  0.8743  1.6574  1.4812
 1147SOL    HW2 3441   1.105   4.750   5.408  0.6522  0.4662 -2.6421
 1148SOL     OW 3442   3.274   3.386   7.661  0.0716 -0.3850  0.0804
 1148SOL    HW1 3443   3.192   3.342   7.641 -0.9950  1.3418  0.5094
 1148SOL    HW2 3444   3.307   3.417   7.576 -0.5555  0.3058  0.0794
 1149SOL     OW 3445   1.266   1.435   6.449 -0.0828 -0.2779 -0.0951
 1149SOL    HW1 3446   1.250   1.340   6.448 -0.6451 -0.2056  0.9755
 1149SOL    HW2 3447   1.179   1.474   6.443  0.0014  0.1485  1.2090
 1150SOL     OW 3448   0.569   0.820   5.129  0.0069 -0.1483  0.2379
 1150SOL    HW1 3449   0.569   0.771   5.047 -1.3972  1.5282 -0.8352
 1150SOL    HW2 3450   0.515   0.767   5.188  1.1037 -1.4189  0.1442
 1151SOL     OW 3451   4.754   0.632   6.282  0.3220  0.0395  0.0849
 1151SOL    HW1 3452   4.846   0.636   6.255  0.2083  0.6938 -0.2289
 1151SOL    HW2 3453   4.707   0.610   6.202  0.0021  1.7794 -0.2463
 1152SOL     OW 3454   1.401   4.992   6.874 -0.4884  0.2121 -0.0170
 1152SOL    HW1 3455   1.379   4.942   6.952 -1.6303 -0.9177 -1.0222
 1152SOL    HW2 3456   1.335   4.967   6.809 -0.8931  2.7489 -0.6964
 1153SOL     OW 3457   2.191   0.997   6.379 -0.5604 -0.0519  0.1556
 1153SOL    HW1 3458   2.204   1.031   6.291 -0.1279 -0.6754 -0.0304
 1153SOL    HW2 3459   2.242   0.916   6.381  0.8324  0.8018  1.5244
 1154SOL     OW 3460   4.012   4.258   6.798  0.0957 -0.1664 -0.1626
 1154SOL    HW1 3461   4.085   4.207   6.763 -0.0142  0.0718 -0.7394
 1154SOL    HW2 3462   3.954   4.193   6.837 -0.7193 -0.6516 -2.0835
 1155SOL     OW 3463   0.282   2.272   5.958 -0.1340  0.5389 -0.4285
 1155SOL    HW1 3464   0.357   2.329   5.976 -0.8703  1.2155  0.6038
 1155SOL    HW2 3465   0.292   2.199   6.020 -0.9866  1.2818  0.6294
 1156SOL     OW 3466   1.565   1.934   7.744  0.0394 -0.5839  0.5415
 1156SOL    HW1 3467   1.591   2.026   7.738 -1.7750  0.0053  1.0558
 1156SOL    HW2 3468   1.546   1.908   7.654 -1.8162  0.3366  0.6117
 1157SOL     OW 3469   4.088   3.650   4.871  0.4472  0.2421 -0.3015
 1157SOL    HW1 3470   4.016   3.713   4.876 -0.3991 -0.8111  2.2396
 1157SOL    HW2 3471   4.140   3.665   4.950  1.6303 -0.6343 -0.8710
 1158SOL     OW 3472   1.780   3.763   5.377 -0.4491  0.1191 -0.3285
 1158SOL    HW1 3473   1.837   3.686   5.375 -0.0125  0.3864 -4.0336
 1158SOL    HW2 3474   1.715   3.743   5.445  3.5549 -0.3899  3.8877
 1159SOL     OW 3475   1.186   1.613   4.949 -0.1915  0.1183  0.0061
 1159SOL    HW1 3476   1.154   1.680   4.889  3.0511  1.5317 -0.3498
 1159SOL    HW2 3477   1.139   1.533   4.923 -0.4037  1.1134 -3.0838
 1160SOL     OW 3478   0.327   3.340   7.503 -0.3198  0.0478  0.7742
 1160SOL    HW1 3479   0.257   3.403   7.487  0.2914  1.2059  2.3722
 1160SOL    HW2 3480   0.393   3.360   7.437 -1.1378 -0.5445 -0.2522
 1161SOL     OW 3481   3.970   1.056   5.295 -0.4199  0.5711 -0.1911
 1161SOL    HW1 3482   3.957   1.086   5.205 -2.8482 -1.5727 -0.6703
 1161SOL    HW2 3483   4.062   1.030   5.298  0.0485  1.8901 -1.6135
 1162SOL     OW 3484   0.320   3.917   5.137  0.2971 -0.2102  0.9418
 1162SOL    HW1 3485   0.313   3.995   5.082  1.5193  0.6443  1.9406
 1162SOL    HW2 3486   0.234   3.909   5.179  0.4984  1.2929  1.7086
 1163SOL     OW 3487   0.052   3.946   6.881 -0.5176 -0.2552 -0.0233
 1163SOL    HW1 3488   0.134   3.937   6.833 -0.6851  0.1134 -0.3842
 1163SOL    HW2 3489  -0.015   3.948   6.812 -0.6660  1.6874  0.1333
 1164SOL     OW 3490   2.062   1.089   5.637 -0.0495  0.3661  0.2577
 1164SOL    HW1 3491   1.997   1.134   5.583 -2.0298 -0.5795  1.7464
 1164SOL    HW2 3492   2.097   1.157   5.694  1.0711  1.0883 -1.2173
 1165SOL     OW 3493   4.911   4.639   7.913  0.1200 -0.3103 -0.1072
 1165SOL    HW1 3494   4.958   4.657   7.994 -0.0187  0.6470 -0.2303
 1165SOL    HW2 3495   4.965   4.678   7.844 -0.8501  0.8608 -0.2429
 1166SOL     OW 3496   0.492   0.299   5.298 -0.2806 -0.2075 -0.6671
 1166SOL    HW1 3497   0.583   0.329   5.286 -0.8546  1.0030 -2.3379
 1166SOL    HW2 3498   0.455   0.362   5.361  0.1135 -0.9127  0.2891
 1167SOL     OW 3499   1.342   1.848   5.115 -0.5751  1.0826  0.5007
 1167SOL    HW1 3500   1.418   1.794   5.096  0.1922  2.6896 -1.3080
 1167SOL    HW2 3501   1.279   1.825   5.047  0.1670  3.1142 -0.9675
 1168SOL     OW 3502   0.412   0.204   8.177 -0.0004 -0.2692  0.0678
 1168SOL    HW1 3503   0.476   0.275   8.177  1.2252 -1.3462  0.4411
 1168SOL    HW2 3504   0.457   0.131   8.219 -2.0485 -0.5570  1.9235
 1169SOL     OW 3505   0.842   2.420   4.725 -0.2453 -0.9920  0.4342
 1169SOL    HW1 3506   0.882   2.385   4.805 -0.1924 -1.0710  0.3727
 1169SOL    HW2 3507   0.753   2.385   4.726 -1.0312  0.9063  1.6900
 1170SOL     OW 3508   1.384   4.585   8.343  0.0890  0.5086 -0.0697
 1170SOL    HW1 3509   1.390   4.490   8.335 -1.9858  0.0866  2.2445
 1170SOL    HW2 3510   1.447   4.607   8.413  1.1583  0.9940 -1.1493
 1171SOL     OW 3511   1.379   0.553   6.320 -0.2171 -0.4763 -0.0834
 1171SOL    HW1 3512   1.308   0.493   6.343  0.8578 -1.5495  0.5702
 1171SOL    HW2 3513   1.444   0.541   6.390 -0.1530  1.7961  0.3051
 1172SOL     OW 3514   1.220   0.601   5.226 -0.2477  0.4817 -0.0225
 1172SOL    HW1 3515   1.253   0.634   5.142  0.4225 -0.7506 -0.2668
 1172SOL    HW2 3516   1.168   0.524   5.204  1.6171 -1.1172  0.7749
 1173SOL     OW 3517   3.312   0.870   8.600  0.4954  0.4120  0.4575
 1173SOL    HW1 3518   3.225   0.849   8.636  0.2770  0.2307 -0.1727
 1173SOL    HW2 3519   3.294   0.914   8.518  1.0025 -0.5332 -0.1796
 1174SOL     OW 3520   3.970   1.374   7.031  0.5648 -0.6238  0.0421
 1174SOL    HW1 3521   4.057   1.414   7.033  1.3447 -2.2835  0.9324
 1174SOL    HW2 3522   3.971   1.311   7.103 -2.0254  0.6068  1.2775
 1175SOL     OW 3523   2.316   3.048   6.344 -0.0253  0.4748  0.1893
 1175SOL    HW1 3524   2.340   3.072   6.255 -0.8022  1.2709  0.1861
 1175SOL    HW2 3525   2.278   3.127   6.381  1.3431  0.5047  1.6197
 1176SOL     OW 3526   4.462   4.040   5.367 -0.2915 -0.2953 -0.0480
 1176SOL    HW1 3527   4.480   4.039   5.273 -1.0270  0.2286 -0.1982
 1176SOL    HW2 3528   4.367   4.031   5.374 -0.1717 -1.1820  0.6840
 1177SOL     OW 3529   1.254   1.477   7.529  0.1730 -0.1266 -0.2587
 1177SOL    HW1 3530   1.301   1.481   7.612 -0.2900  1.1465 -0.0192
 1177SOL    HW2 3531   1.202   1.397   7.535 -0.7125  0.5083  1.1836
 1178SOL     OW 3532   0.983   0.949   5.424 -0.2979  0.1180  0.3927
 1178SOL    HW1 3533   1.050   0.953   5.492  0.3784 -0.6418 -0.2020
 1178SOL    HW2 3534   1.017   1.003   5.353  0.5695 -1.6361 -0.6167
 1179SOL     OW 3535   1.412   0.639   4.983 -0.1381 -0.0149 -0.1588
 1179SOL    HW1 3536   1.452   0.661   5.067  0.2735  0.9916 -0.6092
 1179SOL    HW2 3537   1.483   0.598   4.932 -0.1346  0.2187 -0.3445
 1180SOL     OW 3538   0.207   4.837   5.213 -0.2096  0.7190 -0.3777
 1180SOL    HW1 3539   0.257   4.908   5.172 -0.2185  0.0558 -1.5996
 1180SOL    HW2 3540   0.243   4.758   5.174  0.5827 -0.0684  1.7842
 1181SOL     OW 3541   0.714   4.589   5.571  0.9828 -0.3522 -0.5856
 1181SOL    HW1 3542   0.729   4.528   5.498 -0.3084  0.3694 -1.4999
 1181SOL    HW2 3543   0.660   4.658   5.533  1.4420  0.7630  0.7330
 1182SOL     OW 3544   0.409   0.538   5.402 -0.2425  0.6521  0.7849
 1182SOL    HW1 3545   0.494   0.538   5.447 -0.7105  0.3426  1.6961
 1182SOL    HW2 3546   0.394   0.629   5.379  1.7338  0.3893 -2.1695
 1183SOL     OW 3547   2.879   4.518   5.261 -0.5462  0.7574 -0.8293
 1183SOL    HW1 3548   2.873   4.453   5.191 -0.9839 -2.0767  1.6073
 1183SOL    HW2 3549   2.956   4.492   5.311 -1.4075  1.3424  0.8963
 1184SOL     OW 3550   3.070   1.499   7.944 -0.3167  0.3470 -0.0589
 1184SOL    HW1 3551   2.993   1.458   7.983 -0.0881 -1.8707 -1.7196
 1184SOL    HW2 3552   3.035   1.563   7.881 -0.8139 -0.3770 -0.5258
 1185SOL     OW 3553   3.896   2.843   5.910  0.2484 -0.1682  0.4964
 1185SOL    HW1 3554   3.812   2.816   5.948 -2.4681 -2.9279 -5.8974
 1185SOL    HW2 3555   3.954   2.769   5.926 -2.0213 -3.0900 -3.1042
 1186SOL     OW 3556   3.453   3.796   5.948  0.0095 -0.0296 -0.2338
 1186SOL    HW1 3557   3.548   3.806   5.943  0.1378 -1.5777 -4.0310
 1186SOL    HW2 3558   3.439   3.703   5.964 -0.8959  0.2241  0.5157
 1187SOL     OW 3559   3.663   3.327   7.599  0.1835  0.0924 -0.2126
 1187SOL    HW1 3560   3.631   3.328   7.509  2.9935 -0.0651 -1.3394
 1187SOL    HW2 3561   3.676   3.234   7.619  0.4800  0.1724 -0.0255
 1188SOL     OW 3562   0.320   1.521   5.080  0.2429  0.1889  0.0734
 1188SOL    HW1 3563   0.334   1.578   5.004 -1.3253 -0.7596 -0.9877
 1188SOL    HW2 3564   0.247   1.562   5.127 -1.2989 -1.1630 -1.0203
 1189SOL     OW 3565   3.390   2.856   5.076 -0.3422 -0.1691  0.3312
 1189SOL    HW1 3566   3.467   2.890   5.031 -0.5752 -0.3979 -0.2521
 1189SOL    HW2 3567   3.425   2.810   5.152  0.2615 -1.8622 -0.9037
 1190SOL     OW 3568   4.613   4.172   5.082 -0.3164  0.4481  0.5925
 1190SOL    HW1 3569   4.637   4.084   5.111 -0.3080  0.7025  1.3788
 1190SOL    HW2 3570   4.696   4.210   5.051 -0.5863 -0.3591 -1.2806
 1191SOL     OW 3571   2.400   4.459   6.756  0.8584 -0.5642 -1.0009
 1191SOL    HW1 3572   2.364   4.511   6.684 -1.4883 -0.3148  0.2699
 1191SOL    HW2 3573   2.344   4.479   6.830  1.4563 -2.9908  0.1807
 1192SOL     OW 3574   4.447   3.705   5.829 -0.2787 -0.0646 -0.2096
 1192SOL    HW1 3575   4.541   3.687   5.829 -0.0921  0.8310 -0.8019
 1192SOL    HW2 3576   4.412   3.653   5.901  1.0591  1.4557  1.6347
 1193SOL     OW 3577   0.869   1.484   6.176 -0.4932  0.2388 -0.0475
 1193SOL    HW1 3578   0.858   1.553   6.110 -0.7234  0.4834  0.2440
 1193SOL    HW2 3579   0.902   1.409   6.127  0.7630  0.8630 -0.2038
 1194SOL     OW 3580   4.561   2.505   5.526  0.3169  0.7048  0.2463
 1194SOL    HW1 3581   4.620   2.500   5.452  0.8259  0.9432  0.6322
 1194SOL    HW2 3582   4.618   2.501   5.603 -0.1989  0.4760  0.6265
 1195SOL     OW 3583   1.217   3.642   5.372 -0.0021  0.3703 -0.0402
 1195SOL    HW1 3584   1.270   3.575   5.416  1.6040  1.1124 -0.7540
 1195SOL    HW2 3585   1.138   3.648   5.425  0.8892 -0.3418  1.4502
 1196SOL     OW 3586   2.811   2.226   6.661 -0.2946  0.0913 -0.0162
 1196SOL    HW1 3587   2.844   2.297   6.715  1.8828  0.0826 -1.2431
 1196SOL    HW2 3588   2.850   2.147   6.700 -1.2154 -0.2653  0.2217
 1197SOL     OW 3589   2.810   3.314   7.482 -0.1206  0.3676 -0.2005
 1197SOL    HW1 3590   2.880   3.264   7.439  0.4429  0.2121  0.8773
 1197SOL    HW2 3591   2.808   3.397   7.434  0.3512  0.1227 -0.6670
 1198SOL     OW 3592   0.134   3.500   6.172  0.4315  0.4234  0.1086
 1198SOL    HW1 3593   0.215   3.546   6.190 -0.2062  1.8598 -0.5541
 1198SOL    HW2 3594   0.126   3.500   6.077 -2.0747  3.6117  0.1279
 1199SOL     OW 3595   3.938   1.089   4.969  0.0164 -0.0521  0.3360
 1199SOL    HW1 3596   3.850   1.109   4.940  0.4542 -0.4455 -1.3298
 1199SOL    HW2 3597   3.995   1.146   4.917  0.8661 -1.1696 -0.0002
 1200SOL     OW 3598   2.157   0.371   6.139 -0.5582  0.2057 -0.5097
 1200SOL    HW1 3599   2.252   0.358   6.132 -0.9785 -2.3564 -3.9339
 1200SOL    HW2 3600   2.145   0.464   6.118  1.2126  1.1175  2.0071
 1201SOL     OW 3601   0.881   1.834   5.021  0.2544 -0.9661 -0.5672
 1201SOL    HW1 3602   0.841   1.747   5.024 -0.6390 -0.5475  0.2517
 1201SOL    HW2 3603   0.889   1.859   5.113  1.4262 -0.5803 -0.7572
 1202SOL     OW 3604   3.738   1.398   5.586 -0.6957 -0.0986  0.0121
 1202SOL    HW1 3605   3.748   1.484   5.545 -2.2315 -1.2474 -3.0946
 1202SOL    HW2 3606   3.828   1.364   5.590  0.0191  1.7689  1.8462
 1203SOL     OW 3607   2.330   3.380   5.222 -0.1832  0.3920 -0.1149
 1203SOL    HW1 3608   2.336   3.308   5.284  0.6728  0.9979  0.5265
 1203SOL    HW2 3609   2.237   3.384   5.199 -0.1935 -1.0927 -0.3979
 1204SOL     OW 3610   1.559   1.475   6.114  0.3088 -0.3854  0.1106
 1204SOL    HW1 3611   1.570   1.380   6.119  2.1079 -0.1398  3.0851
 1204SOL    HW2 3612   1.647   1.508   6.092  0.2697  0.6346  1.3507
 1205SOL     OW 3613   0.806   2.820   5.164 -0.7705 -0.4024 -0.6292
 1205SOL    HW1 3614   0.822   2.779   5.079 -0.9858  0.5429 -1.1278
 1205SOL    HW2 3615   0.834   2.753   5.228  0.0674 -0.8477 -1.4378
 1206SOL     OW 3616   2.223   0.187   6.529  0.4594  0.9035 -0.4240
 1206SOL    HW1 3617   2.305   0.187   6.481  0.6371 -0.3776 -0.1647
 1206SOL    HW2 3618   2.247   0.207   6.619  0.1316  3.2636 -0.8058
 1207SOL     OW 3619   1.123   0.973   7.658 -0.4907  0.3336 -0.0722
 1207SOL    HW1 3620   1.142   0.907   7.725 -0.6038  0.8695  0.4995
 1207SOL    HW2 3621   1.116   0.923   7.577 -0.1271 -0.3029  0.2744
 1208SOL     OW 3622   2.615   1.040   5.106 -0.1079 -0.6759  0.1195
 1208SOL    HW1 3623   2.654   0.970   5.054 -1.7332 -3.0582  1.8555
 1208SOL    HW2 3624   2.521   1.024   5.101 -0.7357  2.5022 -0.7820
 1209SOL     OW 3625   0.580   4.348   7.786 -0.2639 -0.3577  0.1825
 1209SOL    HW1 3626   0.668   4.317   7.806  1.2383  4.3001  2.3846
 1209SOL    HW2 3627   0.536   4.351   7.872 -1.3372  0.5053 -0.3727
 1210SOL     OW 3628   1.802   4.820   7.652 -0.9053  0.1245 -0.4867
 1210SOL    HW1 3629   1.891   4.831   7.684 -0.3643  0.1004 -1.8844
 1210SOL    HW2 3630   1.784   4.727   7.662 -0.9465  0.2067  0.2163
 1211SOL     OW 3631   2.910   4.425   6.795  0.3444 -0.0563 -0.4807
 1211SOL    HW1 3632   2.981   4.369   6.827  1.4658  1.8212  0.5053
 1211SOL    HW2 3633   2.944   4.514   6.802 -2.5573  1.0766  1.3642
 1212SOL     OW 3634   3.801   4.286   4.956 -0.4885  1.1030 -0.2034
 1212SOL    HW1 3635   3.829   4.330   5.036  2.5826 -1.0658  0.0994
 1212SOL    HW2 3636   3.881   4.250   4.919 -2.4077 -2.3179 -1.5252
 1213SOL     OW 3637   4.336   2.911   5.896 -0.2077  0.1781  0.7035
 1213SOL    HW1 3638   4.338   2.927   5.802 -1.6863 -0.7979  0.4789
 1213SOL    HW2 3639   4.422   2.874   5.916  0.7299  1.8663  0.0543
 1214SOL     OW 3640   4.153   3.120   6.196 -0.2153  0.1582  0.7027
 1214SOL    HW1 3641   4.185   3.180   6.264  0.5252  0.3464  0.2009
 1214SOL    HW2 3642   4.184   3.159   6.114  0.2843 -0.9158  0.3672
 1215SOL     OW 3643   1.384   3.825   7.535 -0.7500 -0.3306 -0.4306
 1215SOL    HW1 3644   1.463   3.879   7.539 -1.5836  0.9383 -0.2619
 1215SOL    HW2 3645   1.314   3.887   7.511 -1.7914 -1.2983  0.0133
 1216SOL     OW 3646   2.877   4.370   7.593  0.2257 -0.1508 -0.1923
 1216SOL    HW1 3647   2.895   4.320   7.514 -3.6781 -0.7888 -0.8830
 1216SOL    HW2 3648   2.900   4.460   7.570 -0.2142 -0.4264 -1.8344
 1217SOL     OW 3649   4.239   4.379   5.414 -0.9701 -0.0318 -0.4722
 1217SOL    HW1 3650   4.275   4.365   5.326  1.8329 -2.4211  0.8950
 1217SOL    HW2 3651   4.193   4.298   5.435  1.3935 -0.9851  1.4672
 1218SOL     OW 3652   3.366   4.142   5.656 -0.3668 -0.7254  0.4234
 1218SOL    HW1 3653   3.459   4.117   5.650 -0.4485 -1.3874  1.6484
 1218SOL    HW2 3654   3.367   4.237   5.665  0.2410 -0.7902  1.1295
 1219SOL     OW 3655   2.107   4.442   5.262  0.1035 -0.0061  0.0064
 1219SOL    HW1 3656   2.087   4.500   5.335 -3.1227  0.0356 -0.7283
 1219SOL    HW2 3657   2.126   4.502   5.189  2.2133 -0.0345  0.4812
 1220SOL     OW 3658   0.853   3.943   5.456 -0.4174  0.0339 -0.0731
 1220SOL    HW1 3659   0.791   3.933   5.384  0.2340 -0.6623 -0.5472
 1220SOL    HW2 3660   0.908   3.865   5.451  1.4323  1.3252 -0.5663
 1221SOL     OW 3661   2.161   1.648   7.185  0.5180 -0.2339 -0.0432
 1221SOL    HW1 3662   2.128   1.559   7.176 -1.6736  0.2949  1.8419
 1221SOL    HW2 3663   2.230   1.642   7.250  0.8943 -0.6475 -0.4749
 1222SOL     OW 3664   0.322   1.150   6.614  0.3126  0.0376  0.1594
 1222SOL    HW1 3665   0.369   1.227   6.583  0.5639 -0.4470 -0.7155
 1222SOL    HW2 3666   0.381   1.109   6.677 -0.1637  0.9891  1.2427
 1223SOL     OW 3667   1.665   1.132   8.209 -0.9631 -0.1128  0.1803
 1223SOL    HW1 3668   1.714   1.202   8.252 -2.1367  0.9069 -0.0729
 1223SOL    HW2 3669   1.599   1.106   8.273 -0.7948 -0.7039  0.1150
 1224SOL     OW 3670   1.550   3.112   8.086 -0.0277 -0.1909 -0.1277
 1224SOL    HW1 3671   1.466   3.139   8.048  0.1926  0.0307 -0.4600
 1224SOL    HW2 3672   1.558   3.020   8.062  0.9212  0.3500 -2.1675
 1225SOL     OW 3673   2.697   2.804   6.668 -0.4938  0.2543 -1.0759
 1225SOL    HW1 3674   2.705   2.841   6.580 -0.5555  1.6525 -0.5118
 1225SOL    HW2 3675   2.603   2.788   6.679 -0.4421 -0.3281 -1.4025
 1226SOL     OW 3676   0.730   3.922   5.192 -0.1892 -0.0416 -0.0520
 1226SOL    HW1 3677   0.687   3.853   5.141 -1.3666  0.6677 -0.0552
 1226SOL    HW2 3678   0.772   3.977   5.126 -2.4056  1.3485 -0.3932
 1227SOL     OW 3679   2.430   4.806   5.386 -0.5777 -0.2558  0.0381
 1227SOL    HW1 3680   2.520   4.794   5.415 -0.3276  1.2698 -0.0349
 1227SOL    HW2 3681   2.406   4.722   5.347  1.3663 -0.1984 -1.4062
 1228SOL     OW 3682   1.282   4.711   5.239 -0.6030  0.4670 -0.5224
 1228SOL    HW1 3683   1.261   4.687   5.330  2.8550 -0.5098  0.1664
 1228SOL    HW2 3684   1.262   4.632   5.189  0.8077 -0.3050  0.0511
 1229SOL     OW 3685   2.356   2.213   6.112  0.2324  0.4773 -0.2048
 1229SOL    HW1 3686   2.355   2.165   6.030  0.0906  1.8899 -1.0585
 1229SOL    HW2 3687   2.438   2.263   6.110  0.0398  0.8323  0.3314
 1230SOL     OW 3688   1.942   4.213   6.178 -0.2252 -0.1336  0.0856
 1230SOL    HW1 3689   1.949   4.308   6.172 -0.0408 -0.0787  1.0252
 1230SOL    HW2 3690   2.033   4.182   6.177 -0.2857 -0.3105 -0.2696
 1231SOL     OW 3691   0.774   3.087   5.060 -0.1962  0.1723 -0.5615
 1231SOL    HW1 3692   0.726   3.046   4.988 -0.8249 -0.7738  0.3784
 1231SOL    HW2 3693   0.797   3.014   5.118 -2.8103  1.2384  2.0502
 1232SOL     OW 3694   3.756   0.897   5.350  0.5861 -0.5258  0.0801
 1232SOL    HW1 3695   3.836   0.945   5.329  1.3582 -1.0525  1.6114
 1232SOL    HW2 3696   3.695   0.963   5.383  0.8894 -0.2935  0.1766
 1233SOL     OW 3697   2.091   2.045   6.405 -0.2692 -0.1034  0.1014
 1233SOL    HW1 3698   2.062   2.111   6.341  0.2098  0.1773  0.1681
 1233SOL    HW2 3699   2.177   2.076   6.434  0.3467 -1.1881 -0.4931
 1234SOL     OW 3700   1.960   2.978   5.565 -0.2577  0.3554  0.5332
 1234SOL    HW1 3701   1.959   2.889   5.530 -0.0304  0.2644  0.7599
 1234SOL    HW2 3702   2.051   3.006   5.557  0.2022 -0.3181  2.6863
 1235SOL     OW 3703   3.828   0.941   6.623  0.5643 -0.2449  0.4118
 1235SOL    HW1 3704   3.802   1.026   6.588 -1.9357 -1.5171 -1.0941
 1235SOL    HW2 3705   3.815   0.948   6.717  2.1996  1.5467  0.5785
 1236SOL     OW 3706   4.639   1.081   5.163  0.3360 -0.0268  0.1243
 1236SOL    HW1 3707   4.608   1.051   5.249 -1.0565 -0.9060 -0.6527
 1236SOL    HW2 3708   4.648   1.001   5.111 -0.6202  0.6211 -1.1039
 1237SOL     OW 3709   1.569   4.231   5.982 -0.3364 -0.6652  0.6825
 1237SOL    HW1 3710   1.537   4.315   5.947  0.9325  0.2967  1.7611
 1237SOL    HW2 3711   1.661   4.229   5.959 -0.4508 -1.9992  0.2830
 1238SOL     OW 3712   1.315   4.294   6.624  0.1298  0.2403  0.1868
 1238SOL    HW1 3713   1.351   4.231   6.561 -0.1199  0.1874  0.0952
 1238SOL    HW2 3714   1.371   4.371   6.615  1.8578 -0.7343  1.8999
 1239SOL     OW 3715   3.908   2.025   6.823 -0.1903  0.3268 -1.0007
 1239SOL    HW1 3716   3.866   2.077   6.754  2.0323  2.9299 -0.5847
 1239SOL    HW2 3717   3.955   1.957   6.775 -1.0325  0.2888 -1.8061
 1240SOL     OW 3718   4.317   4.019   5.750  0.4733 -0.1478 -0.1603
 1240SOL    HW1 3719   4.331   3.926   5.768  0.3009 -0.1147  0.1472
 1240SOL    HW2 3720   4.403   4.059   5.765  0.3253 -0.1133  0.6539
 1241SOL     OW 3721   1.644   4.086   6.654  0.2218 -0.2057 -0.3825
 1241SOL    HW1 3722   1.577   4.109   6.590  0.1632 -0.2602 -0.3419
 1241SOL    HW2 3723   1.621   3.996   6.681  0.5338 -0.3664 -0.6518
 1242SOL     OW 3724   2.635   4.022   7.917 -0.1941 -0.5447 -0.4195
 1242SOL    HW1 3725   2.717   4.012   7.965 -0.5466  2.2886  0.9944
 1242SOL    HW2 3726   2.653   4.091   7.853 -1.3432 -0.0964 -0.2917
 1243SOL     OW 3727   0.981   0.405   5.574  0.4058 -0.2100 -0.5409
 1243SOL    HW1 3728   0.993   0.430   5.483 -0.3891  1.9389 -0.1305
 1243SOL    HW2 3729   1.070   0.395   5.608  0.9560  3.1893 -0.5845
 1244SOL     OW 3730   1.623   1.981   5.110 -0.0478  0.2205 -0.1074
 1244SOL    HW1 3731   1.558   2.044   5.079 -1.3841 -1.0727 -0.0225
 1244SOL    HW2 3732   1.601   1.900   5.066  0.3695 -0.7214  1.3454
 1245SOL     OW 3733   4.551   3.114   5.162  0.1777 -0.4908  0.0749
 1245SOL    HW1 3734   4.491   3.188   5.150 -0.2971 -0.7891  0.5405
 1245SOL    HW2 3735   4.635   3.146   5.130 -0.3278 -0.2205 -1.0271
 1246SOL     OW 3736   0.538   1.417   7.016 -0.2212  0.5042  0.1432
 1246SOL    HW1 3737   0.504   1.494   6.971 -0.7417  1.1248  1.5319
 1246SOL    HW2 3738   0.568   1.450   7.101 -1.3202 -0.9388  1.1421
 1247SOL     OW 3739   3.883   2.613   7.523  0.3089  0.7616 -0.4366
 1247SOL    HW1 3740   3.912   2.530   7.560  2.4320  0.7465 -1.9268
 1247SOL    HW2 3741   3.826   2.587   7.450 -2.3261  0.7682  1.4735
 1248SOL     OW 3742   3.455   2.412   5.145  0.2252  0.3416 -0.1581
 1248SOL    HW1 3743   3.505   2.373   5.074  1.0714 -0.0082  0.6082
 1248SOL    HW2 3744   3.497   2.379   5.225 -1.0515  0.2772  0.5080
 1249SOL     OW 3745   3.162   4.594   5.920  0.7105  0.4901  0.3536
 1249SOL    HW1 3746   3.239   4.647   5.898  0.9186 -0.5248 -1.5678
 1249SOL    HW2 3747   3.141   4.619   6.010  1.7970  2.5888  0.1017
 1250SOL     OW 3748   0.802   4.866   6.739 -0.4335  0.2723 -0.3958
 1250SOL    HW1 3749   0.726   4.910   6.701 -0.1750  0.0371 -1.1884
 1250SOL    HW2 3750   0.775   4.775   6.749 -0.0265  0.0386 -1.3329
 1251SOL     OW 3751   3.958   3.373   4.793 -0.0961  0.2575 -0.1241
 1251SOL    HW1 3752   3.873   3.335   4.771 -0.2424 -0.3894  1.4312
 1251SOL    HW2 3753   3.939   3.461   4.823 -0.1055  0.4435 -0.6652
 1252SOL     OW 3754   4.375   3.772   6.831 -0.0590  0.0090  0.7150
 1252SOL    HW1 3755   4.461   3.739   6.856  0.1812  0.2652  0.2534
 1252SOL    HW2 3756   4.319   3.756   6.907  0.4478  0.0279  1.0919
 1253SOL     OW 3757   3.645   0.478   6.182 -0.1718 -0.6435  0.3996
 1253SOL    HW1 3758   3.633   0.572   6.170  2.6332 -0.3289 -0.6899
 1253SOL    HW2 3759   3.562   0.439   6.154 -1.7396  1.4809  1.7410
 1254SOL     OW 3760   0.637   2.860   4.874 -0.5520  0.4360 -0.4806
 1254SOL    HW1 3761   0.703   2.791   4.882 -1.1412  0.0953  2.1245
 1254SOL    HW2 3762   0.660   2.904   4.792  2.0529 -0.5399 -0.3924
 1255SOL     OW 3763   1.786   1.132   6.630  0.0402 -0.5640  0.0654
 1255SOL    HW1 3764   1.760   1.223   6.618 -2.2586 -1.0170  0.9138
 1255SOL    HW2 3765   1.836   1.110   6.552 -0.4615  1.0569 -0.7577
 1256SOL     OW 3766   0.926   4.499   6.484 -0.2686 -0.5435  0.3016
 1256SOL    HW1 3767   0.891   4.516   6.571 -1.2032  0.5482 -0.2575
 1256SOL    HW2 3768   0.934   4.586   6.444 -0.9282 -1.1004 -1.0918
 1257SOL     OW 3769   4.944   4.106   5.434 -0.0277 -0.5210 -0.8319
 1257SOL    HW1 3770   4.953   4.202   5.436 -1.3480 -0.3480 -1.9685
 1257SOL    HW2 3771   4.891   4.086   5.511  1.4319 -0.5196  0.2182
 1258SOL     OW 3772   2.342   1.287   7.706  0.2558  0.6579 -0.1611
 1258SOL    HW1 3773   2.278   1.234   7.752  0.4167  0.4680 -0.1541
 1258SOL    HW2 3774   2.394   1.224   7.656  0.4985  0.8004 -0.0910
 1259SOL     OW 3775   2.417   0.431   6.146  0.1599  0.2353  0.2840
 1259SOL    HW1 3776   2.492   0.482   6.114  0.0417  0.2352  0.0054
 1259SOL    HW2 3777   2.456   0.347   6.171  0.2370  0.1992  0.0441
 1260SOL     OW 3778   3.249   0.098   5.173 -0.0805  0.6315 -0.2760
 1260SOL    HW1 3779   3.296   0.086   5.256 -0.6511  1.4943  0.1892
 1260SOL    HW2 3780   3.308   0.154   5.121 -0.3950  1.3764  0.1517
 1261SOL     OW 3781   2.568   2.405   6.514  0.1783 -0.0724  0.4053
 1261SOL    HW1 3782   2.652   2.436   6.478 -0.1845  0.3184 -0.1187
 1261SOL    HW2 3783   2.593   2.349   6.587  0.9912 -1.4861 -0.8931
 1262SOL     OW 3784   3.932   4.031   6.320 -0.2925  0.2707 -0.1212
 1262SOL    HW1 3785   3.895   3.979   6.391 -0.1374 -0.4708 -0.5777
 1262SOL    HW2 3786   3.856   4.070   6.277 -0.4141  0.3451  0.1529
 1263SOL     OW 3787   1.025   4.562   7.075 -0.4738  0.0019 -0.3187
 1263SOL    HW1 3788   1.033   4.643   7.125 -1.0442 -1.3211  2.0974
 1263SOL    HW2 3789   0.961   4.510   7.125  1.5073 -2.8168 -0.4831
 1264SOL     OW 3790   0.487   4.354   7.193 -0.0861  0.1213 -0.5575
 1264SOL    HW1 3791   0.492   4.386   7.103 -1.3081  0.6871 -0.4339
 1264SOL    HW2 3792   0.418   4.288   7.192  1.2910 -1.4029 -0.4504
 1265SOL     OW 3793   0.781   3.915   6.161 -0.0383 -0.1455 -0.4600
 1265SOL    HW1 3794   0.835   3.934   6.238 -0.7595  2.5804 -0.5252
 1265SOL    HW2 3795   0.838   3.932   6.087 -0.6774  2.1948 -0.5174
 1266SOL     OW 3796   4.973   4.863   5.375  0.1062  0.1347  0.2349
 1266SOL    HW1 3797   5.045   4.841   5.316 -0.7324 -0.3306 -0.6377
 1266SOL    HW2 3798   4.981   4.958   5.388 -0.2645  0.4290 -1.4323
 1267SOL     OW 3799   0.370   0.761   6.224  0.4730  0.0167  0.3308
 1267SOL    HW1 3800   0.447   0.706   6.231  1.5481  1.4160 -0.0409
 1267SOL    HW2 3801   0.359   0.777   6.130 -0.9152 -0.9897  0.2781
 1268SOL     OW 3802   1.632   3.222   6.563  0.4251  0.7007 -0.1264
 1268SOL    HW1 3803   1.591   3.248   6.480  0.2132  1.8920  0.3366
 1268SOL    HW2 3804   1.725   3.236   6.549  0.6508 -1.1866 -0.8827
 1269SOL     OW 3805   4.056   4.662   6.496  0.1131  0.1681 -0.5251
 1269SOL    HW1 3806   3.969   4.690   6.524  0.0456  0.1337 -0.7065
 1269SOL    HW2 3807   4.065   4.695   6.407  0.5418  0.7487 -0.2710
 1270SOL     OW 3808   2.819   1.203   5.145 -0.6870  0.0404 -0.1227
 1270SOL    HW1 3809   2.871   1.127   5.169  1.6108  0.8911 -2.0269
 1270SOL    HW2 3810   2.732   1.167   5.125  0.1726 -2.0064 -0.4149
 1271SOL     OW 3811   2.678   0.092   7.649 -0.0511 -0.4806 -0.2985
 1271SOL    HW1 3812   2.719   0.145   7.717  1.2821 -0.4763 -1.0575
 1271SOL    HW2 3813   2.649   0.155   7.583  0.1844 -0.5871 -0.5068
 1272SOL     OW 3814   3.778   4.718   7.244  0.3786  0.1419  0.8995
 1272SOL    HW1 3815   3.783   4.717   7.149  0.2417  0.6802  0.8788
 1272SOL    HW2 3816   3.797   4.629   7.271 -1.3836 -0.4535  0.2921
 1273SOL     OW 3817   1.929   3.074   4.915  0.1310  0.2640 -0.3502
 1273SOL    HW1 3818   1.978   3.035   4.987  0.7717 -0.8867 -1.3756
 1273SOL    HW2 3819   1.879   3.002   4.878 -0.6621  0.9727 -0.6933
 1274SOL     OW 3820   3.578   0.505   7.184  0.3934  0.2779 -0.2214
 1274SOL    HW1 3821   3.600   0.461   7.266  0.6463  0.9274  0.0710
 1274SOL    HW2 3822   3.533   0.439   7.132  0.8028 -0.3284  0.1875
 1275SOL     OW 3823   3.773   2.745   8.624  0.3034  0.1876  0.0302
 1275SOL    HW1 3824   3.686   2.752   8.585  0.6986 -0.1518 -0.9514
 1275SOL    HW2 3825   3.827   2.805   8.572  0.6682  0.3607  0.6016
 1276SOL     OW 3826   2.504   4.946   5.792 -0.0303  0.3095  0.1732
 1276SOL    HW1 3827   2.513   4.927   5.699  0.2833  0.3637  0.1917
 1276SOL    HW2 3828   2.450   4.874   5.826 -0.7129  0.6544 -0.1728
 1277SOL     OW 3829   3.936   3.537   5.618 -0.6356  0.9021  0.1677
 1277SOL    HW1 3830   3.978   3.599   5.557 -0.4736  1.9316  1.2963
 1277SOL    HW2 3831   3.981   3.551   5.701 -1.8332  0.5600  0.8971
 1278SOL     OW 3832   2.572   4.261   7.572  0.1409 -0.6318 -0.2171
 1278SOL    HW1 3833   2.614   4.213   7.501  1.3454 -1.5386  1.0372
 1278SOL    HW2 3834   2.644   4.280   7.633 -1.2906 -3.1429  2.5433
 1279SOL     OW 3835   1.493   3.527   5.302  0.2339 -0.5247  0.5667
 1279SOL    HW1 3836   1.481   3.542   5.396  4.2167 -1.5488  1.4254
 1279SOL    HW2 3837   1.473   3.612   5.262  0.3697  0.5389  2.6037
 1280SOL     OW 3838   2.021   1.901   5.543 -0.2171  0.0244 -0.1414
 1280SOL    HW1 3839   1.932   1.878   5.570 -0.9719  0.0551 -2.4070
 1280SOL    HW2 3840   2.061   1.817   5.522  0.0599  0.0765  0.1697
 1281SOL     OW 3841   4.098   4.846   5.499  0.1426 -0.0467  0.6710
 1281SOL    HW1 3842   4.015   4.870   5.539  0.4525 -0.4827  1.6014
 1281SOL    HW2 3843   4.089   4.753   5.477  0.0190  0.1595 -0.1716
 1282SOL     OW 3844   4.772   2.504   5.712  0.4909  0.3178  0.5913
 1282SOL    HW1 3845   4.750   2.441   5.781  1.0845  0.6523  1.0988
 1282SOL    HW2 3846   4.860   2.534   5.734  1.1241 -0.3535 -0.9097
 1283SOL     OW 3847   2.391   3.638   5.666 -0.2193  0.2444  0.2695
 1283SOL    HW1 3848   2.386   3.646   5.571 -0.0346  1.7297  0.3723
 1283SOL    HW2 3849   2.451   3.707   5.694  1.1158 -1.2711  1.3250
 1284SOL     OW 3850   3.933   0.688   6.264 -0.2802  1.1905  0.8334
 1284SOL    HW1 3851   3.976   0.739   6.195  0.7295 -0.1083  0.4629
 1284SOL    HW2 3852   3.862   0.642   6.219 -0.1848  1.0449  0.8290
 1285SOL     OW 3853   0.530   4.885   6.163 -0.0744  0.2276 -0.3363
 1285SOL    HW1 3854   0.490   4.870   6.078  1.3382  0.6233 -1.1071
 1285SOL    HW2 3855   0.491   4.818   6.220 -0.0687 -0.9119 -1.6176
 1286SOL     OW 3856   4.020   1.396   4.885  0.1759  0.1858  0.0087
 1286SOL    HW1 3857   4.074   1.392   4.963  0.8548 -1.7052 -0.5260
 1286SOL    HW2 3858   4.058   1.467   4.833  0.9525  0.1221  0.4846
 1287SOL     OW 3859   4.534   0.062   8.623 -0.2509  0.4319  0.1964
 1287SOL    HW1 3860   4.521   0.116   8.546  0.8431  0.1830 -0.1825
 1287SOL    HW2 3861   4.626   0.039   8.621 -0.9399 -2.7454 -0.5461
 1288SOL     OW 3862   0.162   1.982   8.744  0.1737 -0.4681  0.2898
 1288SOL    HW1 3863   0.142   1.944   8.829 -1.1694  0.5098  0.4446
 1288SOL    HW2 3864   0.252   1.954   8.725  1.2759  0.9216  2.9515
 1289SOL     OW 3865   4.762   3.370   6.970  0.7665 -0.0315 -0.3192
 1289SOL    HW1 3866   4.736   3.304   7.034 -0.7908 -0.2913 -1.1762
 1289SOL    HW2 3867   4.812   3.322   6.904 -0.7300 -0.4882 -1.1685
 1290SOL     OW 3868   1.193   2.889   6.355 -0.5101 -0.0040  0.3404
 1290SOL    HW1 3869   1.145   2.965   6.389  2.4100  1.6871  1.0116
 1290SOL    HW2 3870   1.185   2.823   6.424 -2.4746 -0.1176  0.0694
 1291SOL     OW 3871   1.917   1.763   8.700  0.0098  0.4665 -0.3161
 1291SOL    HW1 3872   1.999   1.809   8.721  1.1971 -1.4971 -0.3977
 1291SOL    HW2 3873   1.917   1.756   8.604 -0.4475  0.7748 -0.3418
 1292SOL     OW 3874   0.305   3.936   9.346  0.1111  0.0326  0.4074
 1292SOL    HW1 3875   0.373   3.870   9.361  0.4789  0.2886 -0.0847
 1292SOL    HW2 3876   0.242   3.923   9.417  0.7749 -0.0841  0.9840
 1293SOL     OW 3877   4.567   3.058   9.578 -0.7687 -0.4390  0.0795
 1293SOL    HW1 3878   4.501   3.071   9.645 -1.4355  0.8900 -0.7855
 1293SOL    HW2 3879   4.647   3.096   9.615 -0.4697 -1.9660  1.0872
 1294SOL     OW 3880   0.401   3.335   8.382  0.5555  0.1847  0.6538
 1294SOL    HW1 3881   0.473   3.288   8.423  1.6727  0.9981 -0.3372
 1294SOL    HW2 3882   0.360   3.383   8.455  0.7295 -0.6015  1.2874
 1295SOL     OW 3883   2.013   4.243   8.725  0.1759  0.1267  0.2565
 1295SOL    HW1 3884   1.986   4.334   8.732 -0.7893 -0.2725  2.7570
 1295SOL    HW2 3885   1.945   4.193   8.771 -0.1317 -2.0734 -2.3328
 1296SOL     OW 3886   2.057   4.871   7.712  1.0210  0.5534  0.1486
 1296SOL    HW1 3887   2.057   4.948   7.769  1.9557  0.8862 -0.2875
 1296SOL    HW2 3888   2.067   4.907   7.624 -0.5492  0.0586 -0.2762
 1297SOL     OW 3889   0.499   4.190   8.687 -0.1895  0.4436 -0.0246
 1297SOL    HW1 3890   0.550   4.135   8.627 -0.6831  1.4530 -1.4258
 1297SOL    HW2 3891   0.563   4.245   8.731  0.2327 -0.6931  0.8190
 1298SOL     OW 3892   4.508   0.644   6.098 -0.3388 -0.1148  0.3113
 1298SOL    HW1 3893   4.516   0.734   6.066 -0.5599  0.0981  0.8490
 1298SOL    HW2 3894   4.464   0.597   6.026 -3.1386  0.9094  1.2171
 1299SOL     OW 3895   2.178   3.850   9.178 -0.8733  0.2027 -0.0587
 1299SOL    HW1 3896   2.208   3.915   9.242 -0.2310  0.9028 -1.0271
 1299SOL    HW2 3897   2.158   3.902   9.100 -1.7257 -0.6214 -0.3982
 1300SOL     OW 3898   0.655   2.532   6.498 -0.2171  0.4063  0.6895
 1300SOL    HW1 3899   0.729   2.592   6.492 -0.7136  0.9101 -1.8354
 1300SOL    HW2 3900   0.693   2.445   6.483 -0.0010  0.5393  0.4641
 1301SOL     OW 3901   0.086   3.425   6.817 -0.7445  0.6219  0.3729
 1301SOL    HW1 3902   0.078   3.503   6.871  2.8866  2.0274 -0.8405
 1301SOL    HW2 3903   0.111   3.457   6.730 -0.4170 -1.8352 -0.5447
 1302SOL     OW 3904   2.105   1.635   5.588  0.7348  0.1535 -0.2186
 1302SOL    HW1 3905   2.158   1.566   5.628  0.2874  0.3719  0.7792
 1302SOL    HW2 3906   2.019   1.625   5.628  0.2706  0.3873 -1.1423
 1303SOL     OW 3907   4.985   4.089   7.141  0.3402 -0.2242  0.0088
 1303SOL    HW1 3908   4.986   4.063   7.233 -0.8251  0.3504  0.1950
 1303SOL    HW2 3909   5.003   4.008   7.093 -2.0087 -1.1885  0.6269
 1304SOL     OW 3910   0.747   2.211   8.139  0.0729 -0.0666 -0.4933
 1304SOL    HW1 3911   0.832   2.182   8.174  0.0307 -0.8708 -1.0245
 1304SOL    HW2 3912   0.756   2.306   8.130  0.3816  0.0645  0.8820
 1305SOL     OW 3913   0.413   0.109   9.510 -0.0855  0.2199 -0.4778
 1305SOL    HW1 3914   0.340   0.065   9.466 -1.6960  2.4575 -0.2094
 1305SOL    HW2 3915   0.435   0.052   9.583 -1.2520 -0.7353 -0.8362
 1306SOL     OW 3916   4.571   0.102   9.092 -0.2068  0.2533 -0.0110
 1306SOL    HW1 3917   4.564   0.019   9.044  0.5568 -0.0832  0.4421
 1306SOL    HW2 3918   4.499   0.155   9.059  0.8134  0.3801 -2.2007
 1307SOL     OW 3919   2.935   2.918   6.757  0.0937  0.4451  0.1214
 1307SOL    HW1 3920   2.900   2.926   6.845 -1.5808  0.6067 -0.5215
 1307SOL    HW2 3921   2.907   2.831   6.728  0.6714  0.3698 -0.2319
 1308SOL     OW 3922   1.511   1.759   8.437 -0.1097  0.1128  0.2971
 1308SOL    HW1 3923   1.503   1.760   8.533 -0.7207  3.7622  0.3445
 1308SOL    HW2 3924   1.508   1.666   8.414 -2.2900 -0.8147  3.6136
 1309SOL     OW 3925   4.640   3.350   7.349  0.2648  0.0326  0.8310
 1309SOL    HW1 3926   4.551   3.325   7.372  0.2536 -0.3239  0.4111
 1309SOL    HW2 3927   4.666   3.287   7.282 -0.0289  1.5422 -0.7828
 1310SOL     OW 3928   2.338   2.894   8.706 -0.1235 -0.0829  0.5893
 1310SOL    HW1 3929   2.424   2.930   8.684 -0.8017  0.9158 -0.5227
 1310SOL    HW2 3930   2.328   2.913   8.799  0.5588  0.4314  0.5695
 1311SOL     OW 3931   2.345   3.883   7.652 -0.2514 -0.5885 -0.0367
 1311SOL    HW1 3932   2.376   3.939   7.581 -0.4830  0.1634  0.4445
 1311SOL    HW2 3933   2.334   3.942   7.727  2.1535 -1.6943  1.3182
 1312SOL     OW 3934   0.521   1.664   5.782 -0.5771 -0.2758 -0.1637
 1312SOL    HW1 3935   0.471   1.656   5.864  0.6208 -0.0375  0.6232
 1312SOL    HW2 3936   0.537   1.574   5.755 -1.8725 -0.3526 -0.7147
 1313SOL     OW 3937   4.881   3.875   8.372  0.3495 -0.1346 -0.7265
 1313SOL    HW1 3938   4.897   3.822   8.451  0.1560  2.5519  1.2798
 1313SOL    HW2 3939   4.794   3.848   8.342 -0.5818  0.2821  1.3959
 1314SOL     OW 3940   2.144   0.715   8.356 -0.3189 -0.2322  0.2666
 1314SOL    HW1 3941   2.210   0.653   8.326  0.7263 -0.5099  2.8497
 1314SOL    HW2 3942   2.071   0.660   8.384 -0.0253 -0.2213  1.0831
 1315SOL     OW 3943   2.204   4.186   7.379  0.0661 -0.1382  0.0700
 1315SOL    HW1 3944   2.130   4.170   7.438 -0.2596  1.3814  0.1039
 1315SOL    HW2 3945   2.245   4.265   7.413 -0.0666  0.7301 -1.6757
 1316SOL     OW 3946   0.899   0.652   4.770  0.2414  0.0343  0.3395
 1316SOL    HW1 3947   0.933   0.705   4.698  0.7780 -0.2988  0.3391
 1316SOL    HW2 3948   0.976   0.632   4.823 -0.5023  3.0546  2.9161
 1317SOL     OW 3949   4.361   4.484   7.100 -0.0998 -0.1826  0.0778
 1317SOL    HW1 3950   4.353   4.579   7.097  0.4253 -0.1110  0.8071
 1317SOL    HW2 3951   4.454   4.468   7.114  0.2733 -0.8745 -2.6514
 1318SOL     OW 3952   1.390   0.330   8.428  0.1704 -0.2086 -0.3412
 1318SOL    HW1 3953   1.307   0.288   8.405 -0.7257  1.6499 -0.6896
 1318SOL    HW2 3954   1.435   0.341   8.344 -0.3234  0.9280 -0.4792
 1319SOL     OW 3955   1.554   0.249   6.864 -0.6112 -0.1860 -0.5017
 1319SOL    HW1 3956   1.499   0.174   6.888 -0.9479 -0.1842 -1.2543
 1319SOL    HW2 3957   1.505   0.325   6.897  0.7092 -0.3756  2.1283
 1320SOL     OW 3958   0.903   2.626   6.143  0.2254 -0.0423 -0.0818
 1320SOL    HW1 3959   0.992   2.596   6.164 -0.0598 -0.3703  0.6812
 1320SOL    HW2 3960   0.907   2.645   6.049  1.2189  0.3604  0.0248
 1321SOL     OW 3961   2.004   3.664   5.068 -0.2198  0.6790 -0.0055
 1321SOL    HW1 3962   1.952   3.675   4.989 -0.2075 -0.5010 -0.1943
 1321SOL    HW2 3963   1.940   3.649   5.137 -0.1586 -1.0521 -0.2850
 1322SOL     OW 3964   1.042   0.126   7.388 -0.4966 -0.2239  0.2757
 1322SOL    HW1 3965   0.998   0.069   7.450 -2.2320  1.3351  0.5534
 1322SOL    HW2 3966   0.972   0.172   7.342  0.7646 -0.3417 -1.9202
 1323SOL     OW 3967   1.540   3.470   7.360 -0.4104  0.3027  0.4141
 1323SOL    HW1 3968   1.590   3.405   7.411  1.4635  0.4747 -1.0937
 1323SOL    HW2 3969   1.484   3.512   7.425 -0.0186 -1.2433  1.8586
 1324SOL     OW 3970   0.092   3.659   6.973 -0.0609  0.1873  0.5652
 1324SOL    HW1 3971   0.048   3.646   7.057 -0.2916  2.1218  0.8015
 1324SOL    HW2 3972   0.074   3.750   6.951  1.1309  0.0997 -0.9362
 1325SOL     OW 3973   3.255   4.252   8.513 -0.5134  0.0023 -0.0279
 1325SOL    HW1 3974   3.294   4.197   8.445 -2.7118 -1.3841 -0.2675
 1325SOL    HW2 3975   3.163   4.226   8.515 -1.4472  2.9525  0.6118
 1326SOL     OW 3976   0.061   3.858   7.870  0.2791  0.1741  0.2227
 1326SOL    HW1 3977  -0.026   3.895   7.882  0.1911 -0.0737  0.3550
 1326SOL    HW2 3978   0.121   3.931   7.888  0.0903  0.4651 -0.3192
 1327SOL     OW 3979   0.903   3.835   7.628  0.3175 -0.3276  0.2659
 1327SOL    HW1 3980   0.949   3.780   7.565 -0.5886  0.3050 -0.9888
 1327SOL    HW2 3981   0.967   3.852   7.697  1.7463  0.0435 -1.1238
 1328SOL     OW 3982   3.825   1.390   5.232 -0.0798 -0.2097  0.1675
 1328SOL    HW1 3983   3.787   1.432   5.155  1.2620  0.3740 -0.2051
 1328SOL    HW2 3984   3.764   1.410   5.303  0.0201  1.5420 -0.2035
 1329SOL     OW 3985   3.270   3.234   9.030 -0.1403  0.0413 -0.2397
 1329SOL    HW1 3986   3.331   3.253   8.958 -0.4749 -1.8379 -1.0816
 1329SOL    HW2 3987   3.294   3.146   9.059 -0.2308  0.6387  1.7858
 1330SOL     OW 3988   4.412   3.008   5.371 -0.0991  0.0036  1.0030
 1330SOL    HW1 3989   4.443   3.033   5.284 -0.5895 -0.2212  0.7617
 1330SOL    HW2 3990   4.322   2.979   5.357  0.1403 -0.9559  1.4348
 1331SOL     OW 3991   1.463   0.660   8.164 -0.4163 -0.6229  0.3510
 1331SOL    HW1 3992   1.431   0.719   8.232 -0.4084  0.5660 -0.6327
 1331SOL    HW2 3993   1.499   0.718   8.097  1.8234 -1.8183  0.4078
 1332SOL     OW 3994   0.971   0.182   6.377 -0.5409  0.1429 -0.5565
 1332SOL    HW1 3995   0.883   0.218   6.361 -1.5182 -1.4424  0.9883
 1332SOL    HW2 3996   0.977   0.108   6.316 -0.2691  0.2511 -0.6598
 1333SOL     OW 3997   4.441   2.552   6.909  0.2730  0.1278 -1.0712
 1333SOL    HW1 3998   4.500   2.478   6.918 -0.0240 -0.0642 -0.6424
 1333SOL    HW2 3999   4.432   2.587   6.998 -0.1858  0.2068 -1.1422
 1334SOL     OW 4000   1.843   2.314   7.314 -0.3206  0.2675 -0.7453
 1334SOL    HW1 4001   1.788   2.377   7.267  0.6673  1.0009 -0.9559
 1334SOL    HW2 4002   1.901   2.278   7.246  0.1356  0.2618 -0.3601
 1335SOL     OW 4003   1.966   2.305   8.373  0.2921 -0.4601  0.0346
 1335SOL    HW1 4004   2.050   2.268   8.401  0.7032  0.8135  0.5446
 1335SOL    HW2 4005   1.918   2.231   8.337  1.3746 -1.3390  0.3545
 1336SOL     OW 4006   0.346   0.792   5.349 -0.0723  0.2174 -0.6527
 1336SOL    HW1 4007   0.277   0.855   5.329  0.8380  1.2478 -0.6428
 1336SOL    HW2 4008   0.387   0.825   5.429 -1.1646 -1.7550  0.8261
 1337SOL     OW 4009   2.882   0.257   5.948 -0.4839  0.0107 -0.2731
 1337SOL    HW1 4010   2.857   0.281   5.859 -2.1789 -1.6388 -0.2812
 1337SOL    HW2 4011   2.840   0.173   5.964  1.4129 -0.7207  1.3997
 1338SOL     OW 4012   0.051   3.656   8.207 -0.1055  0.4602 -0.1788
 1338SOL    HW1 4013   0.021   3.566   8.195  1.1497 -0.3162  1.8974
 1338SOL    HW2 4014   0.085   3.683   8.122  1.9842 -2.0490 -0.2503
 1339SOL     OW 4015   0.051   2.358   7.261 -0.6721 -0.4900  0.5501
 1339SOL    HW1 4016   0.136   2.403   7.263 -1.6734  1.5179  0.5875
 1339SOL    HW2 4017   0.061   2.292   7.193  1.2780 -1.0788  1.3492
 1340SOL     OW 4018   1.061   0.468   7.884  0.3195  0.6076 -0.8370
 1340SOL    HW1 4019   0.967   0.462   7.900  0.8136 -0.5462  2.4409
 1340SOL    HW2 4020   1.084   0.558   7.909  0.6211 -0.3639  3.0413
 1341SOL     OW 4021   2.533   4.564   8.449 -0.1665 -0.1485  0.6839
 1341SOL    HW1 4022   2.496   4.503   8.513 -0.5722 -0.4062  0.2093
 1341SOL    HW2 4023   2.457   4.601   8.405  0.1196 -0.3396  0.0165
 1342SOL     OW 4024   0.304   4.607   8.326 -1.1888 -0.0932  0.0343
 1342SOL    HW1 4025   0.394   4.631   8.304 -1.5571  1.0646 -0.2937
 1342SOL    HW2 4026   0.291   4.522   8.285 -0.4452  0.0235 -0.4615
 1343SOL     OW 4027   0.329   1.091   5.138 -0.2055 -0.6209 -0.2507
 1343SOL    HW1 4028   0.305   1.147   5.212 -0.1855 -1.9585  0.8215
 1343SOL    HW2 4029   0.401   1.037   5.172 -0.6053 -1.6788 -1.0220
 1344SOL     OW 4030   3.139   4.892   5.058 -0.5614  0.5526 -0.2852
 1344SOL    HW1 4031   3.070   4.930   5.004  1.0203  1.4050 -1.8249
 1344SOL    HW2 4032   3.171   4.965   5.112 -1.0617  0.0884  0.6561
 1345SOL     OW 4033   1.435   3.961   5.942  0.5485 -0.0325  0.1243
 1345SOL    HW1 4034   1.510   3.933   5.891 -0.2672  1.6905 -2.1588
 1345SOL    HW2 4035   1.446   4.056   5.952 -0.5233  0.0137  1.1576
 1346SOL     OW 4036   4.867   4.586   7.101  0.1241 -0.5950  0.0929
 1346SOL    HW1 4037   4.780   4.545   7.099 -0.0112 -0.3166  0.1576
 1346SOL    HW2 4038   4.926   4.519   7.067  0.0814 -1.2409  1.2378
 1347SOL     OW 4039   0.605   1.550   8.414  0.1885 -0.0299 -0.3546
 1347SOL    HW1 4040   0.672   1.616   8.432  2.1929 -1.9956 -0.1841
 1347SOL    HW2 4041   0.549   1.550   8.492  2.1712 -0.7859  1.1275
 1348SOL     OW 4042   0.122   4.310   6.775  0.0358  0.7584 -0.6133
 1348SOL    HW1 4043   0.100   4.396   6.740  1.1499  1.8206  1.1460
 1348SOL    HW2 4044   0.059   4.251   6.734 -0.5444  2.3406 -2.1250
 1349SOL     OW 4045   2.669   3.123   6.071 -0.1112 -0.0665  0.5967
 1349SOL    HW1 4046   2.707   3.066   6.137  1.2895  1.5946  1.3106
 1349SOL    HW2 4047   2.575   3.121   6.088  0.0131 -1.2955  1.2566
 1350SOL     OW 4048   1.207   3.672   8.583 -0.4256  0.2519 -0.5157
 1350SOL    HW1 4049   1.246   3.689   8.669 -0.9808 -0.6227 -0.0724
 1350SOL    HW2 4050   1.271   3.618   8.537 -1.3671 -1.8594  0.5059
 1351SOL     OW 4051   0.409   3.848   7.041  0.2661 -0.2810 -0.2237
 1351SOL    HW1 4052   0.423   3.778   6.977  1.3236 -0.6348  0.3718
 1351SOL    HW2 4053   0.495   3.862   7.081 -0.3514 -0.0093  1.0621
 1352SOL     OW 4054   4.083   2.664   6.778 -0.1491 -0.5000  0.1967
 1352SOL    HW1 4055   4.081   2.617   6.861 -1.5034 -2.4204 -0.8591
 1352SOL    HW2 4056   4.114   2.752   6.801 -0.3795 -1.0071  2.6964
 1353SOL     OW 4057   4.438   4.577   9.781 -0.1183  0.5763 -0.6342
 1353SOL    HW1 4058   4.358   4.527   9.795  0.2353  0.0229 -0.5646
 1353SOL    HW2 4059   4.422   4.661   9.824 -0.6554  0.4645 -0.6140
 1354SOL     OW 4060   2.431   4.630   5.863  0.2417 -0.0166  0.5970
 1354SOL    HW1 4061   2.515   4.664   5.894  0.4212 -1.4046  1.7170
 1354SOL    HW2 4062   2.418   4.549   5.912  0.3099 -2.1583 -2.6047
 1355SOL     OW 4063   0.205   4.775   9.181  0.4983  0.2807 -0.0419
 1355SOL    HW1 4064   0.197   4.719   9.258  0.5139 -0.9767 -0.9285
 1355SOL    HW2 4065   0.299   4.792   9.174  0.8791 -1.9096 -1.3167
 1356SOL     OW 4066   1.989   0.216   6.400  0.4124 -0.0669 -0.2460
 1356SOL    HW1 4067   2.071   0.205   6.449  1.0721  0.4037 -1.2156
 1356SOL    HW2 4068   1.974   0.311   6.399 -0.2653 -0.1663  0.1132
 1357SOL     OW 4069   1.830   4.918   8.376  0.0030  0.0329  0.2729
 1357SOL    HW1 4070   1.813   4.981   8.306 -1.6820 -1.2515 -0.5323
 1357SOL    HW2 4071   1.746   4.911   8.422  0.1863 -1.5780  0.3915
 1358SOL     OW 4072   3.086   3.208   8.434 -0.1854  0.0309 -0.4593
 1358SOL    HW1 4073   3.168   3.249   8.463 -1.0229  1.5017 -0.0990
 1358SOL    HW2 4074   3.017   3.263   8.469 -1.3737 -1.3638 -0.5007
 1359SOL     OW 4075   4.224   2.846   9.094 -0.4720  0.4665 -0.3690
 1359SOL    HW1 4076   4.290   2.905   9.132 -0.4302 -1.5337  3.0875
 1359SOL    HW2 4077   4.144   2.899   9.090  0.1113  1.4474  0.3500
 1360SOL     OW 4078   1.597   4.913   8.519 -0.1774  0.8093 -0.0412
 1360SOL    HW1 4079   1.594   4.866   8.602 -0.8781  1.5611  0.3741
 1360SOL    HW2 4080   1.505   4.935   8.501  0.1551  2.2535 -0.0710
 1361SOL     OW 4081   4.698   3.666   6.577 -0.0223 -0.1145 -0.1467
 1361SOL    HW1 4082   4.740   3.611   6.511 -1.0714  0.3540 -1.2510
 1361SOL    HW2 4083   4.663   3.604   6.641 -0.0740 -0.6640 -0.6983
 1362SOL     OW 4084   0.208   4.504   9.958  0.3147  0.0979 -0.6271
 1362SOL    HW1 4085   0.174   4.423   9.919 -3.2850  1.8352 -1.5279
 1362SOL    HW2 4086   0.164   4.511  10.042  2.4184  0.0490  0.5497
 1363SOL     OW 4087   1.588   0.795   9.044 -0.0703  0.0970 -0.1764
 1363SOL    HW1 4088   1.543   0.711   9.037  0.3293 -0.0787 -0.7070
 1363SOL    HW2 4089   1.568   0.826   9.132  0.5287 -0.9848  0.3607
 1364SOL     OW 4090   4.802   4.755   8.462 -0.0334 -0.8543 -0.2484
 1364SOL    HW1 4091   4.832   4.836   8.421  0.4497 -1.0437 -0.2722
 1364SOL    HW2 4092   4.882   4.711   8.490 -0.2173 -1.8703 -1.2629
 1365SOL     OW 4093   4.345   0.727   8.986  0.0679  0.0989  0.4126
 1365SOL    HW1 4094   4.323   0.773   9.067 -1.1369 -0.7148  0.5757
 1365SOL    HW2 4095   4.260   0.708   8.945  0.4559 -2.4760  0.6545
 1366SOL     OW 4096   0.980   3.972   8.677  0.1077  0.7677 -0.4034
 1366SOL    HW1 4097   1.023   3.949   8.760  0.0049 -0.5205 -0.6873
 1366SOL    HW2 4098   0.890   3.940   8.687  0.0503  0.7485 -0.9603
 1367SOL     OW 4099   0.527   4.526   8.111  0.0131  0.1765  0.2240
 1367SOL    HW1 4100   0.594   4.594   8.123 -0.3321  0.6437 -0.4204
 1367SOL    HW2 4101   0.529   4.476   8.192  1.4606 -0.1096  0.0362
 1368SOL     OW 4102   3.828   4.221   8.888  0.4997  0.3417  0.6023
 1368SOL    HW1 4103   3.768   4.149   8.905 -1.4033  1.8246  0.4447
 1368SOL    HW2 4104   3.865   4.200   8.802  0.9251 -1.0356  1.0894
 1369SOL     OW 4105   1.339   4.300   6.270 -0.1869 -0.0097 -0.0928
 1369SOL    HW1 4106   1.392   4.221   6.280 -0.4016 -0.3570 -1.4597
 1369SOL    HW2 4107   1.255   4.268   6.236 -0.3643  0.7782 -0.4173
 1370SOL     OW 4108   0.694   3.582   9.539 -0.4404  0.1728 -0.5293
 1370SOL    HW1 4109   0.759   3.640   9.578 -0.4620  0.3928 -0.8128
 1370SOL    HW2 4110   0.746   3.515   9.494 -0.4093  0.2526 -0.6134
 1371SOL     OW 4111   0.637   0.810   8.894 -0.0490 -0.3152 -0.5943
 1371SOL    HW1 4112   0.646   0.739   8.958 -0.1033 -0.0851 -0.3321
 1371SOL    HW2 4113   0.618   0.765   8.811 -3.3474 -0.5281  0.1215
 1372SOL     OW 4114   1.984   3.039   7.809  0.3154  0.1493 -0.3843
 1372SOL    HW1 4115   1.981   2.996   7.724  1.4008  0.2429 -0.4886
 1372SOL    HW2 4116   2.049   3.109   7.798  0.3267  0.2878  0.4556
 1373SOL     OW 4117   0.343   1.567   6.380  0.2592 -0.5145 -0.1192
 1373SOL    HW1 4118   0.317   1.613   6.460 -1.3876 -0.4564 -0.6544
 1373SOL    HW2 4119   0.435   1.589   6.369  0.3276  0.0756  1.3552
 1374SOL     OW 4120   4.456   1.072   6.569 -0.0938 -0.3210 -0.0674
 1374SOL    HW1 4121   4.421   1.038   6.651  2.1429 -0.9152  0.7127
 1374SOL    HW2 4122   4.535   1.120   6.594 -0.6353  1.5162 -1.6548
 1375SOL     OW 4123   4.019   4.886   6.964  0.0512 -0.7443  0.4346
 1375SOL    HW1 4124   3.942   4.829   6.967  0.7761 -1.7127  1.2202
 1375SOL    HW2 4125   4.013   4.938   7.045 -1.5139  1.5799 -1.0681
 1376SOL     OW 4126   0.382   3.127   8.661  0.6867 -0.5194 -0.5075
 1376SOL    HW1 4127   0.424   3.125   8.747 -0.8840 -0.5475  0.3097
 1376SOL    HW2 4128   0.299   3.080   8.674 -1.2475  2.4154 -1.0465
 1377SOL     OW 4129   3.104   3.772   8.628  0.3185  0.2744  0.2379
 1377SOL    HW1 4130   3.108   3.741   8.537 -1.1605  2.2117 -0.5647
 1377SOL    HW2 4131   3.076   3.696   8.678  1.5564 -0.9452 -0.8449
 1378SOL     OW 4132   1.544   0.305   8.639  0.2034 -0.0173 -0.1137
 1378SOL    HW1 4133   1.623   0.283   8.589 -0.5993 -2.0195 -0.6105
 1378SOL    HW2 4134   1.473   0.295   8.576 -0.6858 -0.9829  0.9957
 1379SOL     OW 4135   2.114   1.121   8.545 -0.2303 -0.1591 -0.3552
 1379SOL    HW1 4136   2.043   1.177   8.576 -1.3535 -0.7396 -1.7443
 1379SOL    HW2 4137   2.071   1.059   8.486  1.5629  0.0317 -1.9511
 1380SOL     OW 4138   0.905   1.186   6.988  0.0780 -0.0044  0.1192
 1380SOL    HW1 4139   0.965   1.244   6.940 -1.7436  1.5243 -0.4055
 1380SOL    HW2 4140   0.853   1.245   7.042 -0.8419 -1.3231  0.7168
 1381SOL     OW 4141   3.137   3.389   7.366 -0.5264  0.9540  0.5061
 1381SOL    HW1 4142   3.139   3.297   7.340 -0.4912  1.3543 -0.9806
 1381SOL    HW2 4143   3.228   3.418   7.357 -0.8799  1.6797 -1.2229
 1382SOL     OW 4144   1.338   4.960   8.498 -0.3779 -0.0337 -0.4790
 1382SOL    HW1 4145   1.297   5.031   8.448  0.8373  0.4551 -0.8066
 1382SOL    HW2 4146   1.275   4.887   8.493 -0.7242  0.3449 -1.8607
 1383SOL     OW 4147   4.896   1.565   7.433 -0.3569  0.0835  0.0045
 1383SOL    HW1 4148   4.928   1.656   7.433  0.4094 -0.1696 -1.1466
 1383SOL    HW2 4149   4.804   1.573   7.459  0.1334  1.0051  1.6376
 1384SOL     OW 4150   3.040   0.639   9.383 -0.2376  0.6502  0.6395
 1384SOL    HW1 4151   2.969   0.575   9.394 -1.0677  1.5765  0.7856
 1384SOL    HW2 4152   2.996   0.724   9.388  0.8411  1.2319  0.3548
 1385SOL     OW 4153   1.412   4.516   9.018  0.2275 -0.1990 -0.1146
 1385SOL    HW1 4154   1.467   4.518   9.096 -0.3066 -0.3232  0.2630
 1385SOL    HW2 4155   1.358   4.594   9.025  0.3753 -0.0580 -0.5082
 1386SOL     OW 4156   2.545   3.775   7.886  0.2665 -0.1288 -0.1612
 1386SOL    HW1 4157   2.580   3.762   7.798  3.2696  0.2384  0.8880
 1386SOL    HW2 4158   2.582   3.858   7.915 -1.0508 -0.0054  1.3207
 1387SOL     OW 4159   0.365   0.779   7.127  0.1253  0.7697  0.1762
 1387SOL    HW1 4160   0.416   0.698   7.139  1.4067  1.6590  1.0247
 1387SOL    HW2 4161   0.432   0.847   7.115 -0.8799  1.9399  1.0273
 1388SOL     OW 4162   3.281   4.229   8.178 -0.3951 -0.4343 -0.1422
 1388SOL    HW1 4163   3.248   4.270   8.098  2.5719  2.6187 -0.0291
 1388SOL    HW2 4164   3.302   4.139   8.152  0.9874  0.5808 -3.0692
 1389SOL     OW 4165   0.779   0.617   6.716  0.0265  0.2027 -0.1031
 1389SOL    HW1 4166   0.689   0.589   6.727  0.1608 -1.1062 -1.8548
 1389SOL    HW2 4167   0.777   0.674   6.639  0.5084  1.2492  0.6358
 1390SOL     OW 4168   0.335   4.555   5.646 -0.4420 -0.3586  0.1574
 1390SOL    HW1 4169   0.245   4.588   5.645 -0.3038  0.5898  4.1161
 1390SOL    HW2 4170   0.325   4.460   5.637 -1.7334 -0.1698 -0.6137
 1391SOL     OW 4171   3.990   2.381   7.612 -0.2632 -0.6481 -0.6751
 1391SOL    HW1 4172   3.980   2.294   7.652  2.8306 -0.6670  0.3939
 1391SOL    HW2 4173   4.075   2.412   7.645 -0.1262  1.7438 -2.9701
 1392SOL     OW 4174   0.080   3.975   5.232 -0.1857  0.1468  0.1227
 1392SOL    HW1 4175   0.037   4.010   5.309 -1.1220 -0.2022 -0.2262
 1392SOL    HW2 4176   0.046   4.028   5.159  0.8849  0.6465 -0.0333
 1393SOL     OW 4177   0.246   4.328   8.304 -0.1863  0.4455  0.2185
 1393SOL    HW1 4178   0.253   4.305   8.397  2.2062 -4.5990 -0.8590
 1393SOL    HW2 4179   0.156   4.303   8.280  0.0387 -0.9618  0.7124
 1394SOL     OW 4180   5.005   4.772   6.787  0.0952  0.2953  0.3103
 1394SOL    HW1 4181   4.916   4.754   6.758  0.5029 -2.4570  0.5281
 1394SOL    HW2 4182   5.011   4.731   6.874  1.3377  1.1574  0.6599
 1395SOL     OW 4183   0.270   2.636   8.673 -0.4754 -0.0428  0.4183
 1395SOL    HW1 4184   0.280   2.626   8.578 -2.4470 -0.7475  0.2375
 1395SOL    HW2 4185   0.199   2.699   8.683 -1.6248 -1.4329  1.3819
 1396SOL     OW 4186   2.082   3.654   8.315 -0.5287  0.2823 -0.5975
 1396SOL    HW1 4187   2.068   3.569   8.274 -1.1265 -0.1041  0.3763
 1396SOL    HW2 4188   2.060   3.641   8.407  0.5226  1.1939 -0.1862
 1397SOL     OW 4189   3.104   0.015   6.740 -0.2165  1.1650 -0.1222
 1397SOL    HW1 4190   3.055   0.082   6.693  0.5921  1.6980 -0.2304
 1397SOL    HW2 4191   3.037  -0.046   6.772 -0.8781  1.4801 -0.8715
 1398SOL     OW 4192   1.421   4.404   7.569 -0.2158 -0.0830  0.2057
 1398SOL    HW1 4193   1.454   4.367   7.487  1.5349  1.8363 -0.0343
 1398SOL    HW2 4194   1.357   4.470   7.541 -0.0627  0.1503  0.4038
 1399SOL     OW 4195   4.307   4.719   7.701  0.5009  0.1312  0.1829
 1399SOL    HW1 4196   4.318   4.626   7.682  1.0645  0.5112 -1.5224
 1399SOL    HW2 4197   4.362   4.734   7.778  1.3586 -0.7151 -0.2332
 1400SOL     OW 4198   3.063   4.879   9.625  0.3073  0.0235 -0.2553
 1400SOL    HW1 4199   3.136   4.937   9.650  1.0529 -0.3886 -1.3901
 1400SOL    HW2 4200   3.089   4.793   9.659 -0.5396  0.2179  0.9434
 1401SOL     OW 4201   3.103   3.128   7.251 -0.7971 -0.1798  0.4804
 1401SOL    HW1 4202   3.192   3.129   7.217 -0.4378 -1.5206  1.2847
 1401SOL    HW2 4203   3.048   3.143   7.175 -0.0128 -2.8330 -0.7485
 1402SOL     OW 4204   0.057   2.738   8.858 -0.5738  0.3641 -0.0461
 1402SOL    HW1 4205  -0.031   2.774   8.852 -0.6283  0.2126 -0.1654
 1402SOL    HW2 4206   0.112   2.812   8.885 -0.3867  1.0156 -2.0022
 1403SOL     OW 4207   0.813   3.764   8.469 -0.4103 -0.8993  0.1105
 1403SOL    HW1 4208   0.738   3.752   8.410 -0.7642 -1.8097  0.7267
 1403SOL    HW2 4209   0.888   3.739   8.416 -0.4784  0.3801 -0.6351
 1404SOL     OW 4210   1.264   3.840   6.728 -0.3105  0.2198  0.0174
 1404SOL    HW1 4211   1.248   3.792   6.810  1.3091  1.3958  1.0984
 1404SOL    HW2 4212   1.253   3.932   6.752  0.7011  0.6130 -0.9559
 1405SOL     OW 4213   1.092   4.243   6.158  0.4201 -0.3547  0.5043
 1405SOL    HW1 4214   1.044   4.288   6.088  1.3870 -0.2985 -0.1421
 1405SOL    HW2 4215   1.138   4.172   6.113  2.3333  0.6640  0.7930
 1406SOL     OW 4216   0.807   2.896   8.111 -0.4112 -0.1572 -0.4860
 1406SOL    HW1 4217   0.884   2.907   8.055  0.5239  0.3899  0.8584
 1406SOL    HW2 4218   0.813   2.968   8.174 -0.6792 -1.5249  1.1593
 1407SOL     OW 4219   1.380   3.714   9.771 -0.8775 -0.2142 -0.1655
 1407SOL    HW1 4220   1.460   3.687   9.817 -1.2130 -1.9666 -0.5378
 1407SOL    HW2 4221   1.355   3.796   9.814  1.0833  0.3691 -0.0217
 1408SOL     OW 4222   3.500   3.607  10.019 -0.5218  0.2086 -0.8080
 1408SOL    HW1 4223   3.459   3.523   9.995  1.3869 -0.4949 -1.8390
 1408SOL    HW2 4224   3.492   3.611  10.114  1.1405 -2.2011 -0.4738
 1409SOL     OW 4225   1.870   4.487   8.734 -0.1033  0.5692 -0.3453
 1409SOL    HW1 4226   1.870   4.510   8.827 -0.9786 -0.4457 -0.0649
 1409SOL    HW2 4227   1.801   4.541   8.695 -1.3109 -0.6066  0.0699
 1410SOL     OW 4228   4.915   1.454   5.571 -0.2291 -0.1652  0.5742
 1410SOL    HW1 4229   4.860   1.456   5.493  0.6139 -1.2427 -0.0881
 1410SOL    HW2 4230   4.976   1.527   5.560 -0.5401  0.0967  0.5667
 1411SOL     OW 4231   1.751   4.631   8.482 -0.4119  0.4173  0.5370
 1411SOL    HW1 4232   1.700   4.710   8.497 -0.6241  0.6178 -1.0828
 1411SOL    HW2 4233   1.839   4.663   8.461 -0.4883  0.2245 -0.0818
 1412SOL     OW 4234   0.757   0.505   6.369 -0.0255 -0.1550 -0.3148
 1412SOL    HW1 4235   0.787   0.581   6.419 -1.0023  1.5904 -2.2252
 1412SOL    HW2 4236   0.793   0.518   6.281 -0.3432 -1.8383 -0.7349
 1413SOL     OW 4237   2.100   3.900   8.651  0.3201  0.5060 -0.2140
 1413SOL    HW1 4238   2.039   3.929   8.583  0.7365  1.5658 -0.1599
 1413SOL    HW2 4239   2.167   3.968   8.654  0.1619  0.6413  1.4480
 1414SOL     OW 4240   2.635   0.665   7.858  0.0607  0.5959 -0.6364
 1414SOL    HW1 4241   2.631   0.707   7.944 -0.4370 -3.6007  1.6824
 1414SOL    HW2 4242   2.723   0.628   7.854 -0.6809 -1.2982 -0.7182
 1415SOL     OW 4243   4.656   4.451   7.208 -0.2858  0.3118 -0.5700
 1415SOL    HW1 4244   4.707   4.376   7.178  1.5288  1.8242 -1.4701
 1415SOL    HW2 4245   4.677   4.460   7.301  0.3542  0.3232 -0.7086
 1416SOL     OW 4246   1.529   4.262   6.834 -0.6641  0.0901  0.5038
 1416SOL    HW1 4247   1.595   4.200   6.800 -1.7234 -0.9203  0.2106
 1416SOL    HW2 4248   1.462   4.265   6.765 -0.7791  1.3501  0.6532
 1417SOL     OW 4249   3.564   3.165   7.377  0.0049 -0.5414 -0.1071
 1417SOL    HW1 4250   3.604   3.111   7.309 -1.6277 -0.4935 -1.1457
 1417SOL    HW2 4251   3.485   3.117   7.402 -0.1142  0.1068  0.8129
 1418SOL     OW 4252   2.507   0.919   7.995  0.4143  0.1475 -0.7680
 1418SOL    HW1 4253   2.492   0.897   8.087 -0.4966 -1.1330 -1.2081
 1418SOL    HW2 4254   2.439   0.872   7.947  2.0324 -0.7687 -2.2761
 1419SOL     OW 4255   4.195   4.843   7.406  0.0817  0.1917 -0.5431
 1419SOL    HW1 4256   4.211   4.915   7.467 -3.6211 -1.0390  2.2467
 1419SOL    HW2 4257   4.270   4.784   7.418  1.5267  1.9610 -0.4510
 1420SOL     OW 4258   0.145   3.840   7.214  0.0909  0.3579  0.7693
 1420SOL    HW1 4259   0.155   3.837   7.309  2.8559 -2.2226  0.5250
 1420SOL    HW2 4260   0.229   3.871   7.181 -0.6794  0.8180 -0.8973
 1421SOL     OW 4261   4.573   0.320   9.847 -0.4091 -0.3644 -0.1991
 1421SOL    HW1 4262   4.647   0.381   9.840 -1.4588  0.8592 -1.0373
 1421SOL    HW2 4263   4.614   0.235   9.860  1.1099  0.5682  1.8254
 1422SOL     OW 4264   4.358   3.507   9.451 -0.5373  0.5886  0.0274
 1422SOL    HW1 4265   4.381   3.591   9.412 -0.3753  0.3570 -0.3914
 1422SOL    HW2 4266   4.309   3.529   9.530  0.1827  1.0891  0.3492
 1423SOL     OW 4267   0.796   4.613   8.645  0.0582 -0.4249  0.1251
 1423SOL    HW1 4268   0.779   4.537   8.701  1.0805 -0.7764 -0.0165
 1423SOL    HW2 4269   0.802   4.578   8.557 -0.3974 -0.0366 -0.0648
 1424SOL     OW 4270   1.582   1.119   7.945 -0.0150  0.3669  0.3406
 1424SOL    HW1 4271   1.545   1.032   7.930 -2.3939  1.6156 -1.9931
 1424SOL    HW2 4272   1.605   1.121   8.037 -2.6430 -1.8033  1.1595
 1425SOL     OW 4273   0.822   1.582   9.070  0.0941 -0.1314 -0.0448
 1425SOL    HW1 4274   0.779   1.608   8.989  2.1343  0.3989 -1.0167
 1425SOL    HW2 4275   0.909   1.621   9.065  0.5542 -0.7526  2.0488
 1426SOL     OW 4276   4.888   2.301   6.698 -0.3268 -0.8449 -0.2121
 1426SOL    HW1 4277   4.916   2.323   6.609 -0.5928 -0.2544 -0.1550
 1426SOL    HW2 4278   4.931   2.366   6.753 -0.1788 -1.1977  0.0932
 1427SOL     OW 4279   0.762   1.123   5.851 -0.0054 -0.0237 -0.3226
 1427SOL    HW1 4280   0.679   1.093   5.887  0.4186 -1.1386 -0.2266
 1427SOL    HW2 4281   0.757   1.102   5.757 -0.4666  1.4060 -0.6454
 1428SOL     OW 4282   0.290   4.025   7.816 -0.0843 -0.1681 -0.0847
 1428SOL    HW1 4283   0.242   4.063   7.890  0.5685  0.1296  0.1942
 1428SOL    HW2 4284   0.371   4.076   7.812  0.1077 -0.5172 -0.6885
 1429SOL     OW 4285   0.414   4.701   8.798  0.7834  0.3658 -0.5842
 1429SOL    HW1 4286   0.322   4.718   8.820  0.6150  2.2697 -2.4692
 1429SOL    HW2 4287   0.463   4.747   8.866  0.3102  1.2097 -0.7919
 1430SOL     OW 4288   0.873   2.341   9.565  0.1475 -0.0131  0.0271
 1430SOL    HW1 4289   0.893   2.411   9.627  1.3605  1.1481 -1.5958
 1430SOL    HW2 4290   0.893   2.260   9.614 -0.2549  0.7794  1.5757
 1431SOL     OW 4291   0.979   4.348   9.756  0.4458 -0.9204  0.1330
 1431SOL    HW1 4292   1.053   4.405   9.777 -0.0569 -0.6502  1.2452
 1431SOL    HW2 4293   0.917   4.405   9.711 -0.3134 -0.3892  1.7634
 1432SOL     OW 4294   5.004   0.079   7.639  0.0400 -0.6141 -0.7477
 1432SOL    HW1 4295   4.931   0.020   7.655 -0.2162 -0.1917 -0.3527
 1432SOL    HW2 4296   5.042   0.048   7.557 -1.5005  0.0898 -1.7529
 1433SOL     OW 4297   3.060   4.283   9.977 -0.4059 -0.4798 -0.4016
 1433SOL    HW1 4298   3.113   4.344  10.029 -0.5232  1.6954 -2.6742
 1433SOL    HW2 4299   2.982   4.267  10.031  0.7443 -0.6514  1.3018
 1434SOL     OW 4300   3.377   3.620   9.000 -0.0720 -0.3513  0.9463
 1434SOL    HW1 4301   3.405   3.659   9.083 -1.6636  0.0355  1.3357
 1434SOL    HW2 4302   3.347   3.695   8.947 -1.3712 -0.8310  0.9741
 1435SOL     OW 4303   1.058   1.633   8.201  0.7436 -0.1088  0.6258
 1435SOL    HW1 4304   1.148   1.600   8.197 -0.2444 -3.0486 -0.3394
 1435SOL    HW2 4305   1.023   1.617   8.114 -1.4463 -1.5362  1.6666
 1436SOL     OW 4306   2.646   4.624   9.064 -0.2946 -0.2983 -0.3498
 1436SOL    HW1 4307   2.602   4.702   9.099 -1.6515  0.1790 -2.7961
 1436SOL    HW2 4308   2.668   4.649   8.974  1.6842 -1.8752 -0.3639
 1437SOL     OW 4309   0.061   0.058   6.984  0.3869  0.0972 -0.0400
 1437SOL    HW1 4310   0.025   0.003   6.915 -1.7192  1.4590 -0.1002
 1437SOL    HW2 4311   0.051   0.007   7.064 -0.2599 -0.1607 -0.2825
 1438SOL     OW 4312   4.020   2.355   8.541  0.5011 -0.2179  0.3546
 1438SOL    HW1 4313   4.106   2.392   8.557 -0.3293  1.2279  1.7871
 1438SOL    HW2 4314   3.963   2.398   8.605 -1.0092 -2.2110  0.4570
 1439SOL     OW 4315   3.111   3.955   8.860 -0.2303 -0.9594  0.5065
 1439SOL    HW1 4316   3.184   3.938   8.919  0.4528  0.0337 -0.0090
 1439SOL    HW2 4317   3.132   3.906   8.781 -0.0890 -0.6193  0.3330
 1440SOL     OW 4318   0.764   1.348   7.193  0.1156 -0.3263 -0.6486
 1440SOL    HW1 4319   0.713   1.318   7.268 -0.0969  0.1861 -0.5823
 1440SOL    HW2 4320   0.798   1.433   7.220 -0.9886  0.4464 -1.5802
 1441SOL     OW 4321   0.157   2.399   9.338 -0.4193  0.3100  0.3138
 1441SOL    HW1 4322   0.245   2.367   9.358  0.0074  1.4895  0.4320
 1441SOL    HW2 4323   0.147   2.384   9.244 -0.7761 -1.3952  0.6038
 1442SOL     OW 4324   2.811   2.774   9.654 -0.0397 -0.3068 -0.1047
 1442SOL    HW1 4325   2.894   2.766   9.607  0.1141  0.4648  0.0202
 1442SOL    HW2 4326   2.783   2.864   9.637 -1.3154 -0.8346 -0.9009
 1443SOL     OW 4327   1.659   1.980   9.033  0.9913 -0.3540 -0.2728
 1443SOL    HW1 4328   1.750   1.984   9.061  0.4858 -1.8041  1.8241
 1443SOL    HW2 4329   1.650   1.896   8.990  0.4771 -0.5865  0.2679
 1444SOL     OW 4330   4.477   2.356   9.646 -0.9004 -0.3298  0.0363
 1444SOL    HW1 4331   4.408   2.291   9.633  0.3206 -1.3992 -1.5310
 1444SOL    HW2 4332   4.542   2.312   9.701 -0.1359 -0.4445 -0.9087
 1445SOL     OW 4333   3.504   2.623   8.451 -0.1804  0.0220 -0.6044
 1445SOL    HW1 4334   3.460   2.561   8.509 -0.4118  0.4256 -0.3392
 1445SOL    HW2 4335   3.495   2.708   8.496  2.5881 -0.1459  0.4563
 1446SOL     OW 4336   2.867   3.803   9.594 -0.0387 -0.6161  0.1896
 1446SOL    HW1 4337   2.933   3.784   9.528 -1.1636  0.3930 -1.2876
 1446SOL    HW2 4338   2.826   3.718   9.612  1.5012 -1.2191  1.0033
 1447SOL     OW 4339   4.077   4.733   7.875 -0.0102 -0.2167 -0.4274
 1447SOL    HW1 4340   4.143   4.741   7.806  0.4756 -1.8670 -0.1966
 1447SOL    HW2 4341   4.126   4.747   7.956 -0.5225  1.4083 -0.3454
 1448SOL     OW 4342   0.096   3.185   8.386 -1.0950  0.3362 -0.4095
 1448SOL    HW1 4343   0.106   3.192   8.291 -3.5729  1.4439 -0.6590
 1448SOL    HW2 4344   0.174   3.227   8.422  0.3053 -0.8569 -1.9043
 1449SOL     OW 4345   0.571   3.573   8.767  0.4838 -0.7356 -0.0327
 1449SOL    HW1 4346   0.554   3.521   8.845 -1.2367 -1.7545 -1.0310
 1449SOL    HW2 4347   0.665   3.563   8.752  1.2554  0.9725  2.8499
 1450SOL     OW 4348   0.543   3.741   7.302  0.2609  0.4053  0.0187
 1450SOL    HW1 4349   0.465   3.789   7.330 -0.5745 -0.9948  0.2222
 1450SOL    HW2 4350   0.614   3.774   7.357 -0.6184  0.2550  1.2814
 1451SOL     OW 4351   2.616   0.459   5.810  0.3552 -0.1561 -0.3225
 1451SOL    HW1 4352   2.561   0.499   5.742  1.4723  1.7569 -0.1904
 1451SOL    HW2 4353   2.613   0.522   5.883  1.8081 -0.5347  0.0983
 1452SOL     OW 4354   0.131   2.944   8.570  0.2330  0.1150 -0.7245
 1452SOL    HW1 4355   0.084   2.968   8.650  0.4209  0.1578 -0.6259
 1452SOL    HW2 4356   0.111   3.015   8.509 -0.8719 -0.5102 -1.1153
 1453SOL     OW 4357   1.082   4.159  10.172  0.8964  0.1506  0.0734
 1453SOL    HW1 4358   1.083   4.254  10.158  2.1526  0.3121  1.0635
 1453SOL    HW2 4359   1.061   4.122  10.087  1.4045  1.2911 -0.5683
 1454SOL     OW 4360   2.481   4.806   9.185 -0.5876  0.4236  0.2123
 1454SOL    HW1 4361   2.428   4.730   9.208 -0.2566 -0.0244 -0.4453
 1454SOL    HW2 4362   2.445   4.878   9.236  0.2321 -0.5336  2.2306
 1455SOL     OW 4363   0.969   4.554   6.801  0.1461  0.3949  0.0926
 1455SOL    HW1 4364   0.985   4.535   6.894 -1.1164 -1.6214 -0.0249
 1455SOL    HW2 4365   0.879   4.587   6.799  0.4136  1.1096 -0.3477
 1456SOL     OW 4366   1.451   1.435   8.922  0.3447  0.4363 -0.0545
 1456SOL    HW1 4367   1.408   1.350   8.933  0.4106  0.4548  0.3450
 1456SOL    HW2 4368   1.394   1.497   8.968  1.6395  0.2200  1.9734
 1457SOL     OW 4369   2.192   2.701   9.133 -0.1595  0.2830 -0.1156
 1457SOL    HW1 4370   2.255   2.699   9.204  0.5252  0.5035 -0.7063
 1457SOL    HW2 4371   2.112   2.663   9.170 -0.3810  2.0210  1.2806
 1458SOL     OW 4372   4.052   3.707   9.029 -0.0904  0.1806 -0.0987
 1458SOL    HW1 4373   4.116   3.761   9.077 -1.0198 -0.0500  1.4710
 1458SOL    HW2 4374   4.098   3.680   8.950  1.2479  1.2356  0.2847
 1459SOL     OW 4375   3.877   0.015   9.595 -0.1177  0.0306 -0.3087
 1459SOL    HW1 4376   3.785   0.040   9.584 -0.4226 -0.9363 -0.0586
 1459SOL    HW2 4377   3.922   0.097   9.615 -0.6172  0.8410 -2.2055
 1460SOL     OW 4378   2.652   3.021   7.393 -0.5114 -0.4083  0.3876
 1460SOL    HW1 4379   2.558   3.016   7.408 -0.9645  1.0997 -1.5042
 1460SOL    HW2 4380   2.661   3.080   7.317  1.9767 -0.1702  0.7859
 1461SOL     OW 4381   4.765   0.423   9.405 -0.3525 -0.0236 -0.0780
 1461SOL    HW1 4382   4.825   0.402   9.333  2.3736  0.3437  1.9556
 1461SOL    HW2 4383   4.744   0.338   9.443  0.8337 -0.0237  0.6329
 1462SOL     OW 4384   4.637   3.177   7.133 -0.1366  1.1303  0.4427
 1462SOL    HW1 4385   4.644   3.085   7.156 -0.0426  1.3393  1.3114
 1462SOL    HW2 4386   4.550   3.203   7.163  0.4302  1.6971  1.7134
 1463SOL     OW 4387   1.191   2.091   9.818  0.8178  0.8351  0.5809
 1463SOL    HW1 4388   1.281   2.058   9.818  0.5634  0.1198  0.5284
 1463SOL    HW2 4389   1.161   2.076   9.908  0.1939 -0.5190  0.1700
 1464SOL     OW 4390   2.395   4.042  10.053 -0.2324 -0.7304  0.2554
 1464SOL    HW1 4391   2.398   3.946  10.049  1.4366 -0.6515 -2.2339
 1464SOL    HW2 4392   2.338   4.068   9.980  0.4159  0.1941  0.0592
 1465SOL     OW 4393   4.097   3.676   8.250  0.6565  0.6349 -0.2882
 1465SOL    HW1 4394   4.107   3.581   8.241 -0.9416 -0.0683  3.2658
 1465SOL    HW2 4395   4.091   3.709   8.161  1.4120 -2.5599 -1.6577
 1466SOL     OW 4396   0.280   3.396   8.617 -0.0085  0.1500 -0.2300
 1466SOL    HW1 4397   0.311   3.446   8.693  0.0631 -0.7126  0.3155
 1466SOL    HW2 4398   0.294   3.305   8.641 -1.3773 -0.1960 -0.6641
 1467SOL     OW 4399   1.162   3.915   8.465 -0.2863 -0.2524 -0.9669
 1467SOL    HW1 4400   1.103   3.968   8.519 -1.0125 -1.1084 -0.9095
 1467SOL    HW2 4401   1.164   3.830   8.508  0.7643 -0.3287 -1.1402
 1468SOL     OW 4402   4.820   0.663   8.499 -0.2052  1.1999 -0.1726
 1468SOL    HW1 4403   4.834   0.597   8.567 -0.0727  2.5567  1.1799
 1468SOL    HW2 4404   4.787   0.614   8.424 -0.2841 -0.3623  0.8358
 1469SOL     OW 4405   4.783   3.902   7.831 -0.1350  0.8111  0.2896
 1469SOL    HW1 4406   4.742   3.965   7.891 -0.8812 -0.3688  1.0630
 1469SOL    HW2 4407   4.748   3.817   7.858  1.8160 -0.1074  0.0865
 1470SOL     OW 4408   2.329   0.156   9.599 -0.7135 -0.0801  0.5417
 1470SOL    HW1 4409   2.415   0.133   9.634  0.2179  0.3753 -1.3086
 1470SOL    HW2 4410   2.271   0.087   9.631  0.4741 -0.8038  1.2382
 1471SOL     OW 4411   4.878   0.134   8.956 -0.4826 -0.0461 -0.7603
 1471SOL    HW1 4412   4.820   0.210   8.956 -0.6869 -0.1946 -0.1113
 1471SOL    HW2 4413   4.837   0.072   9.017  1.5332  0.7764  1.6380
 1472SOL     OW 4414   2.682   0.403   7.563  0.0692  0.5446  0.0249
 1472SOL    HW1 4415   2.647   0.472   7.507  1.0587  0.9383 -0.1145
 1472SOL    HW2 4416   2.744   0.447   7.621 -0.8337  0.1330  1.3749
 1473SOL     OW 4417   4.169   2.895   9.819 -0.2697 -0.3754 -1.0409
 1473SOL    HW1 4418   4.080   2.925   9.802  0.1506  1.1469 -0.7696
 1473SOL    HW2 4419   4.184   2.824   9.756 -0.2876  2.0749 -4.0586
 1474SOL     OW 4420   4.775   1.704   7.132 -0.2825  0.3699 -0.1757
 1474SOL    HW1 4421   4.779   1.776   7.196 -1.4438 -0.4329  0.8357
 1474SOL    HW2 4422   4.865   1.696   7.100  0.4522  0.4741  1.7359
 1475SOL     OW 4423   1.625   1.379   8.727  0.1268  0.4649  0.2216
 1475SOL    HW1 4424   1.570   1.405   8.801 -0.4113 -0.6413  0.2264
 1475SOL    HW2 4425   1.715   1.386   8.760 -0.1371 -1.6324  1.5680
 1476SOL     OW 4426   0.473   1.720   9.369 -0.0711  0.1567 -0.1554
 1476SOL    HW1 4427   0.379   1.740   9.376  0.0669  0.4464  1.0103
 1476SOL    HW2 4428   0.476   1.624   9.365 -0.3116 -0.0057  2.2566
 1477SOL     OW 4429   1.365   0.150   7.817  0.3191 -0.1019 -0.3052
 1477SOL    HW1 4430   1.433   0.082   7.814  0.0775 -0.3177 -1.0445
 1477SOL    HW2 4431   1.294   0.115   7.763 -0.4949  0.0102  0.6772
 1478SOL     OW 4432   0.549   4.614   7.792 -0.3308  0.5254  0.6831
 1478SOL    HW1 4433   0.549   4.609   7.887 -1.0766  0.3455  0.6809
 1478SOL    HW2 4434   0.565   4.524   7.763  0.9004  0.7452  0.6275
 1479SOL     OW 4435   4.980   2.436   8.551 -0.3157  0.2586  0.3394
 1479SOL    HW1 4436   4.921   2.412   8.622  0.7866 -0.5965  1.0087
 1479SOL    HW2 4437   5.059   2.384   8.568 -0.3607 -0.6834 -2.0481
 1480SOL     OW 4438   2.344   4.189   7.735  0.2282  0.4687 -0.0788
 1480SOL    HW1 4439   2.386   4.245   7.800  0.3157  1.9768 -1.3785
 1480SOL    HW2 4440   2.406   4.188   7.662 -0.8963  0.6998 -1.0497
 1481SOL     OW 4441   1.391   1.153   8.950  0.4996 -0.1044 -0.0315
 1481SOL    HW1 4442   1.461   1.092   8.929  2.0017  0.8417  1.8567
 1481SOL    HW2 4443   1.348   1.115   9.028  0.5060  0.5107  0.2797
 1482SOL     OW 4444   1.255   3.068   6.768 -0.0684 -0.0571 -0.7242
 1482SOL    HW1 4445   1.162   3.060   6.788  0.3157  1.0412  1.7953
 1482SOL    HW2 4446   1.285   2.978   6.759 -1.3449 -0.4313 -1.6459
 1483SOL     OW 4447   2.966   3.207   9.808 -0.1151  0.1282  0.3838
 1483SOL    HW1 4448   2.920   3.241   9.732  0.1153  0.9262  0.5899
 1483SOL    HW2 4449   2.916   3.239   9.884  0.9354  1.2945  0.6184
 1484SOL     OW 4450   0.604   1.906   9.539 -0.4205  0.0883 -0.0193
 1484SOL    HW1 4451   0.535   1.846   9.509 -0.6580  1.3722 -2.2535
 1484SOL    HW2 4452   0.623   1.961   9.463  0.5258  2.1765  1.6227
 1485SOL     OW 4453   3.849   3.519   7.410 -0.8450  0.6476 -0.0757
 1485SOL    HW1 4454   3.912   3.581   7.446  0.6553 -0.4194 -0.7385
 1485SOL    HW2 4455   3.826   3.463   7.485 -1.8180  1.6660  0.4043
 1486SOL     OW 4456   2.079   4.948   8.252 -0.2401  0.2683  0.7112
 1486SOL    HW1 4457   2.022   4.926   8.325 -0.9690 -0.3830 -0.0343
 1486SOL    HW2 4458   2.020   4.973   8.182  0.4396  0.6478  0.2626
 1487SOL     OW 4459   0.387   2.212   8.405  0.1534  0.2608  0.7197
 1487SOL    HW1 4460   0.302   2.181   8.436  1.4575 -2.7677  1.6444
 1487SOL    HW2 4461   0.406   2.158   8.328  1.7352 -0.0475  1.2781
 1488SOL     OW 4462   1.699   4.489   9.688 -0.5464 -0.0057 -0.0856
 1488SOL    HW1 4463   1.629   4.514   9.748 -0.6105 -0.8359  0.2037
 1488SOL    HW2 4464   1.703   4.393   9.694  1.5944  0.0901  1.0156
 1489SOL     OW 4465   1.833   3.114   8.143 -0.0002 -0.6561  0.6721
 1489SOL    HW1 4466   1.741   3.130   8.124 -0.0950 -0.9750  0.8614
 1489SOL    HW2 4467   1.835   3.028   8.186  0.2219 -0.0300  1.9863
 1490SOL     OW 4468   4.697   2.574   8.471 -0.3071 -0.0530 -0.3743
 1490SOL    HW1 4469   4.616   2.619   8.448  0.5990  1.3123 -1.0154
 1490SOL    HW2 4470   4.677   2.531   8.554 -1.2226  1.5718  0.3024
 1491SOL     OW 4471   0.219   0.404   9.334  0.5581  0.6670  0.8378
 1491SOL    HW1 4472   0.272   0.482   9.319  1.3147 -0.1141 -0.7132
 1491SOL    HW2 4473   0.261   0.335   9.283 -2.2391  0.1249 -0.9682
 1492SOL     OW 4474   4.404   4.047   9.285  0.0965 -0.1598  0.3146
 1492SOL    HW1 4475   4.360   4.131   9.270 -1.5918 -1.0238  0.1027
 1492SOL    HW2 4476   4.497   4.069   9.290 -0.2076  1.5876 -0.7042
 1493SOL     OW 4477   4.346   4.584  10.084  0.5366  0.3906 -0.6039
 1493SOL    HW1 4478   4.328   4.675  10.109 -0.8574 -0.5493  2.2779
 1493SOL    HW2 4479   4.260   4.549  10.059  0.4493 -0.8882  1.2918
 1494SOL     OW 4480   0.323   4.624   9.430 -0.1771  0.3760 -0.1602
 1494SOL    HW1 4481   0.323   4.529   9.418 -1.6608 -0.1504  3.0229
 1494SOL    HW2 4482   0.244   4.642   9.480  1.2148  2.9787  1.3339
 1495SOL     OW 4483   4.958   0.570   7.819  0.2955 -0.6045 -0.5973
 1495SOL    HW1 4484   5.036   0.563   7.764 -0.3483 -0.8418 -1.5146
 1495SOL    HW2 4485   4.890   0.523   7.770 -1.4444  2.7748 -1.7377
 1496SOL     OW 4486   4.226   0.594   9.833  0.7123  0.4123  0.0211
 1496SOL    HW1 4487   4.260   0.619   9.747 -0.7653  1.1380 -0.3940
 1496SOL    HW2 4488   4.141   0.638   9.839 -0.0745 -1.1240  1.0638
 1497SOL     OW 4489   4.369   2.992   9.399  0.7491  0.3409  0.4410
 1497SOL    HW1 4490   4.433   3.015   9.466  1.2439  3.7361 -1.0194
 1497SOL    HW2 4491   4.342   3.075   9.361 -2.2812 -1.1620 -1.1313
 1498SOL     OW 4492   1.017   2.558   8.284 -0.7390  0.3769 -0.4351
 1498SOL    HW1 4493   1.086   2.498   8.256  0.0733  0.2048  1.7409
 1498SOL    HW2 4494   0.935   2.511   8.269 -0.1936 -0.6699 -0.1902
 1499SOL     OW 4495   2.866   0.238   7.836 -0.6360 -0.2841 -0.5471
 1499SOL    HW1 4496   2.945   0.184   7.845 -0.4375 -0.2275 -1.6841
 1499SOL    HW2 4497   2.899   0.327   7.823 -0.9753  0.3301  2.2136
 1500SOL     OW 4498   3.093   3.854   7.013 -0.5187 -0.1484  0.1037
 1500SOL    HW1 4499   3.038   3.889   6.942  0.8944  2.2167  0.0626
 1500SOL    HW2 4500   3.090   3.921   7.081  2.4821  0.2580 -0.0145
 1501SOL     OW 4501   3.290   3.345   8.596  0.3637 -0.9627 -0.0018
 1501SOL    HW1 4502   3.214   3.376   8.646  0.6312 -0.3628  0.0423
 1501SOL    HW2 4503   3.353   3.417   8.601  0.2615 -0.7323 -1.5092
 1502SOL     OW 4504   2.624   3.225   8.833  0.6517 -0.1009 -0.1338
 1502SOL    HW1 4505   2.574   3.276   8.769  1.5950  0.5129 -0.3932
 1502SOL    HW2 4506   2.559   3.166   8.871 -0.2996  0.7343 -0.4003
 1503SOL     OW 4507   1.973   4.542   9.946  0.6432 -0.3665 -0.3994
 1503SOL    HW1 4508   1.971   4.570  10.038  1.1735  0.2698 -0.5754
 1503SOL    HW2 4509   1.883   4.552   9.916  0.5603 -0.1339 -0.0801
 1504SOL     OW 4510   3.527   1.940   9.572 -0.1515 -0.1254 -0.4836
 1504SOL    HW1 4511   3.594   1.887   9.616  0.3332  0.5250 -0.4401
 1504SOL    HW2 4512   3.473   1.975   9.643 -0.0756 -0.0258 -0.4750
 1505SOL     OW 4513   4.894   3.750   7.431  0.2890  0.2893  0.7554
 1505SOL    HW1 4514   4.887   3.748   7.526  0.3003  1.0943  0.7849
 1505SOL    HW2 4515   4.920   3.840   7.411  1.5529 -0.2125  0.0611
 1506SOL     OW 4516   0.964   3.703   8.756 -0.9938  0.8773  0.8833
 1506SOL    HW1 4517   1.000   3.708   8.668  1.1564  1.2806  1.7070
 1506SOL    HW2 4518   0.902   3.630   8.753  1.6228 -1.4946 -0.1392
 1507SOL     OW 4519   4.249   4.587   8.413  0.4828  0.1618 -0.3250
 1507SOL    HW1 4520   4.262   4.558   8.322  0.6157 -1.6687  0.2480
 1507SOL    HW2 4521   4.154   4.587   8.425  0.4998 -0.8966 -0.0888
 1508SOL     OW 4522   1.528   4.069   7.914  0.1399 -0.1560  0.0071
 1508SOL    HW1 4523   1.527   4.144   7.856 -0.2119  1.1766  1.6611
 1508SOL    HW2 4524   1.608   4.079   7.965 -0.1526 -0.6282  0.5745
 1509SOL     OW 4525   0.344   3.387   8.139 -0.0492  0.5451  0.3538
 1509SOL    HW1 4526   0.376   3.387   8.229 -0.0035 -1.6171  0.3888
 1509SOL    HW2 4527   0.271   3.325   8.139 -1.0292  1.6294 -0.8053
 1510SOL     OW 4528   1.430   2.593   8.710 -0.0960  0.4025  0.0390
 1510SOL    HW1 4529   1.350   2.639   8.736 -0.0972 -0.0096  0.7691
 1510SOL    HW2 4530   1.423   2.507   8.749  0.5216  0.2180 -0.2388
 1511SOL     OW 4531   4.159   2.795   7.928 -0.5847 -0.3567  0.0420
 1511SOL    HW1 4532   4.134   2.812   7.837 -2.7650 -0.2722  0.5925
 1511SOL    HW2 4533   4.220   2.865   7.950  0.9362 -1.0550 -1.6687
 1512SOL     OW 4534   1.386   0.233   9.629 -0.0856  0.0761 -0.2878
 1512SOL    HW1 4535   1.363   0.325   9.642  1.7697  0.4890  0.3983
 1512SOL    HW2 4536   1.453   0.234   9.560  1.8507 -0.4357  1.4871
 1513SOL     OW 4537   3.706   2.206   8.050  0.5405  0.6760  0.0447
 1513SOL    HW1 4538   3.676   2.290   8.015 -0.6319  0.5242  0.6576
 1513SOL    HW2 4539   3.647   2.188   8.123  0.2730 -1.0732 -0.5710
 1514SOL     OW 4540   3.314   0.171   7.255 -0.5596  0.0146 -0.0857
 1514SOL    HW1 4541   3.295   0.102   7.192 -0.0062  0.0517 -0.2977
 1514SOL    HW2 4542   3.235   0.176   7.309 -0.0532 -1.7925  0.8925
 1515SOL     OW 4543   0.232   3.889   8.233  0.5497  0.1263  0.0984
 1515SOL    HW1 4544   0.152   3.887   8.180  0.7101 -0.5479 -0.1260
 1515SOL    HW2 4545   0.211   3.837   8.311  1.7906 -2.9371 -1.4703
 1516SOL     OW 4546   1.106   3.348   9.658 -0.0232  0.2145 -0.6380
 1516SOL    HW1 4547   1.117   3.384   9.746 -1.2078 -1.1674  0.1300
 1516SOL    HW2 4548   1.189   3.365   9.613  1.0641 -0.1626  1.1588
 1517SOL     OW 4549   3.135   0.081   8.091  0.1579 -0.2782  0.1640
 1517SOL    HW1 4550   3.115   0.005   8.036 -1.1699 -0.7228  1.2034
 1517SOL    HW2 4551   3.209   0.053   8.144 -0.0339 -0.7032  0.2166
 1518SOL     OW 4552   3.416   4.975   9.444  0.2311  0.2350 -0.2983
 1518SOL    HW1 4553   3.343   4.960   9.384 -0.7066 -0.6361  1.0253
 1518SOL    HW2 4554   3.480   4.907   9.421  1.3834  1.8971 -2.4663
 1519SOL     OW 4555   1.920   0.445   9.066 -0.0326 -0.4779 -0.4790
 1519SOL    HW1 4556   1.866   0.506   9.014  0.6594 -1.5822 -2.5977
 1519SOL    HW2 4557   1.876   0.442   9.151 -2.6817 -0.4318 -1.7224
 1520SOL     OW 4558   2.200   4.826   9.709  0.9807 -0.3118 -0.0168
 1520SOL    HW1 4559   2.229   4.788   9.626 -0.2239 -0.5205 -0.3551
 1520SOL    HW2 4560   2.114   4.788   9.725  0.1523  1.4868  0.1314
 1521SOL     OW 4561   2.669   2.942   9.204 -0.1602  0.0836 -0.1654
 1521SOL    HW1 4562   2.755   2.951   9.162 -0.3839 -0.1060 -0.6684
 1521SOL    HW2 4563   2.677   2.864   9.258  0.0305  0.1547 -0.0881
 1522SOL     OW 4564   0.170   3.703   8.450 -0.4728 -0.3751  0.5956
 1522SOL    HW1 4565   0.118   3.692   8.370 -0.8562  0.6045  0.6954
 1522SOL    HW2 4566   0.141   3.633   8.507 -0.1213 -1.1508 -0.1573
 1523SOL     OW 4567   4.588   2.525   7.498  0.6287 -0.6867 -0.7617
 1523SOL    HW1 4568   4.661   2.539   7.438  1.9428 -1.5138  0.5904
 1523SOL    HW2 4569   4.576   2.609   7.541 -0.4632 -0.0248 -2.2776
 1524SOL     OW 4570   0.255   0.170   7.973 -0.2950  0.0998 -0.2847
 1524SOL    HW1 4571   0.300   0.232   7.916  0.8383  0.0108  0.4913
 1524SOL    HW2 4572   0.288   0.189   8.061 -0.7613 -0.8620  0.1094
 1525SOL     OW 4573   1.352   3.255   8.840 -0.2697 -0.7235  0.1836
 1525SOL    HW1 4574   1.401   3.179   8.872  0.7070  0.9164  2.8784
 1525SOL    HW2 4575   1.374   3.260   8.747  2.1585 -1.9233  0.6161
 1526SOL     OW 4576   0.934   4.118   8.217 -0.2342  0.0037  0.2726
 1526SOL    HW1 4577   0.955   4.028   8.191 -0.6900 -0.1837  0.5531
 1526SOL    HW2 4578   0.852   4.138   8.171 -0.1210  0.2845  0.1905
 1527SOL     OW 4579   0.062   0.326   6.911 -0.4446  0.0124  0.0269
 1527SOL    HW1 4580   0.043   0.232   6.907 -0.0773 -0.4655  4.4876
 1527SOL    HW2 4581  -0.021   0.368   6.890 -1.6766 -1.5132  1.5610
 1528SOL     OW 4582   1.184   2.323   5.087 -0.1433 -0.4214  0.0261
 1528SOL    HW1 4583   1.146   2.309   5.173  0.0192 -0.5979  0.0712
 1528SOL    HW2 4584   1.254   2.387   5.102 -0.0693 -0.5049  0.0374
 1529SOL     OW 4585   2.873   0.708   6.103  0.3723  0.8467  0.1924
 1529SOL    HW1 4586   2.860   0.713   6.198  0.6537 -1.6539  0.4212
 1529SOL    HW2 4587   2.799   0.657   6.071  1.2279  0.1239 -0.6902
 1530SOL     OW 4588   2.254   4.683   5.662 -0.6318  0.0703  0.0010
 1530SOL    HW1 4589   2.317   4.662   5.732 -2.2796 -0.4293  1.3957
 1530SOL    HW2 4590   2.206   4.759   5.695 -0.7177  0.5061 -1.0922
 1531SOL     OW 4591   3.836   2.072   7.074  0.0493 -0.5507  0.4585
 1531SOL    HW1 4592   3.825   2.048   6.981  0.9846  1.3867 -0.1982
 1531SOL    HW2 4593   3.886   1.999   7.111  1.5865 -0.3613 -1.1107
 1532SOL     OW 4594   2.605   1.683   5.372  0.4577  0.2535  0.4375
 1532SOL    HW1 4595   2.565   1.765   5.342 -0.3321 -0.3546 -0.1959
 1532SOL    HW2 4596   2.631   1.638   5.292 -1.3129 -1.2104  0.6169
 1533SOL     OW 4597   4.729   2.325   5.925 -0.1821 -0.4522 -0.0304
 1533SOL    HW1 4598   4.779   2.248   5.951  0.0645 -0.2174  0.2124
 1533SOL    HW2 4599   4.661   2.334   5.992  1.6672  1.3027  1.7698
 1534SOL     OW 4600   0.764   0.108   5.329  0.0795 -0.0876  0.1226
 1534SOL    HW1 4601   0.678   0.102   5.287  0.2833 -0.4684 -0.2348
 1534SOL    HW2 4602   0.783   0.019   5.357  0.4447 -0.0356  0.0365
 1535SOL     OW 4603   2.909   4.725   7.136 -0.4468  0.1143 -0.0131
 1535SOL    HW1 4604   2.813   4.731   7.145 -0.4397 -0.1378  0.2302
 1535SOL    HW2 4605   2.941   4.719   7.226 -0.1990  0.2406 -0.0944
 1536SOL     OW 4606   4.363   4.841   8.375 -0.4528 -0.0764 -1.2534
 1536SOL    HW1 4607   4.440   4.790   8.349  0.8519  0.6687  0.8408
 1536SOL    HW2 4608   4.305   4.778   8.416  1.1462 -0.0111  1.3162
 1537SOL     OW 4609   3.911   3.356   6.386 -0.3297  0.5312  0.3649
 1537SOL    HW1 4610   3.887   3.387   6.474 -0.9793  1.8124 -0.2425
 1537SOL    HW2 4611   3.984   3.296   6.401  2.5172  3.9330  1.5084
 1538SOL     OW 4612   2.588   4.882   8.410 -0.6080  0.4819 -0.1556
 1538SOL    HW1 4613   2.661   4.830   8.376 -0.7147 -0.7302  1.3711
 1538SOL    HW2 4614   2.511   4.828   8.394 -0.6046 -0.3655  2.3617
 1539SOL     OW 4615   2.485   1.971   5.597 -0.1127 -0.3484 -0.4637
 1539SOL    HW1 4616   2.502   1.986   5.504 -2.6021 -2.2595 -1.3344
 1539SOL    HW2 4617   2.454   1.881   5.602 -1.6420  0.2123  1.9893
 1540SOL     OW 4618   4.231   1.775   6.721 -1.0587 -0.0438 -0.2250
 1540SOL    HW1 4619   4.208   1.705   6.659 -1.4574  0.9095 -1.1780
 1540SOL    HW2 4620   4.320   1.753   6.750  0.2858  0.9105 -3.2317
 1541SOL     OW 4621   3.827   4.954  12.269  0.0978 -0.4167  0.4572
 1541SOL    HW1 4622   3.747   4.933  12.317  0.7475 -0.2262  1.6666
 1541SOL    HW2 4623   3.877   5.011  12.329  0.9766 -0.2338 -0.4122
 1542SOL     OW 4624   4.791   2.190   5.100 -0.6685 -0.0645  0.5618
 1542SOL    HW1 4625   4.864   2.250   5.091  0.8924 -2.0311 -0.9392
 1542SOL    HW2 4626   4.779   2.180   5.194  0.2248  1.1707  0.8296
 1543SOL     OW 4627   0.787   0.357   5.732 -0.2168  0.5589 -0.6517
 1543SOL    HW1 4628   0.869   0.373   5.687  0.8141 -1.7792  0.2837
 1543SOL    HW2 4629   0.812   0.329   5.820 -1.7225 -3.8767 -1.3940
 1544SOL     OW 4630   2.187   0.607   6.708  0.1947 -0.0079  0.5857
 1544SOL    HW1 4631   2.281   0.620   6.695  0.2706 -1.3522 -0.3586
 1544SOL    HW2 4632   2.152   0.696   6.713  1.3060  0.5354 -0.6714
 1545SOL     OW 4633   2.044   1.729   7.733 -0.2761  0.4722 -0.3732
 1545SOL    HW1 4634   2.105   1.665   7.770  0.3496  0.6192 -1.1150
 1545SOL    HW2 4635   2.100   1.787   7.681 -1.0799  0.4937 -1.2290
 1546SOL     OW 4636   3.104   0.859   6.703 -0.1024 -0.0263  0.6400
 1546SOL    HW1 4637   3.140   0.936   6.660  2.1951 -0.0787  2.2611
 1546SOL    HW2 4638   3.116   0.788   6.640  0.5061  0.4311  0.2270
 1547SOL     OW 4639   4.093   3.977   4.989  0.0699  0.5745 -0.2271
 1547SOL    HW1 4640   4.019   3.942   4.939 -0.7452 -1.2465  2.0666
 1547SOL    HW2 4641   4.055   4.043   5.046 -0.1390 -1.1777  1.8002
 1548SOL     OW 4642   3.243   2.189   5.342  0.3258  0.1639 -0.0754
 1548SOL    HW1 4643   3.202   2.105   5.363 -1.4778  1.0142  0.0058
 1548SOL    HW2 4644   3.280   2.219   5.425  1.4044 -0.7269 -0.2020
 1549SOL     OW 4645   3.218   4.733   5.300 -0.0749  0.8145 -0.3109
 1549SOL    HW1 4646   3.185   4.656   5.347  1.4869 -0.2497 -0.8888
 1549SOL    HW2 4647   3.141   4.770   5.257 -0.6986 -1.0275 -0.8480
 1550SOL     OW 4648   2.659   3.803   6.012 -0.5012  0.2185 -0.1675
 1550SOL    HW1 4649   2.750   3.810   6.040 -0.9140  3.1139  0.7498
 1550SOL    HW2 4650   2.608   3.836   6.086 -2.1387  1.0078 -1.5728
 1551SOL     OW 4651   3.750   2.501   5.406  0.1905  0.3530  0.0081
 1551SOL    HW1 4652   3.822   2.470   5.352  0.8561  0.9495  0.5424
 1551SOL    HW2 4653   3.681   2.435   5.393  0.3372  0.4568 -1.5211
 1552SOL     OW 4654   2.602   2.233   5.474  0.1919 -0.1104 -0.1192
 1552SOL    HW1 4655   2.668   2.219   5.541  1.5773  1.0064 -1.1768
 1552SOL    HW2 4656   2.596   2.329   5.466 -0.6129 -0.2151 -0.9521
 1553SOL     OW 4657   2.417   4.521   5.298  0.4630  0.0437 -0.0832
 1553SOL    HW1 4658   2.468   4.449   5.259 -0.2570  0.9660 -2.9390
 1553SOL    HW2 4659   2.329   4.486   5.306  0.6650 -0.2376  1.1022
 1554SOL     OW 4660   3.769   1.077   6.904  0.2795  0.2790  0.5692
 1554SOL    HW1 4661   3.701   1.144   6.902 -0.8361 -0.8382 -0.1846
 1554SOL    HW2 4662   3.785   1.061   6.997 -0.4246  0.6005  0.7489
 1555SOL     OW 4663   1.684   0.803   6.949 -0.4131 -0.2634  0.2475
 1555SOL    HW1 4664   1.657   0.738   7.014  1.5888 -0.4667  0.9565
 1555SOL    HW2 4665   1.772   0.774   6.922 -0.8974  0.2295 -2.0241
 1556SOL     OW 4666   4.691   2.511   5.208 -0.6027  0.2576 -0.0564
 1556SOL    HW1 4667   4.732   2.555   5.283 -0.9649  0.1570  0.2034
 1556SOL    HW2 4668   4.760   2.453   5.174 -0.5354  0.0594  0.4015
 1557SOL     OW 4669   2.064   4.585   8.519  0.1627  0.0069  0.5129
 1557SOL    HW1 4670   2.036   4.515   8.578 -0.1727  1.0075  1.5781
 1557SOL    HW2 4671   2.050   4.665   8.569 -0.1429  0.8926 -0.9388
 1558SOL     OW 4672   1.837   3.642   6.487  0.1011 -0.3582  0.1938
 1558SOL    HW1 4673   1.843   3.630   6.582 -1.1131 -5.3232 -0.0975
 1558SOL    HW2 4674   1.744   3.637   6.467  0.4413 -1.2222 -1.3663
 1559SOL     OW 4675   0.755   4.246   9.474  0.4057 -0.2036 -0.2211
 1559SOL    HW1 4676   0.723   4.269   9.562  2.3710 -0.5317  0.6315
 1559SOL    HW2 4677   0.786   4.329   9.438  0.2364 -0.1889 -0.3353
 1560SOL     OW 4678   0.721   3.123   5.661  0.2299  0.6397  0.0738
 1560SOL    HW1 4679   0.704   3.125   5.567  0.1947  0.2534  0.0666
 1560SOL    HW2 4680   0.735   3.030   5.681 -2.8729  0.2262  0.9651
 1561SOL     OW 4681   3.789   0.287   7.769  0.0537  0.2920 -0.8334
 1561SOL    HW1 4682   3.796   0.233   7.691 -0.5684  0.7904 -1.2435
 1561SOL    HW2 4683   3.876   0.282   7.809  0.3292 -0.1014 -1.4640
 1562SOL     OW 4684   0.399   4.716   7.428  0.3718  0.3551 -0.1343
 1562SOL    HW1 4685   0.380   4.723   7.521 -1.8420  1.5398 -0.5902
 1562SOL    HW2 4686   0.404   4.622   7.411 -2.8393 -0.0670  0.6180
 1563SOL     OW 4687   4.651   4.359   6.811  0.7711  0.2903  0.2446
 1563SOL    HW1 4688   4.639   4.309   6.891  1.8951 -0.0059  0.2361
 1563SOL    HW2 4689   4.645   4.294   6.741 -0.3454  0.5660  0.0533
 1564SOL     OW 4690   1.494   0.113   6.322 -0.2618  0.3199  0.4593
 1564SOL    HW1 4691   1.481   0.191   6.376 -0.8102  0.7142 -0.2340
 1564SOL    HW2 4692   1.410   0.067   6.326 -0.7134  0.9701 -1.0239
 1565SOL     OW 4693   4.601   4.166   8.334 -0.1607  0.0940 -0.1230
 1565SOL    HW1 4694   4.510   4.142   8.351 -0.2051  0.3508  0.0145
 1565SOL    HW2 4695   4.626   4.218   8.410  0.6610 -1.4402  0.6916
 1566SOL     OW 4696   3.210   0.780   5.279  0.2786  0.3620  0.4533
 1566SOL    HW1 4697   3.181   0.846   5.341  0.9733 -0.7729  2.0696
 1566SOL    HW2 4698   3.275   0.824   5.225  0.4405  1.1196  1.2438
 1567SOL     OW 4699   2.535   4.228   6.989  0.3942 -0.7905  0.5683
 1567SOL    HW1 4700   2.501   4.139   7.002 -1.4190 -0.2623 -0.2694
 1567SOL    HW2 4701   2.457   4.282   6.978  1.5021  0.7021 -0.3065
 1568SOL     OW 4702   2.450   3.991   7.423  0.2768  0.3638  0.2165
 1568SOL    HW1 4703   2.363   3.993   7.383  1.2555  0.0146 -2.1091
 1568SOL    HW2 4704   2.498   4.063   7.380  1.6290 -0.5230  0.1664
 1569SOL     OW 4705   3.564   2.061   6.625 -0.6355 -0.5788  0.2617
 1569SOL    HW1 4706   3.492   2.116   6.594 -0.0704  1.1250  1.8431
 1569SOL    HW2 4707   3.536   2.031   6.711 -0.1487 -1.3054  0.1756
 1570SOL     OW 4708   3.622   0.795   7.203  0.6301 -0.0158  0.0343
 1570SOL    HW1 4709   3.592   0.777   7.292 -0.2165 -1.2637 -0.4717
 1570SOL    HW2 4710   3.646   0.709   7.168  4.3647  0.7736  0.1779
 1571SOL     OW 4711   1.990   3.591   6.255 -0.0829  0.6010  0.0122
 1571SOL    HW1 4712   2.068   3.646   6.267 -0.1928  0.7663 -0.0262
 1571SOL    HW2 4713   1.940   3.604   6.336  0.3101 -0.1279  0.3871
 1572SOL     OW 4714   3.967   1.316   8.231 -0.1881  0.1970 -0.6249
 1572SOL    HW1 4715   3.999   1.384   8.290 -0.4033  0.7534 -1.1436
 1572SOL    HW2 4716   3.964   1.237   8.286  2.2249  0.0562 -0.5866
 1573SOL     OW 4717   2.129   0.867   5.507  0.2065 -0.7266 -0.0729
 1573SOL    HW1 4718   2.120   0.942   5.566 -0.8647  0.3649 -1.5708
 1573SOL    HW2 4719   2.042   0.854   5.470  0.2840 -2.9260  0.3461
 1574SOL     OW 4720   0.136   1.265   6.448 -0.0498 -0.0821 -0.0215
 1574SOL    HW1 4721   0.159   1.222   6.366 -2.9996 -4.0066  0.9373
 1574SOL    HW2 4722   0.194   1.226   6.513  0.1425  0.6672  0.2720
 1575SOL     OW 4723   1.011   4.972   4.928  0.2251  0.0465 -0.2086
 1575SOL    HW1 4724   0.923   5.008   4.916  0.7521  0.8901 -1.8796
 1575SOL    HW2 4725   1.047   5.019   5.002 -0.0686  1.0621 -0.6991
 1576SOL     OW 4726   3.096   1.624   6.276  0.2687 -0.2711  0.6634
 1576SOL    HW1 4727   3.027   1.563   6.301  0.1859 -0.3495  0.2550
 1576SOL    HW2 4728   3.139   1.647   6.358  1.3502 -2.1484  0.6998
 1577SOL     OW 4729   3.607   0.942   7.541 -0.0460  0.3300 -0.2480
 1577SOL    HW1 4730   3.702   0.952   7.532 -0.3916  2.4772 -2.5725
 1577SOL    HW2 4731   3.582   1.008   7.605 -0.1069  0.7977 -0.7444
 1578SOL     OW 4732   2.083   5.006   7.453 -0.7272  0.3177  0.0506
 1578SOL    HW1 4733   2.090   4.919   7.413 -3.0036  1.1669 -2.5102
 1578SOL    HW2 4734   2.133   5.063   7.395 -0.4223  0.9611  0.9220
 1579SOL     OW 4735   2.361   3.673   6.389 -0.0277 -0.0747  0.0453
 1579SOL    HW1 4736   2.364   3.611   6.315 -0.0715  0.7162 -0.6355
 1579SOL    HW2 4737   2.281   3.651   6.435 -1.6177  1.3421 -1.8878
 1580SOL     OW 4738   4.113   3.643   7.415  0.0881  0.5638  0.0354
 1580SOL    HW1 4739   4.109   3.738   7.406 -1.3871  0.8128  2.4899
 1580SOL    HW2 4740   4.160   3.628   7.497  0.9688 -0.8870 -0.6854
 1581SOL     OW 4741   0.377   1.757   5.577  0.2248 -0.3781  0.5312
 1581SOL    HW1 4742   0.434   1.828   5.547 -0.2881  0.2979  1.1405
 1581SOL    HW2 4743   0.424   1.716   5.649 -0.0471  0.1804  1.0344
 1582SOL     OW 4744   3.272   1.809   7.124 -0.3041 -0.0718  0.7994
 1582SOL    HW1 4745   3.322   1.770   7.196 -0.0758 -1.0955  0.1020
 1582SOL    HW2 4746   3.209   1.742   7.099 -0.5944  0.3981  0.2446
 1583SOL     OW 4747   2.358   3.971   8.042 -0.1719 -0.0787  0.1192
 1583SOL    HW1 4748   2.434   3.982   7.985  0.6223 -0.5537  1.0664
 1583SOL    HW2 4749   2.335   3.879   8.033  2.0233 -1.0709  3.0031
 1584SOL     OW 4750   2.523   1.133   7.540 -0.2526 -0.2025 -0.1033
 1584SOL    HW1 4751   2.602   1.090   7.574  0.1777  0.3622 -0.3808
 1584SOL    HW2 4752   2.489   1.071   7.475  0.4491 -0.0796 -0.6115
 1585SOL     OW 4753   2.663   1.709   7.185  0.2445 -0.2529 -0.5464
 1585SOL    HW1 4754   2.606   1.632   7.190  1.3118 -0.9856  1.5716
 1585SOL    HW2 4755   2.650   1.754   7.268 -0.0575  1.6774 -1.5977
 1586SOL     OW 4756   2.888   4.215   5.711 -0.1760  0.0967  0.1897
 1586SOL    HW1 4757   2.873   4.158   5.635 -0.3879  0.0350  0.2760
 1586SOL    HW2 4758   2.916   4.155   5.780  1.9837  0.3733 -0.3772
 1587SOL     OW 4759   2.040   1.446   6.375  0.0777 -0.8325  0.3868
 1587SOL    HW1 4760   2.109   1.456   6.440 -0.5054 -2.2571  1.2806
 1587SOL    HW2 4761   1.968   1.500   6.407 -0.2151 -1.5470  0.9761
 1588SOL     OW 4762   1.151   4.738   5.802 -0.3074 -0.4836  0.2384
 1588SOL    HW1 4763   1.178   4.652   5.769 -0.5464  0.0650 -1.5193
 1588SOL    HW2 4764   1.082   4.718   5.865  0.1796 -1.6142  0.4476
 1589SOL     OW 4765   4.023   1.650   6.473 -0.6045 -1.2016  0.5585
 1589SOL    HW1 4766   3.946   1.596   6.454 -2.1287  1.5603 -1.9812
 1589SOL    HW2 4767   4.085   1.628   6.404 -0.8889 -0.3663  0.0277
 1590SOL     OW 4768   0.964   0.425   6.788 -0.2435 -0.2137 -0.6890
 1590SOL    HW1 4769   0.976   0.373   6.708 -2.1976 -1.6382 -0.1282
 1590SOL    HW2 4770   0.918   0.504   6.758  1.7519  0.7627 -1.3728
 1591SOL     OW 4771   4.336   3.012   6.563  0.2518  0.0100  0.7224
 1591SOL    HW1 4772   4.387   3.093   6.559  0.6030 -0.2397 -0.3669
 1591SOL    HW2 4773   4.293   3.014   6.648  2.4171  0.0307  1.8785
 1592SOL     OW 4774   1.596   3.573   6.804 -0.1477  0.1638  0.1485
 1592SOL    HW1 4775   1.591   3.550   6.897 -1.2300  0.3873  0.1625
 1592SOL    HW2 4776   1.530   3.518   6.762  0.0338  0.3755 -0.4232
 1593SOL     OW 4777   3.795   0.591   5.705  0.4629  0.0796  0.4601
 1593SOL    HW1 4778   3.818   0.650   5.633  1.1767  0.0760  0.6803
 1593SOL    HW2 4779   3.712   0.624   5.738  1.3884  1.6647  1.3096
 1594SOL     OW 4780   3.773   3.164   6.951  0.0572 -0.2328 -0.1095
 1594SOL    HW1 4781   3.825   3.159   6.870  0.1541 -1.5366  0.0038
 1594SOL    HW2 4782   3.765   3.257   6.970  1.3733  0.0236 -0.7659
 1595SOL     OW 4783   2.777   3.557   5.877  0.5331  0.7791  0.0591
 1595SOL    HW1 4784   2.809   3.480   5.923  0.3320  0.1531 -0.8140
 1595SOL    HW2 4785   2.683   3.560   5.897  0.3464  0.2233 -0.6675
 1596SOL     OW 4786   4.106   3.785   6.035  0.3273 -0.1136  0.2154
 1596SOL    HW1 4787   4.133   3.862   5.985 -0.1847  1.1209  1.7642
 1596SOL    HW2 4788   4.151   3.712   5.992  0.0284  0.8826 -1.9287
 1597SOL     OW 4789   1.837   2.652   7.998 -0.0515 -0.2481  0.1945
 1597SOL    HW1 4790   1.742   2.654   8.008 -0.0605 -0.2829  0.1167
 1597SOL    HW2 4791   1.870   2.630   8.085 -0.0343  1.4719  0.6624
 1598SOL     OW 4792   0.190   2.508   4.909  0.1550  0.0393  0.2205
 1598SOL    HW1 4793   0.260   2.445   4.890  0.7561 -0.0425  2.4443
 1598SOL    HW2 4794   0.198   2.574   4.839  2.2300 -0.1607  0.1975
 1599SOL     OW 4795   2.672   4.218   5.421  0.6359  0.0832 -0.0904
 1599SOL    HW1 4796   2.596   4.169   5.452 -0.6260  1.0044 -1.5655
 1599SOL    HW2 4797   2.748   4.168   5.453 -0.5566 -2.3786 -0.8282
 1600SOL     OW 4798   4.325   4.537   5.839 -0.3796  0.7153 -0.2949
 1600SOL    HW1 4799   4.310   4.443   5.848  0.0507  0.6595 -0.1651
 1600SOL    HW2 4800   4.315   4.571   5.927  0.3479  0.6653 -0.1909
 1601SOL     OW 4801   2.274   2.258   5.050 -0.0223  0.1799 -0.4364
 1601SOL    HW1 4802   2.273   2.353   5.057  4.0718  0.4428 -1.3859
 1601SOL    HW2 4803   2.195   2.237   5.000 -1.3636  2.9509  0.3101
 1602SOL     OW 4804   3.635   1.078   4.869 -0.6718  0.7030  0.1731
 1602SOL    HW1 4805   3.649   0.991   4.832 -2.3988  0.3390  0.2782
 1602SOL    HW2 4806   3.588   1.062   4.951 -1.3463  1.7427  0.0075
 1603SOL     OW 4807   3.743   3.004   9.369  0.0970 -0.3509 -0.3479
 1603SOL    HW1 4808   3.771   2.933   9.311  0.4709 -1.1630  0.7974
 1603SOL    HW2 4809   3.822   3.030   9.416 -0.5066 -0.8936  1.0301
 1604SOL     OW 4810   1.861   3.085   6.088  0.3821  0.0206  0.6972
 1604SOL    HW1 4811   1.777   3.129   6.090  1.2896  1.8564  0.3503
 1604SOL    HW2 4812   1.881   3.074   5.995  1.8673  2.4240  0.6440
 1605SOL     OW 4813   3.147   4.000   6.397  0.0575  0.9062 -0.4219
 1605SOL    HW1 4814   3.208   4.000   6.323  0.3266 -1.3786 -0.2534
 1605SOL    HW2 4815   3.203   4.000   6.475 -0.2275  3.0174 -0.1364
 1606SOL     OW 4816   3.848   1.905   5.026  0.3703 -0.1510 -0.2075
 1606SOL    HW1 4817   3.922   1.916   4.967  1.3526 -2.7356  0.3835
 1606SOL    HW2 4818   3.855   1.978   5.087  1.2561  0.7322 -1.3224
 1607SOL     OW 4819   1.512   2.239   8.624  0.6106 -0.1477 -1.4568
 1607SOL    HW1 4820   1.598   2.243   8.582  1.0391  1.5642 -0.5135
 1607SOL    HW2 4821   1.512   2.313   8.685 -0.7249 -1.3913  0.1273
 1608SOL     OW 4822   0.978   2.020   6.481 -0.1313 -0.1004 -0.2742
 1608SOL    HW1 4823   1.039   2.055   6.546 -2.0699  2.3270  0.4174
 1608SOL    HW2 4824   1.018   2.042   6.397  1.7094 -2.0024  0.0130
 1609SOL     OW 4825   4.834   1.616   5.189 -0.6686  0.5191 -0.6928
 1609SOL    HW1 4826   4.797   1.702   5.169 -0.0209  1.1133  0.5659
 1609SOL    HW2 4827   4.926   1.633   5.208 -0.7229 -0.3044  0.4077
 1610SOL     OW 4828   2.053   2.209   6.805  0.0908 -0.5277  0.1286
 1610SOL    HW1 4829   2.033   2.125   6.764 -1.4840  0.3105 -0.9037
 1610SOL    HW2 4830   2.012   2.204   6.891 -0.8631 -0.4483 -0.3145
 1611SOL     OW 4831   1.466   0.851   7.949 -0.1925 -0.0884 -0.2993
 1611SOL    HW1 4832   1.400   0.874   8.014  0.0643 -0.7907  0.2137
 1611SOL    HW2 4833   1.418   0.805   7.881 -0.1482 -1.1187  0.3541
 1612SOL     OW 4834   3.850   3.046   6.543 -0.1284 -0.0342 -0.7198
 1612SOL    HW1 4835   3.869   2.962   6.584 -1.2348  0.4229  0.8221
 1612SOL    HW2 4836   3.827   3.024   6.453 -0.6616 -1.4122 -0.2732
 1613SOL     OW 4837   3.391   0.432   6.063 -0.2800  0.1302  0.8274
 1613SOL    HW1 4838   3.379   0.444   5.969  0.0370 -0.6893  0.6722
 1613SOL    HW2 4839   3.306   0.456   6.101 -1.5358 -2.5993  0.0199
 1614SOL     OW 4840   1.912   4.760   6.444 -0.0527 -0.5213  0.1855
 1614SOL    HW1 4841   1.894   4.681   6.393 -0.3709 -1.2860  1.4389
 1614SOL    HW2 4842   1.849   4.824   6.412  1.3497 -0.1636 -2.0865
 1615SOL     OW 4843   1.709   0.262   7.106  0.3775  0.2169  0.1974
 1615SOL    HW1 4844   1.660   0.267   7.024 -0.1136  2.0964  0.5583
 1615SOL    HW2 4845   1.767   0.187   7.095  2.1733  1.8591 -2.9086
 1616SOL     OW 4846   1.323   4.856   5.973  0.7013 -0.1065 -0.0603
 1616SOL    HW1 4847   1.255   4.817   5.918  2.0943 -1.4230 -0.9082
 1616SOL    HW2 4848   1.352   4.785   6.030  0.1287  0.9220  1.5941
 1617SOL     OW 4849   0.559   1.642   6.736  0.2812  0.4468 -0.2916
 1617SOL    HW1 4850   0.531   1.592   6.660 -0.7802  3.4042 -2.0052
 1617SOL    HW2 4851   0.647   1.609   6.756 -0.5994 -2.4734 -0.8064
 1618SOL     OW 4852   0.642   1.510   4.740  0.3112  0.0482 -0.2749
 1618SOL    HW1 4853   0.642   1.416   4.756 -0.4995  0.3142  1.5618
 1618SOL    HW2 4854   0.718   1.525   4.684 -0.6544 -1.9250 -2.2965
 1619SOL     OW 4855   3.557   1.377   6.658  0.2887  0.1060  0.3077
 1619SOL    HW1 4856   3.651   1.363   6.658  0.5997  1.8882  1.0400
 1619SOL    HW2 4857   3.534   1.384   6.751 -0.6413 -0.7041  0.1534
 1620SOL     OW 4858   1.612   0.564   5.516 -0.1143 -0.0679  0.0213
 1620SOL    HW1 4859   1.517   0.575   5.511 -0.2417 -0.7546  0.6685
 1620SOL    HW2 4860   1.628   0.476   5.482  0.1697 -0.3614  0.8783
 1621SOL     OW 4861   0.770   1.454   5.689  0.0418  0.1516 -0.2123
 1621SOL    HW1 4862   0.820   1.398   5.630  3.3190  2.0388  0.5518
 1621SOL    HW2 4863   0.751   1.533   5.639  1.1532  0.9595  0.5698
 1622SOL     OW 4864   3.879   2.246   5.928  0.3265  0.2795 -0.8605
 1622SOL    HW1 4865   3.922   2.270   6.011  1.2927 -0.7552 -1.0270
 1622SOL    HW2 4866   3.786   2.254   5.946  0.5248  0.1831  0.3117
 1623SOL     OW 4867   4.342   0.737   5.135 -0.6031 -0.0809  0.1819
 1623SOL    HW1 4868   4.433   0.707   5.129 -0.2459  0.8317  0.9207
 1623SOL    HW2 4869   4.319   0.761   5.045 -0.4212 -1.1464 -0.1682
 1624SOL     OW 4870   3.018   1.802   6.076 -0.2285  0.1281  0.1639
 1624SOL    HW1 4871   3.038   1.715   6.110 -2.4661 -0.7259 -0.5370
 1624SOL    HW2 4872   3.000   1.855   6.154 -0.4383 -0.4782  0.5314
 1625SOL     OW 4873   3.844   4.353   5.692 -0.2196  0.0670 -0.2982
 1625SOL    HW1 4874   3.804   4.357   5.605 -2.1496  0.4417  0.5572
 1625SOL    HW2 4875   3.822   4.437   5.733  0.3886 -0.2283  0.6848
 1626SOL     OW 4876   0.332   0.750   9.266 -0.4094 -0.0027  0.3062
 1626SOL    HW1 4877   0.387   0.828   9.256  0.9896 -1.0747 -0.8378
 1626SOL    HW2 4878   0.374   0.700   9.336  0.5513 -1.1600 -1.0439
 1627SOL     OW 4879   1.172   0.589   5.684  0.2355 -0.9598  0.0073
 1627SOL    HW1 4880   1.197   0.572   5.593  0.3886  2.2285 -0.6628
 1627SOL    HW2 4881   1.255   0.586   5.733  0.9554  1.7477 -0.8477
 1628SOL     OW 4882   4.492   2.104   6.418  0.6650  0.0719  0.4525
 1628SOL    HW1 4883   4.545   2.137   6.492  0.0930  1.5982  0.2121
 1628SOL    HW2 4884   4.509   2.166   6.348 -1.0716  0.3088  0.2196
 1629SOL     OW 4885   1.889   4.804   5.547 -0.4405  0.2912  0.0904
 1629SOL    HW1 4886   1.838   4.855   5.484 -0.7300  1.1589  0.9902
 1629SOL    HW2 4887   1.823   4.763   5.604 -0.1778 -0.2620  0.0023
 1630SOL     OW 4888   4.599   0.151   6.980  0.3002  0.3177 -0.2422
 1630SOL    HW1 4889   4.585   0.226   6.922 -1.7918  1.4189  1.5463
 1630SOL    HW2 4890   4.641   0.187   7.057 -2.1230  0.0352  1.3048
 1631SOL     OW 4891   2.334   2.278   6.841 -0.6751  0.3138 -0.2667
 1631SOL    HW1 4892   2.388   2.228   6.780  0.0911 -0.9339  1.3269
 1631SOL    HW2 4893   2.245   2.251   6.822 -0.4131 -0.3479 -0.5956
 1632SOL     OW 4894   2.495   2.381   7.173 -0.3278  0.5549 -0.4330
 1632SOL    HW1 4895   2.560   2.315   7.196  0.4032  1.6879  0.9141
 1632SOL    HW2 4896   2.415   2.351   7.216  0.1071  0.7333  0.5442
 1633SOL     OW 4897   0.580   0.066   6.622  0.0245 -0.1832 -0.3833
 1633SOL    HW1 4898   0.593   0.014   6.543  2.2978  0.7154 -0.6564
 1633SOL    HW2 4899   0.561   0.154   6.590 -1.3099 -0.2714  0.0962
 1634SOL     OW 4900   2.949   4.784   5.804  0.0952  0.2008 -0.2761
 1634SOL    HW1 4901   3.043   4.802   5.807 -0.0867  1.1541  0.2316
 1634SOL    HW2 4902   2.943   4.690   5.788  1.1405 -0.0186  0.5086
 1635SOL     OW 4903   2.051   4.411   6.456 -0.1878 -0.4024 -0.2424
 1635SOL    HW1 4904   1.977   4.433   6.400 -0.6827  3.5706  1.5684
 1635SOL    HW2 4905   2.032   4.324   6.491 -1.4365 -1.5899 -3.5711
 1636SOL     OW 4906   2.339   0.107   5.602 -0.4900 -0.0515 -0.8578
 1636SOL    HW1 4907   2.255   0.074   5.572 -0.8217  0.2168 -0.2350
 1636SOL    HW2 4908   2.318   0.186   5.652 -0.1942 -1.7259  2.1282
 1637SOL     OW 4909   3.269   3.111   5.066  0.7254  0.1458 -0.3616
 1637SOL    HW1 4910   3.293   3.018   5.074  0.7226  0.2130  0.4738
 1637SOL    HW2 4911   3.352   3.157   5.054  0.8165  0.1421  0.2544
 1638SOL     OW 4912   3.124   1.622   6.579  0.5311  0.0601 -0.2667
 1638SOL    HW1 4913   3.160   1.548   6.628  0.2318  0.0297 -0.0921
 1638SOL    HW2 4914   3.179   1.696   6.604  0.4973  0.0052 -0.0287
 1639SOL     OW 4915   2.888   4.942   4.960 -0.0665  0.1838 -0.0186
 1639SOL    HW1 4916   2.830   4.999   4.909  1.6648 -0.0242 -2.3678
 1639SOL    HW2 4917   2.846   4.856   4.955 -1.8347  0.8176  2.1758
 1640SOL     OW 4918   1.428   1.632   6.316 -0.5071  0.6947  0.1376
 1640SOL    HW1 4919   1.493   1.589   6.261  1.1885  0.9611  1.8440
 1640SOL    HW2 4920   1.377   1.560   6.353  1.2504  0.2005  1.6856
 1641SOL     OW 4921   1.230   1.093   8.302  0.4655 -1.2820  0.1896
 1641SOL    HW1 4922   1.256   1.181   8.275 -0.3200 -0.6874  1.3058
 1641SOL    HW2 4923   1.155   1.106   8.360 -1.7473 -2.8730 -2.0766
 1642SOL     OW 4924   1.830   2.497   5.245 -0.5056  0.9424  0.1298
 1642SOL    HW1 4925   1.754   2.472   5.298  0.8569 -1.3953  1.1810
 1642SOL    HW2 4926   1.802   2.486   5.155 -1.2280 -0.7133  0.5166
 1643SOL     OW 4927   1.892   2.321   7.587  0.0983  0.4061  0.6713
 1643SOL    HW1 4928   1.824   2.385   7.568 -0.3390 -0.3519 -0.4183
 1643SOL    HW2 4929   1.909   2.278   7.503 -0.2650 -1.5207  1.5281
 1644SOL     OW 4930   1.032   0.491   5.931 -0.3158  0.4088 -0.0295
 1644SOL    HW1 4931   1.088   0.513   5.857 -0.7513 -1.1130 -0.8564
 1644SOL    HW2 4932   0.950   0.538   5.915  0.7188  2.9525  1.3770
 1645SOL     OW 4933   1.413   0.058   8.124  0.4677 -0.2111 -0.2728
 1645SOL    HW1 4934   1.445   0.110   8.050  3.0000 -1.5205 -0.1948
 1645SOL    HW2 4935   1.402  -0.030   8.088 -0.6692 -0.3428  0.3637
 1646SOL     OW 4936   1.126   3.095   6.506  0.1229 -0.5083 -0.3621
 1646SOL    HW1 4937   1.145   3.106   6.599 -0.5307 -1.5977 -0.0773
 1646SOL    HW2 4938   1.144   3.180   6.467  0.5154 -0.0706  0.7431
 1647SOL     OW 4939   3.786   1.926   5.558  0.1055 -1.7016 -0.6034
 1647SOL    HW1 4940   3.869   1.881   5.541  0.8338 -0.2590 -1.0039
 1647SOL    HW2 4941   3.794   1.959   5.647  1.2090  0.8629 -1.5382
 1648SOL     OW 4942   2.011   0.188   6.875  0.0843  0.2390 -0.2404
 1648SOL    HW1 4943   1.975   0.179   6.963 -1.2217 -1.5357 -0.9010
 1648SOL    HW2 4944   2.035   0.099   6.850  4.0973  1.1391 -0.2856
 1649SOL     OW 4945   1.163   0.599   4.869 -0.2336  0.0893  0.1001
 1649SOL    HW1 4946   1.245   0.634   4.902 -0.5447  1.1929 -0.2450
 1649SOL    HW2 4947   1.187   0.521   4.820  0.4614 -0.3129  1.0575
 1650SOL     OW 4948   3.005   0.579   5.358 -0.1876  0.5163 -0.1896
 1650SOL    HW1 4949   3.021   0.490   5.326 -1.1005  0.1032  0.4607
 1650SOL    HW2 4950   3.084   0.627   5.335  1.9503 -1.3176  2.5769
 1651SOL     OW 4951   2.427   1.556   6.994 -0.2060  1.2607  0.0054
 1651SOL    HW1 4952   2.409   1.488   7.059  0.4076  1.2147  0.1315
 1651SOL    HW2 4953   2.371   1.629   7.020 -1.4066  0.5640 -0.5455
 1652SOL     OW 4954   3.426   2.131   7.366 -0.1918 -0.1918  0.0255
 1652SOL    HW1 4955   3.366   2.174   7.426 -1.6046 -1.7038 -0.2117
 1652SOL    HW2 4956   3.498   2.193   7.354 -1.4524  1.4716  0.7273
 1653SOL     OW 4957   4.165   1.213   8.072  0.1514  0.9599  0.2048
 1653SOL    HW1 4958   4.092   1.261   8.111 -0.4170 -0.6645  1.2373
 1653SOL    HW2 4959   4.230   1.206   8.142  0.1325  0.0390  0.1406
 1654SOL     OW 4960   4.490   2.677   8.100  0.2287  0.0803  0.4366
 1654SOL    HW1 4961   4.532   2.592   8.110  0.4772  0.1546  0.0456
 1654SOL    HW2 4962   4.497   2.697   8.006 -0.9569 -0.0556  0.2937
 1655SOL     OW 4963   2.354   2.643   5.234 -0.1726  0.3946  0.7388
 1655SOL    HW1 4964   2.434   2.692   5.252  0.0779 -0.0426  0.8234
 1655SOL    HW2 4965   2.365   2.561   5.282  0.2314 -0.5283 -0.8648
 1656SOL     OW 4966   1.746   4.951   5.362  0.3427  0.4282 -0.3621
 1656SOL    HW1 4967   1.712   5.029   5.317 -2.6890  0.0234  1.0045
 1656SOL    HW2 4968   1.676   4.887   5.355  2.9218 -2.5064 -1.8580
 1657SOL     OW 4969   2.107   4.823   6.040  0.1150 -0.6638  0.9915
 1657SOL    HW1 4970   2.138   4.852   5.954  1.1707 -1.3895  1.1077
 1657SOL    HW2 4971   2.134   4.892   6.100  3.5912 -2.2278  1.4410
 1658SOL     OW 4972   1.899   0.678   7.989 -0.0157  0.1804 -0.0612
 1658SOL    HW1 4973   1.954   0.601   8.002 -1.1902 -1.0826 -2.1499
 1658SOL    HW2 4974   1.958   0.752   8.006  1.9159 -1.1285 -0.7182
 1659SOL     OW 4975   2.195   4.797   6.383  0.5815  0.4086  0.1216
 1659SOL    HW1 4976   2.199   4.878   6.332  0.1309  0.4452  0.1413
 1659SOL    HW2 4977   2.104   4.790   6.410  0.3156 -0.7971 -0.9953
 1660SOL     OW 4978   2.124   4.088   6.504  0.0236  0.1328 -0.3392
 1660SOL    HW1 4979   2.040   4.068   6.462 -0.1105  0.3318 -0.1645
 1660SOL    HW2 4980   2.103   4.095   6.597 -0.0199  1.5298 -0.4410
 1661SOL     OW 4981   2.601   4.390   6.165  0.6045 -0.5997 -0.1837
 1661SOL    HW1 4982   2.526   4.384   6.105  0.6705 -0.9328 -0.2312
 1661SOL    HW2 4983   2.562   4.416   6.248  0.3585 -1.3691 -0.0532
 1662SOL     OW 4984   1.360   0.211   5.937 -0.1309 -0.1347  0.0827
 1662SOL    HW1 4985   1.312   0.265   6.000  0.5831 -0.0767  0.5878
 1662SOL    HW2 4986   1.404   0.145   5.990 -0.6385 -0.9506 -0.4936
 1663SOL     OW 4987   2.737   2.167   8.750 -0.0999  0.0552  0.0727
 1663SOL    HW1 4988   2.674   2.121   8.806 -0.7837 -1.0255 -1.5029
 1663SOL    HW2 4989   2.704   2.152   8.661  0.2512  2.7532 -0.5845
 1664SOL     OW 4990   2.034   3.182   6.330 -0.1523  0.1989  0.1759
 1664SOL    HW1 4991   2.053   3.096   6.292 -3.8465 -0.4692 -0.5437
 1664SOL    HW2 4992   2.039   3.242   6.255 -1.0893 -0.0236 -0.0738
 1665SOL     OW 4993   0.106   1.720   5.486  0.0694 -0.0491 -0.5375
 1665SOL    HW1 4994   0.186   1.741   5.536  0.0366 -1.6706  0.2577
 1665SOL    HW2 4995   0.035   1.729   5.550 -0.2267 -0.0012 -0.8693
 1666SOL     OW 4996   1.920   0.749   6.136  0.0472  0.0267  0.3525
 1666SOL    HW1 4997   1.925   0.843   6.122 -0.7396 -0.0181 -0.2594
 1666SOL    HW2 4998   1.993   0.713   6.086 -0.2327  0.2275 -0.1992
 1667SOL     OW 4999   4.689   4.090   9.271  0.3596  0.2456  0.1573
 1667SOL    HW1 5000   4.660   4.181   9.263 -0.3206  0.0052 -0.2671
 1667SOL    HW2 5001   4.779   4.090   9.239  0.2296  0.7028 -0.2206
 1668SOL     OW 5002   0.525   2.625   6.729  0.4004  0.5388  0.0496
 1668SOL    HW1 5003   0.525   2.566   6.805  1.6187  1.4672  0.8047
 1668SOL    HW2 5004   0.614   2.621   6.696 -0.0021  0.5031 -1.0862
 1669SOL     OW 5005   1.690   0.937   5.849  0.4927  0.4419 -0.2183
 1669SOL    HW1 5006   1.699   0.849   5.813 -0.1595  1.0399 -1.9745
 1669SOL    HW2 5007   1.774   0.955   5.891  1.6280 -0.0510 -2.1625
 1670SOL     OW 5008   3.544   0.322   5.465  0.1123  0.1845  0.0589
 1670SOL    HW1 5009   3.505   0.381   5.529 -1.2164 -0.2049 -0.3462
 1670SOL    HW2 5010   3.477   0.254   5.452 -0.6382  1.3903 -3.3342
 1671SOL     OW 5011   2.600   4.528   7.674  0.3798 -0.6011  0.7616
 1671SOL    HW1 5012   2.567   4.450   7.629 -1.8612  0.0985  1.0440
 1671SOL    HW2 5013   2.667   4.563   7.616  0.0206 -1.6559 -0.3269
 1672SOL     OW 5014   2.369   0.083   7.789  0.2109 -0.1186 -0.3022
 1672SOL    HW1 5015   2.402   0.171   7.771 -0.6462 -0.2003 -2.4907
 1672SOL    HW2 5016   2.291   0.074   7.735  0.9257 -2.6239 -1.0696
 1673SOL     OW 5017   2.390   1.933   6.436  0.8985 -0.1689  0.0366
 1673SOL    HW1 5018   2.345   1.864   6.484  1.0109 -0.7511 -0.6892
 1673SOL    HW2 5019   2.379   1.910   6.344 -0.4091  1.6000 -0.3102
 1674SOL     OW 5020   0.977   4.701   6.014 -0.4274 -0.3364  0.4168
 1674SOL    HW1 5021   0.898   4.723   5.964 -1.4952 -0.0196  2.1840
 1674SOL    HW2 5022   0.977   4.763   6.087  1.8797  0.1664  0.0670
 1675SOL     OW 5023   0.756   0.061   8.355  0.0909  0.0918  0.2682
 1675SOL    HW1 5024   0.674   0.046   8.403 -0.3278 -2.1181 -1.0026
 1675SOL    HW2 5025   0.822   0.014   8.406  0.4194  1.0928  0.7876
 1676SOL     OW 5026   3.564   4.901   7.699  0.0174 -0.2224  0.8290
 1676SOL    HW1 5027   3.594   4.868   7.614 -1.5643 -1.2437  0.6342
 1676SOL    HW2 5028   3.639   4.889   7.757  0.4074 -1.5457  0.0892
 1677SOL     OW 5029   1.972   2.115   7.943  0.1150 -0.2722 -0.0748
 1677SOL    HW1 5030   1.998   2.188   7.887 -0.1224  0.0539  0.2354
 1677SOL    HW2 5031   1.929   2.053   7.884 -0.5525  0.2795 -0.1755
 1678SOL     OW 5032   4.878   2.817   5.551 -0.5622 -0.0792  0.1366
 1678SOL    HW1 5033   4.878   2.858   5.638 -0.3628 -0.4790  0.3243
 1678SOL    HW2 5034   4.965   2.835   5.516 -0.2392 -0.8993  0.4868
 1679SOL     OW 5035   2.736   0.846   5.562 -0.6439  0.0628  0.1708
 1679SOL    HW1 5036   2.776   0.809   5.642 -2.0216  0.2973  0.9981
 1679SOL    HW2 5037   2.643   0.853   5.583 -0.8365  1.3915 -0.9838
 1680SOL     OW 5038   1.371   1.423   6.760 -0.3700  0.4302  0.2126
 1680SOL    HW1 5039   1.380   1.330   6.781  0.3294  0.0861 -1.4223
 1680SOL    HW2 5040   1.352   1.424   6.666 -2.8676  1.8622  0.6621
 1681SOL     OW 5041   2.004   3.775   7.144  0.3713  0.6165  0.3347
 1681SOL    HW1 5042   2.008   3.698   7.088  1.7346  0.3653  0.7510
 1681SOL    HW2 5043   1.962   3.744   7.224  0.6673  0.3604  0.3942
 1682SOL     OW 5044   3.119   0.951   5.456 -0.2290  0.0096  0.6171
 1682SOL    HW1 5045   3.152   1.040   5.466 -0.2807  0.0155  0.7309
 1682SOL    HW2 5046   3.044   0.960   5.397  1.3592 -0.2956 -1.6057
 1683SOL     OW 5047   3.653   0.649   8.016  0.4761 -0.0435 -0.1427
 1683SOL    HW1 5048   3.734   0.667   7.968  0.7267 -0.4735  0.1121
 1683SOL    HW2 5049   3.583   0.658   7.951  0.7757 -0.1984 -0.4859
 1684SOL     OW 5050   4.022   2.332   7.156  0.3754  0.5462 -0.1184
 1684SOL    HW1 5051   4.067   2.336   7.240  0.4031  0.6739 -0.1399
 1684SOL    HW2 5052   4.009   2.238   7.140 -0.3768  0.5470  0.4272
 1685SOL     OW 5053   1.257   3.182   8.013 -1.0591 -0.4001  0.1187
 1685SOL    HW1 5054   1.169   3.159   7.984 -1.0035  0.7596 -1.0904
 1685SOL    HW2 5055   1.243   3.242   8.087 -1.3103  0.1028 -0.3274
 1686SOL     OW 5056   0.442   1.922   5.863 -0.4039 -0.5893  0.6722
 1686SOL    HW1 5057   0.407   1.959   5.782  0.9385 -1.1630 -0.1916
 1686SOL    HW2 5058   0.486   1.842   5.836  2.3729  0.5169  1.5326
 1687SOL     OW 5059   2.808   2.553   6.499 -0.1419  0.1402 -0.0197
 1687SOL    HW1 5060   2.885   2.610   6.492  0.3629 -0.3848  0.9191
 1687SOL    HW2 5061   2.803   2.532   6.592  0.2135 -2.0279 -0.4360
 1688SOL     OW 5062   1.988   0.534   6.486  0.3172  0.4441  0.4356
 1688SOL    HW1 5063   2.046   0.589   6.538 -1.3936  0.8330  2.0333
 1688SOL    HW2 5064   1.930   0.492   6.550 -1.6670  0.6587 -1.1014
 1689SOL     OW 5065   0.764   3.654   5.993 -0.3012  1.0835 -0.5759
 1689SOL    HW1 5066   0.730   3.610   5.915  1.5252  1.1241 -1.4629
 1689SOL    HW2 5067   0.699   3.721   6.013 -1.6366 -0.0420 -1.0263
 1690SOL     OW 5068   0.747   4.831   4.978  0.3558 -0.5106  0.2673
 1690SOL    HW1 5069   0.799   4.782   5.042 -1.5304 -2.8578  0.1629
 1690SOL    HW2 5070   0.780   4.801   4.893 -1.0424 -1.9572  0.2019
 1691SOL     OW 5071   2.583   3.864   4.962 -0.8251 -0.6997 -0.7022
 1691SOL    HW1 5072   2.527   3.786   4.963 -0.8571 -0.6751  0.0073
 1691SOL    HW2 5073   2.672   3.830   4.962 -0.8361 -0.7351 -1.0617
 1692SOL     OW 5074   3.654   3.263   6.354  0.2806 -0.3154  0.2046
 1692SOL    HW1 5075   3.643   3.188   6.295 -1.5693  0.9087 -1.1287
 1692SOL    HW2 5076   3.749   3.268   6.368  0.5774 -2.0579 -0.7808
 1693SOL     OW 5077   1.484   0.470   7.354 -0.6392  0.1351 -0.3681
 1693SOL    HW1 5078   1.487   0.509   7.441 -2.8019 -2.4686  1.0073
 1693SOL    HW2 5079   1.517   0.381   7.365 -1.9096 -0.6030 -1.9560
 1694SOL     OW 5080   4.022   1.298   6.337 -0.2231  0.2039  0.6777
 1694SOL    HW1 5081   4.073   1.372   6.304 -1.0282  0.6420  0.3980
 1694SOL    HW2 5082   4.088   1.235   6.367  0.5016  0.3531 -0.5413
 1695SOL     OW 5083   3.645   2.403   6.640  0.1186  0.3964 -0.4317
 1695SOL    HW1 5084   3.711   2.343   6.676  0.9508  1.7843  0.4485
 1695SOL    HW2 5085   3.561   2.366   6.668  0.6472  0.0238  0.7276
 1696SOL     OW 5086   1.207   2.495   5.520 -0.3517  0.5136  0.3826
 1696SOL    HW1 5087   1.138   2.536   5.572 -0.9265 -0.5782  0.5095
 1696SOL    HW2 5088   1.239   2.423   5.576  1.0690  1.1436  0.4338
 1697SOL     OW 5089   1.720   1.466   7.942  0.5162  0.4566  0.2939
 1697SOL    HW1 5090   1.658   1.526   7.903 -3.4283 -2.8996  0.7518
 1697SOL    HW2 5091   1.752   1.413   7.868  0.4675  0.2040  0.4541
 1698SOL     OW 5092   1.647   0.571   7.152 -0.2684 -0.1793 -0.2375
 1698SOL    HW1 5093   1.696   0.489   7.152 -0.6838 -0.4431 -1.6809
 1698SOL    HW2 5094   1.592   0.566   7.231  0.6574 -0.6883  0.4000
 1699SOL     OW 5095   0.558   1.858   5.359  0.7482 -0.4825 -0.2383
 1699SOL    HW1 5096   0.573   1.766   5.335 -0.5349 -1.0942  1.1258
 1699SOL    HW2 5097   0.500   1.891   5.290  0.2355 -1.0659 -0.0965
 1700SOL     OW 5098   2.825   0.766   5.316  0.1835  0.6458  0.8138
 1700SOL    HW1 5099   2.810   0.788   5.407 -1.3964  0.1786  0.7001
 1700SOL    HW2 5100   2.862   0.678   5.319  0.4765  0.7758  1.0190
 1701SOL     OW 5101   1.752   2.813   5.724  0.2134  0.2877 -0.4937
 1701SOL    HW1 5102   1.683   2.879   5.715  0.7021  1.0319  0.8834
 1701SOL    HW2 5103   1.797   2.815   5.641 -2.2691 -1.2628 -2.0103
 1702SOL     OW 5104   1.507   1.645   5.854 -0.0979  0.0152  0.0662
 1702SOL    HW1 5105   1.512   1.573   5.918 -1.7340  1.4646  1.9428
 1702SOL    HW2 5106   1.579   1.627   5.793  0.4690 -2.3929  1.2882
 1703SOL     OW 5107   1.859   1.892   7.820  0.0814  0.0899 -0.2265
 1703SOL    HW1 5108   1.812   1.891   7.737  1.2331 -1.3763 -0.9026
 1703SOL    HW2 5109   1.917   1.816   7.816  3.6947  2.5962 -0.1300
 1704SOL     OW 5110   3.310   4.947   6.443  0.0606 -0.1047 -0.1303
 1704SOL    HW1 5111   3.400   4.959   6.473  0.4009 -0.1657 -1.0813
 1704SOL    HW2 5112   3.278   4.873   6.493  0.9010 -0.7534 -0.5253
 1705SOL     OW 5113   2.201   4.942   5.813  0.6085  0.5042  0.2776
 1705SOL    HW1 5114   2.124   4.941   5.757 -0.5701  0.7762  1.8166
 1705SOL    HW2 5115   2.241   5.028   5.797  0.0772  0.7293  0.1468
 1706SOL     OW 5116   2.326   1.745   5.164  0.0523 -0.0945  0.1175
 1706SOL    HW1 5117   2.255   1.696   5.207 -0.7084  0.8313 -0.0535
 1706SOL    HW2 5118   2.363   1.682   5.102  0.1371 -0.9515  1.0150
 1707SOL     OW 5119   3.694   3.276   6.008 -0.2294  0.2931  1.1359
 1707SOL    HW1 5120   3.651   3.198   6.042 -1.8752  0.5134 -0.2846
 1707SOL    HW2 5121   3.650   3.293   5.925 -0.0660  2.8141  1.4700
 1708SOL     OW 5122   2.439   2.920   9.833  0.1104 -0.3188 -0.2790
 1708SOL    HW1 5123   2.530   2.927   9.859 -0.3502 -1.6669  1.9917
 1708SOL    HW2 5124   2.442   2.895   9.741  2.0611 -1.4710  0.0444
 1709SOL     OW 5125   4.517   1.571   6.264  0.0347 -0.5500  0.0167
 1709SOL    HW1 5126   4.465   1.525   6.329 -0.1554  1.0676  1.0747
 1709SOL    HW2 5127   4.586   1.614   6.315  1.1591 -0.9478 -1.1094
 1710SOL     OW 5128   0.412   0.186   6.387 -0.1398 -0.0095 -0.3129
 1710SOL    HW1 5129   0.487   0.241   6.408  0.0778 -0.0504 -0.9449
 1710SOL    HW2 5130   0.392   0.207   6.296 -0.6088 -0.3325 -0.2870
 1711SOL     OW 5131   4.012   1.072   7.428  0.2102 -0.1377 -0.3090
 1711SOL    HW1 5132   3.963   1.135   7.376  0.7154 -0.3176 -1.0135
 1711SOL    HW2 5133   3.948   1.036   7.489 -0.0477  1.1773  0.2261
 1712SOL     OW 5134   2.334   1.630   8.379 -0.4179 -0.5000 -0.4019
 1712SOL    HW1 5135   2.293   1.637   8.465  2.9745 -1.8868  1.5401
 1712SOL    HW2 5136   2.417   1.676   8.388  1.0879 -2.6518 -2.1011
 1713SOL     OW 5137   2.305   1.392   9.082  0.3080  0.4551  0.3481
 1713SOL    HW1 5138   2.290   1.300   9.101  0.0949  0.0140 -1.6810
 1713SOL    HW2 5139   2.359   1.392   9.003 -0.6330  2.0321 -0.3545
 1714SOL     OW 5140   2.787   4.102   5.086  0.0409  0.0376 -0.0626
 1714SOL    HW1 5141   2.762   4.010   5.097 -1.5609  0.6043  1.6142
 1714SOL    HW2 5142   2.704   4.149   5.077  0.8083  1.3559 -0.6211
 1715SOL     OW 5143   3.190   3.692   6.350  0.0921 -0.1309 -0.7395
 1715SOL    HW1 5144   3.112   3.745   6.335 -0.2571 -0.3023  0.3751
 1715SOL    HW2 5145   3.262   3.749   6.322 -0.3412  0.5739 -0.4665
 1716SOL     OW 5146   3.126   0.580   6.577  0.0389 -0.0581  0.1718
 1716SOL    HW1 5147   3.146   0.552   6.666  0.2516  0.8293  0.4103
 1716SOL    HW2 5148   3.065   0.514   6.544 -1.1537  0.3375  1.4685
 1717SOL     OW 5149   4.226   1.098   7.588 -0.4123  0.1005 -0.2293
 1717SOL    HW1 5150   4.178   1.059   7.661 -0.1303  0.6562  0.2618
 1717SOL    HW2 5151   4.168   1.089   7.513  0.0561 -2.2292 -0.3916
 1718SOL     OW 5152   3.268   1.805   7.624  0.0139 -0.1666  0.2461
 1718SOL    HW1 5153   3.288   1.828   7.533 -1.7638 -0.3119 -0.2125
 1718SOL    HW2 5154   3.354   1.801   7.666  0.8123  1.1101 -1.1252
 1719SOL     OW 5155   4.922   2.128   5.706 -0.0869 -0.1883  0.0655
 1719SOL    HW1 5156   4.945   2.144   5.797  0.5544  0.3845 -0.1905
 1719SOL    HW2 5157   4.843   2.074   5.710 -0.2876  0.1631  0.9531
 1720SOL     OW 5158   2.436   0.861   5.607  0.3479  0.0821  0.2768
 1720SOL    HW1 5159   2.366   0.868   5.543 -1.0614 -0.6762  1.6666
 1720SOL    HW2 5160   2.394   0.878   5.691  1.2565 -2.8210  1.4470
 1721SOL     OW 5161   2.455   0.172   6.396  0.1787 -0.3267 -0.1524
 1721SOL    HW1 5162   2.496   0.206   6.475 -0.0905 -0.1338 -0.0939
 1721SOL    HW2 5163   2.528   0.138   6.343  0.1479 -3.9684  1.7818
 1722SOL     OW 5164   2.580   0.734   7.566  0.1625 -0.2229 -0.6937
 1722SOL    HW1 5165   2.581   0.757   7.659 -1.2906 -0.6464 -0.5422
 1722SOL    HW2 5166   2.622   0.808   7.522 -2.4774  1.8311 -0.0394
 1723SOL     OW 5167   3.321   2.046   6.173 -0.3739  0.1623 -0.1987
 1723SOL    HW1 5168   3.281   2.034   6.087 -1.7365 -1.8794  0.6279
 1723SOL    HW2 5169   3.293   2.133   6.201 -1.6819  0.0069 -0.9651
 1724SOL     OW 5170   4.139   1.783   6.145  0.1297  0.2222  0.2200
 1724SOL    HW1 5171   4.119   1.783   6.052 -0.9373 -1.2237  0.4040
 1724SOL    HW2 5172   4.187   1.864   6.160  2.4548 -0.6362 -1.9986
 1725SOL     OW 5173   4.981   1.026   6.328 -0.4133 -0.1446  0.3444
 1725SOL    HW1 5174   4.915   1.074   6.278 -0.6970  0.3804  1.1979
 1725SOL    HW2 5175   5.010   0.956   6.269 -0.2505  0.8506 -0.7920
 1726SOL     OW 5176   1.950   2.623   7.754  0.8293 -0.2443  0.4762
 1726SOL    HW1 5177   1.990   2.707   7.731 -3.5768  1.6792 -1.3412
 1726SOL    HW2 5178   1.914   2.636   7.841  0.0450 -0.1663  0.1487
 1727SOL     OW 5179   4.102   4.230   7.287  0.1743  0.1494 -0.2271
 1727SOL    HW1 5180   4.110   4.161   7.221 -1.1016 -0.5903  0.3520
 1727SOL    HW2 5181   4.011   4.258   7.282  0.7538  2.1103 -0.7236
 1728SOL     OW 5182   3.383   1.478   5.008  0.0506  0.3711  0.4366
 1728SOL    HW1 5183   3.393   1.513   5.097 -2.1514 -0.2237  0.9959
 1728SOL    HW2 5184   3.404   1.552   4.951 -1.8860  1.8970  1.5430
 1729SOL     OW 5185   2.511   1.630   6.711 -0.7922 -0.1497  1.1652
 1729SOL    HW1 5186   2.475   1.718   6.723 -3.0370 -1.1300  2.1324
 1729SOL    HW2 5187   2.473   1.579   6.783 -0.9838 -2.3228 -0.4130
 1730SOL     OW 5188   2.359   2.166   5.293  0.2881 -0.5506  0.1358
 1730SOL    HW1 5189   2.332   2.195   5.206 -0.1292 -0.6820  0.2185
 1730SOL    HW2 5190   2.419   2.234   5.324  0.4589 -0.5179 -0.2636
 1731SOL     OW 5191   0.833   2.021   4.828 -0.5473 -0.3699  0.3589
 1731SOL    HW1 5192   0.919   2.059   4.815 -0.3081 -0.6887  0.9815
 1731SOL    HW2 5193   0.847   1.949   4.889 -0.7810 -2.2893 -1.7314
 1732SOL     OW 5194   4.160   4.042   6.719 -0.1269 -0.3544  0.9449
 1732SOL    HW1 5195   4.097   3.970   6.709  0.5212 -0.7628 -0.5595
 1732SOL    HW2 5196   4.243   3.999   6.738 -0.3839  0.2226  3.7824
 1733SOL     OW 5197   2.352   1.953   6.152  0.1181  0.1364  0.4811
 1733SOL    HW1 5198   2.425   1.946   6.091 -0.2963 -1.1384  0.0988
 1733SOL    HW2 5199   2.327   2.046   6.151 -0.9828 -0.1018 -2.6108
 1734SOL     OW 5200   2.212   1.725   6.250  0.2776  0.0923  0.6388
 1734SOL    HW1 5201   2.246   1.796   6.196 -0.8036 -0.3600 -0.7024
 1734SOL    HW2 5202   2.139   1.764   6.298 -0.3474 -0.1058 -0.1349
 1735SOL     OW 5203   1.671   2.895   7.213 -0.1613  0.2020 -0.3960
 1735SOL    HW1 5204   1.646   2.944   7.292 -0.5842 -0.6933  0.0277
 1735SOL    HW2 5205   1.659   2.958   7.141 -1.4164  0.5084  0.0549
 1736SOL     OW 5206   4.698   2.607   6.299 -1.0312  0.4319  0.5071
 1736SOL    HW1 5207   4.738   2.662   6.232  0.0768 -1.5767 -0.5997
 1736SOL    HW2 5208   4.608   2.595   6.269 -0.5343 -0.4917 -0.7230
 1737SOL     OW 5209   4.413   1.612   8.140 -0.2878 -0.3493  0.7741
 1737SOL    HW1 5210   4.477   1.572   8.200  0.7949  1.4400  0.8975
 1737SOL    HW2 5211   4.365   1.674   8.195 -0.8340 -0.3303  0.2736
 1738SOL     OW 5212   1.249   3.802   5.163 -0.0587 -0.6314 -0.0831
 1738SOL    HW1 5213   1.219   3.759   5.243 -1.0274  0.3840  0.1263
 1738SOL    HW2 5214   1.224   3.742   5.093 -1.4680 -0.4101  0.1964
 1739SOL     OW 5215   2.282   1.323   7.170  0.4685  0.1101 -0.4881
 1739SOL    HW1 5216   2.375   1.318   7.150  0.4700 -1.4200 -0.2286
 1739SOL    HW2 5217   2.278   1.311   7.265 -0.0277 -0.5138 -0.5839
 1740SOL     OW 5218   4.403   0.505   6.543 -0.6388  0.1801 -0.2099
 1740SOL    HW1 5219   4.435   0.561   6.471  1.8776 -2.1517 -1.1022
 1740SOL    HW2 5220   4.334   0.452   6.503  1.7197 -2.1405 -1.5633
 1741SOL     OW 5221   1.499   2.141   6.157 -0.0825 -0.0055 -0.0162
 1741SOL    HW1 5222   1.484   2.130   6.251 -0.1299  1.3272  0.1621
 1741SOL    HW2 5223   1.485   2.235   6.143  1.1965  0.0398 -1.1236
 1742SOL     OW 5224   4.337   0.867   9.760  0.0877 -0.2142 -0.4211
 1742SOL    HW1 5225   4.405   0.919   9.716  2.2107 -0.3441  2.4251
 1742SOL    HW2 5226   4.297   0.928   9.822 -1.3565 -0.5806 -0.9485
 1743SOL     OW 5227   2.755   2.709   7.249 -0.1232  0.3622  0.4026
 1743SOL    HW1 5228   2.725   2.764   7.320  0.8460  2.2255 -0.5575
 1743SOL    HW2 5229   2.708   2.626   7.260 -0.6110  0.8933  2.6717
 1744SOL     OW 5230   2.854   4.633   8.484  0.0743 -0.5085 -0.1741
 1744SOL    HW1 5231   2.908   4.556   8.469 -1.2736 -1.6911  0.7156
 1744SOL    HW2 5232   2.765   4.599   8.494 -0.8108  1.3182 -1.2160
 1745SOL     OW 5233   3.253   1.793   6.804  0.2530 -0.0922 -0.1108
 1745SOL    HW1 5234   3.249   1.724   6.871 -0.3273 -2.4169 -2.3712
 1745SOL    HW2 5235   3.341   1.830   6.814  0.3247 -0.6067  1.6530
 1746SOL     OW 5236   1.700   1.386   8.359  0.0140  0.0524  0.3576
 1746SOL    HW1 5237   1.750   1.431   8.291  1.7664  0.4280  1.7953
 1746SOL    HW2 5238   1.615   1.430   8.360  1.1232  2.3424  0.6331
 1747SOL     OW 5239   2.930   2.514  10.109  0.3994 -0.1556 -0.2571
 1747SOL    HW1 5240   2.996   2.574  10.143 -0.0393  0.4044 -0.3687
 1747SOL    HW2 5241   2.859   2.517  10.174 -0.4843  0.9908 -1.2176
 1748SOL     OW 5242   0.863   0.967   6.643  0.4267 -0.4618  0.1634
 1748SOL    HW1 5243   0.881   0.937   6.732 -0.3303 -0.3099  0.3758
 1748SOL    HW2 5244   0.914   1.047   6.634 -2.4116  1.7395  1.8584
 1749SOL     OW 5245   2.900   1.335   9.003  0.6916 -0.1401  0.2952
 1749SOL    HW1 5246   2.960   1.393   8.955  0.7257 -2.1008 -2.2099
 1749SOL    HW2 5247   2.944   1.321   9.088  3.1333 -0.4022 -0.9130
 1750SOL     OW 5248   3.344   4.711   6.278  0.2142  0.0117  0.5222
 1750SOL    HW1 5249   3.374   4.621   6.265  0.3781  0.1606 -0.1725
 1750SOL    HW2 5250   3.287   4.728   6.203 -0.6305  0.1538  1.1757
 1751SOL     OW 5251   2.868   4.828   7.416  0.3075 -0.3405 -1.4805
 1751SOL    HW1 5252   2.806   4.761   7.446  0.7108 -0.9976 -2.1047
 1751SOL    HW2 5253   2.812   4.899   7.385 -0.1291  0.0764  0.1550
 1752SOL     OW 5254   2.189   4.157   8.141 -0.8424  0.0303  0.9493
 1752SOL    HW1 5255   2.196   4.132   8.233  1.8282  3.0568  1.7229
 1752SOL    HW2 5256   2.244   4.095   8.095 -1.2838 -0.8038  1.5164
 1753SOL     OW 5257   4.900   1.130   7.337  0.2671  0.0376 -0.3762
 1753SOL    HW1 5258   4.884   1.096   7.426  0.6606 -1.6664 -0.9071
 1753SOL    HW2 5259   4.813   1.157   7.306 -0.1982 -1.0849 -0.1188
 1754SOL     OW 5260   2.038   1.566   6.780 -0.4651  0.0442 -0.0864
 1754SOL    HW1 5261   2.110   1.532   6.727 -1.5158 -1.3934 -0.6435
 1754SOL    HW2 5262   2.081   1.602   6.858  0.9035 -0.0909 -0.7474
 1755SOL     OW 5263   3.048   0.853   8.242  0.1342 -0.6899 -0.4677
 1755SOL    HW1 5264   3.124   0.831   8.296  0.5367  0.0737 -0.7032
 1755SOL    HW2 5265   3.084   0.906   8.170 -0.6976  0.2395 -0.2298
 1756SOL     OW 5266   2.573   0.901   6.103  0.2563 -0.5296 -0.0613
 1756SOL    HW1 5267   2.543   0.912   6.013  2.0212  0.8007 -0.5496
 1756SOL    HW2 5268   2.657   0.947   6.106 -0.5168  0.9314  2.6928
 1757SOL     OW 5269   3.887   0.054   6.559 -0.6216 -0.3674  0.1813
 1757SOL    HW1 5270   3.860   0.109   6.632 -0.3514  0.2829 -0.1975
 1757SOL    HW2 5271   3.942  -0.014   6.598 -1.2027 -0.5464  0.6934
 1758SOL     OW 5272   2.614   1.982  10.088  0.2167 -0.4642 -0.6557
 1758SOL    HW1 5273   2.694   2.033  10.087  1.1797 -1.8839  0.1543
 1758SOL    HW2 5274   2.626   1.915  10.020 -0.7957  0.0417 -1.3504
 1759SOL     OW 5275   3.345   1.896   5.405  0.2643 -0.0944  0.1342
 1759SOL    HW1 5276   3.264   1.941   5.429  0.7796  0.0703  1.6309
 1759SOL    HW2 5277   3.322   1.803   5.406  0.4591 -0.1583  2.1783
 1760SOL     OW 5278   1.698   2.454  10.054 -0.0121 -0.3917 -0.4456
 1760SOL    HW1 5279   1.659   2.376  10.014  0.5535 -1.7768  1.6031
 1760SOL    HW2 5280   1.692   2.439  10.148  1.7985  1.1986 -0.0157
 1761SOL     OW 5281   3.437   0.174   6.635  0.4742  0.0678  0.9183
 1761SOL    HW1 5282   3.454   0.192   6.728  2.3932  1.4332  0.3564
 1761SOL    HW2 5283   3.489   0.096   6.616 -0.8105 -0.8998  1.2116
 1762SOL     OW 5284   0.231   2.354   5.344  0.1671 -0.1415  0.0196
 1762SOL    HW1 5285   0.216   2.305   5.264  1.7475  1.0415 -1.0516
 1762SOL    HW2 5286   0.222   2.289   5.414 -2.2212 -0.9946 -0.9787
 1763SOL     OW 5287   2.537   2.157   6.674  0.2185 -0.1730 -1.1203
 1763SOL    HW1 5288   2.632   2.160   6.659  0.2154 -0.7401 -1.2630
 1763SOL    HW2 5289   2.499   2.168   6.587  0.2021 -3.7213 -1.7109
 1764SOL     OW 5290   2.182   1.387   5.366 -0.0870 -0.3650  0.4274
 1764SOL    HW1 5291   2.263   1.357   5.406 -0.0161 -0.4959  0.1933
 1764SOL    HW2 5292   2.156   1.314   5.309 -2.1390 -1.7807  2.9837
 1765SOL     OW 5293   1.720   2.451   6.584 -0.6114 -0.5330  0.5457
 1765SOL    HW1 5294   1.758   2.417   6.502 -1.2794 -1.6946  0.7046
 1765SOL    HW2 5295   1.786   2.512   6.617 -0.2175 -0.2366 -0.7321
 1766SOL     OW 5296   1.855   1.967   7.546  0.3390  0.4839  0.1094
 1766SOL    HW1 5297   1.820   1.951   7.458 -0.6642  2.5457  0.0789
 1766SOL    HW2 5298   1.949   1.979   7.532  0.0315  1.9723 -0.9018
 1767SOL     OW 5299   2.553   0.662   5.355 -0.4725  0.4283 -0.3160
 1767SOL    HW1 5300   2.567   0.586   5.298  1.7029  0.5320  0.0105
 1767SOL    HW2 5301   2.627   0.720   5.337 -0.2554  0.9232  1.8892
 1768SOL     OW 5302   3.312   2.463   7.796  0.2657  0.3783 -0.3840
 1768SOL    HW1 5303   3.314   2.478   7.701  0.7538 -1.2291 -0.6667
 1768SOL    HW2 5304   3.355   2.378   7.807  0.2649  0.5658  1.2942
 1769SOL     OW 5305   2.566   1.369   6.230 -0.0200 -0.0225 -1.3640
 1769SOL    HW1 5306   2.592   1.432   6.297  0.4373 -2.2444  0.7212
 1769SOL    HW2 5307   2.488   1.406   6.190 -1.2677  0.7527  1.5216
 1770SOL     OW 5308   0.081   0.957   7.776 -0.7972 -0.2443  0.4529
 1770SOL    HW1 5309   0.109   0.936   7.865  3.3397 -1.0982 -0.8262
 1770SOL    HW2 5310   0.046   1.046   7.782 -0.2938 -0.1420  2.8587
 1771SOL     OW 5311   2.802   0.951   8.833 -0.4140  0.4377  0.3436
 1771SOL    HW1 5312   2.712   0.942   8.799 -0.3974 -0.3461  0.4915
 1771SOL    HW2 5313   2.800   0.907   8.918  0.4576 -0.8386 -0.2708
 1772SOL     OW 5314   3.165   2.696   8.489 -0.5362 -0.6353 -0.3440
 1772SOL    HW1 5315   3.202   2.684   8.401 -2.0236 -2.1369 -0.8340
 1772SOL    HW2 5316   3.192   2.618   8.537  0.0941  0.0833  0.4968
 1773SOL     OW 5317   0.622   0.627   8.671  0.1784  0.9100 -0.9362
 1773SOL    HW1 5318   0.696   0.600   8.617  1.2399  1.9323 -0.0315
 1773SOL    HW2 5319   0.557   0.659   8.609  0.8727  0.8932 -1.6797
 1774SOL     OW 5320   1.586   0.997   8.840  0.1594  0.7760  0.4404
 1774SOL    HW1 5321   1.677   1.019   8.859  0.7624 -0.6547 -0.6318
 1774SOL    HW2 5322   1.575   0.909   8.876 -0.4266  0.4335 -0.5484
 1775SOL     OW 5323   3.177   4.011   7.640 -0.3595  0.4455  0.4610
 1775SOL    HW1 5324   3.247   3.969   7.691 -0.2887 -4.7171 -3.0477
 1775SOL    HW2 5325   3.111   3.941   7.629 -3.1112  3.1064 -1.5830
 1776SOL     OW 5326   1.236   1.562   9.013 -0.1181 -0.3646 -0.1085
 1776SOL    HW1 5327   1.175   1.606   8.953  0.6949 -0.1566 -0.7940
 1776SOL    HW2 5328   1.206   1.587   9.100 -1.6391 -1.0925 -0.3858
 1777SOL     OW 5329   0.102   1.805   5.996 -0.2408  0.5724  0.2164
 1777SOL    HW1 5330   0.193   1.775   5.989  0.0124  1.6092 -1.5018
 1777SOL    HW2 5331   0.072   1.771   6.080  0.7417 -2.4330 -0.5186
 1778SOL     OW 5332   3.723   0.821   4.764  0.1224  0.8105 -0.4130
 1778SOL    HW1 5333   3.790   0.806   4.830  1.3311  0.7792 -1.5937
 1778SOL    HW2 5334   3.676   0.738   4.758  0.3392  0.6552  0.0498
 1779SOL     OW 5335   1.784   0.985   7.626  0.0753 -0.2330  1.1415
 1779SOL    HW1 5336   1.755   1.002   7.536  1.1800 -0.8032  0.6567
 1779SOL    HW2 5337   1.747   0.900   7.648  0.8032 -0.6573  0.7644
 1780SOL     OW 5338   2.504   1.544   8.707 -0.2650  0.2616  0.3540
 1780SOL    HW1 5339   2.558   1.555   8.629 -1.2820  1.4869 -0.2190
 1780SOL    HW2 5340   2.547   1.475   8.757  0.5538 -0.3805 -1.1691
 1781SOL     OW 5341   1.768   4.478   6.665  0.1406  0.3868 -0.3858
 1781SOL    HW1 5342   1.815   4.523   6.595  0.6227  4.0331  2.0144
 1781SOL    HW2 5343   1.784   4.385   6.648  1.5991  1.1378 -4.0841
 1782SOL     OW 5344   1.106   0.126   9.606 -0.2660 -0.1274  0.6969
 1782SOL    HW1 5345   1.194   0.154   9.631  0.4598 -0.7759 -1.0149
 1782SOL    HW2 5346   1.050   0.159   9.677  0.8356  3.3200  0.1747
 1783SOL     OW 5347   2.859   0.686   8.060 -0.5902  0.4146  0.0410
 1783SOL    HW1 5348   2.916   0.737   8.119  0.5631 -1.3315  0.5217
 1783SOL    HW2 5349   2.844   0.604   8.107 -4.0024  0.9570  0.1554
 1784SOL     OW 5350   4.889   4.372   8.486 -0.0346  0.5689  0.0567
 1784SOL    HW1 5351   4.955   4.425   8.530  0.4409 -0.2269  0.3151
 1784SOL    HW2 5352   4.882   4.411   8.398  1.1037  0.3865 -0.1252
 1785SOL     OW 5353   4.033   3.027   8.634  0.5653 -0.1967 -0.4109
 1785SOL    HW1 5354   3.962   3.080   8.670  1.9674  1.4895 -0.0056
 1785SOL    HW2 5355   4.000   2.998   8.549 -1.0473 -0.4451  0.2707
 1786SOL     OW 5356   2.926   1.258   6.222  0.3615  0.0243 -0.5108
 1786SOL    HW1 5357   2.995   1.191   6.224  0.4642  0.1350 -0.2534
 1786SOL    HW2 5358   2.964   1.329   6.171  0.3550 -0.0052 -0.5564
 1787SOL     OW 5359   4.979   0.700   9.491  0.3720  0.1079 -0.0694
 1787SOL    HW1 5360   4.911   0.646   9.451  2.2462 -1.9083 -0.7389
 1787SOL    HW2 5361   4.948   0.790   9.480 -1.8868 -0.6998 -0.8463
 1788SOL     OW 5362   2.540   0.912   6.636 -0.1243  0.1359  0.1035
 1788SOL    HW1 5363   2.523   0.831   6.588  0.1963 -0.3617  0.8026
 1788SOL    HW2 5364   2.507   0.982   6.579 -0.9858 -0.5303 -0.2300
 1789SOL     OW 5365   2.391   4.091   6.367 -0.4014  0.2316 -0.6625
 1789SOL    HW1 5366   2.426   4.167   6.413 -0.2837 -0.1795 -0.0652
 1789SOL    HW2 5367   2.296   4.096   6.381 -0.3743  0.1573 -0.4492
 1790SOL     OW 5368   2.647   1.779   7.431 -0.0956 -0.2837 -0.1255
 1790SOL    HW1 5369   2.619   1.740   7.513 -1.4746  1.2145  0.1738
 1790SOL    HW2 5370   2.698   1.856   7.458 -0.2693  0.0233 -0.6655
 1791SOL     OW 5371   2.842   2.972   8.251  0.1663  0.4142 -0.9810
 1791SOL    HW1 5372   2.808   2.905   8.192 -0.4688  0.4788 -0.6954
 1791SOL    HW2 5373   2.873   2.922   8.327  1.8542  0.2388 -1.7306
 1792SOL     OW 5374   4.209   1.955   7.012  0.3922 -0.1646 -0.0258
 1792SOL    HW1 5375   4.293   1.927   6.977  2.0162  2.2538  1.6492
 1792SOL    HW2 5376   4.205   2.049   6.995 -1.3730  0.0183  1.0964
 1793SOL     OW 5377   4.225   0.969   7.236  0.1874  0.1921 -0.0604
 1793SOL    HW1 5378   4.191   0.916   7.308 -0.3832 -0.0426 -0.5015
 1793SOL    HW2 5379   4.148   0.999   7.189  0.5742 -0.4465 -1.1432
 1794SOL     OW 5380   0.762   1.773   6.914  0.2997  0.0166  0.3291
 1794SOL    HW1 5381   0.771   1.720   6.835 -1.0657 -1.5671  1.1777
 1794SOL    HW2 5382   0.851   1.796   6.938  0.8881 -1.3676 -0.4365
 1795SOL     OW 5383   3.671   1.327   6.938 -0.7450 -0.0735 -0.6195
 1795SOL    HW1 5384   3.608   1.354   7.005 -0.2688 -0.5398  0.0193
 1795SOL    HW2 5385   3.753   1.370   6.963  0.1690 -2.4586  0.7161
 1796SOL     OW 5386   2.884   1.793   7.026 -0.0467  0.3696  0.0486
 1796SOL    HW1 5387   2.964   1.741   7.029  0.5326  0.8635 -3.2872
 1796SOL    HW2 5388   2.818   1.737   7.067  1.1463 -1.8248 -0.8269
 1797SOL     OW 5389   2.011   1.934   6.091  0.1804 -0.0016  0.3894
 1797SOL    HW1 5390   2.058   1.959   6.011 -0.8532  1.6160  0.2420
 1797SOL    HW2 5391   1.948   2.004   6.104 -0.9698 -1.2126  1.5831
 1798SOL     OW 5392   3.701   3.170   7.971  0.4243  0.0664  0.6240
 1798SOL    HW1 5393   3.671   3.261   7.967 -0.0403  0.0391  2.3989
 1798SOL    HW2 5394   3.664   3.129   7.894 -1.2158  0.8815  0.9352
 1799SOL     OW 5395   1.527   4.371   8.125  0.0973 -0.4320  0.4113
 1799SOL    HW1 5396   1.599   4.432   8.144 -0.2122  0.5579 -1.3718
 1799SOL    HW2 5397   1.481   4.361   8.208  0.1740  1.7719  0.7745
 1800SOL     OW 5398   3.496   1.891   6.985  0.0203 -0.6962  0.5161
 1800SOL    HW1 5399   3.562   1.886   7.055  1.8834 -3.1412 -1.2106
 1800SOL    HW2 5400   3.413   1.872   7.029  0.6962  0.4755  2.4438
 1801SOL     OW 5401   2.185   4.638   8.849 -0.4883 -0.1287 -0.1750
 1801SOL    HW1 5402   2.166   4.545   8.865 -0.3182 -0.0512  0.4991
 1801SOL    HW2 5403   2.166   4.681   8.932  2.5646 -0.0479  0.6219
 1802SOL     OW 5404   2.783   0.838   9.063 -0.2508 -0.1743  0.8824
 1802SOL    HW1 5405   2.792   0.896   9.138 -1.1352 -0.2172  1.0326
 1802SOL    HW2 5406   2.799   0.750   9.098  1.0349 -0.0412  0.6656
 1803SOL     OW 5407   2.857   3.887   8.431 -0.2226 -0.4250  0.0988
 1803SOL    HW1 5408   2.904   3.851   8.357 -0.7786 -1.2961  0.1598
 1803SOL    HW2 5409   2.789   3.942   8.392  0.5775  0.5207  0.0055
 1804SOL     OW 5410   1.185   0.455   8.946 -0.0272 -0.0200 -0.1223
 1804SOL    HW1 5411   1.189   0.518   8.873 -2.3746 -0.8925 -1.1175
 1804SOL    HW2 5412   1.146   0.504   9.018 -0.0822  0.1846 -0.2896
 1805SOL     OW 5413   1.097   0.916   9.384  0.2688 -0.2813  0.5819
 1805SOL    HW1 5414   1.158   0.931   9.456  1.5764 -3.6681  0.3383
 1805SOL    HW2 5415   1.072   0.824   9.392 -0.7451 -0.3772 -2.4024
 1806SOL     OW 5416   4.740   0.906   6.021  0.6465  0.0193  0.0150
 1806SOL    HW1 5417   4.772   0.973   5.960 -0.2753  0.7803  0.3460
 1806SOL    HW2 5418   4.648   0.896   5.999 -0.7076  2.8734  3.4767
 1807SOL     OW 5419   4.606   2.761   7.626  0.1086  0.0494  0.3036
 1807SOL    HW1 5420   4.682   2.747   7.682 -1.0941 -0.6717  1.8465
 1807SOL    HW2 5421   4.552   2.823   7.675  0.2579  1.5535 -1.3508
 1808SOL     OW 5422   3.278   1.819   9.474 -0.0595  0.0264  0.1594
 1808SOL    HW1 5423   3.365   1.837   9.509  0.1581  0.2259 -0.4663
 1808SOL    HW2 5424   3.294   1.770   9.393 -0.5980 -1.8618  1.1468
 1809SOL     OW 5425   1.532   0.552   8.767  0.4084 -0.1421  0.6677
 1809SOL    HW1 5426   1.449   0.579   8.805 -0.1465  1.3256 -1.4120
 1809SOL    HW2 5427   1.515   0.464   8.733 -0.6943  0.5676 -0.7224
 1810SOL     OW 5428   2.047   1.676   8.118  0.3871 -0.2437  0.0231
 1810SOL    HW1 5429   1.964   1.681   8.164  0.4925  1.2285  0.0780
 1810SOL    HW2 5430   2.073   1.584   8.126 -0.0504 -0.2339  2.0606
 1811SOL     OW 5431   0.301   4.968   7.589  0.3496  0.2727 -0.0587
 1811SOL    HW1 5432   0.330   4.905   7.655  1.2484 -0.4413 -1.1014
 1811SOL    HW2 5433   0.245   4.917   7.531  0.8630  0.4926 -0.7542
 1812SOL     OW 5434   2.040   1.394   7.053  0.1103  0.0485 -0.5734
 1812SOL    HW1 5435   2.012   1.334   6.984 -0.7489  1.0332 -1.1072
 1812SOL    HW2 5436   2.124   1.359   7.083 -0.3841 -1.4421 -0.8300
 1813SOL     OW 5437   0.355   2.505   6.347 -0.5448  0.5625 -0.5798
 1813SOL    HW1 5438   0.363   2.414   6.375  0.1904  0.1386 -2.0712
 1813SOL    HW2 5439   0.446   2.534   6.332 -0.7955  1.4054 -0.5329
 1814SOL     OW 5440   2.792   2.363   7.142 -0.5862 -0.3625  0.0500
 1814SOL    HW1 5441   2.772   2.357   7.236 -2.4311 -3.0863 -0.3957
 1814SOL    HW2 5442   2.879   2.324   7.134 -1.3891 -2.3768  0.4419
 1815SOL     OW 5443   0.683   0.672   7.531  0.7681  0.1176 -0.0288
 1815SOL    HW1 5444   0.680   0.577   7.518  2.5631  0.1533 -1.1305
 1815SOL    HW2 5445   0.774   0.690   7.553  0.5423  1.6274 -0.2087
 1816SOL     OW 5446   2.637   1.299   9.085 -0.1262 -0.2346  0.3521
 1816SOL    HW1 5447   2.587   1.282   9.006 -0.7204  0.7997  0.4938
 1816SOL    HW2 5448   2.724   1.324   9.054 -0.1503 -0.5060  0.0596
 1817SOL     OW 5449   2.914   1.469   7.675 -0.1348 -0.4140  0.2617
 1817SOL    HW1 5450   2.869   1.415   7.740 -1.7215 -1.1466 -1.3497
 1817SOL    HW2 5451   2.845   1.498   7.615  0.9849  1.8170 -0.0467
 1818SOL     OW 5452   0.114   3.530   9.784  0.0804 -0.1140 -0.0652
 1818SOL    HW1 5453   0.188   3.491   9.737  0.6267 -0.4537  1.0370
 1818SOL    HW2 5454   0.037   3.482   9.753  0.4239 -0.3207 -0.6074
 1819SOL     OW 5455   3.616   0.087   5.832 -0.0134 -0.8815  0.1793
 1819SOL    HW1 5456   3.699   0.109   5.790  0.5487 -2.3624  0.4463
 1819SOL    HW2 5457   3.630  -0.001   5.869 -0.6740  0.0397  2.8833
 1820SOL     OW 5458   2.238   0.717   6.369 -0.5619 -0.5663 -0.2091
 1820SOL    HW1 5459   2.217   0.648   6.307 -2.0903 -1.6716  1.4183
 1820SOL    HW2 5460   2.261   0.671   6.450  0.6064  0.8244  0.3130
 1821SOL     OW 5461   4.836   0.445   6.813  0.7122 -0.4105 -1.0102
 1821SOL    HW1 5462   4.790   0.367   6.781 -1.2123  0.8087 -1.3726
 1821SOL    HW2 5463   4.801   0.517   6.761  0.8609  1.0030  0.7320
 1822SOL     OW 5464   2.607   0.550   9.957 -0.0661 -0.4188 -0.6012
 1822SOL    HW1 5465   2.601   0.485   9.886 -0.1224 -0.4091 -0.6050
 1822SOL    HW2 5466   2.557   0.625   9.926 -0.8565 -0.7603 -0.1665
 1823SOL     OW 5467   2.651   0.443   5.214 -0.0778 -0.7018  0.4811
 1823SOL    HW1 5468   2.689   0.407   5.294 -0.6473 -2.4181  0.0477
 1823SOL    HW2 5469   2.685   0.387   5.145 -1.1841 -0.5347 -0.2238
 1824SOL     OW 5470   4.599   0.061   7.491 -0.0894  0.8123  0.1061
 1824SOL    HW1 5471   4.560   0.142   7.458 -0.8032  0.5702  0.3349
 1824SOL    HW2 5472   4.541   0.032   7.561  1.5211  1.4225  1.7816
 1825SOL     OW 5473   3.077   0.975   6.077  0.1250 -0.1681  0.3453
 1825SOL    HW1 5474   3.100   0.884   6.059  0.3851  0.0307 -0.3685
 1825SOL    HW2 5475   3.084   1.019   5.992 -1.4084  0.2276  0.4002
 1826SOL     OW 5476   2.697   2.154   7.778  0.7394  0.5194 -0.5132
 1826SOL    HW1 5477   2.785   2.192   7.783  0.3916  1.2092  3.1342
 1826SOL    HW2 5478   2.688   2.104   7.859 -2.1005  0.1216 -0.9796
 1827SOL     OW 5479   4.916   2.772   5.904  0.2016 -0.0936  0.3381
 1827SOL    HW1 5480   4.957   2.856   5.885 -1.0983  0.9205  1.7207
 1827SOL    HW2 5481   4.983   2.722   5.951  0.8526  0.3314 -0.1356
 1828SOL     OW 5482   2.193   0.397   7.112  0.4006 -0.2756  0.8547
 1828SOL    HW1 5483   2.252   0.433   7.046 -0.7429 -0.0710 -0.0803
 1828SOL    HW2 5484   2.147   0.472   7.148 -0.0202 -0.5329  0.8592
 1829SOL     OW 5485   0.722   0.793   6.235  0.2220 -0.4217  0.0778
 1829SOL    HW1 5486   0.666   0.795   6.312  0.6932  0.6656  0.4126
 1829SOL    HW2 5487   0.723   0.883   6.204  2.3065 -0.2456  0.4771
 1830SOL     OW 5488   4.431   2.395   5.151  0.7987  1.0342 -0.3696
 1830SOL    HW1 5489   4.518   2.434   5.161  1.3078  0.6386 -2.5781
 1830SOL    HW2 5490   4.372   2.470   5.147  1.2448  1.3941 -0.3468
 1831SOL     OW 5491   3.084   0.947   7.961  0.0632 -0.5911  0.4582
 1831SOL    HW1 5492   3.122   1.030   7.935 -0.4996 -0.8559 -1.3829
 1831SOL    HW2 5493   2.989   0.960   7.953 -0.2655 -0.4157  3.4416
 1832SOL     OW 5494   4.954   0.659   6.982  0.3960  0.1627  0.2958
 1832SOL    HW1 5495   4.880   0.681   7.039  0.5839 -0.8323  0.9678
 1832SOL    HW2 5496   4.920   0.590   6.924  0.3072  0.9262 -0.5720
 1833SOL     OW 5497   3.210   2.846   6.652 -0.4215 -0.2311 -0.2483
 1833SOL    HW1 5498   3.118   2.838   6.676 -0.8258  1.3836 -1.1244
 1833SOL    HW2 5499   3.228   2.940   6.658  0.4790 -0.2044 -2.5021
 1834SOL     OW 5500   3.425   3.111   8.556  0.3091  0.2476  0.0579
 1834SOL    HW1 5501   3.366   3.057   8.503  0.5838 -0.7225  0.7177
 1834SOL    HW2 5502   3.373   3.189   8.576 -1.0049 -0.8527  1.1534
 1835SOL     OW 5503   3.288   0.904   7.491 -0.1639 -0.5104 -0.3811
 1835SOL    HW1 5504   3.377   0.935   7.506  0.3661 -2.1778  0.0799
 1835SOL    HW2 5505   3.295   0.809   7.489 -1.7212 -0.6313 -1.8690
 1836SOL     OW 5506   4.280   1.215   6.795 -0.1901  0.3529 -0.1295
 1836SOL    HW1 5507   4.272   1.221   6.890 -0.8129 -1.3570 -0.0385
 1836SOL    HW2 5508   4.193   1.189   6.765  0.0185  0.8098 -1.1582
 1837SOL     OW 5509   1.967   2.801   8.961 -0.2507 -0.1735  0.7043
 1837SOL    HW1 5510   2.048   2.799   9.012 -0.3608  0.5865  0.9188
 1837SOL    HW2 5511   1.901   2.764   9.020 -0.1349 -0.4437  0.6647
 1838SOL     OW 5512   1.158   4.979   9.268 -0.1143  0.2644  0.2318
 1838SOL    HW1 5513   1.180   5.070   9.248  1.0567 -0.4837 -2.3395
 1838SOL    HW2 5514   1.243   4.937   9.285 -0.5832 -0.4762  0.8426
 1839SOL     OW 5515   3.512   1.151   7.671 -0.0750  0.4687 -0.1271
 1839SOL    HW1 5516   3.575   1.211   7.711  0.6177  0.3584 -1.0113
 1839SOL    HW2 5517   3.432   1.202   7.662 -1.1873 -0.2487  3.8192
 1840SOL     OW 5518   1.254   2.408   7.699  0.3173  0.2646 -0.1093
 1840SOL    HW1 5519   1.337   2.455   7.710  0.0032  0.7348  0.3097
 1840SOL    HW2 5520   1.193   2.453   7.758 -0.1671 -0.2438 -0.2151
 1841SOL     OW 5521   4.109   0.864   6.462 -1.2172 -0.5215 -0.2188
 1841SOL    HW1 5522   4.019   0.832   6.451 -1.4124 -0.4032  0.9549
 1841SOL    HW2 5523   4.145   0.812   6.534 -0.4278 -0.3729 -0.4934
 1842SOL     OW 5524   0.638   0.664   9.180 -0.4824  0.5517 -0.3886
 1842SOL    HW1 5525   0.624   0.758   9.193  1.3833  0.8757 -0.5501
 1842SOL    HW2 5526   0.641   0.627   9.268 -0.8524  0.6941 -0.3155
 1843SOL     OW 5527   2.589   1.769   9.441 -0.2809  0.3175 -0.0150
 1843SOL    HW1 5528   2.653   1.802   9.379 -1.3780  0.3683 -1.1635
 1843SOL    HW2 5529   2.637   1.758   9.523  0.5263  3.0799 -0.0424
 1844SOL     OW 5530   2.057   0.887   7.828 -0.0350  0.0550 -0.0590
 1844SOL    HW1 5531   2.085   0.892   7.920 -0.8657 -1.6170  0.3174
 1844SOL    HW2 5532   2.089   0.802   7.798 -0.0032  0.4739 -1.2599
 1845SOL     OW 5533   1.850   0.060   6.205  0.0935  0.4650 -0.0560
 1845SOL    HW1 5534   1.882   0.122   6.271  0.0467 -0.0932  0.4968
 1845SOL    HW2 5535   1.913  -0.012   6.207  0.3143  0.6183 -0.9103
 1846SOL     OW 5536   2.290   0.759   8.816  0.3071  0.3965  0.1121
 1846SOL    HW1 5537   2.325   0.702   8.748  2.7680  1.8593  0.0476
 1846SOL    HW2 5538   2.213   0.713   8.849  1.5534 -2.4102 -0.6711
 1847SOL     OW 5539   0.568   1.320   6.633 -0.2158 -0.7754  0.2470
 1847SOL    HW1 5540   0.615   1.238   6.649 -0.9388 -1.2405  0.0311
 1847SOL    HW2 5541   0.635   1.388   6.643  0.8351 -1.4969 -1.4055
 1848SOL     OW 5542   4.419   0.769  10.001 -0.1116  0.6044  0.3693
 1848SOL    HW1 5543   4.363   0.697  10.029 -0.8154  2.1328  3.1879
 1848SOL    HW2 5544   4.384   0.794   9.915  0.7113 -2.8579 -1.1506
 1849SOL     OW 5545   0.903   2.684   4.632 -0.3602  0.5002 -0.1373
 1849SOL    HW1 5546   0.889   2.593   4.658 -0.5764  1.0706  1.8550
 1849SOL    HW2 5547   0.985   2.682   4.581  0.1400 -0.6641  0.6801
 1850SOL     OW 5548   0.650   0.361   8.818  0.2896 -0.5060 -0.1797
 1850SOL    HW1 5549   0.647   0.426   8.747 -2.0977  0.0692  0.3805
 1850SOL    HW2 5550   0.592   0.291   8.789  0.0092 -0.6877  0.8107
 1851SOL     OW 5551   4.785   1.332   9.325 -0.2274 -0.3145 -0.1206
 1851SOL    HW1 5552   4.763   1.322   9.418 -0.1500 -3.0927 -0.3199
 1851SOL    HW2 5553   4.836   1.254   9.304 -1.3102 -0.3856 -2.8160
 1852SOL     OW 5554   2.197   2.928   6.693  1.0066  0.4704  0.3709
 1852SOL    HW1 5555   2.172   2.854   6.637  0.7490  0.0427  1.0385
 1852SOL    HW2 5556   2.273   2.896   6.741  0.5065  0.3965  1.1357
 1853SOL     OW 5557   3.234   0.713   8.379 -0.4401  0.0214 -0.0113
 1853SOL    HW1 5558   3.198   0.652   8.443  0.7319  0.4387  1.0727
 1853SOL    HW2 5559   3.329   0.708   8.392 -0.2652  1.2106 -0.7044
 1854SOL     OW 5560   3.210   2.494   6.347  0.4431 -0.2519 -0.4300
 1854SOL    HW1 5561   3.248   2.522   6.263  0.2960  0.6040 -0.2200
 1854SOL    HW2 5562   3.133   2.442   6.323 -0.3553  1.0793 -0.8237
 1855SOL     OW 5563   0.832   0.289   4.867  0.1767  0.1130 -0.0870
 1855SOL    HW1 5564   0.753   0.335   4.895 -0.2582 -0.3170 -0.5798
 1855SOL    HW2 5565   0.821   0.277   4.773  1.0641  0.4843 -0.2525
 1856SOL     OW 5566   0.518   0.063   5.661 -0.1942 -0.0677 -0.9337
 1856SOL    HW1 5567   0.477   0.069   5.575  0.8404  0.0765 -1.4390
 1856SOL    HW2 5568   0.606   0.030   5.643  0.0923  0.1249  0.0543
 1857SOL     OW 5569   1.224   1.168   7.261 -0.0692 -0.1839  0.6830
 1857SOL    HW1 5570   1.313   1.160   7.296 -0.2554 -1.2659  0.9598
 1857SOL    HW2 5571   1.172   1.200   7.334  0.0732  0.3814  0.5409
 1858SOL     OW 5572   0.930   0.057   9.402  0.2416  0.1455  0.4699
 1858SOL    HW1 5573   1.009   0.019   9.362 -1.5415 -1.5492 -1.6873
 1858SOL    HW2 5574   0.964   0.110   9.475  3.5938  1.5911 -1.8383
 1859SOL     OW 5575   3.005   3.802   7.715  0.2289  0.0730 -0.4825
 1859SOL    HW1 5576   3.061   3.727   7.735 -0.2256 -0.7644 -2.2254
 1859SOL    HW2 5577   2.924   3.785   7.765  0.4937 -0.0823 -0.0994
 1860SOL     OW 5578   3.198   0.210   6.927  0.4391 -0.0958  0.1397
 1860SOL    HW1 5579   3.142   0.134   6.909  0.0666  0.6074 -1.9736
 1860SOL    HW2 5580   3.283   0.186   6.890 -0.5367  1.6705 -3.8372
 1861SOL     OW 5581   0.038   3.285   5.597 -0.2797 -0.1054  0.5396
 1861SOL    HW1 5582   0.074   3.320   5.516 -2.2082  0.3814 -0.1688
 1861SOL    HW2 5583   0.065   3.193   5.598  2.8357  0.6900  1.2340
 1862SOL     OW 5584   3.390   4.469   7.740 -0.3475  0.1629  0.4478
 1862SOL    HW1 5585   3.469   4.480   7.794  1.5555  0.2106 -2.1516
 1862SOL    HW2 5586   3.365   4.558   7.716 -0.0789  0.0770 -0.1783
 1863SOL     OW 5587   3.531   0.698   8.505  0.2441 -0.1969  0.4439
 1863SOL    HW1 5588   3.483   0.773   8.539  0.6294 -0.1828  0.9797
 1863SOL    HW2 5589   3.475   0.623   8.524  0.4850 -0.1996  1.2148
 1864SOL     OW 5590   3.984   1.046   7.937 -0.7941 -0.1833  0.5809
 1864SOL    HW1 5591   4.064   1.093   7.963  1.3545 -1.9750 -2.1079
 1864SOL    HW2 5592   3.934   1.111   7.887  0.6465  0.1795 -0.4978
 1865SOL     OW 5593   4.122   2.016   9.760  0.5118 -0.6495 -0.0633
 1865SOL    HW1 5594   4.107   2.022   9.666 -0.5628  1.2185  0.1788
 1865SOL    HW2 5595   4.216   2.003   9.768  1.4012  3.4681 -1.4015
 1866SOL     OW 5596   3.339   0.097   5.453 -0.1819 -0.0539 -0.2280
 1866SOL    HW1 5597   3.264   0.037   5.453  0.5836 -1.0396 -1.1384
 1866SOL    HW2 5598   3.363   0.104   5.546 -1.7368  0.7544  0.1594
 1867SOL     OW 5599   2.102   0.576   7.678 -0.2543  0.3196  0.2512
 1867SOL    HW1 5600   2.040   0.566   7.606  0.5029 -1.2816 -0.2341
 1867SOL    HW2 5601   2.173   0.515   7.657 -0.2380 -0.5920  2.5971
 1868SOL     OW 5602   3.409   2.906   6.365 -0.4738  0.6134 -0.3559
 1868SOL    HW1 5603   3.403   2.996   6.332  2.3796  0.7459 -0.7222
 1868SOL    HW2 5604   3.359   2.907   6.446  0.2725  2.8096  0.1499
 1869SOL     OW 5605   2.916   0.500   8.266  0.0633 -0.0590 -0.4189
 1869SOL    HW1 5606   3.009   0.476   8.270  0.4984  1.7389  1.5422
 1869SOL    HW2 5607   2.870   0.418   8.284  1.3499 -0.4779  1.2281
 1870SOL     OW 5608   1.219   1.048   6.475  0.1688  0.4671 -0.5698
 1870SOL    HW1 5609   1.258   1.122   6.521  0.7676  0.7269 -1.4608
 1870SOL    HW2 5610   1.238   0.972   6.530 -0.9361  1.0275  0.6376
 1871SOL     OW 5611   1.275   2.050   8.089  0.5114  0.2067  0.0893
 1871SOL    HW1 5612   1.259   1.996   8.166 -0.1095 -0.5697 -0.5694
 1871SOL    HW2 5613   1.367   2.075   8.096  1.0541 -1.6383 -0.0143
 1872SOL     OW 5614   3.186   4.636   7.595 -0.1235 -0.3360 -0.0927
 1872SOL    HW1 5615   3.244   4.635   7.518  0.7749 -1.0387  0.5649
 1872SOL    HW2 5616   3.238   4.680   7.662 -1.4267  1.5266 -0.2535
 1873SOL     OW 5617   3.545   4.079   7.188  0.4425 -0.0108 -0.2633
 1873SOL    HW1 5618   3.461   4.117   7.214 -1.0312 -0.2631 -3.9519
 1873SOL    HW2 5619   3.522   3.993   7.151  2.3020 -0.1383 -1.2534
 1874SOL     OW 5620   1.394   2.539   9.063  0.3960  0.2390 -0.7738
 1874SOL    HW1 5621   1.409   2.633   9.054  0.9215  0.4400  1.5317
 1874SOL    HW2 5622   1.327   2.532   9.131  2.9658 -1.0627  1.8260
 1875SOL     OW 5623   3.688   0.735   9.809  0.4301  0.3945 -0.1429
 1875SOL    HW1 5624   3.687   0.827   9.838  2.0299  0.5107 -0.3759
 1875SOL    HW2 5625   3.596   0.707   9.816  0.3820  0.9435  3.3201
 1876SOL     OW 5626   4.481   4.864   7.893  0.0526 -0.8604  0.9516
 1876SOL    HW1 5627   4.456   4.950   7.861 -0.8228 -1.8280 -1.1668
 1876SOL    HW2 5628   4.572   4.854   7.863  0.2145 -0.6262  1.3520
 1877SOL     OW 5629   1.257   1.188   8.577  0.6750  0.1866 -0.0491
 1877SOL    HW1 5630   1.345   1.152   8.589  0.6620  0.5759  1.4915
 1877SOL    HW2 5631   1.199   1.117   8.605  0.5248  0.1395 -0.4874
 1878SOL     OW 5632   1.994   3.989  10.127 -0.7481 -0.1310 -0.0021
 1878SOL    HW1 5633   1.964   3.917  10.183  0.2429 -1.6922 -1.3966
 1878SOL    HW2 5634   2.070   4.025  10.173  0.8279 -2.2040 -0.8260
 1879SOL     OW 5635   2.113   0.951   6.699  0.3087  0.3664  0.2935
 1879SOL    HW1 5636   2.197   0.994   6.715 -0.5125  1.7686  1.0463
 1879SOL    HW2 5637   2.048   1.012   6.734 -0.9532 -1.3359  1.0508
 1880SOL     OW 5638   1.484   4.735   7.608 -0.6302  0.5339  0.3081
 1880SOL    HW1 5639   1.517   4.790   7.537 -0.7610  1.3129  0.8443
 1880SOL    HW2 5640   1.547   4.663   7.614 -0.5041  0.5645 -0.4497
 1881SOL     OW 5641   0.032   0.209   6.661  0.1998  0.1553  0.4613
 1881SOL    HW1 5642  -0.042   0.201   6.721  0.1439  1.4228  0.5941
 1881SOL    HW2 5643   0.056   0.119   6.640 -1.1766 -0.2851  0.6621
 1882SOL     OW 5644   3.944   2.872   8.081  0.3337  0.6071  0.6186
 1882SOL    HW1 5645   3.872   2.846   8.023 -0.2252  1.3727  0.9624
 1882SOL    HW2 5646   4.022   2.833   8.040 -0.3859 -1.1222  0.8184
 1883SOL     OW 5647   0.682   1.010   8.123  0.0395 -0.4175 -0.1308
 1883SOL    HW1 5648   0.598   1.008   8.078 -0.5887 -1.4507  1.0227
 1883SOL    HW2 5649   0.699   1.103   8.138 -0.8141 -0.1863 -0.5322
 1884SOL     OW 5650   1.280   2.875   9.689  0.8118  0.0295  0.1857
 1884SOL    HW1 5651   1.347   2.912   9.746  0.6949 -0.5135  0.6870
 1884SOL    HW2 5652   1.198   2.914   9.721  0.5786 -1.2950  1.2872
 1885SOL     OW 5653   2.864   1.977   5.662  0.5388 -0.0330 -1.0538
 1885SOL    HW1 5654   2.857   1.910   5.729  1.7420 -0.2274 -1.1052
 1885SOL    HW2 5655   2.818   1.940   5.586  1.7929 -1.1385 -1.3215
 1886SOL     OW 5656   3.640   3.766   7.298  0.4748 -0.8704  0.0395
 1886SOL    HW1 5657   3.687   3.828   7.353  1.3616 -2.1668  0.7872
 1886SOL    HW2 5658   3.672   3.680   7.325 -1.4437 -1.7365 -0.2703
 1887SOL     OW 5659   3.381   0.476   7.463  0.4859  0.8113 -0.0354
 1887SOL    HW1 5660   3.308   0.484   7.402  0.0801 -0.2429  0.2899
 1887SOL    HW2 5661   3.368   0.391   7.505  1.8529  0.6375  0.0882
 1888SOL     OW 5662   2.079   0.448   8.032 -0.0599 -0.5996  0.3912
 1888SOL    HW1 5663   2.142   0.493   8.090  0.7855  0.4427 -1.2626
 1888SOL    HW2 5664   2.064   0.364   8.074  1.0596 -0.1603  1.7650
 1889SOL     OW 5665   0.803   1.818   7.624 -0.2863  0.1802  0.5751
 1889SOL    HW1 5666   0.881   1.764   7.626 -0.4828 -0.1222  0.1333
 1889SOL    HW2 5667   0.836   1.908   7.633  0.2098  0.1516 -0.7982
 1890SOL     OW 5668   2.870   2.062   7.142  0.3658 -0.1314  0.1039
 1890SOL    HW1 5669   2.866   2.121   7.066 -1.6070 -0.8771 -0.4192
 1890SOL    HW2 5670   2.897   1.978   7.105  0.7852 -0.1677  0.4768
 1891SOL     OW 5671   1.600   4.647   9.190  0.9308  0.6579  0.2237
 1891SOL    HW1 5672   1.674   4.697   9.156  2.2405 -1.9190 -1.0202
 1891SOL    HW2 5673   1.629   4.618   9.277  0.7182  0.9398  0.3910
 1892SOL     OW 5674   2.302   1.212   9.419 -0.7624  0.2223 -0.5254
 1892SOL    HW1 5675   2.236   1.153   9.381 -1.2751 -0.3008  1.1158
 1892SOL    HW2 5676   2.383   1.161   9.417 -0.3663  0.8502 -2.5062
 1893SOL     OW 5677   3.326   4.309   7.103 -0.1767  0.5399  0.3323
 1893SOL    HW1 5678   3.246   4.258   7.091  1.3441 -1.8267 -0.4159
 1893SOL    HW2 5679   3.363   4.275   7.185  0.9687  0.2760 -0.2816
 1894SOL     OW 5680   1.384   1.762   6.081 -0.0847 -0.5431  0.4249
 1894SOL    HW1 5681   1.403   1.705   6.007  0.9431 -0.7769  0.8456
 1894SOL    HW2 5682   1.371   1.701   6.154 -1.2756 -0.3242  0.4092
 1895SOL     OW 5683   4.753   2.119   8.144  0.7050  0.8505 -0.0974
 1895SOL    HW1 5684   4.754   2.187   8.076  1.2297 -1.0555 -2.1396
 1895SOL    HW2 5685   4.811   2.152   8.212  0.7654  2.5475 -0.9154
 1896SOL     OW 5686   1.511   1.128   8.628  0.1621  0.2655  0.5184
 1896SOL    HW1 5687   1.538   1.211   8.670  0.7967 -1.3396  3.6091
 1896SOL    HW2 5688   1.531   1.061   8.694  0.3943 -2.4816 -2.1449
 1897SOL     OW 5689   3.500   4.904   9.906 -0.0714 -0.2082 -0.3079
 1897SOL    HW1 5690   3.532   4.947   9.986 -1.9030  0.6739  0.0158
 1897SOL    HW2 5691   3.504   4.811   9.926  0.2166 -0.0294  0.5253
 1898SOL     OW 5692   4.184   1.497   7.452  0.0655 -0.1745 -1.1712
 1898SOL    HW1 5693   4.207   1.542   7.533 -1.2833 -0.9300 -0.3423
 1898SOL    HW2 5694   4.226   1.412   7.459 -1.5500 -0.9518 -0.3759
 1899SOL     OW 5695   0.552   4.830   8.996  0.2225 -0.3304 -0.1084
 1899SOL    HW1 5696   0.582   4.817   9.086  1.1551 -0.1724 -0.3839
 1899SOL    HW2 5697   0.540   4.925   8.989  0.9906 -0.2502 -0.4004
 1900SOL     OW 5698   3.947   3.495   7.135 -0.1651 -0.7985 -0.3050
 1900SOL    HW1 5699   3.866   3.481   7.086  0.2945  0.3147 -1.4379
 1900SOL    HW2 5700   3.919   3.499   7.227 -1.5102  0.2350 -0.7193
 1901SOL     OW 5701   2.941   2.928   7.429 -0.6772  0.6729 -1.2036
 1901SOL    HW1 5702   2.848   2.945   7.419 -0.4025  1.8253 -2.1083
 1901SOL    HW2 5703   2.983   2.994   7.373  0.6049 -1.2086 -2.5738
 1902SOL     OW 5704   1.628   4.503   6.885 -0.4793 -0.2779  0.3978
 1902SOL    HW1 5705   1.693   4.509   6.815 -1.7770  1.7680 -0.7234
 1902SOL    HW2 5706   1.585   4.419   6.871 -0.5900  0.0214 -1.1621
 1903SOL     OW 5707   1.321   4.066   8.321  1.3237 -0.0079  0.1675
 1903SOL    HW1 5708   1.278   4.045   8.404 -0.0905  0.2750 -0.4540
 1903SOL    HW2 5709   1.376   3.990   8.302  2.2564  0.2393  1.7066
 1904SOL     OW 5710   0.938   1.219   8.334  0.3061  0.3909  0.0682
 1904SOL    HW1 5711   0.917   1.177   8.250  0.0509  0.6057  0.0212
 1904SOL    HW2 5712   0.853   1.249   8.367  0.2622 -0.6232  0.9167
 1905SOL     OW 5713   3.529   0.800   5.472  0.3543 -0.5439  0.1826
 1905SOL    HW1 5714   3.608   0.763   5.432  0.9401 -0.9901  1.6492
 1905SOL    HW2 5715   3.458   0.746   5.439  0.9371 -1.5552  0.5300
 1906SOL     OW 5716   3.383   2.552   9.241 -0.0903  0.2356 -0.3234
 1906SOL    HW1 5717   3.341   2.538   9.156  0.6943  2.2054 -1.0868
 1906SOL    HW2 5718   3.437   2.474   9.253 -0.7227 -0.3886 -1.3130
 1907SOL     OW 5719   3.205   4.584  10.050  0.1527 -0.3063 -0.4397
 1907SOL    HW1 5720   3.294   4.614  10.029  0.8524 -0.5790  1.8924
 1907SOL    HW2 5721   3.218   4.509  10.107 -1.6094 -2.4873 -2.6999
 1908SOL     OW 5722   3.000   4.146   7.390 -0.3744  1.0108  0.1337
 1908SOL    HW1 5723   3.094   4.159   7.397 -0.1935 -0.0191 -0.1715
 1908SOL    HW2 5724   2.984   4.129   7.297 -0.8341  1.0147  0.2072
 1909SOL     OW 5725   1.340   2.414   8.495  0.2512 -0.2200 -0.5253
 1909SOL    HW1 5726   1.372   2.490   8.544  1.3214 -0.6996 -0.4398
 1909SOL    HW2 5727   1.380   2.339   8.539 -0.4175 -0.7999 -0.8923
 1910SOL     OW 5728   3.867   1.640   8.796 -0.1822  0.4922 -0.1063
 1910SOL    HW1 5729   3.831   1.577   8.858  0.8174 -0.6566 -0.6539
 1910SOL    HW2 5730   3.956   1.609   8.779 -0.5992  0.4399 -2.5323
 1911SOL     OW 5731   3.095   4.701   6.431  0.1067  0.1601  0.0980
 1911SOL    HW1 5732   3.187   4.689   6.404  0.6089 -0.4713  1.9212
 1911SOL    HW2 5733   3.044   4.666   6.358  1.3416  0.0712 -0.7483
 1912SOL     OW 5734   4.794   0.815   8.137 -0.1276  0.4958 -0.0955
 1912SOL    HW1 5735   4.719   0.826   8.079  0.2878 -2.2734 -1.3279
 1912SOL    HW2 5736   4.870   0.817   8.078  0.5150  0.1269  0.6964
 1913SOL     OW 5737   3.593   1.685   8.087  0.5311 -0.1179 -0.0961
 1913SOL    HW1 5738   3.645   1.633   8.025 -0.8141 -1.9894  0.2743
 1913SOL    HW2 5739   3.509   1.639   8.093 -0.2229  1.3423  1.3344
 1914SOL     OW 5740   2.605   1.006   9.561 -0.2512  1.0808 -0.1462
 1914SOL    HW1 5741   2.693   0.994   9.598 -0.3911  2.0252  0.5371
 1914SOL    HW2 5742   2.616   1.077   9.497 -0.6776  1.7878  0.5561
 1915SOL     OW 5743   0.813   3.913   6.751 -0.6642  0.6042 -0.4787
 1915SOL    HW1 5744   0.751   3.858   6.703 -1.0561 -0.4676  1.1830
 1915SOL    HW2 5745   0.875   3.943   6.685 -0.9342 -1.1395 -1.5684
 1916SOL     OW 5746   1.728   0.862   8.359  0.0385  0.1064 -0.0898
 1916SOL    HW1 5747   1.695   0.817   8.437  0.6626 -0.2196 -0.0144
 1916SOL    HW2 5748   1.654   0.916   8.331 -0.0072  0.6753  1.0591
 1917SOL     OW 5749   0.154   0.904   7.299  0.3334  0.6361 -0.0969
 1917SOL    HW1 5750   0.094   0.916   7.225 -0.3094  0.5910  0.4086
 1917SOL    HW2 5751   0.239   0.887   7.258 -0.0826  0.2561 -0.8270
 1918SOL     OW 5752   3.434   1.468   5.620 -0.4756  0.3624 -0.5525
 1918SOL    HW1 5753   3.449   1.473   5.525  0.6338  1.2208 -0.3584
 1918SOL    HW2 5754   3.522   1.459   5.657 -0.8178  0.9912  0.4396
 1919SOL     OW 5755   2.170   1.391   8.385  0.3813  0.5286 -0.4587
 1919SOL    HW1 5756   2.208   1.479   8.390  1.4591  0.1139 -0.9970
 1919SOL    HW2 5757   2.244   1.333   8.404 -0.0951 -0.2894 -1.0772
 1920SOL     OW 5758   3.487   1.229   7.163 -0.2328 -0.3300 -1.1801
 1920SOL    HW1 5759   3.443   1.175   7.229 -0.4943 -0.0115 -1.0918
 1920SOL    HW2 5760   3.509   1.168   7.093 -0.1545 -0.6307 -0.9003
 1921SOL     OW 5761   0.296   0.150   7.109 -0.2306  0.0990  0.4332
 1921SOL    HW1 5762   0.369   0.145   7.047  0.4646  0.5243  1.2059
 1921SOL    HW2 5763   0.219   0.129   7.056  0.5849 -1.7063 -0.1305
 1922SOL     OW 5764   4.741   0.183   8.315  0.2168 -0.0935  0.1005
 1922SOL    HW1 5765   4.745   0.276   8.291  0.4357  0.4059  1.9316
 1922SOL    HW2 5766   4.647   0.163   8.317  0.1631  0.1276 -0.1425
 1923SOL     OW 5767   2.414   0.344   9.847 -0.0156  0.1397 -0.3792
 1923SOL    HW1 5768   2.329   0.382   9.870  0.4558 -0.1259  2.1697
 1923SOL    HW2 5769   2.407   0.253   9.874  0.5515 -0.3216 -1.7157
 1924SOL     OW 5770   2.049   1.350   7.655  0.4507  0.1470 -0.2165
 1924SOL    HW1 5771   1.982   1.414   7.632  0.1835 -0.2103 -0.4497
 1924SOL    HW2 5772   2.092   1.386   7.732 -0.4655  0.0543  0.3518
 1925SOL     OW 5773   2.166   1.916   7.137 -0.0364  0.5991 -0.6941
 1925SOL    HW1 5774   2.176   1.822   7.148 -0.4124  0.5393 -0.8425
 1925SOL    HW2 5775   2.132   1.927   7.048 -1.0373  0.7964 -0.3049
 1926SOL     OW 5776   0.335   1.610   5.992  0.0669  0.7458  0.4534
 1926SOL    HW1 5777   0.252   1.565   6.010 -0.2857  0.7936 -0.8970
 1926SOL    HW2 5778   0.401   1.556   6.035 -0.7954  1.7355  3.1828
 1927SOL     OW 5779   3.275   2.975   8.369  0.4673  0.9909 -0.5552
 1927SOL    HW1 5780   3.183   2.998   8.382  0.6097  1.6273 -0.6220
 1927SOL    HW2 5781   3.273   2.907   8.302  0.1068  1.7643 -1.3514
 1928SOL     OW 5782   3.192   0.245  10.082  0.5200  0.0064 -0.1961
 1928SOL    HW1 5783   3.155   0.333  10.072  1.2011  0.4650  1.1317
 1928SOL    HW2 5784   3.285   0.256  10.060  0.6402 -0.3408  0.1391
 1929SOL     OW 5785   2.870   1.719   7.966 -0.2242 -0.0734 -0.0077
 1929SOL    HW1 5786   2.789   1.706   7.916 -0.5823 -0.4869  0.6665
 1929SOL    HW2 5787   2.875   1.814   7.978  0.3332  0.1302 -1.5638
 1930SOL     OW 5788   3.256   1.378   9.704  0.1505 -0.1855  0.1360
 1930SOL    HW1 5789   3.275   1.441   9.773 -1.6726 -0.6759  1.1763
 1930SOL    HW2 5790   3.197   1.315   9.746 -1.9085  0.1028 -2.1302
 1931SOL     OW 5791   3.563   1.588   8.725 -0.2809 -0.5048  0.2325
 1931SOL    HW1 5792   3.626   1.577   8.654 -0.0915 -1.5671  0.5467
 1931SOL    HW2 5793   3.488   1.630   8.683 -0.3604 -1.5350 -0.7242
 1932SOL     OW 5794   2.600   2.072   7.479 -0.6705  0.1478  0.2548
 1932SOL    HW1 5795   2.589   2.014   7.554  1.6787  1.8006  2.0290
 1932SOL    HW2 5796   2.593   2.161   7.515 -0.6532  1.0217 -1.7161
 1933SOL     OW 5797   3.073   2.015   7.603  0.0714 -0.4424 -0.7600
 1933SOL    HW1 5798   3.011   1.999   7.532 -0.3933 -1.4711 -0.1504
 1933SOL    HW2 5799   3.114   1.930   7.619  2.8825  0.5112 -2.2289
 1934SOL     OW 5800   2.459   4.245   9.673  0.4027 -0.1646 -0.3097
 1934SOL    HW1 5801   2.450   4.334   9.640 -0.5025  0.3427  1.2075
 1934SOL    HW2 5802   2.545   4.243   9.716 -0.1389  0.4177  0.8456
 1935SOL     OW 5803   1.521   1.426   7.603  0.1247  0.8405 -0.1990
 1935SOL    HW1 5804   1.583   1.360   7.635  1.2555  2.1252  0.3353
 1935SOL    HW2 5805   1.456   1.375   7.554  0.1936 -0.8168  1.3302
 1936SOL     OW 5806   2.366   0.752   7.841  0.4485 -0.0389 -0.3741
 1936SOL    HW1 5807   2.456   0.724   7.823 -0.5275 -3.2445 -0.9216
 1936SOL    HW2 5808   2.334   0.786   7.758  0.4374 -1.2419 -0.8889
 1937SOL     OW 5809   3.573   0.255   7.890  0.0602  0.0784  0.0427
 1937SOL    HW1 5810   3.589   0.303   7.971  0.6602 -0.9301  0.5593
 1937SOL    HW2 5811   3.647   0.278   7.833 -1.1209  1.9289 -0.8170
 1938SOL     OW 5812   0.272   0.934   5.680 -0.0340 -0.0208  0.4055
 1938SOL    HW1 5813   0.225   0.851   5.681  0.1236 -0.3567 -3.7091
 1938SOL    HW2 5814   0.363   0.910   5.662  0.0680  0.9605 -0.5022
 1939SOL     OW 5815   0.233   1.766   7.224  0.0848 -0.3137  0.5943
 1939SOL    HW1 5816   0.305   1.775   7.287  1.2069  0.3347 -0.7401
 1939SOL    HW2 5817   0.275   1.736   7.144 -0.9674  1.0798 -0.5319
 1940SOL     OW 5818   1.073   0.740   7.836  0.2945  0.2762  0.1443
 1940SOL    HW1 5819   1.068   0.790   7.918  0.1266 -0.0120  0.3128
 1940SOL    HW2 5820   0.989   0.754   7.794  0.5301  0.7528 -0.1771
 1941SOL     OW 5821   2.932   4.945   6.428  0.2311  0.4813 -0.6378
 1941SOL    HW1 5822   2.968   4.864   6.463 -0.0228  0.1181 -1.2008
 1941SOL    HW2 5823   2.976   4.958   6.344  0.4856  1.0863 -0.4190
 1942SOL     OW 5824   2.047   0.027   5.581 -0.1633 -0.0276 -0.4414
 1942SOL    HW1 5825   2.004   0.112   5.586 -2.2685 -0.9679 -1.3603
 1942SOL    HW2 5826   1.978  -0.033   5.555  1.2057 -2.0894  0.4240
 1943SOL     OW 5827   4.566   4.731   9.513  0.4159  0.3814  0.0991
 1943SOL    HW1 5828   4.519   4.683   9.580  1.5220 -1.9772 -0.6763
 1943SOL    HW2 5829   4.546   4.684   9.432  1.5056  1.2985 -0.7348
 1944SOL     OW 5830   2.590   1.304   8.107  0.8268  0.2582  0.3359
 1944SOL    HW1 5831   2.612   1.251   8.183  0.4842 -0.6162 -0.1603
 1944SOL    HW2 5832   2.505   1.271   8.078  0.8544  0.7148 -0.3073
 1945SOL     OW 5833   2.477   0.755   9.614 -0.5449 -0.4975  0.4043
 1945SOL    HW1 5834   2.519   0.840   9.611 -0.4650 -0.5295  0.5739
 1945SOL    HW2 5835   2.487   0.719   9.526  0.0431 -0.6282  0.5222
 1946SOL     OW 5836   0.005   0.331   6.386  0.4469 -0.2647 -0.4839
 1946SOL    HW1 5837   0.025   0.320   6.478  0.4077 -0.5872 -0.5109
 1946SOL    HW2 5838   0.077   0.384   6.351  1.0824 -1.1283 -0.5130
 1947SOL     OW 5839   3.033   0.308   9.509 -0.1950 -0.2480 -0.0585
 1947SOL    HW1 5840   2.956   0.345   9.552 -0.1257  1.0246 -0.9506
 1947SOL    HW2 5841   3.041   0.219   9.544 -1.7738 -0.2283  0.4182
 1948SOL     OW 5842   2.340   1.003   7.358  0.1331  0.1939 -0.3570
 1948SOL    HW1 5843   2.355   1.006   7.264 -0.7814  1.4227 -0.4755
 1948SOL    HW2 5844   2.327   0.910   7.377  1.0284 -0.1437 -1.3157
 1949SOL     OW 5845   4.755   2.054   6.731  0.6065  0.1062  0.2196
 1949SOL    HW1 5846   4.671   2.070   6.775  0.5223  0.6166 -0.1166
 1949SOL    HW2 5847   4.789   2.141   6.711  0.8482 -0.1116 -0.3420
 1950SOL     OW 5848   2.717   4.128   6.825  0.1822  0.6271  0.0060
 1950SOL    HW1 5849   2.717   4.203   6.766 -2.1000 -0.9272 -2.1556
 1950SOL    HW2 5850   2.659   4.153   6.897  0.9096  1.5650  0.2854
 1951SOL     OW 5851   1.797   2.083   9.526  0.2686  0.2606  0.3340
 1951SOL    HW1 5852   1.745   2.012   9.488  1.4961 -0.6732  0.3442
 1951SOL    HW2 5853   1.854   2.041   9.589  2.7486  0.8176 -1.3584
 1952SOL     OW 5854   2.525   1.150   6.408  0.9416 -0.4794 -0.0855
 1952SOL    HW1 5855   2.526   1.069   6.356 -0.1686  0.7320 -2.1427
 1952SOL    HW2 5856   2.571   1.214   6.353  1.6554  0.3681  1.4227
 1953SOL     OW 5857   3.025   0.206   9.146  0.4404 -0.3611  0.0387
 1953SOL    HW1 5858   2.934   0.228   9.166  0.6264 -0.8220  1.5224
 1953SOL    HW2 5859   3.073   0.286   9.165  0.5498 -0.6354  0.9377
 1954SOL     OW 5860   2.986   4.484   9.624  0.3207 -0.2617 -0.5817
 1954SOL    HW1 5861   2.933   4.461   9.700 -0.4244  0.2095 -0.9471
 1954SOL    HW2 5862   3.034   4.562   9.651  0.4120 -0.3721 -0.4306
 1955SOL     OW 5863   4.620   1.725   8.677  0.3380  0.2351 -0.2110
 1955SOL    HW1 5864   4.704   1.707   8.720  0.1906  0.0758  0.0128
 1955SOL    HW2 5865   4.555   1.684   8.734  0.2573 -1.6010 -1.5128
 1956SOL     OW 5866   4.937   2.198   6.952  0.4545  0.0558 -0.6427
 1956SOL    HW1 5867   4.922   2.292   6.949  0.4337  0.0759 -0.0133
 1956SOL    HW2 5868   4.932   2.170   6.860 -2.2476  0.2402 -0.6445
 1957SOL     OW 5869   3.811   4.876   7.901 -0.3276 -0.1014  0.5858
 1957SOL    HW1 5870   3.813   4.948   7.965 -0.2453 -0.2207  0.7185
 1957SOL    HW2 5871   3.889   4.825   7.920 -0.1862 -0.0120  0.2415
 1958SOL     OW 5872   3.309   2.553   6.950 -0.7912  0.0480  0.6743
 1958SOL    HW1 5873   3.302   2.546   7.045  0.6638  0.5677  0.8504
 1958SOL    HW2 5874   3.221   2.575   6.920 -0.7033  2.7939  2.1801
 1959SOL     OW 5875   3.967   1.014   9.470 -0.7759  0.3019 -0.4425
 1959SOL    HW1 5876   4.033   0.945   9.484 -0.2198  0.3800 -2.3141
 1959SOL    HW2 5877   3.885   0.975   9.498 -0.2167 -0.4838  0.1639
 1960SOL     OW 5878   0.050   2.065   9.582 -0.0533  0.6810  0.2890
 1960SOL    HW1 5879   0.009   2.046   9.666 -1.1516  0.2649 -0.3312
 1960SOL    HW2 5880   0.116   1.997   9.572  0.5393  1.1069  1.0929
 1961SOL     OW 5881   1.332   1.237   9.894 -0.0318  0.6879  0.1730
 1961SOL    HW1 5882   1.339   1.146   9.923 -0.1845  0.7254  0.3280
 1961SOL    HW2 5883   1.238   1.252   9.885 -0.0319  0.9942  0.6683
 1962SOL     OW 5884   0.635   4.216   9.982 -0.3971 -0.8741  0.0506
 1962SOL    HW1 5885   0.719   4.261   9.990 -1.1641  0.7234 -0.4742
 1962SOL    HW2 5886   0.650   4.149   9.916  0.1516  0.2743 -1.0446
 1963SOL     OW 5887   1.773   2.223   8.777 -1.3723  0.3636  0.0196
 1963SOL    HW1 5888   1.716   2.162   8.824 -2.2681  1.5951  0.5629
 1963SOL    HW2 5889   1.757   2.308   8.818 -1.0028  1.1907 -1.4826
 1964SOL     OW 5890   3.240   0.835   9.366 -0.4243 -0.0799 -0.2371
 1964SOL    HW1 5891   3.210   0.759   9.416 -2.4057  1.4697  1.0664
 1964SOL    HW2 5892   3.230   0.809   9.274 -2.2428 -1.0119  0.1715
 1965SOL     OW 5893   3.431   1.121   9.783  0.7337 -0.4827  0.5306
 1965SOL    HW1 5894   3.366   1.051   9.780  0.3980 -0.2117  1.2240
 1965SOL    HW2 5895   3.385   1.199   9.750  0.5443 -0.1783  1.4802
 1966SOL     OW 5896   3.357   4.853   7.250  0.3447 -0.5087  0.1548
 1966SOL    HW1 5897   3.335   4.853   7.157 -0.1088 -0.2220  0.2596
 1966SOL    HW2 5898   3.278   4.884   7.294  0.1489 -1.7815  0.7442
 1967SOL     OW 5899   2.794   1.064   9.226  0.5296  0.2157 -0.4606
 1967SOL    HW1 5900   2.740   1.131   9.267 -1.8846 -0.3780 -2.4020
 1967SOL    HW2 5901   2.802   1.093   9.135  1.7770 -0.7715 -0.6894
 1968SOL     OW 5902   0.307   2.098   9.352  0.2066  0.2284  0.0295
 1968SOL    HW1 5903   0.247   2.072   9.422 -1.3139  0.3008 -1.2050
 1968SOL    HW2 5904   0.394   2.093   9.392 -0.2822 -3.0554  0.9723
 1969SOL     OW 5905   3.651   0.719   9.453 -0.2619  0.2287 -0.1295
 1969SOL    HW1 5906   3.597   0.644   9.425 -0.7570  0.5165  0.0478
 1969SOL    HW2 5907   3.741   0.691   9.435 -0.4725 -0.2212 -0.5190
 1970SOL     OW 5908   0.028   4.270   9.246  0.5879 -0.1295  0.0078
 1970SOL    HW1 5909  -0.020   4.349   9.271 -1.2839 -1.9034  2.4855
 1970SOL    HW2 5910   0.117   4.301   9.228 -0.5222  2.7675 -1.1467
 1971SOL     OW 5911   3.418   4.188   9.296 -0.3618 -0.1324  0.7364
 1971SOL    HW1 5912   3.446   4.099   9.276  2.7663  0.5243  1.6348
 1971SOL    HW2 5913   3.402   4.228   9.211 -2.6680 -1.6791  0.3332
 1972SOL     OW 5914   0.537   3.507   7.775  0.3148 -0.2366 -0.3075
 1972SOL    HW1 5915   0.554   3.471   7.862  1.6312  1.0034 -0.0110
 1972SOL    HW2 5916   0.523   3.600   7.789  0.2179 -0.0744 -1.3818
 1973SOL     OW 5917   4.874   0.230   8.532 -0.6522  0.0569 -0.3012
 1973SOL    HW1 5918   4.860   0.147   8.578 -1.4864  0.8266  0.8760
 1973SOL    HW2 5919   4.821   0.223   8.453  1.6796 -1.7451 -1.8302
 1974SOL     OW 5920   3.143   4.816   8.335  0.4623  0.3820  0.6696
 1974SOL    HW1 5921   3.167   4.773   8.418 -0.1962  0.4482  0.8992
 1974SOL    HW2 5922   3.081   4.755   8.294  2.8990 -1.0633 -1.1558
 1975SOL     OW 5923   2.130   4.851  10.420  0.1422  0.5939  0.2380
 1975SOL    HW1 5924   2.211   4.871  10.373  0.5350 -1.7642 -0.2016
 1975SOL    HW2 5925   2.140   4.895  10.505  2.0326  0.1146  0.2987
 1976SOL     OW 5926   3.085   0.821   9.108 -0.3073 -0.8752 -0.1950
 1976SOL    HW1 5927   3.048   0.869   9.183  1.2379 -0.0578  0.0747
 1976SOL    HW2 5928   3.149   0.880   9.071  2.4987 -3.0821  0.7973
 1977SOL     OW 5929   3.246   3.750   9.692 -0.6956  0.4420  0.3388
 1977SOL    HW1 5930   3.205   3.791   9.616 -0.5835  1.6595  0.9087
 1977SOL    HW2 5931   3.314   3.693   9.654 -2.4982 -1.2149 -0.5800
 1978SOL     OW 5932   2.820   0.780   7.275  0.3402 -0.4456 -0.3903
 1978SOL    HW1 5933   2.779   0.700   7.307 -2.4360  0.8323 -0.5076
 1978SOL    HW2 5934   2.766   0.807   7.200  2.1159  0.7434 -1.3272
 1979SOL     OW 5935   4.984   1.109   8.059 -0.2586 -0.6407  0.3800
 1979SOL    HW1 5936   5.013   1.199   8.043  0.3896 -0.8571  0.3042
 1979SOL    HW2 5937   4.918   1.117   8.128  1.6578 -0.3523  2.2830
 1980SOL     OW 5938   2.327   2.013  10.033  0.1710  0.4698  0.0749
 1980SOL    HW1 5939   2.422   2.019  10.046  0.1457  0.9806  0.0260
 1980SOL    HW2 5940   2.303   1.928  10.071  0.5102  0.7236  0.8794
 1981SOL     OW 5941   3.426   0.627   9.249  0.5363 -0.3968 -0.0975
 1981SOL    HW1 5942   3.482   0.654   9.175 -1.0833  0.3582 -1.0975
 1981SOL    HW2 5943   3.353   0.582   9.208 -0.6567  0.4863  0.9932
 1982SOL     OW 5944   4.253   0.696   5.715  0.2631 -0.0941 -0.3130
 1982SOL    HW1 5945   4.225   0.678   5.625 -0.6596  1.0461 -0.2800
 1982SOL    HW2 5946   4.176   0.733   5.757  0.9685  0.3130  0.6662
 1983SOL     OW 5947   3.963   0.421  10.059 -0.6559 -0.2182 -0.3598
 1983SOL    HW1 5948   4.004   0.436  10.144 -0.7560  0.8122 -0.4750
 1983SOL    HW2 5949   4.031   0.383  10.005 -0.4247 -0.3429  0.0190
 1984SOL     OW 5950   1.199   4.657   8.723 -0.4183  0.0797 -0.3706
 1984SOL    HW1 5951   1.141   4.641   8.797  1.1610 -1.7480  0.5660
 1984SOL    HW2 5952   1.165   4.599   8.654 -0.1712 -0.4145 -0.0822
 1985SOL     OW 5953   3.867   0.885   8.790 -0.2818 -0.0405 -0.1323
 1985SOL    HW1 5954   3.835   0.956   8.735  1.9025  2.4783  1.5772
 1985SOL    HW2 5955   3.789   0.836   8.815 -1.6301  0.5272 -2.9555
 1986SOL     OW 5956   0.331   0.592   7.656 -0.4041 -0.3218  0.1573
 1986SOL    HW1 5957   0.419   0.557   7.647 -0.2105  0.1892  0.0571
 1986SOL    HW2 5958   0.296   0.591   7.567 -0.3279 -0.0736  0.1249
 1987SOL     OW 5959   2.799   4.332  10.095  0.1076 -0.3362  0.1350
 1987SOL    HW1 5960   2.708   4.358  10.110 -0.1227 -0.3279 -1.1575
 1987SOL    HW2 5961   2.842   4.413  10.068  0.8909 -0.0014  2.1996
 1988SOL     OW 5962   4.789   1.176   6.903  0.3848  0.1555  0.1401
 1988SOL    HW1 5963   4.863   1.129   6.863 -0.0574 -0.6121  0.2099
 1988SOL    HW2 5964   4.809   1.178   6.996 -0.0009 -0.6479  0.2455
 1989SOL     OW 5965   2.436   4.347  10.147 -0.3635  0.4354 -0.0084
 1989SOL    HW1 5966   2.426   4.267  10.096  0.8252 -0.0575  0.4891
 1989SOL    HW2 5967   2.347   4.370  10.174 -0.8341 -0.1066 -1.0585
 1990SOL     OW 5968   2.305   4.164   9.252 -0.1625 -0.3668  0.1577
 1990SOL    HW1 5969   2.363   4.177   9.327  0.0770 -3.8789  0.7846
 1990SOL    HW2 5970   2.361   4.124   9.185 -1.2397 -1.3007 -0.2274
 1991SOL     OW 5971   0.237   0.546   9.805 -0.3872  0.5240  0.2325
 1991SOL    HW1 5972   0.269   0.460   9.777 -2.3002 -0.1205 -0.1570
 1991SOL    HW2 5973   0.291   0.569   9.880 -0.2973 -1.3800  0.8093
 1992SOL     OW 5974   4.395   1.209   9.434  0.0609  0.0369 -0.5525
 1992SOL    HW1 5975   4.410   1.150   9.361 -0.2888 -0.4959 -0.1995
 1992SOL    HW2 5976   4.300   1.216   9.441  0.0947  1.0424 -0.9055
 1993SOL     OW 5977   3.852   3.815   8.495 -0.4222 -0.3852 -0.2561
 1993SOL    HW1 5978   3.933   3.769   8.519  0.7952  2.2322  1.1940
 1993SOL    HW2 5979   3.790   3.792   8.564  0.5288  0.8914  1.0877
 1994SOL     OW 5980   2.503   3.032   8.968  0.1424  0.1315  0.5294
 1994SOL    HW1 5981   2.412   3.002   8.956  0.0838  0.1443  0.9488
 1994SOL    HW2 5982   2.539   2.973   9.033  1.6270 -2.3975 -2.3273
 1995SOL     OW 5983   2.813   3.639  10.147 -0.1689 -0.2228  0.0651
 1995SOL    HW1 5984   2.862   3.699  10.203  0.1391 -0.5553  0.1545
 1995SOL    HW2 5985   2.869   3.562  10.139 -0.1307 -0.1161 -0.8392
 1996SOL     OW 5986   3.927   1.257   7.808  0.0655  0.0583 -0.0893
 1996SOL    HW1 5987   3.898   1.300   7.728  0.1035 -0.8545 -0.6042
 1996SOL    HW2 5988   3.998   1.313   7.840  1.8226 -0.8666 -2.0935
 1997SOL     OW 5989   1.227   4.939   7.297  1.0574  0.5809 -0.7954
 1997SOL    HW1 5990   1.153   4.995   7.320  0.5954 -0.3927  0.1382
 1997SOL    HW2 5991   1.302   4.998   7.297  0.5782  1.2150  0.1351
 1998SOL     OW 5992   3.065   3.691   9.437 -0.1807 -0.0936 -0.4542
 1998SOL    HW1 5993   3.072   3.598   9.458 -0.5381 -0.1699 -0.6791
 1998SOL    HW2 5994   3.118   3.702   9.358  1.1513  0.1909  0.4347
 1999SOL     OW 5995   2.028   3.355   8.648 -0.1523  0.0461 -0.3214
 1999SOL    HW1 5996   2.117   3.383   8.626  0.0160 -1.6912 -2.0912
 1999SOL    HW2 5997   1.974   3.388   8.577 -1.1570  1.8622  1.1865
 2000SOL     OW 5998   2.355   4.782   6.984  0.0410 -0.4552 -0.1567
 2000SOL    HW1 5999   2.333   4.861   6.935  0.9938 -0.0429  0.0741
 2000SOL    HW2 6000   2.306   4.712   6.939 -1.6455  0.3904  0.2686
 2001SOL     OW 6001   3.121   0.056   8.518 -0.5395 -0.4819 -0.6953
 2001SOL    HW1 6002   3.044   0.046   8.573 -0.5988 -1.1784 -0.9059
 2001SOL    HW2 6003   3.119  -0.018   8.459  2.4838 -2.9962  1.9542
 2002SOL     OW 6004   1.856   0.143   9.390  0.7017 -0.2866  0.1981
 2002SOL    HW1 6005   1.941   0.176   9.360  1.1614  0.3879  2.0990
 2002SOL    HW2 6006   1.791   0.193   9.341  1.3793 -0.5654 -1.0262
 2003SOL     OW 6007   3.306   0.208   8.882 -0.1435 -0.4383  0.5009
 2003SOL    HW1 6008   3.391   0.174   8.856  0.7112  2.3455 -0.6958
 2003SOL    HW2 6009   3.322   0.299   8.905 -2.3683 -0.5452  2.9597
 2004SOL     OW 6010   1.482   1.755  10.030 -0.4200  0.2343  0.0283
 2004SOL    HW1 6011   1.449   1.844  10.013  0.0629 -0.1545 -3.9085
 2004SOL    HW2 6012   1.577   1.765  10.032 -0.3978 -0.0730  0.6420
 2005SOL     OW 6013   1.048   4.806   9.731 -0.3843 -0.2940 -0.1403
 2005SOL    HW1 6014   1.074   4.726   9.685  1.4424 -0.2192  0.6960
 2005SOL    HW2 6015   1.079   4.877   9.675  1.9088 -0.2037  1.1498
 2006SOL     OW 6016   3.302   4.275   9.514 -0.4579 -0.1427  0.3499
 2006SOL    HW1 6017   3.269   4.351   9.467  2.4686  0.7566 -0.4507
 2006SOL    HW2 6018   3.345   4.221   9.447 -0.5414 -1.3696  1.2386
 2007SOL     OW 6019   2.257   0.845   7.606  0.1397 -0.0917 -0.2246
 2007SOL    HW1 6020   2.222   0.769   7.560  2.5455 -1.3304 -0.1611
 2007SOL    HW2 6021   2.209   0.920   7.570 -1.1573 -1.4703 -1.4699
 2008SOL     OW 6022   3.096   2.518   9.244  0.1927  0.0228  0.0919
 2008SOL    HW1 6023   3.151   2.589   9.277 -0.6375  0.0208  1.6005
 2008SOL    HW2 6024   3.067   2.548   9.158  1.2713  0.7071 -0.0547
 2009SOL     OW 6025   4.330   0.075   8.019 -0.3990 -0.7149  0.2260
 2009SOL    HW1 6026   4.305   0.167   8.009  0.5736 -0.4402  0.1760
 2009SOL    HW2 6027   4.248   0.029   8.033 -0.8824  0.1944  0.4618
 2010SOL     OW 6028   0.560   0.326   9.389  0.2363 -0.5835 -0.1696
 2010SOL    HW1 6029   0.614   0.294   9.462 -1.7861 -0.5960  1.4254
 2010SOL    HW2 6030   0.505   0.252   9.366  0.5286 -0.4281 -1.4599
 2011SOL     OW 6031   2.404   4.512   9.612 -0.2017  0.0953  0.3135
 2011SOL    HW1 6032   2.366   4.568   9.545  0.0523  0.3032  0.3445
 2011SOL    HW2 6033   2.353   4.532   9.691 -0.6454 -0.3080  0.1392
 2012SOL     OW 6034   2.771   0.274   8.304 -0.0930 -0.4450  0.3916
 2012SOL    HW1 6035   2.805   0.199   8.255 -0.5561  1.4681 -3.2521
 2012SOL    HW2 6036   2.702   0.237   8.359  0.0000 -2.7587 -0.9202
 2013SOL     OW 6037   1.100   2.234   8.543 -0.0344 -0.2558 -0.4045
 2013SOL    HW1 6038   1.021   2.288   8.531  0.1108 -0.0416 -0.4060
 2013SOL    HW2 6039   1.170   2.286   8.504  0.4053  0.3242  1.0910
 2014SOL     OW 6040   3.817   0.519   8.591  0.8044  0.1296 -0.0291
 2014SOL    HW1 6041   3.770   0.471   8.524  0.8451  1.5795 -1.1385
 2014SOL    HW2 6042   3.755   0.584   8.623  0.9208 -0.2625  1.0557
 2015SOL     OW 6043   3.151   0.412   5.767  0.2572  0.2795 -0.0396
 2015SOL    HW1 6044   3.130   0.408   5.860 -0.0828  1.2607 -0.0635
 2015SOL    HW2 6045   3.072   0.448   5.726  1.0899  1.7251 -0.4431
 2016SOL     OW 6046   1.257   4.973   8.871  0.6110 -0.0825  0.3008
 2016SOL    HW1 6047   1.253   4.896   8.815 -0.2016  0.3360 -0.2225
 2016SOL    HW2 6048   1.349   5.001   8.867  0.6131 -0.1977 -0.6331
 2017SOL     OW 6049   4.245   0.527   9.382  0.0959  0.2799 -0.0226
 2017SOL    HW1 6050   4.330   0.499   9.417  0.7479  1.6173 -0.4955
 2017SOL    HW2 6051   4.181   0.470   9.427  1.3163 -1.7725 -0.7564
 2018SOL     OW 6052   2.946   2.163   9.062  1.0835  0.6369  0.8283
 2018SOL    HW1 6053   2.858   2.153   9.097  0.7975 -1.3748 -0.3405
 2018SOL    HW2 6054   2.936   2.223   8.988  0.7544  0.6422  0.8751
 2019SOL     OW 6055   0.902   3.411   9.410  0.2871 -0.5036  1.0284
 2019SOL    HW1 6056   0.931   3.396   9.320 -1.5106 -0.8535  0.4763
 2019SOL    HW2 6057   0.984   3.416   9.460  1.3246 -0.5345 -0.5640
 2020SOL     OW 6058   3.641   1.163   8.882  0.1326  0.4025 -0.1829
 2020SOL    HW1 6059   3.709   1.177   8.815  0.2350  0.5648 -0.0456
 2020SOL    HW2 6060   3.641   1.244   8.933  1.0886 -0.2688  0.9365
 2021SOL     OW 6061   0.324   0.975   9.797  0.3790  0.1769 -0.0456
 2021SOL    HW1 6062   0.372   0.922   9.860 -0.3931  0.7334  1.0404
 2021SOL    HW2 6063   0.244   0.925   9.780  0.1569  0.4717  0.1314
 2022SOL     OW 6064   0.667   3.688   9.081 -0.4194  0.4723 -0.5349
 2022SOL    HW1 6065   0.634   3.600   9.098  0.8282  0.1341  0.3290
 2022SOL    HW2 6066   0.761   3.675   9.067  0.3536  1.9478  2.5621
 2023SOL     OW 6067   3.170   2.780   9.290  0.1063  0.0549  0.0968
 2023SOL    HW1 6068   3.149   2.821   9.206  0.1674 -0.6988 -0.2906
 2023SOL    HW2 6069   3.263   2.759   9.283 -0.1532 -1.0987 -0.1287
 2024SOL     OW 6070   0.609   2.091   9.338 -0.0389 -0.1635 -0.2096
 2024SOL    HW1 6071   0.571   2.178   9.331  0.6341  0.4517  2.6331
 2024SOL    HW2 6072   0.693   2.097   9.294  0.6676  1.1222  1.2278
 2025SOL     OW 6073   4.318   4.454   7.625 -0.0118  0.1900 -0.0473
 2025SOL    HW1 6074   4.287   4.466   7.535 -1.9514 -0.2891  0.5101
 2025SOL    HW2 6075   4.289   4.366   7.648 -1.3347  1.0248  1.6834
 2026SOL     OW 6076   3.895   3.653   9.656 -0.0675  0.0583 -0.1512
 2026SOL    HW1 6077   3.946   3.732   9.672  0.6249 -0.4261  0.0693
 2026SOL    HW2 6078   3.935   3.613   9.578  0.5153 -0.8174  0.5776
 2027SOL     OW 6079   2.951   3.898  10.208  0.1696 -0.4113 -0.1245
 2027SOL    HW1 6080   3.014   3.962  10.175 -1.2607  1.1857  0.1339
 2027SOL    HW2 6081   2.866   3.930  10.178 -0.6150 -2.1316  0.1374
 2028SOL     OW 6082   2.917   1.236   5.416 -0.1274  0.1874 -0.5586
 2028SOL    HW1 6083   2.873   1.216   5.333 -0.5333 -1.1016 -0.0460
 2028SOL    HW2 6084   2.846   1.261   5.475 -0.1397 -1.3640  0.1147
 2029SOL     OW 6085   2.288   0.188   9.132 -0.2611  0.5438  0.4047
 2029SOL    HW1 6086   2.235   0.264   9.109 -1.2128  0.0202  0.7891
 2029SOL    HW2 6087   2.230   0.113   9.120  0.5563 -0.0986  0.3459
 2030SOL     OW 6088   0.752   4.479   9.335  0.3091  0.2065 -0.4377
 2030SOL    HW1 6089   0.801   4.560   9.352  0.3987 -0.1007  0.8505
 2030SOL    HW2 6090   0.669   4.509   9.298 -0.2863  1.0130  1.4311
 2031SOL     OW 6091   1.205   0.466   9.685  0.6322 -0.6864 -0.4011
 2031SOL    HW1 6092   1.145   0.524   9.733  1.2185  1.1144 -1.7041
 2031SOL    HW2 6093   1.154   0.436   9.610  0.7547 -0.7386 -0.4641
 2032SOL     OW 6094   4.228   0.400  10.043 -0.2042 -0.2968 -0.4440
 2032SOL    HW1 6095   4.301   0.342  10.022 -0.4957 -1.4593  1.4594
 2032SOL    HW2 6096   4.237   0.473   9.982  3.0565  0.0351  0.2446
 2033SOL     OW 6097   2.875   1.810   9.304  0.3612  0.0504 -0.1927
 2033SOL    HW1 6098   2.906   1.771   9.222  3.4252 -1.3514  1.4818
 2033SOL    HW2 6099   2.904   1.901   9.300 -1.2987  0.5824 -1.4330
 2034SOL     OW 6100   2.830   2.755   9.941  0.3212 -0.0328  0.0771
 2034SOL    HW1 6101   2.872   2.749   9.856  3.7599 -0.2769  1.6360
 2034SOL    HW2 6102   2.860   2.677   9.989  1.1422  1.6263  2.4918
 2035SOL     OW 6103   2.965   0.192   7.189 -0.3079  0.0097  0.2056
 2035SOL    HW1 6104   2.928   0.129   7.128  2.9566 -2.4887  0.5035
 2035SOL    HW2 6105   3.016   0.252   7.135 -1.4265  0.9001  0.1213
 2036SOL     OW 6106   4.702   3.529   9.097 -0.1157 -0.2664 -0.7493
 2036SOL    HW1 6107   4.743   3.613   9.076  1.0002  0.2485  2.8183
 2036SOL    HW2 6108   4.728   3.512   9.188 -2.7821 -3.0217 -0.3586
 2037SOL     OW 6109   3.615   0.166   9.536 -0.4882  0.0026 -0.2596
 2037SOL    HW1 6110   3.548   0.097   9.537 -1.2716  0.7325 -0.8647
 2037SOL    HW2 6111   3.582   0.230   9.473 -0.4726  1.6072  1.2885
 2038SOL     OW 6112   2.749   0.425  10.181 -0.0463  0.7061 -0.0883
 2038SOL    HW1 6113   2.808   0.487  10.223 -0.5385  0.5906  0.7834
 2038SOL    HW2 6114   2.664   0.468  10.182 -0.9110 -0.8682  2.6484
 2039SOL     OW 6115   1.645   2.950   9.816 -0.4926 -0.6349  0.1451
 2039SOL    HW1 6116   1.615   2.977   9.730  0.3098 -2.7069 -0.8437
 2039SOL    HW2 6117   1.578   2.982   9.876 -0.8952  1.1442 -1.1684
 2040SOL     OW 6118   2.243   1.679  10.381  0.7598  0.0659 -0.0183
 2040SOL    HW1 6119   2.196   1.714  10.457 -2.1981  1.5117 -2.3269
 2040SOL    HW2 6120   2.189   1.606  10.351  3.1022 -1.9888  0.4910
 2041SOL     OW 6121   0.256   3.435   7.090 -0.7081 -0.4437 -0.0805
 2041SOL    HW1 6122   0.188   3.486   7.047  0.9560  0.6519 -1.5916
 2041SOL    HW2 6123   0.216   3.404   7.172 -2.1423  2.3777  0.3861
 2042SOL     OW 6124   2.593   1.460   7.548 -0.3211 -0.1989 -0.3741
 2042SOL    HW1 6125   2.561   1.380   7.589 -1.6702  0.3315 -0.3560
 2042SOL    HW2 6126   2.592   1.525   7.618 -0.2473  0.1027 -0.6527
 2043SOL     OW 6127   2.947   0.085  10.103 -0.3258 -0.6354 -0.0776
 2043SOL    HW1 6128   3.016   0.150  10.115 -0.2723  0.1361 -3.4924
 2043SOL    HW2 6129   2.993   0.008  10.069 -0.9418 -0.5920 -1.0541
 2044SOL     OW 6130   2.593   0.390   8.824  0.8280  0.1131  0.4688
 2044SOL    HW1 6131   2.628   0.474   8.795  1.5050  0.0482  1.0972
 2044SOL    HW2 6132   2.506   0.411   8.859  1.2908  0.6718  1.3183
 2045SOL     OW 6133   1.970   0.093   8.050  0.4756 -0.2026  0.0174
 2045SOL    HW1 6134   2.055   0.083   8.006  0.6063  1.4100 -0.1833
 2045SOL    HW2 6135   1.907   0.104   7.979  0.5059  1.1837  0.1734
 2046SOL     OW 6136   1.567   0.178   9.437  0.0476 -0.5160 -0.3255
 2046SOL    HW1 6137   1.565   0.083   9.452  0.9267 -0.6345 -0.9018
 2046SOL    HW2 6138   1.585   0.187   9.344  2.3476  0.2022  0.1236
 2047SOL     OW 6139   3.630   3.979   9.882 -0.5387 -0.1284  0.3715
 2047SOL    HW1 6140   3.562   3.916   9.905 -0.3106 -0.1042  1.1403
 2047SOL    HW2 6141   3.593   4.064   9.905  0.5619 -0.2683  2.9111
 2048SOL     OW 6142   3.557   0.694   8.997 -0.0475  0.0849  0.4923
 2048SOL    HW1 6143   3.609   0.625   8.956 -1.7538 -0.3779 -1.0507
 2048SOL    HW2 6144   3.541   0.757   8.926  0.2112  1.3101  1.4871
 2049SOL     OW 6145   2.289   2.288  10.118  0.8158  0.1934  0.1457
 2049SOL    HW1 6146   2.326   2.315  10.034  2.5059  0.1403  0.8189
 2049SOL    HW2 6147   2.284   2.193  10.114 -1.0018  0.2869 -0.6039
 2050SOL     OW 6148   1.991   0.257   9.855 -0.4577 -0.0725  0.1277
 2050SOL    HW1 6149   1.932   0.206   9.911 -1.4947  0.6382 -0.2835
 2050SOL    HW2 6150   2.025   0.192   9.792 -1.2128 -0.4012  0.0466
 2051SOL     OW 6151   3.425   4.558   8.737 -0.0462 -0.4567 -0.2817
 2051SOL    HW1 6152   3.513   4.541   8.702  0.1486  1.1705 -0.6656
 2051SOL    HW2 6153   3.441   4.610   8.816 -0.6754  1.2622 -1.2261
 2052SOL     OW 6154   1.990   1.667   9.301  0.4514  0.1991 -0.6288
 2052SOL    HW1 6155   2.023   1.578   9.293 -0.5097 -0.0436 -2.3548
 2052SOL    HW2 6156   1.902   1.664   9.263 -0.4586  1.4458  1.1895
 2053SOL     OW 6157   3.285   2.830   8.855  0.8800  0.8340  0.1549
 2053SOL    HW1 6158   3.345   2.883   8.907  1.1019  0.4885  0.2484
 2053SOL    HW2 6159   3.211   2.813   8.914 -0.3542  3.0708 -0.6136
 2054SOL     OW 6160   0.207   1.255   9.205  0.4377  0.1564  0.0332
 2054SOL    HW1 6161   0.181   1.263   9.297 -0.9420 -1.0469 -0.2224
 2054SOL    HW2 6162   0.262   1.176   9.203  0.4612  0.1787 -0.1800
 2055SOL     OW 6163   1.230   0.151   8.305 -0.1704  0.3278 -0.3995
 2055SOL    HW1 6164   1.312   0.130   8.260  0.5948  1.5246  0.3659
 2055SOL    HW2 6165   1.163   0.146   8.236  0.5179 -0.7849 -1.0148
 2056SOL     OW 6166   4.704   2.386   8.971 -0.0067  0.1197  0.3098
 2056SOL    HW1 6167   4.699   2.408   9.064 -0.3923  1.1509  0.0588
 2056SOL    HW2 6168   4.797   2.392   8.950  0.0550  0.1219  0.5812
 2057SOL     OW 6169   2.315   1.563   7.400  0.0967  0.4819 -0.1327
 2057SOL    HW1 6170   2.408   1.550   7.383 -0.4237  0.6363 -3.7920
 2057SOL    HW2 6171   2.283   1.476   7.422  1.0756  0.4443  1.2706
 2058SOL     OW 6172   2.425   2.518   8.349 -0.3969  0.3710 -0.0925
 2058SOL    HW1 6173   2.500   2.578   8.350  1.2575 -1.5912  0.2415
 2058SOL    HW2 6174   2.418   2.491   8.258  0.0996 -0.3913  0.0941
 2059SOL     OW 6175   4.009   1.903   7.694  0.0795 -0.2134  0.1579
 2059SOL    HW1 6176   4.010   1.978   7.635  3.7248  0.5720  1.0061
 2059SOL    HW2 6177   4.068   1.839   7.654 -0.5994 -1.3843  0.9583
 2060SOL     OW 6178   2.224   0.612   9.562  0.0858  0.0343 -0.2196
 2060SOL    HW1 6179   2.299   0.665   9.534 -0.4990  0.1178 -1.7302
 2060SOL    HW2 6180   2.251   0.574   9.646  1.3165  1.0606 -0.1205
 2061SOL     OW 6181   2.067   0.605   8.801 -0.2457  0.1885 -0.3565
 2061SOL    HW1 6182   2.032   0.573   8.718 -0.4866  1.2910 -0.6921
 2061SOL    HW2 6183   1.993   0.650   8.842  0.6586  2.4408 -1.0254
 2062SOL     OW 6184   3.751   1.851   8.944  0.0925 -0.4159 -0.3436
 2062SOL    HW1 6185   3.783   1.809   8.865  0.1459 -0.7325 -0.1559
 2062SOL    HW2 6186   3.683   1.792   8.977 -0.6949  0.2355 -0.7333
 2063SOL     OW 6187   2.720   3.954  10.035  0.0353 -0.2140 -0.4518
 2063SOL    HW1 6188   2.723   3.871   9.986 -0.3131 -0.9155  0.6589
 2063SOL    HW2 6189   2.638   3.995  10.008  0.5958  0.1817 -1.6196
 2064SOL     OW 6190   3.096   0.384   6.031  0.9630  0.4953 -0.4976
 2064SOL    HW1 6191   3.095   0.362   6.124  1.3694  3.0828  0.2032
 2064SOL    HW2 6192   3.018   0.341   5.995 -0.3523  1.0730  1.4920
 2065SOL     OW 6193   4.166   1.593   8.060 -0.0516  0.3812  0.0900
 2065SOL    HW1 6194   4.113   1.667   8.088  0.5242  0.1211  2.0190
 2065SOL    HW2 6195   4.255   1.614   8.090  0.5945 -0.0122 -1.4660
 2066SOL     OW 6196   1.219   0.247   9.269  0.3226  0.3226 -0.0304
 2066SOL    HW1 6197   1.289   0.303   9.304 -0.4887  0.6549  1.1401
 2066SOL    HW2 6198   1.223   0.259   9.174  0.1531  2.4483  0.1834
 2067SOL     OW 6199   0.786   0.108   9.780  0.3794  0.2892 -0.0652
 2067SOL    HW1 6200   0.793   0.013   9.786  1.3745  0.3633  0.0216
 2067SOL    HW2 6201   0.843   0.141   9.850  0.2417  0.9524 -0.2555
 2068SOL     OW 6202   2.793   3.151   5.218 -0.2360  0.2610  0.0020
 2068SOL    HW1 6203   2.871   3.196   5.186 -0.7828  1.5345  0.3912
 2068SOL    HW2 6204   2.771   3.196   5.300 -0.4194 -1.1729  0.7649
 2069SOL     OW 6205   4.657   4.122  10.000  0.0590  0.1128  0.0281
 2069SOL    HW1 6206   4.609   4.196  10.038  0.8052 -0.6000  2.5408
 2069SOL    HW2 6207   4.685   4.154   9.914 -3.4261  1.1305 -0.9154
 2070SOL     OW 6208   4.146   0.813   9.550 -0.3153  0.6542 -0.2243
 2070SOL    HW1 6209   4.201   0.786   9.476 -2.5399 -3.3296 -0.7301
 2070SOL    HW2 6210   4.207   0.821   9.624  1.3563 -0.5652 -1.3990
 2071SOL     OW 6211   4.666   0.381   8.725  0.5297 -0.3242  0.1007
 2071SOL    HW1 6212   4.692   0.404   8.815 -0.5896  1.0816  0.1056
 2071SOL    HW2 6213   4.738   0.328   8.692  1.6165  0.3004  1.3633
 2072SOL     OW 6214   2.903   1.929   8.743  0.1238 -0.2768 -0.0376
 2072SOL    HW1 6215   2.885   2.021   8.761  0.5729 -0.1705 -0.1195
 2072SOL    HW2 6216   2.817   1.889   8.730 -0.0651  0.1472 -0.0778
 2073SOL     OW 6217   3.179   3.699  10.186  0.3906  0.3439 -0.5503
 2073SOL    HW1 6218   3.159   3.646  10.110  0.4619 -1.5041  0.6688
 2073SOL    HW2 6219   3.095   3.739  10.210  0.1407  0.0706 -0.9568
 2074SOL     OW 6220   3.545   4.242   9.706  0.1716 -0.1616 -0.2067
 2074SOL    HW1 6221   3.542   4.172   9.642  1.1962 -0.2180 -0.2186
 2074SOL    HW2 6222   3.461   4.238   9.752  0.2685 -1.4648 -0.1269
 2075SOL     OW 6223   2.478   4.240   8.554 -0.0164  0.0803  0.0358
 2075SOL    HW1 6224   2.479   4.251   8.459  0.7699  1.5968  0.1799
 2075SOL    HW2 6225   2.563   4.202   8.574 -0.5648 -1.1683  0.0629
 2076SOL     OW 6226   4.147   4.905   9.745 -0.0082  0.5561  0.8565
 2076SOL    HW1 6227   4.176   4.883   9.657  2.2830 -1.4613  2.0177
 2076SOL    HW2 6228   4.054   4.927   9.734 -0.1638 -0.9861 -1.8501
 2077SOL     OW 6229   0.060   3.917   9.844  0.3404 -1.0408 -0.0211
 2077SOL    HW1 6230   0.009   3.860   9.901  1.6303 -1.3518  0.8662
 2077SOL    HW2 6231   0.142   3.931   9.892  0.0878  1.5320 -0.2157
 2078SOL     OW 6232   1.781   1.771  10.004 -0.1526 -0.0064  0.3682
 2078SOL    HW1 6233   1.836   1.697  10.029 -0.5868 -0.8775 -1.1436
 2078SOL    HW2 6234   1.837   1.848  10.018  0.0555 -0.4922  2.6520
 2079SOL     OW 6235   2.292   2.131   7.200  0.1351  0.2576 -0.1932
 2079SOL    HW1 6236   2.370   2.142   7.146 -0.8009  2.2408 -1.2583
 2079SOL    HW2 6237   2.258   2.045   7.175  0.6390  0.4172 -1.5358
 2080SOL     OW 6238   3.251   1.564   8.493  0.1432 -0.1281  0.5803
 2080SOL    HW1 6239   3.211   1.614   8.563  1.9779  0.5283  1.2285
 2080SOL    HW2 6240   3.274   1.629   8.427 -1.0079 -0.6608 -0.3897
 2081SOL     OW 6241   4.822   5.011   8.730  0.0387  0.2069  0.1023
 2081SOL    HW1 6242   4.868   5.050   8.804  1.4226  2.0636 -1.6238
 2081SOL    HW2 6243   4.818   4.918   8.750  2.2932  0.3452  1.5214
 2082SOL     OW 6244   1.969   4.500   9.013  0.5181 -0.5340  0.2355
 2082SOL    HW1 6245   2.022   4.425   9.041  0.9672  0.4300  2.1436
 2082SOL    HW2 6246   1.911   4.517   9.086  0.0058  0.6140 -0.4159
 2083SOL     OW 6247   1.089   1.859   9.688 -0.1810  0.1311  0.6613
 2083SOL    HW1 6248   1.121   1.949   9.692  1.5213 -0.3469 -1.1137
 2083SOL    HW2 6249   1.137   1.813   9.757 -0.8331  0.4710  1.3670
 2084SOL     OW 6250   4.615   2.713   8.788  0.9488 -0.3896 -0.2503
 2084SOL    HW1 6251   4.521   2.713   8.807  1.0411 -0.0456  0.2231
 2084SOL    HW2 6252   4.633   2.626   8.754  0.4397 -0.4303 -0.4266
 2085SOL     OW 6253   2.838   1.000   9.695 -0.6407 -0.2443  0.1981
 2085SOL    HW1 6254   2.891   1.079   9.685 -0.6676 -0.1207  0.9588
 2085SOL    HW2 6255   2.826   0.991   9.790 -1.5552 -0.5570  0.0642
 2086SOL     OW 6256   3.242   0.664   9.639  0.2219 -0.3802 -0.5270
 2086SOL    HW1 6257   3.241   0.580   9.593 -1.5289 -0.6272 -0.1055
 2086SOL    HW2 6258   3.150   0.692   9.640  0.7039  1.2927 -0.2005
 2087SOL     OW 6259   4.347   0.021   9.887  0.0883 -0.8214 -0.1813
 2087SOL    HW1 6260   4.290   0.043   9.960  0.6230 -1.9486  0.5946
 2087SOL    HW2 6261   4.292  -0.031   9.828 -1.0698  2.0318 -1.8419
 2088SOL     OW 6262   0.831   0.388   9.270 -0.4825  0.2397 -0.3027
 2088SOL    HW1 6263   0.791   0.327   9.332 -0.0178 -0.7017 -0.9035
 2088SOL    HW2 6264   0.821   0.346   9.185  1.3538  0.1927 -0.5391
 2089SOL     OW 6265   2.445   0.031   7.370 -0.2600  0.0781  0.7117
 2089SOL    HW1 6266   2.476   0.118   7.396  1.2784 -0.2513  0.0878
 2089SOL    HW2 6267   2.509  -0.029   7.408 -1.7357 -0.8734  1.8165
 2090SOL     OW 6268   0.956   2.900   9.510  0.0730  0.1918 -0.0602
 2090SOL    HW1 6269   0.976   2.852   9.589  1.6289  1.8996  0.6656
 2090SOL    HW2 6270   1.021   2.871   9.446 -0.3618 -0.2276 -0.3233
 2091SOL     OW 6271   0.402   0.429   7.397  0.1073 -0.4279 -0.3410
 2091SOL    HW1 6272   0.451   0.491   7.343 -0.5084  0.0320 -0.3820
 2091SOL    HW2 6273   0.311   0.446   7.376 -0.1945  0.3617  1.4824
 2092SOL     OW 6274   0.158   1.185   9.883  0.4069  0.2044  0.2058
 2092SOL    HW1 6275   0.086   1.123   9.874  0.8074 -0.0300 -1.6811
 2092SOL    HW2 6276   0.236   1.137   9.855  0.9925  1.0588  0.3244
 2093SOL     OW 6277   2.250   2.545   9.504  0.4764  0.0613  0.1307
 2093SOL    HW1 6278   2.179   2.525   9.443  0.7367  0.4544 -0.3073
 2093SOL    HW2 6279   2.249   2.473   9.567 -0.2792  0.0411  0.1029
 2094SOL     OW 6280   4.384   2.861  10.051 -0.2336 -0.1870 -0.0866
 2094SOL    HW1 6281   4.453   2.880   9.987 -0.3802  1.1373  0.1155
 2094SOL    HW2 6282   4.306   2.843   9.998  0.3768 -2.3664 -0.3359
 2095SOL     OW 6283   1.036   0.069   5.238 -0.2164  0.3329 -0.2469
 2095SOL    HW1 6284   1.030   0.020   5.320  0.4473  0.4851 -0.0993
 2095SOL    HW2 6285   0.978   0.144   5.250  0.5653  0.8471  0.4422
 2096SOL     OW 6286   3.933   4.901   7.600  0.7234 -0.1978  0.5509
 2096SOL    HW1 6287   4.009   4.956   7.623  0.4297  0.1739  0.6382
 2096SOL    HW2 6288   3.899   4.871   7.684 -0.2996  1.0935  0.6182
 2097SOL     OW 6289   3.041   3.824   5.594 -0.0507  0.1256  0.9119
 2097SOL    HW1 6290   3.086   3.906   5.573 -2.1316  1.4903  1.4818
 2097SOL    HW2 6291   2.964   3.824   5.538 -0.4616 -1.1046  1.4481
 2098SOL     OW 6292   0.934   1.287   5.544  0.2216  0.5110 -0.1281
 2098SOL    HW1 6293   1.017   1.242   5.563  1.0969  0.6597 -3.0428
 2098SOL    HW2 6294   0.960   1.373   5.512 -1.1277  0.9164 -0.1943
 2099SOL     OW 6295   3.651   1.692   5.110 -0.3333 -0.3543 -0.1599
 2099SOL    HW1 6296   3.600   1.768   5.085 -1.4178 -0.8052  0.5670
 2099SOL    HW2 6297   3.684   1.655   5.028  0.3184  0.9481 -0.5018
 2100SOL     OW 6298   3.113   4.319   7.968 -0.0138 -0.3042 -1.1180
 2100SOL    HW1 6299   3.092   4.390   7.908 -0.4944 -0.8419 -1.5961
 2100SOL    HW2 6300   3.042   4.255   7.957 -0.2853 -0.2781  0.2534
 2101SOL     OW 6301   3.610   2.126   6.221 -0.2584 -0.0101 -0.2614
 2101SOL    HW1 6302   3.610   2.210   6.268  0.8251 -1.0866  1.7608
 2101SOL    HW2 6303   3.520   2.095   6.229 -0.7574  1.0681 -1.3101
 2102SOL     OW 6304   0.122   1.659   5.231 -0.1426 -0.1849 -0.4525
 2102SOL    HW1 6305   0.118   1.673   5.325 -0.9275  0.0659 -0.5139
 2102SOL    HW2 6306   0.126   1.747   5.193 -1.8239 -0.1853 -0.7139
 2103SOL     OW 6307   2.042   3.541   5.968  0.4760 -0.3959  0.2375
 2103SOL    HW1 6308   1.952   3.572   5.961  0.0968 -1.6017 -0.5091
 2103SOL    HW2 6309   2.085   3.606   6.023 -0.9816 -0.0930  1.0749
 2104SOL     OW 6310   4.570   4.743   7.450  0.2880  0.8381  0.6540
 2104SOL    HW1 6311   4.632   4.772   7.383 -1.2497  0.5406 -0.9865
 2104SOL    HW2 6312   4.504   4.812   7.454  0.0402  0.5696  1.4571
 2105SOL     OW 6313   4.678   4.424   5.247  0.6043  0.1014 -0.1160
 2105SOL    HW1 6314   4.761   4.466   5.269  0.6787 -0.2906  0.3574
 2105SOL    HW2 6315   4.696   4.330   5.252 -0.5561 -0.0562  2.7640
 2106SOL     OW 6316   1.514   3.996   7.003  0.9354 -0.6372  0.4263
 2106SOL    HW1 6317   1.601   4.030   7.024  0.6392  1.1323 -0.9476
 2106SOL    HW2 6318   1.525   3.954   6.917 -0.3098  3.7011 -2.1903
 2107SOL     OW 6319   0.112   1.623   8.449  0.1239 -0.0799  0.3635
 2107SOL    HW1 6320   0.022   1.591   8.453  0.2842 -0.4736  2.8712
 2107SOL    HW2 6321   0.117   1.673   8.368 -2.9835  1.7326  1.1292
 2108SOL     OW 6322   1.951   2.944   5.889 -0.1620 -0.1613  0.6542
 2108SOL    HW1 6323   1.974   2.985   5.806 -0.1030  0.4683  0.9746
 2108SOL    HW2 6324   1.879   2.884   5.867 -1.1161  1.0477  0.3830
 2109SOL     OW 6325   2.689   4.611   7.439 -0.0888 -0.6542  0.1466
 2109SOL    HW1 6326   2.673   4.526   7.399 -0.7791 -0.9582  1.0155
 2109SOL    HW2 6327   2.632   4.671   7.391  1.6056 -0.3353 -1.5562
 2110SOL     OW 6328   2.189   0.294   7.741 -0.0839 -0.5120 -0.1491
 2110SOL    HW1 6329   2.147   0.363   7.792  2.0260  3.4610 -3.2631
 2110SOL    HW2 6330   2.282   0.304   7.759  0.4951 -0.6596 -2.7072
 2111SOL     OW 6331   1.563   4.290   7.770 -0.5772 -0.3917  0.0777
 2111SOL    HW1 6332   1.536   4.348   7.699 -1.9044  1.3177  1.8817
 2111SOL    HW2 6333   1.657   4.301   7.777 -0.7522  1.3402  0.1486
 2112SOL     OW 6334   3.373   0.471   5.634 -0.2223  0.6931  0.3002
 2112SOL    HW1 6335   3.289   0.443   5.669  0.0198  0.4806  0.7115
 2112SOL    HW2 6336   3.381   0.563   5.661 -1.3359  1.4345 -1.6412
 2113SOL     OW 6337   4.842   4.539   6.441  0.0145  0.4008 -0.2860
 2113SOL    HW1 6338   4.861   4.505   6.528  0.7953 -0.3231 -0.7239
 2113SOL    HW2 6339   4.925   4.572   6.409  0.1976 -1.0979 -1.4956
 2114SOL     OW 6340   2.854   1.577   6.542 -0.1850  0.1074 -0.0412
 2114SOL    HW1 6341   2.822   1.644   6.481 -0.6332 -1.7807 -2.0369
 2114SOL    HW2 6342   2.943   1.606   6.565 -0.3679  1.3764 -0.8134
 2115SOL     OW 6343   3.891   3.433   6.119  0.2134  0.3812  0.0936
 2115SOL    HW1 6344   3.911   3.395   6.204  0.0556 -0.1446 -0.1058
 2115SOL    HW2 6345   3.824   3.377   6.082  1.0040  0.0156 -0.8090
 2116SOL     OW 6346   2.139   4.272   6.810 -0.7867 -0.2378 -0.3260
 2116SOL    HW1 6347   2.156   4.363   6.831  1.9594 -0.2673 -2.0106
 2116SOL    HW2 6348   2.175   4.223   6.884  0.7701 -0.0221 -0.9006
 2117SOL     OW 6349   3.513   0.784   6.360 -0.2649  0.1929  0.1011
 2117SOL    HW1 6350   3.535   0.722   6.429 -0.3049 -0.7398 -0.7012
 2117SOL    HW2 6351   3.572   0.858   6.375  3.9550 -2.2964 -2.1073
 2118SOL     OW 6352   4.541   2.776   9.341  0.0019  0.2196 -0.2885
 2118SOL    HW1 6353   4.492   2.702   9.376  2.4179  0.1119  3.3360
 2118SOL    HW2 6354   4.504   2.853   9.385  0.5573  0.5862 -0.4499
 2119SOL     OW 6355   1.221   3.338   6.337  0.6601  0.5630  0.6765
 2119SOL    HW1 6356   1.235   3.432   6.345 -0.5849  0.7813  0.4192
 2119SOL    HW2 6357   1.129   3.329   6.315  0.4722 -0.7857  1.8612
 2120SOL     OW 6358   3.760   3.964   5.001  0.5329  0.8431 -0.2835
 2120SOL    HW1 6359   3.755   4.038   5.062 -0.3027  0.1815  0.4713
 2120SOL    HW2 6360   3.681   3.973   4.947 -0.5505 -0.4574  0.9784
 2121SOL     OW 6361   2.124   1.923   7.552  0.1994 -0.3860  0.0558
 2121SOL    HW1 6362   2.125   2.007   7.508 -0.5043  0.2507  1.2250
 2121SOL    HW2 6363   2.141   1.859   7.482  0.0820  0.6550 -0.9473
 2122SOL     OW 6364   3.831   2.758   5.379  0.3750 -0.5259 -0.1062
 2122SOL    HW1 6365   3.847   2.665   5.396  1.1686 -0.2648  0.5950
 2122SOL    HW2 6366   3.818   2.797   5.465  2.1247  0.3849 -0.2166
 2123SOL     OW 6367   3.028   2.727   5.502 -0.0218 -0.5092  0.3794
 2123SOL    HW1 6368   2.954   2.688   5.455  0.5575  0.6876 -1.6316
 2123SOL    HW2 6369   3.103   2.714   5.445  0.5344  1.8489  0.4699
 2124SOL     OW 6370   3.341   2.161   7.828 -0.0812 -0.1588  0.2339
 2124SOL    HW1 6371   3.397   2.086   7.808 -1.8129 -1.4919  0.0631
 2124SOL    HW2 6372   3.303   2.186   7.744 -1.1181 -0.4811  0.5859
 2125SOL     OW 6373   4.922   2.236   6.426 -0.5108  0.3339 -0.0218
 2125SOL    HW1 6374   4.941   2.194   6.342  0.3528  0.5175  0.0815
 2125SOL    HW2 6375   4.934   2.329   6.410  0.1390  0.3335  0.4237
 2126SOL     OW 6376   4.729   0.855   6.484 -0.2126  0.3613 -0.7042
 2126SOL    HW1 6377   4.811   0.879   6.440  1.4593 -1.3791  1.2645
 2126SOL    HW2 6378   4.686   0.796   6.422  2.9104 -3.4519  0.3279
 2127SOL     OW 6379   3.301   3.293   5.986  0.6142 -0.7349 -0.3159
 2127SOL    HW1 6380   3.249   3.351   5.931 -1.1327 -1.7582  0.1846
 2127SOL    HW2 6381   3.261   3.207   5.976  1.9751 -1.5037  0.4234
 2128SOL     OW 6382   1.473   3.037   6.296 -0.1727  0.5511 -0.0475
 2128SOL    HW1 6383   1.452   3.041   6.203 -0.7692  0.4000  0.0710
 2128SOL    HW2 6384   1.400   2.988   6.334  1.4056 -1.8647  0.0898
 2129SOL     OW 6385   0.733   3.289   6.088  1.0529 -0.4439 -0.6977
 2129SOL    HW1 6386   0.669   3.232   6.046 -1.3442  1.2832  0.3762
 2129SOL    HW2 6387   0.709   3.377   6.060  0.1163  0.6861  3.0722
 2130SOL     OW 6388   4.908   0.415   4.905 -0.1499 -0.5519  0.3345
 2130SOL    HW1 6389   4.880   0.497   4.866  2.5387  1.2065  1.7892
 2130SOL    HW2 6390   4.931   0.359   4.831  1.8710  1.5479 -0.7508
 2131SOL     OW 6391   2.485   1.751   9.825 -0.1445  0.1596 -0.3484
 2131SOL    HW1 6392   2.468   1.721   9.915 -1.2011 -3.9189 -1.6975
 2131SOL    HW2 6393   2.578   1.736   9.812 -0.0516  0.4610 -0.0500
 2132SOL     OW 6394   0.377   3.572   5.275  0.1899 -0.1422 -0.5060
 2132SOL    HW1 6395   0.310   3.594   5.340 -0.8278 -0.3613 -1.4554
 2132SOL    HW2 6396   0.371   3.476   5.266  1.4789 -0.3230  0.2780
 2133SOL     OW 6397   0.369   0.446   5.062 -0.1860 -0.3408 -0.2467
 2133SOL    HW1 6398   0.347   0.535   5.035 -1.0352  0.6148  3.0383
 2133SOL    HW2 6399   0.289   0.395   5.049  0.0593 -0.4542 -1.3890
 2134SOL     OW 6400   2.597   2.767   5.273 -0.1572  0.2958  0.3843
 2134SOL    HW1 6401   2.674   2.737   5.225  0.7174 -0.5377  2.1747
 2134SOL    HW2 6402   2.631   2.830   5.336 -1.4987  2.5751 -1.0612
 2135SOL     OW 6403   0.965   1.603   5.466 -0.3188  0.4962  0.4756
 2135SOL    HW1 6404   1.027   1.588   5.394 -0.4673 -2.7329  0.8790
 2135SOL    HW2 6405   1.006   1.673   5.517  1.7641  0.1566 -0.5971
 2136SOL     OW 6406   2.053   3.246   6.814 -0.4308 -0.0117 -0.4110
 2136SOL    HW1 6407   1.981   3.187   6.790 -0.3093  0.3616 -1.7802
 2136SOL    HW2 6408   2.109   3.194   6.871 -0.8770 -0.8692 -0.7399
 2137SOL     OW 6409   4.309   1.769   5.568  0.8442 -0.4607 -0.4023
 2137SOL    HW1 6410   4.344   1.792   5.654  0.4223  0.1700 -0.4022
 2137SOL    HW2 6411   4.362   1.820   5.507 -0.4156  0.9482 -0.3729
 2138SOL     OW 6412   1.921   0.231   5.964 -0.2131 -0.5619 -0.4562
 2138SOL    HW1 6413   2.006   0.249   6.004  0.3418  1.1307 -2.2059
 2138SOL    HW2 6414   1.880   0.168   6.022  2.4336 -1.8323  0.2049
 2139SOL     OW 6415   3.388   2.088   5.786 -0.1834 -0.2979  0.0474
 2139SOL    HW1 6416   3.301   2.047   5.796  0.5435 -1.6346  1.2581
 2139SOL    HW2 6417   3.447   2.031   5.836  1.2842  0.9877 -0.1619
 2140SOL     OW 6418   1.479   2.728   6.212 -0.0529 -0.3759  0.7715
 2140SOL    HW1 6419   1.540   2.699   6.143 -1.0102 -0.1229 -0.1961
 2140SOL    HW2 6420   1.535   2.741   6.288  1.1680  0.1328 -0.1704
 2141SOL     OW 6421   2.659   1.468   5.833  0.2031  0.2247 -0.4889
 2141SOL    HW1 6422   2.654   1.428   5.919 -2.6725 -3.7244 -2.2076
 2141SOL    HW2 6423   2.593   1.537   5.834  0.2263  0.2416  0.4480
 2142SOL     OW 6424   1.623   1.830   7.023  0.2081 -0.3528  0.3114
 2142SOL    HW1 6425   1.604   1.919   6.992  1.0457  0.0769  1.0180
 2142SOL    HW2 6426   1.713   1.834   7.055  0.0444 -1.3030  0.9180
 2143SOL     OW 6427   1.540   2.713   5.336  0.0800  0.2896 -0.2042
 2143SOL    HW1 6428   1.581   2.637   5.377 -0.4558  0.2705  0.3213
 2143SOL    HW2 6429   1.477   2.676   5.274 -0.1190  0.3042 -0.0112
 2144SOL     OW 6430   0.989   2.417   5.698 -0.2461  0.5796 -0.7194
 2144SOL    HW1 6431   0.943   2.498   5.677 -2.6405 -0.1935  1.0382
 2144SOL    HW2 6432   0.925   2.348   5.680  0.7755 -0.7142  0.3308
 2145SOL     OW 6433   1.616   4.386   5.645 -0.4934 -0.6640  0.3068
 2145SOL    HW1 6434   1.601   4.292   5.635 -1.1786 -0.6430  1.0391
 2145SOL    HW2 6435   1.588   4.405   5.735 -0.7255  0.3012  0.0397
 2146SOL     OW 6436   3.483   1.911   5.117  0.4797 -0.4709  0.0106
 2146SOL    HW1 6437   3.515   1.929   5.206  0.6849 -0.3116 -0.0969
 2146SOL    HW2 6438   3.413   1.975   5.104  3.2754  2.5313 -1.5775
 2147SOL     OW 6439   1.602   1.627   7.733  0.0069  0.0202  0.1436
 2147SOL    HW1 6440   1.545   1.552   7.714  2.4721 -1.8009 -0.5867
 2147SOL    HW2 6441   1.547   1.687   7.784 -2.2027 -2.0847  0.4151
 2148SOL     OW 6442   4.310   2.121   8.337  0.3480  0.3578  0.5414
 2148SOL    HW1 6443   4.358   2.098   8.258 -0.1442 -1.2510  0.6752
 2148SOL    HW2 6444   4.218   2.111   8.313  0.1622  0.8621  1.0246
 2149SOL     OW 6445   2.476   3.599   4.962 -0.2092 -0.2763 -0.6270
 2149SOL    HW1 6446   2.384   3.575   4.949  0.7213 -2.9251 -3.0145
 2149SOL    HW2 6447   2.517   3.520   4.998  1.2252  0.8075  0.2395
 2150SOL     OW 6448   2.399   0.336   5.248 -0.0646  0.5125 -0.0493
 2150SOL    HW1 6449   2.458   0.265   5.274 -1.7363 -1.0453 -0.2921
 2150SOL    HW2 6450   2.457   0.412   5.236  1.7071 -0.6193  0.8543
 2151SOL     OW 6451   4.259   3.545   7.637  0.2990  0.0347 -0.3908
 2151SOL    HW1 6452   4.195   3.484   7.675  2.7264 -1.8581  0.9908
 2151SOL    HW2 6453   4.315   3.489   7.584  0.4073  1.7643 -2.1970
 2152SOL     OW 6454   1.777   4.036   5.490  0.4772 -0.7119  0.5692
 2152SOL    HW1 6455   1.799   3.977   5.418 -0.1020  1.5851 -1.6305
 2152SOL    HW2 6456   1.861   4.069   5.521  0.7546  2.4158 -2.8585
 2153SOL     OW 6457   3.845   1.839   6.166 -0.0626  0.5994  0.1548
 2153SOL    HW1 6458   3.931   1.833   6.125 -0.0889 -1.0099  0.2686
 2153SOL    HW2 6459   3.859   1.890   6.246  0.5296  1.3943 -0.4536
 2154SOL     OW 6460   2.113   2.351   7.100  0.4397  0.0955  0.6733
 2154SOL    HW1 6461   2.041   2.307   7.054  1.6027  1.1271 -2.3845
 2154SOL    HW2 6462   2.180   2.283   7.109 -0.1219 -0.3419  1.7218
 2155SOL     OW 6463   3.607   4.060   6.631 -0.0103  0.2568  0.2692
 2155SOL    HW1 6464   3.642   3.977   6.600  1.9337  1.0019  0.3441
 2155SOL    HW2 6465   3.563   4.098   6.554  1.5508  0.4160 -0.5729
 2156SOL     OW 6466   3.885   3.098   5.399 -0.0809  0.2318 -0.4768
 2156SOL    HW1 6467   3.791   3.112   5.411 -0.4256 -0.9667 -1.5029
 2156SOL    HW2 6468   3.913   3.170   5.342 -0.7012 -0.2076 -1.3688
 2157SOL     OW 6469   0.908   3.390   5.847 -0.0048  0.0432  0.4446
 2157SOL    HW1 6470   0.849   3.382   5.771  0.5967 -1.6763  0.1110
 2157SOL    HW2 6471   0.860   3.349   5.919  0.6976 -1.2469  0.2023
 2158SOL     OW 6472   4.997   2.905   5.162 -0.0833 -0.1455  0.1761
 2158SOL    HW1 6473   4.905   2.913   5.186 -0.1591  0.5965 -0.3233
 2158SOL    HW2 6474   5.017   2.986   5.115  0.7267 -0.4551 -0.0396
 2159SOL     OW 6475   3.922   0.722   5.526 -0.2648  0.3199 -0.3829
 2159SOL    HW1 6476   4.003   0.691   5.485  0.1223  1.9595 -0.9661
 2159SOL    HW2 6477   3.863   0.738   5.453 -0.8608 -0.1900 -0.0131
 2160SOL     OW 6478   3.426   3.268   5.342 -0.3850 -0.3738  0.0109
 2160SOL    HW1 6479   3.392   3.331   5.278 -1.6496  1.1605  2.0550
 2160SOL    HW2 6480   3.349   3.242   5.393  0.6052 -1.3280  1.0848
 2161SOL     OW 6481   2.282   4.048   5.372 -0.6726  0.1378  0.9958
 2161SOL    HW1 6482   2.277   4.074   5.280  1.5730 -1.3753  0.3691
 2161SOL    HW2 6483   2.226   3.971   5.379  1.6633 -1.7649  0.0102
 2162SOL     OW 6484   0.379   1.769   6.589 -0.0512  0.1207  0.2336
 2162SOL    HW1 6485   0.286   1.790   6.601  0.3974  1.4733  1.5857
 2162SOL    HW2 6486   0.413   1.755   6.677  1.1242  0.0458 -0.2125
 2163SOL     OW 6487   1.780   0.603   8.899 -0.5294  0.3646 -0.4024
 2163SOL    HW1 6488   1.742   0.577   8.815 -3.7493 -0.6401  1.2014
 2163SOL    HW2 6489   1.715   0.662   8.938 -0.1004 -0.7019  2.1619
 2164SOL     OW 6490   2.856   3.221   5.749  0.5407  0.1191 -0.5299
 2164SOL    HW1 6491   2.801   3.299   5.754  0.6214  0.5782 -4.1145
 2164SOL    HW2 6492   2.939   3.248   5.789 -0.3194  0.9067  0.7997
 2165SOL     OW 6493   3.591   1.539   5.341  0.2194  0.0221 -0.1345
 2165SOL    HW1 6494   3.594   1.587   5.258  2.3996 -0.5086 -0.4227
 2165SOL    HW2 6495   3.600   1.607   5.408 -1.1033  0.4064 -0.3182
 2166SOL     OW 6496   2.429   3.182   5.416  0.6828  0.5444  0.0145
 2166SOL    HW1 6497   2.432   3.119   5.488  2.0270  1.3283  0.7077
 2166SOL    HW2 6498   2.520   3.187   5.385  0.3081  0.9772 -1.0551
 2167SOL     OW 6499   2.222   1.118   6.113 -0.0517 -0.0854  0.2923
 2167SOL    HW1 6500   2.291   1.138   6.050  0.0192 -2.5750 -0.5543
 2167SOL    HW2 6501   2.169   1.197   6.119  1.1795  0.9023 -1.2587
 2168SOL     OW 6502   2.634   4.831   7.166  0.4529  0.1752  0.7741
 2168SOL    HW1 6503   2.626   4.813   7.072 -0.5170  0.6330  0.7581
 2168SOL    HW2 6504   2.546   4.817   7.201  0.8343 -0.1166  1.6458
 2169SOL     OW 6505   3.328   3.063   7.478  0.7392 -0.3745  0.4010
 2169SOL    HW1 6506   3.244   3.100   7.506  0.3277  0.6160 -1.9733
 2169SOL    HW2 6507   3.305   2.980   7.437  1.0413 -0.5354  0.5487
 2170SOL     OW 6508   2.143   0.379   5.609 -0.4943 -0.5537 -0.0890
 2170SOL    HW1 6509   2.159   0.373   5.515 -0.1721  0.7980 -0.1565
 2170SOL    HW2 6510   2.052   0.352   5.621 -1.6935  2.4330 -1.3014
 2171SOL     OW 6511   2.790   4.519   5.679 -0.0226 -0.1584 -0.0880
 2171SOL    HW1 6512   2.882   4.502   5.660  0.2715 -0.1314  1.2155
 2171SOL    HW2 6513   2.771   4.466   5.756 -2.0276 -2.7571 -2.1657
 2172SOL     OW 6514   1.879   2.158   6.157  0.0812  0.0019  0.3123
 2172SOL    HW1 6515   1.907   2.244   6.126  1.1665  0.4820  2.4190
 2172SOL    HW2 6516   1.808   2.177   6.218  1.2389 -0.4116  1.8602
 2173SOL     OW 6517   4.142   2.930   6.790  0.6938 -0.0593  0.7684
 2173SOL    HW1 6518   4.187   2.917   6.873  0.8964 -0.9099  0.5371
 2173SOL    HW2 6519   4.125   3.024   6.786  0.9600  0.0324  1.6223
 2174SOL     OW 6520   2.400   2.266   8.833  0.0199  0.1963  0.0421
 2174SOL    HW1 6521   2.321   2.310   8.865 -0.4493 -0.0133 -0.7923
 2174SOL    HW2 6522   2.427   2.318   8.757 -0.6113 -0.9836 -1.0325
 2175SOL     OW 6523   0.770   0.363   5.325 -0.6626 -0.0186  0.3160
 2175SOL    HW1 6524   0.742   0.393   5.412  0.7956  0.5988  0.5955
 2175SOL    HW2 6525   0.767   0.268   5.331  1.1127 -0.0364  1.6565
 2176SOL     OW 6526   3.324   1.802   6.353 -0.1556 -0.7204 -0.2071
 2176SOL    HW1 6527   3.309   1.877   6.296 -1.7158  0.3627  1.5277
 2176SOL    HW2 6528   3.396   1.754   6.311  1.2603  1.9770 -1.0881
 2177SOL     OW 6529   3.631   3.100   6.696 -0.5756 -0.4903  0.7823
 2177SOL    HW1 6530   3.709   3.110   6.640 -0.8901  1.4595  0.6122
 2177SOL    HW2 6531   3.666   3.079   6.782  0.0166 -1.6996  0.2627
 2178SOL     OW 6532   4.869   3.481   6.324 -0.0249 -0.2449  0.3318
 2178SOL    HW1 6533   4.953   3.440   6.302  1.3360  0.5510  3.3821
 2178SOL    HW2 6534   4.818   3.411   6.364  0.1878 -0.1934  0.7013
 2179SOL     OW 6535   2.413   2.046   9.592 -0.7341 -0.7209 -0.5631
 2179SOL    HW1 6536   2.422   1.962   9.547  1.1578 -0.2723 -1.1354
 2179SOL    HW2 6537   2.501   2.085   9.587 -1.4970  1.1690 -0.0771
 2180SOL     OW 6538   4.726   0.468   6.528  0.1030 -0.1467  0.0765
 2180SOL    HW1 6539   4.646   0.519   6.515 -0.8646 -0.8919  2.5101
 2180SOL    HW2 6540   4.794   0.517   6.480 -1.6747  0.7467 -1.6735
 2181SOL     OW 6541   2.609   2.348   6.903 -0.1701 -0.0732  0.1204
 2181SOL    HW1 6542   2.628   2.346   6.997 -0.2779 -1.5449  0.1333
 2181SOL    HW2 6543   2.528   2.299   6.893 -0.9860  1.3461 -0.5980
 2182SOL     OW 6544   4.369   0.801   7.036  0.6234 -0.4742  0.7240
 2182SOL    HW1 6545   4.328   0.880   7.070 -1.4452 -1.0511 -0.2898
 2182SOL    HW2 6546   4.411   0.828   6.955 -2.2804 -0.8071 -1.0117
 2183SOL     OW 6547   4.559   2.337   4.819  0.4844  0.0159 -0.1544
 2183SOL    HW1 6548   4.535   2.263   4.875  0.5615  0.5318  0.5838
 2183SOL    HW2 6549   4.529   2.312   4.731 -3.2956  0.7725  0.7121
 2184SOL     OW 6550   1.234   0.327   4.773 -0.2853 -0.4119  0.1078
 2184SOL    HW1 6551   1.311   0.344   4.828  0.1922 -0.0023 -0.6637
 2184SOL    HW2 6552   1.257   0.248   4.724  1.0568  1.4693 -2.5157
 2185SOL     OW 6553   0.140   2.849   5.419  0.1452 -0.0696 -0.7523
 2185SOL    HW1 6554   0.165   2.757   5.412 -0.2150 -0.0871 -2.1904
 2185SOL    HW2 6555   0.105   2.871   5.332  0.7191  1.5711 -0.5996
 2186SOL     OW 6556   3.383   3.077   5.763  0.4294  0.5633  0.1224
 2186SOL    HW1 6557   3.449   3.033   5.816 -0.1842  1.7636  1.9816
 2186SOL    HW2 6558   3.308   3.086   5.822 -1.4846 -0.8581 -1.9300
 2187SOL     OW 6559   4.718   0.858   5.065 -0.5268  0.0336 -0.4138
 2187SOL    HW1 6560   4.707   0.771   5.102 -2.7362 -0.6255 -2.4074
 2187SOL    HW2 6561   4.812   0.876   5.073 -0.1537 -2.1609  0.7570
 2188SOL     OW 6562   3.189   1.305   5.144  0.3375  0.3371 -0.4424
 2188SOL    HW1 6563   3.106   1.353   5.143  0.6347  1.0796  1.9587
 2188SOL    HW2 6564   3.240   1.343   5.073 -1.0325  0.5000 -1.3728
 2189SOL     OW 6565   3.719   1.318   7.273  0.3676  0.1141 -0.1184
 2189SOL    HW1 6566   3.629   1.349   7.265  0.1745 -0.6082 -0.9273
 2189SOL    HW2 6567   3.711   1.223   7.280  0.9824  0.1551  1.5840
 2190SOL     OW 6568   3.519   4.751   5.057  0.3904  0.0615  0.2164
 2190SOL    HW1 6569   3.440   4.711   5.093 -0.7155  1.1526 -0.8782
 2190SOL    HW2 6570   3.512   4.737   4.962  1.6111  0.0189  0.1136
 2191SOL     OW 6571   3.704   3.596   5.740 -0.0983  0.8742  0.2256
 2191SOL    HW1 6572   3.728   3.668   5.799 -1.0516  0.9460  0.5416
 2191SOL    HW2 6573   3.788   3.565   5.705  0.3335  2.1113  0.1084
 2192SOL     OW 6574   2.750   3.048   9.623  0.2877  0.1108 -0.0689
 2192SOL    HW1 6575   2.670   3.098   9.607  0.6044  0.2505 -1.3215
 2192SOL    HW2 6576   2.820   3.112   9.616  0.5251 -0.0181  1.0073
 2193SOL     OW 6577   4.527   3.167   6.180  0.4283  0.5119 -0.0526
 2193SOL    HW1 6578   4.474   3.243   6.204 -1.9303 -1.0697  0.1192
 2193SOL    HW2 6579   4.515   3.159   6.086 -0.6465 -0.5094  0.1475
 2194SOL     OW 6580   1.206   3.126   5.416  0.8171 -0.1633 -0.0219
 2194SOL    HW1 6581   1.115   3.150   5.395  1.0052  0.7778  0.1741
 2194SOL    HW2 6582   1.255   3.147   5.337  1.2404  1.6847  0.6841
 2195SOL     OW 6583   2.086   2.688   6.006 -0.5745 -0.2680  0.1410
 2195SOL    HW1 6584   2.181   2.695   5.993 -0.3882 -0.2212  1.4041
 2195SOL    HW2 6585   2.048   2.716   5.923  0.5347 -1.6154 -0.8731
 2196SOL     OW 6586   2.843   3.811   5.372  0.1021 -0.0135 -0.0896
 2196SOL    HW1 6587   2.838   3.845   5.283  1.3536  1.9512  0.5327
 2196SOL    HW2 6588   2.864   3.718   5.362  0.4084  0.2256 -1.8353
 2197SOL     OW 6589   2.242   4.234   7.051 -0.5676  0.5618 -0.7945
 2197SOL    HW1 6590   2.198   4.302   7.103  1.2424  0.1983  1.3410
 2197SOL    HW2 6591   2.213   4.152   7.089 -1.6196  0.1256 -2.4385
 2198SOL     OW 6592   1.436   0.788   7.109  0.4051  0.6652  0.1350
 2198SOL    HW1 6593   1.428   0.839   7.189 -0.9705 -2.1262  1.9620
 2198SOL    HW2 6594   1.346   0.764   7.087  1.0195 -2.2146  0.3605
 2199SOL     OW 6595   3.524   2.613   5.718  0.5557  0.0767 -0.6120
 2199SOL    HW1 6596   3.538   2.701   5.683  0.0866  0.0567 -0.8630
 2199SOL    HW2 6597   3.473   2.568   5.650 -0.6539  0.1344  0.2109
 2200SOL     OW 6598   4.498   0.064   6.330  0.1812  0.4812  0.0751
 2200SOL    HW1 6599   4.543   0.030   6.253  2.7074  0.5774  1.3799
 2200SOL    HW2 6600   4.464   0.149   6.303  0.8841  0.4373 -0.9849
 2201SOL     OW 6601   1.532   3.440   5.981 -0.0847  0.1189 -0.0683
 2201SOL    HW1 6602   1.618   3.479   5.997  0.5556 -0.1563 -2.4373
 2201SOL    HW2 6603   1.469   3.508   6.005  0.9581  2.2444 -2.8060
 2202SOL     OW 6604   3.759   3.615   6.766 -0.4816  0.0576 -0.3088
 2202SOL    HW1 6605   3.751   3.704   6.733 -0.6124  0.1824  0.0608
 2202SOL    HW2 6606   3.836   3.617   6.823  0.8584 -0.5787 -1.9867
 2203SOL     OW 6607   1.825   3.873   6.240  0.0127 -0.5208 -0.2490
 2203SOL    HW1 6608   1.808   3.936   6.310 -2.9161 -1.1257 -0.2988
 2203SOL    HW2 6609   1.843   3.791   6.285 -1.4049 -0.8028 -0.1683
 2204SOL     OW 6610   3.506   3.373   6.543 -0.3417 -0.3087  0.3517
 2204SOL    HW1 6611   3.540   3.445   6.489 -2.8512  1.4736  0.9258
 2204SOL    HW2 6612   3.519   3.295   6.490 -1.4347  1.1624 -2.3150
 2205SOL     OW 6613   2.250   4.175   5.124 -0.0784  0.3983 -0.2493
 2205SOL    HW1 6614   2.254   4.270   5.132 -1.1901  0.6248 -1.9164
 2205SOL    HW2 6615   2.159   4.156   5.102  0.1626 -1.0394 -0.1372
 2206SOL     OW 6616   3.370   3.946   6.240 -0.4629  0.7988  0.7154
 2206SOL    HW1 6617   3.397   3.882   6.174 -1.1347  0.3396  0.8759
 2206SOL    HW2 6618   3.418   4.025   6.217  0.6233  0.1607  0.6952
 2207SOL     OW 6619   3.192   2.400   5.004 -0.7669 -0.1789 -0.2110
 2207SOL    HW1 6620   3.173   2.491   4.980 -2.0505 -0.3261  0.1768
 2207SOL    HW2 6621   3.255   2.406   5.076 -1.0972  0.4103  0.0297
 2208SOL     OW 6622   3.692   2.081   8.549  0.2145  0.5841  0.8587
 2208SOL    HW1 6623   3.780   2.099   8.581  0.3585  0.3542  0.6066
 2208SOL    HW2 6624   3.672   1.993   8.583  0.9824 -0.3279 -0.9067
 2209SOL     OW 6625   2.235   2.991   8.964 -0.3279  0.1388  0.6356
 2209SOL    HW1 6626   2.171   2.931   8.925 -1.0903 -0.1420  2.2304
 2209SOL    HW2 6627   2.182   3.064   8.996  0.3147  0.5407  0.7904
 2210SOL     OW 6628   0.356   2.871   5.825  0.6684 -0.1888 -0.5965
 2210SOL    HW1 6629   0.404   2.938   5.873 -0.3724  2.3023 -2.7830
 2210SOL    HW2 6630   0.282   2.849   5.881  0.5164  1.2216 -0.2184
 2211SOL     OW 6631   0.639   0.170   6.156  0.3786  0.0620 -0.1765
 2211SOL    HW1 6632   0.551   0.131   6.163 -0.8222  2.7895  2.7420
 2211SOL    HW2 6633   0.693   0.119   6.216  0.1194 -0.1592 -0.1305
 2212SOL     OW 6634   3.662   2.091   4.917  0.6187 -0.0648  0.7345
 2212SOL    HW1 6635   3.581   2.040   4.918  0.3108  0.1187 -2.6286
 2212SOL    HW2 6636   3.731   2.028   4.935 -0.0656 -0.7330  1.0783
 2213SOL     OW 6637   4.249   1.458   5.069  0.1777  0.0242 -0.5765
 2213SOL    HW1 6638   4.184   1.491   5.132 -0.1932 -0.7463 -0.5483
 2213SOL    HW2 6639   4.318   1.420   5.123  1.7561  2.7268 -0.5143
 2214SOL     OW 6640   4.445   3.440   5.464  0.0457 -0.2028  0.6232
 2214SOL    HW1 6641   4.427   3.390   5.543  1.0087 -0.0915  0.9244
 2214SOL    HW2 6642   4.416   3.384   5.392  0.1241 -0.7441  1.0076
 2215SOL     OW 6643   1.496   3.901   5.112  0.1127 -0.0904  0.9182
 2215SOL    HW1 6644   1.417   3.878   5.161  0.2431  0.5511  1.4465
 2215SOL    HW2 6645   1.465   3.916   5.023 -0.5060  0.9203  1.2864
 2216SOL     OW 6646   2.110   3.952   6.231  0.3646 -0.0801  0.6948
 2216SOL    HW1 6647   2.156   3.988   6.306  2.6864  1.9652 -1.5077
 2216SOL    HW2 6648   2.022   3.991   6.234  0.6869  0.5678  1.8957
 2217SOL     OW 6649   3.117   2.525   7.989  0.0093  0.8029 -0.2939
 2217SOL    HW1 6650   3.156   2.516   8.076 -0.1615  4.6163  0.3533
 2217SOL    HW2 6651   3.188   2.505   7.928  1.7461  2.9549  0.8567
 2218SOL     OW 6652   3.160   3.032   6.883 -0.1255  0.6624  1.0883
 2218SOL    HW1 6653   3.127   3.117   6.913  0.8539  1.7529 -0.7536
 2218SOL    HW2 6654   3.083   2.989   6.845 -0.4067  1.1695  1.0718
 2219SOL     OW 6655   1.364   4.331   7.064 -0.5387  0.2110 -0.5972
 2219SOL    HW1 6656   1.291   4.269   7.055 -0.1051 -0.5710  0.9361
 2219SOL    HW2 6657   1.433   4.295   7.008 -0.7613  0.0795 -0.7900
 2220SOL     OW 6658   1.830   1.628   5.302 -0.1600  1.1273  0.3663
 2220SOL    HW1 6659   1.917   1.666   5.291  0.6804 -0.4891  1.0497
 2220SOL    HW2 6660   1.846   1.545   5.348 -1.8996 -0.0081 -0.9764
 2221SOL     OW 6661   2.964   4.154   9.632 -0.2126  0.3805 -0.1693
 2221SOL    HW1 6662   2.898   4.139   9.699  1.6774  0.2484  1.7726
 2221SOL    HW2 6663   2.961   4.248   9.615  0.6219  0.7556  1.6177
 2222SOL     OW 6664   4.360   2.937   6.214  0.3958 -0.4573 -0.1221
 2222SOL    HW1 6665   4.383   3.025   6.185  0.4876  0.4081  2.3101
 2222SOL    HW2 6666   4.264   2.936   6.216  0.3986 -0.2121  0.3276
 2223SOL     OW 6667   3.347   2.568   7.520 -0.1430  0.1855 -0.3498
 2223SOL    HW1 6668   3.421   2.628   7.506  0.2056  0.0422  0.8351
 2223SOL    HW2 6669   3.335   2.526   7.434 -0.2436  1.7574 -1.1404
 2224SOL     OW 6670   4.014   0.100   8.052 -0.5083  0.2768  0.1618
 2224SOL    HW1 6671   3.968   0.033   8.103 -2.0318 -0.4846 -2.0741
 2224SOL    HW2 6672   4.002   0.180   8.102 -0.0368 -0.7802  2.0866
 2225SOL     OW 6673   4.337   1.166   5.060  0.1465  0.2734 -0.3715
 2225SOL    HW1 6674   4.309   1.250   5.025  0.1581  0.4806  0.1205
 2225SOL    HW2 6675   4.432   1.165   5.047  0.0469 -0.0142 -1.1291
 2226SOL     OW 6676   3.784   3.143   5.766 -0.0610  0.1093  0.2653
 2226SOL    HW1 6677   3.754   3.104   5.684  2.1649 -0.7289 -0.2077
 2226SOL    HW2 6678   3.722   3.214   5.783 -0.5498  0.3288 -2.1710
 2227SOL     OW 6679   2.375   2.383   8.567  0.4218 -0.1204  0.0561
 2227SOL    HW1 6680   2.287   2.408   8.596 -0.3239 -0.4616 -1.7999
 2227SOL    HW2 6681   2.396   2.445   8.497  0.7661 -1.3135 -0.9402
 2228SOL     OW 6682   3.896   3.006   6.220 -0.0880 -0.4325 -0.2098
 2228SOL    HW1 6683   3.878   2.971   6.132 -1.4328  0.2876 -0.2581
 2228SOL    HW2 6684   3.983   3.044   6.214 -0.3958  0.1318 -1.4302
 2229SOL     OW 6685   2.889   2.024   7.421  0.3552  0.2523 -0.0423
 2229SOL    HW1 6686   2.912   2.037   7.329 -1.1341 -0.6594 -0.5705
 2229SOL    HW2 6687   2.793   2.020   7.422  0.3973 -1.6325  1.2764
 2230SOL     OW 6688   1.740   0.164   9.992 -0.5185 -0.1082 -0.8964
 2230SOL    HW1 6689   1.656   0.143   9.952 -0.5650  1.7322 -1.8765
 2230SOL    HW2 6690   1.747   0.259   9.984 -0.2552  0.3413  3.0381
 2231SOL     OW 6691   1.019   4.370   5.541  0.4236  0.5747  0.1313
 2231SOL    HW1 6692   1.058   4.324   5.466  1.5381  2.1800 -0.3306
 2231SOL    HW2 6693   0.936   4.325   5.557  1.9667 -2.3638  0.5004
 2232SOL     OW 6694   0.670   2.235   5.931 -0.2703  0.6009 -0.5427
 2232SOL    HW1 6695   0.656   2.141   5.929 -1.2128  0.6615  1.1807
 2232SOL    HW2 6696   0.758   2.246   5.966 -0.1747  0.3752 -0.7094
 2233SOL     OW 6697   3.258   1.014   6.524  0.0709 -0.0754 -0.2540
 2233SOL    HW1 6698   3.266   0.978   6.436  0.7848 -1.1537  0.2288
 2233SOL    HW2 6699   3.347   1.043   6.547 -0.1453  0.3794  0.0396
 2234SOL     OW 6700   1.980   4.094   5.145 -0.3610  0.0310  0.1030
 2234SOL    HW1 6701   1.914   4.025   5.146 -0.7329  0.3439  2.3074
 2234SOL    HW2 6702   1.932   4.174   5.166  0.5511  0.4231  0.7538
 2235SOL     OW 6703   3.033   2.131   8.579 -0.5878  0.4875  0.1062
 2235SOL    HW1 6704   3.075   2.148   8.495 -1.0643 -0.4443 -0.3416
 2235SOL    HW2 6705   3.012   2.037   8.577 -0.5654  0.4358  1.2861
 2236SOL     OW 6706   2.489   1.907   5.304 -0.1829 -0.7041 -0.1448
 2236SOL    HW1 6707   2.432   1.848   5.254 -0.3179  0.2624 -1.1929
 2236SOL    HW2 6708   2.443   1.991   5.302 -0.8288 -0.8737  2.7408
 2237SOL     OW 6709   1.048   2.380   8.891  0.3449  0.2456  0.3565
 2237SOL    HW1 6710   0.955   2.356   8.898  0.1435  0.5260 -1.0371
 2237SOL    HW2 6711   1.078   2.336   8.811  0.9466  1.5734 -0.1684
 2238SOL     OW 6712   3.905   3.292   5.200  0.0432  0.4634 -0.1962
 2238SOL    HW1 6713   3.953   3.260   5.124  4.6792 -0.9621  2.8974
 2238SOL    HW2 6714   3.943   3.378   5.218  1.4577 -0.5712  2.2052
 2239SOL     OW 6715   1.028   2.487   6.595  0.0723 -0.0433  0.1577
 2239SOL    HW1 6716   0.968   2.542   6.544 -0.6685 -0.4919  0.5284
 2239SOL    HW2 6717   1.111   2.492   6.548 -0.2869  0.5011 -0.4298
 2240SOL     OW 6718   2.507   4.395   5.553  0.4375  0.1044  0.2377
 2240SOL    HW1 6719   2.601   4.380   5.542 -0.0223 -1.5528 -2.0239
 2240SOL    HW2 6720   2.480   4.441   5.474 -0.9497 -0.9399  0.0793
 2241SOL     OW 6721   3.159   3.440   5.480 -0.3365 -0.2225 -0.2287
 2241SOL    HW1 6722   3.177   3.358   5.525  0.7829  0.1358  0.0176
 2241SOL    HW2 6723   3.236   3.495   5.498 -1.6825  1.4363  0.8908
 2242SOL     OW 6724   4.017   4.684   5.752 -0.1457 -0.5247 -0.1300
 2242SOL    HW1 6725   4.039   4.614   5.690  0.4885  0.9530 -1.6534
 2242SOL    HW2 6726   3.990   4.758   5.697 -0.4615  0.5559  1.4008
 2243SOL     OW 6727   3.863   3.688   6.172 -0.1998  0.2499  0.6020
 2243SOL    HW1 6728   3.945   3.738   6.175 -0.2344  0.2865  1.2220
 2243SOL    HW2 6729   3.890   3.599   6.149 -0.2308  0.7147 -1.4217
 2244SOL     OW 6730   3.326   4.224   7.822 -0.2839 -0.5475 -0.0302
 2244SOL    HW1 6731   3.332   4.316   7.799 -0.4169 -0.3599  0.6718
 2244SOL    HW2 6732   3.232   4.206   7.823 -0.2699 -0.5975  0.2123
 2245SOL     OW 6733   1.436   3.345   4.988 -0.1975  0.1102 -0.2704
 2245SOL    HW1 6734   1.520   3.374   5.023 -0.1087 -0.4294 -0.0252
 2245SOL    HW2 6735   1.459   3.290   4.912 -0.3561  0.5377 -0.6322
 2246SOL     OW 6736   0.318   3.109   6.255  0.0620 -0.1475 -0.0149
 2246SOL    HW1 6737   0.233   3.153   6.264  0.2103 -0.1396  1.5594
 2246SOL    HW2 6738   0.340   3.119   6.162  0.5079  3.9300  0.3410
 2247SOL     OW 6739   2.233   4.580   6.555 -0.3434  0.2462  0.0392
 2247SOL    HW1 6740   2.162   4.519   6.533 -0.7124  0.5894  0.2478
 2247SOL    HW2 6741   2.235   4.641   6.481  1.7082 -1.4499 -1.4239
 2248SOL     OW 6742   3.543   2.369   9.329  0.3722 -0.2719  0.3258
 2248SOL    HW1 6743   3.490   2.290   9.319  1.3328 -0.7927 -1.0574
 2248SOL    HW2 6744   3.609   2.345   9.395 -0.3499 -0.0339  1.1506
 2249SOL     OW 6745   1.454   3.806   7.789  0.0652 -0.2895 -0.3765
 2249SOL    HW1 6746   1.462   3.901   7.791 -0.6488 -0.1901 -1.4000
 2249SOL    HW2 6747   1.417   3.787   7.703  2.3896 -1.6813 -1.1423
 2250SOL     OW 6748   0.159   4.221   9.929  0.4524 -0.5280 -0.3034
 2250SOL    HW1 6749   0.111   4.186  10.004 -1.0768 -0.5018 -1.2394
 2250SOL    HW2 6750   0.232   4.160   9.916  0.7186 -0.5476  1.1622
 2251SOL     OW 6751   2.328   1.139   5.032 -0.3570 -0.4422  0.0452
 2251SOL    HW1 6752   2.335   1.206   5.100  1.2077 -0.5303  0.0007
 2251SOL    HW2 6753   2.236   1.141   5.007 -0.6158  0.7789  0.9643
 2252SOL     OW 6754   4.322   0.762   6.635  0.1785  0.2762  0.3922
 2252SOL    HW1 6755   4.330   0.669   6.617 -1.5063  0.3686 -1.0494
 2252SOL    HW2 6756   4.345   0.805   6.552 -0.7642  1.0511  0.5065
 2253SOL     OW 6757   1.240   4.196   5.371  0.4760 -0.5261 -0.4130
 2253SOL    HW1 6758   1.255   4.156   5.457 -1.2610  1.5105  0.9488
 2253SOL    HW2 6759   1.328   4.205   5.334  1.2593 -1.6761  1.0385
 2254SOL     OW 6760   3.837   4.215   7.644  0.0297  1.0877 -0.3069
 2254SOL    HW1 6761   3.823   4.309   7.634  1.7864  1.5292  0.9233
 2254SOL    HW2 6762   3.899   4.207   7.716 -1.2705 -1.1049  0.7068
 2255SOL     OW 6763   2.383   1.513   6.126 -0.1174 -0.2471  0.6712
 2255SOL    HW1 6764   2.440   1.576   6.081 -0.1652 -0.6479  0.0239
 2255SOL    HW2 6765   2.333   1.565   6.188  1.1143  0.0834  1.4148
 2256SOL     OW 6766   1.473   4.779   6.389 -0.4469 -0.3212 -0.2024
 2256SOL    HW1 6767   1.400   4.840   6.377 -1.0640 -1.1579 -0.8741
 2256SOL    HW2 6768   1.548   4.834   6.409 -1.5809  0.4941  2.2395
 2257SOL     OW 6769   0.863   3.514   7.434 -0.5121 -0.0502  0.5744
 2257SOL    HW1 6770   0.952   3.481   7.447 -0.4610  0.3566  1.3129
 2257SOL    HW2 6771   0.863   3.548   7.345 -0.2754 -1.1134  0.1514
 2258SOL     OW 6772   1.278   4.245   7.735  0.0682 -0.3985  0.0352
 2258SOL    HW1 6773   1.258   4.273   7.824  0.2077  1.9096 -0.5825
 2258SOL    HW2 6774   1.360   4.290   7.714 -0.0905 -0.7061 -1.3448
 2259SOL     OW 6775   2.799   2.759   5.720  0.0650  0.3554 -0.0732
 2259SOL    HW1 6776   2.780   2.834   5.664 -2.2415  0.2462  0.4508
 2259SOL    HW2 6777   2.824   2.797   5.804  0.0381  0.5177 -0.1391
 2260SOL     OW 6778   1.699   3.912   5.843  0.0753 -0.2459  0.0182
 2260SOL    HW1 6779   1.755   3.835   5.842  1.8734  0.9773  1.2548
 2260SOL    HW2 6780   1.749   3.978   5.891 -2.6871  0.7408  1.7644
 2261SOL     OW 6781   4.397   3.300   7.554  0.2934 -0.2367 -0.0859
 2261SOL    HW1 6782   4.318   3.300   7.500  0.7532  1.1482 -0.7907
 2261SOL    HW2 6783   4.440   3.216   7.534 -0.4727 -0.5434 -0.4667
 2262SOL     OW 6784   0.181   4.891   6.072  0.1218  0.4009  0.1041
 2262SOL    HW1 6785   0.273   4.920   6.066  0.3542 -0.5991 -3.9708
 2262SOL    HW2 6786   0.133   4.956   6.020 -1.1785 -0.2583  0.4547
 2263SOL     OW 6787   3.613   2.897   5.791 -0.0357 -0.1582  0.2982
 2263SOL    HW1 6788   3.677   2.968   5.794  0.7500 -0.4443 -3.6391
 2263SOL    HW2 6789   3.646   2.832   5.853  0.5540  1.8142  2.1763
 2264SOL     OW 6790   0.386   2.848   6.573 -0.4216  0.5513 -0.1572
 2264SOL    HW1 6791   0.428   2.793   6.638 -0.8170 -1.3662 -1.4491
 2264SOL    HW2 6792   0.313   2.889   6.619 -1.5261 -1.8190  0.3227
 2265SOL     OW 6793   0.335   3.080   7.924 -0.1591 -0.1818 -0.7161
 2265SOL    HW1 6794   0.371   3.041   7.844  0.9564 -0.0514 -0.2929
 2265SOL    HW2 6795   0.353   3.016   7.993 -2.1211 -0.8092 -0.7298
 2266SOL     OW 6796   2.495   5.001   8.055 -0.8440 -0.1671  0.2296
 2266SOL    HW1 6797   2.580   4.957   8.046 -0.6837 -0.2241  1.7516
 2266SOL    HW2 6798   2.469   5.020   7.965 -0.1051 -1.8354 -0.3961
 2267SOL     OW 6799   1.285   3.282   5.217  0.4856 -0.2987  0.1045
 2267SOL    HW1 6800   1.308   3.364   5.262 -0.3460 -0.4670  0.8669
 2267SOL    HW2 6801   1.303   3.299   5.125 -2.4215  1.8250 -0.2209
 2268SOL     OW 6802   3.346   2.577   5.942  0.5288  0.2249  0.3084
 2268SOL    HW1 6803   3.372   2.492   5.978 -0.0299 -0.3530 -0.6238
 2268SOL    HW2 6804   3.416   2.599   5.881  0.2214 -0.0146 -0.1374
 2269SOL     OW 6805   2.234   3.849   6.957 -0.2942  0.3175  0.4288
 2269SOL    HW1 6806   2.229   3.910   6.884 -0.1259  1.7155  1.5326
 2269SOL    HW2 6807   2.148   3.853   6.998  0.5027  1.9779  2.1177
 2270SOL     OW 6808   2.073   3.385   5.132 -0.4194  0.3239  0.1675
 2270SOL    HW1 6809   2.074   3.480   5.120 -2.7469  0.6127  1.6355
 2270SOL    HW2 6810   2.011   3.353   5.066  2.1850 -0.5857 -2.0398
 2271SOL     OW 6811   1.327   0.111   5.157 -0.1842  0.0926  0.1801
 2271SOL    HW1 6812   1.236   0.093   5.180 -0.8280  0.6504 -1.7659
 2271SOL    HW2 6813   1.333   0.090   5.064  1.4327  0.9359  0.0583
 2272SOL     OW 6814   0.101   1.120   5.585  0.2207  0.4120 -0.1722
 2272SOL    HW1 6815   0.152   1.041   5.604 -0.4834 -0.1448 -0.5273
 2272SOL    HW2 6816   0.044   1.132   5.661 -0.1840  0.1498 -0.4268
 2273SOL     OW 6817   3.067   3.726   7.317  0.0576  0.8229  0.8673
 2273SOL    HW1 6818   3.088   3.710   7.409 -0.1910  2.9239  1.3260
 2273SOL    HW2 6819   2.983   3.682   7.304  0.6500 -0.5127  1.2682
 2274SOL     OW 6820   4.318   3.588   6.642 -0.0194 -0.2879  0.1234
 2274SOL    HW1 6821   4.328   3.663   6.584 -0.0971 -0.9239 -0.7220
 2274SOL    HW2 6822   4.336   3.624   6.729  0.1917  0.6538 -0.2883
 2275SOL     OW 6823   2.341   2.809   5.877 -0.5359 -0.3887  0.0722
 2275SOL    HW1 6824   2.284   2.852   5.941 -1.1815 -0.4156 -0.4701
 2275SOL    HW2 6825   2.429   2.833   5.903 -0.8382  0.3351  0.4502
 2276SOL     OW 6826   2.818   4.484   6.003 -0.1903  0.1433 -0.3338
 2276SOL    HW1 6827   2.863   4.399   6.001  0.2376  0.3316 -3.8320
 2276SOL    HW2 6828   2.736   4.466   6.049 -0.7270 -2.5539 -2.0930
 2277SOL     OW 6829   3.488   3.385   8.873  0.7323 -0.3231  0.1492
 2277SOL    HW1 6830   3.548   3.347   8.937  1.9959 -0.4904 -1.0882
 2277SOL    HW2 6831   3.491   3.479   8.889  2.0294 -0.2474 -0.4708
 2278SOL     OW 6832   4.165   3.371   4.969  0.0299 -0.7743  0.0453
 2278SOL    HW1 6833   4.214   3.449   4.943  1.3970 -1.3333  0.8491
 2278SOL    HW2 6834   4.107   3.353   4.895 -0.9144  1.4657  0.1671
 2279SOL     OW 6835   1.059   1.721   7.628  0.4067 -0.3383 -0.1816
 2279SOL    HW1 6836   1.116   1.666   7.575  0.4410 -1.6558  1.1453
 2279SOL    HW2 6837   1.118   1.769   7.685  0.2571 -1.1837  0.7130
 2280SOL     OW 6838   4.695   0.496   5.482 -0.1406 -0.0655 -0.3113
 2280SOL    HW1 6839   4.720   0.468   5.570  0.3291  0.6050 -0.2283
 2280SOL    HW2 6840   4.606   0.530   5.493 -0.0860  0.0105 -0.1007
 2281SOL     OW 6841   1.375   2.492   5.293  0.1255 -0.1452  0.1286
 2281SOL    HW1 6842   1.316   2.483   5.368 -1.5299  0.3074 -1.0635
 2281SOL    HW2 6843   1.439   2.421   5.304 -0.2066 -0.2233  1.8240
 2282SOL     OW 6844   1.879   2.189   7.033 -0.5028  0.1188  0.5621
 2282SOL    HW1 6845   1.793   2.201   6.994 -1.4584 -0.9701  2.2206
 2282SOL    HW2 6846   1.876   2.102   7.072  1.7577 -0.4225 -0.2759
 2283SOL     OW 6847   3.702   2.548   7.044 -0.1156 -0.0874 -0.5367
 2283SOL    HW1 6848   3.739   2.467   7.007 -0.4372 -0.5003  0.0233
 2283SOL    HW2 6849   3.640   2.578   6.978 -0.7846 -0.8929 -0.2922
 2284SOL     OW 6850   1.457   2.142   9.020 -0.4959 -0.3589  0.4876
 2284SOL    HW1 6851   1.535   2.088   9.013 -1.0118 -1.1769  0.9419
 2284SOL    HW2 6852   1.386   2.080   9.036 -0.8355  0.5541  2.9765
 2285SOL     OW 6853   2.829   2.808   6.987  0.0291  0.1878 -0.3464
 2285SOL    HW1 6854   2.770   2.746   6.944 -0.0401 -0.1972  0.2919
 2285SOL    HW2 6855   2.815   2.793   7.081 -1.0367  2.1215 -0.1360
 2286SOL     OW 6856   1.627   3.174   4.685 -0.4240 -0.7404  0.6060
 2286SOL    HW1 6857   1.652   3.171   4.777  0.9741 -1.2229  0.2393
 2286SOL    HW2 6858   1.706   3.147   4.638 -0.6730  0.8300 -0.8125
 2287SOL     OW 6859   2.613   2.574   5.858  0.3340  0.2589 -0.3528
 2287SOL    HW1 6860   2.668   2.614   5.791 -0.2649  0.5475 -0.6732
 2287SOL    HW2 6861   2.553   2.518   5.809  2.8735 -3.2763  0.1770
 2288SOL     OW 6862   2.701   2.775   7.567 -0.2104  0.3957  0.1222
 2288SOL    HW1 6863   2.716   2.822   7.648  0.5024 -0.5312  0.5415
 2288SOL    HW2 6864   2.781   2.725   7.553 -0.2615  0.6544 -1.2334
 2289SOL     OW 6865   3.699   4.140   5.226  0.1733 -0.1875  0.1537
 2289SOL    HW1 6866   3.665   4.064   5.272 -0.3572  0.3207  0.6244
 2289SOL    HW2 6867   3.621   4.192   5.204  0.5930  0.8043  0.9067
 2290SOL     OW 6868   4.147   2.696   7.599 -0.8209  0.2082 -0.3485
 2290SOL    HW1 6869   4.206   2.756   7.553  0.0881  0.7888  1.4658
 2290SOL    HW2 6870   4.063   2.704   7.553  0.2923 -0.0639 -2.5163
 2291SOL     OW 6871   2.923   2.613   5.247 -0.4893  0.2382 -0.2199
 2291SOL    HW1 6872   2.975   2.537   5.222 -1.0692 -0.6762  1.1964
 2291SOL    HW2 6873   2.955   2.684   5.192  2.1330 -0.3200  0.4688
 2292SOL     OW 6874   4.044   0.435   6.756 -0.1768 -0.5106  0.3726
 2292SOL    HW1 6875   4.023   0.499   6.688 -0.2986  0.1705  1.0238
 2292SOL    HW2 6876   4.120   0.388   6.723  2.2738  2.4097  1.3207
 2293SOL     OW 6877   2.965   3.054   4.932 -0.4527 -0.5036 -0.1709
 2293SOL    HW1 6878   2.936   3.094   4.850 -2.2588 -0.4926  0.4345
 2293SOL    HW2 6879   2.998   3.127   4.984  4.5477 -0.9282 -2.2593
 2294SOL     OW 6880   2.337   0.279   7.435 -0.9369 -0.5810 -0.3726
 2294SOL    HW1 6881   2.358   0.372   7.446 -0.8217 -0.6255 -0.2191
 2294SOL    HW2 6882   2.285   0.257   7.512  1.2543 -1.3143  0.9608
 2295SOL     OW 6883   3.887   2.863   5.147  0.4878  0.3035 -0.2135
 2295SOL    HW1 6884   3.876   2.830   5.236 -1.9514  1.5080  0.0299
 2295SOL    HW2 6885   3.876   2.786   5.091 -0.5678 -0.0668  0.4749
 2296SOL     OW 6886   0.540   2.089   5.059  0.2106  0.2241 -0.4330
 2296SOL    HW1 6887   0.539   2.158   5.125  1.7704 -2.6836  2.9943
 2296SOL    HW2 6888   0.458   2.041   5.072 -0.1224  0.4353 -1.6469
 2297SOL     OW 6889   3.564   2.187   7.046  0.0408 -0.3669  0.6763
 2297SOL    HW1 6890   3.531   2.097   7.046  2.6158 -1.3948  1.4843
 2297SOL    HW2 6891   3.659   2.178   7.041  0.4914  2.2519  2.3639
 2298SOL     OW 6892   2.609   3.334   5.128 -0.6511 -0.1519  0.1556
 2298SOL    HW1 6893   2.515   3.319   5.142 -0.1379 -1.0198  3.4774
 2298SOL    HW2 6894   2.650   3.249   5.144  0.9068  0.8359  1.7881
 2299SOL     OW 6895   3.513   3.525   6.049  0.6221  0.1936  0.0571
 2299SOL    HW1 6896   3.577   3.465   6.010  0.0927  0.8468 -1.9402
 2299SOL    HW2 6897   3.441   3.468   6.077  1.0698 -0.3169  0.1766
 2300SOL     OW 6898   0.054   3.643   5.426 -0.1835 -0.2655 -0.4501
 2300SOL    HW1 6899  -0.041   3.639   5.418 -0.2016  0.3686 -0.6175
 2300SOL    HW2 6900   0.073   3.735   5.440  0.3766 -0.4553  0.0703
 2301SOL     OW 6901   2.982   1.958   6.322 -0.4670  0.4816 -0.4105
 2301SOL    HW1 6902   3.074   1.947   6.344 -0.0112  0.6208 -2.0706
 2301SOL    HW2 6903   2.956   2.040   6.364 -0.3578 -0.4214  1.5183
 2302SOL     OW 6904   2.541   0.526   6.794  0.2129 -0.6431 -0.2207
 2302SOL    HW1 6905   2.488   0.507   6.872  0.4598 -2.8349 -0.5199
 2302SOL    HW2 6906   2.629   0.542   6.829 -0.4005  2.2913  0.2144
 2303SOL     OW 6907   1.881   3.149   7.348  0.1649  0.1610 -0.6291
 2303SOL    HW1 6908   1.846   3.193   7.426  0.1899 -2.6027  1.0925
 2303SOL    HW2 6909   1.851   3.202   7.275 -2.3766  1.3346  1.1123
 2304SOL     OW 6910   4.737   1.892   5.813  0.1509 -0.0211  0.2764
 2304SOL    HW1 6911   4.721   1.802   5.841 -0.9724  0.5293  1.4804
 2304SOL    HW2 6912   4.743   1.942   5.894  0.5516  1.0381 -0.3885
 2305SOL     OW 6913   3.124   2.091   5.903  0.0812  0.8003 -0.4389
 2305SOL    HW1 6914   3.078   2.163   5.946 -1.7303 -0.3617 -0.2806
 2305SOL    HW2 6915   3.066   2.065   5.832  0.0454 -1.2649  0.2672
 2306SOL     OW 6916   3.275   3.083   8.024  0.3396 -0.7605  0.2138
 2306SOL    HW1 6917   3.332   3.038   8.087  1.7884  0.3037 -0.2716
 2306SOL    HW2 6918   3.201   3.113   8.076  1.0464 -0.7266  1.2363
 2307SOL     OW 6919   4.517   4.686   6.816 -0.3314 -0.1686  0.1446
 2307SOL    HW1 6920   4.469   4.670   6.735 -1.0651 -0.5160  0.6386
 2307SOL    HW2 6921   4.449   4.700   6.882  0.2673  0.9776  0.5350
 2308SOL     OW 6922   2.003   2.566   8.274  0.6776 -0.1228 -0.0098
 2308SOL    HW1 6923   2.025   2.518   8.193 -0.3261  0.8036 -0.8628
 2308SOL    HW2 6924   2.006   2.499   8.342  2.4125 -0.7681 -0.6479
 2309SOL     OW 6925   0.056   3.921   6.414 -0.3026  0.0862  0.0824
 2309SOL    HW1 6926  -0.001   3.876   6.352 -1.2956 -0.3298  1.2536
 2309SOL    HW2 6927   0.039   4.014   6.398 -0.3624 -0.0133 -0.4420
 2310SOL     OW 6928   2.495   4.637  10.199 -0.2009 -0.1412 -0.3670
 2310SOL    HW1 6929   2.457   4.668  10.118  0.9418 -4.4753 -2.8987
 2310SOL    HW2 6930   2.506   4.542  10.187  0.6881 -1.0073  4.6150
 2311SOL     OW 6931   4.877   3.466   8.865  0.4487  0.5397 -0.0030
 2311SOL    HW1 6932   4.816   3.454   8.938  1.5386  0.1795  0.8888
 2311SOL    HW2 6933   4.865   3.388   8.810 -0.1648  0.6643 -0.0546
 2312SOL     OW 6934   4.157   3.011   7.725  0.0542 -0.5099 -0.4344
 2312SOL    HW1 6935   4.129   3.082   7.783 -0.5045 -0.3589 -0.8848
 2312SOL    HW2 6936   4.091   3.009   7.656  0.9241 -0.4364 -1.2821
 2313SOL     OW 6937   4.376   2.341   8.496 -0.3210 -0.3916 -0.9210
 2313SOL    HW1 6938   4.337   2.256   8.477  1.5038 -1.0572 -1.9362
 2313SOL    HW2 6939   4.470   2.325   8.498 -0.0137  1.1268  1.4449
 2314SOL     OW 6940   1.259   4.510   5.703 -0.1107 -0.0485 -0.2790
 2314SOL    HW1 6941   1.286   4.504   5.611  0.8610 -2.4824  0.0989
 2314SOL    HW2 6942   1.212   4.428   5.719 -0.8575  0.6509  1.2358
 2315SOL     OW 6943   4.218   1.976   6.527 -0.0705 -0.6288 -0.2040
 2315SOL    HW1 6944   4.311   1.954   6.534 -0.2677 -1.3353  0.3237
 2315SOL    HW2 6945   4.176   1.922   6.594 -0.7186  0.5552  0.3747
 2316SOL     OW 6946   3.965   2.159   8.332 -0.5520 -0.0469  0.2491
 2316SOL    HW1 6947   3.875   2.158   8.299 -0.6554 -0.1467  0.5266
 2316SOL    HW2 6948   3.961   2.216   8.409 -0.3452  0.0715  0.1697
 2317SOL     OW 6949   3.180   2.471   6.606  0.0575  0.4891  0.3030
 2317SOL    HW1 6950   3.200   2.470   6.513  0.5677 -1.3629  0.4009
 2317SOL    HW2 6951   3.217   2.553   6.637 -0.7177  1.4686 -1.2211
 2318SOL     OW 6952   1.453   2.449   9.528 -0.5366  0.3318  0.3895
 2318SOL    HW1 6953   1.363   2.479   9.517 -0.7715 -0.3001  0.5282
 2318SOL    HW2 6954   1.487   2.441   9.438 -0.4645  0.9977  0.3491
 2319SOL     OW 6955   4.764   4.745   8.126  0.3353  0.2060  0.1643
 2319SOL    HW1 6956   4.791   4.746   8.034  3.2160 -2.9407  0.7699
 2319SOL    HW2 6957   4.804   4.824   8.163  0.3391  0.7706 -0.9961
 2320SOL     OW 6958   3.840   4.740   9.527 -0.0463  0.9197 -0.3740
 2320SOL    HW1 6959   3.858   4.828   9.558  0.3723 -0.0382  2.3328
 2320SOL    HW2 6960   3.913   4.687   9.558 -0.0987 -0.3757 -2.2459
 2321SOL     OW 6961   3.926   0.289   6.388 -0.7078 -0.5104 -0.0648
 2321SOL    HW1 6962   3.850   0.342   6.414 -0.4653 -1.1242  2.0973
 2321SOL    HW2 6963   3.918   0.209   6.439  1.0167 -0.8976 -0.3333
 2322SOL     OW 6964   1.422   0.880   5.863 -0.7203  0.2926 -0.3870
 2322SOL    HW1 6965   1.510   0.874   5.826 -0.9763  1.5516 -1.2678
 2322SOL    HW2 6966   1.434   0.861   5.956  0.1502 -1.5989 -0.8293
 2323SOL     OW 6967   4.296   0.190   6.792 -1.2111 -0.2898  0.0284
 2323SOL    HW1 6968   4.377   0.239   6.778 -2.0287  0.9824 -0.4840
 2323SOL    HW2 6969   4.312   0.105   6.751 -0.5001  0.3195 -1.0158
 2324SOL     OW 6970   3.832   4.546   9.862 -0.2595 -0.1712  0.4301
 2324SOL    HW1 6971   3.824   4.453   9.840  0.1088  0.1738 -1.2792
 2324SOL    HW2 6972   3.761   4.589   9.814  1.5804  0.8197 -1.5648
 2325SOL     OW 6973   1.154   4.759   4.884  0.3388  0.2461 -0.1484
 2325SOL    HW1 6974   1.088   4.827   4.893  0.1568 -0.1906  2.8683
 2325SOL    HW2 6975   1.236   4.801   4.911  0.3185 -0.5371  1.2064
 2326SOL     OW 6976   2.248   2.453   5.959  0.2244 -0.2128  0.2788
 2326SOL    HW1 6977   2.328   2.442   6.010  2.0158 -0.3154 -2.3455
 2326SOL    HW2 6978   2.277   2.495   5.877 -2.1292 -1.6800 -1.4535
 2327SOL     OW 6979   1.670   1.496   9.053  0.2052 -0.1985  0.2371
 2327SOL    HW1 6980   1.731   1.507   8.980 -0.1958 -0.8651 -0.2067
 2327SOL    HW2 6981   1.592   1.457   9.014 -0.7323  1.1391  0.6879
 2328SOL     OW 6982   4.614   0.836   5.600  0.5705  0.5224  0.2176
 2328SOL    HW1 6983   4.702   0.838   5.638  1.1532 -0.3731 -1.0347
 2328SOL    HW2 6984   4.606   0.920   5.555  1.9645 -0.4821 -2.1163
 2329SOL     OW 6985   3.734   4.784   9.031  0.1377 -0.0975 -0.5793
 2329SOL    HW1 6986   3.660   4.727   9.011 -0.1272  0.7340 -2.1056
 2329SOL    HW2 6987   3.811   4.732   9.008 -0.0953  0.0231 -1.7029
 2330SOL     OW 6988   2.141   4.527   9.337  0.1734  0.3659  0.0993
 2330SOL    HW1 6989   2.094   4.539   9.419  1.2492  0.4800  0.7277
 2330SOL    HW2 6990   2.230   4.503   9.364  1.0694  2.2842 -0.9900
 2331SOL     OW 6991   4.315   4.941   5.303 -0.2862 -0.0621 -0.3639
 2331SOL    HW1 6992   4.257   4.908   5.371  0.8532 -2.6086 -0.5346
 2331SOL    HW2 6993   4.265   4.931   5.222 -0.0748 -1.1490 -0.3741
 2332SOL     OW 6994   3.737   4.822   5.165 -0.0747 -0.2907  0.6059
 2332SOL    HW1 6995   3.655   4.810   5.116  0.3295  0.2556 -0.2419
 2332SOL    HW2 6996   3.723   4.775   5.247 -0.7730 -1.2690 -0.0434
 2333SOL     OW 6997   4.644   3.054   6.849  0.1215  0.2146  0.2529
 2333SOL    HW1 6998   4.617   3.005   6.771 -0.4124  0.3676  0.3303
 2333SOL    HW2 6999   4.701   3.123   6.815 -0.4738  0.5595 -0.0698
 2334SOL     OW 7000   1.851   4.089   7.779 -0.0282  0.0732 -0.0890
 2334SOL    HW1 7001   1.864   4.184   7.783 -0.4673  0.1786 -0.8798
 2334SOL    HW2 7002   1.919   4.058   7.719 -1.3837  0.2270 -1.7774
 2335SOL     OW 7003   1.541   3.605   8.169 -0.2383  0.5688  0.2466
 2335SOL    HW1 7004   1.481   3.600   8.094  1.9527 -1.3452 -1.4934
 2335SOL    HW2 7005   1.553   3.515   8.197  2.7548  0.6917 -0.3049
 2336SOL     OW 7006   1.718   4.021   7.316 -0.3642  0.0000 -0.5463
 2336SOL    HW1 7007   1.666   3.955   7.270 -2.5591  0.5644  0.9590
 2336SOL    HW2 7008   1.659   4.055   7.383  1.6599  1.4545  0.5983
 2337SOL     OW 7009   3.201   2.049   6.741 -0.8884  0.0621  0.5947
 2337SOL    HW1 7010   3.168   1.959   6.738  0.6347 -0.4947 -0.0401
 2337SOL    HW2 7011   3.202   2.071   6.834 -0.9253 -0.7027  0.7824
 2338SOL     OW 7012   2.489   0.620   5.644  0.9370 -0.0187  0.2375
 2338SOL    HW1 7013   2.508   0.600   5.552  1.1765  0.6705  0.1325
 2338SOL    HW2 7014   2.453   0.708   5.642 -0.6630 -0.6394  0.6272
 2339SOL     OW 7015   0.885   1.543   9.794 -0.2304 -0.3051 -0.3780
 2339SOL    HW1 7016   0.813   1.484   9.775 -0.4255 -0.5161  0.9133
 2339SOL    HW2 7017   0.963   1.488   9.790 -0.4710 -0.8431  1.4759
 2340SOL     OW 7018   4.007   2.580   6.429 -0.1315 -0.0090 -0.0652
 2340SOL    HW1 7019   4.034   2.525   6.503  1.3208 -0.5701 -0.9651
 2340SOL    HW2 7020   4.084   2.634   6.411  0.2696 -1.2759 -2.4078
 2341SOL     OW 7021   0.797   0.886   7.407  0.1116 -0.0443  0.3203
 2341SOL    HW1 7022   0.713   0.843   7.421 -0.9859  1.8150 -0.1266
 2341SOL    HW2 7023   0.798   0.959   7.469  0.5040  1.1128 -0.9774
 2342SOL     OW 7024   1.955   4.745   9.707 -0.3061 -0.3784 -0.6570
 2342SOL    HW1 7025   1.889   4.782   9.649 -1.2962 -0.8239  0.1628
 2342SOL    HW2 7026   1.911   4.735   9.791  0.1196 -2.6954 -0.6358
 2343SOL     OW 7027   1.208   3.977   6.104 -0.4693  0.0735 -0.6730
 2343SOL    HW1 7028   1.228   3.916   6.175 -0.0135  0.4368 -0.4858
 2343SOL    HW2 7029   1.282   3.968   6.044  0.5255  1.7312  0.2218
 2344SOL     OW 7030   4.794   0.182   6.318  0.2951  0.3071 -0.1788
 2344SOL    HW1 7031   4.713   0.224   6.349  0.2237  0.1233 -0.1106
 2344SOL    HW2 7032   4.864   0.231   6.360  0.2076  0.2489  0.0341
 2345SOL     OW 7033   0.149   4.881   7.374 -0.4368 -0.0564  0.4152
 2345SOL    HW1 7034   0.225   4.829   7.350 -1.9489 -2.9704  1.5345
 2345SOL    HW2 7035   0.096   4.885   7.294  0.2808  0.9701 -0.0337
 2346SOL     OW 7036   3.913   1.180   9.693  0.2258 -0.5694 -0.1997
 2346SOL    HW1 7037   3.901   1.260   9.642  0.7411 -0.4998 -0.2235
 2346SOL    HW2 7038   3.937   1.114   9.628  0.5087 -0.5705 -0.0964
 2347SOL     OW 7039   4.321   3.355   6.295 -0.0085  0.4989 -0.0713
 2347SOL    HW1 7040   4.294   3.306   6.373 -1.7485  0.8759 -0.4005
 2347SOL    HW2 7041   4.370   3.430   6.331 -1.6550  1.2245  0.7681
 2348SOL     OW 7042   1.961   2.259   9.037 -0.0207  0.2013 -0.5209
 2348SOL    HW1 7043   1.887   2.310   9.069 -1.5275 -0.0773 -3.2516
 2348SOL    HW2 7044   1.928   2.169   9.035  1.3261 -0.3515  0.6875
 2349SOL     OW 7045   1.775   3.798   9.765 -0.1838  0.1308  0.1877
 2349SOL    HW1 7046   1.707   3.731   9.771 -0.9222  0.3742 -3.4740
 2349SOL    HW2 7047   1.750   3.862   9.832 -1.3997 -1.5339  1.4385
 2350SOL     OW 7048   3.703   1.039   9.847 -0.3379 -0.1265  0.3208
 2350SOL    HW1 7049   3.615   1.072   9.831  0.4700  1.4492 -1.2539
 2350SOL    HW2 7050   3.759   1.090   9.788  1.5731 -1.4094  0.9153
 2351SOL     OW 7051   3.974   2.915   7.150  0.7793  0.7108 -0.7240
 2351SOL    HW1 7052   4.060   2.882   7.124  0.9475  0.8328 -0.3324
 2351SOL    HW2 7053   3.913   2.876   7.087  1.0758  0.3224 -0.7731
 2352SOL     OW 7054   1.801   0.037   9.009 -0.3552  0.3257  0.1149
 2352SOL    HW1 7055   1.894   0.046   9.029 -0.0728  0.4878 -1.1824
 2352SOL    HW2 7056   1.782   0.108   8.949 -1.9860  1.9297  2.3747
 2353SOL     OW 7057   2.506   0.858   6.358 -0.1427 -0.0983  0.5565
 2353SOL    HW1 7058   2.443   0.786   6.354 -1.9209  1.3558  0.9402
 2353SOL    HW2 7059   2.524   0.880   6.267 -0.3785 -0.3988  0.4362
 2354SOL     OW 7060   3.465   4.625   9.956  0.2983  0.3300  0.4829
 2354SOL    HW1 7061   3.422   4.590   9.878  1.2258  0.7239 -0.2368
 2354SOL    HW2 7062   3.518   4.553   9.989 -0.4374  0.0269  1.0212
 2355SOL     OW 7063   4.730   0.862   7.635  0.1108  0.0654  0.0435
 2355SOL    HW1 7064   4.713   0.949   7.672  0.9772 -0.5599  2.1077
 2355SOL    HW2 7065   4.820   0.867   7.604  1.1796 -0.7673  2.6719
 2356SOL     OW 7066   3.234   3.416   6.369  0.2811 -0.4670  0.6433
 2356SOL    HW1 7067   3.270   3.400   6.456  0.4519 -0.7727  0.5173
 2356SOL    HW2 7068   3.229   3.511   6.362  1.5033 -0.4016  0.4846
 2357SOL     OW 7069   1.915   1.196   6.873  0.5172  0.3044  0.4834
 2357SOL    HW1 7070   1.895   1.176   6.781  1.4074 -1.0513  0.5418
 2357SOL    HW2 7071   1.838   1.241   6.906 -0.8120 -1.2863 -0.3080
 2358SOL     OW 7072   1.709   2.708   8.673  0.2777  0.2088 -0.0386
 2358SOL    HW1 7073   1.684   2.674   8.588 -0.2055 -0.7345  0.4699
 2358SOL    HW2 7074   1.631   2.697   8.728  0.1650  1.9536  0.2131
 2359SOL     OW 7075   4.031   3.166   6.749 -0.3601 -0.5121  0.3392
 2359SOL    HW1 7076   3.980   3.145   6.671 -2.2122  0.9117  1.0970
 2359SOL    HW2 7077   4.053   3.259   6.740 -0.2643 -0.4250  1.3250
 2360SOL     OW 7078   4.964  -0.010   9.489 -0.0829  0.2000  0.1703
 2360SOL    HW1 7079   5.003   0.077   9.498  1.4152 -0.4043 -0.1829
 2360SOL    HW2 7080   4.873   0.002   9.516  0.2960  1.7014  0.8991
 2361SOL     OW 7081   4.833   3.214   8.422 -0.0080 -0.2040 -0.5598
 2361SOL    HW1 7082   4.927   3.212   8.404 -0.0421  0.7508 -0.8967
 2361SOL    HW2 7083   4.813   3.127   8.456  0.8096 -0.7522 -1.4301
 2362SOL     OW 7084   2.757   0.385   6.173 -0.0626 -0.0255 -0.3280
 2362SOL    HW1 7085   2.757   0.395   6.078  2.6558 -1.5968 -0.6004
 2362SOL    HW2 7086   2.796   0.300   6.188 -2.7322 -0.9695  2.2210
 2363SOL     OW 7087   2.514   3.270   8.492 -0.3638 -0.2305 -0.3138
 2363SOL    HW1 7088   2.462   3.278   8.572  0.2536  1.4276 -0.0292
 2363SOL    HW2 7089   2.507   3.356   8.450  0.1123 -0.7651 -1.5587
 2364SOL     OW 7090   3.803   2.501   8.700 -0.5484 -0.3669  0.1328
 2364SOL    HW1 7091   3.717   2.501   8.743 -1.0776  1.6323 -0.7989
 2364SOL    HW2 7092   3.816   2.592   8.674  0.4297 -1.1900 -2.5527
 2365SOL     OW 7093   2.348   2.305   7.575  0.1127  0.1708 -0.1552
 2365SOL    HW1 7094   2.314   2.376   7.520 -0.9088  0.7421  1.1335
 2365SOL    HW2 7095   2.404   2.349   7.639 -0.2294 -0.2196  0.4256
 2366SOL     OW 7096   2.823   1.080   8.074  0.0392  0.0626 -0.1875
 2366SOL    HW1 7097   2.813   1.130   8.155  0.9274 -2.5471  1.6533
 2366SOL    HW2 7098   2.737   1.039   8.060  0.6482 -1.7992  1.1531
 2367SOL     OW 7099   1.377   0.269   9.049  0.1858 -0.0624  0.2001
 2367SOL    HW1 7100   1.408   0.218   8.975 -2.1334 -3.8128  1.5450
 2367SOL    HW2 7101   1.314   0.330   9.011  1.5905  0.5638 -1.2467
 2368SOL     OW 7102   0.955   3.042   5.916 -0.1169 -0.0764  0.1468
 2368SOL    HW1 7103   0.933   3.078   5.830 -0.3519 -0.6721 -0.0440
 2368SOL    HW2 7104   1.031   3.093   5.944  0.1457 -0.0713 -0.5432
 2369SOL     OW 7105   4.542   4.047   7.084  0.4038 -0.4730 -0.6377
 2369SOL    HW1 7106   4.458   4.090   7.069  0.3265 -0.5166 -0.3213
 2369SOL    HW2 7107   4.536   4.012   7.172 -0.0299 -2.3164 -1.3674
 2370SOL     OW 7108   0.953   3.642   5.682  0.0977  0.7994 -0.2559
 2370SOL    HW1 7109   0.906   3.580   5.737  1.6037 -1.0113 -0.9045
 2370SOL    HW2 7110   0.908   3.638   5.597  0.9374 -0.4003 -0.6680
 2371SOL     OW 7111   1.425   3.884   8.088 -0.0291 -0.5464 -1.2641
 2371SOL    HW1 7112   1.482   3.808   8.091  0.1880 -0.4002 -1.5878
 2371SOL    HW2 7113   1.464   3.941   8.021  2.0488  1.6399  1.5696
 2372SOL     OW 7114   2.238   0.715   7.286 -0.8896 -0.6510 -0.3362
 2372SOL    HW1 7115   2.212   0.726   7.194 -2.4968  1.0224  0.2602
 2372SOL    HW2 7116   2.157   0.694   7.331 -0.2306 -0.7992  0.8023
 2373SOL     OW 7117   1.115   0.018   6.119 -0.7533 -0.0042  0.7603
 2373SOL    HW1 7118   1.070   0.081   6.063  1.1155  1.5297  0.8664
 2373SOL    HW2 7119   1.158  -0.042   6.058 -0.6726  0.2212  0.5944
 2374SOL     OW 7120   2.198   2.035   9.151 -0.7525  0.0488  0.1469
 2374SOL    HW1 7121   2.286   2.072   9.157 -0.9663  0.3928  1.2743
 2374SOL    HW2 7122   2.141   2.102   9.187 -0.9778 -1.9740  4.0597
 2375SOL     OW 7123   1.890   3.346   4.887  0.2808  0.2936 -0.4939
 2375SOL    HW1 7124   1.908   3.253   4.898  0.5144  0.4396  0.4206
 2375SOL    HW2 7125   1.899   3.361   4.793 -2.0062 -1.0578 -0.9905
 2376SOL     OW 7126   1.829   3.179   9.341  0.0163  0.1530  0.1917
 2376SOL    HW1 7127   1.752   3.200   9.394 -0.6212 -0.2601 -0.5535
 2376SOL    HW2 7128   1.890   3.251   9.357  0.0413 -0.2059  1.8695
 2377SOL     OW 7129   1.510   4.302   8.639  0.1270  0.2304 -0.1432
 2377SOL    HW1 7130   1.506   4.391   8.675  0.9245 -0.4192  1.6703
 2377SOL    HW2 7131   1.433   4.258   8.675 -0.5421  0.3075 -1.4412
 2378SOL     OW 7132   3.476   4.807   8.028 -0.6182  0.1697  0.3376
 2378SOL    HW1 7133   3.559   4.779   8.066  1.3316  2.1513 -2.1210
 2378SOL    HW2 7134   3.441   4.870   8.092 -0.4901 -0.9653  1.5765
 2379SOL     OW 7135   4.283   4.747   7.021  0.3381 -0.2006 -0.0720
 2379SOL    HW1 7136   4.212   4.779   6.966  0.9955  1.6065  0.0616
 2379SOL    HW2 7137   4.328   4.826   7.051  1.8140 -1.2543  0.6344
 2380SOL     OW 7138   1.456   1.891   7.459  0.9140  0.5592  0.6753
 2380SOL    HW1 7139   1.446   1.799   7.434 -1.3482  0.9459 -0.1527
 2380SOL    HW2 7140   1.525   1.924   7.402 -1.2401  0.3675 -2.2531
 2381SOL     OW 7141   1.438   2.283   9.248  0.3032 -0.8886  0.3967
 2381SOL    HW1 7142   1.442   2.227   9.171  0.1425  0.7434 -0.8447
 2381SOL    HW2 7143   1.523   2.328   9.250 -1.0052  1.9009 -1.1135
 2382SOL     OW 7144   3.608   1.923   7.232  1.1087 -0.2293 -0.5990
 2382SOL    HW1 7145   3.637   1.885   7.315  1.4531 -0.0230 -0.6201
 2382SOL    HW2 7146   3.659   2.004   7.224  1.2313 -0.3534 -1.1083
 2383SOL     OW 7147   0.461   2.075   8.105  0.2623  0.2081 -0.0698
 2383SOL    HW1 7148   0.425   1.989   8.129  0.7047  0.2283  0.6758
 2383SOL    HW2 7149   0.546   2.079   8.149  0.0937  1.1714  0.1852
 2384SOL     OW 7150   4.885   4.600   5.357  0.2837 -0.0996  0.0835
 2384SOL    HW1 7151   4.808   4.600   5.414 -0.3261  0.4548 -0.7280
 2384SOL    HW2 7152   4.930   4.682   5.377  0.7943 -0.5142  0.7010
 2385SOL     OW 7153   3.384   0.108   7.761  0.0429 -0.0248 -0.2540
 2385SOL    HW1 7154   3.452   0.153   7.811  1.3245 -0.7827 -1.2509
 2385SOL    HW2 7155   3.432   0.056   7.697 -1.4982 -0.4079 -1.1477
 2386SOL     OW 7156   1.386   3.457   8.460 -0.6491 -0.1710  0.0465
 2386SOL    HW1 7157   1.389   3.406   8.541 -0.5804 -0.7768 -0.3223
 2386SOL    HW2 7158   1.442   3.408   8.400 -1.3307 -0.1682 -0.6057
 2387SOL     OW 7159   1.224   4.448   7.329  0.5653  0.4486 -0.6667
 2387SOL    HW1 7160   1.164   4.521   7.314  0.4221  0.1817 -1.4057
 2387SOL    HW2 7161   1.269   4.436   7.246  0.9708  0.0348 -0.3935
 2388SOL     OW 7162   4.847   2.571   5.429  0.2024 -0.1370 -0.4290
 2388SOL    HW1 7163   4.916   2.637   5.432 -1.3147  1.4900  0.1151
 2388SOL    HW2 7164   4.835   2.545   5.521 -0.7050  0.4648 -0.3697
 2389SOL     OW 7165   0.494   2.320   5.219 -0.6752 -0.7843  0.1508
 2389SOL    HW1 7166   0.494   2.412   5.248  0.9974 -0.0038 -2.0762
 2389SOL    HW2 7167   0.508   2.270   5.300 -2.3338  0.8136  1.5238
 2390SOL     OW 7168   0.392   3.044   9.147 -0.0546  0.0567  0.5734
 2390SOL    HW1 7169   0.484   3.016   9.146 -0.0569  0.0633  0.2102
 2390SOL    HW2 7170   0.392   3.122   9.202  0.4650  1.1113 -0.8771
 2391SOL     OW 7171   0.540   4.441   7.484  0.1242  0.0951 -0.1595
 2391SOL    HW1 7172   0.541   4.432   7.389 -0.7938 -0.4822 -0.1235
 2391SOL    HW2 7173   0.633   4.437   7.509  0.2944 -1.2064 -0.9050
 2392SOL     OW 7174   1.953   1.141   7.269  0.2987 -0.2971  0.2310
 2392SOL    HW1 7175   2.001   1.099   7.340  1.1960 -0.1043 -0.2407
 2392SOL    HW2 7176   1.925   1.225   7.305 -0.3075 -0.7090  0.7359
 2393SOL     OW 7177   2.902   2.359   8.848  0.7505 -0.0162 -0.3312
 2393SOL    HW1 7178   2.849   2.438   8.836 -0.8747 -0.8817  0.8611
 2393SOL    HW2 7179   2.854   2.290   8.804  2.0117 -0.4382 -1.0948
 2394SOL     OW 7180   4.549   3.844   9.015 -0.0509  0.0554  0.8030
 2394SOL    HW1 7181   4.643   3.841   9.028  0.0658  0.4269  0.0558
 2394SOL    HW2 7182   4.537   3.835   8.921 -0.5924  3.0175  0.4867
 2395SOL     OW 7183   3.511   1.742   7.740  0.5659 -0.1936 -0.0872
 2395SOL    HW1 7184   3.585   1.768   7.795  0.4447  0.5908 -0.2831
 2395SOL    HW2 7185   3.486   1.655   7.773  1.3685 -0.3330  0.1800
 2396SOL     OW 7186   4.267   2.066   5.524  0.1996 -0.4257 -0.3069
 2396SOL    HW1 7187   4.227   2.066   5.611  0.0952  1.4057 -0.3222
 2396SOL    HW2 7188   4.339   2.129   5.530 -0.3375  0.3846 -1.7534
 2397SOL     OW 7189   2.795   3.964   7.128 -0.6149  0.1602 -0.7201
 2397SOL    HW1 7190   2.727   3.951   7.061 -1.0670  0.1340 -0.2606
 2397SOL    HW2 7191   2.860   4.020   7.085 -1.3053  0.8360 -0.9147
 2398SOL     OW 7192   4.103   3.826   6.303  0.0655 -0.3559 -0.2562
 2398SOL    HW1 7193   4.050   3.904   6.288  1.1916  0.1710 -1.8105
 2398SOL    HW2 7194   4.140   3.806   6.217  2.6879 -0.4515  0.8020
 2399SOL     OW 7195   3.186   2.260   8.358  0.0559  0.2379  0.3212
 2399SOL    HW1 7196   3.280   2.246   8.357 -0.1088 -1.0270 -0.2306
 2399SOL    HW2 7197   3.157   2.232   8.271 -0.8945  0.1204  0.6624
 2400SOL     OW 7198   1.609   3.162   6.009  0.4459 -0.1972 -0.0616
 2400SOL    HW1 7199   1.550   3.093   5.977  0.4312 -0.3782  0.3563
 2400SOL    HW2 7200   1.556   3.241   6.009  0.0391 -0.4623  0.8317
 2401SOL     OW 7201   1.644   3.699   8.411 -1.2696 -0.0261  0.4415
 2401SOL    HW1 7202   1.589   3.671   8.338 -0.4184 -0.8037  0.0838
 2401SOL    HW2 7203   1.724   3.732   8.370 -1.2992  0.7529  0.9727
 2402SOL     OW 7204   1.322   2.317   9.969  0.0239 -0.5362  0.9258
 2402SOL    HW1 7205   1.281   2.232   9.955  0.6598 -0.6152 -0.6424
 2402SOL    HW2 7206   1.414   2.297   9.985  0.1711 -0.1538  0.5812
 2403SOL     OW 7207   3.148   3.206  10.091  0.4537  1.0021  0.3579
 2403SOL    HW1 7208   3.143   3.247  10.178 -0.8674 -0.6803  1.1324
 2403SOL    HW2 7209   3.062   3.219  10.053  0.5412  0.3753 -0.0579
 2404SOL     OW 7210   3.579   0.609   4.883  0.6446 -0.1582 -0.4086
 2404SOL    HW1 7211   3.504   0.558   4.853  0.8001 -0.4725 -0.2599
 2404SOL    HW2 7212   3.550   0.648   4.966  0.8109 -0.6661 -0.1092
 2405SOL     OW 7213   3.627   0.391   7.487 -0.2752 -0.4011  0.3350
 2405SOL    HW1 7214   3.550   0.448   7.485  0.0927  0.0871 -0.6441
 2405SOL    HW2 7215   3.652   0.388   7.580 -1.2791 -0.3201  0.6216
 2406SOL     OW 7216   2.176   4.626   7.649  0.0113 -0.0871  0.0150
 2406SOL    HW1 7217   2.206   4.591   7.733  2.1897  1.9460  0.1766
 2406SOL    HW2 7218   2.123   4.703   7.672 -3.7166 -2.2745 -0.3851
 2407SOL     OW 7219   2.606   3.459   8.687 -0.9127 -0.7388 -0.3070
 2407SOL    HW1 7220   2.683   3.514   8.679  0.8900 -2.9980  0.4262
 2407SOL    HW2 7221   2.573   3.477   8.775 -0.6400 -0.4513 -0.2623
 2408SOL     OW 7222   3.378   3.102   9.361 -0.2513 -0.3423  0.4986
 2408SOL    HW1 7223   3.420   3.033   9.414  2.8338  0.1507 -1.0859
 2408SOL    HW2 7224   3.373   3.177   9.420  2.1410 -0.1250  0.5284
 2409SOL     OW 7225   0.651   1.200   9.960  0.5544 -0.4542  0.0793
 2409SOL    HW1 7226   0.644   1.212   9.865  1.1121  0.0323  0.0912
 2409SOL    HW2 7227   0.595   1.269   9.997 -0.8010 -1.5197  0.1080
 2410SOL     OW 7228   2.079   0.171  10.186  0.3376  0.2903  0.1489
 2410SOL    HW1 7229   2.160   0.155  10.138 -0.0026 -2.2923  0.2665
 2410SOL    HW2 7230   2.106   0.175  10.278  0.3433 -0.9234  0.2201
 2411SOL     OW 7231   1.476   2.594   7.470  0.0527 -0.2770  0.2496
 2411SOL    HW1 7232   1.557   2.580   7.519  0.7066 -0.1144 -0.7525
 2411SOL    HW2 7233   1.422   2.649   7.527  1.2320  0.8238  0.3383
 2412SOL     OW 7234   4.208   2.175   8.970  0.0045  0.1797 -0.3033
 2412SOL    HW1 7235   4.129   2.125   8.947  0.6274 -0.6109 -0.7470
 2412SOL    HW2 7236   4.206   2.177   9.066  0.0259 -0.8200 -0.2655
 2413SOL     OW 7237   0.337   1.481   7.243 -0.4819 -0.1089  0.0619
 2413SOL    HW1 7238   0.382   1.515   7.166  0.4694  0.1099  0.6866
 2413SOL    HW2 7239   0.273   1.549   7.265  0.3375  0.5854  0.3820
 2414SOL     OW 7240   0.320   2.703   7.604 -0.9850  1.1263  0.1650
 2414SOL    HW1 7241   0.314   2.708   7.509  0.8130  1.7284  0.0531
 2414SOL    HW2 7242   0.381   2.631   7.621 -1.5253  0.8214  0.8812
 2415SOL     OW 7243   3.853   2.796   6.639 -0.8927  0.7104 -0.1838
 2415SOL    HW1 7244   3.886   2.752   6.561 -0.5839 -1.4079  1.0579
 2415SOL    HW2 7245   3.907   2.761   6.711 -2.1056  1.4762  1.1495
 2416SOL     OW 7246   2.283   2.856   7.851 -0.0150  0.5990 -0.4608
 2416SOL    HW1 7247   2.335   2.786   7.890 -1.0997  0.8823  1.5872
 2416SOL    HW2 7248   2.228   2.889   7.922 -1.6019  1.6147 -2.0654
 2417SOL     OW 7249   1.699   4.946   6.433  0.0537 -0.0099  0.0188
 2417SOL    HW1 7250   1.669   4.995   6.356 -0.8383  1.2845  1.1506
 2417SOL    HW2 7251   1.667   4.996   6.508  2.1188 -0.4580  1.2806
 2418SOL     OW 7252   2.902   1.967   9.975  0.2165 -0.0083  0.1998
 2418SOL    HW1 7253   2.961   1.927   9.911  1.0001  1.6787 -0.1979
 2418SOL    HW2 7254   2.934   1.936  10.060  1.9307  1.0974  0.0147
 2419SOL     OW 7255   0.958   4.110   6.539  0.2746 -0.1612  0.4878
 2419SOL    HW1 7256   0.978   4.158   6.459 -0.5589 -2.3711 -1.1530
 2419SOL    HW2 7257   0.976   4.171   6.609 -0.1244  2.3080 -1.4329
 2420SOL     OW 7258   2.955   2.175   7.790  0.4242 -0.6304  0.1078
 2420SOL    HW1 7259   3.003   2.138   7.715  1.8468  1.3754 -0.0618
 2420SOL    HW2 7260   2.949   2.102   7.852  0.2937 -2.0096 -1.4285
 2421SOL     OW 7261   2.081   2.819   9.753  0.7220 -0.5426  0.0446
 2421SOL    HW1 7262   2.094   2.761   9.828 -1.4386  3.0970  3.5547
 2421SOL    HW2 7263   2.170   2.837   9.721  2.3456  1.2042  4.7371
 2422SOL     OW 7264   2.018   2.368   7.835  0.3545 -0.2956  0.1922
 2422SOL    HW1 7265   2.028   2.317   7.754  2.3007  0.1870  0.0762
 2422SOL    HW2 7266   1.973   2.447   7.807 -0.3068 -0.7738 -0.1281
 2423SOL     OW 7267   0.412   1.188   8.134  0.4097  0.0161 -0.4696
 2423SOL    HW1 7268   0.428   1.101   8.098  0.4289 -0.2400  0.1435
 2423SOL    HW2 7269   0.437   1.249   8.064  0.2156 -0.4714 -0.9704
 2424SOL     OW 7270   2.380   3.030   7.444  0.2650 -0.0929 -0.4120
 2424SOL    HW1 7271   2.360   2.953   7.498 -1.0151  0.3705 -0.1951
 2424SOL    HW2 7272   2.309   3.092   7.463  2.4804  2.1579  1.2950
 2425SOL     OW 7273   0.891   2.110   9.715 -0.1723 -0.2620  0.0455
 2425SOL    HW1 7274   0.950   2.107   9.790 -1.8900  1.0046  1.5359
 2425SOL    HW2 7275   0.837   2.031   9.725 -0.4693 -0.0393  0.2132
 2426SOL     OW 7276   2.116   2.302   6.256  0.2940  0.1051  0.2502
 2426SOL    HW1 7277   2.188   2.263   6.206 -1.7190 -1.8617 -1.2511
 2426SOL    HW2 7278   2.144   2.393   6.270  1.8093  0.2184 -2.7447
 2427SOL     OW 7279   0.336   0.644   7.919  0.7529  0.2839 -0.3358
 2427SOL    HW1 7280   0.315   0.632   7.827  0.5521 -1.2436 -0.1259
 2427SOL    HW2 7281   0.259   0.687   7.956 -0.6397 -2.0435 -0.2861
 2428SOL     OW 7282   2.564   1.214   7.105 -0.1290  0.1552 -0.4218
 2428SOL    HW1 7283   2.654   1.182   7.109 -0.5702 -1.0480  0.2225
 2428SOL    HW2 7284   2.529   1.178   7.023 -1.0219 -2.2275  0.8996
 2429SOL     OW 7285   1.129   1.754   6.278 -0.1016  0.0933 -0.4332
 2429SOL    HW1 7286   1.205   1.743   6.221  1.1533  0.1424  1.1864
 2429SOL    HW2 7287   1.072   1.814   6.229  2.1155  2.2511 -0.5511
 2430SOL     OW 7288   3.954   2.184   7.841 -0.0828  0.1669 -0.5868
 2430SOL    HW1 7289   3.878   2.197   7.897 -0.0875  0.1230 -0.5831
 2430SOL    HW2 7290   3.988   2.099   7.866 -0.6324 -0.2776 -1.2984
 2431SOL     OW 7291   3.121   2.435   8.559 -0.1282 -0.2551 -1.0999
 2431SOL    HW1 7292   3.040   2.421   8.609 -0.3615 -0.5635 -1.5504
 2431SOL    HW2 7293   3.118   2.368   8.491  1.9041 -2.1948  0.5842
 2432SOL     OW 7294   3.462   1.333   9.300 -0.4782  0.1331 -0.0779
 2432SOL    HW1 7295   3.385   1.276   9.300  0.0927 -0.6782 -1.1019
 2432SOL    HW2 7296   3.493   1.330   9.391 -1.3833  0.1200  0.2501
 2433SOL     OW 7297   3.316   2.214   6.551  0.2143 -0.2435  0.5033
 2433SOL    HW1 7298   3.266   2.141   6.586  1.5740 -1.7945 -0.6291
 2433SOL    HW2 7299   3.335   2.269   6.627  1.8395 -2.7244  2.0458
 2434SOL     OW 7300   1.265   1.709   9.846 -0.2227  0.2385  0.0093
 2434SOL    HW1 7301   1.303   1.649   9.781  0.3837 -0.9602  1.4212
 2434SOL    HW2 7302   1.337   1.728   9.906 -0.0827  3.3138 -0.9519
 2435SOL     OW 7303   2.391   3.631   6.860 -0.7845  0.0710 -0.0929
 2435SOL    HW1 7304   2.323   3.682   6.904 -0.0451  0.1188  1.0618
 2435SOL    HW2 7305   2.440   3.695   6.809  0.7152  0.7486  2.0765
 2436SOL     OW 7306   3.256   1.438   6.726 -0.3200  0.4244  0.1594
 2436SOL    HW1 7307   3.321   1.384   6.680 -0.0183  0.9304 -0.0217
 2436SOL    HW2 7308   3.308   1.503   6.773 -0.6886  0.7237  0.1601
 2437SOL     OW 7309   1.796   4.358   7.893 -0.1866 -0.1063 -0.7417
 2437SOL    HW1 7310   1.856   4.315   7.953 -0.0141  2.0404  0.7183
 2437SOL    HW2 7311   1.815   4.451   7.901  0.6222  0.2985 -5.0106
 2438SOL     OW 7312   1.886   1.643   7.345 -0.2394 -0.9359  0.1017
 2438SOL    HW1 7313   1.814   1.590   7.311  0.6493 -1.5417 -0.8985
 2438SOL    HW2 7314   1.905   1.604   7.431 -1.6493 -0.2170  0.7747
 2439SOL     OW 7315   2.702   0.141   7.324  0.3288  0.4494 -0.4370
 2439SOL    HW1 7316   2.757   0.184   7.258 -1.4277  5.1936  0.7787
 2439SOL    HW2 7317   2.616   0.133   7.283  0.6039 -2.1813 -0.6252
 2440SOL     OW 7318   1.424   2.825   9.078  0.3759  0.4523 -0.5330
 2440SOL    HW1 7319   1.500   2.875   9.107  0.1881 -0.7599  2.4294
 2440SOL    HW2 7320   1.386   2.877   9.007  3.9812  1.0129 -2.2874
 2441SOL     OW 7321   3.643   1.279   5.854 -0.0960 -0.4998  0.5893
 2441SOL    HW1 7322   3.636   1.278   5.759 -0.1832 -1.1601  0.5962
 2441SOL    HW2 7323   3.736   1.272   5.872 -0.0010  0.5181  0.5528
 2442SOL     OW 7324   2.613   4.408   7.266 -0.1380  0.4227 -0.0700
 2442SOL    HW1 7325   2.572   4.323   7.251  2.0794 -0.9525  0.9633
 2442SOL    HW2 7326   2.664   4.425   7.187 -0.1146  0.4895 -0.0412
 2443SOL     OW 7327   4.952   0.269   6.103  0.4393 -0.7959  0.6405
 2443SOL    HW1 7328   4.969   0.327   6.177 -0.5079  0.5431 -0.1346
 2443SOL    HW2 7329   4.875   0.218   6.129 -0.1442 -0.0359  0.4484
 2444SOL     OW 7330   4.571   2.289   6.671 -0.0223 -0.0945 -0.2243
 2444SOL    HW1 7331   4.643   2.351   6.667  0.1523 -0.3248 -0.8034
 2444SOL    HW2 7332   4.549   2.283   6.764  1.4824 -0.9003  0.1108
 2445SOL     OW 7333   2.993   3.342   8.957  0.4265 -0.0442  0.5761
 2445SOL    HW1 7334   2.960   3.352   9.046  1.3199  0.7236  0.8386
 2445SOL    HW2 7335   3.061   3.275   8.963  0.4004 -0.0824  0.4515
 2446SOL     OW 7336   0.043   2.458   7.826  0.0483 -0.3681  0.4639
 2446SOL    HW1 7337   0.114   2.460   7.889  1.7031 -1.2157 -1.2709
 2446SOL    HW2 7338   0.086   2.440   7.742 -2.2304 -1.1543 -0.6177
 2447SOL     OW 7339   3.581   1.094   8.528  0.2248 -0.2028  0.4939
 2447SOL    HW1 7340   3.508   1.151   8.555  0.7428  0.4238  0.5815
 2447SOL    HW2 7341   3.658   1.132   8.569  0.8173 -0.0767 -0.6877
 2448SOL     OW 7342   4.722   1.954   8.930 -0.3298 -0.1206 -0.2817
 2448SOL    HW1 7343   4.690   1.872   8.967 -0.6524  0.3263  0.4724
 2448SOL    HW2 7344   4.770   1.995   9.002  0.7625 -0.1346 -0.9759
 2449SOL     OW 7345   2.709   4.816  10.275  0.0579  0.2022  1.0833
 2449SOL    HW1 7346   2.634   4.757  10.263  0.0368  0.4736 -0.2537
 2449SOL    HW2 7347   2.727   4.813  10.369 -2.0469  0.6400  1.5519
 2450SOL     OW 7348   3.174   0.214   6.562 -0.0218  0.1755 -0.0306
 2450SOL    HW1 7349   3.262   0.240   6.592  0.4264  1.5779 -2.3114
 2450SOL    HW2 7350   3.189   0.134   6.511  0.3033  1.3738 -1.9338
 2451SOL     OW 7351   3.824   0.219   7.092 -0.4156  0.5415  0.2414
 2451SOL    HW1 7352   3.904   0.247   7.135 -0.5065  4.3372 -1.6494
 2451SOL    HW2 7353   3.757   0.219   7.161  0.5710  0.4636  1.2137
 2452SOL     OW 7354   2.376   3.090   7.776  0.1934  0.0670 -0.5502
 2452SOL    HW1 7355   2.467   3.095   7.805  1.3268 -1.7988 -3.2812
 2452SOL    HW2 7356   2.346   3.003   7.803 -0.8394  0.6868  0.3804
 2453SOL     OW 7357   1.626   4.798   8.804 -0.0651 -0.6043  0.4116
 2453SOL    HW1 7358   1.694   4.799   8.871  0.0136 -1.3880  0.3573
 2453SOL    HW2 7359   1.598   4.706   8.800 -2.2655 -0.0528  1.5806
 2454SOL     OW 7360   2.208   3.418   8.186 -0.3376  0.3034 -0.1172
 2454SOL    HW1 7361   2.124   3.375   8.202 -0.3352  0.7473  1.1845
 2454SOL    HW2 7362   2.203   3.445   8.094 -1.7500  0.6158  0.0240
 2455SOL     OW 7363   1.734   4.117   8.091  0.3516  0.1169  0.2784
 2455SOL    HW1 7364   1.671   4.170   8.141 -0.9703 -0.5333 -0.6308
 2455SOL    HW2 7365   1.804   4.178   8.069 -0.7576  1.3112 -0.0646
 2456SOL     OW 7366   4.042   3.459   5.879  0.7285  0.0757  0.2879
 2456SOL    HW1 7367   4.114   3.396   5.881 -0.8542 -1.9565 -1.5033
 2456SOL    HW2 7368   3.979   3.424   5.942  0.7789  1.1796  0.9693
 2457SOL     OW 7369   1.976   4.281   8.060 -0.1720 -0.1170  0.1413
 2457SOL    HW1 7370   2.043   4.212   8.070 -0.6986 -0.3783  2.4014
 2457SOL    HW2 7371   2.019   4.360   8.092 -0.3555  0.1227 -0.1990
 2458SOL     OW 7372   1.619   1.604   7.210 -0.1008  0.5444 -0.5876
 2458SOL    HW1 7373   1.611   1.677   7.148  0.7515  2.1404  1.0875
 2458SOL    HW2 7374   1.529   1.580   7.232 -0.4227 -0.1661 -2.5041
 2459SOL     OW 7375   0.172   3.554   7.491 -0.3167 -0.4609 -0.1105
 2459SOL    HW1 7376   0.162   3.622   7.558 -0.8247  0.2004 -0.8403
 2459SOL    HW2 7377   0.123   3.587   7.416 -1.6891 -2.2494 -0.0448
 2460SOL     OW 7378   4.346   0.483   7.731  0.0147 -0.3178  0.1063
 2460SOL    HW1 7379   4.423   0.523   7.690 -1.2392  0.4790 -1.5959
 2460SOL    HW2 7380   4.379   0.403   7.771  2.0132  0.8058  0.8602
 2461SOL     OW 7381   2.938   0.887   9.396  0.1196  0.1628 -0.1562
 2461SOL    HW1 7382   2.861   0.942   9.383  0.7701  0.6810 -2.1647
 2461SOL    HW2 7383   3.010   0.950   9.408  0.6538 -0.2547 -1.1035
 2462SOL     OW 7384   1.031   1.341   7.955 -0.1063 -0.1893 -0.2254
 2462SOL    HW1 7385   0.972   1.416   7.939 -0.0541 -0.2817 -0.8627
 2462SOL    HW2 7386   0.986   1.267   7.915  0.2547 -0.3378 -0.3539
 2463SOL     OW 7387   0.987   0.991   6.030  0.1693  0.3019 -0.0050
 2463SOL    HW1 7388   0.968   0.967   5.940 -1.0838 -0.7528  0.5130
 2463SOL    HW2 7389   1.018   0.911   6.071  0.9737  0.8288  0.4488
 2464SOL     OW 7390   1.708   2.923   7.884 -0.0280  0.3361 -0.0895
 2464SOL    HW1 7391   1.763   2.856   7.925 -1.6069 -0.2653  1.1856
 2464SOL    HW2 7392   1.766   2.997   7.869  1.7926 -1.3033 -1.5717
 2465SOL     OW 7393   4.226   4.239   6.416 -0.3929 -0.1948 -0.5704
 2465SOL    HW1 7394   4.144   4.196   6.439 -0.6745  1.5042  2.0068
 2465SOL    HW2 7395   4.254   4.282   6.497  0.2298  3.8063 -2.6634
 2466SOL     OW 7396   1.849   3.837   8.262 -0.2253  0.0834  0.1382
 2466SOL    HW1 7397   1.840   3.823   8.168 -0.6142  0.0555  0.1817
 2466SOL    HW2 7398   1.937   3.802   8.282  0.1188  0.6694 -0.3199
 2467SOL     OW 7399   2.984   0.808   6.932  0.1567  0.0650 -0.1977
 2467SOL    HW1 7400   3.029   0.847   6.857  0.1977 -2.0925 -1.3737
 2467SOL    HW2 7401   3.033   0.839   7.008  1.2236  0.8961 -1.1941
 2468SOL     OW 7402   3.833   2.189   6.623  0.0358  0.6838  0.2222
 2468SOL    HW1 7403   3.921   2.225   6.638  1.3526 -2.3054  0.4993
 2468SOL    HW2 7404   3.837   2.153   6.534 -0.8921  0.4716  0.2634
 2469SOL     OW 7405   4.583   1.781   8.410  0.2469 -0.2880 -0.6328
 2469SOL    HW1 7406   4.509   1.840   8.395 -1.2223 -1.7625  0.5535
 2469SOL    HW2 7407   4.581   1.763   8.504  1.3800 -1.3294 -0.7844
 2470SOL     OW 7408   2.345   4.706   9.913  0.3618 -0.5843  0.1011
 2470SOL    HW1 7409   2.272   4.754   9.872  2.3738  1.0013 -1.9144
 2470SOL    HW2 7410   2.314   4.615   9.918 -2.2507  0.2390  0.7074
 2471SOL     OW 7411   0.524   4.730   5.418 -0.1188  0.4022  0.6760
 2471SOL    HW1 7412   0.485   4.815   5.398  0.5707  0.6571  0.3890
 2471SOL    HW2 7413   0.475   4.699   5.495 -2.1460 -0.1361 -0.7403
 2472SOL     OW 7414   2.171   4.242   9.016 -0.2075  1.3749 -0.4566
 2472SOL    HW1 7415   2.235   4.220   9.083 -0.7163  0.4064 -0.2685
 2472SOL    HW2 7416   2.219   4.297   8.954  1.1179 -0.2143 -0.9076
 2473SOL     OW 7417   1.321   4.471   7.942  0.0639 -0.4184 -0.0982
 2473SOL    HW1 7418   1.357   4.396   7.990  1.4857  0.8126  0.8342
 2473SOL    HW2 7419   1.398   4.522   7.916 -0.9149  1.2484  0.1658
 2474SOL     OW 7420   4.258   0.063   6.500  0.1851  0.8669 -0.5771
 2474SOL    HW1 7421   4.233  -0.019   6.544  0.3517  1.4039  0.5738
 2474SOL    HW2 7422   4.351   0.051   6.479  0.2063  0.7487 -0.4235
 2475SOL     OW 7423   4.825   2.870   8.852 -0.5713  0.1532 -0.5214
 2475SOL    HW1 7424   4.787   2.956   8.836 -1.1224  0.0104  0.0137
 2475SOL    HW2 7425   4.754   2.808   8.838 -0.4568 -0.1392  0.1573
 2476SOL     OW 7426   0.078   4.546   6.627  0.3453 -0.3726 -0.4291
 2476SOL    HW1 7427   0.149   4.577   6.570  0.3033  0.3066 -0.1306
 2476SOL    HW2 7428   0.064   4.619   6.687 -1.4779  0.0269 -1.2812
 2477SOL     OW 7429   4.555   3.132   7.884  0.4688 -0.0052 -0.7278
 2477SOL    HW1 7430   4.555   3.220   7.922 -0.4339  1.5369 -3.9779
 2477SOL    HW2 7431   4.628   3.088   7.928  0.2721  1.9434  1.7975
 2478SOL     OW 7432   2.472   2.707   8.000  0.0481  0.0861 -0.2357
 2478SOL    HW1 7433   2.522   2.772   8.050  0.5334 -1.7771  1.8392
 2478SOL    HW2 7434   2.539   2.662   7.947 -0.0593  0.2451 -0.5094
 2479SOL     OW 7435   1.638   2.968   7.501 -0.5011 -0.2875 -0.5009
 2479SOL    HW1 7436   1.595   2.933   7.578 -1.2569 -0.2464 -0.8972
 2479SOL    HW2 7437   1.569   2.972   7.434 -0.2384  1.1713 -0.7109
 2480SOL     OW 7438   0.212   2.773   7.850 -0.1798  0.7037 -0.3789
 2480SOL    HW1 7439   0.192   2.729   7.767 -2.3538  0.8564 -0.0034
 2480SOL    HW2 7440   0.271   2.844   7.826  0.7514 -0.4024 -1.4831
 2481SOL     OW 7441   1.578   2.242   6.702  0.6384  0.2347 -0.2109
 2481SOL    HW1 7442   1.652   2.265   6.646  0.9340 -0.2808 -0.0469
 2481SOL    HW2 7443   1.554   2.323   6.746  1.4742  0.3022  0.1569
 2482SOL     OW 7444   2.247   0.136   7.184 -0.2595  0.2664  0.2287
 2482SOL    HW1 7445   2.326   0.132   7.238 -0.6181 -1.5873  0.6655
 2482SOL    HW2 7446   2.230   0.230   7.174  2.5212  0.7726 -0.7019
 2483SOL     OW 7447   1.906   0.256   5.675 -0.2091 -0.0748  0.2101
 2483SOL    HW1 7448   1.832   0.196   5.671 -2.4355  2.3810  0.9871
 2483SOL    HW2 7449   1.924   0.266   5.769 -0.2269  0.7786  0.1367
 2484SOL     OW 7450   2.086   2.301   9.646 -0.1408  0.2540 -0.1109
 2484SOL    HW1 7451   2.127   2.235   9.701 -0.4676  0.1145 -0.0334
 2484SOL    HW2 7452   1.997   2.310   9.680 -0.0075  0.9678  0.0836
 2485SOL     OW 7453   2.298   2.008   8.386 -0.4197 -0.0056  0.2035
 2485SOL    HW1 7454   2.272   2.074   8.322  0.9608 -2.1001 -2.7799
 2485SOL    HW2 7455   2.240   1.934   8.369  2.5716 -2.1400 -1.6934
 2486SOL     OW 7456   1.891   1.192   9.166  0.0872 -0.4608 -0.2381
 2486SOL    HW1 7457   1.932   1.277   9.185 -0.7350  0.0747 -0.7582
 2486SOL    HW2 7458   1.939   1.129   9.219 -0.0307  0.5042  1.0704
 2487SOL     OW 7459   3.099   2.723   7.592 -0.5083 -0.2963  0.1065
 2487SOL    HW1 7460   3.191   2.712   7.567 -0.4194  0.1033  0.2599
 2487SOL    HW2 7461   3.068   2.797   7.540 -0.7224 -0.3766  0.1180
 2488SOL     OW 7462   4.959   2.997   9.591  0.1160  0.0601 -0.4497
 2488SOL    HW1 7463   4.904   3.068   9.623 -2.8492 -0.2749 -4.1556
 2488SOL    HW2 7464   4.997   3.030   9.510 -1.5232 -2.4693 -2.3944
 2489SOL     OW 7465   3.513   2.391   7.224 -0.1315  0.0734 -0.5565
 2489SOL    HW1 7466   3.478   2.478   7.202 -1.7688 -0.3502  0.2285
 2489SOL    HW2 7467   3.495   2.338   7.147 -0.2086  0.1346 -0.5814
 2490SOL     OW 7468   0.608   4.072   8.422  0.0657 -0.7976 -0.4010
 2490SOL    HW1 7469   0.686   4.030   8.386 -0.6932  0.8588 -4.6197
 2490SOL    HW2 7470   0.538   4.007   8.411  0.2698 -1.1465  0.3546
 2491SOL     OW 7471   4.283   4.765   8.051 -0.1137 -0.4076 -0.2444
 2491SOL    HW1 7472   4.273   4.820   8.129 -2.1001 -0.9840 -0.0528
 2491SOL    HW2 7473   4.349   4.811   7.998 -1.8586  2.3458 -0.2082
 2492SOL     OW 7474   3.890   2.447   7.939 -0.4176 -0.4844 -0.0434
 2492SOL    HW1 7475   3.935   2.371   7.901  0.4646  0.5519 -1.1135
 2492SOL    HW2 7476   3.797   2.428   7.928 -0.3028 -2.3108  1.5106
 2493SOL     OW 7477   3.060   2.830   9.010 -0.6257  0.1382 -0.3034
 2493SOL    HW1 7478   3.006   2.755   9.036 -1.8281  0.5112 -1.5531
 2493SOL    HW2 7479   2.996   2.899   8.990  0.2980  0.6167 -1.7883
 2494SOL     OW 7480   2.110   1.921   6.886 -1.1274 -0.3014 -0.3323
 2494SOL    HW1 7481   2.025   1.925   6.841 -0.6044 -0.1184 -1.3414
 2494SOL    HW2 7482   2.168   1.878   6.823 -0.0542  1.1045 -0.3633
 2495SOL     OW 7483   2.485   3.525   8.922  0.2410  0.1190 -0.6307
 2495SOL    HW1 7484   2.495   3.435   8.950  0.1648 -0.0226 -1.0466
 2495SOL    HW2 7485   2.416   3.560   8.977  0.3901 -0.0225 -0.3494
 2496SOL     OW 7486   2.908   4.578  10.033  0.0762  0.4645  0.3531
 2496SOL    HW1 7487   3.002   4.569  10.047  0.0160 -0.4251  0.2164
 2496SOL    HW2 7488   2.891   4.671  10.047  1.4038  1.1817 -2.0693
 2497SOL     OW 7489   0.630   2.088   7.123  0.2122  0.1620  0.3618
 2497SOL    HW1 7490   0.691   2.158   7.097 -1.5611  1.3975 -0.6728
 2497SOL    HW2 7491   0.598   2.115   7.209  1.0407 -0.4830  0.9004
 2498SOL     OW 7492   2.777   2.529   6.765 -0.1798  0.7906 -0.5471
 2498SOL    HW1 7493   2.714   2.469   6.804  1.5421  0.0463  1.2867
 2498SOL    HW2 7494   2.731   2.613   6.759 -0.8543  0.7377  2.4540
 2499SOL     OW 7495   2.360   0.961   7.080  0.2432 -0.3612  0.9765
 2499SOL    HW1 7496   2.270   0.993   7.075  0.6566  1.1950  2.3827
 2499SOL    HW2 7497   2.397   0.977   6.993 -0.3472  0.6196  0.8930
 2500SOL     OW 7498   4.729   2.956   8.479 -0.4516  0.1727  0.0895
 2500SOL    HW1 7499   4.667   2.949   8.552 -0.8405 -3.2324 -0.4009
 2500SOL    HW2 7500   4.678   2.931   8.402  0.7771  0.3807 -0.8172
 2501SOL     OW 7501   0.109   1.360   7.462 -0.0268 -1.2326  0.0442
 2501SOL    HW1 7502   0.087   1.334   7.373  1.6665  2.7045 -1.7699
 2501SOL    HW2 7503   0.041   1.422   7.487  0.3815 -1.0845  0.8184
 2502SOL     OW 7504   4.145   3.220   6.480 -0.0553 -0.7795 -0.4089
 2502SOL    HW1 7505   4.192   3.265   6.551 -1.0132  0.2642 -0.4082
 2502SOL    HW2 7506   4.163   3.127   6.494  1.5558 -0.4463 -0.1000
 2503SOL     OW 7507   3.899   0.132   8.380 -0.2942  0.1870  0.4724
 2503SOL    HW1 7508   3.866   0.170   8.462  2.3682  1.3628  1.1014
 2503SOL    HW2 7509   3.983   0.094   8.404 -0.2955 -1.1003 -1.3827
 2504SOL     OW 7510   1.120   1.418   8.629  0.1714 -0.7936  0.3461
 2504SOL    HW1 7511   1.165   1.337   8.606  0.2170 -1.1099  1.5029
 2504SOL    HW2 7512   1.071   1.442   8.550  4.0343  0.7682 -1.8049
 2505SOL     OW 7513   3.659   2.825   8.904 -0.4087  0.2569 -0.7104
 2505SOL    HW1 7514   3.665   2.758   8.972  0.2985  1.9264  0.9520
 2505SOL    HW2 7515   3.707   2.788   8.830  1.7329 -0.2989  0.8675
 2506SOL     OW 7516   1.903   4.845   9.385  0.4753  0.8053  0.8714
 2506SOL    HW1 7517   1.897   4.940   9.390  1.9884  1.0122 -0.4465
 2506SOL    HW2 7518   1.843   4.813   9.452 -1.2389  2.6578  0.2908
 2507SOL     OW 7519   3.596   4.164   7.858 -0.3870  0.2031  0.6900
 2507SOL    HW1 7520   3.505   4.194   7.865 -0.9352 -0.1970 -2.8300
 2507SOL    HW2 7521   3.629   4.206   7.778  2.7074  0.6281  2.0437
 2508SOL     OW 7522   3.852   0.633   7.609 -0.4015 -0.0610 -0.1653
 2508SOL    HW1 7523   3.779   0.594   7.658  0.7095 -2.2760 -0.1100
 2508SOL    HW2 7524   3.925   0.573   7.625  0.7565  0.6925 -2.2673
 2509SOL     OW 7525   4.688   3.212   7.652 -0.5321  0.1071  0.4066
 2509SOL    HW1 7526   4.638   3.175   7.725 -0.5603 -1.0004 -0.1588
 2509SOL    HW2 7527   4.630   3.277   7.613 -1.2939 -0.6969  0.1633
 2510SOL     OW 7528   0.535   4.495   9.169 -0.2619  0.0691 -0.1267
 2510SOL    HW1 7529   0.453   4.536   9.140  0.0291  0.4957 -0.3693
 2510SOL    HW2 7530   0.531   4.406   9.136  0.1724  0.6111 -1.7443
 2511SOL     OW 7531   0.649   2.831   6.993 -0.2769  0.7304  0.3511
 2511SOL    HW1 7532   0.616   2.898   6.933  0.4132  1.3150  0.6084
 2511SOL    HW2 7533   0.619   2.748   6.956  0.0269  1.0920 -0.7303
 2512SOL     OW 7534   4.513   2.970   8.971 -0.9119 -0.1985 -0.1767
 2512SOL    HW1 7535   4.466   3.036   8.920  0.3810  0.2465 -0.8159
 2512SOL    HW2 7536   4.512   2.891   8.916 -0.4664 -0.0387 -0.4146
 2513SOL     OW 7537   2.975   3.459   9.208  0.0523 -0.6965 -0.0478
 2513SOL    HW1 7538   2.938   3.542   9.179 -0.7382  0.1483  2.9461
 2513SOL    HW2 7539   3.068   3.477   9.218  0.1486 -0.6764 -0.9040
 2514SOL     OW 7540   1.178   2.596   7.902  0.1603  0.2185 -0.1949
 2514SOL    HW1 7541   1.093   2.636   7.886 -1.1855 -2.1413  0.6225
 2514SOL    HW2 7542   1.164   2.537   7.976  2.2206 -1.0689 -0.7355
 2515SOL     OW 7543   3.374   2.232   5.571 -0.2490  0.4634  0.2783
 2515SOL    HW1 7544   3.367   2.312   5.623 -0.1162 -0.3301  1.5780
 2515SOL    HW2 7545   3.380   2.162   5.636  1.1375 -0.4811 -0.7977
 2516SOL     OW 7546   2.536   3.869   6.258  0.2724  0.5648  0.2946
 2516SOL    HW1 7547   2.480   3.794   6.279 -0.4752  1.3653  1.2487
 2516SOL    HW2 7548   2.489   3.945   6.293  0.4224  1.6496 -1.7013
 2517SOL     OW 7549   3.427   3.743  10.242 -0.0835 -0.6668  0.3564
 2517SOL    HW1 7550   3.458   3.785  10.162  0.1547 -2.5778 -0.5958
 2517SOL    HW2 7551   3.335   3.724  10.226 -0.4341  0.2495  1.1418
 2518SOL     OW 7552   4.297   3.012   8.008 -0.4538 -0.3804 -0.3544
 2518SOL    HW1 7553   4.361   3.068   8.052 -3.1545  1.1936  1.8881
 2518SOL    HW2 7554   4.267   3.063   7.933 -0.7129 -0.0893 -0.0588
 2519SOL     OW 7555   4.460   0.694   6.357  0.3368 -0.3639 -0.0238
 2519SOL    HW1 7556   4.387   0.747   6.327  0.9738  1.5481  1.5535
 2519SOL    HW2 7557   4.503   0.663   6.276 -0.8142  0.4425 -0.9702
 2520SOL     OW 7558   2.038   2.820  10.173 -0.9593 -0.0536  0.4244
 2520SOL    HW1 7559   2.004   2.839  10.260 -1.1131 -0.7350  0.5156
 2520SOL    HW2 7560   1.962   2.790  10.123 -1.2226  1.8641 -0.4374
 2521SOL     OW 7561   3.852   4.353   9.525 -0.4093  0.4981  0.1360
 2521SOL    HW1 7562   3.941   4.367   9.492  0.4349 -4.3305 -0.3076
 2521SOL    HW2 7563   3.806   4.313   9.451 -2.0985  0.2414  1.2942
 2522SOL     OW 7564   0.699   0.094   9.262  0.4944 -0.2415  0.0846
 2522SOL    HW1 7565   0.662   0.011   9.292  2.3857 -2.2403 -2.6580
 2522SOL    HW2 7566   0.788   0.095   9.297  0.7037  0.2788 -0.4379
 2523SOL     OW 7567   3.912   2.726   9.463 -0.9444  0.1696  0.5280
 2523SOL    HW1 7568   3.974   2.798   9.471 -0.4409 -0.2206  0.1637
 2523SOL    HW2 7569   3.872   2.738   9.377  0.0784 -0.7101 -0.0966
 2524SOL     OW 7570   2.794   2.335   9.701  0.2336  0.2763 -0.5601
 2524SOL    HW1 7571   2.868   2.325   9.762  0.9577 -2.0226 -1.6961
 2524SOL    HW2 7572   2.834   2.367   9.621 -0.0093 -0.7556 -1.1085
 2525SOL     OW 7573   2.919   3.330   8.665 -0.3286  0.1581  0.1806
 2525SOL    HW1 7574   2.951   3.354   8.752 -1.4468  2.1744  0.1156
 2525SOL    HW2 7575   2.824   3.339   8.671 -0.3182  2.7865 -1.8145
 2526SOL     OW 7576   3.689   3.683   8.700 -0.8465  0.1392 -0.5663
 2526SOL    HW1 7577   3.720   3.709   8.787 -1.3385  1.8276 -0.8582
 2526SOL    HW2 7578   3.707   3.589   8.696 -0.7669  0.0222  1.3313
 2527SOL     OW 7579   0.710   3.966   7.772 -0.3481  0.1095 -0.3773
 2527SOL    HW1 7580   0.771   4.038   7.791 -1.0336  0.4274  0.6638
 2527SOL    HW2 7581   0.767   3.896   7.739  0.3338  1.1059 -1.4096
 2528SOL     OW 7582   2.228   3.235   9.617 -0.1742  0.6432 -0.1700
 2528SOL    HW1 7583   2.317   3.202   9.628 -1.6616 -3.6894  1.0732
 2528SOL    HW2 7584   2.220   3.251   9.523  1.2773 -1.2828 -0.6958
 2529SOL     OW 7585   2.190   3.630  10.062  0.0753 -0.3352  0.3345
 2529SOL    HW1 7586   2.210   3.537  10.055 -0.6724 -0.5636  1.0304
 2529SOL    HW2 7587   2.098   3.637  10.036 -0.0426  0.1203  0.8563
 2530SOL     OW 7588   3.901   3.148   9.580  0.6167  0.1716  0.7999
 2530SOL    HW1 7589   3.821   3.197   9.598  0.0786 -0.9361  1.5378
 2530SOL    HW2 7590   3.962   3.175   9.649  0.9740  1.1733  0.1158
 2531SOL     OW 7591   2.626   2.568   9.652  0.2978  0.2638  0.9452
 2531SOL    HW1 7592   2.684   2.493   9.668  0.5698  0.7403  2.3468
 2531SOL    HW2 7593   2.683   2.644   9.656 -0.0337  0.5897 -0.1439
 2532SOL     OW 7594   1.332   4.017   9.778  0.1422  0.3875  0.4304
 2532SOL    HW1 7595   1.367   3.950   9.719  2.5042  1.1477  0.8711
 2532SOL    HW2 7596   1.237   4.005   9.774  0.0899  0.7271 -3.9370
 2533SOL     OW 7597   1.244   0.075  10.113  0.2719 -0.1607 -0.3608
 2533SOL    HW1 7598   1.311   0.009  10.130 -0.2572 -0.4047  0.9100
 2533SOL    HW2 7599   1.173   0.054  10.174 -0.9991  0.0637 -1.7056
 2534SOL     OW 7600   1.704   1.993   9.823  0.1183 -0.2430 -0.3914
 2534SOL    HW1 7601   1.794   1.994   9.791  0.4415 -0.1719  0.4996
 2534SOL    HW2 7602   1.698   1.915   9.877 -0.1278  0.1683  0.1841
 2535SOL     OW 7603   1.424   2.289   7.941  0.0166  0.4347 -0.2054
 2535SOL    HW1 7604   1.489   2.339   7.893  0.9164  0.2662  0.8079
 2535SOL    HW2 7605   1.470   2.210   7.969 -0.7618  0.0844  0.1090
 2536SOL     OW 7606   4.757   2.983   7.987 -0.3276 -0.3407 -0.2717
 2536SOL    HW1 7607   4.756   2.903   8.040 -0.9882 -1.1197 -1.4256
 2536SOL    HW2 7608   4.802   2.959   7.906 -1.2874  0.2036 -0.9946
 2537SOL     OW 7609   4.666   3.309   6.592 -0.4436  0.1050 -0.3077
 2537SOL    HW1 7610   4.684   3.279   6.503 -1.8465 -1.3152 -0.1587
 2537SOL    HW2 7611   4.751   3.310   6.635  0.1649  0.1791 -1.4740
 2538SOL     OW 7612   2.346   2.038   7.644  0.0473 -0.4575  0.0950
 2538SOL    HW1 7613   2.334   2.132   7.633  0.6079 -0.0789  2.2851
 2538SOL    HW2 7614   2.267   2.000   7.606 -0.0634  0.8615 -1.0840
 2539SOL     OW 7615   1.630   1.313   9.257  0.0872  0.0019  0.0699
 2539SOL    HW1 7616   1.622   1.367   9.178  0.2447 -0.4446 -0.2581
 2539SOL    HW2 7617   1.710   1.262   9.243 -0.2951 -0.6337  0.1741
 2540SOL     OW 7618   1.105   1.397   9.737  0.1055  0.0094  0.1893
 2540SOL    HW1 7619   1.199   1.409   9.753 -0.1363  2.1135  0.2953
 2540SOL    HW2 7620   1.101   1.363   9.648  0.9624  0.3128  0.0170
 2541SOL     OW 7621   2.199  -0.030  10.630 -0.6879  0.3849 -0.2378
 2541SOL    HW1 7622   2.288  -0.001  10.653 -0.5438  0.4375 -0.8358
 2541SOL    HW2 7623   2.142   0.039  10.664 -0.7432 -0.8592  2.4628
 2542SOL     OW 7624   1.224   3.445   8.223 -0.1539 -0.0344  0.3176
 2542SOL    HW1 7625   1.153   3.502   8.196  0.4052 -0.2384 -1.7254
 2542SOL    HW2 7626   1.261   3.488   8.300 -1.9185  0.5125  0.9029
 2543SOL     OW 7627   3.117   2.320   6.820  0.9018  0.0381  0.1100
 2543SOL    HW1 7628   3.145   2.383   6.754 -1.1162 -1.1227 -1.9774
 2543SOL    HW2 7629   3.100   2.239   6.771 -2.5855 -0.3269  1.6420
 2544SOL     OW 7630   1.881   2.006   8.451 -0.0034  0.2347  0.5416
 2544SOL    HW1 7631   1.931   1.929   8.424  0.7730 -0.0123  2.5313
 2544SOL    HW2 7632   1.931   2.044   8.522 -0.3227  2.6859 -0.4395
 2545SOL     OW 7633   0.096   4.350   8.707 -0.6256 -0.2015  0.6245
 2545SOL    HW1 7634   0.167   4.314   8.653 -1.6544 -0.2787 -0.7337
 2545SOL    HW2 7635   0.033   4.279   8.715 -0.5053 -0.1882  1.9666
 2546SOL     OW 7636   4.062   0.917   8.556 -0.0572  0.8161  0.0803
 2546SOL    HW1 7637   4.046   0.889   8.646 -0.9868  2.2957  0.4221
 2546SOL    HW2 7638   4.059   0.837   8.504 -0.5922  0.0686  1.2317
 2547SOL     OW 7639   2.321   2.378   9.855 -0.1417 -0.4641  0.0694
 2547SOL    HW1 7640   2.292   2.305   9.800  0.6481 -0.9442  0.2595
 2547SOL    HW2 7641   2.387   2.423   9.802 -0.5120  0.0289  0.0165
 2548SOL     OW 7642   2.440   0.424   9.092 -0.0832  0.3722 -0.1569
 2548SOL    HW1 7643   2.389   0.344   9.103 -1.3509  0.8675 -1.9331
 2548SOL    HW2 7644   2.375   0.494   9.092  0.9213  1.3414  0.5272
 2549SOL     OW 7645   2.087   0.270   9.338 -0.2106 -0.5945  0.4150
 2549SOL    HW1 7646   2.111   0.305   9.424  1.6926 -0.8818  0.0392
 2549SOL    HW2 7647   2.146   0.315   9.277 -1.6660 -0.2545 -0.7883
 2550SOL     OW 7648   0.673   3.270   8.666  0.2150 -0.0861  0.4717
 2550SOL    HW1 7649   0.630   3.240   8.586  0.0980 -0.6477  0.7409
 2550SOL    HW2 7650   0.602   3.274   8.731  0.2442  0.7037  0.4577
 2551SOL     OW 7651   0.782   4.797   9.801 -0.3170  0.2830 -0.7030
 2551SOL    HW1 7652   0.875   4.791   9.781 -0.4093 -0.1805 -1.0115
 2551SOL    HW2 7653   0.748   4.709   9.783 -0.4792 -0.0687  1.1009
 2552SOL     OW 7654   3.646   0.638   6.627  0.0246 -0.3131  1.3053
 2552SOL    HW1 7655   3.716   0.695   6.657 -1.4783  1.0718  2.3692
 2552SOL    HW2 7656   3.635   0.574   6.698 -2.0003  1.5696  2.8166
 2553SOL     OW 7657   2.721   3.214  10.245 -0.0804  0.1828 -0.1913
 2553SOL    HW1 7658   2.644   3.257  10.208 -0.7292  0.7698  1.7291
 2553SOL    HW2 7659   2.712   3.123  10.216 -0.3427  0.6552 -1.7231
 2554SOL     OW 7660   4.096   4.169   5.178  0.2676  0.2860  0.5889
 2554SOL    HW1 7661   4.173   4.220   5.152  1.1448 -1.9410 -1.4720
 2554SOL    HW2 7662   4.131   4.099   5.232 -0.3930 -0.4231  0.1138
 2555SOL     OW 7663   3.280   3.994  10.109  0.2500 -0.7011  0.5476
 2555SOL    HW1 7664   3.271   3.938  10.186 -0.2769  1.1015  1.8514
 2555SOL    HW2 7665   3.302   3.933  10.038 -1.4650 -2.7097  1.6140
 2556SOL     OW 7666   0.355   3.196   9.376  0.2762 -0.0700 -0.3639
 2556SOL    HW1 7667   0.295   3.264   9.406  0.3336 -0.0024 -0.4040
 2556SOL    HW2 7668   0.316   3.114   9.407 -0.3089 -0.1020 -1.1481
 2557SOL     OW 7669   4.378   1.430   9.278  0.2357  0.2441  0.3197
 2557SOL    HW1 7670   4.388   1.376   9.356  1.6521  0.6155  0.4311
 2557SOL    HW2 7671   4.465   1.431   9.238 -0.4150  0.2295 -1.1664
 2558SOL     OW 7672   4.209   2.615   9.710  0.2598 -0.5740 -0.6239
 2558SOL    HW1 7673   4.299   2.648   9.719 -0.1113  0.6861 -1.4134
 2558SOL    HW2 7674   4.211   2.531   9.756  1.8707 -0.6258 -0.7074
 2559SOL     OW 7675   3.123   4.941   7.408  0.1447 -0.0482  0.1990
 2559SOL    HW1 7676   3.120   4.977   7.496  0.1457  2.5754 -0.7714
 2559SOL    HW2 7677   3.045   4.887   7.401  0.4174 -0.7323  1.9310
 2560SOL     OW 7678   3.976   2.545   8.894 -0.2605  0.2053 -0.1530
 2560SOL    HW1 7679   4.061   2.568   8.856  0.1363 -1.2144 -0.2108
 2560SOL    HW2 7680   3.922   2.521   8.819 -1.0391  1.9992 -0.1990
 2561SOL     OW 7681   3.326   1.171   6.934 -0.1715  0.4501  0.1222
 2561SOL    HW1 7682   3.269   1.245   6.915 -0.3165  0.0100 -1.2367
 2561SOL    HW2 7683   3.269   1.095   6.935 -0.0691  0.3465  1.7981
 2562SOL     OW 7684   4.432   2.040   8.098  0.0418 -0.1003  0.3874
 2562SOL    HW1 7685   4.504   1.985   8.067  0.9056  0.7759  0.8115
 2562SOL    HW2 7686   4.415   2.101   8.026  0.6573  0.5871  0.8141
 2563SOL     OW 7687   2.635   3.627   9.946  0.7242 -0.2933 -0.5867
 2563SOL    HW1 7688   2.689   3.613  10.024  2.0887 -1.3145 -1.6695
 2563SOL    HW2 7689   2.566   3.687   9.976 -0.3989 -2.6665  2.1095
 2564SOL     OW 7690   2.280   3.318   9.363  0.1447 -0.2532 -0.5841
 2564SOL    HW1 7691   2.291   3.395   9.307  0.0169 -0.8125 -1.4044
 2564SOL    HW2 7692   2.229   3.257   9.309 -2.4032  0.1937  1.1119
 2565SOL     OW 7693   2.097   1.826   9.524  0.6478 -0.6281 -0.4320
 2565SOL    HW1 7694   2.068   1.792   9.440  0.9266 -0.6141 -0.5349
 2565SOL    HW2 7695   2.166   1.766   9.552  0.8743 -0.3704 -0.4321
 2566SOL     OW 7696   4.096   2.078   8.627  0.2822  0.2182 -0.8919
 2566SOL    HW1 7697   4.055   2.075   8.713  0.8860  0.0057 -0.6112
 2566SOL    HW2 7698   4.099   2.172   8.605  0.9757  0.3479 -0.2692
 2567SOL     OW 7699   3.322   4.943   9.693 -0.5947 -0.2092 -0.6961
 2567SOL    HW1 7700   3.355   4.969   9.607 -1.5700  2.0564 -0.4532
 2567SOL    HW2 7701   3.393   4.965   9.754  0.4086 -2.5275 -0.9258
 2568SOL     OW 7702   4.356   1.998   8.820  0.1724  0.6115  0.2232
 2568SOL    HW1 7703   4.315   1.916   8.849  2.0486 -0.2034  0.7857
 2568SOL    HW2 7704   4.310   2.066   8.869 -1.1850 -0.1311  0.0292
 2569SOL     OW 7705   2.601   1.862   8.453  0.1527 -0.6827  0.4969
 2569SOL    HW1 7706   2.602   1.948   8.411  2.0356 -0.9745 -0.1441
 2569SOL    HW2 7707   2.575   1.880   8.543  0.4528  0.5508  0.3508
 2570SOL     OW 7708   4.132   3.391   8.217 -0.1370 -0.0154 -0.6821
 2570SOL    HW1 7709   4.118   3.298   8.233  0.2521  0.2454  1.4708
 2570SOL    HW2 7710   4.226   3.403   8.225 -0.1399  0.5110 -1.3679
 2571SOL     OW 7711   1.889   3.702   6.774  0.0090 -0.1861 -0.4270
 2571SOL    HW1 7712   1.901   3.607   6.773  0.5478 -0.1365  0.5079
 2571SOL    HW2 7713   1.811   3.716   6.827 -1.0380 -0.1771 -1.8984
 2572SOL     OW 7714   4.697   0.706   9.604 -0.5205 -0.1877  0.3517
 2572SOL    HW1 7715   4.781   0.749   9.588  0.1877 -1.6597 -0.0895
 2572SOL    HW2 7716   4.683   0.714   9.699  0.5334 -0.6185  0.5547
 2573SOL     OW 7717   3.371   0.132   5.741 -0.1310  0.0676  0.1544
 2573SOL    HW1 7718   3.442   0.100   5.797 -1.6888 -0.5195  1.8796
 2573SOL    HW2 7719   3.383   0.227   5.740 -0.4399  0.1621  2.0618
 2574SOL     OW 7720   4.259   3.096   8.799 -0.0554  0.0914  0.2788
 2574SOL    HW1 7721   4.171   3.070   8.772  0.0109 -0.9204  0.9936
 2574SOL    HW2 7722   4.247   3.151   8.876 -0.1005  0.7521 -0.1897
 2575SOL     OW 7723   3.714   1.791   9.672  0.1895  1.4468 -0.2104
 2575SOL    HW1 7724   3.721   1.702   9.638 -0.4739  1.7256 -1.1154
 2575SOL    HW2 7725   3.765   1.789   9.754 -0.1743  0.1316  0.0163
 2576SOL     OW 7726   2.919   2.791   8.461 -0.1239 -0.0323  0.5430
 2576SOL    HW1 7727   2.999   2.741   8.446 -0.3317 -0.3909  0.6409
 2576SOL    HW2 7728   2.937   2.844   8.539 -0.3804 -0.9404  1.2284
 2577SOL     OW 7729   3.191   4.519   6.962  0.1410 -0.6676 -0.8614
 2577SOL    HW1 7730   3.164   4.515   6.870  0.7171 -0.7206 -1.0334
 2577SOL    HW2 7731   3.255   4.449   6.971 -2.2169 -2.8244  0.3947
 2578SOL     OW 7732   1.449   1.477   8.348 -0.3553 -0.1427 -0.2449
 2578SOL    HW1 7733   1.364   1.473   8.393  0.1441 -0.0992  0.7270
 2578SOL    HW2 7734   1.437   1.423   8.270 -0.3487 -2.7883  1.4473
 2579SOL     OW 7735   0.729   2.909   8.434  0.2037  0.7726  0.0565
 2579SOL    HW1 7736   0.786   2.876   8.365  0.5840 -1.0378  1.1795
 2579SOL    HW2 7737   0.746   2.853   8.509 -1.1005  1.9014  1.2681
 2580SOL     OW 7738   1.655   4.428   9.390 -0.0735 -0.1495 -0.9436
 2580SOL    HW1 7739   1.679   4.350   9.341  1.5840 -0.2075 -0.1011
 2580SOL    HW2 7740   1.703   4.421   9.473 -0.2050  1.5533 -0.6812
 2581SOL     OW 7741   0.887   3.092   8.724 -0.0917 -0.6946 -0.2804
 2581SOL    HW1 7742   0.839   3.021   8.766  1.2592 -2.5257 -1.6568
 2581SOL    HW2 7743   0.825   3.128   8.661 -0.1788 -2.0691 -1.0252
 2582SOL     OW 7744   1.758   2.633   6.330 -0.1362  0.4797 -0.3274
 2582SOL    HW1 7745   1.798   2.601   6.411  1.5880 -0.9439 -1.6647
 2582SOL    HW2 7746   1.787   2.724   6.323  2.4732 -0.3332 -0.9367
 2583SOL     OW 7747   2.515   3.543   8.061  0.9386 -0.2638 -0.7000
 2583SOL    HW1 7748   2.506   3.615   7.999  0.6637  0.1522 -0.1869
 2583SOL    HW2 7749   2.442   3.484   8.040  0.3331  0.2948 -0.2385
 2584SOL     OW 7750   0.876   2.151   9.150  0.0927 -0.4101 -0.0838
 2584SOL    HW1 7751   0.932   2.116   9.081 -0.5619  0.7542 -1.2444
 2584SOL    HW2 7752   0.930   2.146   9.229  1.1718 -0.9800 -0.8316
 2585SOL     OW 7753   3.431   3.596   8.601 -0.3656 -0.5362 -0.1174
 2585SOL    HW1 7754   3.514   3.603   8.649 -0.8996 -0.8881  0.8862
 2585SOL    HW2 7755   3.428   3.675   8.548 -0.1344  0.3018  1.0741
 2586SOL     OW 7756   1.147   2.252   7.505 -0.4355  0.1833  0.2488
 2586SOL    HW1 7757   1.151   2.273   7.598 -0.7407  0.9449  0.0999
 2586SOL    HW2 7758   1.128   2.158   7.502 -1.0039  0.2665  0.9522
 2587SOL     OW 7759   3.387   3.841   9.922 -0.2802 -0.4032  0.0839
 2587SOL    HW1 7760   3.408   3.759   9.966 -1.4386 -0.5365  0.4313
 2587SOL    HW2 7761   3.319   3.817   9.859 -1.1672  0.4070  0.7094
 2588SOL     OW 7762   2.126   2.460   8.067  0.3635 -0.0467  0.7426
 2588SOL    HW1 7763   2.221   2.468   8.062  0.1359  3.7784 -1.6496
 2588SOL    HW2 7764   2.098   2.441   7.977 -1.1693 -2.7093  1.6668
 2589SOL     OW 7765   1.384   3.211   8.578 -0.3599 -0.0034 -0.0037
 2589SOL    HW1 7766   1.421   3.159   8.506 -0.1752  0.7972 -0.5010
 2589SOL    HW2 7767   1.291   3.189   8.578 -0.2704 -0.4010 -0.1510
 2590SOL     OW 7768   4.137   2.633   8.697  0.1591 -0.2208  0.3772
 2590SOL    HW1 7769   4.216   2.674   8.734  1.2474 -0.7328 -1.2517
 2590SOL    HW2 7770   4.140   2.656   8.604 -1.7412 -0.1077  0.3224
 2591SOL     OW 7771   1.788   4.475  10.288 -0.8319  0.0087  0.0691
 2591SOL    HW1 7772   1.847   4.498  10.360 -2.0571 -1.9942  1.8467
 2591SOL    HW2 7773   1.837   4.409  10.238 -1.3048 -1.3397  1.2968
 2592SOL     OW 7774   4.755   4.213   7.118 -0.9011 -0.0157 -0.0533
 2592SOL    HW1 7775   4.833   4.158   7.121 -0.2452  0.8202 -0.9726
 2592SOL    HW2 7776   4.689   4.158   7.075 -0.3434 -0.2054 -0.6930
 2593SOL     OW 7777   0.949   4.836   9.116 -0.8090  0.0307 -0.1398
 2593SOL    HW1 7778   0.922   4.829   9.024 -3.4385 -0.2910  0.5743
 2593SOL    HW2 7779   0.981   4.926   9.124 -0.2534 -0.0292 -1.4312
 2594SOL     OW 7780   2.463   2.614   9.031  0.4598 -0.6274 -0.5480
 2594SOL    HW1 7781   2.376   2.613   9.071  0.6035 -1.3054 -0.2458
 2594SOL    HW2 7782   2.447   2.641   8.941  0.0445  0.1430 -0.2619
 2595SOL     OW 7783   2.716   3.486   7.691 -0.6046  0.6323  0.0294
 2595SOL    HW1 7784   2.733   3.417   7.627  0.0514 -1.1925  2.0575
 2595SOL    HW2 7785   2.656   3.546   7.647 -1.4765 -1.4129 -1.6937
 2596SOL     OW 7786   2.417   3.618   8.587  0.0441  0.4895  0.4811
 2596SOL    HW1 7787   2.416   3.593   8.494  0.7350 -0.4644  0.7067
 2596SOL    HW2 7788   2.484   3.562   8.626 -1.3575 -0.3284  1.8813
 2597SOL     OW 7789   3.386   2.989   9.110  0.4458 -0.4892  0.1394
 2597SOL    HW1 7790   3.474   2.992   9.073  0.3455 -1.4949 -0.2138
 2597SOL    HW2 7791   3.396   3.021   9.199  0.7476  1.7435 -0.6246
 2598SOL     OW 7792   2.894   1.270   9.548 -0.4177 -0.6601 -0.2444
 2598SOL    HW1 7793   2.906   1.277   9.643  1.4940 -2.5408 -0.2896
 2598SOL    HW2 7794   2.839   1.345   9.526  1.6320  1.6592  1.9028
 2599SOL     OW 7795   1.902   3.358   8.230  0.5660 -0.6796 -0.3383
 2599SOL    HW1 7796   1.852   3.402   8.162  0.6652  0.9020  0.5461
 2599SOL    HW2 7797   1.900   3.265   8.206  1.8238 -0.0593 -3.2850
 2600SOL     OW 7798   1.186   2.788  10.261  0.2421  0.1463 -0.1621
 2600SOL    HW1 7799   1.206   2.695  10.259 -1.3810 -0.2789  1.2683
 2600SOL    HW2 7800   1.229   2.821  10.339 -0.8182  0.1391  0.4527
 2601SOL     OW 7801   1.164   4.291  10.450 -0.1646  0.5683 -0.1769
 2601SOL    HW1 7802   1.126   4.319  10.534  1.3760  5.7447 -0.8661
 2601SOL    HW2 7803   1.091   4.299  10.388 -1.3711 -3.4866  0.3758
 2602SOL     OW 7804   2.497   2.131   8.534  0.6655  0.2377 -0.1080
 2602SOL    HW1 7805   2.425   2.080   8.496  1.4517 -0.1785 -1.1026
 2602SOL    HW2 7806   2.463   2.220   8.542 -0.0124  0.0103 -0.4183
 2603SOL     OW 7807   2.508   3.875   8.701 -0.0084 -1.1020 -0.0982
 2603SOL    HW1 7808   2.462   3.802   8.660  1.7454 -1.9160 -0.7061
 2603SOL    HW2 7809   2.543   3.839   8.782 -1.8745 -0.0014  1.2811
 2604SOL     OW 7810   1.499   1.766   7.940  0.5007  0.3353 -0.4501
 2604SOL    HW1 7811   1.527   1.793   8.027  0.5140  1.3377 -0.7572
 2604SOL    HW2 7812   1.535   1.832   7.881  0.9062 -0.5909 -1.2796
 2605SOL     OW 7813   3.671   4.817   8.387 -0.3906 -0.3190  0.3594
 2605SOL    HW1 7814   3.624   4.901   8.384 -0.9333 -0.4644  2.7273
 2605SOL    HW2 7815   3.713   4.817   8.473  3.1689 -0.6887 -1.2149
 2606SOL     OW 7816   1.985   2.215   9.381 -0.2088  0.0480 -0.1479
 2606SOL    HW1 7817   1.931   2.162   9.440 -0.0684  2.3227  2.1989
 2606SOL    HW2 7818   2.068   2.226   9.429 -0.3751  2.6291 -0.3456
 2607SOL     OW 7819   4.428   2.539   9.452 -0.6854 -0.1628 -0.0833
 2607SOL    HW1 7820   4.345   2.561   9.494  0.4493  0.9998  1.6748
 2607SOL    HW2 7821   4.457   2.459   9.496 -1.8899 -1.9367 -2.2889
 2608SOL     OW 7822   1.600   3.933   9.970  0.1893 -1.2026 -0.3181
 2608SOL    HW1 7823   1.519   3.968  10.006 -0.0341 -1.3670 -0.6499
 2608SOL    HW2 7824   1.668   3.993   9.999 -0.0835 -0.9391 -0.2218
 2609SOL     OW 7825   3.246   3.213   9.781 -0.3432 -0.2408 -0.6293
 2609SOL    HW1 7826   3.158   3.250   9.784 -0.2452  0.0598 -1.1721
 2609SOL    HW2 7827   3.246   3.142   9.845 -0.8770 -0.0222 -0.3883
 2610SOL     OW 7828   0.185   3.375   7.735 -0.1674  0.6511  0.0618
 2610SOL    HW1 7829   0.255   3.350   7.674 -1.3528  0.1859 -1.1725
 2610SOL    HW2 7830   0.187   3.471   7.735  0.8465  0.6307  0.4949
 2611SOL     OW 7831   1.995   3.553   9.349  0.0865  0.1806  0.3292
 2611SOL    HW1 7832   2.004   3.524   9.258 -2.6854  2.3832 -0.7840
 2611SOL    HW2 7833   2.079   3.595   9.369  0.3519  0.6948 -1.6184
 2612SOL     OW 7834   2.656   3.950   9.602 -0.0072  0.4292  0.4335
 2612SOL    HW1 7835   2.658   4.017   9.670  0.1106 -0.3883  1.2535
 2612SOL    HW2 7836   2.745   3.913   9.602  1.0650  2.5744 -2.4099
 2613SOL     OW 7837   2.594   1.083   9.978 -0.6163 -0.8806 -0.0630
 2613SOL    HW1 7838   2.527   1.146  10.003 -1.0176  0.0324 -3.0464
 2613SOL    HW2 7839   2.545   1.003   9.959 -0.4578 -1.1631  0.6557
 2614SOL     OW 7840   1.711   4.748   9.583 -0.6341 -0.5031  0.2820
 2614SOL    HW1 7841   1.709   4.654   9.605  0.2320 -0.8520 -1.0282
 2614SOL    HW2 7842   1.659   4.789   9.652  0.5671 -1.7096  2.0244
 2615SOL     OW 7843   2.521   1.925   9.186  0.6057  0.5695  0.4440
 2615SOL    HW1 7844   2.462   1.861   9.225  1.2413  0.3268  1.0124
 2615SOL    HW2 7845   2.511   1.913   9.091  1.5133 -1.1114  0.5349
 2616SOL     OW 7846   3.547   4.037   8.103  0.5047  0.1164  0.0697
 2616SOL    HW1 7847   3.611   4.054   8.171 -1.0200  1.2992  1.2861
 2616SOL    HW2 7848   3.550   4.115   8.047  0.1766  0.1716  0.1215
 2617SOL     OW 7849   2.635   2.742   8.470  0.2038 -0.5485  0.1721
 2617SOL    HW1 7850   2.727   2.761   8.452  0.1976 -0.6804 -0.0072
 2617SOL    HW2 7851   2.592   2.827   8.472  0.9351 -0.1293  3.8411
 2618SOL     OW 7852   1.541   0.801   9.545 -0.6937 -0.1901  0.4522
 2618SOL    HW1 7853   1.573   0.712   9.560 -0.1497 -0.1372 -0.3197
 2618SOL    HW2 7854   1.549   0.844   9.629  2.1484  0.0841  0.1374
 2619SOL     OW 7855   2.466   0.198   8.668  0.6150 -0.1103 -0.7044
 2619SOL    HW1 7856   2.529   0.239   8.728 -0.9955  1.4994 -0.0386
 2619SOL    HW2 7857   2.514   0.190   8.586  1.9624  0.2690  0.0022
 2620SOL     OW 7858   3.315   1.102   9.411  0.3787  0.6794 -0.1305
 2620SOL    HW1 7859   3.311   1.006   9.418  1.0996  0.7032  0.9554
 2620SOL    HW2 7860   3.228   1.127   9.380  0.0506 -0.3090 -0.0638
 2621SOL     OW 7861   3.165   0.560   9.148  0.5808  0.2971  0.0791
 2621SOL    HW1 7862   3.124   0.622   9.087 -1.8207 -2.1266 -1.0024
 2621SOL    HW2 7863   3.126   0.582   9.233  0.5021  0.8791 -0.0998
 2622SOL     OW 7864   2.667   4.659   9.399 -0.7737  0.2379  0.5331
 2622SOL    HW1 7865   2.674   4.564   9.411 -0.0378 -0.0065 -1.5046
 2622SOL    HW2 7866   2.624   4.669   9.314 -1.4021  1.7596  0.9986
 2623SOL     OW 7867   4.537   3.997   8.703  0.9108 -0.5924 -0.0419
 2623SOL    HW1 7868   4.479   4.006   8.628 -0.5541 -2.3090  0.8032
 2623SOL    HW2 7869   4.497   4.050   8.772  3.2696  2.5689 -0.8857
 2624SOL     OW 7870   3.514   2.409   8.218  0.5010 -0.1928 -0.4171
 2624SOL    HW1 7871   3.502   2.320   8.250  0.7022 -0.1271 -0.1510
 2624SOL    HW2 7872   3.492   2.464   8.294  1.2371 -0.0414 -0.3117
 2625SOL     OW 7873   3.508   2.169   8.333  0.1345 -0.3234 -0.3695
 2625SOL    HW1 7874   3.561   2.148   8.410 -1.2650 -0.0490  0.6906
 2625SOL    HW2 7875   3.483   2.084   8.297 -0.3905 -0.4678  0.3215
 2626SOL     OW 7876   3.684   0.473   8.936  0.0686  0.1512 -0.2289
 2626SOL    HW1 7877   3.639   0.407   8.989  0.3859  0.9658  1.1191
 2626SOL    HW2 7878   3.766   0.431   8.910 -0.0621 -0.2442 -0.0122
 2627SOL     OW 7879   1.762   3.717   9.141 -0.2525 -0.4576 -0.5597
 2627SOL    HW1 7880   1.728   3.731   9.229  4.6157 -0.7698  1.6925
 2627SOL    HW2 7881   1.814   3.637   9.148  0.6238 -0.2967 -3.6574
 2628SOL     OW 7882   2.240   4.451   9.880 -0.2488  0.1056 -0.2112
 2628SOL    HW1 7883   2.148   4.476   9.882  0.0283  1.3777 -1.3997
 2628SOL    HW2 7884   2.240   4.357   9.897 -1.8051  0.0171 -0.5633
 2629SOL     OW 7885   0.509   1.859   9.012  0.0989 -0.1220 -0.5009
 2629SOL    HW1 7886   0.560   1.939   9.005  0.2758 -0.1766  0.1068
 2629SOL    HW2 7887   0.556   1.806   9.076 -1.2437  0.2543  0.8717
 2630SOL     OW 7888   2.802   3.979   8.132  0.0048 -0.3919  0.1135
 2630SOL    HW1 7889   2.890   3.947   8.154  0.2002  0.8381  1.3183
 2630SOL    HW2 7890   2.743   3.909   8.159  0.5936 -1.1307 -0.4857
 2631SOL     OW 7891   4.440   1.804   5.065 -0.6669 -0.2401 -0.2921
 2631SOL    HW1 7892   4.425   1.733   5.002  0.8046 -0.6721 -0.1816
 2631SOL    HW2 7893   4.370   1.867   5.046 -2.6729 -2.1327  0.2756
 2632SOL     OW 7894   2.343   1.315   9.978 -0.4450 -0.2779  0.3192
 2632SOL    HW1 7895   2.273   1.252   9.994 -0.0007 -1.3190 -1.6255
 2632SOL    HW2 7896   2.300   1.389   9.936 -0.4194 -0.8806 -0.7959
 2633SOL     OW 7897   3.415   2.061   9.808 -0.7172  0.0597  0.2864
 2633SOL    HW1 7898   3.333   2.111   9.810 -0.3459  0.6701  0.3754
 2633SOL    HW2 7899   3.483   2.126   9.821 -0.2218 -0.4700  0.3780
 2634SOL     OW 7900   3.485   3.046   9.812 -0.3055  0.6276 -0.1673
 2634SOL    HW1 7901   3.401   3.004   9.827  0.6458 -1.7244 -0.9826
 2634SOL    HW2 7902   3.508   3.022   9.722  1.8462  0.0001  0.4926
 2635SOL     OW 7903   2.435   4.061   9.476  0.1618 -0.4799 -0.4489
 2635SOL    HW1 7904   2.412   4.121   9.547  0.3352 -0.5962 -0.2946
 2635SOL    HW2 7905   2.519   4.025   9.502 -0.1927 -1.1974 -0.2770
 2636SOL     OW 7906   4.297   4.696   8.954  0.4294  0.1708 -0.4673
 2636SOL    HW1 7907   4.340   4.767   8.907 -1.1920  1.0753 -0.6738
 2636SOL    HW2 7908   4.336   4.616   8.918 -0.0819  0.8540 -2.7241
 2637SOL     OW 7909   3.159   1.114   8.478  0.1929  0.3689  0.3911
 2637SOL    HW1 7910   3.208   1.117   8.395  1.2461  0.1574  0.9801
 2637SOL    HW2 7911   3.199   1.183   8.531  0.0243  0.0069  0.9912
 2638SOL     OW 7912   3.934   1.293   8.875  0.3777  0.6894 -0.2243
 2638SOL    HW1 7913   3.886   1.289   8.958  0.4445 -0.4001 -0.2277
 2638SOL    HW2 7914   4.016   1.249   8.893 -1.2111 -3.4032 -1.9074
 2639SOL     OW 7915   1.861   1.179   8.882  0.0111 -0.4458  0.2662
 2639SOL    HW1 7916   1.861   1.170   8.977  0.2327 -0.5091  0.2593
 2639SOL    HW2 7917   1.881   1.271   8.867  1.8828 -0.8171  0.2405
 2640SOL     OW 7918   2.275   1.778  10.132  0.1486  0.0473  0.2221
 2640SOL    HW1 7919   2.224   1.714  10.083 -5.8247  4.2493 -0.0531
 2640SOL    HW2 7920   2.268   1.749  10.223 -0.2321 -0.9599 -0.1066
 2641SOL     OW 7921   1.565   3.655   8.928  0.2136 -0.3454  0.7189
 2641SOL    HW1 7922   1.623   3.672   9.002 -0.2309 -1.6663  1.4148
 2641SOL    HW2 7923   1.594   3.714   8.860 -1.1365  3.0164  2.8128
 2642SOL     OW 7924   4.756   1.986   8.648 -0.0773 -0.4417  0.0826
 2642SOL    HW1 7925   4.742   1.958   8.739 -1.6446  2.3016  0.8156
 2642SOL    HW2 7926   4.710   1.921   8.595  1.2688 -2.3638  1.1599
 2643SOL     OW 7927   4.024   4.743   8.596 -0.1337  0.1376  0.3261
 2643SOL    HW1 7928   4.069   4.813   8.548 -0.6552  0.8593  0.8635
 2643SOL    HW2 7929   4.018   4.776   8.686 -0.3337 -0.6318  0.5994
 2644SOL     OW 7930   0.786   1.861   9.779 -0.1618 -0.8245 -0.4853
 2644SOL    HW1 7931   0.870   1.831   9.815 -0.9650 -0.9962  1.3913
 2644SOL    HW2 7932   0.751   1.786   9.731  0.0953 -1.2465 -0.0174
 2645SOL     OW 7933   1.711   4.136   8.930 -0.5122  0.7556  0.0440
 2645SOL    HW1 7934   1.763   4.057   8.945 -0.3323  0.3338 -2.4281
 2645SOL    HW2 7935   1.634   4.105   8.882 -0.7214  1.9988 -0.4560
 2646SOL     OW 7936   2.779   0.552   9.473  0.0084 -0.0052 -0.1392
 2646SOL    HW1 7937   2.730   0.558   9.391 -1.5629  0.3303  0.8001
 2646SOL    HW2 7938   2.742   0.476   9.518  0.4664  0.1485  0.5133
 2647SOL     OW 7939   3.050   2.710   7.205 -0.0615  0.2825 -1.3627
 2647SOL    HW1 7940   2.956   2.718   7.217  0.0394  0.6048 -0.6950
 2647SOL    HW2 7941   3.061   2.669   7.119 -0.8033  0.2891 -1.4637
 2648SOL     OW 7942   2.171   2.835   8.516 -0.1629  0.0557 -0.3894
 2648SOL    HW1 7943   2.187   2.755   8.566  2.3135 -0.2290 -1.4652
 2648SOL    HW2 7944   2.235   2.898   8.552 -1.1419  1.1402 -0.4789
 2649SOL     OW 7945   0.344   4.258   7.972 -0.1119  0.2735 -0.1899
 2649SOL    HW1 7946   0.345   4.341   8.019 -2.1847  1.2690 -1.7341
 2649SOL    HW2 7947   0.334   4.191   8.039  0.3372  1.3658  0.9921
 2650SOL     OW 7948   3.222   4.365   8.774 -0.3740  0.1823 -0.3253
 2650SOL    HW1 7949   3.247   4.340   8.685 -1.5210 -0.2042 -0.5568
 2650SOL    HW2 7950   3.255   4.455   8.783  2.8947 -0.9591  0.1599
 2651SOL     OW 7951   2.620   2.690   9.336 -0.4700 -0.1051 -0.1711
 2651SOL    HW1 7952   2.617   2.645   9.420 -0.3207  0.3570  0.0864
 2651SOL    HW2 7953   2.638   2.621   9.272 -1.2492 -0.5646  0.0918
 2652SOL     OW 7954   4.931   2.192   8.856 -0.2875  0.1097 -0.0823
 2652SOL    HW1 7955   4.890   2.163   8.937  0.0877  1.3599  0.5684
 2652SOL    HW2 7956   4.888   2.140   8.788 -1.9891  0.3963  0.7128
 2653SOL     OW 7957   1.278   1.924   8.323  0.5638 -0.4251  0.2064
 2653SOL    HW1 7958   1.290   2.013   8.358  0.7133 -0.5710  0.5292
 2653SOL    HW2 7959   1.366   1.894   8.302  0.3284  0.4884 -2.4046
 2654SOL     OW 7960   2.349   0.998   8.551  0.4975  0.3611 -0.3963
 2654SOL    HW1 7961   2.396   1.035   8.476 -0.7286  1.6919 -0.5396
 2654SOL    HW2 7962   2.272   1.053   8.561  0.2640 -0.2325  1.4154
 2655SOL     OW 7963   1.026   0.665   9.450  0.2690 -0.0003  0.0081
 2655SOL    HW1 7964   1.052   0.578   9.481 -0.1353  0.1501  0.7924
 2655SOL    HW2 7965   0.932   0.657   9.434  0.0130  0.5834  1.1286
 2656SOL     OW 7966   4.894   4.528   9.277  0.6341  0.7004 -0.4125
 2656SOL    HW1 7967   4.864   4.573   9.357 -1.8548 -0.2664 -0.7184
 2656SOL    HW2 7968   4.907   4.599   9.214  1.6030  1.3810  0.5120
 2657SOL     OW 7969   0.102   1.276   9.478  0.9097 -0.0050  0.0683
 2657SOL    HW1 7970   0.122   1.337   9.549  1.2211  0.0317 -0.0467
 2657SOL    HW2 7971   0.020   1.234   9.504  0.6468  0.5233  0.1093
 2658SOL     OW 7972   1.757   4.708   9.943 -0.5423 -0.6215  0.6032
 2658SOL    HW1 7973   1.720   4.778   9.996 -0.0839  0.0090  0.0951
 2658SOL    HW2 7974   1.681   4.657   9.914 -0.8186 -0.7804  1.5849
 2659SOL     OW 7975   2.569   4.813   8.808 -0.0057  0.1128  0.1142
 2659SOL    HW1 7976   2.635   4.869   8.767 -1.6111  1.0267 -1.3696
 2659SOL    HW2 7977   2.570   4.733   8.756  0.8568 -0.4385  0.9520
 2660SOL     OW 7978   3.737   2.565   9.048 -0.3715 -0.1581  0.0106
 2660SOL    HW1 7979   3.804   2.516   9.000 -2.0947 -1.0841 -1.5659
 2660SOL    HW2 7980   3.708   2.505   9.116 -0.8055 -0.4233 -0.4055
 2661SOL     OW 7981   3.911   4.659   5.997 -0.1370  0.0545 -0.4661
 2661SOL    HW1 7982   3.900   4.744   6.040  0.7593 -0.2549  0.4044
 2661SOL    HW2 7983   3.948   4.681   5.911 -0.0098  0.5516 -0.2900
 2662SOL     OW 7984   3.565   4.863   8.779  0.6451  0.0932  0.2201
 2662SOL    HW1 7985   3.482   4.897   8.747  1.1354  2.7428  1.4659
 2662SOL    HW2 7986   3.560   4.871   8.874  0.8356 -3.5944  0.6716
 2663SOL     OW 7987   0.825   3.555   9.922  0.1570 -0.5219  0.6964
 2663SOL    HW1 7988   0.813   3.563  10.016 -0.4917  0.9427  0.5164
 2663SOL    HW2 7989   0.819   3.461   9.905 -1.3256 -0.6864  1.9104
 2664SOL     OW 7990   2.826   3.502   8.329 -0.6616 -0.0628 -0.0583
 2664SOL    HW1 7991   2.818   3.408   8.349 -1.1708 -0.2661 -1.1472
 2664SOL    HW2 7992   2.920   3.516   8.317 -0.4729 -0.2048  1.0962
 2665SOL     OW 7993   3.197   3.622   7.805  0.3385  0.5283 -0.4732
 2665SOL    HW1 7994   3.253   3.693   7.834 -1.0090  0.9420  1.2562
 2665SOL    HW2 7995   3.257   3.554   7.775  1.9245  0.0825  3.2590
 2666SOL     OW 7996   1.180   1.110   5.529  0.9729  0.4085  0.5013
 2666SOL    HW1 7997   1.260   1.100   5.477  1.4757 -0.7218  1.4379
 2666SOL    HW2 7998   1.201   1.069   5.613 -0.7696 -0.4379  0.5728
 2667SOL     OW 7999   2.161   3.227   5.505 -0.3444  0.3596  0.2241
 2667SOL    HW1 8000   2.176   3.311   5.549 -0.2133  1.4286 -1.7735
 2667SOL    HW2 8001   2.249   3.194   5.486 -0.3922 -0.3222  1.1132
 2668SOL     OW 8002   3.601   0.153   5.033 -0.0756 -0.0133 -0.1003
 2668SOL    HW1 8003   3.601   0.091   5.106  0.2842  0.0711 -0.0230
 2668SOL    HW2 8004   3.572   0.236   5.072  1.4098  0.3701  0.2646
 2669SOL     OW 8005   2.838   4.194   6.054 -0.2686  0.1026  0.3024
 2669SOL    HW1 8006   2.903   4.141   6.007  2.1769  1.5368  1.8119
 2669SOL    HW2 8007   2.817   4.143   6.132 -0.1502  0.0872  0.3240
 2670SOL     OW 8008   4.268   2.227   6.157  0.0273  0.0157 -0.6159
 2670SOL    HW1 8009   4.300   2.225   6.067 -2.4331 -2.3494 -1.5500
 2670SOL    HW2 8010   4.282   2.139   6.190  1.5394  1.0193  1.6548
 2671SOL     OW 8011   2.815   0.950   6.547  0.5644 -1.0089  0.4248
 2671SOL    HW1 8012   2.811   1.044   6.528 -0.7476 -1.5301 -2.2898
 2671SOL    HW2 8013   2.725   0.926   6.569  1.2026 -1.3738  2.9865
 2672SOL     OW 8014   0.118   1.172   7.148  0.4303  0.1302  0.3274
 2672SOL    HW1 8015   0.048   1.167   7.213  1.9409 -0.3534  1.9959
 2672SOL    HW2 8016   0.098   1.102   7.085 -0.2153 -0.4495  1.1637
 2673SOL     OW 8017   2.961   3.490   7.039  0.4155 -0.0287 -0.9066
 2673SOL    HW1 8018   2.887   3.486   6.978  1.6296  1.2529 -2.5595
 2673SOL    HW2 8019   2.951   3.574   7.084  0.5126 -0.1635 -0.6270
 2674SOL     OW 8020   1.608   1.065   6.833  0.3984  1.1253 -0.1618
 2674SOL    HW1 8021   1.632   0.977   6.861 -0.4496  1.5013  1.9107
 2674SOL    HW2 8022   1.679   1.092   6.774  0.9497 -0.7045 -0.3909
 2675SOL     OW 8023   3.560   4.864   6.884  0.0829  0.7173 -0.3625
 2675SOL    HW1 8024   3.473   4.889   6.915 -0.3456 -0.2289 -0.7478
 2675SOL    HW2 8025   3.620   4.903   6.947 -0.5909  1.7871 -0.3586
 2676SOL     OW 8026   2.082   2.387   5.402  0.3183  0.3805 -0.7474
 2676SOL    HW1 8027   2.086   2.302   5.359  1.5109  0.4706 -0.8375
 2676SOL    HW2 8028   2.040   2.444   5.337 -1.6363 -0.3615 -0.2362
 2677SOL     OW 8029   1.867   4.287   5.288 -0.4134  0.3330 -0.1159
 2677SOL    HW1 8030   1.936   4.351   5.271  1.9210 -2.2109 -0.9516
 2677SOL    HW2 8031   1.895   4.242   5.368 -1.7882  0.0380  0.2279
 2678SOL     OW 8032   2.983   4.536   7.835  0.5119  0.3393 -0.7408
 2678SOL    HW1 8033   3.025   4.544   7.750  0.7957 -1.2456 -0.7823
 2678SOL    HW2 8034   2.983   4.625   7.871  3.5765  0.4957 -0.8901
 2679SOL     OW 8035   4.689   4.147   6.632  0.1018  0.3311 -0.1955
 2679SOL    HW1 8036   4.709   4.101   6.551  1.5591  2.3527 -1.0535
 2679SOL    HW2 8037   4.710   4.084   6.701  0.0280 -0.9895 -1.3405
 2680SOL     OW 8038   3.044   3.293   5.078  0.2814  0.2142 -0.6442
 2680SOL    HW1 8039   3.126   3.245   5.068  0.7868  1.0528 -0.6330
 2680SOL    HW2 8040   3.065   3.383   5.054 -0.6770  0.4146 -0.8035
 2681SOL     OW 8041   4.431   0.144   5.156  0.1055  0.5979 -0.0569
 2681SOL    HW1 8042   4.404   0.071   5.212 -0.3298  2.5797  2.4817
 2681SOL    HW2 8043   4.515   0.172   5.191  0.1077  1.5434 -0.7692
 2682SOL     OW 8044   4.839   3.244   5.344  0.1339 -0.0309  0.2706
 2682SOL    HW1 8045   4.839   3.224   5.250 -1.4239 -1.8930  0.6058
 2682SOL    HW2 8046   4.763   3.197   5.378  0.9209  0.2536  2.5605
 2683SOL     OW 8047   2.259   4.259   5.806 -0.3594 -0.4656 -0.4294
 2683SOL    HW1 8048   2.321   4.186   5.801  0.8929  0.5679 -0.8684
 2683SOL    HW2 8049   2.231   4.273   5.715 -0.8020 -0.5839 -0.3087
 2684SOL     OW 8050   2.780   1.043   6.063 -0.1265  0.0527  0.2470
 2684SOL    HW1 8051   2.868   1.005   6.071  0.0620  0.6230  1.0128
 2684SOL    HW2 8052   2.788   1.130   6.102 -1.4159 -0.5099  1.9122
 2685SOL     OW 8053   0.423   4.932   7.990 -0.2136  0.1586 -0.5735
 2685SOL    HW1 8054   0.375   5.002   7.945 -0.4647 -0.2510 -0.9534
 2685SOL    HW2 8055   0.515   4.953   7.976 -0.2353  1.4220  0.8806
 2686SOL     OW 8056   1.223   3.630   5.779 -0.2731 -0.5750  0.7296
 2686SOL    HW1 8057   1.153   3.606   5.841 -1.0138 -2.4036 -0.7289
 2686SOL    HW2 8058   1.177   3.670   5.706  0.0525 -2.5755 -0.6351
 2687SOL     OW 8059   4.282   0.872   6.237 -0.2324 -0.2124  0.1989
 2687SOL    HW1 8060   4.245   0.849   6.152 -3.5748 -0.0427  1.4317
 2687SOL    HW2 8061   4.206   0.875   6.295  2.0352 -1.8333  3.5667
 2688SOL     OW 8062   3.960   1.041   6.024  0.3830  0.2747  0.4686
 2688SOL    HW1 8063   3.931   1.101   6.093  0.6443  0.5126  0.3763
 2688SOL    HW2 8064   3.881   1.020   5.975 -0.1929 -1.5276  2.0652
 2689SOL     OW 8065   1.597   3.670   5.570  0.0129 -0.4604 -0.2499
 2689SOL    HW1 8066   1.672   3.652   5.627  0.1121 -1.6906 -0.7490
 2689SOL    HW2 8067   1.538   3.596   5.584 -0.2637 -0.4371 -1.2517
 2690SOL     OW 8068   2.044   3.640   5.609 -0.0118 -0.4370 -0.3340
 2690SOL    HW1 8069   2.079   3.728   5.623 -0.3667  0.1573 -2.6494
 2690SOL    HW2 8070   1.972   3.633   5.672  0.5474  0.5972  0.4590
 2691SOL     OW 8071   2.860   3.030   6.511 -0.5032 -0.3048 -0.1552
 2691SOL    HW1 8072   2.948   3.047   6.477 -0.8362 -0.6545 -1.2245
 2691SOL    HW2 8073   2.875   3.001   6.601  0.4538 -0.0260 -0.2117
 2692SOL     OW 8074   3.976   4.887   6.137 -0.1622  0.1765 -0.6960
 2692SOL    HW1 8075   3.894   4.895   6.187 -0.2340  2.2678 -1.0635
 2692SOL    HW2 8076   4.041   4.933   6.189  0.1966  0.7218 -1.6053
 2693SOL     OW 8077   0.436   1.656   4.867 -0.7907  0.7058 -0.3856
 2693SOL    HW1 8078   0.489   1.736   4.861 -0.1042  0.1956 -1.2237
 2693SOL    HW2 8079   0.477   1.595   4.807 -0.7242 -0.6364  0.9717
 2694SOL     OW 8080   1.139   4.782   8.452  0.5089  0.1121  0.4308
 2694SOL    HW1 8081   1.126   4.697   8.495 -0.6062 -0.5283 -1.0928
 2694SOL    HW2 8082   1.152   4.761   8.360  2.5074  1.4763  0.3316
 2695SOL     OW 8083   3.881   0.779   4.981  0.0139 -0.1623  0.3419
 2695SOL    HW1 8084   3.883   0.709   5.046 -1.0228 -1.2173 -0.7068
 2695SOL    HW2 8085   3.897   0.859   5.031  0.9038 -1.1022  1.6193
 2696SOL     OW 8086   3.125   2.903   5.691 -0.0357 -0.1340 -0.1980
 2696SOL    HW1 8087   3.141   2.957   5.614 -0.1183 -0.7275 -0.6456
 2696SOL    HW2 8088   3.093   2.820   5.656 -1.4616  0.0593  0.5421
 2697SOL     OW 8089   1.514   3.342   7.819  0.5205  0.1379 -0.3554
 2697SOL    HW1 8090   1.537   3.393   7.742 -2.3062 -0.2910 -1.5938
 2697SOL    HW2 8091   1.451   3.397   7.867  1.1289 -0.2071  0.9014
 2698SOL     OW 8092   4.467   3.988   6.629  0.7192 -0.2020  0.2027
 2698SOL    HW1 8093   4.464   3.952   6.717  2.1639 -0.4076  0.1947
 2698SOL    HW2 8094   4.434   3.917   6.573 -3.1568  0.9181  0.7513
 2699SOL     OW 8095   2.272   4.566   6.232  0.0418  0.3383  0.0425
 2699SOL    HW1 8096   2.202   4.571   6.168  0.9391  0.0568 -1.0002
 2699SOL    HW2 8097   2.302   4.656   6.243  0.9917  0.2073 -1.2384
 2700SOL     OW 8098   3.343   3.937   5.283 -0.1654 -0.1070 -0.8690
 2700SOL    HW1 8099   3.315   3.849   5.256  0.2085 -0.0606 -1.4252
 2700SOL    HW2 8100   3.333   3.990   5.204  0.5103  0.1361 -0.7917
 2701SOL     OW 8101   1.125   2.240   6.700  0.1642 -0.4233 -0.0172
 2701SOL    HW1 8102   1.035   2.230   6.731 -0.2924 -1.0115 -1.4775
 2701SOL    HW2 8103   1.124   2.321   6.649  0.2867 -0.7706 -0.5828
 2702SOL     OW 8104   0.797   3.656   5.032  0.0795  0.3107 -0.4816
 2702SOL    HW1 8105   0.794   3.592   4.961  1.1776  1.7637 -1.8926
 2702SOL    HW2 8106   0.706   3.669   5.057 -0.2570 -0.7839 -1.0980
 2703SOL     OW 8107   2.820   3.383   6.752  0.4151  0.0464  0.3816
 2703SOL    HW1 8108   2.783   3.341   6.674  0.7481 -1.4820  1.0118
 2703SOL    HW2 8109   2.850   3.469   6.721 -0.9427  0.1375 -0.7912
 2704SOL     OW 8110   2.217   4.499   7.940  0.4691 -0.4213 -0.3979
 2704SOL    HW1 8111   2.222   4.514   8.034  0.4681  1.1327 -0.6186
 2704SOL    HW2 8112   2.293   4.444   7.921 -0.3224 -1.9616  0.6967
 2705SOL     OW 8113   0.760   2.278   5.666  0.5705 -0.1627  0.0934
 2705SOL    HW1 8114   0.690   2.281   5.600  0.4757  2.3608  0.2241
 2705SOL    HW2 8115   0.714   2.274   5.750  0.6447 -0.5703  0.1183
 2706SOL     OW 8116   4.058   4.521   6.843 -0.3113  0.0241 -0.0628
 2706SOL    HW1 8117   4.043   4.431   6.813 -0.9230 -0.0806  0.5206
 2706SOL    HW2 8118   4.123   4.512   6.912 -0.4314  0.0134  0.0505
 2707SOL     OW 8119   4.643   3.646   7.328 -0.0112 -0.4808 -0.4818
 2707SOL    HW1 8120   4.654   3.551   7.330 -1.5803 -0.7154 -1.1606
 2707SOL    HW2 8121   4.731   3.681   7.344  0.1210 -1.9832  2.8383
 2708SOL     OW 8122   2.171   0.019   6.228  0.2811 -0.1625  0.0016
 2708SOL    HW1 8123   2.266   0.015   6.241  0.2923  0.2536  0.0432
 2708SOL    HW2 8124   2.147   0.110   6.247  0.2630  0.4625 -2.6273
 2709SOL     OW 8125   1.530   4.931   5.821 -0.3519  0.2465 -1.0957
 2709SOL    HW1 8126   1.589   4.980   5.879 -0.2634  0.3332 -1.2581
 2709SOL    HW2 8127   1.469   4.888   5.880  0.2442 -0.3324 -0.8941
 2710SOL     OW 8128   3.247   2.853   7.333 -0.3876  0.3070 -0.2614
 2710SOL    HW1 8129   3.328   2.863   7.284 -0.3265  0.7541 -0.0673
 2710SOL    HW2 8130   3.182   2.830   7.266 -0.0668 -0.2483 -0.3909
 2711SOL     OW 8131   0.054   3.480   5.904 -0.2574  0.0446 -0.1320
 2711SOL    HW1 8132   0.040   3.569   5.870 -0.7034 -0.8297 -2.4741
 2711SOL    HW2 8133  -0.028   3.434   5.885 -0.1406 -0.8269  1.2951
 2712SOL     OW 8134   0.030   2.087   5.962 -0.5432 -0.5059  0.1463
 2712SOL    HW1 8135   0.060   2.000   5.989  1.7376  0.0130 -0.4870
 2712SOL    HW2 8136   0.109   2.142   5.966 -1.0319  0.6590 -3.0604
 2713SOL     OW 8137   4.582   0.171   5.953  0.6382  0.1931  0.2186
 2713SOL    HW1 8138   4.527   0.215   6.018 -0.0943 -3.4092  2.2916
 2713SOL    HW2 8139   4.520   0.135   5.889  0.8842 -0.7402  0.4922
 2714SOL     OW 8140   1.395   2.964   6.036 -0.3546  0.6154 -0.1004
 2714SOL    HW1 8141   1.414   2.961   5.942  1.6234  2.8715  0.1430
 2714SOL    HW2 8142   1.412   2.875   6.067  1.9030  0.5353 -1.4123
 2715SOL     OW 8143   4.141   3.042   8.300  0.1790  0.1413  0.7127
 2715SOL    HW1 8144   4.216   3.081   8.344 -0.3241  0.9905  0.8456
 2715SOL    HW2 8145   4.173   3.016   8.214  0.7541 -0.0051  0.9703
 2716SOL     OW 8146   3.424   2.269   6.820  0.0663  0.2145  0.1770
 2716SOL    HW1 8147   3.478   2.231   6.890  2.5708  1.4345 -0.9463
 2716SOL    HW2 8148   3.399   2.355   6.854 -0.5234 -0.0230  0.3645
 2717SOL     OW 8149   0.015   0.740   5.438  0.0323 -0.4131  0.0127
 2717SOL    HW1 8150  -0.060   0.779   5.395 -0.0947 -0.6298  0.0344
 2717SOL    HW2 8151   0.062   0.694   5.369  1.2228  1.3241 -0.3873
 2718SOL     OW 8152   2.363   0.555   6.985 -0.0384  0.2073  0.4272
 2718SOL    HW1 8153   2.425   0.604   7.038  1.4743  1.6406 -2.4462
 2718SOL    HW2 8154   2.305   0.621   6.948 -0.0373 -0.4916 -0.9151
 2719SOL     OW 8155   1.961   4.034   7.464 -0.1432 -0.4052  0.3031
 2719SOL    HW1 8156   1.973   3.948   7.505  0.1453 -1.4662 -1.8885
 2719SOL    HW2 8157   1.867   4.040   7.448 -0.5080  0.7399  2.5116
 2720SOL     OW 8158   3.113   0.921   5.811  0.1955 -0.1760  0.8088
 2720SOL    HW1 8159   3.188   0.872   5.777 -1.0581 -1.1305 -0.7202
 2720SOL    HW2 8160   3.116   1.005   5.765 -1.3590 -1.3721 -1.7507
 2721SOL     OW 8161   3.623   3.157   5.500 -0.4703  0.2054  0.5361
 2721SOL    HW1 8162   3.574   3.106   5.565 -1.2421  1.1483  0.7333
 2721SOL    HW2 8163   3.556   3.211   5.457  0.2783  0.8865  0.1891
 2722SOL     OW 8164   1.612   4.336   6.312 -0.8224 -0.0960 -0.3531
 2722SOL    HW1 8165   1.609   4.242   6.294 -0.3669 -0.4495  1.2882
 2722SOL    HW2 8166   1.522   4.360   6.333 -0.8647 -0.2537 -0.3569
 2723SOL     OW 8167   0.946   4.733   6.303  0.2009 -0.1445  0.4270
 2723SOL    HW1 8168   1.023   4.686   6.270  0.0735  0.0551 -0.1761
 2723SOL    HW2 8169   0.979   4.787   6.375  1.7199  3.6314 -2.7396
 2724SOL     OW 8170   4.700   4.992   5.279 -0.0227 -0.6043  0.2919
 2724SOL    HW1 8171   4.655   4.915   5.244 -2.2618  1.2526 -1.2574
 2724SOL    HW2 8172   4.793   4.974   5.265 -0.5585 -2.3070 -1.6307
 2725SOL     OW 8173   1.856   2.732   6.606  0.1146  0.0656  0.1584
 2725SOL    HW1 8174   1.905   2.725   6.688  0.1589  0.1016  0.1351
 2725SOL    HW2 8175   1.847   2.826   6.591  0.7662  0.0709 -0.2644
 2726SOL     OW 8176   4.700   4.032   5.905 -0.3763 -0.0381 -0.0742
 2726SOL    HW1 8177   4.728   4.110   5.857  0.6636 -0.7175 -0.5898
 2726SOL    HW2 8178   4.743   4.040   5.990 -0.1239 -0.1237 -0.1909
 2727SOL     OW 8179   4.464   1.050   6.239  0.5072 -0.5199  0.0429
 2727SOL    HW1 8180   4.492   1.070   6.329 -0.8963 -0.0884  0.3977
 2727SOL    HW2 8181   4.385   0.998   6.250  0.1835 -0.2510 -0.9524
 2728SOL     OW 8182   2.954   4.025   6.857 -0.4485 -0.1975  0.1023
 2728SOL    HW1 8183   2.976   4.044   6.766 -1.0460 -0.3473 -0.0789
 2728SOL    HW2 8184   2.862   4.050   6.865 -0.2689  0.2612  0.7953
 2729SOL     OW 8185   0.237   1.876   4.888 -0.3404 -0.5113  0.1417
 2729SOL    HW1 8186   0.288   1.801   4.857  0.1301 -0.4032  0.6471
 2729SOL    HW2 8187   0.302   1.935   4.925 -0.8664 -0.5321  1.1136
 2730SOL     OW 8188   4.170   0.652   5.415  0.6570 -0.3150 -0.3521
 2730SOL    HW1 8189   4.261   0.629   5.438  1.2233  0.3020 -1.8323
 2730SOL    HW2 8190   4.149   0.595   5.341 -0.1866 -0.4756  0.0023
 2731SOL     OW 8191   4.550   3.667   5.394  0.0614  0.3853  0.4868
 2731SOL    HW1 8192   4.633   3.664   5.346 -0.3648 -0.8360 -0.2440
 2731SOL    HW2 8193   4.535   3.576   5.419 -1.7645  0.3219 -0.6839
 2732SOL     OW 8194   0.338   1.286   6.263  0.6492  1.1339  0.1261
 2732SOL    HW1 8195   0.408   1.221   6.272 -1.5968 -1.1331  4.2285
 2732SOL    HW2 8196   0.348   1.342   6.340 -1.0201  1.7951 -0.1095
 2733SOL     OW 8197   4.879   0.146   8.044  0.2616  0.3705  0.2712
 2733SOL    HW1 8198   4.813   0.093   7.997 -0.5171  0.7099  0.9646
 2733SOL    HW2 8199   4.841   0.233   8.047  1.5059  0.9764 -0.7902
 2734SOL     OW 8200   0.415   2.345   4.921 -0.2327 -0.1170 -0.4846
 2734SOL    HW1 8201   0.452   2.402   4.989  1.1935 -0.1898 -1.1629
 2734SOL    HW2 8202   0.491   2.301   4.883 -1.2829 -2.4082 -0.0709
 2735SOL     OW 8203   3.236   2.531   5.576 -0.2051  0.0108  0.3784
 2735SOL    HW1 8204   3.225   2.543   5.482 -2.0019  2.0951  0.7529
 2735SOL    HW2 8205   3.157   2.569   5.614  1.8302  2.2058  2.8511
 2736SOL     OW 8206   3.500   4.017   4.914 -0.0857 -0.1565 -1.3628
 2736SOL    HW1 8207   3.425   4.023   4.972  0.9807 -0.8054  0.1651
 2736SOL    HW2 8208   3.494   4.094   4.858 -0.7001  0.9819  0.1956
 2737SOL     OW 8209   1.463   4.508   5.079 -0.4486 -0.8182  0.4220
 2737SOL    HW1 8210   1.502   4.461   5.153  1.5812 -3.5899 -2.1913
 2737SOL    HW2 8211   1.509   4.592   5.077  1.6218 -1.8755  0.6519
 2738SOL     OW 8212   0.682   1.221   8.404  0.6430 -0.5507  0.3658
 2738SOL    HW1 8213   0.669   1.145   8.461  1.1680  0.9064  2.5598
 2738SOL    HW2 8214   0.620   1.286   8.436  2.2581  0.9729  0.5902
 2739SOL     OW 8215   2.518   0.150   8.385  0.4296  0.2139  0.2806
 2739SOL    HW1 8216   2.437   0.145   8.334  0.6968 -1.5415 -0.0393
 2739SOL    HW2 8217   2.565   0.069   8.364  2.0449  0.9578  0.8498
 2740SOL     OW 8218   3.512   2.861   7.238 -0.2425 -0.1429  0.1780
 2740SOL    HW1 8219   3.583   2.917   7.207 -1.7651  0.9333 -1.5473
 2740SOL    HW2 8220   3.550   2.813   7.312  1.7688  1.5752  0.3513
 2741SOL     OW 8221   2.485   0.097   5.365 -0.1247 -0.3665 -0.0289
 2741SOL    HW1 8222   2.475   0.003   5.382  0.3284  0.0981  3.6339
 2741SOL    HW2 8223   2.441   0.139   5.438 -0.2113  2.3299 -1.5071
 2742SOL     OW 8224   3.278   3.993   6.639 -0.0751  0.0148 -0.1987
 2742SOL    HW1 8225   3.358   4.030   6.601 -0.6729  3.3487  1.3698
 2742SOL    HW2 8226   3.304   3.963   6.726 -0.2676  0.0523 -0.1266
 2743SOL     OW 8227   0.533   3.689   5.068 -0.6636  0.4433  0.0146
 2743SOL    HW1 8228   0.479   3.635   5.126 -1.4451  0.2478 -0.8823
 2743SOL    HW2 8229   0.473   3.756   5.035 -0.1785  0.6658 -0.4238
 2744SOL     OW 8230   2.954   0.119   5.430  0.4758 -0.2311 -0.8582
 2744SOL    HW1 8231   2.921   0.030   5.431  0.5194 -0.2653 -1.8948
 2744SOL    HW2 8232   2.968   0.141   5.523 -1.0273 -0.7360 -0.4966
 2745SOL     OW 8233   0.904   0.756   5.094 -0.1293  0.1875 -0.0545
 2745SOL    HW1 8234   0.809   0.752   5.081 -0.3324  1.5170  0.8507
 2745SOL    HW2 8235   0.941   0.715   5.016 -1.4277  0.7686 -0.9971
 2746SOL     OW 8236   0.960   1.485   8.406  0.2055  0.1764  0.1686
 2746SOL    HW1 8237   0.943   1.397   8.372  1.3471  0.3565 -0.9328
 2746SOL    HW2 8238   0.950   1.543   8.330  1.0037  0.8140  0.5345
 2747SOL     OW 8239   1.516   0.263   5.500  0.1728 -0.2394 -0.2381
 2747SOL    HW1 8240   1.448   0.196   5.499 -1.1254  1.0248 -2.0570
 2747SOL    HW2 8241   1.539   0.272   5.593 -0.5383 -2.2303  0.1833
 2748SOL     OW 8242   2.729   4.719   4.948 -0.8158  0.4320 -0.8665
 2748SOL    HW1 8243   2.707   4.728   5.041 -2.0111 -0.4859 -1.0353
 2748SOL    HW2 8244   2.648   4.688   4.907  0.3076 -1.4107 -1.8245
 2749SOL     OW 8245   3.296   1.801   5.969  0.4023  0.1830  0.7023
 2749SOL    HW1 8246   3.299   1.724   6.026  0.3534 -0.7558 -0.5368
 2749SOL    HW2 8247   3.211   1.842   5.989 -0.8602 -1.6572 -0.5806
 2750SOL     OW 8248   0.714   1.961   6.667 -0.0795 -0.2892 -0.5898
 2750SOL    HW1 8249   0.757   1.926   6.746 -3.1525 -0.9213  0.9529
 2750SOL    HW2 8250   0.783   1.962   6.601  1.8562 -2.8689  1.1871
 2751SOL     OW 8251   0.559   2.559   5.043  0.5612 -0.1861 -0.3420
 2751SOL    HW1 8252   0.569   2.571   5.137 -0.3967 -0.7915 -0.1430
 2751SOL    HW2 8253   0.553   2.648   5.008 -1.3918  0.0485  0.4624
 2752SOL     OW 8254   1.161   0.802   7.056 -0.9898 -0.8396 -0.4284
 2752SOL    HW1 8255   1.112   0.860   7.114 -2.3508 -1.5991 -0.7909
 2752SOL    HW2 8256   1.161   0.717   7.099  1.2176 -0.5800  0.2231
 2753SOL     OW 8257   1.916   4.565   6.969  0.0903  0.3419  0.0936
 2753SOL    HW1 8258   1.911   4.527   7.057  1.6736 -1.5560 -0.5690
 2753SOL    HW2 8259   1.827   4.557   6.935 -0.1093 -0.7506  0.8128
 2754SOL     OW 8260   4.222   2.827   7.108  0.5994  0.5329  0.6532
 2754SOL    HW1 8261   4.296   2.843   7.049  0.4050  1.3318  0.6061
 2754SOL    HW2 8262   4.246   2.749   7.157  0.9371  0.0848 -0.2121
 2755SOL     OW 8263   2.638   2.152   5.762 -0.0073  0.4399 -0.1257
 2755SOL    HW1 8264   2.718   2.107   5.735  0.1208  0.9022 -0.5310
 2755SOL    HW2 8265   2.580   2.146   5.686  0.4014  1.8531 -0.5821
 2756SOL     OW 8266   2.307   4.683   8.353  0.7086 -0.3949  0.4221
 2756SOL    HW1 8267   2.230   4.674   8.409  0.4147  0.7380  0.2306
 2756SOL    HW2 8268   2.281   4.747   8.287  1.3362 -1.0806 -0.5143
 2757SOL     OW 8269   1.542   0.514   6.526 -0.0980  0.6777  0.2451
 2757SOL    HW1 8270   1.626   0.474   6.549 -0.9389 -0.0821  2.1913
 2757SOL    HW2 8271   1.531   0.585   6.589 -1.2910  0.2314  0.5671
 2758SOL     OW 8272   3.852   2.500   6.236 -0.4541  0.1557  0.0384
 2758SOL    HW1 8273   3.889   2.416   6.210  0.3201  0.0522  1.3482
 2758SOL    HW2 8274   3.915   2.535   6.299 -0.2648  2.1790 -1.1875
 2759SOL     OW 8275   1.446   3.464   5.647 -0.5257  0.9029 -0.0409
 2759SOL    HW1 8276   1.431   3.390   5.706 -0.5697  1.3196  0.4773
 2759SOL    HW2 8277   1.374   3.525   5.667 -0.5444  1.0471 -0.5292
 2760SOL     OW 8278   3.431   0.976   5.264  0.1319 -1.1091 -0.3188
 2760SOL    HW1 8279   3.477   0.959   5.346  1.7486 -0.2960 -1.0125
 2760SOL    HW2 8280   3.443   1.070   5.248 -1.9904 -0.8104 -0.4307
 2761SOL     OW 8281   4.767   4.278   5.646  0.0802  0.0650 -0.4718
 2761SOL    HW1 8282   4.802   4.362   5.617  1.1690 -0.5515 -0.9806
 2761SOL    HW2 8283   4.684   4.269   5.598 -0.0646  0.8597 -0.3813
 2762SOL     OW 8284   3.514   2.655   5.247  0.1474  0.4854  0.0690
 2762SOL    HW1 8285   3.608   2.658   5.266  0.4510  2.4606 -1.4388
 2762SOL    HW2 8286   3.504   2.584   5.185  0.4691 -0.3300  0.9201
 2763SOL     OW 8287   0.152   3.324   6.377  0.3122  0.0525  0.7883
 2763SOL    HW1 8288   0.190   3.379   6.446  0.4901 -0.0235  0.7519
 2763SOL    HW2 8289   0.140   3.384   6.303 -2.8231  0.9131  1.8607
 2764SOL     OW 8290   3.857   0.571   5.136  0.2220 -0.1276 -0.5474
 2764SOL    HW1 8291   3.795   0.514   5.090  0.7509  0.0594 -1.5080
 2764SOL    HW2 8292   3.939   0.521   5.137  0.0055 -0.4956  0.9703
 2765SOL     OW 8293   0.724   2.493   5.440 -0.0390  0.1943  0.5724
 2765SOL    HW1 8294   0.813   2.458   5.431 -0.7357 -1.5893  0.1623
 2765SOL    HW2 8295   0.715   2.554   5.367  0.2527 -1.0282 -0.5318
 2766SOL     OW 8296   3.540   4.925   6.276 -0.0327 -0.6190 -0.7359
 2766SOL    HW1 8297   3.466   4.877   6.312 -0.3847  0.9618  0.7732
 2766SOL    HW2 8298   3.517   5.018   6.286  0.4136 -0.0474 -3.9689
 2767SOL     OW 8299   1.637   4.722   5.087  0.2659  0.4594  0.1079
 2767SOL    HW1 8300   1.678   4.799   5.047 -2.3098  2.4962  1.1086
 2767SOL    HW2 8301   1.654   4.731   5.180 -0.6806  0.2608  0.3126
 2768SOL     OW 8302   1.582   0.138   5.267  0.6281 -0.5066 -0.0837
 2768SOL    HW1 8303   1.489   0.119   5.253  0.7797 -1.3644  0.0428
 2768SOL    HW2 8304   1.582   0.203   5.337  0.0721  0.5557 -1.0320
 2769SOL     OW 8305   4.420   0.331   6.170 -0.0936  0.0454  0.5126
 2769SOL    HW1 8306   4.420   0.427   6.175  3.1994  0.6460 -4.4162
 2769SOL    HW2 8307   4.330   0.308   6.146 -0.9014  1.8558  1.5966
 2770SOL     OW 8308   2.443   4.399   6.391  0.0437  0.0875 -0.1396
 2770SOL    HW1 8309   2.419   4.374   6.481  2.2766 -0.6645  0.3140
 2770SOL    HW2 8310   2.359   4.415   6.348 -1.0907  1.5753  2.3583
 2771SOL     OW 8311   2.101   1.995   5.839 -0.0608 -0.7486  0.0243
 2771SOL    HW1 8312   2.085   1.973   5.747  2.8786 -2.6859 -0.1414
 2771SOL    HW2 8313   2.164   2.067   5.835 -1.2768  0.4156  0.6240
 2772SOL     OW 8314   3.387   3.643   5.316 -0.3767 -0.3483 -0.3888
 2772SOL    HW1 8315   3.476   3.632   5.347  0.1895 -1.6367 -2.2649
 2772SOL    HW2 8316   3.380   3.582   5.242 -2.8220 -0.3246 -0.2620
 2773SOL     OW 8317   4.507   1.697   7.208  0.1063 -0.0726 -0.3687
 2773SOL    HW1 8318   4.491   1.641   7.284  1.2102  2.4674  1.9170
 2773SOL    HW2 8319   4.599   1.680   7.185 -0.1548 -0.6564 -1.0122
 2774SOL     OW 8320   1.797   2.057   6.406 -0.3227 -0.5948 -0.0252
 2774SOL    HW1 8321   1.791   2.002   6.328  2.5801  0.0377 -0.8243
 2774SOL    HW2 8322   1.743   2.013   6.472 -2.5748 -1.3312 -2.2308
 2775SOL     OW 8323   0.047   4.114   8.071  0.3067  0.0046  0.0027
 2775SOL    HW1 8324   0.034   4.092   8.163 -0.9175  0.9124  0.0637
 2775SOL    HW2 8325  -0.039   4.142   8.040 -0.1980 -3.3885 -2.2984
 2776SOL     OW 8326   3.580   0.754   5.763 -0.0476 -0.0826 -0.0150
 2776SOL    HW1 8327   3.498   0.731   5.807  0.1816  1.6558  1.4131
 2776SOL    HW2 8328   3.552   0.803   5.686 -0.4299  2.6856  1.7351
 2777SOL     OW 8329   3.910   3.898   6.609 -0.2817  0.0061 -0.1618
 2777SOL    HW1 8330   3.841   3.865   6.551  0.0802 -2.8680  0.8544
 2777SOL    HW2 8331   3.942   3.820   6.655  1.7598  1.6495  1.4363
 2778SOL     OW 8332   4.899   2.243   6.149 -0.4317  0.0482 -0.6805
 2778SOL    HW1 8333   4.934   2.331   6.131 -0.0355 -0.3980 -2.2376
 2778SOL    HW2 8334   4.927   2.191   6.074 -1.5524 -1.1672 -0.2801
 2779SOL     OW 8335   1.896   4.865   7.220  0.1718  0.1660  0.3624
 2779SOL    HW1 8336   1.968   4.820   7.265  0.4963 -0.7585 -1.0079
 2779SOL    HW2 8337   1.883   4.813   7.141 -1.7185  0.5831  0.3711
 2780SOL     OW 8338   1.728   0.240   5.057 -0.0187  0.0806 -0.3382
 2780SOL    HW1 8339   1.804   0.235   5.115 -0.4192 -2.9071  0.0922
 2780SOL    HW2 8340   1.654   0.222   5.114 -0.6015 -1.2030 -1.4597
 2781SOL     OW 8341   0.288   4.025   5.631 -0.1058  0.2638 -0.2712
 2781SOL    HW1 8342   0.362   4.031   5.571 -0.1207  0.6368 -0.2558
 2781SOL    HW2 8343   0.288   4.109   5.677  0.3977 -0.3093  0.8166
 2782SOL     OW 8344   1.335   0.209   6.567  0.0588 -0.2108 -0.0166
 2782SOL    HW1 8345   1.257   0.176   6.612  0.4110  0.2814  0.9900
 2782SOL    HW2 8346   1.300   0.272   6.504 -0.4630 -1.0938 -0.6382
 2783SOL     OW 8347   2.736   0.137   6.412 -0.0121 -0.3540  0.0838
 2783SOL    HW1 8348   2.811   0.077   6.403 -0.9438 -1.5312 -0.0871
 2783SOL    HW2 8349   2.776   0.221   6.433  1.4843 -0.5658 -1.5717
 2784SOL     OW 8350   1.784   1.335   5.081  0.3917 -0.3131 -0.1106
 2784SOL    HW1 8351   1.768   1.429   5.073  2.4437  0.0505 -0.4650
 2784SOL    HW2 8352   1.703   1.294   5.050 -0.3091  1.3258 -0.5341
 2785SOL     OW 8353   1.309   2.723   6.997  0.2283  0.5390 -0.1097
 2785SOL    HW1 8354   1.360   2.737   7.077  1.1247 -0.5706 -0.4630
 2785SOL    HW2 8355   1.327   2.632   6.973  3.1129  1.8162 -3.7316
 2786SOL     OW 8356   2.681   4.020   6.550  0.5400  0.3952  0.2478
 2786SOL    HW1 8357   2.631   4.092   6.511 -0.7214 -0.9690 -0.7698
 2786SOL    HW2 8358   2.675   4.034   6.644 -0.8203  0.9002  0.1069
 2787SOL     OW 8359   3.649   2.213   7.670 -0.1480  0.3654 -0.4007
 2787SOL    HW1 8360   3.634   2.149   7.739  0.1724 -1.1312 -1.6483
 2787SOL    HW2 8361   3.715   2.172   7.614  0.7577  2.2085 -0.7577
 2788SOL     OW 8362   2.774   3.174   6.933 -0.1336  0.1678  0.5005
 2788SOL    HW1 8363   2.701   3.125   6.896 -0.2945  0.6872  0.1099
 2788SOL    HW2 8364   2.793   3.242   6.868  0.7610 -0.0155  0.5509
 2789SOL     OW 8365   4.335   3.513   6.030 -0.4420 -0.5399  0.0077
 2789SOL    HW1 8366   4.339   3.434   5.976 -3.0198 -0.3530 -0.5699
 2789SOL    HW2 8367   4.286   3.486   6.108 -1.5797  0.5311 -0.3196
 2790SOL     OW 8368   3.784   4.102   6.830 -0.7819  0.5516 -0.1244
 2790SOL    HW1 8369   3.787   4.010   6.857  3.1660  0.3871 -0.4641
 2790SOL    HW2 8370   3.716   4.105   6.763 -2.0017 -1.7821  0.8788
 2791SOL     OW 8371   1.634   4.946   7.078 -0.3483 -0.2469  0.0167
 2791SOL    HW1 8372   1.610   4.853   7.084 -1.9716 -0.0736 -2.2386
 2791SOL    HW2 8373   1.654   4.958   6.985 -1.4966  1.9266  0.0002
 2792SOL     OW 8374   4.899   0.907   5.628 -0.3111  0.2237  0.7702
 2792SOL    HW1 8375   4.945   0.850   5.567  1.1787  0.1578  1.8912
 2792SOL    HW2 8376   4.868   0.980   5.575  1.4836  0.4760  0.0212
 2793SOL     OW 8377   3.393   0.440   6.961 -0.0102 -0.4044  0.1068
 2793SOL    HW1 8378   3.310   0.464   6.919  0.8125 -0.7151 -1.8226
 2793SOL    HW2 8379   3.458   0.495   6.917  0.6778  1.0496  2.7210
 2794SOL     OW 8380   0.939   3.658   6.798  0.4373 -0.2680 -0.2980
 2794SOL    HW1 8381   0.848   3.686   6.809  0.5093  0.0075 -0.4107
 2794SOL    HW2 8382   0.988   3.707   6.863  0.4407 -0.7593  0.0765
 2795SOL     OW 8383   0.787   1.589   4.994 -0.4556 -0.4592  0.6918
 2795SOL    HW1 8384   0.715   1.609   4.933  0.1337 -1.0743 -0.2359
 2795SOL    HW2 8385   0.800   1.495   4.986  0.6923 -0.3083  0.5649
 2796SOL     OW 8386   3.128   4.244   6.790  0.3980  0.3834  0.2245
 2796SOL    HW1 8387   3.217   4.213   6.774 -0.1477 -1.1002 -0.0886
 2796SOL    HW2 8388   3.075   4.204   6.721 -0.1236  3.5102 -1.3797
 2797SOL     OW 8389   2.727   0.327   5.436 -0.1280 -0.4030 -0.2717
 2797SOL    HW1 8390   2.794   0.260   5.445 -0.5452 -0.8604 -0.5354
 2797SOL    HW2 8391   2.663   0.308   5.504  0.6098  0.7720  0.7981
 2798SOL     OW 8392   2.611   0.207   5.689 -0.4342 -0.3802  0.2938
 2798SOL    HW1 8393   2.611   0.281   5.750 -0.7958 -0.2311  0.1143
 2798SOL    HW2 8394   2.521   0.175   5.690 -1.3832  1.7039 -2.6656
 2799SOL     OW 8395   3.446   3.881   7.503  0.0933  0.6759  0.5562
 2799SOL    HW1 8396   3.519   3.943   7.503  0.7258 -0.0392 -0.6216
 2799SOL    HW2 8397   3.441   3.850   7.413  0.6689 -1.9947  1.3669
 2800SOL     OW 8398   1.909   4.424   5.743 -0.1190  0.0529 -0.3317
 2800SOL    HW1 8399   1.840   4.487   5.722  1.8820  2.5219 -0.0159
 2800SOL    HW2 8400   1.898   4.407   5.837 -0.8697 -0.3972 -0.4872
 2801SOL     OW 8401   3.221   0.636   6.322 -0.5433  0.8519 -0.2523
 2801SOL    HW1 8402   3.232   0.729   6.340  0.0634  0.5679  0.9717
 2801SOL    HW2 8403   3.262   0.592   6.396 -1.8104 -0.3872 -0.2288
 2802SOL     OW 8404   2.956   2.564   6.147  0.5654 -0.3618  0.4876
 2802SOL    HW1 8405   2.987   2.637   6.093  1.2814 -1.1913 -0.2612
 2802SOL    HW2 8406   2.877   2.597   6.189  0.7214  0.7477 -0.0489
 2803SOL     OW 8407   4.348   4.268   6.683 -0.4548  0.3369 -0.2276
 2803SOL    HW1 8408   4.433   4.310   6.668 -0.7888  1.1379  0.0900
 2803SOL    HW2 8409   4.365   4.175   6.668  1.0971  0.1213  2.3620
 2804SOL     OW 8410   3.180   4.414   6.518  0.1205 -0.3395 -0.2438
 2804SOL    HW1 8411   3.137   4.437   6.600  1.5040  0.7961  0.2184
 2804SOL    HW2 8412   3.117   4.439   6.450 -0.6808 -0.4506  0.4476
 2805SOL     OW 8413   1.140   1.132   4.800  0.3579  0.3472 -0.3387
 2805SOL    HW1 8414   1.216   1.087   4.837  0.0284  0.7440  0.8723
 2805SOL    HW2 8415   1.076   1.062   4.785  0.7587  0.0847 -0.8583
 2806SOL     OW 8416   1.858   3.616   7.357  0.2630 -0.4124 -0.3281
 2806SOL    HW1 8417   1.765   3.636   7.370  0.5099  0.3499  0.3114
 2806SOL    HW2 8418   1.901   3.647   7.437  0.9657 -1.5330 -0.2345
 2807SOL     OW 8419   2.917   0.491   7.759 -0.4305 -0.6261 -0.1557
 2807SOL    HW1 8420   2.945   0.532   7.840 -0.9152 -1.5151  0.4863
 2807SOL    HW2 8421   2.986   0.511   7.696  0.2349 -0.4058  0.6294
 2808SOL     OW 8422   1.845   4.499   7.254 -0.4279  0.3626 -0.9514
 2808SOL    HW1 8423   1.756   4.526   7.231 -0.1381  1.1176 -1.2201
 2808SOL    HW2 8424   1.836   4.455   7.338 -1.1281 -0.0147 -1.2224
 2809SOL     OW 8425   1.684   2.302   9.371  0.1112  0.2451  0.2071
 2809SOL    HW1 8426   1.655   2.211   9.362 -0.2436  0.4837 -1.3492
 2809SOL    HW2 8427   1.774   2.296   9.404 -0.3197 -0.6209  1.2711
 2810SOL     OW 8428   4.010   1.115   6.762  0.0109 -0.4547 -0.4832
 2810SOL    HW1 8429   3.988   1.107   6.669 -0.1461 -1.1639 -0.3958
 2810SOL    HW2 8430   3.925   1.112   6.807  0.1249 -0.8293 -0.2834
 2811SOL     OW 8431   3.935   4.940   7.324 -0.3527  0.4848  0.0796
 2811SOL    HW1 8432   3.874   4.868   7.311 -1.4473  1.7095 -2.0807
 2811SOL    HW2 8433   3.997   4.907   7.390 -1.2223 -2.1146 -0.2767
 2812SOL     OW 8434   4.967   2.952   9.134 -0.2642  0.0340  0.1932
 2812SOL    HW1 8435   4.878   2.949   9.100 -0.3823 -2.2717  0.5644
 2812SOL    HW2 8436   4.974   2.876   9.192  1.6137  0.7707  1.0258
 2813SOL     OW 8437   3.797   2.816   7.708 -0.1983  0.3076 -0.0583
 2813SOL    HW1 8438   3.745   2.795   7.785 -2.1078 -0.3947 -1.4494
 2813SOL    HW2 8439   3.860   2.744   7.700 -1.9542 -1.2316 -0.7580
 2814SOL     OW 8440   0.392   3.851   8.522  0.5143 -0.3637 -0.1483
 2814SOL    HW1 8441   0.317   3.793   8.507  1.2647 -1.3091 -0.3874
 2814SOL    HW2 8442   0.416   3.837   8.613  1.5866 -1.5719 -0.5752
 2815SOL     OW 8443   4.826   1.192   5.490  0.3118  0.1102  0.0995
 2815SOL    HW1 8444   4.798   1.283   5.494 -0.3935 -0.1277  2.1960
 2815SOL    HW2 8445   4.918   1.193   5.516  0.3342  0.2451  0.0123
 2816SOL     OW 8446   0.378   4.343   6.507 -0.8916 -0.0345  0.1936
 2816SOL    HW1 8447   0.338   4.258   6.523 -2.4706  1.1968  4.1115
 2816SOL    HW2 8448   0.307   4.397   6.472 -0.5816  0.2851  0.0478
 2817SOL     OW 8449   1.057   0.760   9.020  0.0138 -0.5276 -0.3924
 2817SOL    HW1 8450   1.127   0.720   9.072  1.6167  0.9007 -1.3380
 2817SOL    HW2 8451   0.979   0.709   9.041  1.0636 -1.4065  1.6662
 2818SOL     OW 8452   4.315   0.335   8.254 -0.8410  0.5114  0.1251
 2818SOL    HW1 8453   4.297   0.400   8.322 -1.3983  1.9694 -1.3355
 2818SOL    HW2 8454   4.228   0.306   8.225 -0.7007 -3.3601  2.8505
 2819SOL     OW 8455   4.285   3.335   7.922 -0.2162  0.2580  0.3170
 2819SOL    HW1 8456   4.205   3.286   7.904 -0.1434 -0.1212  0.9824
 2819SOL    HW2 8457   4.303   3.319   8.015  0.3092  0.8130  0.3216
 2820SOL     OW 8458   2.888   0.496   7.350  0.2372  0.8191  0.5075
 2820SOL    HW1 8459   2.932   0.572   7.390  1.0769 -0.1967  1.5802
 2820SOL    HW2 8460   2.934   0.420   7.385 -0.2317 -0.1994 -0.9663
 2821SOL     OW 8461   3.601   4.549   6.167 -0.7859 -0.1278  0.5456
 2821SOL    HW1 8462   3.567   4.464   6.195  1.5599 -1.0299  0.8988
 2821SOL    HW2 8463   3.652   4.579   6.242 -1.4668  1.5722  0.3688
 2822SOL     OW 8464   2.111   0.925   8.088  0.2304  0.5309  0.4884
 2822SOL    HW1 8465   2.077   0.915   8.177 -0.2832  0.2735  0.2665
 2822SOL    HW2 8466   2.160   1.008   8.090 -1.3064  1.4813  0.5603
 2823SOL     OW 8467   0.468   3.758   7.848 -0.4089  0.0750  0.0463
 2823SOL    HW1 8468   0.443   3.732   7.937 -1.5801  1.1277  0.0638
 2823SOL    HW2 8469   0.511   3.843   7.860 -1.0966  0.5077 -0.4140
 2824SOL     OW 8470   1.326   0.298   7.172  0.4255  0.2380  0.4295
 2824SOL    HW1 8471   1.377   0.370   7.135 -0.5185 -0.0281 -1.4853
 2824SOL    HW2 8472   1.236   0.316   7.147  0.2474 -1.9364 -0.6863
 2825SOL     OW 8473   4.866   2.087   9.122  0.4781 -0.7781  0.2562
 2825SOL    HW1 8474   4.962   2.080   9.119  0.7511  2.1656 -0.7815
 2825SOL    HW2 8475   4.846   2.100   9.215  1.2839  0.2741  0.3045
 2826SOL     OW 8476   2.644   0.598   9.150 -0.3782  0.1279  0.4094
 2826SOL    HW1 8477   2.567   0.555   9.113 -0.0004 -0.2097  0.0087
 2826SOL    HW2 8478   2.609   0.656   9.217 -0.8841 -0.8794  1.0347
 2827SOL     OW 8479   2.845   1.171   5.704  0.8838  0.4487  0.2296
 2827SOL    HW1 8480   2.877   1.086   5.673  1.7016  0.3625  1.2588
 2827SOL    HW2 8481   2.922   1.228   5.703  0.7920  0.6194  1.4110
 2828SOL     OW 8482   0.378   0.412   6.950  0.2462  0.1308 -0.8915
 2828SOL    HW1 8483   0.362   0.319   6.962  1.1949  0.3098  4.2578
 2828SOL    HW2 8484   0.292   0.450   6.937 -0.5342 -1.2115  0.1267
 2829SOL     OW 8485   2.202   4.554   6.925  0.0517  0.0183  0.4581
 2829SOL    HW1 8486   2.223   4.538   7.016  1.8645  0.3187  0.1226
 2829SOL    HW2 8487   2.108   4.577   6.925 -0.4557 -1.8905  1.9653
 2830SOL     OW 8488   0.604   0.735   6.495  0.2964 -0.2615  0.5190
 2830SOL    HW1 8489   0.519   0.726   6.539 -0.5572 -0.7884 -1.1212
 2830SOL    HW2 8490   0.653   0.797   6.548 -0.3588 -1.4307  2.5929
 2831SOL     OW 8491   2.779   4.460   9.812 -0.1874 -0.0189 -0.3762
 2831SOL    HW1 8492   2.732   4.528   9.762  1.6887  0.8730 -1.0218
 2831SOL    HW2 8493   2.828   4.509   9.878 -0.1747 -0.9190  0.2878
 2832SOL     OW 8494   2.251   3.738   8.836 -0.1829 -0.1766 -0.4078
 2832SOL    HW1 8495   2.239   3.688   8.755 -1.0173 -1.4300  0.4470
 2832SOL    HW2 8496   2.173   3.792   8.844 -0.5275 -0.7330  0.0147
 2833SOL     OW 8497   2.866   0.037   8.214  0.0881  0.1054 -0.2931
 2833SOL    HW1 8498   2.823  -0.010   8.143  0.7698  1.2144 -1.4786
 2833SOL    HW2 8499   2.958   0.041   8.188  0.1021  1.8053 -0.0779
 2834SOL     OW 8500   2.428   3.500   8.344  0.6273 -0.3612  0.2996
 2834SOL    HW1 8501   2.354   3.457   8.302  1.7694 -0.4824 -1.7552
 2834SOL    HW2 8502   2.493   3.510   8.274  2.3709  0.1799  1.8891
 2835SOL     OW 8503   1.914   4.953  10.157  0.1832  0.0240  0.4302
 2835SOL    HW1 8504   1.966   5.032  10.175 -1.0751  0.7192  1.1649
 2835SOL    HW2 8505   1.853   4.980  10.089 -0.2880 -0.2999  0.7226
 2836SOL     OW 8506   1.489   1.025   8.387  0.0301 -0.0573  0.4762
 2836SOL    HW1 8507   1.483   1.046   8.480 -2.9014  0.9127  0.1699
 2836SOL    HW2 8508   1.399   1.033   8.355  0.7324 -1.6466 -2.1900
 2837SOL     OW 8509   3.250   3.952   5.867  0.2356 -0.1855  0.6958
 2837SOL    HW1 8510   3.285   4.024   5.814 -0.6705 -0.3459 -0.1589
 2837SOL    HW2 8511   3.326   3.900   5.891  0.6738 -0.1415 -0.5336
 2838SOL     OW 8512   0.461   4.939   9.728  0.1403 -0.2337  0.0804
 2838SOL    HW1 8513   0.369   4.917   9.742 -0.3862  2.1706  1.0063
 2838SOL    HW2 8514   0.499   4.942   9.816  0.5365  0.8962 -0.1106
 2839SOL     OW 8515   0.015   4.224   4.946  0.0524 -0.0344  0.5681
 2839SOL    HW1 8516   0.042   4.313   4.965 -1.9772  0.8806 -0.4967
 2839SOL    HW2 8517  -0.040   4.231   4.868 -3.0807 -1.6378  2.4028
 2840SOL     OW 8518   2.680   0.135   6.748 -0.6483 -0.3782  0.2232
 2840SOL    HW1 8519   2.643   0.194   6.682 -1.1194 -0.6799  0.2082
 2840SOL    HW2 8520   2.646   0.049   6.724  2.5774 -1.2579 -1.6536
 2841SOL     OW 8521   2.822   3.610   8.593  0.0345  0.0985 -0.3627
 2841SOL    HW1 8522   2.821   3.568   8.507 -1.3524 -1.1489  0.2345
 2841SOL    HW2 8523   2.807   3.703   8.574 -0.1848 -0.1506 -1.4815
 2842SOL     OW 8524   0.621   0.391   5.031 -0.0405 -0.0853  0.2007
 2842SOL    HW1 8525   0.664   0.375   5.115 -0.0300  0.3616  0.2814
 2842SOL    HW2 8526   0.529   0.405   5.053 -0.3516 -1.5428 -0.0173
 2843SOL     OW 8527   2.883   4.019   7.603  0.3482 -0.0791  0.4036
 2843SOL    HW1 8528   2.946   3.955   7.634  0.8239 -0.3045 -0.9662
 2843SOL    HW2 8529   2.923   4.056   7.524  0.3263  2.2803  1.4030
 2844SOL     OW 8530   4.208   0.847   4.912 -0.0997  0.3664 -0.1406
 2844SOL    HW1 8531   4.148   0.805   4.851 -0.5937  0.3331  0.3574
 2844SOL    HW2 8532   4.152   0.901   4.968  0.3162  0.2417  0.4060
 2845SOL     OW 8533   4.434   0.527   6.930 -0.3198 -0.6789  0.2977
 2845SOL    HW1 8534   4.411   0.620   6.930  0.1936 -0.5439  0.5848
 2845SOL    HW2 8535   4.427   0.501   7.022 -2.3032 -1.4151 -0.0292
 2846SOL     OW 8536   3.790   4.139   8.587  0.3148 -0.3591  0.3007
 2846SOL    HW1 8537   3.708   4.183   8.565  0.9842  1.0009  0.3687
 2846SOL    HW2 8538   3.787   4.057   8.539  0.0595  0.8092 -1.8219
 2847SOL     OW 8539   4.156   0.148   7.033  0.5803 -0.4761  0.3156
 2847SOL    HW1 8540   4.090   0.079   7.021  0.2046  0.1281 -1.4808
 2847SOL    HW2 8541   4.186   0.167   6.944  3.3856 -0.8788  1.1028
 2848SOL     OW 8542   1.157   2.188   7.183  0.0478 -0.0780 -0.5887
 2848SOL    HW1 8543   1.136   2.108   7.135 -1.7353  0.1917 -0.3561
 2848SOL    HW2 8544   1.229   2.164   7.241 -2.0314 -2.2791  1.2634
 2849SOL     OW 8545   2.043   1.400   9.232 -0.1185  0.3445  0.3989
 2849SOL    HW1 8546   2.096   1.442   9.163 -1.2452  0.4645 -0.4225
 2849SOL    HW2 8547   2.107   1.360   9.290  0.8674  0.0716 -0.8311
 2850SOL     OW 8548   0.232   2.385   9.843  0.1314  0.1388 -0.0625
 2850SOL    HW1 8549   0.296   2.360   9.776 -0.9481 -0.2983 -0.9669
 2850SOL    HW2 8550   0.272   2.459   9.888  1.7515 -0.8170  0.1460
 2851SOL     OW 8551   4.023   0.535   5.919  0.6633 -0.2691  0.1343
 2851SOL    HW1 8552   3.992   0.468   5.979  1.2448 -1.0382 -0.4090
 2851SOL    HW2 8553   3.946   0.560   5.868  0.1939  0.2996  1.0904
 2852SOL     OW 8554   2.046   1.022   7.532  0.4519 -0.4601  0.2543
 2852SOL    HW1 8555   2.003   0.988   7.611 -1.1610 -1.3957 -0.9635
 2852SOL    HW2 8556   2.012   1.111   7.522 -0.5400 -0.8801 -0.2052
 2853SOL     OW 8557   3.160   3.057   6.455 -0.4914 -0.3677  0.6991
 2853SOL    HW1 8558   3.165   3.116   6.380  0.0592  0.1757  1.1482
 2853SOL    HW2 8559   3.230   3.087   6.513 -2.5013  0.9083  2.6217
 2854SOL     OW 8560   0.689   0.635   4.949 -0.2508 -0.3672  0.2920
 2854SOL    HW1 8561   0.757   0.634   4.882 -0.4157 -2.0128  0.0914
 2854SOL    HW2 8562   0.685   0.544   4.979 -2.6240 -0.4132  0.0009
 2855SOL     OW 8563   0.082   1.338   8.472  0.2803 -0.2102  0.1660
 2855SOL    HW1 8564   0.153   1.286   8.434  0.2761  0.2342 -0.4676
 2855SOL    HW2 8565   0.115   1.428   8.470 -0.9307  0.2436 -1.7005
 2856SOL     OW 8566   3.802   1.598   7.219 -0.1714  0.4633  0.2432
 2856SOL    HW1 8567   3.796   1.506   7.247 -2.3615  0.0923 -1.1705
 2856SOL    HW2 8568   3.872   1.598   7.154  0.1587 -0.1168  0.5905
 2857SOL     OW 8569   4.206   0.381   7.193  0.3351  0.4732 -0.0790
 2857SOL    HW1 8570   4.170   0.359   7.279 -0.0834 -0.4727 -0.4821
 2857SOL    HW2 8571   4.189   0.304   7.139  1.9072  0.4561 -0.6209
 2858SOL     OW 8572   0.506   0.606   9.414  0.1952  0.0152  0.2290
 2858SOL    HW1 8573   0.429   0.606   9.470 -0.3862 -0.5828 -0.5332
 2858SOL    HW2 8574   0.518   0.514   9.391 -1.3177  0.4292 -2.8738
 2859SOL     OW 8575   4.015   4.969   9.357  0.3078 -0.3147 -0.0686
 2859SOL    HW1 8576   4.093   4.947   9.409  0.2284 -0.1451  0.1214
 2859SOL    HW2 8577   3.946   4.982   9.421  0.3178  0.3564 -0.1812
 2860SOL     OW 8578   4.931   4.201  10.118  0.3561  0.0893  0.3806
 2860SOL    HW1 8579   4.942   4.187  10.212  0.3125  3.2273  0.9904
 2860SOL    HW2 8580   4.864   4.139  10.091 -0.3761 -0.1767  2.6662
 2861SOL     OW 8581   2.747   4.352   6.583 -0.2743  0.2838  0.1467
 2861SOL    HW1 8582   2.764   4.404   6.504  0.7798 -2.2647 -1.4404
 2861SOL    HW2 8583   2.800   4.394   6.651 -0.2910  1.8726 -0.7777
 2862SOL     OW 8584   2.672   1.472   5.202 -0.8821 -0.0390  0.3699
 2862SOL    HW1 8585   2.618   1.419   5.260 -0.5100  0.1078  0.8560
 2862SOL    HW2 8586   2.759   1.431   5.205 -1.2556 -1.0689 -1.4334
 2863SOL     OW 8587   4.727   4.962   9.613  0.3220 -0.0723 -0.2145
 2863SOL    HW1 8588   4.671   4.886   9.596  0.0988  0.2860 -1.1257
 2863SOL    HW2 8589   4.727   4.971   9.708  0.9425 -1.6646 -0.0404
 2864SOL     OW 8590   0.310   0.858   6.483  0.3253 -0.1304 -0.5587
 2864SOL    HW1 8591   0.329   0.797   6.412  0.8371 -0.3578 -0.2346
 2864SOL    HW2 8592   0.337   0.944   6.449  2.0004 -0.4415 -0.1181
 2865SOL     OW 8593   3.682   2.820   7.979 -0.0643  0.4082 -0.2553
 2865SOL    HW1 8594   3.608   2.797   7.922 -0.8204  1.1827  0.3882
 2865SOL    HW2 8595   3.653   2.797   8.067  0.8777 -0.2532 -0.1044
 2866SOL     OW 8596   2.265   4.741   9.462 -0.1830  0.3707  0.4181
 2866SOL    HW1 8597   2.195   4.734   9.397 -0.3681 -0.3838  0.6902
 2866SOL    HW2 8598   2.326   4.804   9.424 -0.8902  0.8689  0.0727
 2867SOL     OW 8599   1.302   4.780   9.047 -0.4397 -0.0004 -0.1732
 2867SOL    HW1 8600   1.252   4.795   9.127 -1.9343 -1.6291 -0.7446
 2867SOL    HW2 8601   1.281   4.855   8.991 -0.4892  0.4308  0.4220
 2868SOL     OW 8602   0.484   0.912   9.544 -0.2157 -0.4171  0.8265
 2868SOL    HW1 8603   0.456   0.978   9.608 -0.8177 -0.1048  0.2477
 2868SOL    HW2 8604   0.433   0.834   9.565 -0.2753 -0.3744  0.8384
 2869SOL     OW 8605   2.428   1.134   8.311  0.6060 -0.0917 -0.1847
 2869SOL    HW1 8606   2.447   1.211   8.366  0.1200 -0.3195  0.3172
 2869SOL    HW2 8607   2.395   1.171   8.229  0.4760  0.2389  0.0121
 2870SOL     OW 8608   2.812   0.070   6.987 -0.3779 -0.5075  0.0949
 2870SOL    HW1 8609   2.769   0.125   6.921 -1.7778  0.9719  2.0942
 2870SOL    HW2 8610   2.753  -0.004   6.997 -1.5077  0.5064  1.3761
 2871SOL     OW 8611   3.975   4.583   8.391 -0.5536  0.2986 -0.4094
 2871SOL    HW1 8612   3.917   4.514   8.424 -0.6166  1.0734  1.2070
 2871SOL    HW2 8613   3.984   4.643   8.464  2.9753 -0.2060 -0.2618
 2872SOL     OW 8614   2.122   4.747   7.372  0.3924  0.1579 -0.0931
 2872SOL    HW1 8615   2.201   4.746   7.320  0.6932  0.6768  0.3418
 2872SOL    HW2 8616   2.133   4.676   7.435  0.3966  0.0670 -0.1966
 2873SOL     OW 8617   1.932   1.227   8.294  0.2924  0.0810  0.0317
 2873SOL    HW1 8618   1.932   1.303   8.351 -0.8201 -0.4587  0.8098
 2873SOL    HW2 8619   1.932   1.152   8.354 -3.9832 -0.5616 -0.3890
 2874SOL     OW 8620   3.134   1.439   7.291 -0.1427  0.9642 -0.6728
 2874SOL    HW1 8621   3.106   1.479   7.373 -1.2948 -0.1326 -0.4943
 2874SOL    HW2 8622   3.087   1.355   7.288 -0.6743  1.2724 -2.7500
 2875SOL     OW 8623   1.691   4.205   9.697  0.3499 -0.5447  0.1352
 2875SOL    HW1 8624   1.746   4.177   9.624  0.5798  0.4110 -0.0621
 2875SOL    HW2 8625   1.634   4.130   9.714  1.6030 -1.5083  0.2437
 2876SOL     OW 8626   3.569   2.278   5.367  0.1786 -0.5850 -0.0867
 2876SOL    HW1 8627   3.567   2.198   5.314 -3.9582 -0.3590 -0.5806
 2876SOL    HW2 8628   3.502   2.265   5.433  0.6818  1.7851  0.9881
 2877SOL     OW 8629   3.536   4.297   8.640  0.0870 -0.1711  0.2972
 2877SOL    HW1 8630   3.526   4.317   8.733  1.2351 -1.7254  0.7977
 2877SOL    HW2 8631   3.451   4.317   8.601  0.0971  2.1286  1.3364
 2878SOL     OW 8632   4.837   3.427   9.638 -1.1867  0.2116 -0.2449
 2878SOL    HW1 8633   4.890   3.465   9.568 -0.0759  0.9035  0.9421
 2878SOL    HW2 8634   4.788   3.502   9.673 -0.3068  0.2427  0.9544
 2879SOL     OW 8635   3.005   4.094   8.576 -0.0828  0.4435 -0.1374
 2879SOL    HW1 8636   3.004   4.011   8.529 -2.2793 -0.1296  0.8023
 2879SOL    HW2 8637   3.037   4.072   8.663  0.1346  0.7498 -0.1356
 2880SOL     OW 8638   3.437   3.582   8.053  0.3329 -0.5600  0.1885
 2880SOL    HW1 8639   3.403   3.511   7.998 -0.7039  1.1092 -1.4744
 2880SOL    HW2 8640   3.415   3.556   8.142  1.3163 -2.9947 -0.1853
 2881SOL     OW 8641   4.209   0.016   5.670 -0.3720  0.9518  0.4318
 2881SOL    HW1 8642   4.136   0.025   5.731 -1.3607  2.2642 -0.9021
 2881SOL    HW2 8643   4.176  -0.040   5.600  0.2731  0.6584  0.3499
 2882SOL     OW 8644   1.804   0.098   8.691  0.2450 -0.3379 -0.1149
 2882SOL    HW1 8645   1.751   0.061   8.620 -0.7665  0.4735  0.1903
 2882SOL    HW2 8646   1.890   0.057   8.681  0.2230 -0.0222 -1.9941
 2883SOL     OW 8647   4.164   4.240   6.152  0.2505 -0.2119  0.3538
 2883SOL    HW1 8648   4.215   4.166   6.121 -0.0240 -0.6799  0.9878
 2883SOL    HW2 8649   4.184   4.246   6.246  0.3961  0.6216  0.2782
 2884SOL     OW 8650   1.754   4.556   7.641 -0.2652  0.0161 -0.0515
 2884SOL    HW1 8651   1.777   4.529   7.730  0.6287  1.3663  0.1677
 2884SOL    HW2 8652   1.788   4.487   7.585  0.3327 -0.2103  0.5810
 2885SOL     OW 8653   4.041   2.499   9.516 -0.0438 -0.2990  0.6453
 2885SOL    HW1 8654   3.991   2.578   9.496 -0.7491  0.3091  4.1484
 2885SOL    HW2 8655   4.120   2.531   9.560  2.2293 -1.4134 -2.2668
 2886SOL     OW 8656   1.736   2.647   8.373 -0.0451 -0.1056 -0.4028
 2886SOL    HW1 8657   1.682   2.623   8.297 -1.2243 -1.1717  0.7202
 2886SOL    HW2 8658   1.826   2.641   8.341 -0.5254 -0.1264 -1.8218
 2887SOL     OW 8659   3.296   1.964   8.833 -0.4805  0.5946 -0.8651
 2887SOL    HW1 8660   3.329   2.008   8.911 -0.6560  0.4313 -0.7001
 2887SOL    HW2 8661   3.248   2.033   8.786 -0.7477  0.5835 -0.6109
 2888SOL     OW 8662   2.567   0.352   6.599 -0.4470  0.3033  0.3635
 2888SOL    HW1 8663   2.559   0.408   6.677 -0.3558 -0.4547  0.9272
 2888SOL    HW2 8664   2.560   0.413   6.525  2.7616  1.5227  0.9089
 2889SOL     OW 8665   1.830   0.735   6.397  0.5931 -0.1916 -0.4742
 2889SOL    HW1 8666   1.842   0.732   6.302 -1.1652 -0.3830 -0.7257
 2889SOL    HW2 8667   1.885   0.664   6.431  1.2085 -0.1414 -1.3326
 2890SOL     OW 8668   0.964   4.311   9.224  0.4276  0.0330 -0.0209
 2890SOL    HW1 8669   0.879   4.347   9.249 -0.2534 -0.1908 -1.8568
 2890SOL    HW2 8670   1.019   4.388   9.210  0.1494  0.2301 -0.0583
 2891SOL     OW 8671   1.657   0.870   6.575 -0.3556  0.3922  0.0076
 2891SOL    HW1 8672   1.708   0.812   6.519 -0.7466 -0.8044  0.8402
 2891SOL    HW2 8673   1.702   0.954   6.570  1.7377 -0.6130  0.7359
 2892SOL     OW 8674   3.288   0.674   5.798 -0.2384 -0.5997 -0.4945
 2892SOL    HW1 8675   3.212   0.692   5.742 -0.5837 -1.6730 -0.3927
 2892SOL    HW2 8676   3.262   0.703   5.885 -0.4642 -0.7729 -0.5026
 2893SOL     OW 8677   3.650   3.086   8.209  0.3479  0.6795  0.0241
 2893SOL    HW1 8678   3.657   3.083   8.113  1.5532 -1.2420  0.1176
 2893SOL    HW2 8679   3.652   2.994   8.236 -0.6803  1.1492  1.8758
 2894SOL     OW 8680   2.248   1.222   6.506  0.1815 -0.1109  0.0850
 2894SOL    HW1 8681   2.337   1.190   6.487 -0.1288 -1.0133  0.0905
 2894SOL    HW2 8682   2.191   1.156   6.466 -0.5079  1.2707 -1.3007
 2895SOL     OW 8683   0.305   0.170   9.211  0.0121  0.2498  1.0888
 2895SOL    HW1 8684   0.270   0.144   9.125 -1.0686 -1.3610  1.9583
 2895SOL    HW2 8685   0.391   0.127   9.215 -1.0310 -1.9047  1.8061
 2896SOL     OW 8686   2.961   4.334   8.923 -0.3248  0.6606  0.0571
 2896SOL    HW1 8687   3.016   4.342   8.846  0.0056  0.0787  0.2265
 2896SOL    HW2 8688   2.983   4.410   8.977  2.3274 -0.8837  1.3715
 2897SOL     OW 8689   3.051   2.373   5.266  0.2195 -0.2474  0.4004
 2897SOL    HW1 8690   3.107   2.306   5.304  0.8164 -0.6632 -1.1542
 2897SOL    HW2 8691   3.060   2.362   5.171 -1.0047  0.9208  0.1111
 2898SOL     OW 8692   2.010   4.271   8.466  0.4383  0.2522 -0.0446
 2898SOL    HW1 8693   1.959   4.192   8.448 -1.2194  1.4177 -0.6696
 2898SOL    HW2 8694   2.024   4.269   8.561 -1.6586  0.3915  0.3073
 2899SOL     OW 8695   2.451   0.829   8.337  0.2190  0.3297  0.2816
 2899SOL    HW1 8696   2.449   0.924   8.328 -0.3049  0.3084  0.1483
 2899SOL    HW2 8697   2.413   0.813   8.424 -1.6818  0.1376 -0.5433
 2900SOL     OW 8698   0.988   3.603   8.215  0.1539 -0.7248 -0.2087
 2900SOL    HW1 8699   0.927   3.617   8.143  0.6401 -0.2699 -0.5354
 2900SOL    HW2 8700   1.052   3.673   8.207  0.6848 -1.1573  0.1688
 2901SOL     OW 8701   4.998   1.604   9.824 -0.0482  0.3776 -0.6471
 2901SOL    HW1 8702   5.004   1.658   9.903  2.9621  0.8738 -1.1114
 2901SOL    HW2 8703   4.962   1.662   9.758  0.6560  1.0247 -0.4725
 2902SOL     OW 8704   4.547   3.942   7.347 -0.0101 -0.0175  0.2164
 2902SOL    HW1 8705   4.588   3.857   7.360  1.5712  0.5361 -0.8807
 2902SOL    HW2 8706   4.587   3.999   7.413  0.0474  0.2236 -0.0248
 2903SOL     OW 8707   0.595   3.794   8.313 -0.0746  0.1238 -0.2674
 2903SOL    HW1 8708   0.565   3.746   8.236  0.6567  0.0308 -0.5028
 2903SOL    HW2 8709   0.514   3.823   8.356 -0.5270 -1.4754 -0.0092
 2904SOL     OW 8710   1.900   3.166   6.563  0.5945 -0.1134 -0.9806
 2904SOL    HW1 8711   1.970   3.107   6.593 -0.1955 -0.8040 -0.4391
 2904SOL    HW2 8712   1.928   3.194   6.476  1.5986 -0.2843 -0.7236
 2905SOL     OW 8713   2.183   3.696   9.672  0.2084 -0.2116  0.1447
 2905SOL    HW1 8714   2.177   3.607   9.707  4.0365 -0.6841  0.0845
 2905SOL    HW2 8715   2.217   3.685   9.583 -1.5946  1.3039 -0.8155
 2906SOL     OW 8716   2.871   4.339   8.542  0.4394  0.2500  0.0317
 2906SOL    HW1 8717   2.836   4.348   8.630  0.6249  0.7982  0.0562
 2906SOL    HW2 8718   2.906   4.250   8.538  1.3928  0.5680  0.8754
 2907SOL     OW 8719   2.094   0.798   9.056  0.0069 -0.0604  0.3990
 2907SOL    HW1 8720   2.001   0.806   9.081 -0.2008  0.3203 -0.4674
 2907SOL    HW2 8721   2.108   0.867   8.992  0.6864 -0.6233 -0.0769
 2908SOL     OW 8722   2.037   3.835   5.348  0.2189 -0.0021  0.3868
 2908SOL    HW1 8723   1.952   3.804   5.378 -0.0783  0.0255 -0.4123
 2908SOL    HW2 8724   2.049   3.795   5.262  2.1478 -2.0467  1.5003
 2909SOL     OW 8725   3.388   4.442   8.287 -0.0623 -0.3168  0.7084
 2909SOL    HW1 8726   3.317   4.463   8.348 -1.2005 -0.4881 -0.5085
 2909SOL    HW2 8727   3.364   4.358   8.250 -0.9825  1.0676 -2.1256
 2910SOL     OW 8728   3.937   3.226   8.882 -0.3386  0.1709  0.2109
 2910SOL    HW1 8729   3.868   3.225   8.816  0.7526 -0.1828 -0.9586
 2910SOL    HW2 8730   3.916   3.302   8.937 -0.9429  0.8283 -0.8823
 2911SOL     OW 8731   1.055   1.976   6.994  0.0852  0.0339  0.2132
 2911SOL    HW1 8732   1.009   2.001   6.914 -0.3196  2.5582  1.1404
 2911SOL    HW2 8733   0.986   1.945   7.053  0.1448 -0.0870  0.2207
 2912SOL     OW 8734   2.876   2.564   7.570 -0.1998  0.1334  0.2848
 2912SOL    HW1 8735   2.943   2.632   7.565 -0.5798  0.4371 -0.8314
 2912SOL    HW2 8736   2.892   2.522   7.655 -0.2012  1.8470  1.1865
 2913SOL     OW 8737   2.299   4.431   7.503 -0.0827  0.3612  0.1453
 2913SOL    HW1 8738   2.388   4.468   7.506  0.4154 -0.8249  0.7681
 2913SOL    HW2 8739   2.247   4.490   7.558  0.0164  1.7538 -1.1831
 2914SOL     OW 8740   2.192   4.144  10.256  0.0083  0.5072  0.1067
 2914SOL    HW1 8741   2.279   4.130  10.219  0.3335  0.3652  0.8889
 2914SOL    HW2 8742   2.204   4.213  10.321  0.0805 -1.1568  1.9643
 2915SOL     OW 8743   2.927   0.346   6.527 -0.5952  0.1588 -0.2669
 2915SOL    HW1 8744   2.873   0.365   6.603 -0.0115 -0.4496  0.3115
 2915SOL    HW2 8745   3.010   0.313   6.563 -0.8025 -1.4691 -1.1596
 2916SOL     OW 8746   2.055   4.243   9.297  0.0234 -0.5084  0.5095
 2916SOL    HW1 8747   2.076   4.336   9.307  0.8192 -0.5283 -0.8104
 2916SOL    HW2 8748   2.140   4.199   9.302  0.0227 -0.8791 -1.7521
 2917SOL     OW 8749   4.787   1.424   9.803  0.5343  0.2677  0.7762
 2917SOL    HW1 8750   4.850   1.496   9.804  0.7630  0.0814  2.3054
 2917SOL    HW2 8751   4.785   1.393   9.893  0.6776 -1.8493  0.1018
 2918SOL     OW 8752   3.301   1.079   8.178 -0.1578 -0.5378 -0.4786
 2918SOL    HW1 8753   3.371   1.056   8.118  0.7346  1.6833 -0.3699
 2918SOL    HW2 8754   3.221   1.076   8.125  0.3107 -0.8105 -1.1763
 2919SOL     OW 8755   3.676   1.833   8.291 -0.8559 -0.0614 -0.5058
 2919SOL    HW1 8756   3.765   1.867   8.276 -0.3682 -0.9999  0.1880
 2919SOL    HW2 8757   3.665   1.765   8.225 -0.7844 -0.4358 -0.1345
 2920SOL     OW 8758   2.893   4.903   8.477 -0.4142 -0.6416  0.2515
 2920SOL    HW1 8759   2.869   4.937   8.390 -0.2052 -1.8235 -0.2879
 2920SOL    HW2 8760   2.884   4.808   8.469 -0.8041 -0.7493  1.6671
 2921SOL     OW 8761   1.485   4.578   9.896 -0.1191 -0.0871 -0.1923
 2921SOL    HW1 8762   1.492   4.483   9.904 -0.1489 -0.1040 -0.3675
 2921SOL    HW2 8763   1.459   4.607   9.983  0.9943 -0.1357  0.1722
 2922SOL     OW 8764   3.461   2.833   8.628 -0.0207  0.7723 -0.0364
 2922SOL    HW1 8765   3.407   2.833   8.707  0.8919 -0.5979  0.6249
 2922SOL    HW2 8766   3.468   2.925   8.604  0.1965  1.2898  1.8498
 2923SOL     OW 8767   3.623   3.916   5.338 -0.2153  0.1411  0.2661
 2923SOL    HW1 8768   3.527   3.919   5.338 -0.2063  1.7483  1.6027
 2923SOL    HW2 8769   3.644   3.830   5.374 -1.1428 -0.1043  0.2481
 2924SOL     OW 8770   2.900   4.962   8.986  0.8161 -0.5667  0.0665
 2924SOL    HW1 8771   2.912   5.056   9.000  0.3737 -0.5781  0.5409
 2924SOL    HW2 8772   2.805   4.951   8.975  0.9750 -0.7955 -1.1988
 2925SOL     OW 8773   1.468   0.073   7.249 -0.0445  0.3239  0.0475
 2925SOL    HW1 8774   1.532   0.048   7.181  2.5973  2.0331  1.7364
 2925SOL    HW2 8775   1.423   0.148   7.212 -0.5160 -0.3596 -0.8224
 2926SOL     OW 8776   2.142   1.939   8.668 -0.4808 -0.2252  0.0423
 2926SOL    HW1 8777   2.081   2.012   8.677  0.6415  0.6284  0.9716
 2926SOL    HW2 8778   2.188   1.957   8.586 -0.5722 -0.1663  0.0037
 2927SOL     OW 8779   3.481   4.357   7.442  0.3138 -0.2150 -0.4378
 2927SOL    HW1 8780   3.458   4.439   7.397  1.0148  0.0888 -0.2570
 2927SOL    HW2 8781   3.473   4.378   7.535 -0.1858 -0.5610 -0.4003
 2928SOL     OW 8782   4.755   4.938   7.881  0.1617 -0.8517  0.1688
 2928SOL    HW1 8783   4.762   4.921   7.787  0.9038 -0.7680  0.2027
 2928SOL    HW2 8784   4.841   4.916   7.916  0.5324  0.9702  0.5211
 2929SOL     OW 8785   4.142   1.808   8.791  0.7285  0.2372 -0.4157
 2929SOL    HW1 8786   4.155   1.837   8.701  0.2224  0.7169 -0.3409
 2929SOL    HW2 8787   4.150   1.713   8.787 -2.6231 -0.1058 -1.5912
 2930SOL     OW 8788   4.351   4.975   7.605  0.4031 -0.8272 -0.3431
 2930SOL    HW1 8789   4.302   5.024   7.671  2.0107  0.6087 -0.1314
 2930SOL    HW2 8790   4.346   4.884   7.634 -1.5958 -0.6581 -0.0374
 2931SOL     OW 8791   3.019   1.205   7.359  0.1825 -0.1250 -0.2709
 2931SOL    HW1 8792   2.985   1.245   7.439  1.6905  0.4997  0.1045
 2931SOL    HW2 8793   2.995   1.112   7.366  0.3863 -0.0949  0.9612
 2932SOL     OW 8794   0.123   2.657   7.301 -0.6176  0.1061 -0.3557
 2932SOL    HW1 8795   0.176   2.595   7.251  3.8915  1.5425  2.0418
 2932SOL    HW2 8796   0.101   2.726   7.239  2.4524  0.5335 -1.1176
 2933SOL     OW 8797   2.208   0.310   8.668  0.3488  0.0253 -0.0300
 2933SOL    HW1 8798   2.205   0.391   8.719 -2.9195 -0.6116  1.0756
 2933SOL    HW2 8799   2.300   0.284   8.670  1.7110  3.9793 -1.0737
 2934SOL     OW 8800   1.781   4.925   4.981  0.1482  0.3584 -0.2696
 2934SOL    HW1 8801   1.777   5.021   4.991 -0.9644  0.1781  1.3543
 2934SOL    HW2 8802   1.855   4.911   4.922  0.9175  2.1891  0.1622
 2935SOL     OW 8803   1.614   0.072   6.087 -1.3051 -0.3465  0.6511
 2935SOL    HW1 8804   1.703   0.054   6.117 -0.0781  1.3079 -1.6538
 2935SOL    HW2 8805   1.570   0.109   6.163  0.2059 -0.5394  1.6639
 2936SOL     OW 8806   3.724   3.023   7.175  0.3851  0.1154  0.7296
 2936SOL    HW1 8807   3.735   3.055   7.085  0.8674 -0.3466  0.6177
 2936SOL    HW2 8808   3.799   2.964   7.189 -1.0113 -1.7773  0.5734
 2937SOL     OW 8809   3.896   1.591   7.992  0.1807 -0.2885 -0.3759
 2937SOL    HW1 8810   3.989   1.586   7.969  0.2479 -1.1109  0.0454
 2937SOL    HW2 8811   3.895   1.611   8.085 -0.0864  1.2028 -0.6781
 2938SOL     OW 8812   1.076   0.138   7.028 -0.0044 -0.0120  0.5059
 2938SOL    HW1 8813   1.005   0.075   7.029  1.1509 -1.3842  0.1902
 2938SOL    HW2 8814   1.132   0.110   6.956  0.9941  0.8528  0.9090
 2939SOL     OW 8815   2.542   3.567   9.488 -0.5619  0.1278 -0.6374
 2939SOL    HW1 8816   2.562   3.518   9.409  0.7121  1.1832 -1.0097
 2939SOL    HW2 8817   2.587   3.651   9.476  0.4886 -0.0307  1.5950
 2940SOL     OW 8818   2.956   4.826   6.861  0.0434  0.4089  0.5903
 2940SOL    HW1 8819   2.955   4.798   6.952  0.0665 -0.9996  0.1755
 2940SOL    HW2 8820   2.865   4.850   6.842 -0.0100  0.4588  0.9081
 2941SOL     OW 8821   0.523   2.170   5.456 -0.0912 -0.4134 -0.0163
 2941SOL    HW1 8822   0.465   2.199   5.526 -0.6903 -0.8544 -0.3212
 2941SOL    HW2 8823   0.521   2.074   5.463 -2.3949 -0.6396 -2.3731
 2942SOL     OW 8824   1.789   3.401   7.988 -0.0916  0.9647  0.4018
 2942SOL    HW1 8825   1.705   3.357   7.975 -0.4897  0.9466  2.6038
 2942SOL    HW2 8826   1.825   3.411   7.900 -1.4199 -0.9381 -0.4310
 2943SOL     OW 8827   2.086   1.040   7.023  0.6157  0.2147  0.0772
 2943SOL    HW1 8828   2.043   1.092   6.955  1.4709  1.1224  0.2104
 2943SOL    HW2 8829   2.066   1.086   7.105 -2.1258 -1.9447  0.8115
 2944SOL     OW 8830   3.141   0.724   6.040  0.4637 -0.3030  0.0572
 2944SOL    HW1 8831   3.179   0.686   6.119  0.6705 -0.2167 -0.0025
 2944SOL    HW2 8832   3.049   0.695   6.042  0.7904 -1.4355 -0.3779
 2945SOL     OW 8833   3.760   3.913   9.152 -0.0512 -0.5116 -0.6676
 2945SOL    HW1 8834   3.678   3.945   9.115  0.6039  1.5527 -0.4535
 2945SOL    HW2 8835   3.811   3.992   9.170  0.8868 -1.5671  1.7930
 2946SOL     OW 8836   2.054   4.037   5.913 -0.4569 -0.1818  0.6365
 2946SOL    HW1 8837   2.085   4.095   5.983  0.2325 -0.6675  0.7449
 2946SOL    HW2 8838   2.128   3.978   5.897 -1.8590 -2.5121  2.0977
 2947SOL     OW 8839   1.333   4.322   9.368  0.2324  0.3567 -0.2751
 2947SOL    HW1 8840   1.276   4.250   9.339 -0.4972  0.4888  0.7938
 2947SOL    HW2 8841   1.418   4.279   9.385 -0.4023 -0.4375  1.1140
 2948SOL     OW 8842   3.807   4.192   7.183 -0.0397 -0.4008  0.0067
 2948SOL    HW1 8843   3.715   4.186   7.209 -0.1420  1.2679  0.1393
 2948SOL    HW2 8844   3.809   4.158   7.093 -0.8508 -0.0962 -0.1360
 2949SOL     OW 8845   2.677   0.109   9.789 -0.3579 -0.4904 -0.6500
 2949SOL    HW1 8846   2.667   0.183   9.849 -1.7515 -0.7623 -0.5018
 2949SOL    HW2 8847   2.619   0.041   9.824  0.0433 -1.2431 -1.3996
 2950SOL     OW 8848   3.840   1.168   8.638 -0.3488  0.1950 -0.0313
 2950SOL    HW1 8849   3.897   1.215   8.699  0.5351 -0.7584 -0.1104
 2950SOL    HW2 8850   3.882   1.179   8.552 -0.8090  0.2990 -0.2471
 2951SOL     OW 8851   1.127   3.501   1.917  0.3784  0.7504  0.5018
 2951SOL    HW1 8852   1.036   3.508   1.886  1.0483 -0.2520 -1.8776
 2951SOL    HW2 8853   1.169   3.581   1.884  0.5889  0.7459  0.7602
 2952SOL     OW 8854   3.282   1.559   9.277  0.4183  0.0916 -0.3130
 2952SOL    HW1 8855   3.335   1.486   9.246  2.5680  1.3262  0.2107
 2952SOL    HW2 8856   3.305   1.632   9.219  0.8597  1.1790  1.1634
 2953SOL     OW 8857   1.989   3.840   9.493 -0.3146  0.5253 -0.0640
 2953SOL    HW1 8858   2.030   3.769   9.542 -0.5665  0.3388 -0.1236
 2953SOL    HW2 8859   1.926   3.797   9.435  0.0728  0.7393 -0.6470
 2954SOL     OW 8860   4.181   4.251  10.023  0.5650 -0.0333  0.3432
 2954SOL    HW1 8861   4.110   4.200  10.063 -1.1325  1.0077 -1.1614
 2954SOL    HW2 8862   4.242   4.186   9.990  0.2454 -0.9667  1.5078
 2955SOL     OW 8863   3.035   2.766   7.898  0.2620 -0.1174 -1.1204
 2955SOL    HW1 8864   3.098   2.788   7.830  0.2195  0.7173 -0.8956
 2955SOL    HW2 8865   3.066   2.683   7.933  1.1257  0.1854 -1.1466
 2956SOL     OW 8866   1.504   4.332  10.247  0.0362 -0.5315 -0.6101
 2956SOL    HW1 8867   1.592   4.331  10.285  0.3437  0.2933 -1.2713
 2956SOL    HW2 8868   1.517   4.304  10.156  0.0181  1.9593 -1.4536
 2957SOL     OW 8869   4.304   4.277   9.189  0.1944 -0.3407  0.1111
 2957SOL    HW1 8870   4.329   4.360   9.230  0.0806  0.6797 -1.7878
 2957SOL    HW2 8871   4.214   4.291   9.160 -0.1188 -1.4447  0.5091
 2958SOL     OW 8872   3.292   1.146   7.339  0.0917  0.6477 -0.2430
 2958SOL    HW1 8873   3.272   1.090   7.414 -0.7207  0.6877 -0.4162
 2958SOL    HW2 8874   3.207   1.183   7.313  0.5481  1.6419 -0.3810
 2959SOL     OW 8875   2.602   0.068   9.515 -0.0829 -0.1518  0.1593
 2959SOL    HW1 8876   2.664   0.004   9.480 -0.4596 -0.5918  0.2752
 2959SOL    HW2 8877   2.614   0.064   9.610  1.1755  1.2839  0.0937
 2960SOL     OW 8878   1.790   4.297   9.173 -0.3703 -0.1896  0.4811
 2960SOL    HW1 8879   1.875   4.257   9.195  0.1074  0.6315  0.1487
 2960SOL    HW2 8880   1.771   4.267   9.084  0.3291  0.8631 -0.0402
 2961SOL     OW 8881   3.766   4.429   8.527 -0.4879 -0.0946  0.0804
 2961SOL    HW1 8882   3.746   4.520   8.549  0.3824  0.2572 -0.5219
 2961SOL    HW2 8883   3.709   4.377   8.583  0.2580  0.7850  1.7217
 2962SOL     OW 8884   1.264   4.938   6.330  0.2746  0.3388 -0.8169
 2962SOL    HW1 8885   1.190   4.902   6.378 -0.4959  1.9037 -0.7996
 2962SOL    HW2 8886   1.227   4.972   6.249  1.1912 -0.0843 -1.4335
 2963SOL     OW 8887   1.123   2.818   9.327 -0.1939 -0.0943 -0.1543
 2963SOL    HW1 8888   1.106   2.752   9.260  1.4264 -0.7728  0.0654
 2963SOL    HW2 8889   1.128   2.900   9.280  0.2860 -0.4785 -0.7787
 2964SOL     OW 8890   3.762   1.775   8.594 -0.4354  0.6579  0.1386
 2964SOL    HW1 8891   3.703   1.720   8.544 -2.3136  1.7646  1.0275
 2964SOL    HW2 8892   3.802   1.716   8.658 -1.7424  0.1476  0.5031
 2965SOL     OW 8893   4.401   4.073   8.949  0.1093 -0.3090 -0.2096
 2965SOL    HW1 8894   4.308   4.072   8.970 -0.4309  0.7624 -2.2463
 2965SOL    HW2 8895   4.434   3.990   8.982 -1.3607 -0.3241  1.3370
 2966SOL     OW 8896   1.767   2.434   9.159 -0.8435  0.1946 -0.4410
 2966SOL    HW1 8897   1.732   2.395   9.239  0.7256  0.1075  0.2255
 2966SOL    HW2 8898   1.765   2.528   9.176  0.1044  0.1532  0.0026
 2967SOL     OW 8899   3.151   4.786   7.934 -0.0846  0.6015  0.3393
 2967SOL    HW1 8900   3.231   4.784   7.880 -0.1470  0.6362  0.2464
 2967SOL    HW2 8901   3.171   4.727   8.007 -0.3785 -0.2498 -0.2585
 2968SOL     OW 8902   1.654   3.044   9.151  0.1355 -0.3724 -0.9591
 2968SOL    HW1 8903   1.642   3.110   9.220 -1.1752 -1.9696  0.4054
 2968SOL    HW2 8904   1.709   3.088   9.086  2.0393  0.9846  1.3884
 2969SOL     OW 8905   1.567   2.705   9.875 -0.4870 -0.8943  0.8222
 2969SOL    HW1 8906   1.559   2.702   9.970 -0.1751 -0.1000  0.8887
 2969SOL    HW2 8907   1.601   2.793   9.857 -1.7476 -0.5790 -0.1130
 2970SOL     OW 8908   3.447   1.668   4.784  0.0854 -0.1785 -0.4515
 2970SOL    HW1 8909   3.372   1.727   4.780  0.7101  0.6536 -0.1403
 2970SOL    HW2 8910   3.520   1.724   4.809  0.5599 -1.2251  0.5751
 2971SOL     OW 8911   3.654   3.253   9.632  0.3148  0.6810 -0.0059
 2971SOL    HW1 8912   3.571   3.271   9.587  0.3033 -0.7428 -0.6314
 2971SOL    HW2 8913   3.631   3.252   9.725 -0.5953 -0.5551 -0.2054
 2972SOL     OW 8914   0.514   2.354   9.284  0.0834  0.0427  0.7797
 2972SOL    HW1 8915   0.508   2.430   9.227 -1.9375 -0.0212  0.8119
 2972SOL    HW2 8916   0.520   2.390   9.372 -1.1062  0.2155  0.8148
 2973SOL     OW 8917   2.810   1.387   9.831  0.2701  0.6548 -0.0009
 2973SOL    HW1 8918   2.817   1.291   9.831  0.0088  0.6245 -0.9786
 2973SOL    HW2 8919   2.880   1.416   9.890 -1.0709 -0.2060  2.1430
 2974SOL     OW 8920   3.849   0.525   9.825 -0.6289  0.1912  0.4262
 2974SOL    HW1 8921   3.804   0.608   9.813  1.7980  1.3371 -1.8353
 2974SOL    HW2 8922   3.880   0.527   9.915 -1.8952  1.0135  0.8678
 2975SOL     OW 8923   2.847   0.389   6.772  0.7081 -0.4564  0.1250
 2975SOL    HW1 8924   2.802   0.307   6.792 -0.6286  0.1123 -0.4599
 2975SOL    HW2 8925   2.866   0.427   6.858 -0.7249 -0.2992  0.4012
 2976SOL     OW 8926   4.484   2.697   9.764  0.0127  0.5719  0.1878
 2976SOL    HW1 8927   4.491   2.614   9.716 -0.9811 -0.2373  1.3788
 2976SOL    HW2 8928   4.566   2.742   9.745  0.3690 -0.4569 -0.8851
 2977SOL     OW 8929   4.008   3.488   8.519 -0.1052 -0.0155 -0.4145
 2977SOL    HW1 8930   4.010   3.450   8.431 -1.9540 -0.1211 -0.4641
 2977SOL    HW2 8931   4.072   3.438   8.569 -0.5879 -1.4154 -1.1624
 2978SOL     OW 8932   2.544   0.440   8.423 -1.1353 -0.2644 -0.0137
 2978SOL    HW1 8933   2.613   0.426   8.357 -1.6029 -1.0049 -0.3595
 2978SOL    HW2 8934   2.497   0.357   8.426 -2.6908  0.5649 -0.5604
 2979SOL     OW 8935   2.071   4.585  10.503 -0.3259  0.2165 -0.5238
 2979SOL    HW1 8936   2.163   4.602  10.485 -0.4553  1.1576 -0.3422
 2979SOL    HW2 8937   2.031   4.672  10.511 -1.0331 -0.1713  0.3896
 2980SOL     OW 8938   3.087   2.922   9.780 -0.3794 -0.1153 -0.2281
 2980SOL    HW1 8939   3.023   2.987   9.811 -0.9585 -0.5089 -0.5622
 2980SOL    HW2 8940   3.081   2.926   9.685 -1.9475 -2.0621 -0.2943
 2981SOL     OW 8941   1.430   4.914   9.308  0.8744 -0.1842 -0.1891
 2981SOL    HW1 8942   1.497   4.974   9.277  3.7950 -1.6222  2.6814
 2981SOL    HW2 8943   1.448   4.832   9.262  0.7090 -0.4227  0.1652
 2982SOL     OW 8944   4.920   0.800   9.033 -0.2244 -0.1058 -0.3286
 2982SOL    HW1 8945   4.971   0.744   9.092  1.0993 -1.1271 -2.3596
 2982SOL    HW2 8946   4.829   0.782   9.057  0.2677 -0.0476  1.7618
 2983SOL     OW 8947   4.072   3.304   7.595 -0.0303  0.0130 -0.2181
 2983SOL    HW1 8948   4.007   3.290   7.526  0.1277  2.7743 -1.0653
 2983SOL    HW2 8949   4.136   3.235   7.583 -1.0817 -0.7835 -1.5166
 2984SOL     OW 8950   0.562   0.443   9.811  0.1764  0.5541  0.1564
 2984SOL    HW1 8951   0.607   0.382   9.871 -1.3387 -2.1231 -1.2484
 2984SOL    HW2 8952   0.633   0.480   9.758  1.1018 -0.5025  0.6102
 2985SOL     OW 8953   3.791   0.325   5.341 -0.1672 -0.3871 -0.7155
 2985SOL    HW1 8954   3.818   0.234   5.331 -0.1326 -0.3219 -1.2425
 2985SOL    HW2 8955   3.716   0.322   5.400  1.0425 -0.5639  0.8950
 2986SOL     OW 8956   3.099   4.784   8.883  0.5553  0.0782  0.0603
 2986SOL    HW1 8957   3.165   4.848   8.911 -1.1806  1.1696  1.9315
 2986SOL    HW2 8958   3.016   4.820   8.914 -0.5237 -3.0647  1.2093
 2987SOL     OW 8959   2.610   4.869   7.781 -0.3669 -0.0121  0.2220
 2987SOL    HW1 8960   2.527   4.840   7.745 -0.7657  0.4741  0.7177
 2987SOL    HW2 8961   2.635   4.944   7.727  0.3956 -0.9144 -0.7214
 2988SOL     OW 8962   4.788   4.606   6.763  0.5466  0.8401 -0.0159
 2988SOL    HW1 8963   4.711   4.662   6.763  0.6073  0.9404  0.7768
 2988SOL    HW2 8964   4.756   4.521   6.794  0.2600  0.1278 -2.1297
 2989SOL     OW 8965   4.129   0.264   9.587  0.1776 -0.1673  0.3602
 2989SOL    HW1 8966   4.199   0.280   9.650  0.7140 -1.1283  0.0255
 2989SOL    HW2 8967   4.076   0.344   9.589  0.9434  0.3351  1.0497
 2990SOL     OW 8968   1.807   3.461   9.541 -0.2684  0.1396 -0.0562
 2990SOL    HW1 8969   1.854   3.486   9.462 -0.8109  0.9935 -0.1119
 2990SOL    HW2 8970   1.876   3.431   9.601  0.4094  1.7229 -0.0034
 2991SOL     OW 8971   3.172   3.940   9.193  0.5732 -1.7669  0.0889
 2991SOL    HW1 8972   3.143   3.941   9.284 -1.7161 -1.4951 -0.6016
 2991SOL    HW2 8973   3.093   3.953   9.141  2.0292 -0.1364 -1.9170
 2992SOL     OW 8974   2.880   3.324  10.046 -0.4631  0.0847 -0.4410
 2992SOL    HW1 8975   2.821   3.383   9.997  0.3917  1.2998 -0.0551
 2992SOL    HW2 8976   2.826   3.291  10.118 -0.9586  0.3950 -0.6610
 2993SOL     OW 8977   1.345   4.332   9.672  0.0254  0.3067 -0.3944
 2993SOL    HW1 8978   1.330   4.238   9.675  0.3553  0.2419 -0.8353
 2993SOL    HW2 8979   1.315   4.359   9.585 -2.1550  0.9717  0.4886
 2994SOL     OW 8980   1.326   2.588   9.908 -0.3604 -0.2867 -0.3122
 2994SOL    HW1 8981   1.408   2.627   9.876 -0.7778  1.6546  0.8071
 2994SOL    HW2 8982   1.337   2.494   9.893  2.3365 -0.1846  0.3798
 2995SOL     OW 8983   4.993   4.498   8.924  0.3228 -0.4742 -0.2630
 2995SOL    HW1 8984   4.994   4.480   8.830 -0.0825 -1.8817 -0.0223
 2995SOL    HW2 8985   4.960   4.417   8.963  4.0715 -1.3969  1.4230
 2996SOL     OW 8986   3.441   3.672   7.015  0.0341  0.3112  0.2406
 2996SOL    HW1 8987   3.448   3.657   7.109 -0.5151  0.3487  0.2863
 2996SOL    HW2 8988   3.373   3.612   6.985 -0.7897  1.2863  0.1000
 2997SOL     OW 8989   2.941   4.731   9.207 -0.0348  0.0956 -0.0536
 2997SOL    HW1 8990   2.972   4.815   9.174  0.1199 -1.2890 -3.8311
 2997SOL    HW2 8991   2.845   4.737   9.200 -0.0268 -0.0113 -0.2643
 2998SOL     OW 8992   3.708   3.155   8.706 -0.3227 -0.3005  0.0164
 2998SOL    HW1 8993   3.704   3.241   8.664 -0.1139 -0.4105 -0.2286
 2998SOL    HW2 8994   3.649   3.100   8.654 -0.1242 -0.4164 -0.0885
 2999SOL     OW 8995   4.016   3.037   9.061  0.4710 -0.1451 -0.0037
 2999SOL    HW1 8996   4.043   3.094   9.133  2.2372 -0.3032 -0.4869
 2999SOL    HW2 8997   3.991   3.097   8.991 -1.6205  0.0141  0.8105
 3000SOL     OW 8998   1.486   4.807   9.736 -0.2042 -1.0939 -0.0301
 3000SOL    HW1 8999   1.427   4.789   9.663 -0.1549  0.2984 -0.4466
 3000SOL    HW2 9000   1.475   4.733   9.795  0.0731 -2.4821 -1.6378
 3001SOL     OW 9001   0.990   1.739   9.957  0.6991  0.3012 -0.2148
 3001SOL    HW1 9002   0.943   1.677   9.903  0.4104  1.9338 -1.9405
 3001SOL    HW2 9003   1.078   1.702   9.967  0.4628 -0.4801 -0.9944
 3002SOL     OW 9004   0.600   2.883   9.004 -0.5562  0.1024  0.4496
 3002SOL    HW1 9005   0.679   2.916   9.046 -1.5598  0.6244  2.0028
 3002SOL    HW2 9006   0.566   2.817   9.065 -1.7371  0.4658  0.2092
 3003SOL     OW 9007   3.103   0.326   5.305 -0.0099  0.3707 -0.5172
 3003SOL    HW1 9008   3.023   0.276   5.325 -0.4597  0.9018 -0.9510
 3003SOL    HW2 9009   3.169   0.259   5.287 -0.2480 -0.0799  0.2710
 3004SOL     OW 9010   2.359   1.131   8.036 -0.0620 -0.1277 -0.5820
 3004SOL    HW1 9011   2.402   1.049   8.011 -0.5348 -0.7124  0.4141
 3004SOL    HW2 9012   2.283   1.137   7.979  0.7799  0.4025 -1.6767
 3005SOL     OW 9013   4.493   3.722   8.780  0.2356 -0.5078  0.1668
 3005SOL    HW1 9014   4.504   3.798   8.723 -2.2706 -2.0519 -2.6819
 3005SOL    HW2 9015   4.581   3.684   8.787  1.0747  1.2262 -0.4283
 3006SOL     OW 9016   1.607   3.787   8.666 -0.2214  0.4507  0.0472
 3006SOL    HW1 9017   1.659   3.862   8.638  0.9380 -0.5563 -0.6023
 3006SOL    HW2 9018   1.614   3.725   8.593 -0.3522 -0.6731  0.9645
 3007SOL     OW 9019   4.012   1.737   9.301  0.2917 -0.4369  0.1467
 3007SOL    HW1 9020   3.946   1.806   9.312  0.7824  0.1706 -0.6244
 3007SOL    HW2 9021   4.091   1.773   9.342  0.2947 -0.9572  0.6157
 3008SOL     OW 9022   4.149   3.888   8.821  0.3494 -0.3738 -0.2590
 3008SOL    HW1 9023   4.243   3.892   8.842  0.3038  0.2737 -0.1814
 3008SOL    HW2 9024   4.143   3.818   8.756  0.8454 -0.6262 -0.0429
 3009SOL     OW 9025   1.603   2.551   8.105  0.6193  0.0633  0.9835
 3009SOL    HW1 9026   1.635   2.476   8.054 -0.5514  0.2601 -0.0891
 3009SOL    HW2 9027   1.511   2.530   8.122  0.1806  1.4033  0.3692
 3010SOL     OW 9028   1.098   3.708   7.460 -0.0233  0.0436  0.1379
 3010SOL    HW1 9029   1.148   3.637   7.420 -0.2644 -0.4170  0.6435
 3010SOL    HW2 9030   1.062   3.756   7.386 -0.9070 -1.1079 -0.2134
 3011SOL     OW 9031   3.717   2.231   9.520 -0.4313 -0.1942  0.4535
 3011SOL    HW1 9032   3.649   2.231   9.587  0.8792  1.1173  1.8411
 3011SOL    HW2 9033   3.770   2.153   9.540  0.8704  1.0096  1.9942
 3012SOL     OW 9034   4.348   4.497   8.130  0.9363 -0.2382 -0.2126
 3012SOL    HW1 9035   4.438   4.501   8.161  0.3776  1.5536  1.3984
 3012SOL    HW2 9036   4.327   4.587   8.105 -1.2154  0.0316  2.1101
 3013SOL     OW 9037   2.985   3.936   9.828  0.7034 -0.2611 -0.1114
 3013SOL    HW1 9038   3.020   4.023   9.808  0.7133 -0.5585 -1.4804
 3013SOL    HW2 9039   2.940   3.909   9.748  0.2621 -1.3077  0.4675
 3014SOL     OW 9040   0.791   0.434   8.546  0.4541 -0.3615  0.5729
 3014SOL    HW1 9041   0.883   0.408   8.533  1.0716  0.9954  1.9207
 3014SOL    HW2 9042   0.742   0.353   8.539  1.8081 -1.1922  0.2948
 3015SOL     OW 9043   2.837   4.907   9.491  0.2509 -0.1119  0.0328
 3015SOL    HW1 9044   2.923   4.911   9.532 -0.1156 -2.9051  1.2981
 3015SOL    HW2 9045   2.854   4.903   9.397  1.5083 -0.9018  0.2841
 3016SOL     OW 9046   1.310   0.424   7.807 -0.1140  0.5095 -0.4828
 3016SOL    HW1 9047   1.221   0.423   7.842  0.0688  1.7360  0.0593
 3016SOL    HW2 9048   1.335   0.331   7.805 -1.0598  0.2118  0.2441
 3017SOL     OW 9049   3.048   4.490   9.343  0.0877  0.8057  0.4812
 3017SOL    HW1 9050   3.039   4.469   9.436  1.1724  1.2385  0.6954
 3017SOL    HW2 9051   2.980   4.556   9.327 -1.3634 -0.6345  0.5006
 3018SOL     OW 9052   2.760   0.663   6.957 -0.2637  0.2090 -0.1353
 3018SOL    HW1 9053   2.703   0.725   7.002  0.4707  0.9191 -0.1500
 3018SOL    HW2 9054   2.836   0.716   6.930  0.2067 -0.6201 -0.4745
 3019SOL     OW 9055   2.227   3.492   7.201 -0.5901 -0.2285  0.8176
 3019SOL    HW1 9056   2.207   3.405   7.236  0.2747 -0.8018 -0.0721
 3019SOL    HW2 9057   2.256   3.543   7.277  2.0361 -1.6812  0.8859
 3020SOL     OW 9058   0.433   0.944   8.016 -0.0869 -0.5129  0.0642
 3020SOL    HW1 9059   0.445   0.901   7.932 -0.8961 -1.7495  0.5560
 3020SOL    HW2 9060   0.339   0.948   8.028  0.0255 -1.5469  1.4970
 3021SOL     OW 9061   3.122  -0.002   9.302 -0.5139  0.0098  0.6937
 3021SOL    HW1 9062   3.065   0.065   9.265 -0.8296 -0.4705  0.3018
 3021SOL    HW2 9063   3.122   0.015   9.396  0.4955  1.3929  0.4727
 3022SOL     OW 9064   0.982   2.915   7.636  0.3049 -0.1312 -0.4121
 3022SOL    HW1 9065   0.909   2.888   7.579 -0.2751  2.0454 -0.7914
 3022SOL    HW2 9066   1.053   2.855   7.613 -1.0389 -1.6655 -0.7622
 3023SOL     OW 9067   3.653   1.036   9.343  0.2844  0.1369  0.0322
 3023SOL    HW1 9068   3.561   1.014   9.327  0.6972 -1.4509 -0.2516
 3023SOL    HW2 9069   3.687   0.963   9.394  1.6312  0.2555 -0.6597
 3024SOL     OW 9070   2.487   3.386   9.889 -0.5029  0.5962  0.1082
 3024SOL    HW1 9071   2.422   3.416   9.826 -0.4449 -0.9651 -0.7316
 3024SOL    HW2 9072   2.524   3.467   9.926 -1.8482  1.5066 -0.4839
 3025SOL     OW 9073   3.053   3.568   8.062  0.6053  0.7548 -0.0022
 3025SOL    HW1 9074   2.964   3.553   8.031 -0.0749  2.5583  0.9247
 3025SOL    HW2 9075   3.108   3.561   7.984 -0.4755  0.6837 -0.7755
 3026SOL     OW 9076   4.987   3.846   9.444  0.0912 -0.7052 -0.4624
 3026SOL    HW1 9077   4.973   3.887   9.529  2.5249 -3.3101  1.4016
 3026SOL    HW2 9078   5.012   3.918   9.386  1.8467  0.8096  1.9793
 3027SOL     OW 9079   4.174   3.287   8.578  0.5745  0.0021 -0.3387
 3027SOL    HW1 9080   4.268   3.272   8.593  0.6846 -2.0209 -2.4353
 3027SOL    HW2 9081   4.138   3.200   8.561 -1.0568  1.0193 -2.6381
 3028SOL     OW 9082   2.609   1.558   8.197 -0.0728 -0.3512  0.6829
 3028SOL    HW1 9083   2.598   1.464   8.179 -0.4483  0.0857 -1.8480
 3028SOL    HW2 9084   2.701   1.575   8.180 -0.2707 -0.0705 -0.2031
 3029SOL     OW 9085   1.004   4.066   9.352 -0.0268 -0.6794  0.4278
 3029SOL    HW1 9086   0.911   4.085   9.355 -0.4200 -2.2132 -1.0394
 3029SOL    HW2 9087   1.043   4.141   9.306 -0.4343  0.2087  1.4974
 3030SOL     OW 9088   1.956   3.750   9.983  0.1494  0.4885  0.4344
 3030SOL    HW1 9089   1.916   3.765   9.897 -0.3306  0.6712  0.6841
 3030SOL    HW2 9090   2.010   3.828   9.998 -0.2797  0.7605  0.5814
 3031SOL     OW 9091   3.187   4.699   8.582  0.0518  0.0516  0.5759
 3031SOL    HW1 9092   3.152   4.744   8.659 -0.5139  0.2188  0.2272
 3031SOL    HW2 9093   3.249   4.635   8.618 -1.1055 -0.7328  1.2712
 3032SOL     OW 9094   0.454   0.700   8.198 -0.4030  0.0046  0.8030
 3032SOL    HW1 9095   0.478   0.753   8.121  0.6965  0.7356  1.6163
 3032SOL    HW2 9096   0.374   0.655   8.172 -1.4992  2.2019  0.1101
 3033SOL     OW 9097   0.989   0.019   8.852  0.4658 -0.8566 -0.2329
 3033SOL    HW1 9098   0.987   0.070   8.771  0.8246  0.5586  0.6222
 3033SOL    HW2 9099   1.082   0.016   8.877  0.3041 -0.8342  0.3952
 3034SOL     OW 9100   3.722   3.654   9.408 -0.3420  0.0615 -0.5448
 3034SOL    HW1 9101   3.759   3.566   9.421 -1.6467 -0.3677  0.5497
 3034SOL    HW2 9102   3.784   3.712   9.451 -0.3281 -0.5319  0.2786
 3035SOL     OW 9103   4.374   4.922   8.803  0.2336 -0.5267 -0.5658
 3035SOL    HW1 9104   4.345   4.896   8.716  0.4198  0.1168 -0.8294
 3035SOL    HW2 9105   4.442   4.988   8.787 -0.9439  0.8871  0.0816
 3036SOL     OW 9106   3.565   3.297   8.392 -0.1050  0.8471 -0.5368
 3036SOL    HW1 9107   3.599   3.247   8.317  1.9252  0.7471  0.3767
 3036SOL    HW2 9108   3.532   3.231   8.453  0.3246  0.7726 -0.3818
 3037SOL     OW 9109   1.385   0.500   9.901  0.1067  0.3923  0.1716
 3037SOL    HW1 9110   1.344   0.489   9.815  0.4025  0.7806 -0.0275
 3037SOL    HW2 9111   1.395   0.412   9.935 -1.3303  0.3097  0.4381
 3038SOL     OW 9112   1.696   3.361   8.974  0.3703  0.6966 -0.1114
 3038SOL    HW1 9113   1.615   3.412   8.975  0.8402  1.6245 -2.5747
 3038SOL    HW2 9114   1.686   3.301   8.901  1.1704 -0.5333  0.7441
 3039SOL     OW 9115   0.348   3.827   9.066  0.4392  0.3133 -0.5063
 3039SOL    HW1 9116   0.423   3.876   9.034  0.8215  1.2504  1.6022
 3039SOL    HW2 9117   0.308   3.885   9.131 -0.9669 -0.9329 -0.2037
 3040SOL     OW 9118   4.749   4.107   8.080  0.2034 -0.1517 -0.4183
 3040SOL    HW1 9119   4.748   4.012   8.091  2.7031 -0.1083  0.9077
 3040SOL    HW2 9120   4.726   4.141   8.166  3.8885  0.3078  0.5761
 3041SOL     OW 9121   0.993   2.044   7.642 -0.4542 -0.7694 -0.1792
 3041SOL    HW1 9122   1.013   2.075   7.731 -1.7905 -0.4254  0.0263
 3041SOL    HW2 9123   1.070   1.995   7.616  0.4899  0.2143  0.6720
 3042SOL     OW 9124   1.909   0.735   9.450  0.2490 -0.5162  0.2572
 3042SOL    HW1 9125   1.970   0.662   9.436 -1.1529 -1.8987  1.0250
 3042SOL    HW2 9126   1.867   0.715   9.534 -1.3416  0.3133 -0.3128
 3043SOL     OW 9127   0.942   0.258   8.221  0.1945 -0.2951  0.7474
 3043SOL    HW1 9128   0.883   0.197   8.266 -2.9626 -1.6188 -4.4074
 3043SOL    HW2 9129   1.006   0.202   8.177  1.7214  0.7882  1.4822
 3044SOL     OW 9130   4.158   3.352   9.703 -0.3453  0.5977  0.0231
 3044SOL    HW1 9131   4.220   3.377   9.771 -0.2444  0.9203 -0.1824
 3044SOL    HW2 9132   4.072   3.361   9.743 -0.2511 -0.2062  0.4253
 3045SOL     OW 9133   1.121   4.273   8.750  0.0495 -0.2982  0.8360
 3045SOL    HW1 9134   1.064   4.286   8.674 -0.3718 -0.0195  1.1929
 3045SOL    HW2 9135   1.071   4.215   8.807  0.1491 -0.1012  1.1245
 3046SOL     OW 9136   0.275   4.403   9.025  0.8444 -0.8407  0.4362
 3046SOL    HW1 9137   0.314   4.316   9.021 -2.9770 -2.9155  2.8834
 3046SOL    HW2 9138   0.216   4.407   8.951  1.6762  0.1450 -0.2106
 3047SOL     OW 9139   0.896   2.416   4.997  0.0058 -0.4818 -0.2984
 3047SOL    HW1 9140   0.815   2.394   5.043 -0.6459 -0.2134 -1.2844
 3047SOL    HW2 9141   0.965   2.376   5.050 -0.7699 -0.7799  0.5204
 3048SOL     OW 9142   2.102   1.317   5.774  0.5678  0.5287 -0.0621
 3048SOL    HW1 9143   2.013   1.289   5.753  1.5533 -2.5466 -0.5429
 3048SOL    HW2 9144   2.106   1.314   5.870  1.1025 -2.9621 -0.0862
 3049SOL     OW 9145   4.892   4.951   8.288  0.3158 -0.1730  0.6569
 3049SOL    HW1 9146   4.984   4.975   8.277  0.4138 -0.7222  0.2384
 3049SOL    HW2 9147   4.844   5.032   8.273  0.7018 -0.0109  0.2914
 3050SOL     OW 9148   3.730   1.031   8.310 -0.0649  0.2313 -0.3405
 3050SOL    HW1 9149   3.663   1.041   8.378  1.2346 -2.0524  1.4283
 3050SOL    HW2 9150   3.727   0.939   8.286  1.4584  0.3911 -1.2591
 3051SOL     OW 9151   3.553   0.809   5.100 -0.2192 -0.0385  0.1905
 3051SOL    HW1 9152   3.634   0.758   5.103  0.9411  1.7507  0.4011
 3051SOL    HW2 9153   3.559   0.869   5.174  1.1586  4.2136 -2.9307
 3052SOL     OW 9154   0.066   2.979   5.873  0.1957 -0.3081  0.5945
 3052SOL    HW1 9155   0.108   3.003   5.790  1.1263 -1.6921  0.6200
 3052SOL    HW2 9156   0.026   3.060   5.905  0.8043  0.5062 -0.6420
 3053SOL     OW 9157   3.258   0.961   6.277  0.6561 -0.5989  0.3629
 3053SOL    HW1 9158   3.344   0.978   6.238  0.4723 -0.6494 -0.0678
 3053SOL    HW2 9159   3.196   0.981   6.207  0.2749  0.1880  0.9072
 3054SOL     OW 9160   3.064   3.847   8.184  0.0858  0.0730 -0.3102
 3054SOL    HW1 9161   3.157   3.859   8.167 -0.2711  1.6037 -1.3903
 3054SOL    HW2 9162   3.039   3.771   8.132  1.2282 -2.0944  2.0878
 3055SOL     OW 9163   0.467   1.060   7.501  0.4238 -0.2101  0.2135
 3055SOL    HW1 9164   0.502   0.979   7.464  1.0028 -0.0540  0.4174
 3055SOL    HW2 9165   0.410   1.095   7.433  1.2846 -0.0511 -0.4318
 3056SOL     OW 9166   1.711   1.859   6.600  0.1313 -0.0929  1.0378
 3056SOL    HW1 9167   1.621   1.877   6.627  0.4811 -0.1086  2.2679
 3056SOL    HW2 9168   1.707   1.771   6.561 -0.7541  0.7439 -0.8804
 3057SOL     OW 9169   3.689   3.625   4.764  0.0383  0.3282 -0.4375
 3057SOL    HW1 9170   3.607   3.651   4.806 -0.6382 -1.9530 -0.1744
 3057SOL    HW2 9171   3.758   3.655   4.824 -0.7947 -0.6048  1.0516
 3058SOL     OW 9172   1.684   0.074   8.225  0.1439 -0.0842 -0.2373
 3058SOL    HW1 9173   1.700   0.167   8.243 -1.8612  0.0948  0.8720
 3058SOL    HW2 9174   1.594   0.071   8.195  0.2782 -1.6578 -0.5509
 3059SOL     OW 9175   3.935   1.558   7.586  0.4503  0.1043  0.3384
 3059SOL    HW1 9176   3.941   1.652   7.602 -1.4624  0.4580 -0.7357
 3059SOL    HW2 9177   4.004   1.540   7.522 -0.2079  1.1224 -0.6980
 3060SOL     OW 9178   2.925   3.775   5.957  0.6936 -0.0977  0.2137
 3060SOL    HW1 9179   2.858   3.710   5.931 -0.7934  0.7465  1.7427
 3060SOL    HW2 9180   3.008   3.729   5.945 -0.2113 -1.6686 -0.4574
 3061SOL     OW 9181   2.769   1.203   8.313  0.6030  0.4128  0.8664
 3061SOL    HW1 9182   2.821   1.122   8.312 -0.9237 -0.6032  1.0409
 3061SOL    HW2 9183   2.802   1.252   8.388  3.0837  1.0476 -0.5038
 3062SOL     OW 9184   4.404   3.735   7.214 -0.2127  0.0025  0.0354
 3062SOL    HW1 9185   4.487   3.700   7.245  0.4860  0.4847 -1.2477
 3062SOL    HW2 9186   4.415   3.830   7.219  0.7442  0.2089 -3.5642
 3063SOL     OW 9187   3.091   0.317   6.300 -0.2201  0.2206  0.0108
 3063SOL    HW1 9188   3.131   0.297   6.384 -0.2930  1.7054  0.4319
 3063SOL    HW2 9189   3.004   0.350   6.321 -0.2007  0.7105 -0.6314
 3064SOL     OW 9190   1.331   0.181   7.456 -0.2434 -0.3474 -0.8160
 3064SOL    HW1 9191   1.380   0.144   7.381 -0.1257  1.2089 -1.5548
 3064SOL    HW2 9192   1.240   0.182   7.427 -0.1435  0.6776 -1.1670
 3065SOL     OW 9193   0.474   1.301   4.987  0.7580 -0.2722  0.6406
 3065SOL    HW1 9194   0.415   1.227   4.999 -0.6369  0.4381 -1.1869
 3065SOL    HW2 9195   0.426   1.376   5.024 -0.9590  0.8364 -3.2783
 3066SOL     OW 9196   0.327   2.220   6.476 -0.2276  0.3296  0.5499
 3066SOL    HW1 9197   0.382   2.151   6.513  1.3952  0.8852 -0.6988
 3066SOL    HW2 9198   0.310   2.279   6.549 -0.9793 -0.9509  1.4445
 3067SOL     OW 9199   3.008   2.359   5.956  0.2258 -1.3663  0.0521
 3067SOL    HW1 9200   3.035   2.412   5.881  0.4229 -2.5152 -0.7208
 3067SOL    HW2 9201   3.013   2.418   6.030  4.4355 -1.2778 -0.0751
 3068SOL     OW 9202   0.520   0.352   5.774 -0.5690  0.0419 -0.0814
 3068SOL    HW1 9203   0.610   0.351   5.744 -0.6964  0.2929 -0.4745
 3068SOL    HW2 9204   0.485   0.266   5.749  0.5705 -1.5888  3.2436
 3069SOL     OW 9205   3.725   1.689   6.556 -0.5894 -0.2356  0.1897
 3069SOL    HW1 9206   3.802   1.701   6.612 -1.1557 -1.7580  1.3656
 3069SOL    HW2 9207   3.698   1.599   6.572 -1.9826 -0.0616 -1.0312
 3070SOL     OW 9208   2.570   2.156   6.380 -0.8327  0.4338  0.4935
 3070SOL    HW1 9209   2.514   2.234   6.383 -2.4392 -0.5638 -1.2188
 3070SOL    HW2 9210   2.509   2.083   6.387 -0.0034 -0.7606 -2.8659
 3071SOL     OW 9211   3.612   1.031   6.206 -0.0963 -0.2081 -0.1351
 3071SOL    HW1 9212   3.545   1.057   6.142  0.9292  1.9730 -0.4162
 3071SOL    HW2 9213   3.670   1.107   6.212 -0.3926 -0.0518  3.7560
 3072SOL     OW 9214   1.557   1.201   6.097  0.0897  0.3009  0.4733
 3072SOL    HW1 9215   1.523   1.131   6.153 -1.0200 -0.7439 -1.3903
 3072SOL    HW2 9216   1.527   1.178   6.009  0.6300  2.5641 -0.3787
 3073SOL     OW 9217   0.706   1.853   6.252  0.1908  0.1509  0.3746
 3073SOL    HW1 9218   0.672   1.895   6.173  3.2528 -0.6405 -1.5640
 3073SOL    HW2 9219   0.667   1.901   6.324 -2.2727  1.3442 -1.5868
 3074SOL     OW 9220   0.612   0.335   6.513  0.5506  0.6587 -0.4211
 3074SOL    HW1 9221   0.559   0.384   6.575  1.3998  0.2307  0.6798
 3074SOL    HW2 9222   0.666   0.402   6.470  0.2021  0.9225 -0.4480
 3075SOL     OW 9223   1.923   1.938   9.077 -0.7595 -0.0056  0.1099
 3075SOL    HW1 9224   2.014   1.968   9.076 -0.9923  1.0467  2.8731
 3075SOL    HW2 9225   1.930   1.842   9.078  0.4248  0.0458  1.8038
 3076SOL     OW 9226   2.933   0.472   5.631 -0.2919  0.4067  0.0834
 3076SOL    HW1 9227   2.913   0.486   5.538 -2.7608  1.9685  0.7432
 3076SOL    HW2 9228   2.851   0.440   5.668  0.3752  0.6867  1.8881
 3077SOL     OW 9229   2.229   0.099   5.160  0.2868  0.0980  0.1714
 3077SOL    HW1 9230   2.290   0.027   5.144 -1.0470 -0.5756 -2.4699
 3077SOL    HW2 9231   2.286   0.175   5.174  1.7303 -0.9640  0.3591
 3078SOL     OW 9232   0.678   0.405   6.007 -0.3601  0.2914  0.1877
 3078SOL    HW1 9233   0.614   0.398   5.936  0.5969 -1.7799 -0.5373
 3078SOL    HW2 9234   0.650   0.339   6.070  1.7065 -1.5086 -0.7043
 3079SOL     OW 9235   2.014   4.103   5.604  0.2942 -0.4923  0.2074
 3079SOL    HW1 9236   2.011   4.107   5.700  2.1380 -1.3442  0.3372
 3079SOL    HW2 9237   2.071   4.175   5.578 -1.3449  0.6624 -0.4076
 3080SOL     OW 9238   1.704   1.088   5.254  0.5569  0.4137  0.2502
 3080SOL    HW1 9239   1.789   1.046   5.272 -0.7079 -1.0133  3.7469
 3080SOL    HW2 9240   1.726   1.161   5.196  3.5899 -2.0393 -2.1195
 3081SOL     OW 9241   3.938   2.178   5.517  0.0988 -0.0134 -0.6001
 3081SOL    HW1 9242   3.919   2.141   5.604 -0.2976  0.7366 -0.3600
 3081SOL    HW2 9243   4.026   2.214   5.524  0.4384 -0.7728 -0.7982
 3082SOL     OW 9244   3.130   0.037   6.244 -0.1565  0.2073  0.2397
 3082SOL    HW1 9245   3.154   0.128   6.255 -0.7725  0.2672  1.2037
 3082SOL    HW2 9246   3.195  -0.012   6.294  0.5774  0.0525 -0.8289
 3083SOL     OW 9247   1.589   4.985   7.823  0.5503  0.0691  0.1151
 3083SOL    HW1 9248   1.626   4.950   7.742  0.2576  0.6555 -0.2747
 3083SOL    HW2 9249   1.637   4.940   7.892  1.7720  0.5685 -0.3778
 3084SOL     OW 9250   4.606   0.033   9.846  0.2271 -0.4756 -0.1490
 3084SOL    HW1 9251   4.516   0.058   9.871  0.5979 -0.1857  0.9598
 3084SOL    HW2 9252   4.615  -0.057   9.878  0.0562 -0.8165 -1.0319
 3085SOL     OW 9253   1.938   1.000   5.998  0.3948  0.0103 -0.5519
 3085SOL    HW1 9254   2.033   1.013   5.988  0.4446  0.6374  0.5564
 3085SOL    HW2 9255   1.912   1.066   6.062 -1.0014  0.6019 -1.6830
 3086SOL     OW 9256   1.071   4.368   8.024  0.6145  0.1496 -0.2785
 3086SOL    HW1 9257   1.111   4.301   8.079  2.0666  2.0986  1.1885
 3086SOL    HW2 9258   1.145   4.418   7.989 -0.4088  1.0908 -1.1866
 3087SOL     OW 9259   1.246   0.879   6.695  0.1841  0.3896 -0.1654
 3087SOL    HW1 9260   1.261   0.930   6.775 -0.8244  1.2641 -0.5057
 3087SOL    HW2 9261   1.310   0.808   6.700 -1.3950 -1.0316  2.6383
 3088SOL     OW 9262   4.151   2.073   5.295 -0.1728 -0.3326  0.0452
 3088SOL    HW1 9263   4.182   2.065   5.386  2.6699 -3.3089 -0.9920
 3088SOL    HW2 9264   4.064   2.111   5.303  0.1023 -0.1160  3.9995
 3089SOL     OW 9265   1.683   3.374   5.159  0.2943 -0.4775  0.3779
 3089SOL    HW1 9266   1.612   3.424   5.200 -1.7821 -1.5101 -1.7333
 3089SOL    HW2 9267   1.762   3.403   5.205 -1.3595  1.3395  2.2928
 3090SOL     OW 9268   3.689   0.411   6.476 -0.5538 -0.0088  0.0178
 3090SOL    HW1 9269   3.684   0.437   6.384  0.0063 -0.1275 -0.0479
 3090SOL    HW2 9270   3.601   0.380   6.497 -1.5872  2.7724  0.3433
 3091SOL     OW 9271   0.244   4.623   6.006 -0.3217 -0.2472 -0.1186
 3091SOL    HW1 9272   0.234   4.714   6.032  2.3748  0.0886  0.0730
 3091SOL    HW2 9273   0.177   4.609   5.939 -1.1906  1.6542  0.2874
 3092SOL     OW 9274   4.275   4.525   6.582  0.3509 -0.3202  0.4357
 3092SOL    HW1 9275   4.268   4.461   6.653 -0.9845  0.9824  1.5513
 3092SOL    HW2 9276   4.188   4.565   6.577  0.6072  0.0843 -1.5231
 3093SOL     OW 9277   4.379   2.471   6.317 -0.0892 -0.5579 -0.9144
 3093SOL    HW1 9278   4.346   2.400   6.261 -2.0601 -1.0287  0.7562
 3093SOL    HW2 9279   4.355   2.551   6.271 -0.7960 -0.9440 -1.2319
 3094SOL     OW 9280   3.801   1.205   6.508 -0.0888  0.2203 -0.3153
 3094SOL    HW1 9281   3.868   1.192   6.441 -0.1823  1.1068 -0.5866
 3094SOL    HW2 9282   3.828   1.284   6.555  0.1590 -0.5757  0.9237
 3095SOL     OW 9283   1.126   2.234   5.347 -0.5353 -0.2366 -0.3223
 3095SOL    HW1 9284   1.129   2.143   5.378  1.6617  0.3270  1.3829
 3095SOL    HW2 9285   1.137   2.286   5.427  1.8856  1.4214 -1.6353
 3096SOL     OW 9286   1.887   1.244   5.498  0.7540 -0.6607  0.4305
 3096SOL    HW1 9287   1.796   1.227   5.522  0.6051  0.8568  0.9960
 3096SOL    HW2 9288   1.899   1.338   5.509  2.9304 -1.0412  2.2313
 3097SOL     OW 9289   1.197   1.982   7.449 -0.9249  0.4487 -0.2671
 3097SOL    HW1 9290   1.180   1.958   7.358 -0.0026 -0.7952 -0.1336
 3097SOL    HW2 9291   1.285   1.951   7.466 -0.9863  0.9106  0.9824
 3098SOL     OW 9292   4.787   3.217   5.063 -0.0830 -0.5074  0.8690
 3098SOL    HW1 9293   4.770   3.303   5.025 -0.7249 -0.6764  0.7638
 3098SOL    HW2 9294   4.865   3.185   5.019 -1.5507 -1.2888 -1.3296
 3099SOL     OW 9295   5.008   0.451   8.587 -0.0227  0.3274 -0.4259
 3099SOL    HW1 9296   5.000   0.362   8.552  0.2582  0.0098  0.2963
 3099SOL    HW2 9297   4.988   0.442   8.680  1.0900  0.8285 -0.1200
 3100SOL     OW 9298   0.966   1.289   6.573  0.1836  0.2757 -0.0091
 3100SOL    HW1 9299   0.989   1.361   6.514  1.0142  1.5692  1.7828
 3100SOL    HW2 9300   1.026   1.299   6.647  0.2596 -2.2429  0.3518
 3101SOL     OW 9301   3.785   1.219   6.190  0.1149 -0.3618  0.2222
 3101SOL    HW1 9302   3.847   1.262   6.249  2.3890 -1.0421 -1.5579
 3101SOL    HW2 9303   3.737   1.292   6.149  1.2134  0.3149  0.0969
 3102SOL     OW 9304   3.838   2.618   5.033 -0.4822 -0.3277  0.3331
 3102SOL    HW1 9305   3.858   2.535   5.075 -0.8082 -0.7114 -0.2503
 3102SOL    HW2 9306   3.787   2.594   4.956 -0.0908  0.3712 -0.1585
 3103SOL     OW 9307   3.251   3.188   5.534  0.4879  0.6658 -0.1902
 3103SOL    HW1 9308   3.300   3.145   5.604 -0.3896  1.6230  1.0511
 3103SOL    HW2 9309   3.165   3.145   5.536  0.0580  1.5268  0.1545
 3104SOL     OW 9310   2.206   4.880   6.770 -0.3588 -0.1405 -0.4897
 3104SOL    HW1 9311   2.226   4.795   6.731  2.0660 -0.2203  0.7226
 3104SOL    HW2 9312   2.122   4.905   6.732 -0.5219 -2.4760 -1.8480
 3105SOL     OW 9313   0.035   1.913   5.092  0.1286  0.3679  0.9573
 3105SOL    HW1 9314   0.110   1.929   5.034  0.4609 -0.3040  1.1923
 3105SOL    HW2 9315  -0.039   1.900   5.033  0.1521  1.1950  0.7233
 3106SOL     OW 9316   2.673   4.692   5.208  0.1677 -0.2217 -0.1490
 3106SOL    HW1 9317   2.739   4.631   5.240  0.3301  0.0773  0.0925
 3106SOL    HW2 9318   2.594   4.672   5.258  0.8470  1.3355  1.6907
 3107SOL     OW 9319   3.860   0.381   6.057  0.1822 -0.2803 -0.5493
 3107SOL    HW1 9320   3.792   0.407   6.119  0.1203 -1.7030  0.0302
 3107SOL    HW2 9321   3.817   0.316   6.001  0.6058  0.0313 -1.2421
 3108SOL     OW 9322   4.488   1.712   6.796  0.3294  0.5296  0.2422
 3108SOL    HW1 9323   4.564   1.758   6.759 -0.2973 -0.7358 -2.9617
 3108SOL    HW2 9324   4.524   1.631   6.831  0.6224  0.4919 -0.1337
 3109SOL     OW 9325   0.842   4.824   7.246 -0.5656 -0.0259  0.2570
 3109SOL    HW1 9326   0.863   4.871   7.165 -0.5236  1.8152  1.2830
 3109SOL    HW2 9327   0.746   4.822   7.247 -0.5630 -0.8574 -0.2589
 3110SOL     OW 9328   2.567   1.918   7.720  0.1726 -0.3296  0.3514
 3110SOL    HW1 9329   2.475   1.945   7.727  0.1160 -0.8941  2.4601
 3110SOL    HW2 9330   2.617   1.997   7.740  0.2312  0.2262 -1.7203
 3111SOL     OW 9331   4.528   3.320   8.689 -0.3677  0.5826 -0.3257
 3111SOL    HW1 9332   4.508   3.281   8.604  0.4286  1.0192 -0.7230
 3111SOL    HW2 9333   4.469   3.275   8.751  0.1628 -0.8826 -0.8386
 3112SOL     OW 9334   0.031   4.457   5.113 -0.6175 -0.2012  0.0834
 3112SOL    HW1 9335  -0.040   4.458   5.177 -1.3177  1.5360 -0.6331
 3112SOL    HW2 9336   0.088   4.528   5.140  0.6205 -1.2761  0.3659
 3113SOL     OW 9337   3.032   0.830   8.706  0.1459 -0.4147  0.0162
 3113SOL    HW1 9338   2.977   0.823   8.784  1.3526  0.0886  0.9438
 3113SOL    HW2 9339   2.974   0.867   8.639 -0.2705  1.5556  1.3887
 3114SOL     OW 9340   1.189   2.066   5.739 -0.2164  0.2765  0.2347
 3114SOL    HW1 9341   1.106   2.106   5.765  0.2898  0.5828  1.4556
 3114SOL    HW2 9342   1.244   2.071   5.817  0.5359 -1.0556 -0.1727
 3115SOL     OW 9343   4.397   4.774   6.492 -0.1879  0.3534  0.0911
 3115SOL    HW1 9344   4.489   4.798   6.499 -0.3562  0.6225  1.8347
 3115SOL    HW2 9345   4.398   4.679   6.489  0.2469  0.3878 -2.3926
 3116SOL     OW 9346   3.053   2.364   7.396 -0.1229  0.0975 -0.2307
 3116SOL    HW1 9347   2.961   2.378   7.418 -0.1983  1.3246 -1.2171
 3116SOL    HW2 9348   3.052   2.325   7.309  0.2652 -1.2909  0.3659
 3117SOL     OW 9349   1.098   2.712   6.780  0.1147  0.2916 -0.4592
 3117SOL    HW1 9350   1.180   2.726   6.828  1.2680 -0.1938 -2.1907
 3117SOL    HW2 9351   1.098   2.618   6.759 -0.9630  0.2584 -0.3856
 3118SOL     OW 9352   3.633   1.486   7.896  0.2278 -0.1391 -0.4112
 3118SOL    HW1 9353   3.615   1.392   7.898  1.5065 -0.4026 -0.1981
 3118SOL    HW2 9354   3.729   1.492   7.887  0.3228  1.1385  1.0426
 3119SOL     OW 9355   2.823   2.912   5.369  0.0084 -0.0369 -0.3411
 3119SOL    HW1 9356   2.827   2.998   5.328  2.2292  1.3386  2.3908
 3119SOL    HW2 9357   2.884   2.858   5.319  1.4595  1.1278  0.0973
 3120SOL     OW 9358   3.610   3.363   4.748  0.3605 -0.4729  0.3452
 3120SOL    HW1 9359   3.560   3.345   4.668  0.6463  0.4357 -0.0565
 3120SOL    HW2 9360   3.635   3.456   4.740  0.9892 -0.5611  1.1564
 3121SOL     OW 9361   0.538   1.457   6.097  0.1004 -0.8053 -0.2352
 3121SOL    HW1 9362   0.550   1.503   6.180 -0.6453 -1.2832  0.1461
 3121SOL    HW2 9363   0.496   1.375   6.121 -1.1152 -0.4880 -1.1772
 3122SOL     OW 9364   3.895   2.888   8.404  0.0093 -0.0416  0.7195
 3122SOL    HW1 9365   3.827   2.892   8.337 -0.0354  0.3367  0.7848
 3122SOL    HW2 9366   3.974   2.921   8.361 -0.2783  1.2775  1.1633
 3123SOL     OW 9367   4.843   0.654   4.746 -0.0106  0.0681 -0.5766
 3123SOL    HW1 9368   4.933   0.679   4.766 -0.7291  0.9904  1.9131
 3123SOL    HW2 9369   4.792   0.735   4.758 -1.6043 -1.1381  1.7705
 3124SOL     OW 9370   4.310   1.906   7.744 -0.4661  0.7582 -0.2901
 3124SOL    HW1 9371   4.276   1.996   7.751 -0.9008  0.5818 -0.1222
 3124SOL    HW2 9372   4.398   1.911   7.782 -0.1789  1.2779 -0.9854
 3125SOL     OW 9373   4.752   0.295   7.689  0.3761  0.0401  0.1942
 3125SOL    HW1 9374   4.766   0.256   7.603  2.7444  1.3690 -0.0927
 3125SOL    HW2 9375   4.830   0.274   7.739  0.8633  2.6134  0.6749
 3126SOL     OW 9376   1.860   4.048   6.446  0.5297 -0.3820  0.2238
 3126SOL    HW1 9377   1.877   4.125   6.501 -0.7416  1.3920 -1.7372
 3126SOL    HW2 9378   1.821   3.984   6.506 -2.9835  2.3093  1.0774
 3127SOL     OW 9379   1.850   0.350   7.330 -0.0923 -0.6779 -0.2475
 3127SOL    HW1 9380   1.810   0.316   7.250 -1.0589 -1.5570  0.5729
 3127SOL    HW2 9381   1.839   0.279   7.394 -0.8058  0.5884  1.1015
 3128SOL     OW 9382   0.474   2.032   6.632  0.0954  0.3354 -0.2435
 3128SOL    HW1 9383   0.561   2.006   6.662  0.0974  1.4703  0.8543
 3128SOL    HW2 9384   0.441   1.957   6.583  0.7768 -1.0085  1.2587
 3129SOL     OW 9385   4.757   2.002   7.347  0.3780  0.8562  0.2174
 3129SOL    HW1 9386   4.665   2.030   7.345 -0.0469 -0.4393  0.9086
 3129SOL    HW2 9387   4.791   2.037   7.430  0.5863  1.5102 -0.1325
 3130SOL     OW 9388   4.286   2.034   5.056  0.4506 -0.6157 -0.3864
 3130SOL    HW1 9389   4.255   2.063   5.142  0.6414  1.0603 -0.8447
 3130SOL    HW2 9390   4.374   2.071   5.048  0.2228 -0.2790 -1.5258
 3131SOL     OW 9391   1.473   1.902   5.691 -0.5770  0.2918  0.2003
 3131SOL    HW1 9392   1.479   1.976   5.752 -2.0261  0.5691  0.0300
 3131SOL    HW2 9393   1.454   1.826   5.747 -0.9499  0.3760  0.1864
 3132SOL     OW 9394   3.703   0.584   5.374 -0.1469  0.3637 -0.0932
 3132SOL    HW1 9395   3.692   0.491   5.390  2.9563  0.1454  1.2773
 3132SOL    HW2 9396   3.755   0.589   5.294 -2.0677  1.0661 -1.3855
 3133SOL     OW 9397   4.400   1.909   6.150  0.3611 -0.1986  0.3411
 3133SOL    HW1 9398   4.459   1.835   6.133  1.0706  0.3031  0.5787
 3133SOL    HW2 9399   4.408   1.926   6.244  0.6261  0.5206  0.1981
 3134SOL     OW 9400   4.457   0.892   4.787  0.0154  0.1256  0.0888
 3134SOL    HW1 9401   4.449   0.981   4.753  1.4276 -0.1499 -1.0510
 3134SOL    HW2 9402   4.376   0.878   4.836 -0.9019  1.4816 -0.9668
 3135SOL     OW 9403   2.212   0.629   5.415 -0.1984 -0.2169 -0.0099
 3135SOL    HW1 9404   2.161   0.709   5.421  0.3600  0.2669 -1.3736
 3135SOL    HW2 9405   2.300   0.658   5.389  0.7623 -1.0386  2.0692
 3136SOL     OW 9406   0.957   0.924   8.449 -0.2164  0.1402 -0.5171
 3136SOL    HW1 9407   0.934   0.973   8.527  2.4997  1.0682 -0.1771
 3136SOL    HW2 9408   0.875   0.913   8.402 -1.4317  2.2911  0.9279
 3137SOL     OW 9409   0.019   2.394   5.920  0.9050 -0.2658 -0.6899
 3137SOL    HW1 9410   0.113   2.378   5.913  1.3743  1.7249  0.2619
 3137SOL    HW2 9411   0.012   2.460   5.989 -1.2463 -0.7583 -0.3861
 3138SOL     OW 9412   4.483   4.554   8.598  0.1659  0.3022  0.3684
 3138SOL    HW1 9413   4.415   4.565   8.532  1.1012 -0.2283 -0.7271
 3138SOL    HW2 9414   4.440   4.509   8.671 -0.8661  0.8394  0.0975
 3139SOL     OW 9415   4.253   2.406   5.534 -0.5295  0.6364 -0.2867
 3139SOL    HW1 9416   4.345   2.433   5.539  0.9673 -3.7817  1.5604
 3139SOL    HW2 9417   4.209   2.457   5.603  0.6504  2.2489 -0.6657
 3140SOL     OW 9418   4.166   2.708   5.942 -0.4733  0.1640 -0.1688
 3140SOL    HW1 9419   4.233   2.772   5.918  0.4180  0.3243  2.4386
 3140SOL    HW2 9420   4.135   2.736   6.028 -1.3155 -1.9315  0.2770
 3141SOL     OW 9421   4.127   4.267   4.860 -0.5054  0.0552 -0.0111
 3141SOL    HW1 9422   4.192   4.310   4.805  2.1725  0.0506  2.8494
 3141SOL    HW2 9423   4.169   4.186   4.889 -2.3936 -0.6996  0.8154
 3142SOL     OW 9424   1.331   2.260   5.580  0.0730 -0.5855  0.3896
 3142SOL    HW1 9425   1.303   2.181   5.627  1.3197 -0.4256  1.4418
 3142SOL    HW2 9426   1.414   2.235   5.540 -0.1511 -0.1826 -0.3391
 3143SOL     OW 9427   4.009   0.817   5.765  0.0104  0.6047  0.0033
 3143SOL    HW1 9428   3.928   0.842   5.810 -0.7539 -0.8449 -0.5021
 3143SOL    HW2 9429   3.986   0.815   5.672  1.0423  1.6022 -0.3036
 3144SOL     OW 9430   0.601   1.600   6.306  0.6018 -0.7442 -0.1254
 3144SOL    HW1 9431   0.649   1.680   6.286 -0.6989 -0.1319 -0.8930
 3144SOL    HW2 9432   0.669   1.534   6.318  1.6326  0.0837 -1.2027
 3145SOL     OW 9433   0.453   3.976   9.695 -0.5172 -0.3833 -0.4820
 3145SOL    HW1 9434   0.426   4.058   9.654 -1.6640  0.4643  1.8015
 3145SOL    HW2 9435   0.412   3.908   9.642 -2.5360  0.6831 -0.3792
 3146SOL     OW 9436   2.122   3.329   6.105 -0.3961  0.3233  0.1571
 3146SOL    HW1 9437   2.118   3.255   6.045 -1.1747  0.1460  0.4152
 3146SOL    HW2 9438   2.070   3.397   6.062  0.8348  0.9509 -0.3774
 3147SOL     OW 9439   3.673   4.965   7.112  0.1417 -0.1569 -0.3754
 3147SOL    HW1 9440   3.759   5.006   7.115  1.1461 -2.0268 -1.6006
 3147SOL    HW2 9441   3.683   4.883   7.159 -1.5612  0.4716  1.1942
 3148SOL     OW 9442   4.032   1.793   5.557 -0.1772  0.0182  0.2847
 3148SOL    HW1 9443   4.021   1.752   5.471  1.0625 -2.2919  1.1532
 3148SOL    HW2 9444   4.126   1.808   5.566 -0.2756  0.1314  1.2783
 3149SOL     OW 9445   0.741   1.090   5.576  0.1695 -0.5091 -0.2178
 3149SOL    HW1 9446   0.805   1.025   5.545  1.0150  0.2037 -0.0271
 3149SOL    HW2 9447   0.778   1.174   5.548 -0.9344 -0.1098 -0.5054
 3150SOL     OW 9448   3.933   1.277   5.839  0.2055  0.2904 -0.1434
 3150SOL    HW1 9449   3.959   1.276   5.747  0.4412  2.0125 -0.1229
 3150SOL    HW2 9450   4.011   1.306   5.886 -0.1525  0.2079  0.5171
 3151SOL     OW 9451   3.766   1.036   7.262  0.4979 -0.4834  0.3455
 3151SOL    HW1 9452   3.706   0.965   7.283  1.4068 -1.6349 -0.7556
 3151SOL    HW2 9453   3.849   0.992   7.241  1.4733  0.9869  0.8930
 3152SOL     OW 9454   1.516   2.407   5.838  0.3496  0.1400  0.1377
 3152SOL    HW1 9455   1.524   2.345   5.766 -1.0400 -0.5301  0.5109
 3152SOL    HW2 9456   1.573   2.480   5.815  1.7523 -1.1101 -0.4902
 3153SOL     OW 9457   2.501   1.813   8.060  0.1040 -0.2108  0.0636
 3153SOL    HW1 9458   2.406   1.818   8.045  0.3914  1.1918 -1.5117
 3153SOL    HW2 9459   2.513   1.729   8.104 -2.1637  0.7320  2.8067
 3154SOL     OW 9460   3.637   4.076   5.655 -0.1252  0.0731 -0.0085
 3154SOL    HW1 9461   3.706   4.057   5.591 -1.0023 -0.7783 -0.7380
 3154SOL    HW2 9462   3.670   4.039   5.737  0.1404 -0.6342 -0.4272
 3155SOL     OW 9463   3.737   4.317   5.969  0.2349  0.2910 -0.3786
 3155SOL    HW1 9464   3.697   4.378   5.907  0.0723 -0.6732 -1.2577
 3155SOL    HW2 9465   3.802   4.370   6.016  1.6976  0.6909 -2.6563
 3156SOL     OW 9466   0.568   4.400   6.263 -0.2912  0.1447 -0.3656
 3156SOL    HW1 9467   0.617   4.322   6.290 -0.4507  0.7550  1.9527
 3156SOL    HW2 9468   0.540   4.440   6.346  0.6452  3.2226 -1.3745
 3157SOL     OW 9469   0.793   4.900   5.657  0.8392 -0.3428 -0.2288
 3157SOL    HW1 9470   0.799   4.871   5.566  0.9848 -2.8614  0.5132
 3157SOL    HW2 9471   0.802   4.820   5.708 -0.4189  0.8574  2.0029
 3158SOL     OW 9472   1.834   1.491   5.598 -0.0360 -0.7950 -0.4302
 3158SOL    HW1 9473   1.784   1.436   5.657 -0.6862 -0.7281 -0.9087
 3158SOL    HW2 9474   1.769   1.533   5.542  0.6188 -2.0360 -2.2186
 3159SOL     OW 9475   2.345   1.398   9.616 -0.4306 -0.2191 -0.1083
 3159SOL    HW1 9476   2.353   1.315   9.662  2.8934 -0.5208 -0.9164
 3159SOL    HW2 9477   2.353   1.375   9.523 -2.5312  0.7830 -0.6057
 3160SOL     OW 9478   4.071   0.223   6.165 -0.2078 -0.5349 -0.2809
 3160SOL    HW1 9479   4.023   0.297   6.126  2.0342  0.9082 -0.4820
 3160SOL    HW2 9480   4.043   0.222   6.256 -0.1810  0.6878 -0.2418
 3161SOL     OW 9481   1.131   0.790   7.441 -0.0921 -0.0125 -0.5243
 3161SOL    HW1 9482   1.115   0.698   7.461 -3.4571  1.0484  2.8463
 3161SOL    HW2 9483   1.080   0.807   7.362 -1.5354 -0.5802  0.2569
 3162SOL     OW 9484   1.190   4.474   5.005 -0.0396  0.7336  0.2408
 3162SOL    HW1 9485   1.273   4.430   4.990  0.9731  2.1083  1.5083
 3162SOL    HW2 9486   1.188   4.545   4.940  0.3381  1.3920  0.9252
 3163SOL     OW 9487   3.179   0.393   7.161  0.3015  0.0057 -0.8050
 3163SOL    HW1 9488   3.247   0.329   7.185  1.5479  1.9512  1.1308
 3163SOL    HW2 9489   3.169   0.382   7.066  2.6763 -0.9594 -1.0059
 3164SOL     OW 9490   4.597   2.015   5.628  0.3838 -0.8225 -0.4424
 3164SOL    HW1 9491   4.506   1.996   5.648 -0.3370  1.7341 -1.0090
 3164SOL    HW2 9492   4.647   1.973   5.698 -1.4606  0.6877  1.8838
 3165SOL     OW 9493   0.978   1.030   5.160 -0.1018  0.1810 -0.2201
 3165SOL    HW1 9494   0.972   0.935   5.144  2.2094 -0.0390 -0.0301
 3165SOL    HW2 9495   0.887   1.058   5.169 -0.8461 -2.0293 -0.2520
 3166SOL     OW 9496   0.246   0.815   5.989 -0.0387 -0.7436  0.4347
 3166SOL    HW1 9497   0.173   0.827   6.049  0.3287  3.7173  0.3435
 3166SOL    HW2 9498   0.206   0.790   5.906 -1.6111  1.6839  0.3691
 3167SOL     OW 9499   3.953   0.897   7.086  0.5424  0.4285 -0.7017
 3167SOL    HW1 9500   3.891   0.829   7.058 -0.9406  0.9789  1.0977
 3167SOL    HW2 9501   4.022   0.894   7.019 -1.0812 -0.6339 -2.4525
 3168SOL     OW 9502   1.502   0.694   5.231  0.0091  0.7796 -0.2710
 3168SOL    HW1 9503   1.420   0.697   5.279  0.3420  1.2484  0.2866
 3168SOL    HW2 9504   1.566   0.661   5.295 -0.1613 -1.8246 -1.3280
 3169SOL     OW 9505   3.900   0.665   6.924  0.1727 -0.1888 -0.2470
 3169SOL    HW1 9506   3.948   0.630   6.999 -0.1058 -2.3200 -0.9951
 3169SOL    HW2 9507   3.942   0.625   6.848 -0.4067  0.8655 -1.1474
 3170SOL     OW 9508   3.779   4.881   6.370  0.1644  0.5185  0.0384
 3170SOL    HW1 9509   3.703   4.913   6.321  0.6933  1.3027 -0.2875
 3170SOL    HW2 9510   3.800   4.950   6.432  0.9504  0.5545 -0.2552
 3171SOL     OW 9511   0.726   4.292   6.954  0.0794 -0.4528  0.0498
 3171SOL    HW1 9512   0.807   4.287   6.903  0.1686  0.1419  0.1166
 3171SOL    HW2 9513   0.663   4.240   6.905  0.4067 -0.6341 -0.1889
 3172SOL     OW 9514   2.911   0.716   6.381 -0.3268 -0.2573 -0.2526
 3172SOL    HW1 9515   3.004   0.693   6.381  0.0954  0.7255 -4.0273
 3172SOL    HW2 9516   2.903   0.784   6.448  2.3260  1.5463 -1.5915
 3173SOL     OW 9517   1.476   1.431   5.263  0.4782  0.0521 -0.4027
 3173SOL    HW1 9518   1.391   1.469   5.244  0.7341  0.5646 -0.5545
 3173SOL    HW2 9519   1.529   1.505   5.294  0.8586 -0.2608 -0.2973
 3174SOL     OW 9520   4.632   2.884   6.120 -0.6440  0.0281  0.5790
 3174SOL    HW1 9521   4.552   2.897   6.171 -0.1783  0.0727  1.3145
 3174SOL    HW2 9522   4.695   2.943   6.159 -0.2963  0.1393 -0.1264
 3175SOL     OW 9523   4.852   2.750   8.143  0.3322 -0.1244  0.4240
 3175SOL    HW1 9524   4.940   2.774   8.112  0.0920 -0.0664 -0.2329
 3175SOL    HW2 9525   4.861   2.744   8.238  0.9405  0.3313  0.4040
 3176SOL     OW 9526   3.947   3.795   6.885  0.1842 -0.1608 -0.1766
 3176SOL    HW1 9527   4.015   3.827   6.944 -0.2422 -0.2593  0.3755
 3176SOL    HW2 9528   3.865   3.816   6.929 -0.1277 -0.8681 -0.4052
 3177SOL     OW 9529   4.185   0.404   8.768  0.1082  0.2551 -0.6434
 3177SOL    HW1 9530   4.273   0.433   8.743  0.1180 -0.2199 -1.1609
 3177SOL    HW2 9531   4.139   0.485   8.790  0.9400  0.4414  0.5195
 3178SOL     OW 9532   0.016   4.702   6.285  0.0737 -0.2717 -0.0045
 3178SOL    HW1 9533   0.032   4.754   6.364  0.6946 -1.0613  0.4070
 3178SOL    HW2 9534   0.046   4.758   6.214  2.3630 -0.6776  0.5597
 3179SOL     OW 9535   1.216   4.702   8.137  0.1325  0.3075 -0.2439
 3179SOL    HW1 9536   1.260   4.739   8.061  0.6188 -0.4029 -0.3157
 3179SOL    HW2 9537   1.281   4.646   8.178 -0.5037 -0.2595  0.0191
 3180SOL     OW 9538   3.174   4.417   5.421 -0.2771 -0.5809 -0.4556
 3180SOL    HW1 9539   3.106   4.412   5.488  0.2817  0.9061  0.2745
 3180SOL    HW2 9540   3.255   4.398   5.467  0.4889  3.2164  0.0351
 3181SOL     OW 9541   4.527   1.445   7.341  0.4310  0.5341  0.4065
 3181SOL    HW1 9542   4.615   1.429   7.376  1.1564 -0.3486 -1.7062
 3181SOL    HW2 9543   4.473   1.377   7.381  1.2771 -0.5847 -0.3109
 3182SOL     OW 9544   3.728   0.936   5.892 -0.0674 -0.1841  0.0564
 3182SOL    HW1 9545   3.651   0.993   5.887  1.1441  1.5369  0.0422
 3182SOL    HW2 9546   3.697   0.850   5.864 -2.5421 -0.1666  2.4286
 3183SOL     OW 9547   0.094   0.727   5.784 -0.0408 -0.2048  0.0664
 3183SOL    HW1 9548   0.020   0.780   5.753 -0.8424 -1.5624 -0.4092
 3183SOL    HW2 9549   0.075   0.639   5.753 -0.1722 -1.4003  3.2046
 3184SOL     OW 9550   4.975   2.881   6.906  0.3086 -0.1559 -0.1456
 3184SOL    HW1 9551   4.982   2.971   6.873 -0.0616  0.7543  2.0139
 3184SOL    HW2 9552   4.913   2.838   6.847  0.0573  1.1798 -0.8998
 3185SOL     OW 9553   3.344   3.125   6.675  0.0213  0.4495  0.6465
 3185SOL    HW1 9554   3.439   3.127   6.678  0.0784  0.8596 -0.5064
 3185SOL    HW2 9555   3.316   3.138   6.765  1.0474 -0.8738  1.1897
 3186SOL     OW 9556   1.770   0.448   5.904  0.4507  0.2966  0.4951
 3186SOL    HW1 9557   1.812   0.374   5.949  1.6946  0.2153 -0.7236
 3186SOL    HW2 9558   1.706   0.480   5.967  2.3807  0.4552  2.5360
 3187SOL     OW 9559   2.845   4.641   6.268 -0.1565 -0.3410 -0.1603
 3187SOL    HW1 9560   2.770   4.701   6.276 -0.7363 -1.2314  1.3092
 3187SOL    HW2 9561   2.843   4.613   6.176 -1.7623 -0.5287 -0.0892
 3188SOL     OW 9562   1.487   4.277   9.960 -0.2569  0.2905  0.5578
 3188SOL    HW1 9563   1.458   4.278   9.869  1.5265  1.4765 -0.0257
 3188SOL    HW2 9564   1.467   4.188   9.990  2.0072 -1.2245 -1.9836
 3189SOL     OW 9565   0.567   1.216   9.635 -0.2755  0.2490 -0.4872
 3189SOL    HW1 9566   0.623   1.171   9.572 -2.7022 -2.4874 -0.9363
 3189SOL    HW2 9567   0.478   1.192   9.609 -1.7022  3.5990  0.7174
 3190SOL     OW 9568   3.009   0.206   8.829  0.2224 -0.4823 -0.0977
 3190SOL    HW1 9569   3.090   0.186   8.875 -0.0346 -0.1545  0.5214
 3190SOL    HW2 9570   2.955   0.251   8.895 -0.8823 -1.6468 -0.1662
 3191SOL     OW 9571   3.895   1.439   6.623 -0.2499  0.5326  0.2374
 3191SOL    HW1 9572   3.984   1.469   6.600 -0.3647  1.6792  1.1715
 3191SOL    HW2 9573   3.880   1.474   6.711 -1.2099 -0.6194  0.5548
 3192SOL     OW 9574   0.345   4.682   6.600 -0.1559 -0.3364 -0.2529
 3192SOL    HW1 9575   0.408   4.672   6.672  0.7634  0.2414 -0.9601
 3192SOL    HW2 9576   0.322   4.775   6.603 -3.0884 -0.9767  1.7000
 3193SOL     OW 9577   2.948   2.470   9.522  0.8005 -0.2045  0.0968
 3193SOL    HW1 9578   3.004   2.492   9.448 -0.1571  2.3061  0.0193
 3193SOL    HW2 9579   2.962   2.541   9.585 -0.6859 -0.6541  0.9907
 3194SOL     OW 9580   0.848   2.398   9.250  0.0036 -0.6102 -0.0522
 3194SOL    HW1 9581   0.868   2.319   9.200  2.3964 -0.3648  0.4129
 3194SOL    HW2 9582   0.812   2.367   9.333 -2.2835 -1.0575 -1.1278
 3195SOL     OW 9583   2.820   1.431   6.782  0.3975  0.4608  0.3486
 3195SOL    HW1 9584   2.741   1.378   6.777  1.5294 -1.2633 -0.1710
 3195SOL    HW2 9585   2.825   1.476   6.697  1.1348 -1.2318 -0.5538
 3196SOL     OW 9586   4.070   1.900   8.383  0.4791  0.5761 -0.0021
 3196SOL    HW1 9587   4.006   1.970   8.372 -1.8273 -1.3232  0.5495
 3196SOL    HW2 9588   4.103   1.911   8.472 -0.9413  0.1925  0.6073
 3197SOL     OW 9589   3.305   0.384   9.562  0.2860 -0.4976  0.4380
 3197SOL    HW1 9590   3.316   0.327   9.638  1.8319 -1.6120 -0.5719
 3197SOL    HW2 9591   3.212   0.376   9.539 -0.1358 -0.3532  2.0215
 3198SOL     OW 9592   0.209   0.396   8.969  0.0793  0.0755 -0.7796
 3198SOL    HW1 9593   0.298   0.425   8.987 -0.3805  0.8484  0.3184
 3198SOL    HW2 9594   0.215   0.300   8.964  1.0730  0.1618 -1.3915
 3199SOL     OW 9595   0.205   0.556   8.246  0.3337 -0.0927  0.2838
 3199SOL    HW1 9596   0.141   0.485   8.237 -2.3325  2.2645 -1.0309
 3199SOL    HW2 9597   0.243   0.542   8.332 -0.6451 -2.6260  0.4175
 3200SOL     OW 9598   1.886   2.325   6.405 -0.3946  0.6787 -0.2105
 3200SOL    HW1 9599   1.958   2.326   6.341  1.0801 -0.4417  1.3346
 3200SOL    HW2 9600   1.856   2.234   6.405 -0.7479  0.7949  0.3015
 3201SOL     OW 9601   2.324   2.561   6.882 -0.1784 -0.1588  0.1610
 3201SOL    HW1 9602   2.316   2.483   6.827  0.0760  0.3886 -0.6769
 3201SOL    HW2 9603   2.380   2.533   6.955  1.1106 -0.3893 -0.8805
 3202SOL     OW 9604   2.910   2.611   9.060 -0.8130 -0.0015 -0.1524
 3202SOL    HW1 9605   2.867   2.590   8.976 -1.0123  1.4131 -0.4214
 3202SOL    HW2 9606   2.854   2.570   9.126 -0.9539 -0.6607 -0.6618
 3203SOL     OW 9607   0.755   1.780   8.480  0.0443  0.2355  0.2139
 3203SOL    HW1 9608   0.722   1.868   8.499 -1.4415 -0.6451  2.0333
 3203SOL    HW2 9609   0.834   1.772   8.532 -1.0224 -0.2284  1.8317
 3204SOL     OW 9610   4.422   2.736   6.686 -0.6134  0.5066 -0.3703
 3204SOL    HW1 9611   4.335   2.696   6.684 -0.3756 -0.1348  1.0849
 3204SOL    HW2 9612   4.474   2.678   6.742  0.5131  1.3543 -0.5035
 3205SOL     OW 9613   2.779   1.806   6.414 -0.5017 -0.1509 -0.4546
 3205SOL    HW1 9614   2.725   1.885   6.418 -0.3406 -0.0385 -0.4852
 3205SOL    HW2 9615   2.858   1.833   6.367 -0.2730 -0.2255 -0.1208
 3206SOL     OW 9616   3.533   0.074   8.413  0.2502  0.0308  0.3763
 3206SOL    HW1 9617   3.535   0.139   8.342 -0.6375 -0.4019 -0.0547
 3206SOL    HW2 9618   3.610   0.095   8.466  1.4396 -0.1846 -1.1902
 3207SOL     OW 9619   2.302   2.486   7.374 -0.0309 -0.1769  0.4627
 3207SOL    HW1 9620   2.264   2.545   7.309  1.0752  0.4985  0.3922
 3207SOL    HW2 9621   2.371   2.538   7.416  0.8023 -1.3301  0.5819
 3208SOL     OW 9622   1.330   0.931   9.932  0.9511 -0.3295 -0.5016
 3208SOL    HW1 9623   1.243   0.906   9.964 -0.6549  1.9234 -2.6874
 3208SOL    HW2 9624   1.390   0.872   9.977 -1.5459 -1.0488  2.1968
 3209SOL     OW 9625   4.690   0.748   9.227  0.2294 -0.5913  0.0760
 3209SOL    HW1 9626   4.686   0.736   9.322 -0.9761  0.5116  0.1829
 3209SOL    HW2 9627   4.647   0.670   9.191 -0.1077 -0.5881  0.4667
 3210SOL     OW 9628   2.753   0.782  10.038  0.1779 -0.0165  0.4172
 3210SOL    HW1 9629   2.741   0.699   9.994  0.4801  1.3668 -2.4756
 3210SOL    HW2 9630   2.673   0.831  10.019  1.2038  1.3896 -0.5013
 3211SOL     OW 9631   0.118   0.344   7.668 -0.5502 -0.2254 -0.0018
 3211SOL    HW1 9632   0.096   0.348   7.575  2.4684 -0.3968 -0.8425
 3211SOL    HW2 9633   0.110   0.252   7.691 -1.9341 -0.0930  0.1273
 3212SOL     OW 9634   2.802   4.115   8.941 -0.1293  0.5572  0.5859
 3212SOL    HW1 9635   2.788   4.089   8.850 -1.9620  0.7371  0.7863
 3212SOL    HW2 9636   2.871   4.181   8.936  1.2190 -0.8425 -0.4346
 3213SOL     OW 9637   0.050   0.060   5.908  0.1956 -0.2500  0.2391
 3213SOL    HW1 9638  -0.030   0.007   5.897  0.4298 -0.6563  0.4727
 3213SOL    HW2 9639   0.020   0.140   5.951 -0.3997  0.4405 -1.3619
 3214SOL     OW 9640   0.636   0.301   8.262 -0.7133  0.0657 -0.5894
 3214SOL    HW1 9641   0.715   0.335   8.219  0.2441 -0.7035  0.5091
 3214SOL    HW2 9642   0.653   0.207   8.270  0.1435  0.3909  3.3427
 3215SOL     OW 9643   3.998   2.007   8.904  0.9598  0.3211 -0.8066
 3215SOL    HW1 9644   3.931   1.959   8.954  0.8463 -0.0634 -1.3255
 3215SOL    HW2 9645   4.047   1.939   8.859  2.5961  0.4643  0.6234
 3216SOL     OW 9646   2.601   2.948   5.552  0.4696 -0.1549  0.1244
 3216SOL    HW1 9647   2.685   2.950   5.506 -0.8636  3.5552 -2.6513
 3216SOL    HW2 9648   2.624   2.959   5.645  3.0223 -1.9089 -0.1877
 3217SOL     OW 9649   1.325   3.461   6.779  0.3456 -0.1574  0.1355
 3217SOL    HW1 9650   1.273   3.454   6.859  0.0332 -0.3052 -0.0820
 3217SOL    HW2 9651   1.389   3.390   6.787 -0.5311 -1.0333 -0.3630
 3218SOL     OW 9652   1.176   0.189   5.726  0.2036  0.0196 -0.1112
 3218SOL    HW1 9653   1.102   0.156   5.776 -1.2340  2.2635 -0.5912
 3218SOL    HW2 9654   1.234   0.229   5.791  0.0329 -0.0561  0.0868
 3219SOL     OW 9655   0.208   4.902   8.548  0.8834  0.4967  0.4284
 3219SOL    HW1 9656   0.161   4.965   8.601  0.1180  1.9738 -1.8452
 3219SOL    HW2 9657   0.290   4.887   8.595  0.5972  2.3378  1.6055
 3220SOL     OW 9658   3.255   4.849   5.836 -0.4906 -0.1933 -0.2965
 3220SOL    HW1 9659   3.347   4.871   5.816 -0.4692 -0.7358 -0.7882
 3220SOL    HW2 9660   3.209   4.861   5.754 -0.1862 -3.6446 -1.1299
 3221SOL     OW 9661   4.136   2.288   7.397  0.1045 -0.1986 -0.9982
 3221SOL    HW1 9662   4.073   2.302   7.467  0.7225 -0.6051 -0.3476
 3221SOL    HW2 9663   4.220   2.280   7.441  0.6489  0.5001 -1.8671
 3222SOL     OW 9664   3.957   2.051   7.470  0.1806  0.0023  0.8922
 3222SOL    HW1 9665   3.957   1.990   7.397  2.1061  1.0178 -0.0521
 3222SOL    HW2 9666   3.898   2.122   7.442 -1.1961 -0.8581  1.5236
 3223SOL     OW 9667   3.687   1.159   5.311  0.0138  0.3791  0.6686
 3223SOL    HW1 9668   3.764   1.204   5.277  0.1901 -0.6447 -0.3725
 3223SOL    HW2 9669   3.678   1.190   5.401  1.5514  0.6292  0.7587
 3224SOL     OW 9670   2.160   0.469   9.940 -0.6108 -0.1096 -0.5562
 3224SOL    HW1 9671   2.141   0.447  10.031 -0.6244  1.5919 -0.1183
 3224SOL    HW2 9672   2.100   0.414   9.889 -0.2749 -1.4197  0.4181
 3225SOL     OW 9673   0.687   4.211   8.116  0.5352 -0.2736  0.0672
 3225SOL    HW1 9674   0.619   4.144   8.114  2.2624 -2.1230 -1.6845
 3225SOL    HW2 9675   0.640   4.292   8.137 -2.0886 -1.5394 -0.4556
 3226SOL     OW 9676   4.651   0.986   9.858  0.3047  0.0099  0.3390
 3226SOL    HW1 9677   4.622   1.034   9.781  0.0153 -0.0053  0.4369
 3226SOL    HW2 9678   4.627   1.041   9.932  1.1810  0.3383  0.3971
 3227SOL     OW 9679   0.540   3.216   6.417 -0.2548 -0.2416 -0.1179
 3227SOL    HW1 9680   0.452   3.220   6.379 -0.1827  0.6405 -0.2147
 3227SOL    HW2 9681   0.578   3.136   6.380 -1.6997 -1.7456  1.4904
 3228SOL     OW 9682   3.862   0.214   6.807  0.9616  0.4200  0.0714
 3228SOL    HW1 9683   3.873   0.310   6.804 -0.0378  0.5353 -2.6160
 3228SOL    HW2 9684   3.888   0.190   6.895  1.1140  3.1983  0.8817
 3229SOL     OW 9685   0.620   3.121   9.777  0.5858  0.4612  0.1971
 3229SOL    HW1 9686   0.598   3.136   9.685 -2.5408 -1.2352  0.5244
 3229SOL    HW2 9687   0.693   3.060   9.774 -0.3831 -0.6989 -1.2183
 3230SOL     OW 9688   4.848   0.953   5.355  0.3561  0.0051  0.3040
 3230SOL    HW1 9689   4.800   1.008   5.416 -0.6537 -1.5987  1.0185
 3230SOL    HW2 9690   4.813   0.977   5.269  0.7061  1.2012  0.4714
 3231SOL     OW 9691   3.475   0.154   6.911  0.5357 -0.4297 -1.0172
 3231SOL    HW1 9692   3.552   0.130   6.963  1.1184  0.8809 -1.2371
 3231SOL    HW2 9693   3.471   0.250   6.918 -2.2070 -0.5630  0.5853
 3232SOL     OW 9694   2.834   3.324   9.616 -0.0969  0.2209  0.4004
 3232SOL    HW1 9695   2.798   3.406   9.649  0.4173  0.4988  0.2797
 3232SOL    HW2 9696   2.824   3.330   9.521  0.3270  0.3366  0.3583
 3233SOL     OW 9697   4.628   2.473   9.239 -0.3965  0.2031  0.2466
 3233SOL    HW1 9698   4.538   2.484   9.208 -1.5482 -1.6456  2.5865
 3233SOL    HW2 9699   4.619   2.454   9.332  2.4556 -0.0202  0.5636
 3234SOL     OW 9700   4.752   1.572   7.862  0.2280  0.3654  0.0275
 3234SOL    HW1 9701   4.760   1.597   7.770  0.7754 -2.6476 -0.8744
 3234SOL    HW2 9702   4.834   1.528   7.882  1.2663  3.2383  2.8776
 3235SOL     OW 9703   2.157   2.362   8.900 -0.2122  0.1241  0.2960
 3235SOL    HW1 9704   2.097   2.340   8.971  1.8178 -0.3057  1.9752
 3235SOL    HW2 9705   2.119   2.439   8.859 -2.1942 -0.4773  0.9042
 3236SOL     OW 9706   2.407   3.777   9.966  0.0270 -1.2054 -0.3481
 3236SOL    HW1 9707   2.369   3.805   9.883 -0.4563 -0.3748  0.1300
 3236SOL    HW2 9708   2.336   3.730  10.009  0.0805 -1.1191 -0.1639
 3237SOL     OW 9709   0.196   0.509   6.085  0.0630 -0.3198  0.4017
 3237SOL    HW1 9710   0.173   0.532   6.175 -1.2056 -0.7634  0.2093
 3237SOL    HW2 9711   0.205   0.593   6.040  0.7160 -0.0961  0.9333
 3238SOL     OW 9712   4.804   4.568   9.542 -0.2350 -0.6296 -0.1044
 3238SOL    HW1 9713   4.738   4.635   9.523  0.6821  1.0328  2.1659
 3238SOL    HW2 9714   4.782   4.536   9.629  2.1857  0.4008  0.9901
 3239SOL     OW 9715   0.991   0.803   9.689  0.6462 -0.0973  0.4564
 3239SOL    HW1 9716   0.966   0.895   9.693 -0.1720 -0.3439  1.9691
 3239SOL    HW2 9717   1.001   0.784   9.596  1.5046  1.6734  0.1455
 3240SOL     OW 9718   0.865   4.362   9.994 -0.0277 -0.0544 -0.5886
 3240SOL    HW1 9719   0.936   4.411  10.037 -0.4521 -0.0387  0.1080
 3240SOL    HW2 9720   0.902   4.337   9.909  0.4094  0.9484 -0.7112
 3241SOL     OW 9721   3.554   4.948   6.609 -0.2200 -0.3248 -0.1014
 3241SOL    HW1 9722   3.645   4.954   6.579 -0.1706 -2.1790 -0.4366
 3241SOL    HW2 9723   3.561   4.913   6.698 -0.6152 -1.9754 -0.6789
 3242SOL     OW 9724   0.824   1.201   9.161 -0.0268 -0.0251  0.1574
 3242SOL    HW1 9725   0.894   1.175   9.100  0.7155 -0.0824  1.0074
 3242SOL    HW2 9726   0.848   1.289   9.190 -0.4482  0.0588  0.2604
 3243SOL     OW 9727   0.833   0.297   7.496 -0.0931  0.6745 -0.5597
 3243SOL    HW1 9728   0.745   0.329   7.517 -0.3946 -0.1915 -0.4254
 3243SOL    HW2 9729   0.874   0.283   7.582  0.4820  1.8451 -0.6258
 3244SOL     OW 9730   3.579   2.030   7.856 -0.2220  0.2517  0.4255
 3244SOL    HW1 9731   3.620   2.060   7.938  0.4273 -0.6002  0.4359
 3244SOL    HW2 9732   3.620   1.945   7.840 -0.9633  0.0353 -0.3460
 3245SOL     OW 9733   3.516   2.692   6.858 -0.8870  0.1820  0.2092
 3245SOL    HW1 9734   3.480   2.722   6.775 -1.1147  1.3170  0.7072
 3245SOL    HW2 9735   3.443   2.647   6.901 -0.2819 -2.1067 -0.9654
 3246SOL     OW 9736   1.070   0.080   8.019 -0.6357  0.4493 -0.1898
 3246SOL    HW1 9737   1.051  -0.012   8.003  1.2151 -0.5023  2.3289
 3246SOL    HW2 9738   1.160   0.092   7.989 -1.0838  1.6467 -1.1223
 3247SOL     OW 9739   3.724   4.260   8.236  0.8043  0.1722 -0.8460
 3247SOL    HW1 9740   3.732   4.307   8.153  0.5416  1.6478 -0.0747
 3247SOL    HW2 9741   3.721   4.329   8.303  0.4629 -0.9499  0.3508
 3248SOL     OW 9742   2.481   2.699   7.438 -0.5856 -0.5228  0.7176
 3248SOL    HW1 9743   2.414   2.737   7.494 -0.8342  0.9727 -0.5153
 3248SOL    HW2 9744   2.563   2.737   7.469 -0.5367 -0.8414  0.9866
 3249SOL     OW 9745   1.741   0.623   7.767 -0.0925 -0.4230  0.3757
 3249SOL    HW1 9746   1.671   0.687   7.782 -1.5875 -1.7648 -0.5046
 3249SOL    HW2 9747   1.804   0.639   7.836 -0.3435  2.0745  0.0966
 3250SOL     OW 9748   0.920   1.572   7.943  0.3511  0.4004  0.1391
 3250SOL    HW1 9749   0.933   1.639   7.875  2.4568 -1.7201 -1.7328
 3250SOL    HW2 9750   0.825   1.565   7.951  0.0492  1.6372 -1.6790
 3251SOL     OW 9751   2.442   3.290   9.070 -0.5926 -0.3335 -0.1100
 3251SOL    HW1 9752   2.462   3.279   9.163  0.1241  0.4072 -0.1593
 3251SOL    HW2 9753   2.488   3.219   9.026 -0.1874 -0.1592  0.0265
 3252SOL     OW 9754   2.972   4.458   7.133 -0.5567  0.0311 -0.1474
 3252SOL    HW1 9755   2.922   4.538   7.119 -0.0702  0.3210 -0.2609
 3252SOL    HW2 9756   3.061   4.480   7.106 -0.6253 -0.8494 -1.1474
 3253SOL     OW 9757   4.103   3.232   9.233 -0.2663 -0.6165 -0.1653
 3253SOL    HW1 9758   4.049   3.309   9.246 -1.9367 -1.7456 -0.1400
 3253SOL    HW2 9759   4.179   3.246   9.290 -0.2236  1.2491 -0.6202
 3254SOL     OW 9760   3.076   1.989   5.443  0.3907 -0.0277 -0.2098
 3254SOL    HW1 9761   3.006   2.027   5.497 -0.2349  2.2742 -2.4420
 3254SOL    HW2 9762   3.029   1.935   5.379  0.7972  0.2470 -0.7399
 3255SOL     OW 9763   2.856   1.034  10.007  0.1111 -0.0820  0.2940
 3255SOL    HW1 9764   2.775   1.085  10.009  0.0483 -0.0090 -1.9711
 3255SOL    HW2 9765   2.831   0.947  10.039 -0.2322  0.6830  2.1955
 3256SOL     OW 9766   4.337   2.457   9.124 -0.4662 -0.3724 -0.3882
 3256SOL    HW1 9767   4.266   2.512   9.156 -0.6430  0.2025 -1.6693
 3256SOL    HW2 9768   4.312   2.436   9.034  1.7452  1.3282 -1.5397
 3257SOL     OW 9769   1.185   0.426   6.442  0.3191 -0.2413 -0.0076
 3257SOL    HW1 9770   1.148   0.483   6.510 -0.1209  0.4547 -0.8055
 3257SOL    HW2 9771   1.115   0.364   6.423  0.1377  0.0765 -0.3925
 3258SOL     OW 9772   0.361   2.729   9.023  0.7573 -0.0922 -0.4115
 3258SOL    HW1 9773   0.358   2.813   8.976  1.6700  0.3012  0.2007
 3258SOL    HW2 9774   0.273   2.718   9.059  0.8797  1.0971  0.3225
 3259SOL     OW 9775   0.639   3.133   8.385  0.7161 -0.0338  0.4156
 3259SOL    HW1 9776   0.620   3.103   8.296 -0.7559  0.9349  0.3673
 3259SOL    HW2 9777   0.677   3.057   8.428  1.6091 -0.4788 -1.0764
 3260SOL     OW 9778   4.520   1.095   6.985 -0.8329  0.5747  0.6412
 3260SOL    HW1 9779   4.551   1.019   6.934 -0.4570  0.2760  1.3051
 3260SOL    HW2 9780   4.508   1.163   6.919  1.1758  0.6816  0.3118
 3261SOL     OW 9781   4.579   4.687   8.309 -0.0357 -0.0661 -0.0164
 3261SOL    HW1 9782   4.637   4.712   8.236  1.1621  1.5208  1.4171
 3261SOL    HW2 9783   4.639   4.666   8.381 -1.2311  0.2833  1.1067
 3262SOL     OW 9784   4.826   1.721   9.635 -0.0944  0.0709 -0.0456
 3262SOL    HW1 9785   4.813   1.742   9.543  0.8849  0.2100 -0.1710
 3262SOL    HW2 9786   4.740   1.693   9.667 -0.5753  0.6234 -0.8385
 3263SOL     OW 9787   2.530   4.203   8.273  0.0548 -0.0551  0.4030
 3263SOL    HW1 9788   2.554   4.265   8.204  0.9510 -0.3717  0.4153
 3263SOL    HW2 9789   2.478   4.136   8.229 -1.1783  0.8404  0.4443
 3264SOL     OW 9790   0.052   3.145   8.790 -0.5919 -0.2161  0.6667
 3264SOL    HW1 9791   0.086   3.204   8.857 -1.4895  2.7165 -1.2583
 3264SOL    HW2 9792  -0.038   3.173   8.775 -0.3822 -0.6083 -1.8623
 3265SOL     OW 9793   0.379   2.654   9.431  0.2497  0.0455 -0.1281
 3265SOL    HW1 9794   0.397   2.732   9.483 -1.3063  0.4398 -0.1415
 3265SOL    HW2 9795   0.381   2.685   9.340 -2.3338  0.5773 -0.0819
 3266SOL     OW 9796   3.645   3.795   9.658  0.1259 -0.5285  0.0956
 3266SOL    HW1 9797   3.672   3.839   9.739  0.7232  1.2158 -1.0177
 3266SOL    HW2 9798   3.723   3.748   9.629  0.7403  1.0146 -0.8433
 3267SOL     OW 9799   3.392   4.229  10.026  1.0246  0.0495 -0.4617
 3267SOL    HW1 9800   3.358   4.236   9.937  1.3074 -0.1240 -0.5835
 3267SOL    HW2 9801   3.348   4.152  10.062  1.6954 -0.4919 -0.8001
 3268SOL     OW 9802   3.011   0.156   5.684 -0.2523  0.3183  0.4252
 3268SOL    HW1 9803   3.070   0.223   5.720 -1.3154  1.1431  0.6862
 3268SOL    HW2 9804   2.982   0.106   5.760 -1.6397  1.3642  0.6268
 3269SOL     OW 9805   4.577   0.890   6.827  0.1805 -0.3293 -0.0622
 3269SOL    HW1 9806   4.561   0.901   6.733  1.9948  0.1321 -0.3623
 3269SOL    HW2 9807   4.634   0.813   6.832  1.4882  0.6347  0.4665
 3270SOL     OW 9808   4.178   0.927   5.531 -0.3183 -0.0905 -0.1288
 3270SOL    HW1 9809   4.194   0.958   5.442 -2.5728  0.4305 -0.4145
 3270SOL    HW2 9810   4.145   0.838   5.521  1.7023 -0.9673  0.4055
 3271SOL     OW 9811   1.520   2.067   9.461  0.1438 -0.6290  0.1400
 3271SOL    HW1 9812   1.553   2.113   9.538 -0.2908 -2.8759  1.7617
 3271SOL    HW2 9813   1.427   2.091   9.456 -0.2084 -1.6610  1.2896
 3272SOL     OW 9814   2.690   1.481   9.449  0.0593  0.4686 -0.6127
 3272SOL    HW1 9815   2.619   1.525   9.495  0.0886  0.9317 -1.0132
 3272SOL    HW2 9816   2.761   1.545   9.446  1.3128 -0.6932  1.7056
 3273SOL     OW 9817   4.907   0.297   7.369  0.4365 -0.6768  0.2882
 3273SOL    HW1 9818   4.981   0.241   7.393  0.6311  0.0341  1.4702
 3273SOL    HW2 9819   4.947   0.382   7.348 -0.0350 -0.2347  1.1064
 3274SOL     OW 9820   4.524   0.321   7.422  0.2563  0.0607 -0.5744
 3274SOL    HW1 9821   4.488   0.406   7.397  0.7835  1.1095  1.9106
 3274SOL    HW2 9822   4.519   0.320   7.518 -0.1241 -2.9206 -0.5408
 3275SOL     OW 9823   4.309   1.344   8.651  0.0950 -0.3924 -0.7841
 3275SOL    HW1 9824   4.312   1.251   8.675  0.3215  0.6305  4.2797
 3275SOL    HW2 9825   4.397   1.363   8.620  1.1645 -1.3068  1.4329
 3276SOL     OW 9826   1.870   1.546   7.614 -0.0684 -0.2428  0.3168
 3276SOL    HW1 9827   1.785   1.550   7.657  0.3378  1.3479  1.0538
 3276SOL    HW2 9828   1.920   1.619   7.652  0.7634  0.4297 -1.9148
 3277SOL     OW 9829   3.847   4.599   6.667 -0.7389 -0.0605  0.4677
 3277SOL    HW1 9830   3.936   4.579   6.696 -0.7698 -3.9923 -1.4991
 3277SOL    HW2 9831   3.797   4.519   6.687 -2.5405  0.0050 -3.0242
 3278SOL     OW 9832   0.363   4.352   6.903  0.1440  0.4860 -0.4162
 3278SOL    HW1 9833   0.371   4.282   6.967  2.8195  0.6202 -0.5057
 3278SOL    HW2 9834   0.270   4.352   6.879 -0.2038 -2.0287  0.6464
 3279SOL     OW 9835   4.489   0.927   8.858 -1.1119  0.1895  0.1996
 3279SOL    HW1 9836   4.457   0.841   8.884  2.6584 -1.7347 -0.8505
 3279SOL    HW2 9837   4.536   0.912   8.776 -0.4031  3.2970 -0.0999
 3280SOL     OW 9838   0.566   1.771   7.787 -0.3659  0.1171 -0.3425
 3280SOL    HW1 9839   0.572   1.856   7.829 -0.7508 -0.1697  0.2918
 3280SOL    HW2 9840   0.626   1.778   7.712  0.4085  0.5899  0.3039
 3281SOL     OW 9841   1.141   2.334   5.933  0.1651  0.2814  0.6088
 3281SOL    HW1 9842   1.112   2.372   5.850  0.4304  0.4496  0.5899
 3281SOL    HW2 9843   1.236   2.325   5.923  0.0824 -0.5500  0.5539
 3282SOL     OW 9844   3.616   0.251   9.119  0.0430 -0.3862  0.1127
 3282SOL    HW1 9845   3.676   0.178   9.130  1.5202  0.7832  0.2820
 3282SOL    HW2 9846   3.556   0.246   9.193 -0.2383 -1.7219 -0.1937
 3283SOL     OW 9847   0.842   1.569   6.709 -0.4669  0.1344 -0.9818
 3283SOL    HW1 9848   0.870   1.572   6.618  0.3391  1.0136 -0.7325
 3283SOL    HW2 9849   0.924   1.557   6.759 -1.1050 -2.7764 -0.4515
 3284SOL     OW 9850   1.974   0.940   8.395  0.3734 -0.4424 -0.2414
 3284SOL    HW1 9851   1.886   0.904   8.383 -0.0447  0.9817 -1.8683
 3284SOL    HW2 9852   2.031   0.863   8.399 -0.7627 -1.3532 -0.8860
 3285SOL     OW 9853   1.682   0.974  10.148  0.0086  0.1457 -0.0628
 3285SOL    HW1 9854   1.648   1.054  10.109  0.1008 -0.2716 -1.0168
 3285SOL    HW2 9855   1.617   0.950  10.214 -0.8993  0.0741 -0.9551
 3286SOL     OW 9856   3.803   1.333   7.552 -0.0816 -0.0833 -0.2630
 3286SOL    HW1 9857   3.748   1.350   7.476  1.2500 -1.1865 -1.5462
 3286SOL    HW2 9858   3.851   1.415   7.566  0.5460 -0.2347 -1.4080
 3287SOL     OW 9859   0.118   0.304   8.232 -0.4271 -0.1026  0.6341
 3287SOL    HW1 9860   0.049   0.275   8.172 -1.5994 -0.0848  1.9190
 3287SOL    HW2 9861   0.189   0.242   8.218 -0.5610  0.0448 -0.9296
 3288SOL     OW 9862   4.047   0.730   7.396  0.5793  0.1108 -0.3751
 3288SOL    HW1 9863   3.973   0.705   7.451  0.8878 -0.3426 -0.1632
 3288SOL    HW2 9864   4.014   0.724   7.306 -0.7795  3.4212 -0.2590
 3289SOL     OW 9865   3.171   2.235   8.810 -0.0417  0.1595  0.5398
 3289SOL    HW1 9866   3.117   2.256   8.887 -1.1514 -1.4962  0.2656
 3289SOL    HW2 9867   3.108   2.218   8.740  0.9324  0.7424 -0.5041
 3290SOL     OW 9868   1.187   2.893   5.571 -0.4750 -0.7055 -0.8066
 3290SOL    HW1 9869   1.195   2.975   5.521 -0.7036  0.9179  1.6662
 3290SOL    HW2 9870   1.277   2.868   5.591 -0.4646  0.5318  0.8142
 3291SOL     OW 9871   1.083   0.849  10.056  0.2550 -0.7111  0.6676
 3291SOL    HW1 9872   1.004   0.893  10.024  1.3467 -0.2888 -1.6327
 3291SOL    HW2 9873   1.074   0.851  10.152 -1.6892  0.8621  0.5209
 3292SOL     OW 9874   4.678   0.779   7.890 -0.1584 -0.7598 -0.0224
 3292SOL    HW1 9875   4.640   0.696   7.860 -0.1597 -0.7262 -0.1151
 3292SOL    HW2 9876   4.727   0.811   7.814 -2.1261  0.5158 -0.8332
 3293SOL     OW 9877   1.960   0.127   7.154 -0.1006 -0.1253 -0.5561
 3293SOL    HW1 9878   1.918   0.061   7.208  0.3140 -0.3074 -0.4482
 3293SOL    HW2 9879   2.053   0.121   7.177 -0.2209  1.4011  0.4359
 3294SOL     OW 9880   3.142   1.199   5.702  0.2187 -0.7204  0.0770
 3294SOL    HW1 9881   3.194   1.215   5.624 -2.1687  1.8643 -1.1283
 3294SOL    HW2 9882   3.188   1.246   5.772  1.7576 -2.1267  0.0818
 3295SOL     OW 9883   4.280   1.122   8.824 -0.0912  0.1652  0.3345
 3295SOL    HW1 9884   4.335   1.046   8.847 -1.0311 -0.7614 -0.3767
 3295SOL    HW2 9885   4.205   1.116   8.883 -0.6523 -0.0393 -0.3870
 3296SOL     OW 9886   4.467   0.889   5.981 -0.8092  0.1375 -0.8122
 3296SOL    HW1 9887   4.426   0.906   5.896 -0.0812  0.2794 -1.1445
 3296SOL    HW2 9888   4.426   0.953   6.040 -1.0928  0.2513 -1.1280
 3297SOL     OW 9889   1.541   1.623   6.723  0.0394 -0.2370 -0.2289
 3297SOL    HW1 9890   1.485   1.547   6.739 -0.0827 -0.1762 -0.3691
 3297SOL    HW2 9891   1.625   1.599   6.762  0.4954 -1.0941 -1.6635
 3298SOL     OW 9892   4.785   4.871   7.630  0.1148 -0.3505  0.3064
 3298SOL    HW1 9893   4.724   4.929   7.584 -0.3254 -0.7949  0.3101
 3298SOL    HW2 9894   4.795   4.796   7.571 -0.6323 -1.0295  1.0147
 3299SOL     OW 9895   4.316   0.387   5.058  0.2492  0.0193  0.8845
 3299SOL    HW1 9896   4.339   0.307   5.106 -0.5517  0.1508  1.5080
 3299SOL    HW2 9897   4.378   0.390   4.985 -0.5046 -1.8523  0.0917
 3300SOL     OW 9898   0.131   0.319   5.093 -0.6654 -0.2795 -0.6881
 3300SOL    HW1 9899   0.081   0.310   5.013  0.2860  0.4829 -1.4035
 3300SOL    HW2 9900   0.073   0.289   5.163 -1.8996  0.0738 -1.5432
 3301SOL     OW 9901   2.532   3.561   5.980 -0.5160 -0.2092 -0.4738
 3301SOL    HW1 9902   2.586   3.639   5.994  0.8821 -1.0445 -1.0271
 3301SOL    HW2 9903   2.474   3.558   6.057 -1.5586  2.0887 -1.0787
 3302SOL     OW 9904   1.513   2.067   6.937 -0.8815 -0.8421 -0.0069
 3302SOL    HW1 9905   1.420   2.058   6.915 -1.5545  2.2735  0.9981
 3302SOL    HW2 9906   1.551   2.112   6.862 -1.0170  0.9172  0.9099
 3303SOL     OW 9907   2.732   0.688   8.378 -0.0002 -0.4437 -0.1436
 3303SOL    HW1 9908   2.797   0.628   8.343  0.4523  0.1190 -0.2842
 3303SOL    HW2 9909   2.656   0.679   8.320  1.3163  1.7109 -2.3891
 3304SOL     OW 9910   2.907   2.207   6.398  0.0926 -0.1690  0.0502
 3304SOL    HW1 9911   2.923   2.291   6.441 -1.3300 -0.3420  0.9952
 3304SOL    HW2 9912   2.829   2.172   6.442  0.3354 -1.7372 -0.6852
 3305SOL     OW 9913   2.481   4.376   5.941 -0.8720  0.1952  0.7654
 3305SOL    HW1 9914   2.403   4.356   5.890 -2.6423 -1.8799  3.9547
 3305SOL    HW2 9915   2.546   4.311   5.914 -1.0015  0.4984 -0.3041
 3306SOL     OW 9916   3.720   0.746   8.272  0.4297  0.1343  0.0827
 3306SOL    HW1 9917   3.675   0.687   8.212  1.3677 -0.5806  0.0616
 3306SOL    HW2 9918   3.687   0.722   8.358  0.5111 -0.1461  0.0366
 3307SOL     OW 9919   3.504   0.420   9.381  0.0704 -0.4407  0.4283
 3307SOL    HW1 9920   3.443   0.420   9.455  0.1804  1.9911  0.5952
 3307SOL    HW2 9921   3.470   0.487   9.322  1.6551 -0.2439 -0.3024
 3308SOL     OW 9922   3.583   0.238   7.265 -0.2172  0.1554  0.0577
 3308SOL    HW1 9923   3.599   0.262   7.356 -0.5260  2.4884 -0.4292
 3308SOL    HW2 9924   3.492   0.210   7.263 -0.0707 -0.3661  0.5433
 3309SOL     OW 9925   4.054   0.186   5.012 -0.4985 -0.4743  0.4381
 3309SOL    HW1 9926   4.140   0.225   4.997 -0.2088 -1.9360 -2.3846
 3309SOL    HW2 9927   3.993   0.243   4.966 -0.7893 -0.4934  0.7947
 3310SOL     OW 9928   4.277   4.336   8.560 -0.0457  0.0637  0.2486
 3310SOL    HW1 9929   4.265   4.431   8.566 -0.1392  0.2792 -2.2292
 3310SOL    HW2 9930   4.200   4.305   8.512  0.3217 -1.1618  0.4117
 3311SOL     OW 9931   3.214   0.513   8.580  0.4856  0.0648 -0.0692
 3311SOL    HW1 9932   3.236   0.421   8.595  1.5652  0.5120  1.3666
 3311SOL    HW2 9933   3.119   0.513   8.568  0.5374 -1.2988 -0.7349
 3312SOL     OW 9934   3.988   0.675   8.428 -0.5765 -0.4739  0.1010
 3312SOL    HW1 9935   3.935   0.739   8.381 -1.6861 -0.3597  1.4654
 3312SOL    HW2 9936   3.926   0.626   8.482  0.2794 -2.5340 -0.6744
 3313SOL     OW 9937   2.274   4.356   8.776 -0.6348 -0.4101  0.2030
 3313SOL    HW1 9938   2.307   4.365   8.687 -1.9139  0.4409 -0.2155
 3313SOL    HW2 9939   2.221   4.276   8.774  0.9350 -1.5163  0.7553
 3314SOL     OW 9940   2.290   1.796   5.790 -0.0797 -0.8507 -0.1606
 3314SOL    HW1 9941   2.318   1.768   5.703  0.3177 -0.5429 -0.1361
 3314SOL    HW2 9942   2.198   1.820   5.779 -0.2069 -1.3993 -0.3550
 3315SOL     OW 9943   3.794   0.465   8.183  0.9707  0.4057  0.2179
 3315SOL    HW1 9944   3.739   0.521   8.128 -0.5458 -0.4118  0.8424
 3315SOL    HW2 9945   3.734   0.427   8.247  1.6324 -2.8573 -0.8697
 3316SOL     OW 9946   0.568   2.829   7.958  0.7709  0.1456 -0.4317
 3316SOL    HW1 9947   0.658   2.835   7.990  1.2508 -0.6795 -1.5562
 3316SOL    HW2 9948   0.515   2.827   8.037  1.6873  1.1688  0.2482
 3317SOL     OW 9949   3.289   2.193   8.117 -0.3655  0.0194  0.1264
 3317SOL    HW1 9950   3.329   2.112   8.150 -0.3530 -0.4720 -1.0287
 3317SOL    HW2 9951   3.314   2.196   8.025  0.1115  1.6616  0.2906
 3318SOL     OW 9952   2.150   4.969   9.049 -0.3460 -0.0681  0.3939
 3318SOL    HW1 9953   2.201   4.950   8.971 -0.9859  1.5712 -0.4818
 3318SOL    HW2 9954   2.171   4.898   9.110  1.5036 -0.4401 -0.6106
 3319SOL     OW 9955   2.674   0.526   6.391 -0.0906  0.1399  0.0318
 3319SOL    HW1 9956   2.688   0.472   6.314 -1.8858 -0.1120 -0.1447
 3319SOL    HW2 9957   2.761   0.535   6.430  1.0177  0.8767 -2.3903
 3320SOL     OW 9958   4.501   0.963   7.378  0.2385 -0.2140  0.1732
 3320SOL    HW1 9959   4.449   0.978   7.299 -1.2972 -0.7449  1.0424
 3320SOL    HW2 9960   4.437   0.960   7.449  1.3069 -2.1272  1.1472
 3321SOL     OW 9961   4.038   4.280   8.458 -0.5887 -0.2999  0.1388
 3321SOL    HW1 9962   4.032   4.248   8.368  2.4173 -3.8837  0.9719
 3321SOL    HW2 9963   3.966   4.237   8.504 -0.9259 -0.0454 -0.1437
 3322SOL     OW 9964   1.680   2.600   9.653  0.2870 -0.7115  0.6225
 3322SOL    HW1 9965   1.625   2.549   9.594 -1.2048  1.5863 -0.1136
 3322SOL    HW2 9966   1.627   2.615   9.731  1.0336 -1.0012  1.2071
 3323SOL     OW 9967   3.610   2.385   6.319  0.2969 -0.1821  0.7811
 3323SOL    HW1 9968   3.547   2.418   6.383 -1.4508  1.1944 -1.4686
 3323SOL    HW2 9969   3.677   2.453   6.314 -0.9661  1.0444 -0.6491
 3324SOL     OW 9970   1.610   2.251   9.685  0.6064  0.3836 -0.2371
 3324SOL    HW1 9971   1.582   2.318   9.623  1.4451 -0.2318 -1.3069
 3324SOL    HW2 9972   1.705   2.249   9.677  0.5616 -1.4734 -0.8256
 3325SOL     OW 9973   1.815   1.231   8.553 -0.4198 -0.5320 -0.2512
 3325SOL    HW1 9974   1.768   1.294   8.499 -0.2604 -0.8477 -0.7617
 3325SOL    HW2 9975   1.746   1.170   8.582 -0.2695 -1.2885 -1.4115
 3326SOL     OW 9976   4.075   1.879   8.016 -0.2363 -0.3201  0.0780
 3326SOL    HW1 9977   4.097   1.963   8.058 -3.4024  0.8259 -0.2491
 3326SOL    HW2 9978   4.083   1.896   7.923  0.7015 -0.9345  0.0348
 3327SOL     OW 9979   2.541   0.082   4.974  0.3654 -0.0843  0.3122
 3327SOL    HW1 9980   2.468   0.117   5.026  0.3493  0.8932 -0.3539
 3327SOL    HW2 9981   2.554  -0.007   5.008  0.6332  0.6635  2.2809
 3328SOL     OW 9982   3.091   3.543   8.317 -0.0095  0.2512 -0.2528
 3328SOL    HW1 9983   3.181   3.515   8.330  0.1334  1.0269  0.4811
 3328SOL    HW2 9984   3.082   3.551   8.222  0.5229 -0.3702 -0.3634
 3329SOL     OW 9985   4.067   0.120   9.139 -0.0202  0.6646 -0.1850
 3329SOL    HW1 9986   4.146   0.070   9.119  0.7784  1.0605  1.7396
 3329SOL    HW2 9987   4.033   0.080   9.219  0.6274  3.0491  1.4073
 3330SOL     OW 9988   3.730   4.336   9.251  0.3868 -0.0159 -0.8602
 3330SOL    HW1 9989   3.742   4.431   9.255  1.9101 -0.2158  0.0535
 3330SOL    HW2 9990   3.636   4.324   9.235 -0.3122  1.6277  1.5121
 3331SOL     OW 9991   1.472   1.522   4.910 -0.0456 -0.0806  0.1446
 3331SOL    HW1 9992   1.381   1.542   4.889 -0.2830 -0.8877  0.3544
 3331SOL    HW2 9993   1.504   1.471   4.836  0.4193  0.6759 -0.1901
 3332SOL     OW 9994   0.303   4.236   9.699  0.0260 -0.2339  0.0121
 3332SOL    HW1 9995   0.349   4.301   9.752 -0.3259  1.8935 -2.1701
 3332SOL    HW2 9996   0.212   4.239   9.731  0.4545 -1.4815  1.5201
 3333SOL     OW 9997   2.262   4.157   9.851 -0.0524  0.4321  0.4156
 3333SOL    HW1 9998   2.341   4.191   9.808  0.4746  0.9850  1.7726
 3333SOL    HW2 9999   2.223   4.099   9.785  1.0579  0.7506 -0.5747
 3334SOL     OW10000   3.108   4.892   9.945 -0.0609  0.1850 -0.0243
 3334SOL    HW110001   3.139   4.816   9.993  0.8721  1.3468  1.2858
 3334SOL    HW210002   3.186   4.924   9.899  0.0801  1.5009  1.0660
 3335SOL     OW10003   2.172   1.074   9.945  0.8248 -0.1615 -0.1960
 3335SOL    HW110004   2.186   0.991   9.899  0.1996 -1.0392  1.1380
 3335SOL    HW210005   2.098   1.057  10.003  0.3295  1.5040 -0.2698
 3336SOL     OW10006   2.465   2.535  10.165 -0.3125 -0.6647 -0.0190
 3336SOL    HW110007   2.436   2.589  10.090 -0.6753 -0.7152  0.0799
 3336SOL    HW210008   2.405   2.460  10.164 -1.0331 -0.1326  0.9634
 3337SOL     OW10009   3.115   1.491   9.493  0.5669 -0.1470  0.2405
 3337SOL    HW110010   3.188   1.522   9.439  0.3274  0.4842  0.2676
 3337SOL    HW210011   3.155   1.469   9.577  0.7025  0.3833  0.3194
 3338SOL     OW10012   3.162   1.535   7.575  0.4772  0.2622 -0.4421
 3338SOL    HW110013   3.192   1.626   7.583  1.0862 -0.0547  1.3570
 3338SOL    HW210014   3.086   1.530   7.633  2.2459 -1.0534  1.9519
 3339SOL     OW10015   3.609   1.353   9.056 -0.3120  0.1801  0.5853
 3339SOL    HW110016   3.624   1.447   9.044 -1.9555  0.3550 -0.4000
 3339SOL    HW210017   3.561   1.346   9.138 -0.8329  0.2896  0.2956
 3340SOL     OW10018   2.469   0.588   9.380  0.4421 -0.3787 -0.1665
 3340SOL    HW110019   2.413   0.594   9.302 -0.2927  1.5857  0.4491
 3340SOL    HW210020   2.464   0.496   9.406  0.9539 -1.1759 -2.5712
 3341SOL     OW10021   0.726   2.617   7.361  0.3953 -0.6097 -0.0363
 3341SOL    HW110022   0.713   2.709   7.338  0.7563 -0.3870  0.6424
 3341SOL    HW210023   0.820   2.602   7.345  0.2257 -1.0226 -0.6960
 3342SOL     OW10024   2.930   1.646  10.027 -0.8553  0.6066  0.4199
 3342SOL    HW110025   2.886   1.696   9.957 -1.7604 -0.6204  0.0732
 3342SOL    HW210026   2.870   1.651  10.101 -1.3293 -0.5733  0.1381
 3343SOL     OW10027   4.987   1.827   7.401 -0.1234 -0.0882 -0.6506
 3343SOL    HW110028   5.063   1.881   7.377 -1.3080  2.3456  0.7703
 3343SOL    HW210029   4.915   1.864   7.350 -0.9286 -0.4648  0.1977
 3344SOL     OW10030   4.421   2.892   8.543  0.2402 -0.0501  0.0883
 3344SOL    HW110031   4.383   2.898   8.631 -0.0950 -0.9137  0.0165
 3344SOL    HW210032   4.413   2.799   8.520  2.1300 -0.2227 -0.0587
 3345SOL     OW10033   2.019   1.947  10.028  0.1193  0.2092  0.4150
 3345SOL    HW110034   2.109   1.966  10.054  0.8893 -1.4150 -0.8657
 3345SOL    HW210035   1.967   2.018  10.066  1.6795  0.2127  2.7352
 3346SOL     OW10036   2.303   0.090   8.214 -0.3147  0.1841  0.3174
 3346SOL    HW110037   2.375   0.044   8.171 -0.8786 -0.0673 -0.3672
 3346SOL    HW210038   2.238   0.023   8.231 -0.8007  0.5799  0.0458
 3347SOL     OW10039   0.217   1.440   9.718 -0.3148  0.4266 -0.1968
 3347SOL    HW110040   0.140   1.484   9.753 -0.3632 -0.2308  0.5545
 3347SOL    HW210041   0.231   1.365   9.776  0.2434 -0.0915 -0.9662
 3348SOL     OW10042   1.747   4.874   8.031  0.6117  0.4050  0.5561
 3348SOL    HW110043   1.759   4.811   8.102  1.7292  0.7652  0.7073
 3348SOL    HW210044   1.756   4.960   8.073 -3.0992  0.8453  0.8032
 3349SOL     OW10045   3.845   4.678   6.957  0.4231  0.2973 -0.1726
 3349SOL    HW110046   3.906   4.604   6.952  0.4160  0.2521  0.3516
 3349SOL    HW210047   3.802   4.679   6.872  2.7705  1.7244 -1.4737
 3350SOL     OW10048   4.640   2.421   8.691  0.3797 -0.2155 -0.0054
 3350SOL    HW110049   4.618   2.333   8.661  0.3129 -0.4589  0.7360
 3350SOL    HW210050   4.647   2.413   8.786 -0.1751  0.6977  0.1243
 3351SOL     OW10051   3.605   4.591   8.201 -0.4606 -0.5909  0.0201
 3351SOL    HW110052   3.528   4.536   8.214 -1.6600  0.1934 -2.9849
 3351SOL    HW210053   3.614   4.640   8.282 -2.4070 -1.5367  0.8672
 3352SOL     OW10054   4.527   2.403   8.154  0.0472 -0.3529  0.6002
 3352SOL    HW110055   4.560   2.350   8.082 -2.5334 -1.4781  0.1403
 3352SOL    HW210056   4.575   2.372   8.231  0.7742 -1.1597 -0.1563
 3353SOL     OW10057   3.559   1.282   9.555 -1.1244 -0.6943  0.0851
 3353SOL    HW110058   3.589   1.195   9.528 -0.2912 -0.7189  1.0322
 3353SOL    HW210059   3.508   1.266   9.635 -1.5454 -0.3754 -0.1150
 3354SOL     OW10060   1.983   4.464   9.547 -0.1090 -0.4705 -0.4968
 3354SOL    HW110061   1.912   4.516   9.585 -0.2384  0.8150 -2.3561
 3354SOL    HW210062   2.009   4.404   9.617 -2.3476 -0.3175  0.5666
 3355SOL     OW10063   4.662   1.118   7.208  0.0954 -0.6784  1.2506
 3355SOL    HW110064   4.632   1.041   7.256 -3.0332  0.8966  2.0643
 3355SOL    HW210065   4.606   1.121   7.130  1.9948 -0.6356 -0.1849
 3356SOL     OW10066   3.022   1.178   9.848 -0.6558 -0.0426 -0.1697
 3356SOL    HW110067   3.100   1.132   9.817  0.9611  1.3383  1.6569
 3356SOL    HW210068   2.986   1.121   9.917 -1.4639 -0.7867 -1.1625
 3357SOL     OW10069   0.678   1.240   7.768  0.2415 -0.5523 -0.0235
 3357SOL    HW110070   0.597   1.279   7.800 -0.3381 -1.8535  0.1652
 3357SOL    HW210071   0.726   1.216   7.847 -0.1289 -1.6206 -0.0955
 3358SOL     OW10072   0.331   3.730   8.798  0.2772 -0.3619 -0.2574
 3358SOL    HW110073   0.406   3.672   8.810  1.4911  1.0995 -0.4148
 3358SOL    HW210074   0.334   3.789   8.874  1.6752  2.1897 -2.1529
 3359SOL     OW10075   3.067   3.562   6.117  0.2342 -0.3531  0.2586
 3359SOL    HW110076   3.101   3.505   6.185 -0.6847 -0.3772  0.7180
 3359SOL    HW210077   3.042   3.642   6.162  0.8264  0.1378 -0.2654
 3360SOL     OW10078   2.721   3.575   9.694 -0.1187  0.5556 -0.2312
 3360SOL    HW110079   2.691   3.598   9.782 -0.2057 -0.3939 -0.0046
 3360SOL    HW210080   2.642   3.583   9.639 -0.5132 -0.6695  0.1276
 3361SOL     OW10081   2.496   2.320   9.135 -0.1267  0.6425  0.7400
 3361SOL    HW110082   2.440   2.282   9.203 -1.4313  1.2351  0.0205
 3361SOL    HW210083   2.437   2.371   9.081  0.8581  0.0752 -0.9435
 3362SOL     OW10084   0.875   0.581   9.041 -0.1998 -0.1836  0.3616
 3362SOL    HW110085   0.795   0.616   9.080  0.3578  1.0737  0.4124
 3362SOL    HW210086   0.912   0.525   9.110 -0.1902  0.5419  0.9581
 3363SOL     OW10087   0.114   2.348   9.068  0.0965 -0.4085 -0.3264
 3363SOL    HW110088   0.115   2.277   9.004 -1.4064  0.1714 -1.0377
 3363SOL    HW210089   0.030   2.391   9.055  0.1396  0.2922  1.4459
 3364SOL     OW10090   0.382   1.654   9.750  0.8758  0.1931  0.0788
 3364SOL    HW110091   0.328   1.575   9.747 -0.2593  0.8523 -4.0077
 3364SOL    HW210092   0.466   1.626   9.715  0.7256  0.5813 -0.6171
 3365SOL     OW10093   3.398   4.516   9.719 -0.3799 -0.1165  0.1479
 3365SOL    HW110094   3.470   4.558   9.672  0.5017  0.8796  2.2208
 3365SOL    HW210095   3.408   4.422   9.701  1.5043 -0.0085  0.3906
 3366SOL     OW10096   1.379   1.669   8.690  0.5403 -0.0246  0.1661
 3366SOL    HW110097   1.363   1.582   8.726  1.9344 -0.0588  0.7718
 3366SOL    HW210098   1.396   1.724   8.766  0.4992  0.5974 -0.2646
 3367SOL     OW10099   1.834   3.492   9.951  0.9724 -0.2695  0.4978
 3367SOL    HW110100   1.868   3.581   9.940  0.1133  0.1477  1.1243
 3367SOL    HW210101   1.858   3.447   9.870  0.3883  0.8710 -0.3303
 3368SOL     OW10102   0.054   1.044   8.762 -0.7321 -0.5715  0.1938
 3368SOL    HW110103   0.065   0.962   8.714  0.6099  0.0536 -0.6200
 3368SOL    HW210104   0.057   1.112   8.695 -0.2942  0.2372  1.0108
 3369SOL     OW10105   3.666   4.546   9.617  0.0439  0.0192  0.7292
 3369SOL    HW110106   3.721   4.620   9.592 -1.1309  0.7238  0.1518
 3369SOL    HW210107   3.701   4.472   9.568 -1.2794  1.0452 -1.9736
 3370SOL     OW10108  -0.023   2.286   9.504 -0.1876 -0.4110 -0.2768
 3370SOL    HW110109   0.035   2.319   9.435 -0.6725 -0.3048 -0.6446
 3370SOL    HW210110   0.001   2.194   9.514 -1.5485 -1.0548 -2.1498
 3371SOL     OW10111   0.345   0.939   8.669  0.0137  0.0189 -0.2075
 3371SOL    HW110112   0.363   0.887   8.592  0.9422 -1.4206  0.9356
 3371SOL    HW210113   0.269   0.897   8.709 -0.3659  0.6621 -0.2307
 3372SOL     OW10114   3.207   0.311   7.589  0.2609  0.0791  0.0030
 3372SOL    HW110115   3.210   0.224   7.628 -3.1084  0.2056  0.8629
 3372SOL    HW210116   3.124   0.314   7.543  1.0996  2.2818 -1.5489
 3373SOL     OW10117   3.416   1.332   8.564 -0.1793 -0.0805  0.0433
 3373SOL    HW110118   3.419   1.343   8.659 -0.4460  2.2768 -0.1758
 3373SOL    HW210119   3.375   1.412   8.532 -2.2460 -1.7822 -1.9197
 3374SOL     OW10120   4.667   3.847   9.388 -0.4168  0.0837 -0.5848
 3374SOL    HW110121   4.755   3.864   9.421 -0.0553  0.1789 -1.5644
 3374SOL    HW210122   4.652   3.916   9.323 -1.0606 -0.1570 -0.6970
 3375SOL     OW10123   4.246   4.851   9.492  0.2894 -0.3029 -0.0513
 3375SOL    HW110124   4.317   4.893   9.444  1.1217 -3.6511 -2.0805
 3375SOL    HW210125   4.286   4.775   9.533 -1.5230 -0.4515  1.5974
 3376SOL     OW10126   1.676   4.749  10.229 -0.5585 -0.2097  0.7647
 3376SOL    HW110127   1.684   4.656  10.251 -2.5989 -0.9946 -1.3833
 3376SOL    HW210128   1.764   4.774  10.202 -0.4119 -2.2144 -0.8911
 3377SOL     OW10129   4.276   3.590   8.032 -0.5693  0.2503  0.3359
 3377SOL    HW110130   4.195   3.635   8.007 -0.5525 -0.0224 -0.2131
 3377SOL    HW210131   4.277   3.511   7.978  0.0782  0.2650  0.3225
 3378SOL     OW10132   1.599   2.225   9.954  0.0424  0.0315 -0.1213
 3378SOL    HW110133   1.594   2.238   9.859 -3.1971 -0.3808 -0.1282
 3378SOL    HW210134   1.658   2.151   9.965 -0.4525 -0.6964 -1.9334
 3379SOL     OW10135   4.376   3.514   9.073  0.2883 -0.0608 -0.4289
 3379SOL    HW110136   4.354   3.570   8.999  1.4507 -1.5122 -1.9522
 3379SOL    HW210137   4.425   3.570   9.133 -0.0538  0.9574 -1.0881
 3380SOL     OW10138   2.544   1.507  10.017 -0.0811  0.8467  0.4352
 3380SOL    HW110139   2.629   1.493   9.976 -1.3665  0.9316 -2.5029
 3380SOL    HW210140   2.496   1.426  10.002 -2.2136  2.5032 -2.7005
 3381SOL     OW10141   1.722   1.902   8.085 -0.1206  0.1935  0.0763
 3381SOL    HW110142   1.773   1.967   8.133  0.2600 -0.5540  0.7248
 3381SOL    HW210143   1.778   1.877   8.012  0.0192  0.1040  0.2140
 3382SOL     OW10144   2.803   2.903   7.776  0.1584 -0.0043  0.0203
 3382SOL    HW110145   2.773   2.994   7.776  0.2934  0.1027  2.3927
 3382SOL    HW210146   2.887   2.906   7.822 -0.3448 -1.4421  1.0996
 3383SOL     OW10147   0.217   1.872   9.575  0.2187  0.1610 -0.1815
 3383SOL    HW110148   0.204   1.777   9.581  2.5435 -0.4388 -2.3521
 3383SOL    HW210149   0.257   1.896   9.658  1.5878 -1.2409 -0.3701
 3384SOL     OW10150   0.024   4.081   8.756  0.5471  0.2138  0.5199
 3384SOL    HW110151   0.035   3.987   8.740  0.8066  0.0266  1.7345
 3384SOL    HW210152  -0.051   4.106   8.701 -2.7992 -1.7558  3.7226
 3385SOL     OW10153   1.870   0.880   9.190 -0.4539 -0.2533 -0.2524
 3385SOL    HW110154   1.794   0.938   9.191  0.0514  0.4126  0.7886
 3385SOL    HW210155   1.859   0.825   9.268 -1.3544 -2.1711 -1.6481
 3386SOL     OW10156   2.485   0.869   9.007  0.0567 -0.3293  0.6101
 3386SOL    HW110157   2.465   0.853   8.915  2.5899  3.8661 -0.9292
 3386SOL    HW210158   2.578   0.849   9.015  0.1089  0.3896  2.0033
 3387SOL     OW10159   4.280   3.865   9.917  0.3184 -0.1981  0.0736
 3387SOL    HW110160   4.229   3.910   9.850  0.3961  0.3745  0.3904
 3387SOL    HW210161   4.219   3.803   9.956 -0.1910  0.5834  0.5491
 3388SOL     OW10162   1.893   4.608   7.882 -0.3216 -0.4612  0.5141
 3388SOL    HW110163   1.886   4.702   7.867  0.7401 -0.6275 -1.3063
 3388SOL    HW210164   1.986   4.593   7.896 -0.8232 -0.7789  4.8855
 3389SOL     OW10165   3.298   2.503   8.971 -0.0191 -0.0523  0.1017
 3389SOL    HW110166   3.363   2.435   8.954 -2.8115 -2.7132 -0.7372
 3389SOL    HW210167   3.255   2.517   8.886 -0.2498  2.0608  0.5002
 3390SOL     OW10168   3.076   3.426   9.462  0.4134 -0.2583  0.4252
 3390SOL    HW110169   3.038   3.420   9.374  0.6987 -1.5726  0.3621
 3390SOL    HW210170   3.040   3.350   9.508  0.7643  0.0683  1.2503
 3391SOL     OW10171   3.233   2.264   9.512  0.2756  0.1967 -0.3996
 3391SOL    HW110172   3.300   2.214   9.466  0.3999 -0.0674  0.0566
 3391SOL    HW210173   3.168   2.285   9.446  0.5570  0.0094 -0.7367
 3392SOL     OW10174   3.856   1.923   9.475  0.0584  0.6380  0.5044
 3392SOL    HW110175   3.948   1.906   9.492  0.2082  0.6104 -0.2952
 3392SOL    HW210176   3.810   1.886   9.550  0.6063 -0.3927  0.3416
 3393SOL     OW10177   4.632   2.198   8.511 -0.7273 -0.1579  0.8128
 3393SOL    HW110178   4.673   2.142   8.577  0.0873 -0.7492 -0.1697
 3393SOL    HW210179   4.705   2.228   8.457 -1.4713 -0.3375 -0.3194
 3394SOL     OW10180   4.286   4.178   9.622 -0.1762  0.1815  0.8010
 3394SOL    HW110181   4.313   4.088   9.603  0.4805  0.6796 -0.8274
 3394SOL    HW210182   4.289   4.222   9.537  0.9974  2.1261  1.7757
 3395SOL     OW10183   4.236   0.156   8.653 -0.1827  0.8770 -0.7048
 3395SOL    HW110184   4.222   0.239   8.698  0.7880  0.4545  0.4146
 3395SOL    HW210185   4.329   0.135   8.668  0.0833  0.5343 -2.5952
 3396SOL     OW10186   2.763   0.262   9.005 -0.1510 -0.0867  0.2409
 3396SOL    HW110187   2.703   0.188   9.012  1.1041 -1.2740 -1.0856
 3396SOL    HW210188   2.715   0.326   8.951 -0.8763 -0.3019  0.6140
 3397SOL     OW10189   3.936   4.017  10.023  0.6909 -0.5075  0.3197
 3397SOL    HW110190   3.963   3.939  10.073  2.6578 -0.3796 -0.4218
 3397SOL    HW210191   3.882   3.982   9.953  3.5622 -1.6854 -1.5258
 3398SOL     OW10192   4.539   0.568   9.109  0.6703  0.4911  0.0012
 3398SOL    HW110193   4.487   0.496   9.144  1.9486 -0.3539  0.2472
 3398SOL    HW210194   4.479   0.615   9.050 -0.2903 -0.5476  0.1172
 3399SOL     OW10195   5.027   4.594   5.807  0.1072 -0.0014 -0.2218
 3399SOL    HW110196   4.991   4.506   5.802  0.9924 -0.3805 -0.1246
 3399SOL    HW210197   4.952   4.652   5.794 -0.4506 -0.7686 -0.4534
 3400SOL     OW10198   3.527   0.919   8.830  0.2003 -1.2359 -0.5233
 3400SOL    HW110199   3.466   0.938   8.759 -0.0669 -2.4269 -0.6218
 3400SOL    HW210200   3.559   1.005   8.857 -1.3572 -0.5988 -0.6039
 3401SOL     OW10201   0.569   2.195   8.746 -0.2489  0.1855  0.0316
 3401SOL    HW110202   0.499   2.259   8.727  0.9575  1.8278  0.8316
 3401SOL    HW210203   0.539   2.150   8.825 -0.0943  1.4089  0.8110
 3402SOL     OW10204   4.263   2.015   7.446  0.0846 -0.1301  0.7384
 3402SOL    HW110205   4.252   1.930   7.402  0.0714 -0.0452  0.5773
 3402SOL    HW210206   4.176   2.055   7.440  0.4728  0.5774 -0.6018
 3403SOL     OW10207   3.407   2.418   8.606  0.0596 -0.2251  0.5968
 3403SOL    HW110208   3.462   2.352   8.649  0.2146 -2.2215 -2.3397
 3403SOL    HW210209   3.318   2.396   8.633  0.3109  0.1414  1.7844
 3404SOL     OW10210   4.691   0.610   5.159 -0.0752 -0.1642 -0.2565
 3404SOL    HW110211   4.750   0.542   5.127  2.7459  1.4636  1.1063
 3404SOL    HW210212   4.674   0.587   5.251  0.0196  0.3707 -0.0963
 3405SOL     OW10213   2.198   0.457   9.014  0.1066 -0.0743 -0.3318
 3405SOL    HW110214   2.187   0.541   8.970  0.1435 -0.6804 -1.5494
 3405SOL    HW210215   2.111   0.435   9.046  0.1703  0.5913  0.3175
 3406SOL     OW10216   4.864   3.765   9.077  0.0790  0.1728 -0.1625
 3406SOL    HW110217   4.940   3.707   9.086 -0.8677 -1.1224 -0.2457
 3406SOL    HW210218   4.895   3.851   9.106  1.3197 -0.5269  0.6347
 3407SOL     OW10219   4.499   2.121   9.044  0.3019  0.5173  0.3934
 3407SOL    HW110220   4.493   2.099   8.951 -0.4754  1.0732  0.2989
 3407SOL    HW210221   4.580   2.171   9.051 -0.3512  1.7410 -0.2811
 3408SOL     OW10222   0.982   4.214   8.474  0.6130 -0.2448  0.4292
 3408SOL    HW110223   0.957   4.188   8.385 -1.4121 -0.6581  1.0663
 3408SOL    HW210224   0.993   4.131   8.520  0.8568 -0.0219  0.7732
 3409SOL     OW10225   1.991   4.684  10.194 -0.5930  0.8306 -0.5619
 3409SOL    HW110226   1.963   4.764  10.149 -1.3953  1.3561  0.8152
 3409SOL    HW210227   2.030   4.716  10.276  2.5753  0.0352 -1.6191
 3410SOL     OW10228   4.271   2.174   9.236 -0.5698  0.0542  0.3157
 3410SOL    HW110229   4.265   2.255   9.287 -0.2519 -0.8576  1.8712
 3410SOL    HW210230   4.336   2.192   9.169 -2.1658  1.8229 -0.8532
 3411SOL     OW10231   2.101   0.041   8.709  0.6716  0.0532  0.0745
 3411SOL    HW110232   2.184  -0.006   8.706  0.5163 -0.2083 -2.5638
 3411SOL    HW210233   2.125   0.132   8.693  0.4831  0.0091 -0.4741
 3412SOL     OW10234   0.990   0.576   9.843 -0.2879 -0.0390  0.0282
 3412SOL    HW110235   0.975   0.590   9.937  1.5243  1.7419  0.1202
 3412SOL    HW210236   0.974   0.661   9.803 -0.4831 -0.6345 -1.2224
 3413SOL     OW10237   3.598   1.207   7.927 -0.0862 -0.5930  0.4534
 3413SOL    HW110238   3.605   1.112   7.926 -0.1874 -0.5916 -0.4745
 3413SOL    HW210239   3.611   1.231   8.019 -1.0776 -1.5823  0.8679
 3414SOL     OW10240   0.377   1.839   8.262  0.1763  0.2102  0.1400
 3414SOL    HW110241   0.320   1.815   8.334 -0.5010 -0.0180 -0.4559
 3414SOL    HW210242   0.436   1.765   8.251 -0.0152  0.0522  0.1745
 3415SOL     OW10243   0.106   3.225   8.118  0.0313  0.7012 -0.0350
 3415SOL    HW110244   0.091   3.178   8.036 -1.6089  0.3869  0.3898
 3415SOL    HW210245   0.032   3.286   8.124 -0.8160 -0.4086  1.9332
 3416SOL     OW10246   0.542   4.171   9.331  0.2528 -0.1771 -0.3681
 3416SOL    HW110247   0.623   4.186   9.379  0.4923  0.3221 -0.9216
 3416SOL    HW210248   0.514   4.083   9.358  0.4725  0.0282  0.5370
 3417SOL     OW10249   1.477   3.427   9.316  0.8384  0.6764 -0.3498
 3417SOL    HW110250   1.430   3.442   9.234  0.7350  1.9340 -0.0738
 3417SOL    HW210251   1.421   3.464   9.384  1.3004  0.3929  0.1981
 3418SOL     OW10252   1.618   1.455   9.716  0.2604  0.3960 -0.2667
 3418SOL    HW110253   1.529   1.462   9.681  0.0234 -0.7251  0.0850
 3418SOL    HW210254   1.606   1.443   9.810  0.7562 -0.2541 -0.2785
 3419SOL     OW10255   3.517   0.361   8.658 -0.6790 -0.0225  0.5940
 3419SOL    HW110256   3.534   0.278   8.703  0.3556  1.2455  2.7213
 3419SOL    HW210257   3.472   0.415   8.724 -0.1022  1.5560 -0.2572
 3420SOL     OW10258   0.311   1.212   5.838 -0.3997  0.1947 -0.2669
 3420SOL    HW110259   0.393   1.246   5.802  0.2625 -0.4462  0.5930
 3420SOL    HW210260   0.279   1.151   5.771  0.4420 -0.4436 -0.0956
 3421SOL     OW10261   3.687   1.560   9.556  0.1621 -0.0792  0.7145
 3421SOL    HW110262   3.608   1.508   9.569 -0.5916  0.4169 -1.4542
 3421SOL    HW210263   3.759   1.497   9.566 -0.5848 -0.9066  0.9883
 3422SOL     OW10264   3.642   3.228   9.903 -0.2687 -0.2996  0.1712
 3422SOL    HW110265   3.597   3.292   9.958 -2.0817 -1.7643  0.4940
 3422SOL    HW210266   3.576   3.162   9.884  0.8188 -0.8029 -2.2838
 3423SOL     OW10267   2.727   0.097  10.285 -0.1585  0.3630 -0.2067
 3423SOL    HW110268   2.811   0.126  10.249 -0.3430 -0.0493 -1.0103
 3423SOL    HW210269   2.715   0.010  10.248 -2.8802  1.9219 -3.5784
 3424SOL     OW10270   1.724   1.710   9.238  0.0607 -0.6277  0.2826
 3424SOL    HW110271   1.703   1.633   9.185 -0.9322 -1.0435  1.2384
 3424SOL    HW210272   1.651   1.770   9.224  0.4347 -0.1891  0.1735
 3425SOL     OW10273   1.043   2.803   5.349  0.2693 -0.1102 -0.4793
 3425SOL    HW110274   1.006   2.883   5.311 -0.7137 -0.7615 -0.9231
 3425SOL    HW210275   1.114   2.835   5.406  0.2390  1.0376 -1.0388
 3426SOL     OW10276   0.392   3.660   6.827  0.0484  0.0688 -0.1461
 3426SOL    HW110277   0.399   3.666   6.732 -0.8759  0.8063 -0.1830
 3426SOL    HW210278   0.308   3.616   6.842 -0.0120  0.3323  0.3144
 3427SOL     OW10279   1.034   2.906   7.212 -0.1755  0.7752 -0.2025
 3427SOL    HW110280   0.987   2.855   7.146  0.3127  0.7824 -0.5687
 3427SOL    HW210281   1.029   2.854   7.292 -1.4117  1.1140 -0.0379
 3428SOL     OW10282   4.200   3.936   5.415 -0.6944 -0.9019  0.4370
 3428SOL    HW110283   4.259   3.870   5.452  1.2564  0.4362 -0.0784
 3428SOL    HW210284   4.195   4.004   5.482 -0.5690 -0.4032 -0.0486
 3429SOL     OW10285   0.521   1.479   5.465  0.3688 -0.0386  0.4045
 3429SOL    HW110286   0.433   1.512   5.482  0.4499  0.1255  0.5079
 3429SOL    HW210287   0.544   1.515   5.379  0.6799  0.6422  0.7707
 3430SOL     OW10288   3.913   4.637   5.286  0.1251  0.0029 -0.2001
 3430SOL    HW110289   3.908   4.685   5.203 -0.9830 -1.6871 -1.1705
 3430SOL    HW210290   3.871   4.553   5.268  0.0739 -0.5168  2.0237
 3431SOL     OW10291   2.390   2.856   7.184 -0.3368 -0.1072  0.2740
 3431SOL    HW110292   2.355   2.885   7.268 -1.7171  0.9204 -0.6079
 3431SOL    HW210293   2.442   2.779   7.205 -0.5668  0.1827  2.0754
 3432SOL     OW10294   3.356   0.724   7.159  0.2030  0.1173 -0.0269
 3432SOL    HW110295   3.441   0.769   7.163  1.3110 -1.8168 -0.2273
 3432SOL    HW210296   3.368   0.656   7.093 -1.7104  0.1182 -0.4386
 3433SOL     OW10297   1.767   2.880   5.265  0.3583 -0.1155 -0.2762
 3433SOL    HW110298   1.711   2.957   5.255 -0.6521 -0.8162 -0.1956
 3433SOL    HW210299   1.706   2.807   5.277  1.3047 -0.6787  1.5652
 3434SOL     OW10300   2.371   4.782   7.264 -0.3410 -0.1134  0.4392
 3434SOL    HW110301   2.367   4.866   7.311 -0.9171 -0.4157  0.9263
 3434SOL    HW210302   2.365   4.807   7.171 -2.0457  0.2794  0.6357
 3435SOL     OW10303   1.122   1.260   6.808 -0.3558 -0.3551 -0.2378
 3435SOL    HW110304   1.168   1.191   6.856  0.6484 -0.2234 -0.9684
 3435SOL    HW210305   1.161   1.342   6.839 -0.0706 -0.2426 -0.8714
 3436SOL     OW10306   2.440   3.853   6.685  0.0163  0.6812  0.4292
 3436SOL    HW110307   2.502   3.916   6.650 -0.6253  1.3405  0.4668
 3436SOL    HW210308   2.406   3.807   6.608  1.5581 -0.6818  0.4855
 3437SOL     OW10309   4.794   2.773   6.715  0.4641 -0.2711  0.1377
 3437SOL    HW110310   4.724   2.828   6.679  0.2374 -0.2491  0.6009
 3437SOL    HW210311   4.771   2.685   6.687  1.8676  0.0393 -2.2843
 3438SOL     OW10312   4.014   3.109   5.888  0.6743 -0.8120  0.1084
 3438SOL    HW110313   3.940   3.144   5.838  0.3965 -0.6696  0.6068
 3438SOL    HW210314   3.986   3.021   5.914  0.0171 -0.2122  1.5985
 3439SOL     OW10315   4.793   4.949   5.988 -0.3769 -0.3315  0.1406
 3439SOL    HW110316   4.760   4.881   5.929  0.3254 -0.8304  0.3005
 3439SOL    HW210317   4.726   5.017   5.986 -0.7673 -0.7160 -0.5719
 3440SOL     OW10318   2.018   1.637   6.037  0.1999  0.3381  0.3481
 3440SOL    HW110319   2.061   1.637   6.123 -0.2204  0.3348  0.5597
 3440SOL    HW210320   2.034   1.725   6.002  1.6958 -0.1273 -0.2486
 3441SOL     OW10321   2.988   4.094   6.594 -0.3079  0.3502  0.1669
 3441SOL    HW110322   2.901   4.108   6.555  0.1699  1.6350 -0.4751
 3441SOL    HW210323   3.044   4.073   6.519 -0.1332 -0.9296  0.6337
 3442SOL     OW10324   0.707   3.009   5.359  0.0974  0.0639 -0.1214
 3442SOL    HW110325   0.612   3.016   5.356  0.1941  1.7246 -0.3181
 3442SOL    HW210326   0.728   2.937   5.299 -0.8756  1.5552 -2.3749
 3443SOL     OW10327   2.685   2.360   6.206  0.5339 -0.4252 -0.1403
 3443SOL    HW110328   2.695   2.285   6.265  0.6434 -0.3012 -0.0014
 3443SOL    HW210329   2.710   2.325   6.120 -0.2038 -0.7618 -0.2196
 3444SOL     OW10330   2.077   4.043   7.151 -0.8994 -0.2560  0.5508
 3444SOL    HW110331   2.100   4.079   7.237 -2.7184 -1.6228  1.6670
 3444SOL    HW210332   2.050   3.953   7.169 -2.8927 -0.0816 -1.2007
 3445SOL     OW10333   2.837   1.056   7.133  0.1850  0.0775 -0.1072
 3445SOL    HW110334   2.881   0.994   7.191  0.7941 -0.5753 -1.2153
 3445SOL    HW210335   2.909   1.098   7.086 -0.2791  0.8501 -0.1262
 3446SOL     OW10336   0.578   3.139   5.890 -0.1462 -0.3659  0.1647
 3446SOL    HW110337   0.608   3.049   5.898 -1.0642 -0.7091 -0.0915
 3446SOL    HW210338   0.610   3.168   5.804 -0.4775 -0.6970 -0.0712
 3447SOL     OW10339   2.974   2.534   5.729  0.0869  0.2954 -0.1460
 3447SOL    HW110340   2.932   2.618   5.712  3.0535  1.8456 -0.4271
 3447SOL    HW210341   2.944   2.477   5.658 -0.8970  1.5045 -0.7381
 3448SOL     OW10342   2.841   3.323   6.015 -0.0667 -0.0376  0.2824
 3448SOL    HW110343   2.858   3.342   6.107  2.2988 -0.9179  0.1133
 3448SOL    HW210344   2.776   3.253   6.017  0.2930 -0.3660  1.3223
 3449SOL     OW10345   4.399   3.783   6.142  0.1758  0.2599 -0.3883
 3449SOL    HW110346   4.374   3.691   6.149  0.5980  0.2129  0.6639
 3449SOL    HW210347   4.492   3.785   6.166  0.6607  0.7251 -2.1754
 3450SOL     OW10348   4.221   3.822   5.150  0.0055  0.1999 -0.3027
 3450SOL    HW110349   4.203   3.868   5.233  0.6694  0.1833 -0.1454
 3450SOL    HW210350   4.188   3.882   5.083  0.3403  0.6541 -0.0699
 3451SOL     OW10351   3.412   1.579   6.911  0.3724 -0.0488  0.6157
 3451SOL    HW110352   3.381   1.574   7.001 -1.6989 -0.4658 -0.0785
 3451SOL    HW210353   3.508   1.586   6.919  0.6041 -3.4256  2.7809
 3452SOL     OW10354   4.406   2.341   7.507 -0.0470  0.2517  0.0347
 3452SOL    HW110355   4.472   2.408   7.492  0.7949 -0.5434  0.1407
 3452SOL    HW210356   4.366   2.366   7.591  2.3490 -1.0073  1.6566
 3453SOL     OW10357   3.131   0.518   6.852  0.2127 -0.7933 -0.2976
 3453SOL    HW110358   3.079   0.598   6.862  0.0978 -0.5978 -2.0902
 3453SOL    HW210359   3.074   0.449   6.884 -1.2207 -0.5747 -2.1644
 3454SOL     OW10360   0.343   2.066   6.877  0.1558 -0.0599 -0.0034
 3454SOL    HW110361   0.360   2.066   6.783  0.4135 -0.4664  0.0414
 3454SOL    HW210362   0.393   1.992   6.911  0.4200  0.3528  0.5194
 3455SOL     OW10363   0.991   1.546   6.444  0.0546 -0.4064  1.0548
 3455SOL    HW110364   0.952   1.528   6.359 -2.4650  0.0777  2.0267
 3455SOL    HW210365   0.966   1.637   6.463  1.0042 -0.3446  2.0912
 3456SOL     OW10366  -0.010   2.391   5.130 -0.2020  0.1894  0.0990
 3456SOL    HW110367   0.058   2.418   5.068 -0.6965 -1.8128 -1.3887
 3456SOL    HW210368   0.038   2.369   5.210  0.5538  1.7569  0.1219
 3457SOL     OW10369   2.155   0.610   5.721 -0.7170 -0.2826  0.0763
 3457SOL    HW110370   2.155   0.535   5.661 -0.1803  1.0389 -1.6603
 3457SOL    HW210371   2.158   0.686   5.663 -1.7451  1.1122  1.7759
 3458SOL     OW10372   1.994   3.958   6.795 -0.4386 -0.1798 -0.1477
 3458SOL    HW110373   1.946   3.986   6.873  0.0588 -0.8326  0.4001
 3458SOL    HW210374   1.966   3.867   6.781  0.2986 -0.4242 -0.0807
 3459SOL     OW10375   4.494   4.198   6.275  0.0938 -0.1586  0.2284
 3459SOL    HW110376   4.462   4.288   6.262  1.7885  0.2275 -1.8245
 3459SOL    HW210377   4.442   4.146   6.213 -0.5181 -0.5275  1.0369
 3460SOL     OW10378   4.796   3.527   5.354  0.0310 -0.2575  0.2116
 3460SOL    HW110379   4.834   3.471   5.286 -1.4825  0.5712 -1.4010
 3460SOL    HW210380   4.772   3.466   5.424  2.9293 -0.9681  0.7337
 3461SOL     OW10381   3.837   1.973   5.822 -0.0108  0.0318 -0.6726
 3461SOL    HW110382   3.762   1.962   5.880  0.1472 -0.9735 -0.6434
 3461SOL    HW210383   3.879   2.053   5.853 -1.2663  0.8272 -0.9344
 3462SOL     OW10384   3.795   1.532   4.915  0.4752 -0.8196  0.0866
 3462SOL    HW110385   3.738   1.509   4.841  0.0987 -1.8732  0.6951
 3462SOL    HW210386   3.876   1.484   4.900  0.5617 -0.6863  0.1254
 3463SOL     OW10387   0.358   1.154   7.254  0.0326  0.8436 -0.0086
 3463SOL    HW110388   0.366   1.238   7.299 -1.7846 -0.0916  2.3391
 3463SOL    HW210389   0.266   1.151   7.225 -0.5381 -1.0429  1.7331
 3464SOL     OW10390   2.367   3.474   6.169  0.1337 -0.0770 -0.0234
 3464SOL    HW110391   2.364   3.398   6.227 -1.1105 -0.5642 -0.6902
 3464SOL    HW210392   2.279   3.479   6.131  0.8111  0.4093 -1.6178
 3465SOL     OW10393   1.969   4.945   6.666 -0.5802  0.5007  0.2603
 3465SOL    HW110394   1.955   4.867   6.613  3.7732  0.8583 -1.8161
 3465SOL    HW210395   1.967   5.018   6.603  1.1650  1.3480  1.0994
 3466SOL     OW10396   2.132   1.375   6.119 -0.4085  0.2122  0.2782
 3466SOL    HW110397   2.108   1.409   6.205 -0.6598  2.6202 -0.6474
 3466SOL    HW210398   2.208   1.428   6.093  0.0862 -0.9461 -0.7037
 3467SOL     OW10399   1.442   3.828   6.334  0.2003  0.5578  0.3197
 3467SOL    HW110400   1.496   3.753   6.357 -0.0155  0.9550  2.3786
 3467SOL    HW210401   1.355   3.792   6.316  0.7836  0.0573 -1.6524
 3468SOL     OW10402   2.093   2.110   5.349  0.0730 -0.5212  0.2348
 3468SOL    HW110403   2.068   2.050   5.419  0.0268  0.2368  0.8824
 3468SOL    HW210404   2.187   2.095   5.338 -0.1911 -1.7027 -0.5866
 3469SOL     OW10405   2.073   4.630   5.465  0.3743  0.1138 -0.0399
 3469SOL    HW110406   2.022   4.703   5.501  0.2007  0.4317 -0.8985
 3469SOL    HW210407   2.162   4.646   5.497  0.1967  0.3093  0.3630
 3470SOL     OW10408   0.189   2.658   6.834 -0.2016 -0.4828  0.4726
 3470SOL    HW110409   0.260   2.686   6.892 -0.3712  0.9403  0.0322
 3470SOL    HW210410   0.130   2.734   6.830 -1.0573 -1.1674 -0.2250
 3471SOL     OW10411   4.083   2.187   6.456  0.4690  0.5554 -0.3044
 3471SOL    HW110412   4.125   2.102   6.471 -2.4562 -1.0234 -0.2719
 3471SOL    HW210413   4.151   2.251   6.476  3.1401 -1.7392 -1.3496
 3472SOL     OW10414   0.850   4.910   7.498  0.3571  0.0526  0.0971
 3472SOL    HW110415   0.844   4.837   7.560  3.0586 -0.9103 -0.6281
 3472SOL    HW210416   0.855   4.869   7.412  2.2678  1.0060 -0.3066
 3473SOL     OW10417   4.296   3.815   6.492 -0.6091  0.4423  0.1461
 3473SOL    HW110418   4.343   3.798   6.411 -0.4677  1.3604  0.0246
 3473SOL    HW210419   4.206   3.832   6.465 -0.5749  0.6869  0.1803
 3474SOL     OW10420   0.257   2.215   5.110  0.3736  0.8656  0.0195
 3474SOL    HW110421   0.237   2.152   5.041 -0.7394 -0.3232  1.3671
 3474SOL    HW210422   0.318   2.276   5.070  0.5944 -0.4095 -1.6781
 3475SOL     OW10423   4.215   1.140   5.709 -0.7430  0.2622  0.3145
 3475SOL    HW110424   4.245   1.110   5.794 -1.6831 -0.3525  0.4482
 3475SOL    HW210425   4.157   1.070   5.678 -0.7963  0.6961 -0.6135
 3476SOL     OW10426   3.068   4.623   5.061  0.0107 -0.2816  0.3629
 3476SOL    HW110427   3.095   4.714   5.046  0.2046 -0.2064  1.1329
 3476SOL    HW210428   2.976   4.621   5.037  0.0579  0.0753  0.1500
 3477SOL     OW10429   2.001   3.481   7.012 -0.6706 -0.4992 -0.1926
 3477SOL    HW110430   2.074   3.472   7.073 -0.9872 -0.8383  0.1398
 3477SOL    HW210431   2.014   3.410   6.949 -1.4168 -1.3694  0.6087
 3478SOL     OW10432   2.745   2.199   5.995 -0.0275 -0.0774 -0.2512
 3478SOL    HW110433   2.823   2.252   5.976 -0.2934 -0.1611 -1.6950
 3478SOL    HW210434   2.709   2.178   5.909 -0.8552 -1.2411  0.3541
 3479SOL     OW10435   3.017   3.238   7.009 -0.2481  0.4636  0.1891
 3479SOL    HW110436   2.930   3.206   6.986 -1.1238 -0.5578  4.0892
 3479SOL    HW210437   3.002   3.329   7.037 -0.2925  0.0541  1.5866
 3480SOL     OW10438   4.923   0.526   6.035  0.2451 -0.2115 -0.0562
 3480SOL    HW110439   4.942   0.434   6.019  2.1330  0.5100 -2.5869
 3480SOL    HW210440   4.852   0.547   5.973 -0.5753 -0.0770  0.9104
 3481SOL     OW10441   0.988   2.536   5.274  0.2755 -0.7288  0.0506
 3481SOL    HW110442   1.011   2.626   5.298 -0.1432 -0.3454 -0.9571
 3481SOL    HW210443   1.059   2.484   5.311  1.7067  0.2355 -1.1734
 3482SOL     OW10444   3.032   3.567   5.090  0.5845  0.4334 -0.4828
 3482SOL    HW110445   2.938   3.586   5.087  0.3425 -0.6429 -0.2102
 3482SOL    HW210446   3.060   3.604   5.174  0.4323  0.8702 -0.6218
 3483SOL     OW10447   0.174   1.345   6.015 -0.2458 -0.5371 -0.2892
 3483SOL    HW110448   0.189   1.317   6.105 -2.0385 -0.4662  0.0755
 3483SOL    HW210449   0.235   1.293   5.963  3.5291  1.9162  1.1731
 3484SOL     OW10450   4.055   2.003   4.894 -0.4537  0.0208  0.3947
 3484SOL    HW110451   4.123   2.012   4.960  1.0919 -0.5353 -1.0534
 3484SOL    HW210452   4.059   2.084   4.844 -0.7414 -0.0824  0.2007
 3485SOL     OW10453   1.398   1.139   5.867 -0.3257 -0.2909  0.2720
 3485SOL    HW110454   1.331   1.143   5.935  1.0218  0.4992  1.6253
 3485SOL    HW210455   1.396   1.048   5.836 -0.6223 -0.8108  1.7484
 3486SOL     OW10456   0.351   2.191   5.660  0.4424  0.0182 -0.4073
 3486SOL    HW110457   0.275   2.133   5.658  0.6226 -0.2104 -0.7028
 3486SOL    HW210458   0.313   2.279   5.674  0.0568  0.0071 -1.2782
 3487SOL     OW10459   0.746   1.129   8.739  0.2728 -0.1445  0.0143
 3487SOL    HW110460   0.786   1.211   8.768  0.9006  0.1873 -1.6986
 3487SOL    HW210461   0.811   1.062   8.759  0.7338  0.0932 -0.6311
 3488SOL     OW10462   4.526   2.157   5.065 -0.0088  0.0756 -0.4079
 3488SOL    HW110463   4.621   2.158   5.077  0.3598  1.4029 -2.8354
 3488SOL    HW210464   4.495   2.236   5.111 -0.1283 -0.9493  1.3386
 3489SOL     OW10465   4.970   2.490   6.420 -0.7466 -0.5502 -0.1516
 3489SOL    HW110466   5.021   2.553   6.471 -0.6887  0.3046 -1.2357
 3489SOL    HW210467   4.958   2.532   6.335  1.6336 -3.0852 -1.9040
 3490SOL     OW10468   0.750   0.745   6.982 -0.6559  0.3067 -0.0238
 3490SOL    HW110469   0.828   0.772   6.934  0.0336 -2.3838 -0.5747
 3490SOL    HW210470   0.677   0.768   6.924 -0.4091  3.2621  0.6937
 3491SOL     OW10471   4.792   3.916   6.736  0.1482  0.2560 -0.4124
 3491SOL    HW110472   4.750   3.902   6.820  0.9479 -0.9244 -0.1782
 3491SOL    HW210473   4.789   3.830   6.693  4.0140 -0.5006  0.4608
 3492SOL     OW10474   4.081   2.888   5.483  0.6046  0.0548  0.4706
 3492SOL    HW110475   4.034   2.963   5.446  0.5734  0.2569  0.9135
 3492SOL    HW210476   4.014   2.821   5.495  0.9085 -0.6795 -1.5145
 3493SOL     OW10477   4.228   1.152   5.987 -0.2803  0.2276  0.2453
 3493SOL    HW110478   4.241   1.229   6.042 -0.8685  0.9266 -0.5687
 3493SOL    HW210479   4.139   1.122   6.007 -0.6240  0.6863 -0.5441
 3494SOL     OW10480   0.526   4.135   7.537 -0.0679 -0.4142 -0.4892
 3494SOL    HW110481   0.515   4.173   7.625 -3.0030 -0.2306 -0.8398
 3494SOL    HW210482   0.574   4.202   7.488  0.1648  0.1975  0.5384
 3495SOL     OW10483   4.363   1.370   6.104 -0.3357  0.0536 -0.0236
 3495SOL    HW110484   4.420   1.329   6.169 -1.4127 -1.2048  0.1781
 3495SOL    HW210485   4.423   1.405   6.038  0.7396  0.7855  1.3056
 3496SOL     OW10486   4.791   1.827   6.231 -0.6091  0.0600 -0.0305
 3496SOL    HW110487   4.783   1.867   6.318 -2.3170  1.3544 -0.7172
 3496SOL    HW210488   4.830   1.742   6.248  1.4031  1.2150  1.7304
 3497SOL     OW10489   4.297   4.697   5.608  0.5728 -0.8201 -0.0095
 3497SOL    HW110490   4.310   4.634   5.679 -0.4029 -1.3059 -0.2397
 3497SOL    HW210491   4.211   4.674   5.572  0.5073  0.2178 -0.5378
 3498SOL     OW10492   1.913   3.625   8.801 -0.1933 -0.2395 -0.0458
 3498SOL    HW110493   1.893   3.719   8.800  1.1241  0.0608  0.1278
 3498SOL    HW210494   1.965   3.611   8.722 -0.9851 -0.9900 -0.4602
 3499SOL     OW10495   4.838   2.952   7.534  0.6767  0.0362  0.4735
 3499SOL    HW110496   4.864   2.957   7.626 -0.7835 -0.4676  0.9332
 3499SOL    HW210497   4.914   2.986   7.486  2.0456 -1.0409  1.7636
 3500SOL     OW10498   4.242   1.640   7.679  0.4360  0.2153 -0.6585
 3500SOL    HW110499   4.238   1.596   7.764  1.8254  0.9009 -0.1998
 3500SOL    HW210500   4.301   1.714   7.694 -0.8140  1.4712 -1.7382
 3501SOL     OW10501   4.595   1.505   5.053  0.3356 -0.1341  0.2311
 3501SOL    HW110502   4.665   1.466   5.001  0.2688  1.5892 -1.2661
 3501SOL    HW210503   4.640   1.570   5.108  0.2370 -1.0160  1.3852
 3502SOL     OW10504   2.711   2.627   6.260 -0.5979 -0.1240  0.0323
 3502SOL    HW110505   2.748   2.618   6.348 -1.0544 -3.1076  0.0214
 3502SOL    HW210506   2.665   2.545   6.245  0.5967 -0.3194 -3.5185
 3503SOL     OW10507   4.313   3.733   5.579 -0.4118 -0.1783 -0.4033
 3503SOL    HW110508   4.371   3.684   5.521 -0.2803 -1.5334  0.7885
 3503SOL    HW210509   4.348   3.715   5.667 -1.3447  0.7637  0.1779
 3504SOL     OW10510   1.436   2.755   5.578 -0.0357 -0.8477  0.3634
 3504SOL    HW110511   1.390   2.671   5.584  1.3517 -1.8343 -1.6023
 3504SOL    HW210512   1.490   2.747   5.499  1.0706  1.4488  0.8037
 3505SOL     OW10513   3.695   4.733   5.586 -0.3350  0.0947 -0.4874
 3505SOL    HW110514   3.696   4.661   5.522  0.3036  1.3002 -1.8773
 3505SOL    HW210515   3.620   4.786   5.560 -0.7451 -0.0020  0.4809
 3506SOL     OW10516   4.457   2.655   7.159 -0.3710 -0.1547 -0.2185
 3506SOL    HW110517   4.484   2.740   7.126  0.6863 -0.3304  0.1552
 3506SOL    HW210518   4.530   2.626   7.214 -1.0926 -0.9007  0.3866
 3507SOL     OW10519   4.744   1.541   6.426 -0.7964  0.2663 -0.1955
 3507SOL    HW110520   4.724   1.604   6.496 -0.7463 -0.6587  0.6865
 3507SOL    HW210521   4.728   1.455   6.467 -1.5197 -0.2823 -1.5622
 3508SOL     OW10522   4.559   1.704   6.044  0.3467 -0.0515 -0.4798
 3508SOL    HW110523   4.646   1.679   6.012  0.3571 -0.9747  0.2243
 3508SOL    HW210524   4.544   1.646   6.119 -0.8098  0.2096 -0.4997
 3509SOL     OW10525   1.548   4.164   5.320  0.0251 -0.7697  0.2508
 3509SOL    HW110526   1.639   4.152   5.349  0.3469  0.3096 -0.2352
 3509SOL    HW210527   1.543   4.117   5.237  0.4653  0.0280 -0.2482
 3510SOL     OW10528   0.018   4.401   5.504 -0.0010  0.3763 -0.3582
 3510SOL    HW110529  -0.030   4.481   5.482  1.4723  1.4057 -0.0220
 3510SOL    HW210530   0.104   4.413   5.463  0.5031 -0.6934  0.3499
 3511SOL     OW10531   4.503   2.119   7.386 -0.8612  0.2953  0.2902
 3511SOL    HW110532   4.417   2.078   7.385 -0.6189 -0.2438 -0.9948
 3511SOL    HW210533   4.486   2.212   7.396 -1.6212  0.2332 -0.3713
 3512SOL     OW10534   3.904   2.735   5.652  0.4309  0.1090  0.5288
 3512SOL    HW110535   3.878   2.764   5.740  3.0677  1.0859  1.0775
 3512SOL    HW210536   3.927   2.643   5.663 -2.1657 -0.6724  0.1079
 3513SOL     OW10537   1.594   3.526   7.049 -0.1962  0.2021 -0.1673
 3513SOL    HW110538   1.508   3.519   7.092  0.1039 -1.9857  0.2346
 3513SOL    HW210539   1.648   3.463   7.096  0.8840 -0.3989 -2.1189
 3514SOL     OW10540   4.077   0.411   7.817 -0.2157 -0.5267  0.0357
 3514SOL    HW110541   4.076   0.478   7.885  0.9995 -0.7487  0.2890
 3514SOL    HW210542   4.156   0.428   7.766 -0.2448 -1.3568 -0.3201
 3515SOL     OW10543   0.154   3.083   7.352 -0.1885  0.2540 -0.4724
 3515SOL    HW110544   0.097   3.132   7.412 -0.4264  0.3795 -0.7951
 3515SOL    HW210545   0.153   2.994   7.386  1.2106  0.6979  0.8235
 3516SOL     OW10546   4.309   4.256   7.988 -0.2188 -0.1826 -0.0648
 3516SOL    HW110547   4.324   4.342   8.027 -0.7726 -0.1292  0.0264
 3516SOL    HW210548   4.398   4.223   7.971 -0.0041  0.4544 -0.2279
 3517SOL     OW10549   3.763   4.593   6.406 -0.2863  0.8693 -0.9979
 3517SOL    HW110550   3.795   4.683   6.393  1.9263 -0.0462 -2.6082
 3517SOL    HW210551   3.808   4.563   6.485  0.2710  0.6701 -1.3836
 3518SOL     OW10552   2.675   4.124   7.324  0.5511  0.1686  0.1382
 3518SOL    HW110553   2.678   4.037   7.285 -0.2729  0.5697 -0.8641
 3518SOL    HW210554   2.764   4.158   7.314  0.9606 -0.6656  0.8248
 3519SOL     OW10555   0.165   4.648   7.062  0.0591 -0.4599  0.4790
 3519SOL    HW110556   0.129   4.562   7.086 -0.0579 -0.4681  0.2681
 3519SOL    HW210557   0.109   4.710   7.109  0.4030 -0.5140  0.9682
 3520SOL     OW10558   0.780   3.160   6.600  0.6222 -0.3357 -0.4173
 3520SOL    HW110559   0.787   3.168   6.695  0.5202  1.3934 -0.5323
 3520SOL    HW210560   0.695   3.199   6.580  1.0596  0.1648 -1.3116
 3521SOL     OW10561   4.642   2.245   7.662 -0.2128 -0.0277 -0.3795
 3521SOL    HW110562   4.572   2.262   7.600  0.4130 -2.3999 -1.8733
 3521SOL    HW210563   4.715   2.215   7.608  0.5050 -1.8042  1.4607
 3522SOL     OW10564   4.444   1.857   5.347  0.1062 -0.1591  0.2451
 3522SOL    HW110565   4.439   1.825   5.256  0.6483 -0.4818  0.3217
 3522SOL    HW210566   4.415   1.948   5.342  1.6514  0.3345 -0.5377
 3523SOL     OW10567   4.155   2.165   5.741 -0.2687  0.0927  0.1782
 3523SOL    HW110568   4.204   2.247   5.736 -0.4310  0.2496  1.0722
 3523SOL    HW210569   4.080   2.185   5.796 -1.1210 -0.2640 -0.8193
 3524SOL     OW10570   4.726   0.902   4.786 -0.1851  0.6012 -0.0826
 3524SOL    HW110571   4.715   0.892   4.880 -0.6257 -1.4637 -0.3217
 3524SOL    HW210572   4.641   0.878   4.749  0.4213 -0.0939 -1.0759
 3525SOL     OW10573   3.141   3.077   5.956 -0.4336 -0.2242  0.1068
 3525SOL    HW110574   3.095   3.076   6.040 -0.9422 -1.3822 -0.1716
 3525SOL    HW210575   3.103   3.005   5.906  2.2903 -1.8653  0.1988
 3526SOL     OW10576   2.590   2.101   7.211  0.1518 -0.0558  0.2154
 3526SOL    HW110577   2.679   2.076   7.187  0.5605  1.2558  0.2589
 3526SOL    HW210578   2.587   2.089   7.306  0.6375  0.8933  0.3606
 3527SOL     OW10579   0.025   1.545   6.473  0.6415 -0.1471 -0.3600
 3527SOL    HW110580  -0.070   1.536   6.473  0.6523 -0.3449  0.3561
 3527SOL    HW210581   0.057   1.455   6.472  0.8224 -0.0810 -0.6141
 3528SOL     OW10582   3.830   3.975   7.807 -0.2191 -0.2048 -0.0809
 3528SOL    HW110583   3.801   4.066   7.796 -0.7787 -0.2547  0.9521
 3528SOL    HW210584   3.750   3.924   7.815  0.1140 -0.6164  0.7044
 3529SOL     OW10585   0.922   3.203   5.431  0.6165 -0.2712 -0.0060
 3529SOL    HW110586   0.868   3.177   5.356 -0.7208  2.3730 -0.0907
 3529SOL    HW210587   0.902   3.139   5.499 -0.9353 -0.6363 -0.7708
 3530SOL     OW10588   1.495   3.300   6.350  0.2463 -0.0254  0.3458
 3530SOL    HW110589   1.402   3.318   6.337  0.5905  1.8118  0.1907
 3530SOL    HW210590   1.505   3.209   6.322 -0.8965  0.7045 -3.0113
 3531SOL     OW10591   0.885   2.362   7.499  0.2779  0.1760 -0.4236
 3531SOL    HW110592   0.821   2.299   7.466  1.1132 -0.7620 -0.3018
 3531SOL    HW210593   0.970   2.318   7.489  0.8915  1.3109 -0.3926
 3532SOL     OW10594   4.919   2.630   4.694 -0.0187  0.3938 -0.1301
 3532SOL    HW110595   4.924   2.559   4.630 -0.2776  0.6288 -0.4128
 3532SOL    HW210596   4.897   2.587   4.777 -0.1232  0.1418 -0.2881
 3533SOL     OW10597   0.697   4.022   7.078 -0.0426  0.1599  0.2171
 3533SOL    HW110598   0.752   3.958   7.123  1.1333  0.2907 -0.9624
 3533SOL    HW210599   0.712   4.104   7.126  0.4079  0.0789  0.2253
 3534SOL     OW10600   0.038   1.405   7.954 -0.0729  0.5795 -0.7134
 3534SOL    HW110601   0.105   1.388   7.888 -0.6753 -1.4896 -0.8756
 3534SOL    HW210602   0.086   1.436   8.031  1.0556 -0.6535 -0.8955
 3535SOL     OW10603   0.319   4.349   6.071 -0.2011  0.1201  0.3794
 3535SOL    HW110604   0.341   4.355   6.164 -0.5773  0.4338  0.4508
 3535SOL    HW210605   0.316   4.440   6.041  1.2247 -0.0168 -0.2615
 3536SOL     OW10606   1.136   3.363   5.564 -0.2768 -0.2875 -0.1376
 3536SOL    HW110607   1.054   3.377   5.515 -0.4151 -0.2519  0.1003
 3536SOL    HW210608   1.165   3.276   5.537 -1.2806 -1.0251  1.0294
 3537SOL     OW10609   2.275   3.843   5.849 -0.3648  0.4139 -0.2258
 3537SOL    HW110610   2.359   3.885   5.831 -1.1399  1.6406 -1.1612
 3537SOL    HW210611   2.271   3.770   5.787  0.6137 -0.5556  0.8133
 3538SOL     OW10612   4.234   0.982   5.263  0.2202 -0.3228 -0.6260
 3538SOL    HW110613   4.261   1.053   5.204 -0.4569 -0.3463 -0.9799
 3538SOL    HW210614   4.294   0.910   5.244 -0.2384 -0.4659 -1.5813
 3539SOL     OW10615   1.531   0.033   6.648 -1.2519  0.1243 -0.3121
 3539SOL    HW110616   1.494   0.029   6.736 -2.4435 -3.3261 -0.8179
 3539SOL    HW210617   1.475   0.096   6.602 -2.1929  0.0995  0.7370
 3540SOL     OW10618   3.386   3.948   6.893  0.4523 -0.4468  0.2719
 3540SOL    HW110619   3.308   3.907   6.931 -0.3911  1.5979  0.8953
 3540SOL    HW210620   3.448   3.953   6.966  0.9220 -1.3990 -0.0399
 3541SOL     OW10621   4.727   4.908   6.235  0.1204 -0.4987 -0.4646
 3541SOL    HW110622   4.749   4.898   6.142  1.0261 -3.2604 -0.0321
 3541SOL    HW210623   4.768   4.991   6.260  0.7520 -0.2094 -2.2945
 3542SOL     OW10624   3.517   4.369   5.213 -0.1922  0.5058 -0.1614
 3542SOL    HW110625   3.527   4.412   5.128 -0.8983 -0.1434 -0.5850
 3542SOL    HW210626   3.423   4.359   5.225 -0.0694 -1.4963 -0.4002
 3543SOL     OW10627   1.918   3.541   5.356 -0.3309 -0.8134  0.2381
 3543SOL    HW110628   1.902   3.447   5.347 -1.8287 -0.5438 -0.3032
 3543SOL    HW210629   1.972   3.549   5.434  0.3529 -2.1684 -0.0665
 3544SOL     OW10630   3.698   2.691   5.997 -0.6642 -0.5976 -0.0776
 3544SOL    HW110631   3.730   2.603   5.979 -0.7196 -0.2382 -2.2458
 3544SOL    HW210632   3.678   2.691   6.090  1.2444 -2.2491  0.3971
 3545SOL     OW10633   3.789   2.211   7.359 -0.7681 -0.3170  0.3702
 3545SOL    HW110634   3.805   2.216   7.265 -0.7202 -0.9851  0.3380
 3545SOL    HW210635   3.771   2.302   7.385  2.3571  0.4244  0.2993
 3546SOL     OW10636   3.177   2.672   5.026  0.4086 -0.2602 -0.0171
 3546SOL    HW110637   3.107   2.734   5.007  0.6314 -0.1489 -0.5054
 3546SOL    HW210638   3.256   2.725   5.031  0.8988 -0.6563 -2.2033
 3547SOL     OW10639   0.727   0.866   8.334  0.6336 -0.0054  0.8044
 3547SOL    HW110640   0.708   0.920   8.257  1.9042  0.8972  1.0872
 3547SOL    HW210641   0.728   0.776   8.300 -3.4030 -0.1937  0.6681
 3548SOL     OW10642   0.788   4.678   5.810  0.5824 -0.2167 -0.1899
 3548SOL    HW110643   0.759   4.607   5.866  0.4357  0.7428  0.9977
 3548SOL    HW210644   0.777   4.645   5.721  2.2695 -2.3410  0.3337
 3549SOL     OW10645   4.346   4.288   5.114 -0.0640  0.0630 -0.2412
 3549SOL    HW110646   4.345   4.376   5.076 -0.6346  0.4959  0.7078
 3549SOL    HW210647   4.432   4.253   5.093  0.4769  1.1709  0.0508
 3550SOL     OW10648   4.727   3.376   5.885 -0.4650 -0.7158  0.2744
 3550SOL    HW110649   4.728   3.461   5.930  2.6643 -1.7187  2.4939
 3550SOL    HW210650   4.741   3.398   5.792  0.8602  1.2408  0.8679
 3551SOL     OW10651   2.389   4.891   5.130  0.0718  0.1522 -0.4776
 3551SOL    HW110652   2.392   4.857   5.219  0.6914  0.5997 -0.3250
 3551SOL    HW210653   2.335   4.828   5.082 -0.7616  0.2273  0.3408
 3552SOL     OW10654   4.925   0.390   5.307  0.2682  0.0666  0.2460
 3552SOL    HW110655   4.848   0.418   5.355  0.8917 -0.7097  1.7704
 3552SOL    HW210656   4.991   0.456   5.326  0.9422 -0.9644  1.6777
 3553SOL     OW10657   1.551   3.832   6.738 -0.1989  0.4532 -0.2330
 3553SOL    HW110658   1.462   3.814   6.707 -0.2643 -0.1520  0.2976
 3553SOL    HW210659   1.593   3.747   6.744  0.6554  0.7943 -1.1571
 3554SOL     OW10660   1.099   1.647   5.220 -0.2321 -0.7280  0.2157
 3554SOL    HW110661   1.017   1.627   5.174 -0.2028 -0.6314  0.1217
 3554SOL    HW210662   1.162   1.665   5.151 -0.5448  0.8499  0.2970
 3555SOL     OW10663   4.355   3.135   6.827  0.2646  0.8675  0.1390
 3555SOL    HW110664   4.428   3.184   6.864 -0.5814  0.3854  2.6123
 3555SOL    HW210665   4.279   3.191   6.843 -0.6562 -0.9438  2.6630
 3556SOL     OW10666   0.540   1.615   5.222  0.2328  0.0828 -0.0561
 3556SOL    HW110667   0.472   1.577   5.168  0.4392  0.4567 -0.5955
 3556SOL    HW210668   0.622   1.588   5.181  0.3915  0.4971 -0.0252
 3557SOL     OW10669   3.021   2.722   6.469  0.3169  0.8266  0.0015
 3557SOL    HW110670   3.090   2.776   6.508  0.6678  1.2086 -1.0988
 3557SOL    HW210671   3.063   2.682   6.393  0.0333 -0.9669  0.7495
 3558SOL     OW10672   3.645   2.404   5.835  0.2336 -0.1594 -0.2417
 3558SOL    HW110673   3.579   2.383   5.902  1.2893  1.5779  1.4210
 3558SOL    HW210674   3.609   2.481   5.790  0.7350  0.2834  0.1118
 3559SOL     OW10675   3.676   2.638   6.505 -0.3151 -0.0074 -0.1032
 3559SOL    HW110676   3.693   2.572   6.573 -0.7898  0.8927  0.9254
 3559SOL    HW210677   3.684   2.722   6.551 -0.5701  0.6242 -1.1861
 3560SOL     OW10678   0.363   0.239   6.106 -0.3656  0.5757  0.2073
 3560SOL    HW110679   0.268   0.250   6.101 -0.2673  1.1686 -0.6588
 3560SOL    HW210680   0.397   0.306   6.047  0.4947 -1.1205 -1.3254
 3561SOL     OW10681   1.407   2.189   8.346  0.2491  0.2291 -0.2940
 3561SOL    HW110682   1.363   2.274   8.341 -0.7270 -0.1860  1.0023
 3561SOL    HW210683   1.465   2.196   8.422 -2.1035 -1.2523  1.7597
 3562SOL     OW10684   2.356   3.720   7.150 -0.3971  0.1631 -0.1418
 3562SOL    HW110685   2.318   3.635   7.129  0.6439 -0.2622 -0.3624
 3562SOL    HW210686   2.304   3.783   7.100 -0.5005 -0.4479 -0.8158
 3563SOL     OW10687   3.607   2.738   6.252  0.0569 -0.4477  0.5197
 3563SOL    HW110688   3.645   2.664   6.300 -0.0606 -1.0128 -0.2396
 3563SOL    HW210689   3.539   2.772   6.310  1.5417  0.4387  1.8076
 3564SOL     OW10690   5.004   1.023   4.758 -0.0920  0.1450  0.2671
 3564SOL    HW110691   4.926   0.976   4.728  0.0929  1.1494 -1.8929
 3564SOL    HW210692   4.986   1.115   4.741  2.0370  0.3186 -1.5763
 3565SOL     OW10693   4.531   1.079   8.084 -0.2540  0.1660  0.5447
 3565SOL    HW110694   4.590   1.144   8.045 -1.7131  1.5739  0.5842
 3565SOL    HW210695   4.476   1.050   8.010 -0.1217 -0.4522  0.6855
 3566SOL     OW10696   1.151   2.161   7.843  0.0530 -0.3238 -0.0877
 3566SOL    HW110697   1.207   2.110   7.901 -0.3518 -0.5326  0.1307
 3566SOL    HW210698   1.200   2.241   7.824  1.4172 -1.5045 -1.7753
 3567SOL     OW10699   2.822   1.995   9.684 -0.1539 -0.0166  0.2984
 3567SOL    HW110700   2.825   2.034   9.771  0.2050  0.7022 -0.0269
 3567SOL    HW210701   2.910   2.010   9.648 -1.1346  2.4685 -1.3744
 3568SOL     OW10702   1.051   4.663   7.367 -0.1860 -0.6130 -0.1504
 3568SOL    HW110703   1.000   4.737   7.336  2.8326  0.7240 -2.5775
 3568SOL    HW210704   1.116   4.701   7.426 -1.6558 -2.2101  2.7144
 3569SOL     OW10705   1.041   4.320   5.165 -0.2117 -0.5526 -0.2212
 3569SOL    HW110706   1.077   4.364   5.089 -2.0423 -1.0139 -1.4135
 3569SOL    HW210707   1.117   4.280   5.208  1.2204  1.9950 -0.2137
 3570SOL     OW10708   0.234   3.481   6.587  0.5325 -0.6925 -0.5689
 3570SOL    HW110709   0.328   3.477   6.604  0.6394 -1.9207 -1.3344
 3570SOL    HW210710   0.214   3.575   6.582  1.2060 -0.3301  2.1742
 3571SOL     OW10711   3.743   3.807   8.236  0.6182  0.0789  0.3228
 3571SOL    HW110712   3.763   3.870   8.166 -1.5880 -0.9643 -1.3671
 3571SOL    HW210713   3.801   3.832   8.308  2.4449  1.7005 -1.5807
 3572SOL     OW10714   3.255   2.490   8.245 -0.1069 -0.1958  0.3321
 3572SOL    HW110715   3.332   2.462   8.195  0.2711  1.0247  0.1980
 3572SOL    HW210716   3.218   2.409   8.280  0.1193 -0.9809 -1.1922
 3573SOL     OW10717   2.831   2.987   8.941  0.3421  1.1431 -0.6585
 3573SOL    HW110718   2.870   3.006   8.855 -2.0580  3.1847 -1.4126
 3573SOL    HW210719   2.738   3.003   8.929 -0.4392 -1.0074  1.7291
 3574SOL     OW10720   2.407   4.423   8.999 -0.5747 -0.2144 -0.2340
 3574SOL    HW110721   2.501   4.424   8.985 -0.6030  3.3141 -0.9447
 3574SOL    HW210722   2.369   4.414   8.912 -0.9766 -2.1873  0.0940
 3575SOL     OW10723   4.359   0.620   7.965 -0.3796  0.3270 -0.0963
 3575SOL    HW110724   4.367   0.610   7.870  0.1249 -0.2581  0.0052
 3575SOL    HW210725   4.266   0.606   7.982 -0.0792 -2.2061 -0.2167
 3576SOL     OW10726   0.429   2.866   6.306  0.5496 -0.1557 -0.1492
 3576SOL    HW110727   0.390   2.952   6.291  1.9358  1.1243  2.7404
 3576SOL    HW210728   0.420   2.852   6.400  0.5379 -3.1481 -0.4914
 3577SOL     OW10729   1.227   0.987   9.611 -0.4746  0.3181  0.7026
 3577SOL    HW110730   1.287   1.060   9.596 -0.4857  0.7332  2.4320
 3577SOL    HW210731   1.257   0.947   9.692 -3.3333  1.4630  2.5094
 3578SOL     OW10732   0.164   2.583   5.481 -0.6542  0.5214  0.3800
 3578SOL    HW110733   0.121   2.536   5.553  0.3478  1.6676  1.7979
 3578SOL    HW210734   0.189   2.514   5.419  1.2879 -0.9965  2.6358
 3579SOL     OW10735   3.078   2.300   7.097  0.3548 -0.0178  0.3152
 3579SOL    HW110736   3.084   2.313   7.002 -1.0851 -0.8167  0.0860
 3579SOL    HW210737   3.149   2.239   7.117  0.8965  0.4403 -0.1905
 3580SOL     OW10738   4.364   4.424   6.254 -0.0459 -0.1238  0.2104
 3580SOL    HW110739   4.305   4.381   6.317 -0.7334  0.8922  0.2846
 3580SOL    HW210740   4.305   4.471   6.195  0.6895  0.9403  0.2999
 3581SOL     OW10741   0.296   3.923   6.739 -0.6133  0.2775  0.0950
 3581SOL    HW110742   0.348   3.907   6.818  1.9171  0.7218 -1.3821
 3581SOL    HW210743   0.345   3.990   6.692 -2.6564  0.8410 -1.3560
 3582SOL     OW10744   1.337   4.791   9.527 -0.5552 -0.5684  0.0711
 3582SOL    HW110745   1.311   4.723   9.465 -0.4400  0.2851 -0.9502
 3582SOL    HW210746   1.373   4.861   9.472  1.0374 -0.4339  1.2180
 3583SOL     OW10747   4.966   0.782   6.142 -0.2278  0.4027 -0.2777
 3583SOL    HW110748   4.899   0.832   6.096 -0.0610  0.6633 -0.2397
 3583SOL    HW210749   4.956   0.693   6.109  0.3806  0.7293 -1.3845
 3584SOL     OW10750   0.689   3.783   6.448 -0.0935 -0.3680  0.2338
 3584SOL    HW110751   0.770   3.829   6.472 -0.4443  0.6136 -0.4117
 3584SOL    HW210752   0.716   3.724   6.377  0.5204 -1.7784  1.5908
 3585SOL     OW10753   3.827   3.486   7.764 -0.1452 -0.1096  0.6652
 3585SOL    HW110754   3.757   3.536   7.806  0.1211 -0.1555  1.1680
 3585SOL    HW210755   3.784   3.440   7.693 -0.0445  2.6021 -1.3331
 3586SOL     OW10756   3.703   1.253   8.180 -0.2039 -0.3560 -0.0355
 3586SOL    HW110757   3.788   1.290   8.155 -0.4057 -0.3600 -0.7388
 3586SOL    HW210758   3.724   1.165   8.212  0.0488 -0.3831 -0.2718
 3587SOL     OW10759   1.266   2.449   6.991  0.1852 -0.0956 -0.6242
 3587SOL    HW110760   1.177   2.418   7.006  0.8573 -1.7411  0.2408
 3587SOL    HW210761   1.314   2.423   7.070  0.9607  2.7639 -0.0307
 3588SOL     OW10762   3.167   0.943   9.784 -0.4669  0.4156 -0.0207
 3588SOL    HW110763   3.139   0.900   9.865 -4.3615  1.1508 -0.7335
 3588SOL    HW210764   3.138   0.884   9.714  2.9256 -0.2661 -0.9967
 3589SOL     OW10765   0.194   2.177   7.092  0.2460 -0.1710 -0.2960
 3589SOL    HW110766   0.253   2.151   7.020  0.5936 -1.8756  0.5617
 3589SOL    HW210767   0.107   2.148   7.063  0.2382 -0.0211 -0.4253
 3590SOL     OW10768   3.857   2.417   9.777 -0.7357 -0.2351 -0.2007
 3590SOL    HW110769   3.943   2.414   9.818 -1.3826  0.4094  1.2877
 3590SOL    HW210770   3.874   2.449   9.689  0.5533 -0.2147  0.0293
 3591SOL     OW10771   4.736   2.671   9.105 -1.1003 -0.4495 -0.9053
 3591SOL    HW110772   4.669   2.640   9.165 -1.2132  0.5388 -0.5030
 3591SOL    HW210773   4.691   2.736   9.050 -0.4629  0.3068 -0.5564
 3592SOL     OW10774   3.800   3.379   6.628 -0.8132  0.2365  0.3974
 3592SOL    HW110775   3.730   3.315   6.641 -1.6864  1.1673  0.3825
 3592SOL    HW210776   3.771   3.456   6.676 -0.4055  1.0759 -0.6751
 3593SOL     OW10777   3.581   2.742   7.512 -0.2230 -0.7960  0.0624
 3593SOL    HW110778   3.585   2.721   7.605  0.5864  1.6565  0.6461
 3593SOL    HW210779   3.669   2.774   7.491 -0.7510 -0.1124 -1.2156
 3594SOL     OW10780   0.882   3.142   7.223  0.2959  0.0949 -0.2613
 3594SOL    HW110781   0.912   3.197   7.296 -1.4854 -0.7262  1.1691
 3594SOL    HW210782   0.919   3.056   7.242 -3.7465 -1.3174  2.3254
 3595SOL     OW10783   4.147   3.735   8.589  0.1520  0.0762 -0.1244
 3595SOL    HW110784   4.144   3.650   8.545 -0.5038 -0.1070  0.2598
 3595SOL    HW210785   4.151   3.799   8.518  1.1234 -0.2756 -0.4173
 3596SOL     OW10786   1.116   2.069   6.238 -0.5271 -0.3034  0.5031
 3596SOL    HW110787   1.067   2.070   6.155  0.7605 -0.3084 -0.2951
 3596SOL    HW210788   1.139   2.160   6.253  0.0623 -0.4182  0.3328
 3597SOL     OW10789   0.898   2.287   6.076 -0.1716 -0.1729 -0.3107
 3597SOL    HW110790   0.982   2.294   6.030  1.1389 -3.3215  1.3185
 3597SOL    HW210791   0.910   2.339   6.155 -0.4207  0.7594 -0.8692
 3598SOL     OW10792   2.991   2.889   5.134 -0.4632  0.3415 -0.3099
 3598SOL    HW110793   3.064   2.931   5.181 -0.2511  0.4719 -0.7492
 3598SOL    HW210794   2.973   2.949   5.062  2.3398 -2.0174 -3.2738
 3599SOL     OW10795   1.744   4.513   8.238  0.5544  0.2330 -0.0502
 3599SOL    HW110796   1.742   4.525   8.332 -0.4290 -1.9024  0.2728
 3599SOL    HW210797   1.836   4.524   8.213  1.4469 -2.4333  1.6944
 3600SOL     OW10798   0.529   3.286   7.958  0.1233 -0.8606 -0.3969
 3600SOL    HW110799   0.463   3.239   7.907  0.1167 -1.4229  0.1128
 3600SOL    HW210800   0.481   3.319   8.034 -0.0828  0.8119 -1.2016
 3601SOL     OW10801   4.080   1.646   7.041 -0.3715 -0.2919  0.1524
 3601SOL    HW110802   4.135   1.716   7.005  0.1314 -1.8238 -2.2910
 3601SOL    HW210803   4.138   1.600   7.103  0.7033 -0.9945 -1.3053
 3602SOL     OW10804   4.782   2.309   7.927  0.1728 -0.2992 -0.2663
 3602SOL    HW110805   4.786   2.404   7.912 -5.3383  1.1392  3.8588
 3602SOL    HW210806   4.741   2.274   7.848 -0.9310  1.4513 -0.5241
 3603SOL     OW10807   2.823   5.014   5.833 -0.4656 -0.2278  0.2883
 3603SOL    HW110808   2.734   5.028   5.803 -0.3709  0.0104  0.1176
 3603SOL    HW210809   2.850   4.931   5.793  0.0906  0.6870 -1.2942
 3604SOL     OW10810   2.962   1.701   9.042 -0.2636  0.0746  0.8531
 3604SOL    HW110811   3.037   1.652   9.008 -0.6096 -0.3304  0.6734
 3604SOL    HW210812   2.939   1.762   8.972 -1.2001 -1.0010  0.1904
 3605SOL     OW10813   4.446   0.526   5.825 -0.4133  0.5825 -0.1726
 3605SOL    HW110814   4.403   0.443   5.843 -0.7374  0.6084 -0.8000
 3605SOL    HW210815   4.376   0.582   5.791  0.4689 -0.0317 -3.2685
 3606SOL     OW10816   4.965   2.635   7.506 -0.4045  0.0982 -1.0099
 3606SOL    HW110817   4.895   2.691   7.475 -0.5510 -1.3356 -3.6010
 3606SOL    HW210818   5.037   2.649   7.444  0.8535  0.0226  0.3740
 3607SOL     OW10819   4.606   2.891   8.248  0.2002 -0.4480  0.9335
 3607SOL    HW110820   4.518   2.872   8.216 -0.0460  0.8449  0.7915
 3607SOL    HW210821   4.657   2.814   8.225 -0.4194 -0.3703 -0.8621
 3608SOL     OW10822   3.064   3.590   8.813  0.1441 -0.2182  0.0421
 3608SOL    HW110823   3.148   3.580   8.857  1.0411 -1.4474 -1.8431
 3608SOL    HW210824   3.014   3.513   8.839 -0.0725  0.0545  0.4455
 3609SOL     OW10825   3.874   1.344   9.479 -0.9345 -0.3797 -0.5755
 3609SOL    HW110826   3.937   1.405   9.440  0.0985 -0.9712  0.1118
 3609SOL    HW210827   3.863   1.276   9.413 -0.1999 -0.6982 -0.3853
 3610SOL     OW10828   1.478   0.540   9.058  0.9155 -0.3736  0.6493
 3610SOL    HW110829   1.414   0.521   8.989  1.3099  1.0136 -0.1479
 3610SOL    HW210830   1.466   0.471   9.122 -0.9161 -0.5309  0.1894
 3611SOL     OW10831   4.896   4.715   7.406 -0.3536  0.2878  0.1885
 3611SOL    HW110832   4.880   4.632   7.449 -1.4973 -0.0986 -0.9080
 3611SOL    HW210833   4.988   4.733   7.421  0.3985 -2.0897 -1.0849
 3612SOL     OW10834   0.275   4.216   8.548  0.0133 -0.5208 -0.0515
 3612SOL    HW110835   0.363   4.195   8.580 -0.4395 -1.1303  0.8330
 3612SOL    HW210836   0.231   4.131   8.541 -1.1593 -0.1052  1.5184
 3613SOL     OW10837   4.928   1.368   5.825  0.0124  0.5400 -0.7265
 3613SOL    HW110838   4.903   1.413   5.745  0.0789  0.5348 -0.7508
 3613SOL    HW210839   5.012   1.407   5.849  0.3681  0.0073 -1.0823
 3614SOL     OW10840   4.703   2.944   7.299  0.5392  0.0648 -0.4985
 3614SOL    HW110841   4.733   2.867   7.251  0.2234 -0.3040 -0.1052
 3614SOL    HW210842   4.745   2.937   7.384  1.0606  0.6927 -0.6888
 3615SOL     OW10843   2.430   2.818   6.889  0.1808  0.2799  0.4149
 3615SOL    HW110844   2.411   2.729   6.860  0.9565  0.3631 -0.3843
 3615SOL    HW210845   2.376   2.830   6.967 -1.7387 -0.0724 -0.7779
 3616SOL     OW10846   0.128   2.161   7.795 -0.2400 -0.0060 -0.3145
 3616SOL    HW110847   0.116   2.253   7.772  1.2721  0.5844  1.1211
 3616SOL    HW210848   0.127   2.159   7.890  0.9135 -1.2943 -0.3012
 3617SOL     OW10849   0.824   0.626   6.049  0.1755 -0.3661  0.8668
 3617SOL    HW110850   0.750   0.669   6.092  0.1617 -0.1697  0.6493
 3617SOL    HW210851   0.799   0.534   6.043  0.1522 -0.3863  1.2241
 3618SOL     OW10852   4.673   4.814   8.974  0.3821  0.7051 -0.1977
 3618SOL    HW110853   4.745   4.794   9.034 -1.7252 -4.0918  1.2574
 3618SOL    HW210854   4.695   4.765   8.894 -2.2963 -3.5706  1.3478
 3619SOL     OW10855   4.624   3.256   9.005  0.0139  0.1027 -0.1524
 3619SOL    HW110856   4.658   3.339   9.039  0.2988 -0.1293  0.1271
 3619SOL    HW210857   4.570   3.221   9.075  0.2940 -0.1898 -0.0817
 3620SOL     OW10858   4.092   1.471   9.326  0.6542  0.0938  0.3797
 3620SOL    HW110859   4.178   1.478   9.366  2.3492 -0.8073 -2.7304
 3620SOL    HW210860   4.072   1.559   9.294  0.7376  0.1777  0.5629
 3621SOL     OW10861   0.264   2.086   7.390 -0.0217 -0.0709  0.4232
 3621SOL    HW110862   0.358   2.098   7.397 -0.2449  0.7725  2.5906
 3621SOL    HW210863   0.240   2.131   7.309  1.6214 -1.9312 -1.2090
 3622SOL     OW10864   0.917   0.918   8.841 -0.3305  0.3263 -0.2007
 3622SOL    HW110865   0.975   0.862   8.892  0.3092  1.1603  0.0048
 3622SOL    HW210866   0.857   0.857   8.798  0.3019 -0.5073  0.0731
 3623SOL     OW10867   0.046   4.337   5.986  0.1083 -0.3878  0.0166
 3623SOL    HW110868   0.121   4.343   6.046 -0.3874  2.2625  0.4881
 3623SOL    HW210869  -0.012   4.407   6.014 -1.3435 -0.7119 -2.0152
 3624SOL     OW10870   0.144   1.446   7.056 -0.1725 -0.1879  0.6581
 3624SOL    HW110871   0.217   1.478   7.109  0.1902  0.5286 -0.2333
 3624SOL    HW210872   0.135   1.354   7.079  1.2027 -0.3587  0.5805
 3625SOL     OW10873   3.484   2.723   7.801 -0.0477  0.1394 -0.0226
 3625SOL    HW110874   3.446   2.654   7.747 -0.3400  1.1905 -1.2155
 3625SOL    HW210875   3.417   2.792   7.801  0.1056  0.3037  1.3991
 3626SOL     OW10876   3.993   3.783   5.370  0.0697 -0.0033 -0.0782
 3626SOL    HW110877   4.080   3.822   5.384  0.2951 -0.7947  0.7920
 3626SOL    HW210878   3.932   3.847   5.407  0.4930 -0.8317  2.2275
 3627SOL     OW10879   1.250   0.697   8.814 -0.4005 -0.0836  0.5025
 3627SOL    HW110880   1.210   0.737   8.737  2.5002  1.0876 -0.5414
 3627SOL    HW210881   1.200   0.732   8.888 -2.1807  0.1222 -0.7337
 3628SOL     OW10882   4.465   4.286  10.004  0.3247 -0.1587 -0.5959
 3628SOL    HW110883   4.385   4.287  10.056 -0.9071 -1.8799 -2.3124
 3628SOL    HW210884   4.479   4.377   9.979  0.0431  0.4460  1.3483
 3629SOL     OW10885   1.663   2.523   7.008  0.1026 -0.1340  0.1973
 3629SOL    HW110886   1.609   2.581   7.061  3.0396  0.4662  2.8908
 3629SOL    HW210887   1.741   2.575   6.987  0.6112 -1.5399 -1.7031
 3630SOL     OW10888   2.866   4.858   5.429 -0.5879  0.3002  0.0056
 3630SOL    HW110889   2.807   4.923   5.391 -1.0817  0.2307  0.6272
 3630SOL    HW210890   2.808   4.786   5.453 -0.3996  0.6232  1.5015
 3631SOL     OW10891   2.070   4.013   8.935  0.4970  0.3990 -0.4891
 3631SOL    HW110892   2.075   4.020   8.840  2.4033  0.0584 -0.4586
 3631SOL    HW210893   2.088   4.101   8.967 -1.8527  0.9096 -0.4234
 3632SOL     OW10894   4.359   4.055   6.096 -0.1872 -0.2872 -0.4628
 3632SOL    HW110895   4.410   4.071   6.016  2.2422 -1.4655  0.7312
 3632SOL    HW210896   4.368   3.961   6.111 -1.6695 -0.2922  0.5441
 3633SOL     OW10897   3.154   1.550   8.908 -0.2631 -0.0694 -0.2092
 3633SOL    HW110898   3.226   1.487   8.901 -1.7394 -1.6239 -2.3245
 3633SOL    HW210899   3.138   1.579   8.818 -3.3354 -1.0640 -0.0933
 3634SOL     OW10900   3.501   1.373   8.307 -0.6296  0.0492 -0.4983
 3634SOL    HW110901   3.574   1.332   8.259 -2.5455 -1.6928 -2.1039
 3634SOL    HW210902   3.477   1.308   8.373 -1.2673  0.2336 -0.5439
 3635SOL     OW10903   3.568   1.626   9.009  0.0595 -0.0664  0.0770
 3635SOL    HW110904   3.562   1.632   8.913  1.0053 -0.2987 -0.0077
 3635SOL    HW210905   3.503   1.689   9.041 -1.9912 -1.6940 -0.6885
 3636SOL     OW10906   2.860   3.067   8.633  0.1136 -0.1407  0.2067
 3636SOL    HW110907   2.891   3.158   8.632 -1.6572  0.4981 -0.3004
 3636SOL    HW210908   2.938   3.015   8.614  1.0841  1.2959  0.0810
 3637SOL     OW10909   1.036   3.648   5.996 -0.6233  0.0016 -0.1829
 3637SOL    HW110910   0.991   3.571   5.963 -1.2507  0.9173 -1.5628
 3637SOL    HW210911   0.993   3.722   5.952 -1.1000  1.2768  2.2555
 3638SOL     OW10912   3.931   1.880   6.617 -0.1536  0.1055 -1.0433
 3638SOL    HW110913   3.858   1.909   6.562 -0.1021 -1.2589 -1.8865
 3638SOL    HW210914   3.980   1.820   6.560 -0.2878 -1.6509  0.5930
 3639SOL     OW10915   0.624   3.103   7.646 -0.5484 -0.6975 -0.1781
 3639SOL    HW110916   0.654   3.121   7.735  0.4849 -1.4992 -0.3455
 3639SOL    HW210917   0.642   3.183   7.598  0.2614 -0.7570  0.0079
 3640SOL     OW10918   0.876   4.865   8.514 -0.0814 -0.1045 -0.7082
 3640SOL    HW110919   0.864   4.778   8.552 -0.1899 -0.6702 -2.0014
 3640SOL    HW210920   0.971   4.875   8.509 -0.0514  0.2289  0.2360
 3641SOL     OW10921   4.763   0.391   9.043 -0.1570  0.0536 -0.1221
 3641SOL    HW110922   4.690   0.431   9.090  1.2751  0.4599  1.8940
 3641SOL    HW210923   4.826   0.368   9.112  1.0091 -1.6001 -1.6424
 3642SOL     OW10924   0.303   2.468   7.174  0.0647 -0.2247  0.3631
 3642SOL    HW110925   0.388   2.483   7.216  0.8170  0.6106 -1.3580
 3642SOL    HW210926   0.323   2.410   7.100 -1.1823 -1.4730  0.9658
 3643SOL     OW10927   0.734   4.898  10.062  0.1921  0.5286 -0.0158
 3643SOL    HW110928   0.788   4.837  10.112 -0.4119 -0.4994 -0.5797
 3643SOL    HW210929   0.746   4.872   9.971 -1.1868  0.3193 -0.1582
 3644SOL     OW10930   3.584   3.359   5.777 -0.1901  0.5094  0.3335
 3644SOL    HW110931   3.502   3.364   5.729  0.6152  1.2285 -1.0371
 3644SOL    HW210932   3.621   3.447   5.772  0.4942  0.2963  1.2409
 3645SOL     OW10933   4.040   4.351   8.106  0.2095 -0.1844 -0.3513
 3645SOL    HW110934   4.045   4.430   8.160  0.6671 -0.9856  0.8111
 3645SOL    HW210935   4.128   4.316   8.107 -0.3371 -1.6134  0.5584
 3646SOL     OW10936   0.042   4.378   7.051  0.5461  0.1639  0.3810
 3646SOL    HW110937   0.026   4.306   7.112  1.7757 -1.6011 -1.2902
 3646SOL    HW210938   0.074   4.336   6.972  3.0202  2.6641 -0.0732
 3647SOL     OW10939   3.223   2.658   5.327 -0.5092 -0.5340 -0.2879
 3647SOL    HW110940   3.314   2.641   5.302 -0.4553  1.0771 -1.2836
 3647SOL    HW210941   3.174   2.653   5.246 -1.1866 -0.5341  0.1141
 3648SOL     OW10942   3.667   0.730   6.131  0.2627  0.5606 -0.5286
 3648SOL    HW110943   3.688   0.809   6.082 -1.0351  0.3604 -1.4520
 3648SOL    HW210944   3.612   0.761   6.203 -1.1860  0.4091 -1.5269
 3649SOL     OW10945   0.064   4.915   7.922  0.1845  0.4461  0.5916
 3649SOL    HW110946   0.047   5.006   7.948 -0.2318  0.5218  0.0838
 3649SOL    HW210947   0.159   4.908   7.919  0.3932  2.1287 -3.5068
 3650SOL     OW10948   0.601   3.927   8.994 -0.1760  0.2815  0.3531
 3650SOL    HW110949   0.636   3.939   8.905 -2.1114 -0.4549 -0.5621
 3650SOL    HW210950   0.624   3.837   9.016  3.5058  1.4787  2.1880
 3651SOL     OW10951   4.933   1.652   9.080  0.0211 -0.5296  0.1726
 3651SOL    HW110952   5.001   1.585   9.092  0.3232 -0.2551 -0.0033
 3651SOL    HW210953   4.980   1.729   9.049 -0.3806 -0.3591 -0.0245
 3652SOL     OW10954   0.936   3.236   6.247 -0.3608 -0.9492  0.8156
 3652SOL    HW110955   0.866   3.256   6.184  0.3796  0.4433  0.4008
 3652SOL    HW210956   0.898   3.169   6.303 -0.8198 -2.7819 -1.5129
 3653SOL     OW10957   4.999   3.266   7.508 -0.4132 -0.0915 -0.8554
 3653SOL    HW110958   5.040   3.334   7.561 -0.0372 -0.9107 -0.0697
 3653SOL    HW210959   4.906   3.290   7.505 -0.0018  1.5214 -2.2489
 3654SOL     OW10960   4.275   2.374   8.032  0.0657  0.9271 -0.0836
 3654SOL    HW110961   4.219   2.448   8.052 -0.1085  1.6462 -2.8240
 3654SOL    HW210962   4.343   2.376   8.099 -3.1958 -0.2251  3.6516
 3655SOL     OW10963   4.801   1.485   8.812  0.0198  0.2893  0.0079
 3655SOL    HW110964   4.776   1.402   8.851  1.4363  0.1997  0.8061
 3655SOL    HW210965   4.890   1.501   8.844  0.8836  0.7265 -2.3309
 3656SOL     OW10966  -0.025   1.805  10.006 -0.3556 -0.6038  0.2594
 3656SOL    HW110967   0.030   1.812  10.085 -1.2213 -0.0058  0.8330
 3656SOL    HW210968   0.001   1.880   9.953  0.6202 -1.3185 -0.2910
 3657SOL     OW10969   3.641   1.928   5.991 -0.2516  0.1533 -0.2647
 3657SOL    HW110970   3.571   1.964   6.045 -1.6862 -2.6438 -0.0855
 3657SOL    HW210971   3.688   1.868   6.049  0.7829  0.1792 -1.0458
 3658SOL     OW10972   2.517   3.931   7.025 -0.3445  0.5331 -0.0031
 3658SOL    HW110973   2.490   3.866   6.961  0.2171  0.3282 -0.0386
 3658SOL    HW210974   2.506   3.887   7.110  1.5476 -0.2133 -0.0901
 3659SOL     OW10975   3.333   3.855   8.105  0.8109  0.2770  0.4579
 3659SOL    HW110976   3.397   3.903   8.052  1.4505 -0.1021  0.8856
 3659SOL    HW210977   3.356   3.763   8.093  0.9148  0.1802  1.3324
 3660SOL     OW10978   0.954   3.871   6.399  0.0024  0.0711 -0.3288
 3660SOL    HW110979   0.956   3.939   6.466 -2.7660 -0.8533  0.8073
 3660SOL    HW210980   1.014   3.804   6.431  0.7202  0.7862 -0.1430
 3661SOL     OW10981   4.818   4.109   6.160  0.5597 -0.1612  0.1118
 3661SOL    HW110982   4.809   4.204   6.165  0.4212 -0.1710  0.0613
 3661SOL    HW210983   4.753   4.075   6.222  2.6783 -0.1712  2.4849
 3662SOL     OW10984   2.787   3.691   7.271 -0.1453 -0.1404  0.1944
 3662SOL    HW110985   2.752   3.733   7.349 -0.5230 -0.6040  0.2751
 3662SOL    HW210986   2.770   3.754   7.201 -0.2607  0.0576  0.3988
 3663SOL     OW10987   4.704   3.527   8.268 -0.2215 -0.0867  0.2322
 3663SOL    HW110988   4.707   3.506   8.361  0.5142  0.1842  0.2802
 3663SOL    HW210989   4.623   3.487   8.237  0.1762 -1.3228  0.7141
 3664SOL     OW10990   4.637   4.475   7.513  0.0924  0.3648 -0.1943
 3664SOL    HW110991   4.594   4.560   7.504  2.0857  1.3908 -0.4098
 3664SOL    HW210992   4.567   4.416   7.541 -1.0422  2.3920  1.5454
 3665SOL     OW10993   0.952   1.087   9.679 -0.5452 -0.5138 -0.4359
 3665SOL    HW110994   0.944   1.159   9.615  1.4081 -1.7903 -2.2685
 3665SOL    HW210995   1.046   1.067   9.680 -0.8008 -1.8021  1.4737
 3666SOL     OW10996   3.999   4.016   7.473 -0.2029  0.3258 -0.2266
 3666SOL    HW110997   4.056   4.071   7.419 -3.3006  2.1686 -1.8933
 3666SOL    HW210998   3.944   4.077   7.521  0.7171 -1.3358  3.2541
 3667SOL     OW10999   1.187   3.923   9.531 -0.2214  0.1789  0.0470
 3667SOL    HW111000   1.151   3.834   9.528  1.7714 -0.6548 -0.7924
 3667SOL    HW211001   1.139   3.970   9.463  0.1130 -0.8313 -0.9148
 3668SOL     OW11002   0.332   3.496   5.927  0.5870 -0.0503 -0.0119
 3668SOL    HW111003   0.336   3.575   5.981  1.0406  0.0150 -0.1370
 3668SOL    HW211004   0.248   3.503   5.881  0.1324 -0.1735  0.7782
 3669SOL     OW11005   4.358   2.812   7.453 -0.5519 -0.1693  0.5899
 3669SOL    HW111006   4.368   2.734   7.398 -2.1034 -0.0054  0.0407
 3669SOL    HW211007   4.434   2.809   7.512  1.5647  0.0004 -1.9277
 3670SOL     OW11008   0.744   2.509   8.119 -0.0982  0.3168 -0.2594
 3670SOL    HW111009   0.792   2.520   8.036 -0.1262  0.6598 -0.2335
 3670SOL    HW211010   0.655   2.539   8.099 -0.0913  0.4493 -0.0907
 3671SOL     OW11011   4.863   1.958   6.461  0.9439  0.2627 -0.3536
 3671SOL    HW111012   4.912   2.039   6.447  0.0199  0.7477 -0.9164
 3671SOL    HW211013   4.795   1.982   6.524 -0.6536  0.5381 -2.0635
 3672SOL     OW11014   3.909   4.450   7.533  0.0759 -0.0463 -0.9604
 3672SOL    HW111015   4.004   4.442   7.521  0.0772  0.1047 -1.0610
 3672SOL    HW211016   3.897   4.541   7.562  0.1095 -0.4889  0.5070
 3673SOL     OW11017   4.392   3.615   9.792  0.4506 -0.6028  0.3891
 3673SOL    HW111018   4.338   3.690   9.815 -0.6515 -1.4667  0.6920
 3673SOL    HW211019   4.366   3.546   9.853 -0.3728 -2.0035 -1.4469
 3674SOL     OW11020   0.309   4.683   8.053 -0.1041 -0.6344  0.1639
 3674SOL    HW111021   0.329   4.771   8.021  0.2834 -1.3526 -1.6855
 3674SOL    HW211022   0.394   4.639   8.057 -0.3996 -1.2147  0.1388
 3675SOL     OW11023   3.738   3.811   5.952  0.2252  0.0629  0.1373
 3675SOL    HW111024   3.769   3.749   6.018  0.1896  0.3205  0.3948
 3675SOL    HW211025   3.768   3.896   5.982 -2.0253  0.5499  1.2077
 3676SOL     OW11026   4.531   3.081   7.464  0.4067  0.1626 -0.0080
 3676SOL    HW111027   4.602   3.077   7.528 -0.5710  0.1323  1.1113
 3676SOL    HW211028   4.544   3.004   7.409  1.5078  0.4092 -0.1228
 3677SOL     OW11029   3.514   3.743   8.378 -0.4969 -0.3766 -0.2117
 3677SOL    HW111030   3.482   3.825   8.342 -0.6432  0.6282  2.0296
 3677SOL    HW211031   3.593   3.723   8.327 -1.3182  0.2815 -1.8114
 3678SOL     OW11032   3.064   3.123   8.191  0.2062  0.2633 -0.2089
 3678SOL    HW111033   3.096   3.155   8.274 -0.8670 -1.2401  0.8416
 3678SOL    HW211034   2.977   3.087   8.211 -1.0646  1.8448 -2.4057
 3679SOL     OW11035   4.769   4.139   8.674  0.0430 -0.1945  0.4589
 3679SOL    HW111036   4.696   4.078   8.689  0.5419 -0.4197  2.1459
 3679SOL    HW211037   4.730   4.210   8.624 -0.8734 -1.2245 -0.3655
 3680SOL     OW11038   4.052   2.383   6.692  0.1297  0.1081 -0.3799
 3680SOL    HW111039   4.057   2.474   6.720  0.2469 -0.0859  0.2346
 3680SOL    HW211040   4.130   2.370   6.638 -0.8330  0.8911 -2.0488
 3681SOL     OW11041   3.731   3.403   8.600  0.1128 -0.2039  0.3768
 3681SOL    HW111042   3.813   3.434   8.560 -0.8843  0.1289 -1.5363
 3681SOL    HW211043   3.677   3.375   8.525 -0.7217 -2.4905  1.7182
 3682SOL     OW11044   4.925   2.491   6.885  0.6542 -0.0892 -0.5310
 3682SOL    HW111045   4.998   2.551   6.872  0.3201  0.3353 -0.4843
 3682SOL    HW211046   4.859   2.543   6.931  0.5220 -0.6172 -0.1163
 3683SOL     OW11047   3.848   2.104   5.245  0.0205 -0.3024 -0.4447
 3683SOL    HW111048   3.763   2.060   5.251 -1.1837  1.7670 -1.3588
 3683SOL    HW211049   3.873   2.122   5.335  1.8362 -4.9057  0.2653
 3684SOL     OW11050   0.316   4.375   7.708 -0.4728  0.2649 -0.3518
 3684SOL    HW111051   0.405   4.353   7.679 -1.0440  0.7409 -2.6133
 3684SOL    HW211052   0.306   4.327   7.790  1.4665 -0.7137 -0.6163
 3685SOL     OW11053   0.547   2.021   9.772  0.6020 -0.1151 -0.0259
 3685SOL    HW111054   0.567   1.990   9.683 -0.0841  0.1866 -0.2926
 3685SOL    HW211055   0.609   1.975   9.828  0.6843 -0.7187 -0.6010
 3686SOL     OW11056   4.924   1.859   6.798 -0.6109 -0.0743 -0.3194
 3686SOL    HW111057   4.866   1.930   6.770  2.2404  1.8481 -1.8978
 3686SOL    HW211058   4.968   1.893   6.875  0.9486  0.0405 -1.2161
 3687SOL     OW11059   4.124   2.490   5.305  0.5252 -0.0943  0.0282
 3687SOL    HW111060   4.176   2.455   5.377  1.1563  1.2891  0.2792
 3687SOL    HW211061   4.174   2.566   5.274 -0.2450 -0.0634 -1.2038
 3688SOL     OW11062   1.464   1.871   9.252 -0.0033  0.0316 -0.4418
 3688SOL    HW111063   1.414   1.897   9.174  0.1373  0.3117 -0.4405
 3688SOL    HW211064   1.510   1.951   9.278 -0.4130  0.0549  0.2087
 3689SOL     OW11065   3.660   1.786   7.468  0.7854 -0.0656 -0.4338
 3689SOL    HW111066   3.694   1.706   7.428 -0.1576 -0.8763  0.3074
 3689SOL    HW211067   3.650   1.764   7.561 -0.4151  0.5722 -0.3875
 3690SOL     OW11068   4.400  -0.024   7.082  0.2064 -0.1786 -0.0545
 3690SOL    HW111069   4.475   0.012   7.035  0.3276  0.1565  0.3963
 3690SOL    HW211070   4.334   0.045   7.079  0.5099  0.1818  0.9791
 3691SOL     OW11071   4.020   1.762   5.907  0.2254 -0.2446 -0.1868
 3691SOL    HW111072   3.951   1.826   5.891 -0.7167 -1.5357 -1.6224
 3691SOL    HW211073   4.028   1.715   5.824  1.2262 -1.6423  0.6675
 3692SOL     OW11074   3.474   3.292   4.970  0.3457 -0.0905  0.1237
 3692SOL    HW111075   3.523   3.308   4.889  1.2621 -2.3734  0.1466
 3692SOL    HW211076   3.540   3.298   5.039 -0.6440  3.1245  0.9721
 3693SOL     OW11077   0.607   3.422   9.102  0.0176  0.4661 -0.1733
 3693SOL    HW111078   0.665   3.362   9.055 -0.0975 -0.0462  0.3277
 3693SOL    HW211079   0.585   3.375   9.183 -0.1668  1.1358  0.1706
 3694SOL     OW11080   0.011   4.231   6.455  0.0621  0.2013  0.3092
 3694SOL    HW111081   0.073   4.280   6.400 -0.7481 -0.5576 -1.3526
 3694SOL    HW211082  -0.075   4.267   6.431 -0.1961  1.5296  2.8799
 3695SOL     OW11083   1.300   3.247   5.749  0.6777  0.0845  0.2768
 3695SOL    HW111084   1.242   3.306   5.701  0.7927  0.2513  0.3400
 3695SOL    HW211085   1.261   3.242   5.837 -0.7211 -1.8727 -0.3926
 3696SOL     OW11086   3.207   3.805   5.014 -0.0235 -0.0518 -0.5309
 3696SOL    HW111087   3.157   3.885   5.027  1.2210  0.4968  1.5861
 3696SOL    HW211088   3.158   3.738   5.061  0.8038  0.3461  0.9800
 3697SOL     OW11089   4.224   3.924   9.129  0.1703  0.6996  0.4923
 3697SOL    HW111090   4.289   3.961   9.188  3.2454  0.7968 -2.5802
 3697SOL    HW211091   4.162   3.995   9.113  1.4366  1.9028  0.7514
 3698SOL     OW11092   4.087   2.930   9.471 -0.4884 -0.6383 -0.5606
 3698SOL    HW111093   4.167   2.976   9.446 -0.5794  0.0484  0.3656
 3698SOL    HW211094   4.044   2.988   9.533 -1.1474 -1.5033 -0.1832
 3699SOL     OW11095   4.444   2.647   8.422 -0.0304  0.0512 -0.0615
 3699SOL    HW111096   4.393   2.570   8.446 -0.5231  0.2120 -0.5764
 3699SOL    HW211097   4.454   2.640   8.327  2.2509 -0.8094  0.1779
 3700SOL     OW11098   4.173   0.857   7.761 -0.0152  0.3991  0.0907
 3700SOL    HW111099   4.219   0.809   7.692 -2.1521 -0.0234 -1.1355
 3700SOL    HW211100   4.165   0.794   7.833 -1.1449 -0.5037 -0.7889
 3701SOL     OW11101   0.922   1.099   7.841  0.2137  0.4354  0.6376
 3701SOL    HW111102   0.983   1.083   7.769 -0.2225  1.5144  0.0131
 3701SOL    HW211103   0.891   1.012   7.865 -0.3131  0.1101 -1.0896
 3702SOL     OW11104   0.523   4.676   9.604  0.1718 -0.0331  0.1654
 3702SOL    HW111105   0.455   4.653   9.541  0.0400  0.3434  0.1678
 3702SOL    HW211106   0.492   4.757   9.644 -0.3033 -0.8599  1.5434
 3703SOL     OW11107   0.911   0.760   6.461 -0.1267  0.1910 -0.2025
 3703SOL    HW111108   0.897   0.841   6.510 -1.0876  0.9790 -1.6895
 3703SOL    HW211109   0.978   0.713   6.511 -3.0251 -0.4835  3.5063
 3704SOL     OW11110   0.681   3.271   9.327 -0.5354  0.8457 -0.0218
 3704SOL    HW111111   0.742   3.329   9.372  0.5578  0.7184 -1.2906
 3704SOL    HW211112   0.652   3.209   9.395  2.4074 -0.4493  0.1962
 3705SOL     OW11113   4.395   3.321   6.587 -0.0511  0.1213 -0.0984
 3705SOL    HW111114   4.372   3.407   6.624  1.5884 -0.0460  1.4663
 3705SOL    HW211115   4.491   3.321   6.588  0.0200 -0.7954 -2.3987
 3706SOL     OW11116   0.187   0.251   7.359 -0.4512 -0.6711 -0.5130
 3706SOL    HW111117   0.252   0.250   7.429  0.9522  1.9933 -1.6468
 3706SOL    HW211118   0.233   0.213   7.284 -0.9676 -0.7840 -0.7788
 3707SOL     OW11119   3.035   2.879   9.521  0.1869  0.1226 -0.7057
 3707SOL    HW111120   3.080   2.831   9.452  0.1389 -0.2572 -0.4737
 3707SOL    HW211121   2.993   2.952   9.476  1.2733  0.6470 -0.8819
 3708SOL     OW11122   1.835   1.254   9.603 -0.1693 -0.5582 -0.9377
 3708SOL    HW111123   1.891   1.331   9.599 -1.6716  0.6188 -0.2093
 3708SOL    HW211124   1.746   1.289   9.593 -0.8793 -2.2072 -0.6440
 3709SOL     OW11125   2.497   0.821   9.904  0.1649  0.2614  0.4780
 3709SOL    HW111126   2.499   0.792   9.812  1.1514  2.7502 -0.3650
 3709SOL    HW211127   2.404   0.822   9.927  0.0107 -3.3622  0.6294
 3710SOL     OW11128   2.641   2.176   9.561  0.1024  0.0836 -0.1669
 3710SOL    HW111129   2.694   2.235   9.614 -1.4434  1.6053 -0.2508
 3710SOL    HW211130   2.700   2.103   9.542  0.9048 -0.3131  3.1534
 3711SOL     OW11131   0.638   1.545   7.950 -0.1852 -0.1932 -0.1729
 3711SOL    HW111132   0.610   1.621   7.900  1.1860 -0.7711 -1.9209
 3711SOL    HW211133   0.599   1.557   8.037 -1.4555  1.5704 -0.9424
 3712SOL     OW11134   2.452   0.309   9.417  0.2309  0.8046  0.0827
 3712SOL    HW111135   2.414   0.261   9.491  0.4973 -0.9376 -0.8672
 3712SOL    HW211136   2.527   0.256   9.390  0.8064  1.9949 -0.7487
 3713SOL     OW11137   3.351   3.311   9.526 -0.5984  0.2454  0.1201
 3713SOL    HW111138   3.283   3.282   9.587 -1.5735 -0.0112 -1.0675
 3713SOL    HW211139   3.311   3.381   9.475 -0.0533 -0.0663 -0.7577
 3714SOL     OW11140   4.779   2.530   9.579  0.4644 -0.2601 -0.5299
 3714SOL    HW111141   4.873   2.551   9.582  0.3879 -0.0153  1.1819
 3714SOL    HW211142   4.774   2.455   9.520  1.8037 -0.5665 -0.3013
 3715SOL     OW11143   3.733   0.909   9.598  0.2922 -0.4841 -0.0406
 3715SOL    HW111144   3.728   0.885   9.690  2.4950 -1.6149 -0.1458
 3715SOL    HW211145   3.706   0.830   9.551  1.3705 -0.6671 -0.3666
 3716SOL     OW11146   4.558   1.736   9.505  0.3277  0.6266 -0.5791
 3716SOL    HW111147   4.473   1.762   9.540  1.0368  0.1202  1.6666
 3716SOL    HW211148   4.581   1.806   9.444 -1.0918  1.4384 -0.2420
 3717SOL     OW11149   2.140   2.961   8.049  0.0706 -0.1531  0.4600
 3717SOL    HW111150   2.120   2.904   8.124 -1.8608 -1.0309 -0.6305
 3717SOL    HW211151   2.058   3.008   8.033 -0.3433 -1.6648 -2.4541
 3718SOL     OW11152   2.087   1.854   8.332  0.7837  0.8222  0.3178
 3718SOL    HW111153   2.072   1.818   8.244 -0.6523  1.0266  0.4504
 3718SOL    HW211154   2.068   1.780   8.391 -2.9481  1.8069  0.6356
 3719SOL     OW11155   4.949   2.533   8.976 -1.0322  0.6232 -0.5123
 3719SOL    HW111156   5.010   2.596   8.936 -0.1257 -0.6362 -1.1891
 3719SOL    HW211157   4.899   2.585   9.039 -0.9931  2.2172 -1.7379
 3720SOL     OW11158   1.883   2.782   9.546  0.2752  0.0489 -0.1586
 3720SOL    HW111159   1.952   2.782   9.612  0.7627 -2.6263 -0.5188
 3720SOL    HW211160   1.807   2.744   9.590  0.1220 -0.2685 -0.6832
 3721SOL     OW11161   4.250   4.851   6.278 -0.5492 -0.2450  0.0369
 3721SOL    HW111162   4.294   4.818   6.356 -0.2773 -2.0433 -0.8230
 3721SOL    HW211163   4.242   4.945   6.293  0.7186 -0.3433  1.6160
 3722SOL     OW11164   0.496   0.531   7.165 -0.1062  0.1343 -0.1807
 3722SOL    HW111165   0.464   0.493   7.083 -0.8609 -0.1521  0.2388
 3722SOL    HW211166   0.589   0.548   7.148  0.0365 -1.0397 -0.6920
 3723SOL     OW11167   3.541   4.761   9.357 -0.5184  0.7067  0.2609
 3723SOL    HW111168   3.569   4.707   9.283 -0.3762  0.9405  0.1403
 3723SOL    HW211169   3.596   4.733   9.430 -0.3853  0.7450  0.1770
 3724SOL     OW11170   4.891   1.062   8.981  0.4100 -0.8070  0.6695
 3724SOL    HW111171   4.887   0.968   8.999 -1.3564 -1.1592 -1.2248
 3724SOL    HW211172   4.964   1.071   8.920  0.7679 -0.8818  1.0776
 3725SOL     OW11173   0.142   3.091   4.837 -0.5832  0.1516 -0.0105
 3725SOL    HW111174   0.091   3.039   4.774 -0.9186 -0.7219  0.9586
 3725SOL    HW211175   0.215   3.034   4.861  0.3941  1.0636 -0.7271
 3726SOL     OW11176   3.666   0.506   6.913 -0.2321 -0.5358  0.2331
 3726SOL    HW111177   3.746   0.556   6.897 -0.9111  0.7393  0.7065
 3726SOL    HW211178   3.678   0.469   7.001  0.1825 -1.0515 -0.0349
 3727SOL     OW11179   4.933   0.988   9.868  0.1679 -0.3923 -0.2610
 3727SOL    HW111180   4.959   0.913   9.814 -0.0216  0.3431 -1.3849
 3727SOL    HW211181   4.846   1.012   9.836 -0.0253 -0.0444  0.4927
 3728SOL     OW11182   2.518   2.971   8.124 -0.4992  0.4018  0.1067
 3728SOL    HW111183   2.445   3.017   8.165  0.9569  0.0914  3.3249
 3728SOL    HW211184   2.567   3.040   8.078 -1.7089  0.9228 -0.4471
 3729SOL     OW11185   4.484   0.348   9.260 -0.5310  0.5916 -0.0349
 3729SOL    HW111186   4.415   0.292   9.296 -0.8163  0.9945  0.0546
 3729SOL    HW211187   4.545   0.287   9.218  0.0191  0.0764  1.4685
 3730SOL     OW11188   4.548   4.319   9.037 -0.2433  0.0187 -0.3113
 3730SOL    HW111189   4.513   4.340   9.124  0.7994 -0.7054  0.2935
 3730SOL    HW211190   4.502   4.239   9.012  0.8629 -0.8860  0.4490
 3731SOL     OW11191   4.581   4.206   7.896 -0.4356 -0.4295 -0.3072
 3731SOL    HW111192   4.642   4.168   7.959  1.8996  1.1498 -1.4486
 3731SOL    HW211193   4.602   4.300   7.896 -1.9233 -0.0376 -1.7893
 3732SOL     OW11194   4.955   4.008   7.416  0.1512  0.2163  0.3675
 3732SOL    HW111195   5.014   4.079   7.442 -0.6665  0.4516  1.6351
 3732SOL    HW211196   4.876   4.021   7.468 -0.8002 -0.4685 -0.8365
 3733SOL     OW11197   4.128   1.980   9.479 -0.3690 -0.1211 -0.0406
 3733SOL    HW111198   4.170   1.939   9.404 -1.0161 -0.7734 -0.0644
 3733SOL    HW211199   4.092   2.062   9.446 -2.8815 -1.5473 -1.1387
 3734SOL     OW11200   4.709   1.503   8.180  1.0127 -0.1149  0.6266
 3734SOL    HW111201   4.748   1.564   8.117 -0.3521  0.4510  0.3066
 3734SOL    HW211202   4.743   1.531   8.265 -0.9124  2.2708  0.7296
 3735SOL     OW11203   2.827   4.367   8.278  0.0664 -0.2641 -0.3999
 3735SOL    HW111204   2.845   4.359   8.372 -0.8299 -0.8928 -0.2693
 3735SOL    HW211205   2.819   4.277   8.248  0.8649 -0.0829 -1.1966
 3736SOL     OW11206   1.430   0.230   9.986  0.3180 -0.0993  0.2783
 3736SOL    HW111207   1.394   0.173  10.053 -1.9323  0.0351 -0.7182
 3736SOL    HW211208   1.462   0.171   9.918  2.3059 -0.2255  1.2655
 3737SOL     OW11209   0.496   2.502   9.044 -0.3075 -0.2765 -0.1818
 3737SOL    HW111210   0.500   2.471   8.954 -2.2242  0.7257 -0.6515
 3737SOL    HW211211   0.449   2.585   9.040 -0.9344 -0.4712  1.8028
 3738SOL     OW11212   3.997   0.901   9.206 -0.0907 -0.3906 -0.0760
 3738SOL    HW111213   3.955   0.981   9.236 -0.0980 -0.3973 -0.0679
 3738SOL    HW211214   3.932   0.859   9.150 -0.0866 -0.3900 -0.0812
 3739SOL     OW11215   0.426   3.883   6.236 -0.0247 -0.6523  0.0071
 3739SOL    HW111216   0.521   3.881   6.246 -0.0646 -1.1287  0.3399
 3739SOL    HW211217   0.408   3.968   6.196  0.4203  0.0844  1.2945
 3740SOL     OW11218   1.091   3.886   9.183  0.1660 -0.3648  0.3607
 3740SOL    HW111219   1.040   3.925   9.255 -0.7596  1.2544 -1.0790
 3740SOL    HW211220   1.180   3.919   9.196 -0.2632  0.9807  0.1117
 3741SOL     OW11221   1.895   0.956   9.628  0.1859  0.2355  0.5927
 3741SOL    HW111222   1.905   0.925   9.538  1.6688 -0.4695  0.9597
 3741SOL    HW211223   1.917   1.049   9.623 -3.0691  1.0927 -0.2958
 3742SOL     OW11224   0.855   1.958  10.239  0.8736 -0.1331 -0.1599
 3742SOL    HW111225   0.854   1.904  10.317  0.1881  0.8742  0.5388
 3742SOL    HW211226   0.831   1.898  10.168  2.1681 -1.2121  0.2716
 3743SOL     OW11227   4.849   2.225   7.507  0.8410 -0.0781  0.0073
 3743SOL    HW111228   4.897   2.291   7.557 -0.4021  0.7782  0.1412
 3743SOL    HW211229   4.882   2.234   7.418 -0.8479  2.3811 -0.4856
 3744SOL     OW11230   4.232   4.219   7.727 -0.0308  0.1569  0.4260
 3744SOL    HW111231   4.273   4.237   7.812  1.9598  1.9488 -0.7802
 3744SOL    HW211232   4.274   4.139   7.697 -0.7783 -0.5116  1.1316
 3745SOL     OW11233   0.203   0.829   8.311  0.1763 -0.1197 -0.8270
 3745SOL    HW111234   0.212   0.745   8.267 -0.3321  1.1797 -3.5796
 3745SOL    HW211235   0.109   0.839   8.325  0.2985 -0.3331  0.3053
 3746SOL     OW11236   2.917   3.951   9.112 -0.1019  0.5157  0.3748
 3746SOL    HW111237   2.870   4.007   9.051 -0.8702 -1.3369 -0.8117
 3746SOL    HW211238   2.860   3.945   9.188 -0.8265  0.0073 -0.1891
 3747SOL     OW11239   0.926   1.437   9.327  0.1444  0.2457  0.2313
 3747SOL    HW111240   0.965   1.486   9.254 -0.1692 -0.8661 -0.6976
 3747SOL    HW211241   0.869   1.501   9.370 -0.1765  0.7446 -0.8868
 3748SOL     OW11242   2.878   1.546   8.204 -0.2014  0.2344  0.5714
 3748SOL    HW111243   2.905   1.615   8.144 -0.6744 -0.1113 -0.0563
 3748SOL    HW211244   2.958   1.499   8.226  0.2690  1.4787  1.6753
 3749SOL     OW11245   0.454   3.712   6.549  0.3209  0.4456 -0.3982
 3749SOL    HW111246   0.534   3.732   6.501  0.4697 -0.1210 -0.4004
 3749SOL    HW211247   0.383   3.742   6.492  0.4667 -0.7770 -1.2809
 3750SOL     OW11248   1.282   2.678   9.507  0.0401 -0.1182 -0.3221
 3750SOL    HW111249   1.217   2.714   9.446 -1.0483  0.7288  1.2548
 3750SOL    HW211250   1.297   2.750   9.569  2.6523 -0.2327 -0.7336
 3751SOL     OW11251   4.917   2.749   9.327 -0.1725 -0.1391  1.0394
 3751SOL    HW111252   4.919   2.707   9.412  0.6920  1.8061  2.0456
 3751SOL    HW211253   4.826   2.739   9.297 -0.9813  0.7458  3.0536
 3752SOL     OW11254   1.035   4.081   9.848 -0.5560 -0.3325 -0.1971
 3752SOL    HW111255   1.043   4.161   9.795 -0.1467 -0.0503  0.2785
 3752SOL    HW211256   0.944   4.054   9.837 -0.8904  0.5914  0.1823
 3753SOL     OW11257   4.541   0.744   8.621 -0.1052 -0.0790 -0.0772
 3753SOL    HW111258   4.474   0.801   8.583  0.5635  1.0786  0.4509
 3753SOL    HW211259   4.614   0.749   8.559 -0.0836 -0.4485 -0.0835
 3754SOL     OW11260   3.823   4.946   8.201  1.1567 -0.2721 -0.0487
 3754SOL    HW111261   3.771   4.880   8.246  0.5217 -0.1234 -0.5483
 3754SOL    HW211262   3.838   5.014   8.267  0.0094  0.0698 -0.1305
 3755SOL     OW11263   4.432   3.506   8.240  0.3487  0.6955 -0.0490
 3755SOL    HW111264   4.411   3.558   8.318 -0.1721 -1.0967  1.0687
 3755SOL    HW211265   4.379   3.544   8.170  1.2664  2.7132  0.2962
 3756SOL     OW11266   2.362   2.894   9.326  0.2392  0.5554  0.2294
 3756SOL    HW111267   2.374   2.844   9.407  2.5726  2.0904  0.9278
 3756SOL    HW211268   2.444   2.882   9.278  0.3260  2.5795 -0.2089
 3757SOL     OW11269   4.515   3.665   8.473  0.1357  0.3486 -0.0554
 3757SOL    HW111270   4.550   3.753   8.457  2.5276 -0.2955  1.0830
 3757SOL    HW211271   4.586   3.620   8.519 -1.9510 -1.4089  1.6344
 3758SOL     OW11272   1.434   3.055   7.325  0.1491  0.7467  0.4543
 3758SOL    HW111273   1.391   3.128   7.370 -0.5636 -0.1290  1.2277
 3758SOL    HW211274   1.418   3.072   7.232  0.5139  1.8877  0.5831
 3759SOL     OW11275   0.678   4.735   8.111 -0.3159  0.0205  0.2550
 3759SOL    HW111276   0.671   4.824   8.077 -1.4502 -0.2494 -0.2814
 3759SOL    HW211277   0.771   4.713   8.102 -0.1788  0.8236 -0.4401
 3760SOL     OW11278   0.593   1.510   9.684 -0.1927  0.3395  0.0000
 3760SOL    HW111279   0.558   1.421   9.678  0.2996  0.1147  0.3504
 3760SOL    HW211280   0.595   1.540   9.593 -2.1982  0.7407  0.0400
 3761SOL     OW11281   3.290   1.279   7.602  0.0485 -0.2675 -0.5315
 3761SOL    HW111282   3.219   1.343   7.610 -0.9787 -1.4982  0.7055
 3761SOL    HW211283   3.321   1.289   7.512 -0.6985  1.3035 -0.6567
 3762SOL     OW11284   3.447   2.097   9.361  0.1374 -0.3589  0.2653
 3762SOL    HW111285   3.495   2.036   9.418  0.1717 -0.4964  0.0893
 3762SOL    HW211286   3.387   2.040   9.311 -1.1012 -0.0790  1.3648
 3763SOL     OW11287   0.904   1.966   8.313 -0.0444 -0.0919 -0.5583
 3763SOL    HW111288   0.826   1.933   8.356 -1.1254  0.4205 -2.0272
 3763SOL    HW211289   0.953   1.887   8.289  1.2848 -0.3945  2.6374
 3764SOL     OW11290   4.095   1.486   8.440 -0.1920  0.1761  0.2156
 3764SOL    HW111291   4.170   1.542   8.419 -0.6643  0.1814 -1.6556
 3764SOL    HW211292   4.128   1.426   8.507  1.8687 -0.5643 -1.3571
 3765SOL     OW11293   4.164   1.462   9.058 -0.1779  0.1937  0.7316
 3765SOL    HW111294   4.257   1.447   9.072  0.0659  0.1500 -0.7134
 3765SOL    HW211295   4.127   1.475   9.145  1.1145 -0.1487  1.3428
 3766SOL     OW11296   0.475   4.976  10.015 -0.1459  0.1856 -0.4171
 3766SOL    HW111297   0.557   4.953  10.057  0.0593  2.0045  0.2746
 3766SOL    HW211298   0.408   4.956  10.080 -0.0107  1.0878  0.0081
 3767SOL     OW11299   4.004   4.601   9.669 -0.3690 -0.1215  0.0090
 3767SOL    HW111300   3.950   4.599   9.748  0.7815 -1.9093  0.8051
 3767SOL    HW211301   4.071   4.534   9.684  1.3000  1.1158 -1.4812
 3768SOL     OW11302   3.922   1.658   8.247  0.0098 -0.0686 -0.3865
 3768SOL    HW111303   3.945   1.569   8.274  0.0011 -1.3432 -4.0198
 3768SOL    HW211304   3.988   1.714   8.289  1.0452 -1.9682  0.6599
 3769SOL     OW11305   4.556   1.045   9.615 -0.3697 -0.2299  0.0850
 3769SOL    HW111306   4.603   0.979   9.565 -0.1225  1.1649 -1.6432
 3769SOL    HW211307   4.519   1.103   9.548 -1.4413  0.7887  1.5053
 3770SOL     OW11308   2.671   4.391   9.420 -0.1858  0.3474  0.3558
 3770SOL    HW111309   2.743   4.350   9.373 -1.6977  0.1743 -1.9828
 3770SOL    HW211310   2.673   4.352   9.507  0.6870 -1.9474 -0.6252
 3771SOL     OW11311   3.659   1.554   8.451 -0.2763  0.0547  0.8896
 3771SOL    HW111312   3.611   1.483   8.408  0.8833 -0.7930  0.9496
 3771SOL    HW211313   3.740   1.561   8.400  0.1995  0.4337  1.6937
 3772SOL     OW11314   3.938   2.992   7.552  0.2094 -0.1653  0.3257
 3772SOL    HW111315   3.893   3.056   7.497  0.6150  1.4510  1.7796
 3772SOL    HW211316   3.867   2.936   7.586 -0.5996  1.5180  1.5445
 3773SOL     OW11317   2.711   4.187   9.805  0.0006 -0.4726  0.1958
 3773SOL    HW111318   2.758   4.166   9.887 -2.0192  0.2623  1.6251
 3773SOL    HW211319   2.730   4.280   9.791 -0.9761 -0.1638  0.7974
 3774SOL     OW11320   2.684   2.991   9.896  0.6322 -0.2467  0.4486
 3774SOL    HW111321   2.712   3.001   9.805 -1.0859 -1.9302 -0.3283
 3774SOL    HW211322   2.717   2.906   9.923 -0.0104 -0.3574  0.9349
 3775SOL     OW11323   1.281   4.604   9.329 -0.3946  0.3044 -0.2837
 3775SOL    HW111324   1.310   4.520   9.363 -0.1732  0.0341 -1.1288
 3775SOL    HW211325   1.225   4.582   9.255 -1.5009  0.8663  0.3610
 3776SOL     OW11326   3.444   2.271   8.847  0.2162  0.2558 -0.5936
 3776SOL    HW111327   3.484   2.191   8.881 -0.9805  1.0988  3.2971
 3776SOL    HW211328   3.357   2.243   8.818  0.5246 -0.1331 -1.1800
 3777SOL     OW11329   4.261   4.648   6.063 -0.2562 -0.3022 -0.4800
 3777SOL    HW111330   4.263   4.701   6.142 -0.5494  0.9173 -1.2583
 3777SOL    HW211331   4.191   4.687   6.010  1.0885  0.0412 -2.0914
 3778SOL     OW11332   4.110   3.441   6.686 -0.7272  0.3861  0.2879
 3778SOL    HW111333   4.051   3.469   6.616 -1.0419  1.1080  0.8249
 3778SOL    HW211334   4.192   3.486   6.668 -0.0858 -1.1553 -0.8500
 3779SOL     OW11335   4.773   2.356   8.333  0.4109  0.2725  0.0847
 3779SOL    HW111336   4.864   2.351   8.306  1.1713 -1.1465  2.5976
 3779SOL    HW211337   4.763   2.444   8.367  0.4686  0.8179 -1.2366
 3780SOL     OW11338   1.662   4.051   8.576  0.2437  0.3445  0.0892
 3780SOL    HW111339   1.673   4.145   8.587  1.4928  0.0594  1.7339
 3780SOL    HW211340   1.567   4.038   8.574  0.0513  1.6969 -1.0778
 3781SOL     OW11341   4.916   3.432   8.114  0.1631  0.8173  0.3916
 3781SOL    HW111342   4.873   3.409   8.032  1.4783  0.2546 -0.1828
 3781SOL    HW211343   4.845   3.453   8.174 -0.9083 -0.2535 -0.4447
 3782SOL     OW11344   2.244   2.241   8.231 -0.3743 -0.1400 -0.1818
 3782SOL    HW111345   2.311   2.308   8.218  0.2700 -0.7269  0.0436
 3782SOL    HW211346   2.161   2.289   8.230  0.1281  0.7960  0.9467
 3783SOL     OW11347   4.609   1.383   8.606 -0.2554 -0.1463  0.3712
 3783SOL    HW111348   4.677   1.316   8.599  0.3632  0.5186 -0.0532
 3783SOL    HW211349   4.630   1.430   8.687  0.4197  0.7365 -0.3044
 3784SOL     OW11350   0.548   2.461   9.531 -0.5179  0.2403  0.0919
 3784SOL    HW111351   0.491   2.532   9.502 -0.2619  0.4401  0.0686
 3784SOL    HW211352   0.618   2.505   9.580  0.5316  0.1919 -1.2801
 3785SOL     OW11353   1.835   2.953   8.748  0.3528  0.4148  0.1272
 3785SOL    HW111354   1.899   2.935   8.817 -0.8417 -1.9727  0.6951
 3785SOL    HW211355   1.773   2.880   8.752 -0.8597  1.2071 -2.2251
 3786SOL     OW11356   1.443   2.005   9.804  0.5468 -0.7906 -0.4037
 3786SOL    HW111357   1.532   2.038   9.811  0.4666 -0.0161 -2.4243
 3786SOL    HW211358   1.451   1.925   9.751 -0.3166  1.7954 -4.9418
 3787SOL     OW11359   2.173   3.108   9.242  0.2944  0.0587 -0.7587
 3787SOL    HW111360   2.090   3.060   9.248  0.4308  0.0151  1.4339
 3787SOL    HW211361   2.234   3.046   9.204 -0.4955 -0.1283 -1.7798
 3788SOL     OW11362   3.404   3.406   7.373 -0.0778  0.7293  0.0990
 3788SOL    HW111363   3.440   3.420   7.285 -0.1927  1.2218  0.1299
 3788SOL    HW211364   3.456   3.333   7.408 -1.5896 -1.1052 -1.2592
 3789SOL     OW11365   3.621   3.075   8.973 -0.2379  0.1242  0.0136
 3789SOL    HW111366   3.640   2.988   8.938  3.0672  0.8883 -0.4887
 3789SOL    HW211367   3.656   3.135   8.907 -0.4927  1.7775  1.3179
 3790SOL     OW11368   0.155   2.263   8.727  0.4291 -0.3951 -0.1775
 3790SOL    HW111369   0.163   2.171   8.700 -1.4704 -0.7470  0.3038
 3790SOL    HW211370   0.085   2.263   8.791  1.1308  1.2615  0.6499
 3791SOL     OW11371   4.062   4.439   9.349 -0.3189 -0.1659  0.1682
 3791SOL    HW111372   4.147   4.461   9.386  0.2437 -1.5044 -0.2775
 3791SOL    HW211373   4.025   4.524   9.323  0.8690  0.4337  0.3697
 3792SOL     OW11374   4.618   1.451   9.149 -0.4069  0.6865  0.2229
 3792SOL    HW111375   4.634   1.414   9.062 -1.7190 -1.9785  0.9910
 3792SOL    HW211376   4.674   1.400   9.207 -2.8534 -0.7942  1.4428
 3793SOL     OW11377   4.431   2.928   7.759 -0.2280 -0.1410  0.5572
 3793SOL    HW111378   4.464   2.996   7.817  1.1255  0.2883 -0.6686
 3793SOL    HW211379   4.341   2.954   7.740  0.7301  2.2497 -1.1627
 3794SOL     OW11380   4.065   0.684   8.913  0.4780 -0.5987  0.0197
 3794SOL    HW111381   3.983   0.659   8.957  0.1410  1.4465  0.6599
 3794SOL    HW211382   4.037   0.716   8.828  0.6802 -0.4618  0.0063
 3795SOL     OW11383   4.702   2.799   9.658 -0.3821 -0.2618  0.2217
 3795SOL    HW111384   4.749   2.734   9.606 -0.5175 -1.3611  1.4114
 3795SOL    HW211385   4.725   2.883   9.618  0.7563 -0.9469 -0.6341
 3796SOL     OW11386   4.096   4.021   7.070 -0.1786 -0.1848  0.1121
 3796SOL    HW111387   4.137   3.936   7.085  2.6488  1.3539  1.9740
 3796SOL    HW211388   4.166   4.074   7.031 -1.3882  1.6830  0.3848
 3797SOL     OW11389   3.171   4.627   9.739 -0.4634 -0.0107  0.2269
 3797SOL    HW111390   3.171   4.633   9.835 -0.0408  0.5196  0.2004
 3797SOL    HW211391   3.254   4.583   9.718  0.6304  2.0229  0.0112
 3798SOL     OW11392   4.501   0.538   9.476 -0.1219  0.3924 -0.3316
 3798SOL    HW111393   4.531   0.512   9.389  0.0764 -2.7970  0.5749
 3798SOL    HW211394   4.575   0.584   9.514  1.1991 -1.4833 -0.5455
 3799SOL     OW11395   0.066   4.211   7.526  0.0027 -0.0982  0.1890
 3799SOL    HW111396   0.142   4.255   7.563 -0.8294  2.4668 -0.9379
 3799SOL    HW211397  -0.009   4.250   7.572 -0.7213 -1.7463  0.4877
 3800SOL     OW11398   4.781   0.523   9.889  0.0772 -0.5733  0.2830
 3800SOL    HW111399   4.753   0.581   9.959  0.8908 -0.1588  0.2798
 3800SOL    HW211400   4.876   0.516   9.900  0.1219 -1.0632 -0.3479
 3801SOL     OW11401   0.479   1.016   8.952  1.0989  0.2854  1.0111
 3801SOL    HW111402   0.540   0.946   8.974  1.8464  0.2007 -1.0758
 3801SOL    HW211403   0.455   1.000   8.861  1.1042  2.5738  0.5230
 3802SOL     OW11404   0.434   1.460   9.456  0.5403 -0.4679  0.0239
 3802SOL    HW111405   0.483   1.393   9.407 -0.6867 -0.7829 -0.8140
 3802SOL    HW211406   0.356   1.415   9.488  0.0397  0.3829  0.0425
 3803SOL     OW11407   4.337   1.891   8.555  0.4630 -0.2654 -0.4138
 3803SOL    HW111408   4.408   1.902   8.618 -0.6297 -0.6583  0.9242
 3803SOL    HW211409   4.339   1.971   8.503  1.9493 -0.3190 -0.4945
 3804SOL     OW11410   4.337   2.904   5.627  0.1944 -0.5041  0.1892
 3804SOL    HW111411   4.250   2.906   5.585 -0.6888 -1.9193  1.8406
 3804SOL    HW211412   4.398   2.890   5.555 -1.0211 -0.3299 -0.9129
 3805SOL     OW11413   2.551   3.840   5.746 -0.2852 -0.1484 -0.2200
 3805SOL    HW111414   2.564   3.921   5.698 -3.5971  2.0353  2.1309
 3805SOL    HW211415   2.607   3.848   5.823  1.0836 -1.2392 -1.0506
 3806SOL     OW11416   1.049   1.394   4.854  0.7413  0.0634  0.3666
 3806SOL    HW111417   1.082   1.310   4.822 -0.6264  0.3904 -2.0686
 3806SOL    HW211418   0.977   1.371   4.913 -0.1350 -0.5009 -0.8869
 3807SOL     OW11419   3.551   4.407   4.912 -0.0085  0.2425 -0.3237
 3807SOL    HW111420   3.642   4.378   4.920  0.5008  1.8703  0.1833
 3807SOL    HW211421   3.539   4.423   4.819  0.1393 -0.2008 -0.4224
 3808SOL     OW11422   3.888   4.943   5.622 -0.1061  0.0330 -0.2989
 3808SOL    HW111423   3.805   4.897   5.632 -0.3586  0.9267  3.1051
 3808SOL    HW211424   3.867   5.034   5.643  1.5786  0.4375 -0.2596
 3809SOL     OW11425   4.435   2.168   5.896 -0.3009  0.6666  0.4419
 3809SOL    HW111426   4.505   2.120   5.939 -0.5220  0.7983  0.9669
 3809SOL    HW211427   4.477   2.211   5.821  0.0511  0.2752  0.4121
 3810SOL     OW11428   1.075   0.248   4.973  0.0978 -0.2536  0.4546
 3810SOL    HW111429   1.142   0.288   4.917  0.8396 -0.3784  1.2327
 3810SOL    HW211430   0.995   0.252   4.921  0.4208  1.1001  0.0016
 3811SOL     OW11431   0.525   4.527   5.196 -0.0359 -0.1808 -0.1884
 3811SOL    HW111432   0.541   4.601   5.255  1.6308 -0.3057 -0.4217
 3811SOL    HW211433   0.613   4.493   5.176 -0.7742 -2.7099  0.5259
 3812SOL     OW11434   4.756   2.599   7.302  0.7291  0.6523 -0.4007
 3812SOL    HW111435   4.761   2.541   7.226  1.5128  0.7981 -0.4649
 3812SOL    HW211436   4.847   2.616   7.325  0.5056  0.4169  0.7198
 3813SOL     OW11437   2.436   2.065   5.908  0.3284 -0.0091 -0.3304
 3813SOL    HW111438   2.389   1.991   5.868  0.7479 -0.6243  0.2969
 3813SOL    HW211439   2.508   2.083   5.848  0.0445  0.0986 -0.6434
 3814SOL     OW11440   2.979   4.029   5.882 -0.2740 -0.6133  0.3072
 3814SOL    HW111441   3.073   4.023   5.867 -0.7702 -1.4452 -3.4029
 3814SOL    HW211442   2.953   3.941   5.908  0.0837 -0.0010  3.0614
 3815SOL     OW11443   1.861   0.098   7.761  0.0127 -0.3964 -0.3912
 3815SOL    HW111444   1.815   0.092   7.677  1.2325  2.0341 -1.3492
 3815SOL    HW211445   1.840   0.185   7.793  2.1381 -0.0529  0.1945
 3816SOL     OW11446   3.141   0.718   5.596 -0.6272 -0.0328 -0.0861
 3816SOL    HW111447   3.070   0.657   5.572 -2.3944  1.1357  1.8804
 3816SOL    HW211448   3.121   0.798   5.547  0.1829 -0.1425 -0.6173
 3817SOL     OW11449   3.220   4.392   5.148 -0.4105 -0.5879  0.1113
 3817SOL    HW111450   3.181   4.409   5.234 -0.8442 -1.4963  0.1112
 3817SOL    HW211451   3.190   4.464   5.093 -0.6695 -0.3479  0.5544
 3818SOL     OW11452   4.045   3.910   8.022  0.0837 -0.2326 -0.3675
 3818SOL    HW111453   3.990   3.840   7.987 -0.2310 -0.1611 -0.0184
 3818SOL    HW211454   4.115   3.920   7.957 -0.3637 -0.2578 -0.8576
 3819SOL     OW11455   0.305   2.483   6.637 -0.4397  0.0284 -0.5513
 3819SOL    HW111456   0.371   2.549   6.618 -2.6542  2.0983 -1.5854
 3819SOL    HW211457   0.242   2.528   6.694 -0.4303 -2.2149  1.3724
 3820SOL     OW11458   2.425   1.268   5.447 -0.4033  0.1731  0.1417
 3820SOL    HW111459   2.409   1.253   5.540 -1.0902  0.3224  0.0583
 3820SOL    HW211460   2.516   1.242   5.433 -0.5311 -0.6179  0.6904
 3821SOL     OW11461   0.420   2.993   5.240 -0.0493  0.4813 -0.7236
 3821SOL    HW111462   0.416   3.008   5.145  1.5518 -2.2711 -1.3304
 3821SOL    HW211463   0.354   2.925   5.255  1.0377 -0.4755 -0.2176
 3822SOL     OW11464   1.775   3.516   6.069 -0.0367 -0.2144  0.0376
 3822SOL    HW111465   1.796   3.424   6.088 -0.6407 -0.7236 -1.6341
 3822SOL    HW211466   1.841   3.566   6.118  0.4066 -1.5346  0.8346
 3823SOL     OW11467   4.495   0.292   7.842 -0.3700  0.0444 -0.1943
 3823SOL    HW111468   4.515   0.249   7.925 -1.3327  0.1048  0.0848
 3823SOL    HW211469   4.578   0.294   7.795 -0.1365 -1.3791  0.1184
 3824SOL     OW11470   4.270   1.518   7.216  0.1843  0.0639 -0.4101
 3824SOL    HW111471   4.224   1.492   7.296 -0.2507  1.2385 -0.2573
 3824SOL    HW211472   4.361   1.494   7.231 -0.4997 -3.4960 -1.2126
 3825SOL     OW11473   3.875   0.055   5.222 -0.4384 -0.1088 -0.1906
 3825SOL    HW111474   3.844  -0.024   5.178  2.6126 -0.9218 -1.1414
 3825SOL    HW211475   3.906   0.111   5.151  2.1261 -0.3060  0.6719
 3826SOL     OW11476   4.692   0.276   7.189  0.0174 -0.1650  0.8392
 3826SOL    HW111477   4.636   0.233   7.253  0.3460 -0.6150  0.8324
 3826SOL    HW211478   4.775   0.290   7.235 -0.0534  0.3651  0.8067
 3827SOL     OW11479   3.674   1.796   4.793  0.4180 -0.4296 -0.0586
 3827SOL    HW111480   3.725   1.726   4.752  2.5971  0.7003  0.5361
 3827SOL    HW211481   3.718   1.812   4.877  0.1158  1.7333 -0.2551
 3828SOL     OW11482   3.902   0.921   7.672 -0.2259 -0.3651  0.6248
 3828SOL    HW111483   3.989   0.930   7.710  0.0842  0.7036 -0.3035
 3828SOL    HW211484   3.897   0.829   7.646  0.7038 -0.3881  0.4923
 3829SOL     OW11485   4.061   3.859   7.667 -0.5831 -0.1927  0.3262
 3829SOL    HW111486   3.985   3.870   7.724 -0.7452 -1.5253  0.3863
 3829SOL    HW211487   4.049   3.925   7.599 -0.7040  1.0196  1.4637
 3830SOL     OW11488   2.205   4.229   6.125 -0.1448  0.1708 -0.3751
 3830SOL    HW111489   2.288   4.186   6.103  0.0566 -0.5615  1.5804
 3830SOL    HW211490   2.220   4.321   6.104  1.6637  0.2826  1.1396
 3831SOL     OW11491   2.696   3.310   5.444 -0.2460 -0.4864 -0.3572
 3831SOL    HW111492   2.625   3.352   5.492 -1.7540 -1.2227 -1.8295
 3831SOL    HW211493   2.773   3.364   5.462 -0.7239 -0.6921  2.7486
 3832SOL     OW11494   0.573   2.548   7.866 -0.2789 -0.3973  0.0152
 3832SOL    HW111495   0.548   2.639   7.879  0.1239 -0.1436 -0.9452
 3832SOL    HW211496   0.617   2.546   7.781 -1.1479 -1.6554 -0.4397
 3833SOL     OW11497   4.442   2.218   6.912 -0.5307 -0.1599  0.1665
 3833SOL    HW111498   4.472   2.136   6.949 -0.9366 -0.6806 -0.6352
 3833SOL    HW211499   4.358   2.236   6.955 -0.0763  0.2513  0.9112
 3834SOL     OW11500   0.019   0.934   7.065 -0.4626  0.5242 -0.5913
 3834SOL    HW111501   0.011   0.960   6.973  1.2265 -0.7542 -1.1706
 3834SOL    HW211502  -0.022   0.847   7.069 -1.8237  1.1773  0.2224
 3835SOL     OW11503   0.523   0.489   6.717  0.3774 -0.2693 -0.1187
 3835SOL    HW111504   0.524   0.494   6.812 -2.1053  0.6527 -0.0651
 3835SOL    HW211505   0.431   0.478   6.694  0.3222  3.2043 -2.5111
 3836SOL     OW11506   4.765   1.129   5.871 -0.2184 -0.1035  0.0027
 3836SOL    HW111507   4.838   1.185   5.845  0.5654 -1.4545 -0.7691
 3836SOL    HW211508   4.687   1.183   5.856  0.6183  1.6392  1.5589
 3837SOL     OW11509   0.592   0.381   7.578  0.8615  0.1162 -0.1284
 3837SOL    HW111510   0.530   0.392   7.505  0.3445  1.2634  0.4593
 3837SOL    HW211511   0.552   0.314   7.633  1.3781 -0.9463 -0.9968
 3838SOL     OW11512   2.384   3.178   6.078  0.4299 -0.3163 -0.4258
 3838SOL    HW111513   2.314   3.141   6.024 -1.2392  0.3528  1.1786
 3838SOL    HW211514   2.384   3.271   6.057 -1.7744  0.3962  2.1782
 3839SOL     OW11515   0.875   2.943   6.473  0.5546  0.0398  0.3055
 3839SOL    HW111516   0.828   3.018   6.509 -1.1174  1.0826 -3.5429
 3839SOL    HW211517   0.945   2.981   6.421  0.1178 -1.0581 -1.1599
 3840SOL     OW11518   2.887   3.509   5.524  0.1414 -0.0978  0.4129
 3840SOL    HW111519   2.982   3.503   5.516 -0.0211 -1.2557 -1.1182
 3840SOL    HW211520   2.872   3.527   5.617  1.7843 -2.2040  1.1920
 3841SOL     OW11521   4.742   0.268   5.751  0.1753  0.2861 -0.8173
 3841SOL    HW111522   4.739   0.247   5.845 -0.4271  1.0719 -0.6479
 3841SOL    HW211523   4.670   0.330   5.738  1.2198  1.4068 -1.4923
 3842SOL     OW11524   4.223   0.517   6.132  0.0855  0.2590 -0.2762
 3842SOL    HW111525   4.152   0.532   6.194  1.9996  1.0196  1.8435
 3842SOL    HW211526   4.183   0.531   6.046 -2.1271  1.4376  0.8659
 3843SOL     OW11527   3.430   3.738   4.855 -0.2742  0.1100  0.0790
 3843SOL    HW111528   3.337   3.732   4.837 -0.2451 -0.1995  0.0226
 3843SOL    HW211529   3.441   3.822   4.900 -0.5013  0.3820 -0.3736
 3844SOL     OW11530   3.851   0.184   5.740 -0.1327  0.1683 -0.4551
 3844SOL    HW111531   3.938   0.176   5.779 -0.5987  0.2732  0.6589
 3844SOL    HW211532   3.851   0.270   5.698 -0.6721  1.5804  2.2130
 3845SOL     OW11533   1.821   3.092   6.971 -0.2857 -0.0003 -0.1161
 3845SOL    HW111534   1.873   3.047   7.037 -1.0752  0.1458  0.6139
 3845SOL    HW211535   1.757   3.143   7.021 -0.7139  0.3312 -0.9831
 3846SOL     OW11536   3.955   3.566   5.229 -0.2998 -0.0424  0.1435
 3846SOL    HW111537   3.969   3.660   5.243  0.4432 -0.1592  0.2200
 3846SOL    HW211538   4.029   3.524   5.272  0.2182 -0.5826 -1.2205
 3847SOL     OW11539   3.599   1.717   6.291 -0.7409  0.2080  0.2277
 3847SOL    HW111540   3.666   1.751   6.232 -0.9963 -0.8695 -0.7254
 3847SOL    HW211541   3.632   1.737   6.379  1.1861 -0.8714 -0.1851
 3848SOL     OW11542   3.726   3.433   6.996 -0.8934  0.2806  0.5653
 3848SOL    HW111543   3.694   3.484   6.922 -1.5384 -0.4494  0.3219
 3848SOL    HW211544   3.649   3.418   7.051 -0.8132 -0.7786  0.4148
 3849SOL     OW11545   2.147   0.732   6.997 -0.3866  0.1909  0.0881
 3849SOL    HW111546   2.058   0.703   6.980 -0.2063 -0.1753 -0.2534
 3849SOL    HW211547   2.139   0.826   7.012 -0.9687 -0.0166  1.1797
 3850SOL     OW11548   1.509   4.295   7.318 -0.2363  0.0665  0.0257
 3850SOL    HW111549   1.543   4.233   7.254 -0.4591  1.2422 -1.2664
 3850SOL    HW211550   1.444   4.346   7.270 -1.5167  0.0030  1.5956
 3851SOL     OW11551   4.452   0.633   5.527  1.0768  0.1251 -0.0026
 3851SOL    HW111552   4.412   0.642   5.614 -2.2512  1.2824 -1.4873
 3851SOL    HW211553   4.501   0.714   5.514 -0.6539  1.1752 -0.1942
 3852SOL     OW11554   1.438   4.329   8.375 -0.0788 -0.4913 -0.6387
 3852SOL    HW111555   1.403   4.246   8.341 -0.4486 -0.0828 -1.2789
 3852SOL    HW211556   1.469   4.307   8.463 -0.8640 -1.1407 -0.5038
 3853SOL     OW11557   2.619   4.678   5.546  0.0972  0.2265  0.8384
 3853SOL    HW111558   2.701   4.658   5.591  0.5641  0.2512  0.0124
 3853SOL    HW211559   2.569   4.596   5.549  1.4311 -0.7477 -1.3262
 3854SOL     OW11560   3.405   0.612   5.164 -0.0590 -0.3713 -0.4450
 3854SOL    HW111561   3.449   0.689   5.130  0.0250 -0.7208 -1.1290
 3854SOL    HW211562   3.335   0.648   5.220  1.9298  0.1938  1.8281
 3855SOL     OW11563   0.865   4.403   7.204  0.7077  0.7031 -0.7570
 3855SOL    HW111564   0.919   4.355   7.142  0.5767  0.2249 -0.5045
 3855SOL    HW211565   0.781   4.414   7.158  0.4882  0.0227 -0.5226
 3856SOL     OW11566   1.529   3.216   5.524  0.3688 -0.3284  0.4475
 3856SOL    HW111567   1.458   3.186   5.580  0.0606 -2.3418 -0.9147
 3856SOL    HW211568   1.517   3.311   5.518 -2.0466 -0.5907  0.4330
 3857SOL     OW11569   2.272   0.279   5.826 -0.7309  0.1904  0.0357
 3857SOL    HW111570   2.231   0.334   5.759 -0.5655 -0.1446 -0.3424
 3857SOL    HW211571   2.302   0.342   5.892 -0.6955  0.5442 -0.3115
 3858SOL     OW11572   1.449   0.829   7.431 -0.2622 -0.1988  0.7970
 3858SOL    HW111573   1.475   0.736   7.431  2.0472  0.3793  1.3180
 3858SOL    HW211574   1.354   0.827   7.440 -0.2871 -2.5260  0.7016
 3859SOL     OW11575   3.731   4.338   6.309 -0.2942  0.6002  0.2346
 3859SOL    HW111576   3.820   4.350   6.275 -1.2066  1.5491 -1.9677
 3859SOL    HW211577   3.708   4.423   6.347  0.2871 -0.1249  2.3893
 3860SOL     OW11578   2.510   3.400   5.752  0.1122  0.0171 -0.5888
 3860SOL    HW111579   2.531   3.450   5.830 -1.3552 -0.8879  0.4318
 3860SOL    HW211580   2.467   3.463   5.693 -1.2301  0.1276  0.4594
 3861SOL     OW11581   3.383   4.427   5.596 -0.1107 -0.2018 -0.3805
 3861SOL    HW111582   3.371   4.513   5.637 -0.4401 -1.3372  2.0793
 3861SOL    HW211583   3.474   4.427   5.567  0.3366  0.4795  0.9223
 3862SOL     OW11584   2.871   0.442   7.039 -0.4322  0.5650  0.2509
 3862SOL    HW111585   2.826   0.524   7.021 -2.8130 -0.9090 -1.0458
 3862SOL    HW211586   2.865   0.432   7.134  1.6622  2.7165  0.7328
 3863SOL     OW11587   3.695   4.553   5.808 -0.1555 -0.2915 -0.7095
 3863SOL    HW111588   3.678   4.596   5.892 -0.7065 -0.7854 -0.5555
 3863SOL    HW211589   3.692   4.624   5.743  0.7631  0.1660 -0.2626
 3864SOL     OW11590   0.329   3.051   7.642  0.1381 -0.4759  0.0118
 3864SOL    HW111591   0.320   3.140   7.607 -1.0995 -0.6450 -0.1210
 3864SOL    HW211592   0.417   3.025   7.615  0.1376  0.3297 -0.8439
 3865SOL     OW11593   4.022   2.232   9.426 -0.2854 -0.2504 -0.6240
 3865SOL    HW111594   3.926   2.234   9.431 -0.2410 -0.7927  1.6879
 3865SOL    HW211595   4.050   2.315   9.464  0.1626 -0.9614  0.6422
 3866SOL     OW11596   2.313   1.058   5.856 -0.5678 -0.2851  0.3741
 3866SOL    HW111597   2.407   1.075   5.843 -0.9972  1.8234 -0.2921
 3866SOL    HW211598   2.277   1.057   5.768 -1.2595 -0.6647  0.6543
 3867SOL     OW11599   1.701   0.078   5.620  0.0044  1.3177  0.4569
 3867SOL    HW111600   1.608   0.086   5.643  0.1300  2.3467  0.6449
 3867SOL    HW211601   1.701   0.059   5.526 -0.3814  1.8907  0.3397
 3868SOL     OW11602   3.653   3.541   6.339  0.2683  0.2016  0.0112
 3868SOL    HW111603   3.694   3.560   6.254 -0.1409  0.6285 -0.0955
 3868SOL    HW211604   3.640   3.446   6.339 -1.8602  0.4130 -1.4040
 3869SOL     OW11605   4.930   4.156   5.822 -0.6003 -0.3575 -0.1432
 3869SOL    HW111606   4.881   4.205   5.756  0.7246  0.3698 -0.6270
 3869SOL    HW211607   4.972   4.223   5.876 -0.2779 -0.9567  0.3639
 3870SOL     OW11608   4.159   4.287   5.872  0.5896  0.9105 -0.2709
 3870SOL    HW111609   4.150   4.284   5.968  1.2588  1.8878 -0.1641
 3870SOL    HW211610   4.070   4.274   5.840  0.3027  0.9088  0.4897
 3871SOL     OW11611   4.327   3.222   5.611  0.4926 -0.1803  0.2179
 3871SOL    HW111612   4.234   3.237   5.623  0.6189  1.2699 -0.3926
 3871SOL    HW211613   4.336   3.127   5.605 -1.3833 -0.3035 -2.8771
 3872SOL     OW11614   2.311   4.665   5.035 -0.0753  0.0151 -0.9223
 3872SOL    HW111615   2.372   4.592   5.026 -2.6651 -2.9027  2.2760
 3872SOL    HW211616   2.229   4.631   4.997 -1.2153  1.4436  0.1607
 3873SOL     OW11617   0.698   2.880   5.840 -0.0485  0.2958 -0.1496
 3873SOL    HW111618   0.651   2.798   5.858 -0.3059  0.2779 -0.8431
 3873SOL    HW211619   0.775   2.877   5.896 -1.3812  0.8052  1.8084
 3874SOL     OW11620   3.500   4.637   8.998  1.1402 -0.0749  0.0774
 3874SOL    HW111621   3.410   4.639   9.030  1.7400  1.8175  1.8874
 3874SOL    HW211622   3.521   4.544   8.992 -1.2550 -0.6025 -1.5514
 3875SOL     OW11623   2.784   3.549   5.205  0.1288  0.2061  0.3400
 3875SOL    HW111624   2.718   3.489   5.169 -1.6614  2.0514  0.3816
 3875SOL    HW211625   2.810   3.509   5.288 -0.3248 -0.9667 -0.0602
 3876SOL     OW11626   3.587   4.513   5.445  0.4089 -0.7895 -0.2073
 3876SOL    HW111627   3.539   4.593   5.422  1.7208  0.1383  0.2111
 3876SOL    HW211628   3.586   4.462   5.364 -0.2549 -0.2666 -0.5484
 3877SOL     OW11629   3.472   4.761   5.370  0.4170 -0.2678 -0.2673
 3877SOL    HW111630   3.519   4.837   5.337  0.8095  0.3252  1.5223
 3877SOL    HW211631   3.382   4.775   5.342  0.6361  0.4618 -0.6378
 3878SOL     OW11632   4.961   0.891   8.358  0.1621 -0.4642  0.4346
 3878SOL    HW111633   4.899   0.927   8.293 -0.3306  0.6672  1.4728
 3878SOL    HW211634   4.906   0.838   8.416  0.1496  0.4962  1.3272
 3879SOL     OW11635   0.637   1.159   6.935 -0.2165  0.8519 -0.7053
 3879SOL    HW111636   0.599   1.246   6.949 -0.3024  0.6733  0.2787
 3879SOL    HW211637   0.731   1.172   6.945  0.0347  1.2660 -2.9967
 3880SOL     OW11638   4.561   1.084   5.454  0.4775 -0.9796  0.5704
 3880SOL    HW111639   4.486   1.112   5.507  1.8828 -2.0005  3.3218
 3880SOL    HW211640   4.631   1.143   5.481  1.6109 -2.4786  1.0138
 3881SOL     OW11641   4.982   4.976   6.463 -0.1663  0.1788  0.2276
 3881SOL    HW111642   4.927   4.906   6.499 -0.4726  0.7531  0.8971
 3881SOL    HW211643   4.921   5.038   6.425  0.0633  0.4285  0.2603
 3882SOL     OW11644   1.079   1.663   5.978  0.0570  0.4080 -0.0393
 3882SOL    HW111645   1.024   1.598   5.934 -0.9865  1.2106  0.0375
 3882SOL    HW211646   1.163   1.619   5.990 -0.2758 -0.5340 -0.9878
 3883SOL     OW11647   2.134   0.396   5.326  0.1233  0.1719  1.1853
 3883SOL    HW111648   2.210   0.379   5.270 -1.5391 -0.0437 -1.1093
 3883SOL    HW211649   2.148   0.485   5.359  2.1986 -0.4866  2.2767
 3884SOL     OW11650   0.648   3.263   5.211  0.2085 -0.0613 -0.1958
 3884SOL    HW111651   0.569   3.302   5.174 -0.5117  1.5373  2.6862
 3884SOL    HW211652   0.705   3.247   5.136 -1.5664  1.7786 -2.0500
 3885SOL     OW11653   3.653   3.057   7.654 -0.0605 -0.0392 -0.1207
 3885SOL    HW111654   3.690   2.973   7.678 -1.9112 -1.0782 -0.7119
 3885SOL    HW211655   3.565   3.037   7.621 -0.2884  2.0364 -0.9854
 3886SOL     OW11656   4.663   4.757   6.451  0.1990 -0.5993 -0.1552
 3886SOL    HW111657   4.672   4.780   6.359 -2.9713  0.1531 -0.4069
 3886SOL    HW211658   4.723   4.683   6.464  1.2192 -0.2973 -2.6101
 3887SOL     OW11659   4.384   4.518   4.969 -0.2112  0.2149 -0.4375
 3887SOL    HW111660   4.447   4.571   5.018  0.2022  0.7876 -1.5729
 3887SOL    HW211661   4.304   4.571   4.968 -0.9672 -0.7658  1.5243
 3888SOL     OW11662   2.863   3.717   8.949  0.3469 -0.0986 -0.1030
 3888SOL    HW111663   2.885   3.794   9.001 -1.3081  0.0266  0.4789
 3888SOL    HW211664   2.931   3.713   8.881  1.2028  1.0939  0.6569
 3889SOL     OW11665   3.408   3.836   7.802 -0.2155 -0.1353  0.2350
 3889SOL    HW111666   3.426   3.826   7.708  0.9501  0.9116  0.3092
 3889SOL    HW211667   3.495   3.838   7.843 -0.6733  0.3222  1.2215
 3890SOL     OW11668   3.702   3.850   6.977 -0.3173  0.8753  0.0173
 3890SOL    HW111669   3.614   3.818   6.960 -1.2598  2.8398  0.8514
 3890SOL    HW211670   3.710   3.850   7.073  0.1643  1.7005 -0.0074
 3891SOL     OW11671   1.384   0.047   5.620  0.0912 -0.5148  0.3992
 3891SOL    HW111672   1.296   0.076   5.646  0.4346  1.5059 -0.5229
 3891SOL    HW211673   1.429   0.031   5.703 -0.4493  0.7231  0.9638
 3892SOL     OW11674   4.159   3.347   7.005  0.5041 -0.2708  0.0761
 3892SOL    HW111675   4.102   3.404   7.057  1.5489  1.9314 -1.0429
 3892SOL    HW211676   4.102   3.312   6.937  0.1868  0.9980 -0.3478
 3893SOL     OW11677   4.360   3.536   7.052 -0.2961  0.1326  0.3591
 3893SOL    HW111678   4.333   3.591   7.126 -0.6110 -0.1177  0.4311
 3893SOL    HW211679   4.294   3.467   7.049 -2.2065  1.8507 -2.1116
 3894SOL     OW11680   0.426   4.929   5.910  0.1489  0.2531  0.4147
 3894SOL    HW111681   0.451   5.000   5.851  0.1333  0.4731  0.6667
 3894SOL    HW211682   0.439   4.849   5.860  0.1126  0.4397  0.1079
 3895SOL     OW11683   4.097   0.469   5.217  0.1199 -0.2341  0.0627
 3895SOL    HW111684   4.160   0.435   5.154  1.4949  0.0710  1.2288
 3895SOL    HW211685   4.075   0.394   5.273 -1.9158 -0.7822 -1.3403
 3896SOL     OW11686   4.288   2.348   6.558 -0.1256 -0.0956  0.0246
 3896SOL    HW111687   4.314   2.402   6.484  0.6534 -1.0020 -0.3950
 3896SOL    HW211688   4.371   2.317   6.595 -0.4276  1.4331  2.1471
 3897SOL     OW11689   1.250   1.984   9.065  0.6806  0.0254  0.0569
 3897SOL    HW111690   1.197   1.980   9.144 -1.5365 -0.1873 -1.3564
 3897SOL    HW211691   1.191   1.956   8.995  2.3673  0.8114 -1.7781
 3898SOL     OW11692   4.476   1.595   8.878 -0.4390 -0.0071  0.3480
 3898SOL    HW111693   4.457   1.508   8.912  0.2995  0.2556  1.5086
 3898SOL    HW211694   4.518   1.640   8.952  1.2416  0.5908 -0.9009
 3899SOL     OW11695   4.143   3.942   8.405  0.4618 -0.4393  0.0939
 3899SOL    HW111696   4.069   3.982   8.358  1.8336  0.7174 -1.1924
 3899SOL    HW211697   4.212   3.934   8.339  0.2798 -5.3090  0.1673
 3900SOL     OW11698   4.059   3.880   9.635  0.1258 -0.8032 -0.1471
 3900SOL    HW111699   3.986   3.931   9.669 -0.5078 -0.9270 -1.2541
 3900SOL    HW211700   4.042   3.875   9.541  0.6503 -2.3045 -0.1801
 3901SOL     OW11701   3.182   1.668   4.931  0.3395  0.0151 -0.3018
 3901SOL    HW111702   3.101   1.684   4.881 -0.1309 -2.0381 -0.2750
 3901SOL    HW211703   3.215   1.585   4.897  1.3010 -0.2354  1.1766
 3902SOL     OW11704   4.972   3.506   9.408  0.1124 -0.2813 -0.0618
 3902SOL    HW111705   5.066   3.507   9.423  0.1321 -1.4210 -0.0287
 3902SOL    HW211706   4.958   3.570   9.338  0.7816  0.5650  0.5510
 3903SOL     OW11707   0.032   4.295   9.546  0.2019  0.4406 -0.4828
 3903SOL    HW111708   0.111   4.347   9.561  0.2967 -0.2269  1.6294
 3903SOL    HW211709   0.010   4.311   9.454  2.1332  1.5263 -0.8081
 3904SOL     OW11710   2.954   0.389   8.589 -0.3943 -0.0548 -0.3301
 3904SOL    HW111711   2.871   0.409   8.632  0.6767  1.7959  1.0603
 3904SOL    HW211712   3.000   0.333   8.651  0.8428  1.9956  0.7355
 3905SOL     OW11713   1.017   0.769   6.189  0.4707  0.2776  0.2100
 3905SOL    HW111714   0.980   0.786   6.275  1.3450  0.2884  0.5929
 3905SOL    HW211715   0.944   0.737   6.137 -0.1423  0.6221  0.8516
 3906SOL     OW11716   0.572   3.599   7.053 -0.4473  0.1352  0.0395
 3906SOL    HW111717   0.504   3.617   6.988 -0.7191 -1.4346 -0.1631
 3906SOL    HW211718   0.527   3.603   7.137 -0.7256 -0.5062 -0.0693
 3907SOL     OW11719   3.124   4.768   6.141  0.2717 -0.1275 -0.2418
 3907SOL    HW111720   3.125   4.852   6.186 -0.1523  0.3620 -1.1107
 3907SOL    HW211721   3.075   4.785   6.060 -3.3491 -2.1176  1.3171
 3908SOL     OW11722   0.081   4.726   9.529 -0.2131 -0.2895 -0.0774
 3908SOL    HW111723   0.046   4.812   9.505  1.1297 -0.4156 -2.8173
 3908SOL    HW211724   0.003   4.670   9.536 -0.8792  0.2387 -2.4172
 3909SOL     OW11725   4.959   4.029   9.082 -0.3765  0.4145  0.5597
 3909SOL    HW111726   4.944   4.087   9.008  2.2685  2.3552  1.4231
 3909SOL    HW211727   4.984   4.087   9.154 -0.3649 -1.5955  2.2773
 3910SOL     OW11728   0.523   4.238   9.058  0.0468 -0.2497  0.0264
 3910SOL    HW111729   0.549   4.197   9.140 -1.1315 -0.3468  0.3682
 3910SOL    HW211730   0.479   4.168   9.009 -2.6442  0.6820  0.9198
 3911SOL     OW11731   2.727   0.257   5.017 -0.3723 -0.0568  0.2039
 3911SOL    HW111732   2.794   0.192   5.038  0.3580  0.5187 -0.2405
 3911SOL    HW211733   2.653   0.207   4.983  0.3883 -0.6290 -0.6571
 3912SOL     OW11734   0.367   2.398   8.722 -0.1196 -0.1066 -0.7472
 3912SOL    HW111735   0.349   2.492   8.712 -0.3700 -0.2147 -1.3635
 3912SOL    HW211736   0.282   2.356   8.706  0.3954 -0.5524 -2.5237
 3913SOL     OW11737   0.475   0.759   8.486 -0.2592  0.1861  0.4148
 3913SOL    HW111738   0.548   0.815   8.460  1.2521 -0.7241  2.4598
 3913SOL    HW211739   0.428   0.741   8.404 -0.3747  3.7217 -0.4359
 3914SOL     OW11740   4.868   4.360   7.643  0.0078  0.5504 -0.1108
 3914SOL    HW111741   4.795   4.394   7.590 -0.0693 -0.0513 -0.3965
 3914SOL    HW211742   4.830   4.345   7.729  0.5302  3.1953  0.6891
 3915SOL     OW11743   4.972   3.177   6.539  0.0618  0.1486  0.5074
 3915SOL    HW111744   5.021   3.222   6.471 -0.6886  0.6907  0.3125
 3915SOL    HW211745   4.909   3.123   6.492 -0.0548  0.0630  0.7616
 3916SOL     OW11746   0.608   3.483   5.783  0.7311  0.0043  0.2980
 3916SOL    HW111747   0.517   3.482   5.813  0.1870  0.6186 -1.2303
 3916SOL    HW211748   0.604   3.518   5.694  2.6285  1.5188  0.7215
 3917SOL     OW11749   2.677   4.843   6.899  0.3581  0.2507  0.2311
 3917SOL    HW111750   2.625   4.885   6.830 -0.8475  0.4856  1.2634
 3917SOL    HW211751   2.659   4.749   6.889  0.0568  0.2979  0.3320
 3918SOL     OW11752   4.457   3.161   8.485 -0.4663  0.2385  0.6788
 3918SOL    HW111753   4.420   3.073   8.489  0.2904 -0.1236  0.0432
 3918SOL    HW211754   4.514   3.159   8.408  0.1844  1.0338  1.1266
 3919SOL     OW11755   0.941   4.599   8.130  0.0674 -0.7277  0.0552
 3919SOL    HW111756   1.028   4.640   8.140  0.6569 -2.2780  1.9997
 3919SOL    HW211757   0.960   4.509   8.106 -1.0009 -1.0443  0.3684
 3920SOL     OW11758   4.155   2.620   9.227 -0.2165  0.3662 -0.1148
 3920SOL    HW111759   4.197   2.696   9.188 -1.7403  1.3159  0.0206
 3920SOL    HW211760   4.092   2.657   9.289 -1.0174 -1.0049 -0.0754
 3921SOL     OW11761   2.938   3.766   6.290  0.3920 -0.0838  0.0664
 3921SOL    HW111762   2.847   3.740   6.283  0.6877 -0.6882 -2.3053
 3921SOL    HW211763   2.936   3.862   6.293 -0.3468 -0.1045  1.9263
 3922SOL     OW11764   4.226   1.793   7.274 -0.5125  0.2784 -0.1986
 3922SOL    HW111765   4.262   1.855   7.210  1.0792  1.7297  1.9643
 3922SOL    HW211766   4.279   1.714   7.263 -0.4888  0.3828 -0.8889
 3923SOL     OW11767   4.057   4.915   8.820  0.2821  0.2944  0.6872
 3923SOL    HW111768   4.037   5.007   8.837  1.6295  1.1775 -1.8877
 3923SOL    HW211769   4.152   4.911   8.814  0.1823 -0.4341 -2.6428
 3924SOL     OW11770   0.612   2.259   7.848 -0.4478  0.1682 -0.4286
 3924SOL    HW111771   0.532   2.256   7.900  0.8421  0.0348  1.6975
 3924SOL    HW211772   0.645   2.348   7.861  0.2748 -0.0989 -0.3866
 3925SOL     OW11773   1.385   3.593   7.932 -0.2708 -0.0523 -0.2304
 3925SOL    HW111774   1.292   3.584   7.913 -0.2269 -0.7143 -0.1257
 3925SOL    HW211775   1.409   3.677   7.893 -1.0883  0.5063  0.4232
 3926SOL     OW11776   0.813   0.748   5.399  0.0155 -0.0918 -0.1298
 3926SOL    HW111777   0.801   0.723   5.307 -0.5984 -0.0381 -0.0681
 3926SOL    HW211778   0.879   0.817   5.397 -0.0042 -0.0827 -0.5332
 3927SOL     OW11779   1.027   2.163   8.167  0.4418 -0.6954 -0.0625
 3927SOL    HW111780   0.986   2.097   8.224  0.5009 -0.5689  0.1288
 3927SOL    HW211781   1.110   2.124   8.142  0.1569 -1.0019 -0.5442
 3928SOL     OW11782   0.157   2.714   6.425  0.2293  0.6468  0.0984
 3928SOL    HW111783   0.186   2.760   6.504  1.3371 -1.4807  0.9954
 3928SOL    HW211784   0.227   2.652   6.406 -0.0054  1.1026 -2.6053
 3929SOL     OW11785   3.376   1.534   8.114 -0.3177 -0.1406 -0.1654
 3929SOL    HW111786   3.390   1.460   8.173 -0.8547  1.2074  1.7453
 3929SOL    HW211787   3.281   1.537   8.101 -0.2615 -0.0237 -0.5663
 3930SOL     OW11788   4.978   4.852   7.148  0.1715  0.3946 -0.0713
 3930SOL    HW111789   4.928   4.893   7.218 -0.3452  0.4103 -0.4504
 3930SOL    HW211790   4.933   4.769   7.130 -0.4401  0.9510 -1.2283
 3931SOL     OW11791   0.740   4.966   5.974 -0.2909  0.8090 -0.4861
 3931SOL    HW111792   0.705   4.879   5.954  0.7830  0.5187 -1.1807
 3931SOL    HW211793   0.681   5.001   6.041  0.8337 -1.5932  1.9422
 3932SOL     OW11794   4.230   3.114   7.399 -0.6067  0.1209  0.2576
 3932SOL    HW111795   4.156   3.056   7.381 -0.8537  0.6942 -0.6699
 3932SOL    HW211796   4.293   3.060   7.446 -1.5936 -0.3894  1.0175
 3933SOL     OW11797   4.796   1.834   8.252 -0.5103  0.2567  0.3592
 3933SOL    HW111798   4.719   1.807   8.303  0.1990  1.0218  1.9177
 3933SOL    HW211799   4.773   1.922   8.220 -0.6633  0.0881  0.0097
 3934SOL     OW11800   4.031   0.317   8.232  0.4151 -0.0711 -0.1147
 3934SOL    HW111801   3.984   0.256   8.289 -1.1034  0.3905 -0.8184
 3934SOL    HW211802   3.969   0.388   8.216  1.2533  0.4194 -1.3369
 3935SOL     OW11803   1.445   2.604   7.807  0.1241  0.1163 -0.3506
 3935SOL    HW111804   1.363   2.612   7.856  0.5901  0.2329  0.4351
 3935SOL    HW211805   1.472   2.694   7.791  0.5464  0.0891  0.1772
 3936SOL     OW11806   1.118   4.945   6.812  0.2043  0.3732 -0.3218
 3936SOL    HW111807   1.136   4.853   6.790  0.1938  0.5848 -1.2480
 3936SOL    HW211808   1.049   4.941   6.878 -0.1534 -0.2761 -0.7231
 3937SOL     OW11809   1.127   0.473   8.285  0.0773 -0.2528 -0.5673
 3937SOL    HW111810   1.054   0.423   8.249 -0.1145 -0.8637  0.6340
 3937SOL    HW211811   1.205   0.425   8.255 -0.1096 -1.4410  0.7608
 3938SOL     OW11812   2.997   3.118   7.857  0.3907 -0.1669 -0.3185
 3938SOL    HW111813   2.965   3.203   7.827  1.4609 -0.4156 -2.3060
 3938SOL    HW211814   2.988   3.122   7.953  0.8813  2.3704 -0.2978
 3939SOL     OW11815   0.548   4.857   7.249  0.1871 -0.1665  0.6665
 3939SOL    HW111816   0.556   4.943   7.291  0.0847 -0.2684  0.8976
 3939SOL    HW211817   0.493   4.806   7.309  1.7247 -0.9688  1.4401
 3940SOL     OW11818   4.894   4.147   9.726 -0.0823  0.0769  0.3070
 3940SOL    HW111819   4.939   4.218   9.682 -1.6289 -0.4130 -2.2770
 3940SOL    HW211820   4.959   4.077   9.732  0.5193  0.5993 -0.0579
 3941SOL     OW11821   0.117   0.425   5.821  0.5786  0.4369  0.4520
 3941SOL    HW111822   0.209   0.399   5.829  0.2614 -1.9208 -1.9964
 3941SOL    HW211823   0.094   0.457   5.908  3.5938  0.8062  1.2481
 3942SOL     OW11824   4.076   0.100   5.886  0.0356  0.5492 -0.4501
 3942SOL    HW111825   4.033   0.031   5.937  0.3038 -0.6895 -1.8205
 3942SOL    HW211826   4.126   0.149   5.950  1.4168 -1.7554  0.3656
 3943SOL     OW11827   3.815   3.696   9.982 -0.5105  0.2988 -0.1770
 3943SOL    HW111828   3.839   3.630   9.917 -0.5013 -0.1424  0.2708
 3943SOL    HW211829   3.726   3.673  10.007 -0.7534  0.8519 -0.4952
 3944SOL     OW11830   1.295   4.183   8.017  0.8138  0.0952 -0.4989
 3944SOL    HW111831   1.273   4.138   8.099  1.1659  0.3710 -0.2507
 3944SOL    HW211832   1.364   4.128   7.978  0.6873 -0.0039 -0.5865
 3945SOL     OW11833   3.901   3.431   9.442 -0.1962 -0.0561 -0.1374
 3945SOL    HW111834   3.966   3.443   9.372  0.8326 -1.3857  0.5272
 3945SOL    HW211835   3.891   3.336   9.448  0.0236  0.0129  1.7670
 3946SOL     OW11836   0.064   4.626   8.532 -0.0126  0.1120 -0.0710
 3946SOL    HW111837   0.142   4.620   8.476  0.6604 -0.4693  0.8934
 3946SOL    HW211838   0.099   4.630   8.621 -1.1299 -2.6561  0.5692
 3947SOL     OW11839   1.065   4.030   7.765  0.0508  0.0224 -0.0934
 3947SOL    HW111840   1.151   4.070   7.757 -0.2001  0.2442 -2.1428
 3947SOL    HW211841   1.004   4.104   7.764 -0.2734 -0.2433 -1.1991
 3948SOL     OW11842   3.508   1.749   5.814 -0.1181 -0.0145 -0.2930
 3948SOL    HW111843   3.568   1.813   5.852 -1.3505  1.5772 -0.9231
 3948SOL    HW211844   3.426   1.761   5.861  0.1008 -2.5442  0.9398
 3949SOL     OW11845   3.182   2.190   9.786  0.4999  0.1740 -0.1988
 3949SOL    HW111846   3.119   2.253   9.821  1.9766  0.9254  1.2397
 3949SOL    HW211847   3.201   2.222   9.698  0.8410  1.4911  0.3246
 3950SOL     OW11848   0.551   0.944   9.225 -0.0743  0.2993  1.1913
 3950SOL    HW111849   0.549   1.034   9.192 -0.6070 -0.1209  0.0354
 3950SOL    HW211850   0.615   0.946   9.296  0.7682  1.3376  0.4352
 3951SOL     OW11851   3.866   3.185   7.385 -0.4699  0.3038  0.1351
 3951SOL    HW111852   3.789   3.198   7.329 -0.2633  0.4435 -0.1213
 3951SOL    HW211853   3.940   3.208   7.329 -0.2039 -0.3793  0.2036
 3952SOL     OW11854   1.243   2.465  10.218  1.1540  0.1555  0.1970
 3952SOL    HW111855   1.261   2.374  10.239 -0.0670  0.3802  2.4466
 3952SOL    HW211856   1.297   2.482  10.140  1.7030 -2.3377 -0.0548
 3953SOL     OW11857   0.475   1.162   8.634 -0.9274 -0.3189  0.7632
 3953SOL    HW111858   0.426   1.080   8.632  0.1774 -0.9884 -0.0391
 3953SOL    HW211859   0.559   1.138   8.673  0.3464 -0.1451 -1.7191
 3954SOL     OW11860   0.130   0.127   8.671 -0.3715 -0.2944  0.3499
 3954SOL    HW111861   0.065   0.151   8.605 -0.2330 -1.9483 -0.4353
 3954SOL    HW211862   0.215   0.148   8.631 -0.2694 -1.6231 -0.1825
 3955SOL     OW11863   3.851   4.369   5.197  0.3792 -0.3414  0.3797
 3955SOL    HW111864   3.774   4.323   5.231  0.3981 -0.0922  0.7621
 3955SOL    HW211865   3.925   4.314   5.225  0.3444 -0.5693  0.0307
 3956SOL     OW11866   1.980   0.312   8.527 -0.2283 -0.2848 -0.0344
 3956SOL    HW111867   2.069   0.314   8.562 -0.4571 -2.3541  0.8124
 3956SOL    HW211868   1.936   0.243   8.577 -1.5447 -1.1144 -2.2132
 3957SOL     OW11869   4.254   1.719   8.333 -0.6699 -0.2298 -0.3155
 3957SOL    HW111870   4.296   1.729   8.419 -2.7577 -1.9162  0.9825
 3957SOL    HW211871   4.191   1.791   8.328 -0.9867 -0.4931 -0.1479
 3958SOL     OW11872   2.590   2.987   8.646 -0.5152  0.0859 -0.1063
 3958SOL    HW111873   2.586   3.034   8.563  0.1381  2.0224  0.9222
 3958SOL    HW211874   2.677   3.005   8.680 -1.1582  0.2173  1.5262
 3959SOL     OW11875   3.851   2.356   6.933  0.1240  0.4721 -0.3057
 3959SOL    HW111876   3.881   2.322   6.849  1.3546 -1.3056  0.7924
 3959SOL    HW211877   3.919   2.330   6.995 -2.7640 -2.1706  2.0323
 3960SOL     OW11878   4.944   2.943   7.795  0.4936 -0.0828  0.6338
 3960SOL    HW111879   5.015   2.886   7.766  0.4241 -0.2149  0.7215
 3960SOL    HW211880   4.982   3.030   7.797 -0.0442  0.2935 -1.9596
 3961SOL     OW11881   3.987   4.238   7.859 -0.1145 -0.2333 -0.0209
 3961SOL    HW111882   3.996   4.263   7.951  0.6831 -0.7004  0.0363
 3961SOL    HW211883   4.075   4.209   7.833 -0.3548 -0.2124 -0.8980
 3962SOL     OW11884   3.833   3.405   9.043  0.4474 -0.1549 -0.3612
 3962SOL    HW111885   3.776   3.477   9.070 -1.6593 -1.3481 -1.3548
 3962SOL    HW211886   3.796   3.327   9.084 -0.3190 -1.3636 -3.1166
 3963SOL     OW11887   4.628   3.976   6.378  0.8808 -0.3951 -0.4437
 3963SOL    HW111888   4.588   4.056   6.344 -2.3630 -1.8560 -0.4402
 3963SOL    HW211889   4.613   3.979   6.472  0.4925 -1.1155 -0.4734
 3964SOL     OW11890   4.762   3.822   7.025 -0.0236  0.1505  0.0198
 3964SOL    HW111891   4.825   3.882   7.064 -0.3001  1.1132 -0.9695
 3964SOL    HW211892   4.810   3.740   7.013  1.7310  1.4234 -2.5834
 3965SOL     OW11893   3.334   4.414   6.221  0.0086  0.1890 -0.1732
 3965SOL    HW111894   3.306   4.370   6.301 -0.4527  1.6819  0.5415
 3965SOL    HW211895   3.364   4.344   6.164  0.7121 -0.9015  1.4471
 3966SOL     OW11896   0.076   3.614   8.990  0.1916 -0.4575 -0.0570
 3966SOL    HW111897   0.160   3.580   8.961 -0.4087 -1.0110 -1.1832
 3966SOL    HW211898   0.011   3.556   8.951 -0.7121 -0.4629  1.3583
 3967SOL     OW11899   3.047   2.627   6.908  0.0892  0.0233 -0.0885
 3967SOL    HW111900   3.024   2.559   6.845  0.9674  0.4262 -0.8674
 3967SOL    HW211901   2.964   2.671   6.927 -0.5820 -1.5489  0.8100
 3968SOL     OW11902   3.214   4.360  10.199 -0.0603  0.2666 -0.2036
 3968SOL    HW111903   3.210   4.353  10.294 -2.9997 -0.3206 -0.2679
 3968SOL    HW211904   3.284   4.300  10.172  0.7307  0.3632  1.5525
 3969SOL     OW11905   4.127   3.680   9.984  0.4869 -0.0774 -0.1193
 3969SOL    HW111906   4.142   3.590  10.015  0.8522 -0.2247 -0.7091
 3969SOL    HW211907   4.032   3.686   9.975  0.2437  0.3721  2.1777
 3970SOL     OW11908   3.332   0.483   8.911 -0.7736  0.1369  0.5404
 3970SOL    HW111909   3.326   0.568   8.866 -2.6646  0.3390  1.0902
 3970SOL    HW211910   3.274   0.492   8.986  0.6350 -0.9540  1.8094
 3971SOL     OW11911   4.094   0.052   7.781 -0.2872 -0.4668 -0.1915
 3971SOL    HW111912   4.015   0.018   7.823 -0.0028  0.0543  0.7948
 3971SOL    HW211913   4.097   0.144   7.806  0.2974 -0.3248 -0.7503
 3972SOL     OW11914   3.917   4.077   8.270  0.5871 -0.6919 -0.8810
 3972SOL    HW111915   3.868   4.159   8.262  0.6477 -0.4460  1.0006
 3972SOL    HW211916   3.932   4.050   8.179 -1.0134  0.4225 -1.5222
 3973SOL     OW11917   1.325   4.856   7.911 -0.1256  0.8078  0.3890
 3973SOL    HW111918   1.418   4.835   7.912  0.0195  1.3725 -0.2437
 3973SOL    HW211919   1.309   4.888   7.822 -0.8085  1.2238  0.6510
 3974SOL     OW11920   3.861   3.503   8.125  0.0380 -0.3306  1.0032
 3974SOL    HW111921   3.856   3.549   8.209  0.1299  1.1201  0.2470
 3974SOL    HW211922   3.928   3.436   8.139  1.0981  0.8170  1.6757
 3975SOL     OW11923   4.686   3.206   8.187  0.2598 -0.5160 -0.4325
 3975SOL    HW111924   4.700   3.112   8.175 -0.1090 -0.7207  0.6885
 3975SOL    HW211925   4.745   3.231   8.258  2.6189  0.7452 -2.6628
 3976SOL     OW11926   2.837   3.778   5.076  0.0252 -0.3954 -0.1551
 3976SOL    HW111927   2.903   3.758   5.010 -1.1144 -0.9452 -1.1573
 3976SOL    HW211928   2.810   3.693   5.110 -1.3654 -0.3076 -0.9775
 3977SOL     OW11929   2.241   2.574   6.221  0.7102  0.0944  0.3878
 3977SOL    HW111930   2.312   2.561   6.158  0.9550  4.6701 -0.6419
 3977SOL    HW211931   2.166   2.603   6.169 -0.1417  0.7685  1.8908
 3978SOL     OW11932   3.218   4.648   9.083 -1.0969 -0.3606 -0.0374
 3978SOL    HW111933   3.168   4.711   9.031 -2.0938 -0.4933  0.7401
 3978SOL    HW211934   3.196   4.668   9.174 -0.0783 -0.7167  0.3030
 3979SOL     OW11935   1.799   4.774   9.049 -0.6363 -0.0635  0.0816
 3979SOL    HW111936   1.885   4.736   9.028 -1.2179 -2.3395  1.4517
 3979SOL    HW211937   1.808   4.867   9.027  1.8337 -0.4293 -0.7926
 3980SOL     OW11938   0.333   4.155   7.075 -0.1855  0.4458  0.6030
 3980SOL    HW111939   0.255   4.105   7.097 -1.3407  0.4795 -2.7578
 3980SOL    HW211940   0.403   4.090   7.071 -0.3873  0.1241  1.9655
 3981SOL     OW11941   3.704   4.658   8.646  0.1389  0.2699 -0.2597
 3981SOL    HW111942   3.656   4.726   8.695  0.2206 -0.2552  0.5746
 3981SOL    HW211943   3.776   4.634   8.705 -2.0200 -3.2810  1.2618
 3982SOL     OW11944   4.292   0.744   7.513 -0.2216 -0.1067  1.0899
 3982SOL    HW111945   4.318   0.671   7.458  4.1882  2.8064 -1.2512
 3982SOL    HW211946   4.210   0.775   7.474 -1.3364 -2.6434  1.1859
 3983SOL     OW11947   3.519   4.019   9.566  0.0355 -0.0250  0.0075
 3983SOL    HW111948   3.480   3.997   9.481  0.5843  0.5363 -0.4054
 3983SOL    HW211949   3.555   3.936   9.598  1.3083  0.0489 -1.1109
 3984SOL     OW11950   4.240   0.347   5.831 -0.1171 -0.7484  0.0774
 3984SOL    HW111951   4.171   0.412   5.823  2.0376  1.5870 -1.1455
 3984SOL    HW211952   4.211   0.274   5.776 -1.3641  0.3848 -0.8344
 3985SOL     OW11953   0.552   1.016   6.716 -0.5906 -0.2834  1.1075
 3985SOL    HW111954   0.587   1.046   6.800 -0.1333  0.2474  0.7335
 3985SOL    HW211955   0.629   1.002   6.661 -0.9351  0.8023  0.3072
 3986SOL     OW11956   4.555   1.895   7.861 -0.2445  0.1494  0.3860
 3986SOL    HW111957   4.537   1.802   7.868  0.9587 -0.0250  1.6460
 3986SOL    HW211958   4.647   1.900   7.835 -0.1179  0.9764  0.9340
 3987SOL     OW11959   0.533   3.313   6.749  0.1986  0.1666  0.0330
 3987SOL    HW111960   0.462   3.299   6.812  1.5366  0.6068  1.6873
 3987SOL    HW211961   0.519   3.402   6.717 -0.1004  0.1838  0.2007
 3988SOL     OW11962   1.029   1.839   6.750  0.2202 -0.8991  0.5854
 3988SOL    HW111963   1.080   1.812   6.673 -0.0228 -0.9718  0.4486
 3988SOL    HW211964   1.052   1.775   6.817 -0.4445 -1.5354  0.2265
 3989SOL     OW11965   2.642   0.354   7.968  0.0103  0.1605 -0.3573
 3989SOL    HW111966   2.680   0.405   8.040  0.6799 -1.0554  0.1849
 3989SOL    HW211967   2.715   0.299   7.938 -1.0489 -1.5744  0.1031
 3990SOL     OW11968   4.546   3.430   7.895  0.0384  0.3345  0.4685
 3990SOL    HW111969   4.459   3.398   7.869  0.3482 -0.7664  0.7229
 3990SOL    HW211970   4.586   3.460   7.813 -0.3679  0.3112  0.2587
 3991SOL     OW11971   4.364   1.158   8.267 -0.3837 -0.0255  0.0241
 3991SOL    HW111972   4.412   1.106   8.202 -0.6670  0.1317 -0.3172
 3991SOL    HW211973   4.427   1.221   8.301  0.1356 -0.9805  0.8868
 3992SOL     OW11974   1.036   2.609   9.153 -1.1601 -0.4715  0.1773
 3992SOL    HW111975   0.999   2.531   9.195 -0.1709 -0.0062  2.0355
 3992SOL    HW211976   1.019   2.596   9.060 -2.4595 -2.1212  0.5927
 3993SOL     OW11977   3.373   3.117   7.041 -0.3843 -0.0540  0.1558
 3993SOL    HW111978   3.438   3.050   7.062 -1.6123 -1.2188  0.3307
 3993SOL    HW211979   3.311   3.073   6.983 -1.4451  0.8146  0.6008
 3994SOL     OW11980   0.033   2.247   8.271  0.0809 -0.4992 -0.4597
 3994SOL    HW111981   0.062   2.190   8.342  1.6888  1.0502  0.2186
 3994SOL    HW211982   0.079   2.215   8.194 -1.0839 -1.7224 -0.6702
 3995SOL     OW11983   0.817   4.181   8.967  0.1571 -0.4354 -0.1850
 3995SOL    HW111984   0.757   4.123   9.013 -0.9806 -0.5987 -1.7675
 3995SOL    HW211985   0.880   4.209   9.033  0.1581 -2.6883  0.8291
 3996SOL     OW11986   4.887   3.693   7.691 -0.1292 -0.3035  1.0603
 3996SOL    HW111987   4.929   3.751   7.755  1.8307 -2.1286  1.5347
 3996SOL    HW211988   4.923   3.607   7.709 -3.4361 -1.9070  0.8187
 3997SOL     OW11989   0.254   0.526   8.512  0.2502  0.0071 -0.1934
 3997SOL    HW111990   0.294   0.607   8.541  1.4184 -0.8437  0.6736
 3997SOL    HW211991   0.170   0.523   8.557  0.2415  0.6761 -0.1540
 3998SOL     OW11992   0.325   4.076   6.429 -0.0748  0.0855 -0.6012
 3998SOL    HW111993   0.247   4.027   6.403  0.5364 -2.3279  1.6014
 3998SOL    HW211994   0.397   4.033   6.382  0.2573  0.0814 -0.1039
 3999SOL     OW11995   3.436   3.601   9.529  0.3767  0.4054 -0.1652
 3999SOL    HW111996   3.442   3.506   9.528  0.4942  0.3023  2.4370
 3999SOL    HW211997   3.524   3.630   9.554  0.3374  1.2039 -0.9197
 4000SOL     OW11998   1.005   3.436   9.117  0.6233 -0.4675  0.3747
 4000SOL    HW111999   0.996   3.524   9.082 -1.3799 -0.8744 -0.2323
 4000SOL    HW212000   1.014   3.380   9.040  1.6654 -0.8303  0.7473
 4001SOL     OW12001   3.904   4.144   9.177 -0.4470  0.2633  0.4586
 4001SOL    HW112002   3.840   4.185   9.234 -0.8229  1.8492 -1.0114
 4001SOL    HW212003   3.930   4.214   9.116  1.9566 -0.5971  0.3976
 4002SOL     OW12004   4.115   4.112   8.963  0.1449  0.7273  0.0222
 4002SOL    HW112005   4.060   4.169   8.910  1.1144  0.3268 -1.4823
 4002SOL    HW212006   4.118   4.030   8.914 -0.4284 -0.3105  1.6491
 4003SOL     OW12007   4.266   1.881   9.287 -0.1851  0.2499  0.5400
 4003SOL    HW112008   4.264   1.953   9.224 -0.7947  0.2998  0.6161
 4003SOL    HW212009   4.360   1.864   9.300 -0.0568  0.1477 -0.4633
 4004SOL     OW12010   2.218   1.867   7.984  0.1308  0.5854  0.3194
 4004SOL    HW112011   2.182   1.954   7.967 -1.1821 -0.4424 -2.7253
 4004SOL    HW212012   2.144   1.816   8.015  0.1097 -0.2287 -1.0069
 4005SOL     OW12013   2.439   4.100   6.022 -0.6770 -0.3890  0.3009
 4005SOL    HW112014   2.504   4.138   5.963 -2.3445  1.2442 -0.6369
 4005SOL    HW212015   2.488   4.073   6.099  1.5391 -2.1128 -1.5578
 4006SOL     OW12016   3.594   2.808   8.234  0.0439  0.2359  0.0216
 4006SOL    HW112017   3.573   2.735   8.292 -0.0786  0.6132  0.4618
 4006SOL    HW212018   3.511   2.853   8.220  0.1246  0.3170 -0.2139
 4007SOL     OW12019   2.423   0.325   8.121  0.1706 -0.1069  0.4748
 4007SOL    HW112020   2.509   0.314   8.080  0.1632 -1.0349  0.6961
 4007SOL    HW212021   2.395   0.236   8.143 -0.9454  0.1654  0.2089
 4008SOL     OW12022   3.791   4.304   9.782 -0.3963 -0.2184  0.2354
 4008SOL    HW112023   3.830   4.333   9.699  0.5009 -0.5588  0.5332
 4008SOL    HW212024   3.701   4.279   9.758  0.2360 -1.5503 -0.8906
 4009SOL     OW12025   2.246   3.694   9.394  0.2190 -0.0907  0.2543
 4009SOL    HW112026   2.209   3.751   9.326  0.6798 -0.0111  0.0658
 4009SOL    HW212027   2.338   3.722   9.401  1.0170 -2.1211 -1.2686
 4010SOL     OW12028   0.106   0.214   9.511  0.2519 -0.5229  0.0519
 4010SOL    HW112029   0.160   0.247   9.583  1.6114  1.2954 -1.6811
 4010SOL    HW212030   0.131   0.268   9.436 -2.4402 -1.1010 -1.3755
 4011SOL     OW12031   4.396   3.737   9.299 -0.2010 -0.2075  0.4174
 4011SOL    HW112032   4.386   3.810   9.238 -0.6356 -0.5501  0.0717
 4011SOL    HW212033   4.491   3.729   9.312 -0.1271  0.1167  0.0916
 4012SOL     OW12034   4.802   1.226   8.495  0.7513  0.0095  0.5557
 4012SOL    HW112035   4.787   1.177   8.414  1.0243  2.4455 -1.0563
 4012SOL    HW212036   4.893   1.207   8.518  0.5989 -0.8881  0.4592
 4013SOL     OW12037   3.354   1.386   8.839  0.0912  0.4026 -0.6593
 4013SOL    HW112038   3.429   1.377   8.898  0.8711  0.0915 -1.6752
 4013SOL    HW212039   3.330   1.297   8.815  0.2761  0.5440 -1.4107
 4014SOL     OW12040   0.267   4.038  10.179  0.7345 -0.1673 -0.1502
 4014SOL    HW112041   0.341   4.024  10.238  1.0422  0.2725 -0.4227
 4014SOL    HW212042   0.307   4.049  10.093  0.2333 -1.7341 -0.6160
 4015SOL     OW12043   0.363   3.571   9.189 -0.7106  0.2806  0.7029
 4015SOL    HW112044   0.328   3.648   9.143 -1.6589  0.8407  2.2990
 4015SOL    HW212045   0.408   3.521   9.120  1.2272  2.9661 -0.1406
 4016SOL     OW12046   4.530   1.925   9.261  0.4013  0.2577  0.4536
 4016SOL    HW112047   4.493   1.989   9.200  2.0074  1.1799  0.3718
 4016SOL    HW212048   4.572   1.860   9.206 -1.5080 -1.1210  0.5296
 4017SOL     OW12049   1.447   0.485   6.982 -0.4608  0.2993  0.6000
 4017SOL    HW112050   1.493   0.543   7.042 -2.4547  0.0503  2.4633
 4017SOL    HW212051   1.433   0.539   6.904  3.8560  0.0446 -0.6312
 4018SOL     OW12052   0.505   0.779   6.844  0.1452 -0.6461  0.1581
 4018SOL    HW112053   0.413   0.764   6.865 -0.0750 -0.3222 -0.5435
 4018SOL    HW212054   0.505   0.859   6.792  0.9552  0.0011  1.1179
 4019SOL     OW12055   0.181   0.944   8.047 -0.5375 -0.3836  0.0787
 4019SOL    HW112056   0.115   1.013   8.056 -1.4332 -1.3147  1.0088
 4019SOL    HW212057   0.201   0.919   8.137 -1.2275 -2.2287 -0.2280
 4020SOL     OW12058   0.247   0.451   6.639  0.3521 -0.1130 -0.4994
 4020SOL    HW112059   0.239   0.357   6.654  0.2842 -0.1845 -0.9836
 4020SOL    HW212060   0.163   0.487   6.669 -0.5891 -0.4870 -2.5117
 4021SOL     OW12061   4.114   2.317   9.848 -0.1399  0.3118  0.5931
 4021SOL    HW112062   4.132   2.233   9.805  1.3344  1.1447 -0.5234
 4021SOL    HW212063   4.182   2.324   9.915  1.1112  1.5265 -0.7343
 4022SOL     OW12064   2.767   3.232   8.331  0.2535 -0.9663  0.5495
 4022SOL    HW112065   2.689   3.235   8.386 -0.2333  0.5547 -0.1953
 4022SOL    HW212066   2.768   3.142   8.296 -1.0001 -1.0879  0.7874
 4023SOL     OW12067   1.207   4.009   7.459 -0.3767  0.0043 -0.1019
 4023SOL    HW112068   1.212   4.104   7.444 -0.4523  0.0733  0.2924
 4023SOL    HW212069   1.144   4.000   7.530 -0.7903 -0.3829 -0.5172
 4024SOL     OW12070   3.469   3.685   9.276 -0.1686 -0.4603  0.2407
 4024SOL    HW112071   3.562   3.687   9.299  0.0774  2.4971 -0.5249
 4024SOL    HW212072   3.426   3.646   9.352  1.4952  0.0816  1.5300
 4025SOL     OW12073   3.906   3.445   9.844  0.3496  0.1370 -0.0388
 4025SOL    HW112074   3.817   3.418   9.869  0.1827 -1.1036 -1.7697
 4025SOL    HW212075   3.893   3.497   9.764  1.0815  1.2546  0.5502
 4026SOL     OW12076   0.998   2.596   7.290  0.3342  0.7517  0.0117
 4026SOL    HW112077   0.967   2.635   7.209  1.2463 -0.4100 -0.9299
 4026SOL    HW212078   1.086   2.564   7.270  0.8390  0.9877  1.6430
 4027SOL     OW12079   2.282   3.616   9.068  0.0931  0.2620 -0.2897
 4027SOL    HW112080   2.227   3.664   9.130 -0.2600 -0.1320 -0.2920
 4027SOL    HW212081   2.278   3.667   8.987  1.8003  1.6286  0.4244
 4028SOL     OW12082   4.143   1.543   8.783 -0.3249  0.3515 -0.7606
 4028SOL    HW112083   4.155   1.513   8.874  2.0923  1.1936 -0.7403
 4028SOL    HW212084   4.181   1.473   8.730 -1.2470  0.1119 -1.1304
 4029SOL     OW12085   0.869   1.004   9.972  0.7334 -0.2247 -0.5343
 4029SOL    HW112086   0.926   1.064   9.924  0.1213  2.1298  1.5103
 4029SOL    HW212087   0.792   1.056   9.995  0.9530 -1.1509  2.8938
 4030SOL     OW12088   4.445   0.022   9.585  0.1155  0.1640 -0.3353
 4030SOL    HW112089   4.464   0.113   9.606 -1.9349  0.0056  2.8687
 4030SOL    HW212090   4.488  -0.028   9.654  0.3575 -1.2473 -1.4601
 4031SOL     OW12091   4.791   3.181   9.716  0.5128  0.1176 -0.5461
 4031SOL    HW112092   4.747   3.179   9.801 -0.0925 -0.8742 -0.8575
 4031SOL    HW212093   4.797   3.274   9.694  3.8637  0.7247  2.1393
 4032SOL     OW12094   3.044   0.129   9.751 -0.5183  0.1875  0.7843
 4032SOL    HW112095   2.984   0.191   9.794 -1.0522  1.3756 -1.4936
 4032SOL    HW212096   3.000   0.045   9.758 -1.0667  0.5263  1.6509
 4033SOL     OW12097   3.057   1.141   9.377 -0.3712  0.2319 -0.0361
 4033SOL    HW112098   3.019   1.174   9.296  0.2268  1.3775  0.1351
 4033SOL    HW212099   3.008   1.185   9.446 -1.5125 -1.4310  0.2863
 4034SOL     OW12100   3.079   2.628   9.795 -0.1216  0.3344  0.2780
 4034SOL    HW112101   3.158   2.599   9.748  0.1483 -1.5087  1.7675
 4034SOL    HW212102   3.104   2.709   9.837  0.5376  0.4850 -0.3874
 4035SOL     OW12103   3.559   4.062   8.919  0.5501  0.3627 -0.6354
 4035SOL    HW112104   3.484   4.118   8.900 -0.4367 -0.9446 -0.7014
 4035SOL    HW212105   3.529   4.004   8.989  1.8176  0.4465 -0.0047
 4036SOL     OW12106   1.286   3.692   8.937 -0.0203  0.4530 -0.0061
 4036SOL    HW112107   1.379   3.684   8.916 -0.2706 -1.0791 -0.6797
 4036SOL    HW212108   1.273   3.631   9.010 -0.6680 -0.0902 -0.5594
 4037SOL     OW12109   0.978   3.073   9.984  1.0221  0.1195 -0.8187
 4037SOL    HW112110   0.946   3.075   9.894  1.9247  0.6704 -1.1447
 4037SOL    HW212111   1.008   2.983   9.997 -0.2361 -0.2972 -0.6399
 4038SOL     OW12112   2.454   0.326   7.758  0.1647  0.1370  0.2167
 4038SOL    HW112113   2.504   0.361   7.685 -0.7212  0.0767 -0.4371
 4038SOL    HW212114   2.510   0.340   7.835  1.8233 -1.3203 -0.6674
 4039SOL     OW12115   2.446   3.282  10.281 -0.5299  0.0309 -0.0872
 4039SOL    HW112116   2.405   3.213  10.335  0.9611  0.5759  1.8543
 4039SOL    HW212117   2.378   3.349  10.273 -1.4234 -0.8977 -0.5527
 4040SOL     OW12118   2.212   2.097   9.795  0.3760 -0.3814 -0.0855
 4040SOL    HW112119   2.249   2.057   9.874  2.9820  0.0418 -0.9698
 4040SOL    HW212120   2.249   2.046   9.723  0.4511  1.0241 -1.0938
 4041SOL     OW12121   2.057   1.567  10.107 -0.0560  0.2421 -0.2551
 4041SOL    HW112122   2.058   1.482  10.151  0.1189  0.1952 -0.3465
 4041SOL    HW212123   2.088   1.548  10.019  0.1534  0.4295 -0.2223
 4042SOL     OW12124   4.798   3.229   8.779  0.2574  0.2731  0.1986
 4042SOL    HW112125   4.738   3.232   8.704 -0.3711 -2.8536  0.4361
 4042SOL    HW212126   4.740   3.236   8.855  0.4722 -0.2884  0.4139
 4043SOL     OW12127   2.135   3.618   8.583 -0.4041  0.5598 -0.0679
 4043SOL    HW112128   2.156   3.711   8.572  0.6154  0.6810  2.2400
 4043SOL    HW212129   2.220   3.575   8.592 -0.8940 -0.1549  1.5880
 4044SOL     OW12130   3.395   0.434  10.048  0.3269 -0.2186 -0.3892
 4044SOL    HW112131   3.374   0.500   9.981 -0.0049  0.6848  0.5674
 4044SOL    HW212132   3.490   0.429  10.047  0.4446  1.2231  0.3643
 4045SOL     OW12133   3.077   3.700   9.916 -0.8638  0.5187  0.4674
 4045SOL    HW112134   3.107   3.665   9.832 -0.3434  2.1555 -0.0579
 4045SOL    HW212135   3.047   3.788   9.897 -3.4533 -0.0434  1.5129
 4046SOL     OW12136   3.830   4.460   7.271  0.5717  1.1894  0.3857
 4046SOL    HW112137   3.822   4.373   7.231  3.0569  1.8931 -1.9036
 4046SOL    HW212138   3.834   4.442   7.365 -1.2792 -0.9240  0.1611
 4047SOL     OW12139   4.609   4.342   9.298  0.5636 -0.0549 -0.4996
 4047SOL    HW112140   4.649   4.425   9.273  0.3025  0.3822  0.4869
 4047SOL    HW212141   4.563   4.362   9.380  0.3093 -1.1178 -0.3775
 4048SOL     OW12142   3.976   0.354   9.294  1.2160  0.6301 -0.6829
 4048SOL    HW112143   3.947   0.291   9.228  0.9598 -1.0422  0.9494
 4048SOL    HW212144   4.058   0.318   9.327  1.1212  1.2069  0.2054
 4049SOL     OW12145   4.575   3.514   7.598  0.2275 -0.0480 -0.1888
 4049SOL    HW112146   4.610   3.568   7.528  0.2676  0.6389  0.3533
 4049SOL    HW212147   4.550   3.432   7.555  1.0419  0.0378 -0.8539
 4050SOL     OW12148   4.420   0.492   8.678  0.0070 -0.4465  0.1378
 4050SOL    HW112149   4.453   0.581   8.668 -0.1558 -0.5274 -1.4846
 4050SOL    HW212150   4.495   0.441   8.707  0.0125  0.2637  1.4433
 4051SOL     OW12151   0.154   4.731   8.921  0.0367 -0.5325 -0.3194
 4051SOL    HW112152   0.136   4.643   8.890 -1.6015 -0.5599  0.5877
 4051SOL    HW212153   0.166   4.721   9.016  0.8404  0.0972 -0.3407
 4052SOL     OW12154   2.690   3.715   8.215 -0.0782  0.2594 -0.0434
 4052SOL    HW112155   2.738   3.643   8.255  0.3033  0.3206 -0.3796
 4052SOL    HW212156   2.625   3.672   8.159  1.1639  0.1407 -1.4647
 4053SOL     OW12157   3.405   0.897   9.151  0.5549 -0.6137 -0.4981
 4053SOL    HW112158   3.482   0.862   9.107  0.5143 -0.8260 -0.4060
 4053SOL    HW212159   3.397   0.843   9.230  1.8441  1.0682  0.8719
 4054SOL     OW12160   1.391   3.113   7.764  0.2812  0.1571  0.0456
 4054SOL    HW112161   1.446   3.190   7.777 -1.4505  1.3579  0.6420
 4054SOL    HW212162   1.330   3.115   7.838 -1.5065 -0.2801 -1.3605
 4055SOL     OW12163   1.156   0.584   7.190  0.2088 -0.1066  0.0072
 4055SOL    HW112164   1.153   0.571   7.285  0.5954  0.5756  0.1240
 4055SOL    HW212165   1.101   0.515   7.154 -2.1751  1.2434  0.8732
   5.00000   5.00000  15.00000
