Water Slab for Clausius-Clapeyron Phase 1 in water
12165
    1SOL     OW    1   1.618   3.878   4.486  0.5789 -0.6907  0.0528
    1SOL    HW1    2   1.558   3.833   4.544  1.1010 -0.7671  0.5445
    1SOL    HW2    3   1.617   3.826   4.405 -0.3776 -0.4111 -0.1213
    2SOL     OW    4   2.890   3.845   6.095  0.0974  0.6630 -0.3147
    2SOL    HW1    5   2.953   3.777   6.072  1.0567  1.8379 -1.3202
    2SOL    HW2    6   2.914   3.919   6.038 -1.6789  1.4154 -0.1262
    3SOL     OW    7   2.975   1.801   5.990 -0.0007  0.2024  0.1269
    3SOL    HW1    8   2.941   1.713   6.007 -1.5761  0.1684 -2.5285
    3SOL    HW2    9   2.937   1.856   6.058 -1.5803 -0.6921  0.0131
    4SOL     OW   10   2.420   2.156   5.913  0.5995  0.5374  0.4662
    4SOL    HW1   11   2.477   2.084   5.885 -0.3467  0.3522 -1.1368
    4SOL    HW2   12   2.460   2.235   5.876  0.6939  0.6152  0.7329
    5SOL     OW   13   4.479   0.042   8.289 -0.1069 -0.6254  0.5997
    5SOL    HW1   14   4.503   0.090   8.210  0.3469 -2.4386 -0.4442
    5SOL    HW2   15   4.384   0.032   8.283 -0.0247 -1.1578  0.0032
    6SOL     OW   16   2.591   3.398   7.151  0.4989  0.2685 -0.0727
    6SOL    HW1   17   2.544   3.435   7.077 -0.6086  1.8480  1.3288
    6SOL    HW2   18   2.523   3.377   7.215  1.4381 -0.7719  0.6211
    7SOL     OW   19   0.204   1.928   8.046 -0.1141  0.2054 -0.5025
    7SOL    HW1   20   0.132   1.875   8.080 -0.4209 -0.3292 -1.9196
    7SOL    HW2   21   0.221   1.992   8.115 -0.1274 -1.3410  1.0298
    8SOL     OW   22   4.739   4.353   7.787 -0.0879 -0.2653 -0.1435
    8SOL    HW1   23   4.802   4.407   7.834  1.4443 -0.7370 -1.5287
    8SOL    HW2   24   4.666   4.411   7.767  1.1493  1.0829 -0.8759
    9SOL     OW   25   1.264   4.649   5.613  0.3462  1.1684  0.8647
    9SOL    HW1   26   1.341   4.605   5.650 -1.7786 -2.8812  0.9201
    9SOL    HW2   27   1.265   4.626   5.520 -1.6989 -0.6034  1.2106
   10SOL     OW   28   3.649   4.358   5.930  0.0844  0.0399 -0.4375
   10SOL    HW1   29   3.666   4.270   5.897 -3.0384 -0.5664 -0.7778
   10SOL    HW2   30   3.644   4.413   5.852 -2.1506 -0.3822 -0.6557
   11SOL     OW   31   4.345   4.751   5.668  0.0077 -0.5890  0.4525
   11SOL    HW1   32   4.375   4.695   5.596  1.7873  1.6911 -0.6955
   11SOL    HW2   33   4.411   4.739   5.737 -0.1867 -0.6837  0.6242
   12SOL     OW   34   3.432   4.605   5.556 -0.2401  0.5569 -0.1302
   12SOL    HW1   35   3.397   4.647   5.477  1.3241  0.3821 -0.9579
   12SOL    HW2   36   3.413   4.667   5.626 -0.1261  1.5334 -0.9355
   13SOL     OW   37   4.550   0.812   5.968 -0.6455  0.7865  0.3754
   13SOL    HW1   38   4.600   0.892   5.980  0.0095  0.5781 -0.7542
   13SOL    HW2   39   4.459   0.837   5.983 -0.4306  1.7210  0.1421
   14SOL     OW   40   0.882   2.745   6.986 -0.0442  0.0912 -0.3970
   14SOL    HW1   41   0.949   2.682   7.014 -0.1261 -0.5092 -1.4997
   14SOL    HW2   42   0.903   2.825   7.035  3.2854  0.8722 -2.6860
   15SOL     OW   43   1.738   0.515   7.509  0.0993  0.2088  0.1790
   15SOL    HW1   44   1.745   0.570   7.587  0.1732 -0.8594  0.9538
   15SOL    HW2   45   1.647   0.523   7.481 -0.6882 -1.5448  2.0381
   16SOL     OW   46   1.420   3.634   5.600 -0.6651 -0.5680 -0.2247
   16SOL    HW1   47   1.479   3.705   5.578 -1.0115 -0.7894 -2.0005
   16SOL    HW2   48   1.449   3.604   5.686  1.2051 -0.0514 -0.6417
   17SOL     OW   49   1.269   4.357   5.740  0.1543  0.0591  0.4209
   17SOL    HW1   50   1.216   4.430   5.707 -0.9249 -1.5362 -1.5454
   17SOL    HW2   51   1.359   4.390   5.736 -0.3225  1.3972 -0.0651
   18SOL     OW   52   0.430   4.635   6.964  0.2425 -0.6440 -0.1818
   18SOL    HW1   53   0.472   4.706   7.012 -3.3133  3.3037 -2.2896
   18SOL    HW2   54   0.399   4.575   7.032 -0.3313  2.0895  2.1422
   19SOL     OW   55   0.858   3.028   8.195 -0.1465 -0.5874 -0.5940
   19SOL    HW1   56   0.783   2.984   8.155 -2.0431 -0.0103  2.1136
   19SOL    HW2   57   0.875   2.979   8.275  2.3166 -0.5747 -1.0191
   20SOL     OW   58   2.907   1.244   6.993 -0.3163  0.0254  0.0552
   20SOL    HW1   59   2.920   1.163   7.043  1.7668 -0.4314 -1.1338
   20SOL    HW2   60   2.830   1.284   7.034 -0.2317 -1.5646  1.9640
   21SOL     OW   61   4.727   2.436   7.946 -0.5359 -0.4778 -0.3709
   21SOL    HW1   62   4.755   2.474   7.862  0.1062  1.6188  0.7140
   21SOL    HW2   63   4.632   2.429   7.939 -0.8693  2.5331 -0.2697
   22SOL     OW   64   0.936   0.045   5.413  0.8024 -0.4556  0.2169
   22SOL    HW1   65   0.876  -0.029   5.411 -0.0524  0.2209  0.3328
   22SOL    HW2   66   0.894   0.108   5.472  1.8061 -0.1266  0.5989
   23SOL     OW   67   3.888   0.750   7.544  0.2623 -0.0067  0.2705
   23SOL    HW1   68   3.872   0.716   7.456 -1.5509 -0.9815  0.9266
   23SOL    HW2   69   3.869   0.677   7.603  0.0062  1.0334  1.5418
   24SOL     OW   70   2.257   1.950   5.278  0.5962  0.6996  0.0455
   24SOL    HW1   71   2.194   2.022   5.266  0.0832  0.4324  1.0234
   24SOL    HW2   72   2.341   1.994   5.291  0.3481  1.1164  0.2702
   25SOL     OW   73   1.560   1.816   6.355  0.4637 -0.1779  0.1216
   25SOL    HW1   74   1.466   1.803   6.345  0.4418 -0.7634  1.0095
   25SOL    HW2   75   1.577   1.902   6.316 -0.6476  0.5308  1.1460
   26SOL     OW   76   2.220   2.343   5.221 -0.0577 -0.4904 -0.2361
   26SOL    HW1   77   2.150   2.407   5.206  0.4599  0.3424  0.7865
   26SOL    HW2   78   2.265   2.374   5.299 -1.7034 -3.7765  2.2480
   27SOL     OW   79   4.472   1.107   6.625 -0.1471 -0.5487 -0.9393
   27SOL    HW1   80   4.384   1.077   6.602 -0.8731  0.7184  0.0284
   27SOL    HW2   81   4.479   1.193   6.584  1.0839 -1.0703 -1.9021
   28SOL     OW   82   4.334   1.906   5.037 -0.0057  0.2284  0.8582
   28SOL    HW1   83   4.375   1.932   5.120  0.4194 -0.9526  1.0483
   28SOL    HW2   84   4.390   1.943   4.969 -0.4945  1.4194  1.0766
   29SOL     OW   85   2.062   4.908   4.679 -0.3005 -0.3000  0.6401
   29SOL    HW1   86   2.056   4.918   4.584 -0.9753  1.4348  0.8263
   29SOL    HW2   87   2.145   4.950   4.702 -0.8264  0.6195  0.9386
   30SOL     OW   88   1.292   3.604   4.548  0.6090  0.5682 -0.0730
   30SOL    HW1   89   1.351   3.570   4.481  0.5279  0.9849 -0.3668
   30SOL    HW2   90   1.286   3.698   4.528  1.7179  0.9768  1.3896
   31SOL     OW   91   4.200   0.620   7.665 -0.3295  0.0917 -0.3198
   31SOL    HW1   92   4.233   0.573   7.588  1.0551 -0.8610  0.8127
   31SOL    HW2   93   4.193   0.711   7.636  1.8847  0.0652 -1.0834
   32SOL     OW   94   0.942   0.821   5.716 -0.1579 -0.6605 -0.0512
   32SOL    HW1   95   0.851   0.836   5.689 -0.1081 -0.7320 -0.2589
   32SOL    HW2   96   0.942   0.732   5.751 -0.7487  0.2185  2.4272
   33SOL     OW   97   3.940   1.328   4.725 -0.0103  0.1335  0.0396
   33SOL    HW1   98   3.988   1.404   4.758  0.3502 -0.2800  0.4757
   33SOL    HW2   99   4.006   1.279   4.675 -0.7555  1.2413 -2.1653
   34SOL     OW  100   4.367   3.941   9.964  0.4233  0.9255 -0.0889
   34SOL    HW1  101   4.315   3.864   9.989 -1.1482  1.7624 -0.6527
   34SOL    HW2  102   4.451   3.928  10.008  1.3965 -2.6526 -2.6052
   35SOL     OW  103   0.762   3.025   5.163  0.3322 -0.2919  0.6657
   35SOL    HW1  104   0.813   3.050   5.240  2.0424  0.2733 -0.5814
   35SOL    HW2  105   0.743   3.107   5.119 -0.6129 -0.6115  0.4572
   36SOL     OW  106   1.384   2.517   5.075  1.2021 -0.3895  0.1405
   36SOL    HW1  107   1.404   2.453   5.007  1.5029 -0.1800  0.0350
   36SOL    HW2  108   1.380   2.601   5.030  0.5728 -0.3580  0.2394
   37SOL     OW  109   2.979   2.248   5.712 -0.4747  0.4635 -0.2690
   37SOL    HW1  110   3.013   2.328   5.672  1.7479  0.7607  1.9417
   37SOL    HW2  111   2.974   2.185   5.640  0.9547  1.6340 -1.4591
   38SOL     OW  112   0.927   4.406   5.974  0.3269  0.4653  0.0648
   38SOL    HW1  113   0.941   4.350   6.050 -2.7575 -2.4649 -1.2701
   38SOL    HW2  114   0.840   4.443   5.986  0.7404  1.8908 -0.9794
   39SOL     OW  115   0.863   0.920   6.083  0.8058  0.4607  0.2253
   39SOL    HW1  116   0.950   0.881   6.072  0.8131  0.0224  1.5799
   39SOL    HW2  117   0.878   1.015   6.083  1.0330  0.4402 -1.2870
   40SOL     OW  118   1.137   0.674   6.423  0.3296 -0.8256  0.0646
   40SOL    HW1  119   1.225   0.709   6.426 -0.3589  0.9433  0.7860
   40SOL    HW2  120   1.085   0.741   6.378 -0.8234 -1.4175  0.4609
   41SOL     OW  121   1.364   0.850   4.942 -0.0450  0.5787  0.2004
   41SOL    HW1  122   1.432   0.843   5.009  0.3663 -1.8862 -0.3502
   41SOL    HW2  123   1.377   0.773   4.887 -1.0107  1.9778 -2.1334
   42SOL     OW  124   0.308   2.126   5.367  0.3247 -0.1096 -0.2992
   42SOL    HW1  125   0.273   2.101   5.281  0.5739 -1.7279  0.0321
   42SOL    HW2  126   0.299   2.221   5.370 -1.6920 -0.2161 -1.2554
   43SOL     OW  127   1.639   1.331   4.902  0.8229  0.1303  0.0573
   43SOL    HW1  128   1.663   1.335   4.995 -0.2142 -0.5420  0.3717
   43SOL    HW2  129   1.721   1.308   4.857  1.8498  2.5841  0.5337
   44SOL     OW  130   4.041   3.358   6.218  0.1170 -0.1089 -0.1528
   44SOL    HW1  131   4.120   3.391   6.174 -0.0882  0.0012 -0.4368
   44SOL    HW2  132   3.969   3.382   6.161  0.0617 -2.2429 -1.0877
   45SOL     OW  133   2.898   3.042   7.218  0.7317 -0.0127 -0.7051
   45SOL    HW1  134   2.888   3.102   7.292  0.6995  1.4247 -1.8305
   45SOL    HW2  135   2.842   3.078   7.149  1.3941 -0.8421 -1.7194
   46SOL     OW  136   1.282   4.555   6.020  0.0651  0.3239  0.2865
   46SOL    HW1  137   1.211   4.613   5.992  0.1040  0.1691 -0.1502
   46SOL    HW2  138   1.244   4.467   6.019  0.9682 -0.1512 -2.7134
   47SOL     OW  139   3.590   0.109   7.464 -0.1262 -0.3375 -0.1145
   47SOL    HW1  140   3.681   0.111   7.435  0.4217  0.0665  1.5063
   47SOL    HW2  141   3.574   0.196   7.500 -0.8703 -0.6910  0.4320
   48SOL     OW  142   2.173   4.884   5.223 -0.2403 -0.0352  0.2201
   48SOL    HW1  143   2.238   4.821   5.255 -0.8006  0.4151  2.4645
   48SOL    HW2  144   2.098   4.830   5.197 -0.8037 -0.3568  2.3295
   49SOL     OW  145   4.725   1.985   5.290  0.5512 -0.3644  0.0660
   49SOL    HW1  146   4.777   2.045   5.344  0.1777 -1.5529  1.8427
   49SOL    HW2  147   4.789   1.931   5.244  0.8921 -0.2448  0.3948
   50SOL     OW  148   0.942   0.508   7.188 -0.3097  0.4616 -0.4885
   50SOL    HW1  149   0.996   0.549   7.256  0.8760 -1.2495 -0.3422
   50SOL    HW2  150   0.998   0.508   7.111 -0.5449 -0.2564 -0.6607
   51SOL     OW  151   4.701   4.212   6.729 -0.7222 -0.3913 -0.0205
   51SOL    HW1  152   4.682   4.278   6.664  0.5849 -0.7854 -0.8509
   51SOL    HW2  153   4.711   4.131   6.679 -0.3597 -0.8292  0.7391
   52SOL     OW  154   1.966   2.565   7.671  0.6726  0.2066 -0.0808
   52SOL    HW1  155   1.959   2.619   7.750  4.1809  2.0477 -0.8220
   52SOL    HW2  156   1.933   2.620   7.601 -2.4127 -1.4168 -0.0764
   53SOL     OW  157   2.619   3.395   6.409  0.1485  0.8739 -0.3239
   53SOL    HW1  158   2.649   3.384   6.319 -0.1460  0.2620 -0.3516
   53SOL    HW2  159   2.590   3.307   6.436 -0.5801  1.2269  0.0695
   54SOL     OW  160   0.034   4.069   5.208  0.3075 -0.1140  1.1005
   54SOL    HW1  161   0.041   4.095   5.117  0.2682 -0.1901  1.0756
   54SOL    HW2  162   0.045   3.974   5.207 -5.1153 -1.0579  0.4793
   55SOL     OW  163   0.230   4.546   8.060  0.1219  0.1958 -0.2356
   55SOL    HW1  164   0.278   4.602   8.120  0.9991  0.0799 -0.8216
   55SOL    HW2  165   0.282   4.544   7.981 -0.4667 -0.5409 -0.6229
   56SOL     OW  166   1.220   2.239   9.480 -0.4824  0.2078  0.8225
   56SOL    HW1  167   1.277   2.301   9.526 -0.5784 -0.2996  1.6519
   56SOL    HW2  168   1.132   2.274   9.493 -0.4217  0.6643  0.0586
   57SOL     OW  169   4.900   1.217  10.125 -0.1706 -0.3617  0.5439
   57SOL    HW1  170   4.845   1.153  10.079 -1.6535  1.0113  0.3294
   57SOL    HW2  171   4.952   1.258  10.056  0.3540 -0.8909  0.6096
   58SOL     OW  172   2.997   2.280   6.639  0.0925 -0.0342  0.7787
   58SOL    HW1  173   2.904   2.289   6.617  0.7399  0.0737 -2.5223
   58SOL    HW2  174   3.030   2.370   6.639  0.8716 -0.2240 -2.1459
   59SOL     OW  175   1.496   4.492   5.765 -0.6358 -0.0691  0.7104
   59SOL    HW1  176   1.475   4.461   5.853 -1.6130  4.3411  2.2381
   59SOL    HW2  177   1.585   4.461   5.750 -0.9211 -2.0848  2.5972
   60SOL     OW  178   0.162   1.604   6.370 -0.6403  0.7248 -0.3204
   60SOL    HW1  179   0.188   1.689   6.335 -0.7248  0.8844  0.0010
   60SOL    HW2  180   0.167   1.614   6.465 -0.5682  0.3451 -0.2806
   61SOL     OW  181   4.208   4.614   6.889 -0.0894  0.9671 -0.3363
   61SOL    HW1  182   4.116   4.634   6.908  0.0844  0.9638  0.5428
   61SOL    HW2  183   4.257   4.672   6.946  0.4543  0.5723 -0.3990
   62SOL     OW  184   1.131   3.813   6.961 -0.0867 -0.6110 -0.1810
   62SOL    HW1  185   1.049   3.762   6.963 -1.3047  1.2878  0.9762
   62SOL    HW2  186   1.135   3.847   6.871 -0.6786 -0.5765 -0.2007
   63SOL     OW  187   2.636   0.559   5.288  0.7564 -0.1738 -0.0332
   63SOL    HW1  188   2.545   0.556   5.317  0.7075  0.6044 -0.0848
   63SOL    HW2  189   2.685   0.589   5.365  0.9873 -0.7254  0.0359
   64SOL     OW  190   4.659   0.172   6.281 -1.0280 -0.2925 -0.4620
   64SOL    HW1  191   4.585   0.127   6.320 -1.1228  0.0894 -0.1930
   64SOL    HW2  192   4.686   0.117   6.208 -0.1666 -1.6015  0.7821
   65SOL     OW  193   1.648   4.225   4.893  0.6118  0.4845 -0.3341
   65SOL    HW1  194   1.682   4.184   4.813  1.0817 -0.3626  0.2907
   65SOL    HW2  195   1.713   4.291   4.915  0.3967  0.8376 -0.7407
   66SOL     OW  196   2.567   4.402   7.023 -0.2305 -0.5090  0.0596
   66SOL    HW1  197   2.602   4.364   7.103 -1.8729  0.0054  1.0732
   66SOL    HW2  198   2.510   4.335   6.986  0.7630 -0.8634 -0.8784
   67SOL     OW  199   0.542   2.666   6.125  0.2592  0.4456 -0.5497
   67SOL    HW1  200   0.632   2.636   6.142  0.2173  0.7910  0.4052
   67SOL    HW2  201   0.548   2.762   6.132 -0.3601  0.4262  0.5675
   68SOL     OW  202   0.737   0.261   5.468  0.1990  0.4612  0.7527
   68SOL    HW1  203   0.710   0.297   5.384 -0.2657  2.3139  1.6387
   68SOL    HW2  204   0.662   0.208   5.497 -0.5829  1.6659  1.0021
   69SOL     OW  205   2.816   1.851   5.445  0.7461 -0.3253  0.7204
   69SOL    HW1  206   2.839   1.853   5.538  0.8788  3.3861  0.7515
   69SOL    HW2  207   2.780   1.938   5.427  0.0424 -1.1540 -2.5679
   70SOL     OW  208   0.281   2.452   8.186 -0.0754 -0.2592 -0.5173
   70SOL    HW1  209   0.197   2.483   8.151  1.2137  0.3358 -3.3711
   70SOL    HW2  210   0.257   2.391   8.256 -2.9108 -0.8639 -1.8852
   71SOL     OW  211   1.026   2.116   4.956 -0.1109 -0.3666  0.3360
   71SOL    HW1  212   1.054   2.031   4.989  0.7192  0.6344  2.4215
   71SOL    HW2  213   0.931   2.118   4.971  0.0810 -0.3901  1.6716
   72SOL     OW  214   0.018   0.149   5.284  0.5261  0.0381 -0.6623
   72SOL    HW1  215   0.027   0.234   5.327  0.6353  0.4237 -1.4341
   72SOL    HW2  216   0.104   0.108   5.292 -0.3267 -1.5021  2.7116
   73SOL     OW  217   2.324   4.000   7.850  0.3802  0.1190  0.1841
   73SOL    HW1  218   2.324   4.052   7.770  1.4432 -0.0223  0.0776
   73SOL    HW2  219   2.307   4.063   7.921 -1.1987  0.1484 -0.1867
   74SOL     OW  220   3.777   1.573   6.063 -0.4999  1.1161 -0.7060
   74SOL    HW1  221   3.702   1.528   6.103 -0.2716  2.1712  1.0065
   74SOL    HW2  222   3.853   1.540   6.110 -0.1936  2.1795 -0.4207
   75SOL     OW  223   4.578   0.660   7.438  0.0293  0.6169 -0.4155
   75SOL    HW1  224   4.611   0.679   7.350 -0.5307 -0.2715 -0.8371
   75SOL    HW2  225   4.580   0.744   7.483  2.2139  0.7380 -0.6150
   76SOL     OW  226   3.194   4.629   7.237 -0.1251 -0.0703 -0.2175
   76SOL    HW1  227   3.231   4.693   7.297 -0.8914 -0.4226  0.6539
   76SOL    HW2  228   3.163   4.681   7.162  1.2749  0.3200 -0.5756
   77SOL     OW  229   0.864   1.596   5.081  0.2598 -0.1590  0.4358
   77SOL    HW1  230   0.814   1.541   5.021 -0.1979 -0.1838  0.8345
   77SOL    HW2  231   0.811   1.676   5.089 -0.0307 -0.4358  1.3399
   78SOL     OW  232   4.288   2.549   9.893  0.4294  0.2018 -0.1549
   78SOL    HW1  233   4.344   2.501   9.954 -0.5431 -0.3832  0.2940
   78SOL    HW2  234   4.322   2.527   9.806  0.0333 -1.2621  0.0443
   79SOL     OW  235   3.569   4.185   5.637  0.0989  0.3526  0.3379
   79SOL    HW1  236   3.550   4.189   5.544 -1.9734  2.4018  0.7527
   79SOL    HW2  237   3.664   4.175   5.642  0.2029 -0.2721 -1.9661
   80SOL     OW  238   4.677   3.167   5.117 -0.7830 -0.3789  0.8133
   80SOL    HW1  239   4.701   3.256   5.092 -1.3117 -1.0016 -2.3967
   80SOL    HW2  240   4.585   3.160   5.093 -0.6974 -1.8271  0.8471
   81SOL     OW  241   1.379   4.582   5.353 -1.2231  0.2077 -0.1082
   81SOL    HW1  242   1.377   4.498   5.307 -2.9705 -0.0141  0.2832
   81SOL    HW2  243   1.418   4.643   5.290 -0.8269 -0.7001 -0.7577
   82SOL     OW  244   1.961   2.758   6.389 -0.5065 -0.1538 -0.6230
   82SOL    HW1  245   1.870   2.774   6.364 -0.7520  1.1941  0.9542
   82SOL    HW2  246   1.975   2.665   6.369 -1.4565  0.1537 -3.1118
   83SOL     OW  247   0.504   3.806   6.313 -0.2588 -0.8889 -0.1303
   83SOL    HW1  248   0.431   3.861   6.341  0.6974  1.0355 -1.2003
   83SOL    HW2  249   0.482   3.782   6.223 -0.7167 -2.4175  0.3587
   84SOL     OW  250   3.000   1.291  10.016 -0.2898  0.0803  0.6507
   84SOL    HW1  251   2.995   1.336   9.931  0.6887 -0.0085  0.5401
   84SOL    HW2  252   2.988   1.361  10.081 -1.2033  0.1267  0.4537
   85SOL     OW  253   1.953   0.654   6.101 -0.2050  0.1408  0.2341
   85SOL    HW1  254   2.021   0.668   6.166  0.3179  1.6069 -0.5854
   85SOL    HW2  255   1.981   0.576   6.053 -1.3318 -1.8796  2.6026
   86SOL     OW  256   4.089   4.375   5.638 -1.1001 -0.0800 -0.7562
   86SOL    HW1  257   4.101   4.315   5.564 -1.3524  0.4578 -1.2376
   86SOL    HW2  258   4.034   4.445   5.603  0.2636  1.1209 -0.5833
   87SOL     OW  259   2.642   1.400   5.570 -0.1159 -0.6238  0.1069
   87SOL    HW1  260   2.577   1.403   5.500 -0.4453  0.5272  0.4424
   87SOL    HW2  261   2.709   1.463   5.544 -0.9418  0.8892  1.4585
   88SOL     OW  262   2.569   2.735   6.452 -0.3832 -0.1000 -0.5144
   88SOL    HW1  263   2.489   2.756   6.501  1.0062  0.3753  1.7054
   88SOL    HW2  264   2.542   2.666   6.391 -2.3371 -0.4255  0.6279
   89SOL     OW  265   3.274   4.501   6.775  0.2028  0.0490  0.8700
   89SOL    HW1  266   3.239   4.453   6.850 -2.1141  0.8491  0.3871
   89SOL    HW2  267   3.203   4.558   6.748  0.4666 -1.1126 -2.7577
   90SOL     OW  268   4.740   0.081   4.965 -0.4392 -0.4676 -0.0853
   90SOL    HW1  269   4.800   0.020   4.923  0.7656  0.1296  0.7158
   90SOL    HW2  270   4.660   0.076   4.912  1.0403  0.3738 -2.5599
   91SOL     OW  271   0.253   2.814   6.216  0.2487 -0.4346  0.1620
   91SOL    HW1  272   0.251   2.774   6.303 -1.1629  1.8900  1.3008
   91SOL    HW2  273   0.292   2.747   6.160 -1.6085 -3.2270  1.9383
   92SOL     OW  274   0.282   1.171   6.825  0.1212 -0.3141 -0.5470
   92SOL    HW1  275   0.311   1.080   6.814  2.6623  0.4188 -0.5589
   92SOL    HW2  276   0.262   1.201   6.736 -1.2691 -0.9876 -0.4846
   93SOL     OW  277   4.247   0.322   6.850 -0.6698 -0.8262  0.0044
   93SOL    HW1  278   4.231   0.352   6.940 -0.7776  0.1992 -0.3490
   93SOL    HW2  279   4.252   0.402   6.798  0.8436 -1.3231 -0.6816
   94SOL     OW  280   0.306   4.423   5.246  0.2805 -0.3969 -0.3124
   94SOL    HW1  281   0.359   4.345   5.227  0.7542  0.1207 -1.1649
   94SOL    HW2  282   0.215   4.393   5.236  0.3189 -1.5181  2.0232
   95SOL     OW  283   4.881   2.404  10.093  0.4518  0.6158  0.2617
   95SOL    HW1  284   4.896   2.311  10.111 -0.7299  0.1020 -1.2220
   95SOL    HW2  285   4.965   2.445  10.109  1.5193 -1.0147 -0.8372
   96SOL     OW  286   4.420   2.531   7.404 -0.8193 -0.7331  0.0234
   96SOL    HW1  287   4.328   2.533   7.431 -0.0989 -0.8568  2.8271
   96SOL    HW2  288   4.453   2.447   7.437  0.3178 -0.7146 -0.9677
   97SOL     OW  289   4.215   3.365   6.635 -0.3843 -0.5594  0.4602
   97SOL    HW1  290   4.164   3.442   6.608  1.1473  0.3976  0.1847
   97SOL    HW2  291   4.220   3.372   6.730 -0.5913 -0.5539  0.4727
   98SOL     OW  292   3.807   0.070   6.052  0.4622  0.0932  0.9071
   98SOL    HW1  293   3.736   0.076   6.115 -0.1583  1.8612  0.1208
   98SOL    HW2  294   3.836  -0.021   6.056 -2.4533 -0.9567  0.5858
   99SOL     OW  295   2.483   4.374   5.188 -0.1160  0.3230 -0.0411
   99SOL    HW1  296   2.495   4.282   5.210  2.2940  1.2007  3.1357
   99SOL    HW2  297   2.567   4.415   5.210 -1.9922  3.7326  1.6682
  100SOL     OW  298   2.505   0.519   8.132  0.6211 -0.6253  0.5278
  100SOL    HW1  299   2.472   0.539   8.219 -0.0771 -0.5652  0.2551
  100SOL    HW2  300   2.598   0.544   8.135 -0.1086  2.4819  0.2940
  101SOL     OW  301   4.730   0.321   6.886 -0.7982  0.3241  0.5737
  101SOL    HW1  302   4.745   0.413   6.866 -1.1740  0.2474 -0.1009
  101SOL    HW2  303   4.711   0.281   6.801  3.0600 -1.1398  0.1907
  102SOL     OW  304   4.351   4.446   5.714  0.4760 -0.0743 -0.1983
  102SOL    HW1  305   4.399   4.485   5.642  0.3596  2.1869  0.8614
  102SOL    HW2  306   4.262   4.434   5.680  1.2757 -2.8142 -1.6454
  103SOL     OW  307   2.562   4.376   7.821  0.2632 -0.5972  1.0077
  103SOL    HW1  308   2.579   4.346   7.731  1.0837 -0.0729  0.9817
  103SOL    HW2  309   2.589   4.302   7.876  3.4916  0.4440  1.0164
  104SOL     OW  310   4.392   3.884   8.067 -0.5466 -0.4837  0.6250
  104SOL    HW1  311   4.394   3.967   8.020 -0.0102 -0.4023  0.7783
  104SOL    HW2  312   4.347   3.824   8.008 -1.2800  0.0033  0.6673
  105SOL     OW  313   4.610   3.137   5.702 -0.1053 -0.1590  0.1683
  105SOL    HW1  314   4.614   3.099   5.614  1.6992  0.3364  0.0119
  105SOL    HW2  315   4.530   3.100   5.739 -0.3937 -1.1431 -1.3201
  106SOL     OW  316   4.931   0.348   6.349 -0.3309  0.4833 -0.0191
  106SOL    HW1  317   4.902   0.422   6.402  1.2558  1.4245 -0.3738
  106SOL    HW2  318   4.881   0.356   6.268 -1.8098 -0.1870  0.8048
  107SOL     OW  319   1.572   4.856   5.257  0.0190 -0.0315  0.1476
  107SOL    HW1  320   1.630   4.918   5.213  1.1229 -0.4354  1.0053
  107SOL    HW2  321   1.549   4.898   5.339 -1.9022  0.6402 -0.6653
  108SOL     OW  322   4.343   2.294   7.802  0.2298 -0.1840  0.3249
  108SOL    HW1  323   4.260   2.298   7.756  0.9891 -2.8996 -1.5310
  108SOL    HW2  324   4.322   2.315   7.892 -2.4949 -0.9105 -0.0617
  109SOL     OW  325   3.265   0.295   6.788 -0.0914  0.4194 -0.4593
  109SOL    HW1  326   3.313   0.341   6.719  2.9792  1.4176  2.0783
  109SOL    HW2  327   3.277   0.202   6.767  3.6316  0.5785  0.2062
  110SOL     OW  328   4.850   3.109   6.554  0.2049  0.3273  0.2483
  110SOL    HW1  329   4.774   3.139   6.604  1.0987  2.2347  0.5643
  110SOL    HW2  330   4.814   3.080   6.470 -1.1803 -1.7577  1.4595
  111SOL     OW  331   1.581   4.865   6.657  0.1759  0.3888  0.8251
  111SOL    HW1  332   1.516   4.875   6.587 -1.3622  1.7393  2.3707
  111SOL    HW2  333   1.643   4.936   6.642 -0.0904  0.6131  0.7828
  112SOL     OW  334   0.618   3.180   5.888  0.0185 -0.0416 -0.7792
  112SOL    HW1  335   0.523   3.195   5.886 -0.1213 -0.8904 -2.0752
  112SOL    HW2  336   0.634   3.136   5.971 -0.8245 -0.4060 -0.8019
  113SOL     OW  337   5.006   4.606   7.442 -0.2132 -0.6297 -1.1669
  113SOL    HW1  338   5.008   4.702   7.449  2.3009 -0.6784 -0.1715
  113SOL    HW2  339   4.918   4.586   7.409 -2.1371  1.7877  1.8481
  114SOL     OW  340   4.589   0.791   5.664 -0.1263  0.2907 -0.2077
  114SOL    HW1  341   4.506   0.834   5.643 -2.1836 -2.9510  0.5444
  114SOL    HW2  342   4.593   0.791   5.760  0.0839 -0.6101 -0.1986
  115SOL     OW  343   2.670   3.761   6.240  0.2613 -0.4185  0.1056
  115SOL    HW1  344   2.692   3.762   6.333 -0.3446 -1.5811  0.2808
  115SOL    HW2  345   2.755   3.761   6.195  0.5542  0.9240  0.6257
  116SOL     OW  346   0.266   0.225   7.554  0.1398  0.0073  0.5294
  116SOL    HW1  347   0.258   0.316   7.526  1.2817 -0.3778 -1.2266
  116SOL    HW2  348   0.201   0.215   7.623  0.8569  2.4812  1.6713
  117SOL     OW  349   1.187   0.215   5.174  0.0959  0.0957  0.5607
  117SOL    HW1  350   1.197   0.158   5.250 -0.2207  1.6614  1.8390
  117SOL    HW2  351   1.132   0.166   5.114  0.5932 -1.3004  1.2057
  118SOL     OW  352   0.233   0.905   6.102  0.5890  0.1675  0.7166
  118SOL    HW1  353   0.151   0.947   6.129 -0.4049 -2.3100  1.8683
  118SOL    HW2  354   0.230   0.819   6.144  1.7648 -1.6903 -2.6542
  119SOL     OW  355   4.130   0.139   4.940 -0.8159  0.5521  0.2076
  119SOL    HW1  356   4.080   0.192   5.003  0.2408  0.5228  1.0968
  119SOL    HW2  357   4.152   0.060   4.988  1.9361  1.4657  0.6335
  120SOL     OW  358   4.497   0.131   5.376  1.2608  0.9924 -0.4274
  120SOL    HW1  359   4.588   0.140   5.347  0.3816  3.5610 -2.9005
  120SOL    HW2  360   4.457   0.215   5.353 -1.5019  0.3853  1.6629
  121SOL     OW  361   3.051   0.764   5.382 -0.1728  0.5239 -0.0833
  121SOL    HW1  362   3.009   0.842   5.420 -0.5702  0.0682  0.4281
  121SOL    HW2  363   3.135   0.795   5.349  0.7034  0.7217  2.1840
  122SOL     OW  364   0.580   1.875   7.892  0.2592  0.2204  0.4154
  122SOL    HW1  365   0.652   1.882   7.829  0.5725  1.7595  0.9073
  122SOL    HW2  366   0.504   1.911   7.847  0.8154  2.7722  1.3509
  123SOL     OW  367   4.861   4.682   6.490 -0.3229  0.4053 -0.2921
  123SOL    HW1  368   4.945   4.713   6.456 -0.5111  1.3004  0.0567
  123SOL    HW2  369   4.883   4.600   6.535  0.1222 -0.1565 -1.4835
  124SOL     OW  370   1.536   3.981   4.963  0.1757 -0.0142  0.2989
  124SOL    HW1  371   1.593   4.058   4.965 -1.0127  0.8860  1.9219
  124SOL    HW2  372   1.544   3.943   5.051 -1.4428 -0.0244  0.4831
  125SOL     OW  373   2.978   3.565   6.045 -0.3633  0.2228 -0.0155
  125SOL    HW1  374   2.922   3.488   6.044  0.5802 -0.4938 -1.7983
  125SOL    HW2  375   3.057   3.539   5.998  1.7016  1.0745  2.7069
  126SOL     OW  376   4.285   0.451   5.497  0.6718 -0.0346  0.2853
  126SOL    HW1  377   4.306   0.520   5.434  2.3454 -0.3253  0.4978
  126SOL    HW2  378   4.358   0.450   5.558 -0.7666  0.0257  2.0863
  127SOL     OW  379   0.577   3.584   7.124  0.1492  0.3190 -0.6574
  127SOL    HW1  380   0.593   3.603   7.217 -2.3545 -0.2867 -0.0232
  127SOL    HW2  381   0.513   3.650   7.098 -1.6048 -1.4220 -1.0023
  128SOL     OW  382   3.290   1.907   6.524 -0.5238  0.3353  0.9018
  128SOL    HW1  383   3.244   1.906   6.607  1.5532 -2.3047  2.1898
  128SOL    HW2  384   3.262   1.826   6.480  1.1891 -0.2527  0.8000
  129SOL     OW  385   4.065   3.172   5.848  0.3340  0.4904 -0.2525
  129SOL    HW1  386   4.143   3.117   5.853  1.5809  2.1522 -0.5588
  129SOL    HW2  387   4.099   3.261   5.838 -1.5624  1.6512  2.5941
  130SOL     OW  388   2.529   1.422   5.289  0.8784  0.1990 -0.1713
  130SOL    HW1  389   2.531   1.332   5.322  2.3065  0.7167  1.3074
  130SOL    HW2  390   2.564   1.416   5.200  1.7219 -0.6198  0.2008
  131SOL     OW  391   0.081   5.004   8.039  0.2738  0.4639 -0.0745
  131SOL    HW1  392  -0.014   5.015   8.041  0.0862 -1.0906  1.4003
  131SOL    HW2  393   0.098   4.927   8.093  2.2892  0.0303 -1.2053
  132SOL     OW  394   4.489   4.892   6.568 -0.0637  0.2058 -0.1582
  132SOL    HW1  395   4.476   4.940   6.486 -1.3510  1.3790  0.6888
  132SOL    HW2  396   4.570   4.926   6.604 -0.8165  1.6041  0.2895
  133SOL     OW  397   3.042   2.998   5.699  0.1074 -0.1786  0.0707
  133SOL    HW1  398   3.039   2.959   5.786  0.0409 -0.4373 -0.0478
  133SOL    HW2  399   3.043   3.092   5.715 -0.0516 -0.2231  0.3460
  134SOL     OW  400   2.021   1.965   7.872 -0.9758  0.4550 -0.1831
  134SOL    HW1  401   2.075   1.915   7.933 -1.5783 -0.2398 -0.1977
  134SOL    HW2  402   2.051   1.938   7.785  0.8653  2.5046 -0.2699
  135SOL     OW  403   2.473   4.120   5.637  0.3298 -0.0079 -0.4926
  135SOL    HW1  404   2.401   4.183   5.630  0.7904  0.5980  0.1100
  135SOL    HW2  405   2.535   4.160   5.698 -0.3179 -1.9392  1.5902
  136SOL     OW  406   0.948   3.256   4.914  0.1795 -0.0642  0.6077
  136SOL    HW1  407   0.952   3.349   4.937 -1.2766  0.3521 -0.6749
  136SOL    HW2  408   0.986   3.211   4.989 -1.8650  1.3747  2.6384
  137SOL     OW  409   1.477   1.069   5.489  0.0158 -0.2239  0.1922
  137SOL    HW1  410   1.542   1.070   5.559 -0.3475  1.0767  0.5514
  137SOL    HW2  411   1.492   0.987   5.442 -0.1871 -1.4631  2.2106
  138SOL     OW  412   4.258   0.628   5.279  0.0147  0.2175  1.0014
  138SOL    HW1  413   4.311   0.703   5.250 -0.8088 -0.2463 -2.0399
  138SOL    HW2  414   4.168   0.658   5.271 -0.3073 -0.8641  0.3516
  139SOL     OW  415   1.395   1.196   8.370  1.1131 -0.3767 -0.2345
  139SOL    HW1  416   1.433   1.283   8.385  0.8851 -0.3562  0.2532
  139SOL    HW2  417   1.449   1.137   8.421  0.2733 -0.2949  0.7793
  140SOL     OW  418   0.411   2.972   5.764 -0.4981 -0.1561  0.6858
  140SOL    HW1  419   0.341   2.946   5.704  2.3425 -0.3275 -2.9056
  140SOL    HW2  420   0.403   3.067   5.772 -1.1129 -0.1777  0.3615
  141SOL     OW  421   0.520   1.704   7.050 -0.0766 -0.7706  0.0135
  141SOL    HW1  422   0.544   1.702   7.143  0.7805 -2.6054 -0.2038
  141SOL    HW2  423   0.598   1.675   7.004 -0.0975  1.2539 -1.4314
  142SOL     OW  424   3.207   1.316   5.716 -0.0220  0.1171 -0.4901
  142SOL    HW1  425   3.250   1.333   5.800  2.0162 -0.3482 -1.3721
  142SOL    HW2  426   3.190   1.221   5.717  1.2937 -0.1424 -1.1407
  143SOL     OW  427   3.576   0.703   5.435 -0.3819  0.6949 -0.1649
  143SOL    HW1  428   3.669   0.689   5.452 -0.3935  0.5628 -0.2119
  143SOL    HW2  429   3.532   0.661   5.509 -0.3974  0.9143 -0.0487
  144SOL     OW  430   0.018   0.529   6.986  0.3073  0.6649 -0.2000
  144SOL    HW1  431   0.043   0.562   6.899 -0.3344  1.1986 -0.1852
  144SOL    HW2  432  -0.045   0.592   7.018  0.0668  0.1247  0.3981
  145SOL     OW  433   3.324   4.951   6.974  0.0082  0.3658 -0.2540
  145SOL    HW1  434   3.306   5.035   7.016  0.0074 -0.2512  1.0208
  145SOL    HW2  435   3.392   4.911   7.028  0.6223 -0.0997 -1.3363
  146SOL     OW  436   0.727   2.351   6.165 -0.0014 -0.3104  0.2019
  146SOL    HW1  437   0.790   2.405   6.118  0.4859 -1.0340  0.0110
  146SOL    HW2  438   0.779   2.280   6.202 -0.4937 -0.1566  1.2175
  147SOL     OW  439   0.941   1.895   7.400 -0.0428  0.5997 -0.3403
  147SOL    HW1  440   0.989   1.938   7.329  0.7839  1.3450  0.6343
  147SOL    HW2  441   0.870   1.956   7.421  1.7678  2.1799  1.7845
  148SOL     OW  442   3.841   2.686   7.406 -0.7335  0.0581  0.3237
  148SOL    HW1  443   3.823   2.596   7.434 -0.2387  0.4324  1.9173
  148SOL    HW2  444   3.754   2.727   7.400 -0.9071 -0.3043  0.3557
  149SOL     OW  445   1.461   3.554   4.330 -0.2911  0.1733  0.2985
  149SOL    HW1  446   1.500   3.622   4.275 -1.0914 -1.1921 -2.1079
  149SOL    HW2  447   1.535   3.517   4.377  0.6625  0.5820 -0.8136
  150SOL     OW  448   1.407   0.605   4.799 -0.1896  0.1782  0.1405
  150SOL    HW1  449   1.422   0.578   4.709  2.1653  2.0142 -0.1205
  150SOL    HW2  450   1.456   0.542   4.852 -2.2116 -1.3685  0.2636
  151SOL     OW  451   2.552   3.137   5.079 -0.1113 -0.3837 -0.0298
  151SOL    HW1  452   2.498   3.216   5.085 -1.0917 -0.8856 -1.5205
  151SOL    HW2  453   2.490   3.067   5.061  0.8812 -1.2517 -0.1685
  152SOL     OW  454   0.378   1.949   5.616  0.5680 -0.0203 -0.2303
  152SOL    HW1  455   0.355   1.861   5.588 -0.0557 -0.1720  0.7169
  152SOL    HW2  456   0.371   2.002   5.537  1.3454 -0.8752 -0.8981
  153SOL     OW  457   2.779   4.215   5.287 -0.0551  0.0411 -0.5147
  153SOL    HW1  458   2.686   4.197   5.278 -0.1937 -0.1048  0.9510
  153SOL    HW2  459   2.788   4.251   5.375  1.7055 -3.1814  0.8011
  154SOL     OW  460   0.287   4.494   5.560 -0.2062 -0.3940  0.4542
  154SOL    HW1  461   0.381   4.491   5.577 -0.5704 -1.6331  2.6195
  154SOL    HW2  462   0.270   4.418   5.505 -0.1331 -1.0916  1.3681
  155SOL     OW  463   2.759   0.354   4.754 -0.0096  0.2632  0.3290
  155SOL    HW1  464   2.753   0.446   4.780  2.2159  0.5086  0.1854
  155SOL    HW2  465   2.813   0.314   4.822 -1.8371 -1.2341  0.9771
  156SOL     OW  466   2.450   4.863   8.144 -0.0432  0.6089 -0.0270
  156SOL    HW1  467   2.433   4.874   8.050 -2.5776 -1.7405  0.0405
  156SOL    HW2  468   2.372   4.900   8.186 -0.3629 -1.0672  0.9387
  157SOL     OW  469   3.641   1.659   5.678 -0.3745  0.1437  0.5204
  157SOL    HW1  470   3.562   1.657   5.733  0.2563  1.6166  1.5529
  157SOL    HW2  471   3.705   1.708   5.730  0.7954  0.1454 -0.8617
  158SOL     OW  472   3.661   1.371   5.358 -0.0598  0.0228  0.6285
  158SOL    HW1  473   3.582   1.318   5.366  0.7173 -1.1572  0.7926
  158SOL    HW2  474   3.723   1.314   5.312  1.6834 -0.2477  3.1314
  159SOL     OW  475   4.825   2.870   4.854 -0.1826 -0.3242  0.0049
  159SOL    HW1  476   4.909   2.890   4.813 -0.2352  2.7353  1.1421
  159SOL    HW2  477   4.771   2.948   4.837 -1.6189 -0.7680  2.1839
  160SOL     OW  478   3.175   0.058   5.475  0.0854 -0.9175 -0.5677
  160SOL    HW1  479   3.109   0.058   5.544  1.8484 -0.3058  1.2099
  160SOL    HW2  480   3.146   0.126   5.414 -1.3898 -1.3004 -0.3224
  161SOL     OW  481   0.639   4.292   5.232  0.2995  0.0467 -0.0014
  161SOL    HW1  482   0.657   4.386   5.230 -4.6712  1.4414  2.9928
  161SOL    HW2  483   0.586   4.276   5.154 -0.7811  0.3890  0.6313
  162SOL     OW  484   1.661   1.735   6.021  0.3607 -0.1285  0.2780
  162SOL    HW1  485   1.732   1.763   5.963 -0.9737 -0.8493 -1.8168
  162SOL    HW2  486   1.593   1.703   5.962 -0.5370 -2.2458  2.2991
  163SOL     OW  487   4.727   0.174   5.777  0.4367 -0.1093  0.4194
  163SOL    HW1  488   4.748   0.226   5.699 -0.8368  0.6001  0.5142
  163SOL    HW2  489   4.752   0.230   5.850 -1.6455  0.7846  0.5359
  164SOL     OW  490   1.277   1.859   7.835  0.1208 -0.0190 -0.3924
  164SOL    HW1  491   1.186   1.884   7.823 -0.0218  2.0354  3.5471
  164SOL    HW2  492   1.324   1.902   7.763 -1.8168 -0.6416 -2.1385
  165SOL     OW  493   1.640   2.558   5.852 -0.2753  0.2658 -0.8364
  165SOL    HW1  494   1.687   2.574   5.933  0.7435  0.7952 -1.5131
  165SOL    HW2  495   1.657   2.466   5.832 -1.1230 -0.0667 -0.0979
  166SOL     OW  496   1.141   1.314   5.738  0.5516  0.5065  0.6544
  166SOL    HW1  497   1.119   1.223   5.758 -1.8000  0.1965 -2.4982
  166SOL    HW2  498   1.215   1.308   5.677 -0.5144  0.5124 -0.7003
  167SOL     OW  499   1.601   0.515   5.305  0.4454  0.3927 -0.1144
  167SOL    HW1  500   1.664   0.461   5.352  0.5026  0.2146 -0.3949
  167SOL    HW2  501   1.522   0.461   5.300  1.4102 -0.9216 -3.0275
  168SOL     OW  502   2.529   2.061   6.183 -0.3921  0.6179  0.0408
  168SOL    HW1  503   2.491   1.980   6.218 -1.8216  0.5214 -1.6167
  168SOL    HW2  504   2.455   2.108   6.146  0.4845  2.5275  0.5856
  169SOL     OW  505   4.772   4.025   6.564 -0.3226 -0.3221  0.6797
  169SOL    HW1  506   4.816   3.962   6.622  0.9109  1.2090  1.4752
  169SOL    HW2  507   4.751   3.974   6.485  1.0647 -1.6207  1.0976
  170SOL     OW  508   4.237   3.816   6.059 -0.1531  0.6364  0.2492
  170SOL    HW1  509   4.256   3.837   6.150  0.6560  1.9978 -0.1938
  170SOL    HW2  510   4.290   3.878   6.009 -1.9001  1.1184 -1.1252
  171SOL     OW  511   0.128   4.375   7.338  0.1373  0.1106  0.1938
  171SOL    HW1  512   0.125   4.310   7.408  0.8860  0.1359  0.2579
  171SOL    HW2  513   0.105   4.457   7.381  1.2582  0.2491  0.5812
  172SOL     OW  514   0.042   1.951   6.713  0.4511  0.0581  0.0489
  172SOL    HW1  515  -0.047   1.974   6.741  0.5636  1.1488 -0.4491
  172SOL    HW2  516   0.099   1.995   6.776  0.6436 -1.0222  0.6449
  173SOL     OW  517   3.505   2.053   5.639  1.0476 -0.3532  0.4326
  173SOL    HW1  518   3.460   2.034   5.722 -0.0926  0.6659  0.0802
  173SOL    HW2  519   3.466   1.992   5.577  0.4658  0.2071  0.2331
  174SOL     OW  520   0.533   0.513   5.751  0.0949  0.4836  0.3136
  174SOL    HW1  521   0.481   0.547   5.824 -1.0648 -0.5958  0.0290
  174SOL    HW2  522   0.477   0.525   5.674 -0.4524 -2.1135  0.2241
  175SOL     OW  523   1.281   2.049   5.690  0.3086 -0.5962  0.3931
  175SOL    HW1  524   1.239   1.995   5.757 -0.2297 -0.2173  0.3712
  175SOL    HW2  525   1.365   2.007   5.674  0.2199 -0.9862  0.9302
  176SOL     OW  526   4.603   4.341   7.134 -0.1117  0.8625 -0.1487
  176SOL    HW1  527   4.666   4.345   7.062  0.3465  0.2762  0.2154
  176SOL    HW2  528   4.523   4.380   7.098  0.5155  1.8071 -0.5458
  177SOL     OW  529   0.293   3.304   4.906  0.1323 -0.2494 -0.7757
  177SOL    HW1  530   0.243   3.270   4.980 -0.2883  2.0886  0.0856
  177SOL    HW2  531   0.356   3.234   4.886  1.1588 -0.5132  2.6665
  178SOL     OW  532   4.205   3.835   6.328 -0.4409 -0.1921  0.2731
  178SOL    HW1  533   4.280   3.885   6.361 -0.6074  0.6819 -0.6294
  178SOL    HW2  534   4.206   3.754   6.380 -0.3834  0.8799  2.0370
  179SOL     OW  535   4.388   0.046   5.643 -0.6695 -0.8736 -0.3287
  179SOL    HW1  536   4.464   0.041   5.586  0.2276  0.6091  0.6833
  179SOL    HW2  537   4.313   0.041   5.584  0.2265 -0.7852 -1.4954
  180SOL     OW  538   0.111   4.747   6.390 -0.2753 -0.2097  0.2986
  180SOL    HW1  539   0.172   4.674   6.393 -1.0610 -1.0623 -2.1671
  180SOL    HW2  540   0.153   4.816   6.442  3.0352 -0.5808 -1.6105
  181SOL     OW  541   0.910   4.448   5.676 -0.0215  0.2006  0.5770
  181SOL    HW1  542   0.971   4.376   5.661 -0.7951 -0.4444  0.4933
  181SOL    HW2  543   0.908   4.458   5.771  2.1820  1.9633  0.5373
  182SOL     OW  544   1.227   4.566   6.844 -0.0002 -0.5153  0.5651
  182SOL    HW1  545   1.309   4.551   6.797  0.0141 -0.5714  0.6093
  182SOL    HW2  546   1.158   4.545   6.780  0.0197 -0.4588  0.5253
  183SOL     OW  547   1.931   4.719   7.997  0.3898  1.0209 -0.2606
  183SOL    HW1  548   1.862   4.749   8.057  1.5096 -0.2460  1.7681
  183SOL    HW2  549   2.012   4.726   8.048  1.0651 -2.7027 -0.5612
  184SOL     OW  550   3.276   0.942   4.532  0.0524  0.5525  0.1371
  184SOL    HW1  551   3.241   0.910   4.449 -3.0414  2.3011  0.6291
  184SOL    HW2  552   3.302   0.863   4.578 -1.5429 -0.7904 -1.1146
  185SOL     OW  553   3.586   0.588   5.696 -0.6505  0.6318  0.2040
  185SOL    HW1  554   3.648   0.520   5.670 -2.1325 -1.2866  1.3376
  185SOL    HW2  555   3.629   0.634   5.768 -0.9765 -1.5871  1.9377
  186SOL     OW  556   0.870   3.517   5.589  0.7414  0.1263  0.3628
  186SOL    HW1  557   0.890   3.579   5.659  2.2563  1.2351 -0.9740
  186SOL    HW2  558   0.781   3.487   5.608  0.1438  2.3166  1.3607
  187SOL     OW  559   1.851   1.123   7.166 -0.7715 -0.2296 -0.2983
  187SOL    HW1  560   1.785   1.112   7.234  0.4097 -1.3194  0.7430
  187SOL    HW2  561   1.856   1.218   7.152 -1.3763 -0.0164  0.8011
  188SOL     OW  562   1.162   1.772   5.850 -0.4628 -0.1039 -0.6175
  188SOL    HW1  563   1.176   1.684   5.885 -0.7553 -0.3119 -1.0186
  188SOL    HW2  564   1.174   1.763   5.756 -0.9531  0.1884 -0.7108
  189SOL     OW  565   4.305   4.554   6.233 -0.0553  0.1471  0.2974
  189SOL    HW1  566   4.278   4.562   6.142  1.6645 -0.1471 -0.2865
  189SOL    HW2  567   4.377   4.617   6.242  1.5247 -1.6230  0.6815
  190SOL     OW  568   1.359   1.838   6.794 -0.4632  0.0372 -0.2248
  190SOL    HW1  569   1.331   1.926   6.769 -1.5590  0.5493  2.5679
  190SOL    HW2  570   1.386   1.846   6.885 -0.0266 -2.4243 -0.0760
  191SOL     OW  571   0.494   3.043   5.115  0.4595 -0.4972 -0.0667
  191SOL    HW1  572   0.438   3.043   5.192  1.3208  2.5524  0.6858
  191SOL    HW2  573   0.583   3.039   5.149  0.8348  0.2077 -0.9092
  192SOL     OW  574   2.496   2.258   7.269  0.5591  0.0176 -0.3723
  192SOL    HW1  575   2.540   2.310   7.336  0.8515  0.2756 -0.7679
  192SOL    HW2  576   2.558   2.253   7.197 -0.0050  0.2664 -0.8760
  193SOL     OW  577   1.553   0.780   6.994  0.4207  0.3181 -0.2382
  193SOL    HW1  578   1.585   0.732   7.071 -1.1949  1.1070  1.0028
  193SOL    HW2  579   1.627   0.833   6.966  1.2982 -0.6251  0.2636
  194SOL     OW  580   4.189   0.611   6.260  0.0233  0.1577 -0.7249
  194SOL    HW1  581   4.149   0.693   6.232  0.4531 -0.0486 -2.0471
  194SOL    HW2  582   4.242   0.584   6.185  0.3083 -1.0539 -0.1132
  195SOL     OW  583   2.316   2.431   6.644 -0.5411  0.3658 -0.6487
  195SOL    HW1  584   2.226   2.463   6.639 -1.2003 -1.3208 -0.2631
  195SOL    HW2  585   2.337   2.431   6.738 -0.9039 -1.1415 -0.5375
  196SOL     OW  586   1.698   4.063   4.131 -0.8255  0.4265 -0.0069
  196SOL    HW1  587   1.762   4.080   4.062  0.3259 -1.2675  0.5714
  196SOL    HW2  588   1.722   4.122   4.202 -1.3288  1.3920 -0.6251
  197SOL     OW  589   3.577   2.903   5.792 -0.5445 -0.1398  0.4847
  197SOL    HW1  590   3.601   2.815   5.762 -1.2945 -0.9900  2.2544
  197SOL    HW2  591   3.595   2.902   5.886 -2.3896  0.9414  0.8830
  198SOL     OW  592   4.952   3.390   6.610 -0.1956 -0.5794  0.5588
  198SOL    HW1  593   4.954   3.325   6.540  0.1687 -1.0081  0.9510
  198SOL    HW2  594   4.882   3.360   6.668 -1.6094  0.6814 -0.4422
  199SOL     OW  595   3.600   4.672   5.225 -0.4551 -0.2147 -0.4921
  199SOL    HW1  596   3.665   4.724   5.178  0.0261  1.8540  2.2513
  199SOL    HW2  597   3.516   4.702   5.191 -0.0986  0.3099 -0.9214
  200SOL     OW  598   0.824   1.426   9.129 -0.0512  1.0483 -0.6573
  200SOL    HW1  599   0.731   1.411   9.144 -0.1005 -0.3447 -2.0880
  200SOL    HW2  600   0.867   1.391   9.208 -0.7145  1.7407  0.0269
  201SOL     OW  601   1.212   3.609   7.601  0.0806 -0.1413 -0.3673
  201SOL    HW1  602   1.144   3.555   7.640 -0.1547 -0.1281 -0.7568
  201SOL    HW2  603   1.175   3.638   7.518 -0.1210  1.2797  0.1924
  202SOL     OW  604   0.553   0.260   5.855 -0.4496 -0.1085  0.1056
  202SOL    HW1  605   0.479   0.278   5.912 -0.4110  1.1687 -0.2167
  202SOL    HW2  606   0.573   0.344   5.813 -0.0926 -0.8724 -1.3348
  203SOL     OW  607   1.062   0.533   7.705  0.3270  0.2284 -0.2577
  203SOL    HW1  608   1.100   0.581   7.631 -0.9398  1.3642 -0.2132
  203SOL    HW2  609   1.017   0.600   7.756  2.5114 -0.1966  2.4921
  204SOL     OW  610   0.263   0.280   6.844  0.2978  0.1435  0.1328
  204SOL    HW1  611   0.332   0.214   6.835 -0.5781 -0.8157  0.2829
  204SOL    HW2  612   0.197   0.255   6.779 -0.9870 -0.3635  1.5543
  205SOL     OW  613   0.929   4.060   5.943  0.7670  0.2757  1.2766
  205SOL    HW1  614   0.873   4.138   5.946 -1.4848 -1.2592  2.0908
  205SOL    HW2  615   0.952   4.043   6.034 -1.3501 -1.6384  1.5647
  206SOL     OW  616   0.677   2.933   5.748  0.0537  0.4146 -0.0579
  206SOL    HW1  617   0.675   3.022   5.782 -1.7337  0.3532  0.1136
  206SOL    HW2  618   0.586   2.902   5.756  0.6797 -1.5118  0.1209
  207SOL     OW  619   2.997   2.415   5.424 -0.1653  0.2354  0.1286
  207SOL    HW1  620   2.912   2.371   5.415  0.3207 -0.4580 -1.1959
  207SOL    HW2  621   3.058   2.345   5.444 -0.0322  0.8600  2.1191
  208SOL     OW  622   4.184   4.902   5.512  0.3230 -0.3858  0.1136
  208SOL    HW1  623   4.173   4.849   5.432 -1.0785  0.2860 -0.1697
  208SOL    HW2  624   4.240   4.849   5.568  0.8007 -1.1674 -1.0592
  209SOL     OW  625   2.204   2.963   5.861 -0.7892  0.0766  0.1818
  209SOL    HW1  626   2.288   2.959   5.815 -1.0809  0.0601 -0.3669
  209SOL    HW2  627   2.214   2.902   5.934  0.3891  1.6141  1.3727
  210SOL     OW  628   0.757   1.792   6.552 -0.1897  0.1580 -0.6511
  210SOL    HW1  629   0.716   1.746   6.478 -0.5724  0.2793 -0.5195
  210SOL    HW2  630   0.691   1.786   6.622  0.2462 -0.1226 -0.2603
  211SOL     OW  631   0.090   0.850   8.353 -0.0296  0.2119  0.2792
  211SOL    HW1  632   0.128   0.813   8.274  0.5494 -0.2669  0.7686
  211SOL    HW2  633  -0.004   0.847   8.339  0.0547 -0.3730 -0.1673
  212SOL     OW  634   3.144   3.169   5.916  0.6454  0.3458 -0.5219
  212SOL    HW1  635   3.181   3.257   5.927  0.5860  0.3216 -0.1478
  212SOL    HW2  636   3.208   3.124   5.860  0.1956  0.9287 -1.5419
  213SOL     OW  637   4.943   2.478   7.514  0.1645  0.6778 -0.3091
  213SOL    HW1  638   4.907   2.518   7.593 -0.2548 -0.3150  0.0245
  213SOL    HW2  639   4.865   2.449   7.465  0.4681 -0.9967  0.1478
  214SOL     OW  640   1.621   4.070   7.466  0.1530  0.8004 -0.4324
  214SOL    HW1  641   1.573   3.988   7.477  0.6135  0.6839  0.8674
  214SOL    HW2  642   1.702   4.045   7.423 -0.8794  0.9948 -2.6340
  215SOL     OW  643   0.965   4.606   7.093 -0.4293  0.4171 -0.3895
  215SOL    HW1  644   0.888   4.550   7.084  0.7812 -1.6443  1.1103
  215SOL    HW2  645   0.994   4.621   7.003 -2.0157  0.4560 -0.9317
  216SOL     OW  646   1.130   1.658   6.742  1.0106 -0.7441  0.5605
  216SOL    HW1  647   1.215   1.702   6.747  1.5410 -1.7679  0.7997
  216SOL    HW2  648   1.092   1.667   6.829  0.6064  0.2111  0.2969
  217SOL     OW  649   4.202   3.504   8.117  0.1256 -0.3126  0.2534
  217SOL    HW1  650   4.240   3.566   8.054  1.3737  0.1870  1.4513
  217SOL    HW2  651   4.134   3.553   8.162 -0.3281 -0.4750 -0.2436
  218SOL     OW  652   4.139   1.070   7.898 -0.6776 -0.3531 -0.0107
  218SOL    HW1  653   4.071   1.008   7.870  0.3071 -1.8883  0.8775
  218SOL    HW2  654   4.100   1.156   7.883 -1.8652 -1.1428 -1.8717
  219SOL     OW  655   3.778   1.715   9.834  0.0713  0.1287  0.1790
  219SOL    HW1  656   3.829   1.671   9.902  1.0639  1.6882  0.4972
  219SOL    HW2  657   3.724   1.646   9.796  1.0035 -1.1935  1.1578
  220SOL     OW  658   3.617   0.169   5.681 -0.7835  0.1309 -0.4136
  220SOL    HW1  659   3.547   0.227   5.652 -1.7360 -1.4857 -1.5586
  220SOL    HW2  660   3.620   0.181   5.776 -0.9151  2.0220 -0.6129
  221SOL     OW  661   4.529   3.846   8.494 -0.0084 -1.0043 -0.4890
  221SOL    HW1  662   4.557   3.860   8.403 -0.2118 -3.0104 -0.9083
  221SOL    HW2  663   4.450   3.793   8.486 -0.1172 -1.0624  0.8663
  222SOL     OW  664   4.625   2.589   8.607  0.8182 -0.6944 -0.1922
  222SOL    HW1  665   4.663   2.574   8.694 -1.4323 -1.9182  0.6490
  222SOL    HW2  666   4.662   2.673   8.579 -1.3940  1.8843  3.6990
  223SOL     OW  667   0.006   4.073   8.713 -0.4394  0.7266 -0.4357
  223SOL    HW1  668   0.097   4.103   8.716  1.0154 -3.1558  0.9342
  223SOL    HW2  669   0.003   4.013   8.639 -2.1332  1.3082 -0.8740
  224SOL     OW  670   1.519   1.903   8.556  0.1453 -0.5374  0.1106
  224SOL    HW1  671   1.455   1.935   8.493 -0.3627 -0.0578  0.8637
  224SOL    HW2  672   1.581   1.975   8.565  1.4635 -1.3871 -1.4450
  225SOL     OW  673   2.871   0.583  10.124  0.4898  0.3084 -0.0571
  225SOL    HW1  674   2.959   0.575  10.162  0.1550 -0.5737  0.5340
  225SOL    HW2  675   2.836   0.495  10.124 -0.0546  0.5025 -1.1632
  226SOL     OW  676   3.053   3.392   9.872  0.6558  0.4541  0.0254
  226SOL    HW1  677   3.012   3.347   9.798  1.5024  0.9403 -0.7602
  226SOL    HW2  678   3.015   3.351   9.950 -1.6082  1.1313 -0.6437
  227SOL     OW  679   4.337   1.009   6.055 -0.1368  0.2778  0.0934
  227SOL    HW1  680   4.269   1.006   6.122  1.0965 -0.6375  1.3444
  227SOL    HW2  681   4.305   1.075   5.992 -1.5132  0.8657  1.3431
  228SOL     OW  682   1.588   4.321   7.683  0.1774  0.2029 -0.3724
  228SOL    HW1  683   1.498   4.346   7.707 -0.7526 -2.8639 -0.2069
  228SOL    HW2  684   1.577   4.243   7.628  2.7244  0.6139 -1.6018
  229SOL     OW  685   3.300   1.689   5.093  0.0091  0.2830 -0.4380
  229SOL    HW1  686   3.274   1.778   5.117  2.0062  0.7215  0.3433
  229SOL    HW2  687   3.359   1.662   5.164 -2.8335 -2.8790  1.0171
  230SOL     OW  688   1.232   2.521   5.476 -0.0398 -0.2363  0.0950
  230SOL    HW1  689   1.208   2.434   5.507  1.2074  0.0135  1.9439
  230SOL    HW2  690   1.318   2.538   5.515  0.8551  0.8996 -2.1287
  231SOL     OW  691   4.241   0.509   9.550 -0.4564  0.0665  0.0541
  231SOL    HW1  692   4.318   0.546   9.594 -0.6147 -0.5565  0.8819
  231SOL    HW2  693   4.274   0.430   9.506 -0.3514  0.5485 -0.7664
  232SOL     OW  694   4.292   1.485   9.389 -0.4650  0.1456  0.4165
  232SOL    HW1  695   4.267   1.575   9.371  0.6853  0.0824 -1.9818
  232SOL    HW2  696   4.237   1.433   9.330  1.1280 -0.4192 -0.6254
  233SOL     OW  697   0.019   2.298   5.716  0.7199 -0.1463  0.1098
  233SOL    HW1  698   0.042   2.214   5.675  1.8529  1.0548 -1.8375
  233SOL    HW2  699  -0.031   2.273   5.794 -0.7616 -2.6103 -1.4713
  234SOL     OW  700   0.713   2.714   6.426 -0.5953 -0.6630  0.0703
  234SOL    HW1  701   0.806   2.712   6.445 -0.1037  0.6991 -1.8974
  234SOL    HW2  702   0.693   2.807   6.413 -2.3422 -0.8843  0.9486
  235SOL     OW  703   4.920   4.457   9.282 -0.4065  0.3342  0.2000
  235SOL    HW1  704   4.847   4.405   9.317  0.2168 -0.3919  0.4363
  235SOL    HW2  705   4.987   4.393   9.260  0.6517  1.0825  1.1383
  236SOL     OW  706   4.532   4.947   8.578 -0.1079  0.7075 -0.4980
  236SOL    HW1  707   4.605   4.984   8.527  0.0766 -0.1786 -0.9081
  236SOL    HW2  708   4.570   4.926   8.663 -0.0603  0.9101 -0.4705
  237SOL     OW  709   1.573   1.155   6.818  0.1404  0.0565  0.0704
  237SOL    HW1  710   1.528   1.239   6.814  0.1187 -0.0042 -1.6145
  237SOL    HW2  711   1.517   1.100   6.872  0.2578  1.1682  1.3691
  238SOL     OW  712   4.390   3.073   9.081  0.3500 -0.0166  0.3231
  238SOL    HW1  713   4.421   3.021   9.155  1.5185 -1.4044 -1.0457
  238SOL    HW2  714   4.300   3.045   9.068  0.0132  0.5069  1.4202
  239SOL     OW  715   2.817   2.832   5.464 -0.2395  0.1622 -0.0945
  239SOL    HW1  716   2.781   2.893   5.399 -3.3061 -3.3577 -2.0797
  239SOL    HW2  717   2.892   2.792   5.420  0.1671  0.5800  0.1994
  240SOL     OW  718   1.018   1.060   8.141  0.6708 -0.0172  0.1954
  240SOL    HW1  719   0.937   1.012   8.155  2.4009 -2.4036  3.6528
  240SOL    HW2  720   1.069   1.005   8.081  0.0368  1.1959 -1.5230
  241SOL     OW  721   3.061   1.700   7.539  0.0999  0.2283 -0.2877
  241SOL    HW1  722   3.151   1.699   7.572 -0.1004 -0.0872  0.2705
  241SOL    HW2  723   3.007   1.713   7.617 -0.3580  0.0592 -0.5703
  242SOL     OW  724   2.640   0.658   8.892 -0.5404 -0.1693  0.1617
  242SOL    HW1  725   2.656   0.589   8.827 -0.3492  0.3032 -0.2985
  242SOL    HW2  726   2.724   0.668   8.937 -1.1056 -1.6593  1.6432
  243SOL     OW  727   0.010   4.504   8.864  0.2306 -0.3033  0.0167
  243SOL    HW1  728   0.005   4.423   8.915  0.9607 -0.5882 -0.3566
  243SOL    HW2  729   0.094   4.499   8.819 -0.3375 -0.0083 -1.1214
  244SOL     OW  730   4.438   1.094   9.452 -0.2232  0.4641  0.1326
  244SOL    HW1  731   4.435   1.090   9.356 -0.9411  0.8999  0.1299
  244SOL    HW2  732   4.531   1.106   9.472  0.0620 -0.6343 -0.4617
  245SOL     OW  733   2.504   4.232   8.326  0.3752 -0.3805 -0.2190
  245SOL    HW1  734   2.543   4.160   8.276 -0.4357 -0.2407 -1.1048
  245SOL    HW2  735   2.414   4.238   8.292  0.4672  1.1266 -0.2687
  246SOL     OW  736   2.981   3.285   5.700 -0.1751 -0.7179 -1.0488
  246SOL    HW1  737   2.991   3.298   5.794 -0.2070 -0.1486 -1.1225
  246SOL    HW2  738   2.933   3.362   5.669 -1.1878 -1.4542 -1.3524
  247SOL     OW  739   4.154   0.106   7.851  0.4332  0.3081 -0.0053
  247SOL    HW1  740   4.202   0.174   7.898 -0.5807 -0.4288  2.2710
  247SOL    HW2  741   4.063   0.115   7.881 -0.2431 -0.3777 -1.7051
  248SOL     OW  742   1.978   3.255   6.835 -0.0982  0.2907 -0.2714
  248SOL    HW1  743   2.020   3.335   6.866 -1.9814  2.3019 -2.4305
  248SOL    HW2  744   1.891   3.284   6.806 -1.2515 -2.7692 -0.2141
  249SOL     OW  745   3.489   2.530   8.303  0.0362 -0.1236 -0.0250
  249SOL    HW1  746   3.479   2.439   8.277  0.2894  0.0603 -0.7977
  249SOL    HW2  747   3.433   2.579   8.242 -0.9910  0.1462  1.0956
  250SOL     OW  748   1.731   0.759   6.595  0.6967 -0.6212  1.1962
  250SOL    HW1  749   1.699   0.694   6.658  0.4302 -1.4607  0.2320
  250SOL    HW2  750   1.787   0.708   6.535  4.2713  0.8306  3.0184
  251SOL     OW  751   3.487   0.729   5.165 -0.3832  0.5991  0.0889
  251SOL    HW1  752   3.542   0.656   5.136  0.1569  1.2423 -0.5341
  251SOL    HW2  753   3.510   0.741   5.257 -0.3318  0.1105  0.1437
  252SOL     OW  754   1.562   0.966   9.039 -0.3992 -0.2007  0.6866
  252SOL    HW1  755   1.632   0.975   9.104 -0.5851 -0.4190  0.9198
  252SOL    HW2  756   1.535   1.055   9.019  0.4957 -0.0739 -0.0065
  253SOL     OW  757   0.155   1.037   6.436 -0.1017 -0.0553 -0.6525
  253SOL    HW1  758   0.213   1.110   6.455  1.2716 -1.2366 -0.1309
  253SOL    HW2  759   0.125   1.053   6.347  1.0534  0.5800 -0.9495
  254SOL     OW  760   2.207   3.945   8.270 -0.0577 -0.2894  0.1059
  254SOL    HW1  761   2.154   3.968   8.194  0.9767  1.2621 -0.1641
  254SOL    HW2  762   2.219   4.027   8.317  2.2998 -0.5506  0.0444
  255SOL     OW  763   2.088   1.232   5.585  0.2001  1.0931  0.0462
  255SOL    HW1  764   2.063   1.173   5.514  0.4494 -0.3566  1.1122
  255SOL    HW2  765   2.146   1.296   5.544 -0.5944  0.9986 -1.2735
  256SOL     OW  766   3.249   4.878   9.054  0.3714  0.5444  0.2895
  256SOL    HW1  767   3.345   4.882   9.054  0.3973  0.0237  0.4453
  256SOL    HW2  768   3.229   4.788   9.081 -0.1566  0.5728  0.0094
  257SOL     OW  769   3.524   0.153   5.017 -0.2603  0.2001  0.3116
  257SOL    HW1  770   3.596   0.191   4.967 -0.9069  0.2592 -0.5905
  257SOL    HW2  771   3.567   0.099   5.083  0.6548  1.6447  0.9499
  258SOL     OW  772   3.619   1.568   6.398 -0.2640 -0.5680  0.1871
  258SOL    HW1  773   3.642   1.645   6.346  0.5610  0.4835  1.9952
  258SOL    HW2  774   3.524   1.561   6.392 -0.1265 -1.1855 -2.3260
  259SOL     OW  775   2.722   3.382   6.648 -0.3104 -0.0699 -0.1882
  259SOL    HW1  776   2.756   3.471   6.659  0.7514 -0.4973  0.1415
  259SOL    HW2  777   2.675   3.384   6.565  3.7966 -0.3663 -2.7750
  260SOL     OW  778   3.137   0.191   9.263  0.3359 -0.1616  0.5436
  260SOL    HW1  779   3.180   0.108   9.241 -0.4249  0.1230 -2.4908
  260SOL    HW2  780   3.124   0.187   9.358  0.8332 -3.2605  0.5896
  261SOL     OW  781   4.497   1.909   7.323  0.1315 -0.0623 -0.4954
  261SOL    HW1  782   4.529   1.823   7.293  0.1647 -1.1875  2.4341
  261SOL    HW2  783   4.525   1.914   7.414  1.4409  3.7856 -0.9486
  262SOL     OW  784   1.353   3.445   4.815  0.0175  0.6149  0.0672
  262SOL    HW1  785   1.275   3.475   4.862 -2.2675 -2.4955 -1.3504
  262SOL    HW2  786   1.350   3.492   4.732  0.9169  2.0338  0.8019
  263SOL     OW  787   2.840   2.318   7.565 -0.3423 -0.2536  0.3080
  263SOL    HW1  788   2.900   2.244   7.564  1.3119  0.9003 -3.6572
  263SOL    HW2  789   2.895   2.394   7.583 -1.7396  0.3257  2.6331
  264SOL     OW  790   4.157   1.293   9.247 -0.0156  0.1721  0.2708
  264SOL    HW1  791   4.127   1.367   9.194  1.0333  1.7033  1.7163
  264SOL    HW2  792   4.157   1.219   9.187 -2.9817  0.8688 -0.7597
  265SOL     OW  793   0.918   4.932   6.088  0.0209  0.1125  0.3464
  265SOL    HW1  794   0.912   5.019   6.126 -1.2601  1.1685 -2.0400
  265SOL    HW2  795   0.946   4.947   5.997  4.3942 -2.3287  0.9875
  266SOL     OW  796   4.929   3.026   6.969 -0.2213 -1.1101 -0.1108
  266SOL    HW1  797   4.898   3.099   7.023  3.8780  2.4233 -1.8817
  266SOL    HW2  798   4.850   2.982   6.939 -2.8753  1.0963  3.0247
  267SOL     OW  799   3.524   4.440   7.430 -0.4172  0.3489  0.0605
  267SOL    HW1  800   3.557   4.417   7.517  1.5640  3.3528  0.2319
  267SOL    HW2  801   3.457   4.374   7.412  1.2330 -2.2397  2.5173
  268SOL     OW  802   3.949   4.310   6.545  1.0031 -0.2482  0.5889
  268SOL    HW1  803   4.015   4.250   6.511 -2.7370 -3.7361 -1.4208
  268SOL    HW2  804   3.932   4.370   6.473 -0.3028 -1.5714 -0.2553
  269SOL     OW  805   4.224   4.136   5.063  0.0728 -0.1664 -0.1464
  269SOL    HW1  806   4.272   4.172   4.988  0.3963 -1.3537 -0.5253
  269SOL    HW2  807   4.273   4.059   5.089 -1.6254 -1.4584 -0.5668
  270SOL     OW  808   4.371   4.031   8.308 -0.5164  0.7158  0.0679
  270SOL    HW1  809   4.391   3.986   8.390  0.1758  1.8964  0.5821
  270SOL    HW2  810   4.394   3.968   8.240  1.0734  0.5216  0.7427
  271SOL     OW  811   1.942   1.842   8.180  0.0564 -0.1624 -0.1717
  271SOL    HW1  812   1.961   1.855   8.273 -1.5528 -1.3659  0.3706
  271SOL    HW2  813   2.024   1.865   8.136  1.2392 -0.6586  1.6361
  272SOL     OW  814   1.983   0.289   7.905 -0.0794 -0.1570 -0.4900
  272SOL    HW1  815   1.904   0.330   7.940 -0.8934 -2.0068 -0.0455
  272SOL    HW2  816   1.980   0.199   7.936  2.2646 -0.2823 -0.3984
  273SOL     OW  817   2.360   4.918  10.093 -0.7472  0.4417 -0.0954
  273SOL    HW1  818   2.386   4.826  10.101  3.7161  1.5194  0.7989
  273SOL    HW2  819   2.339   4.945  10.182 -0.4909  0.6019 -0.0791
  274SOL     OW  820   2.641   1.161   6.504  0.0094 -0.3202  0.4937
  274SOL    HW1  821   2.575   1.229   6.492 -1.6428 -1.8916  0.1751
  274SOL    HW2  822   2.605   1.103   6.571 -0.0753 -2.4484 -1.2490
  275SOL     OW  823   2.385   0.438   5.334 -0.0058  0.0047  0.4415
  275SOL    HW1  824   2.340   0.361   5.369 -0.4874  0.3383  0.5732
  275SOL    HW2  825   2.381   0.428   5.239 -1.0906  0.4249  0.4229
  276SOL     OW  826   2.877   4.643   7.219 -0.3259 -0.2505  0.3916
  276SOL    HW1  827   2.961   4.681   7.243  0.3896 -1.6896  0.2731
  276SOL    HW2  828   2.881   4.635   7.124 -0.7741  0.0642  0.3447
  277SOL     OW  829   0.410   4.309   7.897 -0.4146 -0.1707  0.0280
  277SOL    HW1  830   0.403   4.403   7.915  1.0827  0.2116 -1.1899
  277SOL    HW2  831   0.495   4.284   7.931 -0.6804 -1.0401  0.0809
  278SOL     OW  832   4.004   4.031   6.073  0.1732 -0.6805  0.5975
  278SOL    HW1  833   4.059   3.974   6.020  0.0942 -0.3721  0.1859
  278SOL    HW2  834   4.037   4.119   6.056  1.1709 -0.6905  2.2440
  279SOL     OW  835   3.821   4.892   4.885 -0.0291  0.3682  0.3928
  279SOL    HW1  836   3.903   4.937   4.863 -0.0006 -0.4910 -1.5224
  279SOL    HW2  837   3.752   4.947   4.846  0.0482 -1.3947 -2.5895
  280SOL     OW  838   0.218   4.036   8.263  0.1040 -0.2900  0.0805
  280SOL    HW1  839   0.195   3.949   8.296 -1.0335 -0.0916 -0.1388
  280SOL    HW2  840   0.184   4.037   8.173  0.6095  0.1819 -0.1098
  281SOL     OW  841   4.024   3.686   7.009  0.2344 -0.3621  0.1122
  281SOL    HW1  842   4.005   3.592   7.015 -2.9080  0.2327  2.2374
  281SOL    HW2  843   4.011   3.719   7.098  0.9394  2.1575 -0.6268
  282SOL     OW  844   4.695   2.479   5.413  0.0141 -0.3232 -0.3150
  282SOL    HW1  845   4.646   2.543   5.465  0.5668 -0.1078 -0.0434
  282SOL    HW2  846   4.762   2.531   5.368 -0.0656 -0.5968 -0.7522
  283SOL     OW  847   1.736   1.937   5.094 -0.1654  0.0404 -0.0974
  283SOL    HW1  848   1.655   1.894   5.120 -0.6739  1.2688  0.4372
  283SOL    HW2  849   1.717   2.030   5.100  0.6743  0.3880 -1.9131
  284SOL     OW  850   2.360   0.588   7.895  0.4608  0.0632 -0.5570
  284SOL    HW1  851   2.271   0.565   7.922  1.6076 -2.4976  1.4555
  284SOL    HW2  852   2.414   0.574   7.972  2.4970  3.0662 -1.2534
  285SOL     OW  853   0.333   1.600   5.891  0.5701  0.5048 -1.0402
  285SOL    HW1  854   0.291   1.576   5.974  3.1424 -0.4558  0.0894
  285SOL    HW2  855   0.269   1.656   5.847 -0.7671  1.3393  1.7281
  286SOL     OW  856   0.693   4.178   9.054  0.3124 -0.3492 -0.0348
  286SOL    HW1  857   0.634   4.158   9.127  0.2170  2.9655  0.9504
  286SOL    HW2  858   0.776   4.138   9.080 -0.1872 -0.7641  1.0108
  287SOL     OW  859   4.711   0.900   7.540 -0.3449  0.3638 -0.0437
  287SOL    HW1  860   4.802   0.884   7.565 -0.4708  0.3912  0.4325
  287SOL    HW2  861   4.664   0.907   7.623 -0.7713  0.4130 -0.2877
  288SOL     OW  862   3.839   0.645   7.241  0.3946 -0.2959 -0.3212
  288SOL    HW1  863   3.752   0.607   7.230  0.0913  0.5942 -1.0784
  288SOL    HW2  864   3.823   0.736   7.265  1.0839 -0.8346  2.6845
  289SOL     OW  865   4.531   4.757   6.825 -0.1355  0.2242  0.1789
  289SOL    HW1  866   4.590   4.792   6.758  0.6133  1.3723  1.4013
  289SOL    HW2  867   4.455   4.815   6.824 -0.0814  0.2983  0.4019
  290SOL     OW  868   1.066   0.151   9.706  0.9581 -0.3549  0.4057
  290SOL    HW1  869   1.049   0.059   9.687  1.1114 -0.0504 -1.3430
  290SOL    HW2  870   1.150   0.169   9.663  1.5792  0.2919  1.8233
  291SOL     OW  871   0.442   2.169   7.262 -0.0040  0.6944  0.0478
  291SOL    HW1  872   0.463   2.125   7.180 -0.6640 -2.0338  1.2361
  291SOL    HW2  873   0.525   2.210   7.289  0.6163  0.2971 -1.1841
  292SOL     OW  874   1.646   0.343   4.258  0.2249 -0.3467  0.0287
  292SOL    HW1  875   1.673   0.273   4.318 -0.4701 -1.3562 -0.7921
  292SOL    HW2  876   1.695   0.325   4.178  1.0290  0.9022  0.2058
  293SOL     OW  877   2.485   0.357   4.778 -0.0648  1.4458  0.6180
  293SOL    HW1  878   2.576   0.367   4.751 -0.3440  0.4760 -0.7854
  293SOL    HW2  879   2.483   0.275   4.827 -0.5079  0.3816 -1.0982
  294SOL     OW  880   4.660   1.403   6.690  0.0550 -0.1988  0.0570
  294SOL    HW1  881   4.578   1.438   6.725 -1.1476 -2.5223 -0.2339
  294SOL    HW2  882   4.635   1.354   6.612  1.9543  0.2367 -0.9113
  295SOL     OW  883   2.401   2.222   8.454 -0.0810 -0.0330  0.4548
  295SOL    HW1  884   2.473   2.160   8.467  1.7570  1.2335 -2.6541
  295SOL    HW2  885   2.400   2.274   8.534  4.7017  1.9203 -0.4078
  296SOL     OW  886   0.032   1.098   8.281 -0.0964 -0.3413 -0.4881
  296SOL    HW1  887   0.112   1.124   8.236  0.0425 -1.6154 -1.0091
  296SOL    HW2  888   0.052   1.011   8.318 -0.5473  0.2185  1.1713
  297SOL     OW  889   1.371   2.336   6.648 -0.2195 -0.5303 -0.2043
  297SOL    HW1  890   1.323   2.263   6.686 -1.7847 -1.0498 -2.9471
  297SOL    HW2  891   1.463   2.314   6.663 -0.6048 -3.3328 -1.2360
  298SOL     OW  892   1.393   1.457   7.316  0.1961  0.0467  0.4661
  298SOL    HW1  893   1.314   1.412   7.285  0.3559  0.0315  0.0724
  298SOL    HW2  894   1.376   1.474   7.409 -0.7644  1.1257  0.1108
  299SOL     OW  895   3.764   0.970   9.938 -0.0805 -0.1528  0.1936
  299SOL    HW1  896   3.811   0.964   9.855 -1.4760 -1.0703 -0.5629
  299SOL    HW2  897   3.832   0.963  10.005  0.7356 -3.2560 -0.8189
  300SOL     OW  898   2.274   2.196   8.224 -0.2702 -0.1023  0.3394
  300SOL    HW1  899   2.333   2.155   8.161 -0.2443  0.7273 -0.1890
  300SOL    HW2  900   2.324   2.199   8.306  0.1022 -0.1696  0.1146
  301SOL     OW  901   1.342   2.269   8.496 -1.3857 -0.4986 -0.6856
  301SOL    HW1  902   1.380   2.249   8.582  2.5762  0.7001 -1.9679
  301SOL    HW2  903   1.328   2.184   8.455 -0.8189 -1.0124  0.1708
  302SOL     OW  904   1.444   0.971   5.918 -0.4075  0.0132 -0.0382
  302SOL    HW1  905   1.351   0.953   5.902 -0.9624  1.6187  1.0682
  302SOL    HW2  906   1.471   0.903   5.979 -0.3426 -1.5166 -1.6883
  303SOL     OW  907   1.302   1.122   5.095  0.4878 -0.0267  0.3159
  303SOL    HW1  908   1.335   1.034   5.076  1.7541  0.1711  1.4397
  303SOL    HW2  909   1.241   1.141   5.024  1.4580 -1.1560 -0.8581
  304SOL     OW  910   0.040   2.413   6.661  0.1926 -0.3879  0.4872
  304SOL    HW1  911   0.044   2.508   6.655 -0.5273 -0.3838  0.0432
  304SOL    HW2  912   0.129   2.387   6.685  0.7157  0.3048 -0.6208
  305SOL     OW  913   2.825   0.471   6.018 -0.0752 -0.5075 -0.5483
  305SOL    HW1  914   2.874   0.413   5.959  0.3999 -0.9720  0.2763
  305SOL    HW2  915   2.769   0.522   5.960  2.1861  0.8815 -1.6908
  306SOL     OW  916   1.984   0.806   8.494 -0.2750  0.1194 -0.6154
  306SOL    HW1  917   1.967   0.778   8.404 -1.2869  0.5715 -0.5855
  306SOL    HW2  918   1.917   0.761   8.546 -2.1930  2.7209 -0.6066
  307SOL     OW  919   0.924   0.492   9.006  0.4272 -0.0708  0.1600
  307SOL    HW1  920   0.939   0.586   8.993  2.7535 -0.1055  2.0492
  307SOL    HW2  921   0.829   0.481   8.997  0.0815  2.4804  0.1265
  308SOL     OW  922   4.255   1.654   6.461  0.1899 -0.3292  0.1277
  308SOL    HW1  923   4.232   1.680   6.372  0.8636  2.2154  0.6265
  308SOL    HW2  924   4.185   1.688   6.516  0.7330 -0.2207  0.7636
  309SOL     OW  925   0.430   2.282   7.706  0.7368 -1.0137  0.9659
  309SOL    HW1  926   0.415   2.192   7.677  0.8490 -1.3181  1.8334
  309SOL    HW2  927   0.390   2.287   7.793 -0.2881  0.1078  0.4634
  310SOL     OW  928   2.217   0.840   5.764 -0.2093  0.4487  0.0581
  310SOL    HW1  929   2.192   0.898   5.836 -0.0316  0.7998 -0.1610
  310SOL    HW2  930   2.177   0.879   5.687 -0.8794 -0.2429  0.0458
  311SOL     OW  931   2.866   2.512   7.071  0.0382 -0.0445  0.0820
  311SOL    HW1  932   2.782   2.484   7.036  0.7688 -1.3638 -0.6971
  311SOL    HW2  933   2.844   2.568   7.146 -1.5138 -0.9048  0.3038
  312SOL     OW  934   3.919   4.287   8.727  0.6449  0.7541 -0.4656
  312SOL    HW1  935   3.948   4.197   8.716  0.5276  0.6499  0.0258
  312SOL    HW2  936   3.877   4.310   8.644  1.2215  0.5656 -0.8095
  313SOL     OW  937   1.920   0.274  10.380  0.6065  0.1330 -0.0769
  313SOL    HW1  938   1.836   0.285  10.424  1.8645  0.6315  2.3940
  313SOL    HW2  939   1.969   0.353  10.401  0.7786  1.2510 -3.9325
  314SOL     OW  940   1.312   3.280   6.978  0.1372 -0.7883 -0.1431
  314SOL    HW1  941   1.300   3.325   7.061  1.2427  1.6796 -1.2125
  314SOL    HW2  942   1.231   3.295   6.930  0.2326 -0.5302 -0.2260
  315SOL     OW  943   1.956   5.020   7.962 -0.3716  0.4817 -0.6136
  315SOL    HW1  944   1.974   4.940   7.913 -2.9017  0.1357 -1.1155
  315SOL    HW2  945   1.953   4.992   8.054 -1.7048 -0.1364 -0.8231
  316SOL     OW  946   4.843   0.772  10.240  0.1233  0.3798 -0.2067
  316SOL    HW1  947   4.927   0.767  10.285 -1.0178  0.6803  2.1037
  316SOL    HW2  948   4.806   0.856  10.267 -1.2605 -0.0978 -0.5390
  317SOL     OW  949   2.053   0.251   6.256 -0.1819 -0.0823  0.6253
  317SOL    HW1  950   2.037   0.259   6.162 -2.2582 -0.3545  0.9101
  317SOL    HW2  951   2.011   0.169   6.280  1.9130 -0.9595  1.5179
  318SOL     OW  952   1.057   2.136   9.772 -0.4659 -0.0569  0.4146
  318SOL    HW1  953   0.996   2.176   9.710 -0.2379  0.8392  0.7460
  318SOL    HW2  954   1.002   2.087   9.833 -0.8355  0.4047  0.4615
  319SOL     OW  955   0.763   0.783   6.501 -0.1501  0.0674  0.2398
  319SOL    HW1  956   0.815   0.827   6.568  0.1730  0.8509 -0.4977
  319SOL    HW2  957   0.674   0.814   6.514 -0.5154 -1.4803  1.6758
  320SOL     OW  958   0.516   0.446   7.605  0.0188 -0.5342  0.5693
  320SOL    HW1  959   0.600   0.467   7.646  0.4052 -0.4188 -0.2690
  320SOL    HW2  960   0.493   0.525   7.556 -0.5267 -0.6089  0.6999
  321SOL     OW  961   0.169   1.720   8.458  0.2716 -0.2486  0.2121
  321SOL    HW1  962   0.137   1.799   8.500  0.4267  0.4400 -0.9312
  321SOL    HW2  963   0.158   1.736   8.364 -0.0326 -1.7228 -0.0316
  322SOL     OW  964   2.316   0.872   7.891  0.3527 -0.7598 -0.7576
  322SOL    HW1  965   2.228   0.886   7.854  0.0841  0.5290  0.3108
  322SOL    HW2  966   2.304   0.799   7.952  0.2186 -1.1530 -1.2464
  323SOL     OW  967   0.225   3.546   5.292  0.5223 -0.2814 -0.2579
  323SOL    HW1  968   0.315   3.576   5.306  0.8017 -0.1963 -2.0046
  323SOL    HW2  969   0.214   3.475   5.355  1.5578  0.1816  0.4830
  324SOL     OW  970   3.180   1.969   8.157  0.0914 -1.4110 -0.3310
  324SOL    HW1  971   3.111   1.920   8.112 -0.2141 -0.9627 -0.3644
  324SOL    HW2  972   3.202   1.916   8.233 -0.1126 -1.6821 -0.4585
  325SOL     OW  973   1.623   2.307   8.158 -0.0850 -0.3889  0.3431
  325SOL    HW1  974   1.605   2.308   8.064 -0.3696  0.2579  0.4007
  325SOL    HW2  975   1.639   2.399   8.181 -0.0628 -0.5343  0.9354
  326SOL     OW  976   1.010   0.219   7.155 -0.2953  0.6520  0.5041
  326SOL    HW1  977   1.034   0.290   7.215 -0.5872  0.8381  0.4101
  326SOL    HW2  978   1.093   0.180   7.128 -0.2063 -0.2664  2.0104
  327SOL     OW  979   0.544   1.098   7.870  0.6782 -0.2619  0.1109
  327SOL    HW1  980   0.639   1.115   7.873  0.7504 -0.4574 -0.9736
  327SOL    HW2  981   0.531   1.030   7.936  1.2870 -0.2410  0.2684
  328SOL     OW  982   1.581   0.759   9.691  0.3620  0.1508  0.2033
  328SOL    HW1  983   1.545   0.743   9.604  1.9398  2.3873 -0.9591
  328SOL    HW2  984   1.664   0.802   9.675  1.1692 -0.2229  2.8518
  329SOL     OW  985   1.170   1.428   6.981  0.1275  0.0164  1.0030
  329SOL    HW1  986   1.096   1.488   6.979 -0.0775 -0.1437  2.7221
  329SOL    HW2  987   1.138   1.352   7.030  1.2338 -0.3176  1.2284
  330SOL     OW  988   0.191   2.814   7.258 -0.2939 -0.1202  0.0926
  330SOL    HW1  989   0.282   2.800   7.232 -0.3697  0.3777 -0.4389
  330SOL    HW2  990   0.192   2.803   7.353  0.5319  0.9807  0.2264
  331SOL     OW  991   1.541   0.952   7.576  0.0318  0.2336 -0.1017
  331SOL    HW1  992   1.552   0.859   7.556 -2.2798 -0.1106  0.0456
  331SOL    HW2  993   1.513   0.954   7.668 -0.2460  1.0495 -0.1930
  332SOL     OW  994   4.434   1.812  10.211  0.2574  0.7832  0.1138
  332SOL    HW1  995   4.523   1.776  10.216 -0.4452 -1.1541 -0.5208
  332SOL    HW2  996   4.431   1.878  10.281  2.6560  2.0446 -0.8531
  333SOL     OW  997   1.180   3.602  10.257 -0.6084 -0.1010 -0.0023
  333SOL    HW1  998   1.234   3.532  10.294  0.0742  1.0796  1.3313
  333SOL    HW2  999   1.204   3.604  10.164  0.7664 -0.3996  0.3295
  334SOL     OW 1000   1.181   4.074   9.184 -1.0363 -0.2932 -0.7760
  334SOL    HW1 1001   1.235   4.099   9.259  0.1780  0.4420 -1.8586
  334SOL    HW2 1002   1.228   4.000   9.144  1.4816  2.6401 -3.9491
  335SOL     OW 1003   1.019   2.726   8.057  0.4651 -0.5052 -0.3491
  335SOL    HW1 1004   1.018   2.746   8.151 -1.5954 -0.8874 -0.2326
  335SOL    HW2 1005   1.001   2.810   8.014  0.4069 -0.5109 -0.3364
  336SOL     OW 1006   4.278   3.276   8.905  1.3226  0.6171  0.5546
  336SOL    HW1 1007   4.203   3.331   8.881  0.2749 -1.8859 -2.5982
  336SOL    HW2 1008   4.353   3.317   8.863  0.8615  0.5582 -0.3383
  337SOL     OW 1009   3.834   3.904   8.384 -0.1908  0.1584  0.2952
  337SOL    HW1 1010   3.804   3.853   8.309  1.0278  0.1605 -0.2279
  337SOL    HW2 1011   3.903   3.850   8.423 -1.0989 -0.0335  1.6853
  338SOL     OW 1012   4.977   2.629   5.323  0.0361  0.2168  0.6040
  338SOL    HW1 1013   5.070   2.652   5.323 -0.2072  1.2672  1.4387
  338SOL    HW2 1014   4.936   2.693   5.265 -0.3765  0.7228  1.4354
  339SOL     OW 1015   0.844   3.862   8.849  0.2942 -0.3671  0.0411
  339SOL    HW1 1016   0.777   3.924   8.823  0.0877  0.1439  1.7309
  339SOL    HW2 1017   0.895   3.907   8.916  2.0052 -0.9449 -0.7899
  340SOL     OW 1018   1.271   3.944   4.912 -0.8624  0.3691  0.1585
  340SOL    HW1 1019   1.251   3.936   5.006 -0.1273 -2.9200  0.1611
  340SOL    HW2 1020   1.358   3.984   4.910 -0.7158  0.1199  0.9140
  341SOL     OW 1021   2.265   1.342   5.126 -0.1236  0.4779 -0.1564
  341SOL    HW1 1022   2.228   1.366   5.212  0.1863 -0.4310  0.2474
  341SOL    HW2 1023   2.240   1.250   5.115  1.2073  0.1097 -0.2974
  342SOL     OW 1024   3.450   3.527   7.137  0.5269 -0.1568 -0.6368
  342SOL    HW1 1025   3.498   3.477   7.203 -0.1208 -0.9262 -0.7186
  342SOL    HW2 1026   3.362   3.536   7.174  0.1539 -0.6019 -1.3736
  343SOL     OW 1027   2.162   2.935   5.476  0.8352 -0.3138  0.0037
  343SOL    HW1 1028   2.223   2.953   5.548  0.5473  0.0616  0.1540
  343SOL    HW2 1029   2.192   2.993   5.405  1.3032 -0.9007 -0.2833
  344SOL     OW 1030   0.846   2.245   8.722  0.2311  0.7771 -0.0085
  344SOL    HW1 1031   0.882   2.264   8.809  1.0952 -0.8150  0.0249
  344SOL    HW2 1032   0.753   2.229   8.737 -0.2297  3.2861  0.1621
  345SOL     OW 1033   0.655   2.000   9.710  0.3124  0.0262 -0.7486
  345SOL    HW1 1034   0.678   2.048   9.789  0.8596  1.2871 -1.6378
  345SOL    HW2 1035   0.731   1.945   9.692 -0.7640 -2.1696  0.9191
  346SOL     OW 1036   2.933   1.482   6.565  0.6796  0.3752  0.5857
  346SOL    HW1 1037   2.895   1.395   6.554  1.2463 -0.0798  1.9578
  346SOL    HW2 1038   2.874   1.527   6.625 -0.3722  1.4743 -1.1813
  347SOL     OW 1039   2.672   0.716   5.082 -0.0122  0.0823  0.7606
  347SOL    HW1 1040   2.666   0.663   5.161  0.0329  1.1670  1.4994
  347SOL    HW2 1041   2.686   0.805   5.113  0.9389  0.4025 -0.4738
  348SOL     OW 1042   3.944   4.951  10.012 -0.4628 -0.0408 -0.4078
  348SOL    HW1 1043   3.994   4.871   9.994 -1.2165 -0.2759 -1.4920
  348SOL    HW2 1044   3.983   4.985  10.093  0.2332 -1.2004 -0.2338
  349SOL     OW 1045   4.346   2.161   8.908  0.0981 -0.4260 -0.3588
  349SOL    HW1 1046   4.417   2.106   8.875 -0.3564 -2.0743  1.2718
  349SOL    HW2 1047   4.273   2.146   8.847  0.9656  1.0056 -1.8357
  350SOL     OW 1048   4.315   3.340   9.627 -0.3231 -0.1794 -0.0947
  350SOL    HW1 1049   4.396   3.304   9.662 -0.5284 -0.8011 -0.2467
  350SOL    HW2 1050   4.275   3.386   9.701 -0.0908 -0.3191  0.1187
  351SOL     OW 1051   3.393   1.320   8.774  0.0925 -1.0517  0.1970
  351SOL    HW1 1052   3.370   1.274   8.855 -1.0602  0.1611  0.6033
  351SOL    HW2 1053   3.310   1.326   8.726  0.3575 -0.0258 -0.1562
  352SOL     OW 1054   2.569   1.061   8.299  0.2960 -0.6200  0.0666
  352SOL    HW1 1055   2.503   0.994   8.315  0.2603 -1.0355 -1.6255
  352SOL    HW2 1056   2.558   1.085   8.207  1.7655  0.1090  0.0381
  353SOL     OW 1057   1.999   2.321   8.801  0.1678  0.7838 -0.2070
  353SOL    HW1 1058   1.980   2.227   8.792  0.5991  0.5508  1.0556
  353SOL    HW2 1059   2.046   2.344   8.721 -1.5019  0.3539 -1.3671
  354SOL     OW 1060   3.384   1.610   4.721  0.3700  0.0216 -0.2573
  354SOL    HW1 1061   3.459   1.565   4.683  0.6239  0.4772 -0.2986
  354SOL    HW2 1062   3.370   1.687   4.665 -0.5522 -0.4182 -0.6530
  355SOL     OW 1063   0.881   0.337   8.187 -0.3450 -0.2627  0.0705
  355SOL    HW1 1064   0.896   0.367   8.277  1.4988 -0.9190  0.0127
  355SOL    HW2 1065   0.918   0.406   8.132  1.5196 -1.3159 -0.0941
  356SOL     OW 1066   1.592   1.978   8.290  0.2916 -0.6761  0.4372
  356SOL    HW1 1067   1.614   2.071   8.289 -0.0285 -0.5820  1.1958
  356SOL    HW2 1068   1.516   1.970   8.233 -2.5721  0.3301  3.7632
  357SOL     OW 1069   4.299   2.383   6.782  0.2896 -0.6359 -0.6291
  357SOL    HW1 1070   4.276   2.380   6.875  0.4023 -0.1241 -0.5828
  357SOL    HW2 1071   4.268   2.469   6.753  0.0224 -0.8982 -1.1264
  358SOL     OW 1072   2.164   0.596   8.746 -0.5250 -0.6451  0.4538
  358SOL    HW1 1073   2.246   0.551   8.727 -0.3134 -0.2213  0.3649
  358SOL    HW2 1074   2.096   0.536   8.713 -0.3469 -1.7300  1.9162
  359SOL     OW 1075   0.592   4.484   9.049 -0.7111  0.5477  0.6461
  359SOL    HW1 1076   0.654   4.412   9.034 -0.3207  0.9224  0.4424
  359SOL    HW2 1077   0.629   4.533   9.123 -2.0522 -0.6424  2.1791
  360SOL     OW 1078   3.366   4.569   5.025 -0.1883 -0.3231  0.2062
  360SOL    HW1 1079   3.399   4.479   5.019 -0.5736 -0.5687  1.4284
  360SOL    HW2 1080   3.274   4.563   5.000  0.3540  0.1736 -2.1114
  361SOL     OW 1081   1.395   0.440   8.570  0.2863 -0.2685 -0.4646
  361SOL    HW1 1082   1.335   0.490   8.625  0.4587 -1.3697  0.7774
  361SOL    HW2 1083   1.347   0.359   8.549  1.0856 -0.8753  0.0115
  362SOL     OW 1084   4.242   2.303   8.517 -0.1096 -0.1781 -0.0776
  362SOL    HW1 1085   4.176   2.372   8.518  0.0213 -0.0536 -0.0686
  362SOL    HW2 1086   4.326   2.349   8.518 -0.0035 -0.3001 -1.5601
  363SOL     OW 1087   1.268   1.224   6.568 -0.0816 -0.0731 -0.6170
  363SOL    HW1 1088   1.193   1.195   6.515 -2.7398  0.2334  2.6124
  363SOL    HW2 1089   1.295   1.306   6.528 -2.1239  0.3040 -1.3661
  364SOL     OW 1090   2.522   1.767   4.763  0.4809 -0.7035 -0.5041
  364SOL    HW1 1091   2.611   1.801   4.750 -0.4885  1.6718 -1.4514
  364SOL    HW2 1092   2.496   1.803   4.848 -0.7050  1.4775 -1.7000
  365SOL     OW 1093   4.083   4.493   9.762 -0.7413 -0.3923 -0.1225
  365SOL    HW1 1094   4.073   4.514   9.669  0.2006 -0.9977 -0.3711
  365SOL    HW2 1095   4.052   4.403   9.770 -0.8933 -0.3165  0.1737
  366SOL     OW 1096   1.104   1.043   7.561 -0.6589  1.0552 -0.4112
  366SOL    HW1 1097   1.051   1.122   7.559 -2.3656 -0.0428 -1.4802
  366SOL    HW2 1098   1.041   0.971   7.549  1.0970 -0.2843 -2.4020
  367SOL     OW 1099   0.436   4.158   8.344  0.3335  0.4557  0.3451
  367SOL    HW1 1100   0.355   4.118   8.314  0.3096  1.3332 -0.8251
  367SOL    HW2 1101   0.463   4.104   8.419 -0.3768 -0.9273 -0.3520
  368SOL     OW 1102   0.581   0.997   5.731 -0.4435 -0.2648 -0.1063
  368SOL    HW1 1103   0.621   0.969   5.649 -0.5360  1.2130 -0.6817
  368SOL    HW2 1104   0.599   1.091   5.736 -0.3055 -0.3506  1.6521
  369SOL     OW 1105   1.406   0.995   6.970  0.4963 -0.3247  0.3371
  369SOL    HW1 1106   1.332   0.974   7.027  0.7699 -0.4784  0.6368
  369SOL    HW2 1107   1.467   0.922   6.981  2.1999  1.3013  2.6287
  370SOL     OW 1108   0.757   3.370  10.527 -0.0341  0.0986  0.4514
  370SOL    HW1 1109   0.783   3.393  10.617 -1.9635  2.0413  0.6223
  370SOL    HW2 1110   0.832   3.394  10.474  0.1513  1.5916  1.3131
  371SOL     OW 1111   4.375   1.642   8.881 -0.2248  0.1806 -0.2626
  371SOL    HW1 1112   4.405   1.557   8.913 -1.8420 -0.7415 -1.0565
  371SOL    HW2 1113   4.301   1.621   8.824 -3.3920  2.3697  2.6955
  372SOL     OW 1114   1.862   3.465   8.066  0.3323 -0.8843  0.0131
  372SOL    HW1 1115   1.840   3.485   7.976  1.4632  0.2954 -0.0215
  372SOL    HW2 1116   1.809   3.526   8.118  0.9607 -0.3792  0.0671
  373SOL     OW 1117   0.803   2.516   7.317 -0.6123 -0.0160 -0.4826
  373SOL    HW1 1118   0.752   2.466   7.253 -1.6598 -0.8885  0.9598
  373SOL    HW2 1119   0.770   2.486   7.402 -0.7903  2.6266  0.4763
  374SOL     OW 1120   1.153   2.409   8.247 -0.1853  0.2072 -0.3704
  374SOL    HW1 1121   1.135   2.316   8.230  3.1151 -0.9606  1.5836
  374SOL    HW2 1122   1.127   2.422   8.338 -1.3727  1.4829 -0.8658
  375SOL     OW 1123   2.638   0.731   6.718 -0.3267  0.3731 -0.1819
  375SOL    HW1 1124   2.683   0.669   6.661 -1.2768 -0.7048  0.2227
  375SOL    HW2 1125   2.601   0.796   6.658 -0.1313  0.0247 -0.6874
  376SOL     OW 1126   0.938   1.973   5.682  0.0571 -0.5683  0.2480
  376SOL    HW1 1127   0.934   2.039   5.751  1.4812  0.6406 -0.7642
  376SOL    HW2 1128   0.940   1.889   5.729  0.5731  0.2093  1.6624
  377SOL     OW 1129   2.125   1.426   7.386 -0.7630  0.3606 -0.5498
  377SOL    HW1 1130   2.044   1.431   7.335 -0.8502  1.0165 -0.3519
  377SOL    HW2 1131   2.153   1.335   7.378 -2.0401 -0.1228  0.1815
  378SOL     OW 1132   4.310   0.072   7.204 -0.2569 -0.3645 -0.3636
  378SOL    HW1 1133   4.281   0.151   7.249 -1.0015 -0.9964  0.3031
  378SOL    HW2 1134   4.397   0.054   7.240  0.1475  0.4348 -0.9127
  379SOL     OW 1135   4.810   3.551   7.419 -0.5740 -0.4442  1.0115
  379SOL    HW1 1136   4.849   3.638   7.410 -2.1499  0.2673  0.7453
  379SOL    HW2 1137   4.882   3.491   7.401  0.5597  0.7905  1.2355
  380SOL     OW 1138   1.097   0.696   7.362 -0.3166  0.1695  0.1336
  380SOL    HW1 1139   1.191   0.709   7.362 -0.1854 -0.7472 -0.3867
  380SOL    HW2 1140   1.061   0.781   7.335  0.4155  0.1995 -0.7804
  381SOL     OW 1141   4.818   2.419   9.811 -0.3795  0.5189 -0.3477
  381SOL    HW1 1142   4.873   2.442   9.886 -0.4007  2.3028 -0.8289
  381SOL    HW2 1143   4.850   2.334   9.783  0.2165  0.2194  1.1328
  382SOL     OW 1144   0.580   2.876   8.616  0.1883  0.0040 -0.7469
  382SOL    HW1 1145   0.521   2.944   8.649  0.2766 -0.2234 -0.0920
  382SOL    HW2 1146   0.524   2.816   8.568 -0.2677 -0.6625  0.5814
  383SOL     OW 1147   2.968   0.632   8.989  0.0389  0.3958 -0.5437
  383SOL    HW1 1148   2.960   0.727   8.974 -0.5714  0.5241  0.4494
  383SOL    HW2 1149   2.961   0.623   9.084  2.2553 -0.4682 -0.4017
  384SOL     OW 1150   4.741   1.125   8.734  0.0716 -0.2867 -0.2717
  384SOL    HW1 1151   4.821   1.156   8.692 -0.3312  0.1210 -0.7708
  384SOL    HW2 1152   4.718   1.046   8.685 -0.8134  0.6060 -1.3775
  385SOL     OW 1153   2.687   2.415   6.148 -0.8396 -0.5564 -0.2603
  385SOL    HW1 1154   2.643   2.389   6.229 -0.9302  0.7565  0.1411
  385SOL    HW2 1155   2.780   2.408   6.168 -0.8527 -1.4856 -0.4817
  386SOL     OW 1156   2.429   0.880   6.242  0.6773  0.6046  0.1269
  386SOL    HW1 1157   2.357   0.940   6.261  1.1148  1.2509 -0.1984
  386SOL    HW2 1158   2.398   0.828   6.168  1.3825  2.4673 -1.5820
  387SOL     OW 1159   4.895   2.911   5.688  0.0629  0.1118 -0.2655
  387SOL    HW1 1160   4.920   2.903   5.596 -2.0513 -1.7336 -0.7649
  387SOL    HW2 1161   4.826   2.977   5.689  0.4338  0.5027  0.0966
  388SOL     OW 1162   0.621   4.241   8.022 -0.2560 -0.0686 -0.0382
  388SOL    HW1 1163   0.642   4.282   8.106 -0.8039 -0.1497  0.1384
  388SOL    HW2 1164   0.696   4.184   8.004 -1.3029 -2.0993  1.6895
  389SOL     OW 1165   2.877   2.522   9.862  0.0427  0.1438 -0.6766
  389SOL    HW1 1166   2.953   2.542   9.917  0.4378 -1.3967 -0.6360
  389SOL    HW2 1167   2.882   2.585   9.790  0.3490  1.2094  0.2446
  390SOL     OW 1168   3.263   0.095   4.955  0.0504  0.7346  0.1411
  390SOL    HW1 1169   3.358   0.100   4.965  0.7323 -0.1211 -4.0346
  390SOL    HW2 1170   3.238   0.184   4.928 -0.0022  0.5274 -0.5152
  391SOL     OW 1171   3.092   2.206   7.515  0.3042  0.5403 -0.3525
  391SOL    HW1 1172   3.080   2.152   7.436  2.1123  0.4169 -0.6088
  391SOL    HW2 1173   3.153   2.155   7.569  0.2315  1.2872  0.4542
  392SOL     OW 1174   1.957   3.792   8.693  0.0170  0.1242  0.3655
  392SOL    HW1 1175   1.932   3.881   8.716 -0.7398  0.5231 -1.7961
  392SOL    HW2 1176   1.878   3.754   8.654  0.2416 -1.6041  1.4951
  393SOL     OW 1177   2.474   1.456   5.001  0.0886  0.5128 -0.2287
  393SOL    HW1 1178   2.393   1.457   5.053  1.0887  1.8908  1.4553
  393SOL    HW2 1179   2.506   1.547   5.006  2.7572 -0.3922  0.9156
  394SOL     OW 1180   3.835   1.535   9.621 -0.1547  0.4963 -0.0232
  394SOL    HW1 1181   3.749   1.544   9.662  1.0117  0.1293  2.7079
  394SOL    HW2 1182   3.873   1.623   9.625 -0.5613  0.7836 -1.7328
  395SOL     OW 1183   0.059   1.002   7.576  0.3174  0.4184  0.3198
  395SOL    HW1 1184   0.075   1.090   7.610 -0.0503  0.3970  0.5612
  395SOL    HW2 1185   0.080   1.007   7.483  0.2258  0.7831  0.3201
  396SOL     OW 1186   0.513   2.157   4.920 -0.2255  0.3395 -0.5237
  396SOL    HW1 1187   0.457   2.079   4.916 -2.1008  1.6596 -1.2393
  396SOL    HW2 1188   0.457   2.229   4.890  0.6118  2.4677  2.5362
  397SOL     OW 1189   1.309   2.873   8.927  0.5930  0.1942  0.0445
  397SOL    HW1 1190   1.328   2.791   8.881 -0.2794 -0.1532  0.2938
  397SOL    HW2 1191   1.356   2.865   9.010 -1.9992 -1.4643  1.4608
  398SOL     OW 1192   2.044   1.266   8.762  0.0375 -0.6592  0.1315
  398SOL    HW1 1193   2.091   1.230   8.837 -1.3403 -0.4228  1.1604
  398SOL    HW2 1194   2.096   1.241   8.686  1.4970 -0.8721  1.1680
  399SOL     OW 1195   2.830   4.667   5.466 -0.1068  0.8525 -0.2775
  399SOL    HW1 1196   2.845   4.761   5.459  0.1253  0.8923  0.5886
  399SOL    HW2 1197   2.918   4.629   5.466 -0.1825  0.6768 -0.1417
  400SOL     OW 1198   1.717   1.590   8.100 -0.3143 -0.2589 -0.2562
  400SOL    HW1 1199   1.754   1.585   8.011 -1.2809 -0.5732 -0.6546
  400SOL    HW2 1200   1.700   1.683   8.113  2.1285  0.1486  0.6018
  401SOL     OW 1201   3.226   0.306   6.206 -0.9528 -0.1250 -0.4047
  401SOL    HW1 1202   3.153   0.276   6.151 -1.6796 -1.2455  1.1023
  401SOL    HW2 1203   3.293   0.238   6.195 -1.0718 -0.3141  0.0203
  402SOL     OW 1204   1.640   4.973   8.936 -0.0028 -0.7193  0.2830
  402SOL    HW1 1205   1.565   4.961   8.994 -0.0061  0.3578  0.5184
  402SOL    HW2 1206   1.654   4.887   8.897 -2.1620 -0.6573 -0.7753
  403SOL     OW 1207   1.520   4.407  10.091 -0.5427  0.3612  0.1964
  403SOL    HW1 1208   1.592   4.397  10.154  0.1434 -0.4223 -0.6888
  403SOL    HW2 1209   1.515   4.501  10.076 -0.1391  0.4810  0.7556
  404SOL     OW 1210   2.781   2.486   5.243  0.7419 -0.0644 -0.2692
  404SOL    HW1 1211   2.873   2.476   5.266  1.4539  1.6633 -2.0691
  404SOL    HW2 1212   2.771   2.438   5.160 -0.3951 -1.5444  0.6765
  405SOL     OW 1213   0.564   0.519   6.713  0.8032 -0.3587  0.7932
  405SOL    HW1 1214   0.656   0.502   6.729  0.9968  0.1020  0.2357
  405SOL    HW2 1215   0.549   0.606   6.750  0.7465 -0.1776  0.3523
  406SOL     OW 1216   4.953   4.432   6.622 -0.0465 -0.4182 -0.8525
  406SOL    HW1 1217   4.987   4.408   6.535 -2.6921 -0.0960 -2.0846
  406SOL    HW2 1218   4.953   4.351   6.672 -0.6628 -1.1273 -1.9667
  407SOL     OW 1219   0.312   2.097   6.808  0.2299 -0.7801  0.0483
  407SOL    HW1 1220   0.334   2.190   6.798 -1.3252 -0.4614 -0.7603
  407SOL    HW2 1221   0.385   2.051   6.768  0.7872  0.1198 -0.0061
  408SOL     OW 1222   1.699   0.397   8.140 -0.4138  0.2852  0.2429
  408SOL    HW1 1223   1.621   0.381   8.192 -1.7602 -2.0064 -2.2165
  408SOL    HW2 1224   1.752   0.318   8.152 -0.5846 -0.1261 -1.4590
  409SOL     OW 1225   1.029   2.526   9.485 -0.2270  0.1079  0.0754
  409SOL    HW1 1226   0.973   2.565   9.418  0.9391  0.5029 -0.7060
  409SOL    HW2 1227   1.103   2.587   9.492  0.2646 -0.5678  0.8327
  410SOL     OW 1228   4.356   2.976   9.770 -0.0442  0.6043 -0.4303
  410SOL    HW1 1229   4.392   3.019   9.692  0.4179  3.8415  1.4097
  410SOL    HW2 1230   4.423   2.912   9.794  1.4128  1.8964 -0.8401
  411SOL     OW 1231   2.651   4.610   8.688 -0.1519  0.2134 -0.1724
  411SOL    HW1 1232   2.573   4.557   8.703 -0.4031  0.6441  0.0422
  411SOL    HW2 1233   2.619   4.692   8.652  0.1941  0.4019 -0.0597
  412SOL     OW 1234   2.185   4.766   8.952  0.3802 -0.4380  0.0648
  412SOL    HW1 1235   2.262   4.712   8.972 -0.4321 -2.2299 -1.3722
  412SOL    HW2 1236   2.180   4.765   8.857  0.0951  1.9132  0.0069
  413SOL     OW 1237   0.773   3.439   6.996 -0.1908  0.0575  0.3608
  413SOL    HW1 1238   0.708   3.483   7.050 -1.4252  0.7364 -1.5633
  413SOL    HW2 1239   0.755   3.345   7.008  0.3968  0.1248  2.0373
  414SOL     OW 1240   3.483   3.707   6.675 -0.0273 -0.3721 -0.6468
  414SOL    HW1 1241   3.503   3.800   6.681  1.1011 -0.7032  2.6499
  414SOL    HW2 1242   3.388   3.702   6.686  0.0744  0.3401  0.7781
  415SOL     OW 1243   4.728   1.671   5.479 -0.1000 -0.8948 -0.6590
  415SOL    HW1 1244   4.743   1.764   5.467  2.3969 -1.0908  0.3994
  415SOL    HW2 1245   4.723   1.635   5.391 -0.5885  0.1307 -1.0698
  416SOL     OW 1246   2.926   1.424   4.979  0.4696  0.2388  0.5901
  416SOL    HW1 1247   3.021   1.421   4.976  0.4914 -1.4298  1.4038
  416SOL    HW2 1248   2.898   1.390   4.894  0.6110  0.2684  0.5323
  417SOL     OW 1249   0.350   4.595   6.467  0.0684  0.8269 -0.2118
  417SOL    HW1 1250   0.445   4.598   6.471  0.4094 -3.4522  0.2905
  417SOL    HW2 1251   0.321   4.604   6.558  0.3844 -1.4791  0.1784
  418SOL     OW 1252   2.745   2.642   7.869 -0.1630 -0.4181  0.0987
  418SOL    HW1 1253   2.677   2.655   7.803  2.5417 -1.6681 -3.2231
  418SOL    HW2 1254   2.707   2.579   7.931 -3.3117  1.8761  0.7113
  419SOL     OW 1255   0.495   0.876   6.541  0.0514 -0.2581 -0.6464
  419SOL    HW1 1256   0.424   0.906   6.598 -0.2324 -1.3967 -0.3793
  419SOL    HW2 1257   0.520   0.954   6.491 -1.2838  0.1988 -0.6468
  420SOL     OW 1258   2.624   1.499   6.477  0.3106  0.1210 -0.5065
  420SOL    HW1 1259   2.664   1.546   6.404  1.2759 -1.2637 -0.9227
  420SOL    HW2 1260   2.651   1.546   6.555  1.4351  0.1452 -0.8936
  421SOL     OW 1261   2.781   3.736   5.110  0.6300 -0.0038 -0.1060
  421SOL    HW1 1262   2.873   3.758   5.124  0.7907 -1.4580  1.2520
  421SOL    HW2 1263   2.782   3.671   5.039  0.3735  1.9457 -2.0294
  422SOL     OW 1264   2.282   0.661   7.378 -0.2930 -0.3786 -0.0934
  422SOL    HW1 1265   2.316   0.696   7.460  1.9765  1.0908 -1.5537
  422SOL    HW2 1266   2.287   0.566   7.388  2.2047 -0.2401  0.6684
  423SOL     OW 1267   2.513   1.668   7.034  0.1007 -0.4353 -0.1691
  423SOL    HW1 1268   2.588   1.721   7.007  1.0014 -1.3075  0.5413
  423SOL    HW2 1269   2.525   1.655   7.128 -0.9683 -0.5759 -0.0301
  424SOL     OW 1270   1.111   0.580   6.068 -0.1492  0.2669  0.3234
  424SOL    HW1 1271   1.129   0.673   6.081 -1.5371  0.9267 -1.9551
  424SOL    HW2 1272   1.194   0.536   6.090  0.3054  1.9202  2.1606
  425SOL     OW 1273   3.216   1.871   7.159  0.1355 -0.3487 -0.0302
  425SOL    HW1 1274   3.250   1.839   7.075  0.2946  0.7528 -0.4023
  425SOL    HW2 1275   3.293   1.896   7.209 -0.0159  0.3614 -0.1352
  426SOL     OW 1276   4.659   2.263   8.706  0.0440 -0.1585  0.1956
  426SOL    HW1 1277   4.720   2.335   8.720 -0.0228  0.5960 -2.7179
  426SOL    HW2 1278   4.572   2.302   8.716  0.0130  0.1131 -1.0097
  427SOL     OW 1279   2.030   4.686   8.369  0.2077  0.8069  0.1695
  427SOL    HW1 1280   2.077   4.715   8.447  1.6594 -0.4138 -0.2014
  427SOL    HW2 1281   2.098   4.654   8.311 -1.1233 -1.8198 -0.0733
  428SOL     OW 1282   1.150   0.917   9.433  0.1406 -1.1397  0.1682
  428SOL    HW1 1283   1.208   0.962   9.372 -1.5074  0.0376 -0.6265
  428SOL    HW2 1284   1.184   0.937   9.520  2.3868 -2.6323 -0.2749
  429SOL     OW 1285   4.758   0.138   8.873  0.2276  0.2379  0.3129
  429SOL    HW1 1286   4.850   0.157   8.888 -0.4896  1.9196  3.4639
  429SOL    HW2 1287   4.717   0.224   8.864 -1.2133 -0.4153  0.3916
  430SOL     OW 1288   4.470   1.645   9.992 -0.2343  0.0981  0.2173
  430SOL    HW1 1289   4.500   1.582  10.058  1.8276  2.3977  1.6306
  430SOL    HW2 1290   4.424   1.712  10.043 -1.6744  0.1976 -1.1524
  431SOL     OW 1291   3.842   0.765   9.280  0.4201  0.1002  0.0494
  431SOL    HW1 1292   3.762   0.713   9.289 -0.1640  1.0755  0.7192
  431SOL    HW2 1293   3.904   0.725   9.341 -0.2983  0.6902  1.1880
  432SOL     OW 1294   1.031   0.861   9.967  0.4931  0.0222 -0.3734
  432SOL    HW1 1295   1.070   0.920   9.903  0.0849 -0.0703 -0.7068
  432SOL    HW2 1296   0.952   0.827   9.925  0.0128  0.2492  0.3148
  433SOL     OW 1297   3.187   2.219   9.514 -0.0244  0.3947 -0.2994
  433SOL    HW1 1298   3.269   2.220   9.465 -0.7820  0.0279 -1.6134
  433SOL    HW2 1299   3.201   2.283   9.584  0.8556  1.4563 -1.3851
  434SOL     OW 1300   1.524   4.973   9.383  0.1409 -0.1771  0.2368
  434SOL    HW1 1301   1.510   4.885   9.417  1.3933 -0.0453  1.1566
  434SOL    HW2 1302   1.618   4.976   9.361 -0.2404  0.3405 -1.5311
  435SOL     OW 1303   3.557   1.085   8.783 -0.1418  0.0277  0.7476
  435SOL    HW1 1304   3.493   1.146   8.819 -0.3553  0.0219  0.3824
  435SOL    HW2 1305   3.619   1.071   8.854 -0.5989 -0.0406  1.1381
  436SOL     OW 1306   3.029   4.979   8.921 -0.1651  0.8439  0.3768
  436SOL    HW1 1307   2.969   4.993   8.994 -0.3530 -2.6938  1.0746
  436SOL    HW2 1308   3.111   4.952   8.962  0.2882  0.5380 -0.6954
  437SOL     OW 1309   4.111   4.585   6.393  0.1913  0.1846 -0.5970
  437SOL    HW1 1310   4.163   4.597   6.473  0.2856 -0.7003 -0.5113
  437SOL    HW2 1311   4.176   4.583   6.323  0.4071 -1.9557 -0.3869
  438SOL     OW 1312   0.767   2.069  10.135  0.0655 -0.0874  0.1882
  438SOL    HW1 1313   0.831   2.030  10.076  0.9354 -0.1151  1.1206
  438SOL    HW2 1314   0.776   2.019  10.216  0.4490  1.3649  1.0677
  439SOL     OW 1315   3.803   4.164   8.420  0.1841  0.1288 -0.0909
  439SOL    HW1 1316   3.759   4.098   8.473  2.1235 -0.7865  0.4666
  439SOL    HW2 1317   3.819   4.122   8.336  2.6868 -0.7104  0.7243
  440SOL     OW 1318   3.142   1.403   8.513  0.1900 -0.8472  0.3314
  440SOL    HW1 1319   3.075   1.338   8.494 -0.4134 -0.5418  1.3220
  440SOL    HW2 1320   3.222   1.352   8.530 -0.5095 -1.4459  2.1247
  441SOL     OW 1321   4.151   3.762   8.665 -0.2109 -1.2733 -0.5008
  441SOL    HW1 1322   4.216   3.705   8.708  0.2062  0.8336  1.8824
  441SOL    HW2 1323   4.071   3.749   8.716  0.1017  0.7760  0.5876
  442SOL     OW 1324   0.803   4.137   9.449  0.6177  0.0763  0.0791
  442SOL    HW1 1325   0.716   4.121   9.414  0.1979 -2.0254  1.8543
  442SOL    HW2 1326   0.849   4.053   9.440  2.5380  1.1556 -0.9089
  443SOL     OW 1327   3.714   1.362   9.079 -0.1599 -0.2665 -0.1911
  443SOL    HW1 1328   3.803   1.345   9.047 -0.5008 -1.7792 -0.3776
  443SOL    HW2 1329   3.702   1.300   9.151 -1.4061 -0.7333 -0.7814
  444SOL     OW 1330   2.729   2.351   8.368  1.1832  0.1899  0.5509
  444SOL    HW1 1331   2.798   2.316   8.312 -0.2207 -0.6283 -0.7311
  444SOL    HW2 1332   2.669   2.278   8.381  0.1340  1.0947  0.9713
  445SOL     OW 1333   0.860   0.528   9.347  0.6360 -0.8641  0.1674
  445SOL    HW1 1334   0.877   0.616   9.381 -0.1362 -0.1435 -1.2172
  445SOL    HW2 1335   0.779   0.538   9.295 -0.8430 -2.9007  1.9093
  446SOL     OW 1336   1.856   4.539   8.221 -0.9562 -0.6223 -0.4208
  446SOL    HW1 1337   1.827   4.625   8.191  0.9282 -0.0356 -0.7093
  446SOL    HW2 1338   1.883   4.552   8.312  3.2552  0.2600 -1.5539
  447SOL     OW 1339   4.506   1.216   9.759  0.0690 -0.3108  0.2473
  447SOL    HW1 1340   4.442   1.285   9.780 -0.7361 -1.3011  1.1534
  447SOL    HW2 1341   4.497   1.203   9.665 -1.1424 -0.4908  0.3722
  448SOL     OW 1342   2.485   0.047   8.689  0.0030 -0.4870 -0.6521
  448SOL    HW1 1343   2.549   0.108   8.725 -2.5239  1.4366  1.0042
  448SOL    HW2 1344   2.516  -0.039   8.716  0.3752  0.5878  2.8558
  449SOL     OW 1345   4.990   4.013   9.890 -0.5865  0.3096 -0.5845
  449SOL    HW1 1346   4.950   4.087   9.935  1.0979  1.0305 -0.1883
  449SOL    HW2 1347   5.007   3.949   9.960 -0.5285  0.2518 -0.6509
  450SOL     OW 1348   1.220   0.058   8.950 -0.1326  0.5243  0.0427
  450SOL    HW1 1349   1.280   0.026   9.018 -0.3817 -0.8993 -0.3874
  450SOL    HW2 1350   1.247   0.011   8.871 -0.3896  1.5457 -0.6649
  451SOL     OW 1351   1.288   0.195   9.447  0.3246 -0.2653  0.8487
  451SOL    HW1 1352   1.361   0.167   9.392 -0.3732 -2.0263  0.7723
  451SOL    HW2 1353   1.213   0.145   9.415 -1.2169  2.2236  0.2349
  452SOL     OW 1354   4.802   4.671   8.603  0.7309  0.5270  0.1593
  452SOL    HW1 1355   4.795   4.754   8.557  0.5669 -0.2352 -1.2336
  452SOL    HW2 1356   4.842   4.694   8.688 -1.5503  2.3540  0.8324
  453SOL     OW 1357   3.975   0.669  10.298 -0.4994 -0.8520  0.1662
  453SOL    HW1 1358   3.907   0.610  10.267  0.6947 -1.3029 -1.7158
  453SOL    HW2 1359   4.036   0.613  10.346 -0.0729 -0.9216 -0.4517
  454SOL     OW 1360   4.027   1.722   9.425 -0.2748 -0.2339 -0.2138
  454SOL    HW1 1361   3.979   1.805   9.430  0.6245  0.2338  1.3133
  454SOL    HW2 1362   4.072   1.716   9.509  1.7131 -1.0267 -1.2885
  455SOL     OW 1363   0.444   4.967   9.075  0.8209  0.2497  0.1293
  455SOL    HW1 1364   0.415   4.882   9.041  0.9854 -0.5818  1.9509
  455SOL    HW2 1365   0.522   4.946   9.127  0.3036  1.3597  1.4033
  456SOL     OW 1366   4.053   1.388   8.109 -0.5916  0.0209 -0.7129
  456SOL    HW1 1367   4.029   1.477   8.084 -0.5790  0.2822  0.1929
  456SOL    HW2 1368   4.148   1.385   8.099 -0.4330  0.5208  0.5221
  457SOL     OW 1369   4.427   1.418   9.017  0.1197  0.0831  0.0773
  457SOL    HW1 1370   4.410   1.326   8.999 -1.0492  0.4299 -0.7377
  457SOL    HW2 1371   4.343   1.452   9.050  0.9911  0.4875  2.0213
  458SOL     OW 1372   4.230   1.567   8.648 -0.5606  0.0041  0.1495
  458SOL    HW1 1373   4.220   1.527   8.562  0.0343 -0.1631  0.1520
  458SOL    HW2 1374   4.205   1.659   8.636  1.1038  0.3983 -0.6077
  459SOL     OW 1375   3.056   1.723   9.884 -0.6810 -0.0732 -0.1040
  459SOL    HW1 1376   3.063   1.630   9.907 -0.7601 -0.7166 -2.4287
  459SOL    HW2 1377   3.074   1.726   9.791 -0.1315  2.3622  0.0206
  460SOL     OW 1378   1.846   2.151   9.459 -0.4008 -0.4922 -0.1359
  460SOL    HW1 1379   1.851   2.160   9.364  1.4739 -1.0311 -0.1244
  460SOL    HW2 1380   1.784   2.079   9.473  0.4427 -1.4273 -1.0291
  461SOL     OW 1381   1.319   3.411   9.333  0.1864  0.0790 -0.4610
  461SOL    HW1 1382   1.292   3.377   9.419 -1.5264 -1.4843 -1.5415
  461SOL    HW2 1383   1.315   3.506   9.343  1.1232 -0.0303  1.4908
  462SOL     OW 1384   3.741   1.788   5.907 -0.3898  0.2321 -0.3331
  462SOL    HW1 1385   3.759   1.709   5.958 -0.9252 -0.3976 -1.1052
  462SOL    HW2 1386   3.763   1.860   5.967  1.9001 -0.4645 -0.2509
  463SOL     OW 1387   2.714   0.940   9.279 -0.3483  0.1005 -0.0993
  463SOL    HW1 1388   2.807   0.960   9.290 -0.9403  2.6039  0.9766
  463SOL    HW2 1389   2.712   0.846   9.260  2.2385 -0.4899  1.9649
  464SOL     OW 1390   0.012   0.376   9.340 -0.2967 -0.2646  0.0889
  464SOL    HW1 1391   0.088   0.422   9.304  0.8958 -0.9224  1.6636
  464SOL    HW2 1392   0.034   0.362   9.432 -2.4811 -0.1993  0.6653
  465SOL     OW 1393   4.185   4.716   9.307 -0.5405 -0.0324  0.3643
  465SOL    HW1 1394   4.233   4.647   9.261  0.6724  1.6694 -1.0705
  465SOL    HW2 1395   4.111   4.735   9.249  0.3187  1.2826 -0.3566
  466SOL     OW 1396   4.052   3.325   9.460  0.4700  0.2498  0.4867
  466SOL    HW1 1397   4.101   3.371   9.392  0.8480 -0.5605  0.1964
  466SOL    HW2 1398   4.119   3.283   9.514  0.1165 -0.9222  0.0487
  467SOL     OW 1399   1.427   0.954   8.558 -0.2127  0.2062 -0.0421
  467SOL    HW1 1400   1.493   0.940   8.626  1.0027 -0.9590 -1.3799
  467SOL    HW2 1401   1.458   0.901   8.484 -1.9170  0.7697 -1.2129
  468SOL     OW 1402   3.819   2.863   7.892 -0.4620 -0.0836  0.0672
  468SOL    HW1 1403   3.848   2.864   7.801  1.7185  1.6435  0.7080
  468SOL    HW2 1404   3.774   2.946   7.904  1.1146  0.6605  1.0717
  469SOL     OW 1405   1.090   4.818   8.006 -0.3441  0.1644 -0.3019
  469SOL    HW1 1406   1.162   4.863   7.961 -0.7389 -0.1452 -1.2608
  469SOL    HW2 1407   1.076   4.738   7.955 -0.7666 -0.2231  0.4106
  470SOL     OW 1408   2.878   2.030   9.621  0.5399  0.3805 -0.2547
  470SOL    HW1 1409   2.789   2.064   9.619 -0.6525 -2.4979 -0.2988
  470SOL    HW2 1410   2.932   2.105   9.646 -1.7586  2.3996 -0.9780
  471SOL     OW 1411   2.275   3.952   9.482 -0.0873  0.1760 -0.1848
  471SOL    HW1 1412   2.258   4.015   9.552  0.3136 -2.0568  2.0537
  471SOL    HW2 1413   2.212   3.976   9.413 -1.3556  1.7272  1.4112
  472SOL     OW 1414   1.621   0.111  10.199  0.3683 -0.5429  0.2725
  472SOL    HW1 1415   1.700   0.067  10.230  0.0563 -0.7809  0.7411
  472SOL    HW2 1416   1.633   0.116  10.104  2.5910  2.6019  0.5808
  473SOL     OW 1417   4.811   1.408   9.733 -0.2299 -0.5485 -0.6470
  473SOL    HW1 1418   4.776   1.492   9.703  0.1763  0.2638  1.0295
  473SOL    HW2 1419   4.741   1.371   9.787 -0.2019 -1.0323 -0.9414
  474SOL     OW 1420   2.807   2.720   8.744  0.5461  0.4109 -0.0062
  474SOL    HW1 1421   2.755   2.757   8.672  1.5857  1.2511 -0.3567
  474SOL    HW2 1422   2.879   2.675   8.700 -1.0216 -2.7639  0.3610
  475SOL     OW 1423   3.509   3.413   9.504 -0.4175  0.3751 -0.0233
  475SOL    HW1 1424   3.502   3.381   9.594 -0.5828  2.0661  0.6027
  475SOL    HW2 1425   3.585   3.472   9.506  0.4916 -0.6958 -1.3646
  476SOL     OW 1426   4.363   1.609   7.661 -0.1163  0.1372  0.5689
  476SOL    HW1 1427   4.379   1.521   7.627 -0.0393 -0.4490  2.0312
  476SOL    HW2 1428   4.349   1.663   7.583 -0.6793 -1.2640 -0.3419
  477SOL     OW 1429   2.874   1.087   9.708  0.3696 -0.6983 -0.0714
  477SOL    HW1 1430   2.802   1.036   9.672  0.6964 -1.4001  0.2546
  477SOL    HW2 1431   2.831   1.159   9.755 -0.1028 -0.8864 -0.2103
  478SOL     OW 1432   0.675   2.647   9.521 -0.0551 -0.1230  0.0741
  478SOL    HW1 1433   0.594   2.612   9.483 -0.0741  1.4099 -1.4320
  478SOL    HW2 1434   0.690   2.729   9.474 -0.2535  2.1982  3.6499
  479SOL     OW 1435   1.111   3.327   8.930 -0.9703 -0.0482  0.8683
  479SOL    HW1 1436   1.071   3.300   9.013 -1.3320  0.9971  1.0434
  479SOL    HW2 1437   1.045   3.306   8.864 -0.9834 -0.1798  0.9208
  480SOL     OW 1438   2.260   4.165   9.653 -0.1692  0.8284  0.0567
  480SOL    HW1 1439   2.217   4.211   9.581  0.2558  3.0987  1.1815
  480SOL    HW2 1440   2.350   4.196   9.651  0.7266 -1.5793 -0.3930
  481SOL     OW 1441   4.586   4.746   7.511  0.3581  0.6521 -0.1139
  481SOL    HW1 1442   4.620   4.834   7.530  1.1374  0.3474 -0.0725
  481SOL    HW2 1443   4.660   4.700   7.472  0.0143 -0.0609  0.0717
  482SOL     OW 1444   2.388   4.418   8.616 -0.5417 -0.4190 -0.6826
  482SOL    HW1 1445   2.418   4.387   8.531  0.9273 -0.1312 -0.2922
  482SOL    HW2 1446   2.317   4.359   8.640 -0.8402 -0.6252 -2.0065
  483SOL     OW 1447   4.346   2.999   8.295  0.1320 -0.4209  0.6454
  483SOL    HW1 1448   4.319   2.963   8.210 -3.0601  0.4675  1.1592
  483SOL    HW2 1449   4.334   3.094   8.286  1.7035 -0.1012  1.5024
  484SOL     OW 1450   1.252   2.662   9.597 -1.0769 -0.5300  0.5180
  484SOL    HW1 1451   1.273   2.628   9.684 -0.4060  0.0095  0.5774
  484SOL    HW2 1452   1.291   2.599   9.536 -2.1320 -1.2760  0.5821
  485SOL     OW 1453   2.816   0.174   9.683 -0.4288 -0.1077 -0.4068
  485SOL    HW1 1454   2.842   0.083   9.696 -0.3799 -0.1649 -0.9060
  485SOL    HW2 1455   2.787   0.178   9.592 -1.7937  0.0479  0.0124
  486SOL     OW 1456   0.736   1.568   8.878 -0.0698  0.3065 -0.1610
  486SOL    HW1 1457   0.829   1.578   8.897 -0.3979  1.2187  1.1727
  486SOL    HW2 1458   0.706   1.500   8.939 -0.3545  0.3394 -0.2595
  487SOL     OW 1459   4.476   2.778   8.396 -0.5293  0.1336  0.4937
  487SOL    HW1 1460   4.438   2.857   8.357  0.2639  0.6856  0.8083
  487SOL    HW2 1461   4.448   2.780   8.487  1.6459  1.5244  1.2219
  488SOL     OW 1462   3.599   3.831   8.767 -0.6410 -0.8438 -0.4736
  488SOL    HW1 1463   3.594   3.858   8.859  0.6680  0.5125 -0.7583
  488SOL    HW2 1464   3.517   3.863   8.728 -1.3531 -1.7179  0.2708
  489SOL     OW 1465   4.480   1.081   9.182 -0.1186  0.7784  0.0647
  489SOL    HW1 1466   4.532   1.051   9.107 -1.0370  0.7448 -0.5672
  489SOL    HW2 1467   4.391   1.087   9.149 -0.7991 -0.6159  1.5333
  490SOL     OW 1468   1.659   4.971   7.781 -0.8582 -0.0389  0.1775
  490SOL    HW1 1469   1.569   4.976   7.749 -1.5211  0.3976  1.9788
  490SOL    HW2 1470   1.713   4.991   7.705 -2.1298 -2.8503 -1.6439
  491SOL     OW 1471   1.635   2.978   9.918 -0.0148  0.2774 -0.1894
  491SOL    HW1 1472   1.644   2.945   9.828  1.4041 -1.5674  0.5808
  491SOL    HW2 1473   1.722   3.014   9.938 -1.0705  3.3369 -0.4590
  492SOL     OW 1474   1.693   4.341   9.021 -0.5307 -0.3834 -0.2059
  492SOL    HW1 1475   1.727   4.422   9.059 -1.9673  0.5921 -0.8941
  492SOL    HW2 1476   1.702   4.354   8.926 -0.9106 -0.9672 -0.3263
  493SOL     OW 1477   4.688   1.857   8.325 -0.2336 -0.4272  0.3842
  493SOL    HW1 1478   4.676   1.782   8.383  1.5247 -0.1896  1.1272
  493SOL    HW2 1479   4.710   1.929   8.384  2.5947 -0.3963 -0.5715
  494SOL     OW 1480   2.501   4.406   7.487 -0.4365 -0.2353  0.0143
  494SOL    HW1 1481   2.419   4.370   7.521 -1.0539  2.5141  1.7831
  494SOL    HW2 1482   2.474   4.460   7.412  0.0487 -0.8509 -0.6194
  495SOL     OW 1483   1.405   2.694   6.855  0.4231  0.5151 -0.7132
  495SOL    HW1 1484   1.494   2.677   6.887 -0.1492  0.1487  0.7569
  495SOL    HW2 1485   1.373   2.765   6.911 -1.0037 -0.8759  0.2988
  496SOL     OW 1486   4.018   0.278   8.944  0.0950  0.6407 -0.5025
  496SOL    HW1 1487   4.023   0.338   8.869 -1.9064  1.1907 -0.2742
  496SOL    HW2 1488   3.924   0.261   8.954  0.5129 -1.3476  0.3960
  497SOL     OW 1489   0.407   4.304   9.571  0.0979  0.0582  0.0093
  497SOL    HW1 1490   0.377   4.243   9.503  0.4414 -1.8038  1.4517
  497SOL    HW2 1491   0.357   4.280   9.649  0.6629  1.2702  0.7753
  498SOL     OW 1492   4.068   3.251   7.778  0.1230  0.0634  0.3765
  498SOL    HW1 1493   3.995   3.195   7.806  0.5539 -0.1362  1.1074
  498SOL    HW2 1494   4.090   3.302   7.856 -1.4736  2.6328 -0.7167
  499SOL     OW 1495   1.856   3.086  10.003 -0.3469 -0.1678  0.1191
  499SOL    HW1 1496   1.867   3.126   9.916  0.5026 -0.0042  0.2914
  499SOL    HW2 1497   1.945   3.074  10.035 -0.6194  2.7199  2.3092
  500SOL     OW 1498   0.794   4.794   8.853  0.0156  0.2236  0.1093
  500SOL    HW1 1499   0.829   4.875   8.889 -0.6083  0.0066  1.2641
  500SOL    HW2 1500   0.782   4.812   8.760  1.8767  0.7294 -0.0615
  501SOL     OW 1501   1.302   1.077   9.277  0.1364 -0.4084 -0.1306
  501SOL    HW1 1502   1.307   1.146   9.210 -1.0628  0.9119  1.0694
  501SOL    HW2 1503   1.388   1.078   9.319  0.3871 -0.1764 -0.6351
  502SOL     OW 1504   4.838   1.652  10.230  0.1053  0.2465  0.0397
  502SOL    HW1 1505   4.805   1.624  10.145  0.4219 -1.1446  0.3438
  502SOL    HW2 1506   4.827   1.575  10.286 -1.4521  1.5601  1.6646
  503SOL     OW 1507   4.841   4.670   9.090 -0.4136  0.0471  0.2122
  503SOL    HW1 1508   4.876   4.604   9.149 -0.8139  1.9028  2.6721
  503SOL    HW2 1509   4.756   4.635   9.063  0.1244 -1.1943  0.0401
  504SOL     OW 1510   0.374   4.635  10.299 -0.4174  0.7889 -0.1846
  504SOL    HW1 1511   0.427   4.555  10.306 -1.9348 -0.4736 -1.9607
  504SOL    HW2 1512   0.422   4.700  10.350  1.1333 -1.1162  0.9480
  505SOL     OW 1513   1.784   1.004   9.184 -0.0084 -0.3131  0.0361
  505SOL    HW1 1514   1.818   1.093   9.180  0.7547 -0.5068  1.5820
  505SOL    HW2 1515   1.862   0.948   9.185 -0.4650 -0.9822 -0.4191
  506SOL     OW 1516   0.765   4.072  10.083 -0.0094  0.2214  0.3783
  506SOL    HW1 1517   0.807   4.143  10.034 -0.5822 -0.2955 -0.9021
  506SOL    HW2 1518   0.831   4.045  10.147  0.5211  1.3512  0.3434
  507SOL     OW 1519   2.250   2.692   9.395  0.0096  0.4503  0.0562
  507SOL    HW1 1520   2.290   2.610   9.427  0.2844  0.1733 -0.9666
  507SOL    HW2 1521   2.203   2.666   9.316  2.4655  1.7521 -1.9549
  508SOL     OW 1522   0.926   2.080   9.410  0.0218 -0.6471 -0.1238
  508SOL    HW1 1523   0.937   2.145   9.480 -0.7428 -1.8973  1.2067
  508SOL    HW2 1524   0.832   2.059   9.411  0.5678 -3.3954  1.0321
  509SOL     OW 1525   1.242   3.648  10.017  0.0755 -0.2127  0.2525
  509SOL    HW1 1526   1.288   3.595   9.952  2.0760 -0.4889  1.7904
  509SOL    HW2 1527   1.279   3.735  10.008 -2.2707  0.7074 -1.3794
  510SOL     OW 1528   4.312   4.793   8.802  0.2407 -0.1565  0.0280
  510SOL    HW1 1529   4.278   4.807   8.713 -0.5500 -0.6797  0.2409
  510SOL    HW2 1530   4.346   4.879   8.828 -1.5470  0.5843  0.0670
  511SOL     OW 1531   1.787   4.382   8.748  0.5070  0.4104  1.0613
  511SOL    HW1 1532   1.767   4.469   8.713 -0.2157  0.0338  0.5041
  511SOL    HW2 1533   1.765   4.322   8.677  0.4892 -0.2699  1.6268
  512SOL     OW 1534   0.963   2.990   6.376  0.6310 -0.6344  0.3976
  512SOL    HW1 1535   1.009   3.070   6.352 -0.2886 -0.3026 -0.3244
  512SOL    HW2 1536   0.973   2.933   6.300 -0.5433 -0.3684  0.0214
  513SOL     OW 1537   4.012   2.557   8.919  0.1609 -0.4196 -0.9874
  513SOL    HW1 1538   4.021   2.649   8.894 -1.1729  0.4268  1.2824
  513SOL    HW2 1539   3.986   2.512   8.839 -0.2858  1.3868 -1.9052
  514SOL     OW 1540   0.824   3.143   8.833 -0.1914  0.4716 -0.4074
  514SOL    HW1 1541   0.895   3.079   8.837  1.0140  1.8037  1.5789
  514SOL    HW2 1542   0.752   3.102   8.881 -0.7335 -0.7500 -2.1499
  515SOL     OW 1543   1.595   0.855   8.743  0.4543  0.7540  0.6853
  515SOL    HW1 1544   1.683   0.821   8.757 -1.0392 -3.5296  1.1959
  515SOL    HW2 1545   1.561   0.871   8.831  0.5102  1.9761  0.5064
  516SOL     OW 1546   3.629   2.600   9.552 -0.1467  0.8394  0.8676
  516SOL    HW1 1547   3.620   2.605   9.456 -1.3391  1.0759  0.9851
  516SOL    HW2 1548   3.723   2.589   9.566 -0.1831 -2.1810 -0.4690
  517SOL     OW 1549   4.041   2.081   7.709  0.4602 -0.4385 -0.0710
  517SOL    HW1 1550   4.110   2.051   7.651 -0.0805 -0.9351 -0.4699
  517SOL    HW2 1551   4.058   2.037   7.792  0.4236 -0.8372 -0.2726
  518SOL     OW 1552   2.136   3.020   8.883 -0.4077  0.4990  0.1031
  518SOL    HW1 1553   2.111   2.971   8.804 -1.2479  1.0272  0.0271
  518SOL    HW2 1554   2.176   2.955   8.940 -0.9506 -0.1531 -0.2471
  519SOL     OW 1555   0.626   3.785   7.865 -0.0503  0.4811 -0.5839
  519SOL    HW1 1556   0.644   3.717   7.800  1.6032  0.4658 -0.1607
  519SOL    HW2 1557   0.668   3.863   7.830  0.7559  0.5020  0.3633
  520SOL     OW 1558   2.492   2.391   9.023  0.2657  0.0212  0.5898
  520SOL    HW1 1559   2.489   2.296   9.036  1.5602 -0.0521  0.4248
  520SOL    HW2 1560   2.524   2.402   8.934  0.6000  0.6256  0.7822
  521SOL     OW 1561   3.640   1.243   9.339 -0.3497 -0.6000  0.0152
  521SOL    HW1 1562   3.601   1.160   9.313 -0.4375 -0.5938  0.1254
  521SOL    HW2 1563   3.718   1.220   9.388 -0.0147 -0.6076 -0.5188
  522SOL     OW 1564   3.247   4.060   7.547 -0.2010 -0.1699 -0.1278
  522SOL    HW1 1565   3.166   4.110   7.533  0.8414  1.9217  0.8424
  522SOL    HW2 1566   3.237   4.021   7.634  1.6554  4.2098  2.3576
  523SOL     OW 1567   1.167   3.315   9.572  0.2836 -0.5335  0.2369
  523SOL    HW1 1568   1.153   3.317   9.666 -2.1087 -0.7588 -0.0598
  523SOL    HW2 1569   1.129   3.232   9.544 -0.2532  0.1321 -1.0913
  524SOL     OW 1570   4.486   1.415   2.357  0.3033  0.0647  0.0312
  524SOL    HW1 1571   4.400   1.425   2.397  0.3045  3.6235 -0.4770
  524SOL    HW2 1572   4.548   1.438   2.427  0.8466 -1.7163  0.1779
  525SOL     OW 1573   1.671   4.711   7.146 -0.0946 -0.4020  0.3121
  525SOL    HW1 1574   1.647   4.771   7.075 -2.3378 -0.6628  0.7778
  525SOL    HW2 1575   1.745   4.754   7.188 -0.2930  1.0078 -0.6669
  526SOL     OW 1576   1.557   1.387   9.431  0.4893 -0.0910  0.0656
  526SOL    HW1 1577   1.584   1.296   9.418  1.9330  0.3246 -0.0202
  526SOL    HW2 1578   1.605   1.436   9.364 -0.4160  0.7196 -0.0108
  527SOL     OW 1579   4.339   0.776   8.335  0.3209  0.6989  1.0364
  527SOL    HW1 1580   4.396   0.833   8.386  0.9010  1.1311 -0.0479
  527SOL    HW2 1581   4.311   0.831   8.261  1.8097 -0.7282 -0.6702
  528SOL     OW 1582   2.873   4.090   5.929  0.0140  0.1030 -0.3216
  528SOL    HW1 1583   2.935   4.098   5.857 -1.1323 -1.2812 -1.5545
  528SOL    HW2 1584   2.787   4.089   5.886 -0.6878 -1.0294  1.0267
  529SOL     OW 1585   2.420   4.737   7.656  0.2504 -0.0113  0.5255
  529SOL    HW1 1586   2.407   4.644   7.671  1.1362 -0.1983  0.1756
  529SOL    HW2 1587   2.376   4.755   7.573  1.2311 -0.4101 -0.0964
  530SOL     OW 1588   4.169   3.229   8.052  0.4461  0.5948  0.1813
  530SOL    HW1 1589   4.238   3.165   8.034  0.1150 -0.6873  2.8822
  530SOL    HW2 1590   4.215   3.312   8.060  1.0451  0.5690 -2.2293
  531SOL     OW 1591   1.590   0.596   9.902  0.4282 -0.5642 -0.3454
  531SOL    HW1 1592   1.574   0.670   9.844 -2.7423 -0.3514  0.5994
  531SOL    HW2 1593   1.622   0.527   9.845 -0.5904  0.2649 -2.0182
  532SOL     OW 1594   1.855   4.235   8.537  0.1748  0.8949  0.9558
  532SOL    HW1 1595   1.818   4.156   8.576  0.5330  0.9550  1.4256
  532SOL    HW2 1596   1.811   4.243   8.452 -2.1769  1.8891  2.1774
  533SOL     OW 1597   4.982   2.762   8.327  0.1518  0.1953  0.8903
  533SOL    HW1 1598   5.039   2.837   8.311 -1.2709  1.1172 -0.0438
  533SOL    HW2 1599   4.941   2.781   8.412 -1.9711  1.7210 -0.3754
  534SOL     OW 1600   0.618   4.482  10.328  0.0757 -0.2190 -0.5091
  534SOL    HW1 1601   0.706   4.511  10.349  0.2849 -0.4538 -1.0345
  534SOL    HW2 1602   0.631   4.403  10.274 -0.4537 -0.3776 -0.4144
  535SOL     OW 1603   2.023   0.805   9.331  0.4138  0.5957 -0.3135
  535SOL    HW1 1604   1.941   0.766   9.301  0.7025  0.2425 -0.6435
  535SOL    HW2 1605   2.091   0.748   9.297  0.8636  1.6019 -1.1645
  536SOL     OW 1606   4.113   1.482   7.109  0.2042  1.0573 -0.4521
  536SOL    HW1 1607   4.197   1.520   7.133  1.1802 -2.7543  3.3340
  536SOL    HW2 1608   4.130   1.389   7.099 -3.2390  0.3974 -1.7219
  537SOL     OW 1609   1.212   3.979   9.894 -0.2604 -0.1227  0.4241
  537SOL    HW1 1610   1.172   3.916   9.835 -1.7729  0.1402  1.1302
  537SOL    HW2 1611   1.150   4.052   9.897  1.2636  1.2638 -0.0863
  538SOL     OW 1612   4.941   2.153   9.770 -0.3967  1.0886 -0.5806
  538SOL    HW1 1613   5.014   2.147   9.832 -0.3211  0.5489 -0.7137
  538SOL    HW2 1614   4.912   2.062   9.759  0.1348  1.0506 -1.9627
  539SOL     OW 1615   0.093   2.067   9.216 -0.1926 -0.4284  0.0927
  539SOL    HW1 1616   0.008   2.057   9.172  0.6486 -1.0866 -1.4708
  539SOL    HW2 1617   0.150   2.003   9.173  1.7087  1.5391 -0.5227
  540SOL     OW 1618   3.105   0.239   7.667  0.2392  0.1039 -0.1833
  540SOL    HW1 1619   3.077   0.157   7.708  0.4487 -0.1969 -0.6415
  540SOL    HW2 1620   3.038   0.257   7.601  1.5639 -1.1103 -1.9423
  541SOL     OW 1621   2.549   0.551  10.093  0.6667 -0.8283  0.0606
  541SOL    HW1 1622   2.572   0.572  10.003 -0.9624 -0.0203 -0.2102
  541SOL    HW2 1623   2.556   0.634  10.140 -2.9003 -0.1106 -0.3683
  542SOL     OW 1624   4.874   2.131   8.813 -0.0300 -0.0848 -0.0783
  542SOL    HW1 1625   4.945   2.171   8.763 -0.3256  1.8646  0.9653
  542SOL    HW2 1626   4.796   2.144   8.759  0.0375 -0.1887 -0.2012
  543SOL     OW 1627   1.470   2.388   7.386  0.3038  0.4820 -0.2301
  543SOL    HW1 1628   1.517   2.452   7.440  0.5739  0.3859 -0.3544
  543SOL    HW2 1629   1.520   2.382   7.305  2.4405 -2.6135  1.1202
  544SOL     OW 1630   2.112   3.635   9.964 -0.0255  0.0167 -0.0101
  544SOL    HW1 1631   2.116   3.569  10.033 -0.8933 -0.6417 -0.5818
  544SOL    HW2 1632   2.173   3.604   9.897  0.9202  0.7245  0.4922
  545SOL     OW 1633   1.399   3.104   7.897 -0.2021 -0.3354  0.3395
  545SOL    HW1 1634   1.486   3.114   7.938  0.5496 -1.6915 -0.8282
  545SOL    HW2 1635   1.343   3.074   7.968  0.7591 -1.3406  0.7064
  546SOL     OW 1636   0.908   4.427   7.597  0.1204 -0.2258  0.3825
  546SOL    HW1 1637   0.832   4.475   7.564 -0.2194  0.4567  2.0614
  546SOL    HW2 1638   0.876   4.382   7.675  1.7075  1.1202  1.8980
  547SOL     OW 1639   0.818   3.444   9.422 -0.0983 -0.4015 -0.1410
  547SOL    HW1 1640   0.730   3.447   9.383 -2.0404 -0.1419  3.7298
  547SOL    HW2 1641   0.838   3.351   9.431  0.1974 -0.4615 -1.2986
  548SOL     OW 1642   1.705   4.177   4.572 -0.4189  0.8894 -0.0183
  548SOL    HW1 1643   1.641   4.246   4.556 -0.7496  1.1739  2.1981
  548SOL    HW2 1644   1.658   4.096   4.552 -0.9860  1.1712  0.1344
  549SOL     OW 1645   2.282   0.240   6.412 -0.4949  0.3653 -0.0028
  549SOL    HW1 1646   2.212   0.209   6.469 -0.1451 -2.4030 -0.9521
  549SOL    HW2 1647   2.255   0.214   6.324  1.2255  0.1193 -0.5056
  550SOL     OW 1648   3.961   1.294   8.949 -0.3083  0.1782 -0.2013
  550SOL    HW1 1649   3.956   1.344   8.868  0.2389  0.3281 -0.1421
  550SOL    HW2 1650   3.938   1.204   8.924 -2.2365  0.6030 -0.1490
  551SOL     OW 1651   4.781   0.050   9.886  0.2628  0.4080  0.1042
  551SOL    HW1 1652   4.877   0.041   9.881  0.4280  2.1079 -3.6668
  551SOL    HW2 1653   4.750  -0.039   9.903  2.4911 -0.9801 -2.2067
  552SOL     OW 1654   0.606   4.788   7.171  0.0262 -0.5819  0.0310
  552SOL    HW1 1655   0.671   4.807   7.238  1.5598  0.5447 -1.6878
  552SOL    HW2 1656   0.573   4.875   7.145 -1.6944 -1.0922  0.3937
  553SOL     OW 1657   2.021   4.675   9.165 -0.2741 -0.7491  0.1982
  553SOL    HW1 1658   2.029   4.733   9.241  2.0148 -2.2343  1.1748
  553SOL    HW2 1659   2.078   4.715   9.099 -0.2880 -0.8137  0.1476
  554SOL     OW 1660   3.307   3.404   9.311  0.1311  0.4709 -0.2357
  554SOL    HW1 1661   3.376   3.383   9.373 -2.0782 -2.0763  1.5693
  554SOL    HW2 1662   3.318   3.341   9.240 -1.1549 -1.0616  0.8381
  555SOL     OW 1663   2.555   2.819   9.634  0.3752  0.2547  0.0818
  555SOL    HW1 1664   2.626   2.883   9.634  2.2498 -1.6963 -0.5458
  555SOL    HW2 1665   2.598   2.736   9.657 -1.9848 -0.7588  1.1451
  556SOL     OW 1666   2.551   1.416   8.829  0.0059 -0.3783  0.2739
  556SOL    HW1 1667   2.547   1.336   8.777 -0.1802 -0.2046  0.0187
  556SOL    HW2 1668   2.554   1.386   8.920 -1.8499 -0.6525  0.2757
  557SOL     OW 1669   3.565   4.629   6.858  0.1128 -0.3938  0.0406
  557SOL    HW1 1670   3.639   4.574   6.833  0.2567  0.7176 -2.1583
  557SOL    HW2 1671   3.488   4.585   6.823  0.1831  0.5245 -1.3264
  558SOL     OW 1672   3.135   1.244   7.819 -0.2502 -0.2367  0.5338
  558SOL    HW1 1673   3.097   1.162   7.788 -0.6528 -0.3648  1.3349
  558SOL    HW2 1674   3.212   1.258   7.764 -0.3673 -0.9770  0.1774
  559SOL     OW 1675   1.760   4.258   7.896  0.0083  0.0290  0.1125
  559SOL    HW1 1676   1.705   4.249   7.819 -1.4412  0.3737  1.0776
  559SOL    HW2 1677   1.838   4.303   7.864 -0.4111 -0.1327 -1.2076
  560SOL     OW 1678   3.087   0.801   9.438  0.1208  0.3532 -0.0805
  560SOL    HW1 1679   3.027   0.876   9.430 -0.5855 -0.1513  0.3557
  560SOL    HW2 1680   3.149   0.812   9.366  0.1236  1.4447  0.0745
  561SOL     OW 1681   1.109   1.407   8.415  0.2206  0.0904 -0.2979
  561SOL    HW1 1682   1.115   1.406   8.320  0.9789 -1.3012 -0.2675
  561SOL    HW2 1683   1.015   1.417   8.433 -0.0500 -0.6750 -1.2135
  562SOL     OW 1684   1.191   4.079  10.367 -0.2292  0.3768  0.2676
  562SOL    HW1 1685   1.255   4.015  10.399  0.5218  0.8198 -0.3343
  562SOL    HW2 1686   1.170   4.131  10.445 -0.9508 -0.6568  0.7998
  563SOL     OW 1687   3.038   1.933   8.575  0.1546 -0.3575  0.2508
  563SOL    HW1 1688   3.007   1.895   8.657 -0.5399  2.4343  1.4065
  563SOL    HW2 1689   2.959   1.944   8.522  0.3179 -0.3751  0.0016
  564SOL     OW 1690   4.698   1.257   9.303 -0.1648 -0.3436 -0.1588
  564SOL    HW1 1691   4.638   1.269   9.229 -0.2861  0.0554 -0.0004
  564SOL    HW2 1692   4.768   1.201   9.269 -0.7535 -1.0312 -0.2739
  565SOL     OW 1693   2.326   2.682   8.775  0.3340 -0.2132  0.3203
  565SOL    HW1 1694   2.296   2.667   8.865  2.9515  0.7863  1.4673
  565SOL    HW2 1695   2.376   2.763   8.780  0.5113 -0.1107 -2.0842
  566SOL     OW 1696   1.760   4.610   8.553  0.1656  0.0467  0.3889
  566SOL    HW1 1697   1.676   4.655   8.558  1.2773  2.1882  0.5979
  566SOL    HW2 1698   1.816   4.668   8.502  2.1162 -0.3386  1.9489
  567SOL     OW 1699   3.551   3.661  10.068 -0.1274  0.6261 -0.7425
  567SOL    HW1 1700   3.624   3.599  10.073  0.3334  1.2388  1.7322
  567SOL    HW2 1701   3.576   3.723  10.000  2.3268  1.5373  0.8633
  568SOL     OW 1702   4.413   3.034   8.012  0.3340 -0.6447 -0.1075
  568SOL    HW1 1703   4.497   3.079   8.010 -0.6161  1.2540 -0.2523
  568SOL    HW2 1704   4.434   2.942   7.999  2.3776 -0.2282 -0.0385
  569SOL     OW 1705   1.259   2.659  10.107  0.1589 -0.1268 -0.3695
  569SOL    HW1 1706   1.277   2.747  10.140  1.1506  0.4889 -2.3917
  569SOL    HW2 1707   1.291   2.601  10.176  0.4827  1.0868  0.5347
  570SOL     OW 1708   1.876   0.311   7.377  0.5326  0.1757 -0.0688
  570SOL    HW1 1709   1.837   0.380   7.431 -0.4666  0.3823 -1.0214
  570SOL    HW2 1710   1.969   0.314   7.398  0.6517  2.3568 -0.6204
  571SOL     OW 1711   3.386   2.746   7.710  0.0614  0.3726  0.2037
  571SOL    HW1 1712   3.382   2.841   7.710  0.4367  0.4296  1.8053
  571SOL    HW2 1713   3.447   2.725   7.782  0.7148 -1.0503 -0.7086
  572SOL     OW 1714   1.815   2.467   6.364  0.1752  0.2473 -0.8080
  572SOL    HW1 1715   1.787   2.514   6.285  1.2490  0.2070 -1.2270
  572SOL    HW2 1716   1.769   2.383   6.359 -0.8123  0.7686 -0.6797
  573SOL     OW 1717   1.022   1.944   5.442  0.8153  0.2327 -0.2157
  573SOL    HW1 1718   0.966   1.870   5.419 -0.0715  0.6794  0.4581
  573SOL    HW2 1719   0.998   1.966   5.532  0.4263  1.8625 -0.6693
  574SOL     OW 1720   3.752   0.223   5.391 -0.0304 -0.2147  0.3643
  574SOL    HW1 1721   3.723   0.199   5.479 -0.3582 -0.3697  0.2130
  574SOL    HW2 1722   3.809   0.300   5.405 -1.6582  1.0068  0.5372
  575SOL     OW 1723   4.842   4.202   7.171 -0.1721  0.4943 -0.8832
  575SOL    HW1 1724   4.823   4.284   7.217 -0.7208  0.2084 -0.5798
  575SOL    HW2 1725   4.828   4.222   7.079  0.0156  0.8266 -0.8403
  576SOL     OW 1726   3.866   1.933   7.910  0.2947 -0.2851 -0.0408
  576SOL    HW1 1727   3.854   1.846   7.950 -0.9182 -0.3179 -0.4300
  576SOL    HW2 1728   3.810   1.931   7.833 -0.3910  1.1318  0.3985
  577SOL     OW 1729   0.879   3.712   4.730 -0.1693 -0.5656 -0.0244
  577SOL    HW1 1730   0.899   3.632   4.680 -0.2222 -1.9620  2.0862
  577SOL    HW2 1731   0.832   3.682   4.807  0.5636  1.4152  1.2872
  578SOL     OW 1732   2.567   4.512   5.838  0.8056 -0.1305 -0.4678
  578SOL    HW1 1733   2.634   4.535   5.903  1.5200 -0.5602 -1.0411
  578SOL    HW2 1734   2.486   4.506   5.889  1.4560 -1.0776  0.5141
  579SOL     OW 1735   2.030   2.454   6.619  0.8224 -0.7734 -0.1020
  579SOL    HW1 1736   2.071   2.460   6.533  1.9537 -1.9356  0.3179
  579SOL    HW2 1737   1.957   2.393   6.607  0.7216 -0.6066 -0.3321
  580SOL     OW 1738   1.056   3.261   5.842  0.7765  0.0962  0.5125
  580SOL    HW1 1739   1.053   3.223   5.754 -0.0947  0.0901  0.5417
  580SOL    HW2 1740   1.095   3.348   5.829  0.2434  0.2725  0.0547
  581SOL     OW 1741   4.327   3.558   5.748  0.2945 -0.1927 -0.2267
  581SOL    HW1 1742   4.337   3.592   5.659 -0.1962  3.4576  0.9437
  581SOL    HW2 1743   4.388   3.610   5.800 -3.5422  2.0893  2.4308
  582SOL     OW 1744   4.016   1.555   5.284  0.0496 -0.2734  0.3072
  582SOL    HW1 1745   3.924   1.552   5.259  0.7396 -0.2026 -2.5298
  582SOL    HW2 1746   4.026   1.640   5.327 -1.2726 -0.5066  1.1544
  583SOL     OW 1747   0.202   1.517   6.116 -0.3644  0.1032  0.1936
  583SOL    HW1 1748   0.182   1.425   6.100  2.2878 -0.5486  0.0316
  583SOL    HW2 1749   0.162   1.536   6.201 -1.7837 -0.8820 -0.2223
  584SOL     OW 1750   2.307   1.377   9.434 -0.0696 -0.2676 -0.7320
  584SOL    HW1 1751   2.309   1.320   9.510 -2.5952 -2.5695 -2.2293
  584SOL    HW2 1752   2.226   1.355   9.388  2.0265 -0.2950 -4.9882
  585SOL     OW 1753   1.344   4.239   4.801 -0.7090  0.3510 -0.7644
  585SOL    HW1 1754   1.347   4.322   4.848 -0.0718 -0.0135 -0.1485
  585SOL    HW2 1755   1.406   4.182   4.847 -0.6984 -0.2845 -1.5293
  586SOL     OW 1756   4.593   4.162   5.248  0.7227 -0.1242 -0.0704
  586SOL    HW1 1757   4.570   4.070   5.238  0.1851 -0.2320  1.7326
  586SOL    HW2 1758   4.689   4.164   5.239  0.7282 -0.8302 -0.2268
  587SOL     OW 1759   3.533   1.637   5.244  0.6715 -0.4051  0.2348
  587SOL    HW1 1760   3.595   1.657   5.313  2.1277 -0.5985 -0.9687
  587SOL    HW2 1761   3.509   1.545   5.260  3.2250 -1.3995 -1.0923
  588SOL     OW 1762   4.320   3.068   6.003 -0.6892 -0.9801 -0.2705
  588SOL    HW1 1763   4.409   3.086   6.032 -1.0376 -0.3779  0.4717
  588SOL    HW2 1764   4.265   3.098   6.076 -1.6848  1.7476 -1.9996
  589SOL     OW 1765   0.758   2.334   5.709 -0.3511 -0.2254 -0.5625
  589SOL    HW1 1766   0.769   2.267   5.776 -0.2222  0.3837  0.0325
  589SOL    HW2 1767   0.783   2.290   5.627  0.3875 -0.7021 -0.0905
  590SOL     OW 1768   2.498   2.482   6.436 -0.0308  0.1084 -0.1977
  590SOL    HW1 1769   2.460   2.467   6.523 -1.5818 -2.2986 -1.2009
  590SOL    HW2 1770   2.592   2.491   6.453 -0.2738 -0.3972  1.7080
  591SOL     OW 1771   4.857   3.429   9.014 -0.6764 -0.8120 -0.3726
  591SOL    HW1 1772   4.856   3.478   9.097 -0.5476  1.5505 -1.6859
  591SOL    HW2 1773   4.857   3.337   9.041 -0.9176 -0.1316  2.2411
  592SOL     OW 1774   0.752   2.638   5.676 -0.0633  0.4404 -0.6229
  592SOL    HW1 1775   0.724   2.678   5.758 -1.0931  0.2516 -0.8748
  592SOL    HW2 1776   0.756   2.544   5.695 -0.2838  0.3980 -0.7834
  593SOL     OW 1777   2.718   4.869   4.937 -0.5827  0.0613  0.0152
  593SOL    HW1 1778   2.795   4.825   4.972 -1.4153  0.5797  2.7735
  593SOL    HW2 1779   2.644   4.829   4.983 -1.8056  0.8826 -1.1492
  594SOL     OW 1780   1.677   0.061   6.366 -0.0972  0.0023  0.2877
  594SOL    HW1 1781   1.584   0.051   6.385 -0.6339  2.7631 -0.5278
  594SOL    HW2 1782   1.714   0.097   6.447  0.5732 -2.1619  1.0238
  595SOL     OW 1783   3.339   3.638   6.281  0.1501  0.0482 -0.6998
  595SOL    HW1 1784   3.258   3.672   6.319  0.6381  1.2360 -0.7074
  595SOL    HW2 1785   3.407   3.663   6.344  0.5867 -0.4822 -0.9559
  596SOL     OW 1786   3.012   1.828   5.708 -0.0630  0.6416  0.0233
  596SOL    HW1 1787   3.015   1.838   5.803 -1.2863 -0.5795  0.2187
  596SOL    HW2 1788   3.035   1.736   5.693 -1.1189  0.4935 -0.7651
  597SOL     OW 1789   0.379   0.568   7.295  0.9379  0.1139  0.4470
  597SOL    HW1 1790   0.431   0.602   7.222  1.4836 -1.3924  0.1070
  597SOL    HW2 1791   0.311   0.515   7.253 -0.5392  1.5603  0.9195
  598SOL     OW 1792   3.510   1.074   5.300  0.4877  0.1114 -0.2162
  598SOL    HW1 1793   3.492   1.151   5.246 -1.1921 -0.0377  0.0963
  598SOL    HW2 1794   3.429   1.024   5.298  0.7852 -0.4809  1.5080
  599SOL     OW 1795   4.652   3.653   5.073 -0.1668  0.6236 -0.3466
  599SOL    HW1 1796   4.598   3.636   4.997  0.2576 -0.7452 -0.3681
  599SOL    HW2 1797   4.712   3.722   5.045 -0.4025  0.5448 -1.0550
  600SOL     OW 1798   2.301   3.699   5.989 -0.5081 -0.0837 -0.2560
  600SOL    HW1 1799   2.230   3.641   5.963 -1.6199  0.0634  2.2327
  600SOL    HW2 1800   2.275   3.785   5.956 -0.0857 -0.5002 -1.7478
  601SOL     OW 1801   1.281   3.789   5.836  0.4576  0.2202  0.4249
  601SOL    HW1 1802   1.276   3.884   5.821  3.9446  0.0209 -4.0255
  601SOL    HW2 1803   1.375   3.771   5.840 -0.1082 -3.1378  0.9704
  602SOL     OW 1804   0.929   4.130   4.962 -0.0465  0.2493 -0.6880
  602SOL    HW1 1805   0.876   4.062   4.920  1.5131 -1.9792  0.7348
  602SOL    HW2 1806   0.989   4.159   4.893 -0.3296 -0.2536 -1.1539
  603SOL     OW 1807   4.255   2.244   5.101 -0.3764 -0.3069 -0.3268
  603SOL    HW1 1808   4.226   2.252   5.192 -0.1121  0.7486 -0.3181
  603SOL    HW2 1809   4.325   2.179   5.103 -0.8258 -0.7878  0.1085
  604SOL     OW 1810   3.977   3.601   4.933 -0.7724  0.3075  0.2384
  604SOL    HW1 1811   3.932   3.666   4.986 -1.5425  0.5488 -0.6739
  604SOL    HW2 1812   3.910   3.535   4.913 -1.2887  1.5346 -2.5654
  605SOL     OW 1813   4.374  -0.025   5.170 -0.5673 -0.0625 -0.0038
  605SOL    HW1 1814   4.402   0.053   5.121  0.9832 -0.3741  0.3366
  605SOL    HW2 1815   4.376   0.003   5.262  2.8335 -1.2165  0.4096
  606SOL     OW 1816   4.268   2.471   6.481  0.2062 -0.2098 -0.3290
  606SOL    HW1 1817   4.328   2.416   6.430 -0.6720 -0.9884 -0.5492
  606SOL    HW2 1818   4.315   2.487   6.563  0.1038 -2.1479  0.1711
  607SOL     OW 1819   0.143   3.766   6.458 -0.0147  0.0356  0.5367
  607SOL    HW1 1820   0.183   3.727   6.537  0.9873  0.6282  0.3401
  607SOL    HW2 1821   0.050   3.744   6.465  0.2477 -0.9079  1.3021
  608SOL     OW 1822   2.869   3.275   5.982 -0.1229  0.1617  0.5192
  608SOL    HW1 1823   2.791   3.282   6.038 -1.9276 -1.8829 -1.5249
  608SOL    HW2 1824   2.861   3.189   5.941  1.4032  1.2751 -2.3966
  609SOL     OW 1825   3.756   4.617   8.023 -0.1484  0.1779 -0.2948
  609SOL    HW1 1826   3.705   4.541   7.997  2.5685 -1.0365 -2.6531
  609SOL    HW2 1827   3.698   4.692   8.007 -1.1831 -1.0918 -3.0383
  610SOL     OW 1828   2.319   1.779   7.252  0.0073 -0.0148  0.0185
  610SOL    HW1 1829   2.370   1.780   7.334 -0.3410  2.1351  0.2675
  610SOL    HW2 1830   2.303   1.686   7.236  0.4848 -0.5395  2.1417
  611SOL     OW 1831   1.841   0.541   6.483 -0.3435  0.5884 -0.9443
  611SOL    HW1 1832   1.913   0.497   6.439 -0.3099  1.8426 -2.1908
  611SOL    HW2 1833   1.842   0.504   6.572  1.4993  0.2105 -1.0762
  612SOL     OW 1834   2.068   1.663   6.444 -0.3055 -0.6705  0.6739
  612SOL    HW1 1835   2.006   1.654   6.516  1.1519  1.5172  2.3468
  612SOL    HW2 1836   2.032   1.733   6.390  0.4147  0.2854  1.3959
  613SOL     OW 1837   1.761  -0.010   5.046  0.2922  0.3313  0.0166
  613SOL    HW1 1838   1.841   0.028   5.009 -0.3889  1.7682 -0.0451
  613SOL    HW2 1839   1.713   0.065   5.080 -1.7358 -0.2852 -1.3080
  614SOL     OW 1840   0.345   0.182   6.549  0.3351  0.2644  0.4506
  614SOL    HW1 1841   0.252   0.177   6.529  0.3410 -0.6625  0.6014
  614SOL    HW2 1842   0.381   0.098   6.520  1.2314  0.8336 -0.1418
  615SOL     OW 1843   3.809   0.736   6.158 -0.4203 -0.2181  0.0827
  615SOL    HW1 1844   3.838   0.664   6.103  0.8182  0.2861  0.0365
  615SOL    HW2 1845   3.808   0.700   6.247 -2.1796 -0.9599 -0.1828
  616SOL     OW 1846   3.903   4.219   5.038  0.4823  0.0092 -0.0618
  616SOL    HW1 1847   3.866   4.292   5.089  1.5415  0.1130  0.5891
  616SOL    HW2 1848   3.859   4.141   5.073  0.2234  0.2169  0.0837
  617SOL     OW 1849   0.581   4.116   6.259 -0.2718  0.1239 -0.0192
  617SOL    HW1 1850   0.492   4.081   6.265 -0.2085 -0.0645 -0.1734
  617SOL    HW2 1851   0.604   4.137   6.350 -0.5413  0.3442 -0.0002
  618SOL     OW 1852   3.600   3.304   8.284 -0.7120 -0.0824  0.2057
  618SOL    HW1 1853   3.623   3.258   8.365  0.7898 -0.7391 -0.5556
  618SOL    HW2 1854   3.509   3.278   8.267 -0.9950 -0.0764  1.5577
  619SOL     OW 1855   2.881   1.093   5.757 -0.0499 -0.6201 -0.1712
  619SOL    HW1 1856   2.967   1.132   5.775 -0.1742  1.3590 -3.2689
  619SOL    HW2 1857   2.823   1.132   5.823  0.6811  1.1790 -0.5419
  620SOL     OW 1858   0.911   1.459   6.766  0.2700  0.3723  0.0124
  620SOL    HW1 1859   0.997   1.418   6.755  0.1235 -0.2197  0.9378
  620SOL    HW2 1860   0.918   1.506   6.849 -0.4602 -0.1045  0.3476
  621SOL     OW 1861   4.432   3.373   7.240  0.6266 -0.4377  0.2608
  621SOL    HW1 1862   4.396   3.456   7.208  1.4181  0.4290  1.5637
  621SOL    HW2 1863   4.431   3.316   7.163 -0.3338  0.6312 -0.5568
  622SOL     OW 1864   3.402   0.382   7.456 -0.2763  0.3195 -0.0645
  622SOL    HW1 1865   3.373   0.291   7.447 -1.8090  0.7953 -0.1633
  622SOL    HW2 1866   3.324   0.434   7.438  0.5725  1.6654  0.0218
  623SOL     OW 1867   3.063   3.961   5.567  0.2155 -0.1476  0.3897
  623SOL    HW1 1868   3.072   4.043   5.519 -0.7374 -1.2356 -1.8106
  623SOL    HW2 1869   3.025   3.900   5.503  3.0691 -2.9842  1.1410
  624SOL     OW 1870   4.814   3.789   5.430  0.8852 -0.0700  0.7726
  624SOL    HW1 1871   4.756   3.769   5.503  1.9224 -2.2484  1.0714
  624SOL    HW2 1872   4.825   3.706   5.384  2.0541  0.7566 -0.5216
  625SOL     OW 1873   0.328   4.327   6.327  0.5049  0.0768 -0.4336
  625SOL    HW1 1874   0.330   4.412   6.372  0.7760  0.4826 -1.1983
  625SOL    HW2 1875   0.235   4.304   6.324  0.3913  0.5331 -0.5617
  626SOL     OW 1876   2.182   2.354   5.974  1.0470  0.2370 -0.1167
  626SOL    HW1 1877   2.229   2.304   5.907 -0.4122 -0.6662 -0.5022
  626SOL    HW2 1878   2.157   2.435   5.930 -0.2567 -0.5251 -0.8203
  627SOL     OW 1879   1.027   1.380   6.278 -0.3526  0.0788  0.1096
  627SOL    HW1 1880   0.976   1.369   6.197  0.9741  1.6059 -1.0085
  627SOL    HW2 1881   1.012   1.471   6.302  2.2029  0.7524 -0.5713
  628SOL     OW 1882   2.008   4.227   5.797  0.1017 -0.0641  0.2243
  628SOL    HW1 1883   2.068   4.264   5.863 -0.7956  0.6474  0.6650
  628SOL    HW2 1884   2.003   4.295   5.729 -1.6408  0.7373  1.0871
  629SOL     OW 1885   1.329   4.791   7.174 -0.1278  0.8038 -0.5769
  629SOL    HW1 1886   1.238   4.791   7.202 -0.1056 -0.5335 -0.4719
  629SOL    HW2 1887   1.357   4.700   7.181  1.4607  1.3144  0.1591
  630SOL     OW 1888   2.344   3.294   5.351  0.1944 -0.2512 -0.6198
  630SOL    HW1 1889   2.302   3.218   5.312 -1.4705  1.3024 -2.0849
  630SOL    HW2 1890   2.271   3.348   5.382  1.2120  1.4555 -1.0682
  631SOL     OW 1891   0.033   1.833   7.148 -0.1688 -0.6150 -0.4925
  631SOL    HW1 1892   0.126   1.824   7.127 -0.7590 -1.8346 -2.9945
  631SOL    HW2 1893   0.010   1.921   7.118  0.1806 -0.2945  0.1719
  632SOL     OW 1894   4.672   3.901   7.837  0.6001  0.3712  0.0092
  632SOL    HW1 1895   4.629   3.986   7.837  0.7804  0.5031 -1.7370
  632SOL    HW2 1896   4.719   3.898   7.753  1.6599 -0.9177  0.6131
  633SOL     OW 1897   1.705   3.684   5.262  0.2022 -0.4177 -0.1145
  633SOL    HW1 1898   1.656   3.602   5.269 -0.2508 -0.0521  1.2258
  633SOL    HW2 1899   1.783   3.661   5.212  0.4465 -1.8356  0.8514
  634SOL     OW 1900  -0.002   3.200   4.905  0.6198 -0.4786 -0.4810
  634SOL    HW1 1901   0.028   3.125   4.853  2.0314  0.4933 -1.1380
  634SOL    HW2 1902   0.055   3.201   4.982  0.8564  0.1127 -0.6548
  635SOL     OW 1903   1.210   1.403   5.014 -0.3903  0.3733 -0.0158
  635SOL    HW1 1904   1.250   1.319   4.992  1.2965  1.0569  0.2857
  635SOL    HW2 1905   1.240   1.463   4.946  0.2322  1.2126  0.9593
  636SOL     OW 1906   3.667   3.099   9.351  0.0017  0.1337 -0.3881
  636SOL    HW1 1907   3.701   3.189   9.354  0.9052 -0.2198  0.6808
  636SOL    HW2 1908   3.586   3.103   9.402 -0.7214  0.6286 -1.5435
  637SOL     OW 1909   3.908   4.918   5.312 -0.3403 -0.0289 -0.2086
  637SOL    HW1 1910   3.864   4.956   5.236 -1.2811  0.3898  0.5205
  637SOL    HW2 1911   3.841   4.917   5.380  1.0138  1.5796  1.2682
  638SOL     OW 1912   1.012   3.473   4.591  0.4492  0.2761 -0.9376
  638SOL    HW1 1913   1.034   3.395   4.641  0.9233  0.8601 -0.2099
  638SOL    HW2 1914   1.096   3.515   4.572  0.3989 -0.5326 -3.2882
  639SOL     OW 1915   4.227   3.913   6.938 -0.2106 -0.3103 -0.6250
  639SOL    HW1 1916   4.196   3.954   6.857  0.1862  1.4271  0.0582
  639SOL    HW2 1917   4.155   3.856   6.965 -0.7503 -0.1457 -1.6657
  640SOL     OW 1918   0.198   3.377   7.018 -0.3667 -0.0987 -0.6249
  640SOL    HW1 1919   0.146   3.301   6.995 -1.5102  0.5898 -0.3983
  640SOL    HW2 1920   0.288   3.351   7.000 -0.7414 -1.4755 -0.5915
  641SOL     OW 1921   1.525   1.636   5.818 -0.3564  0.3633  0.3491
  641SOL    HW1 1922   1.546   1.547   5.789 -0.6655  0.5050 -0.3407
  641SOL    HW2 1923   1.435   1.650   5.789  0.5273  1.8633 -2.0251
  642SOL     OW 1924   0.445   1.478   6.685 -0.3211 -0.2283  0.3326
  642SOL    HW1 1925   0.535   1.459   6.658  0.1644 -0.2247  1.8191
  642SOL    HW2 1926   0.443   1.454   6.778 -1.3783  1.3235  0.7489
  643SOL     OW 1927   1.058   3.123   6.821  0.2591  0.5521 -0.6762
  643SOL    HW1 1928   1.103   3.086   6.898 -0.5026 -0.1973 -0.5829
  643SOL    HW2 1929   1.073   3.217   6.828  0.7033  0.4342  0.0692
  644SOL     OW 1930   2.735   5.007   6.182  0.1281  0.6907  0.0653
  644SOL    HW1 1931   2.732   5.016   6.277  1.5968 -1.0749  0.3499
  644SOL    HW2 1932   2.657   4.956   6.161  0.2671  0.3031  0.4613
  645SOL     OW 1933   4.274   1.041   8.222 -0.0117  0.4016 -0.1653
  645SOL    HW1 1934   4.235   1.063   8.137 -0.9122  1.3487  0.4821
  645SOL    HW2 1935   4.210   1.070   8.287  0.4534 -0.7356  0.8457
  646SOL     OW 1936   1.812   0.264   5.664  0.0076  0.0023  0.5592
  646SOL    HW1 1937   1.780   0.196   5.723  0.0059 -0.5432 -0.0476
  646SOL    HW2 1938   1.832   0.217   5.583 -0.6355  0.8210 -0.1023
  647SOL     OW 1939   0.208   4.080   4.946 -0.2577  0.8489  0.1585
  647SOL    HW1 1940   0.258   4.074   4.865 -3.4925 -2.1249 -1.8981
  647SOL    HW2 1941   0.257   4.025   5.009  1.3209  1.6876 -0.2909
  648SOL     OW 1942   2.130   4.982   6.477 -0.3321 -0.1135  0.3068
  648SOL    HW1 1943   2.123   4.909   6.538 -0.5652  0.3358  0.8296
  648SOL    HW2 1944   2.076   4.956   6.402 -0.3697 -0.4976  0.4657
  649SOL     OW 1945   3.199   1.043   5.303  0.4359  0.1282 -0.1524
  649SOL    HW1 1946   3.169   1.097   5.230  1.2428 -1.0844 -1.4154
  649SOL    HW2 1947   3.120   0.999   5.335  0.3456 -0.7417 -1.5071
  650SOL     OW 1948   2.397   2.582   6.875 -0.0466 -0.5937 -0.1824
  650SOL    HW1 1949   2.336   2.652   6.852 -1.4446 -1.5103  0.6169
  650SOL    HW2 1950   2.455   2.622   6.940 -1.8160 -0.5730  1.4634
  651SOL     OW 1951   0.451   2.386   6.136 -0.0969 -0.4064  0.5809
  651SOL    HW1 1952   0.535   2.344   6.117 -0.9049 -1.1409 -1.6879
  651SOL    HW2 1953   0.465   2.479   6.118 -0.3935 -0.8678 -2.4961
  652SOL     OW 1954   1.589   2.225   5.030 -0.0706 -1.0510  0.0257
  652SOL    HW1 1955   1.552   2.148   4.987 -0.1018 -2.6127  2.6166
  652SOL    HW2 1956   1.538   2.234   5.111  0.7891  0.9209  0.4032
  653SOL     OW 1957   4.753   0.046   5.231 -0.0628 -0.2877  0.3295
  653SOL    HW1 1958   4.733   0.042   5.137 -1.0498 -1.5967  0.5711
  653SOL    HW2 1959   4.848   0.058   5.235  0.1957 -1.6640 -0.8398
  654SOL     OW 1960   1.945   2.786   5.447 -0.3705  0.2872 -0.2027
  654SOL    HW1 1961   2.024   2.838   5.464 -1.4485  1.2222  2.4142
  654SOL    HW2 1962   1.968   2.698   5.477  0.0901  0.2022 -0.7683
  655SOL     OW 1963   1.955   1.004   5.446 -0.0025 -0.4569  0.3684
  655SOL    HW1 1964   2.029   0.943   5.440 -0.0364 -0.5225  0.6023
  655SOL    HW2 1965   1.880   0.948   5.465  0.0140 -0.3157  0.8603
  656SOL     OW 1966   0.318   0.971   5.764  0.0550  0.0705 -0.1270
  656SOL    HW1 1967   0.409   0.999   5.758  0.1059 -0.3235 -1.5681
  656SOL    HW2 1968   0.286   1.011   5.845  1.1292  1.3259 -0.2839
  657SOL     OW 1969   0.726   3.262   6.253 -0.1984 -0.7003 -0.1812
  657SOL    HW1 1970   0.716   3.195   6.321 -0.1714  0.1270  0.6630
  657SOL    HW2 1971   0.784   3.222   6.188 -1.4715 -2.0861 -0.5092
  658SOL     OW 1972   0.011   1.295   6.552 -0.3913  0.0528  0.3476
  658SOL    HW1 1973   0.064   1.349   6.494  2.0816 -1.5590  0.9588
  658SOL    HW2 1974  -0.054   1.255   6.494  0.4237  0.4235 -0.8511
  659SOL     OW 1975   2.210   0.195   4.793 -0.3440  0.1751  0.4508
  659SOL    HW1 1976   2.268   0.118   4.798 -0.7161 -0.2414 -1.1326
  659SOL    HW2 1977   2.264   0.268   4.824  0.8053 -0.3366 -0.2909
  660SOL     OW 1978   1.520   1.893   5.667  0.4345 -0.9774  0.8800
  660SOL    HW1 1979   1.522   1.920   5.575  0.3686 -0.4855  1.0224
  660SOL    HW2 1980   1.548   1.802   5.665  0.7523 -0.8762  0.4072
  661SOL     OW 1981   4.189   4.145   4.764 -0.2582 -0.2322 -0.0791
  661SOL    HW1 1982   4.146   4.099   4.836 -0.9910  1.8648  0.8846
  661SOL    HW2 1983   4.156   4.235   4.769  2.3504  0.8566 -0.8566
  662SOL     OW 1984   3.684   4.258   6.987 -0.3328  0.3964  0.2829
  662SOL    HW1 1985   3.737   4.312   7.046 -2.3783  1.4658  1.2878
  662SOL    HW2 1986   3.666   4.178   7.037  1.7152 -0.7549 -0.7432
  663SOL     OW 1987   0.602   4.202   5.675 -0.4265 -0.5766  0.4341
  663SOL    HW1 1988   0.691   4.224   5.649  0.2684 -2.6183  0.9171
  663SOL    HW2 1989   0.605   4.195   5.771 -1.2929  0.0318  0.5228
  664SOL     OW 1990   0.937   1.614   6.103  0.0267 -0.3805 -0.0287
  664SOL    HW1 1991   0.869   1.656   6.051 -0.2375 -0.5264  0.1937
  664SOL    HW2 1992   0.995   1.574   6.038  1.1420  1.5749 -0.3119
  665SOL     OW 1993   1.818   1.846   5.365 -0.4985 -0.4551  0.0826
  665SOL    HW1 1994   1.790   1.883   5.281 -0.1646  0.6736  0.4524
  665SOL    HW2 1995   1.738   1.839   5.416 -0.4752  0.3761  0.2380
  666SOL     OW 1996   1.114   1.506   5.499 -1.0130  0.0571 -0.2403
  666SOL    HW1 1997   1.184   1.445   5.521 -1.4163 -0.1933  0.3627
  666SOL    HW2 1998   1.065   1.462   5.429 -1.7343 -0.6566  0.6805
  667SOL     OW 1999   0.707   0.693   6.928  0.5333 -0.0337 -0.0032
  667SOL    HW1 2000   0.738   0.764   6.985  0.1026  0.8138 -0.8031
  667SOL    HW2 2001   0.687   0.621   6.988 -1.1745  1.2758  1.0696
  668SOL     OW 2002   0.949   1.171   6.046  0.4469 -0.0242  0.4586
  668SOL    HW1 2003   0.922   1.242   5.986  1.9541 -0.6064 -0.9797
  668SOL    HW2 2004   1.038   1.194   6.071  0.6025 -0.9223  0.7478
  669SOL     OW 2005   0.218   0.506   4.974  0.2737  0.2292  0.7908
  669SOL    HW1 2006   0.301   0.523   5.018  0.8125 -0.7765  0.2000
  669SOL    HW2 2007   0.172   0.445   5.032  0.6651 -0.5095  0.3387
  670SOL     OW 2008   1.038   2.889   5.990 -0.1457 -0.6771  0.7201
  670SOL    HW1 2009   1.134   2.887   5.998  0.1147  0.0483 -1.6501
  670SOL    HW2 2010   1.021   2.934   5.908 -2.5539 -1.0183  0.9543
  671SOL     OW 2011   0.550   4.021   7.276  0.5551 -0.1953  0.3308
  671SOL    HW1 2012   0.481   3.973   7.322 -0.3365 -0.6453 -1.3872
  671SOL    HW2 2013   0.629   4.005   7.327 -0.3598 -0.7208  1.6422
  672SOL     OW 2014   0.855   1.886   6.032  0.2518 -0.2852 -0.6928
  672SOL    HW1 2015   0.850   1.903   6.126  1.6468 -0.6750 -0.5312
  672SOL    HW2 2016   0.777   1.833   6.013 -0.6869  0.8045 -0.0087
  673SOL     OW 2017   3.219   0.445   5.829  0.2665  0.1774  0.3624
  673SOL    HW1 2018   3.175   0.363   5.851 -0.4362  0.4309 -0.0547
  673SOL    HW2 2019   3.233   0.489   5.913 -2.5365  1.2257  0.3818
  674SOL     OW 2020   3.617   1.319   7.269 -0.0221  0.6565  0.0231
  674SOL    HW1 2021   3.685   1.383   7.248  0.1916  0.7682  0.9812
  674SOL    HW2 2022   3.616   1.317   7.365  0.1265 -0.9537  0.0089
  675SOL     OW 2023   4.011   4.619   8.736 -0.3050 -0.3413 -0.1566
  675SOL    HW1 2024   3.946   4.564   8.693  0.5456 -0.7593 -0.9522
  675SOL    HW2 2025   4.073   4.558   8.776  0.3370  0.0173 -0.5669
  676SOL     OW 2026   1.622   1.462   6.179 -0.1975 -0.7622  0.0917
  676SOL    HW1 2027   1.685   1.397   6.209  1.6048  0.3888 -0.9581
  676SOL    HW2 2028   1.674   1.522   6.125 -1.5157  2.1062  1.7573
  677SOL     OW 2029   0.083   2.924   4.776 -0.0634 -0.1447  0.1555
  677SOL    HW1 2030   0.161   2.951   4.823  0.4327 -0.9915 -0.1704
  677SOL    HW2 2031   0.114   2.865   4.708 -0.9282 -0.0833 -0.3138
  678SOL     OW 2032   1.436   0.171   5.662  0.0966 -0.4616  0.1067
  678SOL    HW1 2033   1.458   0.097   5.718  0.9863  0.0150  0.4093
  678SOL    HW2 2034   1.393   0.132   5.586  0.3324 -1.2599  0.3754
  679SOL     OW 2035   1.624   1.596   5.223 -0.3412  0.6689  0.0224
  679SOL    HW1 2036   1.581   1.667   5.175 -0.6792 -0.6310 -1.7163
  679SOL    HW2 2037   1.554   1.533   5.239 -0.7892  1.8891  4.2563
  680SOL     OW 2038   2.288   4.056   6.354 -0.5297  0.1209  0.3452
  680SOL    HW1 2039   2.228   4.014   6.292  0.8035 -0.1637 -0.7989
  680SOL    HW2 2040   2.249   4.038   6.440 -0.3254 -3.0353 -0.0982
  681SOL     OW 2041   2.292   3.935   4.507  0.0826  0.7796  0.1649
  681SOL    HW1 2042   2.261   3.978   4.587 -1.8348  2.5562 -1.4498
  681SOL    HW2 2043   2.383   3.964   4.499 -0.2331  2.0361  0.7770
  682SOL     OW 2044   0.862   1.376   5.863 -0.3292  0.0186 -0.0658
  682SOL    HW1 2045   0.868   1.469   5.842  0.1406  0.0174  0.0431
  682SOL    HW2 2046   0.927   1.335   5.806 -1.0441 -0.3374 -0.6462
  683SOL     OW 2047   1.459   1.110   6.304  0.4785 -0.1791 -0.3059
  683SOL    HW1 2048   1.510   1.113   6.385  0.7301 -0.4280 -0.4529
  683SOL    HW2 2049   1.523   1.087   6.236  0.3920  0.6288 -0.6797
  684SOL     OW 2050   4.024   0.802   5.278  1.0110 -0.3422  0.6091
  684SOL    HW1 2051   3.978   0.877   5.315 -1.4860 -1.3724 -0.1841
  684SOL    HW2 2052   4.046   0.829   5.189  1.4034 -0.0559  0.7917
  685SOL     OW 2053   4.273   1.234   7.104  0.2930  0.4143  0.6163
  685SOL    HW1 2054   4.283   1.179   7.182  0.4446  0.7582  0.8426
  685SOL    HW2 2055   4.335   1.198   7.041  0.4636  0.3865  0.7974
  686SOL     OW 2056   3.393   1.082   6.227 -0.2900  0.6752 -0.4985
  686SOL    HW1 2057   3.395   0.987   6.220 -2.2103  0.6797 -1.7717
  686SOL    HW2 2058   3.483   1.110   6.207  0.1990 -0.8367 -0.4859
  687SOL     OW 2059   0.316   2.408   6.725  0.3156  0.2425  0.6517
  687SOL    HW1 2060   0.364   2.472   6.779  0.7941  0.8090 -0.4196
  687SOL    HW2 2061   0.344   2.426   6.636 -0.9031 -0.3082  0.1367
  688SOL     OW 2062   2.995   3.141   5.171  0.0952 -0.5951 -0.2883
  688SOL    HW1 2063   2.980   3.223   5.220 -0.3881 -1.4428  1.0543
  688SOL    HW2 2064   3.046   3.087   5.231  0.0880 -1.4226 -1.0197
  689SOL     OW 2065   3.461   2.983   6.884  0.8878  0.2759 -0.0376
  689SOL    HW1 2066   3.386   3.012   6.936  0.5311 -0.5316 -0.0785
  689SOL    HW2 2067   3.537   2.999   6.940  0.6158  0.4505  0.2865
  690SOL     OW 2068   0.922   0.242   9.137 -0.3047  0.0877 -0.1787
  690SOL    HW1 2069   0.910   0.262   9.230  1.4126  1.4903 -0.2109
  690SOL    HW2 2070   0.963   0.321   9.101 -1.0879 -0.3646 -2.1741
  691SOL     OW 2071   1.919   0.961   6.416 -0.7420  0.1712 -0.3372
  691SOL    HW1 2072   1.939   1.036   6.471 -1.7632  1.4317 -1.6093
  691SOL    HW2 2073   1.823   0.962   6.408 -0.6364 -0.0997 -1.9297
  692SOL     OW 2074   1.296   0.262   7.393  0.3966 -0.2295  0.2168
  692SOL    HW1 2075   1.299   0.227   7.304 -0.3106  2.0398 -0.7980
  692SOL    HW2 2076   1.252   0.194   7.444 -2.5693 -0.2217 -2.0028
  693SOL     OW 2077   3.895   4.743   6.382  0.2334  0.2285 -0.1672
  693SOL    HW1 2078   3.965   4.678   6.392  0.5602  0.2514 -1.9230
  693SOL    HW2 2079   3.821   4.706   6.430  0.7527 -0.9305 -0.2223
  694SOL     OW 2080   3.164   2.684   6.794 -0.0715 -0.7869 -0.0447
  694SOL    HW1 2081   3.071   2.701   6.807  0.2163  0.7133  0.2714
  694SOL    HW2 2082   3.201   2.685   6.882  0.3586 -0.5658 -0.2248
  695SOL     OW 2083   3.740   1.409   7.779 -0.1274  0.7154  0.3046
  695SOL    HW1 2084   3.783   1.330   7.812 -0.3078 -0.1161 -1.3728
  695SOL    HW2 2085   3.675   1.430   7.847 -1.5949 -1.8615 -0.1593
  696SOL     OW 2086   4.659   3.499   7.823  0.0806 -0.5682  0.3565
  696SOL    HW1 2087   4.622   3.412   7.812 -0.3006 -0.3046 -0.5295
  696SOL    HW2 2088   4.586   3.559   7.811  0.7675 -0.0331 -1.5765
  697SOL     OW 2089   1.791   1.007   5.212  0.2339 -0.1226 -0.2945
  697SOL    HW1 2090   1.846   1.072   5.255  2.5179 -1.1934 -1.4230
  697SOL    HW2 2091   1.745   1.056   5.144  2.6059  0.2814 -1.7460
  698SOL     OW 2092   2.007   4.745   4.904  0.5755 -0.5462  0.4950
  698SOL    HW1 2093   1.979   4.802   4.832 -1.0880 -0.3411  1.2430
  698SOL    HW2 2094   2.099   4.767   4.918  0.0480  1.8400  0.6136
  699SOL     OW 2095   0.819   0.126   5.743  0.5254 -0.0228 -0.3332
  699SOL    HW1 2096   0.812   0.031   5.739  4.3203 -0.4694  0.0449
  699SOL    HW2 2097   0.733   0.155   5.774 -0.6734 -3.3090 -0.1912
  700SOL     OW 2098   4.923   1.193   4.573 -0.0270 -0.2981 -0.3575
  700SOL    HW1 2099   4.858   1.155   4.513 -1.3931  0.7873  0.3871
  700SOL    HW2 2100   4.909   1.146   4.655  1.3312 -1.2568 -0.6418
  701SOL     OW 2101   1.691   2.822   7.638 -0.0611  0.5829 -0.2584
  701SOL    HW1 2102   1.617   2.782   7.593  0.4208 -0.3205 -0.2709
  701SOL    HW2 2103   1.678   2.801   7.731 -0.4348  1.4379 -0.1069
  702SOL     OW 2104   3.116   0.217   8.026 -0.1438 -0.2789 -0.4623
  702SOL    HW1 2105   3.144   0.291   7.972 -0.9529  0.1856 -0.2616
  702SOL    HW2 2106   3.193   0.196   8.079 -0.2011  1.1037  0.2214
  703SOL     OW 2107   1.783   2.280   6.645 -0.5493  0.5838 -0.3427
  703SOL    HW1 2108   1.839   2.232   6.706  0.3666  0.2464 -1.4135
  703SOL    HW2 2109   1.790   2.231   6.563 -2.3883  0.5602 -0.5322
  704SOL     OW 2110   1.551   3.226   6.801 -0.5430  0.2659 -0.1571
  704SOL    HW1 2111   1.473   3.254   6.849 -1.3719 -0.0498 -1.2786
  704SOL    HW2 2112   1.522   3.150   6.752  1.0888 -1.2783  1.1504
  705SOL     OW 2113   0.187   3.509   5.607 -0.0559  0.4055 -0.1686
  705SOL    HW1 2114   0.217   3.444   5.670 -1.6400  0.8536  1.1222
  705SOL    HW2 2115   0.219   3.592   5.641  0.6335  0.4762 -0.9667
  706SOL     OW 2116   4.076   0.837   5.663 -0.1907 -0.3273 -0.0370
  706SOL    HW1 2117   4.017   0.877   5.727 -1.7643 -1.2353 -0.8635
  706SOL    HW2 2118   4.127   0.773   5.713  0.1744  0.5185  0.7023
  707SOL     OW 2119   3.586   0.567   6.021 -0.1789  0.6169 -0.3161
  707SOL    HW1 2120   3.645   0.491   6.025 -0.9053  0.0800  0.7742
  707SOL    HW2 2121   3.634   0.632   5.970  0.1352 -0.8414 -1.9855
  708SOL     OW 2122   4.839   4.064   5.712 -0.3371  0.6849  0.5995
  708SOL    HW1 2123   4.878   4.120   5.644 -0.7893  0.7521  0.3877
  708SOL    HW2 2124   4.913   4.032   5.763  0.3719 -1.8738 -1.7922
  709SOL     OW 2125   0.365   3.462   8.115  0.5652 -0.0718  0.6105
  709SOL    HW1 2126   0.362   3.449   8.210  0.5788  0.2471  0.6531
  709SOL    HW2 2127   0.296   3.526   8.097  2.5020  2.1433  0.7731
  710SOL     OW 2128   4.254   3.837   7.270 -0.1817  0.0208 -0.5156
  710SOL    HW1 2129   4.309   3.908   7.302 -1.0312  0.0889  0.9113
  710SOL    HW2 2130   4.173   3.879   7.242 -0.0325 -0.2132 -1.3227
  711SOL     OW 2131   3.402   4.836   5.134  0.2083 -0.4909 -0.0749
  711SOL    HW1 2132   3.318   4.879   5.118  0.6885  0.1034 -1.1197
  711SOL    HW2 2133   3.399   4.757   5.079 -0.1620 -1.1452  0.8631
  712SOL     OW 2134   0.250   4.389   7.681  0.1302  0.3538 -0.7707
  712SOL    HW1 2135   0.183   4.331   7.646  0.4490 -0.1754 -0.5217
  712SOL    HW2 2136   0.302   4.333   7.739  1.1899  0.5882 -1.4653
  713SOL     OW 2137   3.603   4.732   6.163  0.2437 -0.0458  0.2127
  713SOL    HW1 2138   3.678   4.681   6.130  0.2616  0.8192 -1.1906
  713SOL    HW2 2139   3.639   4.819   6.180 -0.1976  0.0455  0.6906
  714SOL     OW 2140   1.142   1.025   4.884 -0.1187  0.2735  0.2544
  714SOL    HW1 2141   1.106   1.011   4.797  0.8905  2.1227 -0.5249
  714SOL    HW2 2142   1.220   0.971   4.887 -0.1084  0.2722 -0.0166
  715SOL     OW 2143   0.067   3.490   9.309 -0.0848 -0.3958  0.1672
  715SOL    HW1 2144   0.149   3.459   9.349  1.4776  1.5543 -1.3266
  715SOL    HW2 2145  -0.001   3.438   9.351  1.8465 -1.6036  2.0004
  716SOL     OW 2146   2.548   1.117   7.285 -0.1735  0.1726  0.9750
  716SOL    HW1 2147   2.560   1.048   7.220  2.4126  0.4136  1.1020
  716SOL    HW2 2148   2.593   1.085   7.363 -1.1165  0.9404  1.8673
  717SOL     OW 2149   1.123   3.128   5.615  0.0830 -0.1232  0.2038
  717SOL    HW1 2150   1.068   3.054   5.639  1.3931 -1.3107 -0.2760
  717SOL    HW2 2151   1.188   3.091   5.555  0.5776  1.4913 -0.3181
  718SOL     OW 2152   0.412   4.659   6.162  0.2853  0.2014  0.3417
  718SOL    HW1 2153   0.462   4.620   6.234 -0.6700  0.2277  1.0485
  718SOL    HW2 2154   0.329   4.686   6.203 -0.2725  0.2280 -0.7730
  719SOL     OW 2155   2.619   3.821   5.554 -1.1912 -0.0160  0.2852
  719SOL    HW1 2156   2.568   3.769   5.616 -1.1134  0.1547  0.4916
  719SOL    HW2 2157   2.582   3.798   5.468 -0.3161 -1.3608  0.2526
  720SOL     OW 2158   3.798   2.258   7.059 -0.4057  0.5414  0.2428
  720SOL    HW1 2159   3.879   2.303   7.035 -0.7647  1.7544  1.1957
  720SOL    HW2 2160   3.823   2.199   7.130 -0.3305  0.8338  0.4601
  721SOL     OW 2161   1.766   2.773   6.881  0.4103 -0.2032  0.0663
  721SOL    HW1 2162   1.832   2.765   6.812  1.0272  1.2930  0.4487
  721SOL    HW2 2163   1.716   2.692   6.875  0.9211 -0.4406 -1.6465
  722SOL     OW 2164   1.131   1.880   5.054 -0.1999  0.0413  0.3920
  722SOL    HW1 2165   1.126   1.820   4.980  0.1186  1.8501 -1.1534
  722SOL    HW2 2166   1.190   1.836   5.116  0.1544 -1.1583 -0.7384
  723SOL     OW 2167   1.363   0.815   7.348  0.6993  0.3099 -0.2684
  723SOL    HW1 2168   1.402   0.901   7.365 -2.8517  2.7594 -2.8158
  723SOL    HW2 2169   1.415   0.780   7.275  0.8110  1.4776 -0.7881
  724SOL     OW 2170   3.584   4.405   7.958  0.4650  0.0323  0.5540
  724SOL    HW1 2171   3.587   4.338   8.027 -0.1775 -2.4606 -1.6813
  724SOL    HW2 2172   3.648   4.374   7.893 -0.2496  1.3228 -0.7934
  725SOL     OW 2173   0.588   1.568   5.775 -0.5984 -0.4017  0.0216
  725SOL    HW1 2174   0.577   1.599   5.685 -0.2081 -0.3047  0.0023
  725SOL    HW2 2175   0.503   1.583   5.816 -0.8851 -0.7666 -0.4230
  726SOL     OW 2176   1.494   4.587   6.688 -0.6418 -0.1283  0.1497
  726SOL    HW1 2177   1.563   4.532   6.651 -1.9633 -1.6602 -0.2058
  726SOL    HW2 2178   1.531   4.674   6.692  0.7037 -0.5489 -1.7056
  727SOL     OW 2179   4.098   3.773   5.312  0.7871 -0.1507 -0.0500
  727SOL    HW1 2180   4.125   3.864   5.300  0.4410 -0.2415 -1.8019
  727SOL    HW2 2181   4.009   3.770   5.278  1.6819 -1.6479 -2.5587
  728SOL     OW 2182   1.137   3.568   4.965 -0.3587  0.4901  0.0964
  728SOL    HW1 2183   1.125   3.544   5.057  3.9163  1.4263  1.1270
  728SOL    HW2 2184   1.121   3.663   4.963 -2.5101  0.1738 -0.7070
  729SOL     OW 2185   4.367   1.818   5.831  0.6272  0.3015 -0.4408
  729SOL    HW1 2186   4.411   1.735   5.849  1.4382  0.9810  0.8626
  729SOL    HW2 2187   4.434   1.885   5.845 -0.8479  1.4164  2.1065
  730SOL     OW 2188   4.326   4.920   6.806 -0.3295 -0.0719  0.4483
  730SOL    HW1 2189   4.232   4.937   6.802 -0.5792 -0.9191  1.9809
  730SOL    HW2 2190   4.366   4.994   6.760 -1.7227  0.3611 -0.1244
  731SOL     OW 2191   1.819   4.740   6.793 -0.3326 -0.2424  0.2732
  731SOL    HW1 2192   1.778   4.658   6.821 -0.9733 -0.2403 -0.6072
  731SOL    HW2 2193   1.750   4.785   6.743 -0.2056  1.1271  1.2733
  732SOL     OW 2194   3.741   3.415   6.252  0.8852  0.6098  0.4966
  732SOL    HW1 2195   3.801   3.454   6.315 -0.0789  0.8722  1.2747
  732SOL    HW2 2196   3.694   3.489   6.213 -0.6193  0.3267  1.6440
  733SOL     OW 2197   0.872   1.852   9.661  0.2295  0.4644 -0.5851
  733SOL    HW1 2198   0.952   1.865   9.610  0.0202 -0.5125 -1.1834
  733SOL    HW2 2199   0.841   1.765   9.636 -2.2444  1.6575 -2.0734
  734SOL     OW 2200   3.531   0.055   8.059 -0.3219  0.5132  0.1223
  734SOL    HW1 2201   3.558   0.111   7.986 -1.5689  0.2981 -0.5461
  734SOL    HW2 2202   3.611   0.012   8.088  0.0230 -0.4186 -2.0357
  735SOL     OW 2203   2.256   4.273   4.979  1.0135  0.7207 -0.1519
  735SOL    HW1 2204   2.288   4.193   5.020  0.7047  0.3588 -0.6149
  735SOL    HW2 2205   2.304   4.343   5.024 -1.7372  0.6524  3.3090
  736SOL     OW 2206   2.308   4.698   4.919  0.4632 -0.0431 -0.4407
  736SOL    HW1 2207   2.303   4.607   4.891  0.7604  0.2586 -1.5156
  736SOL    HW2 2208   2.402   4.717   4.922  0.4132  0.1661  0.0286
  737SOL     OW 2209   0.104   2.417   8.860 -0.0911 -0.1717 -0.3661
  737SOL    HW1 2210   0.179   2.359   8.874  0.0166 -0.2732 -1.2941
  737SOL    HW2 2211   0.093   2.463   8.943  0.5138 -0.7246  0.0248
  738SOL     OW 2212   0.954   0.827   6.317  0.1124 -0.6020  0.2498
  738SOL    HW1 2213   0.923   0.828   6.227  1.2451 -2.4546 -0.2203
  738SOL    HW2 2214   0.879   0.798   6.368 -0.1895 -0.7380 -0.2617
  739SOL     OW 2215   0.403   1.076   8.865  1.0566 -0.8681 -0.2402
  739SOL    HW1 2216   0.316   1.074   8.823  0.4993 -2.7409  0.8748
  739SOL    HW2 2217   0.439   1.161   8.841  0.0570 -1.1133 -3.0386
  740SOL     OW 2218   4.079   0.307   6.033 -0.1512  0.5879 -0.6291
  740SOL    HW1 2219   4.044   0.225   5.998 -0.1004  0.4155 -0.2780
  740SOL    HW2 2220   4.085   0.292   6.127  2.3928  0.0063 -0.7909
  741SOL     OW 2221   1.217   3.482   7.172  0.2013 -0.0724 -0.4305
  741SOL    HW1 2222   1.292   3.535   7.147  0.6598 -0.3310  0.3617
  741SOL    HW2 2223   1.154   3.493   7.100  0.6173  0.8812 -0.6553
  742SOL     OW 2224   2.469   3.479   5.587  0.7031  0.2135  0.3032
  742SOL    HW1 2225   2.439   3.408   5.531 -0.6848 -1.4141  2.9027
  742SOL    HW2 2226   2.563   3.486   5.568  1.2861 -3.4772  0.9807
  743SOL     OW 2227   0.557   3.500   8.764 -0.9316 -0.6830 -0.4499
  743SOL    HW1 2228   0.632   3.452   8.728 -1.6992 -1.3239 -1.2543
  743SOL    HW2 2229   0.589   3.537   8.846  0.3435 -0.7089 -0.9156
  744SOL     OW 2230   2.562   1.983   6.655 -0.1126  0.0707 -1.4273
  744SOL    HW1 2231   2.505   1.932   6.712  2.9264  0.2551  2.2007
  744SOL    HW2 2232   2.513   2.063   6.636 -1.0163  0.4097  1.8284
  745SOL     OW 2233   3.882   1.209   7.984  0.2153 -1.0050  0.2260
  745SOL    HW1 2234   3.938   1.280   8.015 -1.9983  1.3737 -0.9011
  745SOL    HW2 2235   3.820   1.194   8.055 -1.6005  0.8410 -0.8684
  746SOL     OW 2236   3.581   2.433   6.182  0.8453 -0.1584  0.4426
  746SOL    HW1 2237   3.511   2.374   6.212 -0.3196  1.4655  1.0830
  746SOL    HW2 2238   3.660   2.399   6.224  0.5102 -2.1393 -0.4293
  747SOL     OW 2239   0.311   1.096   4.499 -0.3075  0.1709 -0.2708
  747SOL    HW1 2240   0.405   1.096   4.481 -0.1866  1.9192  0.2279
  747SOL    HW2 2241   0.300   1.026   4.564  0.6296 -0.0869 -0.3714
  748SOL     OW 2242   0.347   4.910   6.428 -0.2540  0.5440 -0.3142
  748SOL    HW1 2243   0.289   4.897   6.353 -0.4934 -1.2505  0.1286
  748SOL    HW2 2244   0.435   4.909   6.390 -0.4554  2.8126 -0.9272
  749SOL     OW 2245   3.757   3.285   5.535  0.1434 -0.6055 -0.2640
  749SOL    HW1 2246   3.820   3.355   5.551 -0.2115 -0.3134 -0.1373
  749SOL    HW2 2247   3.694   3.322   5.474 -0.0721 -0.7997 -0.1597
  750SOL     OW 2248   0.341   4.809   7.268 -0.5064  0.1220  0.7028
  750SOL    HW1 2249   0.433   4.791   7.253 -0.6868 -0.0822 -0.2618
  750SOL    HW2 2250   0.296   4.731   7.236 -1.0839  0.7862 -0.1798
  751SOL     OW 2251   4.226   3.235   4.875  0.7041 -0.4214  0.1981
  751SOL    HW1 2252   4.269   3.160   4.833 -0.2536 -0.2084 -1.2605
  751SOL    HW2 2253   4.265   3.312   4.831 -0.2761 -0.1909 -0.3054
  752SOL     OW 2254   1.760   1.950   7.923  0.0837  0.1540  0.4976
  752SOL    HW1 2255   1.855   1.945   7.934  0.4746  1.6717 -1.5661
  752SOL    HW2 2256   1.729   1.996   8.001  0.8995 -1.1101  1.6078
  753SOL     OW 2257   2.811   0.831   5.739 -0.0206  0.5277 -0.5955
  753SOL    HW1 2258   2.740   0.844   5.802  0.2777  3.0065 -0.6691
  753SOL    HW2 2259   2.842   0.919   5.719  2.3419 -0.4136 -1.4446
  754SOL     OW 2260   2.771   0.185   5.936 -0.6730  0.1733 -0.0411
  754SOL    HW1 2261   2.731   0.104   5.967 -2.2349  0.0372 -2.1985
  754SOL    HW2 2262   2.705   0.252   5.951 -1.3527  0.1626 -2.5404
  755SOL     OW 2263   0.453   3.533   6.332 -1.1622  0.5969  0.1179
  755SOL    HW1 2264   0.488   3.622   6.327 -1.5020  0.7631  0.6184
  755SOL    HW2 2265   0.407   3.530   6.416 -1.6375  0.1304 -0.1528
  756SOL     OW 2266   4.357   1.749   6.898  0.0597 -0.4844 -0.0364
  756SOL    HW1 2267   4.372   1.769   6.806 -0.2064 -0.7802 -0.1455
  756SOL    HW2 2268   4.262   1.753   6.909  0.1449  0.4206  0.4276
  757SOL     OW 2269   4.765   0.718   8.406 -1.1083  0.9931  1.0800
  757SOL    HW1 2270   4.824   0.642   8.407 -1.7144  0.0543 -3.9738
  757SOL    HW2 2271   4.678   0.681   8.422 -0.9921  1.4652  3.0125
  758SOL     OW 2272   1.594   3.342   7.165 -0.3059  0.4920 -0.2498
  758SOL    HW1 2273   1.610   3.292   7.085 -0.9409  0.3009 -0.2644
  758SOL    HW2 2274   1.587   3.433   7.135 -1.0053  0.3682 -0.4812
  759SOL     OW 2275   1.961   2.761   6.025  0.2962 -0.1074 -0.1018
  759SOL    HW1 2276   1.941   2.803   6.109  1.4990  0.1457  0.0717
  759SOL    HW2 2277   2.057   2.754   6.024  0.2360 -0.9736 -1.0390
  760SOL     OW 2278   1.894   2.924   4.780  0.4346  0.9864  0.3465
  760SOL    HW1 2279   1.857   2.897   4.864  1.7239 -1.2203  0.2885
  760SOL    HW2 2280   1.838   2.883   4.715  2.2418 -1.5605  0.2525
  761SOL     OW 2281   1.899   4.660   6.389  0.3804  0.1615 -0.6061
  761SOL    HW1 2282   1.827   4.724   6.391  1.1397  1.0635  1.7888
  761SOL    HW2 2283   1.954   4.688   6.316  0.2175  1.7467 -0.1722
  762SOL     OW 2284   3.438   0.351   5.606  0.4412 -0.0285  0.2595
  762SOL    HW1 2285   3.351   0.359   5.646 -0.5602 -1.3886 -1.4988
  762SOL    HW2 2286   3.483   0.431   5.632 -0.4654 -0.3421  3.1953
  763SOL     OW 2287   0.339   3.106   5.356  0.4362 -0.2649  0.5917
  763SOL    HW1 2288   0.287   3.168   5.407  0.0597  1.0796 -1.2937
  763SOL    HW2 2289   0.423   3.101   5.402 -0.7446 -1.2060  2.7838
  764SOL     OW 2290   3.123   4.166   5.753  0.2092  0.2430 -0.1722
  764SOL    HW1 2291   3.189   4.225   5.716  0.7956  1.2043  2.2146
  764SOL    HW2 2292   3.134   4.084   5.706  1.4647  1.1317 -1.4760
  765SOL     OW 2293   1.781   0.918   7.845  0.3495  0.7239 -0.6586
  765SOL    HW1 2294   1.822   0.999   7.816  3.3664 -0.0052  1.1290
  765SOL    HW2 2295   1.821   0.900   7.931 -0.6128 -2.3555 -0.7219
  766SOL     OW 2296   0.560   1.960   6.727 -0.0300 -0.2144 -0.0630
  766SOL    HW1 2297   0.525   1.885   6.679  1.2336 -1.3305  0.6968
  766SOL    HW2 2298   0.611   1.921   6.799 -0.2907  1.3899  1.0304
  767SOL     OW 2299   1.563   2.813   6.509  0.2687  0.3267  0.1718
  767SOL    HW1 2300   1.531   2.723   6.509  1.9855 -0.3302 -1.0701
  767SOL    HW2 2301   1.522   2.853   6.586 -0.3800 -1.5569  0.8561
  768SOL     OW 2302   3.825   3.964   6.813  0.2271 -0.0555 -0.6543
  768SOL    HW1 2303   3.739   3.922   6.819  0.0132  0.5040  0.4876
  768SOL    HW2 2304   3.885   3.902   6.854 -0.4719  1.6768  3.4197
  769SOL     OW 2305   1.506   1.812   5.108 -0.2025  0.5612  0.2907
  769SOL    HW1 2306   1.418   1.801   5.146 -0.2932 -4.5905 -0.6202
  769SOL    HW2 2307   1.492   1.864   5.029 -1.8422  2.3223  1.6383
  770SOL     OW 2308   2.154   0.660   7.103 -0.8263 -0.3812  0.1643
  770SOL    HW1 2309   2.197   0.670   7.188  1.9094  0.6090 -1.2072
  770SOL    HW2 2310   2.181   0.572   7.074 -0.6428 -0.1954 -0.2317
  771SOL     OW 2311   1.041   2.075   7.226 -0.1902  0.0102  0.3655
  771SOL    HW1 2312   1.114   2.126   7.261 -2.7300  2.3673  2.7762
  771SOL    HW2 2313   1.030   2.105   7.136 -0.8050  3.0173  1.3269
  772SOL     OW 2314   0.572   1.043   8.399  0.3902  0.2842  0.4396
  772SOL    HW1 2315   0.499   1.019   8.455 -0.8327  1.2469 -0.6782
  772SOL    HW2 2316   0.555   0.997   8.317  0.3617  1.4508 -0.2348
  773SOL     OW 2317   0.404   3.060   8.689 -0.4981  0.5228  0.7928
  773SOL    HW1 2318   0.315   3.087   8.712 -0.4086  0.1799  1.5604
  773SOL    HW2 2319   0.431   3.123   8.622 -2.1832 -0.8076 -1.2520
  774SOL     OW 2320   0.984   2.909   7.838 -0.5682 -0.0726  0.0102
  774SOL    HW1 2321   0.931   2.952   7.771 -2.0074  1.6031  2.1026
  774SOL    HW2 2322   1.075   2.927   7.812 -1.0901  0.6482 -1.4079
  775SOL     OW 2323   1.889   1.608   6.635  0.3710 -0.7514 -0.4396
  775SOL    HW1 2324   1.795   1.627   6.637  0.3242 -1.0477  0.4006
  775SOL    HW2 2325   1.920   1.626   6.724  0.4812 -3.6925  0.2286
  776SOL     OW 2326   1.205   1.131   5.337 -0.0025 -0.4413  0.7199
  776SOL    HW1 2327   1.136   1.153   5.274 -0.2723  0.4700  1.3122
  776SOL    HW2 2328   1.285   1.128   5.284 -0.1381  0.8615  0.3947
  777SOL     OW 2329   3.677   3.840   5.000  0.0121  0.0094  0.2403
  777SOL    HW1 2330   3.611   3.779   5.032  0.1780  0.2911  1.1390
  777SOL    HW2 2331   3.642   3.872   4.917 -0.6302 -0.3999  0.3474
  778SOL     OW 2332   3.435   4.693   7.369  0.1302  0.5351  0.0369
  778SOL    HW1 2333   3.470   4.694   7.280  3.6605  1.0667  1.2670
  778SOL    HW2 2334   3.448   4.603   7.399  0.7116  0.7793  0.5620
  779SOL     OW 2335   0.984   1.126   5.090 -0.0038  0.0490 -0.0483
  779SOL    HW1 2336   0.892   1.142   5.068  0.2413 -0.5654 -1.6034
  779SOL    HW2 2337   1.008   1.050   5.038  1.0286 -0.6278  1.3658
  780SOL     OW 2338   0.338   0.895   8.524  0.3668  0.4356 -0.0062
  780SOL    HW1 2339   0.346   0.822   8.586 -0.2357  0.8731  0.6056
  780SOL    HW2 2340   0.301   0.856   8.445  1.8431 -0.2752 -0.3836
  781SOL     OW 2341   1.747   4.394   5.628 -0.1860 -0.3966 -0.2774
  781SOL    HW1 2342   1.842   4.390   5.629  0.0421  2.6700  1.1019
  781SOL    HW2 2343   1.725   4.440   5.547 -0.2362  1.4259  0.7207
  782SOL     OW 2344   3.865   1.436   6.432  0.9105  0.5608  0.0330
  782SOL    HW1 2345   3.844   1.384   6.510 -0.7076  2.7657  1.1874
  782SOL    HW2 2346   3.785   1.483   6.412  1.1731 -0.1610 -3.2662
  783SOL     OW 2347   2.666   0.619   6.186 -0.0556  0.1074 -0.2072
  783SOL    HW1 2348   2.700   0.550   6.129  1.2326  0.9612 -0.5179
  783SOL    HW2 2349   2.616   0.573   6.253 -1.2673 -0.9552 -1.7623
  784SOL     OW 2350   4.277   3.540   9.383  0.4120 -0.0109 -0.0509
  784SOL    HW1 2351   4.278   3.485   9.461 -1.6281  0.0978  0.0960
  784SOL    HW2 2352   4.349   3.603   9.397 -1.4761  1.6963  3.0481
  785SOL     OW 2353   1.874   2.280   5.512 -0.3528 -0.5214 -0.3110
  785SOL    HW1 2354   1.888   2.246   5.423 -1.4839 -0.1824 -0.6320
  785SOL    HW2 2355   1.789   2.245   5.537  1.4017 -3.6361  2.0849
  786SOL     OW 2356   3.403   1.385   8.046  0.0441 -0.1135  0.0991
  786SOL    HW1 2357   3.361   1.301   8.026 -0.4059  0.1993 -0.3067
  786SOL    HW2 2358   3.341   1.429   8.104 -2.2845  2.0382 -3.5957
  787SOL     OW 2359   1.123   3.029   8.111 -0.2726  0.1232 -0.1088
  787SOL    HW1 2360   1.054   3.044   8.046  1.3280  0.6505 -1.7604
  787SOL    HW2 2361   1.075   3.018   8.193 -2.2540  2.5574 -0.7949
  788SOL     OW 2362   0.787   2.817   4.999 -0.3309 -0.3105 -0.6592
  788SOL    HW1 2363   0.778   2.897   5.050  0.7744 -1.6585  1.8672
  788SOL    HW2 2364   0.793   2.847   4.908 -3.4658  2.1634 -0.2184
  789SOL     OW 2365   4.817   0.700   9.300 -0.7931 -0.3792 -0.5032
  789SOL    HW1 2366   4.751   0.664   9.360 -0.8587 -0.2317 -0.4851
  789SOL    HW2 2367   4.766   0.732   9.225 -0.5918 -1.8064 -1.2726
  790SOL     OW 2368   2.984   0.876   5.037 -0.1376 -0.3704  0.0782
  790SOL    HW1 2369   3.072   0.889   5.002 -0.1869 -0.7772 -0.2010
  790SOL    HW2 2370   2.954   0.964   5.061 -0.8228  0.2050 -2.6010
  791SOL     OW 2371   0.443   2.659   5.517 -0.6210 -0.1255 -0.0121
  791SOL    HW1 2372   0.381   2.716   5.563  1.9433  2.7893  0.1703
  791SOL    HW2 2373   0.456   2.702   5.432  1.0446 -0.6708 -0.0698
  792SOL     OW 2374   0.793   3.162   9.985  0.1631  0.2453 -0.4911
  792SOL    HW1 2375   0.871   3.124   9.945 -0.1018  0.8280 -1.6005
  792SOL    HW2 2376   0.733   3.087   9.995  0.4751 -0.0243 -0.6097
  793SOL     OW 2377   1.152   3.101   8.547 -0.3046  0.0627 -0.2350
  793SOL    HW1 2378   1.213   3.172   8.525  1.0307 -0.9663  0.0495
  793SOL    HW2 2379   1.069   3.146   8.562  0.9259  1.8466  1.9142
  794SOL     OW 2380   0.161   3.371   6.102 -0.0152  0.8821 -0.5882
  794SOL    HW1 2381   0.221   3.445   6.089  0.7102  0.5942  0.9869
  794SOL    HW2 2382   0.212   3.294   6.080  0.7047  0.5220  2.0533
  795SOL     OW 2383   1.719   3.929   9.693  0.6743 -0.0593 -0.2411
  795SOL    HW1 2384   1.685   3.919   9.782 -2.9952  2.1605 -1.1780
  795SOL    HW2 2385   1.673   3.862   9.642 -0.1151  1.0617 -1.0467
  796SOL     OW 2386   1.804   4.391   9.480  0.0500  0.1089 -0.8686
  796SOL    HW1 2387   1.815   4.314   9.425 -0.0518  0.7670 -1.8388
  796SOL    HW2 2388   1.750   4.360   9.553  0.5691 -0.8887 -0.8877
  797SOL     OW 2389   1.350   4.274   9.684 -0.1109 -0.0812 -0.1085
  797SOL    HW1 2390   1.275   4.317   9.726 -0.9432  0.2511 -1.8481
  797SOL    HW2 2391   1.387   4.219   9.753 -0.8912  1.0588  1.2928
  798SOL     OW 2392   1.936   2.867   8.410  0.0536  0.9325 -0.0295
  798SOL    HW1 2393   1.970   2.870   8.321 -1.3925 -0.8298 -0.7062
  798SOL    HW2 2394   2.000   2.816   8.459  0.9676  2.0999  0.0357
  799SOL     OW 2395   1.111   2.625   6.644  0.2757 -0.3735  0.6485
  799SOL    HW1 2396   1.059   2.626   6.724  0.7331  0.6602  0.9380
  799SOL    HW2 2397   1.197   2.657   6.670  0.2737  0.5060 -0.3536
  800SOL     OW 2398   2.537  -0.020   9.166  0.0536 -0.9858  0.0710
  800SOL    HW1 2399   2.548   0.075   9.167  1.0464 -1.0843  0.0068
  800SOL    HW2 2400   2.549  -0.044   9.075  0.1521 -1.1996  0.1395
  801SOL     OW 2401   2.548   3.094  10.113 -0.2120  0.6629 -0.6937
  801SOL    HW1 2402   2.456   3.107  10.136  0.3623  2.7750  0.6921
  801SOL    HW2 2403   2.566   3.162  10.049  0.5237  0.5852 -0.5745
  802SOL     OW 2404   1.236   3.114   6.251  0.5623  0.1761  0.8697
  802SOL    HW1 2405   1.204   3.130   6.163  0.9748  2.3728  1.0737
  802SOL    HW2 2406   1.331   3.122   6.245  0.6890 -0.8083  1.3133
  803SOL     OW 2407   3.077   3.614   5.216  0.2961 -0.1456 -0.4401
  803SOL    HW1 2408   3.063   3.660   5.299 -0.6501  0.9730 -1.1839
  803SOL    HW2 2409   3.172   3.614   5.205  0.3893  0.3980  0.2641
  804SOL     OW 2410   4.333   4.977   7.537  0.3042 -0.2547  0.2432
  804SOL    HW1 2411   4.389   5.009   7.609 -0.1187  1.3266 -0.0850
  804SOL    HW2 2412   4.394   4.952   7.468  0.6553  0.3394  0.3314
  805SOL     OW 2413   0.710   1.681   6.823 -1.0721 -0.0548  0.5700
  805SOL    HW1 2414   0.804   1.667   6.832 -0.9312  0.5723  0.1701
  805SOL    HW2 2415   0.671   1.594   6.828 -0.2809 -0.5820 -1.3581
  806SOL     OW 2416   1.358   1.317   5.543 -0.0531  1.1449 -0.8700
  806SOL    HW1 2417   1.390   1.231   5.514  1.5746  1.3161  0.2968
  806SOL    HW2 2418   1.420   1.344   5.610 -2.8136  1.4179  1.7472
  807SOL     OW 2419   3.298   2.759   8.652  0.2881  0.3880  0.1343
  807SOL    HW1 2420   3.313   2.780   8.745 -0.1560  1.4684 -0.0147
  807SOL    HW2 2421   3.292   2.845   8.609  0.3266 -0.0985 -0.8711
  808SOL     OW 2422   2.332   2.658   7.341 -0.0094 -0.4773  0.3811
  808SOL    HW1 2423   2.423   2.642   7.366 -0.1425 -1.1119  0.4773
  808SOL    HW2 2424   2.284   2.656   7.424 -0.3125 -1.6112  0.1985
  809SOL     OW 2425   1.427   3.116   5.141  0.5865 -0.5975  0.2226
  809SOL    HW1 2426   1.375   3.150   5.214  0.3276 -0.4972 -0.0052
  809SOL    HW2 2427   1.385   3.152   5.063  2.7254  1.9857  0.1004
  810SOL     OW 2428   2.697   1.860   6.906 -0.1214 -0.2425  0.4327
  810SOL    HW1 2429   2.715   1.950   6.880  0.1059 -0.1805  0.7950
  810SOL    HW2 2430   2.761   1.841   6.974  0.4613 -0.9920 -0.2937
  811SOL     OW 2431   2.101   0.524   7.937  0.1928 -0.1110 -0.8830
  811SOL    HW1 2432   2.057   0.582   7.875  1.7799  1.0624 -0.9796
  811SOL    HW2 2433   2.063   0.437   7.921  1.1839 -0.0687 -4.1966
  812SOL     OW 2434   0.962   3.491  10.405  0.5171  0.2975 -0.7220
  812SOL    HW1 2435   1.009   3.537  10.474  0.7330  0.2916 -0.8653
  812SOL    HW2 2436   1.011   3.511  10.325 -0.8431  1.9692 -1.2155
  813SOL     OW 2437   2.969   3.227   6.220 -0.4554 -0.2064  0.1745
  813SOL    HW1 2438   2.975   3.258   6.130 -0.5915 -0.2782  0.1401
  813SOL    HW2 2439   3.052   3.183   6.236 -0.3352  0.0226  0.1641
  814SOL     OW 2440   3.756   4.468   6.809  0.0002  0.0796  0.7633
  814SOL    HW1 2441   3.724   4.386   6.846  3.7124 -0.8477  2.3665
  814SOL    HW2 2442   3.815   4.441   6.738 -2.2880  1.6661 -1.9792
  815SOL     OW 2443   0.461   1.394   8.866 -0.3524 -0.3746  0.4262
  815SOL    HW1 2444   0.480   1.382   8.959  0.2166 -0.9206  0.2505
  815SOL    HW2 2445   0.400   1.468   8.863  0.3518  0.2591  1.1689
  816SOL     OW 2446   3.786   4.099   5.349 -0.0176  0.1878  0.2884
  816SOL    HW1 2447   3.843   4.126   5.422 -1.3843 -0.0581  1.4779
  816SOL    HW2 2448   3.726   4.173   5.337 -0.7746 -0.3961  0.4314
  817SOL     OW 2449   3.948   3.841   6.244  0.0106 -0.1845  0.5529
  817SOL    HW1 2450   4.038   3.848   6.275 -0.0468  0.7694  0.5424
  817SOL    HW2 2451   3.947   3.888   6.160 -0.9841  1.9063  1.6567
  818SOL     OW 2452   4.387   3.113  10.035 -0.0757  0.6007 -0.2277
  818SOL    HW1 2453   4.366   3.078   9.948  0.4356 -1.3439  0.3808
  818SOL    HW2 2454   4.362   3.044  10.096 -0.7162  2.0544  1.2361
  819SOL     OW 2455   4.164   1.742   8.119 -0.0273 -0.8641  0.7185
  819SOL    HW1 2456   4.116   1.723   8.200 -0.3518 -2.6082  0.1539
  819SOL    HW2 2457   4.229   1.807   8.145 -0.4257 -1.0392  2.2837
  820SOL     OW 2458   3.238   3.779   6.560  0.3851 -0.2496  0.7967
  820SOL    HW1 2459   3.219   3.860   6.607 -0.4950  0.0479 -0.0318
  820SOL    HW2 2460   3.164   3.768   6.501  2.1271  0.1757 -1.5940
  821SOL     OW 2461   2.408   2.978   5.616  0.0362 -0.4449 -0.1233
  821SOL    HW1 2462   2.499   2.967   5.643 -0.8554 -0.2612  3.4781
  821SOL    HW2 2463   2.413   3.032   5.537  3.0159 -0.6605 -0.2041
  822SOL     OW 2464   4.973   4.296   7.595 -0.2174  0.1601  0.1039
  822SOL    HW1 2465   4.988   4.377   7.547 -0.4606 -0.9152 -1.8753
  822SOL    HW2 2466   4.884   4.304   7.628  0.2072  1.2206  1.0498
  823SOL     OW 2467   3.783   2.132   6.812 -0.0405  0.5101 -0.2225
  823SOL    HW1 2468   3.715   2.186   6.769  0.5230  0.4857 -1.1763
  823SOL    HW2 2469   3.774   2.153   6.905 -1.5555  0.2912 -0.2825
  824SOL     OW 2470   0.833   3.557   4.954 -0.6962 -0.7416 -0.0880
  824SOL    HW1 2471   0.928   3.564   4.956 -0.5443 -1.2107 -2.4724
  824SOL    HW2 2472   0.804   3.590   5.039  1.5665 -0.3028  0.5637
  825SOL     OW 2473   0.660   2.404   9.979 -0.3228  0.0552  0.6253
  825SOL    HW1 2474   0.644   2.370   9.891  0.2408 -0.4340  0.6993
  825SOL    HW2 2475   0.670   2.325  10.033 -0.9092  0.3526  1.1752
  826SOL     OW 2476   1.404   1.659   8.037  0.1668 -0.1796 -0.5285
  826SOL    HW1 2477   1.483   1.634   7.990  0.3405 -0.2605 -0.1924
  826SOL    HW2 2478   1.339   1.676   7.968 -0.4038 -2.9497 -0.7669
  827SOL     OW 2479   3.148   0.937   7.390 -0.4915  0.5624  0.4591
  827SOL    HW1 2480   3.241   0.954   7.374  0.0400 -1.8818  0.6434
  827SOL    HW2 2481   3.141   0.842   7.395 -2.8854  0.7168  1.2815
  828SOL     OW 2482   2.811   3.247   7.420 -0.2484 -0.6247  0.2072
  828SOL    HW1 2483   2.808   3.205   7.505 -0.3188 -1.5225 -0.2288
  828SOL    HW2 2484   2.817   3.341   7.440 -0.2743 -0.8197  1.1886
  829SOL     OW 2485   1.487   3.835   7.529 -0.0653 -0.2892  0.2165
  829SOL    HW1 2486   1.403   3.872   7.557 -0.4099  0.2310 -1.3913
  829SOL    HW2 2487   1.500   3.759   7.586 -1.3408 -0.0310  0.8846
  830SOL     OW 2488   0.541   1.732   7.524 -0.3319  1.0096 -0.1653
  830SOL    HW1 2489   0.509   1.706   7.438 -2.1009  1.8832  0.1828
  830SOL    HW2 2490   0.519   1.659   7.581 -0.8131  1.1952 -0.1131
  831SOL     OW 2491   1.985   4.627   6.999 -0.2282 -0.0331 -0.0979
  831SOL    HW1 2492   1.931   4.617   6.921 -0.2644 -0.0086 -0.0759
  831SOL    HW2 2493   1.973   4.718   7.026 -0.8588 -0.2588  0.4135
  832SOL     OW 2494   1.196   4.258   7.509  0.4726 -0.0499  0.2226
  832SOL    HW1 2495   1.173   4.344   7.544  1.4586 -0.7809  2.9285
  832SOL    HW2 2496   1.277   4.272   7.460  0.2116  0.6843 -0.0025
  833SOL     OW 2497   1.933   1.464   8.382  0.5023  0.2197  0.1234
  833SOL    HW1 2498   1.862   1.527   8.378  0.1412 -0.2012 -0.1468
  833SOL    HW2 2499   2.011   1.517   8.398  0.6447  1.0858 -2.8563
  834SOL     OW 2500   3.846   3.441   7.462  0.2414  0.9544 -0.1408
  834SOL    HW1 2501   3.933   3.420   7.497 -0.1716 -1.9535 -0.6420
  834SOL    HW2 2502   3.791   3.449   7.540  0.7969  2.3232  0.1524
  835SOL     OW 2503   0.606   3.576   7.403 -0.1411 -0.9427 -0.2555
  835SOL    HW1 2504   0.601   3.605   7.494 -2.2269 -0.3059 -0.5130
  835SOL    HW2 2505   0.614   3.481   7.409 -0.4588 -0.9285  0.6064
  836SOL     OW 2506   2.674   1.561   5.943 -0.3099 -0.0283 -0.3883
  836SOL    HW1 2507   2.712   1.633   5.892  0.4158 -1.3518 -1.7974
  836SOL    HW2 2508   2.594   1.538   5.897  0.0153 -0.8172 -0.5780
  837SOL     OW 2509   1.943   0.495   6.810 -0.0038 -0.0742 -0.4876
  837SOL    HW1 2510   1.853   0.466   6.799  0.4729 -2.9155  1.8345
  837SOL    HW2 2511   1.939   0.562   6.877 -0.4859  0.7231 -1.2988
  838SOL     OW 2512   2.745   1.638   6.670  0.3881 -0.8210 -0.3547
  838SOL    HW1 2513   2.757   1.707   6.604 -1.4590  1.3957  1.4297
  838SOL    HW2 2514   2.778   1.677   6.751 -0.3779 -2.1985  0.6638
  839SOL     OW 2515   0.457   1.279   8.614 -0.2671  0.3538 -0.3105
  839SOL    HW1 2516   0.519   1.271   8.542 -0.4532  0.2907 -0.4662
  839SOL    HW2 2517   0.502   1.332   8.680 -0.2160  0.6947 -0.6128
  840SOL     OW 2518   0.286   3.118   7.953  0.6487  0.4664  0.0839
  840SOL    HW1 2519   0.246   3.179   7.892 -0.4088  0.1753  0.4625
  840SOL    HW2 2520   0.287   3.034   7.906  0.9254  0.4970  0.0335
  841SOL     OW 2521   0.841   2.367   5.199  0.2779 -0.2483 -0.1744
  841SOL    HW1 2522   0.911   2.376   5.133  0.1810  0.3812 -0.1980
  841SOL    HW2 2523   0.787   2.445   5.187  0.5314  0.1282  0.9744
  842SOL     OW 2524   2.147   1.836   9.966 -0.0913 -0.4498  0.4592
  842SOL    HW1 2525   2.171   1.751  10.003 -1.4213 -1.3299 -0.5734
  842SOL    HW2 2526   2.215   1.854   9.901  1.0450  0.0490  1.7556
  843SOL     OW 2527   1.056   3.401   8.438  0.6292 -0.0194 -0.1446
  843SOL    HW1 2528   1.103   3.338   8.383  0.4862 -2.2133  2.0635
  843SOL    HW2 2529   0.964   3.387   8.418  0.6643  0.6378 -0.7898
  844SOL     OW 2530   0.578   4.068   8.840  0.0035 -0.0504  0.7088
  844SOL    HW1 2531   0.492   4.050   8.879  0.0911 -0.7786  0.5657
  844SOL    HW2 2532   0.617   4.133   8.899 -0.0614 -0.7730  1.5762
  845SOL     OW 2533   2.880   2.868   7.905 -0.5217 -0.0342 -0.1531
  845SOL    HW1 2534   2.815   2.797   7.901 -0.9787  0.3218  0.7976
  845SOL    HW2 2535   2.907   2.872   7.996 -0.1921  0.7471 -0.2736
  846SOL     OW 2536   0.258   0.871   7.025 -0.2575 -0.4997 -0.2895
  846SOL    HW1 2537   0.337   0.905   6.983  0.7551 -1.5486  0.6833
  846SOL    HW2 2538   0.186   0.900   6.969  0.9421 -0.9327 -2.1449
  847SOL     OW 2539   1.231   2.706   5.873 -0.1541  0.7674  0.2929
  847SOL    HW1 2540   1.178   2.627   5.869  1.2167 -0.1752  0.1471
  847SOL    HW2 2541   1.293   2.690   5.944  0.7534  1.2991 -0.3569
  848SOL     OW 2542   4.585   3.534   6.470 -0.6286 -0.7792 -0.8059
  848SOL    HW1 2543   4.589   3.446   6.506 -2.5870 -1.0821 -1.2253
  848SOL    HW2 2544   4.530   3.526   6.392 -0.2593  0.7031 -1.2562
  849SOL     OW 2545   0.302   4.728   9.607  0.1888 -1.0830  0.4025
  849SOL    HW1 2546   0.234   4.691   9.551 -0.2032 -0.4905  0.4824
  849SOL    HW2 2547   0.381   4.679   9.584 -0.0755 -1.1885 -0.3129
  850SOL     OW 2548   0.472   0.785   7.481 -0.3773 -0.5269 -0.2738
  850SOL    HW1 2549   0.441   0.717   7.421  1.3776  0.4928 -2.4809
  850SOL    HW2 2550   0.397   0.844   7.491 -1.0118 -1.2540 -0.6169
  851SOL     OW 2551   4.787   2.926   8.666  0.2611  0.6191 -0.4684
  851SOL    HW1 2552   4.824   2.979   8.596  0.1721  1.5729  0.1867
  851SOL    HW2 2553   4.713   2.978   8.699 -0.4179 -0.3408 -0.4288
  852SOL     OW 2554   4.865   3.190   8.785 -0.4225 -0.4175 -0.1229
  852SOL    HW1 2555   4.857   3.282   8.760  0.3642 -0.6940 -1.4693
  852SOL    HW2 2556   4.777   3.153   8.771 -0.6301  0.0238  0.0075
  853SOL     OW 2557   2.365   2.128  10.029 -0.0539  0.7705 -0.7982
  853SOL    HW1 2558   2.342   2.187  10.101  1.8003  0.3996  0.1781
  853SOL    HW2 2559   2.285   2.121   9.976 -1.4374  1.1808  1.1325
  854SOL     OW 2560   0.523   0.112   8.796  0.4136  0.1816 -0.5642
  854SOL    HW1 2561   0.564   0.052   8.733 -2.2932 -1.1856 -1.1800
  854SOL    HW2 2562   0.571   0.097   8.878  2.8397  0.6844 -1.8092
  855SOL     OW 2563   1.849   1.554   8.995 -0.0655  0.4422 -0.0709
  855SOL    HW1 2564   1.916   1.584   9.057 -1.7766  0.2231  2.0083
  855SOL    HW2 2565   1.810   1.635   8.962  0.3141  0.5542 -0.2556
  856SOL     OW 2566   3.707   2.358   5.900 -0.0428  0.5116  0.1988
  856SOL    HW1 2567   3.653   2.348   5.978  1.0400 -2.7130  0.6941
  856SOL    HW2 2568   3.794   2.379   5.933  0.3238 -0.4349 -0.1200
  857SOL     OW 2569   4.066  -0.019   7.135  0.4804  0.0022  0.1482
  857SOL    HW1 2570   4.159  -0.016   7.158  0.2583  0.0490  1.0610
  857SOL    HW2 2571   4.033   0.069   7.155  0.5229  0.4348 -1.4934
  858SOL     OW 2572   3.675   4.554   8.775 -0.2504  0.3869 -0.1033
  858SOL    HW1 2573   3.644   4.622   8.716 -1.7067 -0.1213  0.0359
  858SOL    HW2 2574   3.679   4.475   8.721  2.1897  0.6706 -0.4721
  859SOL     OW 2575   2.264   3.491   7.234 -0.2579 -0.9401  0.1932
  859SOL    HW1 2576   2.228   3.455   7.315 -0.1459  0.0495  0.6936
  859SOL    HW2 2577   2.230   3.581   7.230  2.0119  0.0068  0.6273
  860SOL     OW 2578   4.802   4.696   6.959  0.3360  0.5524  0.6271
  860SOL    HW1 2579   4.746   4.723   6.886  0.2646 -0.8640  0.1375
  860SOL    HW2 2580   4.750   4.717   7.037 -0.2929  0.5367  0.2195
  861SOL     OW 2581   0.844   0.607   5.413  0.7961 -0.3056  0.3914
  861SOL    HW1 2582   0.915   0.562   5.368  0.8519  0.0320  0.1379
  861SOL    HW2 2583   0.826   0.552   5.490  1.8711  0.0084  0.8936
  862SOL     OW 2584   2.420   1.874   5.024 -0.2559  0.5255 -0.3981
  862SOL    HW1 2585   2.333   1.869   5.065 -0.2249  2.1735 -0.0649
  862SOL    HW2 2586   2.474   1.919   5.088  1.0545 -1.0295 -0.3436
  863SOL     OW 2587   3.556   4.411   8.437 -0.5512 -0.0302  0.1215
  863SOL    HW1 2588   3.478   4.466   8.434 -0.1608  0.5039 -2.5626
  863SOL    HW2 2589   3.557   4.376   8.526 -1.4550  3.3788  1.6456
  864SOL     OW 2590   4.880   1.926   8.018 -0.8284  0.0334 -0.0812
  864SOL    HW1 2591   4.929   1.921   7.936 -2.3521 -2.1228 -0.9483
  864SOL    HW2 2592   4.835   2.010   8.014  0.3279  0.6505 -0.6877
  865SOL     OW 2593   1.280   3.732   9.231  0.4561 -0.4185  0.4123
  865SOL    HW1 2594   1.317   3.780   9.306 -0.0389 -1.2669  1.2209
  865SOL    HW2 2595   1.186   3.742   9.241  0.3681 -1.0699  0.2655
  866SOL     OW 2596   4.873   2.577   9.352  0.1199 -0.0515  0.2892
  866SOL    HW1 2597   4.855   2.485   9.334 -2.6387  1.0478 -4.2026
  866SOL    HW2 2598   4.812   2.601   9.422 -1.4865 -1.0259 -0.7238
  867SOL     OW 2599   0.423   3.305  10.036 -0.5172  1.0272  0.0209
  867SOL    HW1 2600   0.424   3.224  10.087  3.2683  1.9072  1.6207
  867SOL    HW2 2601   0.393   3.278   9.949 -3.5719 -1.1942  1.5870
  868SOL     OW 2602   2.351   3.245   6.221 -0.7382 -0.9306 -0.6216
  868SOL    HW1 2603   2.404   3.322   6.200 -0.8553 -0.7526 -0.2731
  868SOL    HW2 2604   2.263   3.280   6.238 -0.3814 -0.8872  1.4541
  869SOL     OW 2605   3.891   1.155   6.057  0.6340 -0.6015  0.1307
  869SOL    HW1 2606   3.834   1.125   6.128 -1.8361 -2.0416 -2.2507
  869SOL    HW2 2607   3.837   1.216   6.007  2.3657  0.5340 -0.4382
  870SOL     OW 2608   2.871   4.915   5.337 -0.3720  0.2417 -0.0249
  870SOL    HW1 2609   2.777   4.931   5.325 -0.2054  1.2195 -0.1174
  870SOL    HW2 2610   2.913   4.995   5.305  0.5367 -0.4615 -0.6253
  871SOL     OW 2611   1.624   4.811   7.480 -0.0874  0.6478  0.4309
  871SOL    HW1 2612   1.596   4.720   7.492  1.5076 -0.2932 -2.2140
  871SOL    HW2 2613   1.559   4.862   7.529 -1.5022 -1.8319  1.3516
  872SOL     OW 2614   1.342   4.060   8.844 -0.1171  0.7078 -0.1868
  872SOL    HW1 2615   1.257   4.039   8.804  0.0124 -3.4827  1.2851
  872SOL    HW2 2616   1.405   4.004   8.798  0.6430 -1.3056  3.0053
  873SOL     OW 2617   4.292   2.197   6.223  0.3244  0.1337 -0.7180
  873SOL    HW1 2618   4.204   2.192   6.262 -0.0287 -0.5496 -1.5587
  873SOL    HW2 2619   4.276   2.229   6.134  1.1084  1.6038 -0.3568
  874SOL     OW 2620   3.830   1.265   9.590  0.5373 -0.1837  0.0104
  874SOL    HW1 2621   3.916   1.238   9.556 -0.0840 -1.3845 -0.7179
  874SOL    HW2 2622   3.829   1.360   9.580  0.9584 -0.3318 -2.0785
  875SOL     OW 2623   2.420   4.899   6.988  0.2563  0.1826  0.4255
  875SOL    HW1 2624   2.432   4.921   6.896  0.4385 -1.7335 -0.0565
  875SOL    HW2 2625   2.442   4.806   6.993  0.1419  0.2231  2.3915
  876SOL     OW 2626   4.177   1.785   6.235 -0.0439 -0.7281 -0.2910
  876SOL    HW1 2627   4.133   1.822   6.159 -0.3064 -1.1048 -0.3284
  876SOL    HW2 2628   4.265   1.823   6.234 -1.0164  1.8108  1.0377
  877SOL     OW 2629   4.523   3.742   9.684  0.0857 -0.0075  0.1892
  877SOL    HW1 2630   4.476   3.663   9.708  0.2067 -0.1846 -0.1455
  877SOL    HW2 2631   4.611   3.729   9.718 -0.0439  0.2253  0.6182
  878SOL     OW 2632   4.558   3.669   8.069 -0.5692 -0.0657 -0.3808
  878SOL    HW1 2633   4.616   3.700   7.999  1.2164 -0.7812  0.7047
  878SOL    HW2 2634   4.504   3.746   8.090 -1.8384 -0.0848 -3.1017
  879SOL     OW 2635   3.007   2.021   7.296  0.2642 -0.0339 -0.5455
  879SOL    HW1 2636   3.052   1.957   7.241  0.0367 -0.2629 -0.4672
  879SOL    HW2 2637   2.957   2.074   7.234 -1.3916 -1.3892 -0.4524
  880SOL     OW 2638   2.238   4.224   8.335  0.0587  0.4308 -0.2672
  880SOL    HW1 2639   2.159   4.277   8.336  0.4899  1.0861 -0.0991
  880SOL    HW2 2640   2.267   4.223   8.427 -0.1625 -0.4336 -0.2008
  881SOL     OW 2641   3.315   4.124   6.401  0.2198  0.7525 -0.0238
  881SOL    HW1 2642   3.403   4.159   6.415 -0.8354  3.5495  0.2764
  881SOL    HW2 2643   3.321   4.076   6.319  2.3623 -0.5813  0.8108
  882SOL     OW 2644   0.722   3.301   7.394  0.4173 -0.6553  0.2745
  882SOL    HW1 2645   0.673   3.226   7.363  1.0349 -1.6791  1.6677
  882SOL    HW2 2646   0.814   3.279   7.377  0.6061 -0.2516  0.7156
  883SOL     OW 2647   1.106   1.909   8.204  0.0224  0.5266 -1.0399
  883SOL    HW1 2648   1.200   1.891   8.199  0.0050 -0.1064  0.4432
  883SOL    HW2 2649   1.065   1.833   8.164  0.1188 -0.0214 -0.1362
  884SOL     OW 2650   4.812   1.649   6.670  0.2537  0.2227  0.7191
  884SOL    HW1 2651   4.830   1.670   6.578 -0.1634  0.4446  0.6847
  884SOL    HW2 2652   4.790   1.556   6.669  0.5836  0.1462  0.6430
  885SOL     OW 2653   0.881   4.041   6.588 -0.7586  0.8341 -0.0286
  885SOL    HW1 2654   0.937   4.045   6.510 -0.5864  0.0311  0.0503
  885SOL    HW2 2655   0.793   4.029   6.554 -0.5245 -1.0178 -0.0882
  886SOL     OW 2656   0.771   2.771   5.443 -0.3449 -0.6648  0.0128
  886SOL    HW1 2657   0.866   2.761   5.448 -0.3517 -0.2701  1.5391
  886SOL    HW2 2658   0.742   2.767   5.534 -1.6091  0.9246 -0.2692
  887SOL     OW 2659   1.121   3.000   7.579 -0.2769  0.3753  0.6064
  887SOL    HW1 2660   1.147   3.092   7.578 -0.7641  0.5087 -0.4963
  887SOL    HW2 2661   1.197   2.954   7.615  0.4754  1.0586 -0.0839
  888SOL     OW 2662   0.413   2.684   9.986  0.5898  0.2986 -0.6155
  888SOL    HW1 2663   0.384   2.654  10.072 -1.0384  2.2590 -0.3869
  888SOL    HW2 2664   0.391   2.612   9.927 -1.4053  0.1976  0.1523
  889SOL     OW 2665   0.925   3.131   6.066 -0.0810  0.5429  0.4703
  889SOL    HW1 2666   0.951   3.044   6.034  1.3344 -0.0502  2.9629
  889SOL    HW2 2667   0.954   3.191   5.997  0.7861 -0.8086 -0.3993
  890SOL     OW 2668   4.309   3.297   8.328  0.5826 -0.4699  0.7297
  890SOL    HW1 2669   4.282   3.315   8.237  0.8428  0.0918  0.7579
  890SOL    HW2 2670   4.356   3.376   8.355 -0.5490 -0.1166  1.7667
  891SOL     OW 2671   1.689   4.529   6.905  0.1150 -0.0570 -0.5960
  891SOL    HW1 2672   1.653   4.566   6.985  2.3290  0.6385  0.1410
  891SOL    HW2 2673   1.615   4.484   6.864 -1.7895  2.0507  0.3402
  892SOL     OW 2674   1.843   2.505   8.381  0.4231  0.3738  0.5793
  892SOL    HW1 2675   1.800   2.500   8.466 -2.1275 -2.1463 -0.6948
  892SOL    HW2 2676   1.787   2.562   8.328 -0.3730 -1.3790 -0.5494
  893SOL     OW 2677   4.674   2.039   5.781  0.6327  0.3159 -0.1676
  893SOL    HW1 2678   4.696   1.993   5.699  0.4832  0.8098 -0.4893
  893SOL    HW2 2679   4.589   2.079   5.763  0.8232  0.8251  0.0664
  894SOL     OW 2680   0.109   3.966   5.542  0.1286  0.5737 -0.1333
  894SOL    HW1 2681   0.084   3.951   5.633  1.0026  1.2703  0.2349
  894SOL    HW2 2682   0.084   3.886   5.496  1.8772 -0.7926  1.1623
  895SOL     OW 2683   1.036   2.478   5.787 -0.4902  0.9756 -0.3266
  895SOL    HW1 2684   0.949   2.440   5.782 -0.1947 -0.5305  3.2146
  895SOL    HW2 2685   1.085   2.436   5.717 -2.1962  0.7435 -1.4326
  896SOL     OW 2686   0.131   2.317   9.262  0.0278  0.3650  0.6480
  896SOL    HW1 2687   0.134   2.317   9.357  2.5353  2.4743  0.6760
  896SOL    HW2 2688   0.162   2.230   9.237  0.3701  0.1578  1.7448
  897SOL     OW 2689   0.081   1.834   8.868 -0.7477  0.2708 -0.0894
  897SOL    HW1 2690   0.124   1.898   8.926  0.0759  0.4785 -0.9008
  897SOL    HW2 2691   0.051   1.765   8.927  3.1481 -1.2942  0.4012
  898SOL     OW 2692   1.015   4.952   8.512  0.0335 -0.3161 -0.1196
  898SOL    HW1 2693   1.094   4.971   8.462  0.4806 -0.0053  0.6886
  898SOL    HW2 2694   1.025   5.002   8.593 -1.4341  0.4930 -0.4076
  899SOL     OW 2695   0.507   2.411   5.719  0.5031  0.1081 -0.3713
  899SOL    HW1 2696   0.601   2.397   5.727  0.4403 -0.9509 -1.1859
  899SOL    HW2 2697   0.497   2.503   5.698  1.3049  0.3893  0.4342
  900SOL     OW 2698   0.838   4.038   6.293 -0.1580  0.1957 -0.4133
  900SOL    HW1 2699   0.757   4.081   6.267 -0.5004  0.7152  1.3633
  900SOL    HW2 2700   0.906   4.085   6.246 -0.7614  0.8969 -0.5983
  901SOL     OW 2701   0.712   0.120   9.013 -0.1032  0.7422 -0.4637
  901SOL    HW1 2702   0.787   0.171   9.044  1.2889 -0.8507 -1.0744
  901SOL    HW2 2703   0.697   0.054   9.081  3.0482 -2.8534 -2.8223
  902SOL     OW 2704   0.864   3.456   8.256 -0.4624 -0.8264  0.0060
  902SOL    HW1 2705   0.894   3.547   8.260  0.4128 -1.1361  1.4164
  902SOL    HW2 2706   0.914   3.418   8.184 -2.8257  0.4241 -2.4624
  903SOL     OW 2707   1.674   2.510   6.797 -0.3276 -0.3942  0.6262
  903SOL    HW1 2708   1.728   2.451   6.850 -0.5756 -0.0610  1.2588
  903SOL    HW2 2709   1.674   2.470   6.710 -2.2009 -2.4771  1.4856
  904SOL     OW 2710   3.487   0.940   9.267 -0.4606 -0.5904  0.4202
  904SOL    HW1 2711   3.396   0.964   9.253  0.4012  1.5627 -2.4005
  904SOL    HW2 2712   3.506   0.875   9.200  0.6502  0.7802 -0.6572
  905SOL     OW 2713   3.775   4.163   8.057  0.8863  0.6604 -0.1297
  905SOL    HW1 2714   3.780   4.238   7.999  1.6729 -0.7204 -1.9367
  905SOL    HW2 2715   3.765   4.087   7.999  1.5300 -0.7791  1.5195
  906SOL     OW 2716   4.189   1.232   7.584 -0.0008 -0.0519  0.5772
  906SOL    HW1 2717   4.146   1.285   7.651  0.9883  1.1043  0.3177
  906SOL    HW2 2718   4.137   1.247   7.505  1.8124  2.8397 -0.2168
  907SOL     OW 2719   1.283   4.497   9.221 -0.2272 -0.6276  0.4060
  907SOL    HW1 2720   1.219   4.429   9.197  0.2640 -0.5768 -1.1870
  907SOL    HW2 2721   1.367   4.451   9.221  0.5509  0.3941 -3.5633
  908SOL     OW 2722   3.724   3.224   7.239  1.1845 -0.0320 -0.2552
  908SOL    HW1 2723   3.729   3.224   7.144  0.2248  0.0423 -0.3143
  908SOL    HW2 2724   3.748   3.314   7.264  0.8218  0.1327 -0.4766
  909SOL     OW 2725   1.522   3.396   8.678 -0.4416  0.9804  0.1044
  909SOL    HW1 2726   1.528   3.490   8.658  0.9177  0.9152  0.0871
  909SOL    HW2 2727   1.499   3.393   8.771 -0.2747  1.3478  0.1631
  910SOL     OW 2728   0.159   3.396  10.390 -0.0158  0.1985  0.7777
  910SOL    HW1 2729   0.218   3.434  10.455  0.4197 -0.6018  0.8619
  910SOL    HW2 2730   0.071   3.418  10.423  0.2140  1.3316  0.6837
  911SOL     OW 2731   2.845   1.397   8.626 -0.3916  0.8256 -0.2001
  911SOL    HW1 2732   2.883   1.309   8.629 -0.0801  0.9620  0.0408
  911SOL    HW2 2733   2.751   1.383   8.638 -0.1325  0.6595  2.1986
  912SOL     OW 2734   2.095   4.681   6.192  0.1789  0.0694  0.2123
  912SOL    HW1 2735   2.189   4.668   6.193  0.0467 -1.1720 -0.7284
  912SOL    HW2 2736   2.083   4.770   6.160  1.0389  0.6799  1.5211
  913SOL     OW 2737   0.336   0.669   6.431 -0.7300  0.3065  0.0773
  913SOL    HW1 2738   0.408   0.731   6.443  0.8752 -1.6113  0.7045
  913SOL    HW2 2739   0.351   0.600   6.495 -3.5135  0.1140  0.6861
  914SOL     OW 2740   2.298   2.917   8.280  0.6883 -0.7135  0.7799
  914SOL    HW1 2741   2.223   2.866   8.251  1.0684 -1.1963  0.6258
  914SOL    HW2 2742   2.372   2.855   8.277  1.3731  0.1107 -0.4469
  915SOL     OW 2743   0.769   2.375   8.415 -0.3692 -0.1572  0.1705
  915SOL    HW1 2744   0.842   2.334   8.461 -0.5022 -1.6053 -0.8531
  915SOL    HW2 2745   0.773   2.340   8.326 -0.8075  1.6972 -0.6199
  916SOL     OW 2746   4.107   3.996   6.724  0.0887 -0.7091 -0.2230
  916SOL    HW1 2747   4.078   3.919   6.676 -0.3283 -1.2471  0.8579
  916SOL    HW2 2748   4.028   4.049   6.733  0.0638 -0.8229  0.2489
  917SOL     OW 2749   3.302   1.051   8.054 -0.5540 -0.1029  0.5030
  917SOL    HW1 2750   3.229   1.082   8.000  0.0070  1.8227  0.7904
  917SOL    HW2 2751   3.371   1.031   7.991 -0.8566 -0.6012  0.3251
  918SOL     OW 2752   1.045   2.167   6.307 -0.1320  0.5815 -0.0993
  918SOL    HW1 2753   1.089   2.237   6.355 -1.1433 -0.0515  1.8565
  918SOL    HW2 2754   0.969   2.145   6.361 -1.4750 -0.0589 -2.1162
  919SOL     OW 2755   0.881   1.254   7.516 -0.3381 -0.1080 -0.2112
  919SOL    HW1 2756   0.832   1.301   7.584 -0.6770 -2.1303  1.0267
  919SOL    HW2 2757   0.814   1.223   7.455 -0.0137  1.9369 -1.7255
  920SOL     OW 2758   2.919   0.222   7.447  0.4131 -0.5092  0.2179
  920SOL    HW1 2759   2.989   0.238   7.384 -0.7837 -0.5664 -1.1549
  920SOL    HW2 2760   2.845   0.193   7.395 -0.5098 -0.9319  1.6925
  921SOL     OW 2761   1.253   3.853   8.594 -0.3598  0.3192 -0.2220
  921SOL    HW1 2762   1.318   3.832   8.661 -1.1265 -0.2401  0.3700
  921SOL    HW2 2763   1.230   3.768   8.556 -1.0311  0.4527 -0.1348
  922SOL     OW 2764   0.740   0.254   7.036 -0.7452  0.0161  0.0212
  922SOL    HW1 2765   0.817   0.234   7.089 -0.9058  2.3542  1.2550
  922SOL    HW2 2766   0.773   0.307   6.964 -0.9398 -0.6612 -0.5719
  923SOL     OW 2767   2.878   1.716   7.794  0.0163 -0.0736  0.2730
  923SOL    HW1 2768   2.812   1.685   7.856  0.1318  0.7472  0.8147
  923SOL    HW2 2769   2.941   1.644   7.789  0.2219 -0.0032  1.4305
  924SOL     OW 2770   2.090   3.017   7.348 -0.7783  0.3183 -0.3505
  924SOL    HW1 2771   2.048   3.085   7.296 -2.1916 -0.8087 -0.7385
  924SOL    HW2 2772   2.110   2.948   7.286 -0.2885 -0.0641  0.2151
  925SOL     OW 2773   4.650   4.330   8.328 -0.2640  0.4270  0.5936
  925SOL    HW1 2774   4.686   4.242   8.340  1.6666  1.0095 -0.4537
  925SOL    HW2 2775   4.616   4.329   8.238  0.1014  0.8442  0.4468
  926SOL     OW 2776   4.638   2.753   9.310  0.6537  0.2738  1.0489
  926SOL    HW1 2777   4.716   2.737   9.257 -0.8612 -4.0717 -0.3479
  926SOL    HW2 2778   4.668   2.749   9.400  2.3341  1.1068  0.5632
  927SOL     OW 2779   2.645   2.276   7.013  0.0937  0.3896 -0.2526
  927SOL    HW1 2780   2.672   2.316   6.931  0.0241 -1.5642 -1.2739
  927SOL    HW2 2781   2.566   2.227   6.991 -0.8376  1.1004  1.3432
  928SOL     OW 2782   1.284   3.988   4.386  0.2691  0.0988 -0.2927
  928SOL    HW1 2783   1.211   3.964   4.443 -1.2769  3.9615 -0.3413
  928SOL    HW2 2784   1.262   3.948   4.301  0.4865 -2.2468  0.6777
  929SOL     OW 2785   2.087   1.721   6.010 -0.3551 -0.6227  0.9205
  929SOL    HW1 2786   2.102   1.638   5.965  0.4983 -1.6585  3.0047
  929SOL    HW2 2787   2.003   1.752   5.975 -0.6532 -2.3123  0.0437
  930SOL     OW 2788   0.098   3.642   9.110  0.9886 -0.0263  0.3136
  930SOL    HW1 2789   0.109   3.581   9.183 -0.8903  1.5770  2.0232
  930SOL    HW2 2790   0.004   3.660   9.107  0.6154 -1.5532 -3.8721
  931SOL     OW 2791   1.576   2.040   6.196  0.1448 -0.4472  0.2360
  931SOL    HW1 2792   1.485   2.065   6.208  0.7222  3.0090 -1.2548
  931SOL    HW2 2793   1.577   1.992   6.113 -0.3360 -0.7535  0.4034
  932SOL     OW 2794   4.021   0.991   8.882 -0.3949 -0.6666 -1.3671
  932SOL    HW1 2795   4.038   0.916   8.939 -0.0346 -1.5576 -2.5956
  932SOL    HW2 2796   4.065   0.969   8.800 -0.6573  0.7024 -1.9112
  933SOL     OW 2797   4.778   4.362   6.947 -0.1386  0.1504 -0.2495
  933SOL    HW1 2798   4.783   4.442   6.895 -0.1369  2.0094  2.4068
  933SOL    HW2 2799   4.724   4.303   6.895  0.3950  1.6042 -2.6028
  934SOL     OW 2800   4.049   1.977   8.425  0.4456 -0.0900 -0.4536
  934SOL    HW1 2801   3.977   1.918   8.404  1.1660 -0.3222 -2.4431
  934SOL    HW2 2802   4.009   2.046   8.477 -0.7689 -1.3399  0.3597
  935SOL     OW 2803   0.245   0.377   8.913 -0.2922 -0.8737 -0.6689
  935SOL    HW1 2804   0.168   0.365   8.968 -1.2225  0.5394 -1.6009
  935SOL    HW2 2805   0.315   0.329   8.957 -1.8734 -2.8215 -0.1865
  936SOL     OW 2806   4.995   1.023   9.392 -0.1879  0.3114 -0.6307
  936SOL    HW1 2807   4.952   1.021   9.306 -3.0311 -1.2831  0.6873
  936SOL    HW2 2808   4.972   1.109   9.428 -1.6325 -0.1824 -0.3032
  937SOL     OW 2809   2.614   4.690   9.996  0.3949 -0.3753 -0.5338
  937SOL    HW1 2810   2.654   4.776   9.985 -3.1713  1.3093 -2.0263
  937SOL    HW2 2811   2.629   4.645   9.913 -1.4579  0.6738 -1.5114
  938SOL     OW 2812   0.629   3.057   6.428 -0.1933 -0.1415  0.0324
  938SOL    HW1 2813   0.699   3.045   6.492 -1.2261 -1.6365  0.9240
  938SOL    HW2 2814   0.558   3.098   6.478 -1.1849 -1.7564  0.0138
  939SOL     OW 2815   2.259   4.555   6.722 -0.5250  0.1348  0.6771
  939SOL    HW1 2816   2.323   4.564   6.651 -1.0999  3.1246  0.3774
  939SOL    HW2 2817   2.175   4.541   6.678 -0.3733 -2.2470  1.0146
  940SOL     OW 2818   1.666   2.212   8.416 -0.4290  0.0326 -0.6333
  940SOL    HW1 2819   1.670   2.261   8.334  1.3068  2.4086  0.7389
  940SOL    HW2 2820   1.601   2.259   8.468 -2.3581 -2.1275 -0.9587
  941SOL     OW 2821   2.176   0.769   9.820  0.1444 -0.4160 -0.0729
  941SOL    HW1 2822   2.188   0.864   9.824  1.8413 -0.4105 -2.8895
  941SOL    HW2 2823   2.083   0.758   9.797 -0.8240  0.3376  2.9853
  942SOL     OW 2824   3.352   3.465   6.864 -0.4817 -0.0253 -0.2978
  942SOL    HW1 2825   3.405   3.495   6.939  0.4079  1.5148 -1.4782
  942SOL    HW2 2826   3.293   3.538   6.846  1.4842  1.0530 -3.0230
  943SOL     OW 2827   3.907   4.074   9.642 -0.2671 -0.3729  0.2466
  943SOL    HW1 2828   3.934   4.145   9.699 -2.3450 -0.6878  1.7211
  943SOL    HW2 2829   3.957   3.998   9.672 -2.9455 -1.1159  3.3943
  944SOL     OW 2830   4.666   4.000   7.424 -0.8798 -0.5571  0.2954
  944SOL    HW1 2831   4.625   4.021   7.340  1.3993  0.6049 -0.6291
  944SOL    HW2 2832   4.685   4.085   7.464  0.6676 -1.0075  0.6065
  945SOL     OW 2833   2.097   3.733   7.198  0.5170  0.2912 -0.0961
  945SOL    HW1 2834   2.027   3.694   7.251  2.7681 -1.1886  2.0386
  945SOL    HW2 2835   2.102   3.824   7.229  0.4026  0.0192  0.7695
  946SOL     OW 2836   1.195   0.818   7.043  0.1802  0.1216  0.0473
  946SOL    HW1 2837   1.117   0.772   7.073  0.1319  0.3176  0.2226
  946SOL    HW2 2838   1.243   0.753   6.991 -0.3323  0.1470 -0.4549
  947SOL     OW 2839   4.785   4.241   6.202 -0.2897 -0.6942 -0.2838
  947SOL    HW1 2840   4.760   4.317   6.150 -1.4902  0.0200  1.2380
  947SOL    HW2 2841   4.735   4.169   6.164 -1.3258 -0.1398 -0.0084
  948SOL     OW 2842   3.367   0.791   6.264  0.0387  0.1498  0.5455
  948SOL    HW1 2843   3.413   0.715   6.301  1.2960  1.2374  1.3244
  948SOL    HW2 2844   3.276   0.762   6.254  0.5800 -1.6005  0.3528
  949SOL     OW 2845   2.096   3.121   8.050  0.0518  0.7366 -0.7321
  949SOL    HW1 2846   2.021   3.066   8.028 -0.7690  1.5188  0.0300
  949SOL    HW2 2847   2.170   3.060   8.058 -1.4199 -0.7897  3.3266
  950SOL     OW 2848   2.790   1.215   6.283 -0.9943  0.1212  0.0915
  950SOL    HW1 2849   2.875   1.183   6.313 -0.0137  0.0882 -2.4969
  950SOL    HW2 2850   2.729   1.188   6.351  0.8335 -1.2251  1.2786
  951SOL     OW 2851   3.074   0.717   6.219  0.7538 -0.6328 -0.2577
  951SOL    HW1 2852   2.999   0.764   6.182  1.3758  0.6183 -0.0162
  951SOL    HW2 2853   3.043   0.628   6.232 -1.0013  0.0475  0.6617
  952SOL     OW 2854   3.304   4.508   8.486  0.0657  0.1513  0.6221
  952SOL    HW1 2855   3.285   4.468   8.571 -0.1300 -4.9733 -1.4632
  952SOL    HW2 2856   3.237   4.576   8.476 -5.3363 -4.3395  1.5517
  953SOL     OW 2857   2.154   3.257   7.739 -0.8114 -0.1947  0.1135
  953SOL    HW1 2858   2.174   3.302   7.821  0.6857  0.7428 -0.7191
  953SOL    HW2 2859   2.136   3.167   7.764 -0.2854  0.0560  1.4568
  954SOL     OW 2860   1.725   3.643   8.654 -0.7470 -0.2526 -0.0350
  954SOL    HW1 2861   1.743   3.564   8.603  0.1646  0.0561 -0.2152
  954SOL    HW2 2862   1.642   3.676   8.618  0.2990  0.4502 -1.9871
  955SOL     OW 2863   4.575   0.476   5.058  0.7769 -0.3168 -0.9980
  955SOL    HW1 2864   4.607   0.457   4.970  1.4412 -0.0453 -0.8187
  955SOL    HW2 2865   4.480   0.486   5.048  1.0726  1.9870 -2.0929
  956SOL     OW 2866   2.466   0.064   6.062 -0.4977  0.3778  0.0859
  956SOL    HW1 2867   2.459  -0.002   5.994 -0.7584  0.6103 -0.1159
  956SOL    HW2 2868   2.381   0.063   6.106  0.6402 -1.9611  2.4700
  957SOL     OW 2869   3.348   2.694   7.315 -0.7472 -0.7416  0.3235
  957SOL    HW1 2870   3.380   2.743   7.391 -2.0677 -2.8530  2.3590
  957SOL    HW2 2871   3.253   2.702   7.320 -0.8932 -1.6713 -0.5864
  958SOL     OW 2872   1.436   4.308   7.991 -0.9241  0.3960  0.3766
  958SOL    HW1 2873   1.430   4.213   7.999 -0.1708  0.2332 -0.7385
  958SOL    HW2 2874   1.516   4.322   7.940 -2.4607  1.5100 -1.8283
  959SOL     OW 2875   3.760   2.320   9.352 -0.4211  0.7606  0.3598
  959SOL    HW1 2876   3.749   2.388   9.419 -1.1702  0.8082  0.1903
  959SOL    HW2 2877   3.803   2.366   9.280 -0.5490  0.9572  0.4071
  960SOL     OW 2878   1.509   2.352   5.494 -0.1861 -0.3975  0.4253
  960SOL    HW1 2879   1.512   2.307   5.578  1.4965 -0.1035  0.5599
  960SOL    HW2 2880   1.521   2.444   5.515  0.7262 -0.3691 -0.1464
  961SOL     OW 2881   0.823   4.111   5.254  0.2004 -0.3167 -0.3386
  961SOL    HW1 2882   0.761   4.180   5.229 -2.8238 -2.6542  0.1058
  961SOL    HW2 2883   0.861   4.082   5.171  1.0890  1.4050 -0.5803
  962SOL     OW 2884   2.828   3.516   9.533  0.1349 -0.6878 -0.6466
  962SOL    HW1 2885   2.855   3.598   9.575  0.7090 -0.7336 -0.9128
  962SOL    HW2 2886   2.733   3.520   9.532  0.1555 -0.0513 -0.5894
  963SOL     OW 2887   4.764   1.736   7.191 -0.0025 -0.2705 -0.5228
  963SOL    HW1 2888   4.848   1.778   7.211  0.4898 -2.4220  2.9019
  963SOL    HW2 2889   4.769   1.716   7.098  2.9779  0.3792 -0.6223
  964SOL     OW 2890   4.626   3.136   9.931  0.2650  0.4195  0.1399
  964SOL    HW1 2891   4.683   3.198   9.977 -0.5815  1.0272  0.4036
  964SOL    HW2 2892   4.548   3.130   9.986 -0.0546 -0.1601 -0.3639
  965SOL     OW 2893   2.078   4.286   9.477 -0.0188  0.4430 -0.3889
  965SOL    HW1 2894   2.015   4.247   9.539  1.2058 -2.0317 -0.5917
  965SOL    HW2 2895   2.043   4.263   9.391  0.8512 -0.5163 -0.5061
  966SOL     OW 2896   1.165   1.488   5.955  0.1965  0.4050 -0.2625
  966SOL    HW1 2897   1.184   1.413   5.898 -1.2307  0.3083 -0.6516
  966SOL    HW2 2898   1.235   1.487   6.020  0.0764 -1.4052 -0.1148
  967SOL     OW 2899   0.679   2.784   9.813 -0.3410 -0.2632 -0.7691
  967SOL    HW1 2900   0.727   2.707   9.783  1.6039  0.3704  0.5486
  967SOL    HW2 2901   0.641   2.756   9.897  0.3853  0.1851 -0.2784
  968SOL     OW 2902   4.854   1.149   6.755 -0.2723  0.3147 -0.5377
  968SOL    HW1 2903   4.824   1.190   6.837 -2.7002  0.4231 -1.4094
  968SOL    HW2 2904   4.902   1.219   6.710 -0.9036  0.9680 -0.2170
  969SOL     OW 2905   3.079   3.428   7.795 -0.2320 -0.4265  0.0482
  969SOL    HW1 2906   3.023   3.447   7.871  2.3716  0.0170  1.9789
  969SOL    HW2 2907   3.088   3.333   7.795  2.9090 -0.2854  2.8847
  970SOL     OW 2908   2.723   0.457   8.755  0.2698  0.2453 -0.2259
  970SOL    HW1 2909   2.785   0.429   8.822  0.1077  0.7135  0.1278
  970SOL    HW2 2910   2.753   0.414   8.675  3.2786  3.2111 -0.9476
  971SOL     OW 2911   2.968   2.397   7.842  0.0535  0.2851 -0.3428
  971SOL    HW1 2912   3.058   2.381   7.869  0.2698  0.5539 -0.9023
  971SOL    HW2 2913   2.970   2.484   7.802 -0.7609  0.9984  1.0869
  972SOL     OW 2914   4.593   3.276   9.073  0.4365  0.1547  0.2967
  972SOL    HW1 2915   4.529   3.206   9.087  0.1585  0.5515  1.0673
  972SOL    HW2 2916   4.612   3.272   8.979 -0.1561 -0.4467  0.1883
  973SOL     OW 2917   2.443   2.179   6.518  0.1332  0.5921 -0.0869
  973SOL    HW1 2918   2.359   2.141   6.491  0.2589  0.7890 -0.7825
  973SOL    HW2 2919   2.420   2.259   6.564 -0.0206  1.9440 -2.3577
  974SOL     OW 2920   0.906   4.007   9.127 -0.3913  0.2870 -0.1396
  974SOL    HW1 2921   0.987   4.049   9.156  0.1079 -1.6320  1.4716
  974SOL    HW2 2922   0.894   3.935   9.188 -1.9950 -0.9964 -1.8747
  975SOL     OW 2923   0.202   4.478   6.052  0.4106  0.3501 -0.1166
  975SOL    HW1 2924   0.123   4.517   6.089  1.1252  0.6344  1.1655
  975SOL    HW2 2925   0.269   4.547   6.059  0.8676 -0.0087 -0.8395
  976SOL     OW 2926   2.776   0.483   7.821  0.3971 -0.4138  0.0757
  976SOL    HW1 2927   2.706   0.535   7.862 -0.3962 -0.7564 -0.8062
  976SOL    HW2 2928   2.851   0.542   7.818 -0.0928  0.2353  0.3087
  977SOL     OW 2929   0.644   2.941   6.986 -0.4934 -0.6337 -0.2594
  977SOL    HW1 2930   0.643   2.878   6.915 -0.0820 -1.9017  0.8176
  977SOL    HW2 2931   0.737   2.962   6.998 -0.2945 -2.1522  1.3184
  978SOL     OW 2932   1.213   2.897   6.441  0.7136 -0.6232 -0.6706
  978SOL    HW1 2933   1.242   2.983   6.411  0.0052 -0.3168 -0.4920
  978SOL    HW2 2934   1.120   2.907   6.457  0.9971 -0.8392  1.3851
  979SOL     OW 2935   1.084   4.263   7.244 -0.2172  0.3693 -0.0718
  979SOL    HW1 2936   1.088   4.233   7.335  2.1789 -1.9905 -0.8704
  979SOL    HW2 2937   1.074   4.184   7.192  2.7196  1.1695 -2.0908
  980SOL     OW 2938   4.379   3.337  10.207 -0.1985  0.2670 -0.3377
  980SOL    HW1 2939   4.387   3.273  10.137  2.3037  0.2660 -0.1193
  980SOL    HW2 2940   4.311   3.301  10.265 -0.9160 -0.6766 -1.7172
  981SOL     OW 2941   4.718   1.557   8.900  0.8067  0.0735  0.2421
  981SOL    HW1 2942   4.628   1.536   8.924  0.5541 -0.7848 -1.3658
  981SOL    HW2 2943   4.734   1.509   8.819  2.8896 -0.2079  0.7601
  982SOL     OW 2944   4.706   3.123   9.370  0.5847  0.1651  0.0938
  982SOL    HW1 2945   4.612   3.135   9.386  0.5161 -1.1832  0.8387
  982SOL    HW2 2946   4.719   3.154   9.280 -0.2043  2.1117  0.6031
  983SOL     OW 2947   1.695   4.860   9.989 -0.3059  0.2934  0.2975
  983SOL    HW1 2948   1.608   4.890  10.013 -0.2539  2.3426 -1.7396
  983SOL    HW2 2949   1.686   4.832   9.898  1.3315  1.3852 -0.2381
  984SOL     OW 2950   4.868   3.663   6.500  0.4107  0.2429 -0.3647
  984SOL    HW1 2951   4.886   3.631   6.588 -0.0051  1.0163  0.0084
  984SOL    HW2 2952   4.774   3.647   6.487 -0.1619  2.5509  0.3933
  985SOL     OW 2953   1.293   4.635   7.519 -0.0446  0.0842  0.0803
  985SOL    HW1 2954   1.258   4.617   7.431 -1.6533  1.5762  0.3661
  985SOL    HW2 2955   1.311   4.548   7.555  0.1575 -0.5841 -1.5189
  986SOL     OW 2956   0.082   2.230   8.658  0.1471  0.1560 -0.4660
  986SOL    HW1 2957   0.169   2.195   8.638  0.7105  1.0621  0.3277
  986SOL    HW2 2958   0.099   2.312   8.705 -1.1057 -0.4766  1.2037
  987SOL     OW 2959   2.102   1.913   7.590  0.2699 -0.3048 -0.2497
  987SOL    HW1 2960   2.080   1.824   7.560 -2.4788 -0.5990  2.2183
  987SOL    HW2 2961   2.180   1.901   7.645 -0.4801 -1.3587  0.6322
  988SOL     OW 2962   2.067   3.647   5.727  0.5657  0.0930 -0.0069
  988SOL    HW1 2963   2.058   3.560   5.767  0.1515  0.6209  1.0841
  988SOL    HW2 2964   2.118   3.631   5.647 -1.5665 -1.5393 -1.1733
  989SOL     OW 2965   3.030   1.466   6.868  0.2939 -0.6824  0.1037
  989SOL    HW1 2966   2.981   1.395   6.909 -1.4372  0.6970  0.5411
  989SOL    HW2 2967   3.036   1.442   6.775 -0.6455 -1.1889  0.1729
  990SOL     OW 2968   4.997   2.389   4.809  0.2413 -0.2613  0.0114
  990SOL    HW1 2969   4.933   2.452   4.775  2.3067  1.4040 -1.0007
  990SOL    HW2 2970   5.014   2.418   4.898 -1.1592 -1.3746  0.6806
  991SOL     OW 2971   1.217   3.603   5.429 -0.4700  0.3750  0.3613
  991SOL    HW1 2972   1.289   3.592   5.490  0.6487  0.0006 -0.9703
  991SOL    HW2 2973   1.167   3.521   5.434 -0.1529  0.1922  0.4833
  992SOL     OW 2974   2.092   1.518   5.829  0.3361 -0.2005 -0.2588
  992SOL    HW1 2975   2.104   1.423   5.827  2.2977  0.0160 -1.3431
  992SOL    HW2 2976   2.015   1.534   5.774 -1.0840 -1.2403  1.3183
  993SOL     OW 2977   4.628   2.232   6.990 -0.1985  0.1612 -0.3821
  993SOL    HW1 2978   4.577   2.192   7.060 -2.3458  2.4793 -0.4952
  993SOL    HW2 2979   4.656   2.316   7.026  0.5897  0.4243 -1.5418
  994SOL     OW 2980   0.681   1.668   6.017 -0.0542 -0.1989 -0.9268
  994SOL    HW1 2981   0.590   1.682   6.043 -0.0587  3.1306 -2.1257
  994SOL    HW2 2982   0.676   1.607   5.943 -1.1784 -0.8281 -0.3572
  995SOL     OW 2983   4.137   4.729   7.271  0.0857  0.5686 -0.0237
  995SOL    HW1 2984   4.121   4.820   7.246  1.2441  0.6878 -0.4062
  995SOL    HW2 2985   4.093   4.719   7.356  0.1258  1.5555  0.1229
  996SOL     OW 2986   4.818   0.763   6.856  0.1763  0.0732  0.6652
  996SOL    HW1 2987   4.849   0.696   6.795  3.7960  0.7093  1.5954
  996SOL    HW2 2988   4.799   0.839   6.800  1.2090 -0.0752  0.0897
  997SOL     OW 2989   1.490   2.791   9.169 -0.0949  0.2411  0.6494
  997SOL    HW1 2990   1.552   2.858   9.139 -0.4973  0.1427 -0.4577
  997SOL    HW2 2991   1.535   2.708   9.153 -0.2068  0.1983  0.5535
  998SOL     OW 2992   2.968   0.387   8.894  0.0069 -0.4206  0.0163
  998SOL    HW1 2993   2.978   0.477   8.923 -1.9320  0.4405 -1.6919
  998SOL    HW2 2994   3.001   0.334   8.967  0.1430  1.6236  1.5313
  999SOL     OW 2995   2.567   2.543   7.664  0.6381 -0.2938  0.6560
  999SOL    HW1 2996   2.486   2.594   7.660  1.7394  1.5225  0.1596
  999SOL    HW2 2997   2.572   2.498   7.580  1.2336  1.4090 -0.2537
 1000SOL     OW 2998   2.987   4.330   8.985 -0.0532  0.2098  0.0014
 1000SOL    HW1 2999   3.038   4.411   8.983 -1.7309  1.2813 -1.3861
 1000SOL    HW2 3000   3.052   4.262   9.003  1.6399  1.6813 -0.2712
 1001SOL     OW 3001   4.906   3.165   9.175 -0.3766  0.1555  0.8224
 1001SOL    HW1 3002   4.895   3.079   9.136  0.2640  0.5682 -0.2945
 1001SOL    HW2 3003   4.983   3.156   9.231  0.2988  0.2657 -0.0801
 1002SOL     OW 3004   5.022   1.608   9.042  0.3994 -0.1349  0.2011
 1002SOL    HW1 3005   5.034   1.519   9.077  0.8288  0.5659  1.9618
 1002SOL    HW2 3006   4.933   1.631   9.067  0.6070  0.2656  0.5858
 1003SOL     OW 3007   0.745   4.055   6.966  0.1604 -0.7783  0.3464
 1003SOL    HW1 3008   0.817   4.019   7.017  0.3038  0.1566  0.8407
 1003SOL    HW2 3009   0.754   4.150   6.977 -1.5997 -0.6586  1.0605
 1004SOL     OW 3010   2.077   4.369   8.565  0.6112 -0.2179  0.1432
 1004SOL    HW1 3011   2.044   4.457   8.551 -0.6573 -0.9121 -1.5681
 1004SOL    HW2 3012   1.999   4.316   8.584  0.7796 -1.6046 -2.5059
 1005SOL     OW 3013   1.424   3.836   9.752 -0.2408  0.3738  0.8788
 1005SOL    HW1 3014   1.401   3.744   9.769  1.2834 -0.2329 -0.1591
 1005SOL    HW2 3015   1.369   3.885   9.813  0.7278 -1.3489  3.3494
 1006SOL     OW 3016   1.833   1.240   9.655  0.6209 -0.7609  0.2444
 1006SOL    HW1 3017   1.892   1.181   9.703 -1.4825 -1.8532  1.6672
 1006SOL    HW2 3018   1.745   1.208   9.676 -0.4961  0.1768 -2.5654
 1007SOL     OW 3019   4.891   3.895   7.566 -0.0965  0.2833  0.0319
 1007SOL    HW1 3020   4.934   3.833   7.507 -2.6685 -0.7050 -0.9604
 1007SOL    HW2 3021   4.813   3.923   7.517 -0.1653  2.6366  1.3556
 1008SOL     OW 3022   0.608   1.081   9.878 -0.6948 -0.5128 -0.0493
 1008SOL    HW1 3023   0.550   1.008   9.858 -1.4258 -0.2178  0.8938
 1008SOL    HW2 3024   0.611   1.133   9.798  0.1938 -1.7962 -0.8682
 1009SOL     OW 3025   3.612   2.019   9.530  0.4566 -0.3584  0.5345
 1009SOL    HW1 3026   3.611   2.098   9.584  0.9246  0.0036  0.0270
 1009SOL    HW2 3027   3.678   2.037   9.463  1.8242 -1.8633  1.4229
 1010SOL     OW 3028   4.419   0.657  10.580 -0.3059 -0.0917  0.0008
 1010SOL    HW1 3029   4.503   0.636  10.539 -1.1683 -1.2856 -1.2811
 1010SOL    HW2 3030   4.409   0.591  10.649  0.0886  0.4500  0.5800
 1011SOL     OW 3031   1.064   3.378   9.841  0.8238 -0.2371  0.3772
 1011SOL    HW1 3032   1.095   3.381   9.932  1.8092  2.1838  0.0411
 1011SOL    HW2 3033   0.968   3.378   9.849  0.8247  2.4694  1.5104
 1012SOL     OW 3034   4.342   0.995   9.725  0.1552  0.1013  0.5156
 1012SOL    HW1 3035   4.256   1.035   9.711  0.0193 -0.6966 -1.3208
 1012SOL    HW2 3036   4.401   1.070   9.738 -0.2769  0.9025 -1.6552
 1013SOL     OW 3037   2.653   1.856   7.731 -0.0840 -0.4820  0.2853
 1013SOL    HW1 3038   2.740   1.820   7.748  0.1072  0.3297  1.0985
 1013SOL    HW2 3039   2.623   1.809   7.653 -0.1791 -2.9817  1.7085
 1014SOL     OW 3040   4.172   4.155  10.026 -0.6185 -0.2862  0.7281
 1014SOL    HW1 3041   4.251   4.105  10.047  0.1447  0.5222 -0.0946
 1014SOL    HW2 3042   4.196   4.204   9.947 -2.5626 -1.4502 -0.6585
 1015SOL     OW 3043   3.173   0.194   8.435 -0.4850 -0.1574 -0.3768
 1015SOL    HW1 3044   3.105   0.140   8.475  0.7546 -1.3700  0.1374
 1015SOL    HW2 3045   3.222   0.134   8.379 -1.0813  1.1313 -2.3974
 1016SOL     OW 3046   2.755   3.388   8.867 -0.1827  0.6691  0.2489
 1016SOL    HW1 3047   2.705   3.362   8.945 -2.3015 -1.5596 -1.6767
 1016SOL    HW2 3048   2.786   3.476   8.887  0.4437 -0.2401  4.0619
 1017SOL     OW 3049   2.321   2.497   8.229 -0.6038  0.1694 -0.4779
 1017SOL    HW1 3050   2.282   2.486   8.142 -0.0059 -1.5353 -0.5690
 1017SOL    HW2 3051   2.340   2.408   8.258 -0.0387  0.7618  1.0597
 1018SOL     OW 3052   4.824   1.283   8.225  0.0656  0.1713  0.0160
 1018SOL    HW1 3053   4.765   1.210   8.247 -1.3566  1.1653 -0.3224
 1018SOL    HW2 3054   4.899   1.272   8.284 -0.6983 -0.8588  0.8397
 1019SOL     OW 3055   2.141   4.834   7.744  0.6484  0.3031  0.4582
 1019SOL    HW1 3056   2.233   4.830   7.718  1.1289  2.0526  1.6748
 1019SOL    HW2 3057   2.110   4.918   7.711  0.1378  0.7301  1.9305
 1020SOL     OW 3058   4.386   2.833   8.812 -0.6187  0.5148  0.3929
 1020SOL    HW1 3059   4.462   2.803   8.862  0.7583  1.4979 -1.0039
 1020SOL    HW2 3060   4.347   2.753   8.777  1.6432  0.1024 -1.4158
 1021SOL     OW 3061   2.302   4.298   6.875  0.2205 -0.0454 -0.0083
 1021SOL    HW1 3062   2.303   4.354   6.952 -0.5053  1.3015 -0.9464
 1021SOL    HW2 3063   2.301   4.358   6.801  1.0941 -1.3010 -1.0986
 1022SOL     OW 3064   1.630   1.255   9.056  0.2806  0.6777  0.4958
 1022SOL    HW1 3065   1.659   1.260   8.964 -1.7335  0.4182 -0.2059
 1022SOL    HW2 3066   1.707   1.281   9.107  2.6131 -2.4540 -1.0522
 1023SOL     OW 3067   0.860   2.627   8.573  0.6125  0.2270  0.5559
 1023SOL    HW1 3068   0.770   2.603   8.594 -0.7337  2.8836 -1.5085
 1023SOL    HW2 3069   0.901   2.545   8.544 -1.6497 -0.7776 -0.0322
 1024SOL     OW 3070   3.196   2.405   9.080 -0.3455 -0.9127 -0.0387
 1024SOL    HW1 3071   3.269   2.413   9.018 -1.1626  2.2789 -0.7614
 1024SOL    HW2 3072   3.210   2.320   9.122  3.9160 -0.3559  0.0859
 1025SOL     OW 3073   3.588   1.173   8.528 -0.5374  0.3935 -0.2476
 1025SOL    HW1 3074   3.511   1.227   8.545 -0.2801  1.0672 -1.1505
 1025SOL    HW2 3075   3.617   1.145   8.615 -0.8195  1.5204  0.2326
 1026SOL     OW 3076   4.570   0.844   9.574 -1.3630  0.3152  0.5278
 1026SOL    HW1 3077   4.645   0.900   9.557 -0.2269 -0.4121  2.7490
 1026SOL    HW2 3078   4.507   0.900   9.619 -2.5470  1.1071 -1.9301
 1027SOL     OW 3079   3.283   3.690   9.065  0.2207  0.7627  0.2619
 1027SOL    HW1 3080   3.318   3.755   9.004  1.6727  0.0858  0.3319
 1027SOL    HW2 3081   3.354   3.675   9.127  0.3244 -1.6285 -0.3471
 1028SOL     OW 3082   2.104   1.314  11.198 -0.2192  0.3008  0.0445
 1028SOL    HW1 3083   2.125   1.314  11.104  0.4220 -2.9379  0.0892
 1028SOL    HW2 3084   2.013   1.344  11.202 -0.8908 -1.2720 -1.8459
 1029SOL     OW 3085   0.389   1.975   9.980  0.8643  0.5783  0.8001
 1029SOL    HW1 3086   0.330   1.959  10.054  0.5797  1.2898  0.7363
 1029SOL    HW2 3087   0.473   1.937  10.008  0.9328  1.3922  1.7502
 1030SOL     OW 3088   3.931   1.535   7.530  0.2129  0.1014 -0.5314
 1030SOL    HW1 3089   3.856   1.513   7.587  0.5083 -0.5234 -0.3795
 1030SOL    HW2 3090   3.957   1.623   7.558 -0.2514  0.1851 -0.3529
 1031SOL     OW 3091   1.959   0.337  10.104  0.1914  0.0439  0.2260
 1031SOL    HW1 3092   1.886   0.298  10.055  1.2853 -0.3039 -1.2027
 1031SOL    HW2 3093   1.948   0.305  10.193 -1.2988 -0.1360  0.0099
 1032SOL     OW 3094   2.190   1.318   8.415 -0.1947 -0.3056 -0.4253
 1032SOL    HW1 3095   2.220   1.409   8.419  1.0982 -0.4029 -3.9526
 1032SOL    HW2 3096   2.112   1.321   8.359 -1.2202 -1.2040  0.9033
 1033SOL     OW 3097   2.296   0.039   8.493 -0.2079  0.1704 -0.2536
 1033SOL    HW1 3098   2.374   0.017   8.544 -0.3470  1.1367  0.4034
 1033SOL    HW2 3099   2.226   0.043   8.558 -0.3206  1.7772 -0.4257
 1034SOL     OW 3100   3.328   0.133   7.807  0.0066  0.0142 -0.1703
 1034SOL    HW1 3101   3.289   0.047   7.793  0.3128 -0.1041 -0.3087
 1034SOL    HW2 3102   3.277   0.191   7.750  1.0502 -0.4194 -1.6112
 1035SOL     OW 3103   3.448   4.438   7.114 -0.4226 -0.1647  0.4094
 1035SOL    HW1 3104   3.541   4.452   7.096 -0.5193 -1.5888 -1.5170
 1035SOL    HW2 3105   3.447   4.387   7.195  0.4789 -0.1481  0.4442
 1036SOL     OW 3106   1.044   1.858   8.664 -0.1112  0.1785 -1.0350
 1036SOL    HW1 3107   0.962   1.896   8.634 -2.3844 -3.5654 -0.1799
 1036SOL    HW2 3108   1.029   1.838   8.757  2.8686  1.8564 -0.0623
 1037SOL     OW 3109   1.237   0.460   9.096  0.6586 -0.2177  0.4778
 1037SOL    HW1 3110   1.328   0.480   9.072 -0.5315  1.5934 -3.1761
 1037SOL    HW2 3111   1.196   0.546   9.107 -0.9145 -0.9816  0.8249
 1038SOL     OW 3112   0.546   3.454  10.359 -0.6601 -0.2136 -0.3356
 1038SOL    HW1 3113   0.633   3.491  10.341 -0.2541 -0.4163  1.1291
 1038SOL    HW2 3114   0.560   3.393  10.430 -2.3674  1.4708  1.5812
 1039SOL     OW 3115   4.679   4.814   9.354  0.2501  0.4276  0.5418
 1039SOL    HW1 3116   4.591   4.817   9.315  1.8474  2.6833 -3.4591
 1039SOL    HW2 3117   4.724   4.745   9.306  1.0646  0.1405  1.6897
 1040SOL     OW 3118   3.424   3.584   8.537 -0.5242  0.2138  0.8148
 1040SOL    HW1 3119   3.394   3.570   8.627  0.2109  0.7424  1.1493
 1040SOL    HW2 3120   3.519   3.579   8.542 -0.4420  0.9983  0.1977
 1041SOL     OW 3121   1.914   0.615   4.980  0.1528 -0.4676 -0.0812
 1041SOL    HW1 3122   1.981   0.669   4.938 -0.5352  1.5793  1.2738
 1041SOL    HW2 3123   1.872   0.674   5.044 -3.4439 -1.3505 -1.3590
 1042SOL     OW 3124   1.385   1.340   9.631 -0.4596 -0.0892  0.4547
 1042SOL    HW1 3125   1.314   1.405   9.636  0.1345  0.5251  1.1454
 1042SOL    HW2 3126   1.440   1.371   9.558 -0.4327 -0.0878  0.4759
 1043SOL     OW 3127   3.583   1.058  10.251  0.1081  0.3579  0.0966
 1043SOL    HW1 3128   3.520   1.033  10.184 -0.1101 -0.8804  0.7440
 1043SOL    HW2 3129   3.601   1.151  10.233 -1.3034  0.5354 -0.5623
 1044SOL     OW 3130   0.800   3.902   5.609  0.6145  0.0136 -0.9852
 1044SOL    HW1 3131   0.785   3.988   5.649 -1.8231 -0.0692 -1.6071
 1044SOL    HW2 3132   0.882   3.872   5.648  1.9249  2.8875 -1.2465
 1045SOL     OW 3133   0.920   4.404  10.134 -0.4936 -0.4813 -0.3052
 1045SOL    HW1 3134   0.923   4.489  10.091 -0.1406  0.4198  1.4060
 1045SOL    HW2 3135   1.006   4.366  10.117  0.0281  0.3216  0.4322
 1046SOL     OW 3136   2.821   4.388   9.203 -0.4825  0.8341  0.0286
 1046SOL    HW1 3137   2.773   4.309   9.179 -0.1292  0.2498  1.1488
 1046SOL    HW2 3138   2.863   4.416   9.122  0.8890 -1.1922 -0.0455
 1047SOL     OW 3139   3.489   1.413   9.229  0.3725 -0.0722 -0.0001
 1047SOL    HW1 3140   3.550   1.367   9.287  1.5263  2.5514  0.9873
 1047SOL    HW2 3141   3.541   1.436   9.152 -0.5044 -1.3048 -1.0217
 1048SOL     OW 3142   1.991   2.555   8.071 -0.1198  0.1144 -0.0766
 1048SOL    HW1 3143   2.018   2.503   8.146  3.3773  1.6448 -0.0635
 1048SOL    HW2 3144   1.982   2.492   8.000  0.9810 -0.8786  0.6295
 1049SOL     OW 3145   2.049   4.720  10.342  0.9775 -0.5728  0.2286
 1049SOL    HW1 3146   2.030   4.744  10.252 -1.3664 -0.2696  0.7407
 1049SOL    HW2 3147   2.003   4.637  10.355  0.0746  0.0968  1.5222
 1050SOL     OW 3148   1.859   4.873   7.374  0.2284 -0.3986  0.2402
 1050SOL    HW1 3149   1.779   4.855   7.422  0.6967 -1.3218  0.7103
 1050SOL    HW2 3150   1.920   4.908   7.439  0.3449 -0.1259 -0.0145
 1051SOL     OW 3151   0.637   0.153   8.217 -0.0956 -0.4760 -0.0481
 1051SOL    HW1 3152   0.731   0.166   8.202 -0.4250 -0.2169 -2.1395
 1051SOL    HW2 3153   0.618   0.207   8.294  1.2691  0.2814 -0.1950
 1052SOL     OW 3154   1.751   2.193   7.797 -0.2192  0.1170 -0.0833
 1052SOL    HW1 3155   1.745   2.173   7.703 -1.9854  1.0986 -0.2173
 1052SOL    HW2 3156   1.754   2.107   7.839 -0.2280 -0.3432 -0.9916
 1053SOL     OW 3157   4.912   0.252   9.657  0.1180  0.3211  0.6698
 1053SOL    HW1 3158   4.866   0.222   9.578  3.2110 -0.0251 -1.1337
 1053SOL    HW2 3159   4.874   0.199   9.728 -1.9079 -0.2146 -0.7323
 1054SOL     OW 3160   1.349   2.460   8.873  0.5127  0.6565 -0.3171
 1054SOL    HW1 3161   1.434   2.457   8.915  1.3369  0.7747 -1.8795
 1054SOL    HW2 3162   1.335   2.370   8.841  0.5100  0.8611 -0.9021
 1055SOL     OW 3163   2.359   2.390   8.658 -0.5015 -1.0531 -0.0423
 1055SOL    HW1 3164   2.357   2.478   8.694 -0.2454 -1.2980  0.5879
 1055SOL    HW2 3165   2.401   2.337   8.726 -0.0096 -1.5276 -0.7025
 1056SOL     OW 3166   1.151   1.980   9.265  0.2610 -0.0028 -0.9117
 1056SOL    HW1 3167   1.213   2.012   9.331  1.3760  1.0930 -2.4410
 1056SOL    HW2 3168   1.068   1.975   9.312  0.8805  1.3800  0.4278
 1057SOL     OW 3169   0.340   3.822   9.925 -0.0383 -0.9219  0.3722
 1057SOL    HW1 3170   0.337   3.728   9.913  0.6084 -1.0049  0.7897
 1057SOL    HW2 3171   0.403   3.835   9.996 -2.3443 -0.3680  2.4485
 1058SOL     OW 3172   1.697   2.480   8.665 -0.1318 -0.5715 -0.1733
 1058SOL    HW1 3173   1.721   2.446   8.751 -1.1107 -0.1909  0.2741
 1058SOL    HW2 3174   1.606   2.509   8.676  0.2321  0.9409 -0.8933
 1059SOL     OW 3175   2.677   3.302   8.629 -0.1114 -0.3507 -0.3908
 1059SOL    HW1 3176   2.595   3.267   8.663 -0.0511 -0.0238  0.0962
 1059SOL    HW2 3177   2.727   3.327   8.707  0.6905 -1.0806 -0.6519
 1060SOL     OW 3178   2.874   0.575   8.373  0.4174  0.5113 -0.0386
 1060SOL    HW1 3179   2.920   0.550   8.454 -1.0091 -0.8230  0.4172
 1060SOL    HW2 3180   2.944   0.587   8.309  1.4499 -1.4513  0.6202
 1061SOL     OW 3181   0.988   1.184   9.276 -0.0810 -0.0562  0.2479
 1061SOL    HW1 3182   1.031   1.264   9.244 -0.4275  0.2376  0.5078
 1061SOL    HW2 3183   1.008   1.182   9.370  1.0712 -1.0027  0.0065
 1062SOL     OW 3184   0.557   3.645   8.231 -0.0317 -0.3404 -0.4053
 1062SOL    HW1 3185   0.537   3.707   8.161 -0.9038 -0.0469  0.0753
 1062SOL    HW2 3186   0.531   3.560   8.196 -2.0573 -0.0011  0.1061
 1063SOL     OW 3187   2.231   1.357   9.844 -0.1495 -0.4249 -0.3028
 1063SOL    HW1 3188   2.292   1.337   9.774 -0.0633  0.0837 -0.3698
 1063SOL    HW2 3189   2.262   1.439   9.882 -0.7422 -0.2053 -0.2835
 1064SOL     OW 3190   0.394   2.427  10.065 -0.1444 -0.5549 -0.0090
 1064SOL    HW1 3191   0.482   2.464  10.060  0.5626 -2.1163  0.1225
 1064SOL    HW2 3192   0.393   2.360   9.997 -0.6359 -1.6973  1.0906
 1065SOL     OW 3193   1.547   3.279   9.250  0.0026 -0.5781 -0.0371
 1065SOL    HW1 3194   1.459   3.315   9.256 -0.5465 -1.5717 -1.5057
 1065SOL    HW2 3195   1.560   3.233   9.333 -1.0008 -0.6796  0.0746
 1066SOL     OW 3196   0.368   2.233   9.897  0.0527 -0.5178  0.1795
 1066SOL    HW1 3197   0.377   2.236   9.802  0.6972  0.6143  0.2509
 1066SOL    HW2 3198   0.379   2.141   9.920 -2.1754 -1.1520 -0.9973
 1067SOL     OW 3199   4.467   2.012   7.087  0.3723 -0.0089  0.0563
 1067SOL    HW1 3200   4.481   1.929   7.041  1.8005 -0.1471  0.6931
 1067SOL    HW2 3201   4.492   1.994   7.177 -1.5567  0.5028  0.7353
 1068SOL     OW 3202   3.167   4.455   7.546  0.2000 -0.1704 -1.1514
 1068SOL    HW1 3203   3.209   4.471   7.461  2.3896 -1.0825 -0.3318
 1068SOL    HW2 3204   3.220   4.505   7.609  1.5825 -3.1188  0.2249
 1069SOL     OW 3205   0.832   4.263   8.243 -0.2543 -0.0736 -0.2416
 1069SOL    HW1 3206   0.771   4.330   8.275 -1.9591 -0.6810 -2.0290
 1069SOL    HW2 3207   0.883   4.238   8.320 -1.4170  1.3399  1.0441
 1070SOL     OW 3208   0.516   4.119   6.809 -0.0502  0.8908  0.2496
 1070SOL    HW1 3209   0.593   4.120   6.866  0.6617  1.3308 -0.7141
 1070SOL    HW2 3210   0.530   4.044   6.751 -0.2536  1.1007 -0.0704
 1071SOL     OW 3211   1.857   2.540   9.230 -0.6128  0.3814  0.5705
 1071SOL    HW1 3212   1.906   2.467   9.194 -1.4411 -0.2056  0.6185
 1071SOL    HW2 3213   1.838   2.515   9.320  0.2426  1.2369  1.0032
 1072SOL     OW 3214   3.609   0.308   9.234 -0.0808 -0.7737  0.3390
 1072SOL    HW1 3215   3.691   0.289   9.279  0.1165 -1.3765 -0.2597
 1072SOL    HW2 3216   3.588   0.227   9.187 -2.7329 -1.8243  3.0650
 1073SOL     OW 3217   0.996   0.152   8.715 -0.0165 -0.4482  0.2594
 1073SOL    HW1 3218   1.033   0.189   8.795 -0.0335  2.2362 -0.8699
 1073SOL    HW2 3219   0.956   0.227   8.670  2.1314 -1.2624 -3.4329
 1074SOL     OW 3220   1.700   4.833   8.336 -0.0928 -0.2275 -0.0240
 1074SOL    HW1 3221   1.610   4.810   8.359 -0.3459 -0.2503 -0.9672
 1074SOL    HW2 3222   1.698   4.840   8.240  0.6495  0.9084  0.0288
 1075SOL     OW 3223   0.845   2.607   8.971  0.2081  0.3454  0.0591
 1075SOL    HW1 3224   0.786   2.657   8.915  0.4275  1.2972  0.6424
 1075SOL    HW2 3225   0.926   2.601   8.920  0.7959  2.2041  0.6703
 1076SOL     OW 3226   1.078   3.608   6.361 -0.5710 -0.1879  0.4378
 1076SOL    HW1 3227   1.112   3.576   6.278 -0.3760 -0.9163  0.7933
 1076SOL    HW2 3228   0.990   3.640   6.341 -1.2078 -1.9563  0.2749
 1077SOL     OW 3229   0.440   2.847   7.540  0.9441  0.1542 -0.3788
 1077SOL    HW1 3230   0.368   2.910   7.550  2.3371  1.8647 -0.7005
 1077SOL    HW2 3231   0.440   2.799   7.623 -0.1264  0.5848 -0.0983
 1078SOL     OW 3232   1.376   2.948  10.000  0.4883 -0.1458  0.1646
 1078SOL    HW1 3233   1.459   2.990   9.979  0.8627  0.4420  2.4784
 1078SOL    HW2 3234   1.394   2.854   9.993  0.7573  0.0020 -1.2962
 1079SOL     OW 3235   1.190   1.881   9.649  0.1951  0.0604  0.1080
 1079SOL    HW1 3236   1.268   1.873   9.704 -0.3891 -0.9678  0.8404
 1079SOL    HW2 3237   1.145   1.959   9.682  0.3315 -0.0112  0.4692
 1080SOL     OW 3238   4.146   4.441   9.112 -0.3371 -0.2770 -0.1648
 1080SOL    HW1 3239   4.056   4.423   9.084  0.0405 -1.4493 -0.6743
 1080SOL    HW2 3240   4.193   4.459   9.030 -0.4315  2.0240  0.2186
 1081SOL     OW 3241   0.471   0.155   9.612  0.8642  0.0132 -0.2604
 1081SOL    HW1 3242   0.401   0.092   9.631  2.5277 -0.6410  5.1035
 1081SOL    HW2 3243   0.426   0.239   9.605 -0.8048 -0.9308 -1.8121
 1082SOL     OW 3244   1.439   0.035   9.113 -0.0111 -0.4151  0.5627
 1082SOL    HW1 3245   1.436   0.008   9.205  0.3322  1.1846  1.0747
 1082SOL    HW2 3246   1.471   0.125   9.116 -2.1066  0.4570 -0.9632
 1083SOL     OW 3247   4.297   0.344  10.066 -0.0792  0.5175 -0.3907
 1083SOL    HW1 3248   4.263   0.261  10.101  1.8545  0.1051  0.6690
 1083SOL    HW2 3249   4.220   0.388  10.030 -1.6431 -0.5271  1.4537
 1084SOL     OW 3250   1.980   4.775   9.828 -0.5515 -0.3685  0.0528
 1084SOL    HW1 3251   1.999   4.685   9.854 -0.0848 -0.0757  0.7514
 1084SOL    HW2 3252   2.052   4.799   9.770 -1.4623 -0.9376 -1.3501
 1085SOL     OW 3253   3.934   1.281  10.204  0.1161 -0.6615  0.0270
 1085SOL    HW1 3254   3.976   1.216  10.147 -1.3622 -0.9503 -0.7971
 1085SOL    HW2 3255   3.946   1.247  10.292  2.3723 -0.2565 -0.0625
 1086SOL     OW 3256   0.139   4.414   9.968 -0.4348  0.0993  0.0327
 1086SOL    HW1 3257   0.126   4.504   9.938 -2.9403 -0.1970  0.0152
 1086SOL    HW2 3258   0.188   4.372   9.897 -0.8291  0.9944 -0.7964
 1087SOL     OW 3259   3.964   0.446   7.693 -0.3029 -0.3478 -0.2566
 1087SOL    HW1 3260   4.042   0.502   7.704 -1.2905  1.5139 -2.0086
 1087SOL    HW2 3261   3.993   0.378   7.632  0.6367 -1.2194  1.1116
 1088SOL     OW 3262   0.868   3.560   7.942  0.2724  0.4871 -0.7265
 1088SOL    HW1 3263   0.954   3.601   7.952  1.5648 -2.0934 -0.3736
 1088SOL    HW2 3264   0.825   3.575   8.026  1.0161  0.5305 -0.3363
 1089SOL     OW 3265   1.782   4.645  10.150  0.1175  0.4318  0.0291
 1089SOL    HW1 3266   1.864   4.692  10.136  1.0126 -0.1036  2.8156
 1089SOL    HW2 3267   1.716   4.714  10.160  0.7527  0.9949  0.4511
 1090SOL     OW 3268   1.678   2.047   9.240  0.2343 -0.2870 -0.9216
 1090SOL    HW1 3269   1.608   2.076   9.298 -0.2675  0.1337 -1.7078
 1090SOL    HW2 3270   1.636   2.042   9.153  1.2461  0.2684 -1.4612
 1091SOL     OW 3271   2.681   1.646   9.566 -0.1316 -0.6319 -0.0106
 1091SOL    HW1 3272   2.750   1.699   9.526 -1.8406  1.1841 -0.7171
 1091SOL    HW2 3273   2.691   1.659   9.660 -0.8127  1.4412 -0.1811
 1092SOL     OW 3274   4.204   3.017   8.850 -0.5936  0.7576  0.1848
 1092SOL    HW1 3275   4.240   3.103   8.873  1.1170 -0.0272  0.6581
 1092SOL    HW2 3276   4.282   2.962   8.836 -1.6417 -0.7223 -0.0415
 1093SOL     OW 3277   1.352   3.895   9.452 -0.7900 -0.4225 -0.4295
 1093SOL    HW1 3278   1.321   3.984   9.437 -0.0845 -0.4156 -2.0584
 1093SOL    HW2 3279   1.391   3.897   9.539 -2.0139  0.4937  0.1275
 1094SOL     OW 3280   1.475   4.737   8.446  0.2114  0.0361 -0.4352
 1094SOL    HW1 3281   1.426   4.704   8.521  0.3836  0.1179 -0.2870
 1094SOL    HW2 3282   1.433   4.696   8.370  0.3665 -0.4537 -0.2585
 1095SOL     OW 3283   2.749   2.066   8.129  0.1869 -0.0745  0.1190
 1095SOL    HW1 3284   2.809   2.140   8.144 -0.5010  1.0475 -2.1180
 1095SOL    HW2 3285   2.756   2.049   8.035 -0.7229 -1.9837  0.3503
 1096SOL     OW 3286   3.613   3.897  10.227 -0.0881 -0.5813  0.2815
 1096SOL    HW1 3287   3.578   3.838  10.294 -0.9525 -1.2949 -0.7668
 1096SOL    HW2 3288   3.624   3.842  10.150  2.0951 -0.0665  0.1532
 1097SOL     OW 3289   4.381   3.908   9.264 -0.6025  0.1799  0.0288
 1097SOL    HW1 3290   4.360   3.986   9.212 -3.6352  0.0092  0.8002
 1097SOL    HW2 3291   4.337   3.836   9.218 -0.5052 -0.5329  1.0102
 1098SOL     OW 3292   1.266   0.550   9.564  1.0819  0.2082  0.1532
 1098SOL    HW1 3293   1.270   0.558   9.659  0.6196  0.5819  0.1456
 1098SOL    HW2 3294   1.265   0.456   9.547 -1.5754  0.0741  0.6536
 1099SOL     OW 3295   3.635   3.472   8.693  0.0111 -0.5148 -0.1349
 1099SOL    HW1 3296   3.565   3.420   8.734  0.1773  0.0717  0.9417
 1099SOL    HW2 3297   3.709   3.464   8.753  0.5808 -0.4011 -0.8152
 1100SOL     OW 3298   2.393   2.735   9.849 -0.2868  0.7632  0.6884
 1100SOL    HW1 3299   2.433   2.771   9.928 -2.1345  1.3671  1.3898
 1100SOL    HW2 3300   2.424   2.793   9.779  2.5518 -0.6384  0.6453
 1101SOL     OW 3301   0.778   2.809   8.771  0.2015 -0.5734 -0.2071
 1101SOL    HW1 3302   0.850   2.788   8.712  0.9362 -0.3520  0.5794
 1101SOL    HW2 3303   0.707   2.836   8.714  1.6562  2.0653 -0.9524
 1102SOL     OW 3304   2.279   2.923   7.523  0.0503  0.7434  0.5167
 1102SOL    HW1 3305   2.211   2.953   7.463 -0.4816  0.4995  0.9858
 1102SOL    HW2 3306   2.355   2.907   7.468 -1.2634 -2.3765 -0.6297
 1103SOL     OW 3307   1.474   3.039   5.838  0.1080 -0.5396 -0.1380
 1103SOL    HW1 3308   1.536   3.032   5.765 -0.6777  2.1838 -1.2067
 1103SOL    HW2 3309   1.486   3.128   5.870  0.1007 -1.5189  2.8577
 1104SOL     OW 3310   4.456   1.250   7.618 -0.1390  0.5788  0.6902
 1104SOL    HW1 3311   4.502   1.167   7.633 -0.1846  0.2787 -0.7516
 1104SOL    HW2 3312   4.363   1.227   7.619 -0.1507  0.6104  0.2584
 1105SOL     OW 3313   3.350   1.848   9.942  0.0905  0.4396  1.3367
 1105SOL    HW1 3314   3.429   1.889   9.976  0.0646 -0.4022  2.4558
 1105SOL    HW2 3315   3.364   1.754   9.954 -0.7242  0.2296  0.7611
 1106SOL     OW 3316   2.527   3.444   9.108  0.4859  0.5180  0.1762
 1106SOL    HW1 3317   2.477   3.381   9.056  2.1786 -0.0351 -0.8737
 1106SOL    HW2 3318   2.522   3.411   9.198  0.0093 -0.2199 -0.1153
 1107SOL     OW 3319   0.574   3.186   9.505 -0.7203 -0.5597 -0.5036
 1107SOL    HW1 3320   0.494   3.176   9.556 -0.0697 -1.8456  0.3072
 1107SOL    HW2 3321   0.590   3.099   9.467 -0.7705  0.1700 -2.2992
 1108SOL     OW 3322   4.756   2.918   9.750 -0.0619 -0.0680 -0.3231
 1108SOL    HW1 3323   4.696   2.851   9.780 -0.1398 -0.1004 -0.5543
 1108SOL    HW2 3324   4.727   2.998   9.793  0.5646 -0.3478  0.6508
 1109SOL     OW 3325   1.671   3.369   8.246 -0.0902  0.1415 -0.1899
 1109SOL    HW1 3326   1.755   3.356   8.203 -1.2429 -3.5915 -1.6987
 1109SOL    HW2 3327   1.672   3.308   8.319 -1.5895 -0.2219 -0.4435
 1110SOL     OW 3328   2.384   4.748   9.197 -0.2262 -0.3382  0.0522
 1110SOL    HW1 3329   2.435   4.828   9.211  3.1901 -2.0871 -1.3624
 1110SOL    HW2 3330   2.405   4.722   9.107  0.8064 -4.0720  1.2175
 1111SOL     OW 3331   3.508   2.925  10.322 -0.0536  0.3813  0.5206
 1111SOL    HW1 3332   3.479   2.971  10.244  3.6941  3.1105  0.4258
 1111SOL    HW2 3333   3.538   2.994  10.382  2.2097 -1.7357  2.0835
 1112SOL     OW 3334   4.833   0.197   8.233  0.3814  0.8575 -0.1222
 1112SOL    HW1 3335   4.794   0.122   8.188  2.5643 -0.7816  0.5401
 1112SOL    HW2 3336   4.827   0.175   8.326  1.0888  1.4788  0.0840
 1113SOL     OW 3337   1.837   0.370   9.523 -0.0357  0.2732 -0.5973
 1113SOL    HW1 3338   1.901   0.440   9.534  1.0910 -0.2740 -3.0012
 1113SOL    HW2 3339   1.830   0.330   9.610  2.6009  0.6394 -0.1207
 1114SOL     OW 3340   0.880   4.343   7.063  0.0108  0.1459 -0.0675
 1114SOL    HW1 3341   0.811   4.388   7.112 -0.3137  0.3211 -0.6691
 1114SOL    HW2 3342   0.957   4.347   7.119  0.2905  2.3789 -0.5038
 1115SOL     OW 3343   3.238   4.036  10.216 -0.1412  0.4213  0.9195
 1115SOL    HW1 3344   3.326   4.057  10.183 -0.4437  0.0135 -0.1564
 1115SOL    HW2 3345   3.213   4.115  10.265 -1.0792  2.6107 -2.6867
 1116SOL     OW 3346   0.609   3.212   8.000 -0.0570 -0.3457 -0.1066
 1116SOL    HW1 3347   0.514   3.200   8.007 -0.4906  2.0494 -1.0867
 1116SOL    HW2 3348   0.635   3.249   8.085 -0.5033  1.5715 -0.7636
 1117SOL     OW 3349   1.765   1.108   7.451  0.0450  0.0612  0.1257
 1117SOL    HW1 3350   1.687   1.078   7.498  0.0442  0.1915  0.2077
 1117SOL    HW2 3351   1.827   1.036   7.459 -0.1343 -0.1202 -0.1003
 1118SOL     OW 3352   1.760   0.808   8.354 -0.0701  0.1101 -0.0881
 1118SOL    HW1 3353   1.703   0.750   8.404 -2.0274 -0.6383 -2.9602
 1118SOL    HW2 3354   1.720   0.895   8.363 -0.9074 -0.1670 -0.9250
 1119SOL     OW 3355   0.473   2.193   8.564 -0.3143  0.2935  0.7184
 1119SOL    HW1 3356   0.499   2.281   8.592 -0.4496  0.2614  0.9518
 1119SOL    HW2 3357   0.514   2.135   8.628 -0.5982  0.2160  0.8313
 1120SOL     OW 3358   3.099   4.727   9.846  0.2183  0.2131 -0.5528
 1120SOL    HW1 3359   3.149   4.654   9.882  0.4291  0.0590 -1.1406
 1120SOL    HW2 3360   3.137   4.805   9.888 -0.6547 -0.0762  0.8026
 1121SOL     OW 3361   2.312   0.536   9.688  0.2277  0.2928 -0.1928
 1121SOL    HW1 3362   2.356   0.509   9.768  0.3541  2.2846  0.4711
 1121SOL    HW2 3363   2.248   0.601   9.717  0.5276  1.3289 -1.7247
 1122SOL     OW 3364   3.935   1.871   7.509  0.0993  0.1389 -0.1242
 1122SOL    HW1 3365   4.015   1.874   7.562 -0.3327  1.7492  0.4811
 1122SOL    HW2 3366   3.868   1.911   7.565 -1.0449 -0.7753 -0.7943
 1123SOL     OW 3367   3.646   1.595   8.704  0.6414 -0.4636 -0.9142
 1123SOL    HW1 3368   3.667   1.687   8.687  1.5003 -0.8568 -2.0824
 1123SOL    HW2 3369   3.616   1.594   8.795  1.2926  0.8614 -0.6567
 1124SOL     OW 3370   0.930   2.766   6.211  0.6524  0.1542 -0.8288
 1124SOL    HW1 3371   0.965   2.812   6.135 -0.7089 -0.7717 -2.0749
 1124SOL    HW2 3372   0.902   2.681   6.177  0.0807 -0.3146  0.7260
 1125SOL     OW 3373   4.593   1.816   8.040 -0.0204  0.2941 -0.1628
 1125SOL    HW1 3374   4.635   1.843   8.122  0.7127 -0.3776 -0.2969
 1125SOL    HW2 3375   4.566   1.898   7.998  1.9526  0.8572 -0.4635
 1126SOL     OW 3376   2.155   0.058   9.908  0.0166  0.2576 -0.3718
 1126SOL    HW1 3377   2.218   0.019   9.969 -1.0636  0.4863  0.9236
 1126SOL    HW2 3378   2.194   0.142   9.885  2.2092 -1.2675 -2.9323
 1127SOL     OW 3379   1.054   3.396   6.926  0.3419 -0.0947  0.3618
 1127SOL    HW1 3380   0.965   3.426   6.943  0.7642  0.5086  1.6058
 1127SOL    HW2 3381   1.088   3.455   6.858  0.3365  0.7313  1.0582
 1128SOL     OW 3382   4.843   3.702   9.147  0.2657 -0.1796 -0.0524
 1128SOL    HW1 3383   4.811   3.728   9.060  1.4070 -1.0480 -0.7587
 1128SOL    HW2 3384   4.796   3.759   9.207 -2.2302 -1.0649 -1.0409
 1129SOL     OW 3385   2.455   4.374   8.912 -0.0670  0.0443 -0.1504
 1129SOL    HW1 3386   2.461   4.375   8.817 -1.0974 -0.9551 -0.2474
 1129SOL    HW2 3387   2.528   4.319   8.940  1.8651  2.4465 -0.1561
 1130SOL     OW 3388   3.627   2.393   9.050 -0.7049  0.5038 -0.2541
 1130SOL    HW1 3389   3.714   2.405   9.087 -0.9268 -0.7147  0.7334
 1130SOL    HW2 3390   3.632   2.432   8.963  0.4971  1.4245  0.2035
 1131SOL     OW 3391   2.140   2.984  10.073 -0.2558 -0.2498  0.1842
 1131SOL    HW1 3392   2.110   2.900  10.037  2.1760 -0.6782 -1.0681
 1131SOL    HW2 3393   2.232   2.969  10.094  0.0812  1.9531  0.4813
 1132SOL     OW 3394   4.692   1.498   7.325  0.1757 -0.1213 -0.5399
 1132SOL    HW1 3395   4.688   1.582   7.278 -0.0522 -0.4606 -1.1408
 1132SOL    HW2 3396   4.625   1.444   7.283 -1.2071  0.0885  1.2736
 1133SOL     OW 3397   1.897   4.344   7.606  0.0693  0.2765  0.6569
 1133SOL    HW1 3398   1.819   4.338   7.551 -0.0660  0.0434  0.8711
 1133SOL    HW2 3399   1.897   4.433   7.639  1.7633  1.4182 -2.0946
 1134SOL     OW 3400   4.734   4.078   8.808 -0.4709  0.0795  0.4006
 1134SOL    HW1 3401   4.708   3.990   8.836  0.2052 -0.0000  0.8141
 1134SOL    HW2 3402   4.830   4.073   8.801 -0.1435  1.4214  2.7914
 1135SOL     OW 3403   2.817   1.285   9.413 -0.0917  0.7080 -0.1318
 1135SOL    HW1 3404   2.781   1.333   9.338 -0.0760  0.9403  0.0053
 1135SOL    HW2 3405   2.901   1.329   9.431  1.0204 -0.7782 -1.4097
 1136SOL     OW 3406   0.804   1.367   9.833 -0.3681 -0.6749  0.2839
 1136SOL    HW1 3407   0.888   1.409   9.854 -1.3101  1.0350  0.7570
 1136SOL    HW2 3408   0.783   1.316   9.910 -1.2824  1.4612  1.5351
 1137SOL     OW 3409   3.648   3.022   8.735  0.2388 -0.2707 -0.3411
 1137SOL    HW1 3410   3.675   3.040   8.646 -1.3624 -1.6517 -1.1699
 1137SOL    HW2 3411   3.713   3.065   8.790  2.4358 -1.0944 -2.1667
 1138SOL     OW 3412   2.552   3.772   7.623  0.2881 -0.4858  0.5131
 1138SOL    HW1 3413   2.550   3.851   7.570 -2.4094 -0.2784  0.8110
 1138SOL    HW2 3414   2.642   3.768   7.658  0.3731  2.6720  0.8752
 1139SOL     OW 3415   4.275   1.360   9.685 -0.7600  0.7717 -0.0354
 1139SOL    HW1 3416   4.194   1.332   9.726 -0.6416  0.4000 -0.0530
 1139SOL    HW2 3417   4.250   1.386   9.596 -0.5440 -1.3757 -0.7842
 1140SOL     OW 3418   3.491   0.449   9.829  0.5257  0.3916 -0.6205
 1140SOL    HW1 3419   3.566   0.478   9.777  1.6378 -1.9273 -0.4067
 1140SOL    HW2 3420   3.528   0.424   9.913 -0.6801  0.2615 -0.1111
 1141SOL     OW 3421   0.991   3.041   9.174  0.2878  0.4644  0.0590
 1141SOL    HW1 3422   1.031   3.120   9.210 -2.6344  2.6470 -1.1067
 1141SOL    HW2 3423   1.003   3.049   9.080 -1.8350  0.6887 -0.2394
 1142SOL     OW 3424   3.805   3.129   8.208 -0.8400  0.2227 -0.0984
 1142SOL    HW1 3425   3.810   3.095   8.119  0.8625  0.0114  0.0271
 1142SOL    HW2 3426   3.724   3.179   8.212 -1.5694 -0.8187 -1.3804
 1143SOL     OW 3427   1.935   4.781   5.169  0.0036  1.1479  0.1405
 1143SOL    HW1 3428   1.924   4.688   5.151  2.4018  0.9358 -0.5205
 1143SOL    HW2 3429   1.919   4.824   5.085  2.6067  0.9244 -0.5621
 1144SOL     OW 3430   0.710   3.282   5.067  0.4074 -0.0457  0.6309
 1144SOL    HW1 3431   0.673   3.338   4.999  1.1402  0.0536  0.3122
 1144SOL    HW2 3432   0.720   3.340   5.143  2.0163  0.5193  0.0290
 1145SOL     OW 3433   4.766   2.588   4.851  0.4257 -0.3685  0.0956
 1145SOL    HW1 3434   4.683   2.545   4.830 -0.1409  1.0584 -0.6905
 1145SOL    HW2 3435   4.746   2.682   4.847  2.4908  0.0583 -1.9963
 1146SOL     OW 3436   2.891   2.322   6.307 -0.2356  0.1482 -0.4610
 1146SOL    HW1 3437   2.952   2.261   6.266  0.1317 -1.2285  1.9085
 1146SOL    HW2 3438   2.830   2.265   6.355 -0.8629  1.6092  0.5472
 1147SOL     OW 3439   1.143   0.494   8.422  0.4910  0.0405  0.0205
 1147SOL    HW1 3440   1.074   0.529   8.479  0.5424  1.8854 -0.9847
 1147SOL    HW2 3441   1.223   0.498   8.475  0.7791  2.9273 -0.5113
 1148SOL     OW 3442   1.452   2.244   5.733  0.7445 -0.6679  1.0604
 1148SOL    HW1 3443   1.362   2.214   5.725  1.2012 -1.8307  0.0721
 1148SOL    HW2 3444   1.459   2.276   5.823 -0.6955 -0.3705  1.0843
 1149SOL     OW 3445   0.535   3.772   6.763  0.1953 -0.9479  0.5848
 1149SOL    HW1 3446   0.588   3.756   6.685 -0.2069 -0.7643  0.2704
 1149SOL    HW2 3447   0.462   3.710   6.756 -1.1836  0.7167 -0.4637
 1150SOL     OW 3448   0.869   2.149   5.896 -0.7818  0.2454 -0.6051
 1150SOL    HW1 3449   0.907   2.198   5.969 -0.1015 -0.0281 -0.7731
 1150SOL    HW2 3450   0.836   2.069   5.937  0.3519 -0.2901 -0.7223
 1151SOL     OW 3451   1.380   4.332   8.632  0.3491  0.3362 -0.3432
 1151SOL    HW1 3452   1.307   4.309   8.689 -1.1274  0.1514 -2.1968
 1151SOL    HW2 3453   1.340   4.380   8.560  2.2646  1.4526 -0.7478
 1152SOL     OW 3454   1.213   2.149   6.806  0.4731  0.3303 -0.2704
 1152SOL    HW1 3455   1.175   2.162   6.893  1.1207 -0.8020  0.1993
 1152SOL    HW2 3456   1.148   2.099   6.758  1.1126 -1.1774  0.3745
 1153SOL     OW 3457   1.644   0.471   5.806  0.2304 -0.0610  0.2578
 1153SOL    HW1 3458   1.571   0.532   5.793  1.9945  1.8130 -1.4627
 1153SOL    HW2 3459   1.611   0.387   5.773 -0.5159  1.2165 -2.5250
 1154SOL     OW 3460   4.778   4.336   5.469  0.3406 -0.5566  0.2600
 1154SOL    HW1 3461   4.687   4.353   5.445  0.4386 -0.6493 -0.1886
 1154SOL    HW2 3462   4.798   4.251   5.431  0.9574 -0.0355 -0.6102
 1155SOL     OW 3463   4.943   4.929   4.807  0.5191  0.3290  0.1020
 1155SOL    HW1 3464   5.003   4.906   4.736  0.1512 -0.5577  0.0770
 1155SOL    HW2 3465   4.963   4.867   4.877  1.4116  1.6764  1.0951
 1156SOL     OW 3466   3.731   2.128   6.339  0.3917  0.4006 -0.2931
 1156SOL    HW1 3467   3.743   2.185   6.416  1.1675 -1.2546  0.8553
 1156SOL    HW2 3468   3.636   2.118   6.332  0.3255 -0.3364  1.1845
 1157SOL     OW 3469   0.573   2.776   5.241 -0.5149 -0.3129  0.0425
 1157SOL    HW1 3470   0.627   2.769   5.320 -0.9058 -2.2231  0.1953
 1157SOL    HW2 3471   0.629   2.818   5.176 -0.0331  0.8672  1.1992
 1158SOL     OW 3472   1.944   4.781   5.470 -0.8445 -0.0584 -0.1602
 1158SOL    HW1 3473   1.980   4.758   5.384 -1.5086 -2.0885  0.0694
 1158SOL    HW2 3474   1.863   4.731   5.476 -0.1076 -1.0747  2.2293
 1159SOL     OW 3475   3.166   0.527   5.592  0.1127  0.0900  0.6429
 1159SOL    HW1 3476   3.178   0.490   5.679 -0.4785  1.0649  1.1582
 1159SOL    HW2 3477   3.128   0.614   5.607 -1.7606 -0.4313 -0.6297
 1160SOL     OW 3478   4.088   0.126   7.585  0.3346 -0.2497 -0.4659
 1160SOL    HW1 3479   4.103   0.130   7.679  0.2334 -0.8721 -0.4165
 1160SOL    HW2 3480   4.175   0.106   7.548  0.1971 -0.9680 -0.4186
 1161SOL     OW 3481   1.951   0.165   7.145 -0.1967  0.3793 -0.2700
 1161SOL    HW1 3482   1.913   0.202   7.225 -0.3879 -0.0691 -0.1494
 1161SOL    HW2 3483   1.894   0.195   7.075 -1.5195 -1.2747  0.0324
 1162SOL     OW 3484   1.527   0.702   5.599 -0.5616  0.2122  0.4204
 1162SOL    HW1 3485   1.458   0.695   5.665 -1.6752  2.2237 -0.4553
 1162SOL    HW2 3486   1.531   0.615   5.559 -2.8308  0.1169  0.2949
 1163SOL     OW 3487   4.766   3.818   6.056 -1.0564  0.2970  0.5185
 1163SOL    HW1 3488   4.846   3.819   6.003  1.3643  0.0871  3.8745
 1163SOL    HW2 3489   4.742   3.910   6.064 -0.1360  0.5212  0.8468
 1164SOL     OW 3490   2.163   0.239   5.987  0.7578 -0.2891 -0.0587
 1164SOL    HW1 3491   2.090   0.300   5.975 -0.8863 -2.2875 -1.0260
 1164SOL    HW2 3492   2.233   0.273   5.931 -0.7883 -0.2381 -2.0775
 1165SOL     OW 3493   2.148   0.732   4.862 -0.5917 -0.1443  0.8844
 1165SOL    HW1 3494   2.147   0.678   4.783  1.4180  1.2265 -0.1347
 1165SOL    HW2 3495   2.226   0.787   4.854 -0.9941  0.9092  3.2474
 1166SOL     OW 3496   1.731   2.830   6.287 -0.2052  0.2705  0.2650
 1166SOL    HW1 3497   1.673   2.877   6.228 -0.6040 -1.2463 -0.6152
 1166SOL    HW2 3498   1.678   2.815   6.365 -1.4020 -1.8781 -0.8654
 1167SOL     OW 3499   2.518   4.086   5.346  0.3697 -0.0458 -0.1739
 1167SOL    HW1 3500   2.511   4.064   5.439 -1.6183  1.8804  0.2104
 1167SOL    HW2 3501   2.532   4.002   5.303  2.3384 -0.9049  1.8955
 1168SOL     OW 3502   1.623   3.772   4.209 -0.4311  0.2734 -0.0878
 1168SOL    HW1 3503   1.695   3.720   4.174 -1.2187  0.7984 -2.7689
 1168SOL    HW2 3504   1.638   3.860   4.173 -2.3381  0.4060 -0.6497
 1169SOL     OW 3505   4.784   2.513   6.035  0.2785 -0.7999 -0.0431
 1169SOL    HW1 3506   4.780   2.447   6.105  0.8325  0.2263  1.0042
 1169SOL    HW2 3507   4.841   2.475   5.969  1.2134 -1.0768  0.8959
 1170SOL     OW 3508   1.159   4.643   4.825 -0.5455 -0.4372  1.1648
 1170SOL    HW1 3509   1.117   4.727   4.846 -1.5331 -0.7532  0.5430
 1170SOL    HW2 3510   1.145   4.633   4.731 -1.1513 -1.6708  1.3709
 1171SOL     OW 3511   0.103   2.216   7.621 -0.2577  0.1443 -0.1257
 1171SOL    HW1 3512   0.160   2.189   7.549  1.0359  0.4032  0.7632
 1171SOL    HW2 3513   0.041   2.276   7.581  0.6961  0.6038 -0.9586
 1172SOL     OW 3514   3.769   0.273   4.919 -0.1337 -0.8647  0.5939
 1172SOL    HW1 3515   3.779   0.369   4.921  1.8162 -1.0468  1.1802
 1172SOL    HW2 3516   3.832   0.241   4.982 -3.1031 -2.4519  3.0018
 1173SOL     OW 3517   2.663   2.057   5.449  0.4199  0.3754  0.2516
 1173SOL    HW1 3518   2.584   2.062   5.502  0.8732 -2.7937  1.4464
 1173SOL    HW2 3519   2.717   2.130   5.479 -0.5256  0.3723  2.1141
 1174SOL     OW 3520   4.508   2.785   4.923  0.1350 -0.2157  0.8354
 1174SOL    HW1 3521   4.589   2.833   4.907 -0.1810  0.0649  0.0501
 1174SOL    HW2 3522   4.508   2.769   5.017  0.4270  1.0020  1.0533
 1175SOL     OW 3523   1.055   0.039   6.893  0.5542  0.3143  0.0770
 1175SOL    HW1 3524   1.116  -0.030   6.919  1.3292  0.9761  0.0619
 1175SOL    HW2 3525   0.977   0.023   6.945  0.1362 -1.4774 -1.0209
 1176SOL     OW 3526   4.509   4.023   6.928  0.2141  0.3390  0.3982
 1176SOL    HW1 3527   4.441   3.960   6.952  2.8447 -2.4791  1.2345
 1176SOL    HW2 3528   4.524   4.007   6.835  0.8917 -0.3592  0.6137
 1177SOL     OW 3529   0.123   0.622   6.747 -0.3602  0.3486 -0.2961
 1177SOL    HW1 3530   0.164   0.543   6.712 -0.8454 -0.3640  0.6929
 1177SOL    HW2 3531   0.178   0.693   6.715 -0.1716 -0.3437 -1.5889
 1178SOL     OW 3532   4.170   4.181   6.977  0.4370  0.5168  0.4192
 1178SOL    HW1 3533   4.215   4.097   6.982  0.9021  0.8385  2.8240
 1178SOL    HW2 3534   4.159   4.197   6.883  0.2752 -2.2179 -0.0919
 1179SOL     OW 3535   3.643   1.143   8.096 -0.0144  0.0516 -0.7865
 1179SOL    HW1 3536   3.580   1.193   8.044 -0.3408 -1.6466 -2.0972
 1179SOL    HW2 3537   3.590   1.080   8.144  0.6601 -1.3596 -1.8570
 1180SOL     OW 3538   4.540   2.757   5.397 -0.4063  0.4501 -0.1169
 1180SOL    HW1 3539   4.560   2.757   5.303 -1.8578 -0.5882 -0.4564
 1180SOL    HW2 3540   4.541   2.850   5.422  1.5064  0.6469 -0.7881
 1181SOL     OW 3541   0.483   1.830   8.159 -0.1089 -0.4096  0.1315
 1181SOL    HW1 3542   0.395   1.793   8.148  0.3891 -1.4296 -0.5442
 1181SOL    HW2 3543   0.507   1.861   8.071 -0.4149  1.3702  0.6224
 1182SOL     OW 3544   4.579   1.267   5.132  0.2148 -0.6033  0.7932
 1182SOL    HW1 3545   4.573   1.252   5.226  1.3322 -0.7897  0.8515
 1182SOL    HW2 3546   4.638   1.342   5.123  0.1810 -0.6355  0.2446
 1183SOL     OW 3547   3.928   4.588   5.805 -0.7833  0.1982  0.2868
 1183SOL    HW1 3548   3.977   4.509   5.828 -1.9959  0.1506  3.0788
 1183SOL    HW2 3549   3.981   4.629   5.736  1.4934 -1.4320  0.9233
 1184SOL     OW 3550   1.588   1.991   9.589 -0.0835  0.1903 -0.4485
 1184SOL    HW1 3551   1.610   2.065   9.645 -2.0021  1.1990 -0.9584
 1184SOL    HW2 3552   1.631   1.916   9.630  0.4283  1.2800  1.0727
 1185SOL     OW 3553   3.030   4.563   4.996 -0.1579  1.1121  0.7089
 1185SOL    HW1 3554   3.000   4.503   5.064 -0.9807  0.6003 -0.0851
 1185SOL    HW2 3555   2.974   4.640   5.005  0.2731  1.3898  1.1148
 1186SOL     OW 3556   0.846   3.904   7.217 -0.0791 -0.1339  0.2945
 1186SOL    HW1 3557   0.775   3.890   7.280 -0.8091  3.7108  0.5516
 1186SOL    HW2 3558   0.821   3.852   7.141 -1.1784 -1.8259  1.7250
 1187SOL     OW 3559   2.128   3.594   9.037 -0.0618 -0.2882 -0.2563
 1187SOL    HW1 3560   2.049   3.625   9.081 -0.1277  0.7593 -1.0907
 1187SOL    HW2 3561   2.096   3.531   8.972 -0.1227 -0.5397  0.0157
 1188SOL     OW 3562   1.781   3.001   5.399 -0.4141 -0.1596  0.0936
 1188SOL    HW1 3563   1.702   2.969   5.356  0.8275 -0.8228 -1.8152
 1188SOL    HW2 3564   1.827   2.922   5.427  0.1277  0.1705  0.1577
 1189SOL     OW 3565   1.044   2.787   5.488  0.1824 -0.0657 -0.0703
 1189SOL    HW1 3566   1.101   2.712   5.470  0.1727  0.3820 -2.1625
 1189SOL    HW2 3567   1.087   2.861   5.445 -0.9314  0.6910  0.0695
 1190SOL     OW 3568   4.223   4.649   5.981  0.0305 -0.5872  0.6441
 1190SOL    HW1 3569   4.210   4.731   5.933  3.2836  0.4004  1.1682
 1190SOL    HW2 3570   4.241   4.584   5.913  1.2835  0.0574  0.3248
 1191SOL     OW 3571   1.402   0.153   6.073  0.0140 -0.1347 -0.1463
 1191SOL    HW1 3572   1.449   0.072   6.051  0.6713  0.6084 -1.6985
 1191SOL    HW2 3573   1.343   0.166   5.999 -0.2681  0.6757  0.2167
 1192SOL     OW 3574   1.090   4.257   4.395  0.6882  0.2006  0.1278
 1192SOL    HW1 3575   1.161   4.200   4.365  0.6978  0.8062 -1.0349
 1192SOL    HW2 3576   1.135   4.334   4.429  0.6764 -0.4580  1.7250
 1193SOL     OW 3577   3.460   1.056   4.809 -0.1907 -0.7071 -0.5046
 1193SOL    HW1 3578   3.523   1.123   4.784 -0.7543 -0.5927 -1.6727
 1193SOL    HW2 3579   3.457   0.997   4.734 -3.2640  0.6218 -1.5802
 1194SOL     OW 3580   2.449   3.556   5.208  0.0948 -0.2442 -0.3916
 1194SOL    HW1 3581   2.398   3.598   5.138 -1.0830  1.0069  1.1382
 1194SOL    HW2 3582   2.386   3.504   5.257  0.7569 -0.5495  0.1658
 1195SOL     OW 3583   1.647   3.442   4.602  0.2584  0.5781 -0.1276
 1195SOL    HW1 3584   1.636   3.475   4.691  3.2159  0.9331  0.2217
 1195SOL    HW2 3585   1.598   3.359   4.600  1.7463 -0.4665  2.5167
 1196SOL     OW 3586   0.213   3.050   6.946  0.7283 -0.1295  0.2164
 1196SOL    HW1 3587   0.124   3.046   6.911  1.4236  1.1358 -1.8705
 1196SOL    HW2 3588   0.231   2.961   6.974 -0.3750 -0.9762 -1.5522
 1197SOL     OW 3589   3.217   4.392   6.347  0.0342  0.7877  0.6809
 1197SOL    HW1 3590   3.209   4.341   6.267 -0.5467  1.7284  0.1221
 1197SOL    HW2 3591   3.248   4.329   6.412  0.6300  0.0345 -0.2974
 1198SOL     OW 3592   1.549   1.379   8.082 -0.4374 -0.2086  0.4432
 1198SOL    HW1 3593   1.605   1.454   8.104 -1.4819  1.1994 -1.3479
 1198SOL    HW2 3594   1.482   1.378   8.151  1.1344 -1.2820  2.0313
 1199SOL     OW 3595   2.504   4.059   7.528  0.3486  0.1917  0.3935
 1199SOL    HW1 3596   2.426   4.114   7.532  0.4238  0.2814  0.7246
 1199SOL    HW2 3597   2.572   4.110   7.572  0.5412  0.0330  0.2830
 1200SOL     OW 3598   0.400   0.439   8.170 -0.2369  0.1216 -0.1056
 1200SOL    HW1 3599   0.348   0.359   8.156  0.2425  0.1193 -2.2497
 1200SOL    HW2 3600   0.465   0.438   8.099  1.8666  0.8114  1.6949
 1201SOL     OW 3601   1.889   2.163   5.257  0.2028  0.7473  0.3754
 1201SOL    HW1 3602   1.958   2.179   5.192 -1.8636  0.2101 -2.1108
 1201SOL    HW2 3603   1.904   2.073   5.286  0.2604  0.4668 -0.5056
 1202SOL     OW 3604   1.410   4.951   6.405  0.1653 -0.5270 -0.4993
 1202SOL    HW1 3605   1.357   5.029   6.420  1.2467  0.3399 -1.0217
 1202SOL    HW2 3606   1.347   4.883   6.381 -0.7792  0.2176 -0.1922
 1203SOL     OW 3607   3.756   1.706   5.429 -0.5003 -0.2757  0.1230
 1203SOL    HW1 3608   3.759   1.726   5.523  3.2687  0.8718 -0.0738
 1203SOL    HW2 3609   3.741   1.611   5.426 -1.6860 -0.1919  1.8006
 1204SOL     OW 3610   1.899   4.947   6.235 -0.6365 -0.1475  0.2624
 1204SOL    HW1 3611   1.833   4.994   6.285 -0.1462  0.5375  0.2871
 1204SOL    HW2 3612   1.850   4.890   6.176 -1.2375  0.2589  0.3684
 1205SOL     OW 3613   0.484   1.993   7.054 -0.3621 -0.6393  0.6838
 1205SOL    HW1 3614   0.475   2.004   6.959  0.0247  0.1142  0.7264
 1205SOL    HW2 3615   0.508   1.901   7.065  0.4806 -0.5271 -0.0225
 1206SOL     OW 3616   2.278   0.995   6.673 -0.7437  0.2328  0.0904
 1206SOL    HW1 3617   2.253   1.087   6.662 -1.9401  0.0220  0.8110
 1206SOL    HW2 3618   2.194   0.948   6.672 -0.1762 -0.8034  0.1876
 1207SOL     OW 3619   3.705   3.932   7.866  0.5363  0.0565 -0.2346
 1207SOL    HW1 3620   3.620   3.887   7.875  0.2314  0.2063 -1.9286
 1207SOL    HW2 3621   3.692   3.992   7.792  1.5562  1.4989  0.7047
 1208SOL     OW 3622   2.382   4.973   4.780 -0.9369 -0.5508  0.7047
 1208SOL    HW1 3623   2.459   5.003   4.828 -0.3375 -0.0795 -0.5059
 1208SOL    HW2 3624   2.369   4.883   4.809  0.4143 -0.8266  0.5237
 1209SOL     OW 3625   3.145   0.610   8.775  0.2495  0.0738  0.6015
 1209SOL    HW1 3626   3.149   0.558   8.694  1.3146 -0.6869  1.1219
 1209SOL    HW2 3627   3.052   0.611   8.798  0.2296 -2.0703  0.8523
 1210SOL     OW 3628   1.410   0.302   5.293 -0.0723 -0.3133  0.7381
 1210SOL    HW1 3629   1.367   0.327   5.374 -0.0279  2.4427  0.0039
 1210SOL    HW2 3630   1.338   0.290   5.230 -0.0641 -1.7871  0.9678
 1211SOL     OW 3631   4.366   2.957   5.618  0.5649 -0.2145  0.3932
 1211SOL    HW1 3632   4.318   2.931   5.539 -1.6344 -0.9283  1.8635
 1211SOL    HW2 3633   4.352   3.052   5.623 -0.7557 -0.4098  0.7904
 1212SOL     OW 3634   0.730   3.774   4.078 -0.0456  0.1510 -0.6415
 1212SOL    HW1 3635   0.783   3.828   4.020  1.6577 -0.2896  0.4265
 1212SOL    HW2 3636   0.782   3.767   4.158 -1.6707 -0.4392  0.4152
 1213SOL     OW 3637   3.021   3.781   5.802 -0.0471 -0.1384 -0.0453
 1213SOL    HW1 3638   2.982   3.827   5.728 -0.4719  0.0171  0.2745
 1213SOL    HW2 3639   2.947   3.748   5.852  0.2180  0.3487  0.6843
 1214SOL     OW 3640   0.209   4.747   8.446 -0.3111  0.1066 -0.3536
 1214SOL    HW1 3641   0.263   4.756   8.524 -0.3566 -0.4056 -0.2535
 1214SOL    HW2 3642   0.156   4.669   8.463  0.0296 -0.2975 -1.0999
 1215SOL     OW 3643   1.071   2.735   7.480  0.7098  0.2440 -0.5943
 1215SOL    HW1 3644   1.066   2.667   7.547 -3.8169 -1.2465 -2.0732
 1215SOL    HW2 3645   1.080   2.817   7.530 -2.4642 -0.7751  2.0277
 1216SOL     OW 3646   4.908   3.083   8.006 -0.5848 -0.6969  0.3259
 1216SOL    HW1 3647   4.929   3.174   8.030  0.4546 -1.8123  4.5001
 1216SOL    HW2 3648   4.813   3.079   8.010 -0.7518  0.4330 -1.2949
 1217SOL     OW 3649   1.091   3.799   9.652 -0.2459  0.0071 -1.0860
 1217SOL    HW1 3650   1.155   3.732   9.627 -0.1305  0.2555 -1.4583
 1217SOL    HW2 3651   1.007   3.754   9.652 -0.1944 -0.0863 -1.5313
 1218SOL     OW 3652   1.724   0.697   6.254  0.4416 -0.0436  0.0950
 1218SOL    HW1 3653   1.812   0.675   6.224  0.3680 -2.5722  1.5027
 1218SOL    HW2 3654   1.718   0.659   6.341 -1.7249  0.9483  0.4438
 1219SOL     OW 3655   0.671   2.569   4.952  0.1497 -1.1022  0.4952
 1219SOL    HW1 3656   0.737   2.522   4.900  0.0278 -2.3331  1.4037
 1219SOL    HW2 3657   0.714   2.652   4.975  0.4436 -0.8142 -0.9845
 1220SOL     OW 3658   2.739   0.297   5.563  0.0162  0.1857  0.0843
 1220SOL    HW1 3659   2.660   0.271   5.609 -0.2509 -0.1092 -0.5255
 1220SOL    HW2 3660   2.728   0.262   5.474  0.4617  0.8435 -0.2379
 1221SOL     OW 3661   0.366   4.412   4.795  0.3287 -0.0890 -0.4417
 1221SOL    HW1 3662   0.383   4.489   4.850 -1.0531  0.3964 -0.6505
 1221SOL    HW2 3663   0.305   4.443   4.729 -1.4210 -1.7006  0.3248
 1222SOL     OW 3664   1.411   0.423   5.550 -0.0057  0.1154  0.2019
 1222SOL    HW1 3665   1.420   0.339   5.595 -1.0458  0.7036  1.5929
 1222SOL    HW2 3666   1.317   0.443   5.556  0.0692  0.9278 -0.9711
 1223SOL     OW 3667   4.691   3.407   4.957  0.0846  0.0333 -0.3369
 1223SOL    HW1 3668   4.676   3.491   4.999  4.1894  1.5635 -1.4516
 1223SOL    HW2 3669   4.638   3.410   4.877  2.1154  2.9152 -1.7464
 1224SOL     OW 3670   0.064   2.169   6.493  0.4064 -0.1487 -0.1631
 1224SOL    HW1 3671   0.043   2.259   6.521 -0.3256 -0.4008  0.1266
 1224SOL    HW2 3672   0.050   2.116   6.571  0.9129 -0.5059 -0.3151
 1225SOL     OW 3673   4.919   1.241   5.380  0.0953 -0.4534 -0.2724
 1225SOL    HW1 3674   4.834   1.207   5.353  0.7893 -1.2185 -1.5672
 1225SOL    HW2 3675   4.980   1.168   5.367  0.9636  0.0966  0.5815
 1226SOL     OW 3676   0.024   3.513   4.952  0.7270  0.9109 -0.3305
 1226SOL    HW1 3677  -0.041   3.443   4.949 -1.1057  2.5488 -1.1031
 1226SOL    HW2 3678   0.107   3.470   4.933  0.1994 -1.5287  2.2516
 1227SOL     OW 3679   0.400   3.921   5.068 -0.2239  0.3080  0.4286
 1227SOL    HW1 3680   0.429   3.952   5.154  0.7416  0.8134 -0.0625
 1227SOL    HW2 3681   0.478   3.926   5.013 -1.3040  2.0030 -1.0406
 1228SOL     OW 3682   3.214   0.801   5.951  0.7623 -0.3681  0.7694
 1228SOL    HW1 3683   3.171   0.745   6.015  0.0929  0.5484  1.1407
 1228SOL    HW2 3684   3.307   0.778   5.957  0.2085 -3.7740 -1.4239
 1229SOL     OW 3685   0.152   2.025   5.883 -0.1214  0.1846  0.2349
 1229SOL    HW1 3686   0.072   2.006   5.931 -1.3037  1.1444 -1.2557
 1229SOL    HW2 3687   0.185   2.106   5.922 -0.7986  0.6842 -0.2117
 1230SOL     OW 3688   4.148   1.188   6.210 -0.4678 -0.4174 -0.1716
 1230SOL    HW1 3689   4.142   1.272   6.256  1.9305  0.4701 -1.3419
 1230SOL    HW2 3690   4.080   1.193   6.143 -0.8285  0.2690  0.2330
 1231SOL     OW 3691   1.973   1.807   5.025 -0.0540 -0.0413  0.7161
 1231SOL    HW1 3692   2.017   1.866   5.087 -0.9922 -1.3581  2.7696
 1231SOL    HW2 3693   1.880   1.832   5.030  0.0706  1.3466 -2.0050
 1232SOL     OW 3694   4.853   3.073   7.630  0.0156 -0.4349 -0.0635
 1232SOL    HW1 3695   4.851   3.083   7.535 -2.6875 -0.6571 -0.1053
 1232SOL    HW2 3696   4.846   3.162   7.664  1.3048 -0.3266 -0.0263
 1233SOL     OW 3697   1.995   0.430   5.915  0.1864  0.0801  0.0411
 1233SOL    HW1 3698   2.045   0.417   5.834 -0.2961  2.3583 -0.6874
 1233SOL    HW2 3699   1.904   0.427   5.887 -0.0190  4.2180 -0.2317
 1234SOL     OW 3700   1.460   4.301   6.851  0.0974  0.8617 -0.1224
 1234SOL    HW1 3701   1.418   4.313   6.766  1.6841 -0.0248 -1.0699
 1234SOL    HW2 3702   1.416   4.224   6.889  1.8957 -1.1203 -1.8447
 1235SOL     OW 3703   3.575   3.135   5.625  0.3826  0.5139  0.0384
 1235SOL    HW1 3704   3.601   3.046   5.648 -1.2168  0.3845  1.4626
 1235SOL    HW2 3705   3.657   3.179   5.602  1.3264 -0.9911  0.4438
 1236SOL     OW 3706   0.088   3.565   7.758 -0.2587  0.6876 -0.6778
 1236SOL    HW1 3707   0.036   3.636   7.795 -3.1613  0.0877 -3.2466
 1236SOL    HW2 3708   0.153   3.610   7.704  0.4108  1.3900  0.6494
 1237SOL     OW 3709   0.886   0.430   6.066  0.0961 -0.0081  0.4804
 1237SOL    HW1 3710   0.888   0.415   5.972 -1.1749  1.6868  0.1223
 1237SOL    HW2 3711   0.970   0.472   6.086  0.1642  0.0805  0.0140
 1238SOL     OW 3712   2.670   0.094   4.784  0.5085 -0.6344  0.2835
 1238SOL    HW1 3713   2.712   0.179   4.766  2.0487 -0.9341  2.1045
 1238SOL    HW2 3714   2.736   0.029   4.761 -0.4104 -1.3462 -0.4403
 1239SOL     OW 3715   4.887   1.109   9.110 -0.2154  0.3518  0.2227
 1239SOL    HW1 3716   4.955   1.151   9.057 -1.9179  0.0928 -2.3343
 1239SOL    HW2 3717   4.859   1.034   9.058 -1.1175 -0.7196  2.1444
 1240SOL     OW 3718   4.156   2.578   7.371 -0.0622  0.2093  0.3053
 1240SOL    HW1 3719   4.118   2.657   7.331  0.8241  0.2017 -0.5918
 1240SOL    HW2 3720   4.107   2.567   7.453 -0.4465  1.4864  0.2777
 1241SOL     OW 3721   2.696   2.226   5.851 -0.7333 -0.1594  0.5615
 1241SOL    HW1 3722   2.767   2.162   5.853 -0.3107  0.2875  0.2160
 1241SOL    HW2 3723   2.709   2.279   5.929  0.6669  1.3352 -0.6363
 1242SOL     OW 3724   4.492   3.273   7.752  0.4158 -0.0761 -0.0141
 1242SOL    HW1 3725   4.527   3.191   7.787  0.5592  0.1143  0.2963
 1242SOL    HW2 3726   4.457   3.249   7.666  1.8262 -0.1715 -0.6043
 1243SOL     OW 3727   2.446   1.719   5.879  0.3117  0.7899 -0.0096
 1243SOL    HW1 3728   2.397   1.788   5.925 -0.2961 -0.0492  0.6523
 1243SOL    HW2 3729   2.488   1.669   5.949  1.3772  0.9419 -0.5258
 1244SOL     OW 3730   0.570   4.180   6.511  0.2419  0.5040  0.0582
 1244SOL    HW1 3731   0.483   4.215   6.526  0.3657  0.4152  1.1181
 1244SOL    HW2 3732   0.629   4.253   6.530  0.4395  0.1910  0.6766
 1245SOL     OW 3733   4.261   0.031   8.661 -0.3371  0.3220  0.4437
 1245SOL    HW1 3734   4.348   0.057   8.631 -0.9824  0.1223 -1.7855
 1245SOL    HW2 3735   4.240  -0.047   8.609 -1.9458  0.5411  0.7014
 1246SOL     OW 3736   2.967   0.468   6.266  0.0667 -0.5089  0.2697
 1246SOL    HW1 3737   2.984   0.374   6.260  2.5755 -0.0101 -2.4489
 1246SOL    HW2 3738   2.913   0.488   6.190 -0.3378  0.2779  0.7506
 1247SOL     OW 3739   1.130   3.694   7.945 -0.2672  0.3787 -0.1932
 1247SOL    HW1 3740   1.169   3.741   8.019  1.6565 -0.5341 -0.5654
 1247SOL    HW2 3741   1.205   3.665   7.893 -1.3042 -3.1630  0.0548
 1248SOL     OW 3742   3.062   4.650   8.463  0.0398 -0.0035 -0.3868
 1248SOL    HW1 3743   3.031   4.739   8.448 -0.0859 -0.1566 -1.0409
 1248SOL    HW2 3744   3.022   4.598   8.394 -0.9384 -0.8086  0.7537
 1249SOL     OW 3745   4.492   0.130   6.763 -0.2862 -0.3626 -0.3532
 1249SOL    HW1 3746   4.537   0.102   6.843 -0.6716 -0.1901 -0.0749
 1249SOL    HW2 3747   4.419   0.183   6.794 -2.5016 -3.0283 -0.6411
 1250SOL     OW 3748   1.922   4.320   4.597  0.2409  0.3288  0.0947
 1250SOL    HW1 3749   1.996   4.316   4.537 -0.0143 -1.3367 -0.1608
 1250SOL    HW2 3750   1.856   4.263   4.557 -0.6205  0.6079  1.0680
 1251SOL     OW 3751   2.713   0.216   7.270  0.2721 -0.2388  0.3399
 1251SOL    HW1 3752   2.641   0.168   7.229 -1.3813  1.8487  0.6208
 1251SOL    HW2 3753   2.748   0.271   7.200  0.6337 -0.1789  0.5638
 1252SOL     OW 3754   2.997   0.006   7.855  0.0576 -0.1117  0.4827
 1252SOL    HW1 3755   2.913  -0.002   7.899 -0.0083 -1.5294  0.1556
 1252SOL    HW2 3756   3.043   0.076   7.902 -1.7285  1.5048 -0.0688
 1253SOL     OW 3757   4.463   3.359   6.036  0.4528  0.0625  0.1761
 1253SOL    HW1 3758   4.483   3.382   5.946  0.9545  0.7650  0.4544
 1253SOL    HW2 3759   4.513   3.280   6.053 -0.8198 -0.9580 -0.6118
 1254SOL     OW 3760   4.383   1.900   5.433  0.2172  0.0522 -0.5191
 1254SOL    HW1 3761   4.456   1.910   5.494 -1.5968  0.5530  1.7129
 1254SOL    HW2 3762   4.339   1.986   5.434 -1.8933 -0.9740  0.2825
 1255SOL     OW 3763   2.083   4.832   6.716  0.5454  0.2492 -0.2782
 1255SOL    HW1 3764   2.112   4.741   6.712  1.7897  0.4808  1.7502
 1255SOL    HW2 3765   1.993   4.828   6.748  0.7235 -0.2797  0.1671
 1256SOL     OW 3766   0.317   2.392   5.347 -0.4130  1.3844  0.1742
 1256SOL    HW1 3767   0.360   2.407   5.431  2.3598  0.1455 -0.8960
 1256SOL    HW2 3768   0.379   2.426   5.282 -1.3430  0.0962 -1.4554
 1257SOL     OW 3769   3.486   0.555   6.367  0.2006  0.2511 -0.3397
 1257SOL    HW1 3770   3.523   0.524   6.284  1.3659  1.2353 -0.2231
 1257SOL    HW2 3771   3.543   0.518   6.434  0.4864  1.0808 -0.1062
 1258SOL     OW 3772   0.738   0.802   8.407 -0.3696  0.0174  0.0667
 1258SOL    HW1 3773   0.731   0.879   8.463  2.8445 -0.9439  2.0385
 1258SOL    HW2 3774   0.741   0.728   8.468 -1.4941 -1.5557 -1.6656
 1259SOL     OW 3775   4.320   0.538   6.041 -0.4625  0.1897  0.7585
 1259SOL    HW1 3776   4.410   0.551   6.009 -0.6922  0.1685  0.0831
 1259SOL    HW2 3777   4.320   0.449   6.077 -0.3986 -0.0921  0.0800
 1260SOL     OW 3778   4.323   4.684   7.550 -0.1587  0.1355  0.2740
 1260SOL    HW1 3779   4.416   4.665   7.540 -0.3803 -0.5049 -0.7862
 1260SOL    HW2 3780   4.318   4.779   7.550  0.5996  0.2042  1.6143
 1261SOL     OW 3781   3.400   0.104   6.190 -0.5656 -1.4615 -0.3510
 1261SOL    HW1 3782   3.377   0.014   6.167  0.3469 -2.9683  3.7234
 1261SOL    HW2 3783   3.469   0.094   6.256  1.1881  2.3688 -1.3386
 1262SOL     OW 3784   4.466   3.500   8.354  0.0553  0.1128  0.1532
 1262SOL    HW1 3785   4.532   3.489   8.285 -1.2135 -1.5107 -0.8955
 1262SOL    HW2 3786   4.454   3.595   8.361  2.1882  0.4440  0.1308
 1263SOL     OW 3787   1.030   3.875   7.750  0.2981  0.3901 -0.5784
 1263SOL    HW1 3788   1.039   3.795   7.802  1.5529  0.8052 -0.1117
 1263SOL    HW2 3789   0.977   3.849   7.675 -2.1716 -0.0640  1.1969
 1264SOL     OW 3790   4.664   0.383   6.589 -0.0901  0.8613  0.2621
 1264SOL    HW1 3791   4.748   0.416   6.620 -0.9772  0.1169  4.1106
 1264SOL    HW2 3792   4.601   0.452   6.611 -0.7388  0.5476 -0.5584
 1265SOL     OW 3793   0.665   1.112   6.425  0.1638 -0.3823  0.0151
 1265SOL    HW1 3794   0.738   1.173   6.417 -1.6763  1.9586 -0.0538
 1265SOL    HW2 3795   0.633   1.101   6.335 -0.0956 -0.6960  0.1428
 1266SOL     OW 3796   4.657   2.410   9.029 -0.4058  0.0194 -0.6684
 1266SOL    HW1 3797   4.715   2.456   8.969 -1.3490  0.2001 -1.4530
 1266SOL    HW2 3798   4.713   2.391   9.105  1.1609 -1.3528 -2.0882
 1267SOL     OW 3799   2.472   1.751   8.130 -0.3175 -0.2616  1.2388
 1267SOL    HW1 3800   2.501   1.741   8.220  0.6904 -1.0325  0.8585
 1267SOL    HW2 3801   2.457   1.845   8.119  2.7488  0.3333  1.2948
 1268SOL     OW 3802   1.153   0.461   5.641  0.1014  0.3163 -0.3510
 1268SOL    HW1 3803   1.124   0.410   5.717  0.4317 -2.8549 -2.1617
 1268SOL    HW2 3804   1.087   0.444   5.574  0.7740  1.4917 -1.3516
 1269SOL     OW 3805   2.651   2.529   5.731  0.1578 -0.0976  0.2850
 1269SOL    HW1 3806   2.677   2.621   5.729  2.7991 -0.7251  0.8525
 1269SOL    HW2 3807   2.681   2.499   5.817 -0.5195 -1.5130  0.0432
 1270SOL     OW 3808   4.829   3.285   6.265 -0.1346  0.2769  0.1282
 1270SOL    HW1 3809   4.868   3.258   6.182 -0.5134 -2.7069  0.8184
 1270SOL    HW2 3810   4.904   3.311   6.319  0.2718  0.5571 -0.5578
 1271SOL     OW 3811   0.750   2.796   7.405  0.0119  0.4090  0.4711
 1271SOL    HW1 3812   0.689   2.790   7.478 -1.2496 -2.4201 -0.6755
 1271SOL    HW2 3813   0.781   2.706   7.393  2.3052  1.2946 -0.7683
 1272SOL     OW 3814   2.782   3.290   5.048  0.5828  0.0813 -0.3130
 1272SOL    HW1 3815   2.709   3.229   5.037  1.6110 -0.9308 -1.9456
 1272SOL    HW2 3816   2.860   3.237   5.033  1.6058  1.3971  0.1759
 1273SOL     OW 3817   1.516   4.641   5.076  0.2995 -0.1274  0.3057
 1273SOL    HW1 3818   1.553   4.725   5.104  0.9859 -0.7766  1.3870
 1273SOL    HW2 3819   1.592   4.592   5.043 -0.1154 -0.2900 -0.4224
 1274SOL     OW 3820   2.943   4.405   5.770 -0.6143  0.0988 -0.0772
 1274SOL    HW1 3821   3.013   4.468   5.752  1.0189 -1.7098 -0.4631
 1274SOL    HW2 3822   2.989   4.323   5.790 -2.6077 -1.6911 -2.1905
 1275SOL     OW 3823   2.740   0.366   5.109 -0.5706 -0.6740 -0.4276
 1275SOL    HW1 3824   2.831   0.379   5.084 -0.7032 -0.1500 -0.6487
 1275SOL    HW2 3825   2.715   0.446   5.155 -2.4437  1.6740 -4.8832
 1276SOL     OW 3826   1.620   3.395   5.246  0.4713 -0.0917  0.6474
 1276SOL    HW1 3827   1.582   3.344   5.317  2.4657  0.0244  1.8737
 1276SOL    HW2 3828   1.714   3.393   5.262  0.8375  1.5797 -0.9034
 1277SOL     OW 3829   0.674   0.496   7.129  0.2637 -0.6688 -0.1909
 1277SOL    HW1 3830   0.763   0.505   7.164 -0.0678 -3.6632  1.7570
 1277SOL    HW2 3831   0.656   0.402   7.134 -3.4010 -0.0493  0.5219
 1278SOL     OW 3832   0.590   2.355   7.129  0.1175  0.3241  0.2563
 1278SOL    HW1 3833   0.606   2.297   7.054  0.0887 -1.0722  1.2760
 1278SOL    HW2 3834   0.519   2.412   7.101  0.8806  0.6195 -1.1786
 1279SOL     OW 3835   0.445   2.818   7.195  0.0044 -0.2170  0.0394
 1279SOL    HW1 3836   0.491   2.846   7.116  0.9943  0.2062  0.7510
 1279SOL    HW2 3837   0.514   2.784   7.252 -0.8361 -1.6139  0.2693
 1280SOL     OW 3838   1.230   4.842   6.929 -0.7155  0.5463 -0.0083
 1280SOL    HW1 3839   1.273   4.837   7.014  1.4336  3.2177 -0.8289
 1280SOL    HW2 3840   1.242   4.754   6.891  2.7580  0.6892  0.4535
 1281SOL     OW 3841   4.542   1.319   6.448 -0.7133  0.1430 -0.3968
 1281SOL    HW1 3842   4.633   1.331   6.422  0.0231  2.6121  2.6316
 1281SOL    HW2 3843   4.499   1.282   6.371  2.6114 -0.2252 -2.2643
 1282SOL     OW 3844   2.419   2.335   5.009 -0.3588  0.4542  0.6146
 1282SOL    HW1 3845   2.326   2.316   5.021  0.3077 -1.2184  5.3115
 1282SOL    HW2 3846   2.435   2.413   5.063  1.1114  0.2300  0.5606
 1283SOL     OW 3847   2.988   3.381   5.334 -0.6828 -0.0246 -0.1063
 1283SOL    HW1 3848   3.070   3.411   5.374 -0.9025  0.4814 -0.0326
 1283SOL    HW2 3849   2.982   3.429   5.252 -1.0412  0.1511  0.0179
 1284SOL     OW 3850   2.383   2.293   7.727  0.0338 -0.5370  0.0764
 1284SOL    HW1 3851   2.325   2.317   7.800 -1.8105  0.2728 -1.5591
 1284SOL    HW2 3852   2.453   2.242   7.768 -0.3299  0.7919  2.5438
 1285SOL     OW 3853   0.949   2.936   5.692 -0.2154 -0.3686  0.4454
 1285SOL    HW1 3854   0.859   2.923   5.720 -0.2794 -1.7304 -0.3063
 1285SOL    HW2 3855   0.980   2.849   5.669  1.2089  0.1174  0.4321
 1286SOL     OW 3856   4.802   4.846   8.824 -0.4004  0.0063 -0.1501
 1286SOL    HW1 3857   4.827   4.938   8.834  0.8473 -0.2883 -0.4601
 1286SOL    HW2 3858   4.827   4.805   8.907  0.0718 -0.2722 -0.4272
 1287SOL     OW 3859   0.239   3.694   7.564  0.1589  0.1699 -0.1454
 1287SOL    HW1 3860   0.288   3.765   7.523  0.6794  0.8871  1.6354
 1287SOL    HW2 3861   0.306   3.640   7.606 -0.3525 -0.6131 -0.3197
 1288SOL     OW 3862   0.348   0.658   8.653  0.1945  0.0850 -0.0479
 1288SOL    HW1 3863   0.275   0.603   8.621 -0.6918  0.8732  0.5710
 1288SOL    HW2 3864   0.425   0.602   8.645 -0.4906 -0.8033 -0.6520
 1289SOL     OW 3865   1.744   3.389   6.649 -0.2053 -0.3832 -0.1751
 1289SOL    HW1 3866   1.823   3.381   6.595  0.4318 -0.7501  0.8000
 1289SOL    HW2 3867   1.699   3.306   6.639 -0.7573  0.0140 -1.1492
 1290SOL     OW 3868   4.226   0.355   7.277  0.5244 -0.1495  0.7666
 1290SOL    HW1 3869   4.253   0.415   7.206 -2.3346  1.2043  0.7049
 1290SOL    HW2 3870   4.261   0.396   7.356 -0.5308  1.0971  0.6151
 1291SOL     OW 3871   0.879   0.702   7.952 -0.3823  0.2282 -0.0228
 1291SOL    HW1 3872   0.857   0.768   8.018  0.1869  0.0753  0.3285
 1291SOL    HW2 3873   0.947   0.648   7.994  0.6054  0.6424 -1.0420
 1292SOL     OW 3874   1.384   1.947   8.113  0.1568  0.1923  0.1013
 1292SOL    HW1 3875   1.337   1.952   8.030  0.0710  2.2557  0.2382
 1292SOL    HW2 3876   1.412   1.855   8.119 -0.5080 -0.1751 -1.8129
 1293SOL     OW 3877   3.559   3.626   5.131 -0.5293 -0.5113  0.2988
 1293SOL    HW1 3878   3.502   3.565   5.178 -2.0949  0.3948 -0.3772
 1293SOL    HW2 3879   3.647   3.588   5.141 -1.2073 -1.8804  1.4502
 1294SOL     OW 3880   0.334   1.828   9.482  0.2181 -0.4087 -0.4605
 1294SOL    HW1 3881   0.261   1.782   9.441 -2.5824  2.9849  0.3520
 1294SOL    HW2 3882   0.302   1.853   9.568  3.1245 -0.4405  0.7553
 1295SOL     OW 3883   2.537   2.853   9.060  0.8222 -0.5246 -0.2160
 1295SOL    HW1 3884   2.597   2.917   9.098  0.7835 -0.5931 -0.0415
 1295SOL    HW2 3885   2.555   2.772   9.106 -0.8557 -0.0838  1.3565
 1296SOL     OW 3886   4.164   1.306   8.551 -0.4684  0.1131  0.0918
 1296SOL    HW1 3887   4.143   1.225   8.505 -1.4932  0.4088  0.0158
 1296SOL    HW2 3888   4.080   1.337   8.584  0.3095 -0.5652  2.9810
 1297SOL     OW 3889   2.444   3.273   7.565  0.9682 -0.2223  0.1087
 1297SOL    HW1 3890   2.426   3.359   7.528  2.0293  0.5758  1.3919
 1297SOL    HW2 3891   2.410   3.278   7.654 -2.2312 -2.3565 -0.8119
 1298SOL     OW 3892   0.054   4.149   6.707 -0.1868 -0.0778  0.0481
 1298SOL    HW1 3893   0.093   4.118   6.626  2.2102 -1.6696  1.6989
 1298SOL    HW2 3894  -0.031   4.104   6.711 -0.2437 -0.1625 -1.4128
 1299SOL     OW 3895   2.841   2.907   9.638  0.3018  0.2012  0.4964
 1299SOL    HW1 3896   2.876   2.821   9.614  0.2818 -0.9367  4.0159
 1299SOL    HW2 3897   2.902   2.941   9.702 -1.8768  0.8426  2.3724
 1300SOL     OW 3898   2.030   2.355   8.246  0.4258 -0.5317 -0.0720
 1300SOL    HW1 3899   1.950   2.357   8.299 -0.7927  0.6101 -1.8258
 1300SOL    HW2 3900   2.077   2.278   8.275 -1.0808 -0.9554  1.3698
 1301SOL     OW 3901   4.904   0.478   8.374  0.2379  0.4234 -0.2038
 1301SOL    HW1 3902   4.867   0.394   8.402  1.2621 -0.2269 -0.7660
 1301SOL    HW2 3903   4.936   0.462   8.286 -0.5115  1.7159 -0.7459
 1302SOL     OW 3904   2.621  -0.010   5.345 -0.2397  0.1973  0.2032
 1302SOL    HW1 3905   2.531  -0.017   5.376 -0.3747  1.5307  0.1599
 1302SOL    HW2 3906   2.616   0.046   5.268  0.8117  1.8121  1.2355
 1303SOL     OW 3907   3.736   4.479   9.951  0.2868 -0.4572  0.2705
 1303SOL    HW1 3908   3.706   4.570   9.955  0.5656 -0.4026  1.6504
 1303SOL    HW2 3909   3.788   4.475   9.871 -0.6769  0.2847 -0.4283
 1304SOL     OW 3910   1.377   1.507   8.256 -0.1346  0.4609  0.0779
 1304SOL    HW1 3911   1.379   1.558   8.175 -1.4786  0.6984  0.1664
 1304SOL    HW2 3912   1.370   1.572   8.326 -2.1148  0.2166  0.1750
 1305SOL     OW 3913   3.121   1.510   8.868 -0.3122 -0.4571  0.0465
 1305SOL    HW1 3914   3.130   1.501   8.773  1.2126 -1.0219  0.2160
 1305SOL    HW2 3915   3.187   1.575   8.892  1.8602 -2.8361  1.0811
 1306SOL     OW 3916   0.745   1.627   6.327  0.0022 -0.5231  0.1587
 1306SOL    HW1 3917   0.675   1.678   6.286  0.7380 -0.8588 -1.6124
 1306SOL    HW2 3918   0.813   1.622   6.260  0.9561 -1.7633  1.1705
 1307SOL     OW 3919   1.739   2.992   5.671 -0.3407 -0.2544  0.2360
 1307SOL    HW1 3920   1.751   2.990   5.576  1.3379  1.9044  0.3162
 1307SOL    HW2 3921   1.776   2.908   5.701  0.6319 -0.2605 -0.9017
 1308SOL     OW 3922   0.421   3.540   7.681  0.3457  0.9064 -0.2953
 1308SOL    HW1 3923   0.389   3.462   7.726 -0.2378  0.6456 -1.1373
 1308SOL    HW2 3924   0.514   3.545   7.706  0.7072 -0.7277 -1.1380
 1309SOL     OW 3925   1.336   3.902   6.398  0.2506  0.5796 -0.1530
 1309SOL    HW1 3926   1.350   3.830   6.335 -2.2165 -1.1630  1.1112
 1309SOL    HW2 3927   1.387   3.877   6.474 -1.3692 -0.4541  0.6568
 1310SOL     OW 3928   4.349   4.775   9.804  0.0821 -0.2167 -0.1890
 1310SOL    HW1 3929   4.340   4.780   9.709  3.5569 -1.4604 -0.7436
 1310SOL    HW2 3930   4.416   4.840   9.825 -1.1705  0.5832  1.5866
 1311SOL     OW 3931   1.064   4.257   9.539 -0.5227  0.0843 -0.4491
 1311SOL    HW1 3932   1.030   4.332   9.589  0.6666  1.2811 -1.3459
 1311SOL    HW2 3933   0.989   4.200   9.526 -1.3916  0.9543  0.5529
 1312SOL     OW 3934   0.435   1.382   6.945 -0.2497  0.1671 -0.7275
 1312SOL    HW1 3935   0.466   1.309   6.999 -0.9382  0.3138 -0.1123
 1312SOL    HW2 3936   0.353   1.351   6.906 -1.4993  1.1788  0.9447
 1313SOL     OW 3937   1.764   0.290   9.281  0.1475 -0.3353 -0.3725
 1313SOL    HW1 3938   1.792   0.200   9.262  0.6185 -0.5147  1.0348
 1313SOL    HW2 3939   1.817   0.316   9.357 -0.1494  1.0507 -0.6116
 1314SOL     OW 3940   0.532   0.759   8.966  0.6595 -0.2727  0.0004
 1314SOL    HW1 3941   0.515   0.853   8.966  0.4078 -0.3172  0.5093
 1314SOL    HW2 3942   0.453   0.720   8.927 -0.0968 -0.4172  1.6170
 1315SOL     OW 3943   1.724   0.148   6.625  0.0460 -0.5148  0.0964
 1315SOL    HW1 3944   1.676   0.227   6.650 -0.1936 -1.1776  1.9187
 1315SOL    HW2 3945   1.809   0.157   6.670  0.6735 -0.5464 -1.0354
 1316SOL     OW 3946   1.018   2.544   7.644  0.8037  0.1574  0.0421
 1316SOL    HW1 3947   1.007   2.460   7.598  1.8352  0.6618 -1.1784
 1316SOL    HW2 3948   0.942   2.549   7.702 -0.0443 -0.9651 -0.9114
 1317SOL     OW 3949   4.932   1.056   8.011  0.1949 -0.2333 -0.3275
 1317SOL    HW1 3950   4.934   1.062   8.107 -1.6241  0.6221 -0.2974
 1317SOL    HW2 3951   4.844   1.025   7.991 -0.5454  2.5491 -1.8028
 1318SOL     OW 3952   3.183   0.584   6.671  0.3018 -1.0514 -0.5056
 1318SOL    HW1 3953   3.237   0.594   6.592 -1.5547  0.1541 -1.7107
 1318SOL    HW2 3954   3.124   0.512   6.651  0.5255 -1.4559  0.2496
 1319SOL     OW 3955   2.948   3.832   6.821 -0.3260  0.5551 -0.4367
 1319SOL    HW1 3956   2.933   3.831   6.916 -0.1476 -1.3667 -0.4004
 1319SOL    HW2 3957   2.898   3.907   6.790  0.5965  1.9895  1.3108
 1320SOL     OW 3958   2.708   0.205   8.544 -0.0550  0.1393 -0.4788
 1320SOL    HW1 3959   2.798   0.173   8.548  0.4561  1.1426 -2.5275
 1320SOL    HW2 3960   2.679   0.184   8.456 -0.6085  2.8053 -1.0237
 1321SOL     OW 3961   2.687   4.752   8.136 -0.3909 -0.1840 -0.1315
 1321SOL    HW1 3962   2.601   4.780   8.169 -0.5206  1.6117 -1.8110
 1321SOL    HW2 3963   2.669   4.715   8.050  0.2969 -1.9828  0.4466
 1322SOL     OW 3964   1.079   1.011   6.468 -0.1395 -0.0808 -0.5157
 1322SOL    HW1 3965   1.157   0.956   6.477 -0.0299  0.0982 -0.3602
 1322SOL    HW2 3966   1.020   0.961   6.412 -0.4071 -0.7657  0.3619
 1323SOL     OW 3967   2.602   4.629   7.889 -0.6804 -0.2714 -0.2721
 1323SOL    HW1 3968   2.567   4.542   7.870  0.3038 -0.5109 -1.1104
 1323SOL    HW2 3969   2.616   4.668   7.802 -0.0511  0.2781  0.0709
 1324SOL     OW 3970   3.513   4.282   9.622  0.1661  0.6148  1.0676
 1324SOL    HW1 3971   3.435   4.316   9.667  0.4962  2.0776  0.5474
 1324SOL    HW2 3972   3.581   4.347   9.637  0.2229  1.3221 -1.7645
 1325SOL     OW 3973   4.791   3.781   9.729 -0.2252 -0.4507 -0.0374
 1325SOL    HW1 3974   4.833   3.721   9.668 -0.7472 -1.4118  0.5178
 1325SOL    HW2 3975   4.837   3.864   9.718  0.4925 -0.9476 -0.8427
 1326SOL     OW 3976   4.896   1.907   5.942 -0.1035  0.4269  0.1120
 1326SOL    HW1 3977   4.837   1.838   5.973  1.0987 -0.7052  0.0030
 1326SOL    HW2 3978   4.839   1.966   5.892 -1.1230 -0.7058 -0.1387
 1327SOL     OW 3979   1.773   0.637   9.285 -0.1955 -0.4619  0.3105
 1327SOL    HW1 3980   1.728   0.563   9.244  1.4147 -0.2632 -2.0071
 1327SOL    HW2 3981   1.706   0.678   9.340 -1.3251 -3.1930  1.1330
 1328SOL     OW 3982   0.527   1.166   7.117  0.5062  0.7196  0.1063
 1328SOL    HW1 3983   0.610   1.164   7.164  0.5524  0.2642  0.0065
 1328SOL    HW2 3984   0.498   1.075   7.115  1.2667  0.4419 -2.0686
 1329SOL     OW 3985   0.108   4.302   9.187 -0.4314  0.3557 -0.0256
 1329SOL    HW1 3986   0.188   4.347   9.161 -1.0316  1.4201 -0.1268
 1329SOL    HW2 3987   0.103   4.226   9.129  0.1314  0.6824 -0.5203
 1330SOL     OW 3988   1.240   0.237   8.521 -0.3779  0.1651  0.0783
 1330SOL    HW1 3989   1.237   0.209   8.612 -3.3929  1.6037  0.5465
 1330SOL    HW2 3990   1.213   0.160   8.471 -3.3967  0.5279  0.9170
 1331SOL     OW 3991   0.979   2.287   7.492  0.7738 -0.7056  0.3363
 1331SOL    HW1 3992   0.902   2.270   7.438  0.7555 -0.2120  0.2005
 1331SOL    HW2 3993   1.047   2.312   7.429  0.0963  2.3134  0.6661
 1332SOL     OW 3994   1.244   3.144   5.993  0.3125  0.4182 -0.1193
 1332SOL    HW1 3995   1.180   3.187   5.936 -0.3360  0.9351  0.9704
 1332SOL    HW2 3996   1.303   3.098   5.932 -0.8528  0.2524 -1.1633
 1333SOL     OW 3997   4.795   0.356   7.704 -0.7718 -0.4143 -0.0955
 1333SOL    HW1 3998   4.880   0.361   7.661 -1.6965  0.1779 -1.9404
 1333SOL    HW2 3999   4.793   0.431   7.763 -1.0417  1.2327 -2.0856
 1334SOL     OW 4000   2.483   3.553   7.480  0.1079 -0.0331  0.8183
 1334SOL    HW1 4001   2.522   3.624   7.530 -0.4015  0.6951  0.2016
 1334SOL    HW2 4002   2.411   3.594   7.432  1.2034 -0.4823 -1.3082
 1335SOL     OW 4003   2.318   3.519   9.813  0.2494 -0.6559 -0.2786
 1335SOL    HW1 4004   2.360   3.599   9.781 -1.8537 -0.9714 -4.5472
 1335SOL    HW2 4005   2.347   3.451   9.752  1.1300 -3.0536  2.5796
 1336SOL     OW 4006   0.333   3.414   7.276 -0.2242  0.2104  0.4200
 1336SOL    HW1 4007   0.283   3.398   7.196 -1.3190  1.5573  0.8021
 1336SOL    HW2 4008   0.397   3.482   7.252  0.4261 -0.4145  0.3349
 1337SOL     OW 4009   0.358   4.678   9.044 -0.2846  0.1597  0.0791
 1337SOL    HW1 4010   0.424   4.610   9.057 -1.8343 -1.1557  1.7523
 1337SOL    HW2 4011   0.281   4.645   9.091 -0.9895  3.2710  1.3534
 1338SOL     OW 4012   3.061   3.866   9.471  0.1300  0.0684 -0.3318
 1338SOL    HW1 4013   3.053   3.784   9.421  0.3092  0.9147 -1.7839
 1338SOL    HW2 4014   3.155   3.874   9.487  0.0267 -0.4601  0.6250
 1339SOL     OW 4015   3.608   0.572   9.191  0.0263 -0.4039 -0.6842
 1339SOL    HW1 4016   3.613   0.597   9.283  1.6875  0.9472 -1.0849
 1339SOL    HW2 4017   3.630   0.479   9.190 -0.9660 -0.6664  0.3546
 1340SOL     OW 4018   1.750   3.548   7.821 -0.5284  0.3148 -0.5225
 1340SOL    HW1 4019   1.750   3.643   7.815  0.4078  0.3429 -0.1102
 1340SOL    HW2 4020   1.779   3.518   7.735 -1.9936  0.3525 -1.0642
 1341SOL     OW 4021   0.475   3.870   7.060 -0.7093  0.5113 -0.0220
 1341SOL    HW1 4022   0.537   3.884   6.988  0.5918 -2.8698  0.2451
 1341SOL    HW2 4023   0.506   3.928   7.129  1.9671 -0.6341 -0.1154
 1342SOL     OW 4024   3.181   2.143   8.634  0.3182  0.3905  0.0885
 1342SOL    HW1 4025   3.141   2.178   8.713  2.5058  1.2475  0.9059
 1342SOL    HW2 4026   3.121   2.074   8.605 -2.6888  2.8103  0.0635
 1343SOL     OW 4027   4.443   2.491   8.124 -0.1441  0.7258  0.4953
 1343SOL    HW1 4028   4.435   2.409   8.172 -1.1521  0.1797 -0.5635
 1343SOL    HW2 4029   4.353   2.517   8.105  0.2053  1.1806 -0.6480
 1344SOL     OW 4030   4.723   2.356   7.379  0.4800 -0.0407  0.6490
 1344SOL    HW1 4031   4.783   2.291   7.343 -0.6731 -1.1889  0.7516
 1344SOL    HW2 4032   4.672   2.309   7.445 -0.8089  0.7981  0.3016
 1345SOL     OW 4033   3.686   1.457   4.851  0.3179  0.8416 -0.2306
 1345SOL    HW1 4034   3.735   1.476   4.932  0.2273 -0.8621  0.2493
 1345SOL    HW2 4035   3.753   1.432   4.788  0.1490 -3.4170  0.9565
 1346SOL     OW 4036   1.218   1.902   8.463 -0.5727 -0.6643 -0.8686
 1346SOL    HW1 4037   1.177   1.884   8.378 -1.0875 -1.2443 -0.5115
 1346SOL    HW2 4038   1.154   1.869   8.527  0.6168 -1.9467 -0.3011
 1347SOL     OW 4039   2.906   4.890   9.686  0.3325 -0.2174  0.1794
 1347SOL    HW1 4040   2.843   4.877   9.756  0.2349  1.4470  0.4328
 1347SOL    HW2 4041   2.987   4.852   9.719 -0.7008 -3.3455 -0.5669
 1348SOL     OW 4042   0.442   3.408   6.915  0.0716 -0.0854 -0.2418
 1348SOL    HW1 4043   0.476   3.452   6.993 -0.6479  1.0975 -0.5733
 1348SOL    HW2 4044   0.476   3.319   6.921 -0.2964 -0.1305  1.6213
 1349SOL     OW 4045   3.176   2.960   5.012 -0.1472 -0.2087 -0.1199
 1349SOL    HW1 4046   3.184   2.971   5.107 -0.2534 -1.1324  0.0025
 1349SOL    HW2 4047   3.094   3.003   4.990 -0.2162 -0.1499  0.2391
 1350SOL     OW 4048   0.856  -0.004  10.229 -0.3718  0.4413  0.6900
 1350SOL    HW1 4049   0.923   0.042  10.280 -0.1614 -0.1868  0.9964
 1350SOL    HW2 4050   0.785   0.059  10.219  0.4845  1.2940 -0.0876
 1351SOL     OW 4051   0.645   3.921   6.518 -0.2718  0.0903  0.0636
 1351SOL    HW1 4052   0.603   4.007   6.518  0.6278  0.5553  1.1029
 1351SOL    HW2 4053   0.618   3.882   6.435  2.0403  2.7551 -2.1618
 1352SOL     OW 4054   1.375   5.000   8.071 -0.1999 -0.4194 -0.6425
 1352SOL    HW1 4055   1.457   5.026   8.029  1.4030 -1.1910  1.7597
 1352SOL    HW2 4056   1.399   4.924   8.124 -2.6186 -1.0068 -0.2814
 1353SOL     OW 4057   3.200   4.711   8.197 -0.3904  0.3252 -0.6718
 1353SOL    HW1 4058   3.131   4.664   8.244 -0.6363 -0.3418 -1.6748
 1353SOL    HW2 4059   3.228   4.651   8.128  0.9345  0.7431 -0.5167
 1354SOL     OW 4060   1.371   1.939   7.321  0.2035 -0.3151 -0.5512
 1354SOL    HW1 4061   1.305   1.893   7.373 -0.2401  0.9105  0.0217
 1354SOL    HW2 4062   1.399   2.011   7.377 -0.9649  1.6159 -2.2995
 1355SOL     OW 4063   4.207   4.217   8.223  0.4716 -0.8743  0.3994
 1355SOL    HW1 4064   4.166   4.263   8.296 -0.4442  0.2854 -0.8006
 1355SOL    HW2 4065   4.270   4.158   8.264 -0.1410 -0.3839  2.1250
 1356SOL     OW 4066   1.254   3.929   6.118  0.5299 -0.0893  0.1841
 1356SOL    HW1 4067   1.325   3.866   6.105  1.4336  1.2326 -1.7743
 1356SOL    HW2 4068   1.175   3.875   6.122  1.4124 -1.4448 -0.0845
 1357SOL     OW 4069   3.379   0.496   9.552 -0.1807 -0.1483 -0.2375
 1357SOL    HW1 4070   3.369   0.519   9.459 -1.2757 -0.3714 -0.1926
 1357SOL    HW2 4071   3.342   0.570   9.599  2.6558  1.1212  0.1266
 1358SOL     OW 4072   3.729   0.984   8.991 -0.4111 -0.1338  0.4791
 1358SOL    HW1 4073   3.761   1.010   9.077  0.5846  0.9372 -0.1854
 1358SOL    HW2 4074   3.808   0.981   8.936 -0.9134 -1.6055 -0.2153
 1359SOL     OW 4075   1.420   4.099   8.485 -0.0576 -0.2291  0.1602
 1359SOL    HW1 4076   1.440   4.019   8.533 -0.0832 -0.1775  0.2579
 1359SOL    HW2 4077   1.409   4.166   8.553 -0.7579 -0.3016  0.1269
 1360SOL     OW 4078   3.096   0.940   9.152 -0.1588  0.3809  0.0287
 1360SOL    HW1 4079   3.154   0.885   9.100 -0.0432  0.1588  0.3904
 1360SOL    HW2 4080   3.063   1.005   9.091 -0.4928 -0.2455 -0.4683
 1361SOL     OW 4081   1.256   0.482  10.086  0.5581  0.9693 -0.2271
 1361SOL    HW1 4082   1.278   0.410  10.146  2.3372  0.2669 -1.5879
 1361SOL    HW2 4083   1.165   0.503  10.105  0.6391 -0.1823  1.7038
 1362SOL     OW 4084   2.705   4.964   6.988  0.7484 -0.1207  0.0340
 1362SOL    HW1 4085   2.670   5.023   7.055  0.5285  0.6134 -0.7008
 1362SOL    HW2 4086   2.634   4.955   6.924 -0.0711 -2.9914  1.1894
 1363SOL     OW 4087   0.733   1.144   6.714 -0.6002  0.3535  0.2503
 1363SOL    HW1 4088   0.786   1.223   6.712  1.6969 -1.0997 -0.9533
 1363SOL    HW2 4089   0.716   1.124   6.622  1.2895 -1.9964  0.3258
 1364SOL     OW 4090   2.123   0.913   6.258  0.4169  0.7093  0.7366
 1364SOL    HW1 4091   2.149   0.824   6.282 -1.7960 -0.3095 -0.3561
 1364SOL    HW2 4092   2.047   0.931   6.313 -0.0347  1.3289 -0.0764
 1365SOL     OW 4093   1.058   4.026   8.620 -0.3555 -0.4239 -0.6170
 1365SOL    HW1 4094   0.987   3.988   8.672 -0.4447 -0.5891 -0.8533
 1365SOL    HW2 4095   1.125   3.958   8.618  1.2292  0.8907  2.2939
 1366SOL     OW 4096   1.946   4.633   7.681  0.3849 -0.1752  0.2960
 1366SOL    HW1 4097   1.866   4.677   7.654  0.2727  0.5417  1.7037
 1366SOL    HW2 4098   2.005   4.705   7.706  0.9731 -0.7495  0.5805
 1367SOL     OW 4099   0.624   2.406   7.932 -0.1728  0.5205  0.4687
 1367SOL    HW1 4100   0.581   2.469   7.990  0.3396  1.1269  0.2039
 1367SOL    HW2 4101   0.561   2.335   7.922 -0.5763  0.7770  1.1412
 1368SOL     OW 4102   1.183   2.995   7.051 -0.1323 -0.0417  1.0781
 1368SOL    HW1 4103   1.234   2.914   7.058 -1.3962 -0.9787 -0.0126
 1368SOL    HW2 4104   1.219   3.052   7.118  0.0321 -1.9362  2.6892
 1369SOL     OW 4105   1.562   3.256   6.292  0.4715 -0.2773  0.2217
 1369SOL    HW1 4106   1.581   3.239   6.385  0.0578  2.8427  0.9943
 1369SOL    HW2 4107   1.640   3.300   6.260  0.3140 -0.6758 -0.7239
 1370SOL     OW 4108   3.300   3.633   7.728 -0.1805  0.3704 -0.9232
 1370SOL    HW1 4109   3.332   3.623   7.638 -0.1269  0.1887 -0.8838
 1370SOL    HW2 4110   3.252   3.552   7.745  0.2014  0.2056 -0.6249
 1371SOL     OW 4111   3.645   1.439  10.161  0.4166  0.6258 -0.3860
 1371SOL    HW1 4112   3.736   1.459  10.137  0.3844 -0.0620 -1.1477
 1371SOL    HW2 4113   3.623   1.362  10.107 -0.0918 -0.2073  0.9668
 1372SOL     OW 4114   0.792   4.958   6.956  0.1116  0.5867 -0.3051
 1372SOL    HW1 4115   0.770   5.020   6.887 -0.0941 -1.9038 -2.6619
 1372SOL    HW2 4116   0.708   4.940   6.999  0.3215  2.5214  1.0094
 1373SOL     OW 4117   1.327   4.368   7.742  0.3827 -0.0893 -0.3640
 1373SOL    HW1 4118   1.253   4.308   7.749  0.8548 -0.9655 -2.2358
 1373SOL    HW2 4119   1.326   4.417   7.825 -1.6621 -0.7585  0.0772
 1374SOL     OW 4120   0.297   0.045   9.978  0.3414 -0.0989 -0.2693
 1374SOL    HW1 4121   0.360  -0.026   9.988  1.5866  1.1693  1.4743
 1374SOL    HW2 4122   0.341   0.122  10.015 -2.6792  0.5816  2.3879
 1375SOL     OW 4123   3.106   1.020   9.790 -0.4577  0.6956  0.5908
 1375SOL    HW1 4124   3.099   0.941   9.843 -0.1798 -0.1885 -0.6440
 1375SOL    HW2 4125   3.016   1.042   9.768 -0.4745 -0.6346 -0.9281
 1376SOL     OW 4126   2.043   0.653   7.681  0.6654 -0.6734  0.3025
 1376SOL    HW1 4127   1.979   0.610   7.625  1.4190 -0.1088 -1.0506
 1376SOL    HW2 4128   2.033   0.746   7.661  1.2063 -0.4967  0.8346
 1377SOL     OW 4129   0.438   1.678   8.415 -0.8061  0.9841  0.7526
 1377SOL    HW1 4130   0.352   1.637   8.424 -0.4525  0.2130  0.7012
 1377SOL    HW2 4131   0.473   1.644   8.332 -1.2782  2.8712 -0.2793
 1378SOL     OW 4132   0.115   2.134   7.042  0.4494  0.2645  0.4993
 1378SOL    HW1 4133   0.075   2.220   7.047  0.5995  0.3936 -0.3338
 1378SOL    HW2 4134   0.205   2.147   7.071  0.0490  0.0764  1.8645
 1379SOL     OW 4135   2.411   3.324   8.708  0.1191  0.0011  0.4111
 1379SOL    HW1 4136   2.416   3.418   8.690  0.4075  0.1231  1.0966
 1379SOL    HW2 4137   2.318   3.304   8.705  0.1559 -0.1806 -2.0689
 1380SOL     OW 4138   3.421   3.059  10.050  0.4030 -0.7933 -0.2347
 1380SOL    HW1 4139   3.381   3.033   9.967  2.3020 -0.6968 -1.2398
 1380SOL    HW2 4140   3.394   3.150  10.062  0.1911 -0.7783 -0.8018
 1381SOL     OW 4141   2.122   2.776   8.616  0.1704  0.1604  0.1737
 1381SOL    HW1 4142   2.151   2.718   8.545  1.3414  0.2338  0.5756
 1381SOL    HW2 4143   2.187   2.764   8.685  1.3579  3.1104 -0.3192
 1382SOL     OW 4144   2.273   3.349   6.481  0.5433 -0.3832  0.3175
 1382SOL    HW1 4145   2.203   3.286   6.499  1.2014 -1.2241 -0.0227
 1382SOL    HW2 4146   2.354   3.302   6.502  1.0096  0.6000  0.7727
 1383SOL     OW 4147   4.814   3.287   8.231  0.2387  0.5171 -0.1766
 1383SOL    HW1 4148   4.888   3.310   8.175  0.6754 -0.6012 -0.0948
 1383SOL    HW2 4149   4.829   3.336   8.312  0.7305  0.5324 -0.2722
 1384SOL     OW 4150   1.429   0.727   9.137 -0.4659 -0.2519 -0.5288
 1384SOL    HW1 4151   1.338   0.749   9.157 -1.3690 -2.3766 -1.8772
 1384SOL    HW2 4152   1.472   0.811   9.123 -1.5960  0.9526  2.3383
 1385SOL     OW 4153   3.380   1.898   8.616 -0.3875  0.2298 -0.3505
 1385SOL    HW1 4154   3.305   1.921   8.562  0.1077  0.6243 -0.8737
 1385SOL    HW2 4155   3.355   1.925   8.704 -0.5739  1.0027 -0.6379
 1386SOL     OW 4156   2.669   0.532   5.803 -0.0363  0.2580 -0.2503
 1386SOL    HW1 4157   2.739   0.560   5.744 -0.2974  1.0287 -0.2138
 1386SOL    HW2 4158   2.600   0.500   5.745  0.5517 -1.0443 -0.2658
 1387SOL     OW 4159   0.058   2.883   8.923 -0.3395  0.6315 -0.0169
 1387SOL    HW1 4160   0.068   2.973   8.891 -1.3032  1.0394  0.7708
 1387SOL    HW2 4161   0.147   2.847   8.920 -0.1410  1.1503 -1.5989
 1388SOL     OW 4162   2.590   0.602   9.793 -0.5650  0.0297  0.8273
 1388SOL    HW1 4163   2.649   0.674   9.772 -0.8635 -0.1436 -0.7299
 1388SOL    HW2 4164   2.647   0.524   9.793 -0.3345  0.1778  2.0122
 1389SOL     OW 4165   4.871   0.401   7.311  0.5200 -0.0250 -0.4041
 1389SOL    HW1 4166   4.924   0.436   7.382  0.7536  1.3375 -1.2285
 1389SOL    HW2 4167   4.873   0.306   7.325  0.6098  0.1914  1.3567
 1390SOL     OW 4168   2.890   3.510   7.541  0.4779  0.4867  0.0368
 1390SOL    HW1 4169   2.976   3.484   7.572  0.3940  0.9487  0.6742
 1390SOL    HW2 4170   2.858   3.571   7.607 -1.3016 -1.3962  0.9940
 1391SOL     OW 4171   1.866   3.176   4.620  0.9193  0.1174 -0.0473
 1391SOL    HW1 4172   1.846   3.237   4.691  3.0095  0.3570  0.4063
 1391SOL    HW2 4173   1.866   3.090   4.661 -1.6310 -0.2486 -0.6078
 1392SOL     OW 4174   1.578   1.425   8.525 -0.4643  0.4976 -0.5031
 1392SOL    HW1 4175   1.587   1.507   8.475 -2.0483  2.6010  2.3265
 1392SOL    HW2 4176   1.484   1.406   8.521  0.0968 -2.5467 -2.8489
 1393SOL     OW 4177   2.277   2.565   7.621  0.2994 -0.1675  1.1963
 1393SOL    HW1 4178   2.308   2.474   7.621  0.1080 -0.3367 -1.6835
 1393SOL    HW2 4179   2.183   2.558   7.641  0.3149 -0.5963  1.1288
 1394SOL     OW 4180   0.184   2.195   7.359  0.7745 -0.0048 -0.1552
 1394SOL    HW1 4181   0.277   2.200   7.337  0.3959 -0.8792 -2.1655
 1394SOL    HW2 4182   0.166   2.102   7.369 -0.1407  0.0500 -1.0893
 1395SOL     OW 4183   4.962   3.566   9.889 -0.1272 -0.2204  0.5668
 1395SOL    HW1 4184   5.026   3.599   9.953  0.1153  1.2015 -0.3773
 1395SOL    HW2 4185   4.930   3.644   9.844 -0.8243 -1.1324 -0.5647
 1396SOL     OW 4186   4.933   3.658   9.531  0.5792 -0.1270 -0.4789
 1396SOL    HW1 4187   4.933   3.745   9.490 -1.1945 -0.7560 -1.9449
 1396SOL    HW2 4188   4.979   3.602   9.468  1.8252 -0.2627  0.5184
 1397SOL     OW 4189   4.453   2.432   8.452 -0.4222 -0.2502 -0.0392
 1397SOL    HW1 4190   4.397   2.497   8.410 -0.4497 -0.4683 -0.3454
 1397SOL    HW2 4191   4.524   2.483   8.491  0.3024 -0.1381 -1.4494
 1398SOL     OW 4192   3.476   2.811   8.181 -0.8108 -0.2732 -0.2236
 1398SOL    HW1 4193   3.554   2.858   8.152 -1.3066  0.8352  0.1860
 1398SOL    HW2 4194   3.451   2.854   8.262 -0.3851 -2.2681  1.0303
 1399SOL     OW 4195   2.469   0.719   5.472 -0.5058 -0.0241  0.2948
 1399SOL    HW1 4196   2.561   0.744   5.468  0.6206 -3.5154  0.9075
 1399SOL    HW2 4197   2.433   0.770   5.544  0.8677  1.4995 -0.0454
 1400SOL     OW 4198   1.548   2.155   7.440 -0.2143 -0.3063  0.4709
 1400SOL    HW1 4199   1.639   2.184   7.437 -0.0636 -0.8640 -2.0375
 1400SOL    HW2 4200   1.498   2.230   7.408 -0.4128 -0.7440 -0.2582
 1401SOL     OW 4201   2.265   1.771   6.927  0.5176 -0.3746 -0.0989
 1401SOL    HW1 4202   2.219   1.796   7.007  0.0782  2.8920 -1.1945
 1401SOL    HW2 4203   2.353   1.747   6.956  0.2180  0.2493  1.4217
 1402SOL     OW 4204   0.943   4.212   8.004  0.4964  0.1076 -0.2387
 1402SOL    HW1 4205   1.035   4.227   8.026  0.1486  0.3742  1.1106
 1402SOL    HW2 4206   0.895   4.233   8.084 -0.8617  1.1572 -1.2850
 1403SOL     OW 4207   3.562   1.275   9.675 -0.0882 -0.4763  0.2927
 1403SOL    HW1 4208   3.652   1.254   9.651  0.0490  0.4788 -0.0923
 1403SOL    HW2 4209   3.508   1.223   9.615  0.2226 -0.6108  0.1295
 1404SOL     OW 4210   0.935   2.292   9.580  0.4956 -0.1365 -0.1864
 1404SOL    HW1 4211   0.883   2.311   9.658  2.1172  2.2675  0.4472
 1404SOL    HW2 4212   0.964   2.378   9.550  2.8598 -1.2413 -1.3414
 1405SOL     OW 4213   4.689   0.512   7.142  0.2308  0.0162 -0.2778
 1405SOL    HW1 4214   4.745   0.490   7.216  0.8392  0.3468 -0.6299
 1405SOL    HW2 4215   4.666   0.428   7.102 -0.8290 -0.2370  0.7870
 1406SOL     OW 4216   4.576   3.425   5.794 -0.6672 -0.1063  0.3194
 1406SOL    HW1 4217   4.605   3.339   5.762  3.7092  0.7438  1.3341
 1406SOL    HW2 4218   4.597   3.485   5.722 -1.2647  0.4222  0.5838
 1407SOL     OW 4219   0.832   4.743   8.566 -0.9789  0.1539 -0.0969
 1407SOL    HW1 4220   0.884   4.662   8.568 -0.7098  0.3310  1.8711
 1407SOL    HW2 4221   0.896   4.812   8.552 -0.6212  0.3645  2.2504
 1408SOL     OW 4222   2.102   1.873  14.761 -0.2142 -0.0385  0.9656
 1408SOL    HW1 4223   2.144   1.814  14.824  2.1600  0.6360  0.1286
 1408SOL    HW2 4224   2.008   1.857  14.772  0.2623 -2.7807  1.8903
 1409SOL     OW 4225   1.852   0.082   9.986 -0.2866  0.4751  0.1539
 1409SOL    HW1 4226   1.805   0.003  10.014  1.3739 -0.5998  0.0507
 1409SOL    HW2 4227   1.942   0.053   9.976  0.2742  2.3060 -0.3522
 1410SOL     OW 4228   4.361   3.645   8.797 -0.2938  0.1543  0.2003
 1410SOL    HW1 4229   4.427   3.585   8.765 -0.8543  0.0648 -0.8239
 1410SOL    HW2 4230   4.389   3.667   8.886  0.2506 -1.1168  0.3560
 1411SOL     OW 4231   4.021   2.685   9.501  0.5648  0.4086  0.2151
 1411SOL    HW1 4232   3.958   2.757   9.511 -0.3570 -0.5466  1.5824
 1411SOL    HW2 4233   3.979   2.610   9.544  1.4725 -0.9782 -1.2111
 1412SOL     OW 4234   2.743   1.764   9.074  0.4966  0.2203  1.2306
 1412SOL    HW1 4235   2.665   1.820   9.074  0.3295 -0.0050  1.9142
 1412SOL    HW2 4236   2.727   1.700   9.143 -0.5818 -2.4838 -1.3112
 1413SOL     OW 4237   2.788   4.736   7.664  0.2169 -0.2819 -0.1935
 1413SOL    HW1 4238   2.880   4.732   7.690  0.8365 -0.6340 -2.2601
 1413SOL    HW2 4239   2.769   4.829   7.655  0.1020 -0.1715  1.0418
 1414SOL     OW 4240   0.094   3.876  10.301 -0.3990  0.3873  0.1747
 1414SOL    HW1 4241   0.109   3.962  10.263 -1.5926  0.2967 -0.5891
 1414SOL    HW2 4242   0.116   3.885  10.393 -2.7886  2.2120  0.6584
 1415SOL     OW 4243   3.286   1.953   8.861  0.8426 -0.1928 -0.4262
 1415SOL    HW1 4244   3.202   1.988   8.890  1.7427 -1.3713  4.3581
 1415SOL    HW2 4245   3.348   2.023   8.878  1.5397 -1.2476  1.6004
 1416SOL     OW 4246   1.184   0.071   5.819 -0.1956 -0.2163 -0.1195
 1416SOL    HW1 4247   1.159  -0.014   5.783  0.1356 -0.1971 -0.4036
 1416SOL    HW2 4248   1.279   0.066   5.828 -0.2883 -0.2949  0.9568
 1417SOL     OW 4249   1.861   1.921   7.052  0.1988  0.0800  0.5084
 1417SOL    HW1 4250   1.766   1.913   7.053  0.2900 -1.2342  0.1679
 1417SOL    HW2 4251   1.881   1.982   7.123 -1.0250  2.2833 -0.8847
 1418SOL     OW 4252   4.791   1.745   9.226  0.2559 -0.1208 -0.1437
 1418SOL    HW1 4253   4.726   1.767   9.159 -0.2579  0.2518  0.4622
 1418SOL    HW2 4254   4.811   1.828   9.269  0.7261 -0.3249  0.0357
 1419SOL     OW 4255   0.328   4.265   6.648 -0.6086  0.3498  0.4315
 1419SOL    HW1 4256   0.293   4.344   6.689 -4.0510 -1.9041  2.3960
 1419SOL    HW2 4257   0.362   4.213   6.721  0.9071 -0.3199 -0.7073
 1420SOL     OW 4258   0.448   3.312   8.574  0.2262 -0.0290  0.3076
 1420SOL    HW1 4259   0.488   3.344   8.493  0.2567  1.4736  0.8827
 1420SOL    HW2 4260   0.465   3.381   8.638 -0.1834 -0.9914  1.4877
 1421SOL     OW 4261   0.340   0.860   5.468 -0.5407 -0.2220  0.1396
 1421SOL    HW1 4262   0.356   0.906   5.550 -0.3320  0.0359 -0.0466
 1421SOL    HW2 4263   0.277   0.916   5.422 -1.8146 -1.0909  0.7546
 1422SOL     OW 4264   3.095   2.849   7.212  0.4968 -0.6155 -0.8028
 1422SOL    HW1 4265   3.106   2.863   7.306 -0.3348  0.2303 -0.8161
 1422SOL    HW2 4266   3.010   2.889   7.191 -0.0912 -2.1742 -1.6232
 1423SOL     OW 4267   2.939   3.282   9.614 -0.1232 -0.7582  0.4716
 1423SOL    HW1 4268   2.882   3.350   9.579  0.8937 -1.4850 -3.0333
 1423SOL    HW2 4269   2.926   3.208   9.555  1.6740 -2.2568  1.8335
 1424SOL     OW 4270   3.715   1.041   7.800 -0.6164  0.3879 -0.2605
 1424SOL    HW1 4271   3.756   1.074   7.880 -0.6066  0.2135 -0.1937
 1424SOL    HW2 4272   3.623   1.030   7.823 -0.3761 -0.9371  0.1299
 1425SOL     OW 4273   3.594   2.652   7.530  0.3960 -0.4731 -0.0622
 1425SOL    HW1 4274   3.532   2.700   7.585  3.6813 -0.3161  3.9749
 1425SOL    HW2 4275   3.572   2.560   7.544 -1.3744 -0.4221 -2.0302
 1426SOL     OW 4276   3.005   4.266   7.541 -0.3053 -0.1770  0.0821
 1426SOL    HW1 4277   2.945   4.327   7.499  0.2683 -0.7722 -1.7039
 1426SOL    HW2 4278   3.087   4.314   7.549 -0.4842  0.0190  0.7791
 1427SOL     OW 4279   4.584   0.622   9.430 -0.6700 -0.2759 -0.5186
 1427SOL    HW1 4280   4.595   0.562   9.504  1.0173 -0.5337 -0.9404
 1427SOL    HW2 4281   4.574   0.708   9.471 -1.5011 -0.6240  0.0420
 1428SOL     OW 4282   3.916   0.460   8.625 -0.4306  0.2094  0.0976
 1428SOL    HW1 4283   4.004   0.430   8.648 -1.4089 -2.3797  0.8633
 1428SOL    HW2 4284   3.924   0.493   8.536  1.5516  1.2467  0.6238
 1429SOL     OW 4285   0.961   3.708   8.259  0.2364  0.1412  0.1690
 1429SOL    HW1 4286   0.914   3.767   8.201  2.7821  1.4326 -0.7228
 1429SOL    HW2 4287   0.947   3.743   8.347 -0.2492  0.6628 -0.1145
 1430SOL     OW 4288   4.517   4.325   8.784 -0.0854  0.6782  0.3073
 1430SOL    HW1 4289   4.554   4.397   8.834  0.2925  1.2679 -0.7929
 1430SOL    HW2 4290   4.592   4.268   8.764  0.1942  1.5925 -1.4531
 1431SOL     OW 4291   4.509   0.951   7.705 -0.7463  0.6813 -0.3548
 1431SOL    HW1 4292   4.483   1.007   7.778 -2.0442 -0.1956 -0.1193
 1431SOL    HW2 4293   4.470   0.866   7.724  3.1256 -1.1131  0.5463
 1432SOL     OW 4294   1.287   0.708   8.643  0.0102  0.9110 -0.0225
 1432SOL    HW1 4295   1.198   0.727   8.674  0.2032  1.9436 -0.0947
 1432SOL    HW2 4296   1.321   0.792   8.613  1.3733  0.7304  0.9073
 1433SOL     OW 4297   2.311   0.419  10.223  0.1955 -0.1996  0.5585
 1433SOL    HW1 4298   2.342   0.338  10.184  1.0213  0.1758  0.4163
 1433SOL    HW2 4299   2.376   0.485  10.199 -1.4757  0.9661 -1.0602
 1434SOL     OW 4300   0.888   4.593   9.070 -0.3928  0.3264 -0.1834
 1434SOL    HW1 4301   0.873   4.584   8.976  0.8150 -1.4501 -0.2591
 1434SOL    HW2 4302   0.848   4.676   9.093 -0.3356  1.0127 -2.3542
 1435SOL     OW 4303   2.377   3.233   8.990  0.1155 -0.0703 -0.2907
 1435SOL    HW1 4304   2.317   3.159   8.988 -1.8923  1.4507  0.4965
 1435SOL    HW2 4305   2.377   3.267   8.901  0.9485 -0.9158 -0.6252
 1436SOL     OW 4306   1.911   4.261   9.249 -1.0151  0.1468  0.3194
 1436SOL    HW1 4307   1.976   4.302   9.192  0.1770 -3.2750 -1.0297
 1436SOL    HW2 4308   1.849   4.220   9.188 -1.4613 -1.0219  1.5235
 1437SOL     OW 4309   3.092   1.359   9.461 -0.0832 -0.4437  0.2149
 1437SOL    HW1 4310   3.138   1.357   9.377 -1.8595 -0.6141 -0.7962
 1437SOL    HW2 4311   3.154   1.320   9.523  1.7592  0.8493 -0.7231
 1438SOL     OW 4312   2.576   3.756   8.774 -0.8180  0.0583 -0.4052
 1438SOL    HW1 4313   2.631   3.720   8.843 -0.9094 -0.2801 -0.5076
 1438SOL    HW2 4314   2.488   3.729   8.797 -0.9514  0.6329 -0.2214
 1439SOL     OW 4315   4.694   1.008   7.267  0.0285 -0.3452  0.0149
 1439SOL    HW1 4316   4.720   0.930   7.218 -1.5701 -0.2613 -1.0364
 1439SOL    HW2 4317   4.742   1.002   7.350  3.5846 -0.0285 -1.8117
 1440SOL     OW 4318   2.569   0.599   7.555  0.2999  0.5334  1.1631
 1440SOL    HW1 4319   2.501   0.564   7.613 -0.2568 -0.0154  0.2247
 1440SOL    HW2 4320   2.536   0.685   7.529  0.0977  0.3909  0.9405
 1441SOL     OW 4321   3.609   4.244   8.996  1.1596 -0.6987  0.0618
 1441SOL    HW1 4322   3.567   4.330   8.996  1.4802 -0.4981 -2.3943
 1441SOL    HW2 4323   3.621   4.225   9.089  2.0044  2.3483  0.6926
 1442SOL     OW 4324   1.683   3.192   7.995  0.4344  0.1337 -0.2798
 1442SOL    HW1 4325   1.663   3.129   8.065  3.1383 -0.1342  0.3988
 1442SOL    HW2 4326   1.636   3.271   8.020  0.0035 -0.4689  0.9414
 1443SOL     OW 4327   3.038   0.396   8.574  0.0139  0.0950 -0.2486
 1443SOL    HW1 4328   2.993   0.320   8.612  0.9779 -0.3852 -0.0433
 1443SOL    HW2 4329   3.093   0.359   8.505  3.9794 -0.1316  2.6674
 1444SOL     OW 4330   1.051   1.059   8.642 -0.2510  0.3664 -0.2661
 1444SOL    HW1 4331   0.992   1.115   8.592  2.6211  2.1420 -1.9561
 1444SOL    HW2 4332   1.101   1.012   8.575 -0.7756 -2.3716  1.1048
 1445SOL     OW 4333   4.654   3.953   9.554  0.4170 -0.3358 -0.1964
 1445SOL    HW1 4334   4.717   4.004   9.605  0.8690 -0.6172 -0.4632
 1445SOL    HW2 4335   4.652   3.868   9.598 -0.1212 -0.1827  0.0783
 1446SOL     OW 4336   0.361   0.418   6.068 -0.6849 -0.3812 -0.4077
 1446SOL    HW1 4337   0.388   0.504   6.100 -0.3343  0.4917 -2.8225
 1446SOL    HW2 4338   0.337   0.369   6.147 -0.3343  1.7185  1.0819
 1447SOL     OW 4339   2.208   1.702   8.447 -0.1450 -0.0142  0.2386
 1447SOL    HW1 4340   2.183   1.740   8.531  1.4531 -0.1858  0.8197
 1447SOL    HW2 4341   2.288   1.749   8.422 -0.1918 -0.4705 -0.8286
 1448SOL     OW 4342   1.322   1.389   8.619  0.2784 -0.0477  0.2652
 1448SOL    HW1 4343   1.287   1.322   8.678 -2.5043  0.1615 -1.0061
 1448SOL    HW2 4344   1.251   1.405   8.556  2.9537 -0.1132 -3.0523
 1449SOL     OW 4345   4.576   3.493   9.235 -0.2918 -0.2005  0.3033
 1449SOL    HW1 4346   4.615   3.485   9.322 -0.1163  0.9440  0.3553
 1449SOL    HW2 4347   4.565   3.403   9.204  0.2594 -0.5981  1.2330
 1450SOL     OW 4348   1.679   2.925   9.654 -0.9502  0.0339 -0.1811
 1450SOL    HW1 4349   1.641   2.877   9.580 -0.3536 -1.1745  0.2776
 1450SOL    HW2 4350   1.769   2.943   9.628 -0.7706 -0.2977  0.2121
 1451SOL     OW 4351   2.136   2.346   9.875 -0.2155  0.4164  0.2703
 1451SOL    HW1 4352   2.073   2.278   9.899 -0.3529 -0.0874 -1.3606
 1451SOL    HW2 4353   2.193   2.304   9.811 -0.0351  1.7048 -0.4533
 1452SOL     OW 4354  -0.022   1.216   8.705  0.1705  0.0541 -0.6988
 1452SOL    HW1 4355   0.049   1.163   8.667 -0.2494 -1.0552  0.0242
 1452SOL    HW2 4356  -0.004   1.304   8.675  1.3670 -0.3602 -1.2657
 1453SOL     OW 4357   1.014   3.418   7.747 -0.1332 -0.7119  0.0472
 1453SOL    HW1 4358   0.973   3.471   7.815  1.9720 -0.0108  0.8659
 1453SOL    HW2 4359   0.946   3.357   7.719 -1.5213 -0.0027  1.7003
 1454SOL     OW 4360   2.653   4.273   6.104  0.3045 -0.1901 -0.4832
 1454SOL    HW1 4361   2.742   4.245   6.084  0.3643  0.5794 -1.3652
 1454SOL    HW2 4362   2.618   4.204   6.161  1.3236 -0.6955 -0.4545
 1455SOL     OW 4363   1.387   0.856  10.117  0.6167  0.0346  0.7616
 1455SOL    HW1 4364   1.336   0.867  10.037 -0.4875 -1.0067  1.2832
 1455SOL    HW2 4365   1.368   0.766  10.144  1.3851  0.2057  1.9087
 1456SOL     OW 4366   0.667   0.122   6.721 -0.3167  0.1738 -0.2111
 1456SOL    HW1 4367   0.686   0.192   6.659 -0.2932  0.1084 -0.2778
 1456SOL    HW2 4368   0.573   0.130   6.738 -0.2005  0.6002  0.2459
 1457SOL     OW 4369   2.906   2.393   9.157 -0.1640 -0.2925 -0.4421
 1457SOL    HW1 4370   2.980   2.357   9.109  1.4377  0.2819  1.4690
 1457SOL    HW2 4371   2.891   2.479   9.119  0.7806 -0.0335 -0.2435
 1458SOL     OW 4372   0.246   0.638   8.930 -0.7512 -0.2013  0.4520
 1458SOL    HW1 4373   0.283   0.644   8.842  1.4941  0.2997  1.3536
 1458SOL    HW2 4374   0.219   0.546   8.938 -1.1555 -0.2074 -0.7991
 1459SOL     OW 4375   1.249   4.738   9.159  1.2539 -0.0519  0.2194
 1459SOL    HW1 4376   1.250   4.645   9.180  1.3947  0.2038  1.4591
 1459SOL    HW2 4377   1.336   4.769   9.183  2.1335 -0.0543 -2.6211
 1460SOL     OW 4378   2.511   1.557   9.339  0.2737  0.0618 -0.5497
 1460SOL    HW1 4379   2.439   1.501   9.368 -0.0234  0.8713  0.3080
 1460SOL    HW2 4380   2.563   1.572   9.417  1.2143 -0.2655 -1.1007
 1461SOL     OW 4381   4.176   4.785   8.553 -0.1875  0.2097 -0.5007
 1461SOL    HW1 4382   4.112   4.720   8.581 -0.6517  0.2760 -1.3940
 1461SOL    HW2 4383   4.190   4.767   8.461  1.2288  0.0839 -0.2784
 1462SOL     OW 4384   2.275   3.272   7.041  0.5356 -0.5360 -0.5625
 1462SOL    HW1 4385   2.253   3.332   7.113 -0.2364 -2.8145  1.2547
 1462SOL    HW2 4386   2.369   3.260   7.048  1.4945  3.3346 -3.4867
 1463SOL     OW 4387   1.462   4.018  10.258  0.2991 -0.1815  0.3132
 1463SOL    HW1 4388   1.511   3.941  10.228  2.1028  1.2725 -0.6802
 1463SOL    HW2 4389   1.393   4.030  10.193  0.1063 -0.8400  0.3864
 1464SOL     OW 4390   0.150   4.378  10.233  0.0381  0.3641 -0.0720
 1464SOL    HW1 4391   0.144   4.398  10.140 -0.9742  0.7927  0.0704
 1464SOL    HW2 4392   0.143   4.463  10.277  0.2148  0.1370  0.4111
 1465SOL     OW 4393   0.106   4.557   9.499  0.3272  0.0665 -0.5130
 1465SOL    HW1 4394   0.078   4.565   9.407  1.5540  1.1017 -0.8259
 1465SOL    HW2 4395   0.025   4.539   9.547 -0.6447  1.3737 -1.5700
 1466SOL     OW 4396   0.297   4.727  10.059 -0.1299  0.0930  0.6128
 1466SOL    HW1 4397   0.249   4.683   9.989  0.1207  0.1273  0.4212
 1466SOL    HW2 4398   0.297   4.663  10.131  2.1131 -1.1560 -0.3773
 1467SOL     OW 4399   1.070   4.198   9.968 -0.1777 -0.0085 -0.3965
 1467SOL    HW1 4400   1.123   4.274   9.944  0.6416 -0.7702 -1.0288
 1467SOL    HW2 4401   0.989   4.208   9.918  0.2063  0.0978 -1.0052
 1468SOL     OW 4402   1.883   3.121   9.000  0.0057  0.2636 -0.1779
 1468SOL    HW1 4403   1.835   3.118   8.918 -1.5988  0.2920  0.7046
 1468SOL    HW2 4404   1.973   3.098   8.977 -0.7490 -1.3728 -1.6805
 1469SOL     OW 4405   3.405   2.160   8.237  0.1745  0.4739 -0.0695
 1469SOL    HW1 4406   3.489   2.116   8.226  0.1212  0.3244  0.1179
 1469SOL    HW2 4407   3.340   2.094   8.211  0.0399  0.1077  1.1476
 1470SOL     OW 4408   3.950   3.670   9.743  0.2445  0.3345 -0.4916
 1470SOL    HW1 4409   4.019   3.736   9.740  0.9070 -0.3130 -0.0283
 1470SOL    HW2 4410   3.910   3.673   9.656  2.1004 -0.5642 -1.4308
 1471SOL     OW 4411   2.706   0.798  10.214  0.7907  0.1193 -1.1917
 1471SOL    HW1 4412   2.745   0.732  10.156  1.1626 -0.2509 -0.5477
 1471SOL    HW2 4413   2.778   0.823  10.273  0.1927 -0.2356 -0.2769
 1472SOL     OW 4414   2.454   4.636   8.960  0.2922  0.6671  0.3521
 1472SOL    HW1 4415   2.527   4.628   9.022 -0.0381 -0.4618  0.6160
 1472SOL    HW2 4416   2.416   4.548   8.957 -0.6068  1.0715 -0.3392
 1473SOL     OW 4417   0.509   2.836   9.210 -0.0256  0.0295 -0.1421
 1473SOL    HW1 4418   0.595   2.867   9.238 -0.2477  1.5595 -1.0276
 1473SOL    HW2 4419   0.495   2.876   9.124 -2.7651  2.1360  1.1245
 1474SOL     OW 4420   0.779   0.646   9.868  0.6151 -0.2374 -0.1468
 1474SOL    HW1 4421   0.763   0.555   9.896 -1.9252  0.1155 -0.2184
 1474SOL    HW2 4422   0.824   0.637   9.784 -0.8721 -1.4944 -0.8553
 1475SOL     OW 4423   0.247   3.219   7.498 -0.1780  0.6771 -0.3126
 1475SOL    HW1 4424   0.308   3.249   7.430 -0.5932  0.1696 -0.9150
 1475SOL    HW2 4425   0.177   3.174   7.450 -0.8105  0.8791  0.4061
 1476SOL     OW 4426   3.831   0.299   6.360  0.2785 -0.3003 -0.4939
 1476SOL    HW1 4427   3.922   0.329   6.362 -0.3054  1.7081 -1.1265
 1476SOL    HW2 4428   3.804   0.299   6.452 -0.0443  2.5744 -0.4867
 1477SOL     OW 4429   0.085   0.459   9.632 -0.4719 -0.0171 -0.2309
 1477SOL    HW1 4430   0.090   0.487   9.723 -0.6989 -0.3485 -0.1161
 1477SOL    HW2 4431   0.030   0.381   9.634 -0.9628  0.3051 -0.7217
 1478SOL     OW 4432   0.917   4.621  10.319  0.6219 -0.0366 -0.0184
 1478SOL    HW1 4433   1.004   4.659  10.306  1.7318 -2.5402 -0.5919
 1478SOL    HW2 4434   0.924   4.532  10.283 -2.1421 -0.3830  0.0771
 1479SOL     OW 4435   1.812   4.659   9.510 -0.3977 -0.2626 -0.0942
 1479SOL    HW1 4436   1.807   4.565   9.493  1.4130 -0.5206  0.6068
 1479SOL    HW2 4437   1.899   4.673   9.546 -0.8842  1.5950  0.4986
 1480SOL     OW 4438   2.612   0.163   9.901  0.5105  0.5005 -0.1053
 1480SOL    HW1 4439   2.540   0.182   9.841 -0.9196  0.6579  1.5816
 1480SOL    HW2 4440   2.687   0.144   9.844 -1.1465 -0.8572 -1.9340
 1481SOL     OW 4441   2.450   0.371   9.376 -0.7763  0.3411  0.3890
 1481SOL    HW1 4442   2.446   0.461   9.411 -2.9913  1.0667 -1.5217
 1481SOL    HW2 4443   2.490   0.381   9.290  1.0113 -0.8871  1.0145
 1482SOL     OW 4444   3.173   3.435  10.188 -0.2209 -0.5702 -0.3040
 1482SOL    HW1 4445   3.110   3.461  10.254 -1.3421  1.8151 -2.1450
 1482SOL    HW2 4446   3.230   3.511  10.177  1.5500 -1.8218 -0.3590
 1483SOL     OW 4447   4.487   0.054   9.519  0.1755 -0.3549  0.2283
 1483SOL    HW1 4448   4.574   0.020   9.496  0.0444 -2.5578  2.5190
 1483SOL    HW2 4449   4.492   0.070   9.613 -1.2272  1.8335 -0.0094
 1484SOL     OW 4450   1.665   2.703   8.311  0.5210 -0.1716 -0.3218
 1484SOL    HW1 4451   1.724   2.715   8.385 -1.4101 -2.2077  1.7218
 1484SOL    HW2 4452   1.596   2.768   8.324 -0.4657 -1.3174  0.4696
 1485SOL     OW 4453   2.645   2.095   8.534 -0.0994 -0.2232  0.6565
 1485SOL    HW1 4454   2.684   2.118   8.618  2.3071  3.9271 -1.2578
 1485SOL    HW2 4455   2.718   2.062   8.481 -0.4339  1.6459 -1.1045
 1486SOL     OW 4456   0.617   1.277   9.403 -0.0500  0.5053 -0.8340
 1486SOL    HW1 4457   0.576   1.195   9.430  1.1160  0.4755  1.0439
 1486SOL    HW2 4458   0.551   1.320   9.348 -2.0388 -0.2111  0.8313
 1487SOL     OW 4459   0.927   3.002   7.346  0.2743 -0.6515 -0.4034
 1487SOL    HW1 4460   1.001   3.029   7.400 -0.7597  1.3650  0.0870
 1487SOL    HW2 4461   0.897   2.921   7.387  0.8139 -0.2807  0.7749
 1488SOL     OW 4462   3.914   0.047   9.478 -0.5356  0.2168 -0.5952
 1488SOL    HW1 4463   4.003   0.022   9.455  0.1294  1.8219  0.0969
 1488SOL    HW2 4464   3.903   0.019   9.568  0.0902  1.9358  0.0659
 1489SOL     OW 4465   2.629   3.121   9.103 -0.2368 -0.3982  0.0729
 1489SOL    HW1 4466   2.559   3.167   9.056 -1.2873  0.6014  2.4514
 1489SOL    HW2 4467   2.689   3.190   9.130  1.0628 -1.1174 -0.8393
 1490SOL     OW 4468   4.831   3.243   7.422 -0.0993  0.3507  0.0592
 1490SOL    HW1 4469   4.820   3.328   7.465  1.7857  0.1003  1.1218
 1490SOL    HW2 4470   4.907   3.254   7.366 -0.4022 -0.3804 -0.5106
 1491SOL     OW 4471   2.981   1.884   9.064  0.1618 -0.1790  0.1251
 1491SOL    HW1 4472   3.031   1.806   9.091  1.0796  0.4565  0.3070
 1491SOL    HW2 4473   2.890   1.854   9.060  0.4571 -1.1681  0.5507
 1492SOL     OW 4474   0.207   4.111  10.207 -0.4377 -0.0478  0.2462
 1492SOL    HW1 4475   0.189   4.203  10.227 -0.3272 -0.0627  0.4184
 1492SOL    HW2 4476   0.303   4.106  10.202 -0.3527 -0.4625  1.7784
 1493SOL     OW 4477   0.287   2.585   7.665  0.7822  0.7540 -0.0123
 1493SOL    HW1 4478   0.314   2.495   7.679  0.2471  0.5397 -0.3255
 1493SOL    HW2 4479   0.218   2.600   7.729  1.5168  1.2466  0.6766
 1494SOL     OW 4480   2.533   3.544   9.551  0.0155 -0.1999  0.0800
 1494SOL    HW1 4481   2.540   3.575   9.460 -0.0926 -1.9853 -0.5739
 1494SOL    HW2 4482   2.463   3.597   9.589 -2.0816 -1.4335 -1.8219
 1495SOL     OW 4483   3.093   3.647   8.116  0.2414 -0.2426 -0.2378
 1495SOL    HW1 4484   3.103   3.667   8.209  0.0094 -0.6299 -0.1309
 1495SOL    HW2 4485   3.003   3.616   8.107 -0.0751  0.7482 -0.7664
 1496SOL     OW 4486   1.615   0.671   8.531  0.3113  0.7533 -0.0671
 1496SOL    HW1 4487   1.622   0.735   8.602 -0.1023  1.0633 -0.2955
 1496SOL    HW2 4488   1.522   0.647   8.530  0.5059 -0.0381  0.1719
 1497SOL     OW 4489   4.117   3.742   7.949 -0.4837  0.7285  0.5325
 1497SOL    HW1 4490   4.040   3.703   7.907 -1.9645  2.7383  1.2261
 1497SOL    HW2 4491   4.092   3.753   8.040  1.9025 -1.5796  1.5853
 1498SOL     OW 4492   2.058   2.310   9.540 -0.0131 -0.4771  0.0855
 1498SOL    HW1 4493   1.974   2.275   9.508  0.4096  0.7655 -2.5834
 1498SOL    HW2 4494   2.033   2.375   9.606 -1.1286 -0.3925 -0.4026
 1499SOL     OW 4495   2.867   0.754   9.699  0.8032  0.4824  0.0069
 1499SOL    HW1 4496   2.885   0.770   9.792 -0.5950 -0.4612  0.4672
 1499SOL    HW2 4497   2.816   0.830   9.671  0.3782  0.2951  0.2723
 1500SOL     OW 4498   4.635   0.637  10.404  0.0295  0.5314 -0.2859
 1500SOL    HW1 4499   4.701   0.681  10.351  1.2605 -1.7403 -0.7870
 1500SOL    HW2 4500   4.582   0.588  10.341 -0.2621  0.0072  0.3578
 1501SOL     OW 4501   1.457   2.439   9.556 -0.0614 -0.0590  0.0531
 1501SOL    HW1 4502   1.518   2.404   9.621 -0.1751 -0.1423  0.1156
 1501SOL    HW2 4503   1.502   2.429   9.473 -0.2799 -0.7875  0.0135
 1502SOL     OW 4504   1.741   2.498   9.495 -0.5144  0.6037  0.3849
 1502SOL    HW1 4505   1.761   2.566   9.559  1.5667  0.1121  0.3343
 1502SOL    HW2 4506   1.752   2.416   9.543  0.5046  0.2439 -0.4131
 1503SOL     OW 4507   2.589   2.830  10.020  0.8254 -0.3269  0.0595
 1503SOL    HW1 4508   2.595   2.922  10.048  0.9893  0.9519 -3.5723
 1503SOL    HW2 4509   2.680   2.800  10.019  0.7972 -0.4779  0.9888
 1504SOL     OW 4510   0.110   2.243   9.959  0.6653 -0.0826 -0.1787
 1504SOL    HW1 4511   0.111   2.294  10.040 -1.2531  1.5731 -1.0942
 1504SOL    HW2 4512   0.201   2.246   9.928  0.8051  2.1166  0.2711
 1505SOL     OW 4513   0.864   0.288   9.439 -0.1615  0.2553  0.3120
 1505SOL    HW1 4514   0.943   0.235   9.431 -0.6804 -0.4234 -0.5532
 1505SOL    HW2 4515   0.891   0.376   9.416  0.2631 -0.0505 -0.3760
 1506SOL     OW 4516   3.879   2.973   9.523 -0.0434 -0.3644 -0.1910
 1506SOL    HW1 4517   3.788   3.000   9.512 -0.1762 -0.8292 -0.2540
 1506SOL    HW2 4518   3.931   3.047   9.491 -0.4003 -0.9278 -2.1883
 1507SOL     OW 4519   1.879   0.245   9.763  0.1371 -0.0317 -0.6017
 1507SOL    HW1 4520   1.852   0.177   9.824 -1.7168 -0.2764 -1.6115
 1507SOL    HW2 4521   1.975   0.242   9.765  0.2750  1.3243  3.6924
 1508SOL     OW 4522   1.117   3.984   7.185 -0.5688 -0.3406  0.1286
 1508SOL    HW1 4523   1.125   3.947   7.097 -0.6214 -0.0693  0.0077
 1508SOL    HW2 4524   1.024   3.977   7.206 -0.8090  0.8425 -0.4003
 1509SOL     OW 4525   3.088   3.415   8.332 -0.5572  0.2444 -0.0246
 1509SOL    HW1 4526   3.097   3.338   8.276 -0.2591  0.3474 -0.1161
 1509SOL    HW2 4527   3.002   3.452   8.309 -1.4416 -0.9648  1.1426
 1510SOL     OW 4528   0.568   3.467   9.195  0.9145  0.1724 -0.3786
 1510SOL    HW1 4529   0.652   3.503   9.167  1.9474 -1.0108  1.0459
 1510SOL    HW2 4530   0.505   3.499   9.130  2.6140  0.2677 -2.0545
 1511SOL     OW 4531   1.076   4.347   9.133  0.1919  0.0473  0.0770
 1511SOL    HW1 4532   1.038   4.314   9.215  0.6076 -1.5638 -0.3465
 1511SOL    HW2 4533   1.006   4.399   9.094  0.3308  1.7755  1.9279
 1512SOL     OW 4534   4.802   4.348   8.635 -0.2884 -0.7407  0.0453
 1512SOL    HW1 4535   4.793   4.421   8.573  0.5561 -1.3355 -0.7929
 1512SOL    HW2 4536   4.849   4.385   8.709 -0.8581 -0.1557  0.1301
 1513SOL     OW 4537   2.427   4.767   8.654 -0.2580 -0.2519  0.9408
 1513SOL    HW1 4538   2.390   4.826   8.720  1.9867 -0.7375  2.7821
 1513SOL    HW2 4539   2.360   4.699   8.643 -1.1743  0.4665  1.8402
 1514SOL     OW 4540   3.091   0.123   9.518  0.1684  0.1112 -0.0815
 1514SOL    HW1 4541   3.081   0.044   9.570  0.0263  0.9272  1.1658
 1514SOL    HW2 4542   3.075   0.195   9.579  1.8177  1.1569 -0.8077
 1515SOL     OW 4543   4.618   2.050   8.539 -0.1543  0.5924 -0.8956
 1515SOL    HW1 4544   4.633   2.130   8.588  1.0770 -0.7774  1.1336
 1515SOL    HW2 4545   4.537   2.066   8.490 -3.9398  0.8846  4.5209
 1516SOL     OW 4546   0.323   1.885   9.019 -0.1810  0.3831 -0.3692
 1516SOL    HW1 4547   0.384   1.954   9.046 -0.1144  1.2022 -2.4200
 1516SOL    HW2 4548   0.356   1.855   8.934 -0.1190 -2.3571  0.5242
 1517SOL     OW 4549   0.705   4.773  10.270  0.2877 -0.4052 -0.1086
 1517SOL    HW1 4550   0.775   4.715  10.302  0.0985 -2.3292 -2.8504
 1517SOL    HW2 4551   0.750   4.855  10.249  1.2312 -0.7317  0.5539
 1518SOL     OW 4552   2.438   0.264   8.118 -0.3119  0.7039 -0.1295
 1518SOL    HW1 4553   2.437   0.359   8.123 -0.2712  0.7060 -0.1657
 1518SOL    HW2 4554   2.484   0.244   8.037 -0.6976  0.6599 -0.3436
 1519SOL     OW 4555   2.462   4.145   9.374 -0.4362  0.4972 -1.1579
 1519SOL    HW1 4556   2.380   4.100   9.353 -1.3477  2.4283 -2.0174
 1519SOL    HW2 4557   2.527   4.105   9.316 -0.7930 -0.9219 -0.6093
 1520SOL     OW 4558   1.265   4.108   5.441 -0.6917 -0.0831  0.7274
 1520SOL    HW1 4559   1.329   4.105   5.512 -0.4865 -0.7492  0.5194
 1520SOL    HW2 4560   1.271   4.022   5.399 -1.3264  0.0426  0.3579
 1521SOL     OW 4561   0.606   4.607   9.270  0.2340 -0.4592 -0.3422
 1521SOL    HW1 4562   0.603   4.700   9.249  0.6321 -0.7522 -1.7979
 1521SOL    HW2 4563   0.578   4.602   9.362 -1.1914  0.9327 -0.6744
 1522SOL     OW 4564   1.506   0.067   8.489 -0.1949  0.1253  0.3045
 1522SOL    HW1 4565   1.564   0.003   8.448  0.3280  1.5805 -1.3883
 1522SOL    HW2 4566   1.555   0.098   8.566  0.7727  0.4466 -0.4188
 1523SOL     OW 4567   0.272   1.752   7.839  0.1153 -0.2656 -0.3723
 1523SOL    HW1 4568   0.200   1.711   7.791 -1.2194 -0.2466  1.5269
 1523SOL    HW2 4569   0.231   1.814   7.898  1.7857  0.4748  0.0914
 1524SOL     OW 4570   0.340   2.273   7.985 -0.2867 -0.3902 -0.5097
 1524SOL    HW1 4571   0.365   2.346   8.043 -2.4827  0.4864 -0.5447
 1524SOL    HW2 4572   0.245   2.283   7.974 -0.2059 -1.5263 -2.9244
 1525SOL     OW 4573   0.067   4.814   9.121 -0.1125  1.2120 -0.0206
 1525SOL    HW1 4574  -0.025   4.822   9.146 -0.2565  0.2352 -0.1990
 1525SOL    HW2 4575   0.076   4.725   9.087  0.4848  1.8589 -1.7232
 1526SOL     OW 4576   4.970   3.806   8.182  0.2024  0.2079 -0.3339
 1526SOL    HW1 4577   4.876   3.791   8.191  0.0546  1.9495  1.8881
 1526SOL    HW2 4578   4.976   3.871   8.112 -0.0041 -1.5230 -2.0411
 1527SOL     OW 4579   2.314   4.523   9.574  0.4005  0.2386  0.1910
 1527SOL    HW1 4580   2.374   4.454   9.602  0.3955  0.9774  2.1821
 1527SOL    HW2 4581   2.243   4.477   9.529  0.3983 -1.0746  1.4753
 1528SOL     OW 4582   1.364   2.856   5.688  0.0117  0.2066 -0.2248
 1528SOL    HW1 4583   1.379   2.936   5.738 -1.7324  1.8199 -2.1311
 1528SOL    HW2 4584   1.317   2.798   5.748 -0.4664  1.3969  0.5828
 1529SOL     OW 4585   2.299   1.162   7.345  0.3063 -0.2186 -0.0008
 1529SOL    HW1 4586   2.262   1.080   7.313 -0.6504 -0.2234  1.0458
 1529SOL    HW2 4587   2.391   1.159   7.318  0.6680 -2.3166  1.2372
 1530SOL     OW 4588   3.448   4.873   6.756 -0.6436  0.5162  0.2753
 1530SOL    HW1 4589   3.492   4.797   6.794 -1.9048 -1.1864 -1.4780
 1530SOL    HW2 4590   3.416   4.923   6.831  1.3766  0.0594  1.4942
 1531SOL     OW 4591   1.445   1.543   4.896 -0.0353  0.1286 -0.2638
 1531SOL    HW1 4592   1.496   1.463   4.891 -0.8504 -0.3873 -0.6845
 1531SOL    HW2 4593   1.503   1.611   4.862  0.6889 -0.2644  0.1671
 1532SOL     OW 4594   2.414   3.746   6.539  0.1078  0.0523  0.2440
 1532SOL    HW1 4595   2.393   3.694   6.461 -0.4308 -0.3368  0.6406
 1532SOL    HW2 4596   2.369   3.701   6.611  2.4844 -0.9460  1.1898
 1533SOL     OW 4597   1.398   2.270   5.249  0.4967 -0.0592 -0.3993
 1533SOL    HW1 4598   1.438   2.298   5.332 -1.5607 -1.8338  1.3039
 1533SOL    HW2 4599   1.332   2.336   5.231 -0.3521 -0.6559  0.4434
 1534SOL     OW 4600   3.978   3.037   5.239  0.8138 -0.7014  0.0766
 1534SOL    HW1 4601   3.902   2.989   5.206 -0.2841  1.0009 -0.0188
 1534SOL    HW2 4602   3.972   3.030   5.334 -1.5348  2.2465  0.2802
 1535SOL     OW 4603   4.786   3.859   6.338 -0.1427  0.2808  0.1374
 1535SOL    HW1 4604   4.770   3.822   6.252 -0.4506  1.0466 -0.1439
 1535SOL    HW2 4605   4.815   3.785   6.391 -0.7430 -0.3557 -0.4023
 1536SOL     OW 4606   4.177   3.410   5.920  0.3292 -0.9910  0.4142
 1536SOL    HW1 4607   4.248   3.355   5.954  0.6541 -0.0432  1.3183
 1536SOL    HW2 4608   4.218   3.461   5.850  1.3491  1.5281  2.6737
 1537SOL     OW 4609   1.680   3.284   5.858  0.2548 -0.8196  0.5454
 1537SOL    HW1 4610   1.735   3.301   5.782  0.7250 -0.7729  0.8868
 1537SOL    HW2 4611   1.715   3.203   5.895  0.2742 -0.6389  0.9284
 1538SOL     OW 4612   3.764   2.451   7.953 -0.0361  0.1743 -0.0743
 1538SOL    HW1 4613   3.825   2.504   7.902 -1.1499  0.5773 -1.0265
 1538SOL    HW2 4614   3.810   2.368   7.967  0.0426 -0.2194 -2.3553
 1539SOL     OW 4615   1.109   4.098   4.759  0.1946  0.1943  0.8751
 1539SOL    HW1 4616   1.151   4.018   4.788  0.3124 -0.4083 -0.8208
 1539SOL    HW2 4617   1.176   4.166   4.770 -0.0786  0.1899  2.8057
 1540SOL     OW 4618   2.861   3.026   7.609  0.2896  0.1976  0.2043
 1540SOL    HW1 4619   2.908   2.947   7.637 -1.0935 -0.3887  0.9816
 1540SOL    HW2 4620   2.772   2.996   7.591 -0.0317  1.4269 -0.3687
 1541SOL     OW 4621   2.695   4.209   7.638  0.6447 -0.0906  0.3470
 1541SOL    HW1 4622   2.752   4.286   7.635 -0.4192  0.7319  0.5969
 1541SOL    HW2 4623   2.732   4.155   7.709  1.7183 -0.0865 -0.1900
 1542SOL     OW 4624   0.687   4.889   7.555  0.6330  0.6927  0.4738
 1542SOL    HW1 4625   0.718   4.849   7.474  0.6685 -1.5650  1.5451
 1542SOL    HW2 4626   0.612   4.943   7.529 -0.0573 -0.8762 -0.9109
 1543SOL     OW 4627   2.526   1.288   5.861  0.8437  0.3791 -0.3766
 1543SOL    HW1 4628   2.520   1.323   5.772  1.8088 -1.1309 -1.0682
 1543SOL    HW2 4629   2.569   1.203   5.851 -0.7714 -0.7146  1.3061
 1544SOL     OW 4630   3.323   0.470   5.011 -0.3301 -0.2421 -0.0877
 1544SOL    HW1 4631   3.348   0.554   5.051  1.6637 -0.8635  0.0731
 1544SOL    HW2 4632   3.249   0.492   4.955 -0.1902  1.5366  0.3465
 1545SOL     OW 4633   1.128   4.062   6.445  0.3714 -0.1901 -0.5974
 1545SOL    HW1 4634   1.191   3.997   6.413  1.2208  0.6993 -0.7767
 1545SOL    HW2 4635   1.100   4.109   6.367 -1.5062 -1.3884 -0.7015
 1546SOL     OW 4636   4.166   4.862   5.842 -0.3210 -0.3865 -0.4102
 1546SOL    HW1 4637   4.238   4.852   5.779  0.9510 -1.2873  1.0825
 1546SOL    HW2 4638   4.122   4.942   5.816  1.8943  0.8044 -0.8008
 1547SOL     OW 4639   4.909   0.651   6.196 -0.3007 -0.8751  0.2438
 1547SOL    HW1 4640   4.840   0.586   6.186 -1.2174  0.0771  0.1918
 1547SOL    HW2 4641   4.874   0.714   6.259  0.4432 -0.2732  0.0741
 1548SOL     OW 4642   0.182   1.107   4.979 -0.5485  0.4639  0.5448
 1548SOL    HW1 4643   0.201   1.193   5.017 -3.6545  0.9204  1.2870
 1548SOL    HW2 4644   0.223   1.110   4.893  1.9510  1.4911  1.6334
 1549SOL     OW 4645   1.496   0.770   6.089  0.3238  0.5608  0.2561
 1549SOL    HW1 4646   1.575   0.745   6.137 -0.1630 -0.1848  0.7034
 1549SOL    HW2 4647   1.466   0.689   6.049  1.0010  1.2635 -1.7907
 1550SOL     OW 4648   0.007   0.676   5.508 -0.2207  0.2155  0.0276
 1550SOL    HW1 4649   0.049   0.662   5.593 -0.4764  0.7657  0.2508
 1550SOL    HW2 4650   0.033   0.764   5.482  1.6404 -0.7390 -1.5162
 1551SOL     OW 4651   3.090   2.495   6.025  0.4718  0.3554  0.1071
 1551SOL    HW1 4652   3.160   2.466   6.084  1.6545 -1.2710 -1.9439
 1551SOL    HW2 4653   3.031   2.420   6.019  0.3878  0.4783 -0.7519
 1552SOL     OW 4654   3.215   1.497   4.916 -0.3137 -0.2408  0.1236
 1552SOL    HW1 4655   3.266   1.539   4.847 -0.7500 -0.1861 -0.1741
 1552SOL    HW2 4656   3.246   1.536   4.997 -1.8406  1.9094 -0.2395
 1553SOL     OW 4657   2.764   4.566   6.016 -0.2816  0.5603  0.3998
 1553SOL    HW1 4658   2.857   4.550   6.001  0.0588  1.1985  1.6797
 1553SOL    HW2 4659   2.742   4.510   6.091 -1.2286 -0.4522 -0.6030
 1554SOL     OW 4660   4.442   4.718   5.122 -0.0054 -0.7525  0.6661
 1554SOL    HW1 4661   4.531   4.710   5.155  0.3189 -0.6853 -0.1583
 1554SOL    HW2 4662   4.415   4.807   5.145  0.3936 -0.5409  0.3110
 1555SOL     OW 4663   3.784   0.698   5.862 -0.4851 -0.1096 -0.2013
 1555SOL    HW1 4664   3.860   0.642   5.880 -0.0051 -0.4822 -2.9207
 1555SOL    HW2 4665   3.818   0.787   5.869 -1.1183 -0.0119  3.5932
 1556SOL     OW 4666   2.853   0.814   6.150  0.0543 -0.0601  0.1090
 1556SOL    HW1 4667   2.777   0.761   6.174  0.6490 -0.0393  2.2125
 1556SOL    HW2 4668   2.818   0.903   6.140 -0.1626  0.0341  1.5115
 1557SOL     OW 4669   0.269   4.377   8.310  0.0394 -0.5109  0.4565
 1557SOL    HW1 4670   0.332   4.305   8.314 -0.8618 -1.4991 -1.6830
 1557SOL    HW2 4671   0.287   4.419   8.226 -1.3450 -0.0754  0.3602
 1558SOL     OW 4672   3.050   4.246   7.095 -0.3080 -0.2297  0.1096
 1558SOL    HW1 4673   3.095   4.328   7.113 -0.3399  0.4827 -2.6743
 1558SOL    HW2 4674   3.080   4.221   7.008 -2.3758 -1.7575 -0.2344
 1559SOL     OW 4675   4.905   4.932   5.830  0.3588 -0.4889 -0.0825
 1559SOL    HW1 4676   4.865   5.018   5.816  1.3246  0.0827  0.5543
 1559SOL    HW2 4677   4.853   4.893   5.901 -0.7615 -0.8971 -1.1032
 1560SOL     OW 4678   4.379   0.914   5.461  0.3342  0.0172 -0.1715
 1560SOL    HW1 4679   4.369   0.822   5.485 -0.0003 -0.8567 -3.2223
 1560SOL    HW2 4680   4.290   0.950   5.468  0.2810 -0.1530  0.0558
 1561SOL     OW 4681   0.190   1.419   9.247  0.0627  0.1091 -0.0198
 1561SOL    HW1 4682   0.101   1.447   9.269 -0.0981 -1.1094  1.0122
 1561SOL    HW2 4683   0.178   1.333   9.208  0.8056 -0.1825  0.3790
 1562SOL     OW 4684   4.293   4.129   7.931 -0.4696  0.2380 -0.5305
 1562SOL    HW1 4685   4.274   4.066   7.862  0.5686  0.4260 -1.0159
 1562SOL    HW2 4686   4.207   4.158   7.963 -0.9525 -0.7222 -0.9332
 1563SOL     OW 4687   0.346   0.705   5.919 -0.0732  0.0749  0.8166
 1563SOL    HW1 4688   0.302   0.787   5.896  1.2410  0.5255 -0.2323
 1563SOL    HW2 4689   0.372   0.716   6.010  0.5361  1.0487  0.5363
 1564SOL     OW 4690   4.233   1.535   5.978  0.4376  0.1226 -0.0344
 1564SOL    HW1 4691   4.161   1.578   5.932  1.6044  0.7680 -1.3512
 1564SOL    HW2 4692   4.199   1.448   6.000 -0.8347  0.5186 -0.3375
 1565SOL     OW 4693   0.835   3.786   6.249 -0.2150 -0.8482 -0.3006
 1565SOL    HW1 4694   0.771   3.800   6.179 -0.3117 -0.3055 -0.1140
 1565SOL    HW2 4695   0.851   3.874   6.284  0.5485 -0.9962 -0.2693
 1566SOL     OW 4696   0.733   0.881   5.514 -0.5394 -0.1233 -0.1065
 1566SOL    HW1 4697   0.742   0.806   5.456  4.1604 -1.9962  2.4783
 1566SOL    HW2 4698   0.787   0.949   5.474  1.5369 -0.9386  1.1209
 1567SOL     OW 4699   3.465   1.528   6.906 -0.2258 -0.2579 -0.1439
 1567SOL    HW1 4700   3.489   1.585   6.979 -0.0668 -0.3328 -0.1369
 1567SOL    HW2 4701   3.530   1.547   6.838  0.7119 -1.4511  0.3710
 1568SOL     OW 4702   4.306   2.150   7.332 -0.5707  0.8609  0.2107
 1568SOL    HW1 4703   4.357   2.075   7.300 -3.4746 -1.2840  0.1465
 1568SOL    HW2 4704   4.239   2.163   7.264 -0.2884  3.4646  0.3325
 1569SOL     OW 4705   4.045   1.095   9.399  0.7860  0.0318 -0.7096
 1569SOL    HW1 4706   4.118   1.157   9.394  0.7910  0.0473 -0.4941
 1569SOL    HW2 4707   4.085   1.014   9.430  0.4629  0.5107  1.0840
 1570SOL     OW 4708   2.696   1.235   5.025  0.2980 -0.7679  0.0552
 1570SOL    HW1 4709   2.754   1.311   5.019  0.6898 -1.1261 -0.8385
 1570SOL    HW2 4710   2.621   1.259   4.971  1.0390 -1.5441 -1.3651
 1571SOL     OW 4711   1.810   3.696   5.699 -0.4258 -0.4598  0.1217
 1571SOL    HW1 4712   1.804   3.776   5.648  0.8379  0.0910  0.7728
 1571SOL    HW2 4713   1.904   3.682   5.710 -0.6450 -1.3309  1.0712
 1572SOL     OW 4714   0.717   1.261   5.145  0.4309  0.5934  0.3912
 1572SOL    HW1 4715   0.643   1.318   5.165  0.9243  1.3749  0.0334
 1572SOL    HW2 4716   0.743   1.223   5.229 -1.0742 -0.5758  0.3709
 1573SOL     OW 4717   3.853   0.102   7.423  0.4090 -0.0375  0.0049
 1573SOL    HW1 4718   3.931   0.095   7.479  0.7052  0.3979 -0.3459
 1573SOL    HW2 4719   3.844   0.014   7.386  1.8823  0.3590 -1.4329
 1574SOL     OW 4720   2.444   1.520   4.620 -0.0628 -0.6026  0.0482
 1574SOL    HW1 4721   2.492   1.582   4.675 -1.4261 -0.7968  1.5379
 1574SOL    HW2 4722   2.393   1.574   4.561 -0.5301 -0.3169  0.7086
 1575SOL     OW 4723   3.441   0.064   5.404  0.6973 -0.1122  0.4609
 1575SOL    HW1 4724   3.346   0.053   5.405  0.4673  1.5424  1.9717
 1575SOL    HW2 4725   3.456   0.144   5.455  2.9711 -0.8385  1.0143
 1576SOL     OW 4726   2.543   3.983   5.878  0.7454 -0.3430 -0.3704
 1576SOL    HW1 4727   2.557   4.057   5.938  1.0587  1.1563 -2.2051
 1576SOL    HW2 4728   2.518   4.023   5.795 -3.3219 -2.4591 -0.4023
 1577SOL     OW 4729   0.471   0.490   7.894  0.0385  0.2578  0.2035
 1577SOL    HW1 4730   0.562   0.492   7.865  0.3559 -1.0512  1.0112
 1577SOL    HW2 4731   0.426   0.553   7.838  1.2172  0.0772 -0.9775
 1578SOL     OW 4732   2.697   3.402   5.324 -0.1098  0.7213 -0.2693
 1578SOL    HW1 4733   2.729   3.346   5.253  0.4936  0.4882  0.1787
 1578SOL    HW2 4734   2.624   3.451   5.285  0.1470  0.5190 -1.0181
 1579SOL     OW 4735   3.907   2.856   7.650 -0.2779 -0.3701  0.7781
 1579SOL    HW1 4736   3.920   2.869   7.556  0.4697  0.6121  1.0048
 1579SOL    HW2 4737   3.995   2.848   7.686 -0.1376  4.2120  2.0455
 1580SOL     OW 4738   3.744   4.943   5.617 -0.3372 -0.1329 -0.0287
 1580SOL    HW1 4739   3.708   4.878   5.678 -0.5374 -0.4015 -0.4318
 1580SOL    HW2 4740   3.696   5.023   5.638 -0.0402 -0.0911  0.5186
 1581SOL     OW 4741   0.599   0.637   6.223 -1.4255 -0.1957  0.5492
 1581SOL    HW1 4742   0.629   0.692   6.296  0.0298  0.5899 -0.5841
 1581SOL    HW2 4743   0.579   0.700   6.153  1.0138 -1.0820 -1.0427
 1582SOL     OW 4744   4.464   0.962  10.360 -0.5727  0.3232  0.2692
 1582SOL    HW1 4745   4.461   0.883  10.306 -0.7674 -0.7293  1.7615
 1582SOL    HW2 4746   4.498   0.932  10.444 -0.7348  1.8225  0.8967
 1583SOL     OW 4747   4.634   4.061   6.027  0.5073 -0.0063 -0.3865
 1583SOL    HW1 4748   4.648   4.099   5.941  0.0111  0.1498 -0.4013
 1583SOL    HW2 4749   4.543   4.031   6.025 -0.2352  1.9779  0.8264
 1584SOL     OW 4750   2.498   0.390   6.005  0.0361 -0.1369  0.0712
 1584SOL    HW1 4751   2.547   0.419   5.928 -0.3341  1.1156  0.2896
 1584SOL    HW2 4752   2.469   0.301   5.983  0.6468 -0.1065 -0.8906
 1585SOL     OW 4753   2.206   4.904   5.962 -1.1732  0.1822 -0.2242
 1585SOL    HW1 4754   2.257   4.907   5.881  1.4326 -0.8052  1.2454
 1585SOL    HW2 4755   2.180   4.995   5.977  2.2793  1.2497  0.0893
 1586SOL     OW 4756   4.897   1.733   6.400 -0.1886  0.3446 -0.0070
 1586SOL    HW1 4757   4.831   1.780   6.349  0.9620  0.0494 -1.8860
 1586SOL    HW2 4758   4.981   1.771   6.371  0.5288  0.2507  1.8076
 1587SOL     OW 4759   2.053   4.407   5.613 -0.0692 -0.0824 -0.0919
 1587SOL    HW1 4760   2.138   4.366   5.594  0.0058 -0.6769  1.4018
 1587SOL    HW2 4761   2.076   4.494   5.646  0.2783 -1.4485  3.7355
 1588SOL     OW 4762   0.854   0.566   6.728  0.3169  0.3675 -0.1096
 1588SOL    HW1 4763   0.816   0.622   6.796  1.3814  0.5835  0.3282
 1588SOL    HW2 4764   0.917   0.622   6.684  0.9126 -0.2886 -0.1061
 1589SOL     OW 4765   3.419   2.722   5.061 -0.3397 -0.2020 -0.0497
 1589SOL    HW1 4766   3.340   2.690   5.018  0.0045 -0.6233 -0.3771
 1589SOL    HW2 4767   3.439   2.804   5.015 -1.5936  0.8709  1.2264
 1590SOL     OW 4768   0.089   3.612   6.898 -0.8665 -0.0754  0.1740
 1590SOL    HW1 4769   0.136   3.529   6.901  1.0449  0.9767  1.1367
 1590SOL    HW2 4770   0.003   3.592   6.933  0.3894 -1.1854  2.8734
 1591SOL     OW 4771   3.143   4.947   5.119  0.7135  0.5055  0.3339
 1591SOL    HW1 4772   3.075   4.998   5.163  0.1370 -0.4205  0.5519
 1591SOL    HW2 4773   3.175   5.004   5.049  0.5993  1.4334  1.0133
 1592SOL     OW 4774   4.754   1.750   4.978 -0.0346  0.2279 -0.1795
 1592SOL    HW1 4775   4.750   1.833   4.930 -1.0510  0.8313  0.9139
 1592SOL    HW2 4776   4.839   1.713   4.955  1.1976  2.4026  0.6539
 1593SOL     OW 4777   4.970   2.007   7.770 -0.1204  0.8543 -0.4543
 1593SOL    HW1 4778   4.918   2.009   7.690 -3.0646  2.5507  1.2941
 1593SOL    HW2 4779   5.019   2.089   7.768  0.5748  0.4350 -0.9415
 1594SOL     OW 4780   4.165   4.359   6.732  0.3737 -0.6832 -0.0582
 1594SOL    HW1 4781   4.165   4.454   6.743 -1.2832 -0.8480  1.8828
 1594SOL    HW2 4782   4.097   4.341   6.668  1.2520 -0.5402 -1.0558
 1595SOL     OW 4783   1.146   2.275   5.604  0.2677  0.0031  0.0886
 1595SOL    HW1 4784   1.176   2.189   5.633  0.4546  0.2073  0.5078
 1595SOL    HW2 4785   1.068   2.256   5.551 -0.2982 -0.3638  1.0229
 1596SOL     OW 4786   3.155   3.191   6.498 -0.7828  0.3824 -0.2315
 1596SOL    HW1 4787   3.109   3.180   6.581 -1.9472  1.7088 -0.6625
 1596SOL    HW2 4788   3.140   3.283   6.475 -0.9919 -0.1085 -2.2043
 1597SOL     OW 4789   3.703   0.357   7.939 -0.2828 -0.9328  0.2438
 1597SOL    HW1 4790   3.657   0.326   7.861  0.5768 -1.3264 -0.1281
 1597SOL    HW2 4791   3.634   0.373   8.003 -1.2172  1.2933 -1.1989
 1598SOL     OW 4792   0.029   0.414   4.796 -0.2044  0.2798  0.5993
 1598SOL    HW1 4793  -0.006   0.502   4.800  1.9504  1.4620 -2.4534
 1598SOL    HW2 4794   0.124   0.425   4.801  0.0947 -2.1008  2.0486
 1599SOL     OW 4795   4.088   0.799   6.714 -0.0395  0.0473  0.3359
 1599SOL    HW1 4796   4.004   0.791   6.670  0.0094  0.3751  0.1809
 1599SOL    HW2 4797   4.074   0.866   6.781  0.6546  1.7035 -1.0869
 1600SOL     OW 4798   0.547   3.878   4.701 -0.4349  0.1412  0.0717
 1600SOL    HW1 4799   0.462   3.921   4.688 -0.8459 -0.3518  0.9906
 1600SOL    HW2 4800   0.610   3.934   4.656 -1.2616  0.4711 -0.6875
 1601SOL     OW 4801   2.423   0.485   5.089  0.1828 -0.2263  0.0437
 1601SOL    HW1 4802   2.403   0.575   5.064 -0.5905 -0.0489  1.2452
 1601SOL    HW2 4803   2.501   0.463   5.038  1.0837  1.5221  0.5917
 1602SOL     OW 4804   2.347   1.530   5.688 -0.3982 -0.0943  0.4565
 1602SOL    HW1 4805   2.265   1.519   5.737 -0.7978 -1.4690 -0.4583
 1602SOL    HW2 4806   2.393   1.600   5.734 -1.2975 -0.4938  2.0534
 1603SOL     OW 4807   1.794   4.798   6.057 -0.5468 -0.2625 -0.4290
 1603SOL    HW1 4808   1.854   4.790   5.984  0.3515  1.8254 -0.0038
 1603SOL    HW2 4809   1.721   4.740   6.035 -0.0391 -0.1429 -2.6724
 1604SOL     OW 4810   2.223   4.151   4.722 -0.4222  0.1737  0.3389
 1604SOL    HW1 4811   2.222   4.202   4.803 -0.6930  1.3965 -0.4045
 1604SOL    HW2 4812   2.300   4.181   4.675 -1.4645  1.1151 -0.8363
 1605SOL     OW 4813   3.747   4.755   7.177 -0.1881  0.2724 -0.5262
 1605SOL    HW1 4814   3.775   4.780   7.265 -0.7094  0.3698 -0.3882
 1605SOL    HW2 4815   3.741   4.660   7.180 -2.9892  0.3975  0.4076
 1606SOL     OW 4816   1.755   2.316   5.801 -0.0695  0.5138 -0.5092
 1606SOL    HW1 4817   1.810   2.355   5.734  0.8343  1.5154  0.7614
 1606SOL    HW2 4818   1.785   2.225   5.808  0.6182  0.7306 -0.6559
 1607SOL     OW 4819   1.048   0.697   4.797 -0.2544  0.6604 -0.1428
 1607SOL    HW1 4820   1.003   0.675   4.879  0.5760  0.8352  0.3727
 1607SOL    HW2 4821   1.137   0.665   4.810 -0.5735 -1.0289 -1.7290
 1608SOL     OW 4822   2.867   0.060   6.596 -0.2001  0.3553 -0.5195
 1608SOL    HW1 4823   2.859  -0.032   6.621 -3.9056  0.1014 -1.9658
 1608SOL    HW2 4824   2.923   0.058   6.518 -0.0845 -0.6595 -0.4270
 1609SOL     OW 4825   3.382   1.850   5.540  0.0066 -0.5565 -0.6794
 1609SOL    HW1 4826   3.298   1.829   5.581 -0.8280  0.4915 -1.7661
 1609SOL    HW2 4827   3.434   1.770   5.548 -1.3493 -1.4627 -0.6043
 1610SOL     OW 4828   3.235   3.674   5.651 -0.1164 -0.7532 -0.0005
 1610SOL    HW1 4829   3.288   3.652   5.728 -2.0989 -1.2164  1.2775
 1610SOL    HW2 4830   3.154   3.709   5.686 -0.9783 -0.7237 -1.9014
 1611SOL     OW 4831   4.353   4.115   6.693 -0.4301 -0.6345  0.1807
 1611SOL    HW1 4832   4.261   4.089   6.686 -0.1770 -1.6225  0.3742
 1611SOL    HW2 4833   4.350   4.210   6.701 -1.4222 -0.6272 -0.0533
 1612SOL     OW 4834   0.631   0.306   8.448  0.0400  0.7131 -0.4782
 1612SOL    HW1 4835   0.596   0.364   8.516 -1.3797 -2.1082  1.4149
 1612SOL    HW2 4836   0.721   0.336   8.434 -0.0258  2.1601  1.7655
 1613SOL     OW 4837   5.034   0.972   6.889 -0.0864  0.7961 -0.2377
 1613SOL    HW1 4838   4.976   1.035   6.846  0.5866  1.0966 -0.7175
 1613SOL    HW2 4839   4.982   0.937   6.961 -0.5035  1.8448 -0.0135
 1614SOL     OW 4840   1.032   4.597   7.868  0.2649  0.0682  0.1785
 1614SOL    HW1 4841   0.961   4.589   7.931 -0.9089 -0.6373 -1.1807
 1614SOL    HW2 4842   1.009   4.537   7.797  1.9148  0.2745 -0.5871
 1615SOL     OW 4843   2.739   4.028   6.764 -0.0085  0.2503 -0.5074
 1615SOL    HW1 4844   2.646   4.037   6.745 -0.0642  0.4730 -0.1407
 1615SOL    HW2 4845   2.781   4.099   6.716 -0.1044  0.5627 -0.1383
 1616SOL     OW 4846   1.335   0.527   7.433 -0.0247 -0.1000 -1.1733
 1616SOL    HW1 4847   1.318   0.441   7.394 -0.4731 -0.1850 -0.7925
 1616SOL    HW2 4848   1.248   0.562   7.452  0.0816  1.0259 -2.5682
 1617SOL     OW 4849   2.377   3.549   8.388 -0.4117 -0.6051 -0.2629
 1617SOL    HW1 4850   2.396   3.465   8.431 -0.1816 -1.1343 -1.3462
 1617SOL    HW2 4851   2.403   3.535   8.297 -2.4558 -0.0914 -0.9722
 1618SOL     OW 4852   2.189   0.553   9.240  0.4646 -0.0483 -0.0358
 1618SOL    HW1 4853   2.268   0.573   9.189  1.0769 -0.0785  0.8783
 1618SOL    HW2 4854   2.167   0.464   9.216 -0.1140  0.4324 -1.3494
 1619SOL     OW 4855   2.014   3.036   6.359 -0.0790 -0.0761  0.1046
 1619SOL    HW1 4856   2.016   2.942   6.340  1.6766 -0.4863  1.9393
 1619SOL    HW2 4857   2.015   3.041   6.454  0.9181  1.7986  0.0360
 1620SOL     OW 4858   4.057   4.029   5.570 -0.2103 -0.0554  0.1334
 1620SOL    HW1 4859   4.108   3.949   5.586 -2.1726 -1.6875 -1.2360
 1620SOL    HW2 4860   4.057   4.038   5.475 -1.7915  0.3221  0.1453
 1621SOL     OW 4861   1.032   0.666  10.168  0.0663  0.0218 -0.3185
 1621SOL    HW1 4862   0.978   0.709  10.234  0.4364  2.0966 -1.2639
 1621SOL    HW2 4863   1.003   0.705  10.085  0.7585 -1.2594 -1.1975
 1622SOL     OW 4864   0.834   4.456   6.271  0.2813 -0.5401  0.6555
 1622SOL    HW1 4865   0.744   4.441   6.298 -0.2149 -1.6799 -1.4168
 1622SOL    HW2 4866   0.842   4.552   6.265 -0.9318 -0.4350  0.4805
 1623SOL     OW 4867   0.243   4.431   8.744  0.1432  0.1825  0.1204
 1623SOL    HW1 4868   0.320   4.471   8.785 -0.1821 -0.3265  1.2852
 1623SOL    HW2 4869   0.254   4.447   8.650  1.5157  0.3628  0.2972
 1624SOL     OW 4870   2.324   1.167   7.041  0.2541 -0.1460  0.6974
 1624SOL    HW1 4871   2.348   1.190   7.131  1.8816  0.8891  0.0505
 1624SOL    HW2 4872   2.254   1.102   7.051  0.9995 -0.7305  2.7231
 1625SOL     OW 4873   3.681   1.886   6.737 -0.3609  0.5080 -0.2615
 1625SOL    HW1 4874   3.739   1.942   6.789  2.7178 -1.1181 -1.6930
 1625SOL    HW2 4875   3.615   1.946   6.702 -0.0725  2.3400  2.0554
 1626SOL     OW 4876   2.846   1.424   5.778  0.2943 -0.5781  0.0471
 1626SOL    HW1 4877   2.798   1.412   5.860 -0.0528  2.9781  0.5210
 1626SOL    HW2 4878   2.782   1.405   5.710 -0.7388  0.6083  0.6576
 1627SOL     OW 4879   1.038   4.504   5.246  0.3024 -0.1403  0.0299
 1627SOL    HW1 4880   1.057   4.425   5.196 -0.0342 -2.3416  3.0756
 1627SOL    HW2 4881   1.088   4.573   5.203  0.7887 -2.0029 -2.6445
 1628SOL     OW 4882   4.129   3.280   9.177 -0.1017 -0.2640  0.1922
 1628SOL    HW1 4883   4.146   3.190   9.207 -0.2683  0.2052  1.8124
 1628SOL    HW2 4884   4.198   3.297   9.113  1.1143 -0.9144  1.2618
 1629SOL     OW 4885   4.708   3.458   7.204 -0.2135 -0.6424 -0.4173
 1629SOL    HW1 4886   4.749   3.514   7.269  1.8443 -2.1762 -0.2915
 1629SOL    HW2 4887   4.640   3.411   7.252  0.6737 -1.0903  0.4312
 1630SOL     OW 4888   0.400   1.536   5.381 -0.4193  0.0540 -0.0326
 1630SOL    HW1 4889   0.317   1.503   5.347  0.0717 -1.8125  0.4714
 1630SOL    HW2 4890   0.377   1.614   5.432 -1.3656  1.9457 -3.1021
 1631SOL     OW 4891   1.137   4.217   6.860 -0.0453 -0.9059  0.1533
 1631SOL    HW1 4892   1.138   4.141   6.803  0.6221 -0.9706  0.2433
 1631SOL    HW2 4893   1.203   4.198   6.927  0.7279  0.1029 -0.2999
 1632SOL     OW 4894   1.119   4.244   5.147 -0.2156  0.5793  0.5110
 1632SOL    HW1 4895   1.147   4.179   5.211  1.6772  0.2736 -0.5726
 1632SOL    HW2 4896   1.059   4.197   5.089 -0.7627  0.4746  1.1442
 1633SOL     OW 4897   3.508   2.462   7.278 -0.4308  0.0723 -0.4780
 1633SOL    HW1 4898   3.449   2.537   7.277  0.4313  0.8085  0.9821
 1633SOL    HW2 4899   3.501   2.425   7.190 -1.5866  1.2883 -0.9274
 1634SOL     OW 4900   2.720   1.078   4.764  0.5320 -0.0526 -0.2120
 1634SOL    HW1 4901   2.766   1.093   4.847 -1.4747 -0.7235  1.1011
 1634SOL    HW2 4902   2.655   1.147   4.759  1.6814  0.9857 -2.1268
 1635SOL     OW 4903   1.838   3.212   6.232 -0.1804 -0.0342  0.3054
 1635SOL    HW1 4904   1.780   3.145   6.197 -1.2321  0.1517  1.6352
 1635SOL    HW2 4905   1.900   3.163   6.288 -0.0035 -0.0581  0.0903
 1636SOL     OW 4906   4.417   1.198   6.253 -0.5915 -0.0981  0.1340
 1636SOL    HW1 4907   4.413   1.120   6.198 -0.7575 -1.8861  2.5403
 1636SOL    HW2 4908   4.327   1.229   6.257 -0.6619 -0.2601 -0.1934
 1637SOL     OW 4909   1.563   3.741   5.800 -0.1603  0.9199 -0.0994
 1637SOL    HW1 4910   1.644   3.733   5.750  0.7288  1.5098  1.1743
 1637SOL    HW2 4911   1.580   3.814   5.861 -0.2910 -1.1916  2.6512
 1638SOL     OW 4912   2.569   3.781   5.288  0.4297  0.1949 -0.0583
 1638SOL    HW1 4913   2.624   3.766   5.211 -2.5383 -1.0259 -2.1122
 1638SOL    HW2 4914   2.499   3.716   5.281 -1.4426  1.7931  2.2325
 1639SOL     OW 4915   3.951   4.367   8.300  0.1962  0.5815 -0.2439
 1639SOL    HW1 4916   3.901   4.289   8.322  0.5757  0.7847  1.4513
 1639SOL    HW2 4917   4.019   4.373   8.367  0.1357  2.3942 -0.2770
 1640SOL     OW 4918   0.327   2.962   4.899 -0.4553  0.5039  0.0829
 1640SOL    HW1 4919   0.388   2.983   4.970  0.3197 -1.7368  0.1802
 1640SOL    HW2 4920   0.341   2.868   4.884 -0.9012  0.8181 -2.7494
 1641SOL     OW 4921   3.043   4.942   7.209 -0.2246 -1.1426 -0.2615
 1641SOL    HW1 4922   3.072   5.028   7.179  0.1323 -1.0826  0.2526
 1641SOL    HW2 4923   3.087   4.929   7.293  0.4974 -2.2421 -0.7809
 1642SOL     OW 4924   3.992   1.966   6.558  0.0017  0.6801  0.2736
 1642SOL    HW1 4925   3.912   1.939   6.602 -0.1301  0.7711  0.0928
 1642SOL    HW2 4926   4.062   1.928   6.610 -0.1982 -1.4496 -0.8885
 1643SOL     OW 4927   2.111   3.954   6.121  0.2301  0.1339  0.2931
 1643SOL    HW1 4928   2.095   3.979   6.030 -0.5094  0.8500  0.6108
 1643SOL    HW2 4929   2.076   3.865   6.128  0.4110  0.0253 -0.1535
 1644SOL     OW 4930   2.944   4.572   8.212 -0.1746  0.3702  0.5730
 1644SOL    HW1 4931   2.931   4.536   8.124  0.1995 -0.9507  1.0301
 1644SOL    HW2 4932   2.866   4.626   8.228  0.0389  1.1049 -0.7891
 1645SOL     OW 4933   4.338   2.506   5.720  0.1426 -0.1999 -0.1266
 1645SOL    HW1 4934   4.315   2.508   5.627 -2.3422 -1.2882  0.3743
 1645SOL    HW2 4935   4.434   2.500   5.721  0.3161  0.9807 -2.5547
 1646SOL     OW 4936   2.919   4.781   5.118  0.1958 -0.4015 -0.4943
 1646SOL    HW1 4937   2.886   4.819   5.200  1.0903 -2.7869  1.0937
 1646SOL    HW2 4938   3.008   4.815   5.109 -0.2386  0.6375 -1.0595
 1647SOL     OW 4939   2.156   0.959   6.990 -0.0650 -0.8113  0.1793
 1647SOL    HW1 4940   2.097   0.957   6.915  0.5353  0.4002 -0.3499
 1647SOL    HW2 4941   2.215   0.885   6.977  0.5406 -0.1459 -0.9808
 1648SOL     OW 4942   2.198   0.626   5.488 -0.2665  0.0093 -0.1292
 1648SOL    HW1 4943   2.184   0.721   5.489  1.6083  0.3845  3.0233
 1648SOL    HW2 4944   2.288   0.617   5.456 -0.4387 -0.7211 -0.4114
 1649SOL     OW 4945   4.429   1.823   6.604 -0.6383 -1.0235 -0.2291
 1649SOL    HW1 4946   4.361   1.780   6.553 -1.0056 -1.5273  0.6698
 1649SOL    HW2 4947   4.404   1.915   6.604 -0.2685 -0.9021 -1.5050
 1650SOL     OW 4948   1.312   3.837   5.285  0.0010  0.6071 -0.6304
 1650SOL    HW1 4949   1.402   3.860   5.308 -0.5043 -0.3939  2.8417
 1650SOL    HW2 4950   1.297   3.752   5.326 -3.1582  1.7467  0.9559
 1651SOL     OW 4951   0.678   3.862   5.946 -0.0142  0.3028 -0.5685
 1651SOL    HW1 4952   0.660   3.775   5.912 -1.4232  0.6901 -0.8587
 1651SOL    HW2 4953   0.748   3.896   5.889  0.3035 -0.4915 -0.6604
 1652SOL     OW 4954   2.882   0.888   7.059  0.1517 -0.2075  0.4961
 1652SOL    HW1 4955   2.789   0.865   7.065 -0.3479  1.0291 -1.5130
 1652SOL    HW2 4956   2.912   0.842   6.981  0.9754  0.2194  0.5588
 1653SOL     OW 4957   0.862   1.923   8.451  0.5710  0.2615  0.4100
 1653SOL    HW1 4958   0.790   1.869   8.483  0.1608  2.1503  2.9316
 1653SOL    HW2 4959   0.849   1.926   8.356 -2.1395 -0.2095  0.6792
 1654SOL     OW 4960   1.615   0.140   7.043 -0.2849 -0.2996  0.3711
 1654SOL    HW1 4961   1.613   0.080   7.117 -3.4886  1.2070  1.6778
 1654SOL    HW2 4962   1.562   0.097   6.976  0.6338 -0.5791 -0.2047
 1655SOL     OW 4963   1.892   0.651   7.038  0.4765  0.9526 -0.2094
 1655SOL    HW1 4964   1.874   0.733   6.993  1.8896  0.5240 -1.6259
 1655SOL    HW2 4965   1.962   0.672   7.100 -2.2788  1.8408  2.8989
 1656SOL     OW 4966   2.458   0.417   7.097  0.2356  1.1374 -0.4583
 1656SOL    HW1 4967   2.532   0.391   7.042 -0.2911 -0.7061 -0.3683
 1656SOL    HW2 4968   2.381   0.393   7.046 -0.2672  0.2113  0.7015
 1657SOL     OW 4969   4.354   0.914   5.149 -0.2199 -0.4948  0.1034
 1657SOL    HW1 4970   4.390   0.945   5.232  1.1796 -0.8309 -0.3641
 1657SOL    HW2 4971   4.419   0.938   5.083 -1.6265  0.4042 -1.0268
 1658SOL     OW 4972   2.423   0.846   5.189 -0.2870 -0.1750 -0.0839
 1658SOL    HW1 4973   2.353   0.780   5.191  0.3071 -0.8401 -0.9059
 1658SOL    HW2 4974   2.399   0.903   5.117 -1.5100  1.3520  1.4290
 1659SOL     OW 4975   2.921   0.352   5.797 -0.6975  0.9244  0.7634
 1659SOL    HW1 4976   2.912   0.369   5.703  1.4506  0.8340  0.4786
 1659SOL    HW2 4977   2.857   0.282   5.815 -1.2151  1.0067 -0.6008
 1660SOL     OW 4978   3.097   1.473   9.771  0.3826  0.0097 -0.2054
 1660SOL    HW1 4979   3.045   1.456   9.692 -1.0181  1.6845  0.2960
 1660SOL    HW2 4980   3.178   1.423   9.758 -0.4921 -1.0440 -1.9484
 1661SOL     OW 4981   3.442   1.012   7.832 -0.7676 -0.0093  0.1707
 1661SOL    HW1 4982   3.420   1.068   7.758 -1.2486 -0.2244  0.1455
 1661SOL    HW2 4983   3.473   0.930   7.793 -1.8942 -0.4609  0.1943
 1662SOL     OW 4984   2.484   4.646   6.901 -0.0841  0.1818 -0.4017
 1662SOL    HW1 4985   2.392   4.628   6.881  0.4316 -1.4049 -1.5570
 1662SOL    HW2 4986   2.513   4.569   6.951  1.4901 -1.1633 -3.1364
 1663SOL     OW 4987   2.324   4.455   5.925 -1.1206  0.0309  0.3364
 1663SOL    HW1 4988   2.270   4.381   5.953 -0.4665 -0.3885  0.5129
 1663SOL    HW2 4989   2.281   4.532   5.961 -2.0666 -0.2194 -0.2399
 1664SOL     OW 4990   2.958   0.425   4.981 -0.1503 -0.3664  0.2939
 1664SOL    HW1 4991   2.982   0.482   5.053  0.6476  0.6220 -0.7128
 1664SOL    HW2 4992   2.930   0.485   4.911  0.7593 -1.1706 -0.8124
 1665SOL     OW 4993   3.555   0.649   7.015 -0.0381  0.2296 -0.1211
 1665SOL    HW1 4994   3.493   0.721   7.008 -0.3241  0.4850  3.2195
 1665SOL    HW2 4995   3.507   0.572   6.983 -0.3824  1.1665 -1.9477
 1666SOL     OW 4996   3.027   2.528   7.597 -0.3685  0.2245 -0.2127
 1666SOL    HW1 4997   3.035   2.516   7.502 -1.5057 -2.6372 -0.0300
 1666SOL    HW2 4998   3.112   2.501   7.632  0.4757  2.4106 -0.4111
 1667SOL     OW 4999   2.651   1.167   7.967  0.0421 -0.0389 -0.3051
 1667SOL    HW1 5000   2.690   1.247   7.932 -0.2125  1.0098  1.6935
 1667SOL    HW2 5001   2.560   1.189   7.983 -0.0995 -0.8078  0.0222
 1668SOL     OW 5002   3.363   0.715   4.733  0.0085 -0.0931  0.6026
 1668SOL    HW1 5003   3.427   0.749   4.795  1.3510  1.6917 -1.5718
 1668SOL    HW2 5004   3.387   0.623   4.723  1.2413  0.1535  1.0327
 1669SOL     OW 5005   4.666   2.466   6.734  0.6150 -0.4220 -0.0555
 1669SOL    HW1 5006   4.603   2.452   6.804  1.1013 -2.1433  0.0715
 1669SOL    HW2 5007   4.750   2.442   6.771  1.5538  2.6474  0.0356
 1670SOL     OW 5008   4.541   1.599   6.315 -0.1630 -0.2944  0.0179
 1670SOL    HW1 5009   4.546   1.693   6.328 -0.8768 -0.1342 -0.7898
 1670SOL    HW2 5010   4.488   1.567   6.388 -1.0067  0.1087 -0.4045
 1671SOL     OW 5011   3.863   0.490   5.386  0.5379 -0.1245 -0.8442
 1671SOL    HW1 5012   3.949   0.516   5.354  1.8023 -1.5285  1.2318
 1671SOL    HW2 5013   3.835   0.563   5.441  0.4602  0.2283 -1.3348
 1672SOL     OW 5014   1.983   4.793   5.859 -0.1599 -0.4170  0.1945
 1672SOL    HW1 5015   2.001   4.837   5.776 -0.8268  1.7566  1.1510
 1672SOL    HW2 5016   2.062   4.807   5.912  1.2588 -3.8005 -0.7670
 1673SOL     OW 5017   3.526   4.333   4.974  0.0362 -0.8298 -0.6795
 1673SOL    HW1 5018   3.588   4.391   4.930  0.7905 -0.3671  0.8870
 1673SOL    HW2 5019   3.547   4.246   4.942  2.8261 -0.9600  1.0952
 1674SOL     OW 5020   0.076   2.372   5.157 -0.6476 -0.4115 -0.1987
 1674SOL    HW1 5021   0.094   2.346   5.067 -0.0492 -0.1873 -0.1501
 1674SOL    HW2 5022   0.160   2.361   5.202 -1.3112 -2.0890  0.7112
 1675SOL     OW 5023   2.373   0.162   5.668 -0.0871 -0.6649 -0.3421
 1675SOL    HW1 5024   2.341   0.109   5.596  0.2003 -0.5569 -0.5530
 1675SOL    HW2 5025   2.331   0.247   5.657  2.1623  0.3394 -2.1363
 1676SOL     OW 5026   1.962   4.238   6.485 -0.1583 -0.4193 -0.2284
 1676SOL    HW1 5027   2.003   4.320   6.512 -3.1184  1.2233 -0.2498
 1676SOL    HW2 5028   1.987   4.176   6.553  4.5360 -0.4748 -1.6647
 1677SOL     OW 5029   2.000   1.653   5.415 -0.4484 -0.2110  0.4312
 1677SOL    HW1 5030   1.942   1.725   5.393 -2.2537 -1.0236  2.1361
 1677SOL    HW2 5031   2.087   1.690   5.413 -1.1777  1.5521 -0.4398
 1678SOL     OW 5032   4.218   1.230   5.892 -0.0217  0.2956 -0.1398
 1678SOL    HW1 5033   4.129   1.251   5.864 -0.0119  3.5276  1.7575
 1678SOL    HW2 5034   4.273   1.257   5.819 -0.5018 -0.3651 -0.7562
 1679SOL     OW 5035   1.665   2.060   5.819  0.7349  0.0437  0.1069
 1679SOL    HW1 5036   1.621   1.991   5.770  1.8899  1.3706 -3.1062
 1679SOL    HW2 5037   1.623   2.141   5.789  0.8571  0.9117  2.1197
 1680SOL     OW 5038   3.032   0.359   6.583 -0.0284 -0.1014  0.0308
 1680SOL    HW1 5039   2.943   0.387   6.563  0.7718  1.5992 -1.5464
 1680SOL    HW2 5040   3.041   0.275   6.539 -1.0408 -0.6141  0.7781
 1681SOL     OW 5041   0.744   0.369   9.894  0.2864  1.0665  0.1141
 1681SOL    HW1 5042   0.713   0.402   9.810 -0.3792  0.8621  0.2759
 1681SOL    HW2 5043   0.839   0.359   9.882 -0.0484 -1.2576 -1.4326
 1682SOL     OW 5044   4.513   4.182   5.525 -0.0105  0.2778 -0.0851
 1682SOL    HW1 5045   4.545   4.148   5.442 -2.6260 -1.6185 -0.4318
 1682SOL    HW2 5046   4.449   4.249   5.501 -1.5977 -1.0363  0.2790
 1683SOL     OW 5047   0.796   4.882   7.786  0.5962 -0.1959  0.2410
 1683SOL    HW1 5048   0.770   4.855   7.698  1.4375 -2.6276  0.6517
 1683SOL    HW2 5049   0.811   4.977   7.779  0.3523 -0.2750 -2.1361
 1684SOL     OW 5050   0.134   1.401   5.348  0.5123 -0.2632  0.5572
 1684SOL    HW1 5051   0.061   1.340   5.338  0.4881 -0.1435 -0.0253
 1684SOL    HW2 5052   0.092   1.487   5.358  0.5649 -0.2513  0.6849
 1685SOL     OW 5053   4.850   1.375   6.923  0.6900  0.0397 -0.0556
 1685SOL    HW1 5054   4.778   1.387   6.861 -0.0426  0.0896  0.7892
 1685SOL    HW2 5055   4.885   1.463   6.937  0.1012  0.2009  0.4740
 1686SOL     OW 5056   4.093   2.563   5.856  0.1312  0.2815  0.3470
 1686SOL    HW1 5057   4.159   2.537   5.792 -1.5867 -3.1408 -0.2677
 1686SOL    HW2 5058   4.075   2.655   5.837  3.6747  0.9926 -0.2740
 1687SOL     OW 5059   1.900   0.836   5.878 -0.1640 -0.4728 -0.7807
 1687SOL    HW1 5060   1.971   0.891   5.910 -0.2841 -0.1470 -1.0658
 1687SOL    HW2 5061   1.884   0.773   5.948 -0.7256  0.5049 -0.0165
 1688SOL     OW 5062   2.938   4.402   5.197 -0.1134 -0.1009  0.0633
 1688SOL    HW1 5063   2.892   4.322   5.223  1.2609 -0.8551  0.2214
 1688SOL    HW2 5064   3.023   4.396   5.238  0.7792  0.4386 -1.5987
 1689SOL     OW 5065   4.871   1.639   7.997  0.5993 -0.4045  0.3974
 1689SOL    HW1 5066   4.786   1.602   7.973 -0.0559  0.9832  0.5020
 1689SOL    HW2 5067   4.853   1.730   8.017  1.7853 -0.5248  2.3096
 1690SOL     OW 5068   2.384   0.612   6.471  0.0380  0.6068  0.3399
 1690SOL    HW1 5069   2.475   0.614   6.499  0.2077  0.3537 -0.1808
 1690SOL    HW2 5070   2.333   0.607   6.552  0.5549 -1.3071  0.5734
 1691SOL     OW 5071   2.816   4.520   6.469 -0.1223 -0.0506  0.2028
 1691SOL    HW1 5072   2.885   4.587   6.469 -0.5354  0.3713  0.4452
 1691SOL    HW2 5073   2.734   4.569   6.466 -0.4305 -0.5390 -2.2591
 1692SOL     OW 5074   0.898   3.020   4.772 -0.3242 -0.3157 -0.3821
 1692SOL    HW1 5075   0.861   3.064   4.849 -0.8614 -0.3520 -0.6108
 1692SOL    HW2 5076   0.951   3.087   4.729 -1.1303  0.1195 -0.7224
 1693SOL     OW 5077   3.700   0.279   6.641  0.0151  0.0856 -0.1778
 1693SOL    HW1 5078   3.605   0.279   6.655 -0.1517 -1.4926 -1.1270
 1693SOL    HW2 5079   3.736   0.270   6.729 -0.7186  0.0707  0.1324
 1694SOL     OW 5080   0.485   1.741   6.584  0.0686 -0.3808  0.5552
 1694SOL    HW1 5081   0.492   1.648   6.601 -0.4811 -0.3469  0.9956
 1694SOL    HW2 5082   0.391   1.760   6.591  0.4212  0.7605  3.4148
 1695SOL     OW 5083   4.105   0.334   6.316  0.0550 -0.8458 -0.5876
 1695SOL    HW1 5084   4.138   0.421   6.338  1.1140 -1.0817 -1.1517
 1695SOL    HW2 5085   4.106   0.286   6.399 -1.3581 -0.0751 -0.1117
 1696SOL     OW 5086   3.438   2.148   6.283 -0.2799 -0.0672 -0.0371
 1696SOL    HW1 5087   3.390   2.071   6.312 -2.1888  0.4109 -1.6619
 1696SOL    HW2 5088   3.378   2.221   6.299  0.1614  0.6549 -1.4588
 1697SOL     OW 5089   2.418   0.631   4.724 -0.5157  0.0750 -0.4065
 1697SOL    HW1 5090   2.486   0.695   4.703 -0.5157  0.1064 -0.3102
 1697SOL    HW2 5091   2.465   0.548   4.733 -0.0303  0.5629  2.5638
 1698SOL     OW 5092   2.896   2.729   6.876  0.1347  0.1462  0.5621
 1698SOL    HW1 5093   2.814   2.736   6.828  1.0580  1.3118 -0.9180
 1698SOL    HW2 5094   2.883   2.654   6.934 -2.1866  0.6798  0.8283
 1699SOL     OW 5095   2.650   4.208   8.556  0.0878 -0.1250  0.0128
 1699SOL    HW1 5096   2.574   4.182   8.609 -0.2253 -1.4569 -1.0395
 1699SOL    HW2 5097   2.615   4.216   8.467  1.4509 -2.4739 -0.8161
 1700SOL     OW 5098   4.111   4.918   6.499  0.2637 -0.2951  0.0065
 1700SOL    HW1 5099   4.019   4.920   6.471  0.1001 -0.1992  0.5466
 1700SOL    HW2 5100   4.130   4.825   6.511  0.4539 -0.3699 -0.7921
 1701SOL     OW 5101   3.321   4.935   7.460 -0.1085 -0.3670  0.1003
 1701SOL    HW1 5102   3.320   4.929   7.555 -1.1082 -1.7445  0.0411
 1701SOL    HW2 5103   3.371   4.859   7.431  2.6460  1.5053 -0.4784
 1702SOL     OW 5104   2.272   4.325   6.318 -0.1580  0.2915  0.1785
 1702SOL    HW1 5105   2.280   4.231   6.303 -0.5469  0.1883  0.6055
 1702SOL    HW2 5106   2.349   4.363   6.275  0.0872 -0.2355  0.1478
 1703SOL     OW 5107   1.361   1.428   5.263 -0.3660  0.0445  0.0234
 1703SOL    HW1 5108   1.300   1.381   5.207  0.3501 -1.0744  0.1571
 1703SOL    HW2 5109   1.353   1.386   5.349  0.5787 -0.1334  0.0412
 1704SOL     OW 5110   2.406   4.702   6.143  0.1573  0.1974  0.5532
 1704SOL    HW1 5111   2.379   4.784   6.101  0.0655  0.0815  0.3885
 1704SOL    HW2 5112   2.448   4.730   6.225  0.3970  0.4256  0.3551
 1705SOL     OW 5113   4.127   4.378   5.323  0.2589  0.0649  0.0684
 1705SOL    HW1 5114   4.146   4.453   5.267 -0.1345 -1.3011 -1.9646
 1705SOL    HW2 5115   4.036   4.355   5.303  1.3712 -3.0847 -2.0554
 1706SOL     OW 5116   0.886   1.743   5.347  0.9160 -0.8879  0.5075
 1706SOL    HW1 5117   0.809   1.690   5.369 -1.7548  2.2993 -0.4280
 1706SOL    HW2 5118   0.896   1.731   5.252  1.0234 -0.6138  0.4855
 1707SOL     OW 5119   4.789   0.102   7.483  0.0159 -0.0591  0.0122
 1707SOL    HW1 5120   4.856   0.044   7.446  2.4026  1.5722  1.5035
 1707SOL    HW2 5121   4.780   0.073   7.574  0.6208  1.3319  0.5353
 1708SOL     OW 5122   4.426   2.114   5.749  0.1237  0.4969 -0.1986
 1708SOL    HW1 5123   4.347   2.117   5.694  0.5304 -0.6299 -0.8720
 1708SOL    HW2 5124   4.403   2.167   5.826 -0.7317  1.4710 -1.0850
 1709SOL     OW 5125   0.095   2.147   6.236 -0.7734 -0.3985 -0.0236
 1709SOL    HW1 5126   0.082   2.135   6.330 -1.4843 -1.1395 -0.2096
 1709SOL    HW2 5127   0.081   2.241   6.222 -0.7658 -0.3016  0.5915
 1710SOL     OW 5128   4.067   4.325   8.006  0.5602 -0.4808  0.5793
 1710SOL    HW1 5129   4.050   4.411   8.044  0.3051 -0.7395  1.0614
 1710SOL    HW2 5130   4.139   4.289   8.058  1.0760 -0.3133 -0.0108
 1711SOL     OW 5131   2.410   1.334   6.469  0.1112 -0.5151  0.5367
 1711SOL    HW1 5132   2.480   1.397   6.453  0.6205 -0.9770  0.8948
 1711SOL    HW2 5133   2.372   1.361   6.552  0.2117 -0.5658  0.6003
 1712SOL     OW 5134   1.250   3.299   5.269  0.4935 -0.2065  0.0890
 1712SOL    HW1 5135   1.266   3.370   5.206  1.7349 -1.8356 -1.5193
 1712SOL    HW2 5136   1.217   3.344   5.347 -0.0808  1.9966 -1.3336
 1713SOL     OW 5137   4.710   0.698   6.356  0.1579  0.5095 -0.2945
 1713SOL    HW1 5138   4.657   0.637   6.305 -2.1607  1.0002  1.3687
 1713SOL    HW2 5139   4.674   0.693   6.445  2.5861  1.3137  0.8245
 1714SOL     OW 5140   0.119   1.541   4.676 -1.5571 -0.4375  0.2686
 1714SOL    HW1 5141   0.122   1.447   4.690  0.1769 -0.4028  0.4245
 1714SOL    HW2 5142   0.144   1.553   4.584  0.5226 -0.0830  0.8158
 1715SOL     OW 5143   4.860   4.754   5.533  0.6106  0.2410  0.0014
 1715SOL    HW1 5144   4.824   4.842   5.540  2.1023  0.8598  0.3243
 1715SOL    HW2 5145   4.953   4.765   5.551  0.6153 -1.6087  1.4427
 1716SOL     OW 5146   3.642   1.784   6.237  0.3204 -0.5640 -0.7173
 1716SOL    HW1 5147   3.728   1.824   6.223  0.4289 -1.1421 -1.8260
 1716SOL    HW2 5148   3.587   1.824   6.170  0.7079 -3.0341 -2.6675
 1717SOL     OW 5149   2.502   4.012   6.177  0.3192 -0.4178  0.0239
 1717SOL    HW1 5150   2.414   4.024   6.214  0.1125 -1.8271  0.0211
 1717SOL    HW2 5151   2.521   3.919   6.188  1.6359 -0.2221 -0.3896
 1718SOL     OW 5152   3.658   0.031   5.230 -0.1151 -0.9713  0.7360
 1718SOL    HW1 5153   3.577   0.003   5.273 -0.3744  1.0990  1.7068
 1718SOL    HW2 5154   3.695   0.097   5.289  0.6395  0.4037 -1.1827
 1719SOL     OW 5155   3.351   4.836   6.188  0.1142  0.0524  0.0404
 1719SOL    HW1 5156   3.286   4.770   6.214 -0.7510  0.0836 -1.8626
 1719SOL    HW2 5157   3.419   4.785   6.144  1.5549 -0.0023  2.1791
 1720SOL     OW 5158   3.153   1.922   9.405  0.5817  0.1252 -0.5723
 1720SOL    HW1 5159   3.206   1.860   9.455 -2.7900 -1.2104  1.6734
 1720SOL    HW2 5160   3.149   2.000   9.460 -1.4161 -0.5818  0.3889
 1721SOL     OW 5161   3.999   0.964   6.946  0.4292 -0.5242 -0.3953
 1721SOL    HW1 5162   4.019   0.976   7.039  1.3138 -0.9978 -0.5034
 1721SOL    HW2 5163   3.906   0.942   6.944  0.4854 -0.8871  0.4176
 1722SOL     OW 5164   0.350   4.014   5.668  0.3419  0.6394 -0.7603
 1722SOL    HW1 5165   0.409   4.089   5.656  0.3398  0.7806  0.0573
 1722SOL    HW2 5166   0.270   4.040   5.621 -0.0033  1.5755  0.2836
 1723SOL     OW 5167   1.645   1.026   5.742  0.2133 -0.3231  0.0666
 1723SOL    HW1 5168   1.714   0.965   5.768 -0.4851 -1.0124  0.3555
 1723SOL    HW2 5169   1.572   1.006   5.800 -1.2689 -1.6331 -2.0751
 1724SOL     OW 5170   4.045   2.187   6.318 -0.1074 -0.5961  0.6267
 1724SOL    HW1 5171   4.005   2.100   6.320 -1.5024  0.0366  0.8158
 1724SOL    HW2 5172   3.976   2.246   6.346  0.2517  0.8086 -1.2851
 1725SOL     OW 5173   2.953   1.510   9.071 -0.0653  0.2842  0.5792
 1725SOL    HW1 5174   3.006   1.531   8.994 -1.2928  0.4799 -0.2336
 1725SOL    HW2 5175   2.967   1.584   9.131 -0.9243  1.3214 -0.4468
 1726SOL     OW 5176   0.554   1.994   5.823  0.1953 -0.3772  0.1631
 1726SOL    HW1 5177   0.590   2.079   5.796  0.5062  0.1822  2.1824
 1726SOL    HW2 5178   0.508   1.963   5.746  1.8122  0.6501 -1.3114
 1727SOL     OW 5179   4.042   1.229   5.629  0.1892  0.0542  0.5943
 1727SOL    HW1 5180   4.124   1.180   5.627 -0.1121 -0.5667 -3.1939
 1727SOL    HW2 5181   4.061   1.311   5.585 -1.6869 -1.3204 -3.2615
 1728SOL     OW 5182   2.941   0.079   6.887 -0.2054 -0.1047  0.3532
 1728SOL    HW1 5183   2.863   0.059   6.939  0.8214 -2.1566  1.2374
 1728SOL    HW2 5184   2.910   0.080   6.796 -1.1495 -1.7178  0.6155
 1729SOL     OW 5185   2.624   4.250   7.286  0.3863  0.4006 -0.4263
 1729SOL    HW1 5186   2.596   4.167   7.324 -0.6090 -0.8653 -3.5585
 1729SOL    HW2 5187   2.625   4.311   7.359 -5.1272 -0.7823  1.0452
 1730SOL     OW 5188   2.770   3.758   6.492  0.6035 -0.0533  0.2592
 1730SOL    HW1 5189   2.681   3.767   6.524 -0.7350 -1.9206 -2.5425
 1730SOL    HW2 5190   2.811   3.693   6.549 -0.4174 -0.4842  0.5093
 1731SOL     OW 5191   3.080   4.564   5.471  0.2980 -0.7491  0.1896
 1731SOL    HW1 5192   3.118   4.635   5.419 -0.5775 -1.1210 -0.9910
 1731SOL    HW2 5193   3.131   4.564   5.553  1.3530  0.1898 -0.4438
 1732SOL     OW 5194   2.148   4.195   4.414 -0.5340 -0.4768 -0.2331
 1732SOL    HW1 5195   2.125   4.104   4.430  0.2357 -0.5897  0.2749
 1732SOL    HW2 5196   2.234   4.206   4.455 -1.6562  1.1221  1.8489
 1733SOL     OW 5197   1.988   2.718   6.690 -0.7735  0.3363  0.0087
 1733SOL    HW1 5198   1.977   2.757   6.603  0.7396  0.8322  0.0182
 1733SOL    HW2 5199   1.992   2.624   6.674 -0.5938  0.4194 -0.4523
 1734SOL     OW 5200   1.420   4.110   6.246 -0.2517  0.0385 -0.2535
 1734SOL    HW1 5201   1.453   4.041   6.303  2.6452  1.3547 -0.1550
 1734SOL    HW2 5202   1.358   4.066   6.188 -1.2196 -1.8745  2.0959
 1735SOL     OW 5203   4.435   3.187   7.472 -0.5758  0.4091  0.4578
 1735SOL    HW1 5204   4.409   3.149   7.388  0.2072 -0.4662  0.5924
 1735SOL    HW2 5205   4.497   3.256   7.448  2.0742 -1.8182  0.3539
 1736SOL     OW 5206   0.332   2.240   5.935  0.1777 -0.8327  0.2447
 1736SOL    HW1 5207   0.402   2.287   5.891 -1.0205 -0.8136 -1.7689
 1736SOL    HW2 5208   0.332   2.275   6.024  0.3709  1.8509 -0.7155
 1737SOL     OW 5209   4.638   4.703   5.358 -0.1681  0.7648  0.4814
 1737SOL    HW1 5210   4.725   4.679   5.392 -0.5465 -0.8115  0.4224
 1737SOL    HW2 5211   4.633   4.798   5.371  2.3669  1.2806 -1.3814
 1738SOL     OW 5212   4.408   1.169   5.295 -0.8206  0.4715  0.7313
 1738SOL    HW1 5213   4.381   1.235   5.231 -0.4814  0.9022  1.0219
 1738SOL    HW2 5214   4.333   1.160   5.354 -0.8739  0.5852  0.6813
 1739SOL     OW 5215   3.745   4.133   7.438 -0.7822 -0.2749 -0.2799
 1739SOL    HW1 5216   3.827   4.173   7.409 -0.3434 -0.3283  0.8526
 1739SOL    HW2 5217   3.711   4.089   7.360 -0.4762  0.9547 -1.1469
 1740SOL     OW 5218   0.382   2.550   4.840 -0.4910  0.7032  0.1718
 1740SOL    HW1 5219   0.460   2.521   4.889 -1.2943 -0.5853  0.7489
 1740SOL    HW2 5220   0.410   2.549   4.749  0.4101  1.0405  0.4307
 1741SOL     OW 5221   4.825   2.712   9.093 -0.5379 -0.5757 -0.1866
 1741SOL    HW1 5222   4.879   2.769   9.039 -1.8009  1.1803  0.2903
 1741SOL    HW2 5223   4.886   2.650   9.132  1.5144  2.3593  1.7332
 1742SOL     OW 5224   1.167   2.590   9.160  0.5704 -0.8042 -0.3155
 1742SOL    HW1 5225   1.117   2.667   9.188 -1.4758 -3.0255  2.7482
 1742SOL    HW2 5226   1.134   2.570   9.072 -1.3366 -0.1063  0.1936
 1743SOL     OW 5227   5.023   1.433   8.119 -0.5248 -0.1221  0.1194
 1743SOL    HW1 5228   4.940   1.385   8.119 -1.9754  2.2172 -0.2606
 1743SOL    HW2 5229   5.001   1.519   8.083  1.9338  0.8430  0.7043
 1744SOL     OW 5230   3.614   3.564   7.682  0.3616 -0.0314 -0.7824
 1744SOL    HW1 5231   3.578   3.636   7.734 -0.1887 -0.0860 -1.0840
 1744SOL    HW2 5232   3.562   3.488   7.707  1.4463 -0.5012  0.1124
 1745SOL     OW 5233   2.263   0.569   6.728  0.3108 -0.1327 -0.2192
 1745SOL    HW1 5234   2.181   0.609   6.699  0.9706  0.3295 -1.5591
 1745SOL    HW2 5235   2.238   0.509   6.798 -0.9059  1.5219  0.8331
 1746SOL     OW 5236   2.491   1.668   7.566  0.2109  0.6478 -0.1264
 1746SOL    HW1 5237   2.542   1.598   7.609  1.2342  1.2665 -0.3029
 1746SOL    HW2 5238   2.451   1.625   7.491  2.2628  0.5926 -1.2688
 1747SOL     OW 5239   4.372   1.134  10.114 -0.5409 -0.1518  0.1407
 1747SOL    HW1 5240   4.366   1.098  10.203  0.3982 -1.8998 -0.4596
 1747SOL    HW2 5241   4.449   1.092  10.076 -1.2831  0.0813 -1.7258
 1748SOL     OW 5242   4.819   2.026   7.060  0.2075  1.0816  0.9282
 1748SOL    HW1 5243   4.737   1.988   7.027  1.5003  0.0980 -1.3832
 1748SOL    HW2 5244   4.837   2.100   7.002  1.6995  0.3616  0.4306
 1749SOL     OW 5245   3.359   4.691   9.304  0.0345  0.2944  0.3113
 1749SOL    HW1 5246   3.372   4.732   9.389  2.8988  0.2063 -0.0074
 1749SOL    HW2 5247   3.447   4.676   9.270 -0.9990 -0.8497 -2.1249
 1750SOL     OW 5248   2.701   1.438   8.156  0.8895 -0.5292 -1.2578
 1750SOL    HW1 5249   2.644   1.413   8.229 -0.4889  2.1085 -1.3094
 1750SOL    HW2 5250   2.743   1.356   8.129 -0.9450 -2.1364  0.4344
 1751SOL     OW 5251   3.323   4.592   7.744  0.2003  0.1272 -0.5521
 1751SOL    HW1 5252   3.417   4.595   7.729  1.0913  0.5359  3.6847
 1751SOL    HW2 5253   3.311   4.519   7.805 -1.9227  1.1547  0.3801
 1752SOL     OW 5254   1.471   0.262   8.304  0.3290  0.2540 -0.1495
 1752SOL    HW1 5255   1.382   0.280   8.275  0.1596  1.3671  0.9980
 1752SOL    HW2 5256   1.466   0.176   8.346 -0.2856  0.5006  0.2808
 1753SOL     OW 5257   1.049   1.732   6.496 -0.7125  0.4613  0.1828
 1753SOL    HW1 5258   1.074   1.711   6.586 -0.4814 -1.2180 -0.2352
 1753SOL    HW2 5259   0.960   1.696   6.488 -0.4949  0.0526 -0.4336
 1754SOL     OW 5260   2.732   0.625   6.490 -0.3914  0.2449  0.2925
 1754SOL    HW1 5261   2.752   0.658   6.402  1.7297 -0.0312  0.6260
 1754SOL    HW2 5262   2.783   0.545   6.498 -1.8559 -0.6342  1.2040
 1755SOL     OW 5263   1.720   3.763   6.985  0.0336 -0.0322  0.0426
 1755SOL    HW1 5264   1.751   3.849   6.954 -1.5344  0.0174 -1.5758
 1755SOL    HW2 5265   1.757   3.701   6.922  1.1528 -0.5866  1.2033
 1756SOL     OW 5266   2.724   3.705   7.189 -0.3431  0.2464 -0.5615
 1756SOL    HW1 5267   2.690   3.685   7.276 -2.2110  0.0146 -1.2880
 1756SOL    HW2 5268   2.740   3.619   7.149  0.7834  0.3528 -0.3623
 1757SOL     OW 5269   0.471   4.731   8.789  0.4363  0.3106 -0.1139
 1757SOL    HW1 5270   0.425   4.718   8.872 -1.2058  0.5322 -0.9480
 1757SOL    HW2 5271   0.559   4.757   8.814 -0.5637  2.3428  1.5855
 1758SOL     OW 5272   2.476   3.203   9.392  0.6291  0.2456 -0.1616
 1758SOL    HW1 5273   2.387   3.234   9.378  0.9307  0.1747 -2.6195
 1758SOL    HW2 5274   2.471   3.108   9.378  1.0313  0.1891  0.0466
 1759SOL     OW 5275   3.476   3.413   6.023 -0.3243 -0.2945  0.1365
 1759SOL    HW1 5276   3.490   3.325   6.058 -1.6009 -0.2110  0.9255
 1759SOL    HW2 5277   3.508   3.471   6.092  1.1771 -0.1028 -0.6702
 1760SOL     OW 5278   3.510   4.833   8.987  0.2448 -0.7703 -0.6326
 1760SOL    HW1 5279   3.498   4.739   9.000 -1.3354 -0.9117 -2.4607
 1760SOL    HW2 5280   3.562   4.840   8.907 -0.9208 -0.1427 -1.3759
 1761SOL     OW 5281   1.958   0.514   5.438 -0.2297  0.4188  0.5659
 1761SOL    HW1 5282   2.043   0.559   5.447  0.4261 -0.8647  1.0398
 1761SOL    HW2 5283   1.923   0.510   5.527  1.5970 -3.4402  1.3159
 1762SOL     OW 5284   4.012   3.103   8.398  0.2525 -0.1015  0.3178
 1762SOL    HW1 5285   3.927   3.129   8.362 -0.8175  0.2105  2.8810
 1762SOL    HW2 5286   4.066   3.182   8.393  0.4300 -0.2808 -1.2544
 1763SOL     OW 5287   3.221   3.460   5.881  0.6111 -0.1523 -0.3268
 1763SOL    HW1 5288   3.314   3.476   5.897  0.4777  1.1003 -0.6752
 1763SOL    HW2 5289   3.211   3.469   5.786  0.1261 -0.1925 -0.2820
 1764SOL     OW 5290   3.018   4.011   8.186 -0.3739  0.1892  0.5369
 1764SOL    HW1 5291   2.930   3.973   8.182  0.1128 -0.8939 -0.3060
 1764SOL    HW2 5292   3.035   4.040   8.096 -0.9018  2.9230  1.2039
 1765SOL     OW 5293   1.163   1.322   7.279 -0.7491 -0.5754 -0.6072
 1765SOL    HW1 5294   1.083   1.354   7.320 -2.6034 -0.4951 -3.9102
 1765SOL    HW2 5295   1.182   1.240   7.324 -3.8061 -1.5376 -0.8164
 1766SOL     OW 5296   3.549   2.203   8.577 -0.1505  0.8069 -0.4897
 1766SOL    HW1 5297   3.607   2.216   8.502 -1.4874 -0.2012 -1.7576
 1766SOL    HW2 5298   3.462   2.191   8.539 -1.2892  2.5005  1.3546
 1767SOL     OW 5299   0.867   1.278   9.562 -0.3597 -0.3777  0.8280
 1767SOL    HW1 5300   0.806   1.301   9.492  0.3768  2.5680  0.9921
 1767SOL    HW2 5301   0.833   1.322   9.640  0.2973 -1.3225  1.6799
 1768SOL     OW 5302   0.902   0.326  10.180 -0.0803  0.1718 -0.2276
 1768SOL    HW1 5303   0.814   0.288  10.188  0.0235 -0.3951 -1.4849
 1768SOL    HW2 5304   0.914   0.338  10.086 -0.2687  3.8116  0.0993
 1769SOL     OW 5305   2.368   0.940   9.657  0.7423 -0.7808  0.3884
 1769SOL    HW1 5306   2.405   0.933   9.745 -0.0770 -0.8531  0.7425
 1769SOL    HW2 5307   2.314   0.862   9.647 -1.0946  0.3454  0.7882
 1770SOL     OW 5308   2.265   4.201   7.576  0.2668  0.4407  0.0059
 1770SOL    HW1 5309   2.202   4.193   7.505 -0.9541 -1.2094  1.1894
 1770SOL    HW2 5310   2.212   4.207   7.655  1.5956  1.3415  0.8694
 1771SOL     OW 5311   1.560   1.126   9.364 -0.4324 -0.3041 -0.0265
 1771SOL    HW1 5312   1.655   1.117   9.356  0.1360  3.3395  0.9531
 1771SOL    HW2 5313   1.543   1.116   9.458 -0.3266  2.8553  0.4443
 1772SOL     OW 5314   4.386   1.600   7.173 -0.1244  0.2605  0.4004
 1772SOL    HW1 5315   4.453   1.538   7.143  0.4131 -0.1211  2.2540
 1772SOL    HW2 5316   4.367   1.653   7.096  1.6331 -0.2345 -0.4376
 1773SOL     OW 5317   1.256   3.971   7.595 -0.2144 -0.5750  0.3887
 1773SOL    HW1 5318   1.205   3.935   7.667 -0.9529 -1.4600 -0.5424
 1773SOL    HW2 5319   1.270   4.063   7.618  0.3671 -1.0680  2.0790
 1774SOL     OW 5320   0.606   1.802   8.583  0.0854  0.5519 -0.1145
 1774SOL    HW1 5321   0.613   1.883   8.532  0.4025  0.5540 -0.0660
 1774SOL    HW2 5322   0.561   1.741   8.525  0.3485  0.5896 -0.3587
 1775SOL     OW 5323   2.185   2.965   7.781 -0.6323 -0.4765  0.3855
 1775SOL    HW1 5324   2.216   2.944   7.693 -0.3287  0.9371  0.1170
 1775SOL    HW2 5325   2.252   2.931   7.840 -1.4168 -2.4986  0.1796
 1776SOL     OW 5326   3.806   3.372   8.491 -0.4274  0.0013  0.2220
 1776SOL    HW1 5327   3.749   3.435   8.536 -1.1725  0.2597 -1.0556
 1776SOL    HW2 5328   3.806   3.399   8.400 -0.2280 -1.4660 -0.2419
 1777SOL     OW 5329   0.770   3.271   7.768 -0.3329 -0.3285 -0.2520
 1777SOL    HW1 5330   0.735   3.250   7.855  0.7935 -0.5710  0.1560
 1777SOL    HW2 5331   0.723   3.213   7.708 -0.2328 -1.0470  0.3563
 1778SOL     OW 5332   0.660   2.494   7.597  0.2592  0.2717  0.1401
 1778SOL    HW1 5333   0.576   2.487   7.643  1.5455 -0.4790  2.5393
 1778SOL    HW2 5334   0.713   2.551   7.653  1.8027 -0.4037 -0.5855
 1779SOL     OW 5335   1.391   1.717   8.391 -0.4456  0.4115 -0.3417
 1779SOL    HW1 5336   1.469   1.769   8.411  0.3047 -0.6372 -0.4713
 1779SOL    HW2 5337   1.318   1.771   8.421  0.4501  0.0673  2.8279
 1780SOL     OW 5338   4.149   0.435   8.208 -0.2071  0.3595  0.2061
 1780SOL    HW1 5339   4.103   0.433   8.124 -0.3324  1.0565  0.2500
 1780SOL    HW2 5340   4.231   0.481   8.189 -0.0832  0.2167  0.3909
 1781SOL     OW 5341   1.413   4.475   9.504 -0.3838  0.1195  0.1027
 1781SOL    HW1 5342   1.476   4.428   9.449 -0.5208 -1.8204  1.5263
 1781SOL    HW2 5343   1.381   4.410   9.566 -2.5316  1.4817  0.5376
 1782SOL     OW 5344   3.270   2.350   6.317 -0.3331 -0.1921 -0.2878
 1782SOL    HW1 5345   3.275   2.446   6.314  0.5016 -0.2429 -1.0701
 1782SOL    HW2 5346   3.260   2.330   6.410 -0.4744  0.6545 -0.1064
 1783SOL     OW 5347   0.944   4.792   9.859 -0.1527 -0.1102  0.2381
 1783SOL    HW1 5348   1.017   4.804   9.920  0.5374 -0.1671 -0.5436
 1783SOL    HW2 5349   0.904   4.878   9.851  2.2044  0.9048 -2.1929
 1784SOL     OW 5350   1.950   4.050   9.593  0.2063 -0.0283  0.4426
 1784SOL    HW1 5351   1.891   4.036   9.667 -0.6411  0.0638 -0.2139
 1784SOL    HW2 5352   1.895   4.042   9.516  0.8097  1.3163 -0.1487
 1785SOL     OW 5353   2.991   1.844   8.021 -0.9130  0.2486  0.0530
 1785SOL    HW1 5354   2.945   1.760   8.022 -1.4322  0.4467 -1.9318
 1785SOL    HW2 5355   2.955   1.890   7.945  0.5160  1.6195  0.1429
 1786SOL     OW 5356   0.275   0.441   6.623  0.1864 -0.5085 -0.4266
 1786SOL    HW1 5357   0.294   0.351   6.596  0.2025 -1.0190  1.1316
 1786SOL    HW2 5358   0.353   0.468   6.672 -1.2727 -1.1028  2.4441
 1787SOL     OW 5359   1.287   4.161   9.412 -0.0653 -0.8883 -0.3111
 1787SOL    HW1 5360   1.223   4.203   9.470 -0.2410  0.3497 -1.3596
 1787SOL    HW2 5361   1.353   4.229   9.396  0.8548 -1.7456 -0.2606
 1788SOL     OW 5362   4.694   2.566   7.696 -0.0576 -0.1856  0.1064
 1788SOL    HW1 5363   4.650   2.649   7.707 -2.1008 -1.1796 -0.1884
 1788SOL    HW2 5364   4.630   2.510   7.652  2.2342 -1.0778 -2.3759
 1789SOL     OW 5365   2.933   3.427   8.028  0.2714 -0.2344  0.1896
 1789SOL    HW1 5366   2.880   3.477   8.090  0.0804 -0.1126 -0.0680
 1789SOL    HW2 5367   2.881   3.348   8.011  1.3859 -1.4082  1.9790
 1790SOL     OW 5368   3.670   4.906   8.787  0.2695  0.5050  0.2908
 1790SOL    HW1 5369   3.640   4.919   8.697  0.9071  0.1650  0.0248
 1790SOL    HW2 5370   3.764   4.892   8.779  0.3667  0.7082  1.0340
 1791SOL     OW 5371   3.621   0.868   6.474 -0.2994  0.4458 -0.2500
 1791SOL    HW1 5372   3.558   0.907   6.533  0.9663 -1.7862  2.8470
 1791SOL    HW2 5373   3.570   0.844   6.397 -3.3563 -1.3044  2.1095
 1792SOL     OW 5374   3.191   4.526   9.056 -0.8356  0.1987 -0.0330
 1792SOL    HW1 5375   3.270   4.495   9.011 -0.5866  0.5930  0.1200
 1792SOL    HW2 5376   3.208   4.506   9.148 -0.6661  0.8049  0.0666
 1793SOL     OW 5377   3.953   0.964   5.869 -0.1980  0.1964 -0.5830
 1793SOL    HW1 5378   3.944   0.999   5.958  0.2521  0.3320 -0.5901
 1793SOL    HW2 5379   3.926   1.036   5.812 -0.3807  0.1461 -0.5609
 1794SOL     OW 5380   1.138   4.409   6.215 -0.0579 -0.3165  0.2764
 1794SOL    HW1 5381   1.065   4.471   6.218  0.4756  0.3390  0.0685
 1794SOL    HW2 5382   1.188   4.427   6.294 -0.2282 -0.9041  0.5222
 1795SOL     OW 5383   4.787   0.791   7.139  0.1578 -0.0375 -0.5279
 1795SOL    HW1 5384   4.752   0.704   7.122 -1.2963  0.8175 -2.4061
 1795SOL    HW2 5385   4.819   0.821   7.053  1.1933  1.0387  0.1993
 1796SOL     OW 5386   0.227   2.001   9.760  0.6685 -0.3785  0.1283
 1796SOL    HW1 5387   0.163   1.948   9.807  1.5206  0.1554  1.9707
 1796SOL    HW2 5388   0.304   2.002   9.817  1.1023  1.8338 -0.3890
 1797SOL     OW 5389   1.479   2.947   8.360 -0.4421  0.5766 -0.0322
 1797SOL    HW1 5390   1.393   2.910   8.380 -1.2356  0.7995 -2.6713
 1797SOL    HW2 5391   1.482   3.029   8.409 -1.9462  0.7873 -0.2341
 1798SOL     OW 5392   0.343   3.555   9.886  0.1305 -0.1062 -0.5071
 1798SOL    HW1 5393   0.311   3.550   9.976  0.2577  1.0935 -0.3759
 1798SOL    HW2 5394   0.409   3.486   9.880 -0.2296 -0.5168  0.1676
 1799SOL     OW 5395   2.943   4.029   7.880  0.6323  0.8368  0.2347
 1799SOL    HW1 5396   3.033   4.045   7.850  0.2763  1.2851 -0.6026
 1799SOL    HW2 5397   2.916   4.113   7.918  0.6573  0.6224  0.7308
 1800SOL     OW 5398   3.195   4.035   8.418  0.1654 -0.4293  0.4102
 1800SOL    HW1 5399   3.209   4.127   8.399  2.2337 -0.5707  0.9838
 1800SOL    HW2 5400   3.137   4.004   8.348  0.3607  1.0219 -0.4288
 1801SOL     OW 5401   4.394   4.441   8.390 -0.0654  0.5205 -0.2628
 1801SOL    HW1 5402   4.478   4.396   8.400 -0.6339 -0.9437 -1.6987
 1801SOL    HW2 5403   4.415   4.533   8.407  1.3188 -0.0890  1.8374
 1802SOL     OW 5404   2.418   4.580   7.252 -0.2947 -0.4755  0.3600
 1802SOL    HW1 5405   2.355   4.527   7.203  0.6863 -2.0364  0.7203
 1802SOL    HW2 5406   2.501   4.569   7.204  0.5256 -1.4849  1.9355
 1803SOL     OW 5407   1.883   0.929   8.138 -0.4451 -0.1672 -0.6430
 1803SOL    HW1 5408   1.855   1.006   8.187 -1.5332 -0.0286 -1.4211
 1803SOL    HW2 5409   1.860   0.855   8.194 -0.3379  0.0423 -0.3244
 1804SOL     OW 5410  -0.022   1.679   4.839  0.1182 -0.1916 -0.4344
 1804SOL    HW1 5411   0.014   1.645   4.757  1.2620  0.4470 -0.2091
 1804SOL    HW2 5412   0.048   1.669   4.903 -1.1584 -1.8175  0.8092
 1805SOL     OW 5413   0.344   2.879   7.809 -0.2742  0.0742  0.4332
 1805SOL    HW1 5414   0.288   2.862   7.733  1.0333 -1.0188 -0.3473
 1805SOL    HW2 5415   0.318   2.812   7.873 -0.6792  0.3459  0.5574
 1806SOL     OW 5416   2.354   0.329   7.712 -0.1830 -0.7118 -0.4630
 1806SOL    HW1 5417   2.350   0.416   7.751 -0.4057 -1.3290  0.9461
 1806SOL    HW2 5418   2.428   0.286   7.756 -0.9140 -1.6849 -0.1558
 1807SOL     OW 5419   1.538   4.467   8.834 -0.2618 -0.3897  0.2702
 1807SOL    HW1 5420   1.519   4.410   8.759 -2.7323  0.7404 -0.0618
 1807SOL    HW2 5421   1.528   4.409   8.910  3.0489 -1.7469 -0.1633
 1808SOL     OW 5422   1.073   0.229   7.720  0.4376  0.4673  0.3054
 1808SOL    HW1 5423   1.086   0.324   7.722 -0.0322  0.5439 -0.0108
 1808SOL    HW2 5424   1.018   0.210   7.796  2.1984  0.1604  1.5664
 1809SOL     OW 5425   4.802   1.378  10.356 -0.2773 -0.1303  0.1091
 1809SOL    HW1 5426   4.845   1.327  10.287  1.0889  0.8876  0.1449
 1809SOL    HW2 5427   4.861   1.371  10.431 -1.7972 -1.2939  1.2376
 1810SOL     OW 5428   4.045   0.670   8.777 -0.1050  0.2156 -0.0088
 1810SOL    HW1 5429   3.992   0.719   8.840  0.8884  0.0862  0.9520
 1810SOL    HW2 5430   3.988   0.600   8.746  0.4533 -1.9934  3.4844
 1811SOL     OW 5431   1.256   3.291   7.652 -0.6587 -0.7407  0.0017
 1811SOL    HW1 5432   1.201   3.368   7.667 -0.4193 -0.7186  0.8009
 1811SOL    HW2 5433   1.305   3.311   7.572 -0.3492  0.0869  0.3879
 1812SOL     OW 5434   1.936   0.888   7.452  0.5826 -0.1314  0.0850
 1812SOL    HW1 5435   2.016   0.874   7.401  1.6200  0.4245  1.4692
 1812SOL    HW2 5436   1.967   0.928   7.534 -1.0738 -0.3217  0.8467
 1813SOL     OW 5437   3.689   0.954   5.625  0.1497  0.0819 -0.0496
 1813SOL    HW1 5438   3.742   0.875   5.615 -1.3111 -1.1239  1.1306
 1813SOL    HW2 5439   3.625   0.948   5.554 -0.5633 -0.3421  0.6079
 1814SOL     OW 5440   1.497   4.989   5.866 -0.5814 -0.5017 -0.1213
 1814SOL    HW1 5441   1.510   4.905   5.910 -0.4439  0.4924  1.8454
 1814SOL    HW2 5442   1.586   5.018   5.844 -0.5545 -0.4198  0.0934
 1815SOL     OW 5443   0.757   0.545   7.754 -0.4473 -0.7793  0.5137
 1815SOL    HW1 5444   0.819   0.476   7.732  0.1828  0.2441 -1.0542
 1815SOL    HW2 5445   0.803   0.598   7.820 -1.0077 -1.8967  1.8701
 1816SOL     OW 5446   2.007   4.317   8.055 -0.0600 -0.2431  0.0770
 1816SOL    HW1 5447   1.998   4.407   8.085 -1.1686  0.1560 -1.3238
 1816SOL    HW2 5448   1.963   4.265   8.123 -1.2388  0.4905 -0.0828
 1817SOL     OW 5449   0.756   1.369   8.383 -0.0503  0.2760 -0.2349
 1817SOL    HW1 5450   0.684   1.407   8.332  0.3801  0.0258 -1.0537
 1817SOL    HW2 5451   0.761   1.423   8.462 -1.3062  0.1345 -0.0351
 1818SOL     OW 5452   3.051   0.507   9.257 -0.0393  0.4280 -0.6163
 1818SOL    HW1 5453   3.070   0.415   9.278  0.8043  0.9261  0.9741
 1818SOL    HW2 5454   3.019   0.544   9.338  0.1890  1.6901 -1.0775
 1819SOL     OW 5455   4.532   3.612   6.908 -0.1592  0.5040 -0.3901
 1819SOL    HW1 5456   4.495   3.647   6.989 -1.6194 -0.5740 -0.5592
 1819SOL    HW2 5457   4.556   3.521   6.931 -0.7903  0.1215 -1.2238
 1820SOL     OW 5458   1.960   4.540   5.069  0.0303  0.0204 -0.3918
 1820SOL    HW1 5459   1.982   4.597   4.996 -0.8655 -0.0892 -0.7681
 1820SOL    HW2 5460   1.920   4.463   5.028 -0.1837 -0.1888  0.1944
 1821SOL     OW 5461   1.975   0.225   8.781 -0.6678 -1.4437  0.3647
 1821SOL    HW1 5462   2.004   0.261   8.698 -0.8503 -0.8875  0.5355
 1821SOL    HW2 5463   1.888   0.262   8.794  0.0897  0.0234  1.7001
 1822SOL     OW 5464   2.772   4.975   8.014  0.2887 -0.2317  0.1310
 1822SOL    HW1 5465   2.763   4.908   8.082 -1.0383  0.7581  0.9867
 1822SOL    HW2 5466   2.712   5.045   8.042 -0.0481  0.3426 -1.9090
 1823SOL     OW 5467   2.455   0.893   9.910  0.0478 -0.3408 -0.1274
 1823SOL    HW1 5468   2.378   0.913   9.964 -0.0252  0.1223 -0.3980
 1823SOL    HW2 5469   2.526   0.944   9.950  0.0415 -0.1640 -0.3400
 1824SOL     OW 5470   2.993   4.746   6.576 -0.1432 -0.2094  0.2093
 1824SOL    HW1 5471   3.069   4.755   6.634 -0.4151 -0.4560  0.6075
 1824SOL    HW2 5472   2.919   4.774   6.629 -0.3249  0.0696 -0.1940
 1825SOL     OW 5473   3.295   2.170  10.041  1.0204 -0.1014 -0.1850
 1825SOL    HW1 5474   3.327   2.109  10.107  2.0168 -0.4150 -0.9346
 1825SOL    HW2 5475   3.202   2.148  10.031  1.3622 -1.5234 -0.4550
 1826SOL     OW 5476   1.410   2.600   6.605 -0.4765 -0.3200 -0.1526
 1826SOL    HW1 5477   1.414   2.608   6.700  2.2568 -1.3784 -0.1066
 1826SOL    HW2 5478   1.406   2.505   6.589  2.6581 -0.3887 -1.0714
 1827SOL     OW 5479   4.478   2.076   5.218 -0.0910  0.2330 -0.2712
 1827SOL    HW1 5480   4.519   2.162   5.209 -1.2628  0.6960 -1.3271
 1827SOL    HW2 5481   4.538   2.028   5.276 -0.6328  2.5251  2.4235
 1828SOL     OW 5482   2.532   4.105  10.132 -0.5021  0.6424 -0.4029
 1828SOL    HW1 5483   2.548   4.199  10.121  2.4742  0.8368  3.2819
 1828SOL    HW2 5484   2.481   4.098  10.212 -0.4733 -0.9056 -0.4770
 1829SOL     OW 5485   0.811   2.593   7.810 -0.6428  0.1884 -0.4656
 1829SOL    HW1 5486   0.829   2.651   7.883 -2.3788 -0.1128  0.2565
 1829SOL    HW2 5487   0.759   2.522   7.848  0.6605 -1.3900 -1.4923
 1830SOL     OW 5488   2.409   3.685   7.890  0.3556 -0.4514 -0.4326
 1830SOL    HW1 5489   2.464   3.763   7.903 -2.7617  2.0383 -0.8312
 1830SOL    HW2 5490   2.387   3.687   7.797 -2.7049  0.5241  0.1854
 1831SOL     OW 5491   4.451   0.252  10.480  0.2386  0.5970  0.2826
 1831SOL    HW1 5492   4.527   0.309  10.482 -0.6654  1.9862 -1.5632
 1831SOL    HW2 5493   4.398   0.280  10.555  0.0824  1.8078 -0.2600
 1832SOL     OW 5494   3.544   4.553   9.026  0.9032  0.3076  0.1479
 1832SOL    HW1 5495   3.615   4.552   9.090  0.1975 -1.0326  0.9408
 1832SOL    HW2 5496   3.589   4.550   8.941  1.8104  0.0510  0.6201
 1833SOL     OW 5497   0.446   0.245   9.083 -0.1127  0.3114 -0.5660
 1833SOL    HW1 5498   0.457   0.277   9.172 -3.5112 -0.3035  0.2180
 1833SOL    HW2 5499   0.434   0.150   9.092  0.9617  0.0242 -1.8626
 1834SOL     OW 5500   2.836   4.269   8.036  0.6121 -0.2420 -0.1060
 1834SOL    HW1 5501   2.743   4.260   8.057  0.3814  1.2621 -0.3337
 1834SOL    HW2 5502   2.850   4.364   8.029  2.5258 -0.3180  1.5576
 1835SOL     OW 5503   4.034   0.569   5.030 -0.1982  0.5195  0.3114
 1835SOL    HW1 5504   4.080   0.637   4.980  1.3782 -1.6861 -1.4496
 1835SOL    HW2 5505   3.950   0.559   4.984  0.3360  0.0252 -0.5843
 1836SOL     OW 5506   4.743   1.034   6.245  0.0966 -0.6089 -0.8729
 1836SOL    HW1 5507   4.668   1.005   6.297  1.0599 -0.4515  0.6776
 1836SOL    HW2 5508   4.705   1.085   6.173 -1.2371  0.1908  0.3503
 1837SOL     OW 5509   0.578   4.455   6.323  0.1540  0.3268  0.9522
 1837SOL    HW1 5510   0.603   4.453   6.416 -0.4408  0.4205  1.1153
 1837SOL    HW2 5511   0.529   4.374   6.310  0.0068  0.4421  0.7840
 1838SOL     OW 5512   0.473   2.585   8.073  0.9257 -0.2020  0.2783
 1838SOL    HW1 5513   0.401   2.529   8.103  1.3643 -0.1665  1.4436
 1838SOL    HW2 5514   0.430   2.661   8.035  0.3383 -0.3785  0.5793
 1839SOL     OW 5515   0.215   1.545   7.146 -0.2389  0.6765 -0.3910
 1839SOL    HW1 5516   0.211   1.529   7.241  2.1569 -0.4440 -0.4235
 1839SOL    HW2 5517   0.150   1.486   7.109 -0.4753  0.3784  0.4734
 1840SOL     OW 5518   2.100   4.254   7.312  0.0725  0.6428  0.0410
 1840SOL    HW1 5519   2.084   4.330   7.369 -1.9314  0.3666 -0.0837
 1840SOL    HW2 5520   2.134   4.292   7.231  1.6409  1.1496  0.8815
 1841SOL     OW 5521   1.327   1.215   7.597 -0.0181  0.1564  0.4192
 1841SOL    HW1 5522   1.262   1.145   7.587 -0.9365  0.8380  1.3987
 1841SOL    HW2 5523   1.411   1.169   7.601 -0.5155 -0.8156  0.1025
 1842SOL     OW 5524   4.309   0.676   8.665  0.1155  0.1319 -0.1837
 1842SOL    HW1 5525   4.336   0.625   8.589 -0.5109 -0.0410 -0.2916
 1842SOL    HW2 5526   4.222   0.644   8.687  0.3356  0.0851  0.6887
 1843SOL     OW 5527   1.843   1.776   5.819  0.0010  0.0178  0.2028
 1843SOL    HW1 5528   1.872   1.711   5.754 -0.2238 -1.4986  1.5457
 1843SOL    HW2 5529   1.878   1.859   5.787  0.7502 -0.8337 -1.3235
 1844SOL     OW 5530   1.696   0.317   8.869  0.3236 -0.2251  0.2396
 1844SOL    HW1 5531   1.676   0.257   8.940  0.8290 -1.2175 -0.4417
 1844SOL    HW2 5532   1.669   0.403   8.902  1.3025 -0.5376  1.9194
 1845SOL     OW 5533   3.882   2.134   8.587 -0.5233 -0.4477 -0.1635
 1845SOL    HW1 5534   3.837   2.142   8.671  1.0669  0.0534  0.6692
 1845SOL    HW2 5535   3.843   2.203   8.533  2.1476  3.0607  1.9492
 1846SOL     OW 5536   4.665   3.970   9.274 -0.0934  0.9747 -0.7281
 1846SOL    HW1 5537   4.678   3.945   9.366  0.0882  1.7656 -0.5305
 1846SOL    HW2 5538   4.570   3.975   9.264 -0.1440  0.0595 -0.8238
 1847SOL     OW 5539   2.702   1.344   7.131 -0.7721  0.0521 -0.3360
 1847SOL    HW1 5540   2.642   1.296   7.187 -1.2876  0.4126 -0.5678
 1847SOL    HW2 5541   2.676   1.436   7.141  0.5966  0.3816  0.5911
 1848SOL     OW 5542   2.039   0.775   6.649 -0.1912  0.4954 -0.5912
 1848SOL    HW1 5543   2.037   0.745   6.558 -0.6054  0.7366 -0.6616
 1848SOL    HW2 5544   1.950   0.802   6.668 -0.2205 -0.0069  0.0407
 1849SOL     OW 5545   1.128   4.610   9.613 -0.1369  0.1404  0.0509
 1849SOL    HW1 5546   1.208   4.578   9.573  0.7769  1.0706  1.0634
 1849SOL    HW2 5547   1.081   4.655   9.542 -1.6151 -3.4724 -1.5084
 1850SOL     OW 5548   1.090   1.701  10.002 -0.0103  0.1582  0.2059
 1850SOL    HW1 5549   1.175   1.735   9.977  0.6215  0.1817  2.1887
 1850SOL    HW2 5550   1.105   1.608  10.019 -0.8748 -0.3253 -1.4124
 1851SOL     OW 5551   2.922   3.933   7.408  0.1249 -0.0129  0.5437
 1851SOL    HW1 5552   2.957   4.007   7.459  1.1054 -0.4125  0.4764
 1851SOL    HW2 5553   2.879   3.974   7.333 -0.1468  0.5283  0.9933
 1852SOL     OW 5554   2.368   4.357   5.637  0.0417  0.4378 -0.3483
 1852SOL    HW1 5555   2.393   4.404   5.717  0.1477 -0.4897  0.1711
 1852SOL    HW2 5556   2.402   4.411   5.566  0.8231  0.7647  0.2620
 1853SOL     OW 5557   2.013   4.218   6.937 -0.2095  0.6902  0.0387
 1853SOL    HW1 5558   2.108   4.227   6.929 -0.3768  0.9039 -2.6133
 1853SOL    HW2 5559   1.984   4.303   6.971  0.5114  0.6841  0.7065
 1854SOL     OW 5560   2.938   1.046   9.417  0.2509  0.3310  0.0300
 1854SOL    HW1 5561   2.928   1.064   9.511  1.4702  0.3745  0.1688
 1854SOL    HW2 5562   2.903   1.123   9.374  3.1734  2.1194  0.5644
 1855SOL     OW 5563   4.025   3.609   5.970  0.4155  0.6380  0.0254
 1855SOL    HW1 5564   4.081   3.532   5.961 -0.6912 -0.1420 -0.3686
 1855SOL    HW2 5565   4.056   3.652   6.049  0.4718 -0.7019  0.7572
 1856SOL     OW 5566   2.836   3.824   7.673  0.1868 -0.2246  0.3067
 1856SOL    HW1 5567   2.876   3.865   7.750 -0.0011 -0.5636  0.5844
 1856SOL    HW2 5568   2.856   3.885   7.601  0.9081 -0.2231  0.5024
 1857SOL     OW 5569   1.333   2.590   8.106 -1.1067 -0.4824 -0.5248
 1857SOL    HW1 5570   1.268   2.553   8.166 -0.3967  1.6500  1.7381
 1857SOL    HW2 5571   1.322   2.684   8.114  1.2527 -0.0837 -1.2119
 1858SOL     OW 5572   4.717   1.281   7.673  0.3974 -0.2893 -0.4881
 1858SOL    HW1 5573   4.626   1.284   7.646 -0.2172  1.8393  1.4703
 1858SOL    HW2 5574   4.714   1.287   7.768  2.5794 -1.3324 -0.2842
 1859SOL     OW 5575   1.218   1.611   9.559 -0.3905 -0.6746 -0.1317
 1859SOL    HW1 5576   1.218   1.701   9.591 -0.1602 -0.2082 -1.3758
 1859SOL    HW2 5577   1.268   1.615   9.478 -0.2828 -1.9511 -0.1432
 1860SOL     OW 5578   0.136   2.759   7.525  0.3531 -0.2586  0.0050
 1860SOL    HW1 5579   0.163   2.670   7.547  0.7766 -0.3995 -1.0107
 1860SOL    HW2 5580   0.042   2.762   7.542  0.3779 -0.8388  0.2345
 1861SOL     OW 5581   2.186   0.332   7.159  0.4590  0.6058 -0.0336
 1861SOL    HW1 5582   2.197   0.353   7.251  0.9427 -3.4088  1.0350
 1861SOL    HW2 5583   2.109   0.275   7.156  0.8513  0.0854 -1.9886
 1862SOL     OW 5584   3.038   1.123   8.484  0.1120 -0.0271  0.2083
 1862SOL    HW1 5585   3.079   1.078   8.410  0.5829  0.5602  0.0927
 1862SOL    HW2 5586   2.996   1.054   8.535 -1.0982 -0.3303 -1.1440
 1863SOL     OW 5587   1.724   1.894   6.552  0.3381 -0.4712  0.3434
 1863SOL    HW1 5588   1.664   1.872   6.481  1.0193 -3.0929  0.4854
 1863SOL    HW2 5589   1.699   1.834   6.623  0.8907  0.8092  1.6768
 1864SOL     OW 5590   2.084   4.499   6.516  0.3512 -0.3692 -0.1504
 1864SOL    HW1 5591   2.126   4.461   6.439 -0.2584  0.0746 -0.7133
 1864SOL    HW2 5592   2.017   4.558   6.481  0.4859  0.3243  0.7081
 1865SOL     OW 5593   4.439   0.113   9.100  0.1137 -0.0580 -0.1281
 1865SOL    HW1 5594   4.352   0.074   9.093  0.8100 -1.7753  0.1504
 1865SOL    HW2 5595   4.425   0.207   9.093 -1.6980 -0.3385 -0.6014
 1866SOL     OW 5596   0.101   2.364   8.410 -0.0749 -0.0848 -0.4611
 1866SOL    HW1 5597   0.055   2.447   8.423  1.0913  0.5304 -0.1337
 1866SOL    HW2 5598   0.065   2.306   8.478 -1.5477 -0.1543 -1.2635
 1867SOL     OW 5599   1.266   2.927   5.421 -0.1541  0.2640  0.1955
 1867SOL    HW1 5600   1.296   2.852   5.369  2.5151  3.7919 -4.1363
 1867SOL    HW2 5601   1.300   2.910   5.509  0.8720 -3.2173 -0.6865
 1868SOL     OW 5602   4.109   2.614   6.315 -0.1564 -0.6165  0.3103
 1868SOL    HW1 5603   4.097   2.702   6.350 -1.9741 -1.1656  1.1835
 1868SOL    HW2 5604   4.157   2.567   6.382 -0.4704 -0.6752  0.4978
 1869SOL     OW 5605   0.145   0.577   8.454 -0.0550  0.0271  0.1602
 1869SOL    HW1 5606   0.187   0.603   8.372 -1.2099  0.5969 -0.2757
 1869SOL    HW2 5607   0.055   0.556   8.430 -0.0134 -1.2989  1.0462
 1870SOL     OW 5608   3.121   0.970   7.817 -0.6915  0.2613 -0.3810
 1870SOL    HW1 5609   3.047   0.955   7.759  0.2056  1.7538 -1.9874
 1870SOL    HW2 5610   3.189   0.911   7.783 -0.9302 -0.7154  0.7630
 1871SOL     OW 5611   2.431   4.082   8.731  0.3832  0.1646  0.1001
 1871SOL    HW1 5612   2.338   4.061   8.726  0.4824 -0.7153  1.5813
 1871SOL    HW2 5613   2.474   3.998   8.746  1.4411  0.5435 -0.6816
 1872SOL     OW 5614   1.419   3.056   7.430 -0.1235 -0.0443 -0.4258
 1872SOL    HW1 5615   1.468   2.974   7.442  0.9261  0.8537  2.1672
 1872SOL    HW2 5616   1.434   3.105   7.510 -1.2848  2.4466 -1.6087
 1873SOL     OW 5617   4.400   3.649   7.170  0.1797  0.3926 -0.1661
 1873SOL    HW1 5618   4.329   3.710   7.191 -1.3461 -1.3070 -0.1597
 1873SOL    HW2 5619   4.464   3.662   7.240 -3.0664 -2.4571  3.8692
 1874SOL     OW 5620   3.114   0.110   6.472  0.3202 -0.0331 -0.2153
 1874SOL    HW1 5621   3.199   0.070   6.454  1.2773  1.4253  0.8988
 1874SOL    HW2 5622   3.105   0.105   6.567 -0.4323  0.6636 -0.2382
 1875SOL     OW 5623   2.757   0.305   6.453 -0.1072 -0.1385 -0.2041
 1875SOL    HW1 5624   2.755   0.226   6.507  1.6148 -0.8227 -1.0579
 1875SOL    HW2 5625   2.689   0.290   6.386 -0.6080 -0.3449  0.3408
 1876SOL     OW 5626   3.162   4.206   6.830  0.2419  0.6494 -0.4971
 1876SOL    HW1 5627   3.115   4.272   6.779  0.3131  0.6312 -0.5861
 1876SOL    HW2 5628   3.157   4.127   6.777 -2.0859 -0.1448  0.7520
 1877SOL     OW 5629   0.288   1.265   7.517  0.0170  0.3653 -0.1951
 1877SOL    HW1 5630   0.283   1.341   7.460  1.7675  1.0523  0.4903
 1877SOL    HW2 5631   0.271   1.299   7.605  0.3062 -0.1296  0.0618
 1878SOL     OW 5632   0.031   1.847   9.856 -0.2772  0.1048  0.7431
 1878SOL    HW1 5633   0.047   1.759   9.891  0.0969 -0.7630 -1.4474
 1878SOL    HW2 5634  -0.061   1.846   9.831 -0.1794  0.2090  0.3832
 1879SOL     OW 5635   0.789   0.766   8.688  0.6750  0.2281 -0.5791
 1879SOL    HW1 5636   0.838   0.717   8.755  0.5655  1.9327  0.8344
 1879SOL    HW2 5637   0.802   0.858   8.712 -3.0629  0.8145 -0.1567
 1880SOL     OW 5638   2.532   1.709   8.399  0.0210  0.0080 -0.1359
 1880SOL    HW1 5639   2.609   1.722   8.454 -1.6761 -0.6059  2.6011
 1880SOL    HW2 5640   2.513   1.615   8.406  1.4602 -0.8487 -4.4422
 1881SOL     OW 5641   4.291   4.285   7.201  0.4151  0.7142 -0.4712
 1881SOL    HW1 5642   4.250   4.308   7.118 -0.2439 -2.2298 -1.0446
 1881SOL    HW2 5643   4.335   4.202   7.185 -0.2509 -0.2783  2.2790
 1882SOL     OW 5644   4.742   1.474   6.179  0.9111  0.2214 -0.3486
 1882SOL    HW1 5645   4.740   1.543   6.112 -1.2166 -0.8276 -1.4729
 1882SOL    HW2 5646   4.689   1.509   6.251 -2.2552 -1.0311 -1.8986
 1883SOL     OW 5647   2.442   1.802   9.706 -0.6847  0.0792 -0.6107
 1883SOL    HW1 5648   2.526   1.778   9.667 -0.0669  0.0330  0.6703
 1883SOL    HW2 5649   2.457   1.889   9.744 -1.5003  0.4719 -1.1728
 1884SOL     OW 5650   3.001   3.521   8.604  0.2967  0.0887  0.0584
 1884SOL    HW1 5651   2.968   3.609   8.586  0.3117 -0.0489 -0.6960
 1884SOL    HW2 5652   3.046   3.496   8.523  2.7316  0.4762  1.1907
 1885SOL     OW 5653   1.182   4.082   5.813  0.1626 -0.0948 -0.5390
 1885SOL    HW1 5654   1.087   4.076   5.805  0.3054 -1.6824 -1.3025
 1885SOL    HW2 5655   1.202   4.173   5.790 -0.9064 -0.4708 -3.2325
 1886SOL     OW 5656   1.283   0.164   7.143  0.4433 -0.7152 -0.3036
 1886SOL    HW1 5657   1.357   0.105   7.157 -0.7976 -2.3013 -0.0993
 1886SOL    HW2 5658   1.284   0.183   7.049  3.0643  2.0888  0.1306
 1887SOL     OW 5659   0.010   1.428   8.542 -0.0095  0.1291 -0.1457
 1887SOL    HW1 5660   0.043   1.455   8.456 -0.0676  0.2009 -0.1464
 1887SOL    HW2 5661   0.070   1.469   8.605  2.1568 -2.7395 -0.1816
 1888SOL     OW 5662   0.524   4.925   8.146 -1.1907  0.6988 -0.6398
 1888SOL    HW1 5663   0.523   4.928   8.050  1.1568  0.9994 -0.7200
 1888SOL    HW2 5664   0.579   4.999   8.172 -0.8902 -0.0082  0.8760
 1889SOL     OW 5665   0.336   4.610   7.820 -0.2386 -0.2428  0.1566
 1889SOL    HW1 5666   0.323   4.687   7.764  1.2169  0.4359  0.6899
 1889SOL    HW2 5667   0.326   4.536   7.761  1.0688  0.4415 -1.0162
 1890SOL     OW 5668   2.993   1.062   7.219  0.2570 -0.4291 -0.6039
 1890SOL    HW1 5669   3.052   1.022   7.282  0.5188 -0.5004 -0.8949
 1890SOL    HW2 5670   2.954   0.989   7.171 -0.2603 -0.3961 -0.2447
 1891SOL     OW 5671   3.863   4.296   9.442 -0.1500 -0.9333  0.1179
 1891SOL    HW1 5672   3.954   4.319   9.424 -0.7885  0.8841 -1.1744
 1891SOL    HW2 5673   3.866   4.208   9.480  2.2445 -0.2942  1.6026
 1892SOL     OW 5674   2.359   1.505   7.922  0.2292  0.2646  0.0440
 1892SOL    HW1 5675   2.367   1.535   8.012  1.9616  4.2911 -1.2194
 1892SOL    HW2 5676   2.446   1.475   7.898  0.2018  0.7565 -0.7163
 1893SOL     OW 5677   4.693  -0.017   5.584 -0.0603  0.6555 -0.7244
 1893SOL    HW1 5678   4.692   0.019   5.673  0.8784  0.9435 -0.8232
 1893SOL    HW2 5679   4.738   0.049   5.532 -3.6438  2.2237 -2.1960
 1894SOL     OW 5680   3.504   2.129   6.765 -0.4853 -0.0585  0.8876
 1894SOL    HW1 5681   3.411   2.150   6.762 -0.7435 -1.2187  0.3517
 1894SOL    HW2 5682   3.547   2.204   6.724 -1.2908 -0.1510 -0.1500
 1895SOL     OW 5683   2.379   3.498   8.066 -0.5031 -0.3114 -0.0417
 1895SOL    HW1 5684   2.292   3.468   8.039 -0.5344  0.6328 -1.0416
 1895SOL    HW2 5685   2.397   3.573   8.010  1.5276 -1.2902 -0.7915
 1896SOL     OW 5686   1.991   1.544   8.737 -0.5161 -0.3886  0.0077
 1896SOL    HW1 5687   2.019   1.458   8.708 -2.5197 -0.8250 -0.7390
 1896SOL    HW2 5688   1.959   1.530   8.826 -0.9618 -0.4395 -0.1610
 1897SOL     OW 5689   0.024   0.549   5.982 -0.7064  0.0296  0.0950
 1897SOL    HW1 5690  -0.029   0.614   6.028  1.9845  2.2909  0.3016
 1897SOL    HW2 5691   0.092   0.524   6.045 -0.5352 -1.5348 -0.6628
 1898SOL     OW 5692   2.233   0.327   6.893  0.5218 -0.1502 -0.1752
 1898SOL    HW1 5693   2.224   0.235   6.868 -0.1157 -0.0629 -0.2691
 1898SOL    HW2 5694   2.214   0.328   6.987 -2.4363  0.2991 -0.6988
 1899SOL     OW 5695   0.571   1.292   9.101  0.6939 -0.1110 -0.5585
 1899SOL    HW1 5696   0.497   1.292   9.162 -0.7428  0.5544 -2.2303
 1899SOL    HW2 5697   0.606   1.203   9.106 -0.5473 -0.5963 -0.1242
 1900SOL     OW 5698   4.760   1.142   7.033  0.3292  0.6437 -0.7350
 1900SOL    HW1 5699   4.838   1.195   7.049  0.0596  0.8248  0.0497
 1900SOL    HW2 5700   4.725   1.124   7.121 -0.6062  0.7137 -1.0781
 1901SOL     OW 5701   3.055   1.887   6.712  0.5322  0.0704 -0.2890
 1901SOL    HW1 5702   3.088   1.829   6.781 -3.2548 -1.3209  0.6184
 1901SOL    HW2 5703   3.051   1.973   6.753  0.9225 -0.1859  0.2952
 1902SOL     OW 5704   4.925   2.401   6.938 -0.1860  0.2635  0.6721
 1902SOL    HW1 5705   4.968   2.378   6.856  1.0618 -1.6544  1.7779
 1902SOL    HW2 5706   4.967   2.482   6.966 -0.9777  1.2182 -0.7774
 1903SOL     OW 5707   3.086   0.275   7.004  0.4368 -0.2085  0.3741
 1903SOL    HW1 5708   3.055   0.194   6.963 -0.4176  0.3483 -0.0990
 1903SOL    HW2 5709   3.147   0.312   6.940  0.4114 -0.2023  0.3534
 1904SOL     OW 5710   1.658   3.525   9.197  0.5260 -0.9244 -0.4912
 1904SOL    HW1 5711   1.743   3.503   9.236  1.3602  0.0648 -1.6788
 1904SOL    HW2 5712   1.603   3.448   9.215  1.3153 -1.1346  1.2547
 1905SOL     OW 5713   3.745   2.990   6.036  0.0479  0.3774 -0.0257
 1905SOL    HW1 5714   3.769   2.909   6.080  0.0547 -0.6506 -1.8475
 1905SOL    HW2 5715   3.746   3.056   6.106  2.1414 -0.7452  1.1148
 1906SOL     OW 5716   0.859   2.550   9.689  0.1060 -0.1360 -0.1367
 1906SOL    HW1 5717   0.936   2.543   9.632  0.5955 -3.0228  0.7252
 1906SOL    HW2 5718   0.785   2.559   9.629  0.9338  0.9453 -1.0393
 1907SOL     OW 5719   3.766   3.761   8.159  0.2578 -0.3386 -0.5378
 1907SOL    HW1 5720   3.730   3.676   8.132 -0.2434 -0.1014 -0.6181
 1907SOL    HW2 5721   3.759   3.816   8.081 -0.3655  0.0808 -0.1900
 1908SOL     OW 5722   2.645   0.990   6.149 -0.2774 -0.1703 -0.0786
 1908SOL    HW1 5723   2.579   0.944   6.201 -0.2749 -0.3140 -0.2010
 1908SOL    HW2 5724   2.673   1.063   6.204  1.3138 -1.5506  1.0549
 1909SOL     OW 5725   3.320   2.339   8.448  0.0237  0.3046 -0.6809
 1909SOL    HW1 5726   3.243   2.312   8.497  1.7516 -2.1783  0.9416
 1909SOL    HW2 5727   3.342   2.264   8.394  2.3787  0.0876  0.4214
 1910SOL     OW 5728   4.213   1.743   9.674 -0.0333  0.4920 -0.1190
 1910SOL    HW1 5729   4.209   1.661   9.724 -2.6276 -0.5267 -1.8014
 1910SOL    HW2 5730   4.279   1.795   9.720  1.5154 -2.3794  1.2111
 1911SOL     OW 5731   2.959   3.909   9.892 -0.3051  0.6594 -0.7881
 1911SOL    HW1 5732   2.960   3.863   9.808 -1.3111  0.3466 -0.6367
 1911SOL    HW2 5733   2.868   3.936   9.905 -0.0208  1.3871 -0.1582
 1912SOL     OW 5734   1.631   0.706   7.261  0.0857  0.1804  0.2162
 1912SOL    HW1 5735   1.587   0.653   7.328 -0.1307 -1.4800 -1.1537
 1912SOL    HW2 5736   1.719   0.670   7.256 -0.0517 -0.0695 -0.7047
 1913SOL     OW 5737   4.774   1.939   9.742 -0.3427  0.1731 -0.2508
 1913SOL    HW1 5738   4.721   1.948   9.663 -0.5126 -2.0259 -0.4474
 1913SOL    HW2 5739   4.724   1.882   9.800  0.9028 -0.3480  0.3728
 1914SOL     OW 5740   3.632   2.250   9.681  0.0795 -0.1815  0.4103
 1914SOL    HW1 5741   3.631   2.331   9.630  2.4450  0.3039  1.0000
 1914SOL    HW2 5742   3.582   2.271   9.760  0.4549  0.6486  0.4415
 1915SOL     OW 5743   2.764   0.436   9.348 -0.5191 -0.1624 -0.0173
 1915SOL    HW1 5744   2.815   0.483   9.415 -0.0155 -0.4235 -0.2074
 1915SOL    HW2 5745   2.778   0.343   9.368 -1.2317 -0.2384  0.1517
 1916SOL     OW 5746   3.772   4.512   9.179  0.5383  0.5104  0.1070
 1916SOL    HW1 5747   3.859   4.540   9.149  1.6500 -0.8281  1.8944
 1916SOL    HW2 5748   3.786   4.483   9.269 -1.3220 -1.7623 -0.2553
 1917SOL     OW 5749   3.858   2.455   6.305 -0.6524 -0.5249 -0.2190
 1917SOL    HW1 5750   3.811   2.536   6.285  0.3860 -0.0969 -0.9902
 1917SOL    HW2 5751   3.949   2.482   6.317 -0.1093 -1.6912 -1.4698
 1918SOL     OW 5752   4.607   3.088   6.077  0.1334 -0.4394  0.1111
 1918SOL    HW1 5753   4.565   3.059   6.158 -1.4851  1.1811 -0.0778
 1918SOL    HW2 5754   4.624   3.007   6.028  1.1119 -1.4453  2.0106
 1919SOL     OW 5755   0.997   4.516   8.520 -0.4156 -0.4206 -0.5299
 1919SOL    HW1 5756   1.068   4.460   8.488 -1.2465 -1.5007 -0.5341
 1919SOL    HW2 5757   0.926   4.456   8.540 -0.2761  0.2705  2.5807
 1920SOL     OW 5758   1.144   2.380   6.474 -0.3966 -0.9716 -0.0916
 1920SOL    HW1 5759   1.225   2.363   6.522 -0.4229 -0.1036  0.2863
 1920SOL    HW2 5760   1.101   2.450   6.524  0.0561  0.6775 -1.8843
 1921SOL     OW 5761   2.899   1.000   7.664 -0.1726  0.1751 -0.4265
 1921SOL    HW1 5762   2.806   0.975   7.657  0.3946 -1.8827 -1.2862
 1921SOL    HW2 5763   2.917   1.047   7.582 -0.9367  2.5170  0.6665
 1922SOL     OW 5764   2.889   0.978   8.935 -0.2476 -0.1550 -0.1794
 1922SOL    HW1 5765   2.882   1.073   8.942 -1.5631 -0.1651 -1.0141
 1922SOL    HW2 5766   2.826   0.944   8.999  2.3891 -0.5886  2.4264
 1923SOL     OW 5767   2.901   3.791   9.198  0.3125  0.3330 -0.0777
 1923SOL    HW1 5768   2.944   3.851   9.137 -1.0546  0.3403 -1.0929
 1923SOL    HW2 5769   2.872   3.846   9.270  0.2558  0.6777 -0.3577
 1924SOL     OW 5770   3.713   0.222   8.371 -0.3687 -0.2191 -0.2918
 1924SOL    HW1 5771   3.792   0.192   8.416  1.2479  1.8018 -1.6486
 1924SOL    HW2 5772   3.643   0.209   8.435  1.0799 -1.7626  1.0693
 1925SOL     OW 5773   4.652   4.563   5.771  0.3755 -0.5951 -0.4561
 1925SOL    HW1 5774   4.701   4.602   5.699 -0.0395 -2.6506 -1.9537
 1925SOL    HW2 5775   4.691   4.476   5.783 -2.0277 -1.8208 -0.8853
 1926SOL     OW 5776   2.159   0.755   5.128 -0.2473  0.3929 -0.5232
 1926SOL    HW1 5777   2.086   0.718   5.178 -1.2017  2.6243 -0.1448
 1926SOL    HW2 5778   2.137   0.737   5.036 -1.3723  1.1598 -0.4214
 1927SOL     OW 5779   2.653   0.182   8.267 -0.3876 -0.1236 -0.3148
 1927SOL    HW1 5780   2.578   0.211   8.215 -0.1415  1.2255  0.0365
 1927SOL    HW2 5781   2.729   0.220   8.222  0.1298 -1.6382 -0.7791
 1928SOL     OW 5782   4.412   0.545   8.252 -1.0840  0.8095  0.2041
 1928SOL    HW1 5783   4.487   0.528   8.310 -0.2769  0.5154 -0.8959
 1928SOL    HW2 5784   4.377   0.629   8.283 -0.5205  0.7752  0.9633
 1929SOL     OW 5785   1.700   3.777   6.159 -0.8863 -0.2576 -0.5102
 1929SOL    HW1 5786   1.700   3.851   6.221  0.3149 -1.0273  0.4481
 1929SOL    HW2 5787   1.696   3.819   6.073  2.0750  1.1196 -0.1154
 1930SOL     OW 5788   2.999   1.992   7.761 -0.4706 -0.0271 -0.5896
 1930SOL    HW1 5789   2.945   1.934   7.707 -2.2948  0.8040  0.2878
 1930SOL    HW2 5790   3.081   1.999   7.712 -1.0730 -1.4237 -1.9043
 1931SOL     OW 5791   4.687   1.742   6.921 -0.6361 -0.0394  0.2329
 1931SOL    HW1 5792   4.615   1.679   6.918 -0.7112  0.0485  0.2020
 1931SOL    HW2 5793   4.727   1.736   6.834 -0.0210 -0.7741  0.5491
 1932SOL     OW 5794   0.289   0.137   5.279 -0.4426  0.0345 -0.2338
 1932SOL    HW1 5795   0.335   0.221   5.287  1.3917 -0.9948  0.7373
 1932SOL    HW2 5796   0.327   0.096   5.201 -0.0265 -0.6322  0.3111
 1933SOL     OW 5797   2.410   2.463   9.445 -0.0190 -0.3532 -0.2471
 1933SOL    HW1 5798   2.422   2.373   9.474  0.5961 -0.0076  0.6111
 1933SOL    HW2 5799   2.491   2.508   9.472 -1.3353  1.0280  1.6276
 1934SOL     OW 5800   0.799   1.444   7.689 -0.7125  0.5371 -0.9043
 1934SOL    HW1 5801   0.769   1.531   7.663 -2.4828  0.5957  1.0815
 1934SOL    HW2 5802   0.726   1.406   7.738 -0.2709 -2.3942 -2.2921
 1935SOL     OW 5803   2.330   1.333   6.207 -0.7152 -0.0329 -0.2237
 1935SOL    HW1 5804   2.389   1.407   6.191 -1.8429  0.9180 -0.1414
 1935SOL    HW2 5805   2.363   1.293   6.288  0.4693 -0.2282 -0.7680
 1936SOL     OW 5806   0.176   0.696   7.462  0.1792  0.8894 -0.0906
 1936SOL    HW1 5807   0.248   0.659   7.411  0.8301  2.9124 -0.7335
 1936SOL    HW2 5808   0.135   0.759   7.403 -2.0248 -0.0274  0.3413
 1937SOL     OW 5809   2.604   1.454  10.033 -0.6450 -0.7172  0.0012
 1937SOL    HW1 5810   2.657   1.383  10.069  1.3714  1.2610  1.2189
 1937SOL    HW2 5811   2.590   1.513  10.107 -1.7127  0.4710 -1.1090
 1938SOL     OW 5812   0.023   3.722   7.378  0.3881  0.4833 -0.0562
 1938SOL    HW1 5813   0.074   3.714   7.459 -0.8601  4.9813  1.4634
 1938SOL    HW2 5814   0.089   3.725   7.308  1.6419 -0.9353  1.0082
 1939SOL     OW 5815   1.850   1.818   8.595  0.0006  0.0312 -0.5796
 1939SOL    HW1 5816   1.807   1.745   8.551 -3.5832  2.4728 -1.5678
 1939SOL    HW2 5817   1.855   1.887   8.529 -0.0646  1.8698  1.2249
 1940SOL     OW 5818   2.107   1.635   7.540 -0.1765  0.7106 -0.1333
 1940SOL    HW1 5819   2.131   1.564   7.481  2.6095  1.4912 -0.0734
 1940SOL    HW2 5820   2.041   1.597   7.598  1.9802 -2.2698  0.6244
 1941SOL     OW 5821   3.832   0.432   8.255 -0.2764  0.3031  0.3045
 1941SOL    HW1 5822   3.769   0.364   8.279 -0.1740 -0.2923 -1.0563
 1941SOL    HW2 5823   3.907   0.385   8.219 -0.2267  1.1175 -0.7198
 1942SOL     OW 5824   4.717   1.064   9.915 -0.2156 -0.4065 -0.3294
 1942SOL    HW1 5825   4.688   0.973   9.909  0.5561 -0.6233 -0.9144
 1942SOL    HW2 5826   4.661   1.111   9.852  0.1163 -0.6713 -0.8284
 1943SOL     OW 5827   1.215   3.167   7.276 -0.3363 -0.3739  0.2329
 1943SOL    HW1 5828   1.266   3.244   7.299  0.8340 -0.2633 -2.3564
 1943SOL    HW2 5829   1.259   3.095   7.321  2.6171 -0.3530 -2.2656
 1944SOL     OW 5830   3.397   4.752   5.760 -0.5069  0.0850  0.0626
 1944SOL    HW1 5831   3.491   4.744   5.774 -0.3783 -0.8534 -1.2072
 1944SOL    HW2 5832   3.370   4.821   5.821  1.0204  0.5073  0.3115
 1945SOL     OW 5833   1.141   3.709   6.653 -0.0292  0.0162  0.1607
 1945SOL    HW1 5834   1.132   3.655   6.575  0.3214  1.5149 -0.9582
 1945SOL    HW2 5835   1.054   3.708   6.694 -0.1534 -0.9544 -0.1193
 1946SOL     OW 5836   3.676   1.048   6.213  0.3298  0.7345 -0.5902
 1946SOL    HW1 5837   3.709   0.974   6.264 -3.0422 -1.2914 -1.0350
 1946SOL    HW2 5838   3.655   1.011   6.127 -1.6203  2.1233 -0.7834
 1947SOL     OW 5839   4.743   0.804   5.458  0.2151  0.3679 -0.4388
 1947SOL    HW1 5840   4.670   0.802   5.519  0.3853  1.1652 -0.1865
 1947SOL    HW2 5841   4.801   0.734   5.487 -0.5988 -0.5073 -0.8585
 1948SOL     OW 5842   3.853   3.599   5.417  0.4530 -0.0690  0.2660
 1948SOL    HW1 5843   3.829   3.536   5.349 -1.6644  0.5784  0.3421
 1948SOL    HW2 5844   3.833   3.684   5.378  1.2653  0.4380  0.9344
 1949SOL     OW 5845   1.641   4.430   6.291  0.4133  0.0948 -0.1045
 1949SOL    HW1 5846   1.685   4.448   6.374  0.1638  0.8563 -0.1305
 1949SOL    HW2 5847   1.567   4.491   6.290 -0.3689 -0.8323 -0.2754
 1950SOL     OW 5848   0.820   1.111   8.490 -0.2858 -0.1202 -0.3713
 1950SOL    HW1 5849   0.850   1.187   8.441 -1.0674  0.9331  0.7129
 1950SOL    HW2 5850   0.725   1.110   8.477 -0.2904 -0.8775 -0.3278
 1951SOL     OW 5851   0.259   4.145   8.623 -1.2144  0.2606 -0.2054
 1951SOL    HW1 5852   0.218   4.169   8.539  0.8306 -0.2097 -1.4143
 1951SOL    HW2 5853   0.295   4.228   8.656 -1.4031  0.3224 -0.1547
 1952SOL     OW 5854   0.890   3.894   9.447 -1.3255 -0.9729  0.1694
 1952SOL    HW1 5855   0.972   3.905   9.495 -2.4505 -0.1757  2.0142
 1952SOL    HW2 5856   0.843   3.826   9.494 -1.8660 -1.1839 -0.6634
 1953SOL     OW 5857   0.669   3.421  10.036  0.2480 -0.0630  0.5949
 1953SOL    HW1 5858   0.581   3.383  10.030  1.6368 -3.8350  1.5222
 1953SOL    HW2 5859   0.728   3.350  10.011  3.1062  2.6127 -1.0170
 1954SOL     OW 5860   2.891   4.832   8.743  0.4513 -0.6470 -0.2956
 1954SOL    HW1 5861   2.920   4.742   8.761 -0.2798 -1.2598 -2.0310
 1954SOL    HW2 5862   2.944   4.886   8.803  2.4240 -2.0350 -0.6791
 1955SOL     OW 5863   2.882   1.050  10.094  0.1650  0.2657  0.2342
 1955SOL    HW1 5864   2.945   1.114  10.062 -0.4398  1.1468  0.7689
 1955SOL    HW2 5865   2.898   0.972  10.041  1.9399  0.3412  0.6093
 1956SOL     OW 5866   4.886   3.386   8.477  0.1033  0.1001 -0.1673
 1956SOL    HW1 5867   4.973   3.372   8.513  1.1682  3.5257 -1.0213
 1956SOL    HW2 5868   4.835   3.421   8.550  0.5502  1.5034 -0.5009
 1957SOL     OW 5869   3.725   2.634   9.292  0.3867 -0.3848 -0.2084
 1957SOL    HW1 5870   3.708   2.700   9.225  0.2260 -0.9787 -0.7551
 1957SOL    HW2 5871   3.782   2.570   9.250  0.5390 -0.6054  0.3191
 1958SOL     OW 5872   3.915   1.659   8.073 -0.1754 -0.2145 -0.4252
 1958SOL    HW1 5873   3.899   1.641   8.165 -1.4797 -0.3827 -0.6631
 1958SOL    HW2 5874   4.007   1.685   8.069  0.2864 -1.5592  0.7121
 1959SOL     OW 5875   0.166   3.232   8.474 -0.6723  0.3269  0.0061
 1959SOL    HW1 5876   0.188   3.192   8.390 -1.3309  0.7504 -0.3775
 1959SOL    HW2 5877   0.249   3.264   8.508  0.0198 -2.0214  0.6886
 1960SOL     OW 5878   0.696   2.754   6.775  0.4598 -0.2557 -0.4563
 1960SOL    HW1 5879   0.774   2.748   6.830  0.6238 -2.6335 -0.8391
 1960SOL    HW2 5880   0.727   2.731   6.687 -0.8044 -2.4652 -0.3960
 1961SOL     OW 5881   2.561   1.333   9.112  0.4275  0.6796 -0.4976
 1961SOL    HW1 5882   2.549   1.420   9.151 -1.0082  0.3500 -0.1712
 1961SOL    HW2 5883   2.524   1.273   9.176  2.1249 -0.2737 -0.3461
 1962SOL     OW 5884   3.039   0.919   8.680  0.0994 -0.4337  0.4648
 1962SOL    HW1 5885   2.989   0.940   8.759 -2.3465  1.7824 -1.4897
 1962SOL    HW2 5886   3.129   0.909   8.711 -0.6224  1.0503  3.4250
 1963SOL     OW 5887   0.978   4.157   5.504  0.0060  0.4475 -0.3753
 1963SOL    HW1 5888   1.069   4.133   5.488  0.3275  1.9812 -1.0158
 1963SOL    HW2 5889   0.934   4.142   5.421 -0.0819  0.7431 -0.3839
 1964SOL     OW 5890   1.621   2.828   9.405  0.3342  0.2762 -0.2050
 1964SOL    HW1 5891   1.529   2.804   9.397 -0.0915  2.0325 -1.2762
 1964SOL    HW2 5892   1.649   2.846   9.315  0.8378  2.6691  0.3565
 1965SOL     OW 5893   4.961   3.838   8.565  0.5244 -0.5286 -0.2006
 1965SOL    HW1 5894   4.901   3.776   8.606  1.1034 -1.0084 -0.0542
 1965SOL    HW2 5895   5.034   3.783   8.534  1.5187  0.1642  0.8013
 1966SOL     OW 5896   1.700   4.570   7.949 -0.7870  0.0380 -0.5682
 1966SOL    HW1 5897   1.785   4.602   7.921 -1.2377 -0.2629 -2.3888
 1966SOL    HW2 5898   1.720   4.498   8.009  0.2132  1.8581  1.4226
 1967SOL     OW 5899   1.687   1.525   9.223 -0.2354  0.8769 -0.5172
 1967SOL    HW1 5900   1.655   1.566   9.143  0.2902  0.3944 -0.9854
 1967SOL    HW2 5901   1.780   1.546   9.226  0.0699 -0.3043 -0.8178
 1968SOL     OW 5902   1.643   4.219   8.265 -0.0510  0.5936 -0.2860
 1968SOL    HW1 5903   1.586   4.293   8.245 -0.0959  0.4952 -0.5331
 1968SOL    HW2 5904   1.606   4.146   8.213  1.0770  0.8491 -1.4962
 1969SOL     OW 5905   2.362   0.335   8.617  0.4717 -0.3885 -0.0272
 1969SOL    HW1 5906   2.412   0.253   8.613  1.4085  0.1841 -0.0514
 1969SOL    HW2 5907   2.369   0.372   8.529 -0.9993 -0.8674 -0.3911
 1970SOL     OW 5908   1.892   0.821  10.025  0.2614  0.1295 -0.4857
 1970SOL    HW1 5909   1.878   0.754  10.092  1.4030  1.2784  0.9438
 1970SOL    HW2 5910   1.863   0.779   9.944 -1.4857 -1.1811  0.7392
 1971SOL     OW 5911   0.098   1.752   9.336 -0.2887  0.1090 -0.2735
 1971SOL    HW1 5912   0.018   1.792   9.370 -0.9587  0.3251 -2.0017
 1971SOL    HW2 5913   0.079   1.735   9.244  2.0991  1.3274 -1.0753
 1972SOL     OW 5914   3.751   1.750   9.248  0.2588  0.0811  0.0548
 1972SOL    HW1 5915   3.786   1.838   9.236  0.2670  0.0497 -0.1641
 1972SOL    HW2 5916   3.656   1.763   9.256  0.0148 -0.0546 -2.0650
 1973SOL     OW 5917   4.491   0.777  10.147  0.3397  0.5658 -0.4913
 1973SOL    HW1 5918   4.578   0.796  10.111  1.5576  1.0592  2.4738
 1973SOL    HW2 5919   4.436   0.769  10.070  3.1346 -0.5903 -2.5678
 1974SOL     OW 5920   3.137   1.047   6.855  0.2111 -0.5157  0.2885
 1974SOL    HW1 5921   3.079   0.998   6.797  0.3788 -2.3979  1.6428
 1974SOL    HW2 5922   3.090   1.052   6.938  2.5179 -3.6280  1.9949
 1975SOL     OW 5923   0.372   1.244   9.966  0.2045  0.3982 -0.7156
 1975SOL    HW1 5924   0.327   1.162   9.984 -0.4535  0.6358 -1.2361
 1975SOL    HW2 5925   0.464   1.220   9.956  0.0507 -0.2363 -0.6240
 1976SOL     OW 5926   4.542   0.262   8.124 -0.7340 -0.2120 -0.0109
 1976SOL    HW1 5927   4.550   0.283   8.031 -1.8300 -2.4009 -0.6660
 1976SOL    HW2 5928   4.496   0.337   8.162 -0.7248  0.4753 -1.3196
 1977SOL     OW 5929   4.564   2.427   9.984 -0.3503 -1.0353 -0.3605
 1977SOL    HW1 5930   4.610   2.491   9.929 -1.0989 -0.5340 -0.4174
 1977SOL    HW2 5931   4.632   2.391  10.041  0.2249 -0.7575 -0.8620
 1978SOL     OW 5932   1.724   0.130   8.055  0.4536  0.9440 -0.6856
 1978SOL    HW1 5933   1.817   0.114   8.066  0.2594 -0.3210 -0.7646
 1978SOL    HW2 5934   1.698   0.073   7.982 -0.6575  0.1598  0.2715
 1979SOL     OW 5935   3.048   0.080   5.735  0.8064  0.4303  0.1904
 1979SOL    HW1 5936   3.027   0.173   5.736 -0.3667  0.2185 -1.0474
 1979SOL    HW2 5937   3.104   0.067   5.811  1.7767  2.3139 -0.1324
 1980SOL     OW 5938   2.717   1.666   8.779  0.6839 -0.6763  0.1955
 1980SOL    HW1 5939   2.657   1.700   8.845  0.5368 -0.6645  0.0551
 1980SOL    HW2 5940   2.732   1.575   8.803 -2.9234 -2.1512 -2.2459
 1981SOL     OW 5941   0.119   3.331  10.102 -0.0050  0.2152  0.4550
 1981SOL    HW1 5942   0.208   3.313  10.073 -0.1403  0.7975 -0.3384
 1981SOL    HW2 5943   0.126   3.342  10.197  1.1932  2.7062  0.1446
 1982SOL     OW 5944   2.438   3.931   9.154  0.5710 -0.4329  0.0074
 1982SOL    HW1 5945   2.393   3.981   9.086  0.6203  0.0781  0.3444
 1982SOL    HW2 5946   2.401   3.843   9.149 -0.5965  0.0268  0.4106
 1983SOL     OW 5947   3.779   3.475   9.955 -0.3462  0.0521  0.0694
 1983SOL    HW1 5948   3.826   3.392   9.945 -0.3468  0.1796 -1.1774
 1983SOL    HW2 5949   3.774   3.510   9.866 -0.9517  1.0604  0.4878
 1984SOL     OW 5950   4.220   1.146   9.040 -0.4550  0.3363  0.1172
 1984SOL    HW1 5951   4.215   1.050   9.042 -0.7996  0.3321  2.3544
 1984SOL    HW2 5952   4.212   1.169   8.948  3.0023 -1.9113 -0.9382
 1985SOL     OW 5953   1.733   0.688   7.721  0.2463  0.5218  0.0641
 1985SOL    HW1 5954   1.647   0.715   7.688 -0.2542  0.8841  1.5796
 1985SOL    HW2 5955   1.772   0.768   7.755  1.5764  0.5241 -1.3614
 1986SOL     OW 5956   1.630   2.061   8.969  0.0573  0.2082  0.6429
 1986SOL    HW1 5957   1.704   2.058   8.909  0.9221 -0.0752  1.6844
 1986SOL    HW2 5958   1.568   1.997   8.934  0.4406  0.2120 -0.0623
 1987SOL     OW 5959   4.106   1.117   9.717  0.5015 -0.2118 -0.4257
 1987SOL    HW1 5960   4.077   1.161   9.797 -0.2877  1.6981 -1.6819
 1987SOL    HW2 5961   4.028   1.072   9.685  0.3280  0.4692 -0.9940
 1988SOL     OW 5962   1.495   4.185   9.922  0.4001 -0.0444  0.9793
 1988SOL    HW1 5963   1.531   4.117   9.980  0.1085  0.7065  2.0658
 1988SOL    HW2 5964   1.500   4.265   9.974  1.1194  0.8545 -0.4398
 1989SOL     OW 5965   1.219   3.610   8.496  0.3170  0.1370  0.0504
 1989SOL    HW1 5966   1.212   3.515   8.486  0.5685  0.1094  0.1157
 1989SOL    HW2 5967   1.148   3.645   8.443  0.5355 -0.0705 -0.3858
 1990SOL     OW 5968   0.277   2.045   8.652  0.1823  0.0648  0.2582
 1990SOL    HW1 5969   0.333   2.087   8.587 -0.2793 -1.2531 -1.0827
 1990SOL    HW2 5970   0.334   1.983   8.697  0.3353  0.4342  0.5707
 1991SOL     OW 5971   3.489   1.676  10.149  0.7180  0.6813  0.3118
 1991SOL    HW1 5972   3.541   1.598  10.169  0.0805  0.0747 -0.3661
 1991SOL    HW2 5973   3.543   1.727  10.090  0.8148  0.3772  0.1397
 1992SOL     OW 5974   1.072   4.939   6.414 -0.0159  0.0840 -0.0908
 1992SOL    HW1 5975   1.033   4.992   6.483 -1.2569  1.3850 -1.6980
 1992SOL    HW2 5976   1.078   4.998   6.339  0.0579 -1.6271 -1.4924
 1993SOL     OW 5977   2.065   3.392   5.800 -0.2851 -1.0984 -0.4068
 1993SOL    HW1 5978   2.159   3.382   5.814  0.2319 -0.9707 -3.2404
 1993SOL    HW2 5979   2.032   3.302   5.795 -0.2651 -1.1444  0.1993
 1994SOL     OW 5980   3.571   4.909   7.645 -0.0430  0.1721 -0.5003
 1994SOL    HW1 5981   3.584   4.988   7.593  0.0957  0.3158 -0.2532
 1994SOL    HW2 5982   3.526   4.939   7.724  0.3885  0.0759 -0.2118
 1995SOL     OW 5983   3.319   2.015   7.917  0.0824  0.2983 -0.4801
 1995SOL    HW1 5984   3.258   2.041   7.987  0.2206 -0.2371 -0.1600
 1995SOL    HW2 5985   3.359   2.097   7.889 -0.4197  0.5941 -0.3458
 1996SOL     OW 5986   2.348   1.604   9.872 -0.3984 -0.1395 -0.1176
 1996SOL    HW1 5987   2.373   1.664   9.803 -0.7897  1.5090  1.1144
 1996SOL    HW2 5988   2.430   1.575   9.911 -0.2399  0.6926  0.1729
 1997SOL     OW 5989   3.636   1.233   9.972  0.3775  0.3901  0.3078
 1997SOL    HW1 5990   3.673   1.249   9.885  1.0571  2.6765  0.9415
 1997SOL    HW2 5991   3.619   1.139   9.974 -1.2891  0.4794 -2.9129
 1998SOL     OW 5992   4.809   0.643   9.757 -0.7021 -0.1796  0.4567
 1998SOL    HW1 5993   4.840   0.570   9.703  1.8647  0.7895  0.5007
 1998SOL    HW2 5994   4.813   0.719   9.699 -2.9754  0.0578  0.5229
 1999SOL     OW 5995   2.060   1.030   9.457 -0.3708  0.4464 -0.4066
 1999SOL    HW1 5996   2.022   0.948   9.428 -0.2329 -1.1965  3.3778
 1999SOL    HW2 5997   2.154   1.013   9.463 -0.1755  1.3206 -0.8295
 2000SOL     OW 5998   2.390   3.795   9.654  0.7083 -0.6929 -0.4991
 2000SOL    HW1 5999   2.352   3.838   9.578 -0.7728  0.2556  0.7183
 2000SOL    HW2 6000   2.470   3.845   9.673 -0.4593  0.9880  0.2854
 2001SOL     OW 6001   1.872   0.000  10.306 -0.4487 -0.1484 -0.7596
 2001SOL    HW1 6002   1.939  -0.052  10.349  0.9937  1.6237 -0.7361
 2001SOL    HW2 6003   1.893   0.090  10.329 -2.9449  0.4795 -0.6506
 2002SOL     OW 6004   3.315   3.517   8.030 -0.1717 -0.3024 -0.2087
 2002SOL    HW1 6005   3.238   3.571   8.050 -0.3534 -0.5579 -0.2228
 2002SOL    HW2 6006   3.293   3.430   8.064 -0.1352 -0.5266 -0.7638
 2003SOL     OW 6007   1.941   2.318   9.084  0.6500 -0.4361 -0.4143
 2003SOL    HW1 6008   2.004   2.246   9.072 -0.1883 -1.1865 -0.3997
 2003SOL    HW2 6009   1.944   2.366   9.001 -1.0814 -2.3624 -1.6820
 2004SOL     OW 6010   2.820   1.949   8.354 -0.0071  0.0035  0.2144
 2004SOL    HW1 6011   2.780   1.981   8.273  0.9278  0.1329 -0.2136
 2004SOL    HW2 6012   2.840   1.857   8.336 -0.9417 -0.3141  0.7559
 2005SOL     OW 6013   4.423   4.387   5.310  0.2349 -0.3497  0.3348
 2005SOL    HW1 6014   4.336   4.349   5.292  0.6746 -1.2777  0.0845
 2005SOL    HW2 6015   4.483   4.335   5.256  0.9666  0.1777  0.6297
 2006SOL     OW 6016   3.147   2.405   9.724  0.2253 -0.1409  0.3417
 2006SOL    HW1 6017   3.098   2.486   9.709  0.4550  0.3962  2.2456
 2006SOL    HW2 6018   3.209   2.427   9.794  2.5654 -1.0641 -1.3283
 2007SOL     OW 6019   3.478   1.818   9.348 -0.1722 -0.0492 -0.1999
 2007SOL    HW1 6020   3.493   1.905   9.385 -1.2941  0.6040 -1.1818
 2007SOL    HW2 6021   3.466   1.761   9.424  1.4614  0.4519  0.4786
 2008SOL     OW 6022   3.036   4.130   9.716  0.6323  0.1341  0.1713
 2008SOL    HW1 6023   3.076   4.043   9.713 -2.2393 -1.4548  2.7322
 2008SOL    HW2 6024   3.067   4.168   9.799 -0.5467  0.2095  0.5990
 2009SOL     OW 6025   3.489   4.728   9.854  0.4710  0.7697 -0.1365
 2009SOL    HW1 6026   3.420   4.782   9.891 -0.3200 -0.6984  0.6611
 2009SOL    HW2 6027   3.569   4.757   9.897 -0.1087  0.5958  1.0985
 2010SOL     OW 6028   0.786   2.299   8.154  0.1493 -0.2835 -0.2743
 2010SOL    HW1 6029   0.877   2.276   8.134 -0.2679 -1.3418 -1.0778
 2010SOL    HW2 6030   0.745   2.311   8.069 -1.0669 -2.3703 -0.0449
 2011SOL     OW 6031   4.473   1.184   6.939  0.2779  0.2274  0.7313
 2011SOL    HW1 6032   4.558   1.148   6.962  1.2750  2.6438  1.1071
 2011SOL    HW2 6033   4.459   1.156   6.848  0.4364 -1.9192  1.3011
 2012SOL     OW 6034   2.156   3.984   9.257 -0.1012 -0.2669  0.1611
 2012SOL    HW1 6035   2.222   4.010   9.193  0.8920  1.7129  1.9055
 2012SOL    HW2 6036   2.073   3.993   9.210  0.7275 -1.3251 -1.5947
 2013SOL     OW 6037   0.412   2.490   9.406  0.3747 -0.2386 -0.1939
 2013SOL    HW1 6038   0.332   2.476   9.355  0.7008  0.2758 -0.8689
 2013SOL    HW2 6039   0.458   2.406   9.404  1.4304  0.3245 -2.6266
 2014SOL     OW 6040   1.459   3.525   9.844  0.0659  0.3100 -0.2254
 2014SOL    HW1 6041   1.511   3.463   9.793 -0.4273 -1.3210  1.1599
 2014SOL    HW2 6042   1.521   3.559   9.909 -0.0206  0.1482 -0.0580
 2015SOL     OW 6043   4.106   4.386   9.394  0.2283  0.1741  0.4993
 2015SOL    HW1 6044   4.145   4.434   9.321  0.6176 -2.7569 -1.3715
 2015SOL    HW2 6045   4.181   4.351   9.442 -0.0664 -0.4868  0.4759
 2016SOL     OW 6046   2.225   2.071   8.753  0.7104 -0.2556  1.0990
 2016SOL    HW1 6047   2.197   1.984   8.782 -0.9945 -0.0330  0.2929
 2016SOL    HW2 6048   2.319   2.072   8.766  0.5295 -1.5272  2.9174
 2017SOL     OW 6049   1.931   4.135   8.254 -0.1376 -0.4029  0.1980
 2017SOL    HW1 6050   1.844   4.174   8.257 -0.6469 -1.4483 -0.6346
 2017SOL    HW2 6051   1.919   4.045   8.285  0.4163 -0.9236 -1.0434
 2018SOL     OW 6052   3.204   0.762   9.968  0.3563  0.3625  0.2528
 2018SOL    HW1 6053   3.286   0.790  10.009  1.4850 -0.7951 -1.1152
 2018SOL    HW2 6054   3.228   0.684   9.918 -1.6699 -0.1972  0.0917
 2019SOL     OW 6055   1.960   0.051   7.668  0.2184 -0.0302 -0.0601
 2019SOL    HW1 6056   2.029   0.116   7.655  0.9155 -0.8949 -0.8295
 2019SOL    HW2 6057   1.938   0.058   7.761  0.9616  0.6342  0.0828
 2020SOL     OW 6058   1.457   3.117  10.226 -0.1320 -0.4064  0.4728
 2020SOL    HW1 6059   1.412   3.073  10.154 -0.1059  1.0366 -0.4789
 2020SOL    HW2 6060   1.549   3.093  10.215 -0.1550 -0.3410  0.1388
 2021SOL     OW 6061   2.687   0.295   7.643 -0.5688  0.1066 -0.0508
 2021SOL    HW1 6062   2.751   0.292   7.572 -1.3420  2.9422 -1.0042
 2021SOL    HW2 6063   2.700   0.381   7.683 -1.6639 -0.5357  1.8102
 2022SOL     OW 6064   2.920   3.144   9.372  0.3741  0.1359  0.3904
 2022SOL    HW1 6065   2.930   3.214   9.306  1.1760 -0.6754 -0.3733
 2022SOL    HW2 6066   2.832   3.110   9.357 -0.6234  1.9464  1.7653
 2023SOL     OW 6067   0.472   3.771   9.201 -0.8930 -0.6105  0.0593
 2023SOL    HW1 6068   0.418   3.820   9.262  0.6261 -0.8089  1.6498
 2023SOL    HW2 6069   0.491   3.688   9.247 -1.1128 -1.5086 -1.4055
 2024SOL     OW 6070   0.674   4.905   9.212  0.1388 -0.0664  0.4203
 2024SOL    HW1 6071   0.687   4.965   9.285  1.6280  0.4933 -0.2616
 2024SOL    HW2 6072   0.760   4.899   9.170 -0.6107 -0.5727 -1.1233
 2025SOL     OW 6073   3.690   4.731   9.526 -0.3635  0.6558 -0.0377
 2025SOL    HW1 6074   3.604   4.749   9.564  0.7191  1.3051  2.3543
 2025SOL    HW2 6075   3.697   4.792   9.453 -0.5466  3.4133  2.0707
 2026SOL     OW 6076   2.468   3.142   6.501 -0.4483  0.4527  0.1065
 2026SOL    HW1 6077   2.425   3.099   6.574 -0.0083  0.8883  0.6324
 2026SOL    HW2 6078   2.470   3.076   6.432  0.5601 -0.5198  1.0222
 2027SOL     OW 6079   1.537   3.147   9.510 -0.2516 -0.5094 -0.2244
 2027SOL    HW1 6080   1.504   3.224   9.558 -0.7606 -0.6785 -0.2950
 2027SOL    HW2 6081   1.579   3.094   9.577  0.8400  0.2185 -0.3116
 2028SOL     OW 6082   4.526   1.007   8.900  0.5888 -0.2934 -0.0014
 2028SOL    HW1 6083   4.616   0.980   8.882  1.3882  1.0135  1.7810
 2028SOL    HW2 6084   4.519   1.095   8.862 -0.1384 -0.6099 -0.6370
 2029SOL     OW 6085   1.312   2.906   7.741 -0.1504  0.2910  0.1164
 2029SOL    HW1 6086   1.325   2.989   7.786  0.4009  0.0605  0.4022
 2029SOL    HW2 6087   1.396   2.861   7.749  0.7006  1.0890 -2.9489
 2030SOL     OW 6088   1.390   3.017   6.702 -0.3552  0.0206  0.0265
 2030SOL    HW1 6089   1.316   2.986   6.754 -0.1367 -0.4837  0.0327
 2030SOL    HW2 6090   1.354   3.026   6.614  0.2087 -2.7778 -0.5782
 2031SOL     OW 6091   3.562   4.294   8.674  0.2138 -0.0992 -0.2432
 2031SOL    HW1 6092   3.592   4.263   8.760 -0.9710 -0.1665  0.1614
 2031SOL    HW2 6093   3.567   4.217   8.618 -2.3493 -1.0230  0.6620
 2032SOL     OW 6094   0.069   2.626   7.855 -0.2382  0.3279  0.4450
 2032SOL    HW1 6095   0.028   2.708   7.828 -2.2342 -0.5212  0.6723
 2032SOL    HW2 6096   0.020   2.599   7.933  1.1074 -0.5267  1.0237
 2033SOL     OW 6097   4.452   2.771   9.913 -0.1415  0.2314 -0.7300
 2033SOL    HW1 6098   4.404   2.690   9.929  0.4646  0.2574  1.5490
 2033SOL    HW2 6099   4.460   2.812   9.999  1.7082  1.4849 -1.4290
 2034SOL     OW 6100   4.774   0.033   9.471  0.2868  0.6050  0.0301
 2034SOL    HW1 6101   4.801   0.065   9.385 -1.6651 -0.2974 -0.9900
 2034SOL    HW2 6102   4.744  -0.057   9.455  0.0781  0.3344  1.6955
 2035SOL     OW 6103   1.246   1.923   7.075  0.3263 -0.1929  0.3842
 2035SOL    HW1 6104   1.292   1.959   7.151  1.0222  0.9321 -0.5364
 2035SOL    HW2 6105   1.271   1.831   7.073  0.6528 -0.1302  1.2667
 2036SOL     OW 6106   3.457   2.541   8.602  0.0127  0.1256  0.7055
 2036SOL    HW1 6107   3.398   2.603   8.643  0.6253  0.7914  0.6164
 2036SOL    HW2 6108   3.406   2.501   8.532  0.3206  2.5122 -1.0473
 2037SOL     OW 6109   1.993   2.826   9.637 -0.2604 -0.4312  0.6155
 2037SOL    HW1 6110   2.068   2.832   9.578  0.1644  0.8715  1.2437
 2037SOL    HW2 6111   1.965   2.735   9.631 -0.1169 -0.3988 -1.4382
 2038SOL     OW 6112   1.533   4.709   9.469 -0.1109  0.7975 -0.8709
 2038SOL    HW1 6113   1.495   4.625   9.494 -0.3110  1.3470  0.7855
 2038SOL    HW2 6114   1.624   4.689   9.449 -0.5867 -0.0886 -2.2344
 2039SOL     OW 6115   4.116   2.983   9.238 -0.3523  0.0480  0.1121
 2039SOL    HW1 6116   4.039   3.013   9.189 -0.0610 -0.9907 -1.0346
 2039SOL    HW2 6117   4.116   2.888   9.227  0.4922 -0.0745  1.0284
 2040SOL     OW 6118   1.575   4.442   4.683  0.9675 -0.2968  0.3129
 2040SOL    HW1 6119   1.657   4.442   4.734  0.6536 -2.2436  0.8850
 2040SOL    HW2 6120   1.506   4.450   4.749  0.6507  1.6207 -0.1864
 2041SOL     OW 6121   1.830   4.041   8.769  0.1216  0.1723  0.2908
 2041SOL    HW1 6122   1.851   4.130   8.799 -0.0632  0.4452 -0.3657
 2041SOL    HW2 6123   1.754   4.016   8.821  0.1542  0.4152  0.4591
 2042SOL     OW 6124   1.225   4.272   8.140 -0.4416  0.5139  0.3944
 2042SOL    HW1 6125   1.300   4.294   8.086 -0.9761  0.3741 -0.4256
 2042SOL    HW2 6126   1.252   4.193   8.187 -0.4585 -0.1909 -0.7349
 2043SOL     OW 6127   2.296   1.053  10.118 -0.3464 -0.5837  0.4079
 2043SOL    HW1 6128   2.365   1.115  10.144 -0.0293 -1.1782  1.0377
 2043SOL    HW2 6129   2.304   0.981  10.182 -1.9849 -0.3551  0.9068
 2044SOL     OW 6130   3.326   0.631   8.324 -0.1919 -0.6532 -0.0733
 2044SOL    HW1 6131   3.414   0.664   8.338 -0.7910  0.1883  2.3257
 2044SOL    HW2 6132   3.329   0.540   8.353  0.2863 -1.2090 -1.7948
 2045SOL     OW 6133   0.292   0.974  10.012 -0.0868 -0.3806 -0.1114
 2045SOL    HW1 6134   0.338   0.904   9.966 -0.4864 -0.1939 -0.8117
 2045SOL    HW2 6135   0.295   0.948  10.104  2.4924  0.2519  0.0405
 2046SOL     OW 6136   2.259   4.087   9.015 -0.6471  0.1998  0.5071
 2046SOL    HW1 6137   2.170   4.066   8.989 -0.4034  1.4026 -1.4917
 2046SOL    HW2 6138   2.289   4.152   8.951  0.4171  2.6307  3.2647
 2047SOL     OW 6139   0.086   2.380   9.551  0.0945 -0.2247  0.3633
 2047SOL    HW1 6140   0.038   2.322   9.609  0.2854  1.3694  2.2325
 2047SOL    HW2 6141   0.043   2.465   9.560  1.8649  0.7387  0.4082
 2048SOL     OW 6142   1.125   4.625  10.077 -0.1513  0.2895 -0.1320
 2048SOL    HW1 6143   1.133   4.665   9.990 -1.3178  0.4253 -0.1941
 2048SOL    HW2 6144   1.142   4.696  10.138  3.1183 -0.3066 -0.1751
 2049SOL     OW 6145   0.369   1.301   7.830  0.3776  0.2393  0.2665
 2049SOL    HW1 6146   0.435   1.234   7.851 -0.0858 -0.2606  0.1573
 2049SOL    HW2 6147   0.289   1.269   7.872  0.1215  0.6575  0.0938
 2050SOL     OW 6148   2.788   4.888   9.433 -0.0235 -0.4748  0.4439
 2050SOL    HW1 6149   2.705   4.842   9.427 -0.3635  0.0089  1.2610
 2050SOL    HW2 6150   2.826   4.859   9.516  1.1543 -1.5218 -0.4083
 2051SOL     OW 6151   3.582   3.828   9.547  0.0052  0.9453 -0.1153
 2051SOL    HW1 6152   3.609   3.904   9.597  0.6331 -0.0112  1.0468
 2051SOL    HW2 6153   3.489   3.818   9.568  0.6602 -0.6196  2.6090
 2052SOL     OW 6154   3.259   1.708   8.972 -1.1981 -0.0753  0.3875
 2052SOL    HW1 6155   3.355   1.715   8.972 -1.0114 -1.2135  3.0561
 2052SOL    HW2 6156   3.229   1.795   8.947  0.5342  0.4082 -0.1630
 2053SOL     OW 6157   4.291   2.598   9.551 -0.0451  0.0013 -0.1911
 2053SOL    HW1 6158   4.312   2.586   9.458 -0.6167  2.4402 -0.7188
 2053SOL    HW2 6159   4.215   2.657   9.550 -0.5754 -0.6015  1.8190
 2054SOL     OW 6160   2.061   2.318   7.468  0.3454  0.4158  0.3347
 2054SOL    HW1 6161   2.130   2.272   7.421  0.2305  0.0109  0.5650
 2054SOL    HW2 6162   2.052   2.401   7.421  0.0698 -0.0834 -0.5124
 2055SOL     OW 6163   2.464   0.171  10.128  0.0763  0.4601 -0.1497
 2055SOL    HW1 6164   2.525   0.199  10.059 -0.5565  2.7785  0.1380
 2055SOL    HW2 6165   2.430   0.087  10.098 -0.2705  1.4445 -2.7718
 2056SOL     OW 6166   1.098   2.452   7.972  0.1917 -0.0174  0.1016
 2056SOL    HW1 6167   1.107   2.453   8.067 -1.4699  1.7688  0.2948
 2056SOL    HW2 6168   1.099   2.544   7.946 -0.3953 -0.4196 -1.4981
 2057SOL     OW 6169   4.499   4.659   8.993 -0.3067  0.0341  0.2783
 2057SOL    HW1 6170   4.449   4.701   8.923 -1.6618  0.1261  1.2661
 2057SOL    HW2 6171   4.577   4.625   8.950 -0.5013  1.1772 -1.0455
 2058SOL     OW 6172   1.547   2.801   7.899 -0.0256  0.6603  0.1037
 2058SOL    HW1 6173   1.633   2.770   7.926  0.2279  0.7966 -0.5193
 2058SOL    HW2 6174   1.495   2.801   7.979 -0.3835 -2.4659 -0.0155
 2059SOL     OW 6175   4.333   2.878  10.175 -0.4681 -0.9399  0.4850
 2059SOL    HW1 6176   4.332   2.856  10.268  0.4617 -1.0460  0.4780
 2059SOL    HW2 6177   4.260   2.828  10.138 -1.7134  0.1470  1.3606
 2060SOL     OW 6178   3.974   3.844   8.902 -0.2108 -0.1001 -0.2753
 2060SOL    HW1 6179   3.935   3.782   8.965 -0.0311  1.1378  1.1074
 2060SOL    HW2 6180   3.908   3.912   8.892 -0.3656 -0.4449 -1.7190
 2061SOL     OW 6181   1.950   1.460   9.864  0.2167 -0.3718 -0.6647
 2061SOL    HW1 6182   2.033   1.421   9.893  0.8535 -0.7411 -2.8399
 2061SOL    HW2 6183   1.882   1.403   9.901  1.0410 -1.7839 -1.2711
 2062SOL     OW 6184   2.570   0.465   6.815  0.6007  0.4442  0.7329
 2062SOL    HW1 6185   2.479   0.467   6.786  0.2065 -1.4448  1.6673
 2062SOL    HW2 6186   2.593   0.557   6.829 -0.4588  1.1353 -1.5163
 2063SOL     OW 6187   1.676   1.799   9.781 -0.1672 -0.8235 -0.4211
 2063SOL    HW1 6188   1.688   1.727   9.720  0.5273  0.3140 -1.6780
 2063SOL    HW2 6189   1.754   1.796   9.837  1.1797  0.4531 -2.1228
 2064SOL     OW 6190   4.668   3.495   9.510  0.3202 -0.0032 -0.0958
 2064SOL    HW1 6191   4.762   3.490   9.495  0.4204 -1.8112  0.9203
 2064SOL    HW2 6192   4.657   3.477   9.603 -0.8591  3.2275  0.5372
 2065SOL     OW 6193   1.455   0.074   9.878 -0.0133 -0.1143  0.1690
 2065SOL    HW1 6194   1.545   0.058   9.850  0.7335  0.9955  1.7633
 2065SOL    HW2 6195   1.422   0.142   9.820  1.0580  1.2384  1.1037
 2066SOL     OW 6196   1.943   0.655   9.047  0.0830  0.6679 -0.3138
 2066SOL    HW1 6197   2.025   0.618   9.081 -0.3434  1.9117  2.3261
 2066SOL    HW2 6198   1.876   0.619   9.105 -0.9701  1.4290 -1.0450
 2067SOL     OW 6199   2.237   2.269   7.249 -0.0698  0.0096  0.3459
 2067SOL    HW1 6200   2.244   2.357   7.211 -0.6246  0.1723  0.6051
 2067SOL    HW2 6201   2.326   2.235   7.247  0.5174  1.3152  2.0143
 2068SOL     OW 6202   0.300   1.234   5.524  0.6467  0.3044  0.6835
 2068SOL    HW1 6203   0.332   1.274   5.604  0.3701  0.3654  0.7669
 2068SOL    HW2 6204   0.240   1.298   5.487  0.2963  0.0232  0.7541
 2069SOL     OW 6205   1.260   4.707   9.839  0.0846  0.3087 -0.4208
 2069SOL    HW1 6206   1.228   4.672   9.755 -0.3774  0.6997 -0.4104
 2069SOL    HW2 6207   1.352   4.680   9.842 -0.5229 -1.8839  0.1073
 2070SOL     OW 6208   2.118   3.782   7.532  0.0532  0.2737 -0.7872
 2070SOL    HW1 6209   2.186   3.820   7.589 -0.3649  0.8740 -0.6743
 2070SOL    HW2 6210   2.112   3.843   7.458  1.9335 -1.4820 -2.4916
 2071SOL     OW 6211   2.867   3.778   9.637  0.0587 -0.7611 -0.5760
 2071SOL    HW1 6212   2.804   3.848   9.652  0.9230 -0.3854  1.8157
 2071SOL    HW2 6213   2.918   3.807   9.562 -1.5983 -0.3649 -1.5963
 2072SOL     OW 6214   1.867   3.229   9.730  0.2044 -0.0456  0.8103
 2072SOL    HW1 6215   1.801   3.258   9.794  0.3509 -0.8805  1.3601
 2072SOL    HW2 6216   1.914   3.308   9.707 -0.3075  0.3886  1.2185
 2073SOL     OW 6217   2.006   2.536   7.300 -0.9637  0.4128  0.0619
 2073SOL    HW1 6218   1.947   2.588   7.245 -0.2212  1.3620  0.1323
 2073SOL    HW2 6219   2.094   2.561   7.271 -0.5585 -1.5668 -0.5843
 2074SOL     OW 6220   2.664   0.964   6.892  0.0568  0.0775  0.0401
 2074SOL    HW1 6221   2.615   0.896   6.846  0.3418  0.0200 -0.1787
 2074SOL    HW2 6222   2.632   1.046   6.854 -0.8794  0.1144  0.8725
 2075SOL     OW 6223   2.861   4.533   7.942 -0.0337 -0.5227 -0.3088
 2075SOL    HW1 6224   2.911   4.556   7.863 -1.4811 -1.2882 -1.5022
 2075SOL    HW2 6225   2.770   4.554   7.920 -0.6626 -2.1182  0.5841
 2076SOL     OW 6226   3.344   2.895   9.737  0.9553  0.0475 -0.0519
 2076SOL    HW1 6227   3.374   2.927   9.652  0.8530  0.2564 -0.0104
 2076SOL    HW2 6228   3.363   2.801   9.736  2.3397  0.2974  0.2710
 2077SOL     OW 6229   1.221   4.419   8.404  0.0253 -0.1317  0.6081
 2077SOL    HW1 6230   1.230   4.368   8.324 -0.7377 -2.2357  1.7728
 2077SOL    HW2 6231   1.234   4.510   8.377  0.5512 -0.8448 -1.7325
 2078SOL     OW 6232   2.094   4.029  10.044  0.1327  0.3465  0.4647
 2078SOL    HW1 6233   2.100   3.978   9.963 -0.7054  0.7919  0.1148
 2078SOL    HW2 6234   2.119   3.967  10.112  1.1983  0.0607 -0.1567
 2079SOL     OW 6235   4.122   1.151  10.027 -0.3392  0.9494 -0.2349
 2079SOL    HW1 6236   4.217   1.155  10.036 -0.4457  2.7627  0.5220
 2079SOL    HW2 6237   4.096   1.078  10.083  0.5114  1.3502  0.7303
 2080SOL     OW 6238   4.598   1.928   9.533  0.5161 -0.0374  0.2768
 2080SOL    HW1 6239   4.558   2.000   9.484 -0.4905 -1.0298 -0.3892
 2080SOL    HW2 6240   4.557   1.849   9.499  1.4382 -0.9331  1.1563
 2081SOL     OW 6241   1.853   0.590  10.157  0.9941  0.0244 -0.1632
 2081SOL    HW1 6242   1.908   0.513  10.169  0.1624 -0.3926  1.1658
 2081SOL    HW2 6243   1.765   0.562  10.183  0.7022  1.4514  0.5394
 2082SOL     OW 6244   1.890   1.845   9.507 -0.5186 -0.2239 -0.6105
 2082SOL    HW1 6245   1.862   1.756   9.483 -0.3764 -0.6735  0.8057
 2082SOL    HW2 6246   1.929   1.880   9.427  1.2471 -2.1629 -0.6783
 2083SOL     OW 6247   1.491   3.782   9.040 -0.2810 -0.4187  0.0231
 2083SOL    HW1 6248   1.400   3.775   9.068 -0.6409 -0.4068 -1.1284
 2083SOL    HW2 6249   1.532   3.703   9.075 -1.1705 -1.3822 -1.0561
 2084SOL     OW 6250   0.769   0.999   9.370  0.2961  0.0102 -0.0589
 2084SOL    HW1 6251   0.706   0.994   9.298 -0.4927 -0.7382  0.6579
 2084SOL    HW2 6252   0.834   1.063   9.341 -0.3978  0.2526 -1.1265
 2085SOL     OW 6253   3.780   0.396   9.627  0.0282 -1.0259 -0.1390
 2085SOL    HW1 6254   3.720   0.432   9.561 -0.0873 -1.4364 -0.2613
 2085SOL    HW2 6255   3.843   0.345   9.576  2.5520  2.0485 -0.4190
 2086SOL     OW 6256   0.714   0.443   9.647 -0.8701  0.2078  0.1065
 2086SOL    HW1 6257   0.680   0.500   9.578 -1.7533 -0.0445  0.3265
 2086SOL    HW2 6258   0.789   0.399   9.607 -0.4129  1.2311 -0.1877
 2087SOL     OW 6259   0.485   0.269  10.005  0.2625  0.1402 -0.1751
 2087SOL    HW1 6260   0.480   0.211   9.929  1.7044 -0.0065 -0.1922
 2087SOL    HW2 6261   0.563   0.323   9.989  0.1742  0.5997  0.8546
 2088SOL     OW 6262   0.571   1.978   8.375  0.3090 -0.2831 -0.2483
 2088SOL    HW1 6263   0.551   1.946   8.287  1.2227  2.2844 -1.4656
 2088SOL    HW2 6264   0.528   2.063   8.381  1.4400  0.2343  1.2675
 2089SOL     OW 6265   4.113   0.571   8.475  0.0179 -0.4184 -0.1406
 2089SOL    HW1 6266   4.142   0.661   8.488 -0.7132 -0.2788  0.6287
 2089SOL    HW2 6267   4.164   0.540   8.400  0.0577  0.7302 -0.6177
 2090SOL     OW 6268   0.197   3.646   6.157  0.3270 -0.2498 -0.3123
 2090SOL    HW1 6269   0.269   3.708   6.152  2.0566 -1.9917  1.3935
 2090SOL    HW2 6270   0.171   3.645   6.249 -1.3658 -0.2632 -0.7425
 2091SOL     OW 6271   2.671   3.999   8.226 -0.1621  0.3037 -0.7535
 2091SOL    HW1 6272   2.609   3.926   8.225 -0.9301  0.9369 -0.4169
 2091SOL    HW2 6273   2.726   3.983   8.303  0.2665 -0.3912 -1.1912
 2092SOL     OW 6274   3.789   0.642   8.388  0.3195  0.5444 -0.0445
 2092SOL    HW1 6275   3.814   0.564   8.339  0.3826  0.1857  0.5592
 2092SOL    HW2 6276   3.873   0.684   8.410  0.3447  0.0214  0.8700
 2093SOL     OW 6277   1.903   1.778   9.908 -1.1465  0.5507  0.6895
 2093SOL    HW1 6278   1.985   1.810   9.944 -1.2045 -0.0734  1.4061
 2093SOL    HW2 6279   1.906   1.683   9.921 -1.9238  0.5047  0.6110
 2094SOL     OW 6280   1.105   0.100   8.049  0.4054 -0.1367 -0.1829
 2094SOL    HW1 6281   1.199   0.092   8.034  0.4859  0.8520 -0.2907
 2094SOL    HW2 6282   1.074   0.010   8.062  1.3826 -0.4555 -0.0265
 2095SOL     OW 6283   1.349   4.068   8.233  1.0266  0.1829  0.8448
 2095SOL    HW1 6284   1.320   3.978   8.215  1.7605  0.0928  0.0252
 2095SOL    HW2 6285   1.350   4.074   8.329  3.2760 -1.5043  1.0204
 2096SOL     OW 6286   4.123   3.042   7.568 -0.1839 -0.5887 -0.2310
 2096SOL    HW1 6287   4.117   3.120   7.623 -1.9584  0.8647 -2.3414
 2096SOL    HW2 6288   4.214   3.013   7.578  0.0340  0.6480  1.9845
 2097SOL     OW 6289   2.744   1.128   5.299  0.0875 -0.4079 -0.1427
 2097SOL    HW1 6290   2.660   1.131   5.344  1.2777 -2.1356  2.5044
 2097SOL    HW2 6291   2.725   1.153   5.209 -3.2591 -0.9255  0.3026
 2098SOL     OW 6292   4.939   3.372   4.688 -0.5411 -0.1833  0.1579
 2098SOL    HW1 6293   4.952   3.337   4.776 -2.5748  1.6753  1.3112
 2098SOL    HW2 6294   4.979   3.459   4.690  0.0085 -0.3883 -1.0014
 2099SOL     OW 6295   0.126   3.780   5.172  0.4712  0.1190 -0.1903
 2099SOL    HW1 6296   0.218   3.805   5.172  0.4092  0.3709 -0.9039
 2099SOL    HW2 6297   0.125   3.691   5.207  1.1812 -0.5555 -1.8166
 2100SOL     OW 6298   0.485   4.330   7.135 -0.8907 -0.2837  0.5973
 2100SOL    HW1 6299   0.518   4.241   7.150 -2.7750 -0.9381  1.1274
 2100SOL    HW2 6300   0.413   4.318   7.073  0.3292  1.2105 -1.2548
 2101SOL     OW 6301   0.292   4.559   6.751 -0.1828  0.6382 -0.1175
 2101SOL    HW1 6302   0.368   4.562   6.809 -0.3256 -0.0745  0.1169
 2101SOL    HW2 6303   0.217   4.568   6.810 -0.3774 -1.1431 -0.0385
 2102SOL     OW 6304   2.072   1.986   6.149 -0.4290 -0.1946 -0.8728
 2102SOL    HW1 6305   1.999   2.020   6.201 -0.5497  0.5763 -1.5218
 2102SOL    HW2 6306   2.051   1.894   6.134 -1.2785  0.0286 -1.0698
 2103SOL     OW 6307   2.429   3.534   6.958 -1.0586 -0.0150  0.8280
 2103SOL    HW1 6308   2.351   3.543   7.012 -2.5816 -0.6852 -1.1688
 2103SOL    HW2 6309   2.411   3.587   6.880 -0.2112 -1.4476 -0.3885
 2104SOL     OW 6310   0.189   3.652   8.677 -0.0541 -0.1423  0.1487
 2104SOL    HW1 6311   0.164   3.569   8.716 -1.3786  0.3535  0.3889
 2104SOL    HW2 6312   0.269   3.632   8.628  0.2670 -1.2992  1.1009
 2105SOL     OW 6313   4.317   0.355   9.129  0.0290  0.1469  0.0221
 2105SOL    HW1 6314   4.234   0.308   9.117  0.7615 -1.3426  0.6102
 2105SOL    HW2 6315   4.309   0.431   9.071 -1.6152 -0.1263 -0.1735
 2106SOL     OW 6316   4.089   0.734   4.819 -0.1354 -0.3093 -0.5792
 2106SOL    HW1 6317   4.110   0.665   4.757 -1.8707 -1.7319  0.3217
 2106SOL    HW2 6318   3.998   0.756   4.801  0.1430  1.1769 -0.2976
 2107SOL     OW 6319   2.094   3.951   5.854 -0.2933  0.4278 -0.0377
 2107SOL    HW1 6320   2.077   3.883   5.788 -1.8106 -1.2125  1.9165
 2107SOL    HW2 6321   2.043   4.027   5.824 -2.1142 -0.7593 -0.0812
 2108SOL     OW 6322   3.754   2.385   7.366  0.3030 -0.4782  0.2388
 2108SOL    HW1 6323   3.668   2.415   7.338 -0.7315 -1.3151  2.2871
 2108SOL    HW2 6324   3.761   2.296   7.329  0.7150 -0.0819 -0.6784
 2109SOL     OW 6325   3.952   3.490   5.642  0.3609 -0.6984  0.0670
 2109SOL    HW1 6326   3.926   3.543   5.567  1.0902  0.8031  0.8130
 2109SOL    HW2 6327   3.926   3.543   5.718 -0.0415 -2.0154  0.8731
 2110SOL     OW 6328   2.902   2.229   7.164 -0.2857 -0.0935  0.2033
 2110SOL    HW1 6329   2.812   2.225   7.131 -1.3151  2.7372  2.2383
 2110SOL    HW2 6330   2.945   2.293   7.108 -0.6082  1.0806  1.2436
 2111SOL     OW 6331   0.166   1.260   4.668 -0.0900  0.3747  0.4609
 2111SOL    HW1 6332   0.079   1.232   4.641 -0.2551  1.8193 -0.6100
 2111SOL    HW2 6333   0.226   1.222   4.604 -0.3077  2.2548 -0.9497
 2112SOL     OW 6334   4.945   1.038   5.113 -0.4305  0.0490 -0.6706
 2112SOL    HW1 6335   4.904   0.972   5.058 -0.7448 -0.7085  0.4339
 2112SOL    HW2 6336   5.023   1.066   5.064 -1.4812  0.4915 -2.1544
 2113SOL     OW 6337   4.658   3.878   9.003 -0.5205  0.5326  0.2834
 2113SOL    HW1 6338   4.681   3.931   9.079  0.2934  0.6887 -0.0624
 2113SOL    HW2 6339   4.568   3.904   8.982 -0.2122  1.6193  0.2505
 2114SOL     OW 6340   0.647   1.446   7.336 -0.2307 -0.2163  0.2243
 2114SOL    HW1 6341   0.583   1.515   7.353 -0.1711 -0.3808  1.1994
 2114SOL    HW2 6342   0.598   1.365   7.345 -0.1547 -0.3165 -0.2578
 2115SOL     OW 6343   4.652   2.979   6.762  0.4419  0.3372 -0.5636
 2115SOL    HW1 6344   4.649   2.884   6.773 -2.7092  0.2191 -1.4467
 2115SOL    HW2 6345   4.705   2.992   6.683  0.9198 -0.6616 -0.4332
 2116SOL     OW 6346   3.420   3.874   7.354 -0.2437 -0.2393  1.0098
 2116SOL    HW1 6347   3.398   3.780   7.354  0.9619 -0.5413  0.2825
 2116SOL    HW2 6348   3.349   3.915   7.305  1.3171 -1.3661 -2.5533
 2117SOL     OW 6349   4.706   2.487   7.099  0.1343 -0.3977  0.5887
 2117SOL    HW1 6350   4.785   2.460   7.052 -0.7846  1.9821 -2.6430
 2117SOL    HW2 6351   4.738   2.515   7.185  2.9536  1.0821 -0.8079
 2118SOL     OW 6352   0.545   3.784   5.548 -0.2234 -0.3495  0.0940
 2118SOL    HW1 6353   0.593   3.855   5.503 -2.3971  0.1372 -1.6759
 2118SOL    HW2 6354   0.609   3.745   5.606  0.9397  3.6158  1.8579
 2119SOL     OW 6355   4.565   4.786   7.913  0.6841  0.2355  0.7534
 2119SOL    HW1 6356   4.614   4.752   7.988  0.9625 -0.0489  0.4488
 2119SOL    HW2 6357   4.588   4.726   7.841 -0.5485 -0.2360  0.7362
 2120SOL     OW 6358   1.949   1.508   6.134 -0.0844  0.1289  0.2885
 2120SOL    HW1 6359   1.943   1.576   6.201 -0.7785 -1.3119  1.7575
 2120SOL    HW2 6360   2.043   1.501   6.116  0.0065  1.3829  0.1813
 2121SOL     OW 6361   4.387   0.301   6.136 -0.7338 -0.4079 -0.0345
 2121SOL    HW1 6362   4.293   0.282   6.135 -0.5815 -1.2276  0.1652
 2121SOL    HW2 6363   4.428   0.216   6.119 -0.0584  0.2523 -1.8968
 2122SOL     OW 6364   4.130   1.899   5.985 -0.0762 -0.3246  0.2262
 2122SOL    HW1 6365   4.215   1.884   5.944  1.0451 -0.0828  2.3345
 2122SOL    HW2 6366   4.096   1.978   5.943 -0.3266 -1.6225 -2.1741
 2123SOL     OW 6367   4.990   2.957   5.407 -0.0155 -0.1584 -0.5108
 2123SOL    HW1 6368   5.039   2.947   5.325  0.3509  1.0036 -0.4474
 2123SOL    HW2 6369   4.970   3.050   5.413  0.5806 -0.0935  1.0560
 2124SOL     OW 6370   0.359   3.187   5.999  0.5883  0.1596  0.2189
 2124SOL    HW1 6371   0.423   3.215   6.065  1.3402 -1.5607  0.2723
 2124SOL    HW2 6372   0.300   3.130   6.047  0.6097 -0.3936 -0.4088
 2125SOL     OW 6373   4.777   2.022   4.854  0.1640 -0.4323 -0.4290
 2125SOL    HW1 6374   4.777   2.105   4.900 -0.4445 -1.6501  1.9222
 2125SOL    HW2 6375   4.785   2.045   4.761 -0.1052  2.2010  0.1494
 2126SOL     OW 6376   1.204   4.557   7.265 -0.1424 -0.4252  0.1108
 2126SOL    HW1 6377   1.109   4.558   7.255 -0.3942 -3.1606  1.2405
 2126SOL    HW2 6378   1.236   4.505   7.191  0.2849 -0.9270  0.6330
 2127SOL     OW 6379   4.597   4.205   5.783 -0.5946  0.0528 -0.3881
 2127SOL    HW1 6380   4.568   4.217   5.693  0.9649 -0.2155 -0.9642
 2127SOL    HW2 6381   4.685   4.168   5.775 -1.4856 -2.7179  1.2386
 2128SOL     OW 6382   0.550   4.012   5.283 -0.6202 -0.0331  0.2646
 2128SOL    HW1 6383   0.485   4.082   5.292  0.0736  1.1213 -2.5773
 2128SOL    HW2 6384   0.633   4.055   5.304 -0.3000 -0.2316 -0.5569
 2129SOL     OW 6385   0.229   0.303   5.804 -0.3061  0.3409  0.2446
 2129SOL    HW1 6386   0.231   0.395   5.777 -1.1835  0.7754  1.5288
 2129SOL    HW2 6387   0.244   0.306   5.899  1.4254 -0.9972  0.0561
 2130SOL     OW 6388   3.872   2.245   8.844 -0.7869 -0.1848  0.1085
 2130SOL    HW1 6389   3.806   2.313   8.855 -1.2225 -0.7422  1.0273
 2130SOL    HW2 6390   3.876   2.201   8.928 -1.0663 -1.7873 -0.6783
 2131SOL     OW 6391   3.929   2.792   5.058  0.1121 -0.2513 -0.2256
 2131SOL    HW1 6392   3.922   2.707   5.014  0.4256 -0.1197 -0.5429
 2131SOL    HW2 6393   3.841   2.829   5.053  0.0793 -0.3585 -0.5047
 2132SOL     OW 6394   0.089   4.584   5.761 -0.0228  0.3507 -0.7276
 2132SOL    HW1 6395   0.071   4.665   5.808  0.7132  0.1152  0.0018
 2132SOL    HW2 6396   0.160   4.606   5.701  1.2531 -0.0816  0.5573
 2133SOL     OW 6397   4.446   3.485   5.363  0.0264  0.1203  0.2973
 2133SOL    HW1 6398   4.366   3.535   5.379 -1.6031 -2.4609  0.8370
 2133SOL    HW2 6399   4.415   3.399   5.333  2.6818 -0.0844 -2.2900
 2134SOL     OW 6400   2.606   1.457   6.173  0.6068 -0.3655  0.5569
 2134SOL    HW1 6401   2.668   1.388   6.195  2.1946  1.0847  0.7444
 2134SOL    HW2 6402   2.650   1.508   6.105 -1.5961 -1.0052 -1.5029
 2135SOL     OW 6403   3.563   2.709   6.919  0.3465 -0.1125  0.6105
 2135SOL    HW1 6404   3.521   2.794   6.931  0.5600  0.0466  0.2473
 2135SOL    HW2 6405   3.656   2.726   6.932  0.5282 -0.0497 -0.6098
 2136SOL     OW 6406   1.354   4.476   7.039 -0.0035  0.2095  0.7834
 2136SOL    HW1 6407   1.299   4.516   6.972 -0.2309 -0.5808  0.4894
 2136SOL    HW2 6408   1.419   4.426   6.989  0.2620  0.1963  1.1420
 2137SOL     OW 6409   2.268   2.000   7.143  0.0743 -0.6181 -0.1346
 2137SOL    HW1 6410   2.296   1.918   7.185 -1.7561 -0.9609  0.4965
 2137SOL    HW2 6411   2.272   2.065   7.213  1.5245 -0.1286 -0.6360
 2138SOL     OW 6412   2.149   3.018   6.952  0.1985  0.0402 -0.0377
 2138SOL    HW1 6413   2.059   3.052   6.948  1.1602  2.7968 -1.3624
 2138SOL    HW2 6414   2.197   3.084   7.002  1.5845 -1.1489  0.2632
 2139SOL     OW 6415   3.440   2.022   6.034  0.3444  0.2769  0.1505
 2139SOL    HW1 6416   3.364   2.080   6.036  1.0024  1.2824 -1.5672
 2139SOL    HW2 6417   3.481   2.033   6.120 -0.5375  0.9539  0.5010
 2140SOL     OW 6418   2.003   2.623   5.203 -0.2384  0.3287  0.3932
 2140SOL    HW1 6419   1.951   2.675   5.265 -0.9897  1.5872 -1.2342
 2140SOL    HW2 6420   1.942   2.556   5.171 -0.0997  0.1996  0.3995
 2141SOL     OW 6421   2.943   1.014   5.450  0.7110  0.5690 -0.1806
 2141SOL    HW1 6422   2.923   1.060   5.532 -1.9065 -2.5857  1.1683
 2141SOL    HW2 6423   2.872   1.038   5.391  0.2827 -0.3663 -0.0550
 2142SOL     OW 6424   3.159   0.356   5.304 -1.1044 -0.1169 -0.0184
 2142SOL    HW1 6425   3.194   0.424   5.247 -0.9710 -0.4976 -0.3945
 2142SOL    HW2 6426   3.187   0.381   5.392 -1.9240  0.8732 -0.0096
 2143SOL     OW 6427   2.617   2.731   6.954  0.5499  0.5196 -0.1672
 2143SOL    HW1 6428   2.625   2.803   6.891  0.5740 -0.5230 -1.3943
 2143SOL    HW2 6429   2.681   2.752   7.022 -0.2284  2.2233  0.0969
 2144SOL     OW 6430   1.714   1.263   5.177 -0.2889  0.4168 -0.1980
 2144SOL    HW1 6431   1.751   1.348   5.203  0.0758  0.3400 -0.4473
 2144SOL    HW2 6432   1.633   1.255   5.228 -0.0468  0.6683  0.2368
 2145SOL     OW 6433   4.516   4.429   7.486  0.0264 -0.4273 -0.8852
 2145SOL    HW1 6434   4.521   4.342   7.525 -2.3317  0.3911  1.6207
 2145SOL    HW2 6435   4.450   4.421   7.417  0.3095 -0.7604 -1.1177
 2146SOL     OW 6436   3.948   4.557   5.520  0.4527 -0.3679 -0.0113
 2146SOL    HW1 6437   3.985   4.632   5.474 -1.6961  1.6619  1.3952
 2146SOL    HW2 6438   3.854   4.562   5.503  0.3775 -4.4516 -2.2230
 2147SOL     OW 6439   0.401   4.144   4.742  0.3224 -0.0699  0.2522
 2147SOL    HW1 6440   0.379   4.237   4.746 -0.4695 -0.2346 -0.0006
 2147SOL    HW2 6441   0.470   4.138   4.676 -1.0754  0.1033 -1.3077
 2148SOL     OW 6442   3.879   3.232   5.036  0.0855 -0.3602 -0.2041
 2148SOL    HW1 6443   3.941   3.231   5.109 -0.1574 -1.2709 -0.0014
 2148SOL    HW2 6444   3.914   3.167   4.975  0.6091  0.7903 -1.1917
 2149SOL     OW 6445   3.243   4.803   5.453  0.3559 -0.3132  0.8576
 2149SOL    HW1 6446   3.212   4.884   5.491  0.0930 -1.0428  2.2610
 2149SOL    HW2 6447   3.297   4.830   5.378 -0.1491  1.1075  0.9886
 2150SOL     OW 6448   4.649   2.813   6.381  0.5488 -0.0590 -0.0474
 2150SOL    HW1 6449   4.559   2.787   6.357  1.0756 -1.6459 -0.4285
 2150SOL    HW2 6450   4.650   2.908   6.368 -1.0181 -0.0259 -0.2341
 2151SOL     OW 6451   2.101   4.900   5.643  0.1138 -0.4841  0.2673
 2151SOL    HW1 6452   2.055   4.979   5.615 -0.4798 -0.7583  0.4446
 2151SOL    HW2 6453   2.080   4.834   5.577  0.4786 -0.5380  0.2026
 2152SOL     OW 6454   1.378   2.013   4.957  0.0965  0.1861 -0.0615
 2152SOL    HW1 6455   1.335   2.058   4.885  0.6062  0.7006 -0.0559
 2152SOL    HW2 6456   1.327   2.038   5.035  2.1349  3.4152  0.4640
 2153SOL     OW 6457   0.668   1.248   5.648  0.0948 -0.2074  0.2396
 2153SOL    HW1 6458   0.675   1.333   5.605 -0.6306 -0.4738 -0.4406
 2153SOL    HW2 6459   0.753   1.207   5.635  0.1987  0.1119 -0.0947
 2154SOL     OW 6460   1.791   3.037   5.997 -0.3050 -0.3575 -0.2598
 2154SOL    HW1 6461   1.739   2.958   6.012 -0.0218 -1.0207 -2.4401
 2154SOL    HW2 6462   1.873   3.006   5.961  0.2549  0.8857 -0.1207
 2155SOL     OW 6463   2.710   2.236   4.989  0.6575  0.2699 -0.1517
 2155SOL    HW1 6464   2.619   2.266   4.986  0.0754 -1.0492  1.9836
 2155SOL    HW2 6465   2.710   2.155   4.937  0.1992 -0.5514  1.0692
 2156SOL     OW 6466   0.368   4.233   6.047  0.2570 -0.4039 -0.3819
 2156SOL    HW1 6467   0.396   4.215   6.137  0.9003 -1.8462 -0.8464
 2156SOL    HW2 6468   0.321   4.316   6.053 -1.1879 -1.2830  1.5780
 2157SOL     OW 6469   2.694   3.068   6.281  0.2229 -0.3913  0.1700
 2157SOL    HW1 6470   2.751   3.114   6.219 -1.8438  1.7493 -0.2615
 2157SOL    HW2 6471   2.606   3.086   6.250 -0.7681 -2.5469  1.5486
 2158SOL     OW 6472   3.764   0.567   4.930  0.2872  0.2354 -0.3825
 2158SOL    HW1 6473   3.719   0.544   5.012  1.9120 -0.6436  0.3049
 2158SOL    HW2 6474   3.764   0.663   4.929 -1.9842  0.2868 -0.6653
 2159SOL     OW 6475   3.806   3.777   5.775 -0.3445  0.0790 -0.4454
 2159SOL    HW1 6476   3.792   3.685   5.798  1.7305 -0.7469 -2.1841
 2159SOL    HW2 6477   3.899   3.783   5.755 -0.2357  2.7964  0.4548
 2160SOL     OW 6478   4.859   3.212   5.388  0.0780 -0.1138 -0.3039
 2160SOL    HW1 6479   4.858   3.295   5.435  3.9062  0.3565 -0.7213
 2160SOL    HW2 6480   4.847   3.236   5.296 -0.5480 -0.2622 -0.2678
 2161SOL     OW 6481   2.502   1.040   5.390  0.1492  0.5144 -0.0020
 2161SOL    HW1 6482   2.482   0.999   5.474 -0.5258  1.4756  0.3285
 2161SOL    HW2 6483   2.497   0.969   5.326  0.3249 -0.1553  0.7248
 2162SOL     OW 6484   2.542   1.225   6.862 -0.2714 -0.1577 -0.2594
 2162SOL    HW1 6485   2.574   1.315   6.869 -2.7072  1.1428 -3.2680
 2162SOL    HW2 6486   2.484   1.215   6.937  1.3180  0.1147  1.0514
 2163SOL     OW 6487   0.976   0.144   6.256 -0.4159  0.8697 -0.3587
 2163SOL    HW1 6488   0.994   0.237   6.267 -1.5143  1.0894 -0.2538
 2163SOL    HW2 6489   0.892   0.131   6.301 -0.3450 -0.1354 -0.5003
 2164SOL     OW 6490   2.913   1.884   6.240  0.0404  0.2687  0.0222
 2164SOL    HW1 6491   2.860   1.807   6.222  0.6665 -0.3677  0.7982
 2164SOL    HW2 6492   2.891   1.908   6.330  0.2665  0.6566 -0.0228
 2165SOL     OW 6493   2.785   2.788   5.826  0.0301 -0.4298  0.6989
 2165SOL    HW1 6494   2.719   2.787   5.895 -0.0277  0.8159  0.6962
 2165SOL    HW2 6495   2.853   2.727   5.856 -0.7243 -1.0852  1.0972
 2166SOL     OW 6496   3.611   1.272   7.548  0.2098 -0.5519  0.1652
 2166SOL    HW1 6497   3.609   1.177   7.551 -0.8627 -0.6840 -2.1454
 2166SOL    HW2 6498   3.663   1.298   7.624  1.6657 -3.0062  0.1066
 2167SOL     OW 6499   2.750   2.487   6.511 -0.7639 -0.4461 -0.3834
 2167SOL    HW1 6500   2.793   2.421   6.456 -0.1633 -1.1593  0.8834
 2167SOL    HW2 6501   2.817   2.555   6.523 -1.2705  0.2484 -1.4174
 2168SOL     OW 6502   3.674   4.709   5.800  0.0980  0.2681 -0.4381
 2168SOL    HW1 6503   3.701   4.646   5.734  1.9556  0.7404 -0.1700
 2168SOL    HW2 6504   3.748   4.714   5.861 -1.2744  0.3638  1.3109
 2169SOL     OW 6505   3.024   2.090   5.492  0.1136 -0.7353  0.8080
 2169SOL    HW1 6506   3.031   2.121   5.402  2.5565 -0.6620  0.9537
 2169SOL    HW2 6507   3.008   1.996   5.483 -0.3203 -0.6209  0.3125
 2170SOL     OW 6508   0.449   1.702   4.796  0.2201 -0.1724 -0.0202
 2170SOL    HW1 6509   0.392   1.624   4.800 -0.3530  0.2461  0.1126
 2170SOL    HW2 6510   0.510   1.683   4.725 -1.4800  0.2838 -1.7056
 2171SOL     OW 6511   3.699   2.895   5.154 -0.1440  0.1331  0.3504
 2171SOL    HW1 6512   3.673   2.808   5.186 -1.8430  0.9964  1.4369
 2171SOL    HW2 6513   3.641   2.956   5.200 -0.1160  1.7413 -1.6397
 2172SOL     OW 6514   2.261   4.599   5.198  0.3518 -0.5637  0.2916
 2172SOL    HW1 6515   2.184   4.588   5.142  0.9379  1.8433 -1.1286
 2172SOL    HW2 6516   2.306   4.514   5.195 -1.0923 -1.3373 -0.5843
 2173SOL     OW 6517   3.488   1.804   5.877 -0.4395  0.2438  0.2583
 2173SOL    HW1 6518   3.580   1.788   5.897 -0.6251  0.1608  1.0569
 2173SOL    HW2 6519   3.458   1.863   5.946 -0.6399  1.3750 -0.7687
 2174SOL     OW 6520   2.856   1.224   6.702  0.2465  0.2318 -0.4038
 2174SOL    HW1 6521   2.793   1.160   6.669  0.2822  0.3088 -0.6225
 2174SOL    HW2 6522   2.835   1.233   6.795  1.4371 -1.5035  0.0714
 2175SOL     OW 6523   2.258   2.803   6.098 -0.1717 -0.2009  0.2632
 2175SOL    HW1 6524   2.288   2.718   6.130 -1.0567 -0.3184  0.8255
 2175SOL    HW2 6525   2.321   2.866   6.133  0.9046 -0.6841 -0.7574
 2176SOL     OW 6526   4.602   4.664   7.133 -0.6314  0.1796 -0.0028
 2176SOL    HW1 6527   4.511   4.686   7.112 -0.3348  0.5666 -0.9441
 2176SOL    HW2 6528   4.621   4.587   7.080 -0.5859 -0.2661  0.6484
 2177SOL     OW 6529   4.003   1.049   5.417 -0.1418 -0.3221  0.1596
 2177SOL    HW1 6530   4.041   1.126   5.374  1.2021 -1.0245  0.0473
 2177SOL    HW2 6531   3.990   1.077   5.507 -0.9519  0.4638 -0.1786
 2178SOL     OW 6532   4.747   3.585   6.186 -0.2085  0.0808 -0.2412
 2178SOL    HW1 6533   4.813   3.574   6.118 -1.0740 -2.9636 -0.7391
 2178SOL    HW2 6534   4.753   3.505   6.239 -2.1497  0.6241  0.9136
 2179SOL     OW 6535   0.388   4.249   5.027 -0.0873 -0.4624 -0.1425
 2179SOL    HW1 6536   0.394   4.299   4.945 -1.2872  0.1795  0.1322
 2179SOL    HW2 6537   0.313   4.191   5.014 -1.7960  1.2696  1.2874
 2180SOL     OW 6538   4.172   0.507   6.657 -0.4310 -0.3425  0.1616
 2180SOL    HW1 6539   4.153   0.575   6.592 -1.3705  0.4986  1.2929
 2180SOL    HW2 6540   4.163   0.550   6.741  0.0162 -1.6142  0.8876
 2181SOL     OW 6541   0.408   1.788   5.175  0.2136  0.0975 -1.1319
 2181SOL    HW1 6542   0.344   1.726   5.209  0.9373 -0.3866 -0.6263
 2181SOL    HW2 6543   0.463   1.810   5.250 -0.3273  1.7399 -1.1849
 2182SOL     OW 6544   3.075   3.103   6.755 -0.1953  0.2500  0.5220
 2182SOL    HW1 6545   3.084   3.036   6.822 -1.9741  0.4936  1.0400
 2182SOL    HW2 6546   3.037   3.179   6.800 -1.1690  0.5127 -0.6669
 2183SOL     OW 6547   3.722   0.333   6.039 -0.1805  0.6269 -0.8250
 2183SOL    HW1 6548   3.769   0.318   6.122 -1.3024 -0.5246 -0.3644
 2183SOL    HW2 6549   3.747   0.259   5.984 -1.0555  0.2785 -0.7568
 2184SOL     OW 6550   3.077   1.383   6.243  0.1034 -0.1325 -0.6436
 2184SOL    HW1 6551   3.090   1.321   6.315  1.5367 -0.3341 -1.0496
 2184SOL    HW2 6552   3.148   1.364   6.181  0.9383  2.2355 -0.5412
 2185SOL     OW 6553   4.046   2.344   5.338  0.1675  0.6064  0.2601
 2185SOL    HW1 6554   4.069   2.434   5.361  1.9583  1.1775 -3.1912
 2185SOL    HW2 6555   3.978   2.353   5.271  0.0118 -0.6338  0.2341
 2186SOL     OW 6556   1.559   0.417   4.952 -0.1529 -0.0840 -0.8632
 2186SOL    HW1 6557   1.648   0.401   4.921  1.7031  1.3152  3.0210
 2186SOL    HW2 6558   1.525   0.330   4.974  0.0817 -0.6578 -2.6550
 2187SOL     OW 6559   0.111   1.769   5.750 -0.1539  0.3724 -0.5644
 2187SOL    HW1 6560   0.156   1.847   5.781  3.3061 -2.4056  2.2289
 2187SOL    HW2 6561   0.025   1.773   5.791  0.3303  2.1698  0.3749
 2188SOL     OW 6562   2.067   2.377   5.699 -0.2581 -0.5259  0.0108
 2188SOL    HW1 6563   2.093   2.462   5.662  0.2696 -0.5143  0.3939
 2188SOL    HW2 6564   2.006   2.341   5.636 -0.1794 -0.0349 -0.3532
 2189SOL     OW 6565   3.027   2.135   6.146  0.5219 -0.5491 -0.1237
 2189SOL    HW1 6566   3.084   2.141   6.069  1.0405 -0.2067  0.2803
 2189SOL    HW2 6567   2.982   2.052   6.137  1.0933 -0.8261 -0.4468
 2190SOL     OW 6568   2.701   2.162   6.419 -0.1865  0.6191  0.9495
 2190SOL    HW1 6569   2.622   2.179   6.471 -0.3332  0.4699  0.7760
 2190SOL    HW2 6570   2.668   2.123   6.338  0.2021 -1.1819  1.6294
 2191SOL     OW 6571   1.030   3.764   6.087  0.3707 -0.1757 -0.3039
 2191SOL    HW1 6572   0.977   3.784   6.164  0.3068  0.0437 -0.4046
 2191SOL    HW2 6573   0.988   3.688   6.047 -0.1443  0.2906 -0.6520
 2192SOL     OW 6574   4.294   4.785   9.531  0.3315  0.3324 -0.0077
 2192SOL    HW1 6575   4.235   4.735   9.474  2.5190 -1.0404 -1.1862
 2192SOL    HW2 6576   4.354   4.828   9.471  2.2953 -0.6161  1.1706
 2193SOL     OW 6577   0.851   3.736   6.678 -1.0854 -0.1661 -0.1553
 2193SOL    HW1 6578   0.829   3.694   6.595  1.7187  0.0879 -1.1071
 2193SOL    HW2 6579   0.867   3.828   6.655  0.7079 -0.2986  0.4350
 2194SOL     OW 6580   4.092   0.931   5.059 -0.4472  0.1660 -0.4762
 2194SOL    HW1 6581   4.084   1.026   5.056  0.6369  0.3209  0.5206
 2194SOL    HW2 6582   4.181   0.916   5.091 -1.3759 -1.1334  1.7727
 2195SOL     OW 6583   2.364   1.152   7.725  0.0807 -0.6773  0.1875
 2195SOL    HW1 6584   2.452   1.158   7.761  0.0385 -3.0335  0.8676
 2195SOL    HW2 6585   2.362   1.217   7.655  2.1554 -0.1821  0.5203
 2196SOL     OW 6586   2.692   4.531   5.270 -0.0001 -0.3174  0.1500
 2196SOL    HW1 6587   2.718   4.570   5.353  0.9104  0.0093 -0.2819
 2196SOL    HW2 6588   2.773   4.497   5.233 -0.5368 -1.2493 -0.2004
 2197SOL     OW 6589   4.570   1.248   5.746  0.0835  0.2481  0.3500
 2197SOL    HW1 6590   4.660   1.276   5.733 -0.3696  1.3254 -0.5849
 2197SOL    HW2 6591   4.566   1.222   5.838  1.4944 -0.4119  0.2457
 2198SOL     OW 6592   1.881   3.277   5.347 -0.3865 -0.8075  0.1340
 2198SOL    HW1 6593   1.865   3.324   5.429 -0.2344 -1.7292  0.7012
 2198SOL    HW2 6594   1.873   3.185   5.370  1.6531 -1.1841 -0.4296
 2199SOL     OW 6595   3.928   2.226   7.913  0.2199 -0.8942  0.1397
 2199SOL    HW1 6596   4.010   2.217   7.864 -0.8269 -2.0792 -1.5043
 2199SOL    HW2 6597   3.907   2.136   7.940  0.0944 -0.4290  1.6888
 2200SOL     OW 6598   3.412   2.965   8.455  0.0249  0.1208 -0.0888
 2200SOL    HW1 6599   3.464   2.951   8.534 -0.8884  0.5565  0.6052
 2200SOL    HW2 6600   3.362   3.044   8.473 -1.2557 -0.5702 -0.5385
 2201SOL     OW 6601   0.555   2.005   6.205 -0.1745 -0.1696 -0.6035
 2201SOL    HW1 6602   0.489   2.026   6.271 -0.8281 -3.3970 -0.0367
 2201SOL    HW2 6603   0.505   1.991   6.125  0.1871  0.2324 -0.9014
 2202SOL     OW 6604   0.868   4.596   5.426  0.0182 -0.2490  0.3569
 2202SOL    HW1 6605   0.916   4.561   5.351 -0.8870  2.2570 -1.5501
 2202SOL    HW2 6606   0.905   4.551   5.502  1.9413 -1.9190 -1.4557
 2203SOL     OW 6607   4.466   0.439   6.400 -0.1975 -0.2063  0.1412
 2203SOL    HW1 6608   4.539   0.383   6.429  2.2801  0.4841 -3.8334
 2203SOL    HW2 6609   4.414   0.382   6.343 -0.4270  0.3049 -0.1672
 2204SOL     OW 6610   1.482   3.675   8.526  0.4286  0.1228  0.2225
 2204SOL    HW1 6611   1.521   3.662   8.440 -1.6588  1.7618 -1.0765
 2204SOL    HW2 6612   1.388   3.673   8.510 -0.0112  0.5450  2.4597
 2205SOL     OW 6613   0.616   3.074   7.301 -0.5414 -0.9057 -0.1646
 2205SOL    HW1 6614   0.560   3.003   7.334 -2.7472  0.2717 -1.1916
 2205SOL    HW2 6615   0.694   3.030   7.268  0.1756 -2.4595  3.1299
 2206SOL     OW 6616   0.800   3.120   6.629  0.3877 -0.0561 -0.0323
 2206SOL    HW1 6617   0.788   3.209   6.660  1.1063 -0.1835  0.6415
 2206SOL    HW2 6618   0.853   3.077   6.697 -1.5362 -1.5407  0.6342
 2207SOL     OW 6619   3.547   3.184   6.171 -0.4501 -0.3604  0.1561
 2207SOL    HW1 6620   3.473   3.124   6.174 -0.1139 -0.7683  2.7490
 2207SOL    HW2 6621   3.599   3.162   6.248  0.5271  2.2131  0.3350
 2208SOL     OW 6622   0.034   3.870   5.830 -0.3572 -0.4165 -0.3800
 2208SOL    HW1 6623   0.109   3.909   5.874  0.7408 -0.4152 -2.1639
 2208SOL    HW2 6624   0.038   3.777   5.853  0.5496 -0.5217 -0.9196
 2209SOL     OW 6625   1.801   2.722   7.986  0.5899 -0.2447 -0.5037
 2209SOL    HW1 6626   1.783   2.739   8.079 -0.8232  1.4335 -1.0287
 2209SOL    HW2 6627   1.880   2.667   7.986  0.8979  0.1209  1.6635
 2210SOL     OW 6628   4.360   0.718   4.917  0.9703 -0.2281  0.4124
 2210SOL    HW1 6629   4.335   0.630   4.946  0.8080 -0.2376  0.2484
 2210SOL    HW2 6630   4.277   0.766   4.916  1.1020  0.0060  0.7786
 2211SOL     OW 6631   3.518   3.344   6.660  0.3007 -0.0175  0.5810
 2211SOL    HW1 6632   3.447   3.280   6.657  0.5318 -0.2474 -0.2294
 2211SOL    HW2 6633   3.475   3.427   6.680  0.3494 -0.9094  5.9913
 2212SOL     OW 6634   2.845   1.881   6.506  0.5409  0.2299 -0.0554
 2212SOL    HW1 6635   2.779   1.929   6.558 -0.1635 -0.9471  0.1800
 2212SOL    HW2 6636   2.926   1.892   6.555  0.0620 -0.1299  0.8492
 2213SOL     OW 6637   4.181   3.123   6.236 -0.5394 -0.2248 -0.6267
 2213SOL    HW1 6638   4.219   3.084   6.315 -3.0723 -1.5867  0.0122
 2213SOL    HW2 6639   4.127   3.195   6.269  1.1585  1.5364 -1.4997
 2214SOL     OW 6640   0.425   4.577   5.021  1.0636 -0.1688  0.0568
 2214SOL    HW1 6641   0.516   4.586   5.049  1.0541  0.0921  0.0008
 2214SOL    HW2 6642   0.379   4.545   5.099  1.2520 -0.5645  0.0086
 2215SOL     OW 6643   4.786   0.148   6.519  0.2996 -0.2831 -0.3857
 2215SOL    HW1 6644   4.783   0.148   6.424 -2.2395 -0.6948 -0.3487
 2215SOL    HW2 6645   4.726   0.218   6.545 -0.1721 -1.1322  0.9139
 2216SOL     OW 6646   2.827   2.718   7.237  0.1099  0.0173  0.4422
 2216SOL    HW1 6647   2.846   2.809   7.217 -0.8346 -0.0130 -0.6787
 2216SOL    HW2 6648   2.822   2.715   7.333 -0.1031  1.1917  0.4803
 2217SOL     OW 6649   2.359   0.872   8.282  0.5265 -0.1609 -0.5461
 2217SOL    HW1 6650   2.349   0.813   8.357  1.0355 -0.7730 -0.9516
 2217SOL    HW2 6651   2.310   0.830   8.212  0.3730  0.2183 -0.6697
 2218SOL     OW 6652   2.780   0.598   4.835  0.3395 -0.6652  0.7807
 2218SOL    HW1 6653   2.739   0.619   4.919 -0.6737  0.7483 -0.0275
 2218SOL    HW2 6654   2.783   0.681   4.787  1.1915 -1.3730 -0.4662
 2219SOL     OW 6655   3.877   4.686   5.044  0.2614 -0.4532  0.1803
 2219SOL    HW1 6656   3.973   4.687   5.039  0.4470  2.2430  1.8772
 2219SOL    HW2 6657   3.849   4.749   4.977 -0.3715 -1.1905 -0.2742
 2220SOL     OW 6658   0.815   1.744   7.666  0.7294  0.1351  1.0272
 2220SOL    HW1 6659   0.851   1.801   7.598  1.1287 -0.5882  0.6230
 2220SOL    HW2 6660   0.892   1.710   7.712  0.4799  0.2402  1.5301
 2221SOL     OW 6661   4.493   2.763   7.955 -0.0774  0.6792 -0.4544
 2221SOL    HW1 6662   4.485   2.667   7.954 -1.2151  0.7387  0.5290
 2221SOL    HW2 6663   4.579   2.780   7.918  0.8201 -0.8222  0.8085
 2222SOL     OW 6664   0.581   2.248   5.506  0.8348  0.8131 -0.6322
 2222SOL    HW1 6665   0.565   2.314   5.574  0.3328 -2.2350  2.5277
 2222SOL    HW2 6666   0.494   2.221   5.478  1.0341  2.5650 -3.2400
 2223SOL     OW 6667   4.228   3.648   5.522  0.3613  0.4862 -0.2951
 2223SOL    HW1 6668   4.184   3.671   5.440  1.1092 -1.2013 -1.2203
 2223SOL    HW2 6669   4.159   3.652   5.588 -1.3567 -2.3520 -1.7327
 2224SOL     OW 6670   3.019   0.203   6.044 -0.0125 -0.7240  0.3247
 2224SOL    HW1 6671   2.925   0.215   6.032  0.0150 -0.6848  0.1349
 2224SOL    HW2 6672   3.033   0.109   6.033 -0.1677 -0.8832  1.3824
 2225SOL     OW 6673   4.197   3.174   5.340 -0.0504  0.3993  0.2343
 2225SOL    HW1 6674   4.125   3.193   5.400  0.8166  0.0918  1.3960
 2225SOL    HW2 6675   4.159   3.114   5.275 -1.2184  1.3838 -0.0330
 2226SOL     OW 6676   4.217   2.062   9.771 -0.6047 -0.2935  0.4291
 2226SOL    HW1 6677   4.283   2.132   9.770 -2.1160  1.2421 -2.2754
 2226SOL    HW2 6678   4.150   2.093   9.831 -1.4498  0.8376 -1.0451
 2227SOL     OW 6679   1.530   0.465   6.480 -0.1731 -0.0660 -0.4874
 2227SOL    HW1 6680   1.481   0.525   6.425 -0.7751 -0.0110  0.1021
 2227SOL    HW2 6681   1.560   0.396   6.421 -2.0563 -0.7919 -0.6454
 2228SOL     OW 6682   4.108   4.698   5.298  0.7261 -0.4156  0.5725
 2228SOL    HW1 6683   4.045   4.769   5.295  2.2714  1.0685  1.4446
 2228SOL    HW2 6684   4.151   4.700   5.212  0.1893 -0.8924  0.2817
 2229SOL     OW 6685   0.090   2.664   6.668  0.4990  0.7592  0.0642
 2229SOL    HW1 6686   0.147   2.659   6.592 -1.1618  0.3159 -1.2159
 2229SOL    HW2 6687   0.040   2.745   6.655 -1.4445 -0.4748 -0.6016
 2230SOL     OW 6688   4.406   1.768   8.385  0.6669 -0.5641  0.6126
 2230SOL    HW1 6689   4.390   1.863   8.386  1.7168 -0.3732  0.4163
 2230SOL    HW2 6690   4.487   1.757   8.435  0.9828 -1.2755 -0.0405
 2231SOL     OW 6691   4.117   1.821   6.787  0.2470  0.3304  0.5514
 2231SOL    HW1 6692   4.055   1.869   6.842  0.5144 -0.7129  1.7953
 2231SOL    HW2 6693   4.063   1.759   6.738  0.3424 -1.4533  2.5462
 2232SOL     OW 6694   1.856   3.604   6.790 -0.2990 -0.0700  0.2640
 2232SOL    HW1 6695   1.900   3.642   6.714  0.5646 -0.0056  0.7837
 2232SOL    HW2 6696   1.808   3.529   6.755 -3.4016  2.3262 -1.1001
 2233SOL     OW 6697   1.996   3.951   4.943 -0.3994  0.1876 -0.1334
 2233SOL    HW1 6698   2.005   3.935   4.849  1.2863 -0.4279  0.0971
 2233SOL    HW2 6699   2.060   4.020   4.961 -3.0965  2.8796  0.0263
 2234SOL     OW 6700   4.402   3.964   4.976 -0.4138  0.2809  0.2364
 2234SOL    HW1 6701   4.417   3.885   5.027  1.6223  0.0244 -0.6333
 2234SOL    HW2 6702   4.360   3.933   4.896  0.8061 -0.0376 -0.3088
 2235SOL     OW 6703   2.643   0.123   5.071  0.1442 -0.4229 -0.0846
 2235SOL    HW1 6704   2.688   0.208   5.082  0.4073 -0.2178 -2.3053
 2235SOL    HW2 6705   2.668   0.094   4.983 -3.6448 -0.5486 -1.3047
 2236SOL     OW 6706   0.057   2.440   6.246 -0.1615 -0.0963 -0.3953
 2236SOL    HW1 6707   0.023   2.439   6.156 -3.1055 -1.4240  0.5939
 2236SOL    HW2 6708  -0.012   2.483   6.296 -0.6157 -3.0744  1.8042
 2237SOL     OW 6709   2.465   4.251   4.540  0.5459  0.1519 -0.6578
 2237SOL    HW1 6710   2.439   4.337   4.576  0.3053 -0.7893  1.6223
 2237SOL    HW2 6711   2.560   4.258   4.528  0.1740  1.7299 -3.6008
 2238SOL     OW 6712   0.637   3.693   5.104  0.0056 -0.3120 -0.2951
 2238SOL    HW1 6713   0.667   3.768   5.053 -1.0699 -0.3939 -1.0880
 2238SOL    HW2 6714   0.593   3.637   5.040  2.2292 -2.4855 -0.0925
 2239SOL     OW 6715   2.361   2.545   6.222 -0.0554 -0.7300 -0.4120
 2239SOL    HW1 6716   2.420   2.517   6.292  0.0380 -0.9749 -0.5894
 2239SOL    HW2 6717   2.329   2.464   6.183 -0.0920 -0.5949 -0.6682
 2240SOL     OW 6718   4.888   3.080   6.068  0.1431  0.0126 -0.0291
 2240SOL    HW1 6719   4.794   3.100   6.071 -0.0751 -0.7137 -1.4025
 2240SOL    HW2 6720   4.896   2.997   6.116  0.1687  0.2959  0.4709
 2241SOL     OW 6721   1.814   3.288   4.877 -0.2230  0.2247  0.0938
 2241SOL    HW1 6722   1.733   3.332   4.900 -2.6653 -2.9918 -1.6026
 2241SOL    HW2 6723   1.838   3.238   4.955 -0.2971  0.5643  0.3351
 2242SOL     OW 6724   3.065   1.552   5.690 -0.2156 -0.0237 -0.2097
 2242SOL    HW1 6725   3.141   1.496   5.676  0.3999  0.1431  2.1126
 2242SOL    HW2 6726   3.004   1.498   5.740  0.2780  1.2095  1.8438
 2243SOL     OW 6727   3.311   1.059   5.903 -0.0085  0.1871 -0.1869
 2243SOL    HW1 6728   3.314   1.055   5.807 -0.4874  2.0010 -0.3052
 2243SOL    HW2 6729   3.266   0.979   5.929  2.1856 -1.5262 -1.3078
 2244SOL     OW 6730   0.772   4.458   7.861  0.3619 -0.1567  0.1727
 2244SOL    HW1 6731   0.745   4.541   7.899  1.3805  0.5295 -0.5602
 2244SOL    HW2 6732   0.767   4.395   7.933 -1.5698  0.2675  0.4452
 2245SOL     OW 6733   0.426   0.591   5.513 -0.1900 -0.3225  0.0465
 2245SOL    HW1 6734   0.331   0.596   5.505 -0.0805 -0.2474 -1.7382
 2245SOL    HW2 6735   0.455   0.682   5.504 -0.0033 -0.1174  2.2642
 2246SOL     OW 6736   2.762   3.013   5.255  0.1208  0.0619 -0.2263
 2246SOL    HW1 6737   2.702   3.050   5.190  0.2880  2.4670  0.8923
 2246SOL    HW2 6738   2.849   3.030   5.219  0.2755 -3.2476 -1.7535
 2247SOL     OW 6739   1.994   3.717   6.594 -0.1589 -0.4447 -0.5168
 2247SOL    HW1 6740   1.966   3.793   6.544 -2.3920 -0.0687  1.1036
 2247SOL    HW2 6741   2.044   3.664   6.533 -0.8540  1.0326 -2.4553
 2248SOL     OW 6742   1.936   2.023   5.817  0.3257 -0.1930 -0.5036
 2248SOL    HW1 6743   1.841   2.020   5.826  0.1272  1.7989 -1.2273
 2248SOL    HW2 6744   1.968   2.051   5.903  0.3145 -1.2981 -0.1303
 2249SOL     OW 6745   3.996   3.486   6.496 -0.4324 -0.1750  0.3171
 2249SOL    HW1 6746   3.925   3.539   6.460 -0.6034 -0.1584  0.6707
 2249SOL    HW2 6747   4.027   3.434   6.423 -0.9992 -0.3902  0.2260
 2250SOL     OW 6748   4.244   4.621   7.830  0.2375  0.1055 -0.2570
 2250SOL    HW1 6749   4.248   4.661   7.743  0.1664  0.8754  0.0929
 2250SOL    HW2 6750   4.166   4.565   7.827  0.1818  0.2050 -0.6578
 2251SOL     OW 6751   3.367   0.865   7.189  0.3377  0.3201 -0.4904
 2251SOL    HW1 6752   3.383   0.905   7.104 -2.3884  1.6585 -0.4716
 2251SOL    HW2 6753   3.311   0.789   7.171  1.3844 -0.5972 -0.0346
 2252SOL     OW 6754   4.214   2.885   5.833  0.3691  0.3361 -0.2471
 2252SOL    HW1 6755   4.244   2.951   5.896  2.6990 -1.4351  0.6407
 2252SOL    HW2 6756   4.281   2.885   5.765  0.3628 -1.0474 -0.2687
 2253SOL     OW 6757   3.523   4.008   6.673  0.0389 -0.2389  0.5167
 2253SOL    HW1 6758   3.561   4.066   6.608  0.1024 -1.1704 -0.3024
 2253SOL    HW2 6759   3.548   4.046   6.758 -2.5131  2.6805  0.1251
 2254SOL     OW 6760   0.726   4.580   6.015  0.4052 -0.5980 -0.1985
 2254SOL    HW1 6761   0.739   4.640   6.088  1.8613 -1.5797  0.3936
 2254SOL    HW2 6762   0.631   4.567   6.011  0.2294  0.2280  0.8876
 2255SOL     OW 6763   4.085   1.057   8.413  0.1917 -0.5598 -0.8438
 2255SOL    HW1 6764   4.104   1.001   8.488 -0.3444  0.8265  0.3861
 2255SOL    HW2 6765   3.990   1.051   8.401  0.2540 -0.6567 -1.3131
 2256SOL     OW 6766   4.688   2.990   5.442 -0.3996 -0.2110  0.0853
 2256SOL    HW1 6767   4.783   2.986   5.431 -0.6122 -2.3437 -1.9755
 2256SOL    HW2 6768   4.664   3.078   5.412  0.7993 -0.1855 -0.8789
 2257SOL     OW 6769   1.287   3.516   6.048  0.6522  0.5933 -0.6260
 2257SOL    HW1 6770   1.271   3.609   6.061 -2.3490 -0.0777  1.7053
 2257SOL    HW2 6771   1.340   3.490   6.123  1.7638  0.4219 -1.4427
 2258SOL     OW 6772   4.244   3.649   7.512 -0.0160  0.3128  0.0290
 2258SOL    HW1 6773   4.247   3.716   7.443  1.8100 -0.0326 -0.2741
 2258SOL    HW2 6774   4.229   3.567   7.464 -3.1255  0.4972  0.4661
 2259SOL     OW 6775   1.198   1.743   5.590 -0.8947 -0.0319 -0.2126
 2259SOL    HW1 6776   1.132   1.801   5.551 -0.4772 -1.3442 -3.2261
 2259SOL    HW2 6777   1.165   1.655   5.571 -0.4051 -0.8072  2.2271
 2260SOL     OW 6778   1.352   2.072   7.641  0.3049 -0.1714 -0.8637
 2260SOL    HW1 6779   1.426   2.100   7.586  1.1315 -0.4597  0.0567
 2260SOL    HW2 6780   1.372   2.109   7.727 -0.0530 -1.1782 -0.3292
 2261SOL     OW 6781   1.080   4.845   5.677 -0.2337  0.4308 -0.3435
 2261SOL    HW1 6782   1.129   4.763   5.679 -0.1489  0.3942 -2.1261
 2261SOL    HW2 6783   0.988   4.819   5.674 -0.1821  0.2948 -2.3282
 2262SOL     OW 6784   2.509   3.125   5.946  1.1189  0.3608  0.2324
 2262SOL    HW1 6785   2.552   3.077   5.874  0.5971 -1.4254  1.0430
 2262SOL    HW2 6786   2.433   3.072   5.967  0.3234  1.7641  1.0058
 2263SOL     OW 6787   2.803   1.979   4.899  0.8722  0.0123  0.2915
 2263SOL    HW1 6788   2.820   1.893   4.937  1.8647  0.0229 -0.0934
 2263SOL    HW2 6789   2.831   1.970   4.808  1.2720  0.8409  0.3299
 2264SOL     OW 6790   4.510   0.943   6.387 -0.7259  0.2360  0.0306
 2264SOL    HW1 6791   4.457   0.964   6.464 -0.2003 -0.7304  0.6644
 2264SOL    HW2 6792   4.485   0.854   6.363 -1.3064  0.7287 -1.2845
 2265SOL     OW 6793   0.149   3.626   8.088  0.3417 -0.1485 -0.0113
 2265SOL    HW1 6794   0.186   3.683   8.021  0.4168 -0.3268 -0.1217
 2265SOL    HW2 6795   0.104   3.686   8.148  3.4853  0.4740  1.9383
 2266SOL     OW 6796   4.877   3.466   5.529 -0.6360  0.0618  0.0738
 2266SOL    HW1 6797   4.921   3.504   5.453 -1.5772  0.4458 -0.2945
 2266SOL    HW2 6798   4.941   3.473   5.600  0.5491 -0.9750 -0.8278
 2267SOL     OW 6799   1.617   3.958   5.965 -0.1161  0.3474 -0.3834
 2267SOL    HW1 6800   1.652   3.993   6.047  3.0966 -1.9999 -0.5408
 2267SOL    HW2 6801   1.626   4.030   5.902 -0.3987  1.4330  0.7827
 2268SOL     OW 6802   0.917   1.233   6.496 -0.2433  0.3094  0.3477
 2268SOL    HW1 6803   0.980   1.161   6.507 -1.1457 -0.4379  0.6893
 2268SOL    HW2 6804   0.963   1.295   6.440  1.0288  0.0397  1.0311
 2269SOL     OW 6805   0.676   4.502   7.189 -0.1927  0.4361 -0.4092
 2269SOL    HW1 6806   0.606   4.445   7.157  2.0732 -1.8405 -1.7547
 2269SOL    HW2 6807   0.646   4.591   7.170 -3.4934 -0.2527  0.8756
 2270SOL     OW 6808   4.444   1.671   5.275 -0.2496  0.3217  0.0318
 2270SOL    HW1 6809   4.367   1.671   5.219  0.9532  4.9095 -2.0968
 2270SOL    HW2 6810   4.432   1.746   5.333  1.8133  0.0905  0.8778
 2271SOL     OW 6811   1.652   0.461   6.732 -0.4803  0.7606  0.2079
 2271SOL    HW1 6812   1.594   0.455   6.655 -0.3140  0.8531  0.0745
 2271SOL    HW2 6813   1.604   0.416   6.801  0.4924 -1.6926 -0.6008
 2272SOL     OW 6814   1.428   3.719   6.216 -0.2378 -0.4607 -0.6852
 2272SOL    HW1 6815   1.517   3.746   6.192 -1.4584  2.4217 -2.3952
 2272SOL    HW2 6816   1.440   3.631   6.253  3.4849  0.3949  0.6259
 2273SOL     OW 6817   2.738   2.288   5.539  0.7967 -0.0241  0.2655
 2273SOL    HW1 6818   2.689   2.370   5.538  0.7966 -0.0260  0.1526
 2273SOL    HW2 6819   2.756   2.272   5.632 -0.9386 -0.9462  0.4677
 2274SOL     OW 6820   1.196   1.158   6.193 -0.6106 -0.3475  0.3987
 2274SOL    HW1 6821   1.285   1.134   6.219 -0.5162 -0.0676  0.3371
 2274SOL    HW2 6822   1.172   1.229   6.253  0.1868  1.3871 -1.2301
 2275SOL     OW 6823   2.605   2.420   7.968 -0.6648  0.5095 -0.2612
 2275SOL    HW1 6824   2.673   2.384   8.025 -0.8340  2.6550  1.4387
 2275SOL    HW2 6825   2.612   2.370   7.887  1.3636 -0.8928  0.7077
 2276SOL     OW 6826   1.974   3.697   6.114  0.2546 -0.0753  0.0764
 2276SOL    HW1 6827   1.879   3.710   6.119  0.2959  0.5298 -0.5558
 2276SOL    HW2 6828   1.985   3.602   6.108 -0.4579 -0.0854 -2.0680
 2277SOL     OW 6829   2.716   2.410   6.800  0.4071  0.8895  0.3332
 2277SOL    HW1 6830   2.635   2.430   6.753  0.3950 -2.7474 -1.5145
 2277SOL    HW2 6831   2.785   2.451   6.748  0.0032  1.8072  0.4880
 2278SOL     OW 6832   3.151   4.319   5.374 -0.8175  0.1342 -0.1867
 2278SOL    HW1 6833   3.198   4.245   5.412 -1.8290  0.0812  1.0335
 2278SOL    HW2 6834   3.117   4.367   5.449 -1.3020  1.0980 -0.9974
 2279SOL     OW 6835   4.605   2.798   6.030 -0.2772  0.2793  0.0977
 2279SOL    HW1 6836   4.646   2.711   6.041  0.2200  0.5156  0.1608
 2279SOL    HW2 6837   4.569   2.796   5.942  0.8313  0.4420 -0.3799
 2280SOL     OW 6838   4.953   4.893   7.401 -0.7556  0.1269  0.0621
 2280SOL    HW1 6839   5.045   4.919   7.411 -0.6951 -0.0273 -0.0806
 2280SOL    HW2 6840   4.936   4.900   7.307 -0.3074 -1.7255 -0.2078
 2281SOL     OW 6841   0.593   0.832   6.018  0.3957 -0.1539  0.1273
 2281SOL    HW1 6842   0.652   0.907   6.008  1.6831 -1.1207  0.2394
 2281SOL    HW2 6843   0.525   0.846   5.951  2.1345 -0.2689 -1.7596
 2282SOL     OW 6844   3.828   0.838   4.916 -0.4866 -0.4669 -0.1604
 2282SOL    HW1 6845   3.787   0.919   4.884 -0.6428  0.4625  2.1748
 2282SOL    HW2 6846   3.916   0.865   4.942 -1.0841 -0.5800  2.2157
 2283SOL     OW 6847   3.769   2.091   5.680  0.0389 -0.1501 -0.2601
 2283SOL    HW1 6848   3.775   2.095   5.585 -1.9660  2.8448 -0.4001
 2283SOL    HW2 6849   3.677   2.069   5.697  0.5248 -1.3621  1.0424
 2284SOL     OW 6850   1.809   0.934   6.950  0.0170 -0.0218 -0.2378
 2284SOL    HW1 6851   1.804   0.992   7.026 -1.3824  1.2896 -1.2646
 2284SOL    HW2 6852   1.868   0.978   6.889 -0.5830  0.0521 -0.7800
 2285SOL     OW 6853   2.970   3.435   6.419  0.5473 -1.0964 -0.0164
 2285SOL    HW1 6854   2.969   3.366   6.352  1.1575  0.0372 -1.2349
 2285SOL    HW2 6855   2.888   3.422   6.467 -0.5371 -1.2227 -1.7818
 2286SOL     OW 6856   3.120   2.656   6.332  0.4637  0.4046 -0.3085
 2286SOL    HW1 6857   3.068   2.635   6.254 -0.4248  1.1587  0.0607
 2286SOL    HW2 6858   3.208   2.669   6.299  0.4013 -0.7192 -0.9813
 2287SOL     OW 6859   3.893   1.994   5.424 -0.0375  0.9008 -0.8273
 2287SOL    HW1 6860   3.934   1.908   5.409 -1.5024 -0.8114  3.3517
 2287SOL    HW2 6861   3.824   1.999   5.359  0.5967 -0.7270 -1.6942
 2288SOL     OW 6862   1.729   2.599   6.126 -0.2851 -0.5620 -0.3866
 2288SOL    HW1 6863   1.822   2.606   6.101 -0.2068  0.1321  0.0848
 2288SOL    HW2 6864   1.710   2.681   6.171 -0.1720 -2.1058  2.7216
 2289SOL     OW 6865   1.032   1.625   7.781  0.5303 -0.0035  0.4845
 2289SOL    HW1 6866   1.102   1.562   7.764 -0.8504 -1.4447 -0.1181
 2289SOL    HW2 6867   0.967   1.575   7.831 -0.1742  1.2351  0.8409
 2290SOL     OW 6868   4.906   1.251   6.042 -0.1165  0.5072 -0.2601
 2290SOL    HW1 6869   4.961   1.267   5.965 -1.4188  0.4087 -1.2477
 2290SOL    HW2 6870   4.840   1.321   6.039  0.1147  0.7965  1.0592
 2291SOL     OW 6871   2.256   4.774   7.374 -0.0936 -0.0432 -0.1651
 2291SOL    HW1 6872   2.214   4.854   7.343  0.6223  0.0753 -0.8569
 2291SOL    HW2 6873   2.278   4.726   7.294  1.2755 -0.0013  0.1547
 2292SOL     OW 6874   2.183   3.760   5.174 -0.1642  0.5845 -1.2567
 2292SOL    HW1 6875   2.156   3.816   5.247  0.9625  0.5673 -0.7975
 2292SOL    HW2 6876   2.148   3.674   5.195  3.1355 -0.3964  1.2788
 2293SOL     OW 6877   3.624   2.617   6.663 -0.2318 -0.2819 -0.0533
 2293SOL    HW1 6878   3.641   2.671   6.586 -2.4238 -0.6360 -0.8360
 2293SOL    HW2 6879   3.550   2.659   6.706 -1.3690 -2.0842 -0.1596
 2294SOL     OW 6880   2.829   1.560   5.511 -0.1737 -0.5812 -0.8636
 2294SOL    HW1 6881   2.871   1.575   5.596 -1.9624  0.2363 -0.0712
 2294SOL    HW2 6882   2.846   1.641   5.463 -1.3091  0.0073 -0.3120
 2295SOL     OW 6883   0.363   1.229   6.584 -0.7726  1.3134 -0.2233
 2295SOL    HW1 6884   0.417   1.194   6.513 -2.1711  1.4208 -1.3778
 2295SOL    HW2 6885   0.412   1.306   6.615  2.9019 -1.8393  3.0499
 2296SOL     OW 6886   3.416   1.638   7.354 -0.7514 -0.0716 -0.3197
 2296SOL    HW1 6887   3.409   1.551   7.392 -1.5354  1.3461  3.1575
 2296SOL    HW2 6888   3.348   1.640   7.286 -1.8456 -1.6619  0.6630
 2297SOL     OW 6889   0.364   1.933   4.938 -0.1015  0.4744 -0.3256
 2297SOL    HW1 6890   0.373   1.874   4.864  0.9189 -1.3901  1.1875
 2297SOL    HW2 6891   0.383   1.879   5.015 -3.7635  1.5737  1.6199
 2298SOL     OW 6892   1.365   1.524   6.140 -0.6201 -0.1590 -0.0300
 2298SOL    HW1 6893   1.443   1.468   6.141 -0.3472  0.1729  2.0254
 2298SOL    HW2 6894   1.399   1.613   6.155 -1.2585  0.2439 -0.8864
 2299SOL     OW 6895   2.076   3.539   5.269  0.6275  0.2789  0.0747
 2299SOL    HW1 6896   2.060   3.526   5.363  0.8859  1.7459  0.3493
 2299SOL    HW2 6897   2.015   3.480   5.226 -0.0354  0.1401  1.1721
 2300SOL     OW 6898   4.194   2.104   5.453  0.5226 -0.0947  0.6486
 2300SOL    HW1 6899   4.177   2.179   5.396 -0.0783 -2.0415 -1.8942
 2300SOL    HW2 6900   4.114   2.053   5.450  1.9336 -2.3859 -0.2161
 2301SOL     OW 6901   4.413   0.160   4.982 -0.1405 -0.0553 -0.0898
 2301SOL    HW1 6902   4.344   0.160   4.916 -1.3862 -1.8991  1.1184
 2301SOL    HW2 6903   4.442   0.251   4.987 -2.0571  0.6569 -1.0781
 2302SOL     OW 6904   4.285   1.382   5.104 -0.3734  0.0698 -0.7010
 2302SOL    HW1 6905   4.378   1.377   5.082  1.5476  0.4188  5.5309
 2302SOL    HW2 6906   4.257   1.468   5.073  2.0309  0.8555 -0.9117
 2303SOL     OW 6907   2.548   4.689   5.090 -0.0922  0.2993 -0.3778
 2303SOL    HW1 6908   2.604   4.635   5.146 -0.9105 -0.3465 -0.1574
 2303SOL    HW2 6909   2.465   4.695   5.137  0.1050  2.1443 -0.1881
 2304SOL     OW 6910   0.055   1.723   7.648 -0.3607 -1.0046 -0.2511
 2304SOL    HW1 6911   0.048   1.816   7.670 -0.4948  0.2413 -4.6594
 2304SOL    HW2 6912  -0.036   1.692   7.644 -0.3286 -1.2979  0.8496
 2305SOL     OW 6913   1.111   3.927   5.151 -1.2263 -0.1065 -0.0791
 2305SOL    HW1 6914   1.173   3.885   5.211  0.2946  1.1471 -0.7077
 2305SOL    HW2 6915   1.032   3.872   5.155  0.7989 -3.4088 -1.2581
 2306SOL     OW 6916   2.304   1.868   6.082 -0.6493 -0.2835  0.0062
 2306SOL    HW1 6917   2.242   1.807   6.043 -0.8273 -2.1640  2.9188
 2306SOL    HW2 6918   2.255   1.951   6.089 -2.3360 -1.2921  0.7910
 2307SOL     OW 6919   3.125   4.730   6.292 -0.3894 -0.6847  0.0967
 2307SOL    HW1 6920   3.108   4.636   6.300 -2.0210 -0.4521 -0.1479
 2307SOL    HW2 6921   3.081   4.768   6.368  0.6282 -0.1453  0.4264
 2308SOL     OW 6922   1.081   2.115   7.664  0.1619 -0.7166 -0.8788
 2308SOL    HW1 6923   1.165   2.150   7.633 -0.7137  3.2552  0.5901
 2308SOL    HW2 6924   1.016   2.151   7.604 -0.7924  0.0407  0.5337
 2309SOL     OW 6925   3.336   2.492   7.664  0.2508 -0.0418  0.0931
 2309SOL    HW1 6926   3.328   2.586   7.677 -1.5510 -0.1075 -0.3927
 2309SOL    HW2 6927   3.382   2.462   7.743  0.2871  1.1501  0.5512
 2310SOL     OW 6928   1.722   2.150   6.406 -0.5595 -0.0586 -0.0327
 2310SOL    HW1 6929   1.657   2.131   6.338 -0.3537 -1.7097  0.1995
 2310SOL    HW2 6930   1.719   2.074   6.464  1.0014  0.2138  0.4383
 2311SOL     OW 6931   2.324   4.477   7.732 -0.6784  0.0952 -0.1313
 2311SOL    HW1 6932   2.263   4.405   7.748  0.9759 -2.1935 -3.0970
 2311SOL    HW2 6933   2.402   4.455   7.782 -0.4949  0.3761 -0.2908
 2312SOL     OW 6934   4.794   0.604   7.852  0.6390 -0.1427  0.0425
 2312SOL    HW1 6935   4.712   0.647   7.877  0.6548 -0.0023 -0.1427
 2312SOL    HW2 6936   4.846   0.673   7.810  0.5411 -0.4097 -0.5302
 2313SOL     OW 6937   0.067   4.593   6.957  0.6318  0.1484  0.1436
 2313SOL    HW1 6938  -0.015   4.642   6.956  0.1057 -0.6758  0.8916
 2313SOL    HW2 6939   0.044   4.507   6.921  1.5175  0.4072 -1.0864
 2314SOL     OW 6940   4.446   3.667   7.765 -0.1534 -0.2948 -0.5382
 2314SOL    HW1 6941   4.358   3.666   7.729 -0.2121  0.7179 -0.4535
 2314SOL    HW2 6942   4.473   3.759   7.761  1.1055 -0.6659 -1.0639
 2315SOL     OW 6943   0.196   0.013   7.416 -0.4534 -0.6573  0.4419
 2315SOL    HW1 6944   0.249   0.066   7.474 -0.5282 -1.8107  1.6085
 2315SOL    HW2 6945   0.257  -0.050   7.378 -0.5699 -0.4983 -0.0118
 2316SOL     OW 6946   4.510   0.582   9.739  0.4583 -0.2675 -0.5840
 2316SOL    HW1 6947   4.572   0.636   9.787 -0.5188 -0.1149  0.5343
 2316SOL    HW2 6948   4.426   0.625   9.750 -0.1725 -1.4765 -0.4867
 2317SOL     OW 6949   4.584   1.309   6.030 -0.0041  0.3591  0.1463
 2317SOL    HW1 6950   4.627   1.384   6.070 -1.1561  2.0968 -1.6923
 2317SOL    HW2 6951   4.509   1.290   6.087 -0.9899  2.0799 -0.5240
 2318SOL     OW 6952   1.712   1.370   7.421  0.4342 -0.3186  0.5435
 2318SOL    HW1 6953   1.749   1.281   7.430  0.3239 -0.5280 -0.8084
 2318SOL    HW2 6954   1.634   1.369   7.476  0.1307 -1.2476  0.1230
 2319SOL     OW 6955   4.087   2.802   8.366 -0.5440 -0.0207 -0.2412
 2319SOL    HW1 6956   4.064   2.895   8.370 -1.2513 -0.1915 -0.2440
 2319SOL    HW2 6957   4.177   2.801   8.334  1.7004  0.9626  4.9370
 2320SOL     OW 6958   4.776   1.693   7.536  0.6135 -0.1750 -0.6519
 2320SOL    HW1 6959   4.758   1.610   7.492 -2.2411  1.3064 -2.5716
 2320SOL    HW2 6960   4.715   1.695   7.610 -0.4268  0.7662 -1.4922
 2321SOL     OW 6961   2.112   4.517   7.427  0.4709 -0.2858  0.2203
 2321SOL    HW1 6962   2.179   4.584   7.419  0.0643  0.3172  1.6237
 2321SOL    HW2 6963   2.057   4.545   7.500 -0.8164 -1.2008 -0.3416
 2322SOL     OW 6964   3.131   2.944   6.348  0.4488  0.1665 -0.2239
 2322SOL    HW1 6965   3.065   2.881   6.375  2.6150 -1.8846  0.6467
 2322SOL    HW2 6966   3.122   3.017   6.410 -0.0840 -0.7344  0.7821
 2323SOL     OW 6967   1.377   1.420   6.439  0.4021  0.6152 -0.4464
 2323SOL    HW1 6968   1.463   1.460   6.429  1.1413 -0.5203  0.9056
 2323SOL    HW2 6969   1.325   1.456   6.367  1.5858  2.3806 -0.4793
 2324SOL     OW 6970   1.678   4.222  10.283 -0.5586 -0.7261 -0.0000
 2324SOL    HW1 6971   1.601   4.167  10.297 -2.1149  0.4548 -3.1581
 2324SOL    HW2 6972   1.728   4.177  10.214  0.8011 -0.6461  0.8767
 2325SOL     OW 6973   4.781   2.823   7.248  0.3414 -0.1875 -0.1768
 2325SOL    HW1 6974   4.823   2.766   7.183 -0.3734 -1.1028  0.1275
 2325SOL    HW2 6975   4.797   2.779   7.332  1.1005  0.8873  0.2681
 2326SOL     OW 6976   1.495   3.809   4.730  0.1217 -0.1333 -0.7098
 2326SOL    HW1 6977   1.399   3.816   4.727  0.1165 -0.0021 -0.2022
 2326SOL    HW2 6978   1.522   3.877   4.792  0.4913 -0.6751 -0.2730
 2327SOL     OW 6979   2.217   2.787   6.864  0.2305  0.3907 -0.7034
 2327SOL    HW1 6980   2.192   2.871   6.901 -0.2281  1.2209 -2.7239
 2327SOL    HW2 6981   2.134   2.748   6.836  0.2595 -1.5118  1.6289
 2328SOL     OW 6982   2.500   4.936   7.886  0.1904 -0.0860  0.6094
 2328SOL    HW1 6983   2.502   4.924   7.791  1.2422 -0.2065  0.6359
 2328SOL    HW2 6984   2.588   4.912   7.915 -0.0332  0.2332  1.5800
 2329SOL     OW 6985   3.874   2.999   9.092 -0.6151  0.4793 -0.4160
 2329SOL    HW1 6986   3.857   3.089   9.120 -0.3722  0.0510  1.2155
 2329SOL    HW2 6987   3.789   2.956   9.095 -0.4777  0.2570  0.3536
 2330SOL     OW 6988   3.323   2.661   8.009  0.2298 -0.2229  0.5670
 2330SOL    HW1 6989   3.412   2.650   7.975  0.9018 -0.9540  2.4394
 2330SOL    HW2 6990   3.334   2.717   8.086 -1.2160  1.2301 -0.2233
 2331SOL     OW 6991   4.785   3.106   8.440 -0.0783 -0.7573  0.4022
 2331SOL    HW1 6992   4.848   3.178   8.444 -1.1920  0.2232  1.2402
 2331SOL    HW2 6993   4.738   3.118   8.358  1.6995 -2.3105 -0.9157
 2332SOL     OW 6994   0.694   3.534   7.686  0.0868 -0.4146 -0.0769
 2332SOL    HW1 6995   0.713   3.525   7.779 -0.7530  0.6506  0.2064
 2332SOL    HW2 6996   0.702   3.445   7.652 -0.2488 -0.9312  1.1320
 2333SOL     OW 6997   4.695   0.720   9.968  0.2709 -0.2600 -0.0184
 2333SOL    HW1 6998   4.745   0.695   9.890  0.1551 -0.8852  0.1032
 2333SOL    HW2 6999   4.738   0.675  10.040  2.5415  3.0086  0.8731
 2334SOL     OW 7000   4.002   0.569   5.990  0.1926  0.2367  0.4750
 2334SOL    HW1 7001   4.022   0.476   5.998 -0.8174  0.0795  1.4734
 2334SOL    HW2 7002   4.085   0.614   6.007  0.1637 -0.4223  2.5293
 2335SOL     OW 7003   1.381   2.764   4.929  0.9900  0.0942 -0.0598
 2335SOL    HW1 7004   1.292   2.794   4.910 -0.2379 -0.9622  3.1837
 2335SOL    HW2 7005   1.438   2.833   4.896 -0.9494  0.6636 -2.5429
 2336SOL     OW 7006   3.245   1.991   7.631  0.4883 -0.0943 -0.3110
 2336SOL    HW1 7007   3.287   1.971   7.714 -0.5995 -0.1790  0.2491
 2336SOL    HW2 7008   3.316   1.992   7.567  1.4403  0.6067  0.7167
 2337SOL     OW 7009   0.712   0.171   6.337 -0.2156 -0.3947 -0.3128
 2337SOL    HW1 7010   0.649   0.154   6.266  0.1663  0.3888 -0.8568
 2337SOL    HW2 7011   0.725   0.265   6.335  0.7034 -0.5094  0.0349
 2338SOL     OW 7012   3.080   0.799   5.704 -0.4981  0.0528  0.0965
 2338SOL    HW1 7013   3.128   0.810   5.786 -1.1573  1.1202  0.3639
 2338SOL    HW2 7014   2.991   0.776   5.731 -0.6434  0.1048 -0.3325
 2339SOL     OW 7015   4.164   0.068   9.094  0.1825  0.2396 -0.6102
 2339SOL    HW1 7016   4.107   0.124   9.041 -0.7964 -0.9320 -0.8591
 2339SOL    HW2 7017   4.139  -0.021   9.068 -1.5352 -0.5005  2.9265
 2340SOL     OW 7018   3.875   0.669   9.676 -0.0776  0.0245 -0.6625
 2340SOL    HW1 7019   3.902   0.687   9.586 -0.0272 -0.4705 -0.7471
 2340SOL    HW2 7020   3.860   0.575   9.678 -1.8888  0.2807 -0.6446
 2341SOL     OW 7021   4.720   0.818   8.154  0.0042  0.2418  0.1653
 2341SOL    HW1 7022   4.709   0.781   8.241  2.4227 -3.2303 -0.7840
 2341SOL    HW2 7023   4.657   0.770   8.100  1.2633 -0.5786 -0.6255
 2342SOL     OW 7024   3.888   0.943   9.683 -0.1847 -0.9194  0.3454
 2342SOL    HW1 7025   3.833   0.966   9.608 -1.4173  1.3156  1.8240
 2342SOL    HW2 7026   3.870   0.850   9.699 -0.5109 -1.2277 -1.5574
 2343SOL     OW 7027   1.592   3.923   5.246 -0.3689  0.6631 -0.1304
 2343SOL    HW1 7028   1.667   3.978   5.223 -0.2247 -0.7435 -3.5053
 2343SOL    HW2 7029   1.624   3.833   5.235 -1.9177 -0.0187  0.6253
 2344SOL     OW 7030   2.397   0.537   8.418  0.1954 -0.3096 -0.6726
 2344SOL    HW1 7031   2.328   0.597   8.445 -0.2226 -0.8622 -0.5098
 2344SOL    HW2 7032   2.472   0.562   8.472 -0.1432 -0.3033 -0.1970
 2345SOL     OW 7033   3.044   3.415   6.846 -0.0573 -0.9311  0.0807
 2345SOL    HW1 7034   3.121   3.440   6.795  0.7615 -2.0978  0.6926
 2345SOL    HW2 7035   3.054   3.460   6.929 -0.2526 -0.7619  0.0136
 2346SOL     OW 7036   0.090   1.522   8.786 -0.0499 -0.4873 -0.3521
 2346SOL    HW1 7037   0.041   1.522   8.868 -2.1291  0.2519 -1.5099
 2346SOL    HW2 7038   0.075   1.610   8.749  2.8879  0.0920 -0.4131
 2347SOL     OW 7039   4.262   4.672   6.619 -0.3698  0.4483  0.5764
 2347SOL    HW1 7040   4.269   4.619   6.699  0.3697 -0.9994 -0.3849
 2347SOL    HW2 7041   4.342   4.725   6.618 -0.7763  1.0891  1.1925
 2348SOL     OW 7042   1.174   2.356   7.320  0.1377 -0.3631  0.1730
 2348SOL    HW1 7043   1.144   2.438   7.281 -1.4252 -1.2388 -0.5586
 2348SOL    HW2 7044   1.265   2.373   7.345 -0.9939  2.6025  2.9850
 2349SOL     OW 7045   2.238   0.295   9.144 -0.2037  0.1511  0.0418
 2349SOL    HW1 7046   2.315   0.282   9.089  0.9915 -1.0034  1.8878
 2349SOL    HW2 7047   2.181   0.222   9.122  0.2177 -0.2462  0.2495
 2350SOL     OW 7048   1.450   3.858   6.626 -0.4422 -0.4586  0.3314
 2350SOL    HW1 7049   1.512   3.916   6.672  1.3553 -1.1764 -1.0505
 2350SOL    HW2 7050   1.382   3.840   6.691  1.5475 -0.8008  2.4889
 2351SOL     OW 7051   3.717   2.252   8.315 -1.0938 -0.4005  0.0842
 2351SOL    HW1 7052   3.706   2.340   8.281  1.5146 -0.4504 -1.1367
 2351SOL    HW2 7053   3.667   2.197   8.255 -2.0632  0.1429  0.3756
 2352SOL     OW 7054   0.369   4.580   7.497  0.3266 -0.3591  0.1292
 2352SOL    HW1 7055   0.304   4.513   7.518  0.0900 -1.3722 -3.2663
 2352SOL    HW2 7056   0.329   4.630   7.426  2.6881 -0.1373 -1.1242
 2353SOL     OW 7057   3.772   2.033   6.042  0.2236 -0.1415  0.2388
 2353SOL    HW1 7058   3.852   2.053   5.995 -1.6743  2.0980 -2.3563
 2353SOL    HW2 7059   3.771   2.095   6.115  1.8380 -1.7743  1.7814
 2354SOL     OW 7060   4.227   2.484   9.073 -0.2588  0.1518 -0.0133
 2354SOL    HW1 7061   4.162   2.500   9.005 -0.7233  0.4238  0.4854
 2354SOL    HW2 7062   4.220   2.390   9.091 -1.8261  0.4850  1.3201
 2355SOL     OW 7063   0.630   4.116   4.286 -0.4410  0.0459 -0.7323
 2355SOL    HW1 7064   0.644   4.021   4.290 -4.4021 -0.6934 -0.1168
 2355SOL    HW2 7065   0.582   4.130   4.204  1.2291  1.7744 -1.4767
 2356SOL     OW 7066   4.996   2.948   6.704 -0.0545 -0.6738  0.1027
 2356SOL    HW1 7067   4.981   3.010   6.633  2.3016 -0.5427 -0.3679
 2356SOL    HW2 7068   4.979   2.998   6.784 -0.2523 -0.0480 -0.3262
 2357SOL     OW 7069   1.973   2.328   7.868 -0.1701 -0.0247  0.1269
 2357SOL    HW1 7070   1.951   2.390   7.798 -0.9238  0.3853  0.7131
 2357SOL    HW2 7071   1.910   2.257   7.858 -0.9712  0.5383  1.0229
 2358SOL     OW 7072   4.861   2.231   5.918 -0.8546 -0.6914  0.1702
 2358SOL    HW1 7073   4.792   2.173   5.885 -1.8580 -0.1814  1.3028
 2358SOL    HW2 7074   4.841   2.241   6.011  1.7215 -1.8980  0.9564
 2359SOL     OW 7075   4.488   3.323   6.935 -0.2940  0.3196  0.2011
 2359SOL    HW1 7076   4.409   3.373   6.916 -0.6491 -1.0231 -2.2937
 2359SOL    HW2 7077   4.467   3.233   6.908  2.3680  0.1239 -1.5867
 2360SOL     OW 7078   0.213   4.249   7.039  0.1187 -0.4729  0.5668
 2360SOL    HW1 7079   0.153   4.321   7.021  1.0589  0.2820  0.3594
 2360SOL    HW2 7080   0.210   4.195   6.959  0.6638  0.2493  0.0513
 2361SOL     OW 7081   2.141   2.518   6.382 -0.2250 -0.1756 -0.1153
 2361SOL    HW1 7082   2.217   2.574   6.368 -0.7046 -0.0508 -2.6968
 2361SOL    HW2 7083   2.165   2.435   6.340 -1.8684  0.2474 -2.0685
 2362SOL     OW 7084   2.224   1.443   5.460  1.0958  0.2045  0.3711
 2362SOL    HW1 7085   2.278   1.479   5.530  0.1517  3.9877 -0.6673
 2362SOL    HW2 7086   2.176   1.517   5.425  0.0069 -1.8593 -3.0173
 2363SOL     OW 7087   4.668   2.102   6.451  0.2238  0.3964 -0.3388
 2363SOL    HW1 7088   4.720   2.103   6.531 -0.2942  1.2699 -0.0042
 2363SOL    HW2 7089   4.595   2.161   6.468  0.1247  0.6362 -1.4648
 2364SOL     OW 7090   2.515   1.208   8.681 -0.5398 -0.1554 -0.1658
 2364SOL    HW1 7091   2.589   1.192   8.623  0.1009 -0.7974  0.8076
 2364SOL    HW2 7092   2.441   1.165   8.638 -0.1982 -0.1491 -0.7718
 2365SOL     OW 7093   0.418   3.035   9.675 -0.4363  0.1102 -0.3193
 2365SOL    HW1 7094   0.495   2.978   9.677 -0.1176  0.2615 -3.2420
 2365SOL    HW2 7095   0.369   3.006   9.598 -1.6763  2.0064 -0.3076
 2366SOL     OW 7096   0.070   3.265   6.352 -0.4464 -0.0857  0.0566
 2366SOL    HW1 7097   0.089   3.301   6.265  0.6949 -0.0242  0.3110
 2366SOL    HW2 7098   0.098   3.174   6.346  0.6518  0.1924  0.6594
 2367SOL     OW 7099   0.063   1.199   7.264 -0.0436  0.0750  0.2058
 2367SOL    HW1 7100   0.103   1.264   7.206 -0.6706 -0.7578 -1.2350
 2367SOL    HW2 7101   0.011   1.250   7.325  3.0150  1.2019  2.0936
 2368SOL     OW 7102   4.266   3.363   4.603 -0.9610  0.5256 -0.0133
 2368SOL    HW1 7103   4.237   3.342   4.514 -0.9906  2.3001 -0.4611
 2368SOL    HW2 7104   4.341   3.421   4.591  1.4955 -2.1556  1.1406
 2369SOL     OW 7105   0.072   0.183   6.560  0.2539 -0.1113 -0.0107
 2369SOL    HW1 7106   0.038   0.259   6.513  0.0213  1.0099  1.8722
 2369SOL    HW2 7107  -0.003   0.125   6.569 -0.1853  0.5390  0.6301
 2370SOL     OW 7108   1.692   1.516   7.205  0.0283  0.6547 -0.4421
 2370SOL    HW1 7109   1.704   1.456   7.279  1.1609  1.8497  0.3925
 2370SOL    HW2 7110   1.618   1.571   7.232  0.5157  1.1674 -0.1067
 2371SOL     OW 7111   2.840   1.679   8.534  0.2935  0.5535  0.4846
 2371SOL    HW1 7112   2.794   1.690   8.617 -2.8912 -1.3487 -0.8436
 2371SOL    HW2 7113   2.894   1.601   8.547 -2.8833 -1.9622 -0.0616
 2372SOL     OW 7114   4.580   0.521   8.495 -0.7577 -0.2429 -0.3337
 2372SOL    HW1 7115   4.608   0.532   8.586  0.8430  1.5135 -0.9610
 2372SOL    HW2 7116   4.600   0.430   8.475  0.3640 -0.2398  0.6331
 2373SOL     OW 7117   1.318   3.106   4.871 -0.0677  0.1965 -0.6905
 2373SOL    HW1 7118   1.223   3.104   4.882  0.1170  1.1111  1.7039
 2373SOL    HW2 7119   1.336   3.194   4.835 -0.0330  0.6872  0.4875
 2374SOL     OW 7120   0.576   3.112   8.327 -0.1970 -0.2273 -0.4969
 2374SOL    HW1 7121   0.663   3.151   8.314 -0.3144  0.7745  1.4101
 2374SOL    HW2 7122   0.589   3.048   8.397 -0.8840 -0.5440 -0.6506
 2375SOL     OW 7123   1.343   2.563   7.730  0.2166  0.6617  0.7174
 2375SOL    HW1 7124   1.328   2.593   7.819 -2.0322  1.8614  0.0008
 2375SOL    HW2 7125   1.269   2.506   7.711  0.7876  0.2343 -0.3378
 2376SOL     OW 7126   3.349   1.569   7.726 -0.5097 -0.0118 -0.2991
 2376SOL    HW1 7127   3.401   1.564   7.806  0.9442  1.9122 -1.0503
 2376SOL    HW2 7128   3.384   1.500   7.670 -0.0596  0.0471 -0.0928
 2377SOL     OW 7129   2.270   0.752  10.100 -0.2034 -0.9383 -0.3648
 2377SOL    HW1 7130   2.289   0.696  10.026 -3.3320 -2.3731 -0.2120
 2377SOL    HW2 7131   2.181   0.728  10.128  0.7470 -0.4787  3.8239
 2378SOL     OW 7132   2.775   0.377   7.051 -0.6982 -0.4309 -0.0629
 2378SOL    HW1 7133   2.818   0.324   6.984 -1.6827 -2.9769  1.1746
 2378SOL    HW2 7134   2.845   0.435   7.084  0.1466 -0.1402 -2.2024
 2379SOL     OW 7135   1.919   2.781   9.065 -0.4433  0.0130  0.0357
 2379SOL    HW1 7136   1.869   2.708   9.100 -0.3306 -0.4914 -0.8236
 2379SOL    HW2 7137   1.953   2.749   8.981  2.4006 -0.1084  1.1304
 2380SOL     OW 7138   4.196   0.490  10.335 -0.1838 -0.5388  0.7505
 2380SOL    HW1 7139   4.218   0.405  10.295 -0.0281  0.7646 -2.2218
 2380SOL    HW2 7140   4.280   0.525  10.364  0.0311 -0.6200  0.2480
 2381SOL     OW 7141   2.404   1.431   7.386  0.2728  0.0329 -0.6137
 2381SOL    HW1 7142   2.337   1.363   7.396  0.2260 -0.0513 -1.3990
 2381SOL    HW2 7143   2.364   1.495   7.327  1.1882 -0.4512 -1.7992
 2382SOL     OW 7144   0.311   4.740   5.318  0.6352  0.0710 -0.7430
 2382SOL    HW1 7145   0.394   4.737   5.367  0.4179 -0.5633 -0.4141
 2382SOL    HW2 7146   0.269   4.656   5.335 -1.3218  1.3532  1.2668
 2383SOL     OW 7147   1.366   1.211   7.985 -0.8690 -0.2518  0.0204
 2383SOL    HW1 7148   1.446   1.259   8.011  0.2665 -1.3048 -1.3740
 2383SOL    HW2 7149   1.307   1.222   8.059  0.6833  0.3077  1.2363
 2384SOL     OW 7150   2.252   2.506   7.119 -0.4606  0.1503  0.4955
 2384SOL    HW1 7151   2.316   2.559   7.167  0.6349 -1.2899  0.6872
 2384SOL    HW2 7152   2.259   2.535   7.028 -1.3760  1.7553  0.8961
 2385SOL     OW 7153   3.179   3.821  10.051  0.5059  0.1698  0.5224
 2385SOL    HW1 7154   3.198   3.883  10.122  1.7073  2.3218 -1.5444
 2385SOL    HW2 7155   3.108   3.861  10.002  0.3235 -0.8248 -0.0553
 2386SOL     OW 7156   3.319   4.359   5.648  0.7648  0.3911  0.1323
 2386SOL    HW1 7157   3.315   4.447   5.685  0.9801  1.0959 -1.4368
 2386SOL    HW2 7158   3.402   4.357   5.601  0.5989 -0.5359 -0.1408
 2387SOL     OW 7159   4.592   0.527   5.934  0.0317  0.0482 -0.0406
 2387SOL    HW1 7160   4.670   0.506   5.883 -0.3327 -0.5157 -0.3775
 2387SOL    HW2 7161   4.593   0.623   5.942  0.5064  0.0757 -0.4437
 2388SOL     OW 7162   1.010   4.883   7.167 -0.2110 -0.2424 -0.1495
 2388SOL    HW1 7163   0.983   4.793   7.187 -0.7107 -0.7217 -2.6832
 2388SOL    HW2 7164   0.929   4.929   7.145  0.2451  0.3234 -0.6762
 2389SOL     OW 7165   4.342   4.783   7.083  0.2298  0.2468 -0.2056
 2389SOL    HW1 7166   4.318   4.874   7.061 -0.4580  0.7533  2.3187
 2389SOL    HW2 7167   4.275   4.755   7.145  2.1252 -0.8997  1.4451
 2390SOL     OW 7168   1.590   0.558   7.958 -0.2076 -0.0474  0.0464
 2390SOL    HW1 7169   1.634   0.479   7.989  0.5965  0.2119 -0.3928
 2390SOL    HW2 7170   1.655   0.600   7.902 -1.2228  0.0477 -1.0961
 2391SOL     OW 7171   2.101   2.593   8.404  0.2226  0.2158  0.0237
 2391SOL    HW1 7172   2.171   2.539   8.365  1.0422  1.2751 -0.0307
 2391SOL    HW2 7173   2.022   2.540   8.396  1.0157 -0.9955  0.0383
 2392SOL     OW 7174   3.390   1.375   9.941  0.2435  0.3472 -0.0265
 2392SOL    HW1 7175   3.464   1.321   9.968  1.5555  1.3630 -1.4009
 2392SOL    HW2 7176   3.381   1.441  10.010  0.0884 -0.2580  0.5381
 2393SOL     OW 7177   0.654   4.992   5.094  0.7157  0.1169 -0.1288
 2393SOL    HW1 7178   0.572   4.943   5.096  1.1278 -0.6616 -1.2457
 2393SOL    HW2 7179   0.684   4.994   5.185 -1.0732  1.3934  0.4974
 2394SOL     OW 7180   3.775   0.368   9.907  0.4178  0.1821 -0.0552
 2394SOL    HW1 7181   3.802   0.278   9.927  0.3895  0.2975  0.5179
 2394SOL    HW2 7182   3.789   0.377   9.813  1.4862 -0.0661  0.0640
 2395SOL     OW 7183   4.162   2.706   8.625 -0.2376 -0.1047  0.4384
 2395SOL    HW1 7184   4.124   2.775   8.679  0.1549  0.8906 -0.5262
 2395SOL    HW2 7185   4.111   2.707   8.544  0.3386 -0.3479  0.0650
 2396SOL     OW 7186   1.725   2.502   7.418 -0.4613  0.6066 -0.3860
 2396SOL    HW1 7187   1.730   2.592   7.449 -0.9086  0.9113 -1.1853
 2396SOL    HW2 7188   1.809   2.463   7.442 -0.3774  1.1489  0.2165
 2397SOL     OW 7189   2.970   0.814   6.487  0.5335  0.1455  0.1549
 2397SOL    HW1 7190   2.990   0.815   6.393  1.4212  2.0717  0.3107
 2397SOL    HW2 7191   3.008   0.896   6.520  1.1787 -0.9823  2.3947
 2398SOL     OW 7192   2.364   3.044   8.014 -0.3922  0.0132  0.5280
 2398SOL    HW1 7193   2.424   3.119   8.008  0.8272 -0.9877 -0.6618
 2398SOL    HW2 7194   2.396   2.993   8.088  0.6496 -0.8040 -0.4338
 2399SOL     OW 7195   3.393   0.224   5.915  0.6445 -0.0477 -0.0658
 2399SOL    HW1 7196   3.381   0.194   6.005  2.4407 -0.1460  0.1728
 2399SOL    HW2 7197   3.427   0.313   5.924  0.9285 -0.0966 -0.6591
 2400SOL     OW 7198   0.817   4.789   7.362  0.5069 -0.6307  0.0891
 2400SOL    HW1 7199   0.896   4.831   7.396 -0.0005  0.8019 -0.4370
 2400SOL    HW2 7200   0.850   4.714   7.312  1.5813  0.1748 -0.4517
 2401SOL     OW 7201   3.986   0.879   7.788 -0.0479 -0.7765 -0.1706
 2401SOL    HW1 7202   3.976   0.814   7.719  0.2650 -0.3741 -0.6014
 2401SOL    HW2 7203   3.896   0.906   7.809 -0.1614 -1.1454 -0.1803
 2402SOL     OW 7204   2.773   3.183   7.986  0.1054 -0.4429 -0.5599
 2402SOL    HW1 7205   2.698   3.180   8.046 -0.1217  1.0307 -0.7347
 2402SOL    HW2 7206   2.775   3.096   7.946 -0.7264 -0.9227  0.3844
 2403SOL     OW 7207   4.535   3.561  10.088  0.3200 -0.2176  0.0072
 2403SOL    HW1 7208   4.478   3.499  10.135 -1.0301  0.3665 -0.7855
 2403SOL    HW2 7209   4.623   3.538  10.116 -0.0834 -2.7584 -0.5202
 2404SOL     OW 7210   4.147   0.894   6.289  0.0504 -0.0975 -0.6078
 2404SOL    HW1 7211   4.071   0.859   6.336  0.2542 -0.6894 -0.7125
 2404SOL    HW2 7212   4.121   0.982   6.264 -0.6101 -0.2963 -0.6474
 2405SOL     OW 7213   4.879   1.522   9.323  0.0954 -0.1040 -0.6542
 2405SOL    HW1 7214   4.795   1.479   9.305  0.4901 -1.6284  0.9226
 2405SOL    HW2 7215   4.869   1.610   9.287 -1.1661 -1.1132 -2.9897
 2406SOL     OW 7216   0.653   1.837   9.929  0.1654 -0.1664  0.6227
 2406SOL    HW1 7217   0.692   1.764   9.880 -0.4042  0.6470 -1.1444
 2406SOL    HW2 7218   0.605   1.887   9.863  0.1220  1.5421  1.8670
 2407SOL     OW 7219   3.609   0.874   9.511  0.2171  0.1724  0.3268
 2407SOL    HW1 7220   3.594   0.887   9.418 -1.5490 -0.8489  0.4261
 2407SOL    HW2 7221   3.541   0.926   9.554  0.4877 -0.0234  1.0109
 2408SOL     OW 7222   2.098   3.456   6.907 -0.6136  0.3736  0.2821
 2408SOL    HW1 7223   2.125   3.429   6.995 -0.3495  2.8516  1.0378
 2408SOL    HW2 7224   2.178   3.449   6.855 -1.4184 -4.3424 -0.8092
 2409SOL     OW 7225   0.681   1.446   6.567  0.5017 -0.6551 -0.3376
 2409SOL    HW1 7226   0.706   1.477   6.480  1.5018 -1.8370 -0.5008
 2409SOL    HW2 7227   0.762   1.445   6.617  0.2683 -1.6595  0.0666
 2410SOL     OW 7228   4.827   1.583   5.723 -0.3649 -0.3319 -0.0598
 2410SOL    HW1 7229   4.866   1.496   5.720  2.3802  0.8043 -1.5488
 2410SOL    HW2 7230   4.786   1.594   5.638  0.5790  0.3176 -0.4464
 2411SOL     OW 7231   0.964   2.005   8.971 -0.5760 -0.1812 -0.2726
 2411SOL    HW1 7232   0.960   2.097   8.997 -0.2346 -0.7120  1.8532
 2411SOL    HW2 7233   1.057   1.986   8.965 -0.6438 -0.0899 -2.0081
 2412SOL     OW 7234   3.908   2.738   8.135  1.5637  0.5087  0.2628
 2412SOL    HW1 7235   3.948   2.780   8.211  0.3540  1.3079  0.4806
 2412SOL    HW2 7236   3.912   2.805   8.066  2.1507 -0.0178 -0.2318
 2413SOL     OW 7237   0.704   4.571   9.975  0.4273 -0.2057 -0.1199
 2413SOL    HW1 7238   0.718   4.620   9.894  1.1946  0.2209  0.2517
 2413SOL    HW2 7239   0.722   4.635  10.045  2.5171 -1.2562  0.3882
 2414SOL     OW 7240   3.674   3.712   7.069 -0.6036  0.4213  0.0093
 2414SOL    HW1 7241   3.681   3.663   6.987 -0.7509 -3.1936  1.9695
 2414SOL    HW2 7242   3.583   3.699   7.097 -0.0918 -0.0363  1.5952
 2415SOL     OW 7243   2.131   3.039   9.315  0.4137 -0.1590  0.3529
 2415SOL    HW1 7244   2.097   3.069   9.399  1.5888 -3.4905  2.1683
 2415SOL    HW2 7245   2.072   2.969   9.289 -1.2989  2.2148 -2.9350
 2416SOL     OW 7246   4.867   3.329   7.715  0.1734 -0.0973  0.4677
 2416SOL    HW1 7247   4.792   3.382   7.740  0.4469 -0.4005  2.0133
 2416SOL    HW2 7248   4.928   3.336   7.789  1.0898 -0.9352 -0.1712
 2417SOL     OW 7249   3.616   0.102   7.151 -0.4759 -0.1534 -0.6097
 2417SOL    HW1 7250   3.643   0.090   7.060 -0.0723  0.5409 -0.5777
 2417SOL    HW2 7251   3.631   0.016   7.191 -3.1026 -1.3006 -1.8045
 2418SOL     OW 7252   0.236   0.253   8.022 -0.4088 -0.4519 -0.2535
 2418SOL    HW1 7253   0.186   0.172   8.032 -0.5245 -0.2346  1.2140
 2418SOL    HW2 7254   0.300   0.234   7.954 -1.2836 -1.3413 -0.8474
 2419SOL     OW 7255   1.530   0.634   8.232  0.1681  0.0240  0.5193
 2419SOL    HW1 7256   1.466   0.589   8.177  1.8716 -1.3398 -0.4816
 2419SOL    HW2 7257   1.612   0.588   8.214  1.5547  2.0601  1.2972
 2420SOL     OW 7258   3.502   3.286   9.782  0.9371  0.2706 -0.2901
 2420SOL    HW1 7259   3.462   3.342   9.849  0.3689  0.3369 -0.6763
 2420SOL    HW2 7260   3.495   3.197   9.817 -1.0647  0.0759 -1.0438
 2421SOL     OW 7261   3.583   0.755   8.268  0.1649 -0.7496 -0.0444
 2421SOL    HW1 7262   3.650   0.729   8.331 -1.7002 -0.7528  2.0811
 2421SOL    HW2 7263   3.565   0.847   8.288  0.6636 -0.2551 -1.7148
 2422SOL     OW 7264   4.341   2.638   7.143  0.0740  0.1547  0.6871
 2422SOL    HW1 7265   4.425   2.613   7.104  1.2438  0.9345  2.5544
 2422SOL    HW2 7266   4.348   2.609   7.234 -0.9363  1.8553  1.3492
 2423SOL     OW 7267   1.363   1.964   5.976  0.4119 -0.2866 -0.3800
 2423SOL    HW1 7268   1.412   1.927   5.902 -0.3414  0.2877 -1.1819
 2423SOL    HW2 7269   1.289   1.905   5.988  1.1814 -1.0747  0.7436
 2424SOL     OW 7270   3.840   0.707   6.864  0.4436  0.2673 -0.2081
 2424SOL    HW1 7271   3.784   0.629   6.866  1.2433 -0.2934  0.5928
 2424SOL    HW2 7272   3.782   0.779   6.890  0.3528 -0.4917  1.8261
 2425SOL     OW 7273   1.888   3.541   9.567  0.1179  0.0142 -0.0359
 2425SOL    HW1 7274   1.920   3.631   9.564  0.4066 -0.0535  0.7180
 2425SOL    HW2 7275   1.964   3.487   9.545  0.1996 -0.0822  0.4549
 2426SOL     OW 7276   3.224   0.755   7.667  0.2045  0.1118 -0.2422
 2426SOL    HW1 7277   3.317   0.758   7.687  0.1109 -1.7691  0.7072
 2426SOL    HW2 7278   3.216   0.797   7.581  2.1628 -1.1079 -1.0786
 2427SOL     OW 7279   1.739   3.043   6.981  0.7166  0.1268 -0.1931
 2427SOL    HW1 7280   1.721   2.956   6.946 -2.3948 -0.3833  2.2737
 2427SOL    HW2 7281   1.697   3.103   6.920 -3.0902 -0.6453  1.4013
 2428SOL     OW 7282   0.862   3.518   8.943  0.1372  0.4258 -0.0493
 2428SOL    HW1 7283   0.864   3.537   8.849 -0.5490 -1.9543 -0.6119
 2428SOL    HW2 7284   0.810   3.589   8.981 -1.5483  0.2284 -1.8223
 2429SOL     OW 7285   3.995   2.292   5.047  0.0393  0.2116 -0.5219
 2429SOL    HW1 7286   4.087   2.269   5.059  0.1825  1.3317  0.7887
 2429SOL    HW2 7287   3.990   2.322   4.956  1.1487  0.8627 -0.3835
 2430SOL     OW 7288   4.712   4.769   9.894  0.3741 -0.6584 -0.0244
 2430SOL    HW1 7289   4.663   4.725   9.826  0.5728 -0.0434 -0.5766
 2430SOL    HW2 7290   4.770   4.702   9.930 -0.7684 -1.3577  0.5509
 2431SOL     OW 7291   2.364   1.891   8.949 -0.3919 -0.5930 -0.0580
 2431SOL    HW1 7292   2.408   1.828   8.894  1.0188 -0.9811  1.4315
 2431SOL    HW2 7293   2.290   1.844   8.987 -0.3196 -0.8544 -0.2485
 2432SOL     OW 7294   1.958   2.621   8.809  0.0830  0.1359 -0.1220
 2432SOL    HW1 7295   1.927   2.542   8.764 -0.8279  0.4653 -0.0994
 2432SOL    HW2 7296   2.027   2.655   8.753 -0.2017 -0.1362 -0.6504
 2433SOL     OW 7297   4.395   4.146   8.617 -0.6452  0.2256  0.0244
 2433SOL    HW1 7298   4.438   4.225   8.651  0.3947 -0.0251 -0.6384
 2433SOL    HW2 7299   4.462   4.105   8.562 -0.4212 -2.2178  1.9487
 2434SOL     OW 7300   3.433   3.299   8.835  0.2610 -0.1074  0.0951
 2434SOL    HW1 7301   3.348   3.337   8.859  1.1090  1.3902  0.8598
 2434SOL    HW2 7302   3.415   3.206   8.825 -1.2635  0.0216  1.2546
 2435SOL     OW 7303   2.659   1.272   9.826  0.2398  0.3909  0.2290
 2435SOL    HW1 7304   2.633   1.193   9.871  2.0883  0.4903  1.5934
 2435SOL    HW2 7305   2.612   1.343   9.870 -0.2092  0.2150  0.0364
 2436SOL     OW 7306   4.760   2.046   6.776  0.5737  0.1104  0.1680
 2436SOL    HW1 7307   4.694   1.977   6.770  1.3489 -0.5847 -0.7985
 2436SOL    HW2 7308   4.717   2.117   6.823 -0.6062 -0.6108  0.2197
 2437SOL     OW 7309   3.487   4.861   4.863 -0.4132 -0.2552  0.0195
 2437SOL    HW1 7310   3.431   4.788   4.890  1.7721 -1.3515  2.0848
 2437SOL    HW2 7311   3.503   4.909   4.945  1.2533  0.2467 -0.5677
 2438SOL     OW 7312   0.930   1.591   6.991 -0.3712  0.3136 -0.4541
 2438SOL    HW1 7313   0.947   1.682   7.015 -1.9976  0.4983  0.1451
 2438SOL    HW2 7314   0.849   1.569   7.037  2.0700 -2.8147  2.9363
 2439SOL     OW 7315   3.428   1.881   6.935 -0.1009 -0.3954 -0.7689
 2439SOL    HW1 7316   3.489   1.934   6.884  0.8728 -2.4455 -1.8486
 2439SOL    HW2 7317   3.484   1.826   6.990 -1.0673 -0.4733  0.1632
 2440SOL     OW 7318   3.642   1.877   8.658  0.1424 -0.0635  0.0092
 2440SOL    HW1 7319   3.547   1.885   8.650 -0.0590 -0.1919  1.9395
 2440SOL    HW2 7320   3.676   1.956   8.616 -1.0008  1.7132  2.2196
 2441SOL     OW 7321   1.765   1.072   8.673  0.0221  0.2006  0.6269
 2441SOL    HW1 7322   1.835   1.093   8.734 -1.5362  1.8943  1.9570
 2441SOL    HW2 7323   1.685   1.092   8.722 -1.3377 -0.1537 -1.3631
 2442SOL     OW 7324   0.906   4.137   4.580  0.0051  1.0606 -0.5404
 2442SOL    HW1 7325   0.946   4.190   4.511  1.1992 -1.0388 -1.5608
 2442SOL    HW2 7326   0.969   4.140   4.652  0.6733  0.0596 -1.0686
 2443SOL     OW 7327   2.056   3.961   7.342 -0.4269  0.0167  0.5764
 2443SOL    HW1 7328   2.051   4.057   7.343 -1.3638 -0.0052 -0.1072
 2443SOL    HW2 7329   1.967   3.933   7.319  0.1467 -0.9806 -0.5170
 2444SOL     OW 7330   4.376   2.890   7.732 -0.0078 -0.0283 -0.5888
 2444SOL    HW1 7331   4.414   2.844   7.807 -1.5060 -0.3604  0.0092
 2444SOL    HW2 7332   4.320   2.958   7.771 -0.8065 -0.1968 -1.3925
 2445SOL     OW 7333   1.168   0.085   7.530  0.5156  0.1722  0.3688
 2445SOL    HW1 7334   1.094   0.053   7.479  0.8634  2.8953 -2.1389
 2445SOL    HW2 7335   1.129   0.141   7.597  0.2216 -0.5950  0.8516
 2446SOL     OW 7336   0.414   2.852   6.739 -0.1165 -0.2673  0.0628
 2446SOL    HW1 7337   0.387   2.942   6.719 -1.5399 -0.5101  0.7863
 2446SOL    HW2 7338   0.509   2.853   6.728 -0.2409  1.0031 -1.1492
 2447SOL     OW 7339   0.941   3.604   8.678 -1.0531  1.2163 -0.2823
 2447SOL    HW1 7340   0.973   3.659   8.607  2.0468  2.5734  1.9320
 2447SOL    HW2 7341   0.915   3.665   8.746 -0.0112  0.0463  1.2588
 2448SOL     OW 7342   3.343   0.069   9.642  0.2137 -0.8502 -0.5369
 2448SOL    HW1 7343   3.271   0.072   9.579  0.5097  0.7295 -0.8648
 2448SOL    HW2 7344   3.390   0.152   9.628  1.0545 -1.0507  0.8743
 2449SOL     OW 7345   1.583   2.691   7.187  0.1780  0.5290 -0.1757
 2449SOL    HW1 7346   1.598   2.606   7.228 -0.6098  1.0619  1.2898
 2449SOL    HW2 7347   1.670   2.727   7.173  0.5264 -0.6091 -1.0327
 2450SOL     OW 7348   0.262   1.249   9.599 -0.6591  0.4597  0.2662
 2450SOL    HW1 7349   0.196   1.185   9.574 -0.0966  0.2785 -0.8001
 2450SOL    HW2 7350   0.230   1.331   9.561  0.3508  0.1251 -1.3997
 2451SOL     OW 7351   1.076   2.014   6.626 -0.4859  0.7156  0.6599
 2451SOL    HW1 7352   1.126   1.954   6.572 -0.0250  0.3123  1.5156
 2451SOL    HW2 7353   0.996   2.030   6.576  0.6461  1.7087 -0.9197
 2452SOL     OW 7354   2.061   3.918   8.014  0.2550 -0.0739 -0.5368
 2452SOL    HW1 7355   1.989   3.855   8.015 -1.5204  1.7044 -2.7851
 2452SOL    HW2 7356   2.108   3.900   7.932  0.8039  0.3813 -0.3327
 2453SOL     OW 7357   4.211   3.496   9.819 -0.3558  0.0932  0.3676
 2453SOL    HW1 7358   4.208   3.585   9.784  0.5060 -0.1106 -0.2622
 2453SOL    HW2 7359   4.126   3.484   9.861 -0.5271  1.1746  0.3669
 2454SOL     OW 7360   3.382   2.613   6.280  0.0436  0.7187 -0.4699
 2454SOL    HW1 7361   3.418   2.692   6.319  0.9870 -0.1429  0.4640
 2454SOL    HW2 7362   3.458   2.564   6.249 -0.1210 -1.4610  2.1407
 2455SOL     OW 7363   0.520   3.927   8.096  0.0401 -0.4586 -0.0247
 2455SOL    HW1 7364   0.479   4.010   8.119  0.2228 -0.5304  0.5774
 2455SOL    HW2 7365   0.525   3.928   8.001 -0.5578 -0.0672 -0.0559
 2456SOL     OW 7366   4.875   4.445   5.919  0.1656  0.4705 -0.4110
 2456SOL    HW1 7367   4.856   4.538   5.907 -0.6104  0.4400  0.4577
 2456SOL    HW2 7368   4.956   4.431   5.870  0.4680  1.6755 -0.3001
 2457SOL     OW 7369   3.358   0.338   6.483 -1.0883 -0.2316  0.0462
 2457SOL    HW1 7370   3.262   0.343   6.487 -1.0996 -0.5720  0.1993
 2457SOL    HW2 7371   3.376   0.261   6.429 -0.9010 -0.5037  0.4939
 2458SOL     OW 7372   2.508   3.310   9.948  0.0694 -0.1907  0.2736
 2458SOL    HW1 7373   2.442   3.379   9.947  0.4666  0.1883 -0.7609
 2458SOL    HW2 7374   2.530   3.296   9.856  3.8054  1.9899  0.6604
 2459SOL     OW 7375   2.208   1.448   9.075 -0.3013 -0.0683  0.0446
 2459SOL    HW1 7376   2.113   1.431   9.074 -0.4899  0.7534 -2.6653
 2459SOL    HW2 7377   2.248   1.362   9.083 -1.2984 -0.7616 -1.8647
 2460SOL     OW 7378   0.669   4.477   7.488 -0.1578  0.6592  0.4974
 2460SOL    HW1 7379   0.586   4.523   7.501 -0.4299  1.0264 -2.1782
 2460SOL    HW2 7380   0.690   4.490   7.396  2.0085 -0.9078  0.7037
 2461SOL     OW 7381   3.052   0.606   6.919  0.7004 -0.3281  0.2964
 2461SOL    HW1 7382   3.001   0.668   6.867 -0.7361 -1.1442  0.6796
 2461SOL    HW2 7383   3.105   0.559   6.855  1.0062  0.5373 -0.1078
 2462SOL     OW 7384   0.006   4.167   6.032  0.2223 -0.0383 -0.4401
 2462SOL    HW1 7385  -0.052   4.204   6.098  0.0085 -0.0148 -0.6398
 2462SOL    HW2 7386   0.048   4.243   5.991  0.8188 -0.0750  0.0804
 2463SOL     OW 7387   3.157   4.279   7.850 -0.0341 -0.7481  0.1527
 2463SOL    HW1 7388   3.219   4.269   7.778  0.9684 -0.1935  0.9096
 2463SOL    HW2 7389   3.192   4.225   7.920 -0.7643 -0.9329  0.3852
 2464SOL     OW 7390   1.449   3.376   7.854  0.3012  0.5588 -0.2930
 2464SOL    HW1 7391   1.405   3.294   7.833 -0.3455  0.7582  0.2446
 2464SOL    HW2 7392   1.532   3.372   7.806 -0.7457  0.6584 -2.2102
 2465SOL     OW 7393   4.137   0.238   6.562  0.0236 -0.2694 -0.6159
 2465SOL    HW1 7394   4.104   0.171   6.622  0.1817 -0.1540 -0.4030
 2465SOL    HW2 7395   4.123   0.320   6.608  0.9634 -0.2409 -0.3612
 2466SOL     OW 7396   1.414   2.566   8.493 -0.2020  0.0723  0.7146
 2466SOL    HW1 7397   1.448   2.590   8.407  0.7722  0.4140  1.1830
 2466SOL    HW2 7398   1.393   2.473   8.486 -3.5039  0.7947 -0.9681
 2467SOL     OW 7399   3.336   0.910   8.695  0.1058 -0.1624 -0.2453
 2467SOL    HW1 7400   3.403   0.909   8.763 -0.3294 -0.6005  0.1885
 2467SOL    HW2 7401   3.315   0.818   8.680  0.2307 -0.0739 -1.0158
 2468SOL     OW 7402   1.877   2.030   8.422 -0.3216  1.1519  0.0286
 2468SOL    HW1 7403   1.956   2.073   8.453 -0.1074 -0.0475  1.2920
 2468SOL    HW2 7404   1.811   2.099   8.421  0.9300  2.3968 -2.0193
 2469SOL     OW 7405   4.247   2.628   6.723 -0.8160 -0.0213  0.0150
 2469SOL    HW1 7406   4.174   2.673   6.682  0.3254 -0.0207 -2.1799
 2469SOL    HW2 7407   4.314   2.695   6.735  1.1498 -0.9773 -3.8791
 2470SOL     OW 7408   3.106   2.166   6.862  0.3892 -0.0898 -0.4953
 2470SOL    HW1 7409   3.138   2.226   6.930 -0.7894  1.0623 -0.9267
 2470SOL    HW2 7410   3.056   2.221   6.803  2.1085 -0.8952 -2.8551
 2471SOL     OW 7411   3.186   3.674   6.827  0.7287 -0.3569  0.1121
 2471SOL    HW1 7412   3.187   3.751   6.884  1.0708  1.1428 -1.7794
 2471SOL    HW2 7413   3.099   3.675   6.787  0.7823 -0.8695 -0.0253
 2472SOL     OW 7414   1.939   2.139   6.825  0.2774 -0.1825  1.0787
 2472SOL    HW1 7415   1.908   2.068   6.881  1.8735  0.3686  2.7613
 2472SOL    HW2 7416   2.034   2.138   6.834  0.5729  0.1658 -1.4194
 2473SOL     OW 7417   3.718   4.464   9.618 -0.3700 -0.1229 -0.5620
 2473SOL    HW1 7418   3.722   4.559   9.613 -1.1565 -0.1312 -1.5956
 2473SOL    HW2 7419   3.781   4.433   9.554 -1.3910 -0.2798 -1.5140
 2474SOL     OW 7420   0.885   4.711   6.841 -0.2830  0.8393 -0.1651
 2474SOL    HW1 7421   0.884   4.710   6.745 -2.4405 -0.7083 -0.1886
 2474SOL    HW2 7422   0.871   4.803   6.864  1.7150  1.4867 -1.2651
 2475SOL     OW 7423   5.002   3.613   5.954  0.2894 -0.3746  0.2687
 2475SOL    HW1 7424   4.959   3.527   5.953 -1.8606  0.6233  0.1323
 2475SOL    HW2 7425   5.032   3.624   6.044 -1.0636 -0.5427  0.7632
 2476SOL     OW 7426   3.405   3.680   5.848 -0.2402 -0.2613  0.3272
 2476SOL    HW1 7427   3.405   3.744   5.919  1.3546 -0.0963  0.2057
 2476SOL    HW2 7428   3.467   3.612   5.876 -0.4137 -0.7504 -0.4303
 2477SOL     OW 7429   3.273   4.425   9.387  0.6099 -0.2823 -0.1107
 2477SOL    HW1 7430   3.287   4.428   9.482  1.0631  0.9612 -0.1958
 2477SOL    HW2 7431   3.278   4.516   9.359 -2.5523 -0.2678 -0.9381
 2478SOL     OW 7432   4.525   0.943   8.481 -0.5742  0.1147 -0.0100
 2478SOL    HW1 7433   4.528   1.024   8.429 -0.6079  0.8563  1.1140
 2478SOL    HW2 7434   4.614   0.935   8.516 -1.1025  0.8300  1.5799
 2479SOL     OW 7435   3.487   4.442   6.224  0.7924 -0.2826 -0.1097
 2479SOL    HW1 7436   3.528   4.478   6.145  0.7283 -0.9314 -0.4451
 2479SOL    HW2 7437   3.397   4.424   6.198  1.1891 -2.0430 -0.3991
 2480SOL     OW 7438   3.398   0.991   6.954 -0.1540 -0.2944 -0.1264
 2480SOL    HW1 7439   3.441   1.016   6.872  0.4560 -0.4700  0.1313
 2480SOL    HW2 7440   3.308   1.024   6.946  0.6674  2.3007  0.3318
 2481SOL     OW 7441   1.438   4.250   7.385  0.5840  0.6458  0.1942
 2481SOL    HW1 7442   1.454   4.272   7.294 -2.1063 -3.1212 -1.4535
 2481SOL    HW2 7443   1.504   4.184   7.406  0.0786  0.1799  0.3414
 2482SOL     OW 7444   2.982   3.087   8.425  0.2870  0.4537  0.3518
 2482SOL    HW1 7445   3.072   3.059   8.412  0.4675  0.6636  1.0794
 2482SOL    HW2 7446   2.989   3.161   8.485 -0.4167  0.0691  0.9172
 2483SOL     OW 7447   3.440   0.430   8.057 -0.4798  0.0401 -0.1604
 2483SOL    HW1 7448   3.358   0.424   8.008  0.5228 -2.0819 -1.7403
 2483SOL    HW2 7449   3.419   0.395   8.143 -1.3057 -0.2098 -0.4526
 2484SOL     OW 7450   1.475   0.674   7.607  0.0637 -0.0609 -0.1258
 2484SOL    HW1 7451   1.405   0.693   7.669 -0.1196 -1.1135  0.0187
 2484SOL    HW2 7452   1.431   0.626   7.536  0.8029 -1.8651  0.5590
 2485SOL     OW 7453   3.288   2.485   9.955  0.7480 -0.1095 -0.0225
 2485SOL    HW1 7454   3.232   2.419   9.996  3.5282 -1.8365  1.2891
 2485SOL    HW2 7455   3.325   2.534  10.028  0.4214  1.5234 -0.9002
 2486SOL     OW 7456   3.323   3.677  10.232 -0.3919 -0.0513 -0.6200
 2486SOL    HW1 7457   3.275   3.719  10.160 -0.8763  0.8914  0.2257
 2486SOL    HW2 7458   3.413   3.673  10.202  0.1070  3.4526 -0.0033
 2487SOL     OW 7459   0.212   0.679   8.187 -0.8422  0.7302 -0.2440
 2487SOL    HW1 7460   0.144   0.672   8.120  1.0138  0.6104 -2.2023
 2487SOL    HW2 7461   0.269   0.604   8.171  2.1997  3.1209 -1.5834
 2488SOL     OW 7462   1.382   3.823   7.225 -0.6551  0.2754 -0.2839
 2488SOL    HW1 7463   1.314   3.781   7.172 -1.4798  1.8424 -0.5292
 2488SOL    HW2 7464   1.362   3.797   7.315 -1.5020  0.5713 -0.3714
 2489SOL     OW 7465   0.521   0.070   7.464  0.2757  0.0678  0.3331
 2489SOL    HW1 7466   0.495   0.144   7.519  0.6090 -0.2389  0.9172
 2489SOL    HW2 7467   0.497   0.096   7.375  0.9268  1.1356  0.4502
 2490SOL     OW 7468   3.194   2.864  10.162 -0.8794  0.5387  0.1170
 2490SOL    HW1 7469   3.264   2.805  10.132 -2.4829 -0.3423 -2.1212
 2490SOL    HW2 7470   3.241   2.936  10.205  1.1791 -2.2772  3.0370
 2491SOL     OW 7471   1.742   3.935   8.010 -0.1948  0.1912 -0.2292
 2491SOL    HW1 7472   1.747   3.862   8.071 -1.2156 -1.3234 -1.8556
 2491SOL    HW2 7473   1.816   3.991   8.032  1.9037 -2.4019 -0.2510
 2492SOL     OW 7474   3.978   0.320   5.108 -0.2745 -0.1109  0.0038
 2492SOL    HW1 7475   4.017   0.406   5.088 -0.9618  0.3160  0.4513
 2492SOL    HW2 7476   3.984   0.313   5.203 -1.7611  0.2103  0.1509
 2493SOL     OW 7477   1.386   4.664   8.201 -0.4658 -0.2158 -0.3320
 2493SOL    HW1 7478   1.292   4.658   8.213 -0.5222 -1.4956 -1.1994
 2493SOL    HW2 7479   1.398   4.664   8.106  0.4738 -1.8114 -0.2527
 2494SOL     OW 7480   4.666   4.129   8.116  1.0634  0.2770 -0.0909
 2494SOL    HW1 7481   4.593   4.177   8.077  0.7413 -0.3190 -0.2383
 2494SOL    HW2 7482   4.739   4.142   8.056  0.4083 -1.1612 -1.2783
 2495SOL     OW 7483   1.943   3.640   7.403 -0.0802  0.4182  0.3843
 2495SOL    HW1 7484   2.004   3.667   7.472 -0.2956  1.5775  0.1508
 2495SOL    HW2 7485   1.880   3.584   7.448  0.3332  0.3776  0.9302
 2496SOL     OW 7486   3.411   3.020   7.793 -0.3058 -0.2691 -0.2860
 2496SOL    HW1 7487   3.326   3.027   7.837 -0.6347 -1.1158 -0.7590
 2496SOL    HW2 7488   3.401   3.072   7.713 -0.6369 -0.9668 -0.7069
 2497SOL     OW 7489   4.673   0.718   5.113 -0.1043 -0.4183  0.1063
 2497SOL    HW1 7490   4.655   0.625   5.103  0.2523 -0.6059  1.0907
 2497SOL    HW2 7491   4.692   0.729   5.206  2.8560  0.0953 -0.4578
 2498SOL     OW 7492   2.469   3.945   7.006 -0.2452 -0.7190 -0.0878
 2498SOL    HW1 7493   2.500   3.955   7.096  0.9632 -0.3377 -0.5255
 2498SOL    HW2 7494   2.547   3.916   6.957  0.0478  2.2683 -1.6508
 2499SOL     OW 7495   3.237   3.645   8.343 -0.4410 -0.2054  0.3009
 2499SOL    HW1 7496   3.207   3.557   8.322 -1.4047 -0.0146  0.8133
 2499SOL    HW2 7497   3.306   3.632   8.408 -0.2529 -0.6042  0.0187
 2500SOL     OW 7498   4.554   3.627   7.428 -0.2817  0.5464 -0.2869
 2500SOL    HW1 7499   4.629   3.583   7.467  0.1310  0.5963 -1.0162
 2500SOL    HW2 7500   4.478   3.576   7.458  0.2105 -1.0023 -1.5467
 2501SOL     OW 7501   2.260   1.537   7.168  0.2475  0.1624  0.0228
 2501SOL    HW1 7502   2.265   1.496   7.082 -0.5402  2.7297 -1.3478
 2501SOL    HW2 7503   2.166   1.553   7.181  0.3659 -0.1151  1.3493
 2502SOL     OW 7504   4.049   0.640   7.031 -0.1124 -0.2357  0.3159
 2502SOL    HW1 7505   3.993   0.665   6.958 -1.2151  0.1270  1.2628
 2502SOL    HW2 7506   3.993   0.647   7.108  1.2524  0.1819  1.3015
 2503SOL     OW 7507   1.098   2.575   8.864 -0.3841 -0.1917 -0.9624
 2503SOL    HW1 7508   1.137   2.628   8.794  1.7911  0.0740  0.3707
 2503SOL    HW2 7509   1.151   2.496   8.867  1.0470  0.7272  1.7271
 2504SOL     OW 7510   4.930   3.813   7.833  0.0842 -0.6115  0.0486
 2504SOL    HW1 7511   4.849   3.854   7.863 -0.9701 -2.1243 -0.6552
 2504SOL    HW2 7512   4.919   3.805   7.739  0.3361 -2.3215  0.1415
 2505SOL     OW 7513   4.721   1.078   9.593 -0.1152 -0.3110 -0.1202
 2505SOL    HW1 7514   4.757   1.163   9.569 -0.3115  0.2149  1.3559
 2505SOL    HW2 7515   4.797   1.027   9.622 -0.0856 -0.4429 -0.4186
 2506SOL     OW 7516   1.259   0.804   7.726 -0.4603 -0.0609  0.4652
 2506SOL    HW1 7517   1.228   0.872   7.666 -1.7866  0.3268  1.5623
 2506SOL    HW2 7518   1.273   0.849   7.809  1.5739 -0.5467  0.4602
 2507SOL     OW 7519   0.876   2.213   5.468  0.0522 -0.1812 -0.2296
 2507SOL    HW1 7520   0.843   2.269   5.398 -0.2888  0.8127  0.7153
 2507SOL    HW2 7521   0.868   2.124   5.433  0.6592  0.3372 -1.7714
 2508SOL     OW 7522   3.711   0.145   8.910  0.8421  0.5449  0.6403
 2508SOL    HW1 7523   3.671   0.071   8.864  2.9294 -0.5301  0.4305
 2508SOL    HW2 7524   3.654   0.160   8.985 -0.4479 -0.2812 -0.1298
 2509SOL     OW 7525   4.571   2.676   8.936 -0.0992 -0.6123 -0.1442
 2509SOL    HW1 7526   4.568   2.587   8.971  1.4267 -0.5014  0.3443
 2509SOL    HW2 7527   4.635   2.721   8.991  0.6281  0.2218 -1.6134
 2510SOL     OW 7528   0.189   3.952   9.729 -0.0017  1.0664  0.1925
 2510SOL    HW1 7529   0.237   3.892   9.786 -1.6754 -0.2375  0.3236
 2510SOL    HW2 7530   0.107   3.969   9.775  0.1213  2.9183 -0.1928
 2511SOL     OW 7531   4.425   4.858   9.196  0.2558  0.1828 -0.0302
 2511SOL    HW1 7532   4.427   4.949   9.167 -3.6709  0.0990 -1.1583
 2511SOL    HW2 7533   4.421   4.807   9.116  1.8246 -1.0233  0.5978
 2512SOL     OW 7534   1.343   2.853   8.115  0.0611 -0.5708  0.5348
 2512SOL    HW1 7535   1.266   2.908   8.110 -1.0073 -2.0909 -0.5401
 2512SOL    HW2 7536   1.384   2.876   8.198 -2.4749 -0.9144  1.9524
 2513SOL     OW 7537   3.290   3.957   6.880 -0.0843 -0.7644 -0.4636
 2513SOL    HW1 7538   3.295   3.940   6.785 -0.8649 -0.6927 -0.5287
 2513SOL    HW2 7539   3.317   4.048   6.890  0.6808 -0.9827 -0.5357
 2514SOL     OW 7540   1.803   3.873   7.255 -0.2256 -0.4213 -0.2365
 2514SOL    HW1 7541   1.790   3.797   7.311 -3.1525  0.9933  1.2081
 2514SOL    HW2 7542   1.784   3.842   7.167 -2.1329 -1.2576  0.4229
 2515SOL     OW 7543   4.273   2.955   6.479  0.3044 -0.0012  0.5143
 2515SOL    HW1 7544   4.310   2.870   6.452 -1.9396  0.0393 -3.4347
 2515SOL    HW2 7545   4.188   2.933   6.517 -0.1162  0.3966 -0.1700
 2516SOL     OW 7546   4.456   3.868   7.526 -0.7970 -0.1222  0.1122
 2516SOL    HW1 7547   4.463   3.780   7.490  0.5151  0.4458 -1.0901
 2516SOL    HW2 7548   4.516   3.921   7.473  0.1511  1.0460  2.2312
 2517SOL     OW 7549   3.822   1.216   5.170  0.0114  0.5464  0.0846
 2517SOL    HW1 7550   3.792   1.125   5.180 -1.2142  1.0796  1.7570
 2517SOL    HW2 7551   3.906   1.208   5.124 -0.9783 -1.2734 -1.5570
 2518SOL     OW 7552   4.855   1.918   5.623 -0.6608  0.3629  0.3210
 2518SOL    HW1 7553   4.884   1.856   5.690 -1.9701  1.0659  1.5878
 2518SOL    HW2 7554   4.935   1.965   5.599 -0.2017  0.2916  1.6074
 2519SOL     OW 7555   2.589   4.145   6.423  0.1775  0.3632 -0.5731
 2519SOL    HW1 7556   2.543   4.097   6.354 -0.7733  0.1768  0.1724
 2519SOL    HW2 7557   2.658   4.085   6.452 -0.6580 -0.3556 -0.0262
 2520SOL     OW 7558   3.364   3.926   8.595 -0.5785  0.6921  0.1292
 2520SOL    HW1 7559   3.372   3.842   8.549 -0.1796 -0.5116  2.2559
 2520SOL    HW2 7560   3.300   3.975   8.544  0.1884 -0.3354 -1.9509
 2521SOL     OW 7561   3.615   1.905   9.978 -0.4238  0.6435 -0.0262
 2521SOL    HW1 7562   3.669   1.864   9.911  0.3751  1.9351 -0.2304
 2521SOL    HW2 7563   3.608   1.997   9.950 -3.6085  0.3677 -0.5476
 2522SOL     OW 7564   2.013   3.067   6.638  0.6192  0.5597 -0.5555
 2522SOL    HW1 7565   1.995   3.116   6.718  1.1026  2.7294 -1.7138
 2522SOL    HW2 7566   2.108   3.060   6.635  0.5649 -0.2608 -0.5286
 2523SOL     OW 7567   1.730   3.930  10.069 -0.6184 -0.1865  0.7350
 2523SOL    HW1 7568   1.768   4.012  10.038  0.4686 -0.4134  1.4114
 2523SOL    HW2 7569   1.791   3.863  10.038 -1.9123 -0.8330 -0.5054
 2524SOL     OW 7570   4.159   4.736   8.300  0.2856  0.1518 -0.2555
 2524SOL    HW1 7571   4.093   4.673   8.270  0.6523 -0.2477 -0.2224
 2524SOL    HW2 7572   4.219   4.746   8.226 -0.1054  0.9248 -0.4777
 2525SOL     OW 7573   0.977   4.499   9.797 -0.0795  0.3760 -0.0269
 2525SOL    HW1 7574   1.031   4.529   9.724 -2.5088  1.3303 -1.5515
 2525SOL    HW2 7575   0.964   4.577   9.851 -0.2441  0.2520  0.1142
 2526SOL     OW 7576   4.441   4.079   9.032  0.3661  0.1449 -0.4721
 2526SOL    HW1 7577   4.437   4.174   9.039  0.6894  0.0507  1.5836
 2526SOL    HW2 7578   4.363   4.055   8.982  0.0704  1.4411 -0.6727
 2527SOL     OW 7579   0.539   2.366   9.082  0.0027 -0.4180  0.0577
 2527SOL    HW1 7580   0.569   2.370   9.173  0.7004  0.4521 -0.1934
 2527SOL    HW2 7581   0.580   2.442   9.040  0.8282 -1.5719 -1.3100
 2528SOL     OW 7582   3.609   2.932   9.151 -0.3426  0.2730  0.3031
 2528SOL    HW1 7583   3.632   2.992   9.222  1.8732 -0.6993  0.5000
 2528SOL    HW2 7584   3.521   2.903   9.172 -1.3263  3.0210  0.4538
 2529SOL     OW 7585   1.420   3.497   8.158 -0.1823  0.4833 -0.6797
 2529SOL    HW1 7586   1.488   3.474   8.221 -0.6647  0.5736 -0.1159
 2529SOL    HW2 7587   1.442   3.448   8.079  0.9461  1.0674 -0.7478
 2530SOL     OW 7588   0.574   4.296   9.982  0.4067  0.2794  0.1294
 2530SOL    HW1 7589   0.589   4.390   9.967 -0.3820  0.4288  0.2657
 2530SOL    HW2 7590   0.650   4.269  10.034  1.0653  0.6507 -0.5981
 2531SOL     OW 7591   1.075   2.829   9.728  0.4487 -0.7729 -0.0754
 2531SOL    HW1 7592   1.067   2.766   9.800  1.9370 -0.5851  0.2937
 2531SOL    HW2 7593   1.159   2.808   9.688 -0.6223 -1.2865 -2.2028
 2532SOL     OW 7594   0.156   4.646   9.838  0.2241 -0.1130 -0.7343
 2532SOL    HW1 7595   0.097   4.721   9.842 -0.7205 -0.8674  0.8931
 2532SOL    HW2 7596   0.200   4.653   9.753  0.1345  2.2267 -0.6528
 2533SOL     OW 7597   1.536   3.824   8.287  0.6124 -0.1902 -0.2800
 2533SOL    HW1 7598   1.506   3.813   8.197  2.1454  0.6054 -0.9259
 2533SOL    HW2 7599   1.481   3.895   8.322 -0.4958 -1.0053 -0.3140
 2534SOL     OW 7600   2.585   2.765   6.012  0.5700  0.3738  0.6021
 2534SOL    HW1 7601   2.555   2.692   6.066  0.4290  0.8093  1.1273
 2534SOL    HW2 7602   2.605   2.835   6.075  2.1121  0.3015  0.2372
 2535SOL     OW 7603   0.080   3.083   8.690  0.6708 -0.2241  0.3678
 2535SOL    HW1 7604   0.095   3.112   8.599 -0.1357  0.2403  0.3684
 2535SOL    HW2 7605   0.003   3.133   8.718 -0.5361 -2.0896  0.5236
 2536SOL     OW 7606   3.639   4.044   9.703  0.5372 -0.4976 -0.6439
 2536SOL    HW1 7607   3.727   4.079   9.688  0.0810  1.5735  1.0216
 2536SOL    HW2 7608   3.583   4.122   9.707 -1.1990 -1.7055 -0.6476
 2537SOL     OW 7609   0.913   0.829   7.146 -0.3343  0.4103  0.3810
 2537SOL    HW1 7610   0.852   0.828   7.220 -4.1182  0.3359 -2.4438
 2537SOL    HW2 7611   0.897   0.913   7.103  2.5798  0.9526  0.1515
 2538SOL     OW 7612   2.132   0.114   8.995 -0.2581 -0.3630  0.3468
 2538SOL    HW1 7613   2.069   0.155   8.935  0.7255  0.1829 -0.3372
 2538SOL    HW2 7614   2.143   0.025   8.960 -0.2013 -0.2688  0.1240
 2539SOL     OW 7615   0.600   4.204   7.634 -0.3396  0.7598 -0.3456
 2539SOL    HW1 7616   0.558   4.201   7.548  0.7267  0.1944 -0.8654
 2539SOL    HW2 7617   0.628   4.295   7.644  1.5514  0.3512 -1.6185
 2540SOL     OW 7618   1.245   0.560   7.945 -0.3398 -0.0724  0.4550
 2540SOL    HW1 7619   1.341   0.563   7.939 -0.2599 -1.4609  0.5962
 2540SOL    HW2 7620   1.216   0.540   7.856 -0.3428 -1.7309  0.7951
 2541SOL     OW 7621   3.051   2.691  10.027 -0.1385 -0.1306  0.7314
 2541SOL    HW1 7622   3.062   2.732   9.942 -1.8179  2.5914  1.7015
 2541SOL    HW2 7623   3.085   2.755  10.090 -2.3961 -0.3467  2.3072
 2542SOL     OW 7624   0.726   2.344   6.877 -0.9006  0.2612  0.0931
 2542SOL    HW1 7625   0.723   2.309   6.788  0.8302  1.2999 -0.4239
 2542SOL    HW2 7626   0.640   2.384   6.890 -1.4189 -0.5185 -0.8369
 2543SOL     OW 7627   1.155   3.753   7.384 -0.1751 -0.4484 -0.3929
 2543SOL    HW1 7628   1.081   3.770   7.325  0.2369  1.8483 -0.3295
 2543SOL    HW2 7629   1.172   3.837   7.426  0.8200 -1.5627  1.5615
 2544SOL     OW 7630   4.149   1.459   9.035 -0.5108  0.2411 -0.0016
 2544SOL    HW1 7631   4.077   1.411   8.995 -1.0092 -0.8373  2.0659
 2544SOL    HW2 7632   4.108   1.528   9.087 -0.0530 -0.1054  0.8453
 2545SOL     OW 7633   3.904   1.483   8.319  0.5367  0.9315 -0.8782
 2545SOL    HW1 7634   3.951   1.418   8.266  1.2017  0.7634 -0.0909
 2545SOL    HW2 7635   3.890   1.440   8.403 -4.0613 -0.3946 -2.0342
 2546SOL     OW 7636   2.603   3.932   9.686  0.1239  0.1364  0.3989
 2546SOL    HW1 7637   2.624   3.948   9.778 -0.2117 -0.1661  0.5319
 2546SOL    HW2 7638   2.660   3.991   9.638  3.6502 -2.7380  0.5832
 2547SOL     OW 7639   0.293   3.141   8.236 -0.1078  0.7770  0.3658
 2547SOL    HW1 7640   0.303   3.150   8.141 -0.8040  1.1326  0.3174
 2547SOL    HW2 7641   0.362   3.080   8.262 -0.0570  0.4893 -0.4055
 2548SOL     OW 7642   0.768   4.850   9.593  0.2514 -0.6157  0.6902
 2548SOL    HW1 7643   0.759   4.927   9.537  2.5320  0.0008  1.0933
 2548SOL    HW2 7644   0.716   4.872   9.670 -0.3741 -0.1493  0.1565
 2549SOL     OW 7645   2.767   0.541   7.342  0.4472 -0.0324 -0.6520
 2549SOL    HW1 7646   2.705   0.565   7.410 -0.1037  0.7900 -1.4078
 2549SOL    HW2 7647   2.766   0.446   7.339 -2.3213 -0.0525 -1.9835
 2550SOL     OW 7648   0.783   3.354   8.666  0.3702  1.2365  0.1778
 2550SOL    HW1 7649   0.783   3.281   8.728  1.3430  0.5843 -0.5762
 2550SOL    HW2 7650   0.870   3.393   8.674 -0.2223  2.4988  0.7623
 2551SOL     OW 7651   3.880   1.496   7.247 -0.3968  0.1911 -0.6069
 2551SOL    HW1 7652   3.904   1.475   7.337 -1.5743  0.0004 -0.3234
 2551SOL    HW2 7653   3.963   1.494   7.199  0.5944  2.4618  0.8517
 2552SOL     OW 7654   2.571   2.996   7.609  0.4845  0.3210  0.3142
 2552SOL    HW1 7655   2.518   2.967   7.683  1.4161 -1.2116  0.4286
 2552SOL    HW2 7656   2.528   3.076   7.578 -2.5506 -1.3984 -0.3301
 2553SOL     OW 7657   4.448   1.924   8.725 -0.6284  0.2826  0.2350
 2553SOL    HW1 7658   4.471   1.843   8.771  1.4546  0.3402 -0.6087
 2553SOL    HW2 7659   4.527   1.947   8.677 -1.0851  2.9908  0.6650
 2554SOL     OW 7660   2.926   2.569   8.459 -0.0215 -0.8151 -1.1564
 2554SOL    HW1 7661   2.850   2.625   8.476 -1.3876 -2.9370  0.1519
 2554SOL    HW2 7662   2.902   2.521   8.380  0.7603 -0.2577 -1.7521
 2555SOL     OW 7663   3.267   4.129   9.409  0.1380 -0.5085 -0.0156
 2555SOL    HW1 7664   3.194   4.082   9.449 -0.8890  0.5821 -0.5427
 2555SOL    HW2 7665   3.261   4.217   9.447  2.0420 -0.7707  0.9986
 2556SOL     OW 7666   3.578   0.587   7.313 -0.3799 -0.2269 -0.3114
 2556SOL    HW1 7667   3.512   0.628   7.257  0.3997 -0.6802 -1.6038
 2556SOL    HW2 7668   3.528   0.531   7.372 -1.1254 -1.3336 -1.9144
 2557SOL     OW 7669   1.960   2.133   9.967 -0.0680 -0.2586 -0.1420
 2557SOL    HW1 7670   1.916   2.108  10.048  0.4645  0.7312  0.4697
 2557SOL    HW2 7671   1.987   2.050   9.928 -2.7502 -0.9451 -0.7271
 2558SOL     OW 7672   2.596   2.137   7.811  0.7801  0.3794 -0.3940
 2558SOL    HW1 7673   2.602   2.043   7.792 -0.4184 -0.1388  1.4080
 2558SOL    HW2 7674   2.663   2.177   7.757  2.7119 -1.7567  0.2464
 2559SOL     OW 7675   4.198   1.854   8.643  1.2101 -1.0214  0.3841
 2559SOL    HW1 7676   4.138   1.918   8.604  0.8606 -1.4577  0.1904
 2559SOL    HW2 7677   4.273   1.905   8.672 -1.2626  0.4881  5.2685
 2560SOL     OW 7678   1.364   2.975   9.330 -0.0167 -0.4202  0.4025
 2560SOL    HW1 7679   1.390   2.918   9.257 -0.6079 -1.0166  0.6376
 2560SOL    HW2 7680   1.442   3.026   9.350 -0.5246  1.7411 -2.3855
 2561SOL     OW 7681   2.032   4.015   6.642 -0.4619  0.6067  0.5013
 2561SOL    HW1 7682   1.975   4.004   6.718 -1.2533  2.4105  0.2180
 2561SOL    HW2 7683   2.120   4.020   6.679 -0.5659 -0.9089  1.0527
 2562SOL     OW 7684   3.138   2.668   8.926 -0.2844  0.0032 -0.0269
 2562SOL    HW1 7685   3.127   2.629   8.840 -1.9194 -0.7844  0.4847
 2562SOL    HW2 7686   3.169   2.597   8.982 -0.0641  0.2875  0.2202
 2563SOL     OW 7687   4.425   0.294   9.424  0.4776 -0.0005  0.0699
 2563SOL    HW1 7688   4.469   0.211   9.442  2.3150  0.5768 -1.3590
 2563SOL    HW2 7689   4.421   0.298   9.328 -1.5207  0.6188  0.1425
 2564SOL     OW 7690   2.946   1.817   8.793 -0.0814 -0.6395  0.2306
 2564SOL    HW1 7691   2.858   1.781   8.805  0.5342 -1.6477  2.1805
 2564SOL    HW2 7692   2.970   1.852   8.879  1.5887 -0.7752 -0.1409
 2565SOL     OW 7693   3.098   3.945   9.023  0.0685  0.0748  0.5210
 2565SOL    HW1 7694   3.159   4.015   9.042 -0.5948  0.7359  0.2622
 2565SOL    HW2 7695   3.078   3.954   8.930  1.1422 -1.4114  0.1025
 2566SOL     OW 7696   1.805   2.866   8.660 -0.1294 -0.1305 -0.0805
 2566SOL    HW1 7697   1.858   2.792   8.692  1.6506  0.1360 -2.1754
 2566SOL    HW2 7698   1.843   2.887   8.575 -3.1283  0.6718 -1.3405
 2567SOL     OW 7699   2.612   2.721   7.433 -0.1725 -0.7149 -0.5166
 2567SOL    HW1 7700   2.634   2.699   7.524  1.2894 -0.7010 -0.8338
 2567SOL    HW2 7701   2.647   2.809   7.420  0.0000 -0.8767 -1.2063
 2568SOL     OW 7702   3.621   4.206   9.298 -0.3670  0.7268 -0.5680
 2568SOL    HW1 7703   3.675   4.254   9.361  0.8581 -0.6229 -0.5482
 2568SOL    HW2 7704   3.535   4.201   9.339 -0.4135  2.5184 -0.3928
 2569SOL     OW 7705   2.012   3.077   9.555  0.8423 -1.0370 -0.2337
 2569SOL    HW1 7706   2.007   3.005   9.618  1.4220 -0.6632  0.2603
 2569SOL    HW2 7707   1.956   3.145   9.592  0.2408 -1.2504 -0.7352
 2570SOL     OW 7708   1.225   0.007   9.991  0.2709 -0.2600  0.2170
 2570SOL    HW1 7709   1.162   0.042   9.928  0.8442  0.6126  0.1066
 2570SOL    HW2 7710   1.310   0.029   9.955  0.6253  1.9799  2.1742
 2571SOL     OW 7711   4.180   1.587   9.918  0.0440  0.3522  0.3619
 2571SOL    HW1 7712   4.195   1.495   9.896 -0.5406  1.0434 -3.6095
 2571SOL    HW2 7713   4.268   1.623   9.931  0.4833 -0.2253 -0.8630
 2572SOL     OW 7714   2.748   0.355  10.144  0.4097  0.3179  0.1068
 2572SOL    HW1 7715   2.664   0.396  10.123  1.7357  3.3606  0.2021
 2572SOL    HW2 7716   2.730   0.298  10.218 -1.0445  3.5509  2.4424
 2573SOL     OW 7717   0.627   0.575   9.222  0.4246  0.4259 -0.4554
 2573SOL    HW1 7718   0.592   0.618   9.144 -1.1765  0.0176  0.0097
 2573SOL    HW2 7719   0.571   0.605   9.293  1.7189  0.6114  0.5300
 2574SOL     OW 7720   3.445   1.809   8.277  0.0489  0.6536  0.1718
 2574SOL    HW1 7721   3.368   1.777   8.322  0.3518 -0.8993 -0.3633
 2574SOL    HW2 7722   3.519   1.770   8.323  0.3467 -1.6981 -2.0716
 2575SOL     OW 7723   2.550   1.275   9.523  0.6340 -0.1619  0.5761
 2575SOL    HW1 7724   2.626   1.223   9.497  0.9029 -0.2365  1.4630
 2575SOL    HW2 7725   2.581   1.327   9.598 -0.6815 -1.5997  2.2249
 2576SOL     OW 7726   4.370   1.523   8.281  0.0035 -0.1568  0.6740
 2576SOL    HW1 7727   4.402   1.608   8.309 -1.3596 -0.1784  2.4909
 2576SOL    HW2 7728   4.274   1.530   8.285 -0.1617 -1.4817 -0.0908
 2577SOL     OW 7729   1.939   3.483   8.829 -0.2136 -0.6080 -0.3565
 2577SOL    HW1 7730   1.869   3.437   8.874  0.3333 -0.8524  0.2567
 2577SOL    HW2 7731   1.897   3.561   8.792 -1.2952 -1.9079 -2.0017
 2578SOL     OW 7732   4.550   1.400   9.475 -0.1773 -0.0418  0.3918
 2578SOL    HW1 7733   4.455   1.394   9.461 -0.1623  0.3195  0.1382
 2578SOL    HW2 7734   4.588   1.344   9.408 -0.2420 -0.9157  1.0586
 2579SOL     OW 7735   0.051   2.726   9.519  0.2146 -0.0157 -0.2699
 2579SOL    HW1 7736   0.021   2.812   9.549  0.5985 -0.3582  1.1942
 2579SOL    HW2 7737  -0.017   2.696   9.459 -0.4295  0.8719 -0.0053
 2580SOL     OW 7738   1.825   1.593   9.652 -0.5221  0.0270  0.0714
 2580SOL    HW1 7739   1.801   1.502   9.633  1.0971 -0.2319 -0.8460
 2580SOL    HW2 7740   1.879   1.587   9.731 -1.8678  0.4223  1.0700
 2581SOL     OW 7741   3.596   4.258   8.230 -0.1735 -0.3996  0.0921
 2581SOL    HW1 7742   3.681   4.221   8.208 -0.5356 -1.3791  0.3140
 2581SOL    HW2 7743   3.607   4.292   8.319 -0.4210 -1.8634  0.7048
 2582SOL     OW 7744   1.114   3.306   8.145  0.4635  0.1285 -0.5659
 2582SOL    HW1 7745   1.130   3.228   8.092 -0.9330  0.7845 -1.9974
 2582SOL    HW2 7746   1.187   3.364   8.125  0.3592  0.0570 -1.1609
 2583SOL     OW 7747   0.501   0.850   8.019 -0.0064  0.0765  0.0450
 2583SOL    HW1 7748   0.421   0.865   7.968 -1.0851 -0.3529  1.5513
 2583SOL    HW2 7749   0.529   0.761   7.995  1.0381  0.8318 -1.7617
 2584SOL     OW 7750   1.261   4.420   9.975  0.2707  0.4077 -0.3159
 2584SOL    HW1 7751   1.316   4.397  10.049 -0.4908  1.9118  0.7674
 2584SOL    HW2 7752   1.200   4.486  10.009 -0.4848  0.7197 -2.1254
 2585SOL     OW 7753   2.840   2.336   8.067 -0.6558 -0.1154 -0.3218
 2585SOL    HW1 7754   2.878   2.366   7.984 -2.6348 -1.8782 -1.9963
 2585SOL    HW2 7755   2.910   2.285   8.108 -0.0136 -0.2420 -1.5198
 2586SOL     OW 7756   4.925   2.983   9.533  0.9951 -0.3135 -0.1525
 2586SOL    HW1 7757   4.858   3.030   9.484  1.4961 -0.2761 -0.8233
 2586SOL    HW2 7758   4.939   3.036   9.612  1.4122  0.5779 -0.8066
 2587SOL     OW 7759   3.162   0.211  10.068 -0.3735  0.0737  0.6875
 2587SOL    HW1 7760   3.171   0.288  10.124  0.2900  1.1784 -0.8538
 2587SOL    HW2 7761   3.073   0.216  10.034 -1.4738 -1.6799  3.0702
 2588SOL     OW 7762   0.170   4.092   7.295 -0.0285  0.5397  0.3964
 2588SOL    HW1 7763   0.207   4.175   7.266  0.8340 -0.1261 -0.4813
 2588SOL    HW2 7764   0.093   4.079   7.238  0.4896  0.2113 -0.2445
 2589SOL     OW 7765   3.206   1.691  10.149 -0.0156  0.2896 -0.3905
 2589SOL    HW1 7766   3.297   1.675  10.172  0.2751  0.8900 -1.0957
 2589SOL    HW2 7767   3.208   1.770  10.095 -1.3302  2.5063  2.4992
 2590SOL     OW 7768   0.235   4.900   7.739 -0.1778 -0.2840 -0.1688
 2590SOL    HW1 7769   0.327   4.878   7.757 -0.8417 -2.5884  0.7677
 2590SOL    HW2 7770   0.204   4.937   7.821  0.1559  1.5978 -0.8412
 2591SOL     OW 7771   1.581   0.577   8.980 -1.0181 -0.2546 -0.4715
 2591SOL    HW1 7772   1.533   0.637   9.037  0.8427 -0.0410  1.0025
 2591SOL    HW2 7773   1.589   0.623   8.897  1.5455  2.3164  1.0094
 2592SOL     OW 7774   3.719   3.597   9.442 -0.1773 -0.0762 -0.1742
 2592SOL    HW1 7775   3.806   3.635   9.431 -0.0187 -0.5825 -0.7220
 2592SOL    HW2 7776   3.663   3.671   9.463  0.4559  0.2045  0.6065
 2593SOL     OW 7777   0.084   3.804  10.050  0.6953 -0.8367  0.3910
 2593SOL    HW1 7778   0.086   3.838  10.139  0.9740  2.6248 -0.7929
 2593SOL    HW2 7779   0.175   3.803  10.022  0.7513 -3.0673  0.4411
 2594SOL     OW 7780   0.717   4.600   9.694 -0.1136  0.0641 -0.1640
 2594SOL    HW1 7781   0.792   4.543   9.683 -1.5772 -1.7858 -1.2213
 2594SOL    HW2 7782   0.748   4.686   9.666  2.4718  0.1399  2.5158
 2595SOL     OW 7783   4.524   4.392   8.077 -0.1949 -0.0218 -0.0408
 2595SOL    HW1 7784   4.480   4.426   8.155 -1.3575 -1.3581 -0.0788
 2595SOL    HW2 7785   4.470   4.423   8.004 -1.1059 -1.6352 -0.0931
 2596SOL     OW 7786   0.643   0.147  10.208  0.0020 -0.1890 -0.3069
 2596SOL    HW1 7787   0.598   0.088  10.268  2.4154 -0.7567  1.0970
 2596SOL    HW2 7788   0.573   0.193  10.162 -2.0131 -0.2401  2.4503
 2597SOL     OW 7789   2.061   2.804   8.157 -0.0528 -0.3903 -0.3038
 2597SOL    HW1 7790   2.046   2.847   8.073  0.1268 -1.1446 -0.7374
 2597SOL    HW2 7791   2.035   2.713   8.141  0.0825 -0.5615  0.4311
 2598SOL     OW 7792   1.856   3.393   7.579  0.2720  0.6543 -0.1844
 2598SOL    HW1 7793   1.887   3.329   7.643  2.2494  1.6111 -0.1294
 2598SOL    HW2 7794   1.776   3.353   7.543 -0.0334 -0.6042  1.7281
 2599SOL     OW 7795   0.547   3.773  10.179  0.0596  0.5637  0.3875
 2599SOL    HW1 7796   0.488   3.700  10.198  1.9790 -1.2512 -0.1753
 2599SOL    HW2 7797   0.627   3.731  10.146  0.1570  3.0322 -3.1128
 2600SOL     OW 7798   1.248   1.207   8.819  0.1042  0.1929 -0.4541
 2600SOL    HW1 7799   1.157   1.189   8.796  0.2187 -1.2261  0.0936
 2600SOL    HW2 7800   1.300   1.154   8.758  0.4679 -1.2207  0.9993
 2601SOL     OW 7801   2.779   4.052   9.357 -0.2984  0.2360  0.1539
 2601SOL    HW1 7802   2.733   4.097   9.286  0.2399  1.1002  0.3466
 2601SOL    HW2 7803   2.833   4.119   9.398  1.0966 -0.7305 -0.0211
 2602SOL     OW 7804   2.212   0.419   9.975  0.1376  0.1372  0.1098
 2602SOL    HW1 7805   2.124   0.400  10.008 -0.2095  1.8245  0.2282
 2602SOL    HW2 7806   2.267   0.422  10.053  0.4255 -1.3818 -0.0019
 2603SOL     OW 7807   2.269   2.800   9.023  0.6221  0.8447  0.0764
 2603SOL    HW1 7808   2.238   2.730   9.081  2.2940 -1.1219 -1.2787
 2603SOL    HW2 7809   2.345   2.836   9.068 -0.5430  2.2586  1.0270
 2604SOL     OW 7810   1.341   4.304   8.999 -0.0033  0.4724  0.6386
 2604SOL    HW1 7811   1.299   4.221   8.975  0.1157  0.2878  1.0511
 2604SOL    HW2 7812   1.269   4.364   9.017 -0.1602  1.3224 -2.4059
 2605SOL     OW 7813   3.628   0.620   9.470 -0.2398 -0.1047 -0.0460
 2605SOL    HW1 7814   3.554   0.570   9.505 -1.1523 -0.2513 -2.0522
 2605SOL    HW2 7815   3.610   0.711   9.494 -0.2358 -0.3245  0.8289
 2606SOL     OW 7816   1.018   2.293   9.230  0.4099  0.0958  0.4457
 2606SOL    HW1 7817   1.000   2.209   9.273  1.3092 -0.1715  0.3100
 2606SOL    HW2 7818   1.113   2.300   9.229  0.3639  0.7567 -0.2542
 2607SOL     OW 7819   3.543   3.963   9.023  0.0676  0.3314  0.2598
 2607SOL    HW1 7820   3.576   3.908   9.094 -1.0124  0.3529  0.7988
 2607SOL    HW2 7821   3.593   4.044   9.031 -2.6915  1.9799  3.6394
 2608SOL     OW 7822   3.469   4.354   9.964  0.9720 -0.2928 -0.3638
 2608SOL    HW1 7823   3.501   4.292  10.030 -0.6090  0.0955  0.8000
 2608SOL    HW2 7824   3.536   4.423   9.962 -0.3756  1.3520  3.2253
 2609SOL     OW 7825   3.772   4.962   8.206  0.0228  0.4347  0.4824
 2609SOL    HW1 7826   3.734   5.028   8.265  0.6199  0.4344  0.8721
 2609SOL    HW2 7827   3.767   4.880   8.255 -2.0561 -0.1408 -0.5423
 2610SOL     OW 7828   2.215   2.345   7.988 -0.1656 -0.2992 -0.3829
 2610SOL    HW1 7829   2.127   2.324   7.956  0.9173 -3.0255 -2.0007
 2610SOL    HW2 7830   2.234   2.277   8.052  0.5271  0.7025  0.5093
 2611SOL     OW 7831   1.690   3.567  10.021  0.0581 -0.9242  0.9797
 2611SOL    HW1 7832   1.770   3.609   9.990 -1.3426  2.0925  1.0757
 2611SOL    HW2 7833   1.661   3.621  10.095 -3.9484  0.5370 -1.3001
 2612SOL     OW 7834   1.857   0.020   8.487 -0.1008 -0.8909 -0.5483
 2612SOL    HW1 7835   1.787   0.045   8.547  0.1320  0.1165 -0.6801
 2612SOL    HW2 7836   1.812  -0.026   8.416 -0.6100 -0.4487 -0.5208
 2613SOL     OW 7837   4.257   2.797   8.110  0.2153 -0.6340  0.5166
 2613SOL    HW1 7838   4.342   2.782   8.069  0.3189  3.3393 -1.2458
 2613SOL    HW2 7839   4.195   2.746   8.058  1.1688 -1.2639 -0.0230
 2614SOL     OW 7840   2.601   3.173   6.786 -0.6553  0.2848  0.5565
 2614SOL    HW1 7841   2.662   3.167   6.859 -0.7008 -0.6780  0.5386
 2614SOL    HW2 7842   2.634   3.244   6.731  0.6999 -0.4878  0.3293
 2615SOL     OW 7843   0.485   2.946  10.001 -0.6771 -0.2581  0.0394
 2615SOL    HW1 7844   0.408   2.990   9.965 -1.1801 -0.3270  0.9840
 2615SOL    HW2 7845   0.462   2.853  10.001 -0.7655 -0.2453  0.6765
 2616SOL     OW 7846   2.572   0.244   9.093  0.6601 -0.5125  0.2589
 2616SOL    HW1 7847   2.648   0.297   9.116 -1.2214  1.8536  1.4666
 2616SOL    HW2 7848   2.547   0.275   9.006  0.1186 -0.0127  0.5770
 2617SOL     OW 7849   3.860   2.689   6.747  0.2984 -0.3646  0.4821
 2617SOL    HW1 7850   3.910   2.607   6.747  1.3847  0.2562  1.3537
 2617SOL    HW2 7851   3.769   2.662   6.742  0.6966 -1.5654 -0.6621
 2618SOL     OW 7852   1.847   2.807   7.180  0.5086 -0.5808 -0.2131
 2618SOL    HW1 7853   1.912   2.867   7.217  1.3462  0.7592 -3.4470
 2618SOL    HW2 7854   1.871   2.801   7.088 -3.9383  0.0177 -1.6453
 2619SOL     OW 7855   0.688   1.926   8.916 -0.3183  0.6130  0.0184
 2619SOL    HW1 7856   0.696   1.842   8.870  0.9599  0.0040  1.3125
 2619SOL    HW2 7857   0.777   1.948   8.942 -0.9474  1.1709  1.7918
 2620SOL     OW 7858   1.571   1.126   9.692  0.1002  0.1736  0.4071
 2620SOL    HW1 7859   1.491   1.180   9.693 -0.3729 -0.4247 -1.2546
 2620SOL    HW2 7860   1.581   1.097   9.782 -1.5198  0.3461  0.6795
 2621SOL     OW 7861   0.246   0.181   8.407  0.2720  0.3038 -0.1619
 2621SOL    HW1 7862   0.296   0.224   8.338 -0.1385  0.5264 -0.3284
 2621SOL    HW2 7863   0.291   0.203   8.488  0.6274  0.2309 -0.3413
 2622SOL     OW 7864   4.440   2.957   9.313  0.1494 -0.1819  0.3032
 2622SOL    HW1 7865   4.514   2.898   9.323 -0.4225 -0.9189  0.2782
 2622SOL    HW2 7866   4.364   2.899   9.302 -0.3575  0.5538 -0.2033
 2623SOL     OW 7867   0.314   4.236   9.840 -0.1220  0.0046 -0.1184
 2623SOL    HW1 7868   0.287   4.144   9.845 -2.4988  0.6729  1.3356
 2623SOL    HW2 7869   0.393   4.240   9.894 -0.5099 -1.0422  0.5814
 2624SOL     OW 7870   0.764   1.541   8.573  0.2945 -0.3310  0.3388
 2624SOL    HW1 7871   0.726   1.627   8.588 -0.6925 -0.6476 -0.2292
 2624SOL    HW2 7872   0.823   1.527   8.647  0.3359  0.7565  0.5212
 2625SOL     OW 7873   2.286   4.191   8.052 -0.9548 -0.4906 -0.1253
 2625SOL    HW1 7874   2.193   4.210   8.038 -0.5214  2.7648  0.5598
 2625SOL    HW2 7875   2.297   4.195   8.147 -0.0717 -0.5264 -0.2234
 2626SOL     OW 7876   1.768   4.567   9.116 -0.6745 -0.0662  0.0155
 2626SOL    HW1 7877   1.718   4.647   9.101 -0.4013 -0.2048 -1.9720
 2626SOL    HW2 7878   1.859   4.595   9.114 -0.5277 -0.5351 -1.9107
 2627SOL     OW 7879   2.086   4.544   9.901 -0.2588 -0.0027  0.3916
 2627SOL    HW1 7880   2.124   4.484   9.965 -1.4005 -1.7777 -0.5077
 2627SOL    HW2 7881   2.152   4.553   9.833  0.0257 -0.0210  0.6665
 2628SOL     OW 7882   4.413   2.137   6.640  0.0441  0.9064 -0.5719
 2628SOL    HW1 7883   4.358   2.190   6.697  1.1322  1.2907  0.1616
 2628SOL    HW2 7884   4.435   2.194   6.566 -1.0023  0.5565 -1.1673
 2629SOL     OW 7885   0.258   4.999   9.606 -0.1974 -0.5960 -0.2849
 2629SOL    HW1 7886   0.217   5.012   9.520 -0.9808  0.3471  0.2125
 2629SOL    HW2 7887   0.282   4.906   9.607  2.6210 -0.0695 -2.7066
 2630SOL     OW 7888   2.486   0.882   6.545  0.6810 -0.1562 -0.2935
 2630SOL    HW1 7889   2.421   0.934   6.592  1.2883 -0.0367  0.4399
 2630SOL    HW2 7890   2.446   0.865   6.460 -0.3223 -0.1104  0.1479
 2631SOL     OW 7891   1.351   1.579   9.245  0.2733 -0.0969 -0.7482
 2631SOL    HW1 7892   1.405   1.636   9.300  0.7983 -2.3020  1.1627
 2631SOL    HW2 7893   1.410   1.507   9.221 -0.7542 -0.5826 -1.8959
 2632SOL     OW 7894   3.055   2.806   9.178 -0.3284 -0.1592  0.2014
 2632SOL    HW1 7895   3.057   2.766   9.092  0.9314 -0.0261  0.1498
 2632SOL    HW2 7896   3.028   2.897   9.162  3.1047  0.8839 -0.5551
 2633SOL     OW 7897   1.427   2.698   8.743 -0.2288  0.0507  0.0939
 2633SOL    HW1 7898   1.382   2.686   8.659  0.1884 -0.7456 -0.0305
 2633SOL    HW2 7899   1.397   2.624   8.796  0.8971 -0.4819  0.0135
 2634SOL     OW 7900   3.639   0.668  10.330 -0.1471 -0.1148 -0.0181
 2634SOL    HW1 7901   3.687   0.604  10.276 -0.4797 -0.3081 -0.0853
 2634SOL    HW2 7902   3.703   0.737  10.348  0.8444 -1.4127  1.7492
 2635SOL     OW 7903   0.336   0.402   9.555  0.6982  0.2474  0.0062
 2635SOL    HW1 7904   0.367   0.489   9.530 -0.5691  0.2955 -1.5755
 2635SOL    HW2 7905   0.243   0.415   9.575  0.2661 -0.8726 -1.1551
 2636SOL     OW 7906   2.180   2.105   9.687 -0.1401  0.2013 -0.1104
 2636SOL    HW1 7907   2.161   2.150   9.604 -0.0110 -1.2384 -0.9513
 2636SOL    HW2 7908   2.100   2.057   9.707  0.7715 -1.8285 -1.0011
 2637SOL     OW 7909   1.664   0.073   8.691 -0.5330 -0.1700 -0.1796
 2637SOL    HW1 7910   1.643   0.020   8.768 -0.7279  0.0062 -0.1104
 2637SOL    HW2 7911   1.704   0.152   8.727 -0.0574 -0.3602 -0.2940
 2638SOL     OW 7912   2.491   2.747   8.209 -0.2678  0.3110  0.0114
 2638SOL    HW1 7913   2.499   2.666   8.261  2.0961  0.2579 -0.3474
 2638SOL    HW2 7914   2.472   2.716   8.120  0.9384  0.0953 -0.1894
 2639SOL     OW 7915   2.171   1.287   7.862 -1.2869  0.3118  0.3029
 2639SOL    HW1 7916   2.214   1.370   7.885 -1.1456 -0.0196  1.3006
 2639SOL    HW2 7917   2.243   1.226   7.849 -1.3321  0.6416 -1.7768
 2640SOL     OW 7918   0.868   2.637   9.254  0.0396  0.4612 -0.1559
 2640SOL    HW1 7919   0.844   2.729   9.265  0.3155  0.5878 -0.6085
 2640SOL    HW2 7920   0.868   2.623   9.160 -0.6107 -0.1704 -0.0737
 2641SOL     OW 7921   1.012   0.769   8.524 -0.3938 -0.0499 -0.2394
 2641SOL    HW1 7922   1.055   0.840   8.476 -0.4529 -0.6739 -1.2434
 2641SOL    HW2 7923   0.920   0.796   8.528 -0.1021  0.8367  1.0858
 2642SOL     OW 7924   2.145   0.786   8.132  0.0397 -0.2694  0.0423
 2642SOL    HW1 7925   2.063   0.835   8.135 -0.0238 -0.4165  1.5876
 2642SOL    HW2 7926   2.117   0.694   8.128  0.1055 -0.3354  0.8903
 2643SOL     OW 7927   2.231   4.944  10.353 -0.6046 -0.7883 -0.2652
 2643SOL    HW1 7928   2.168   4.947  10.281  1.5371  0.0774 -2.2456
 2643SOL    HW2 7929   2.220   4.857  10.390 -2.3264 -0.9814 -1.1081
 2644SOL     OW 7930   0.345   3.572  10.217 -0.9646  0.6616  0.0007
 2644SOL    HW1 7931   0.269   3.544  10.268 -1.5116 -1.2411 -1.7778
 2644SOL    HW2 7932   0.414   3.511  10.241 -0.5470  1.1630  0.1124
 2645SOL     OW 7933   1.990   0.382   8.543  0.2895  0.2810  0.2677
 2645SOL    HW1 7934   1.902   0.416   8.524  0.1484  0.0065  0.4228
 2645SOL    HW2 7935   2.034   0.381   8.458  0.2627  0.7564  0.2428
 2646SOL     OW 7936   3.245   1.540   8.209  0.3422  0.2239  0.0385
 2646SOL    HW1 7937   3.149   1.548   8.204  0.2823 -0.9013 -1.3599
 2646SOL    HW2 7938   3.267   1.572   8.296 -1.2192  1.3136  0.0763
 2647SOL     OW 7939   1.207   3.990   7.946  0.6606 -0.1823 -0.0672
 2647SOL    HW1 7940   1.145   4.037   8.001  0.4155  2.4936 -2.4390
 2647SOL    HW2 7941   1.153   3.939   7.886  0.8991 -1.2604  0.5954
 2648SOL     OW 7942   2.124   2.618   9.833 -0.2303  0.4203 -0.2899
 2648SOL    HW1 7943   2.130   2.524   9.846 -1.2857 -0.0666 -2.6862
 2648SOL    HW2 7944   2.204   2.641   9.785 -0.3087  0.6020 -0.3346
 2649SOL     OW 7945   2.538   3.309   9.680  0.0856  0.3707  0.0919
 2649SOL    HW1 7946   2.508   3.258   9.605 -1.4832  1.7950 -0.3041
 2649SOL    HW2 7947   2.564   3.394   9.644 -0.9314  1.1630  1.1509
 2650SOL     OW 7948   1.428   1.872   9.840 -0.7839 -0.7157  0.2740
 2650SOL    HW1 7949   1.395   1.802   9.897  0.9343 -0.8317  1.2049
 2650SOL    HW2 7950   1.513   1.839   9.809 -0.7464  0.2392 -0.6746
 2651SOL     OW 7951   4.608   0.270   8.426 -0.1369  0.1154  0.5086
 2651SOL    HW1 7952   4.625   0.254   8.333 -0.8629 -1.1617  0.5775
 2651SOL    HW2 7953   4.689   0.244   8.470 -0.0298  0.0809  0.2940
 2652SOL     OW 7954   1.878   2.572   9.751  0.2270 -0.5787  0.1321
 2652SOL    HW1 7955   1.811   2.626   9.794  0.7211 -1.1444  1.6924
 2652SOL    HW2 7956   1.958   2.591   9.800  0.7020 -1.6632 -0.2105
 2653SOL     OW 7957   2.233   4.656   7.946  0.0453  0.7478 -0.0859
 2653SOL    HW1 7958   2.281   4.596   7.888  0.4178  0.8699  0.0914
 2653SOL    HW2 7959   2.187   4.715   7.886 -1.3094 -0.4552 -0.2811
 2654SOL     OW 7960   4.435   1.283   8.420  0.3251  0.1524 -0.4274
 2654SOL    HW1 7961   4.369   1.298   8.487  3.2843  2.1369  2.3637
 2654SOL    HW2 7962   4.440   1.365   8.371 -0.1341 -0.4439 -1.5129
 2655SOL     OW 7963   3.393   3.892   8.169  0.3314  0.5296 -0.8035
 2655SOL    HW1 7964   3.349   3.820   8.214 -0.2026  0.1023 -1.9722
 2655SOL    HW2 7965   3.477   3.900   8.214  0.4308 -0.8751 -0.6949
 2656SOL     OW 7966   0.972   4.907   9.123 -0.0835  1.1145 -0.1112
 2656SOL    HW1 7967   1.034   4.836   9.135 -0.8114  0.2227 -1.3688
 2656SOL    HW2 7968   1.017   4.969   9.065 -0.2691  0.5669 -0.8570
 2657SOL     OW 7969   2.843   0.901   7.984 -0.3058  0.8698 -1.1786
 2657SOL    HW1 7970   2.884   0.859   8.059 -0.5347  0.0517 -1.4983
 2657SOL    HW2 7971   2.827   0.991   8.012 -4.3680 -0.3683  1.4414
 2658SOL     OW 7972   4.100   2.789   9.997 -0.1960  0.1392 -0.3317
 2658SOL    HW1 7973   4.046   2.848   9.945  1.9538  0.3779 -2.4537
 2658SOL    HW2 7974   4.105   2.709   9.946  1.5692  0.1945 -0.3171
 2659SOL     OW 7975   1.810   3.899   8.315 -0.2906 -0.0503  0.1812
 2659SOL    HW1 7976   1.715   3.910   8.314 -0.3322 -0.3951  0.3359
 2659SOL    HW2 7977   1.824   3.806   8.331  0.0291 -0.7620 -3.3911
 2660SOL     OW 7978   4.455   2.279   9.157  0.0520 -0.5221  0.3904
 2660SOL    HW1 7979   4.431   2.218   9.088 -0.0563 -1.0650  0.8967
 2660SOL    HW2 7980   4.520   2.337   9.117  0.0923 -0.9179 -0.1228
 2661SOL     OW 7981   2.322   1.976   9.456 -0.2770 -0.3100 -0.4648
 2661SOL    HW1 7982   2.358   2.059   9.486 -0.7301 -0.0478 -0.6492
 2661SOL    HW2 7983   2.313   1.924   9.536  0.0271 -0.1937 -0.3522
 2662SOL     OW 7984   0.136   1.062   9.779 -0.0898  0.4519 -0.0474
 2662SOL    HW1 7985   0.189   1.028   9.851 -1.1672 -0.4772  0.3413
 2662SOL    HW2 7986   0.105   1.146   9.810 -1.1819 -0.2802  0.9364
 2663SOL     OW 7987   1.954   3.146   7.134  0.6081 -0.2733  0.0085
 2663SOL    HW1 7988   1.961   3.194   7.052  1.2091  0.4831  0.4805
 2663SOL    HW2 7989   1.863   3.119   7.138  0.2169  0.9255 -0.2445
 2664SOL     OW 7990   3.899   4.105   8.968  0.1423 -0.8864 -0.6364
 2664SOL    HW1 7991   3.889   4.178   8.906  0.4870  0.0368  0.3574
 2664SOL    HW2 7992   3.816   4.104   9.016  0.5043 -0.4852  0.0206
 2665SOL     OW 7993   2.665   0.953   9.613 -0.1528  0.3060 -0.4505
 2665SOL    HW1 7994   2.591   0.994   9.657  0.7735 -0.5130  2.0366
 2665SOL    HW2 7995   2.632   0.930   9.526 -3.2501 -1.2622  1.0079
 2666SOL     OW 7996   2.986   0.630   5.143  0.0867 -0.1995  0.0015
 2666SOL    HW1 7997   2.992   0.720   5.109  1.3021  0.4686  1.8557
 2666SOL    HW2 7998   3.008   0.638   5.235  1.4824 -2.6057 -0.0584
 2667SOL     OW 7999   0.919   4.327   6.675 -0.3134  0.1467 -0.0082
 2667SOL    HW1 8000   0.977   4.320   6.750  0.1577 -1.0887 -0.4774
 2667SOL    HW2 8001   0.936   4.249   6.623 -1.3453  0.4891 -0.9024
 2668SOL     OW 8002   4.079   4.043   5.265 -0.2054  0.1579 -0.4130
 2668SOL    HW1 8003   3.999   4.095   5.273 -1.1180 -1.0259 -1.5513
 2668SOL    HW2 8004   4.121   4.076   5.185 -2.2975 -2.6752 -2.9203
 2669SOL     OW 8005   4.988   0.362   8.074 -0.6449 -0.2465 -0.9489
 2669SOL    HW1 8006   5.070   0.314   8.077 -0.0631  0.7762  1.5874
 2669SOL    HW2 8007   4.924   0.304   8.116 -1.3700 -1.1678 -3.1843
 2670SOL     OW 8008   0.174   0.615   5.741  0.0406  0.1626  0.5012
 2670SOL    HW1 8009   0.244   0.644   5.800 -1.1534  2.0289  1.0938
 2670SOL    HW2 8010   0.107   0.580   5.799 -0.9643  1.6178  0.2548
 2671SOL     OW 8011   4.399   0.028   5.927 -0.0868 -0.2134  0.5825
 2671SOL    HW1 8012   4.400   0.037   5.832  2.9213 -3.0356  0.1639
 2671SOL    HW2 8013   4.311  -0.004   5.948 -0.5282 -0.3594 -1.3441
 2672SOL     OW 8014   4.185   2.162   7.084 -0.3656 -0.0929  0.1443
 2672SOL    HW1 8015   4.275   2.156   7.053 -0.1462  0.2701  0.7105
 2672SOL    HW2 8016   4.133   2.170   7.004  0.0630 -0.6841 -0.2038
 2673SOL     OW 8017   3.239   3.496   5.433 -0.8162 -0.1595 -0.1706
 2673SOL    HW1 8018   3.289   3.421   5.467  0.4320  1.7607  2.5086
 2673SOL    HW2 8019   3.245   3.562   5.501 -1.6581  2.5319 -2.5312
 2674SOL     OW 8020   0.398   0.902   4.965  0.4071  0.1543  0.5790
 2674SOL    HW1 8021   0.326   0.955   4.997 -0.5317 -0.8140  0.1398
 2674SOL    HW2 8022   0.424   0.849   5.041  1.2308  1.0920  0.9692
 2675SOL     OW 8023   2.538   2.045   5.196 -0.4863  0.1064  0.3044
 2675SOL    HW1 8024   2.603   2.016   5.260 -1.4982 -1.1420  0.8165
 2675SOL    HW2 8025   2.581   2.117   5.150  1.8247 -1.5508 -0.3461
 2676SOL     OW 8026   3.490   2.892   6.332 -0.3067 -0.0094  0.7305
 2676SOL    HW1 8027   3.547   2.931   6.398  0.7898 -0.2911 -0.0215
 2676SOL    HW2 8028   3.428   2.961   6.311  0.4519  0.6991  0.7570
 2677SOL     OW 8029   1.742   3.888   5.477 -0.0587  0.7800 -0.0693
 2677SOL    HW1 8030   1.685   3.962   5.453 -1.2973 -0.0049  0.3396
 2677SOL    HW2 8031   1.718   3.818   5.416 -0.9281 -0.1702  1.2969
 2678SOL     OW 8032   4.701   0.451   6.185 -0.3472 -0.7638 -0.8974
 2678SOL    HW1 8033   4.684   0.380   6.248  0.0358  0.6637  0.8834
 2678SOL    HW2 8034   4.623   0.452   6.129 -2.5349  0.3664  1.9628
 2679SOL     OW 8035   1.295   2.694   5.284  0.0444 -0.3050  0.3002
 2679SOL    HW1 8036   1.345   2.636   5.225 -1.4023 -0.8870 -0.3920
 2679SOL    HW2 8037   1.264   2.637   5.354  1.3973  0.3081  1.4524
 2680SOL     OW 8038   1.052   1.069   6.953 -0.8388  0.9720  0.7950
 2680SOL    HW1 8039   1.046   1.082   6.858 -1.3030  3.0725  1.0564
 2680SOL    HW2 8040   1.119   1.002   6.964  2.2015  3.4408 -0.8946
 2681SOL     OW 8041   0.875   1.005   8.839 -0.3679 -0.3409 -0.3928
 2681SOL    HW1 8042   0.930   1.015   8.762  0.2788  0.7816  0.1930
 2681SOL    HW2 8043   0.882   1.089   8.885  0.2182 -1.3586  1.5016
 2682SOL     OW 8044   4.271   4.301   6.304 -0.0916  0.1843 -0.2739
 2682SOL    HW1 8045   4.354   4.252   6.308 -0.0146  0.2597 -0.8683
 2682SOL    HW2 8046   4.298   4.390   6.283 -0.3179  0.2328 -0.3546
 2683SOL     OW 8047   1.698   3.424   8.949  0.2600 -0.1652 -0.2884
 2683SOL    HW1 8048   1.684   3.460   9.036  2.1528 -0.9198  0.3799
 2683SOL    HW2 8049   1.635   3.352   8.942 -0.9727  0.8778 -0.1860
 2684SOL     OW 8050   3.147   4.039   6.618 -0.6152 -0.5588 -0.1691
 2684SOL    HW1 8051   3.072   4.012   6.566 -0.9251  1.2546 -0.7254
 2684SOL    HW2 8052   3.205   4.084   6.557  1.3643 -2.5720  0.0690
 2685SOL     OW 8053   1.329   1.655   7.081  0.3064  0.8595  0.0494
 2685SOL    HW1 8054   1.381   1.630   7.157  0.9955  0.2916 -0.5929
 2685SOL    HW2 8055   1.275   1.579   7.061 -0.5456  1.3241  0.5019
 2686SOL     OW 8056   3.965   4.438   7.283  0.0214  0.8200 -0.0679
 2686SOL    HW1 8057   4.009   4.497   7.221  0.0718 -0.0355 -0.8581
 2686SOL    HW2 8058   4.036   4.395   7.329  0.0018  0.3667 -0.4584
 2687SOL     OW 8059   4.435   4.570   5.489  0.2252  0.1124 -0.5449
 2687SOL    HW1 8060   4.415   4.508   5.419  0.2583 -0.0454 -0.4161
 2687SOL    HW2 8061   4.512   4.618   5.457 -0.8009  1.2796 -1.3925
 2688SOL     OW 8062   4.842   2.563   6.384  0.2857 -0.7254  0.5742
 2688SOL    HW1 8063   4.780   2.633   6.405  0.5317 -0.1054 -0.6635
 2688SOL    HW2 8064   4.840   2.505   6.460 -0.4330  0.2654  1.3308
 2689SOL     OW 8065   3.605   0.455   5.144  0.1035 -0.1485 -0.1329
 2689SOL    HW1 8066   3.535   0.390   5.141 -1.4063  1.2510  1.9219
 2689SOL    HW2 8067   3.650   0.438   5.227 -0.6141  1.6358  0.6686
 2690SOL     OW 8068   3.471   2.304   7.497  0.0372 -0.2642 -0.1055
 2690SOL    HW1 8069   3.426   2.360   7.561  1.2311 -0.3653  0.8730
 2690SOL    HW2 8070   3.468   2.354   7.415 -2.4023 -0.5763 -0.2846
 2691SOL     OW 8071   2.984   1.232   8.104  0.1544  0.2719  0.1232
 2691SOL    HW1 8072   3.030   1.163   8.151 -2.1907 -1.6523 -0.1982
 2691SOL    HW2 8073   3.014   1.224   8.014 -1.6823 -1.9487 -0.3930
 2692SOL     OW 8074   1.871   3.673   5.049  0.0453 -0.3034  0.0026
 2692SOL    HW1 8075   1.884   3.606   4.982  1.6517 -0.9969  0.9652
 2692SOL    HW2 8076   1.929   3.744   5.023  0.3349 -0.3877  0.4197
 2693SOL     OW 8077   4.912   0.845   7.780 -1.0160  0.0149 -0.9616
 2693SOL    HW1 8078   4.986   0.871   7.726 -0.1250 -0.5063 -0.0171
 2693SOL    HW2 8079   4.924   0.893   7.862 -0.7497 -1.3918 -0.1519
 2694SOL     OW 8080   1.905   3.554   4.437  0.2135  0.1822 -0.7199
 2694SOL    HW1 8081   1.820   3.526   4.471 -0.4811  0.2322 -2.3004
 2694SOL    HW2 8082   1.921   3.498   4.361  1.3606  0.5111 -0.7498
 2695SOL     OW 8083   0.823   1.121   7.051 -0.4192 -0.7370 -0.8416
 2695SOL    HW1 8084   0.772   1.190   7.009 -0.4996 -0.2627  0.0149
 2695SOL    HW2 8085   0.907   1.122   7.006 -0.9912 -1.2061 -1.9492
 2696SOL     OW 8086   1.816   4.453   4.803 -0.3779 -0.6051  0.4869
 2696SOL    HW1 8087   1.860   4.538   4.794 -0.9130 -0.0362  2.6281
 2696SOL    HW2 8088   1.850   4.400   4.732 -0.2969  1.5209 -1.1484
 2697SOL     OW 8089   2.092   2.156   5.085  0.3712  0.0028  0.3750
 2697SOL    HW1 8090   2.136   2.233   5.120  2.6316 -0.9823 -0.1477
 2697SOL    HW2 8091   2.112   2.156   4.991  0.2108 -1.0751  0.3175
 2698SOL     OW 8092   3.963   2.402   6.029  0.3523 -0.0604  0.8240
 2698SOL    HW1 8093   3.948   2.429   6.119 -1.4432  2.6067 -0.1385
 2698SOL    HW2 8094   4.028   2.463   5.995  0.2831 -0.3961  0.0549
 2699SOL     OW 8095   2.566   4.823   6.373  0.5065  0.4084  0.7766
 2699SOL    HW1 8096   2.533   4.909   6.399  3.4155  2.0366 -0.4152
 2699SOL    HW2 8097   2.530   4.763   6.439 -2.1176  2.3572  1.3257
 2700SOL     OW 8098   2.262   1.044   4.867  0.0901 -0.2315 -0.1865
 2700SOL    HW1 8099   2.272   1.136   4.842  0.4194 -0.4894 -1.0290
 2700SOL    HW2 8100   2.260   1.046   4.963 -2.3065  0.8825 -0.1950
 2701SOL     OW 8101   4.352   3.235   5.634  0.4089  1.0036 -0.2341
 2701SOL    HW1 8102   4.396   3.320   5.632  0.7236  0.8300 -1.5301
 2701SOL    HW2 8103   4.260   3.255   5.616  0.5372  1.0479 -0.8628
 2702SOL     OW 8104   4.848   3.389   5.952 -0.5764  0.6430  0.4730
 2702SOL    HW1 8105   4.876   3.300   5.930  1.0558  1.3940 -0.7466
 2702SOL    HW2 8106   4.756   3.392   5.928  0.2295  0.3402 -3.2403
 2703SOL     OW 8107   0.818   3.395   6.687  0.0958  0.6095  0.1659
 2703SOL    HW1 8108   0.822   3.447   6.607  1.0030  0.2938 -0.0062
 2703SOL    HW2 8109   0.779   3.453   6.752  0.1785  1.1664 -0.2786
 2704SOL     OW 8110   2.623   2.419   7.430 -0.2215  0.3556  0.1747
 2704SOL    HW1 8111   2.631   2.515   7.430 -0.2265  0.3907  2.0747
 2704SOL    HW2 8112   2.706   2.388   7.466 -0.2406 -0.3635 -0.3839
 2705SOL     OW 8113   3.681   2.936   7.091 -0.2983 -0.3975  0.5556
 2705SOL    HW1 8114   3.773   2.955   7.112 -0.9570  1.0971  2.4616
 2705SOL    HW2 8115   3.631   2.985   7.156 -2.5002 -0.4370 -0.9762
 2706SOL     OW 8116   2.067   3.880   5.384 -0.7741  0.1384 -0.0834
 2706SOL    HW1 8117   2.105   3.879   5.472  0.5323 -0.7295 -0.6233
 2706SOL    HW2 8118   1.986   3.929   5.394 -0.6134  0.1410  1.5854
 2707SOL     OW 8119   4.684   1.877   6.284  0.4665 -0.0323  0.0422
 2707SOL    HW1 8120   4.678   1.951   6.345  1.8196  1.7105 -1.7859
 2707SOL    HW2 8121   4.611   1.890   6.224  1.0914  0.2305 -0.6755
 2708SOL     OW 8122   0.929   1.095   5.603  0.3380  0.1057  0.6112
 2708SOL    HW1 8123   0.926   1.012   5.651  0.1776 -0.3810 -0.2350
 2708SOL    HW2 8124   1.018   1.098   5.567  0.3088  0.2530  0.5513
 2709SOL     OW 8125   0.614   4.942   8.628  0.2848  0.8647  0.3510
 2709SOL    HW1 8126   0.530   4.909   8.595 -0.0789  2.3337 -0.2692
 2709SOL    HW2 8127   0.667   4.957   8.550  0.2661  2.1419  0.5558
 2710SOL     OW 8128   1.812   1.260   8.224 -0.5981 -0.3070 -0.2490
 2710SOL    HW1 8129   1.847   1.330   8.280  1.3851 -0.5669 -1.0686
 2710SOL    HW2 8130   1.764   1.307   8.156 -1.1957  0.1165  0.4441
 2711SOL     OW 8131   3.788   1.512   5.113 -0.2935  0.3861 -0.2127
 2711SOL    HW1 8132   3.721   1.580   5.119 -1.4195 -0.7967  1.9743
 2711SOL    HW2 8133   3.761   1.447   5.178  1.9453 -1.0794 -0.6611
 2712SOL     OW 8134   3.188   0.964   4.892 -0.1629 -0.6929 -0.1481
 2712SOL    HW1 8135   3.242   1.042   4.874  0.8540 -0.7362  2.3326
 2712SOL    HW2 8136   3.200   0.909   4.815  2.0333  0.0370 -0.4057
 2713SOL     OW 8137   0.941   2.452   6.052  0.6279 -0.0361  0.2419
 2713SOL    HW1 8138   0.956   2.470   5.959 -0.2732 -3.3803 -0.6755
 2713SOL    HW2 8139   1.028   2.456   6.091  1.4258 -1.2204 -1.3022
 2714SOL     OW 8140   2.685   3.010   5.704 -0.1875  0.2011 -0.0758
 2714SOL    HW1 8141   2.739   3.059   5.642 -0.8706  0.4945 -0.4573
 2714SOL    HW2 8142   2.737   2.933   5.726  0.1451  0.1889 -0.8681
 2715SOL     OW 8143   4.568   2.742   6.656  0.8004  0.3649  0.3036
 2715SOL    HW1 8144   4.588   2.651   6.676  0.0093 -0.0698 -0.7883
 2715SOL    HW2 8145   4.581   2.749   6.562 -2.3407  0.4632 -0.2427
 2716SOL     OW 8146   1.220   2.835   8.398 -0.0779  0.1516 -0.4045
 2716SOL    HW1 8147   1.136   2.872   8.426  0.3684 -0.6515  2.2056
 2716SOL    HW2 8148   1.214   2.742   8.418  1.2548 -0.0205 -0.6892
 2717SOL     OW 8149   2.154   1.089   5.130  0.1667  0.0539 -0.7056
 2717SOL    HW1 8150   2.112   1.010   5.095  0.4521 -1.1093  1.3480
 2717SOL    HW2 8151   2.095   1.117   5.201  0.2686  1.4955 -1.1636
 2718SOL     OW 8152   1.715   4.152   5.794  0.6182  0.4328 -0.4429
 2718SOL    HW1 8153   1.808   4.164   5.773  0.5696 -1.6671 -2.2799
 2718SOL    HW2 8154   1.669   4.205   5.729  0.5224  0.9759  0.0658
 2719SOL     OW 8155   3.168   3.638   9.316 -0.1496  0.8462  0.1087
 2719SOL    HW1 8156   3.195   3.666   9.229  0.3272  0.5428  0.1550
 2719SOL    HW2 8157   3.183   3.544   9.317 -2.4426  0.4007 -0.3071
 2720SOL     OW 8158   4.002   0.244   7.182  0.4972  0.5113 -0.4587
 2720SOL    HW1 8159   4.089   0.278   7.206  0.2703  0.5706  0.2918
 2720SOL    HW2 8160   3.942   0.289   7.241 -0.1097  0.8743 -1.3348
 2721SOL     OW 8161   4.010   2.906   6.313 -0.1452 -0.5777  0.3674
 2721SOL    HW1 8162   4.066   2.944   6.245  0.7874 -0.6854  1.0539
 2721SOL    HW2 8163   3.925   2.948   6.300  0.2000 -0.1035 -0.4488
 2722SOL     OW 8164   1.876   0.084   5.466  0.0399 -0.5260  0.5225
 2722SOL    HW1 8165   1.905   0.127   5.386  0.7016  0.3873  1.2267
 2722SOL    HW2 8166   1.896  -0.009   5.452 -1.1275 -0.5881 -0.8980
 2723SOL     OW 8167   3.829   4.202   6.247  0.1089  0.1978  0.4401
 2723SOL    HW1 8168   3.903   4.148   6.274  0.8898  1.4222  0.8295
 2723SOL    HW2 8169   3.800   4.163   6.164  1.2941 -0.2058  0.1926
 2724SOL     OW 8170   0.738   4.677   5.172  0.3796 -0.1454  0.5166
 2724SOL    HW1 8171   0.719   4.664   5.265  0.1847 -1.4168  0.3204
 2724SOL    HW2 8172   0.796   4.753   5.169  0.8094 -0.4155  1.7192
 2725SOL     OW 8173   3.321   2.785   6.551 -0.4753 -0.5887 -0.6637
 2725SOL    HW1 8174   3.268   2.724   6.602  0.6852 -1.2151 -0.1610
 2725SOL    HW2 8175   3.267   2.806   6.475 -0.5676 -2.9749 -1.3378
 2726SOL     OW 8176   3.009   2.563   6.562 -0.3741  0.1495 -0.2561
 2726SOL    HW1 8177   3.059   2.617   6.624 -1.2298 -1.7805  2.2995
 2726SOL    HW2 8178   3.055   2.572   6.479  0.7629  3.0156  0.5754
 2727SOL     OW 8179   3.181   4.476   7.023  0.5841 -0.2195 -0.5174
 2727SOL    HW1 8180   3.272   4.482   7.052  0.7532  1.0183 -1.2434
 2727SOL    HW2 8181   3.136   4.547   7.069 -0.7026 -2.5253  2.0616
 2728SOL     OW 8182   3.000   2.680   5.663 -0.3036  0.2731 -1.0278
 2728SOL    HW1 8183   3.034   2.742   5.599  0.3224  1.2723  0.2249
 2728SOL    HW2 8184   2.905   2.692   5.660 -0.1204  3.0951  0.8473
 2729SOL     OW 8185   3.720   3.114   8.480 -0.1505 -0.0231  0.8259
 2729SOL    HW1 8186   3.759   3.199   8.500 -2.1819  0.9249  0.9349
 2729SOL    HW2 8187   3.740   3.101   8.387  0.0996  0.6114  0.7839
 2730SOL     OW 8188   2.270   3.685   6.802 -0.0872  0.5932  0.0542
 2730SOL    HW1 8189   2.234   3.747   6.866 -0.7950  1.0920 -0.8001
 2730SOL    HW2 8190   2.194   3.659   6.750  0.5827  0.7087 -0.9931
 2731SOL     OW 8191   0.639   4.904   5.385 -0.1103  0.1139  1.0650
 2731SOL    HW1 8192   0.612   4.816   5.410  0.8186 -0.1822  1.0419
 2731SOL    HW2 8193   0.599   4.960   5.451 -2.1894 -0.1127  0.0953
 2732SOL     OW 8194   4.978   2.567   8.117 -0.3108 -0.0841  0.0794
 2732SOL    HW1 8195   4.977   2.622   8.195  0.4979 -0.7548  0.5886
 2732SOL    HW2 8196   4.913   2.499   8.135 -0.0903 -0.2659  0.1956
 2733SOL     OW 8197   1.468   2.608   5.595  0.0277  0.0750  0.1426
 2733SOL    HW1 8198   1.508   2.582   5.677  0.8167  0.1084 -0.2251
 2733SOL    HW2 8199   1.451   2.702   5.605  2.9737  0.8141 -0.8345
 2734SOL     OW 8200   0.405   1.876   6.019 -0.1554  0.3492  0.3321
 2734SOL    HW1 8201   0.488   1.898   5.977 -0.7669 -0.7444 -1.6164
 2734SOL    HW2 8202   0.339   1.923   5.967 -1.0643 -2.1106 -0.9093
 2735SOL     OW 8203   1.301   4.364   4.563 -0.4919 -0.2811  0.6347
 2735SOL    HW1 8204   1.388   4.403   4.573 -0.2879 -0.6304  0.2464
 2735SOL    HW2 8205   1.290   4.307   4.638  0.6875 -2.2568 -0.6164
 2736SOL     OW 8206   3.975   3.409   8.218 -0.1196  0.5912 -0.2193
 2736SOL    HW1 8207   4.051   3.429   8.273 -0.4966  0.4166  0.3717
 2736SOL    HW2 8208   4.009   3.351   8.150 -0.2768 -1.9496  1.7378
 2737SOL     OW 8209   0.249   0.099   5.550 -0.0809 -0.1463  0.3552
 2737SOL    HW1 8210   0.203   0.178   5.577 -0.3823 -0.8073  1.8338
 2737SOL    HW2 8211   0.268   0.113   5.457 -0.0840  1.6708  0.5979
 2738SOL     OW 8212   1.672   1.057   8.392  0.3633 -0.4311  0.1325
 2738SOL    HW1 8213   1.710   1.124   8.334 -1.3260  2.8576  2.4677
 2738SOL    HW2 8214   1.723   1.065   8.472  0.1433 -2.0626  0.4513
 2739SOL     OW 8215   2.311   1.099   8.499 -0.4666 -0.2850 -0.7892
 2739SOL    HW1 8216   2.317   1.032   8.431  1.6287 -1.4435  0.4339
 2739SOL    HW2 8217   2.262   1.171   8.458 -1.9183 -2.1169 -2.4832
 2740SOL     OW 8218   3.279   4.084   5.435  1.2314 -0.0987  0.1813
 2740SOL    HW1 8219   3.311   4.018   5.497  0.2720  0.0383  0.8511
 2740SOL    HW2 8220   3.275   4.039   5.351  0.3887 -0.9646  0.6740
 2741SOL     OW 8221   3.145   4.043   7.256  0.2006  0.0031  0.0304
 2741SOL    HW1 8222   3.065   3.991   7.265  0.1658 -0.0004 -0.2791
 2741SOL    HW2 8223   3.124   4.106   7.187 -0.0141  0.9070  0.9003
 2742SOL     OW 8224   2.177   3.594   6.441 -0.0028  0.9169  0.0319
 2742SOL    HW1 8225   2.200   3.503   6.461  1.4967  1.4049  0.6994
 2742SOL    HW2 8226   2.189   3.601   6.346 -2.7472 -0.2321 -0.4918
 2743SOL     OW 8227   4.761   4.906   6.624 -0.6441 -0.3248 -0.2386
 2743SOL    HW1 8228   4.792   4.989   6.587  0.1192 -0.1794  0.6941
 2743SOL    HW2 8229   4.819   4.840   6.586 -1.4766 -0.4899 -1.2578
 2744SOL     OW 8230   1.348   0.852   8.209 -0.1856 -0.8892  0.1631
 2744SOL    HW1 8231   1.432   0.808   8.199 -0.4197 -0.9097 -2.6649
 2744SOL    HW2 8232   1.307   0.810   8.285  2.1919 -1.0621  1.4453
 2745SOL     OW 8233   4.401   2.760   6.285 -0.0533  0.3465  0.4329
 2745SOL    HW1 8234   4.369   2.799   6.204  0.2065  0.8924  0.5882
 2745SOL    HW2 8235   4.416   2.668   6.264 -1.2965  0.1833  0.2426
 2746SOL     OW 8236   4.285   0.773   9.909 -0.4290  0.0795  0.3829
 2746SOL    HW1 8237   4.301   0.864   9.883 -2.0097 -0.0959 -1.4335
 2746SOL    HW2 8238   4.216   0.743   9.849 -2.2437 -1.3431  2.9929
 2747SOL     OW 8239   0.677   3.437   5.272 -0.1278  0.4758 -0.5327
 2747SOL    HW1 8240   0.611   3.397   5.328  0.0024 -0.9152 -1.3422
 2747SOL    HW2 8241   0.645   3.527   5.258  0.1041  1.0639  2.1598
 2748SOL     OW 8242   4.323   0.487   5.049  0.2009  0.0950 -0.0560
 2748SOL    HW1 8243   4.293   0.533   5.128 -1.6242 -2.7486  1.0813
 2748SOL    HW2 8244   4.247   0.436   5.021  1.5407 -0.8233 -2.2671
 2749SOL     OW 8245   1.019   3.535   5.221 -0.2492  0.3767  0.5653
 2749SOL    HW1 8246   0.953   3.502   5.282 -2.6184 -0.3623 -2.1683
 2749SOL    HW2 8247   1.022   3.629   5.237 -2.6469  0.5674  0.2758
 2750SOL     OW 8248   4.393   0.138   6.420  0.0513 -0.0474 -0.0434
 2750SOL    HW1 8249   4.408   0.186   6.501 -0.7942  0.2505 -0.0534
 2750SOL    HW2 8250   4.316   0.084   6.438  0.2840 -0.5120 -0.4198
 2751SOL     OW 8251   0.058   3.066   5.828  0.1246 -0.0808  0.1727
 2751SOL    HW1 8252   0.001   3.069   5.905  0.2931 -0.8604  0.3306
 2751SOL    HW2 8253   0.016   3.004   5.769  1.2383 -1.3149  0.6402
 2752SOL     OW 8254   0.769   2.508   6.682 -0.3018  0.1319 -0.0855
 2752SOL    HW1 8255   0.771   2.511   6.778 -0.0194  0.6973 -0.1007
 2752SOL    HW2 8256   0.676   2.499   6.660 -0.3628 -0.0481  0.2403
 2753SOL     OW 8257   0.215   0.644   6.198  0.3052 -0.1065  0.2051
 2753SOL    HW1 8258   0.265   0.647   6.280  0.7860 -0.6164 -0.0612
 2753SOL    HW2 8259   0.124   0.660   6.225  0.4011 -0.6405  0.8938
 2754SOL     OW 8260   3.508   4.773   7.077  0.4848  0.2337  0.2371
 2754SOL    HW1 8261   3.478   4.723   7.000 -0.9337  2.8127 -1.0306
 2754SOL    HW2 8262   3.600   4.792   7.058  0.8632 -1.3175  0.4399
 2755SOL     OW 8263   4.993   1.999   5.323 -0.5729  0.2576 -0.7911
 2755SOL    HW1 8264   4.987   2.087   5.286  0.4940 -0.0877 -1.8667
 2755SOL    HW2 8265   5.017   2.013   5.414 -0.4940  1.0860 -0.9296
 2756SOL     OW 8266   1.564   3.134   8.567  0.1098  0.3475 -0.0569
 2756SOL    HW1 8267   1.571   3.050   8.613  0.5358  0.1906 -0.3989
 2756SOL    HW2 8268   1.551   3.198   8.637 -2.5502 -0.2368  0.0732
 2757SOL     OW 8269   2.823   3.492   4.886 -0.1960 -0.0745  0.6311
 2757SOL    HW1 8270   2.838   3.467   4.794  1.3084 -0.7775  1.0219
 2757SOL    HW2 8271   2.811   3.409   4.931 -0.4496  0.2391  1.1407
 2758SOL     OW 8272   4.555   2.769   7.529 -0.0892  0.4838  0.0196
 2758SOL    HW1 8273   4.507   2.696   7.490  1.6480 -3.9377  4.8618
 2758SOL    HW2 8274   4.490   2.815   7.582 -0.4802 -0.5553  0.4787
 2759SOL     OW 8275   4.926   0.798   6.510  0.3411  0.1416 -0.1887
 2759SOL    HW1 8276   4.835   0.826   6.501  0.3484 -0.0439 -0.9057
 2759SOL    HW2 8277   4.978   0.877   6.494  0.3073  0.2288  0.1345
 2760SOL     OW 8278   2.803   1.208   6.003  0.5200  0.2097 -0.2984
 2760SOL    HW1 8279   2.835   1.235   6.089  1.9605 -0.8777 -0.4488
 2760SOL    HW2 8280   2.711   1.232   6.003  1.0709  2.6633  0.5315
 2761SOL     OW 8281   4.090   0.092   6.874  0.3087  0.4711  0.7022
 2761SOL    HW1 8282   4.094   0.079   6.969 -0.3039  0.2312  0.6994
 2761SOL    HW2 8283   4.146   0.168   6.858 -2.1192  2.6205  1.6725
 2762SOL     OW 8284   2.456   0.481   5.667  0.2196 -0.0653 -0.3436
 2762SOL    HW1 8285   2.362   0.485   5.683  0.2458  3.4207 -0.3674
 2762SOL    HW2 8286   2.465   0.502   5.574  1.0588  0.4105 -0.1608
 2763SOL     OW 8287   2.183   2.082   6.899 -0.2044  0.6975  0.4590
 2763SOL    HW1 8288   2.189   2.028   6.978  0.5859 -3.5216 -2.1732
 2763SOL    HW2 8289   2.268   2.073   6.857 -2.0351 -1.4792 -3.2351
 2764SOL     OW 8290   3.375   3.969   6.185 -0.3514  0.3754  0.0106
 2764SOL    HW1 8291   3.461   3.927   6.192 -0.0010  0.9151 -0.9071
 2764SOL    HW2 8292   3.357   3.971   6.091 -2.9673 -2.8428  0.2471
 2765SOL     OW 8293   1.996   4.209   5.176 -0.7091 -0.1950  0.5397
 2765SOL    HW1 8294   2.067   4.255   5.131 -1.7302  0.3588 -0.5715
 2765SOL    HW2 8295   2.027   4.198   5.266 -0.0271  1.7953  0.5981
 2766SOL     OW 8296   2.921   4.229   6.272  0.0040  0.3066 -0.2711
 2766SOL    HW1 8297   2.942   4.142   6.308 -1.4544 -0.1556 -0.4594
 2766SOL    HW2 8298   2.927   4.288   6.347 -0.4304 -0.2097  0.1797
 2767SOL     OW 8299   2.433   2.987   6.224  0.0080  0.0646 -0.1857
 2767SOL    HW1 8300   2.373   3.061   6.215  0.1416  0.0360 -1.5262
 2767SOL    HW2 8301   2.403   2.940   6.302 -0.7342  0.9319  0.0529
 2768SOL     OW 8302   2.831   2.840   6.426 -0.2587 -0.4717 -0.2254
 2768SOL    HW1 8303   2.810   2.927   6.392 -0.7887 -0.4956  0.0218
 2768SOL    HW2 8304   2.750   2.791   6.415  0.9515 -1.9998 -3.5720
 2769SOL     OW 8305   1.717   4.512   6.535  0.0921 -0.2054 -0.4394
 2769SOL    HW1 8306   1.757   4.450   6.596 -1.4263  0.2085  1.0591
 2769SOL    HW2 8307   1.785   4.576   6.517  0.1619  0.5563  2.1284
 2770SOL     OW 8308   2.023   3.824   4.430 -0.2960  0.7644  0.7302
 2770SOL    HW1 8309   2.117   3.838   4.440 -0.3224  0.0725  2.1332
 2770SOL    HW2 8310   2.012   3.729   4.436 -1.1768  0.9041  1.4460
 2771SOL     OW 8311   3.361   3.078   5.787 -0.8403  0.3053 -0.2468
 2771SOL    HW1 8312   3.435   3.117   5.741 -2.2552  1.1157 -1.9340
 2771SOL    HW2 8313   3.379   2.984   5.786  0.3959  0.5209 -0.1635
 2772SOL     OW 8314   1.276   2.013   5.261  0.0744  0.2467 -0.0923
 2772SOL    HW1 8315   1.202   2.010   5.322  0.2902 -1.9366  0.1588
 2772SOL    HW2 8316   1.302   2.105   5.259 -2.2536  0.9849  0.2639
 2773SOL     OW 8317   3.780   1.765   7.266  0.0888  0.0372 -0.4233
 2773SOL    HW1 8318   3.819   1.678   7.271 -0.8084 -0.3260  0.8898
 2773SOL    HW2 8319   3.797   1.804   7.352 -1.3250  0.3235 -0.2465
 2774SOL     OW 8320   1.015   3.794   5.767 -0.3174  0.1282 -0.0384
 2774SOL    HW1 8321   1.105   3.762   5.776 -0.5062 -0.0405  1.6347
 2774SOL    HW2 8322   0.987   3.812   5.857 -1.3193  1.9844 -0.6782
 2775SOL     OW 8323   3.284   3.956   5.938  0.7497 -0.9668 -0.3408
 2775SOL    HW1 8324   3.220   3.888   5.921 -0.5866 -0.1569  1.2349
 2775SOL    HW2 8325   3.290   4.005   5.855 -0.5343 -1.1680 -0.5658
 2776SOL     OW 8326   2.430   4.499   4.653 -0.2570 -0.0143 -0.1343
 2776SOL    HW1 8327   2.493   4.543   4.709  1.3166 -0.5994 -1.3518
 2776SOL    HW2 8328   2.390   4.569   4.601 -0.0313  0.2880  0.1041
 2777SOL     OW 8329   2.116   4.346   6.069 -0.3109  0.0115 -0.0354
 2777SOL    HW1 8330   2.128   4.330   6.162 -0.9658 -0.3776 -0.0124
 2777SOL    HW2 8331   2.022   4.333   6.054  0.1068 -2.2477 -1.1768
 2778SOL     OW 8332   4.425   1.922   6.218 -0.2348 -0.2594  0.1953
 2778SOL    HW1 8333   4.368   1.991   6.184 -0.7603 -0.5431  0.5028
 2778SOL    HW2 8334   4.432   1.941   6.312  0.4696 -0.0182  0.1054
 2779SOL     OW 8335   1.631   1.710   6.758 -0.3613  0.3663  0.6309
 2779SOL    HW1 8336   1.555   1.736   6.809  0.3162  0.6383  1.5226
 2779SOL    HW2 8337   1.636   1.615   6.769 -0.4470  0.3753  0.7528
 2780SOL     OW 8338   3.029   3.708   6.378 -0.4082 -0.7725 -0.3560
 2780SOL    HW1 8339   3.042   3.712   6.283  0.3367 -2.0557 -0.3281
 2780SOL    HW2 8340   2.993   3.620   6.394  2.0743 -1.6673  0.8039
 2781SOL     OW 8341   3.246   2.976   8.022 -0.3427 -0.4610 -0.8979
 2781SOL    HW1 8342   3.306   2.904   8.004  0.8869 -0.2531  1.8478
 2781SOL    HW2 8343   3.188   2.943   8.090 -0.2557  0.8497 -0.1417
 2782SOL     OW 8344   2.577   0.964   7.814  0.4970  0.3008  0.3847
 2782SOL    HW1 8345   2.605   1.024   7.883 -0.1633  2.1057 -0.8165
 2782SOL    HW2 8346   2.486   0.945   7.834  1.3730 -2.4870  2.1864
 2783SOL     OW 8347   0.757   4.746   6.213 -0.0244 -0.5455 -0.0003
 2783SOL    HW1 8348   0.690   4.788   6.266 -1.3124 -0.9907 -1.2135
 2783SOL    HW2 8349   0.830   4.808   6.213 -1.3331  1.0744 -0.5833
 2784SOL     OW 8350   2.248   1.246   5.961 -0.4454 -0.5410 -0.0027
 2784SOL    HW1 8351   2.263   1.283   6.048  1.1771 -1.0335 -0.0218
 2784SOL    HW2 8352   2.334   1.251   5.918 -0.8105 -1.8227 -0.9663
 2785SOL     OW 8353   0.542   2.227   6.554 -1.1207 -0.3920  0.0396
 2785SOL    HW1 8354   0.514   2.152   6.607 -1.9195 -0.2245 -0.1433
 2785SOL    HW2 8355   0.507   2.209   6.466 -0.9164 -0.0277 -0.1196
 2786SOL     OW 8356   2.427   0.344   7.388 -0.0533 -0.3464  0.2895
 2786SOL    HW1 8357   2.495   0.303   7.442  0.2977 -0.5157 -0.2708
 2786SOL    HW2 8358   2.471   0.365   7.306 -0.2507  1.0987  0.5265
 2787SOL     OW 8359   4.486   2.286   6.389  0.3128 -0.3302 -0.1801
 2787SOL    HW1 8360   4.419   2.269   6.323  0.1905  2.4554 -0.8746
 2787SOL    HW2 8361   4.548   2.345   6.346  0.5118  1.1747  2.0230
 2788SOL     OW 8362   4.020   3.749   6.741  0.8970  0.0379 -0.1841
 2788SOL    HW1 8363   4.022   3.710   6.828  0.0962  0.3635 -0.0145
 2788SOL    HW2 8364   4.050   3.679   6.682  1.4011 -0.1950  0.3442
 2789SOL     OW 8365   2.390   4.756   5.370  0.2155 -0.3415  0.8651
 2789SOL    HW1 8366   2.457   4.713   5.423 -1.0887 -0.5455  2.4239
 2789SOL    HW2 8367   2.349   4.685   5.319  3.8496  0.2239 -3.4852
 2790SOL     OW 8368   1.976   0.211   6.720  0.2781 -0.0090 -0.5010
 2790SOL    HW1 8369   1.993   0.303   6.741 -2.6960  0.6970 -0.6146
 2790SOL    HW2 8370   2.029   0.161   6.782  0.8375  1.8191  0.5708
 2791SOL     OW 8371   2.677   0.228   6.776 -0.8427  0.7000  0.3694
 2791SOL    HW1 8372   2.754   0.254   6.725 -0.3562 -0.2069  0.6186
 2791SOL    HW2 8373   2.629   0.309   6.789 -0.8122  1.0194 -1.2494
 2792SOL     OW 8374   0.240   3.159   9.862  0.4379  0.3001  0.4498
 2792SOL    HW1 8375   0.290   3.151   9.781  0.1718  0.2914  0.2853
 2792SOL    HW2 8376   0.176   3.088   9.858 -0.2506  0.9213  0.1843
 2793SOL     OW 8377   4.815   2.219   6.194  1.0929  0.0856  0.2112
 2793SOL    HW1 8378   4.775   2.199   6.279  1.8609  0.4037  0.6591
 2793SOL    HW2 8379   4.890   2.160   6.189  0.2959 -0.8556 -0.8419
 2794SOL     OW 8380   0.668   4.425   6.571 -0.0377  0.0937 -0.1819
 2794SOL    HW1 8381   0.761   4.406   6.580 -0.1297  0.5300  2.3147
 2794SOL    HW2 8382   0.635   4.428   6.661 -2.3814  0.4116 -0.9801
 2795SOL     OW 8383   1.507   4.730   5.906 -0.1390 -0.4416 -0.0501
 2795SOL    HW1 8384   1.426   4.694   5.942 -0.8105 -0.9748 -1.9808
 2795SOL    HW2 8385   1.528   4.672   5.833  2.2554 -0.5874  0.6805
 2796SOL     OW 8386   4.347   3.310   5.165 -0.2046  0.2329  0.5702
 2796SOL    HW1 8387   4.288   3.281   5.095 -0.7239  0.6595  0.8203
 2796SOL    HW2 8388   4.329   3.250   5.238  0.0303  0.0513  0.4778
 2797SOL     OW 8389   3.215   4.143   5.164 -0.4476 -0.2690  0.3177
 2797SOL    HW1 8390   3.211   4.219   5.221 -0.2800 -0.9391  1.2592
 2797SOL    HW2 8391   3.255   4.174   5.083  2.2666  0.0635  1.6861
 2798SOL     OW 8392   1.319   4.112   7.023 -0.2978  0.7045 -0.3591
 2798SOL    HW1 8393   1.383   4.053   6.983  0.2201  1.9699 -1.4723
 2798SOL    HW2 8394   1.301   4.073   7.109 -0.6182 -1.5126 -1.3467
 2799SOL     OW 8395   3.444   2.455   6.831  0.5003 -0.4257  0.2336
 2799SOL    HW1 8396   3.362   2.487   6.795  1.5873  0.7226 -1.3516
 2799SOL    HW2 8397   3.511   2.514   6.796  2.3423 -3.0025 -0.8921
 2800SOL     OW 8398   3.457   3.406   5.625 -0.7654  0.1064  0.2102
 2800SOL    HW1 8399   3.519   3.437   5.691  1.1758 -1.3338 -0.8389
 2800SOL    HW2 8400   3.455   3.311   5.636  0.7421 -0.3639 -2.6287
 2801SOL     OW 8401   3.662   1.041   7.251  0.0063  0.3479 -0.7977
 2801SOL    HW1 8402   3.669   1.135   7.264 -3.4867  0.6231  0.1332
 2801SOL    HW2 8403   3.663   1.004   7.339 -1.0749 -0.2042 -0.9996
 2802SOL     OW 8404   1.857   0.379   4.849  0.1723 -0.3937 -0.0823
 2802SOL    HW1 8405   1.892   0.453   4.898  1.8453 -2.4486  2.1087
 2802SOL    HW2 8406   1.904   0.379   4.766  0.8728  0.4438  0.3078
 2803SOL     OW 8407   4.844   1.309   5.658  0.0531 -0.5665  0.1192
 2803SOL    HW1 8408   4.909   1.256   5.704 -1.2161 -3.3556 -1.0821
 2803SOL    HW2 8409   4.871   1.305   5.566 -0.8004 -0.2215 -0.1583
 2804SOL     OW 8410   3.459   0.428   4.715  0.3115  0.0068  0.3828
 2804SOL    HW1 8411   3.527   0.361   4.712 -1.3668 -1.7601  0.2125
 2804SOL    HW2 8412   3.441   0.440   4.808  2.5408  2.3731  0.6256
 2805SOL     OW 8413   1.718   2.858   4.992  0.1646 -0.2535 -0.1323
 2805SOL    HW1 8414   1.687   2.862   5.082  3.2591 -2.2644  1.1851
 2805SOL    HW2 8415   1.686   2.773   4.960 -0.1088  0.0301 -0.6332
 2806SOL     OW 8416   3.186   2.100   9.190 -0.5640  0.2826 -0.7215
 2806SOL    HW1 8417   3.281   2.096   9.199 -0.6022  1.8192  1.5112
 2806SOL    HW2 8418   3.153   2.031   9.247 -0.8070 -0.4909 -1.7785
 2807SOL     OW 8419   3.239   4.540   9.993 -0.0959 -0.0214  0.3959
 2807SOL    HW1 8420   3.311   4.531   9.930 -0.4521 -1.8727  0.1827
 2807SOL    HW2 8421   3.233   4.453  10.034 -0.3344  0.9405  2.5129
 2808SOL     OW 8422   0.811   4.712   8.034  0.4021  0.1889 -0.7942
 2808SOL    HW1 8423   0.801   4.773   7.961 -2.6565  1.0381  0.1987
 2808SOL    HW2 8424   0.829   4.767   8.109 -5.4202  0.5759  0.7549
 2809SOL     OW 8425   1.577   2.862   6.026  0.2009  0.0664 -0.0800
 2809SOL    HW1 8426   1.536   2.915   5.956  1.4664  1.0648 -0.1019
 2809SOL    HW2 8427   1.544   2.774   6.011 -0.4315  0.4747 -1.2668
 2810SOL     OW 8428   4.148   0.721   8.048  0.2135 -0.1310 -0.1922
 2810SOL    HW1 8429   4.179   0.812   8.050  1.3801 -0.5181  0.5191
 2810SOL    HW2 8430   4.053   0.728   8.041  0.1769  1.1748  1.0884
 2811SOL     OW 8431   3.679   4.717   8.315  0.2868 -0.2075  0.1905
 2811SOL    HW1 8432   3.592   4.677   8.310 -0.2031  0.6160  1.5781
 2811SOL    HW2 8433   3.733   4.663   8.257 -1.1214 -0.7784 -0.6533
 2812SOL     OW 8434   2.947   3.751   8.442  0.0769  0.0213  0.2137
 2812SOL    HW1 8435   3.035   3.787   8.429  0.8716 -1.9102 -0.3022
 2812SOL    HW2 8436   2.895   3.824   8.473  1.5113  1.5948 -0.8759
 2813SOL     OW 8437   3.192   3.469   8.799 -0.2671 -0.4150  0.5840
 2813SOL    HW1 8438   3.198   3.551   8.848  0.4005  0.1876 -0.4750
 2813SOL    HW2 8439   3.111   3.476   8.748 -0.0802 -0.3046  0.3017
 2814SOL     OW 8440   3.184   2.610   7.059  0.0687 -0.7219  1.4220
 2814SOL    HW1 8441   3.101   2.624   7.105  0.6077  4.6382  1.3491
 2814SOL    HW2 8442   3.248   2.597   7.128 -0.3894 -2.4608  1.5726
 2815SOL     OW 8443   2.074   3.323   8.350  0.4469  0.4266 -0.3247
 2815SOL    HW1 8444   2.097   3.312   8.258  0.4187  0.0729 -0.2905
 2815SOL    HW2 8445   2.088   3.237   8.389  0.5134  0.5893  0.0149
 2816SOL     OW 8446   3.651   3.082   7.915 -0.1332 -0.5591 -0.5622
 2816SOL    HW1 8447   3.616   3.102   7.829  1.0797  1.6045 -0.6298
 2816SOL    HW2 8448   3.711   3.154   7.934  1.7000 -2.3466  0.9368
 2817SOL     OW 8449   1.236   4.502   6.493  0.3954  0.1507 -0.4636
 2817SOL    HW1 8450   1.304   4.569   6.485 -1.6390  2.1971 -1.6651
 2817SOL    HW2 8451   1.281   4.428   6.535  3.3533  1.3409 -1.2463
 2818SOL     OW 8452   3.627   1.256   5.648  0.4569 -0.6328 -0.0979
 2818SOL    HW1 8453   3.695   1.316   5.619 -0.0020 -1.2016 -2.5962
 2818SOL    HW2 8454   3.643   1.175   5.599  0.1925 -2.0753  2.0810
 2819SOL     OW 8455   3.059   4.656   7.727  0.1090  0.3439 -0.4938
 2819SOL    HW1 8456   3.023   4.593   7.665  1.2205 -0.4969 -0.3108
 2819SOL    HW2 8457   3.148   4.627   7.742  0.3151  1.3688  0.4068
 2820SOL     OW 8458   4.077   1.433   6.269  0.9741 -0.2869  0.4088
 2820SOL    HW1 8459   3.990   1.435   6.308  1.2075 -0.0100  0.9187
 2820SOL    HW2 8460   4.095   1.524   6.245  1.2696 -0.2889  0.6242
 2821SOL     OW 8461   2.060   4.904   8.623  0.3376 -0.2291  0.0047
 2821SOL    HW1 8462   2.001   4.939   8.556  2.7574  3.4385 -0.4743
 2821SOL    HW2 8463   2.039   4.954   8.702  2.3700  0.8398 -0.0645
 2822SOL     OW 8464   0.058   0.464   7.524  0.3344  0.3475 -0.4143
 2822SOL    HW1 8465   0.074   0.447   7.617  2.1883 -0.3643 -0.8300
 2822SOL    HW2 8466   0.098   0.550   7.508  1.1118 -0.0902 -0.8243
 2823SOL     OW 8467   3.036   3.123   7.845  0.1165  0.7095  0.1075
 2823SOL    HW1 8468   2.998   3.085   7.924 -1.4100  0.6886 -0.5979
 2823SOL    HW2 8469   2.996   3.074   7.773  1.2257  0.9466 -0.7051
 2824SOL     OW 8470   0.551   4.880  10.059  0.2857 -0.0041 -0.1326
 2824SOL    HW1 8471   0.472   4.833  10.085 -0.4044  0.4230 -1.3753
 2824SOL    HW2 8472   0.618   4.852  10.122 -0.2121 -2.2512 -0.5421
 2825SOL     OW 8473   4.936   3.934   9.439  0.1781  0.3375 -0.5129
 2825SOL    HW1 8474   5.017   3.925   9.390  0.9239  0.5901  0.6307
 2825SOL    HW2 8475   4.906   4.023   9.418  0.8185  0.6735 -0.0539
 2826SOL     OW 8476   0.232   1.132   8.591  0.0421  0.1465 -0.9538
 2826SOL    HW1 8477   0.258   1.040   8.597 -2.6775 -0.6530  0.3196
 2826SOL    HW2 8478   0.314   1.181   8.597  1.3785 -2.1268  0.8505
 2827SOL     OW 8479   3.551   3.450   7.354 -0.6332  0.1487 -1.4494
 2827SOL    HW1 8480   3.564   3.384   7.422  0.5159 -1.1081 -2.8158
 2827SOL    HW2 8481   3.609   3.522   7.379 -1.4813  0.4669 -0.2498
 2828SOL     OW 8482   3.351   4.216   7.348  0.3677  0.1299 -0.0551
 2828SOL    HW1 8483   3.307   4.192   7.267  1.1111  2.3988 -1.2151
 2828SOL    HW2 8484   3.325   4.148   7.411 -0.8632 -1.2453 -1.9526
 2829SOL     OW 8485   3.001   4.802   5.844 -0.1020  0.5019  0.1613
 2829SOL    HW1 8486   2.997   4.873   5.779  0.4409  0.6878  0.3299
 2829SOL    HW2 8487   2.999   4.847   5.929  1.6022  0.4045  0.2752
 2830SOL     OW 8488   4.180   0.113   9.413 -0.6915  0.2994 -0.5848
 2830SOL    HW1 8489   4.252   0.081   9.468 -0.8262 -0.6618 -0.9564
 2830SOL    HW2 8490   4.221   0.130   9.328 -0.3911  2.2009 -0.1113
 2831SOL     OW 8491   1.461   0.365   6.904 -0.3509  0.1330 -0.0005
 2831SOL    HW1 8492   1.384   0.310   6.889  0.0110 -0.5177  0.4703
 2831SOL    HW2 8493   1.517   0.312   6.961  0.3674  0.6700 -0.1991
 2832SOL     OW 8494   4.113   1.984   9.536  0.5665  0.4470  0.2175
 2832SOL    HW1 8495   4.161   2.034   9.603 -0.0053  0.1809  0.8375
 2832SOL    HW2 8496   4.113   1.894   9.569  0.6098  0.2468 -0.3312
 2833SOL     OW 8497   0.191   1.548   9.526 -0.2148  0.1042 -0.4477
 2833SOL    HW1 8498   0.120   1.579   9.582  1.2109  1.7411  0.5477
 2833SOL    HW2 8499   0.183   1.600   9.446 -0.1274  0.2955 -0.3321
 2834SOL     OW 8500   4.282   1.264   8.777  0.3852 -0.4015  0.2827
 2834SOL    HW1 8501   4.252   1.290   8.690  2.5387 -3.0985 -1.4515
 2834SOL    HW2 8502   4.297   1.347   8.823 -2.5072  1.0939 -1.2022
 2835SOL     OW 8503   0.062   2.530   9.122  0.0447 -0.3636  0.4440
 2835SOL    HW1 8504   0.083   2.455   9.179 -0.7173 -1.6265 -0.8653
 2835SOL    HW2 8505   0.139   2.586   9.127  1.2125 -1.8873  0.4497
 2836SOL     OW 8506   1.223   0.308   8.189  0.5347  0.1397  0.1013
 2836SOL    HW1 8507   1.162   0.376   8.217 -0.0535 -0.4450  0.2668
 2836SOL    HW2 8508   1.180   0.266   8.114  0.8640 -0.0928  0.0372
 2837SOL     OW 8509   5.028   1.812   8.241  0.0465 -0.0239  0.5187
 2837SOL    HW1 8510   4.966   1.754   8.284  1.0026 -1.3728  0.1310
 2837SOL    HW2 8511   4.988   1.832   8.156 -0.4691  0.2406  0.8160
 2838SOL     OW 8512   3.201   4.389   9.654 -0.4286  0.3807  0.7814
 2838SOL    HW1 8513   3.112   4.363   9.675 -0.6077 -1.3004 -1.6851
 2838SOL    HW2 8514   3.255   4.341   9.717 -1.1474 -0.3876  0.8268
 2839SOL     OW 8515   2.300   4.014   5.092  0.3404  0.2854 -0.2078
 2839SOL    HW1 8516   2.359   3.960   5.039  1.4947  1.0223  0.2941
 2839SOL    HW2 8517   2.276   3.957   5.165  2.2310  0.6664  0.7844
 2840SOL     OW 8518   0.583   1.953   9.435 -0.2463  0.3475 -0.2834
 2840SOL    HW1 8519   0.502   1.903   9.448 -0.7155  1.2588  0.4200
 2840SOL    HW2 8520   0.601   1.992   9.521 -0.1041  1.6914 -0.8957
 2841SOL     OW 8521   2.462   3.842   8.168 -0.0599  0.6447  0.0213
 2841SOL    HW1 8522   2.418   3.835   8.083 -2.2370  1.4472  0.9942
 2841SOL    HW2 8523   2.390   3.857   8.231  1.6880  3.0411  1.6134
 2842SOL     OW 8524   0.715   0.870   7.386 -0.3840  0.0890 -0.0520
 2842SOL    HW1 8525   0.640   0.830   7.429 -0.8292 -1.2562 -1.9604
 2842SOL    HW2 8526   0.773   0.895   7.458 -1.5303 -1.1092  1.3641
 2843SOL     OW 8527   3.477   0.756   7.720 -0.8547 -0.4235 -0.1815
 2843SOL    HW1 8528   3.477   0.725   7.810 -1.0121 -0.3797 -0.1669
 2843SOL    HW2 8529   3.555   0.716   7.681 -0.9255 -0.6425 -0.0978
 2844SOL     OW 8530   4.371   3.033   6.900  0.0129 -0.6538  0.2297
 2844SOL    HW1 8531   4.320   2.988   6.967 -1.2199  0.5838  0.1721
 2844SOL    HW2 8532   4.451   2.982   6.892 -0.6103 -1.8544  1.3398
 2845SOL     OW 8533   0.033   3.964   7.074  0.2895  0.7661  0.4864
 2845SOL    HW1 8534   0.088   3.923   7.141 -0.5353 -0.3421  0.5153
 2845SOL    HW2 8535   0.094   3.990   7.005  1.0115  0.8741  1.1568
 2846SOL     OW 8536   4.782   3.910   7.033  0.2968  0.1593 -0.0420
 2846SOL    HW1 8537   4.718   3.954   7.089 -0.6155 -2.1740  0.8826
 2846SOL    HW2 8538   4.865   3.950   7.054 -0.0294 -0.5344  2.9940
 2847SOL     OW 8539   1.595   0.437   9.542 -0.2509  1.2352  0.4828
 2847SOL    HW1 8540   1.605   0.519   9.493  0.5559  0.2166 -1.1435
 2847SOL    HW2 8541   1.683   0.398   9.541 -1.0104 -0.5614 -0.4836
 2848SOL     OW 8542   1.383   1.610   8.815 -0.0141 -0.0835 -0.3524
 2848SOL    HW1 8543   1.330   1.549   8.866  0.3476 -0.6501 -0.6488
 2848SOL    HW2 8544   1.371   1.582   8.724 -0.3675  0.6931 -0.5549
 2849SOL     OW 8545   2.083   0.986   7.241  0.9160 -0.2294 -0.2276
 2849SOL    HW1 8546   1.995   1.022   7.229  0.7099 -0.2114  1.1703
 2849SOL    HW2 8547   2.109   0.956   7.154  0.3500  1.5958 -1.0674
 2850SOL     OW 8548   0.917   1.268   8.922  0.8150  0.3140 -0.3274
 2850SOL    HW1 8549   1.011   1.274   8.933  0.7352 -0.7503  1.3556
 2850SOL    HW2 8550   0.881   1.319   8.995  0.1269 -0.4030 -0.1474
 2851SOL     OW 8551   3.698   0.983   7.527  0.0407  0.3268  0.6102
 2851SOL    HW1 8552   3.770   0.930   7.493  0.6661  0.9798  0.8991
 2851SOL    HW2 8553   3.707   0.978   7.622  0.5655  1.5501  0.6424
 2852SOL     OW 8554   2.176   0.080   6.902  0.2022  0.7927 -0.3694
 2852SOL    HW1 8555   2.133   0.057   6.984  0.6725  0.6548 -0.1558
 2852SOL    HW2 8556   2.201  -0.005   6.864  0.3809  0.8727 -0.4329
 2853SOL     OW 8557   3.207   0.415   7.866  0.0235  0.1069  0.6652
 2853SOL    HW1 8558   3.209   0.387   7.775 -2.0322 -1.0898  0.9125
 2853SOL    HW2 8559   3.145   0.488   7.867 -1.1980 -0.9017  1.2989
 2854SOL     OW 8560   1.364   0.868   6.429  0.0776  0.3894 -0.1950
 2854SOL    HW1 8561   1.369   0.909   6.343 -1.2057  1.0911  0.0440
 2854SOL    HW2 8562   1.435   0.908   6.480  0.3456  0.5381 -0.6847
 2855SOL     OW 8563   3.541   0.777   9.020  0.1227  0.3236  0.3229
 2855SOL    HW1 8564   3.616   0.834   9.004  1.5197 -1.1268  1.3084
 2855SOL    HW2 8565   3.578   0.702   9.067 -2.0832 -0.1040  1.5167
 2856SOL     OW 8566   3.714   4.508   4.829  0.4770  0.1923  0.1819
 2856SOL    HW1 8567   3.635   4.562   4.833  0.1674  0.0715 -2.5638
 2856SOL    HW2 8568   3.772   4.555   4.769  1.3636 -1.1160 -0.0143
 2857SOL     OW 8569   2.688   3.915   8.581 -0.2326  0.0258  0.1614
 2857SOL    HW1 8570   2.636   3.878   8.653 -0.2493 -0.7473 -0.2413
 2857SOL    HW2 8571   2.689   4.009   8.599  0.5712 -0.2517  1.6975
 2858SOL     OW 8572   1.133   4.677   8.315 -0.0003 -0.6201  0.3445
 2858SOL    HW1 8573   1.101   4.756   8.272  0.1526 -0.9623 -0.4209
 2858SOL    HW2 8574   1.079   4.668   8.393 -1.6315 -1.0426 -0.7853
 2859SOL     OW 8575   3.684   3.931   6.167  0.8124  1.0208 -0.2389
 2859SOL    HW1 8576   3.777   3.909   6.177  0.6448  0.7395  0.7978
 2859SOL    HW2 8577   3.680   3.976   6.082  1.7053  0.0667 -0.8151
 2860SOL     OW 8578   3.374   4.916   8.282 -0.6529 -0.0556 -0.3247
 2860SOL    HW1 8579   3.417   4.960   8.208 -0.6561  0.1386 -0.2089
 2860SOL    HW2 8580   3.334   4.839   8.242  0.2912 -0.5609 -0.3415
 2861SOL     OW 8581   3.539   2.880   6.635 -0.2864 -0.7922  0.7767
 2861SOL    HW1 8582   3.500   2.923   6.711 -0.5034 -0.3608  0.4284
 2861SOL    HW2 8583   3.467   2.830   6.596 -0.8818  1.0465 -0.6221
 2862SOL     OW 8584   1.708   2.489   7.811 -0.5023  0.5889 -0.0563
 2862SOL    HW1 8585   1.701   2.397   7.785  0.7026  0.3139  0.5040
 2862SOL    HW2 8586   1.629   2.506   7.861 -0.5332 -0.2843  0.2146
 2863SOL     OW 8587   1.377   1.373   6.823 -0.9276  0.1523 -0.8226
 2863SOL    HW1 8588   1.306   1.382   6.886  0.6889 -0.8375  1.2610
 2863SOL    HW2 8589   1.335   1.382   6.738 -2.9360  3.3903  0.3633
 2864SOL     OW 8590   4.609   1.564   7.923 -0.5703 -0.5724 -0.6007
 2864SOL    HW1 8591   4.529   1.570   7.870 -2.7179 -1.7793  2.2485
 2864SOL    HW2 8592   4.620   1.651   7.961 -0.2075 -0.2781 -1.3501
 2865SOL     OW 8593   1.796   4.016   5.109 -0.1628 -0.3545 -0.2155
 2865SOL    HW1 8594   1.850   4.094   5.121 -1.2447  0.5072 -0.7423
 2865SOL    HW2 8595   1.855   3.952   5.071  1.7878 -1.1401  3.6008
 2866SOL     OW 8596   2.293   0.065   7.560  0.4493  0.9327  0.5526
 2866SOL    HW1 8597   2.361  -0.000   7.542 -1.6076 -1.1815 -0.1408
 2866SOL    HW2 8598   2.332   0.124   7.624  3.0637  0.1006 -0.1585
 2867SOL     OW 8599   0.021   3.342   8.043  0.2535  0.1852  0.1320
 2867SOL    HW1 8600   0.109   3.322   8.010 -0.0385  0.3812 -0.7859
 2867SOL    HW2 8601   0.005   3.432   8.016 -0.9474 -0.4198 -1.3754
 2868SOL     OW 8602   1.174   3.763  10.465  0.3429  0.1320 -0.0370
 2868SOL    HW1 8603   1.102   3.824  10.480 -0.6183 -1.2320  1.2103
 2868SOL    HW2 8604   1.153   3.721  10.382 -0.5211 -0.5286  0.5027
 2869SOL     OW 8605   4.653   2.621   8.229  0.3708  0.1528 -0.5728
 2869SOL    HW1 8606   4.601   2.564   8.171  1.7984 -1.3691 -0.4333
 2869SOL    HW2 8607   4.589   2.653   8.293 -0.3348 -2.3811  0.1424
 2870SOL     OW 8608   3.092   2.007   9.949  0.6410 -0.5658 -0.2015
 2870SOL    HW1 8609   3.035   1.931   9.962 -1.7716  1.1098 -0.4051
 2870SOL    HW2 8610   3.181   1.970   9.947 -0.3468 -3.2261  0.7500
 2871SOL     OW 8611   4.468   0.656   7.745 -0.1223 -0.4231  0.3468
 2871SOL    HW1 8612   4.373   0.647   7.752 -0.0454 -0.6386  1.3478
 2871SOL    HW2 8613   4.490   0.621   7.659 -0.9811 -0.0501 -0.0336
 2872SOL     OW 8614   3.670   0.202  10.140 -0.0173  0.6580  0.5995
 2872SOL    HW1 8615   3.607   0.274  10.135 -1.2318 -0.1620  2.9331
 2872SOL    HW2 8616   3.616   0.123  10.140  1.0546 -0.1027  1.7933
 2873SOL     OW 8617   3.048   0.634   7.858  0.5107 -0.6382  0.0585
 2873SOL    HW1 8618   3.010   0.716   7.889 -1.5540 -1.7795  0.8092
 2873SOL    HW2 8619   3.103   0.659   7.784 -1.0163  1.3093 -0.5181
 2874SOL     OW 8620   1.760   0.825   5.486  0.5568 -0.0565 -0.1213
 2874SOL    HW1 8621   1.772   0.770   5.564  0.4889  1.1729  0.7982
 2874SOL    HW2 8622   1.668   0.851   5.489  0.5653  0.0309 -0.6009
 2875SOL     OW 8623   2.869   0.243   8.131 -0.3207  0.8973  0.1193
 2875SOL    HW1 8624   2.953   0.238   8.085 -0.5810  1.8518 -0.4950
 2875SOL    HW2 8625   2.810   0.284   8.068 -1.6571 -1.1041 -0.0049
 2876SOL     OW 8626   1.775   0.055   5.854 -0.9923 -0.1356  0.1245
 2876SOL    HW1 8627   1.798  -0.011   5.919 -1.2286 -0.2408  0.1018
 2876SOL    HW2 8628   1.774   0.138   5.903 -0.4870 -0.1164  0.1089
 2877SOL     OW 8629   1.660   3.646   8.089 -0.2204  0.3046 -0.7464
 2877SOL    HW1 8630   1.637   3.658   7.997 -2.1415 -1.0464 -0.5077
 2877SOL    HW2 8631   1.594   3.697   8.136 -0.4355 -0.5643 -0.0876
 2878SOL     OW 8632   2.024   1.429   9.485 -0.0489  0.3361  0.3285
 2878SOL    HW1 8633   1.958   1.384   9.538 -0.2599 -2.5789 -2.1320
 2878SOL    HW2 8634   2.080   1.473   9.549 -2.2068 -0.1146  2.6980
 2879SOL     OW 8635   3.795   1.816   8.421 -0.1960 -0.0012 -0.2550
 2879SOL    HW1 8636   3.741   1.820   8.501 -0.9405 -0.1856 -0.7414
 2879SOL    HW2 8637   3.776   1.730   8.384  1.9411 -0.8974  0.5965
 2880SOL     OW 8638   4.619   1.667   8.513  0.0622 -0.7064 -0.3987
 2880SOL    HW1 8639   4.612   1.575   8.536 -0.0883 -0.5750  0.0968
 2880SOL    HW2 8640   4.697   1.698   8.560  0.0227 -0.5438 -0.4395
 2881SOL     OW 8641   3.911   4.842   6.141  0.0351 -0.1118  0.1540
 2881SOL    HW1 8642   3.919   4.814   6.232  0.4184  1.9037  0.7798
 2881SOL    HW2 8643   3.965   4.779   6.092  1.6796  0.0823  1.6097
 2882SOL     OW 8644   2.010   4.555   8.844  0.2081  0.1733  0.3594
 2882SOL    HW1 8645   1.944   4.486   8.856  0.6652 -0.0404  1.8437
 2882SOL    HW2 8646   2.090   4.518   8.882  0.6631  1.2190  0.4426
 2883SOL     OW 8647   2.204   2.896   4.773  0.6080  0.1251  0.3783
 2883SOL    HW1 8648   2.255   2.839   4.714 -0.8555  1.6126 -2.5168
 2883SOL    HW2 8649   2.130   2.841   4.801 -0.2934  0.2351 -1.6401
 2884SOL     OW 8650   2.137   3.296   8.743 -0.0303  0.0100  0.2886
 2884SOL    HW1 8651   2.091   3.220   8.779 -0.9299 -0.8208 -2.4000
 2884SOL    HW2 8652   2.072   3.366   8.742  0.1195  0.1600  0.5781
 2885SOL     OW 8653   3.510   3.144   7.376  0.6313  0.4605  0.0092
 2885SOL    HW1 8654   3.442   3.111   7.317 -0.5154  0.9674  0.9909
 2885SOL    HW2 8655   3.585   3.160   7.320  0.0793 -0.5263 -1.0493
 2886SOL     OW 8656   3.552   0.151   8.584  0.3908  0.0851  0.3303
 2886SOL    HW1 8657   3.606   0.210   8.637  0.5714 -0.5316  0.8412
 2886SOL    HW2 8658   3.463   0.166   8.614  0.5502 -0.6567  1.2058
 2887SOL     OW 8659   1.227   1.869   6.344  0.1565 -0.0220 -0.0375
 2887SOL    HW1 8660   1.194   1.811   6.413  1.3051 -0.3674  0.2582
 2887SOL    HW2 8661   1.153   1.884   6.287 -1.2459  1.4100  2.0229
 2888SOL     OW 8662   3.992   4.809   7.869 -0.0596 -0.3959 -0.3072
 2888SOL    HW1 8663   4.055   4.770   7.930  1.7209  1.7950 -0.6006
 2888SOL    HW2 8664   3.976   4.897   7.904 -0.9762 -0.0021 -1.6453
 2889SOL     OW 8665   1.141   3.041   9.525 -0.5871 -0.4873  0.4978
 2889SOL    HW1 8666   1.126   2.952   9.557 -1.1010 -1.1327 -1.4220
 2889SOL    HW2 8667   1.213   3.031   9.462  0.0574  0.6593  1.0170
 2890SOL     OW 8668   2.928   4.929   9.194 -0.0313 -0.4929  0.0591
 2890SOL    HW1 8669   2.967   5.013   9.217 -0.0017 -0.4603 -0.1128
 2890SOL    HW2 8670   2.882   4.902   9.274 -1.0796  0.2670 -0.2552
 2891SOL     OW 8671   2.740   4.337   9.661 -0.0169 -0.5564  0.2462
 2891SOL    HW1 8672   2.828   4.320   9.695  1.3059  1.5422 -1.8044
 2891SOL    HW2 8673   2.684   4.341   9.739  1.7900 -1.3118  1.6575
 2892SOL     OW 8674   0.800   0.950   7.640 -0.6413  0.5959 -0.4829
 2892SOL    HW1 8675   0.834   1.006   7.710  0.0159  0.1492 -0.4391
 2892SOL    HW2 8676   0.707   0.939   7.660 -0.6520  1.1968 -0.1777
 2893SOL     OW 8677   4.581   0.037   7.303 -1.1790  0.6199  0.0415
 2893SOL    HW1 8678   4.660   0.037   7.249 -0.9800  0.7088  0.3279
 2893SOL    HW2 8679   4.608   0.078   7.385 -0.8760 -1.5300  1.0929
 2894SOL     OW 8680   0.884   0.202   7.927 -0.3162 -0.1021 -0.8440
 2894SOL    HW1 8681   0.817   0.223   7.992 -0.4897 -0.0362 -1.0434
 2894SOL    HW2 8682   0.957   0.167   7.978 -0.3789  0.1290 -0.5967
 2895SOL     OW 8683   1.367   3.265   8.431  0.6673  0.1725  0.0973
 2895SOL    HW1 8684   1.435   3.244   8.495 -0.0251  0.3317  0.9039
 2895SOL    HW2 8685   1.394   3.349   8.394  0.8781  0.2689  0.4663
 2896SOL     OW 8686   0.374   3.961   9.004  0.3255  0.1063 -1.0078
 2896SOL    HW1 8687   0.303   3.949   8.940 -2.1483  2.4862  1.0399
 2896SOL    HW2 8688   0.384   3.875   9.044 -0.2455 -0.6801 -2.4478
 2897SOL     OW 8689   2.239   3.080   5.257  0.0945 -0.3543  0.5744
 2897SOL    HW1 8690   2.173   3.089   5.188 -1.9913  0.4916  2.5578
 2897SOL    HW2 8691   2.305   3.022   5.219 -1.8529 -1.4100 -1.4601
 2898SOL     OW 8692   3.221   2.322   7.080  0.4254  0.2080 -0.6801
 2898SOL    HW1 8693   3.203   2.409   7.045  1.6278 -1.1623 -5.5832
 2898SOL    HW2 8694   3.315   2.322   7.099  0.4121  0.0072 -0.6117
 2899SOL     OW 8695   3.345   1.219   7.221  0.4154 -0.0248 -0.3900
 2899SOL    HW1 8696   3.437   1.192   7.217  0.5732  0.2461  0.9296
 2899SOL    HW2 8697   3.296   1.137   7.217  0.8626 -0.5502  2.5430
 2900SOL     OW 8698   0.301   1.179   9.132 -0.2965  0.2531  0.7851
 2900SOL    HW1 8699   0.364   1.110   9.110  0.1658  0.3620  1.7164
 2900SOL    HW2 8700   0.251   1.193   9.052 -0.1390 -0.8941  0.4812
 2901SOL     OW 8701   3.846   1.302   6.674  0.2352 -0.6993 -0.2442
 2901SOL    HW1 8702   3.805   1.219   6.698  1.8703 -1.5953 -0.4342
 2901SOL    HW2 8703   3.842   1.354   6.754 -2.7921 -0.0314 -0.6873
 2902SOL     OW 8704   4.696   0.329   5.275 -0.0537  0.4883 -0.3325
 2902SOL    HW1 8705   4.661   0.393   5.213 -0.2278  0.0698 -0.6657
 2902SOL    HW2 8706   4.741   0.265   5.221  0.8812  0.7846  0.0523
 2903SOL     OW 8707   3.304   1.155   8.540  0.0941  0.2753  0.1632
 2903SOL    HW1 8708   3.211   1.150   8.518  0.4164  0.5161 -1.3541
 2903SOL    HW2 8709   3.324   1.069   8.579 -0.2546 -0.6997 -1.6934
 2904SOL     OW 8710   3.492   3.742   7.891 -0.0808  0.3268  0.0150
 2904SOL    HW1 8711   3.468   3.726   7.982  1.4700 -1.6851  0.1284
 2904SOL    HW2 8712   3.409   3.736   7.843 -0.4327 -2.9054  0.8133
 2905SOL     OW 8713   1.222   0.981   6.703 -0.1670 -0.2424 -0.4609
 2905SOL    HW1 8714   1.225   1.061   6.650 -1.1633 -0.6385 -1.1502
 2905SOL    HW2 8715   1.287   0.995   6.772 -1.5338  1.9101  0.4877
 2906SOL     OW 8716   3.357   4.102   8.885  0.1539 -0.4609  0.7431
 2906SOL    HW1 8717   3.373   4.182   8.935 -1.6931 -0.3949  1.2957
 2906SOL    HW2 8718   3.410   4.035   8.929 -0.2499 -0.0690  1.8516
 2907SOL     OW 8719   3.486   1.817   8.022 -0.4203 -0.4602  0.1527
 2907SOL    HW1 8720   3.410   1.869   7.995  0.9220  1.9868  0.8722
 2907SOL    HW2 8721   3.479   1.813   8.117  1.6933  2.1605  0.5272
 2908SOL     OW 8722   3.973   4.247   9.852  0.1322  0.1849 -0.1760
 2908SOL    HW1 8723   3.882   4.261   9.879  0.5090  2.2707  0.1589
 2908SOL    HW2 8724   4.022   4.249   9.934  0.5866  0.0687 -0.4439
 2909SOL     OW 8725   0.799   0.445   5.636 -0.2453  0.0051  0.7589
 2909SOL    HW1 8726   0.716   0.461   5.680 -0.2723 -1.0828  1.1386
 2909SOL    HW2 8727   0.779   0.380   5.569  0.3976 -0.7410  1.2619
 2910SOL     OW 8728   3.809   3.341   8.827  0.1278 -0.0228  0.2656
 2910SOL    HW1 8729   3.836   3.291   8.904  2.9099  0.8337 -0.0179
 2910SOL    HW2 8730   3.882   3.332   8.766  0.1040  3.0477 -0.4038
 2911SOL     OW 8731   1.681   1.320   8.792 -0.1426  0.4431 -0.7027
 2911SOL    HW1 8732   1.635   1.370   8.725  0.1134 -0.0000 -1.2192
 2911SOL    HW2 8733   1.773   1.324   8.765 -0.0959 -0.1226 -0.6292
 2912SOL     OW 8734   2.781   4.916   7.437 -0.9686 -0.0620 -0.1861
 2912SOL    HW1 8735   2.772   4.822   7.422 -0.5405 -0.6356  2.5998
 2912SOL    HW2 8736   2.838   4.946   7.366 -1.8015 -1.7181 -1.6263
 2913SOL     OW 8737   3.935   0.144   8.524  0.1682 -0.5247 -0.2256
 2913SOL    HW1 8738   3.990   0.217   8.552 -0.0083  0.2281 -1.7314
 2913SOL    HW2 8739   3.916   0.096   8.604 -0.0057  1.2814  0.8596
 2914SOL     OW 8740   1.348   1.261   9.082 -0.1703 -0.4792  0.0469
 2914SOL    HW1 8741   1.301   1.235   9.003  0.1517  0.7773 -0.5809
 2914SOL    HW2 8742   1.433   1.292   9.051 -0.3592  0.8498  0.7732
 2915SOL     OW 8743   2.850   1.859   4.657 -0.0486 -0.0889  0.3552
 2915SOL    HW1 8744   2.932   1.830   4.697  1.0055  0.4052 -1.3437
 2915SOL    HW2 8745   2.834   1.795   4.587 -1.6457 -0.7198  1.2493
 2916SOL     OW 8746   3.819   0.291   6.914  0.6001  0.0458  0.2123
 2916SOL    HW1 8747   3.758   0.274   6.986  0.4714  3.4635  1.0858
 2916SOL    HW2 8748   3.906   0.291   6.954  0.6615  0.4962  0.0913
 2917SOL     OW 8749   3.543   1.751   7.136 -0.6955  0.3124 -0.7156
 2917SOL    HW1 8750   3.508   1.721   7.219 -0.7719  0.0237 -0.8523
 2917SOL    HW2 8751   3.638   1.754   7.149 -0.8110  2.5538  0.1522
 2918SOL     OW 8752   2.617   1.400   7.826 -0.3717 -0.2629  0.5529
 2918SOL    HW1 8753   2.635   1.489   7.857 -2.1345 -0.0334  1.0275
 2918SOL    HW2 8754   2.659   1.396   7.740 -0.7346  1.2410  0.2805
 2919SOL     OW 8755   0.896   3.676   6.930 -0.2714 -0.0971  0.1311
 2919SOL    HW1 8756   0.857   3.700   6.847 -0.7475 -1.0683  0.0633
 2919SOL    HW2 8757   0.852   3.595   6.956  0.4952 -0.2992  0.8850
 2920SOL     OW 8758   2.753   4.260   6.622  0.5015  0.0088 -0.1933
 2920SOL    HW1 8759   2.788   4.330   6.567 -0.1513  0.5988  0.1313
 2920SOL    HW2 8760   2.688   4.216   6.568 -0.8504  1.2016  0.3880
 2921SOL     OW 8761   3.554   1.562   7.908  0.2143 -0.0037  0.4888
 2921SOL    HW1 8762   3.502   1.517   7.974  0.6235 -0.4560  0.5052
 2921SOL    HW2 8763   3.563   1.651   7.941  1.5048 -0.5497  1.7014
 2922SOL     OW 8764   4.451   3.669   9.056 -0.4674 -0.1616 -0.3541
 2922SOL    HW1 8765   4.519   3.732   9.081 -0.5975  0.3466 -1.2455
 2922SOL    HW2 8766   4.480   3.587   9.095  0.5720  0.0859 -0.5503
 2923SOL     OW 8767   2.298   4.129   6.651 -0.0147  0.8223  0.1582
 2923SOL    HW1 8768   2.296   4.183   6.730  0.0214 -1.2021  1.6254
 2923SOL    HW2 8769   2.382   4.082   6.656 -1.5500 -2.0855  0.9415
 2924SOL     OW 8770   2.723   4.167   9.080 -0.0152 -0.0819  0.4654
 2924SOL    HW1 8771   2.757   4.220   9.008 -4.5206 -0.3243 -2.2030
 2924SOL    HW2 8772   2.725   4.077   9.048  0.2357 -0.5608  1.7387
 2925SOL     OW 8773   1.438   2.555   9.271 -1.1888 -0.0527 -0.5362
 2925SOL    HW1 8774   1.380   2.491   9.228 -0.5543  0.0273 -1.5524
 2925SOL    HW2 8775   1.405   2.640   9.242 -0.9113  0.0139 -0.6550
 2926SOL     OW 8776   0.786   2.906   9.306  0.4808  0.1053 -0.1997
 2926SOL    HW1 8777   0.858   2.959   9.272  1.1013 -0.4532  0.2402
 2926SOL    HW2 8778   0.810   2.886   9.396  0.0313 -0.5415 -0.2167
 2927SOL     OW 8779   2.738   2.947   8.166 -0.3527 -0.9444 -0.3465
 2927SOL    HW1 8780   2.668   2.884   8.185 -1.7412  0.7244  0.2587
 2927SOL    HW2 8781   2.738   3.006   8.241  1.2358 -0.4664 -0.6888
 2928SOL     OW 8782   2.603   4.123   7.987 -0.0697 -0.1094 -0.3369
 2928SOL    HW1 8783   2.643   4.053   8.039 -0.4697 -1.2288 -1.4898
 2928SOL    HW2 8784   2.512   4.096   7.976 -0.5328  1.1775  0.1565
 2929SOL     OW 8785   2.137   3.381   8.025  0.3189 -0.3585  0.0397
 2929SOL    HW1 8786   2.054   3.419   8.057  1.1104  1.4707  0.0654
 2929SOL    HW2 8787   2.120   3.287   8.020 -2.2873  0.0918 -1.5309
 2930SOL     OW 8788   2.520   0.270   6.301 -0.0410 -1.1211 -0.1076
 2930SOL    HW1 8789   2.463   0.312   6.366  2.1788  3.0489 -0.5398
 2930SOL    HW2 8790   2.503   0.318   6.220  4.2425  0.7959 -0.1137
 2931SOL     OW 8791   3.595   3.295   6.960 -0.0652  0.4392  0.1285
 2931SOL    HW1 8792   3.603   3.385   6.992 -0.8149  0.5082  0.1491
 2931SOL    HW2 8793   3.528   3.300   6.892  0.2149 -0.0245 -0.1860
 2932SOL     OW 8794   2.492   3.268   8.118 -0.1049 -0.3049 -1.0248
 2932SOL    HW1 8795   2.476   3.252   8.211 -0.4160  1.4654 -0.7318
 2932SOL    HW2 8796   2.462   3.358   8.104  2.5969  0.5170 -2.1770
 2933SOL     OW 8797   1.231   0.830   5.766 -0.4881 -0.0434  0.2996
 2933SOL    HW1 8798   1.135   0.829   5.757 -0.5548  0.1086  0.9836
 2933SOL    HW2 8799   1.261   0.884   5.693 -0.9771  0.5479  0.5239
 2934SOL     OW 8800   0.025   4.667   4.901  0.2088  0.3740 -0.3008
 2934SOL    HW1 8801  -0.019   4.582   4.896  0.7808  0.0672 -0.2206
 2934SOL    HW2 8802   0.028   4.687   4.995  0.9069  0.0352 -0.2468
 2935SOL     OW 8803   3.498   2.032   7.219 -0.2433  1.1840 -0.6869
 2935SOL    HW1 8804   3.532   1.986   7.143  2.3564  2.5095 -0.4217
 2935SOL    HW2 8805   3.460   2.113   7.183  0.1371  1.3754 -0.6569
 2936SOL     OW 8806   1.938   4.164   6.226 -0.0771 -0.6451 -0.1336
 2936SOL    HW1 8807   1.965   4.198   6.311  0.8976  0.2363 -0.7825
 2936SOL    HW2 8808   1.995   4.089   6.211  0.1802 -0.4182 -0.2920
 2937SOL     OW 8809   2.245   0.055   8.227 -0.4281 -0.8806 -0.8846
 2937SOL    HW1 8810   2.252   0.076   8.320  0.5473 -3.8436 -0.1819
 2937SOL    HW2 8811   2.306   0.114   8.184  1.0814 -1.2106  0.7130
 2938SOL     OW 8812   3.025   4.728   6.997  0.1207 -0.4982 -0.5111
 2938SOL    HW1 8813   3.008   4.823   6.993  1.5125 -0.1868  0.3101
 2938SOL    HW2 8814   2.954   4.689   6.946 -0.2216  1.0141 -1.2533
 2939SOL     OW 8815   4.822   1.757   8.648  0.2203  0.0845  0.4723
 2939SOL    HW1 8816   4.820   1.735   8.741  0.7756  0.8842  0.6872
 2939SOL    HW2 8817   4.890   1.824   8.641 -1.5064  1.8703 -0.0881
 2940SOL     OW 8818   2.537   4.410   9.928  0.2086 -0.4972  0.1791
 2940SOL    HW1 8819   2.442   4.396   9.923  0.3650 -1.3199 -1.0908
 2940SOL    HW2 8820   2.547   4.494   9.974 -1.2622  1.0222 -2.0507
 2941SOL     OW 8821   0.917   2.890   8.453 -0.3004  0.2435 -0.3244
 2941SOL    HW1 8822   0.940   2.892   8.546  0.1333  1.4269 -0.4365
 2941SOL    HW2 8823   0.839   2.835   8.448  0.2161 -0.5953  0.6086
 2942SOL     OW 8824   1.831   1.344   6.334 -0.0365 -0.1262 -0.9888
 2942SOL    HW1 8825   1.913   1.347   6.383  0.5902  0.2975 -2.0356
 2942SOL    HW2 8826   1.847   1.397   6.256 -1.3949  0.1861 -1.0800
 2943SOL     OW 8827   2.496   4.449   6.244 -0.3859  0.4437 -0.0125
 2943SOL    HW1 8828   2.505   4.534   6.201  0.2012  0.3968  0.0061
 2943SOL    HW2 8829   2.564   4.395   6.204 -1.0254 -0.1360 -0.3076
 2944SOL     OW 8830   4.233   2.280   8.048  0.3776  0.1016  0.6169
 2944SOL    HW1 8831   4.194   2.313   8.129  0.9379 -0.3318  1.0704
 2944SOL    HW2 8832   4.261   2.191   8.069 -0.6862 -0.5205 -0.4450
 2945SOL     OW 8833   0.643   4.494   8.206 -0.3570  0.8913  0.4535
 2945SOL    HW1 8834   0.560   4.541   8.207  0.4204  2.3072  0.2342
 2945SOL    HW2 8835   0.708   4.560   8.182  0.5345 -0.6595 -1.7584
 2946SOL     OW 8836   1.703   4.316   5.280  0.0526 -0.3701 -0.3381
 2946SOL    HW1 8837   1.738   4.243   5.230  2.5925  0.4774  0.0428
 2946SOL    HW2 8838   1.610   4.320   5.256  0.2515 -2.5663 -1.7070
 2947SOL     OW 8839   1.644   4.086   8.976 -0.2462  0.8762 -0.1080
 2947SOL    HW1 8840   1.549   4.094   8.967 -0.0909  1.5073 -1.5368
 2947SOL    HW2 8841   1.674   4.174   8.999 -0.0129  0.6622  0.4231
 2948SOL     OW 8842   3.616   4.029   8.550 -0.0270 -0.1101 -0.4669
 2948SOL    HW1 8843   3.526   4.002   8.569 -1.3421  1.3352 -3.7981
 2948SOL    HW2 8844   3.668   3.949   8.559 -1.8529 -1.2805  0.2977
 2949SOL     OW 8845   2.481   2.798   7.828  0.3559 -0.1852  0.2750
 2949SOL    HW1 8846   2.450   2.715   7.865  0.4915 -0.4577 -0.2111
 2949SOL    HW2 8847   2.450   2.865   7.889  0.3869 -0.6072  0.7556
 2950SOL     OW 8848   0.100   4.475   8.492  0.1290 -0.1439 -0.2505
 2950SOL    HW1 8849   0.156   4.451   8.419 -0.8332  1.1186 -1.4751
 2950SOL    HW2 8850   0.023   4.418   8.483  0.4343 -0.6728  0.3922
 2951SOL     OW 8851   0.829   0.339   6.602 -0.6801  0.4181 -0.2284
 2951SOL    HW1 8852   0.790   0.351   6.516 -4.1931 -0.3798  1.0878
 2951SOL    HW2 8853   0.843   0.428   6.634 -1.7478  0.7607 -0.6637
 2952SOL     OW 8854   3.682   4.894   6.540  0.1956  0.3413  0.0061
 2952SOL    HW1 8855   3.602   4.892   6.593 -0.0411  0.9544 -0.3065
 2952SOL    HW2 8856   3.749   4.927   6.600  0.0579  0.4718  0.0920
 2953SOL     OW 8857   4.270   2.219   9.356  0.0256 -0.1577  0.2591
 2953SOL    HW1 8858   4.357   2.235   9.392  0.2530  1.9250 -1.0306
 2953SOL    HW2 8859   4.277   2.133   9.315  0.7052 -1.1182  2.2597
 2954SOL     OW 8860   2.836   3.555   8.261 -0.5005  0.4791 -0.1911
 2954SOL    HW1 8861   2.872   3.619   8.323 -0.1024  1.0002 -0.9494
 2954SOL    HW2 8862   2.741   3.566   8.269 -0.4548  0.5379  0.3305
 2955SOL     OW 8863   1.046   4.172   6.203  0.2375  1.2939  0.0221
 2955SOL    HW1 8864   1.055   4.264   6.228  3.6185  1.1376 -0.2743
 2955SOL    HW2 8865   1.133   4.146   6.174 -0.5280 -2.1157  0.4082
 2956SOL     OW 8866   0.464   0.286   9.335 -0.2884  0.6030 -0.2603
 2956SOL    HW1 8867   0.436   0.368   9.375  1.0744  1.2722 -0.6109
 2956SOL    HW2 8868   0.503   0.236   9.407  0.9779  1.2623 -0.4485
 2957SOL     OW 8869   1.299   3.575   9.631 -0.0341 -0.2828  0.0075
 2957SOL    HW1 8870   1.248   3.495   9.619 -0.9018  0.0736  1.1399
 2957SOL    HW2 8871   1.378   3.548   9.678  1.4244 -1.0133 -2.6555
 2958SOL     OW 8872   2.205   4.288   9.975 -0.7411 -0.2665 -0.0087
 2958SOL    HW1 8873   2.204   4.241   9.891 -0.3841 -0.8659  0.3155
 2958SOL    HW2 8874   2.188   4.221  10.041 -0.6244  0.1311  0.4318
 2959SOL     OW 8875   2.639   1.398   7.546 -0.0911  0.1819  0.4326
 2959SOL    HW1 8876   2.573   1.388   7.478 -1.5466 -1.9837  2.0152
 2959SOL    HW2 8877   2.723   1.399   7.500 -1.1228  1.1036 -1.5007
 2960SOL     OW 8878   2.766   3.659   9.006  0.2180 -0.1107  0.1287
 2960SOL    HW1 8879   2.715   3.637   9.084 -0.2963  1.1707  0.1796
 2960SOL    HW2 8880   2.837   3.713   9.038  0.5810 -0.3962 -0.1818
 2961SOL     OW 8881   1.424   4.976   7.660  0.3715  0.5390 -0.0415
 2961SOL    HW1 8882   1.370   5.010   7.589 -1.0153 -1.7579 -0.1968
 2961SOL    HW2 8883   1.370   4.909   7.702  0.6234  2.5917  4.0642
 2962SOL     OW 8884   2.353   1.836   7.793  0.3000 -0.1957  0.5424
 2962SOL    HW1 8885   2.440   1.843   7.753 -1.0386 -0.4263 -2.7658
 2962SOL    HW2 8886   2.330   1.743   7.782 -0.7770  0.0855  0.3471
 2963SOL     OW 8887   3.493   0.690   7.998 -0.2057  0.3847  0.2543
 2963SOL    HW1 8888   3.492   0.595   8.002  0.8274  0.3810  0.7830
 2963SOL    HW2 8889   3.517   0.717   8.087  1.4177  1.0688 -0.3525
 2964SOL     OW 8890   0.840   4.224   9.833 -0.0778 -0.2514 -0.1603
 2964SOL    HW1 8891   0.748   4.220   9.809 -0.2395  0.0735  0.3753
 2964SOL    HW2 8892   0.870   4.309   9.799  0.1081 -0.4908 -0.6051
 2965SOL     OW 8893   3.328   1.045   9.999  0.0836 -0.1738 -0.8459
 2965SOL    HW1 8894   3.271   1.112   9.960  1.1944  0.9177 -0.6849
 2965SOL    HW2 8895   3.268   0.976  10.028 -1.0207  0.3265 -1.8506
 2966SOL     OW 8896   0.250   1.442   9.834  0.0843  0.1165 -0.7753
 2966SOL    HW1 8897   0.267   1.456   9.741  1.4463  2.1519 -0.2861
 2966SOL    HW2 8898   0.325   1.392   9.865 -0.6578 -1.0839 -0.8441
 2967SOL     OW 8899   0.646   3.695   8.935  0.3618 -0.1910 -0.1338
 2967SOL    HW1 8900   0.721   3.747   8.906  0.6718 -0.1543  0.6884
 2967SOL    HW2 8901   0.628   3.727   9.024 -0.1123 -0.7575 -0.0198
 2968SOL     OW 8902   4.063   0.652   9.404 -0.4567 -0.5096  0.3849
 2968SOL    HW1 8903   4.101   0.734   9.371 -1.1213 -0.6747 -0.8326
 2968SOL    HW2 8904   4.136   0.609   9.449  0.6273 -0.4674 -1.2430
 2969SOL     OW 8905   2.185   3.907   9.813  0.2853 -0.0164 -0.2042
 2969SOL    HW1 8906   2.142   3.948   9.738  0.2546  0.8466  0.2627
 2969SOL    HW2 8907   2.254   3.853   9.776  0.5414  0.7333 -0.8411
 2970SOL     OW 8908   0.268   0.956   7.889  0.6384 -0.4359 -0.4142
 2970SOL    HW1 8909   0.236   1.042   7.919 -1.0812 -0.8310 -0.9860
 2970SOL    HW2 8910   0.291   0.970   7.797 -0.3627 -0.7392 -0.7232
 2971SOL     OW 8911   0.408   0.900   9.570 -0.4653  0.0648 -0.4346
 2971SOL    HW1 8912   0.378   0.989   9.587 -0.2924  0.2845 -1.2502
 2971SOL    HW2 8913   0.445   0.871   9.654 -0.7377  0.6694 -0.1003
 2972SOL     OW 8914   2.086   4.406   9.086 -0.5478 -0.2178  0.9120
 2972SOL    HW1 8915   2.064   4.490   9.127 -0.1691  1.5425 -2.1423
 2972SOL    HW2 8916   2.180   4.396   9.101 -0.2805  0.7425  0.0237
 2973SOL     OW 8917   0.016   1.344   9.909 -0.2311 -0.0819  0.2726
 2973SOL    HW1 8918   0.104   1.373   9.888 -0.5264  0.9465  0.3963
 2973SOL    HW2 8919  -0.037   1.368   9.833 -0.6169  0.3466  0.6708
 2974SOL     OW 8920   2.921   0.235   9.948 -0.6235 -0.0782 -0.2623
 2974SOL    HW1 8921   2.902   0.234   9.854 -1.6928 -1.3145 -0.0742
 2974SOL    HW2 8922   2.841   0.269   9.988 -0.4449 -0.2318  0.2391
 2975SOL     OW 8923   2.618   3.673   9.316  0.3127 -0.3020  0.1504
 2975SOL    HW1 8924   2.568   3.715   9.246  1.1496  0.9851  0.2841
 2975SOL    HW2 8925   2.676   3.742   9.348  0.4723 -1.0783  1.6186
 2976SOL     OW 8926   1.074   2.999   8.895  0.9224  0.1363 -0.0065
 2976SOL    HW1 8927   1.153   2.974   8.943  1.2124 -0.3560 -0.7234
 2976SOL    HW2 8928   1.097   2.986   8.803 -0.2579 -0.8077 -0.1876
 2977SOL     OW 8929   0.244   0.436   7.112 -0.1422  0.2560  0.0523
 2977SOL    HW1 8930   0.285   0.389   7.039  0.3533  1.1448 -0.2569
 2977SOL    HW2 8931   0.176   0.489   7.072  0.5173  1.1963  0.1445
 2978SOL     OW 8932   1.896   3.983   6.896 -0.1569 -0.4729 -0.2991
 2978SOL    HW1 8933   1.928   4.072   6.916 -0.8701  0.1191 -1.6407
 2978SOL    HW2 8934   1.967   3.926   6.921  0.4787  0.5259  0.2388
 2979SOL     OW 8935   3.229   0.939   8.295 -0.3647  0.3280  0.4125
 2979SOL    HW1 8936   3.267   0.852   8.305  0.1140  0.6864  1.7920
 2979SOL    HW2 8937   3.243   0.961   8.202 -0.0050 -0.8191  0.1858
 2980SOL     OW 8938   1.516   4.971   7.230  0.0234  0.1907  0.1586
 2980SOL    HW1 8939   1.558   4.931   7.306 -0.6039  0.6663  0.7755
 2980SOL    HW2 8940   1.448   4.909   7.205  1.8802 -1.2204 -1.6699
 2981SOL     OW 8941   1.447   3.818   8.011 -0.0512 -0.1678  0.3935
 2981SOL    HW1 8942   1.430   3.751   7.945  0.7709 -0.3676  0.3688
 2981SOL    HW2 8943   1.381   3.885   7.996 -0.5147 -0.6948  0.0363
 2982SOL     OW 8944   3.131   0.366   9.638 -0.1562 -0.1343  1.0938
 2982SOL    HW1 8945   3.197   0.431   9.662 -0.5059 -0.6263  3.6240
 2982SOL    HW2 8946   3.072   0.413   9.579  2.2204  0.3904 -1.0526
 2983SOL     OW 8947   3.872   4.664   7.678 -0.7009 -1.0987 -0.0238
 2983SOL    HW1 8948   3.950   4.621   7.643 -0.3828  0.4018 -1.2535
 2983SOL    HW2 8949   3.905   4.718   7.750 -0.2513  0.8796 -1.6277
 2984SOL     OW 8950   0.900   4.218   8.508  0.0925 -0.1477 -0.6103
 2984SOL    HW1 8951   0.971   4.167   8.546 -0.2384  1.2342  2.0883
 2984SOL    HW2 8952   0.822   4.164   8.520  0.0124  0.2272  0.6545
 2985SOL     OW 8953   3.718   4.215   6.683 -0.1510  1.2256  0.2389
 2985SOL    HW1 8954   3.794   4.219   6.624 -1.5438  0.6207 -1.7035
 2985SOL    HW2 8955   3.745   4.154   6.752  1.2374  1.2768 -0.2142
 2986SOL     OW 8956   4.133   0.300   8.644 -0.2751  0.1706  0.9045
 2986SOL    HW1 8957   4.176   0.220   8.673 -0.8088  0.1610  1.7195
 2986SOL    HW2 8958   4.190   0.336   8.576  0.7356 -0.1121  1.5853
 2987SOL     OW 8959   3.934   4.944   9.739 -0.4431  0.1846 -0.1791
 2987SOL    HW1 8960   3.930   4.962   9.833 -2.8845 -0.1076 -0.1754
 2987SOL    HW2 8961   3.976   4.858   9.732 -2.0012 -0.6862  0.8051
 2988SOL     OW 8962   0.059  -0.001   9.843 -0.3846  0.3811  0.2325
 2988SOL    HW1 8963   0.120  -0.004   9.770 -0.3084 -0.6293  0.3229
 2988SOL    HW2 8964   0.114   0.012   9.920  0.0136 -2.7430  0.5844
 2989SOL     OW 8965   1.555   1.074  10.058  0.0674  0.6109 -0.2577
 2989SOL    HW1 8966   1.461   1.078  10.043 -0.0691  2.1770  0.7427
 2989SOL    HW2 8967   1.568   0.993  10.107 -0.6078 -0.1092 -1.2429
 2990SOL     OW 8968   3.680   1.615   6.698 -0.6166 -0.5888  0.4419
 2990SOL    HW1 8969   3.648   1.588   6.611  0.6727  0.9349 -0.5428
 2990SOL    HW2 8970   3.664   1.709   6.701  2.0906 -0.0737  0.6160
 2991SOL     OW 8971   3.432   3.095   9.527  0.1295  0.2052  0.9454
 2991SOL    HW1 8972   3.417   3.175   9.577 -1.7236  1.2581 -1.0976
 2991SOL    HW2 8973   3.346   3.055   9.518  0.5139 -0.3575 -0.6738
 2992SOL     OW 8974   2.277   4.200  10.243  0.8588  0.6046 -0.5405
 2992SOL    HW1 8975   2.297   4.275  10.298  1.0824 -0.1678  0.4465
 2992SOL    HW2 8976   2.184   4.185  10.255  0.8516  0.6067 -0.5940
 2993SOL     OW 8977   2.129   1.111   9.904 -0.5857  0.3859 -0.0019
 2993SOL    HW1 8978   2.183   1.075   9.975  0.5814 -0.3794 -1.2468
 2993SOL    HW2 8979   2.159   1.201   9.894  0.0427  0.1464 -0.2828
 2994SOL     OW 8980   3.347   0.529   9.267  0.1316 -0.2147 -0.1397
 2994SOL    HW1 8981   3.412   0.548   9.200 -1.8102  1.5097 -1.6626
 2994SOL    HW2 8982   3.265   0.518   9.219 -0.8292 -1.8373  1.7444
 2995SOL     OW 8983   1.624   1.744   7.873 -0.5692 -0.8594  0.2571
 2995SOL    HW1 8984   1.653   1.720   7.785 -1.1555  1.3606 -0.6192
 2995SOL    HW2 8985   1.666   1.828   7.890 -1.8355 -0.4210  1.3878
 2996SOL     OW 8986   1.131   1.397   9.250  0.4664  0.2438  0.0417
 2996SOL    HW1 8987   1.213   1.368   9.210  1.1555 -0.2899  1.7418
 2996SOL    HW2 8988   1.157   1.463   9.314 -0.2312 -0.8471  1.5356
 2997SOL     OW 8989   0.027   0.045   8.993  0.5597 -0.3059 -0.2697
 2997SOL    HW1 8990   0.057  -0.022   9.054  0.3111 -0.7050 -0.5840
 2997SOL    HW2 8991   0.097   0.052   8.928  0.1767 -0.9255 -0.7571
 2998SOL     OW 8992   1.671   1.265   7.857  0.5793  0.2774 -0.1676
 2998SOL    HW1 8993   1.620   1.308   7.926  1.0551  0.7719 -0.1168
 2998SOL    HW2 8994   1.620   1.280   7.777 -0.0559 -0.4408  0.0991
 2999SOL     OW 8995   1.056   0.422   6.365  0.0687  0.2741 -0.9348
 2999SOL    HW1 8996   1.077   0.513   6.388  0.4684 -0.1413  0.4788
 2999SOL    HW2 8997   0.968   0.426   6.328 -1.3076  0.9175  2.0849
 3000SOL     OW 8998   1.812   3.126   8.751  0.4171 -0.5971 -0.6331
 3000SOL    HW1 8999   1.803   3.037   8.716  3.8657 -1.7469  1.0029
 3000SOL    HW2 9000   1.860   3.173   8.683  0.6230 -0.6690 -0.5375
 3001SOL     OW 9001   1.538   4.245   9.251 -0.2678  0.4620  0.4372
 3001SOL    HW1 9002   1.513   4.161   9.213 -0.7695  0.5889  0.4787
 3001SOL    HW2 9003   1.576   4.295   9.178 -0.6289  0.4648  0.2521
 3002SOL     OW 9004   4.452   0.997   7.429 -0.3335  1.2735 -0.2655
 3002SOL    HW1 9005   4.527   0.992   7.370 -0.5288  0.6482 -0.4631
 3002SOL    HW2 9006   4.490   0.994   7.517 -0.2354 -1.9591 -0.2978
 3003SOL     OW 9007   3.120   0.459  10.238 -0.0841 -0.2809  0.1112
 3003SOL    HW1 9008   3.093   0.404  10.312 -1.2159 -1.3830 -1.0647
 3003SOL    HW2 9009   3.193   0.510  10.272 -1.2690  0.0804  2.3319
 3004SOL     OW 9010   4.104   4.734   9.958  0.0218 -0.1298  0.1316
 3004SOL    HW1 9011   4.172   4.778   9.907 -2.0825 -0.0381 -2.8108
 3004SOL    HW2 9012   4.103   4.645   9.925 -1.2320 -0.1527  0.1999
 3005SOL     OW 9013   1.934   0.781   9.646  0.1426 -0.2965 -0.1487
 3005SOL    HW1 9014   1.944   0.689   9.623  0.3886  0.0736 -1.6639
 3005SOL    HW2 9015   1.995   0.827   9.587  0.1163  0.8254  0.6630
 3006SOL     OW 9016   1.209   1.263   8.193 -0.1941 -0.2514  0.2293
 3006SOL    HW1 9017   1.278   1.231   8.251 -0.2325  0.2899  0.5807
 3006SOL    HW2 9018   1.136   1.202   8.207 -0.6189  0.5427  1.6305
 3007SOL     OW 9019   2.968   2.788   7.623  0.4875  0.2911  0.5804
 3007SOL    HW1 9020   2.939   2.787   7.714  0.6859 -3.5802  0.7519
 3007SOL    HW2 9021   3.007   2.702   7.609  1.8559  1.2804 -2.7855
 3008SOL     OW 9022   0.064   0.209   8.702  1.1102 -0.0165  0.2643
 3008SOL    HW1 9023   0.079   0.120   8.733 -0.0358 -0.5042 -0.4786
 3008SOL    HW2 9024   0.132   0.224   8.637  2.4758  0.3827  1.7449
 3009SOL     OW 9025   2.452   0.560   9.081  0.2019 -0.5040 -0.1316
 3009SOL    HW1 9026   2.499   0.599   9.007  1.5828 -1.2724  0.3024
 3009SOL    HW2 9027   2.449   0.466   9.062  1.7623 -0.9062  1.3652
 3010SOL     OW 9028   1.013   4.673   9.382  0.0848 -0.0391  0.2289
 3010SOL    HW1 9029   1.071   4.685   9.306 -0.1170  1.3627  0.2631
 3010SOL    HW2 9030   0.926   4.663   9.344  0.2109 -1.2394  0.2162
 3011SOL     OW 9031   4.539   2.143   9.385 -0.3677  0.4516  0.5266
 3011SOL    HW1 9032   4.626   2.167   9.419  1.4737 -3.8835 -0.4750
 3011SOL    HW2 9033   4.522   2.207   9.316  1.6171  1.8955  1.2781
 3012SOL     OW 9034   2.115   2.155   8.511 -0.1695 -0.9745 -0.0035
 3012SOL    HW1 9035   2.197   2.156   8.462  0.9138  1.9026  1.6073
 3012SOL    HW2 9036   2.139   2.127   8.599 -1.3679 -2.3134 -0.0673
 3013SOL     OW 9037   3.069   3.153   5.438 -0.5249 -0.2997  0.4069
 3013SOL    HW1 9038   3.051   3.109   5.521 -1.0428 -1.1137 -0.1313
 3013SOL    HW2 9039   3.025   3.238   5.445  1.1901  0.5523  1.7959
 3014SOL     OW 9040   2.095   0.550   9.536  0.2678 -0.3618 -0.0005
 3014SOL    HW1 9041   2.182   0.534   9.573 -0.9574 -2.7691  2.2164
 3014SOL    HW2 9042   2.100   0.515   9.447  3.0599  4.7897 -2.2891
 3015SOL     OW 9043   0.529   4.817   9.784  0.1345 -0.1088  0.2414
 3015SOL    HW1 9044   0.542   4.803   9.878 -1.0251 -0.6451  0.3309
 3015SOL    HW2 9045   0.466   4.750   9.758 -0.6474  0.9475 -0.6344
 3016SOL     OW 9046   1.536   0.275   9.149 -0.0471 -0.0059  0.4874
 3016SOL    HW1 9047   1.615   0.298   9.197  0.4867  2.0220 -1.2131
 3016SOL    HW2 9048   1.490   0.359   9.138 -0.3819 -0.4615 -2.0277
 3017SOL     OW 9049   1.015   0.607   9.772  0.0694 -0.0204  0.0855
 3017SOL    HW1 9050   1.031   0.612   9.678  0.5349 -0.1671  0.1527
 3017SOL    HW2 9051   1.087   0.656   9.812 -0.2296  0.2041  0.3581
 3018SOL     OW 9052   1.381   4.934   8.708 -0.6371  0.5407  0.1802
 3018SOL    HW1 9053   1.466   4.901   8.736  0.2002  1.8888 -0.6601
 3018SOL    HW2 9054   1.397   4.973   8.622 -2.5613 -1.0777 -1.0110
 3019SOL     OW 9055   3.312   2.964   9.196  0.1916  0.1911 -0.1271
 3019SOL    HW1 9056   3.246   2.915   9.244 -0.4893 -1.0380 -2.2066
 3019SOL    HW2 9057   3.294   3.056   9.218 -2.6398 -0.0532 -1.0635
 3020SOL     OW 9058   1.920   1.147   7.832  0.1874 -0.4780 -0.1728
 3020SOL    HW1 9059   1.999   1.200   7.839 -0.5040  0.8186 -1.7027
 3020SOL    HW2 9060   1.848   1.210   7.839 -0.8225 -1.7934  2.7786
 3021SOL     OW 9061   2.122   1.886   9.309 -0.2544 -0.3693  0.3736
 3021SOL    HW1 9062   2.189   1.945   9.344 -0.6926  0.2019  0.2576
 3021SOL    HW2 9063   2.171   1.813   9.271  0.3173  0.2223 -0.0356
 3022SOL     OW 9064   2.725   3.091   8.445  0.4935  0.3507  1.2117
 3022SOL    HW1 9065   2.716   3.165   8.505  2.6471  2.7506 -1.1338
 3022SOL    HW2 9066   2.820   3.082   8.431  0.1489  0.9862 -2.8500
 3023SOL     OW 9067   1.404   3.379   8.937 -0.3206  0.1198 -0.0733
 3023SOL    HW1 9068   1.346   3.327   8.992 -1.6076  0.0083 -1.4671
 3023SOL    HW2 9069   1.348   3.445   8.897  0.6283  0.4333 -0.9536
 3024SOL     OW 9070   0.776   3.534   9.817  0.1756 -0.4297 -0.4160
 3024SOL    HW1 9071   0.787   3.625   9.843 -0.2068 -0.1271 -1.2719
 3024SOL    HW2 9072   0.739   3.491   9.894  1.5856 -0.1719  0.4541
 3025SOL     OW 9073   1.492   0.666   9.425 -0.0744 -0.0911  0.1663
 3025SOL    HW1 9074   1.437   0.667   9.347  0.8111  0.9625 -0.4658
 3025SOL    HW2 9075   1.433   0.640   9.496 -1.8425  2.6708 -0.1693
 3026SOL     OW 9076   2.208   4.460   7.097 -0.8532  0.2917 -0.5145
 3026SOL    HW1 9077   2.166   4.529   7.046 -0.9042  1.0566  0.5288
 3026SOL    HW2 9078   2.186   4.481   7.188 -1.3294 -1.4221 -0.2150
 3027SOL     OW 9079   0.163   2.473  10.158  0.2382  0.8710 -0.4467
 3027SOL    HW1 9080   0.182   2.530  10.233  1.2718  0.9242 -0.7336
 3027SOL    HW2 9081   0.249   2.449  10.124 -0.2219  0.8114 -1.5963
 3028SOL     OW 9082   0.104   2.948   8.193 -0.0063 -0.2434 -0.1393
 3028SOL    HW1 9083   0.140   3.027   8.233  0.1152 -1.0374  1.3709
 3028SOL    HW2 9084   0.045   2.981   8.125  0.9921  1.1123 -0.3963
 3029SOL     OW 9085   1.365   3.629   7.830  0.3894 -0.7555  0.6111
 3029SOL    HW1 9086   1.415   3.550   7.852 -1.3690 -1.9953  0.4287
 3029SOL    HW2 9087   1.346   3.620   7.737  1.4496  0.6915  0.2252
 3030SOL     OW 9088   1.402   3.373   7.408 -0.0406 -0.3916 -0.4029
 3030SOL    HW1 9089   1.455   3.336   7.337  1.3606  2.2953 -0.9208
 3030SOL    HW2 9090   1.360   3.449   7.369 -0.3299  0.3624  1.2854
 3031SOL     OW 9091   2.200   3.293   9.203 -0.2165  0.0073  0.3082
 3031SOL    HW1 9092   2.172   3.205   9.226 -1.4726  0.5151  0.7966
 3031SOL    HW2 9093   2.261   3.281   9.130 -1.6487 -1.1534 -0.7539
 3032SOL     OW 9094   4.082   2.444   9.308 -0.5232  0.9198 -1.0438
 3032SOL    HW1 9095   4.152   2.382   9.329 -0.9471  1.0519  0.9338
 3032SOL    HW2 9096   4.128   2.527   9.291 -0.1449  0.9059 -0.1751
 3033SOL     OW 9097   2.883   2.404   8.852 -0.4650  0.1572 -0.1771
 3033SOL    HW1 9098   2.896   2.442   8.765  1.9454  3.7051  1.4582
 3033SOL    HW2 9099   2.957   2.437   8.904 -1.8956 -1.5478  3.3102
 3034SOL     OW 9100   2.222   3.691   9.399  0.4035  0.3297  0.4505
 3034SOL    HW1 9101   2.248   3.776   9.436 -0.7494  0.5395  0.8048
 3034SOL    HW2 9102   2.256   3.693   9.310  2.6601  0.0809  1.2193
 3035SOL     OW 9103   0.537   1.244   9.670  0.3146 -0.0847 -0.2873
 3035SOL    HW1 9104   0.442   1.249   9.675  0.3908  1.6205  4.0784
 3035SOL    HW2 9105   0.561   1.298   9.595 -2.1208  0.6599 -0.6008
 3036SOL     OW 9106   3.466   0.250   9.471 -0.0595 -0.3227 -0.4433
 3036SOL    HW1 9107   3.439   0.332   9.511 -0.2519 -0.1697 -0.8822
 3036SOL    HW2 9108   3.473   0.270   9.377  2.3410 -0.1301 -0.2924
 3037SOL     OW 9109   0.922   3.808   8.493 -0.5960  0.7581 -0.6810
 3037SOL    HW1 9110   0.940   3.895   8.528 -0.4984  0.6260 -0.3972
 3037SOL    HW2 9111   0.838   3.816   8.449  0.6726  1.7242 -3.1356
 3038SOL     OW 9112   3.918   1.558  10.031 -0.1561  0.0840  0.3212
 3038SOL    HW1 9113   3.913   1.475  10.079 -0.4330  0.9592  1.9000
 3038SOL    HW2 9114   4.010   1.564  10.005  0.6658  0.7214  3.0302
 3039SOL     OW 9115   1.969   2.925   7.914 -0.2695 -0.2933 -0.6090
 3039SOL    HW1 9116   2.035   2.933   7.845  1.0769  1.5623  0.8012
 3039SOL    HW2 9117   1.920   2.846   7.891 -0.3112  0.5557 -4.0053
 3040SOL     OW 9118   3.806   3.333   9.365  0.4661 -0.4316  0.3152
 3040SOL    HW1 9119   3.769   3.414   9.399 -0.7990 -1.3751  1.2664
 3040SOL    HW2 9120   3.895   3.330   9.402  0.2343  0.1139  0.9397
 3041SOL     OW 9121   3.231   0.506   9.868 -0.8140 -1.3132  0.1420
 3041SOL    HW1 9122   3.205   0.414   9.863  0.9290 -2.0826  2.9530
 3041SOL    HW2 9123   3.324   0.506   9.845 -1.2517  0.1227 -1.8393
 3042SOL     OW 9124   2.553   0.032   7.579  0.7863  0.2412  0.2731
 3042SOL    HW1 9125   2.606   0.096   7.626  0.9052  0.3380  0.0074
 3042SOL    HW2 9126   2.613  -0.006   7.515  1.0050 -0.8557  1.0817
 3043SOL     OW 9127   3.325   0.629  10.300 -0.3270  0.2442  0.0927
 3043SOL    HW1 9128   3.401   0.641  10.242 -0.3057  2.1259  0.4536
 3043SOL    HW2 9129   3.318   0.711  10.348 -1.9946 -0.2781  0.8163
 3044SOL     OW 9130   1.887   3.753   9.906 -0.1648 -0.2195 -0.8039
 3044SOL    HW1 9131   1.973   3.715   9.924  0.2600  0.1245 -2.0453
 3044SOL    HW2 9132   1.886   3.767   9.812 -0.8392  1.5615 -0.5820
 3045SOL     OW 9133   2.258   1.188   9.177  0.4851 -0.3348  0.2925
 3045SOL    HW1 9134   2.299   1.156   9.257  1.3462 -0.7090 -0.2863
 3045SOL    HW2 9135   2.184   1.129   9.162  1.4107 -1.4206 -0.1695
 3046SOL     OW 9136   4.542   0.054   7.728  0.1765  0.1665 -0.6700
 3046SOL    HW1 9137   4.542  -0.026   7.781  1.6297 -0.0001 -0.8933
 3046SOL    HW2 9138   4.514   0.123   7.789  0.0504 -0.3206 -0.1689
 3047SOL     OW 9139   0.956   4.607   6.503  0.1291 -0.4427  0.5708
 3047SOL    HW1 9140   0.927   4.527   6.545 -1.2376 -1.0090 -1.2893
 3047SOL    HW2 9141   1.049   4.593   6.485  0.1477 -1.1680  1.1870
 3048SOL     OW 9142   2.866   3.785   5.460 -0.8925  0.4597  0.2394
 3048SOL    HW1 9143   2.868   3.795   5.365  0.8771  1.0546  0.2944
 3048SOL    HW2 9144   2.774   3.795   5.484 -1.3489  0.3877 -1.3903
 3049SOL     OW 9145   1.674   0.238   5.156 -0.1475  0.4461 -0.2411
 3049SOL    HW1 9146   1.738   0.309   5.161 -0.6697  0.8704  1.4165
 3049SOL    HW2 9147   1.600   0.270   5.208 -0.6580 -1.0543  0.0012
 3050SOL     OW 9148   4.525   4.507   6.908  0.4479  0.1791  0.2289
 3050SOL    HW1 9149   4.524   4.601   6.889  0.1423 -0.1598 -1.7018
 3050SOL    HW2 9150   4.466   4.469   6.842 -1.3933 -1.1411  2.5034
 3051SOL     OW 9151   4.470   3.423   8.028 -0.3527  0.7489 -0.9711
 3051SOL    HW1 9152   4.402   3.473   8.074  0.6935  0.4767  0.9720
 3051SOL    HW2 9153   4.532   3.489   7.999  0.7132  0.7117  1.0574
 3052SOL     OW 9154   3.604   3.641   6.170  0.5797  0.1869 -0.2872
 3052SOL    HW1 9155   3.644   3.726   6.185  1.5012 -0.5009  1.4584
 3052SOL    HW2 9156   3.513   3.652   6.199  0.9140  0.3661  0.7127
 3053SOL     OW 9157   3.852   0.665   8.078 -0.3915 -0.0973 -0.1026
 3053SOL    HW1 9158   3.914   0.609   8.125 -0.6908 -1.2301 -1.0098
 3053SOL    HW2 9159   3.769   0.651   8.122 -0.0504  1.5061  1.1844
 3054SOL     OW 9160   1.384   0.586   5.802  0.0800  0.1891 -0.0979
 3054SOL    HW1 9161   1.328   0.518   5.766 -1.3452  0.0381  2.2417
 3054SOL    HW2 9162   1.329   0.663   5.807  2.0880  2.2491 -4.2401
 3055SOL     OW 9163   3.309   4.134   8.025 -0.3325 -0.1261 -0.1246
 3055SOL    HW1 9164   3.302   4.186   8.106 -1.3208 -0.1163 -0.2062
 3055SOL    HW2 9165   3.346   4.051   8.053  0.2861  0.2409  0.1731
 3056SOL     OW 9166   0.950   2.156   6.935 -0.4220 -0.0851 -0.5214
 3056SOL    HW1 9167   0.921   2.232   6.884  1.2787  2.3353  1.8475
 3056SOL    HW2 9168   0.869   2.118   6.968 -1.2837  1.6792 -0.4721
 3057SOL     OW 9169   0.095   2.065   5.617 -0.3041  0.1019  0.5196
 3057SOL    HW1 9170   0.125   2.040   5.704 -1.9789 -3.6449  0.1875
 3057SOL    HW2 9171   0.176   2.087   5.570  1.2426 -2.5879  1.6808
 3058SOL     OW 9172   3.042   4.927   6.088 -0.8177 -0.6087  0.1588
 3058SOL    HW1 9173   2.968   4.967   6.135 -0.2845  0.2188  0.3293
 3058SOL    HW2 9174   3.093   4.885   6.157 -0.9371 -0.8615  0.0917
 3059SOL     OW 9175   3.176   1.729   6.903  0.6071 -0.5331 -0.1245
 3059SOL    HW1 9176   3.270   1.743   6.895  0.4058  1.8875  0.9529
 3059SOL    HW2 9177   3.164   1.635   6.890  3.1912 -0.9194 -0.0695
 3060SOL     OW 9178   2.455   4.352   6.574  0.3248 -0.2853  0.5218
 3060SOL    HW1 9179   2.509   4.356   6.496 -0.2853  0.9976  0.1410
 3060SOL    HW2 9180   2.371   4.316   6.544  0.2923 -0.3671  0.7049
 3061SOL     OW 9181   4.648   3.256   6.707  0.0063  0.2530 -0.3823
 3061SOL    HW1 9182   4.572   3.244   6.650 -0.9966  1.6099  0.6041
 3061SOL    HW2 9183   4.610   3.269   6.794  1.4896 -1.9282  0.6680
 3062SOL     OW 9184   1.737   4.610   5.417  0.1256  0.0250 -0.0672
 3062SOL    HW1 9185   1.781   4.558   5.350 -0.3638 -1.2098  0.5509
 3062SOL    HW2 9186   1.658   4.643   5.375  0.5722  0.5216 -0.5409
 3063SOL     OW 9187   1.368   4.501   4.894 -0.3326  0.3876  0.0755
 3063SOL    HW1 9188   1.411   4.554   4.960 -0.5510 -0.9641  1.3434
 3063SOL    HW2 9189   1.277   4.529   4.896 -0.0491  1.4202 -0.7651
 3064SOL     OW 9190   1.745   1.275   6.605  0.5140 -0.3102 -0.0101
 3064SOL    HW1 9191   1.700   1.250   6.524 -0.5681  0.4806  0.3217
 3064SOL    HW2 9192   1.694   1.234   6.675  0.9118 -0.2521  0.3174
 3065SOL     OW 9193   4.621   0.863   4.900  0.4108  1.0150  0.6941
 3065SOL    HW1 9194   4.663   0.799   4.958  0.5072 -1.5742 -1.9662
 3065SOL    HW2 9195   4.529   0.836   4.898  0.3228  1.3447  0.0303
 3066SOL     OW 9196   3.167   3.859   4.744 -0.2234 -0.6005  0.0787
 3066SOL    HW1 9197   3.228   3.808   4.690 -0.4266 -0.3308 -0.4116
 3066SOL    HW2 9198   3.125   3.795   4.801  0.0602 -0.8766 -0.0230
 3067SOL     OW 9199   1.409   4.026   5.670  0.5781  0.2135  0.4963
 3067SOL    HW1 9200   1.336   4.055   5.725  1.5583  0.6401  1.6061
 3067SOL    HW2 9201   1.478   4.090   5.686  1.7206 -0.9984  0.6309
 3068SOL     OW 9202   4.175   4.642   5.041 -0.1806 -0.1945 -0.5146
 3068SOL    HW1 9203   4.265   4.673   5.057 -0.4099  0.3014 -0.1654
 3068SOL    HW2 9204   4.185   4.550   5.018  0.3362 -0.4073  0.5063
 3069SOL     OW 9205   2.462   3.755   5.780  0.7636  0.7927 -0.4300
 3069SOL    HW1 9206   2.436   3.686   5.841  2.1617 -0.9701 -1.7105
 3069SOL    HW2 9207   2.459   3.835   5.832  0.3931 -0.3985  1.4958
 3070SOL     OW 9208   4.495   3.618   4.846 -0.1427 -0.4392 -0.6510
 3070SOL    HW1 9209   4.409   3.582   4.867 -1.0840  0.1237 -3.1875
 3070SOL    HW2 9210   4.477   3.695   4.792  1.9532  0.0114 -0.8284
 3071SOL     OW 9211   2.835   4.101   7.186  0.5453  0.0733 -0.1384
 3071SOL    HW1 9212   2.774   4.165   7.221  0.0984 -1.0374  1.1752
 3071SOL    HW2 9213   2.909   4.154   7.153  0.6284  1.2165  1.7593
 3072SOL     OW 9214   3.701   1.182   4.669 -1.0207  0.1857  0.6440
 3072SOL    HW1 9215   3.788   1.217   4.686  0.2480 -2.2899 -0.3062
 3072SOL    HW2 9216   3.659   1.248   4.613  0.5709  1.0207  0.3983
 3073SOL     OW 9217   0.277   1.690   6.914 -0.3753  0.2441 -0.2154
 3073SOL    HW1 9218   0.371   1.709   6.923 -0.1979  0.3171 -1.9329
 3073SOL    HW2 9219   0.255   1.643   6.995  1.4886 -1.1508 -0.4430
 3074SOL     OW 9220   4.054   1.492   4.960 -0.0487 -0.4684  0.3746
 3074SOL    HW1 9221   4.117   1.560   4.983 -0.0418 -0.0766 -0.7232
 3074SOL    HW2 9222   3.989   1.494   5.030 -1.2319  2.1755 -0.6804
 3075SOL     OW 9223   2.009   0.154   4.976  0.3494  0.3032 -0.4357
 3075SOL    HW1 9224   2.088   0.140   4.923  0.8213 -1.5189  0.6735
 3075SOL    HW2 9225   1.957   0.215   4.925  0.9981 -0.9811 -2.7821
 3076SOL     OW 9226   4.129   1.553   5.632 -0.2801 -0.0246  0.2825
 3076SOL    HW1 9227   4.216   1.532   5.667  0.5236  0.8144 -1.1199
 3076SOL    HW2 9228   4.078   1.577   5.709  1.4249  1.7590  0.9529
 3077SOL     OW 9229   4.507   1.478   6.966  0.3894  0.6413 -0.0369
 3077SOL    HW1 9230   4.455   1.400   6.986 -0.9509  1.5762  0.3239
 3077SOL    HW2 9231   4.485   1.498   6.874  1.8885 -0.2244 -0.6197
 3078SOL     OW 9232   1.400   2.651   6.072 -0.4080 -0.4841  0.3229
 3078SOL    HW1 9233   1.373   2.639   6.163  1.1662 -0.2801  0.8428
 3078SOL    HW2 9234   1.488   2.614   6.067  0.0493  0.6405 -0.7937
 3079SOL     OW 9235   4.715   0.344   4.859  0.3532 -0.6506  0.2799
 3079SOL    HW1 9236   4.733   0.250   4.855  0.4818 -0.5882 -2.4115
 3079SOL    HW2 9237   4.802   0.384   4.857  0.2605 -0.4787 -0.9372
 3080SOL     OW 9238   2.227   0.880   5.402  0.1966  0.5655 -0.9223
 3080SOL    HW1 9239   2.295   0.822   5.368  0.9081  0.5882  0.3924
 3080SOL    HW2 9240   2.226   0.955   5.343  1.7202  0.8247 -0.6437
 3081SOL     OW 9241   3.793   3.835   5.258 -0.5324  0.3189 -0.2310
 3081SOL    HW1 9242   3.771   3.827   5.165 -0.2426  1.6531 -0.4375
 3081SOL    HW2 9243   3.770   3.925   5.280  0.7970  0.4778  0.6045
 3082SOL     OW 9244   1.605   2.360   8.961  0.0372  1.0846  0.1938
 3082SOL    HW1 9245   1.659   2.426   9.005  2.0907  0.1096 -0.7014
 3082SOL    HW2 9246   1.623   2.279   9.009 -2.9237  1.1799  1.6721
 3083SOL     OW 9247   2.150   0.629   6.324  0.2570 -0.0018 -0.2169
 3083SOL    HW1 9248   2.139   0.535   6.308  3.9728 -0.4403 -1.0786
 3083SOL    HW2 9249   2.241   0.638   6.353  0.1889  3.4052 -0.6485
 3084SOL     OW 9250   4.328   2.687   5.988  0.3876 -0.1414  0.3683
 3084SOL    HW1 9251   4.234   2.697   6.002  0.5483 -0.1733  1.6759
 3084SOL    HW2 9252   4.341   2.706   5.896 -0.9689 -0.6508  0.0427
 3085SOL     OW 9253   0.163   3.224   5.149 -0.0816  0.0124 -0.2124
 3085SOL    HW1 9254   0.184   3.303   5.199  1.6050  0.4188 -1.4790
 3085SOL    HW2 9255   0.213   3.155   5.193  1.3862  0.3660 -1.2664
 3086SOL     OW 9256   0.478   3.495   4.938  1.1241 -0.2258 -0.1639
 3086SOL    HW1 9257   0.487   3.494   4.842  2.0605 -1.6192 -0.0928
 3086SOL    HW2 9258   0.392   3.455   4.954  0.7477  0.4607 -0.4274
 3087SOL     OW 9259   3.662   3.498   5.819 -0.2217  0.1390  0.6443
 3087SOL    HW1 9260   3.726   3.428   5.805 -0.0858  0.5516 -0.9478
 3087SOL    HW2 9261   3.599   3.460   5.881  1.0418 -0.5924  1.5279
 3088SOL     OW 9262   0.997   0.357   5.308 -0.4930  0.0669  0.0275
 3088SOL    HW1 9263   1.073   0.319   5.264 -1.0269 -0.5525 -0.3691
 3088SOL    HW2 9264   0.949   0.282   5.342 -0.8278  0.4684  0.4527
 3089SOL     OW 9265   4.927   2.266   5.364  0.5262 -0.9835 -0.0517
 3089SOL    HW1 9266   4.878   2.326   5.422  1.2224  0.3291 -0.7880
 3089SOL    HW2 9267   4.980   2.324   5.310 -0.8524 -2.0808 -2.7520
 3090SOL     OW 9268   1.348   2.109   6.320 -0.4801 -0.7041 -0.1187
 3090SOL    HW1 9269   1.319   2.017   6.319 -0.2384 -0.8493 -3.0177
 3090SOL    HW2 9270   1.271   2.158   6.349 -0.8712 -1.7471  0.6795
 3091SOL     OW 9271   2.903   0.787   6.797  0.6283 -0.1062 -1.4425
 3091SOL    HW1 9272   2.808   0.780   6.785  0.6255  0.3126 -1.6857
 3091SOL    HW2 9273   2.939   0.764   6.712  0.7035  0.6392 -1.6210
 3092SOL     OW 9274   3.253   1.453   7.145 -0.6015 -0.6915 -0.0371
 3092SOL    HW1 9275   3.277   1.362   7.158 -1.5492 -1.1001 -1.0765
 3092SOL    HW2 9276   3.228   1.459   7.053  0.3380  0.8281 -0.2372
 3093SOL     OW 9277   4.679   2.274   5.193 -0.3150 -0.1734  0.7888
 3093SOL    HW1 9278   4.766   2.245   5.220 -1.0007 -0.8975  2.3139
 3093SOL    HW2 9279   4.660   2.349   5.250 -0.7001 -0.0236  0.4699
 3094SOL     OW 9280   1.106   2.859   5.093 -0.3213  0.0912  0.2455
 3094SOL    HW1 9281   1.158   2.794   5.141 -1.2648  0.0620  1.2760
 3094SOL    HW2 9282   1.023   2.814   5.077 -0.6184  0.6951  0.0817
 3095SOL     OW 9283   1.322   0.360   6.247  0.1137 -0.4700 -0.0178
 3095SOL    HW1 9284   1.339   0.268   6.224 -0.7562 -0.7960  0.5832
 3095SOL    HW2 9285   1.238   0.358   6.293 -0.2273  0.7127 -0.5452
 3096SOL     OW 9286   0.526   4.371   5.488  0.0000  0.1042  0.3310
 3096SOL    HW1 9287   0.547   4.319   5.566 -0.0511 -1.1351 -0.4478
 3096SOL    HW2 9288   0.536   4.309   5.415 -1.7587  0.7398 -0.4894
 3097SOL     OW 9289   0.428   3.814   6.049  0.1250 -0.1683  0.2684
 3097SOL    HW1 9290   0.503   3.837   5.995  0.1985 -3.3503 -1.1711
 3097SOL    HW2 9291   0.352   3.837   5.995  0.1268 -0.2081  0.2492
 3098SOL     OW 9292   2.063   0.113   5.252 -0.3005 -0.1559  0.2409
 3098SOL    HW1 9293   2.112   0.031   5.244 -3.1834 -1.9554 -0.7798
 3098SOL    HW2 9294   2.043   0.138   5.162  0.0261  1.3640  0.5728
 3099SOL     OW 9295   0.094   1.940   7.400 -0.2698 -0.2469  0.2421
 3099SOL    HW1 9296   0.049   1.902   7.324  0.5578 -1.1061  0.1606
 3099SOL    HW2 9297   0.059   1.892   7.475  1.5554 -2.0140  0.0439
 3100SOL     OW 9298   0.339   1.275   6.274 -0.0723 -0.4117  0.5139
 3100SOL    HW1 9299   0.432   1.261   6.255 -0.1119  0.5512 -0.5063
 3100SOL    HW2 9300   0.338   1.308   6.364  0.6589  0.3701  0.2516
 3101SOL     OW 9301   0.776   0.438   6.308  0.0578 -0.0932 -0.4335
 3101SOL    HW1 9302   0.707   0.504   6.304  0.7835  0.8154  0.8448
 3101SOL    HW2 9303   0.801   0.423   6.217 -0.3734  1.1377 -0.7740
 3102SOL     OW 9304   2.788   4.845   6.739  0.7408  0.0804  0.4810
 3102SOL    HW1 9305   2.771   4.758   6.777 -0.1652 -0.6322 -1.4607
 3102SOL    HW2 9306   2.701   4.883   6.725  1.1279  1.5133  1.6479
 3103SOL     OW 9307   1.646   4.773   6.329  0.2522  0.1249  0.4885
 3103SOL    HW1 9308   1.612   4.861   6.311  0.7757  0.5250  1.4023
 3103SOL    HW2 9309   1.574   4.714   6.306 -0.2718  0.8250  0.3213
 3104SOL     OW 9310   3.114   1.274   9.172  0.4007 -0.0415  0.8680
 3104SOL    HW1 9311   3.021   1.285   9.150  0.3309  0.3564  1.3354
 3104SOL    HW2 9312   3.153   1.359   9.153  0.5559 -0.0349  1.2096
 3105SOL     OW 9313   1.081   3.383   5.475 -0.8714 -0.5304 -0.5042
 3105SOL    HW1 9314   1.086   3.303   5.527  2.3916  0.2781  0.6948
 3105SOL    HW2 9315   1.012   3.434   5.516  0.2109 -0.8085  1.7968
 3106SOL     OW 9316   1.035   1.386   5.238  0.3411 -0.3344 -0.2638
 3106SOL    HW1 9317   0.988   1.466   5.214  0.4988 -0.2666 -0.3467
 3106SOL    HW2 9318   1.063   1.348   5.155 -0.3592 -0.8589 -0.2690
 3107SOL     OW 9319   3.340   4.650   6.483  0.0121 -0.3215 -0.3682
 3107SOL    HW1 9320   3.281   4.580   6.454  1.1004 -1.9739  1.1859
 3107SOL    HW2 9321   3.413   4.604   6.524  0.5442  1.7556  1.1664
 3108SOL     OW 9322   3.746   1.303   5.901  0.1071 -0.1509  0.0551
 3108SOL    HW1 9323   3.711   1.295   5.813 -1.7672 -0.9811  0.8146
 3108SOL    HW2 9324   3.716   1.388   5.932 -3.3339 -1.6964  1.4604
 3109SOL     OW 9325   0.682   0.289   5.200  0.1696 -0.2036  0.0421
 3109SOL    HW1 9326   0.651   0.228   5.133 -1.1673  1.1619 -0.6403
 3109SOL    HW2 9327   0.771   0.312   5.171  1.3677 -2.9255  1.1639
 3110SOL     OW 9328   0.424   0.383   5.307  0.6916  0.2161  0.3581
 3110SOL    HW1 9329   0.485   0.386   5.233 -1.3164  0.9906 -1.3893
 3110SOL    HW2 9330   0.442   0.464   5.355  1.0125  0.4614 -0.1593
 3111SOL     OW 9331   1.694   0.298   6.033  0.1588 -0.5560 -0.1996
 3111SOL    HW1 9332   1.620   0.279   6.091 -1.4892 -1.9011 -2.5973
 3111SOL    HW2 9333   1.666   0.374   5.982  0.8222 -0.5185 -0.5193
 3112SOL     OW 9334   0.258   3.653   6.674 -0.1017 -0.0046 -0.1607
 3112SOL    HW1 9335   0.228   3.661   6.765  0.7805 -2.3311  0.3999
 3112SOL    HW2 9336   0.250   3.560   6.654  1.3328  0.1881 -1.8884
 3113SOL     OW 9337   0.843   2.072   6.473  0.3662  0.0700 -0.0095
 3113SOL    HW1 9338   0.771   2.129   6.501  1.0880  1.8403 -1.5075
 3113SOL    HW2 9339   0.811   1.983   6.489 -1.1629  0.8443  1.6305
 3114SOL     OW 9340   1.208   0.034   8.333  0.5490  0.7777  0.2346
 3114SOL    HW1 9341   1.303   0.039   8.350  0.6060  0.7539 -0.0841
 3114SOL    HW2 9342   1.193   0.098   8.264  0.3312  0.7800  0.2842
 3115SOL     OW 9343   4.646   2.838   5.144  0.4083 -0.1264 -0.0698
 3115SOL    HW1 9344   4.671   2.925   5.176  0.0453  0.0282 -0.2006
 3115SOL    HW2 9345   4.728   2.789   5.142  0.1673 -0.9492  3.4686
 3116SOL     OW 9346   3.043   1.459   7.395  0.2503 -0.1748 -0.5711
 3116SOL    HW1 9347   3.048   1.541   7.444 -0.2536 -0.2181 -0.4372
 3116SOL    HW2 9348   3.074   1.481   7.308 -1.2975  0.5276 -0.9832
 3117SOL     OW 9349   2.242   1.232   6.785  0.0281  0.8452 -0.1754
 3117SOL    HW1 9350   2.306   1.212   6.853 -1.3456 -0.3168  0.8111
 3117SOL    HW2 9351   2.233   1.328   6.788 -1.3099  0.7102  2.5470
 3118SOL     OW 9352   4.984   0.923   5.382 -0.5296 -0.2909  0.3698
 3118SOL    HW1 9353   4.971   0.938   5.289  0.5692 -2.8382 -0.2957
 3118SOL    HW2 9354   4.902   0.884   5.412 -0.4184 -0.7303  0.1193
 3119SOL     OW 9355   2.238   2.273   6.293  0.0544 -0.1600  0.0463
 3119SOL    HW1 9356   2.236   2.199   6.353 -0.1492 -0.4677 -0.3302
 3119SOL    HW2 9357   2.226   2.233   6.206  2.7229 -0.0240 -0.4721
 3120SOL     OW 9358   4.042   2.766   6.547 -0.0575 -0.4795  0.2142
 3120SOL    HW1 9359   4.010   2.839   6.494  0.1472  2.3419  3.5721
 3120SOL    HW2 9360   3.978   2.759   6.618  1.0672 -2.1512  1.1155
 3121SOL     OW 9361   4.017   0.032   5.659  0.3033 -0.5040  0.2739
 3121SOL    HW1 9362   4.046  -0.008   5.577 -1.3679  0.6423 -0.9384
 3121SOL    HW2 9363   3.922   0.021   5.659  0.2358 -0.2817  1.9760
 3122SOL     OW 9364   4.667   0.925   6.692  0.0745 -0.0495 -0.1849
 3122SOL    HW1 9365   4.726   1.000   6.704 -0.3707  0.1153  1.1860
 3122SOL    HW2 9366   4.583   0.964   6.667 -0.1380 -0.0740  0.4604
 3123SOL     OW 9367   1.930   2.791   7.505  0.3499 -0.3582 -0.2153
 3123SOL    HW1 9368   1.849   2.828   7.539  0.2794 -0.3029 -0.4408
 3123SOL    HW2 9369   1.981   2.866   7.475  0.1716 -0.4460 -0.7494
 3124SOL     OW 9370   0.108   4.306   5.762 -0.1355 -0.2744  0.4343
 3124SOL    HW1 9371   0.084   4.375   5.700 -0.0987 -0.2594  0.4365
 3124SOL    HW2 9372   0.203   4.313   5.771  0.0245 -1.0900 -0.4691
 3125SOL     OW 9373   1.894   0.757   5.220 -0.0062 -0.1633 -0.5974
 3125SOL    HW1 9374   1.842   0.729   5.295 -1.9806 -0.6923 -2.0653
 3125SOL    HW2 9375   1.863   0.845   5.200  1.3220  0.4356 -0.1388
 3126SOL     OW 9376   0.290   4.126   5.341  0.6743  0.7859  0.2223
 3126SOL    HW1 9377   0.295   4.042   5.387  0.9090  0.8430  0.3030
 3126SOL    HW2 9378   0.198   4.136   5.319  0.2672  1.4532  2.0037
 3127SOL     OW 9379   1.970   1.553   9.254 -0.2172 -0.3312 -1.0881
 3127SOL    HW1 9380   2.022   1.634   9.251 -2.1440  0.9411 -2.3800
 3127SOL    HW2 9381   1.987   1.517   9.341 -0.6648  2.4348  0.2591
 3128SOL     OW 9382   4.287   2.021   8.103 -0.1008  0.0461  0.1470
 3128SOL    HW1 9383   4.344   1.996   8.030  1.3616  2.0410  0.5266
 3128SOL    HW2 9384   4.327   1.979   8.179  0.6436  1.0811  0.3450
 3129SOL     OW 9385   4.009   1.667   5.852  0.0636  0.0089 -0.0585
 3129SOL    HW1 9386   3.917   1.683   5.829 -0.3168 -2.1799 -0.2171
 3129SOL    HW2 9387   4.046   1.755   5.863 -1.5086  1.0102 -2.0545
 3130SOL     OW 9388   3.016   2.887   8.165  0.4235 -0.6289 -0.1777
 3130SOL    HW1 9389   2.924   2.893   8.190  0.2781  1.6046 -1.0258
 3130SOL    HW2 9390   3.054   2.824   8.226 -1.0966  0.3753  1.9305
 3131SOL     OW 9391   1.819   2.406   5.105  0.1279 -0.4536 -0.0922
 3131SOL    HW1 9392   1.829   2.313   5.123 -0.9265 -0.4350  0.7084
 3131SOL    HW2 9393   1.726   2.416   5.081 -0.3696  0.6921  2.0522
 3132SOL     OW 9394   1.184   3.527   5.745 -0.5928  0.1313  0.3178
 3132SOL    HW1 9395   1.245   3.546   5.674  0.1868  0.9161  1.1714
 3132SOL    HW2 9396   1.237   3.530   5.824 -1.4884 -0.5075  0.9634
 3133SOL     OW 9397   0.392   0.183   7.238  0.1890 -0.0434  0.4124
 3133SOL    HW1 9398   0.395   0.275   7.264 -0.6690  0.1911 -0.2932
 3133SOL    HW2 9399   0.300   0.158   7.250  0.3040 -0.6518  0.0563
 3134SOL     OW 9400   3.360   4.927   6.457  0.6375 -0.1449  0.1185
 3134SOL    HW1 9401   3.383   4.930   6.364  0.0240 -1.4223 -0.1020
 3134SOL    HW2 9402   3.337   4.835   6.473  0.1350  0.1795  1.3887
 3135SOL     OW 9403   3.437   4.827   9.543 -0.3066  0.0148 -0.4610
 3135SOL    HW1 9404   3.386   4.792   9.616 -0.9728  3.2348  0.7995
 3135SOL    HW2 9405   3.445   4.921   9.563  0.7166  0.7616 -3.8397
 3136SOL     OW 9406   4.821   1.286   6.366  0.1831 -0.0142  0.0787
 3136SOL    HW1 9407   4.828   1.210   6.308 -0.5445  0.3850 -0.5435
 3136SOL    HW2 9408   4.816   1.361   6.308 -0.6354  0.3867  0.6435
 3137SOL     OW 9409   4.714   4.718   5.998 -0.3984  0.0954 -0.1406
 3137SOL    HW1 9410   4.685   4.688   6.084 -2.2481 -1.3069 -1.1952
 3137SOL    HW2 9411   4.674   4.658   5.936 -1.0903  2.4621 -2.1718
 3138SOL     OW 9412   3.283   2.182   6.583 -0.0141  0.0162  0.5855
 3138SOL    HW1 9413   3.192   2.213   6.585 -0.2438  0.0110 -3.0558
 3138SOL    HW2 9414   3.276   2.088   6.566  0.6123  0.2198 -0.9438
 3139SOL     OW 9415   2.519   0.092   7.142  0.2641  0.1786 -0.1766
 3139SOL    HW1 9416   2.476   0.028   7.085 -0.6887  0.1474  0.5662
 3139SOL    HW2 9417   2.448   0.137   7.187  0.9973 -0.5573  1.8349
 3140SOL     OW 9418   4.155   1.309   5.348 -0.4212 -0.2826  0.6830
 3140SOL    HW1 9419   4.192   1.303   5.259  0.3199 -1.4177  1.0386
 3140SOL    HW2 9420   4.120   1.397   5.354  2.8830  1.1661  0.5490
 3141SOL     OW 9421   1.278   1.696   5.254 -0.0601  0.1316  0.2936
 3141SOL    HW1 9422   1.191   1.698   5.294 -0.2198  1.2661 -0.0974
 3141SOL    HW2 9423   1.298   1.602   5.245 -0.7582 -0.1422  1.4043
 3142SOL     OW 9424   4.865   0.005   7.145  0.2354 -0.8947  0.0045
 3142SOL    HW1 9425   4.931   0.070   7.119  1.9939 -2.9712 -1.0277
 3142SOL    HW2 9426   4.870  -0.063   7.078 -0.2652 -2.9829  1.9418
 3143SOL     OW 9427   4.764   4.943   8.152 -0.4246  0.2720 -0.4885
 3143SOL    HW1 9428   4.750   4.848   8.154  3.1898 -0.3925 -0.7807
 3143SOL    HW2 9429   4.736   4.970   8.065  0.8393 -1.0203 -1.3322
 3144SOL     OW 9430   3.556   4.027   7.618  0.1441 -0.3569 -0.7367
 3144SOL    HW1 9431   3.471   4.025   7.573 -2.1746  1.1299  3.0537
 3144SOL    HW2 9432   3.609   4.088   7.566 -2.6323  2.0038 -1.0675
 3145SOL     OW 9433   2.147   0.554   4.627  0.5052 -0.1792 -0.2672
 3145SOL    HW1 9434   2.234   0.594   4.636  0.3240  0.3740 -0.9500
 3145SOL    HW2 9435   2.165   0.461   4.616  0.9856 -0.1383  0.1143
 3146SOL     OW 9436   2.190   0.299   5.449  0.3072  0.0202 -0.4032
 3146SOL    HW1 9437   2.130   0.234   5.412 -0.7179  0.8473 -0.2217
 3146SOL    HW2 9438   2.183   0.375   5.391  0.3165  0.5347  0.2579
 3147SOL     OW 9439   4.517  -0.023   8.886 -0.2315  0.1258  0.2471
 3147SOL    HW1 9440   4.610  -0.010   8.864 -0.4128  1.3349  0.1528
 3147SOL    HW2 9441   4.500   0.038   8.957 -0.6386 -1.0611  1.2152
 3148SOL     OW 9442   0.911   2.987   7.084  0.4109  0.4309  0.3716
 3148SOL    HW1 9443   0.908   2.998   7.179  1.2525 -3.8226  1.0841
 3148SOL    HW2 9444   1.003   2.992   7.061  0.6859 -2.2777  0.5286
 3149SOL     OW 9445   1.511   2.316   6.009  0.2428 -0.6488  0.1662
 3149SOL    HW1 9446   1.503   2.221   6.018  1.1968 -0.8994 -1.2134
 3149SOL    HW2 9447   1.584   2.339   6.067  0.2613 -0.8237  0.2157
 3150SOL     OW 9448   3.645   1.088   6.747 -0.2509  0.1493  0.5447
 3150SOL    HW1 9449   3.654   1.045   6.662 -2.0688 -0.2744  0.5154
 3150SOL    HW2 9450   3.572   1.149   6.735 -0.2543  0.3927  1.6765
 3151SOL     OW 9451   3.856   2.718   5.435  0.5662 -0.5498  0.1178
 3151SOL    HW1 9452   3.787   2.678   5.383  0.5349  0.9279 -1.0517
 3151SOL    HW2 9453   3.814   2.744   5.516 -0.3852  0.7163 -0.7523
 3152SOL     OW 9454   3.279   4.881   7.726 -0.1025  0.1371  0.0465
 3152SOL    HW1 9455   3.306   4.792   7.751 -1.8654  0.1820  2.4325
 3152SOL    HW2 9456   3.184   4.875   7.714 -0.2051  1.6379 -0.1033
 3153SOL     OW 9457   4.886   1.402   7.488  0.5357  0.1422  0.5323
 3153SOL    HW1 9458   4.835   1.352   7.552  1.9908 -2.2257 -0.0375
 3153SOL    HW2 9459   4.820   1.443   7.432 -0.7351  0.3060  2.0657
 3154SOL     OW 9460   1.981   1.226   5.855 -0.0115 -0.0258 -0.9142
 3154SOL    HW1 9461   2.068   1.234   5.894 -0.9481 -0.3392  1.3919
 3154SOL    HW2 9462   1.992   1.163   5.784  1.0914 -2.4935  1.2935
 3155SOL     OW 9463  -0.004   1.606   6.873 -0.3420 -0.4258  0.6592
 3155SOL    HW1 9464   0.084   1.644   6.881  0.3109 -1.9828  1.2694
 3155SOL    HW2 9465  -0.050   1.666   6.815  1.4938 -0.1760 -0.6511
 3156SOL     OW 9466   1.596   1.968   7.102 -0.5577 -0.4773  0.7194
 3156SOL    HW1 9467   1.616   2.059   7.126  0.0630 -0.5382  0.4626
 3156SOL    HW2 9468   1.534   1.939   7.169 -0.2113 -0.0846  1.2292
 3157SOL     OW 9469   3.521   1.287   5.125 -0.2821 -0.2450 -0.4224
 3157SOL    HW1 9470   3.606   1.291   5.081 -0.0644 -0.8131 -0.0612
 3157SOL    HW2 9471   3.458   1.314   5.058  0.1727  0.1327 -0.7078
 3158SOL     OW 9472   4.216   1.427   7.799  0.4763  0.3210 -0.6539
 3158SOL    HW1 9473   4.246   1.508   7.758  0.9883  0.3605 -0.2103
 3158SOL    HW2 9474   4.295   1.389   7.838 -0.0670  0.5146  0.6897
 3159SOL     OW 9475   2.036   3.764   6.935 -0.5952  0.5351 -0.2930
 3159SOL    HW1 9476   1.976   3.705   6.890 -1.3211  1.5298 -0.6753
 3159SOL    HW2 9477   2.030   3.739   7.028 -0.6208 -0.2064 -0.4902
 3160SOL     OW 9478   3.317   3.062   6.166  0.0955  0.3121  0.4298
 3160SOL    HW1 9479   3.270   3.103   6.093 -1.5479 -0.4134  1.0332
 3160SOL    HW2 9480   3.251   3.008   6.209  1.3709 -0.3003  1.6752
 3161SOL     OW 9481   4.638   4.676   8.150 -0.5628 -0.7470  0.5202
 3161SOL    HW1 9482   4.564   4.675   8.211 -1.5226 -3.2873 -0.5685
 3161SOL    HW2 9483   4.701   4.616   8.188 -0.4331 -1.0254 -0.1311
 3162SOL     OW 9484   4.070   0.305   5.653  0.2207  0.2443  0.4903
 3162SOL    HW1 9485   4.163   0.327   5.653  0.6943 -1.2350 -2.4090
 3162SOL    HW2 9486   4.067   0.209   5.652 -1.2155  0.2371 -1.0575
 3163SOL     OW 9487   0.469   3.659   5.317  0.2035  0.3547  0.0499
 3163SOL    HW1 9488   0.516   3.686   5.238  3.5068 -1.0679  1.3400
 3163SOL    HW2 9489   0.508   3.712   5.387 -0.3176 -0.6969  1.1743
 3164SOL     OW 9490   4.817   4.093   5.397  0.8419 -0.0585 -0.4598
 3164SOL    HW1 9491   4.776   4.024   5.450  0.0218  0.7427 -0.0262
 3164SOL    HW2 9492   4.894   4.051   5.358  0.3469 -1.2245 -0.2220
 3165SOL     OW 9493   3.713   2.706   6.331  0.4814 -0.0059 -0.3137
 3165SOL    HW1 9494   3.758   2.767   6.389  0.4301 -2.1604  2.1502
 3165SOL    HW2 9495   3.630   2.750   6.311  1.0113  1.3059  0.2144
 3166SOL     OW 9496   3.243   1.256   9.707  0.0759  0.7144  0.1508
 3166SOL    HW1 9497   3.182   1.192   9.743 -0.6947  1.2640 -0.1403
 3166SOL    HW2 9498   3.303   1.275   9.779 -0.1535  0.2290  0.4736
 3167SOL     OW 9499   0.650   4.909   6.431 -1.0270  0.3039 -0.1727
 3167SOL    HW1 9500   0.673   5.002   6.430 -0.7015  0.2342  0.2364
 3167SOL    HW2 9501   0.711   4.871   6.494 -1.6327 -0.0584  0.2067
 3168SOL     OW 9502   4.403   4.350   5.971  0.4325 -0.0304 -0.2069
 3168SOL    HW1 9503   4.488   4.315   5.947  0.5653 -0.9005  1.4097
 3168SOL    HW2 9504   4.362   4.374   5.888  1.3012 -1.7941 -1.1901
 3169SOL     OW 9505   4.994   1.024   6.192 -0.2828 -0.1090  0.5273
 3169SOL    HW1 9506   4.986   1.098   6.130  0.7192  0.8816  1.5295
 3169SOL    HW2 9507   4.906   1.013   6.227 -0.4457  0.6662  0.3984
 3170SOL     OW 9508   3.864   3.723   7.757  0.3391 -0.2002  0.4811
 3170SOL    HW1 9509   3.802   3.652   7.744  1.5628 -1.3115  0.5328
 3170SOL    HW2 9510   3.810   3.800   7.775 -1.0363 -0.9251 -0.4234
 3171SOL     OW 9511   4.563   4.074   7.191 -0.1457 -0.0590 -0.3351
 3171SOL    HW1 9512   4.591   4.166   7.195 -2.2838  0.6615 -0.6922
 3171SOL    HW2 9513   4.552   4.057   7.098 -0.3169 -0.4954 -0.2346
 3172SOL     OW 9514   4.100   3.766   5.755  0.5132  0.1137  0.2092
 3172SOL    HW1 9515   4.191   3.795   5.761  0.8517 -0.7650 -0.4896
 3172SOL    HW2 9516   4.085   3.716   5.835  1.0901 -0.9075 -0.2978
 3173SOL     OW 9517   0.111   1.316   6.976 -0.5310 -0.5901 -0.3987
 3173SOL    HW1 9518   0.159   1.257   6.918  0.0351 -1.4790  0.9059
 3173SOL    HW2 9519   0.023   1.321   6.938  0.2533  0.2223 -2.2382
 3174SOL     OW 9520   4.734   1.643   5.951 -0.4755 -0.1101 -0.4416
 3174SOL    HW1 9521   4.781   1.622   5.870  0.5651  0.6085 -0.0516
 3174SOL    HW2 9522   4.642   1.631   5.929 -0.1253 -1.9321 -1.1287
 3175SOL     OW 9523   4.567   0.648   6.751  0.1399 -0.3839 -0.1166
 3175SOL    HW1 9524   4.638   0.690   6.800  0.4092  0.7305 -1.4274
 3175SOL    HW2 9525   4.525   0.719   6.702  1.1796 -1.6643 -3.1105
 3176SOL     OW 9526   1.991   1.070   6.798  0.3070 -0.0155 -0.3197
 3176SOL    HW1 9527   2.075   1.104   6.831 -1.3268  2.2635  1.8318
 3176SOL    HW2 9528   1.992   1.092   6.705  2.4926 -1.0367 -0.6169
 3177SOL     OW 9529   1.338   0.178   6.580 -0.5775  0.5469 -0.3363
 3177SOL    HW1 9530   1.328   0.273   6.592 -0.6159  0.2613  2.6026
 3177SOL    HW2 9531   1.266   0.140   6.631 -1.2171 -1.0859 -2.3642
 3178SOL     OW 9532   2.681   0.843   4.620 -0.1102 -0.2030 -0.3812
 3178SOL    HW1 9533   2.706   0.868   4.531 -1.4980  0.3939 -0.6174
 3178SOL    HW2 9534   2.680   0.926   4.668  0.9701 -0.5621  0.2937
 3179SOL     OW 9535   0.014   3.073   7.296  0.0512  0.2540  0.8992
 3179SOL    HW1 9536   0.103   3.038   7.298  1.2629  3.0285 -0.0504
 3179SOL    HW2 9537  -0.038   3.003   7.255  2.0812 -0.8234  0.0193
 3180SOL     OW 9538   2.281   2.699   5.077  0.0988 -0.3625 -0.2324
 3180SOL    HW1 9539   2.296   2.793   5.092  0.6856 -0.5676  0.5216
 3180SOL    HW2 9540   2.190   2.686   5.105  0.2146 -0.1392  0.2579
 3181SOL     OW 9541   0.229   4.006   6.877  0.9219  0.4568  0.2213
 3181SOL    HW1 9542   0.323   4.018   6.889  0.6902  2.7021  0.2938
 3181SOL    HW2 9543   0.212   4.035   6.788  0.4661 -1.4327 -0.3565
 3182SOL     OW 9544   0.181   3.300   5.449 -0.6039 -0.8281  0.5901
 3182SOL    HW1 9545   0.199   3.378   5.501 -1.6934 -0.1637 -0.0018
 3182SOL    HW2 9546   0.100   3.265   5.486 -1.6333 -0.1120 -0.8747
 3183SOL     OW 9547   3.121   3.193   7.186 -0.5025  0.2979 -0.6108
 3183SOL    HW1 9548   3.061   3.118   7.186  1.0466 -1.0490 -2.1725
 3183SOL    HW2 9549   3.154   3.198   7.096  2.0139  0.6617  0.2276
 3184SOL     OW 9550   0.745   3.709   9.203 -0.1687  0.3468  0.0370
 3184SOL    HW1 9551   0.686   3.748   9.267  0.5891  1.2039  0.2442
 3184SOL    HW2 9552   0.832   3.716   9.243  0.1077 -0.6760 -0.3571
 3185SOL     OW 9553   4.093   1.217   5.020 -0.1475  0.4884  0.4519
 3185SOL    HW1 9554   4.180   1.249   5.045  0.8283 -1.0578 -0.8327
 3185SOL    HW2 9555   4.058   1.286   4.963 -0.0106  1.3469  1.3634
 3186SOL     OW 9556   3.539   3.819   6.425 -0.1313  0.1337  0.2657
 3186SOL    HW1 9557   3.481   3.774   6.486 -2.4035  0.8938 -1.1741
 3186SOL    HW2 9558   3.539   3.910   6.455 -0.0264  0.2124  0.0320
 3187SOL     OW 9559   4.103   2.608   5.511 -0.3222 -0.4371 -0.0484
 3187SOL    HW1 9560   4.020   2.654   5.494  0.8835  1.2084 -1.8272
 3187SOL    HW2 9561   4.171   2.670   5.485  1.5366 -1.4466  2.0975
 3188SOL     OW 9562   1.429   4.299   5.250 -0.0898 -0.2320  0.1873
 3188SOL    HW1 9563   1.356   4.277   5.192 -0.1034 -0.2075  0.1950
 3188SOL    HW2 9564   1.424   4.234   5.320  1.4867 -1.9095 -1.1618
 3189SOL     OW 9565   2.909   4.547   8.730  0.0346  0.0935  0.1463
 3189SOL    HW1 9566   2.814   4.558   8.739 -0.0765 -0.1880 -0.6476
 3189SOL    HW2 9567   2.927   4.563   8.638  1.0333  2.0201  0.6374
 3190SOL     OW 9568   4.766   4.102   8.450  0.4519 -0.5937  0.5731
 3190SOL    HW1 9569   4.794   4.029   8.506  0.6283 -0.3509  0.8010
 3190SOL    HW2 9570   4.768   4.178   8.507  0.3454 -0.3941  0.3094
 3191SOL     OW 9571   3.848   0.717   5.550  0.3821 -0.4091  0.0955
 3191SOL    HW1 9572   3.936   0.754   5.538  0.1630 -0.1490 -0.7797
 3191SOL    HW2 9573   3.849   0.683   5.639  1.3200 -0.2619  0.1569
 3192SOL     OW 9574   4.235   3.996   8.865  0.1453 -0.6716 -0.8674
 3192SOL    HW1 9575   4.267   3.949   8.788 -2.0074 -0.5489 -1.9267
 3192SOL    HW2 9576   4.146   3.962   8.877  0.1344 -0.0410  1.0597
 3193SOL     OW 9577   5.016   2.912   7.804  0.1686  0.1957  0.2878
 3193SOL    HW1 9578   5.001   2.972   7.731 -1.6839 -0.2779  0.2257
 3193SOL    HW2 9579   4.981   2.958   7.880  0.5802  0.0063  0.5927
 3194SOL     OW 9580   0.219   0.904   6.688  0.4370  0.2621 -0.0420
 3194SOL    HW1 9581   0.190   0.932   6.601 -0.3078  0.0304  0.1234
 3194SOL    HW2 9582   0.146   0.925   6.746  0.7386 -0.0193  0.4503
 3195SOL     OW 9583   1.032   3.074   9.894 -0.2388 -0.1322  0.0779
 3195SOL    HW1 9584   1.087   3.071   9.973 -0.6667 -0.3170  0.3710
 3195SOL    HW2 9585   1.056   2.995   9.846 -0.1533 -0.1448  0.1396
 3196SOL     OW 9586   2.993   0.683   7.272 -0.5104 -0.4250  1.4330
 3196SOL    HW1 9587   2.912   0.637   7.294 -0.0613 -2.9111 -1.3659
 3196SOL    HW2 9588   2.965   0.756   7.217 -0.9361 -0.6256  1.3774
 3197SOL     OW 9589   4.818   4.559   8.341  0.5926  0.2114  0.2659
 3197SOL    HW1 9590   4.768   4.478   8.334 -1.4349  1.5127 -1.3474
 3197SOL    HW2 9591   4.798   4.593   8.428 -0.0022 -0.1214  0.2584
 3198SOL     OW 9592   3.907   3.735   7.284  0.3137 -0.1357  0.1641
 3198SOL    HW1 9593   3.880   3.738   7.376 -0.7064  0.0977 -0.1293
 3198SOL    HW2 9594   3.837   3.686   7.240  0.2157  0.7263 -0.6666
 3199SOL     OW 9595   1.226   1.465   7.853 -0.3947 -0.0250  0.4062
 3199SOL    HW1 9596   1.319   1.440   7.853  0.4271  2.7176  0.8129
 3199SOL    HW2 9597   1.190   1.423   7.931  0.1118 -2.1758 -0.4254
 3200SOL     OW 9598   4.801   2.203   9.539  0.5149  0.1859 -0.1953
 3200SOL    HW1 9599   4.760   2.289   9.545  0.3111  0.0366  0.6157
 3200SOL    HW2 9600   4.855   2.196   9.619 -1.2776 -1.3681  0.9674
 3201SOL     OW 9601   4.302   0.539   7.054 -0.8086 -0.1331 -0.1057
 3201SOL    HW1 9602   4.235   0.607   7.044 -0.3258  0.4928  0.7879
 3201SOL    HW2 9603   4.377   0.571   7.005 -0.7394 -0.2458 -0.0742
 3202SOL     OW 9604   4.294   3.707  10.041  0.3677  0.1856 -0.0654
 3202SOL    HW1 9605   4.376   3.661  10.059 -0.6947 -2.0910 -0.6283
 3202SOL    HW2 9606   4.231   3.665  10.099 -0.4655  1.7405  0.1942
 3203SOL     OW 9607   3.502   3.306   7.802  0.1739  0.4431 -0.8663
 3203SOL    HW1 9608   3.449   3.243   7.754 -1.6380  2.3754 -1.5118
 3203SOL    HW2 9609   3.463   3.310   7.889  0.6587  0.2598 -0.6326
 3204SOL     OW 9610   3.233   3.651   9.788 -0.2975 -0.2063 -0.4077
 3204SOL    HW1 9611   3.208   3.678   9.876 -0.4201 -2.6388  0.3864
 3204SOL    HW2 9612   3.204   3.560   9.781 -1.2695  0.2142 -3.3890
 3205SOL     OW 9613   3.861   2.857   5.763  0.0888 -0.0115 -0.3111
 3205SOL    HW1 9614   3.782   2.865   5.818  0.7994 -1.4678  1.0051
 3205SOL    HW2 9615   3.925   2.915   5.805  0.2905 -0.2612 -0.2740
 3206SOL     OW 9616   2.397   0.008   6.516  0.4204 -0.0767  0.1449
 3206SOL    HW1 9617   2.302   0.002   6.522  0.3284  2.2832  3.1709
 3206SOL    HW2 9618   2.413   0.077   6.452  0.2752 -1.7772 -1.8478
 3207SOL     OW 9619   0.702   3.891   7.470 -0.0894  0.2850  0.5512
 3207SOL    HW1 9620   0.624   3.836   7.462 -1.8651  2.7234 -0.4502
 3207SOL    HW2 9621   0.696   3.929   7.557  0.0230  0.3811  0.5169
 3208SOL     OW 9622   4.837   0.110   7.921  0.8160  0.0660  0.1420
 3208SOL    HW1 9623   4.816   0.106   7.828  0.2803  1.8095  0.1630
 3208SOL    HW2 9624   4.803   0.195   7.950  1.7213 -0.0853  1.7415
 3209SOL     OW 9625   4.888   3.363   9.716 -0.0972  0.1907 -0.1964
 3209SOL    HW1 9626   4.897   3.451   9.753  1.4188  0.5056 -1.1961
 3209SOL    HW2 9627   4.881   3.305   9.791 -2.8861  1.2671  0.4989
 3210SOL     OW 9628   4.746   4.337   9.529 -0.4564  0.5108 -0.6998
 3210SOL    HW1 9629   4.786   4.408   9.579  1.9054 -1.3588  0.2425
 3210SOL    HW2 9630   4.661   4.324   9.571  0.3248  0.8305  1.0855
 3211SOL     OW 9631   2.824   1.680   4.964 -0.5439  0.6267 -0.4053
 3211SOL    HW1 9632   2.851   1.588   4.975  0.0955  1.0404  2.1913
 3211SOL    HW2 9633   2.770   1.698   5.041 -2.0772  2.0054 -1.7236
 3212SOL     OW 9634   1.675   4.059   6.197 -0.3180 -0.5761 -0.3960
 3212SOL    HW1 9635   1.599   4.114   6.218 -0.3728 -0.9631  0.4949
 3212SOL    HW2 9636   1.749   4.105   6.238 -0.4443 -1.4205  0.8136
 3213SOL     OW 9637   4.527   0.066   9.792  0.1840  0.3912  0.9333
 3213SOL    HW1 9638   4.618   0.035   9.794  0.9179  1.8120 -2.3427
 3213SOL    HW2 9639   4.528   0.149   9.841  1.6725  2.2567 -1.9545
 3214SOL     OW 9640   0.652   3.460   8.436  0.0627  0.4231  0.0996
 3214SOL    HW1 9641   0.723   3.480   8.375 -0.8706  0.0687 -1.1383
 3214SOL    HW2 9642   0.696   3.418   8.510  1.1266 -0.1066 -0.7967
 3215SOL     OW 9643   2.467   2.060   8.070 -0.0147 -0.5535  0.0526
 3215SOL    HW1 9644   2.546   2.061   8.123  0.0011  0.7958  0.0333
 3215SOL    HW2 9645   2.496   2.090   7.984 -0.9266  2.5180  0.6935
 3216SOL     OW 9646   4.846   2.626   5.643  0.2220 -0.4081  0.0125
 3216SOL    HW1 9647   4.871   2.558   5.705 -0.3194 -0.8018 -0.1932
 3216SOL    HW2 9648   4.898   2.703   5.668 -0.3992 -0.3906  1.2975
 3217SOL     OW 9649   3.355   3.917   9.812  0.6494 -0.7301  0.3441
 3217SOL    HW1 9650   3.376   3.866   9.890  2.4923  0.0338  0.4139
 3217SOL    HW2 9651   3.355   3.854   9.740 -0.4522 -1.3389  0.8531
 3218SOL     OW 9652   2.561   2.027   9.825 -0.1010  0.5290 -0.4798
 3218SOL    HW1 9653   2.636   2.085   9.813  1.6326 -0.9573  2.0917
 3218SOL    HW2 9654   2.510   2.069   9.895  0.6249 -0.4278  0.6775
 3219SOL     OW 9655   3.061   1.058   6.559  0.2844  0.5706  0.1817
 3219SOL    HW1 9656   3.070   1.091   6.470 -1.5275 -1.3485 -0.8014
 3219SOL    HW2 9657   3.015   1.127   6.606  1.2309  1.5927 -0.3589
 3220SOL     OW 9658   0.857   1.304   5.419  0.1480 -0.0690 -0.7984
 3220SOL    HW1 9659   0.905   1.246   5.479 -0.7591  1.2177  1.3050
 3220SOL    HW2 9660   0.892   1.284   5.333  1.1174 -2.4617  0.0652
 3221SOL     OW 9661  -0.003   4.301   7.981 -0.0319  0.0629  0.5819
 3221SOL    HW1 9662   0.077   4.346   8.008  0.0368  1.7908 -2.1156
 3221SOL    HW2 9663  -0.032   4.349   7.904 -2.0480 -2.3632 -0.2924
 3222SOL     OW 9664   3.688   2.319   6.617  0.2968  0.6346  0.4824
 3222SOL    HW1 9665   3.770   2.346   6.576  0.2429  1.0894  0.6675
 3222SOL    HW2 9666   3.656   2.398   6.661  0.0852  0.2953  0.9493
 3223SOL     OW 9667   2.106   4.263   7.780  0.9340  0.1838  0.3089
 3223SOL    HW1 9668   2.082   4.268   7.872 -0.2108  0.1072  0.0312
 3223SOL    HW2 9669   2.030   4.298   7.734 -1.1304 -5.0603 -0.9747
 3224SOL     OW 9670   1.298   2.537   9.839 -0.8245 -0.1557 -0.3143
 3224SOL    HW1 9671   1.346   2.455   9.825  0.9324  0.5314  1.1060
 3224SOL    HW2 9672   1.302   2.550   9.934 -0.2972  1.9841 -0.5803
 3225SOL     OW 9673   2.742   1.121   8.526  0.0546 -0.0279 -0.3541
 3225SOL    HW1 9674   2.670   1.080   8.478  1.8362 -1.8185 -1.6399
 3225SOL    HW2 9675   2.810   1.136   8.459  1.3045  0.5833  0.9945
 3226SOL     OW 9676   4.229   0.030   8.310  0.4918 -0.5564 -0.2844
 3226SOL    HW1 9677   4.215   0.096   8.378  1.6618 -1.5265  0.9346
 3226SOL    HW2 9678   4.169  -0.041   8.333 -1.0466  0.1730 -1.8115
 3227SOL     OW 9679   0.533   0.048   5.585 -0.0351  0.5503 -0.4615
 3227SOL    HW1 9680   0.563   0.058   5.675  0.0070  0.7836 -0.5008
 3227SOL    HW2 9681   0.449   0.093   5.582 -0.0648  0.4910 -0.5230
 3228SOL     OW 9682   4.549   3.752   6.620 -0.7785 -0.1255 -0.3891
 3228SOL    HW1 9683   4.557   3.671   6.570 -0.3664 -1.0354  1.1048
 3228SOL    HW2 9684   4.538   3.724   6.711  0.8154  1.5033  0.3727
 3229SOL     OW 9685   1.513   1.910   5.406 -0.0252  0.1754 -0.3515
 3229SOL    HW1 9686   1.444   1.970   5.376 -0.0518  0.7740  0.8534
 3229SOL    HW2 9687   1.487   1.825   5.371 -0.7178  0.6194 -0.9484
 3230SOL     OW 9688   3.770   3.406   5.194  0.1557 -0.1105  1.0584
 3230SOL    HW1 9689   3.785   3.343   5.124  0.5711  0.4113  0.6743
 3230SOL    HW2 9690   3.698   3.368   5.246  0.1939 -0.7413  0.6523
 3231SOL     OW 9691   4.158   4.335   8.462  0.0325  0.3401  0.0963
 3231SOL    HW1 9692   4.174   4.283   8.541  0.7724  0.6349  0.1549
 3231SOL    HW2 9693   4.241   4.381   8.448 -0.1144  0.3349 -0.8200
 3232SOL     OW 9694   3.979   0.726   9.021 -0.0129 -0.3373  0.8342
 3232SOL    HW1 9695   3.934   0.764   9.097  0.3900  1.4313  0.2359
 3232SOL    HW2 9696   4.047   0.670   9.059 -0.7554 -0.6487  1.7577
 3233SOL     OW 9697   0.897   2.312   8.982  0.5317 -0.2045 -0.6147
 3233SOL    HW1 9698   0.826   2.376   8.982  0.0660 -0.6722  1.5130
 3233SOL    HW2 9699   0.932   2.314   9.071 -0.0214 -3.4523 -0.1917
 3234SOL     OW 9700   0.815   3.860   8.120 -0.0661 -0.3434  0.3266
 3234SOL    HW1 9701   0.775   3.872   8.034  0.8728  1.8624  0.1190
 3234SOL    HW2 9702   0.751   3.897   8.182  0.1151 -0.0518  0.3450
 3235SOL     OW 9703   1.423   1.640   9.986  0.0075  0.2858  0.1958
 3235SOL    HW1 9704   1.395   1.562  10.034  1.1549 -0.2129  0.0902
 3235SOL    HW2 9705   1.496   1.610   9.932  0.1744  1.3356 -0.1935
 3236SOL     OW 9706   3.489   2.301   7.053  0.5636 -0.6430 -0.0609
 3236SOL    HW1 9707   3.483   2.343   6.968  0.0116 -0.1699  0.2097
 3236SOL    HW2 9708   3.580   2.271   7.058  0.8756  0.2301 -0.3912
 3237SOL     OW 9709   4.150   4.286   6.059  0.5155  0.4628 -0.2555
 3237SOL    HW1 9710   4.233   4.276   6.014  0.3451  1.4248 -0.7967
 3237SOL    HW2 9711   4.173   4.316   6.147  0.8316 -1.1744  0.2587
 3238SOL     OW 9712   3.683   3.782   7.476 -0.5282 -0.1038 -0.0425
 3238SOL    HW1 9713   3.655   3.748   7.561 -2.5032 -1.7011 -1.2270
 3238SOL    HW2 9714   3.612   3.841   7.449 -0.7647 -0.9167 -1.2824
 3239SOL     OW 9715   3.965   3.721   9.431 -0.2038  0.2435  0.1296
 3239SOL    HW1 9716   3.956   3.814   9.453 -2.8399  0.0646  0.1258
 3239SOL    HW2 9717   4.050   3.715   9.387  0.1410  2.6016  0.3344
 3240SOL     OW 9718   0.484   3.146   6.945 -0.4257  1.1071 -0.1078
 3240SOL    HW1 9719   0.406   3.090   6.938  0.0608  0.5902 -2.3979
 3240SOL    HW2 9720   0.552   3.089   6.981 -0.3918  0.7038 -0.7831
 3241SOL     OW 9721   3.824   2.020   9.056 -0.2439  0.8220  0.3156
 3241SOL    HW1 9722   3.894   1.995   8.995  0.0076  0.1761  0.8583
 3241SOL    HW2 9723   3.869   2.040   9.138 -0.7381 -0.3571  0.9028
 3242SOL     OW 9724   0.976   0.048   6.626 -0.3590  0.3792 -0.6795
 3242SOL    HW1 9725   1.023   0.047   6.709  0.0674 -0.0717 -0.9235
 3242SOL    HW2 9726   0.904   0.109   6.640  0.4979  1.3595 -0.4182
 3243SOL     OW 9727   4.831   0.438   5.816  0.8642 -0.3619  0.5313
 3243SOL    HW1 9728   4.878   0.436   5.733 -0.1322  1.3060 -0.1225
 3243SOL    HW2 9729   4.889   0.486   5.876  1.3531 -1.1102  0.6754
 3244SOL     OW 9730   1.044   0.587   8.138 -0.4308  0.3001 -0.0925
 3244SOL    HW1 9731   1.105   0.557   8.071 -1.7765  1.8755 -2.1619
 3244SOL    HW2 9732   1.097   0.595   8.218  1.7038  0.1956 -1.4309
 3245SOL     OW 9733   1.519   3.855   8.786  0.2742  0.1118 -0.0772
 3245SOL    HW1 9734   1.512   3.847   8.881  1.2481  2.3397  0.2311
 3245SOL    HW2 9735   1.482   3.773   8.753 -4.0172  0.9261  2.0150
 3246SOL     OW 9736   1.657   1.447   6.816 -0.2869  0.0095  0.8381
 3246SOL    HW1 9737   1.564   1.425   6.821 -0.5895  1.0205 -0.0134
 3246SOL    HW2 9738   1.694   1.383   6.755 -0.3585 -0.5801  1.4081
 3247SOL     OW 9739   3.162   2.922   7.467  0.0197 -0.4877 -0.3106
 3247SOL    HW1 9740   3.221   2.982   7.514 -0.7048 -0.5114  0.6486
 3247SOL    HW2 9741   3.079   2.928   7.514  0.1179 -2.8012  0.2679
 3248SOL     OW 9742   4.553   0.247   7.521 -0.3890 -0.4494  0.4985
 3248SOL    HW1 9743   4.643   0.249   7.489 -1.6871 -1.6311 -3.8774
 3248SOL    HW2 9744   4.557   0.189   7.597  2.6582  0.5226  1.2454
 3249SOL     OW 9745   2.422   0.920   5.654  0.4818 -0.3892  0.1377
 3249SOL    HW1 9746   2.366   0.865   5.708 -0.1042 -0.1435 -0.2146
 3249SOL    HW2 9747   2.440   0.997   5.708 -1.4136  0.6065 -0.5760
 3250SOL     OW 9748   4.620   3.565   5.577 -0.5126 -0.8796  0.0148
 3250SOL    HW1 9749   4.712   3.559   5.551 -0.7387 -0.8336 -0.8027
 3250SOL    HW2 9750   4.572   3.580   5.496 -0.9534  2.2505  0.7361
 3251SOL     OW 9751   0.686   1.422   7.037  0.0411 -0.7767 -0.1669
 3251SOL    HW1 9752   0.601   1.395   7.004 -0.8587  0.7860  0.7273
 3251SOL    HW2 9753   0.683   1.400   7.130 -0.4301  1.4836  0.4275
 3252SOL     OW 9754   1.486   4.546   9.822 -0.0185  0.0736  0.1082
 3252SOL    HW1 9755   1.430   4.468   9.815 -0.9806  0.8590 -1.7727
 3252SOL    HW2 9756   1.549   4.536   9.750 -0.0984  0.9974 -0.0974
 3253SOL     OW 9757   4.047   2.191   6.854  0.4034 -0.4617  0.0554
 3253SOL    HW1 9758   4.054   2.262   6.789 -0.3400  0.1784  0.6585
 3253SOL    HW2 9759   3.964   2.148   6.833  0.7568 -1.0359 -0.1828
 3254SOL     OW 9760   4.954   2.659   7.042 -0.4540  0.1619  0.0134
 3254SOL    HW1 9761   5.002   2.665   7.125 -1.7203 -1.5918  0.9453
 3254SOL    HW2 9762   5.012   2.701   6.978  1.5336 -0.3075  1.3983
 3255SOL     OW 9763   3.135   1.119   6.311  0.2175  0.3470 -0.4151
 3255SOL    HW1 9764   3.085   1.060   6.254  1.6908  3.2827 -5.3858
 3255SOL    HW2 9765   3.221   1.125   6.269  1.7279  2.3818  2.5979
 3256SOL     OW 9766   3.540   0.284   7.743  0.9030 -0.3812 -0.2597
 3256SOL    HW1 9767   3.458   0.238   7.759  1.5481 -1.8999 -1.1094
 3256SOL    HW2 9768   3.532   0.317   7.653  0.3571  1.4573  0.4077
 3257SOL     OW 9769   0.126   3.806   8.898  1.2597 -0.4290  0.5558
 3257SOL    HW1 9770   0.129   3.752   8.977 -0.5328  0.0206  0.9842
 3257SOL    HW2 9771   0.152   3.747   8.827 -0.7576 -1.9248  0.9901
 3258SOL     OW 9772   1.488   1.780   9.395  0.2937 -0.0014  0.4033
 3258SOL    HW1 9773   1.568   1.792   9.344 -0.6626  0.3763 -1.0774
 3258SOL    HW2 9774   1.451   1.868   9.401 -1.1930 -0.4742 -1.0059
 3259SOL     OW 9775   1.860   1.469   5.298  0.3944  0.0137  0.2708
 3259SOL    HW1 9776   1.790   1.529   5.272 -0.3856  0.0962  2.3307
 3259SOL    HW2 9777   1.935   1.526   5.314  1.0866 -0.0990 -2.1883
 3260SOL     OW 9778   4.843   2.307   9.222 -0.5552 -0.5460 -0.4432
 3260SOL    HW1 9779   4.870   2.218   9.242 -2.8621 -1.1399  0.3236
 3260SOL    HW2 9780   4.922   2.350   9.189  0.9946 -2.3836  0.7299
 3261SOL     OW 9781   0.785  -0.001   9.885  0.4435 -0.0064 -0.3418
 3261SOL    HW1 9782   0.768   0.089   9.857  0.9826  0.8230  1.8300
 3261SOL    HW2 9783   0.699  -0.036   9.907  0.2731  0.0840 -0.8426
 3262SOL     OW 9784   0.970   0.441   8.737 -0.3004  0.4675  0.7537
 3262SOL    HW1 9785   0.929   0.472   8.817  0.6759 -1.5362  2.1023
 3262SOL    HW2 9786   1.053   0.404   8.765 -0.6428 -1.7719 -0.9272
 3263SOL     OW 9787   1.458   5.005   6.880 -0.3221  0.2301 -0.1287
 3263SOL    HW1 9788   1.514   4.998   6.803  1.3737 -1.7437  1.1903
 3263SOL    HW2 9789   1.386   4.945   6.864  0.8395 -1.3821  0.3851
 3264SOL     OW 9790   4.205   2.527   8.291  0.0439  0.5901 -0.1864
 3264SOL    HW1 9791   4.151   2.606   8.303 -0.9396  0.0418 -0.8852
 3264SOL    HW2 9792   4.154   2.457   8.332 -0.3268 -0.1390 -1.8226
 3265SOL     OW 9793   3.846   0.458   5.745 -0.0150  0.2791  0.4961
 3265SOL    HW1 9794   3.840   0.438   5.838 -0.4676 -0.0406  0.4060
 3265SOL    HW2 9795   3.917   0.402   5.713 -3.0818 -3.5780 -0.3070
 3266SOL     OW 9796   3.901   0.826   6.459 -0.2739 -0.2116 -0.3025
 3266SOL    HW1 9797   3.916   0.918   6.482  0.6643 -0.5842  0.6671
 3266SOL    HW2 9798   3.806   0.814   6.469 -0.7776  1.1742 -2.5675
 3267SOL     OW 9799   3.695   4.843   9.259  0.2130  0.0630  0.2898
 3267SOL    HW1 9800   3.657   4.922   9.221 -0.0730  1.0174  2.4719
 3267SOL    HW2 9801   3.783   4.839   9.221 -0.7026 -0.1863 -2.0035
 3268SOL     OW 9802   3.576   3.524   8.110 -0.4039  0.1159 -0.1571
 3268SOL    HW1 9803   3.486   3.542   8.083 -0.5096 -0.1566  0.0063
 3268SOL    HW2 9804   3.567   3.471   8.189 -0.1182 -1.2732 -1.0222
 3269SOL     OW 9805   3.538   3.387   5.365 -0.5448  0.1047 -0.4327
 3269SOL    HW1 9806   3.510   3.450   5.431  1.9762 -0.5749  1.4428
 3269SOL    HW2 9807   3.472   3.318   5.368 -1.0735  0.6355  0.5368
 3270SOL     OW 9808   4.277   3.741   8.434  0.4747 -0.4321  0.6956
 3270SOL    HW1 9809   4.236   3.738   8.521  2.0000 -4.2561  1.5123
 3270SOL    HW2 9810   4.204   3.750   8.374 -1.0333 -1.2063  2.3036
 3271SOL     OW 9811   2.208   2.047   6.486  0.0382 -0.0230  0.4052
 3271SOL    HW1 9812   2.123   2.045   6.531 -0.5564  0.8326 -0.6227
 3271SOL    HW2 9813   2.205   1.971   6.428 -0.1810  0.2005  0.1192
 3272SOL     OW 9814   1.857   4.420  10.352 -0.2794  0.5404  0.4988
 3272SOL    HW1 9815   1.786   4.357  10.362 -1.7325  1.9786 -0.2705
 3272SOL    HW2 9816   1.821   4.488  10.295  0.9649  2.4460  1.8874
 3273SOL     OW 9817   0.583   1.580   9.476 -0.4028 -0.6904 -0.4547
 3273SOL    HW1 9818   0.536   1.531   9.408 -0.6264  0.9007 -1.4895
 3273SOL    HW2 9819   0.530   1.658   9.491  1.0276  0.3055 -0.3914
 3274SOL     OW 9820   0.980   2.202   8.499 -0.1322 -0.1230 -0.8242
 3274SOL    HW1 9821   0.978   2.119   8.452  0.2305 -0.6673  0.0890
 3274SOL    HW2 9822   0.944   2.182   8.585 -0.3027  0.7333 -0.6857
 3275SOL     OW 9823   3.426   2.193   9.403 -0.4045  0.4185 -0.3969
 3275SOL    HW1 9824   3.468   2.141   9.471 -0.2542  0.7220 -0.2535
 3275SOL    HW2 9825   3.463   2.161   9.321  1.6737  2.0249 -0.1783
 3276SOL     OW 9826   1.342   4.650   8.683 -0.7206 -0.2503  0.1738
 3276SOL    HW1 9827   1.391   4.599   8.748  0.5338  1.5418  0.7160
 3276SOL    HW2 9828   1.339   4.739   8.720 -2.9769  0.0795 -0.6426
 3277SOL     OW 9829   2.548   2.120   9.013 -0.3159 -0.4337  0.8786
 3277SOL    HW1 9830   2.479   2.053   9.017  0.2000 -0.9746  0.8987
 3277SOL    HW2 9831   2.603   2.101   9.089  0.8549 -1.1183 -0.1004
 3278SOL     OW 9832   2.604   2.567   8.461 -0.1042  0.5228  0.2304
 3278SOL    HW1 9833   2.639   2.491   8.414  3.3440  1.1464  1.4831
 3278SOL    HW2 9834   2.565   2.530   8.540  0.2460 -0.0890  0.1265
 3279SOL     OW 9835   2.142   3.425   9.439 -0.0686 -0.3967 -0.1353
 3279SOL    HW1 9836   2.170   3.516   9.453  0.9684 -0.5481 -1.0189
 3279SOL    HW2 9837   2.176   3.403   9.352  0.0633 -1.7601  0.2318
 3280SOL     OW 9838   4.738   2.185   8.041 -0.7649 -0.3979  0.3368
 3280SOL    HW1 9839   4.767   2.267   8.001  0.1302 -1.3825 -1.1277
 3280SOL    HW2 9840   4.788   2.179   8.123 -1.1580  0.6973  0.6783
 3281SOL     OW 9841   2.083   1.005   7.655  0.3256  0.0019  0.3157
 3281SOL    HW1 9842   2.033   1.056   7.719 -0.8801  1.0989 -1.4198
 3281SOL    HW2 9843   2.150   1.066   7.623  0.9556 -0.5583  0.5322
 3282SOL     OW 9844   2.452   2.231   9.574 -0.0422 -0.4325  0.2240
 3282SOL    HW1 9845   2.538   2.253   9.612  1.2174 -3.1939 -0.7975
 3282SOL    HW2 9846   2.404   2.189   9.646  0.9625 -2.3278 -0.1496
 3283SOL     OW 9847   1.933   1.398   6.885 -0.0181 -0.0091 -0.1745
 3283SOL    HW1 9848   1.872   1.461   6.847  1.3393  0.3882 -1.7858
 3283SOL    HW2 9849   1.938   1.327   6.821  1.0393 -0.1344  0.0295
 3284SOL     OW 9850   2.375   2.600   7.945  0.3958  0.1969  0.0784
 3284SOL    HW1 9851   2.439   2.529   7.935  1.0936  0.8777 -0.3899
 3284SOL    HW2 9852   2.290   2.555   7.951  1.0116 -0.8444  2.4109
 3285SOL     OW 9853   4.210   0.888   7.553  0.3330 -0.3472 -0.3307
 3285SOL    HW1 9854   4.148   0.951   7.516 -1.5473 -1.8547  0.0848
 3285SOL    HW2 9855   4.296   0.921   7.527 -0.7305 -0.1084 -4.1815
 3286SOL     OW 9856   4.088   0.216   5.334  0.1390 -0.7769  0.1232
 3286SOL    HW1 9857   4.125   0.260   5.411  0.5932 -0.9832  0.0265
 3286SOL    HW2 9858   4.062   0.130   5.366  1.2871 -1.2541 -0.1760
 3287SOL     OW 9859   1.647   1.747   8.868 -0.1968 -0.5974  0.5780
 3287SOL    HW1 9860   1.585   1.674   8.874 -2.0347  0.8311 -0.1749
 3287SOL    HW2 9861   1.684   1.740   8.780 -1.9542  0.5234 -0.3045
 3288SOL     OW 9862   0.288   0.685   9.802 -0.5727 -0.2636 -0.7726
 3288SOL    HW1 9863   0.249   0.599   9.816  1.0114 -0.8804  0.0522
 3288SOL    HW2 9864   0.218   0.736   9.760 -2.0347 -1.4856  0.0538
 3289SOL     OW 9865   2.011   4.897   7.145  0.1318  1.1489 -0.1603
 3289SOL    HW1 9866   1.953   4.867   7.215  0.9696  1.5006  0.7067
 3289SOL    HW2 9867   2.018   4.991   7.158  1.0415  1.0882 -0.1336
 3290SOL     OW 9868   0.412   2.024   7.631  0.2281  0.0148 -0.2920
 3290SOL    HW1 9869   0.501   2.005   7.602  0.0056 -1.7805  0.0992
 3290SOL    HW2 9870   0.359   1.951   7.598 -0.9591  0.6361  0.1621
 3291SOL     OW 9871   4.486   2.071   7.926 -0.0896 -0.2625  0.0077
 3291SOL    HW1 9872   4.562   2.112   7.966  1.3781 -0.9324 -1.9513
 3291SOL    HW2 9873   4.456   2.134   7.861 -0.8750 -0.2522  0.3650
 3292SOL     OW 9874   2.382   2.931   9.374 -0.1004 -0.4704 -0.3993
 3292SOL    HW1 9875   2.373   2.848   9.420  0.6311  1.0368  2.7509
 3292SOL    HW2 9876   2.293   2.967   9.372  0.1059  0.3154  1.7954
 3293SOL     OW 9877   3.257   0.727   9.640 -0.2576  0.0280 -0.4666
 3293SOL    HW1 9878   3.218   0.771   9.715 -2.6552 -2.0507 -0.3857
 3293SOL    HW2 9879   3.212   0.763   9.564  1.7205  1.6649 -0.9657
 3294SOL     OW 9880   4.131   1.716   8.381 -0.2777  1.1505 -0.3170
 3294SOL    HW1 9881   4.090   1.786   8.433  0.7572  0.5403  1.4348
 3294SOL    HW2 9882   4.224   1.739   8.380  0.7202 -1.7642  3.2358
 3295SOL     OW 9883   3.722   2.985   6.463 -0.1678 -0.4814 -0.0786
 3295SOL    HW1 9884   3.666   2.981   6.541 -1.1956 -0.1597 -0.7812
 3295SOL    HW2 9885   3.744   3.078   6.455 -0.2581 -0.4788 -0.3000
 3296SOL     OW 9886   4.872   1.938   9.402  0.6827  0.0582  0.4128
 3296SOL    HW1 9887   4.801   1.954   9.464  1.5367 -4.2316  2.8837
 3296SOL    HW2 9888   4.937   2.006   9.422 -1.8332  3.0277 -0.7864
 3297SOL     OW 9889   0.611   3.615   5.843 -0.3734 -0.0411  0.3670
 3297SOL    HW1 9890   0.538   3.559   5.817  0.0961 -0.5979  0.2271
 3297SOL    HW2 9891   0.657   3.565   5.911  1.2097 -0.7535 -1.1404
 3298SOL     OW 9892   4.007   2.424   6.631 -0.1945  0.6161  0.7511
 3298SOL    HW1 9893   3.991   2.473   6.550 -0.1845  2.0353  1.5706
 3298SOL    HW2 9894   4.100   2.438   6.649 -0.3720  0.9852  1.4147
 3299SOL     OW 9895   1.000   1.663   8.101 -0.1884 -0.4248  0.3754
 3299SOL    HW1 9896   1.033   1.659   8.011  1.3075  1.1978  0.7857
 3299SOL    HW2 9897   0.905   1.667   8.091 -0.0343  0.4032 -1.1732
 3300SOL     OW 9898   4.072   1.956   8.930  0.5676 -0.6088 -0.1884
 3300SOL    HW1 9899   4.089   1.986   8.840  2.3871 -1.0625 -0.0396
 3300SOL    HW2 9900   4.078   1.860   8.925  0.7217 -0.6363  0.4100
 3301SOL     OW 9901   0.844   0.980  10.228 -0.1256 -0.4175 -0.0753
 3301SOL    HW1 9902   0.853   0.922  10.304  0.6296 -1.1495 -0.7016
 3301SOL    HW2 9903   0.906   0.945  10.164 -0.3198  0.5477 -0.8118
 3302SOL     OW 9904   3.964   2.808   7.205  0.7849  0.1605  0.6679
 3302SOL    HW1 9905   3.930   2.896   7.224 -1.9520 -0.6923  0.2006
 3302SOL    HW2 9906   3.908   2.750   7.257 -1.2353 -1.6446 -3.1243
 3303SOL     OW 9907   1.086   2.599   7.235  0.3884 -0.7465 -0.2708
 3303SOL    HW1 9908   0.992   2.609   7.243  0.5493  1.0990 -0.1958
 3303SOL    HW2 9909   1.122   2.663   7.297  1.6659 -0.7533 -0.9670
 3304SOL     OW 9910   1.839   1.839   6.184  0.2497  0.1996  0.4286
 3304SOL    HW1 9911   1.789   1.813   6.108 -0.5162  3.1864 -0.2345
 3304SOL    HW2 9912   1.774   1.872   6.246  1.0566  0.1013  1.3638
 3305SOL     OW 9913   3.454   3.296   9.106  0.2442  0.8644 -0.5490
 3305SOL    HW1 9914   3.549   3.288   9.114  0.1526  0.3168 -0.0003
 3305SOL    HW2 9915   3.442   3.375   9.054  1.0174  0.5904 -1.1759
 3306SOL     OW 9916   1.947   4.967   9.574  0.2690  0.1543  0.3114
 3306SOL    HW1 9917   1.954   5.025   9.650  1.1699  0.8575 -0.2837
 3306SOL    HW2 9918   1.904   4.888   9.607  0.1415  0.6784  1.4164
 3307SOL     OW 9919   1.444   2.753   7.536  0.5514  0.2180 -0.0791
 3307SOL    HW1 9920   1.401   2.695   7.599 -0.2459 -0.4590 -1.2199
 3307SOL    HW2 9921   1.373   2.803   7.496  0.6867 -1.2286 -2.3088
 3308SOL     OW 9922   2.961   4.004   5.264 -0.2634  0.7541 -0.2180
 3308SOL    HW1 9923   3.025   4.028   5.197  1.0798  1.8168  1.3637
 3308SOL    HW2 9924   2.902   4.080   5.269  1.1828  1.8524  1.5148
 3309SOL     OW 9925   1.599   1.391   5.715  0.0656  0.1847  0.5832
 3309SOL    HW1 9926   1.668   1.406   5.780 -0.0061  1.6028  0.3623
 3309SOL    HW2 9927   1.642   1.342   5.645  1.2035  1.9952 -0.0735
 3310SOL     OW 9928   2.457   4.923   9.657  0.0646 -0.4056 -0.4966
 3310SOL    HW1 9929   2.400   4.877   9.719  0.6082 -1.2099 -0.5774
 3310SOL    HW2 9930   2.438   4.882   9.572  2.0315 -1.9870 -0.2596
 3311SOL     OW 9931   3.712   4.418   7.197 -0.1581  0.3550 -0.0021
 3311SOL    HW1 9932   3.648   4.424   7.268  0.0440  3.5705  0.0423
 3311SOL    HW2 9933   3.797   4.416   7.241 -0.0333  2.3309 -0.0726
 3312SOL     OW 9934   2.705   2.807   8.503 -0.2257 -0.7386 -0.0124
 3312SOL    HW1 9935   2.656   2.734   8.466  0.6714 -0.3823 -2.0289
 3312SOL    HW2 9936   2.669   2.885   8.461  0.5335 -0.2608  0.1972
 3313SOL     OW 9937   1.841   0.045   9.195  0.0619  0.4007 -0.1297
 3313SOL    HW1 9938   1.819   0.004   9.110 -1.7567 -0.4891  0.7066
 3313SOL    HW2 9939   1.927   0.009   9.217  0.0056 -0.3406 -1.0254
 3314SOL     OW 9940   1.848   1.974   8.810  0.1460 -0.4049  0.0420
 3314SOL    HW1 9941   1.843   1.927   8.727  0.3800 -2.3337  1.0525
 3314SOL    HW2 9942   1.828   1.908   8.876  1.8335  0.5771  1.6470
 3315SOL     OW 9943   4.676   1.076   5.362 -0.1566  0.1237 -0.7468
 3315SOL    HW1 9944   4.694   0.986   5.389  2.7810  0.7554 -0.3308
 3315SOL    HW2 9945   4.580   1.084   5.369 -0.3659 -2.5031  0.5799
 3316SOL     OW 9946   3.743   3.936   7.231 -0.2685  0.1324 -0.0948
 3316SOL    HW1 9947   3.806   3.887   7.284  0.5217 -0.8569 -1.8696
 3316SOL    HW2 9948   3.710   3.872   7.168 -0.4030  1.5098 -1.4758
 3317SOL     OW 9949   2.330   2.831   6.563  0.0167  0.1980 -0.6264
 3317SOL    HW1 9950   2.275   2.756   6.588 -0.3980  0.5010 -0.6196
 3317SOL    HW2 9951   2.347   2.876   6.646  1.2796 -0.5551 -0.4518
 3318SOL     OW 9952   2.349   3.357   5.821 -0.5078 -0.7146 -0.7297
 3318SOL    HW1 9953   2.395   3.408   5.755  0.8315 -1.0155 -0.0599
 3318SOL    HW2 9954   2.401   3.277   5.831 -1.2667 -1.1526 -0.0701
 3319SOL     OW 9955   0.036   5.000   8.429 -0.5133 -0.1222 -0.1347
 3319SOL    HW1 9956   0.093   4.924   8.435 -0.3313 -0.0121 -0.4653
 3319SOL    HW2 9957   0.096   5.074   8.423 -0.6903  0.0474  0.1731
 3320SOL     OW 9958   3.131   0.246   7.277 -0.4660  0.5519 -0.2994
 3320SOL    HW1 9959   3.217   0.202   7.278 -0.6301 -0.0996  4.2645
 3320SOL    HW2 9960   3.115   0.263   7.184  4.4333  0.4756 -1.4677
 3321SOL     OW 9961   0.465   1.625   9.040 -0.0785  0.0873  0.6553
 3321SOL    HW1 9962   0.498   1.613   8.951 -2.2580 -2.2483  0.0389
 3321SOL    HW2 9963   0.404   1.698   9.034 -0.5683 -0.3538  0.0804
 3322SOL     OW 9964   1.213   1.721   7.394  0.1551  0.2190 -0.4310
 3322SOL    HW1 9965   1.120   1.722   7.370 -0.0037 -1.3566 -0.0213
 3322SOL    HW2 9966   1.248   1.643   7.349  0.2336 -1.8550  2.9021
 3323SOL     OW 9967   0.715   1.683   8.038  0.3243  0.2013  0.2207
 3323SOL    HW1 9968   0.682   1.727   7.959  0.5378 -3.5222 -2.1779
 3323SOL    HW2 9969   0.660   1.716   8.109  0.7645  4.4992 -1.1595
 3324SOL     OW 9970   1.904   4.007   9.108  0.6499  0.2996  0.3994
 3324SOL    HW1 9971   1.882   3.914   9.104 -0.2354  0.4505  1.3207
 3324SOL    HW2 9972   1.833   4.051   9.062  0.2254  0.6252  1.3424
 3325SOL     OW 9973   2.490   3.955   6.701 -0.1362  0.4961 -0.1066
 3325SOL    HW1 9974   2.420   3.936   6.764 -1.0040  1.7896 -0.6479
 3325SOL    HW2 9975   2.472   3.897   6.627  0.3207 -0.3314  0.4180
 3326SOL     OW 9976   2.404   2.517   5.607  0.0350 -0.8035 -0.5766
 3326SOL    HW1 9977   2.487   2.512   5.655  0.0772 -0.5814 -0.6258
 3326SOL    HW2 9978   2.426   2.561   5.526 -0.3227  0.1738 -0.1528
 3327SOL     OW 9979   4.735   1.703   9.877 -0.0924 -0.7130  0.0260
 3327SOL    HW1 9980   4.660   1.714   9.936 -0.7931  0.7012 -1.0778
 3327SOL    HW2 9981   4.696   1.676   9.794  0.8661 -2.4658  0.0990
 3328SOL     OW 9982   2.588   0.815   5.936 -0.3277 -0.3170 -0.2697
 3328SOL    HW1 9983   2.588   0.864   6.018 -0.9048  0.1531 -0.5457
 3328SOL    HW2 9984   2.620   0.728   5.961 -0.3201 -0.1241  0.4191
 3329SOL     OW 9985   2.280   4.640   8.218  0.8127 -0.0771 -0.3858
 3329SOL    HW1 9986   2.350   4.704   8.201  0.2795  0.8307  0.7082
 3329SOL    HW2 9987   2.254   4.609   8.131  1.5269  0.7097 -0.8989
 3330SOL     OW 9988   3.282   4.955   9.887 -0.0886 -0.2652  0.1310
 3330SOL    HW1 9989   3.262   5.025   9.949  3.1903 -0.0755  1.1537
 3330SOL    HW2 9990   3.321   5.000   9.812  2.9636 -0.9108  1.2012
 3331SOL     OW 9991   1.168   0.324   8.868  0.0530 -0.4715  0.1848
 3331SOL    HW1 9992   1.204   0.237   8.884  1.1949  0.0980  0.8433
 3331SOL    HW2 9993   1.179   0.370   8.952  0.2625  0.5750 -0.4012
 3332SOL     OW 9994   3.165   0.507   7.434 -0.1726 -0.0488  0.4061
 3332SOL    HW1 9995   3.133   0.454   7.361 -0.3935  0.6983 -0.0491
 3332SOL    HW2 9996   3.110   0.483   7.508  0.5975 -1.4354  0.5630
 3333SOL     OW 9997   0.162   1.222   8.031 -0.7363 -0.8195 -0.1443
 3333SOL    HW1 9998   0.104   1.147   8.022 -1.6681  0.1075 -2.8279
 3333SOL    HW2 9999   0.106   1.291   8.067 -1.0899 -0.2049 -1.8121
 3334SOL     OW10000   1.666   4.314   9.684 -0.3692  0.2188 -0.0652
 3334SOL    HW110001   1.619   4.239   9.719 -0.8329  0.3062 -0.4778
 3334SOL    HW210002   1.715   4.349   9.758 -1.0116  0.1663  0.3956
 3335SOL     OW10003   4.946   0.863   8.987 -0.5449  0.6153  0.2868
 3335SOL    HW110004   5.025   0.853   8.934 -0.0444  2.7034  0.5365
 3335SOL    HW210005   4.965   0.817   9.068  0.4751  1.1931  0.3899
 3336SOL     OW10006   2.927   1.190   7.460  0.1981  0.5109 -0.6947
 3336SOL    HW110007   2.950   1.168   7.370  0.4653  0.1052 -0.5265
 3336SOL    HW210008   2.963   1.278   7.473 -0.7493  1.0089 -1.3170
 3337SOL     OW10009   4.888   2.712   8.770  0.0080 -0.2587  0.4190
 3337SOL    HW110010   4.950   2.740   8.838  0.0711 -0.7547  0.5714
 3337SOL    HW210011   4.855   2.794   8.732 -0.8003  0.0506  1.7407
 3338SOL     OW10012   4.019   3.193   8.747  0.0217  0.0032  0.3970
 3338SOL    HW110013   4.039   3.185   8.654  0.8332  1.2657  0.4308
 3338SOL    HW210014   4.054   3.113   8.787 -1.9043 -1.3978 -0.5858
 3339SOL     OW10015   0.366   1.024   7.666 -0.0577 -0.2608 -0.2633
 3339SOL    HW110016   0.374   1.097   7.604  1.6783 -0.7480 -0.6513
 3339SOL    HW210017   0.440   1.035   7.726 -0.2536 -1.2402  0.1811
 3340SOL     OW10018   3.685   0.336   8.705  0.8643 -0.6524  0.1456
 3340SOL    HW110019   3.758   0.394   8.681  0.7725 -0.0371  1.2677
 3340SOL    HW210020   3.709   0.302   8.791 -0.2721 -0.2578  0.6323
 3341SOL     OW10021   3.855   4.514   8.522 -0.4455 -0.0429  0.0738
 3341SOL    HW110022   3.811   4.595   8.495 -0.5062  0.2165  0.9357
 3341SOL    HW210023   3.848   4.457   8.445 -1.0363  0.5104 -0.2963
 3342SOL     OW10024   4.881   0.097   9.236 -0.1037  0.2362  0.1558
 3342SOL    HW110025   4.895   0.072   9.145  2.8089  0.0697  0.5342
 3342SOL    HW210026   4.909   0.189   9.240 -2.0526  0.8597  0.5644
 3343SOL     OW10027   4.425   2.274   9.764 -0.7654 -0.3189  0.5175
 3343SOL    HW110028   4.482   2.310   9.832 -0.4956  0.7140 -0.2354
 3343SOL    HW210029   4.485   2.230   9.704 -0.9119 -0.4544  0.4705
 3344SOL     OW10030   3.260   3.243   8.545 -0.2323  0.5510  0.0278
 3344SOL    HW110031   3.311   3.264   8.623  3.2853  2.1523 -2.4411
 3344SOL    HW210032   3.227   3.328   8.514 -0.2269  0.1735 -1.0574
 3345SOL     OW10033   2.024   4.183  10.323  0.2689 -0.7443 -0.3085
 3345SOL    HW110034   1.983   4.257  10.278  1.2601  0.3094  0.4417
 3345SOL    HW210035   1.969   4.167  10.399  1.8671  1.6139  1.5047
 3346SOL     OW10036   0.351   2.961   9.417 -0.2791  0.2387  0.5268
 3346SOL    HW110037   0.269   2.949   9.369  0.9972  1.4587 -2.1758
 3346SOL    HW210038   0.415   2.908   9.369  0.7427 -0.0445  2.1009
 3347SOL     OW10039   3.109   3.257   8.136 -0.4539  0.2799  0.2141
 3347SOL    HW110040   3.040   3.285   8.076 -0.6474 -0.2610  0.1764
 3347SOL    HW210041   3.107   3.161   8.132  0.3850  0.2555  0.1133
 3348SOL     OW10042   1.137   0.991   7.251 -0.5837 -0.1870 -0.4955
 3348SOL    HW110043   1.127   1.077   7.210  2.1504  0.3556 -0.2271
 3348SOL    HW210044   1.174   0.936   7.182  0.1480 -0.3896  0.0391
 3349SOL     OW10045   3.652   2.056   8.141  0.1912 -0.1798  0.2002
 3349SOL    HW110046   3.601   1.984   8.103 -0.0130  1.0355 -1.9824
 3349SOL    HW210047   3.741   2.040   8.111 -0.0378  0.9991 -1.2542
 3350SOL     OW10048   3.308   4.319   8.267  0.0882 -0.4678  0.3036
 3350SOL    HW110049   3.402   4.322   8.251 -0.1984  1.1514 -1.3728
 3350SOL    HW210050   3.295   4.379   8.340  0.2144  0.3372 -0.3283
 3351SOL     OW10051   2.004   4.939   8.218  0.2750  0.5103 -0.1458
 3351SOL    HW110052   2.073   5.006   8.213 -2.1499  3.3473  1.3192
 3351SOL    HW210053   2.027   4.887   8.295  2.0248 -0.1972 -1.0969
 3352SOL     OW10054   3.189   1.798   8.377  0.4822 -0.2981  0.3854
 3352SOL    HW110055   3.155   1.853   8.448  0.3453  0.9950 -0.6325
 3352SOL    HW210056   3.143   1.715   8.386  0.7160 -0.2808  1.9984
 3353SOL     OW10057   3.362   2.361   8.840  0.0951 -0.3676 -0.1272
 3353SOL    HW110058   3.387   2.282   8.794  2.5335 -0.1730  0.7522
 3353SOL    HW210059   3.382   2.432   8.780 -2.1739 -0.3394 -0.9513
 3354SOL     OW10060   4.962   1.274   9.486  0.2426  0.1498 -0.4450
 3354SOL    HW110061   4.908   1.345   9.450  0.1662  0.2446 -0.1534
 3354SOL    HW210062   4.953   1.284   9.581  1.0083  0.3483 -0.3832
 3355SOL     OW10063   4.005   2.805   8.837 -0.1409  0.2903  0.2047
 3355SOL    HW110064   3.927   2.846   8.874  0.1858  1.0246  0.1044
 3355SOL    HW210065   4.073   2.872   8.844 -0.2959  0.8457 -2.5761
 3356SOL     OW10066   4.328   4.742   8.093  0.6318 -0.7554  0.2141
 3356SOL    HW110067   4.285   4.697   8.020 -2.1312  1.8400  0.0871
 3356SOL    HW210068   4.412   4.769   8.057  0.7465 -2.3898 -0.8989
 3357SOL     OW10069   4.899   3.236   9.954  0.1841  0.0119 -0.5242
 3357SOL    HW110070   4.906   3.140   9.951 -0.7916 -0.1697  1.5209
 3357SOL    HW210071   4.987   3.266   9.975  0.1331 -0.5884  0.6433
 3358SOL     OW10072   3.307   3.734   9.534  0.0718 -0.0701 -0.5951
 3358SOL    HW110073   3.235   3.711   9.593  0.8280 -1.5656 -0.1956
 3358SOL    HW210074   3.282   3.696   9.450 -0.9443  1.9477 -1.2563
 3359SOL     OW10075   4.286   3.935   7.736 -0.3550  0.0726  0.6699
 3359SOL    HW110076   4.206   3.911   7.690 -1.9328  0.6789  2.9046
 3359SOL    HW210077   4.354   3.934   7.669 -2.1982 -0.5734 -1.2958
 3360SOL     OW10078   0.979   1.090   9.735 -0.0116 -0.6566  0.2670
 3360SOL    HW110079   0.953   1.154   9.669  1.3444  1.6511  1.8187
 3360SOL    HW210080   0.896   1.055   9.769 -0.7422 -0.9161 -1.6850
 3361SOL     OW10081   0.826   2.889   9.592 -0.0526  0.5096  0.3047
 3361SOL    HW110082   0.765   2.868   9.662 -1.2176 -2.0129 -1.3715
 3361SOL    HW210083   0.910   2.856   9.623 -0.1434  1.1421  1.2760
 3362SOL     OW10084   4.608   1.622   9.628 -0.1261  0.4732  0.3962
 3362SOL    HW110085   4.584   1.553   9.567 -0.1070  0.1241  0.7807
 3362SOL    HW210086   4.547   1.693   9.609 -0.8877 -0.0685  0.7621
 3363SOL     OW10087   1.346   0.857   9.813  0.3626  0.2845 -0.2706
 3363SOL    HW110088   1.432   0.820   9.795 -0.4630 -1.3396 -1.0721
 3363SOL    HW210089   1.338   0.930   9.751  0.3660 -0.8356 -1.6239
 3364SOL     OW10090   3.875   3.281   9.099  0.0355  0.1964 -1.0487
 3364SOL    HW110091   3.847   3.261   9.188  0.5372 -0.9380 -1.1206
 3364SOL    HW210092   3.958   3.327   9.109 -0.2394  0.6677 -0.9191
 3365SOL     OW10093   0.477   4.018  10.151  0.5329  0.0799 -0.2066
 3365SOL    HW110094   0.495   3.927  10.175  1.4336 -0.4772 -2.7137
 3365SOL    HW210095   0.556   4.048  10.107 -0.2825  1.6192 -0.7065
 3366SOL     OW10096   3.952   4.880   8.781 -0.5164  0.3665  0.6874
 3366SOL    HW110097   3.962   4.791   8.748 -2.3396  0.2700  0.3012
 3366SOL    HW210098   4.037   4.900   8.821  1.4944  0.0711 -2.9855
 3367SOL     OW10099   3.486   2.300   9.904 -1.0835 -0.1014 -0.1806
 3367SOL    HW110100   3.435   2.227   9.940 -1.7424 -0.6790 -2.1674
 3367SOL    HW210101   3.420   2.364   9.876 -0.6641 -0.0837 -1.1739
 3368SOL     OW10102   1.763   1.729   8.353  0.1635 -0.2773 -0.4510
 3368SOL    HW110103   1.732   1.819   8.359 -1.3102 -0.7426 -0.5505
 3368SOL    HW210104   1.782   1.716   8.261  2.3262  0.5056 -0.1641
 3369SOL     OW10105   0.045   4.006   8.000 -0.4461  0.1221  0.5132
 3369SOL    HW110106   0.029   4.094   7.966 -0.2477 -0.1482 -0.2815
 3369SOL    HW210107  -0.009   3.949   7.946 -1.1982 -0.1802  1.5382
 3370SOL     OW10108   2.759   4.277   8.804  1.2450 -0.1700 -0.5205
 3370SOL    HW110109   2.838   4.326   8.827  0.5608  1.0038 -0.5661
 3370SOL    HW210110   2.767   4.261   8.710  0.9487  0.8808 -0.7350
 3371SOL     OW10111   4.497   1.791   9.104 -0.1409 -0.2452  0.2915
 3371SOL    HW110112   4.453   1.749   9.030  1.5979 -0.0401 -0.9372
 3371SOL    HW210113   4.440   1.863   9.128 -2.1858 -2.0310  1.1042
 3372SOL     OW10114   4.413   1.541   6.677 -0.3359 -0.2439  0.9369
 3372SOL    HW110115   4.330   1.525   6.632 -0.0465  0.0418  0.2847
 3372SOL    HW210116   4.445   1.624   6.640  0.1128 -0.2130  1.3732
 3373SOL     OW10117   0.046   1.917   8.576  0.3309 -0.2130  0.1640
 3373SOL    HW110118  -0.013   1.991   8.560  0.0037 -0.1707  1.4722
 3373SOL    HW210119   0.112   1.952   8.635  0.8340 -0.6660 -0.1246
 3374SOL     OW10120   3.781   0.647   7.810  0.4891  0.0889 -0.0337
 3374SOL    HW110121   3.789   0.552   7.816 -2.3118 -0.3262 -1.3192
 3374SOL    HW210122   3.822   0.680   7.890  0.3807 -2.2812  1.0739
 3375SOL     OW10123   4.160   4.109   9.130  0.0503  0.2188  0.0928
 3375SOL    HW110124   4.139   4.202   9.144  2.0092  0.7813 -0.3945
 3375SOL    HW210125   4.096   4.080   9.065 -0.4787  1.2699  0.1118
 3376SOL     OW10126   1.033   3.986  10.170 -0.6808 -0.3249  0.5972
 3376SOL    HW110127   1.071   4.019  10.089 -1.5323 -1.0413 -0.1166
 3376SOL    HW210128   1.088   4.022  10.239 -0.0438  0.4367 -0.2899
 3377SOL     OW10129   3.907   3.254   9.827  0.1319  0.0124 -0.5852
 3377SOL    HW110130   3.851   3.246   9.751 -0.0510 -0.3611 -0.4120
 3377SOL    HW210131   3.931   3.164   9.850  0.4544  0.1422 -0.4045
 3378SOL     OW10132   0.300   2.408   6.367 -0.1305 -0.5224  0.1306
 3378SOL    HW110133   0.359   2.406   6.291  0.5710  1.3651  0.5645
 3378SOL    HW210134   0.213   2.393   6.331 -0.0350  2.0249 -1.3493
 3379SOL     OW10135   0.809   3.683   9.566 -1.0524  0.4436  0.1888
 3379SOL    HW110136   0.851   3.625   9.502  0.1867  0.8699  0.5940
 3379SOL    HW210137   0.770   3.624   9.630  0.8395  0.0190  1.0116
 3380SOL     OW10138   2.172   3.711   8.459  0.1470 -0.2885  0.3067
 3380SOL    HW110139   2.237   3.659   8.411 -0.2358 -0.1943 -0.3177
 3380SOL    HW210140   2.113   3.744   8.392  0.7245  1.4700  0.6117
 3381SOL     OW10141   4.778   3.443  10.073  0.6083  0.1121 -0.4526
 3381SOL    HW110142   4.840   3.485  10.013 -0.1363 -0.0253 -1.3317
 3381SOL    HW210143   4.800   3.350  10.069 -0.0837 -0.0291 -1.3034
 3382SOL     OW10144   0.197   3.323   7.772  0.0576 -0.2238 -0.1082
 3382SOL    HW110145   0.172   3.415   7.782 -1.3899 -0.7301  1.5134
 3382SOL    HW210146   0.180   3.304   7.680  1.2675  1.3498 -0.6894
 3383SOL     OW10147   3.017   2.691   9.679  0.5717  0.7756  0.0176
 3383SOL    HW110148   3.077   2.763   9.701  0.4796  1.5133 -1.9766
 3383SOL    HW210149   3.010   2.694   9.584  1.4133 -2.5805 -0.2762
 3384SOL     OW10150   2.955   2.223   9.797 -0.4629  0.4137  0.3707
 3384SOL    HW110151   3.013   2.279   9.744  1.1158  0.5119  2.1066
 3384SOL    HW210152   3.015   2.167   9.846 -1.8533  0.4546  2.1917
 3385SOL     OW10153   0.488   0.809   5.241  0.0925  0.3451  0.1751
 3385SOL    HW110154   0.554   0.878   5.242  0.6265 -0.1581 -0.1104
 3385SOL    HW210155   0.444   0.818   5.326 -0.6364  1.7754 -0.3081
 3386SOL     OW10156   2.579   4.654   5.614  0.1696 -0.8423 -0.5472
 3386SOL    HW110157   2.669   4.665   5.584  0.3322  0.2392  0.2734
 3386SOL    HW210158   2.584   4.585   5.680  0.2723 -1.3174 -1.0539
 3387SOL     OW10159   4.582   1.456  10.222 -0.1727 -0.5542  0.1238
 3387SOL    HW110160   4.495   1.427  10.249 -0.4753  0.1699 -0.0248
 3387SOL    HW210161   4.640   1.430  10.293 -0.5219 -1.0026  0.2447
 3388SOL     OW10162   4.755   0.893   8.599  0.5558  0.5982 -0.1926
 3388SOL    HW110163   4.755   0.842   8.517  0.0342 -0.8687  0.6852
 3388SOL    HW210164   4.837   0.869   8.642  0.6928  1.1508 -0.1427
 3389SOL     OW10165   0.649   2.805   8.306  0.3168  0.4743  0.2261
 3389SOL    HW110166   0.614   2.728   8.352 -3.1659  1.9265  0.3282
 3389SOL    HW210167   0.593   2.815   8.230  1.6744  2.0562 -0.6186
 3390SOL     OW10168   3.639   1.622   8.306  0.1026  0.2088 -0.4074
 3390SOL    HW110169   3.587   1.616   8.226 -0.7727 -2.1258  0.2636
 3390SOL    HW210170   3.699   1.548   8.301  0.7686  0.6529  0.6252
 3391SOL     OW10171   1.981   1.228   9.231  0.6151  0.0188  0.0623
 3391SOL    HW110172   1.954   1.315   9.260 -1.6217 -0.3844 -0.6792
 3391SOL    HW210173   1.985   1.176   9.311  1.8028  0.7105  0.4883
 3392SOL     OW10174   3.071   2.112   8.902  0.4365 -0.1814  0.4817
 3392SOL    HW110175   2.979   2.093   8.885  0.7273 -1.0954 -0.1847
 3392SOL    HW210176   3.079   2.113   8.997 -0.3522  0.4151  0.5515
 3393SOL     OW10177   0.419   2.858   8.916 -0.3634 -0.1894  0.2535
 3393SOL    HW110178   0.381   2.917   8.850 -0.7851 -2.4406 -1.6650
 3393SOL    HW210179   0.479   2.804   8.866 -1.6010 -2.8119  1.4367
 3394SOL     OW10180   4.042   2.969   9.788  0.2282 -0.3127  0.1629
 3394SOL    HW110181   4.138   2.967   9.784  0.3099  0.6516  1.0949
 3394SOL    HW210182   4.014   2.961   9.697  1.2233 -0.0008 -0.1837
 3395SOL     OW10183   0.525   2.534   8.384  0.4657 -0.0449  0.4892
 3395SOL    HW110184   0.605   2.482   8.391  0.0376 -0.7303  0.3737
 3395SOL    HW210185   0.490   2.513   8.298  1.0024  1.5071 -0.1431
 3396SOL     OW10186   3.592   1.530   9.717 -0.1097 -0.2906 -0.0246
 3396SOL    HW110187   3.507   1.574   9.718  0.7648  1.5173  1.7916
 3396SOL    HW210188   3.571   1.439   9.696 -2.2839  0.4146 -1.3181
 3397SOL     OW10189   2.222   3.915   8.645  0.4553 -0.3835 -0.3172
 3397SOL    HW110190   2.137   3.884   8.677 -0.1405  1.2964 -0.1812
 3397SOL    HW210191   2.241   3.859   8.569 -2.0239  0.8004 -1.9489
 3398SOL     OW10192   3.546   0.067   9.125  0.2961  0.2889 -0.1639
 3398SOL    HW110193   3.521  -0.004   9.066  1.0740  2.1461 -2.9117
 3398SOL    HW210194   3.466   0.086   9.175 -0.4570 -1.2209 -0.7243
 3399SOL     OW10195   3.548   2.118   9.188  0.1314  0.1608  0.3923
 3399SOL    HW110196   3.622   2.078   9.144  0.7644  1.0401  0.6195
 3399SOL    HW210197   3.548   2.209   9.157 -2.6759 -0.4960 -1.9405
 3400SOL     OW10198   1.050   4.902   9.604  0.2080  0.7843 -0.4068
 3400SOL    HW110199   0.961   4.868   9.611  0.2837  0.7250  0.3390
 3400SOL    HW210200   1.105   4.832   9.639  0.6622  0.3477 -1.9415
 3401SOL     OW10201   3.698   2.501   8.733 -0.2418  0.0233 -0.1626
 3401SOL    HW110202   3.635   2.472   8.667 -0.6519  3.1240 -1.3187
 3401SOL    HW210203   3.680   2.595   8.742  2.4815  0.4743  1.4558
 3402SOL     OW10204   2.831   1.252   9.079 -0.0248  0.6828 -0.4289
 3402SOL    HW110205   2.736   1.258   9.070 -0.1884  1.6188  1.3318
 3402SOL    HW210206   2.863   1.339   9.058  0.1652  1.0567  1.2146
 3403SOL     OW10207   3.751   0.686   9.930  0.5285 -0.5819  0.0616
 3403SOL    HW110208   3.796   0.619   9.879 -1.1996 -1.5690 -0.2723
 3403SOL    HW210209   3.738   0.759   9.869  0.7946 -0.6860 -0.1201
 3404SOL     OW10210   1.038   0.754   6.670  0.2483  0.1966 -0.4420
 3404SOL    HW110211   1.089   0.834   6.680  0.5866 -0.2374  1.9396
 3404SOL    HW210212   1.073   0.713   6.591  0.4111  2.1204 -1.4197
 3405SOL     OW10213   1.845   4.195  10.046  0.8199  0.2675  0.2307
 3405SOL    HW110214   1.841   4.266   9.982  0.2416  0.3319  0.3309
 3405SOL    HW210215   1.938   4.181  10.061  0.9775  2.4007  1.7467
 3406SOL     OW10216   0.752   1.827   5.118  0.0064 -0.5051  0.9072
 3406SOL    HW110217   0.678   1.826   5.179 -0.2576 -0.3647  0.5946
 3406SOL    HW210218   0.772   1.920   5.107  0.7831 -0.5803  1.6489
 3407SOL     OW10219   3.227   0.633   7.131  0.4328  0.2662 -0.1446
 3407SOL    HW110220   3.149   0.623   7.185  1.0971 -1.3362  0.5927
 3407SOL    HW210221   3.199   0.606   7.043  0.2806 -0.9152  0.2505
 3408SOL     OW10222   4.252   0.565   8.981 -0.7049  0.3503  0.0263
 3408SOL    HW110223   4.188   0.578   8.911 -0.9292  0.9395  0.3405
 3408SOL    HW210224   4.298   0.649   8.989 -0.8585  0.3761  0.7602
 3409SOL     OW10225   1.240   0.221   6.874  0.2912 -0.1474 -0.4246
 3409SOL    HW110226   1.199   0.293   6.826  0.2871 -1.6542 -2.9009
 3409SOL    HW210227   1.169   0.160   6.892  0.5431 -0.2347  0.3201
 3410SOL     OW10228   4.882   4.539   9.657  0.2615  0.1016  0.2021
 3410SOL    HW110229   4.897   4.549   9.751  0.2677 -1.9498  0.4544
 3410SOL    HW210230   4.854   4.626   9.629 -3.8087 -0.0369  2.8930
 3411SOL     OW10231   4.528   0.437  10.218  0.5157 -0.5107  0.7359
 3411SOL    HW110232   4.599   0.407  10.162  1.3526 -2.7114  2.8118
 3411SOL    HW210233   4.449   0.411  10.173  1.1320 -1.4092  0.1457
 3412SOL     OW10234   0.657   1.591   9.818 -0.2845 -0.0320  0.6482
 3412SOL    HW110235   0.563   1.580   9.836 -0.4000 -1.1886 -0.5573
 3412SOL    HW210236   0.691   1.502   9.810  0.8821  0.3818  0.8075
 3413SOL     OW10237   3.413   0.843  10.432 -0.3847  0.5707  0.2143
 3413SOL    HW110238   3.481   0.899  10.468  0.4471  0.5398 -1.2103
 3413SOL    HW210239   3.457   0.759  10.414 -0.8815  0.4149 -0.3372
 3414SOL     OW10240   4.237   0.177  10.286  0.3862 -0.4080 -0.8180
 3414SOL    HW110241   4.232   0.091  10.328  0.3661  0.5479  1.2611
 3414SOL    HW210242   4.309   0.222  10.330  0.4377  0.6437 -1.9042
 3415SOL     OW10243   1.246   3.741   8.236  0.6770 -0.0887  0.6111
 3415SOL    HW110244   1.276   3.660   8.194  1.3683  0.1905  0.5539
 3415SOL    HW210245   1.151   3.730   8.244 -0.0612  1.0784 -3.8032
 3416SOL     OW10246   1.038   0.168  10.358 -0.1254 -0.3272 -0.2198
 3416SOL    HW110247   1.126   0.193  10.388 -0.5076  0.5155  0.2383
 3416SOL    HW210248   1.005   0.246  10.313 -0.8766 -0.4269  0.1487
 3417SOL     OW10249   2.340   1.061   9.421 -0.1455 -0.4029 -0.1395
 3417SOL    HW110250   2.403   1.134   9.418 -1.5580  0.8351 -1.3540
 3417SOL    HW210251   2.345   1.031   9.512  0.4873  1.2243  0.4238
 3418SOL     OW10252   2.654   4.580   9.136 -0.1737 -0.9615  0.4355
 3418SOL    HW110253   2.692   4.508   9.187 -1.3068 -3.0824 -1.5335
 3418SOL    HW210254   2.728   4.618   9.089  0.5637 -0.2663  2.0743
 3419SOL     OW10255   2.480   1.894  10.103 -0.6603 -0.0180  0.1269
 3419SOL    HW110256   2.446   1.983  10.109  1.5875  0.7877  3.0602
 3419SOL    HW210257   2.557   1.901  10.046 -2.2415 -0.8388 -2.2798
 3420SOL     OW10258   0.259   1.712   5.529 -0.3723 -0.3890  0.2822
 3420SOL    HW110259   0.233   1.676   5.614 -0.1050  0.3088  0.6675
 3420SOL    HW210260   0.185   1.768   5.504 -0.0278  0.1901  0.5353
 3421SOL     OW10261   4.584   3.095   8.856  0.1016 -0.0130 -0.6607
 3421SOL    HW110262   4.526   3.074   8.929  1.0471  0.8676  0.3882
 3421SOL    HW210263   4.525   3.115   8.783 -0.8544 -1.3075 -0.2751
 3422SOL     OW10264   0.690   4.034   8.586  0.1036 -0.3050 -0.5131
 3422SOL    HW110265   0.650   3.964   8.534  0.5618 -1.2076  0.3089
 3422SOL    HW210266   0.625   4.054   8.654  0.6025 -1.0555  0.2038
 3423SOL     OW10267   0.597   0.505   8.664 -0.1841  0.3792 -0.6971
 3423SOL    HW110268   0.656   0.578   8.682  1.4367 -1.1374  0.4264
 3423SOL    HW210269   0.626   0.435   8.722 -1.0817 -1.4818 -2.3616
 3424SOL     OW10270   0.439   1.470   9.272  0.4369  0.4406 -0.5604
 3424SOL    HW110271   0.468   1.541   9.215 -0.5938  1.3485  0.0110
 3424SOL    HW210272   0.344   1.471   9.265  0.1773  1.2860  1.9496
 3425SOL     OW10273   4.427   2.475   6.179 -0.7275  0.2316 -0.4624
 3425SOL    HW110274   4.425   2.514   6.092 -2.7674 -1.3333 -1.1908
 3425SOL    HW210275   4.338   2.485   6.212 -0.4611 -0.8567  0.6651
 3426SOL     OW10276   0.506   2.547   6.873  0.7571  0.2101  0.2458
 3426SOL    HW110277   0.499   2.614   6.805 -0.8747  1.0134  1.1303
 3426SOL    HW210278   0.468   2.589   6.951 -2.4793 -2.4172  0.3040
 3427SOL     OW10279   1.189   0.417   6.616 -0.0074 -0.6420 -0.5379
 3427SOL    HW110280   1.110   0.400   6.565 -0.7624 -0.1926  0.4676
 3427SOL    HW210281   1.221   0.501   6.583  0.4093 -1.1017 -1.3572
 3428SOL     OW10282   3.632   3.991   5.877  0.0804  0.2800  0.4171
 3428SOL    HW110283   3.584   4.048   5.817  0.2752  0.7880  0.7309
 3428SOL    HW210284   3.676   3.928   5.821  1.5927  1.7361 -0.1314
 3429SOL     OW10285   3.830   4.308   7.844  0.0613  0.2917  0.4035
 3429SOL    HW110286   3.859   4.345   7.761 -0.5408 -0.4597 -0.1561
 3429SOL    HW210287   3.910   4.297   7.895  0.2515  2.3995  0.6194
 3430SOL     OW10288   3.475   2.030   7.495 -0.0420 -0.5718  0.0990
 3430SOL    HW110289   3.482   2.123   7.472 -3.2082 -0.4189 -0.8021
 3430SOL    HW210290   3.476   1.984   7.411  3.2410 -1.6424  0.5948
 3431SOL     OW10291   4.100   1.764   5.442  0.0343 -0.1487 -0.7060
 3431SOL    HW110292   4.122   1.688   5.496 -1.3862  1.1177  1.8968
 3431SOL    HW210293   4.175   1.823   5.453 -0.0453 -0.0878 -0.4717
 3432SOL     OW10294   2.881   3.604   6.687 -0.1888 -0.5379 -0.6112
 3432SOL    HW110295   2.918   3.680   6.733 -1.2813  0.2378 -0.9834
 3432SOL    HW210296   2.916   3.528   6.735 -1.9899  0.2339  2.1491
 3433SOL     OW10297   2.173   2.668   5.678  0.0682  0.0790 -0.6112
 3433SOL    HW110298   2.252   2.628   5.641  0.0929  1.5126 -2.2908
 3433SOL    HW210299   2.193   2.762   5.680 -1.1148  0.3358  0.2065
 3434SOL     OW10300   4.778   3.223   7.063 -0.1786  0.1991 -0.1188
 3434SOL    HW110301   4.729   3.265   6.992  0.1394 -0.1998 -0.5805
 3434SOL    HW210302   4.776   3.287   7.134  2.1022  1.9446 -1.4861
 3435SOL     OW10303   0.147   4.846   5.549  0.0735 -0.3105  0.8077
 3435SOL    HW110304   0.169   4.939   5.549 -1.4426  0.0908  1.1713
 3435SOL    HW210305   0.226   4.801   5.520  0.4053  1.2007 -0.7293
 3436SOL     OW10306   0.594   4.635   5.428  0.0510  0.1988 -0.2209
 3436SOL    HW110307   0.558   4.548   5.414 -2.1813  0.8662  0.9274
 3436SOL    HW210308   0.681   4.619   5.466 -0.3543 -1.5163  0.0752
 3437SOL     OW10309   2.928   2.120   5.179  0.1939 -0.7546 -0.1040
 3437SOL    HW110310   2.963   2.039   5.140 -0.0173 -2.0590  2.2377
 3437SOL    HW210311   2.860   2.149   5.118  0.6925 -1.9938 -1.3028
 3438SOL     OW10312   2.662   0.261   7.925  0.0201 -0.4204  0.1592
 3438SOL    HW110313   2.722   0.187   7.909 -1.0455 -1.0593 -0.9915
 3438SOL    HW210314   2.684   0.325   7.858  0.6331  0.1578  0.8798
 3439SOL     OW10315   1.997   1.176   6.549  0.7278 -0.1581  0.1482
 3439SOL    HW110316   2.033   1.246   6.494 -1.3949  1.0951  0.2365
 3439SOL    HW210317   1.918   1.215   6.588  1.5888 -1.2896  3.3285
 3440SOL     OW10318   0.198   3.985   6.025 -1.3804 -0.3041  0.1159
 3440SOL    HW110319   0.259   4.059   6.033 -2.0973  0.1507  1.7007
 3440SOL    HW210320   0.111   4.025   6.025 -1.7693 -1.1318  0.6667
 3441SOL     OW10321   4.496   4.151   6.335  0.2770  0.2981 -0.7903
 3441SOL    HW110322   4.555   4.131   6.262 -0.3097  0.4074 -1.3000
 3441SOL    HW210323   4.495   4.071   6.388  0.3890  0.0794 -1.1183
 3442SOL     OW10324   3.961   1.081   6.503 -0.1682 -0.1820 -1.2557
 3442SOL    HW110325   3.953   1.176   6.497  1.0269  0.0270  0.0707
 3442SOL    HW210326   4.046   1.066   6.544 -2.2444 -1.6025  3.2735
 3443SOL     OW10327   0.677   1.950   7.473 -0.4723 -0.2920 -0.1332
 3443SOL    HW110328   0.644   1.864   7.499 -2.1808  0.3377 -0.1416
 3443SOL    HW210329   0.697   1.994   7.556 -0.8545 -0.2220 -0.0768
 3444SOL     OW10330   4.621   3.852   5.666  0.3985 -0.7641 -0.4105
 3444SOL    HW110331   4.694   3.903   5.701  0.4602  0.4049 -2.1292
 3444SOL    HW210332   4.598   3.792   5.737 -0.0747  2.0065  2.0035
 3445SOL     OW10333   4.846   3.575   5.245  0.3473  0.5639  0.3539
 3445SOL    HW110334   4.774   3.599   5.187 -1.1862 -1.7051  1.1788
 3445SOL    HW210335   4.912   3.537   5.186  0.0781  0.9522 -0.2119
 3446SOL     OW10336   4.239   2.242   5.943  0.0962  0.4496  0.2762
 3446SOL    HW110337   4.241   2.323   5.891 -1.4260  0.3227 -0.0100
 3446SOL    HW210338   4.158   2.198   5.917  0.7137 -0.9931  0.7150
 3447SOL     OW10339   3.682   4.597   5.468  0.3637  0.2991  0.1538
 3447SOL    HW110340   3.602   4.568   5.511  0.4544  2.0979  1.6878
 3447SOL    HW210341   3.653   4.627   5.381 -0.8539  1.8849  1.0515
 3448SOL     OW10342   1.897   3.389   9.264 -0.2406 -0.0163  0.4928
 3448SOL    HW110343   1.991   3.390   9.283  0.1243  1.3812 -1.0617
 3448SOL    HW210344   1.886   3.319   9.200 -0.4424 -0.8365  1.4153
 3449SOL     OW10345   2.304   2.259   5.657  0.5401  0.9636 -0.2683
 3449SOL    HW110346   2.360   2.335   5.638 -0.8947  2.2914  0.5764
 3449SOL    HW210347   2.219   2.297   5.680 -0.0233 -0.8736  0.9053
 3450SOL     OW10348   3.229   1.271   6.049  0.2061  0.1155  0.0925
 3450SOL    HW110349   3.280   1.237   6.122  3.1858  1.6888 -1.0791
 3450SOL    HW210350   3.239   1.205   5.980 -0.7418 -0.3146  0.3462
 3451SOL     OW10351   1.582   0.997   6.565 -0.0512 -0.4138 -0.7342
 3451SOL    HW110352   1.583   1.024   6.656 -0.3400  0.7410 -1.0600
 3451SOL    HW210353   1.631   0.914   6.564  1.2645  0.3213  0.2292
 3452SOL     OW10354   0.894   3.787   5.260 -0.1845  0.2788 -0.4935
 3452SOL    HW110355   0.809   3.800   5.219 -0.2695 -2.1535 -1.2028
 3452SOL    HW210356   0.874   3.761   5.350 -0.3974 -2.6384 -1.2782
 3453SOL     OW10357   0.621   4.455   6.847  0.7320 -0.3461 -1.1583
 3453SOL    HW110358   0.690   4.397   6.881 -0.2259 -0.3935  0.8434
 3453SOL    HW210359   0.632   4.536   6.895 -0.5491 -0.3350 -0.8417
 3454SOL     OW10360   1.233   4.757   6.307  0.0486  0.2336  0.2381
 3454SOL    HW110361   1.154   4.792   6.348 -1.4687 -1.5978 -0.9455
 3454SOL    HW210362   1.219   4.771   6.213  1.6433  0.8107  0.0515
 3455SOL     OW10363   3.954   4.748   6.943 -0.4196 -0.6290 -0.1830
 3455SOL    HW110364   3.983   4.799   7.018 -0.8525  0.9095 -0.9981
 3455SOL    HW210365   3.858   4.750   6.948 -0.5717  1.5375 -1.9571
 3456SOL     OW10366   4.997   4.353   6.348  0.4207 -0.2217 -0.1995
 3456SOL    HW110367   4.944   4.277   6.323 -0.4560 -0.1338  1.3058
 3456SOL    HW210368   4.983   4.415   6.277 -1.7434 -0.1082  0.2601
 3457SOL     OW10369   3.588   2.676   7.893 -0.0299 -0.3472  0.4180
 3457SOL    HW110370   3.633   2.598   7.925  2.4856 -0.4658 -2.8899
 3457SOL    HW210371   3.656   2.743   7.890 -1.2371  0.8779 -0.3979
 3458SOL     OW10372   4.264   2.809   5.405 -0.0276 -0.3576 -0.1457
 3458SOL    HW110373   4.346   2.761   5.393 -0.3152 -1.0010  0.4259
 3458SOL    HW210374   4.232   2.823   5.316 -0.6419 -2.4627 -0.3015
 3459SOL     OW10375   1.785   1.396   5.900  0.0496  0.6524 -0.0908
 3459SOL    HW110376   1.848   1.329   5.873 -0.3914  1.0281 -2.1976
 3459SOL    HW210377   1.820   1.428   5.983  0.6962 -1.5996  0.5908
 3460SOL     OW10378   1.378   3.463   6.309 -0.0310 -0.4212 -0.7757
 3460SOL    HW110379   1.440   3.393   6.331  0.8614  1.4671  3.9693
 3460SOL    HW210380   1.313   3.460   6.380 -1.0159  2.3775 -1.4453
 3461SOL     OW10381   5.014   1.720   5.387 -0.0659 -0.7340  0.7721
 3461SOL    HW110382   5.014   1.809   5.351 -0.5537 -0.9387  0.2467
 3461SOL    HW210383   4.922   1.698   5.396  0.0363 -1.5127  0.0505
 3462SOL     OW10384   4.183   2.416   7.055 -0.8509 -0.7283 -0.7571
 3462SOL    HW110385   4.209   2.481   7.120 -4.1936  0.3483 -0.3117
 3462SOL    HW210386   4.181   2.334   7.104 -1.7152 -0.2169  0.0965
 3463SOL     OW10387   0.889   3.746   4.302 -0.6971  0.5066  0.4875
 3463SOL    HW110388   0.946   3.668   4.298 -2.3620 -0.7360 -0.0343
 3463SOL    HW210389   0.921   3.794   4.378  0.7814 -0.3623  0.4658
 3464SOL     OW10390   0.222   0.623   7.759 -0.5686  0.4842  0.1984
 3464SOL    HW110391   0.202   0.655   7.671  1.4658  0.3700 -0.3631
 3464SOL    HW210392   0.199   0.696   7.817 -1.8178  0.6030 -0.4141
 3465SOL     OW10393   3.163   4.622   5.757  0.4831 -0.1578  1.2307
 3465SOL    HW110394   3.229   4.688   5.775  0.0376  0.2714  1.3224
 3465SOL    HW210395   3.087   4.648   5.809 -0.2052  0.0905  0.1479
 3466SOL     OW10396   1.430   4.283   6.510 -0.0713  0.5417  0.1347
 3466SOL    HW110397   1.521   4.311   6.499  0.8924 -1.3964  2.3995
 3466SOL    HW210398   1.415   4.218   6.441  1.4515 -1.6023  1.6972
 3467SOL     OW10399   0.567   1.313   5.352  0.2067  0.2858 -0.3782
 3467SOL    HW110400   0.499   1.370   5.315 -0.5233 -1.2197 -1.4556
 3467SOL    HW210401   0.519   1.249   5.404  0.9701  0.3351  0.4042
 3468SOL     OW10402   0.590   1.050   6.189  0.4491  0.4730  0.6699
 3468SOL    HW110403   0.590   1.111   6.115 -1.3083 -1.7591 -1.3246
 3468SOL    HW210404   0.599   0.964   6.149 -3.1815 -1.0857  2.7065
 3469SOL     OW10405   2.177   0.400   5.698 -0.2404  0.3587 -0.2386
 3469SOL    HW110406   2.148   0.465   5.635 -0.6029 -0.5305 -1.0252
 3469SOL    HW210407   2.176   0.317   5.650  1.9603  0.0074  0.1857
 3470SOL     OW10408   2.620   3.308   6.126 -0.1998  0.7381 -0.4367
 3470SOL    HW110409   2.592   3.396   6.100 -2.0323  0.8637  1.5909
 3470SOL    HW210410   2.564   3.249   6.075  0.8635  0.7272 -1.6203
 3471SOL     OW10411   3.280   4.264   6.059  0.1265 -0.1432  0.0762
 3471SOL    HW110412   3.299   4.173   6.080 -0.6655  0.0431  1.7779
 3471SOL    HW210413   3.267   4.265   5.964  1.9095 -1.4355 -0.2301
 3472SOL     OW10414   4.688   3.128   4.775 -0.2091 -0.2930  0.3162
 3472SOL    HW110415   4.685   3.181   4.694 -2.2489 -0.3045  0.3288
 3472SOL    HW210416   4.771   3.151   4.815 -0.0991  1.3450 -0.7411
 3473SOL     OW10417   0.917   1.492   7.360 -0.3228  0.0704 -0.4087
 3473SOL    HW110418   0.949   1.463   7.446  1.5271 -1.9088 -1.6503
 3473SOL    HW210419   0.831   1.450   7.351 -0.5599  0.3404  0.4539
 3474SOL     OW10420   2.125   3.413   7.460  0.0233  0.4966  0.3635
 3474SOL    HW110421   2.168   3.355   7.523  0.7153  1.1056  0.4729
 3474SOL    HW210422   2.038   3.429   7.496 -0.3251 -0.8000  0.1178
 3475SOL     OW10423   2.784   4.339   5.532  0.6017 -1.0249 -0.4314
 3475SOL    HW110424   2.835   4.401   5.584 -2.4593  0.2403  1.3456
 3475SOL    HW210425   2.740   4.284   5.597 -2.0682 -0.4968 -1.6738
 3476SOL     OW10426   4.948   2.846   6.194 -0.1603  0.2572 -0.0929
 3476SOL    HW110427   4.906   2.762   6.174  1.2717 -0.2975 -0.9758
 3476SOL    HW210428   5.040   2.831   6.174  0.0419  2.2176 -0.7991
 3477SOL     OW10429   3.347   1.541   6.407 -0.0001  0.2772 -0.2374
 3477SOL    HW110430   3.279   1.603   6.382  1.0878  1.5455 -0.1767
 3477SOL    HW210431   3.312   1.496   6.484 -0.8450  0.7482 -0.3411
 3478SOL     OW10432   3.813   3.265   5.900  0.8680  0.5294 -0.1440
 3478SOL    HW110433   3.902   3.240   5.873  0.4487 -1.0387 -0.1541
 3478SOL    HW210434   3.764   3.183   5.900 -0.4545  1.2926  0.3968
 3479SOL     OW10435   3.634   0.074   6.336 -0.4283 -0.2384  0.4235
 3479SOL    HW110436   3.695   0.136   6.376 -1.7801  0.9361  0.7808
 3479SOL    HW210437   3.620   0.007   6.403 -1.0987  0.6072  1.1535
 3480SOL     OW10438   3.251   3.775   7.096 -0.3072 -0.2626  0.3594
 3480SOL    HW110439   3.196   3.837   7.143  2.7788  1.5137  1.9512
 3480SOL    HW210440   3.293   3.828   7.027  1.0659 -0.9511  0.6282
 3481SOL     OW10441   3.325   3.208   5.414 -0.3382 -0.3180 -0.4422
 3481SOL    HW110442   3.372   3.151   5.475 -1.0246  0.5033  0.8986
 3481SOL    HW210443   3.233   3.185   5.425 -0.5486  0.4552 -0.5210
 3482SOL     OW10444   1.200   2.211   7.894 -0.0471  0.1719 -0.6275
 3482SOL    HW110445   1.158   2.192   7.810 -2.3031  0.2217  0.4085
 3482SOL    HW210446   1.173   2.301   7.914  1.7061  0.7039 -0.5229
 3483SOL     OW10447   0.310   3.797   7.925 -0.2250 -0.6053 -0.0931
 3483SOL    HW110448   0.391   3.764   7.886  0.4768  0.3579  0.5041
 3483SOL    HW210449   0.311   3.891   7.908 -0.8437 -0.4668  0.5809
 3484SOL     OW10450   4.049   3.861   7.577 -0.4496 -0.2811  0.1221
 3484SOL    HW110451   4.097   3.786   7.539 -2.0231  0.2558 -3.3302
 3484SOL    HW210452   3.973   3.822   7.620 -0.2717 -0.7708 -0.0001
 3485SOL     OW10453   1.735   0.424   8.485  0.2054  0.2485 -0.1977
 3485SOL    HW110454   1.688   0.500   8.519  1.0227  1.2000 -1.0888
 3485SOL    HW210455   1.666   0.366   8.452 -0.4536  0.4296  0.8286
 3486SOL     OW10456   4.121   0.036   6.109  0.1071  0.0625  0.4194
 3486SOL    HW110457   4.029   0.011   6.098  0.1756 -0.0905  0.1721
 3486SOL    HW210458   4.152  -0.017   6.182 -0.3210  0.9888  1.2938
 3487SOL     OW10459   3.290   0.987   5.623  0.1935  0.4323  0.0275
 3487SOL    HW110460   3.315   0.989   5.530 -0.1069  0.7868 -0.0504
 3487SOL    HW210461   3.239   0.907   5.633 -0.3523  0.7365 -0.2715
 3488SOL     OW10462   3.620   4.298   5.308 -0.0567  0.0376  0.0036
 3488SOL    HW110463   3.540   4.348   5.324  0.1252  0.1401  0.6318
 3488SOL    HW210464   3.642   4.316   5.216 -0.4669  0.4213 -0.0230
 3489SOL     OW10465   0.662   0.411   8.963  0.2312 -0.1720 -0.2536
 3489SOL    HW110466   0.581   0.431   9.011  0.1018 -0.6036 -0.2838
 3489SOL    HW210467   0.666   0.315   8.963  0.5191 -0.1606 -0.6252
 3490SOL     OW10468   1.458   1.435   7.674  0.0638 -0.4348  0.0567
 3490SOL    HW110469   1.432   1.524   7.652 -1.8129 -0.8813  0.2967
 3490SOL    HW210470   1.396   1.379   7.627  1.5095 -1.6477 -0.4770
 3491SOL     OW10471   2.978   1.591   8.260  0.2642 -0.0609  0.1330
 3491SOL    HW110472   2.942   1.588   8.349  0.9721  1.9792  0.5348
 3491SOL    HW210473   2.918   1.536   8.208 -2.6675  2.0253  1.0271
 3492SOL     OW10474   3.426   3.879   5.593 -0.2781  0.7084 -0.4258
 3492SOL    HW110475   3.353   3.822   5.617 -0.7507  0.9058 -1.3222
 3492SOL    HW210476   3.494   3.820   5.562 -0.0885  0.5283  0.3244
 3493SOL     OW10477   3.327   0.535   6.065  0.6315 -0.3245  0.0354
 3493SOL    HW110478   3.307   0.497   6.151  1.3513 -1.5843 -0.3282
 3493SOL    HW210479   3.421   0.551   6.067  0.5060  0.4586 -0.2077
 3494SOL     OW10480   0.297   1.225   5.992  0.3103  0.7680 -0.4285
 3494SOL    HW110481   0.384   1.204   5.957  0.5750 -1.1079  1.1705
 3494SOL    HW210482   0.308   1.223   6.087 -1.4688  0.5320 -0.1888
 3495SOL     OW10483   0.290   2.655   6.449  0.1494 -1.1597 -0.3696
 3495SOL    HW110484   0.278   2.561   6.432  0.3266 -1.2570  0.0300
 3495SOL    HW210485   0.381   2.663   6.477 -0.1958 -1.0581  0.8082
 3496SOL     OW10486   4.258   3.559   4.960  0.0222 -0.2123 -0.0353
 3496SOL    HW110487   4.279   3.518   5.044 -0.3169  1.1701  0.7692
 3496SOL    HW210488   4.165   3.581   4.967  0.3027  1.1515 -0.1853
 3497SOL     OW10489   0.230   2.779   5.287 -0.2251 -0.0141 -0.4081
 3497SOL    HW110490   0.325   2.772   5.298 -0.4479 -1.5579  1.2319
 3497SOL    HW210491   0.216   2.784   5.193  1.4778 -0.1179 -0.6934
 3498SOL     OW10492   4.490   4.745   8.387  0.2530  0.8710  0.6057
 3498SOL    HW110493   4.527   4.786   8.465 -0.5937 -0.9142  2.0187
 3498SOL    HW210494   4.436   4.814   8.347  1.5415  2.1383  0.9710
 3499SOL     OW10495   1.658   3.088   6.574 -0.4694 -0.3099 -0.2346
 3499SOL    HW110496   1.735   3.047   6.613 -1.0350  0.1963  1.5093
 3499SOL    HW210497   1.615   3.018   6.526  0.0025 -1.1181  0.4875
 3500SOL     OW10498   3.165   1.720   6.326  0.0248  0.1503 -0.3420
 3500SOL    HW110499   3.119   1.794   6.286  1.4102  0.5429 -1.2544
 3500SOL    HW210500   3.134   1.644   6.278  0.0532  0.3741 -0.7218
 3501SOL     OW10501   3.527   2.729   5.320  0.0494  0.0087 -0.2693
 3501SOL    HW110502   3.489   2.703   5.404  2.7821  0.2073  1.1409
 3501SOL    HW210503   3.460   2.706   5.256 -0.8849 -3.2393  1.6021
 3502SOL     OW10504   4.358   3.086   7.238 -0.0170  0.6306 -0.8579
 3502SOL    HW110505   4.284   3.035   7.204 -0.8492  1.7874 -0.8831
 3502SOL    HW210506   4.434   3.050   7.194 -0.7008  0.0539 -1.6067
 3503SOL     OW10507   0.377   1.372   5.745  0.0596  0.2900  0.6785
 3503SOL    HW110508   0.471   1.377   5.732 -0.4080  2.6995 -3.9481
 3503SOL    HW210509   0.358   1.443   5.808  1.2006  0.7564  0.5233
 3504SOL     OW10510   3.769   4.483   6.306 -0.7384 -0.2910  0.1688
 3504SOL    HW110511   3.677   4.487   6.279 -0.2581 -0.9341 -1.7909
 3504SOL    HW210512   3.800   4.400   6.270  0.0664 -1.2305  2.7996
 3505SOL     OW10513   0.122   2.600   5.606  0.0763 -0.3070  0.0075
 3505SOL    HW110514   0.128   2.505   5.598 -0.8480 -0.3244 -0.7354
 3505SOL    HW210515   0.061   2.626   5.536  1.3940  0.9768 -0.7278
 3506SOL     OW10516   2.323   0.681   6.035  0.4994 -0.9511  0.1502
 3506SOL    HW110517   2.306   0.720   5.949 -1.3894 -1.0382  0.4438
 3506SOL    HW210518   2.355   0.593   6.016 -0.9389 -1.3602 -0.4842
 3507SOL     OW10519   4.201   2.893   7.074  0.0452  0.1110  0.1401
 3507SOL    HW110520   4.245   2.810   7.085 -0.8050 -0.3809 -0.0565
 3507SOL    HW210521   4.112   2.877   7.106 -0.1420  0.9271  0.0564
 3508SOL     OW10522   0.153   1.652   5.083  0.0455 -0.0029 -0.1338
 3508SOL    HW110523   0.190   1.733   5.117  0.5611 -0.7842  1.2540
 3508SOL    HW210524   0.079   1.634   5.141  1.0455 -1.4542  0.7551
 3509SOL     OW10525   4.445   3.165   8.628 -0.1410  1.2892 -0.4282
 3509SOL    HW110526   4.500   3.219   8.571 -0.9050  1.9538 -0.5536
 3509SOL    HW210527   4.369   3.144   8.574 -0.2797  0.8559 -0.0673
 3510SOL     OW10528   3.669   3.527   6.787  0.1533 -0.0748 -0.2692
 3510SOL    HW110529   3.636   3.608   6.749  0.8417  0.7847  0.8858
 3510SOL    HW210530   3.645   3.459   6.725 -0.3954  1.0244 -1.2871
 3511SOL     OW10531   2.376   1.154   8.024 -0.2611  0.4365 -0.2902
 3511SOL    HW110532   2.286   1.163   8.056 -0.2187 -1.5646  0.5116
 3511SOL    HW210533   2.372   1.081   7.962  1.1099 -0.9061  1.1223
 3512SOL     OW10534   4.495   3.820   6.206 -0.3667  0.0065 -0.4702
 3512SOL    HW110535   4.584   3.785   6.199 -1.0901 -2.2007  0.4815
 3512SOL    HW210536   4.491   3.857   6.294 -0.2028  0.7118 -0.7551
 3513SOL     OW10537   0.363   0.916   4.690  0.0033  0.7479 -0.0937
 3513SOL    HW110538   0.284   0.862   4.695  0.9076 -0.5971  0.2199
 3513SOL    HW210539   0.411   0.895   4.770  1.3093  0.5372 -0.9111
 3514SOL     OW10540   1.686   0.986   6.195  0.2822 -0.2168  0.2260
 3514SOL    HW110541   1.715   1.000   6.104 -1.4597 -1.9650 -0.6608
 3514SOL    HW210542   1.701   0.893   6.211  0.6116  0.0787  1.7884
 3515SOL     OW10543   1.558   3.605   7.122  0.4786 -0.1519  0.2328
 3515SOL    HW110544   1.526   3.673   7.181 -0.8158 -1.9155  1.6921
 3515SOL    HW210545   1.613   3.652   7.059  2.2616  1.8314  3.0017
 3516SOL     OW10546   3.196   4.775   6.752 -0.1718  0.2123 -0.0510
 3516SOL    HW110547   3.282   4.813   6.733 -0.7581  2.3418  1.3169
 3516SOL    HW210548   3.202   4.745   6.843 -0.3978 -1.1616 -0.4594
 3517SOL     OW10549   2.239   3.585   5.542 -0.0519  0.2718  0.4677
 3517SOL    HW110550   2.326   3.553   5.566 -0.1741 -0.7776 -0.3999
 3517SOL    HW210551   2.255   3.640   5.465  0.0012  1.3483  1.2123
 3518SOL     OW10552   4.501   0.356   5.662  0.1216  0.2545 -0.0233
 3518SOL    HW110553   4.500   0.379   5.755 -1.3319  0.9179 -0.1626
 3518SOL    HW210554   4.486   0.261   5.661  0.5219  0.1856  0.4326
 3519SOL     OW10555   4.582   2.755   5.746  0.0416 -0.7338 -0.2239
 3519SOL    HW110556   4.647   2.688   5.723 -0.4025 -1.7229  1.2900
 3519SOL    HW210557   4.569   2.804   5.664  3.2928  0.0602 -0.4102
 3520SOL     OW10558   3.362   2.507   5.540  0.4446  0.0310 -0.1877
 3520SOL    HW110559   3.427   2.450   5.581  0.8601  2.1880  2.4514
 3520SOL    HW210560   3.279   2.482   5.581  0.2539 -0.0901 -0.6366
 3521SOL     OW10561   4.318   3.871   4.738  0.3305  0.3260  0.2452
 3521SOL    HW110562   4.285   3.937   4.678 -1.2004 -0.3958  0.2609
 3521SOL    HW210563   4.262   3.795   4.724 -0.1456  0.1711  2.6388
 3522SOL     OW10564   3.068   1.735   4.775  0.4633 -0.0346  0.3681
 3522SOL    HW110565   3.138   1.671   4.788 -0.8870 -1.8903 -0.9029
 3522SOL    HW210566   3.014   1.728   4.853  0.0260 -0.8809  0.0018
 3523SOL     OW10567   0.361   2.547   7.123  0.0953  0.2653  0.7786
 3523SOL    HW110568   0.303   2.622   7.131  0.4442  0.4580  1.5921
 3523SOL    HW210569   0.353   2.501   7.207 -2.6214 -2.4797 -0.7794
 3524SOL     OW10570   3.353   0.118   7.254 -0.4621  0.4649  0.0856
 3524SOL    HW110571   3.361   0.057   7.327 -0.1274  0.7693  0.3057
 3524SOL    HW210572   3.443   0.147   7.236 -0.4158 -0.3663 -1.1059
 3525SOL     OW10573   3.964   0.420   7.973  0.5940  0.6030 -0.5192
 3525SOL    HW110574   3.871   0.438   7.988  0.9238  1.4190  0.7550
 3525SOL    HW210575   3.979   0.445   7.882 -0.5679 -0.1949 -0.9587
 3526SOL     OW10576   2.256   2.125   4.870  0.7183  0.1322 -0.2169
 3526SOL    HW110577   2.294   2.054   4.922  0.8026  1.0417  1.0034
 3526SOL    HW210578   2.305   2.123   4.788  1.0932 -0.8647  0.0139
 3527SOL     OW10579   4.835   2.532   8.429  0.0629  0.5910 -0.0309
 3527SOL    HW110580   4.786   2.565   8.354 -0.0369 -0.2149 -0.3219
 3527SOL    HW210581   4.778   2.549   8.504  0.6664  2.5243  0.0617
 3528SOL     OW10582   0.745   3.994   7.757 -0.0005 -0.0563 -0.3982
 3528SOL    HW110583   0.694   4.068   7.722 -0.2023  0.8997  1.7604
 3528SOL    HW210584   0.836   4.022   7.748 -0.0878  0.7004  0.8124
 3529SOL     OW10585   2.429   2.036   5.599  0.1387  0.1197  0.1687
 3529SOL    HW110586   2.395   2.119   5.633  0.0701 -0.5474  1.8135
 3529SOL    HW210587   2.351   1.980   5.593  0.0393  0.3896 -1.7490
 3530SOL     OW10588   2.999   3.675   7.346  0.8827  0.6952 -0.1002
 3530SOL    HW110589   2.972   3.765   7.367  1.1271  0.6766  0.3161
 3530SOL    HW210590   2.943   3.620   7.400  0.1964  0.5549 -0.9331
 3531SOL     OW10591   3.918   2.596   7.728  0.0906  0.1356  0.4329
 3531SOL    HW110592   3.915   2.525   7.664 -0.6645 -1.7999  2.4630
 3531SOL    HW210593   3.891   2.674   7.680 -1.2264 -1.3728 -1.4077
 3532SOL     OW10594   3.412   1.016   6.586 -0.3134 -0.2087 -0.4010
 3532SOL    HW110595   3.395   1.108   6.606 -1.3497 -0.6766  1.1701
 3532SOL    HW210596   3.328   0.973   6.602  1.0853 -2.0391  3.2621
 3533SOL     OW10597   0.047   4.068   8.987  0.2942  0.0223 -0.5347
 3533SOL    HW110598   0.073   3.975   8.986 -0.0798 -0.0832 -1.0544
 3533SOL    HW210599   0.014   4.084   8.898 -1.1799  0.2070  0.0170
 3534SOL     OW10600   4.516   2.675   9.663  0.0095  0.1563  0.5176
 3534SOL    HW110601   4.497   2.696   9.754  2.1228  1.7589  0.6874
 3534SOL    HW210602   4.432   2.648   9.626 -1.7349  2.9936  2.0217
 3535SOL     OW10603   1.902   2.787   5.764  0.1566 -0.2657  0.5100
 3535SOL    HW110604   1.881   2.749   5.850  2.0145  0.0493  1.1625
 3535SOL    HW210605   1.990   2.754   5.744  0.2928  0.7189 -0.6561
 3536SOL     OW10606   3.968   2.134   5.899 -0.2920 -0.3266  0.3834
 3536SOL    HW110607   3.949   2.224   5.926  1.5471  0.0429  0.5994
 3536SOL    HW210608   3.917   2.122   5.819 -1.5115  0.4692  1.0047
 3537SOL     OW10609   0.195   2.148   5.033  0.0993 -0.2259  0.0050
 3537SOL    HW110610   0.247   2.067   5.027 -0.7129 -0.7606  0.0556
 3537SOL    HW210611   0.123   2.134   4.972  0.1276  0.5999 -0.2206
 3538SOL     OW10612   3.186   0.051   6.734  0.2717  0.3719  0.2431
 3538SOL    HW110613   3.136   0.057   6.815 -0.4638 -0.6280 -0.1247
 3538SOL    HW210614   3.218  -0.039   6.731  2.0364  0.9518  0.4174
 3539SOL     OW10615   0.263   2.735   5.862  0.9822 -0.0232 -0.6268
 3539SOL    HW110616   0.355   2.734   5.888 -0.0390 -1.7573  3.7201
 3539SOL    HW210617   0.226   2.812   5.906 -0.2377 -1.2344  0.5577
 3540SOL     OW10618   0.988   2.376   4.991 -0.4143  0.3499  0.5191
 3540SOL    HW110619   0.987   2.281   4.981 -1.3954  0.2516  1.3511
 3540SOL    HW210620   1.079   2.401   4.979  0.5552 -1.1108  3.6971
 3541SOL     OW10621   0.219   2.679   5.015 -0.2319 -0.7605  0.6504
 3541SOL    HW110622   0.264   2.664   4.932  2.2107  2.4441  1.1967
 3541SOL    HW210623   0.259   2.617   5.075 -1.8958 -2.9832 -0.3597
 3542SOL     OW10624   3.820   4.081   5.663  0.1357  0.2641 -0.1510
 3542SOL    HW110625   3.914   4.087   5.646  0.6848  0.4066  2.4667
 3542SOL    HW210626   3.811   4.005   5.720 -1.3718  0.2182 -0.4185
 3543SOL     OW10627   4.744   4.565   7.359  1.1402 -0.4479 -0.0452
 3543SOL    HW110628   4.691   4.497   7.399  1.2175 -1.2542 -1.2713
 3543SOL    HW210629   4.687   4.605   7.293  1.0771  0.7153  0.6874
 3544SOL     OW10630   4.976   4.562   6.183  0.7585 -0.2284  0.3209
 3544SOL    HW110631   4.986   4.632   6.247  0.4445 -1.0180  1.2592
 3544SOL    HW210632   4.928   4.602   6.111 -1.7212 -0.0751  1.9247
 3545SOL     OW10633   1.026   2.158   8.131  0.0387  0.1099  0.9866
 3545SOL    HW110634   1.032   2.071   8.170 -0.3033  0.1746  1.1926
 3545SOL    HW210635   1.067   2.150   8.045  0.5436 -0.1067  1.2471
 3546SOL     OW10636   4.188   3.646   4.652  0.6886 -0.1098  0.5532
 3546SOL    HW110637   4.194   3.550   4.653  1.2502 -0.0731  1.2290
 3546SOL    HW210638   4.103   3.666   4.689 -0.0827 -0.3799 -0.9662
 3547SOL     OW10639   3.703   1.945   7.683  0.3196 -0.1252 -0.3236
 3547SOL    HW110640   3.633   2.008   7.664  0.5579  0.4601  0.6659
 3547SOL    HW210641   3.668   1.861   7.653 -0.7717  0.1714  0.0747
 3548SOL     OW10642   3.419   2.554   9.237 -0.2250 -0.1172 -0.0760
 3548SOL    HW110643   3.500   2.510   9.214 -0.9252 -2.4536  1.5612
 3548SOL    HW210644   3.350   2.490   9.219 -1.6539  1.5015 -0.6695
 3549SOL     OW10645   1.184   2.425   6.153  0.1021  0.5332  0.3078
 3549SOL    HW110646   1.201   2.468   6.237 -0.0270  0.4379  0.3821
 3549SOL    HW210647   1.269   2.429   6.108 -0.1136  1.6189 -0.0362
 3550SOL     OW10648   0.636   4.148   5.937  0.6962 -0.3863  0.8536
 3550SOL    HW110649   0.592   4.196   6.007 -4.4804 -0.6807 -1.6918
 3550SOL    HW210650   0.618   4.056   5.957 -0.5525 -0.4835 -0.5569
 3551SOL     OW10651   2.618   4.660   4.764 -0.1629 -0.2250  0.3255
 3551SOL    HW110652   2.696   4.623   4.805 -0.1315 -1.3955 -0.7120
 3551SOL    HW210653   2.643   4.749   4.740  0.7843 -0.5052  0.2396
 3552SOL     OW10654   0.634   4.093   4.563  0.4120  1.2314 -0.5659
 3552SOL    HW110655   0.592   4.117   4.480 -0.0762  1.6548 -0.2037
 3552SOL    HW210656   0.726   4.113   4.549  0.5835 -0.1382 -1.5262
 3553SOL     OW10657   0.201   2.734   6.885 -0.1524  0.1456  0.4860
 3553SOL    HW110658   0.284   2.777   6.863 -0.2340 -0.2672 -0.7145
 3553SOL    HW210659   0.169   2.700   6.801 -0.0551 -2.3228  1.3620
 3554SOL     OW10660   4.829   2.112   7.308 -0.3652 -0.3648 -0.0153
 3554SOL    HW110661   4.782   2.121   7.224  0.4810  1.6331 -0.3276
 3554SOL    HW210662   4.917   2.087   7.283 -0.2148 -0.1526  0.2948
 3555SOL     OW10663   2.563   1.487   6.836  0.0371 -0.0763 -0.5337
 3555SOL    HW110664   2.612   1.535   6.769 -0.2923 -0.8029 -1.3236
 3555SOL    HW210665   2.534   1.554   6.898 -1.1991  0.9197 -2.0929
 3556SOL     OW10666   2.866   1.765   7.383  0.1208 -0.4036 -0.4650
 3556SOL    HW110667   2.909   1.843   7.347  0.3468 -0.8208 -1.1147
 3556SOL    HW210668   2.925   1.736   7.452  0.2082 -0.1969 -0.4496
 3557SOL     OW10669   2.751   0.718   5.477  0.1277 -0.3247  0.1090
 3557SOL    HW110670   2.777   0.750   5.564  0.8123 -0.0609 -0.1847
 3557SOL    HW210671   2.820   0.749   5.419 -0.4351 -0.3239 -0.5683
 3558SOL     OW10672   0.758   2.107   5.052  0.1601  0.0663  0.1010
 3558SOL    HW110673   0.763   2.169   5.125  0.9917  0.4034 -0.2246
 3558SOL    HW210674   0.673   2.123   5.012  0.0549  0.4727  0.4846
 3559SOL     OW10675   0.476   1.645   6.206 -0.4177 -0.1919  0.3711
 3559SOL    HW110676   0.406   1.683   6.154 -0.7067  0.0342  0.9154
 3559SOL    HW210677   0.437   1.630   6.292 -0.1010 -1.0485  0.3814
 3560SOL     OW10678   1.646   4.370   6.027  0.5575 -0.2282  0.0517
 3560SOL    HW110679   1.657   4.411   6.112  2.6895  1.5895 -0.9923
 3560SOL    HW210680   1.686   4.284   6.037 -0.8166 -0.7636  1.3228
 3561SOL     OW10681   0.520   2.519   5.173  0.0151 -0.4356  0.1017
 3561SOL    HW110682   0.554   2.520   5.084  2.5323  0.0088  0.9858
 3561SOL    HW210683   0.543   2.605   5.209 -1.2124 -0.4888  1.0988
 3562SOL     OW10684   4.381   0.457   7.475  0.4299 -0.1271  0.3136
 3562SOL    HW110685   4.449   0.391   7.462  0.7703 -0.0007  1.3156
 3562SOL    HW210686   4.425   0.540   7.462  0.5306 -0.0377  1.1557
 3563SOL     OW10687   0.489   3.349   6.143  0.4006  0.1091  0.2491
 3563SOL    HW110688   0.560   3.307   6.193 -0.7529 -0.8757  1.1187
 3563SOL    HW210689   0.461   3.421   6.199  1.0180  0.7836 -0.3067
 3564SOL     OW10690   0.349   3.743   5.734 -0.4855 -0.3528  0.4480
 3564SOL    HW110691   0.294   3.820   5.751  0.0669 -0.0248  0.7926
 3564SOL    HW210692   0.412   3.773   5.668 -0.9887 -0.8584 -0.2743
 3565SOL     OW10693   3.605   1.698   7.574  0.0620 -0.3776  0.6609
 3565SOL    HW110694   3.568   1.682   7.487 -0.6470  0.9368  0.7035
 3565SOL    HW210695   3.536   1.672   7.634 -0.7378  1.7830  0.7467
 3566SOL     OW10696   0.429   3.938   8.532  0.3930  0.0864 -0.2777
 3566SOL    HW110697   0.430   3.843   8.537  0.3921  0.1441  0.9846
 3566SOL    HW210698   0.363   3.965   8.595  1.3933  0.9787  0.4168
 3567SOL     OW10699   2.119   0.317   7.505 -0.9961  0.3573  0.2441
 3567SOL    HW110700   2.157   0.371   7.574 -1.3242 -1.6821  2.1235
 3567SOL    HW210701   2.169   0.236   7.508 -2.2713 -0.4934 -0.6212
 3568SOL     OW10702   2.105   0.476   8.288  0.3191  0.3615  0.1182
 3568SOL    HW110703   2.201   0.484   8.289  0.3059  0.4527  0.6918
 3568SOL    HW210704   2.088   0.404   8.226  0.6676  1.4306 -1.2711
 3569SOL     OW10705   2.811   4.490   7.442 -0.5611  0.6148  0.1642
 3569SOL    HW110706   2.798   4.565   7.499  1.3594  1.9680 -1.0313
 3569SOL    HW210707   2.823   4.529   7.355 -2.6101 -1.3050 -1.0770
 3570SOL     OW10708   0.080   4.017   6.452 -0.9971  0.0817  1.2162
 3570SOL    HW110709   0.107   3.925   6.462  0.1776  0.2231 -0.3411
 3570SOL    HW210710  -0.015   4.014   6.458 -0.9481 -1.1552  1.8052
 3571SOL     OW10711   2.603   4.868   8.886  0.4523 -0.3046  0.3339
 3571SOL    HW110712   2.699   4.874   8.889  0.3700  0.8738  2.2500
 3571SOL    HW210713   2.585   4.774   8.890  1.5204 -0.4954  1.1440
 3572SOL     OW10714   0.509   4.559   9.527 -0.1044  0.3964  0.6808
 3572SOL    HW110715   0.579   4.563   9.592  1.6351  2.6601 -1.1439
 3572SOL    HW210716   0.471   4.472   9.538  3.5113 -1.3029  1.3076
 3573SOL     OW10717   4.696   1.620   5.209 -0.1281 -0.0225  0.2719
 3573SOL    HW110718   4.752   1.644   5.136  0.5753 -2.2815 -0.0334
 3573SOL    HW210719   4.614   1.667   5.193  0.7953  1.3471 -0.6656
 3574SOL     OW10720   0.159   0.056   5.894 -0.5187 -0.3478 -0.3121
 3574SOL    HW110721   0.171   0.124   5.828 -1.5564  0.9475  0.7685
 3574SOL    HW210722   0.083   0.006   5.865 -0.5199 -0.2575 -0.4637
 3575SOL     OW10723   2.517   1.379   8.358 -0.2609 -0.4004  0.0817
 3575SOL    HW110724   2.436   1.384   8.307 -1.5888  1.4475  2.1952
 3575SOL    HW210725   2.503   1.306   8.419 -0.2717 -0.1590  0.3668
 3576SOL     OW10726   1.636   4.829   8.021 -0.0991  0.7784 -0.6217
 3576SOL    HW110727   1.610   4.868   7.937 -0.1904  0.8284 -0.5710
 3576SOL    HW210728   1.651   4.737   8.001 -1.1653  0.5577 -0.4814
 3577SOL     OW10729   3.041   3.585   7.062  0.1931  0.2076 -0.8387
 3577SOL    HW110730   3.003   3.634   7.135  0.7717 -0.1756 -0.2734
 3577SOL    HW210731   3.134   3.607   7.065 -0.1888  2.8648 -3.5227
 3578SOL     OW10732   3.602   2.653   5.657 -0.2966  0.5856  0.2228
 3578SOL    HW110733   3.675   2.599   5.686 -1.2120  0.0193  1.5501
 3578SOL    HW210734   3.539   2.591   5.621 -0.5791  0.9641  0.0480
 3579SOL     OW10735   1.030   1.852   6.912 -0.4249  0.6102  0.1673
 3579SOL    HW110736   1.093   1.907   6.959  0.6826 -0.0168 -0.5346
 3579SOL    HW210737   1.011   1.899   6.832  3.3065 -1.4440 -2.2326
 3580SOL     OW10738   1.076   3.307   9.239 -0.3189 -0.6376  0.2457
 3580SOL    HW110739   1.014   3.353   9.296  1.3132  0.8057  0.9554
 3580SOL    HW210740   1.159   3.353   9.253  0.3187 -0.6979 -2.7607
 3581SOL     OW10741   3.073   2.919   6.936  0.0341 -0.1927  0.0618
 3581SOL    HW110742   3.022   2.853   6.888  1.6873 -1.2997 -0.2336
 3581SOL    HW210743   3.077   2.884   7.025  1.2118 -0.7164 -0.1748
 3582SOL     OW10744   0.325   4.005   6.316 -0.5247 -0.0955 -0.1472
 3582SOL    HW110745   0.256   4.012   6.381 -0.2447  2.0331 -0.0293
 3582SOL    HW210746   0.280   3.986   6.234 -1.0265 -0.9718  0.3148
 3583SOL     OW10747   0.368   4.050   7.872  0.2135  0.7829  0.2296
 3583SOL    HW110748   0.285   4.071   7.828 -0.5163 -0.7101  0.8184
 3583SOL    HW210749   0.409   4.135   7.887  0.0446  1.4300 -2.4178
 3584SOL     OW10750   2.484   0.351   8.871 -0.4210  0.3857  0.8571
 3584SOL    HW110751   2.438   0.367   8.789  1.5289 -2.5490 -0.9769
 3584SOL    HW210752   2.566   0.401   8.863 -1.3854  2.3347  2.3402
 3585SOL     OW10753   4.441   3.939   6.472  0.4385  0.4389 -0.3086
 3585SOL    HW110754   4.491   3.881   6.530  1.3245 -0.0812 -1.5430
 3585SOL    HW210755   4.406   4.006   6.531  0.0621 -0.8691  1.0417
 3586SOL     OW10756   4.039   3.772   8.220 -0.2046  0.3105  0.2562
 3586SOL    HW110757   4.042   3.864   8.193  0.5803  0.7897  1.8378
 3586SOL    HW210758   3.948   3.746   8.207  0.1843  0.2432 -3.4066
 3587SOL     OW10759   4.036   4.040   8.621  0.1746 -0.2667  0.2037
 3587SOL    HW110760   4.061   3.949   8.601  0.3435 -0.1163 -0.2875
 3587SOL    HW210761   4.107   4.072   8.676 -0.5804 -0.8676  1.5675
 3588SOL     OW10762   0.686   3.854   8.363  0.4078 -0.1268  0.3723
 3588SOL    HW110763   0.638   3.782   8.322  0.5168 -0.7525  1.3192
 3588SOL    HW210764   0.658   3.932   8.315  2.4996 -1.0688 -2.7429
 3589SOL     OW10765   0.276   2.675   9.209  0.1700  0.1806  0.2029
 3589SOL    HW110766   0.244   2.703   9.295 -0.2315  0.8906 -0.1717
 3589SOL    HW210767   0.363   2.715   9.201  1.3650 -1.9853  1.3446
 3590SOL     OW10768   3.352   3.009   7.203 -0.2802  0.2512 -0.4338
 3590SOL    HW110769   3.257   3.003   7.214 -0.0379 -0.0503  2.1560
 3590SOL    HW210770   3.374   2.934   7.148 -1.4185 -0.2427 -0.2474
 3591SOL     OW10771   4.825   4.515   9.941  0.1453  0.2662  0.0721
 3591SOL    HW110772   4.899   4.458   9.961  1.0319  0.9656 -1.1151
 3591SOL    HW210773   4.758   4.491  10.005  1.1285 -0.8858  0.6952
 3592SOL     OW10774   0.523   3.657   9.472 -0.5853  0.5143  0.4255
 3592SOL    HW110775   0.492   3.579   9.518 -1.3149  0.4135 -0.2135
 3592SOL    HW210776   0.583   3.699   9.533 -0.7768 -0.1378  1.0742
 3593SOL     OW10777   3.425   2.267   7.867  0.3205 -0.1260 -0.1865
 3593SOL    HW110778   3.425   2.293   7.959 -2.4798 -3.7661  1.0948
 3593SOL    HW210779   3.516   2.244   7.848  0.9892  0.9604  1.5627
 3594SOL     OW10780   0.184   1.547   7.477  0.3725  0.1743  0.0952
 3594SOL    HW110781   0.097   1.508   7.473  0.4394 -0.2438  1.8858
 3594SOL    HW210782   0.177   1.614   7.545  1.1744  0.8643 -0.4911
 3595SOL     OW10783   2.910   3.874   7.084 -0.3713 -0.2197 -0.5209
 3595SOL    HW110784   2.840   3.818   7.119 -0.0288 -1.2230 -1.3828
 3595SOL    HW210785   2.884   3.963   7.109 -1.3358 -0.6854  0.2102
 3596SOL     OW10786   4.844   1.960   7.536  0.4063 -0.4343 -0.3013
 3596SOL    HW110787   4.844   1.867   7.513  0.3975 -0.3108 -0.8112
 3596SOL    HW210788   4.832   2.006   7.452 -3.2591 -0.0509  0.2661
 3597SOL     OW10789   4.132   4.114   6.463 -0.1192  0.2167 -0.5885
 3597SOL    HW110790   4.162   4.182   6.404 -1.5661  0.4884 -1.0576
 3597SOL    HW210791   4.142   4.033   6.413 -1.2878  0.4400 -1.2172
 3598SOL     OW10792   1.036   0.314   9.925 -0.3019  0.2418 -0.3334
 3598SOL    HW110793   1.025   0.257   9.849  1.3042 -1.6358  0.7694
 3598SOL    HW210794   1.074   0.394   9.889 -0.7658 -0.1107 -1.6644
 3599SOL     OW10795   4.658   3.602   8.588  0.1403 -0.3344 -0.1478
 3599SOL    HW110796   4.640   3.591   8.494  0.8632  3.7702 -0.9633
 3599SOL    HW210797   4.656   3.696   8.601  0.9490 -0.7270  3.8604
 3600SOL     OW10798   0.172   1.866  10.123 -0.0863 -0.2673  0.2397
 3600SOL    HW110799   0.093   1.899  10.080 -0.5827 -0.6177  0.8682
 3600SOL    HW210800   0.173   1.772  10.105 -0.2151 -0.3905  0.8521
 3601SOL     OW10801   4.461   0.730   9.222 -0.5523 -0.0053  0.3925
 3601SOL    HW110802   4.490   0.687   9.303  1.3340 -0.8188 -0.6363
 3601SOL    HW210803   4.497   0.676   9.152 -1.3576  1.1773 -0.9981
 3602SOL     OW10804   4.561   2.937   7.135 -0.1003  0.1128  0.2349
 3602SOL    HW110805   4.632   2.886   7.174  0.5075  1.5209  1.0179
 3602SOL    HW210806   4.605   3.012   7.096 -1.0568  0.4175 -0.2665
 3603SOL     OW10807   2.566   4.638   6.589 -0.2429 -0.2940 -0.9431
 3603SOL    HW110808   2.579   4.544   6.578 -1.5052 -0.3783 -1.9465
 3603SOL    HW210809   2.571   4.652   6.684  2.9410 -0.8622 -0.8928
 3604SOL     OW10810   2.260   2.559   9.134  0.1104 -0.3423 -0.3221
 3604SOL    HW110811   2.196   2.489   9.142  0.6480 -1.1162 -2.1988
 3604SOL    HW210812   2.341   2.515   9.107  1.1923  0.7238  1.0190
 3605SOL     OW10813   4.372   2.614   9.292  0.0308  0.3513  0.8263
 3605SOL    HW110814   4.462   2.644   9.282  1.9501 -4.0642  2.0600
 3605SOL    HW210815   4.351   2.572   9.209 -1.1481  1.7711  0.3736
 3606SOL     OW10816   3.335   3.154   7.596 -0.5166 -0.7327  0.3393
 3606SOL    HW110817   3.388   3.157   7.517 -1.8237 -2.7583 -0.7230
 3606SOL    HW210818   3.256   3.204   7.573  0.6431  1.9153  1.7599
 3607SOL     OW10819   4.714   2.841   7.833  0.2373  0.1214 -0.0265
 3607SOL    HW110820   4.770   2.828   7.909 -0.3415  0.4614  0.4623
 3607SOL    HW210821   4.746   2.921   7.792 -0.2843  0.6568  0.6043
 3608SOL     OW10822   0.319   2.010   6.424 -0.6495  0.2131 -0.0856
 3608SOL    HW110823   0.261   2.072   6.469 -0.8100 -0.8412  1.2349
 3608SOL    HW210824   0.264   1.934   6.407  0.3094 -0.8340  1.2511
 3609SOL     OW10825   4.226   1.659   5.077 -0.7509 -0.0521  0.3640
 3609SOL    HW110826   4.260   1.742   5.043  0.9013 -0.7553  0.2452
 3609SOL    HW210827   4.170   1.685   5.151 -0.8480  1.2049 -0.1247
 3610SOL     OW10828   3.298   4.217   9.826  0.4044  0.0259 -0.7387
 3610SOL    HW110829   3.339   4.143   9.781  2.8814  1.0353 -0.3062
 3610SOL    HW210830   3.366   4.248   9.887 -0.8286  2.1886 -0.3820
 3611SOL     OW10831   0.171   1.857   6.231  0.0973 -0.3336 -0.1422
 3611SOL    HW110832   0.160   1.950   6.211  0.8291 -0.1585  0.2267
 3611SOL    HW210833   0.159   1.813   6.146 -1.0211  0.0115 -0.1814
 3612SOL     OW10834   4.943   2.763   5.096 -0.5080 -0.0618 -0.3165
 3612SOL    HW110835   5.022   2.719   5.064  0.5409  0.7187  1.1004
 3612SOL    HW210836   4.891   2.779   5.017  2.2545  2.3619 -1.8550
 3613SOL     OW10837   3.333   1.247   6.739  0.0364  0.0824 -1.0433
 3613SOL    HW110838   3.267   1.198   6.787 -0.0472  1.2051  0.0315
 3613SOL    HW210839   3.347   1.326   6.791  0.7923  0.7931 -2.2795
 3614SOL     OW10840   3.465   0.774  10.041 -0.0748 -0.1293  0.3337
 3614SOL    HW110841   3.532   0.841  10.055  0.3188 -0.4829  0.1734
 3614SOL    HW210842   3.504   0.715   9.977 -0.6338 -0.2151  0.0718
 3615SOL     OW10843   0.386   1.448   8.185  0.0983 -0.2045 -1.1437
 3615SOL    HW110844   0.429   1.427   8.103  0.7462 -2.1709 -0.3512
 3615SOL    HW210845   0.295   1.419   8.173 -0.1330  0.6352 -1.5504
 3616SOL     OW10846   3.784   2.514   8.260  0.3996 -0.2344 -0.0384
 3616SOL    HW110847   3.810   2.587   8.203 -0.7207  0.1191 -0.1334
 3616SOL    HW210848   3.711   2.549   8.311  0.0112 -1.2114  0.0947
 3617SOL     OW10849   4.308   4.356   9.585 -0.1384  0.0897 -0.6750
 3617SOL    HW110850   4.376   4.297   9.615 -1.4442 -1.6828 -1.0772
 3617SOL    HW210851   4.283   4.406   9.662  0.8769  0.0174 -0.2939
 3618SOL     OW10852   1.583   2.909   5.249  0.2391 -0.3390 -0.2684
 3618SOL    HW110853   1.505   2.855   5.263  0.1379 -0.1197  0.0015
 3618SOL    HW210854   1.549   2.997   5.236  0.3726 -0.4040 -1.1597
 3619SOL     OW10855   2.566   4.715   9.434 -0.1655 -0.2859 -0.2074
 3619SOL    HW110856   2.526   4.758   9.358 -2.8092  1.0269  1.7614
 3619SOL    HW210857   2.528   4.627   9.434  0.0050 -0.3619 -0.4976
 3620SOL     OW10858   4.561   0.365   7.870 -0.7711  0.4004  0.3122
 3620SOL    HW110859   4.515   0.448   7.858 -0.7740  0.7036  2.2381
 3620SOL    HW210860   4.638   0.372   7.814  0.1671  2.4618  1.7712
 3621SOL     OW10861   4.248   1.966   7.537 -0.6037  1.0293 -0.4461
 3621SOL    HW110862   4.254   1.882   7.492  0.7074  0.7058  0.2531
 3621SOL    HW210863   4.262   2.032   7.469  1.0678  0.5597 -0.6091
 3622SOL     OW10864   2.704   0.660   9.218 -0.5600 -0.0867  0.0228
 3622SOL    HW110865   2.629   0.638   9.162  1.1702  0.6576 -2.7686
 3622SOL    HW210866   2.731   0.576   9.255 -1.0313 -0.8078 -1.2141
 3623SOL     OW10867   3.780   3.279   6.525  0.1694 -0.0519  0.0685
 3623SOL    HW110868   3.835   3.341   6.572 -1.2014  0.5714  0.9097
 3623SOL    HW210869   3.691   3.298   6.554 -0.5173 -1.0116 -1.2588
 3624SOL     OW10870   1.367   0.608   6.920 -0.1870 -0.5054 -0.2727
 3624SOL    HW110871   1.394   0.517   6.908 -1.7421 -0.9654 -0.4810
 3624SOL    HW210872   1.438   0.648   6.971  1.7955 -1.1073 -2.4294
 3625SOL     OW10873   1.416   4.580   6.273  0.6337  0.9619 -0.4501
 3625SOL    HW110874   1.343   4.640   6.291  0.8020  1.6296 -1.8641
 3625SOL    HW210875   1.387   4.531   6.196 -0.7074 -2.8497  2.1997
 3626SOL     OW10876   3.973   3.424   6.918  0.6105  0.2241  0.3091
 3626SOL    HW110877   3.998   3.332   6.925  0.9646  0.2298 -0.7375
 3626SOL    HW210878   3.887   3.422   6.878  0.3750  0.3358  0.8017
 3627SOL     OW10879   4.469   1.542   5.519 -0.2088 -0.3224 -0.5687
 3627SOL    HW110880   4.449   1.554   5.427 -1.4592  1.0026 -0.1617
 3627SOL    HW210881   4.555   1.582   5.531 -0.0646 -0.4600 -1.1410
 3628SOL     OW10882   1.201   3.984   6.706 -0.4110 -0.0049  0.0142
 3628SOL    HW110883   1.187   4.048   6.636  1.4538  0.8258  0.3391
 3628SOL    HW210884   1.185   3.899   6.665  0.2704  0.4965 -1.3465
 3629SOL     OW10885   4.483   1.582   5.892  0.6129 -0.2798  0.1237
 3629SOL    HW110886   4.416   1.583   5.959  0.1690  0.3070 -0.3254
 3629SOL    HW210887   4.507   1.489   5.883  0.3202 -0.4139  0.7257
 3630SOL     OW10888   3.091   1.532   7.801  0.9256 -0.4283  0.0717
 3630SOL    HW110889   3.185   1.547   7.790  0.8053  0.3773  0.0843
 3630SOL    HW210890   3.082   1.437   7.808  1.8154 -0.4610  0.8095
 3631SOL     OW10891   2.920   2.703   9.420 -0.1167  0.1503 -0.3091
 3631SOL    HW110892   2.834   2.730   9.385 -0.4904 -0.7926 -0.1429
 3631SOL    HW210893   2.982   2.731   9.353 -0.7740 -1.1663 -1.5156
 3632SOL     OW10894   3.429   4.196   6.922 -0.4046 -0.7118  0.3431
 3632SOL    HW110895   3.503   4.255   6.909 -0.0473 -1.4211 -1.0657
 3632SOL    HW210896   3.351   4.251   6.913 -0.1466 -0.7060 -3.1255
 3633SOL     OW10897   0.377   4.332   9.127 -0.4703 -0.0598  0.5746
 3633SOL    HW110898   0.427   4.262   9.169 -0.0144 -0.3077 -0.3566
 3633SOL    HW210899   0.441   4.400   9.108 -0.7319  0.1944  0.5891
 3634SOL     OW10900   4.340   0.341   8.472  0.1240  0.9598  0.8052
 3634SOL    HW110901   4.296   0.330   8.388 -1.0012  1.5300  1.2886
 3634SOL    HW210902   4.426   0.301   8.460 -0.1920  0.6117 -0.4611
 3635SOL     OW10903   4.207   3.401   7.371  0.0519 -0.2911 -0.1079
 3635SOL    HW110904   4.233   3.326   7.424  0.4286  0.7860  1.2864
 3635SOL    HW210905   4.267   3.398   7.295  0.9434 -0.6551  0.5877
 3636SOL     OW10906   0.690   1.755   7.252 -0.3462 -0.1276 -0.0061
 3636SOL    HW110907   0.722   1.845   7.250  1.4369 -0.6908  0.6210
 3636SOL    HW210908   0.751   1.710   7.311 -1.8635 -1.5041  0.6021
 3637SOL     OW10909   1.821   2.379   6.990  0.5798 -0.2451  0.4574
 3637SOL    HW110910   1.835   2.366   7.083 -0.1706 -0.6766  0.5200
 3637SOL    HW210911   1.886   2.324   6.947  0.8302 -0.1577  0.7282
 3638SOL     OW10912   3.885   1.906   6.270 -0.1418  0.6555  0.2041
 3638SOL    HW110913   3.926   1.903   6.357  0.6026  0.7034 -0.1403
 3638SOL    HW210914   3.829   1.984   6.273  0.2176  0.9088  0.4953
 3639SOL     OW10915   2.761   0.175   9.407  0.7597  0.1226  0.3176
 3639SOL    HW110916   2.754   0.086   9.371  2.2475  0.6200 -1.3870
 3639SOL    HW210917   2.679   0.188   9.454 -0.1735 -1.6007 -0.6956
 3640SOL     OW10918   0.352   3.384   9.349 -0.1682  0.3337  0.2318
 3640SOL    HW110919   0.420   3.431   9.302 -0.3834  0.4471  0.0360
 3640SOL    HW210920   0.359   3.294   9.316  0.8302  0.0049  1.2423
 3641SOL     OW10921   5.013   4.419   5.326 -0.4636  0.1796 -0.4649
 3641SOL    HW110922   4.975   4.339   5.290 -1.8476  1.4178 -1.9279
 3641SOL    HW210923   4.957   4.440   5.401 -0.2470 -0.1101 -0.2248
 3642SOL     OW10924   0.094   2.908   9.768  0.1435 -0.5052  0.8215
 3642SOL    HW110925   0.123   2.860   9.690 -0.1345  1.6344 -0.6921
 3642SOL    HW210926   0.030   2.850   9.809  0.7096 -1.9386 -0.1964
 3643SOL     OW10927   2.839   3.249   6.977 -0.5598 -0.1325 -0.0916
 3643SOL    HW110928   2.792   3.323   7.014  0.2975  1.0874 -1.3288
 3643SOL    HW210929   2.874   3.282   6.894  0.6544 -1.6360 -0.2275
 3644SOL     OW10930   0.988   3.872   4.517  0.1127  0.2886  0.2936
 3644SOL    HW110931   0.965   3.810   4.587 -0.5327  0.3452  0.1402
 3644SOL    HW210932   0.941   3.952   4.540 -1.8287 -0.3111 -1.2693
 3645SOL     OW10933   2.487   2.028   6.971 -0.7707 -0.7718  0.0679
 3645SOL    HW110934   2.455   2.015   7.060  1.6445  0.2540  1.1753
 3645SOL    HW210935   2.529   1.945   6.948 -1.2091 -0.9660 -0.0347
 3646SOL     OW10936   4.530   0.696   8.044 -0.1906 -0.2675  0.1597
 3646SOL    HW110937   4.467   0.655   8.102  2.9878 -4.4244  1.1754
 3646SOL    HW210938   4.481   0.717   7.965 -3.0607 -1.9250  1.3752
 3647SOL     OW10939   3.481   3.610   9.238  0.5215  0.0311 -0.6174
 3647SOL    HW110940   3.571   3.585   9.262  0.5063  0.7462  0.2470
 3647SOL    HW210941   3.426   3.556   9.295  0.4933  2.1213  1.4947
 3648SOL     OW10942   2.867   1.578   6.198 -0.0643 -0.1267 -0.5163
 3648SOL    HW110943   2.909   1.500   6.162 -0.9162 -0.1300 -1.5451
 3648SOL    HW210944   2.856   1.559   6.291 -3.7269 -2.9080 -1.3289
 3649SOL     OW10945   2.134   0.271   9.684 -0.4611 -0.0170  0.4292
 3649SOL    HW110946   2.136   0.249   9.590  0.0087 -0.4117  0.5289
 3649SOL    HW210947   2.209   0.328   9.696  0.0978 -0.8050  0.7643
 3650SOL     OW10948   3.595   4.624   7.699 -0.0066  0.0021 -0.1077
 3650SOL    HW110949   3.584   4.716   7.676 -0.2000 -0.6926 -3.1941
 3650SOL    HW210950   3.690   4.611   7.702  0.0920 -0.2002 -2.3557
 3651SOL     OW10951   2.521   0.995  10.293  0.1173 -0.8836  0.3793
 3651SOL    HW110952   2.563   0.920  10.252  1.9967 -0.6636  1.7803
 3651SOL    HW210953   2.562   1.001  10.379  1.6434  2.9793 -0.4175
 3652SOL     OW10954   1.051   4.679   5.977  0.2536 -0.5004  0.3263
 3652SOL    HW110955   0.977   4.618   5.971  0.5982 -0.7753 -1.9884
 3652SOL    HW210956   1.012   4.764   5.994 -0.5562 -0.7642 -0.1749
 3653SOL     OW10957   0.094   2.315   7.866  0.1022 -0.1492 -0.2637
 3653SOL    HW110958   0.127   2.279   7.784 -1.9341  0.9474 -1.6669
 3653SOL    HW210959   0.094   2.410   7.852 -1.0684  0.0140  0.6404
 3654SOL     OW10960   1.961   1.820   9.096 -0.4251 -0.2245 -0.3502
 3654SOL    HW110961   1.881   1.872   9.097 -0.9382 -0.9676  1.4921
 3654SOL    HW210962   2.021   1.867   9.154 -0.3566 -0.8502  0.1030
 3655SOL     OW10963   1.835   3.166   7.773 -0.3695 -0.2129  0.5087
 3655SOL    HW110964   1.898   3.097   7.795  0.7806  0.4038 -0.6993
 3655SOL    HW210965   1.804   3.198   7.857  1.9198  0.3233  1.2187
 3656SOL     OW10966   3.767   2.101   7.310  0.2853 -0.1841 -0.5133
 3656SOL    HW110967   3.672   2.087   7.307  0.1243  0.8294 -0.5608
 3656SOL    HW210968   3.804   2.013   7.319 -0.5963 -0.7345 -1.8749
 3657SOL     OW10969   1.332   3.366  10.370  0.6796 -0.0476  0.7922
 3657SOL    HW110970   1.386   3.289  10.350 -0.4121 -0.4277 -0.8465
 3657SOL    HW210971   1.244   3.341  10.344  0.4770  2.1248 -0.9293
 3658SOL     OW10972   0.154   3.054   6.190  0.1521 -0.0062  0.7243
 3658SOL    HW110973   0.207   2.975   6.179  1.6881  0.9819  0.6660
 3658SOL    HW210974   0.069   3.031   6.154  1.0187 -1.1515 -0.7231
 3659SOL     OW10975   3.750   3.325   7.986  0.4083  0.1732 -0.2824
 3659SOL    HW110976   3.747   3.356   8.076  1.0347  1.0471 -0.5616
 3659SOL    HW210977   3.678   3.370   7.942  1.0427  0.9105 -0.5801
 3660SOL     OW10978   0.626   1.234   5.955 -0.0089 -0.3844  0.1401
 3660SOL    HW110979   0.668   1.295   6.015 -0.3937  0.2610 -0.2413
 3660SOL    HW210980   0.627   1.278   5.870 -3.4805  0.7060  0.5155
 3661SOL     OW10981   3.039   2.428   7.310  0.4477 -0.2813 -0.6186
 3661SOL    HW110982   2.972   2.381   7.261  0.8814  0.5244 -2.0312
 3661SOL    HW210983   3.101   2.360   7.337 -0.6427 -0.9624  0.2982
 3662SOL     OW10984   2.311   3.053   6.750 -0.2318 -0.1533 -0.7099
 3662SOL    HW110985   2.248   3.045   6.822 -1.4041  0.7783 -1.6028
 3662SOL    HW210986   2.385   3.101   6.788 -1.2433  1.1777 -0.3647
 3663SOL     OW10987   4.824   2.051   9.085  0.4564  0.2993  0.7271
 3663SOL    HW110988   4.734   2.024   9.065  0.3740  0.9291  0.1870
 3663SOL    HW210989   4.848   2.109   9.012  1.2332  0.2949  0.9671
 3664SOL     OW10990   0.441   1.550   7.718  0.2537  0.0451 -0.3858
 3664SOL    HW110991   0.390   1.479   7.756 -0.8784  0.0947 -1.7357
 3664SOL    HW210992   0.414   1.628   7.768 -1.0045  0.0614 -1.0446
 3665SOL     OW10993   2.889   4.885   8.441  0.0183  0.3445  0.0189
 3665SOL    HW110994   2.812   4.835   8.471 -0.8679  1.9976  0.6534
 3665SOL    HW210995   2.852   4.956   8.389  1.0744  1.3958  0.6547
 3666SOL     OW10996   2.611   1.748   7.261 -0.5131 -0.1125 -0.2482
 3666SOL    HW110997   2.682   1.716   7.316 -1.9958 -0.5630  1.4856
 3666SOL    HW210998   2.631   1.841   7.248  0.0387 -0.0703  0.7745
 3667SOL     OW10999   0.618   2.935   6.185  0.3707 -0.0653 -0.6220
 3667SOL    HW111000   0.713   2.945   6.179  0.1722  1.0924 -4.2914
 3667SOL    HW211001   0.593   2.991   6.259  2.4746 -0.2688  0.3344
 3668SOL     OW11002   4.104   4.545   7.610 -0.0342 -0.2320 -0.0734
 3668SOL    HW111003   4.166   4.603   7.565 -0.7884  0.6681  0.0323
 3668SOL    HW211004   4.112   4.462   7.563  1.2631 -0.1444 -0.0532
 3669SOL     OW11005   3.369   3.026   8.842 -0.1015  1.0406  0.6604
 3669SOL    HW111006   3.457   3.017   8.807 -0.2394  0.6804  0.3985
 3669SOL    HW211007   3.378   3.000   8.934  0.5069  3.1860  1.2655
 3670SOL     OW11008   4.465   2.286   7.541  0.4369  0.0050 -0.0678
 3670SOL    HW111009   4.416   2.231   7.479 -0.5211  1.3616 -0.5486
 3670SOL    HW211010   4.414   2.284   7.621  0.8757 -0.5124  0.2059
 3671SOL     OW11011   0.223   3.310   9.608 -0.1359  0.0673  0.0334
 3671SOL    HW111012   0.245   3.360   9.686  1.4490  1.1026 -1.0419
 3671SOL    HW211013   0.272   3.351   9.537 -0.1597 -1.9200 -1.2176
 3672SOL     OW11014   1.734   3.813   7.719 -1.2893  0.4190  0.6460
 3672SOL    HW111015   1.758   3.866   7.643  0.3793 -1.7679 -0.4588
 3672SOL    HW211016   1.734   3.875   7.792 -2.1035  2.4291 -0.9579
 3673SOL     OW11017   2.051   4.905   9.310  0.5200  0.9269 -0.4618
 3673SOL    HW111018   2.146   4.906   9.322  0.8383 -2.2556 -1.7494
 3673SOL    HW211019   2.016   4.943   9.391  2.8582 -2.4822  2.4366
 3674SOL     OW11020   1.672   4.717   8.831  0.3744  0.4690  0.1627
 3674SOL    HW111021   1.633   4.633   8.853 -0.4407  0.6724 -0.4300
 3674SOL    HW211022   1.752   4.695   8.782 -0.0240  0.0351 -0.2975
 3675SOL     OW11023   0.917   0.323   8.487  0.0586  0.5287  0.4780
 3675SOL    HW111024   0.923   0.363   8.574 -0.3255 -0.5330  1.0195
 3675SOL    HW211025   1.002   0.282   8.473 -0.4548 -0.8437  1.1680
 3676SOL     OW11026   4.075   4.384   4.880 -0.2698  0.7853 -0.2880
 3676SOL    HW111027   4.022   4.307   4.899 -0.6991  0.7511 -1.5079
 3676SOL    HW211028   4.012   4.455   4.869 -0.0568  0.8267 -1.3523
 3677SOL     OW11029   2.962   3.971   6.396 -0.2912 -0.8664  0.1725
 3677SOL    HW111030   2.967   3.919   6.315  1.0918  0.7860 -0.8806
 3677SOL    HW211031   2.899   3.925   6.451 -0.6830 -2.4751 -1.5386
 3678SOL     OW11032   0.168   1.620  10.036 -0.6042  0.3266  0.5120
 3678SOL    HW111033   0.203   1.580   9.957 -3.3016  1.0430 -1.1930
 3678SOL    HW211034   0.128   1.547  10.084  0.1125  0.0490  0.6949
 3679SOL     OW11035   0.935   3.568   5.941  0.2120  0.3323 -0.4105
 3679SOL    HW111036   0.998   3.532   5.879  1.2208 -0.7477  1.1824
 3679SOL    HW211037   0.883   3.493   5.969  0.4509  0.5943  0.7962
 3680SOL     OW11038   4.896   3.324   9.446 -1.0245  0.9015 -0.4100
 3680SOL    HW111039   4.884   3.318   9.541  0.3342 -2.2541 -0.3076
 3680SOL    HW211040   4.816   3.285   9.410 -0.9200  0.7534 -0.4848
 3681SOL     OW11041   3.056   2.427  10.088 -0.1930 -0.0268  0.8442
 3681SOL    HW111042   3.065   2.522  10.093 -0.7801  0.0590  0.3809
 3681SOL    HW211043   2.963   2.412  10.070  0.3396 -0.5422 -2.0031
 3682SOL     OW11044   1.592   3.410   4.973  0.1882 -0.2254 -0.1198
 3682SOL    HW111045   1.513   3.453   4.940 -0.4401 -1.7192 -0.6902
 3682SOL    HW211046   1.578   3.401   5.067 -0.6799 -1.1145 -0.3136
 3683SOL     OW11047   2.275   4.626   5.626 -0.0297 -0.6542  0.1994
 3683SOL    HW111048   2.250   4.718   5.624 -2.3263 -1.2331 -0.4044
 3683SOL    HW211049   2.362   4.625   5.666 -0.9061  1.5527  2.3333
 3684SOL     OW11050   3.265   4.492   8.047 -0.0489  0.2935 -0.7141
 3684SOL    HW111051   3.270   4.463   8.138  0.2760  2.3088 -0.0518
 3684SOL    HW211052   3.191   4.444   8.011  0.0111 -0.7866  0.4988
 3685SOL     OW11053   0.062   0.432   9.916  0.4413  0.6416 -0.3328
 3685SOL    HW111054   0.042   0.455  10.007  0.7942 -0.2452 -0.0283
 3685SOL    HW211055  -0.015   0.383   9.887 -1.0140  3.4000 -1.4743
 3686SOL     OW11056   1.967   1.732   6.866  0.8749  0.0255  0.5410
 3686SOL    HW111057   1.905   1.769   6.928 -0.2788  0.0817 -0.5888
 3686SOL    HW211058   2.030   1.803   6.849  0.9978  0.1192  1.3606
 3687SOL     OW11059   3.019   2.230   8.266 -0.9653  0.6943  0.0426
 3687SOL    HW111060   3.074   2.277   8.328  0.1715  1.8866 -1.7684
 3687SOL    HW211061   3.066   2.148   8.250 -1.5229  0.1538  1.1049
 3688SOL     OW11062   4.755   2.312   8.296  0.2266  0.0034  0.7311
 3688SOL    HW111063   4.791   2.368   8.365  0.0419  2.8490 -1.2908
 3688SOL    HW211064   4.668   2.348   8.279  0.8625  0.4919 -2.0022
 3689SOL     OW11065   2.691   1.716   5.204  0.3279  0.4599  0.2078
 3689SOL    HW111066   2.660   1.781   5.267 -4.3171 -2.0781  0.9784
 3689SOL    HW211067   2.737   1.651   5.258 -0.4526  0.0814  0.4223
 3690SOL     OW11068   2.733   2.943   9.363  0.3361 -0.3399  0.1912
 3690SOL    HW111069   2.650   2.974   9.326 -0.7694 -3.0752  0.0659
 3690SOL    HW211070   2.739   2.987   9.448 -0.9109  0.4433 -0.0945
 3691SOL     OW11071   4.740   2.714   9.538  0.2610  0.1734 -0.1263
 3691SOL    HW111072   4.667   2.711   9.600  1.0598 -0.5344  0.8194
 3691SOL    HW211073   4.795   2.786   9.570  0.7487 -0.2854  0.0782
 3692SOL     OW11074   0.226   2.841   5.610 -0.1073  0.2479  0.3551
 3692SOL    HW111075   0.181   2.760   5.636 -0.2241 -0.2787 -1.3563
 3692SOL    HW211076   0.201   2.854   5.519  3.0850 -0.0144 -0.6937
 3693SOL     OW11077   1.848   3.426   5.614  0.7189 -0.0974 -0.1475
 3693SOL    HW111078   1.924   3.417   5.671 -0.4481  0.4784  1.5720
 3693SOL    HW211079   1.797   3.497   5.652  0.2081  0.8073 -2.3381
 3694SOL     OW11080   1.609   0.761   5.138  0.6241 -0.4499  0.2907
 3694SOL    HW111081   1.680   0.799   5.189 -0.4751  1.5794  0.4278
 3694SOL    HW211082   1.595   0.674   5.177  0.9133  0.3667  2.3570
 3695SOL     OW11083   0.530   2.528   6.557  0.6562 -0.0937 -0.1921
 3695SOL    HW111084   0.553   2.435   6.553  1.4040  0.1120 -3.0489
 3695SOL    HW211085   0.589   2.569   6.493  0.8732  2.4911  1.5349
 3696SOL     OW11086   1.397   0.293   9.677 -0.1900 -0.0327  0.3109
 3696SOL    HW111087   1.460   0.357   9.646 -0.9854  0.1467 -0.9976
 3696SOL    HW211088   1.365   0.250   9.598 -1.0995 -0.6852  1.0114
 3697SOL     OW11089   2.469   4.936   5.843  0.1924  0.6208 -0.2415
 3697SOL    HW111090   2.509   4.873   5.782  1.5343  0.8703  0.3485
 3697SOL    HW211091   2.464   5.017   5.793  1.5306  0.8942  0.0212
 3698SOL     OW11092   0.139   1.296   8.936 -0.3837 -0.5673 -0.4181
 3698SOL    HW111093   0.198   1.358   8.892  2.5220 -1.9126  1.3148
 3698SOL    HW211094   0.082   1.263   8.866  0.8409  0.8876 -2.1830
 3699SOL     OW11095   4.849   3.847   5.020  0.3516  0.3594 -0.7703
 3699SOL    HW111096   4.872   3.914   4.956 -0.1663  0.0273 -1.3104
 3699SOL    HW211097   4.934   3.813   5.050  0.6071  0.9848 -0.7747
 3700SOL     OW11098   0.721   1.553   5.390  0.3474 -0.0724  0.6400
 3700SOL    HW111099   0.642   1.498   5.394  0.5877 -0.3343  3.2567
 3700SOL    HW211100   0.793   1.491   5.401  0.7067  0.5386  1.8895
 3701SOL     OW11101   1.521   3.379   5.495  0.0522 -0.0361  0.0034
 3701SOL    HW111102   1.491   3.347   5.581  0.3680 -0.3749 -0.0104
 3701SOL    HW211103   1.527   3.474   5.505 -0.8487  0.0233  0.0650
 3702SOL     OW11104   4.134   2.139   8.716 -0.1315 -0.2091  0.8098
 3702SOL    HW111105   4.197   2.184   8.659  1.9722 -0.4363  2.7843
 3702SOL    HW211106   4.049   2.175   8.691  0.8259  0.7277 -1.4339
 3703SOL     OW11107   3.090   2.590   8.669 -0.4872  0.2509 -0.2175
 3703SOL    HW111108   3.160   2.649   8.644 -0.1408 -0.5773 -1.3033
 3703SOL    HW211109   3.034   2.584   8.591 -1.0679 -0.0662  0.2133
 3704SOL     OW11110   0.587   2.137   8.788 -0.5634  0.3432 -0.5951
 3704SOL    HW111111   0.631   2.064   8.830  0.0216  0.9701 -0.0972
 3704SOL    HW211112   0.558   2.193   8.860 -1.0747  0.5606 -0.9649
 3705SOL     OW11113   3.914   3.036   7.338 -0.1434 -0.4287  0.7405
 3705SOL    HW111114   3.846   3.102   7.323 -2.5202 -1.9800  3.5508
 3705SOL    HW211115   3.965   3.070   7.411  1.9172  0.4467 -0.9778
 3706SOL     OW11116   2.285   3.629   8.726 -0.4132 -0.0109 -0.5791
 3706SOL    HW111117   2.252   3.690   8.791  0.1870  2.2249 -2.2678
 3706SOL    HW211118   2.231   3.644   8.648  0.9410 -0.2654 -1.6104
 3707SOL     OW11119   2.543  -0.013   6.748 -0.2335  0.6599 -0.5868
 3707SOL    HW111120   2.600   0.063   6.745  1.4490 -0.5592 -0.6705
 3707SOL    HW211121   2.495  -0.010   6.665  2.3537 -0.1935 -2.2287
 3708SOL     OW11122   2.225   1.869   8.059 -0.2582  0.2150  0.0156
 3708SOL    HW111123   2.260   1.891   7.973  0.4277 -0.6428  0.0535
 3708SOL    HW211124   2.281   1.797   8.090  0.6424  1.6676  1.9461
 3709SOL     OW11125   0.257   2.753   8.032  0.1164  0.1819 -0.6277
 3709SOL    HW111126   0.239   2.833   8.081 -0.8537 -2.4351  3.9300
 3709SOL    HW211127   0.170   2.719   8.010  0.4465 -0.4696 -0.9461
 3710SOL     OW11128   4.943   4.840   9.625 -0.3398 -0.4463  0.0200
 3710SOL    HW111129   4.930   4.934   9.629  2.1954 -0.0015 -0.2125
 3710SOL    HW211130   4.999   4.827   9.548 -0.6280 -2.1336  0.0538
 3711SOL     OW11131   0.248   3.271   5.747 -0.1625 -0.2076 -0.0796
 3711SOL    HW111132   0.320   3.289   5.808 -1.0684 -0.4545  1.1023
 3711SOL    HW211133   0.192   3.209   5.793 -2.5973  2.0138  0.2249
 3712SOL     OW11134   1.182   1.748   9.107 -0.6273 -0.2524 -0.7103
 3712SOL    HW111135   1.246   1.689   9.147 -0.7309 -0.1269 -0.3534
 3712SOL    HW211136   1.188   1.828   9.160  0.0518  0.3261 -1.6487
 3713SOL     OW11137   4.337   2.058   8.392  0.4353  0.2895  0.2677
 3713SOL    HW111138   4.242   2.061   8.384  0.3556 -0.5545  0.7026
 3713SOL    HW211139   4.360   2.138   8.439 -0.3654 -0.7288  2.5955
 3714SOL     OW11140   3.252   0.790   8.984  0.3179 -0.1705 -0.0516
 3714SOL    HW111141   3.339   0.751   8.978 -0.1691 -1.2003 -0.7172
 3714SOL    HW211142   3.196   0.734   8.930 -0.8567  0.2082  0.7172
 3715SOL     OW11143   2.875   4.720   9.008  0.5361 -0.2509 -0.7089
 3715SOL    HW111144   2.906   4.786   9.070  0.1848 -0.5674 -0.1891
 3715SOL    HW211145   2.949   4.661   8.996 -0.3295 -2.0474  1.9209
 3716SOL     OW11146   3.283   4.232   9.152  0.6443 -0.4462 -0.3031
 3716SOL    HW111147   3.289   4.142   9.182  3.1504 -0.2025  0.1408
 3716SOL    HW211148   3.296   4.285   9.231 -1.0853  0.3471 -0.5057
 3717SOL     OW11149   0.889   0.788   9.499 -0.0388  0.7041  0.5866
 3717SOL    HW111150   0.976   0.828   9.501  0.7407 -0.7472 -1.0529
 3717SOL    HW211151   0.833   0.856   9.463  0.7903  1.1088  0.0074
 3718SOL     OW11152   0.099   3.102   9.362  0.0035 -0.7243  0.4638
 3718SOL    HW111153   0.056   3.067   9.440 -0.7513 -0.7911  0.0311
 3718SOL    HW211154   0.168   3.159   9.395 -2.0109  1.4035  1.2409
 3719SOL     OW11155   3.366   1.575   9.467  0.3275 -0.2166  0.6275
 3719SOL    HW111156   3.273   1.560   9.450  0.2515  1.4380 -0.6414
 3719SOL    HW211157   3.410   1.505   9.418 -0.1989  0.3256 -0.6837
 3720SOL     OW11158   3.985   2.407   8.414  0.5347 -0.0509 -0.2570
 3720SOL    HW111159   3.934   2.334   8.379  0.0305  0.0045  0.3324
 3720SOL    HW211160   3.934   2.484   8.390 -0.3433 -0.0684  1.4040
 3721SOL     OW11161   2.701   3.959   9.974 -0.7708  0.0904 -0.6625
 3721SOL    HW111162   2.635   4.003  10.027 -3.1370 -1.6090 -1.9787
 3721SOL    HW211163   2.731   3.886  10.028 -0.2626  0.6270 -0.2148
 3722SOL     OW11164   1.458   2.317   7.927 -0.3448  0.1748 -0.0772
 3722SOL    HW111165   1.393   2.251   7.951 -0.6007  0.1762 -0.7472
 3722SOL    HW211166   1.408   2.385   7.881 -0.0043  0.5935  0.1590
 3723SOL     OW11167   2.581   1.660  10.221 -0.4311 -0.1321 -0.4623
 3723SOL    HW111168   2.542   1.664  10.308  1.0629  1.8722  0.2036
 3723SOL    HW211169   2.542   1.733  10.174  2.0819  1.7139  0.1181
 3724SOL     OW11170   0.701   1.032   9.083  0.1970  0.6812 -0.4423
 3724SOL    HW111171   0.766   1.054   9.016 -2.1444  1.0770 -2.7633
 3724SOL    HW211172   0.695   0.936   9.079 -0.0578  0.7130 -0.9775
 3725SOL     OW11173   3.822   1.398   8.580 -0.1229  0.8507  0.2463
 3725SOL    HW111174   3.736   1.356   8.576  0.9709 -1.5388 -0.3614
 3725SOL    HW211175   3.806   1.483   8.620 -2.8587  0.7719 -0.4919
 3726SOL     OW11176   1.305   2.633   6.325 -0.1495 -0.1307 -0.4262
 3726SOL    HW111177   1.235   2.698   6.317  0.1479 -0.0410 -4.6295
 3726SOL    HW211178   1.344   2.650   6.411 -2.2120  3.0103  0.0576
 3727SOL     OW11179   0.398   2.498   9.747 -0.1407  0.0898  0.0539
 3727SOL    HW111180   0.408   2.521   9.655  1.0296  0.0744  0.1629
 3727SOL    HW211181   0.328   2.432   9.748  0.0535 -0.1456 -0.8553
 3728SOL     OW11182   2.190   0.256   9.409 -0.2519  0.3419 -0.0284
 3728SOL    HW111183   2.275   0.301   9.410 -1.8364  3.6702 -1.0663
 3728SOL    HW211184   2.173   0.240   9.316 -1.3628  0.9677  0.0599
 3729SOL     OW11185   2.975   0.846   8.229 -0.4351 -0.0074 -0.2335
 3729SOL    HW111186   2.932   0.800   8.301 -0.8530  1.5620  0.5708
 3729SOL    HW211187   3.067   0.821   8.236 -0.3016  0.8122  1.4628
 3730SOL     OW11188   1.643   0.288  10.434 -0.1276 -0.0570  0.0670
 3730SOL    HW111189   1.629   0.230  10.359 -1.3522  2.7011 -2.0085
 3730SOL    HW211190   1.555   0.306  10.467  0.0150  2.0091 -0.5479
 3731SOL     OW11191   2.770   1.709   9.813  0.8554 -0.1368  0.5190
 3731SOL    HW111192   2.792   1.795   9.778 -0.9651  1.8431  3.7101
 3731SOL    HW211193   2.848   1.683   9.863  1.2668 -0.1671 -0.1327
 3732SOL     OW11194   3.372   1.187   9.033  0.3227 -0.3873  0.2113
 3732SOL    HW111195   3.282   1.203   9.062  0.5673  3.5414 -0.6289
 3732SOL    HW211196   3.424   1.193   9.113 -0.0357 -1.8248  0.5773
 3733SOL     OW11197   3.281   4.268   8.670  0.8628  0.1229 -0.0343
 3733SOL    HW111198   3.367   4.303   8.648  1.5380 -1.2510  0.2563
 3733SOL    HW211199   3.299   4.204   8.739 -0.4497  0.1002  0.3164
 3734SOL     OW11200   4.085   4.107   7.473  0.4956  0.0698  0.3872
 3734SOL    HW111201   4.085   4.071   7.384 -1.2353  2.0713 -0.4936
 3734SOL    HW211202   4.042   4.039   7.525 -1.5190  0.1888 -0.9866
 3735SOL     OW11203   0.865   1.612   9.539 -0.6726 -0.1714 -0.9496
 3735SOL    HW111204   0.776   1.607   9.573 -0.1017 -4.2344  0.6086
 3735SOL    HW211205   0.856   1.595   9.446 -1.5483 -0.6012 -0.7991
 3736SOL     OW11206   0.510   4.108   9.280 -0.4484  0.1363 -0.2760
 3736SOL    HW111207   0.435   4.100   9.222  1.3140 -2.2525 -2.4674
 3736SOL    HW211208   0.494   4.043   9.349  0.3470 -1.7820 -1.7927
 3737SOL     OW11209   3.065   0.556   8.175  0.5592 -0.0013  0.0810
 3737SOL    HW111210   3.158   0.574   8.162  0.4019 -0.4261 -1.8766
 3737SOL    HW211211   3.024   0.577   8.091 -1.6143  3.0521  1.7105
 3738SOL     OW11212   4.261   1.674   7.407  0.0536  0.1296 -0.0356
 3738SOL    HW111213   4.306   1.653   7.325  2.4154  1.7249  0.7446
 3738SOL    HW211214   4.211   1.595   7.427  2.6024 -1.8719 -0.9561
 3739SOL     OW11215   3.709   4.765  10.023 -0.0798  0.0848 -0.3428
 3739SOL    HW111216   3.761   4.844  10.010 -0.9082  1.2098  2.4999
 3739SOL    HW211217   3.703   4.754  10.118 -1.8488 -2.1519 -0.6018
 3740SOL     OW11218   4.463   0.925  10.685  0.7522 -1.2858 -0.0886
 3740SOL    HW111219   4.391   0.889  10.633 -0.0461  2.0193 -1.5177
 3740SOL    HW211220   4.511   0.848  10.716 -0.8194 -3.5142 -2.7452
 3741SOL     OW11221   2.904   2.179   9.357  0.0423 -0.4557 -0.2115
 3741SOL    HW111222   2.988   2.147   9.391 -0.6475 -0.3191  1.7069
 3741SOL    HW211223   2.929   2.229   9.279  1.8209 -0.0813  0.5233
 3742SOL     OW11224   1.917   0.217   8.275  0.4630  0.0041 -0.0745
 3742SOL    HW111225   1.931   0.147   8.340  0.1123  0.0791  0.0851
 3742SOL    HW211226   1.893   0.293   8.328  2.8275  0.8269 -0.0615
 3743SOL     OW11227   4.848   3.794   8.811 -0.5410 -0.0058 -0.5990
 3743SOL    HW111228   4.796   3.831   8.882  0.4983 -1.3321  0.9513
 3743SOL    HW211229   4.938   3.822   8.831 -0.2860 -0.0519 -1.6441
 3744SOL     OW11230   4.259   4.364   8.836 -0.0801  0.0624  0.7383
 3744SOL    HW111231   4.344   4.375   8.794  0.7758 -0.7633  2.1769
 3744SOL    HW211232   4.238   4.271   8.826 -1.1853  0.3981 -0.2498
 3745SOL     OW11233   0.425   4.682   8.222  0.2641  0.0768 -0.2662
 3745SOL    HW111234   0.373   4.705   8.299  2.3352  0.6354  1.0528
 3745SOL    HW211235   0.461   4.766   8.192 -1.3935  0.0588 -2.6223
 3746SOL     OW11236   0.047   0.794   9.250 -0.0453  0.3891  0.7127
 3746SOL    HW111237  -0.030   0.748   9.283  0.2012 -0.5469  0.0277
 3746SOL    HW211238   0.051   0.875   9.301 -0.1633 -0.6050  2.3512
 3747SOL     OW11239   1.313   2.768   7.115 -0.4453 -0.0517  0.0490
 3747SOL    HW111240   1.254   2.720   7.173  1.2125 -0.8489  1.1491
 3747SOL    HW211241   1.400   2.750   7.149  0.4698  0.9602 -1.6175
 3748SOL     OW11242   2.870   1.796   9.454 -0.3584  0.3993  0.4637
 3748SOL    HW111243   2.865   1.845   9.372  0.2484  0.4018  0.4214
 3748SOL    HW211244   2.867   1.863   9.522  0.6408  0.5210  0.4020
 3749SOL     OW11245   3.386   3.208   8.135 -0.5171 -0.2314  0.4109
 3749SOL    HW111246   3.295   3.209   8.164 -1.5267  1.5592 -2.4123
 3749SOL    HW211247   3.390   3.138   8.069  0.7618 -1.6782  1.9062
 3750SOL     OW11248   4.910   4.931   7.667 -0.8107 -0.1948  1.0128
 3750SOL    HW111249   4.940   4.905   7.580 -0.6731  0.6714  0.7901
 3750SOL    HW211250   4.989   4.959   7.713 -0.9588 -0.1176  1.2245
 3751SOL     OW11251   1.111   4.858  10.213  0.6536  0.6172  0.2033
 3751SOL    HW111252   1.162   4.893  10.140  0.5397 -0.0086 -0.1817
 3751SOL    HW211253   1.028   4.907  10.210  0.9399  1.1213  0.3811
 3752SOL     OW11254   4.033   3.978   9.390  0.2098  1.0716 -0.5737
 3752SOL    HW111255   4.045   4.061   9.436 -0.7137  2.0005 -1.9232
 3752SOL    HW211256   4.075   3.990   9.305  0.5730 -0.0698 -0.5832
 3753SOL     OW11257   4.569   2.427   9.570 -0.3039  0.3604  0.1347
 3753SOL    HW111258   4.493   2.422   9.513  0.4213  0.6274 -0.8833
 3753SOL    HW211259   4.567   2.515   9.606  0.5228  1.0123 -1.3462
 3754SOL     OW11260   1.418   3.346   5.828 -0.1205  0.3084 -0.3460
 3754SOL    HW111261   1.373   3.387   5.902 -0.1197 -0.5229  0.1172
 3754SOL    HW211262   1.511   3.356   5.849 -0.0501  1.8332 -1.2004
 3755SOL     OW11263   4.833   2.794   7.531 -0.5384  0.4809 -0.1886
 3755SOL    HW111264   4.742   2.767   7.513 -0.7949 -1.2134  2.9559
 3755SOL    HW211265   4.825   2.878   7.576 -0.7248 -0.3189  1.3388
 3756SOL     OW11266   3.842   1.059   9.232  0.4365  0.0277  0.0500
 3756SOL    HW111267   3.838   0.963   9.235 -0.6248  0.0609 -0.0615
 3756SOL    HW211268   3.912   1.081   9.293 -0.6981 -0.7499  1.7254
 3757SOL     OW11269   1.407   2.038   9.404  0.0720  0.3309  0.1919
 3757SOL    HW111270   1.475   2.037   9.472  0.2975  0.4560 -0.0321
 3757SOL    HW211271   1.359   2.119   9.420  0.3396  0.5315 -0.0073
 3758SOL     OW11272   0.089   2.409   7.263  0.6898 -0.0451  0.2343
 3758SOL    HW111273   0.045   2.435   7.344 -1.5116  1.0793 -1.2052
 3758SOL    HW211274   0.124   2.322   7.281 -1.5135 -0.7001  1.7648
 3759SOL     OW11275   3.429   0.366  10.093 -0.3662  0.4323 -0.2241
 3759SOL    HW111276   3.391   0.441  10.140 -0.7490  0.0171  0.1410
 3759SOL    HW211277   3.354   0.320  10.057 -0.0332  1.3513 -2.2286
 3760SOL     OW11278   1.971   2.000   6.592  0.3609 -0.5462  0.4954
 3760SOL    HW111279   1.954   2.021   6.684  0.7743 -2.2883  1.0024
 3760SOL    HW211280   1.889   1.960   6.562  0.6195 -1.0442  0.4515
 3761SOL     OW11281   1.199   0.964   8.428  0.0923 -0.6433  0.0325
 3761SOL    HW111282   1.187   1.015   8.348 -2.0032  1.4270  1.4855
 3761SOL    HW211283   1.287   0.987   8.458 -0.5547  1.7658  0.2971
 3762SOL     OW11284   2.342   3.666   9.142  0.1630 -0.2090 -0.0830
 3762SOL    HW111285   2.398   3.591   9.119  0.6047  0.4293 -1.1409
 3762SOL    HW211286   2.258   3.645   9.102  0.5440  0.2637 -1.1641
 3763SOL     OW11287   3.153   3.054   9.496 -0.2639 -0.3479  0.1530
 3763SOL    HW111288   3.163   2.963   9.468  0.2603 -0.1322 -0.3768
 3763SOL    HW211289   3.067   3.080   9.462  0.1285 -0.2608 -0.8067
 3764SOL     OW11290   1.226   1.394   9.892 -0.0106 -0.4968 -0.7211
 3764SOL    HW111291   1.189   1.311   9.924  0.2743 -0.8822 -1.3712
 3764SOL    HW211292   1.165   1.422   9.823 -0.2987  0.0232 -0.2652
 3765SOL     OW11293   0.979   1.732   8.931  0.4122 -0.2831 -0.2959
 3765SOL    HW111294   1.050   1.737   8.994 -0.9324 -0.7689  1.3214
 3765SOL    HW211295   0.913   1.793   8.964 -0.6779 -1.1962 -0.7274
 3766SOL     OW11296   4.879   3.836   6.758 -0.8756  0.1339  0.5271
 3766SOL    HW111297   4.853   3.887   6.835  2.3890  1.9030  0.6361
 3766SOL    HW211298   4.923   3.759   6.795 -0.6357  0.2215  0.4271
 3767SOL     OW11299   1.423   4.608   7.912 -1.1972 -0.1710  0.6592
 3767SOL    HW111300   1.519   4.604   7.911 -1.1720 -0.7137  2.3962
 3767SOL    HW211301   1.401   4.662   7.836  0.3851 -1.4739 -0.8129
 3768SOL     OW11302   1.239   1.099   9.674  0.2420 -0.9051  0.1612
 3768SOL    HW111303   1.153   1.111   9.715  0.8740 -0.0179  1.2813
 3768SOL    HW211304   1.275   1.187   9.666  0.7752 -1.2070 -0.9483
 3769SOL     OW11305   2.115   1.792   8.718  0.8059 -0.0056  0.1120
 3769SOL    HW111306   2.033   1.833   8.690  1.8475  1.0620 -1.5260
 3769SOL    HW211307   2.090   1.702   8.740 -0.8785  0.4215  0.0822
 3770SOL     OW11308   2.979   1.544  10.156 -0.7671 -0.2126 -0.2636
 3770SOL    HW111309   3.058   1.598  10.164 -0.1137 -0.8438 -2.0303
 3770SOL    HW211310   2.908   1.602  10.183  0.2500  0.4060  1.2681
 3771SOL     OW11311   0.090   2.796   8.604  0.2299 -0.3674  0.2015
 3771SOL    HW111312   0.085   2.888   8.630 -0.7599 -0.7242  1.3306
 3771SOL    HW211313   0.049   2.748   8.676  1.4079 -1.7718 -0.0182
 3772SOL     OW11314   2.444   2.946   8.785  0.4785  0.3875 -0.3566
 3772SOL    HW111315   2.512   2.983   8.730  0.5741 -0.1354 -0.5944
 3772SOL    HW211316   2.490   2.915   8.863  0.6730 -0.8283 -0.9247
 3773SOL     OW11317   4.889   4.271  10.080  0.4242  0.4417  0.3546
 3773SOL    HW111318   4.875   4.211  10.152  0.6803 -1.3182 -0.9962
 3773SOL    HW211319   4.984   4.282  10.074  0.6713 -1.9299 -1.5731
 3774SOL     OW11320   1.727   2.939   9.169 -0.0791  0.0231  0.3664
 3774SOL    HW111321   1.755   3.014   9.221 -0.3073  0.1148  0.3592
 3774SOL    HW211322   1.800   2.922   9.110 -0.3327  0.7207 -0.1612
 3775SOL     OW11323   0.479   4.917   7.830  0.1112 -0.7181 -0.0384
 3775SOL    HW111324   0.447   5.006   7.818 -1.2907 -1.4037 -1.9014
 3775SOL    HW211325   0.554   4.911   7.770  0.7105 -0.5866  0.6783
 3776SOL     OW11326   1.253   0.244  10.205  0.1263  0.3539 -0.3944
 3776SOL    HW111327   1.167   0.217  10.172  0.4741  1.8601 -2.8521
 3776SOL    HW211328   1.314   0.185  10.162  0.5676  2.1589 -2.4548
 3777SOL     OW11329   0.908   3.169   9.468 -0.5801 -0.1555  0.5290
 3777SOL    HW111330   0.850   3.124   9.530  0.0639 -1.7803  0.0228
 3777SOL    HW211331   0.992   3.122   9.477 -0.1869  0.2576 -0.8230
 3778SOL     OW11332   2.207   3.114   8.480  0.6406 -0.8689  0.3211
 3778SOL    HW111333   2.248   3.041   8.434  0.4411 -0.7494 -0.0453
 3778SOL    HW211334   2.162   3.073   8.554  1.6798 -0.9760  0.9262
 3779SOL     OW11335   2.627   2.057   9.290  0.4600  0.1875 -0.4360
 3779SOL    HW111336   2.693   2.111   9.333  0.8639 -0.1061 -0.6789
 3779SOL    HW211337   2.553   2.057   9.351  0.3387  1.2434 -0.5609
 3780SOL     OW11338   2.688   1.627   7.974  0.5025  0.3340  0.0966
 3780SOL    HW111339   2.688   1.562   8.043 -2.3641 -0.9087 -0.9432
 3780SOL    HW211340   2.620   1.689   7.998  1.6022  1.6938 -0.1065
 3781SOL     OW11341   2.597   4.651   9.718  0.2868 -0.2750 -0.2611
 3781SOL    HW111342   2.659   4.595   9.672 -0.9942 -0.2833 -2.1011
 3781SOL    HW211343   2.567   4.713   9.651 -0.5559  0.6938  0.9636
 3782SOL     OW11344   2.811   3.366   9.193 -0.4221 -0.5326 -0.8870
 3782SOL    HW111345   2.782   3.426   9.262  1.6260 -1.4017  0.8239
 3782SOL    HW211346   2.864   3.421   9.135 -0.6736 -0.1657 -0.7758
 3783SOL     OW11347   0.934   1.929   9.936  0.3031 -0.0162  0.4278
 3783SOL    HW111348   0.944   1.850   9.990 -3.9432 -2.0803 -1.3120
 3783SOL    HW211349   0.943   1.898   9.846 -1.6609  1.3355 -0.3134
 3784SOL     OW11350   3.274   2.778   9.411 -0.3167  0.0575  0.1600
 3784SOL    HW111351   3.368   2.761   9.406 -0.5956 -1.3759 -0.6035
 3784SOL    HW211352   3.237   2.735   9.334 -1.6669  0.1736  0.7106
 3785SOL     OW11353   0.752   1.208  10.082 -0.1840  0.1147  0.7114
 3785SOL    HW111354   0.758   1.145  10.154  2.5119 -1.3116 -0.5914
 3785SOL    HW211355   0.695   1.165  10.018 -0.4927  0.2000  0.9308
 3786SOL     OW11356   3.543   4.889   8.541  0.3994  0.1042  0.3064
 3786SOL    HW111357   3.536   4.984   8.545 -1.7466 -0.0415  1.8820
 3786SOL    HW211358   3.479   4.863   8.475 -0.9892 -0.3199  1.7389
 3787SOL     OW11359   4.283   0.831   9.412 -0.6924  0.2683 -0.1048
 3787SOL    HW111360   4.338   0.903   9.441 -0.8659  0.4146 -0.1391
 3787SOL    HW211361   4.327   0.796   9.335 -2.1566  2.2897 -1.9970
 3788SOL     OW11362   4.746   1.412   8.625 -0.0331  0.2133  0.2567
 3788SOL    HW111363   4.724   1.324   8.655 -1.4753  0.2853 -0.4951
 3788SOL    HW211364   4.814   1.398   8.559  1.6590 -0.0924  1.9925
 3789SOL     OW11365   4.604   1.120   8.195 -0.1878 -0.2378  0.1264
 3789SOL    HW111366   4.569   1.033   8.177 -0.4979 -0.3769  1.2938
 3789SOL    HW211367   4.535   1.165   8.244  0.9680 -0.3015  1.9308
 3790SOL     OW11368   4.414   1.371   8.031  0.1451  0.1300  0.5309
 3790SOL    HW111369   4.505   1.344   8.025  0.0088 -0.0946 -0.7882
 3790SOL    HW211370   4.407   1.414   8.116  1.2896 -0.5258  0.9784
 3791SOL     OW11371   3.250   1.529   9.178  0.3555  0.0536 -0.5129
 3791SOL    HW111372   3.250   1.585   9.100  0.9258  0.9404  0.1177
 3791SOL    HW211373   3.342   1.520   9.202  0.1398  0.3468  0.4616
 3792SOL     OW11374   2.555   0.155   9.551  0.2062 -0.7347  0.5162
 3792SOL    HW111375   2.524   0.078   9.600  0.1799  0.4704  2.4818
 3792SOL    HW211376   2.479   0.213   9.548 -0.0424 -1.0928 -1.7441
 3793SOL     OW11377   3.302   3.317   9.977 -0.3557 -0.3744  0.5897
 3793SOL    HW111378   3.265   3.357  10.056 -2.6095 -2.0126  0.4523
 3793SOL    HW211379   3.243   3.344   9.907  2.0884  1.7750 -0.8238
 3794SOL     OW11380   3.989   4.733   9.035 -0.5400 -0.3405 -0.3901
 3794SOL    HW111381   3.934   4.803   8.998 -0.8037 -0.0869  0.4474
 3794SOL    HW211382   4.002   4.672   8.963 -2.8850 -0.9892 -0.3439
 3795SOL     OW11383   1.864   3.494   8.448  0.0147  0.0854 -0.7016
 3795SOL    HW111384   1.912   3.458   8.373  0.4183 -1.7303  0.3819
 3795SOL    HW211385   1.928   3.493   8.520 -1.1518 -0.8531  0.3549
 3796SOL     OW11386   1.400   1.932   8.860 -0.3183 -0.0820  0.0485
 3796SOL    HW111387   1.335   1.884   8.912 -2.0945  1.9578 -0.1138
 3796SOL    HW211388   1.437   1.867   8.801 -2.3767 -1.3388  0.0335
 3797SOL     OW11389   0.489   2.229   9.363  0.4043 -0.4873 -0.7749
 3797SOL    HW111390   0.476   2.190   9.449  1.2769 -0.4704 -0.6198
 3797SOL    HW211391   0.502   2.155   9.304 -2.3677 -0.6165 -1.3387
 3798SOL     OW11392   2.971   0.559   9.528  0.5100 -0.4150  0.4753
 3798SOL    HW111393   3.027   0.632   9.502  0.9286 -1.0366 -0.4465
 3798SOL    HW211394   2.898   0.600   9.575  0.7087  0.6010 -0.0586
 3799SOL     OW11395   2.947   0.905  10.321 -0.1373  0.0527  0.3486
 3799SOL    HW111396   3.032   0.902  10.365  0.0372 -2.4891  0.0197
 3799SOL    HW211397   2.957   0.971  10.254  1.2191  0.5525  1.0022
 3800SOL     OW11398   0.338   0.039   6.081  0.2524 -0.7481  0.3562
 3800SOL    HW111399   0.287   0.056   6.002  2.7618 -0.1579 -1.2654
 3800SOL    HW211400   0.326   0.117   6.136 -0.5938 -0.6490  0.0388
 3801SOL     OW11401   3.298   1.383   7.454 -1.0389 -0.0736  0.1158
 3801SOL    HW111402   3.208   1.416   7.455 -0.2437  2.5711 -2.3646
 3801SOL    HW211403   3.308   1.344   7.367  0.3142  0.0227  0.2107
 3802SOL     OW11404   2.665   3.725   8.408 -0.5841 -0.1880 -0.1152
 3802SOL    HW111405   2.600   3.670   8.452 -0.5697 -0.2929 -0.2251
 3802SOL    HW211406   2.685   3.793   8.472 -0.7257 -0.2139 -0.0414
 3803SOL     OW11407   3.996   4.565   8.126 -0.4742  0.8627 -0.2993
 3803SOL    HW111408   3.922   4.597   8.074 -1.1213  0.2859  0.2465
 3803SOL    HW211409   3.960   4.492   8.177  0.1040  1.4772  1.0400
 3804SOL     OW11410   0.252   3.739   7.149 -1.3353 -0.2332  0.5031
 3804SOL    HW111411   0.209   3.742   7.063  0.6544  1.1423 -0.5207
 3804SOL    HW211412   0.330   3.793   7.138 -0.7337 -0.4909  3.0470
 3805SOL     OW11413   3.847   3.154   6.268  0.6006  0.2399 -0.2120
 3805SOL    HW111414   3.894   3.195   6.196 -2.2935 -1.1375 -3.1740
 3805SOL    HW211415   3.807   3.226   6.316  1.9039  1.1552 -0.4619
 3806SOL     OW11416   3.173   3.387   7.383  0.8902 -0.0038  0.2789
 3806SOL    HW111417   3.123   3.466   7.360  0.6558  0.0209  0.8556
 3806SOL    HW211418   3.143   3.321   7.321 -0.5902 -0.2643  1.2315
 3807SOL     OW11419   0.543   3.429   5.535 -0.0718  0.4092  0.1781
 3807SOL    HW111420   0.554   3.517   5.500  0.1140  1.4230  2.5718
 3807SOL    HW211421   0.452   3.426   5.564 -0.0195 -0.1222  0.3024
 3808SOL     OW11422   2.504   1.304   4.804 -0.5615 -0.3622  0.1726
 3808SOL    HW111423   2.467   1.352   4.878  2.6450  0.2230  1.6103
 3808SOL    HW211424   2.487   1.358   4.728 -1.1243  0.6869  1.0241
 3809SOL     OW11425   2.968   0.151   5.225  0.1840 -0.1174 -0.3512
 3809SOL    HW111426   2.893   0.192   5.182 -0.3255  0.6135  1.1535
 3809SOL    HW211427   3.035   0.219   5.227  0.5346 -0.4489 -0.8197
 3810SOL     OW11428   4.582   4.382   6.478 -0.0930  0.0453  0.0330
 3810SOL    HW111429   4.534   4.463   6.461 -1.4015 -0.4154  1.3206
 3810SOL    HW211430   4.545   4.319   6.416 -0.1517  0.0399  0.0737
 3811SOL     OW11431   3.736   0.938   6.977  0.0124 -1.0335 -0.2221
 3811SOL    HW111432   3.723   0.973   7.065  2.4189  1.0012 -0.5573
 3811SOL    HW211433   3.692   1.001   6.920  0.8196 -0.7901 -0.5945
 3812SOL     OW11434   4.519   3.690   5.937 -0.3390 -0.1543 -0.1638
 3812SOL    HW111435   4.550   3.603   5.961  1.6875  0.1722 -1.4079
 3812SOL    HW211436   4.545   3.746   6.010 -0.2010 -0.3075 -0.0948
 3813SOL     OW11437   3.029   4.468   6.112 -0.2402 -0.2453 -0.2398
 3813SOL    HW111438   3.018   4.394   6.173  2.7963 -0.2287  0.4546
 3813SOL    HW211439   3.123   4.485   6.112 -0.5727  2.0071 -2.3623
 3814SOL     OW11440   2.827   3.484   5.541  0.4749  0.4224  0.2960
 3814SOL    HW111441   2.867   3.568   5.520  0.4312  0.4230  0.2133
 3814SOL    HW211442   2.779   3.460   5.461 -1.1199  1.2494  0.9496
 3815SOL     OW11443   4.166   2.586   7.921  0.3938 -0.0039 -0.2997
 3815SOL    HW111444   4.120   2.580   8.005  0.2427 -2.7299 -0.4798
 3815SOL    HW211445   4.098   2.572   7.856  1.0037 -1.4844 -0.6728
 3816SOL     OW11446   3.819   3.656   6.385 -0.7613 -0.1482  0.3356
 3816SOL    HW111447   3.861   3.737   6.357  1.2861 -1.1039  0.4219
 3816SOL    HW211448   3.730   3.661   6.350 -0.7499  2.1774  0.4842
 3817SOL     OW11449   4.254   3.442   6.882  0.3726 -0.0144  0.2924
 3817SOL    HW111450   4.167   3.411   6.910 -0.8997 -0.2194 -3.3764
 3817SOL    HW211451   4.254   3.535   6.903 -1.2065  0.2164 -0.5870
 3818SOL     OW11452   4.628   3.464   9.815  0.4890 -0.5888 -0.0593
 3818SOL    HW111453   4.705   3.407   9.820  0.5901 -0.5399 -0.8696
 3818SOL    HW211454   4.611   3.489   9.905  0.6043 -1.6840  0.2843
 3819SOL     OW11455   4.749   4.946   8.423  0.5337 -0.3078 -0.0195
 3819SOL    HW111456   4.735   4.949   8.328  0.0267  1.6486  0.0713
 3819SOL    HW211457   4.844   4.956   8.433  1.0474 -3.7657 -0.3513
 3820SOL     OW11458   2.536   2.618   5.359  0.2810  0.0246 -0.0142
 3820SOL    HW111459   2.617   2.574   5.334 -0.0147 -1.2570  1.1971
 3820SOL    HW211460   2.555   2.712   5.349  0.6725 -0.2721 -3.4613
 3821SOL     OW11461   3.165   3.865   7.763  0.2671 -0.3828  0.5017
 3821SOL    HW111462   3.210   3.784   7.739 -0.6516 -1.3031  1.7920
 3821SOL    HW211463   3.100   3.839   7.827 -0.7116  1.2435  0.2343
 3822SOL     OW11464   4.019   4.013   8.122  0.4117 -0.3199 -0.7744
 3822SOL    HW111465   3.956   4.083   8.105  1.2370  0.2386 -1.6414
 3822SOL    HW211466   4.102   4.059   8.138  1.1963 -1.1034 -2.3926
 3823SOL     OW11467   4.434   3.214   6.545 -0.0829 -0.4672  0.8797
 3823SOL    HW111468   4.362   3.276   6.552 -1.2925 -1.6890 -0.0979
 3823SOL    HW211469   4.392   3.128   6.553  1.2795 -1.2080  0.3929
 3824SOL     OW11470   3.148   2.469   5.717  0.7185 -0.9026 -0.0648
 3824SOL    HW111471   3.102   2.541   5.673  0.6999 -2.0418 -1.9837
 3824SOL    HW211472   3.159   2.500   5.807  1.9881  2.1253 -1.1266
 3825SOL     OW11473   4.191   2.830   5.151  0.3868  0.5453  0.2356
 3825SOL    HW111474   4.218   2.904   5.097 -2.1822  1.0576 -0.4679
 3825SOL    HW211475   4.106   2.804   5.115 -0.1987 -0.7745  2.4174
 3826SOL     OW11476   1.740   1.265   5.542 -0.2065 -0.5918  0.4277
 3826SOL    HW111477   1.768   1.174   5.547  0.4470 -0.4669 -0.7373
 3826SOL    HW211478   1.800   1.306   5.479  0.4937  1.0191  2.0417
 3827SOL     OW11479   4.616   3.119   6.385  0.7641 -0.3783  0.5160
 3827SOL    HW111480   4.561   3.168   6.446  1.9540 -0.2434  1.5314
 3827SOL    HW211481   4.660   3.187   6.333 -1.7586 -0.4973 -2.0052
 3828SOL     OW11482   3.032   3.662   4.963  0.2710  0.1406 -0.1530
 3828SOL    HW111483   2.966   3.595   4.950 -1.1414  1.8641 -2.6080
 3828SOL    HW211484   3.044   3.665   5.058 -0.7219 -2.4527  0.1441
 3829SOL     OW11485   4.842   0.250   8.543  0.7222 -0.8547  0.0556
 3829SOL    HW111486   4.903   0.315   8.579  0.8513 -0.1600 -1.3517
 3829SOL    HW211487   4.888   0.166   8.552  1.7955 -0.3750 -0.7442
 3830SOL     OW11488   1.169   1.007   5.549  0.7254  0.8475  0.1619
 3830SOL    HW111489   1.133   0.925   5.515  2.2565 -1.0223  2.7640
 3830SOL    HW211490   1.184   1.060   5.471  0.9511 -1.8537 -1.7676
 3831SOL     OW11491   0.588  -0.020   5.911  0.1808  0.0421 -0.4595
 3831SOL    HW111492   0.507  -0.051   5.951  0.4001 -1.9297 -1.4263
 3831SOL    HW211493   0.590   0.074   5.930 -3.3063  0.5955 -2.0441
 3832SOL     OW11494   2.485   4.287   9.602 -0.8032 -0.6043 -0.1045
 3832SOL    HW111495   2.574   4.315   9.623 -0.4063 -1.7683 -0.1392
 3832SOL    HW211496   2.491   4.249   9.515 -0.6039 -3.5713  1.0851
 3833SOL     OW11497   4.246   2.744   4.839  0.0043  0.3772  0.8630
 3833SOL    HW111498   4.338   2.755   4.861 -0.2018  0.5704  1.6444
 3833SOL    HW211499   4.227   2.816   4.778  0.0435  1.1422  1.7281
 3834SOL     OW11500   0.745   3.391   5.988  0.3366  0.4290  0.4117
 3834SOL    HW111501   0.731   3.370   6.081  0.1918 -0.1273  0.2703
 3834SOL    HW211502   0.685   3.333   5.942  0.4734  0.6441 -0.0370
 3835SOL     OW11503   0.561   3.063   5.507  0.8113  0.1860 -0.3217
 3835SOL    HW111504   0.614   2.989   5.536  0.8266 -0.8217 -2.6820
 3835SOL    HW211505   0.606   3.140   5.541 -0.4812 -0.7760  4.3177
 3836SOL     OW11506   4.940   4.527   7.844  0.2773 -0.0101  0.2764
 3836SOL    HW111507   4.944   4.615   7.806  1.9657 -0.1984 -0.0650
 3836SOL    HW211508   4.996   4.533   7.922  2.4858 -1.3697 -1.0924
 3837SOL     OW11509   3.462   2.723  10.153  0.0873 -0.7711 -0.1574
 3837SOL    HW111510   3.530   2.658  10.141  1.5622  0.7429 -0.3498
 3837SOL    HW211511   3.492   2.777  10.226 -2.6337 -2.1361  2.1536
 3838SOL     OW11512   2.487   3.563   6.164 -0.3043 -0.2705 -0.0343
 3838SOL    HW111513   2.414   3.617   6.133 -1.1757 -0.9381  0.7769
 3838SOL    HW211514   2.564   3.618   6.154 -1.2026  1.2703  1.0447
 3839SOL     OW11515   1.850   0.616   5.706 -0.9756  0.0020  0.1895
 3839SOL    HW111516   1.861   0.690   5.766  1.4035 -1.5214  1.8505
 3839SOL    HW211517   1.765   0.580   5.729 -0.9687  0.6276  1.3066
 3840SOL     OW11518   0.578   1.964   5.347  0.2096  0.2098  0.8076
 3840SOL    HW111519   0.498   2.015   5.332  0.8521  0.5283 -2.1725
 3840SOL    HW211520   0.630   2.019   5.406  0.0178  2.1152 -0.6832
 3841SOL     OW11521   0.266   1.345   5.088  0.5377 -0.0016  0.0066
 3841SOL    HW111522   0.238   1.359   5.179  1.1141  0.3324  0.1422
 3841SOL    HW211523   0.239   1.425   5.043 -0.3425 -0.4506 -0.2665
 3842SOL     OW11524   3.986   3.014   5.508  0.2708 -0.2063 -0.0726
 3842SOL    HW111525   3.897   3.000   5.539  0.5276  0.5566  1.0528
 3842SOL    HW211526   4.033   2.934   5.533  0.0371 -0.3872 -0.2043
 3843SOL     OW11527   1.092   3.121   5.118  0.5701 -0.2663 -0.2093
 3843SOL    HW111528   1.167   3.161   5.161  0.9868  0.3633 -1.4660
 3843SOL    HW211529   1.115   3.029   5.108  1.0701 -0.1258 -0.3573
 3844SOL     OW11530   4.373   3.583   6.271  0.4031 -0.1225  0.6302
 3844SOL    HW111531   4.428   3.660   6.258 -2.4963  1.8414 -1.1354
 3844SOL    HW211532   4.370   3.541   6.185  1.0375 -1.6116  1.3050
 3845SOL     OW11533   3.843   4.455   5.190  0.0854 -0.2173  0.0295
 3845SOL    HW111534   3.859   4.524   5.126 -0.3903 -1.7140 -1.7635
 3845SOL    HW211535   3.845   4.500   5.275  5.0646  1.2164 -0.5391
 3846SOL     OW11536   0.102   4.958   9.374 -0.0291  0.0119  0.0298
 3846SOL    HW111537   0.146   4.922   9.297  1.3882 -0.5063  1.0436
 3846SOL    HW211538   0.015   4.985   9.341  0.5039 -0.2368 -1.7147
 3847SOL     OW11539   4.771   1.092   4.833  0.0410  0.2419 -0.8132
 3847SOL    HW111540   4.715   1.016   4.814  1.5271 -1.6453  1.7748
 3847SOL    HW211541   4.738   1.127   4.915 -1.0378  2.9715 -2.2757
 3848SOL     OW11542   1.027   0.324   5.816  0.0620 -0.9602 -0.5816
 3848SOL    HW111543   1.077   0.243   5.832 -1.9470 -1.8246  2.0806
 3848SOL    HW211544   0.941   0.294   5.787 -0.3322  0.2959 -0.7580
 3849SOL     OW11545   4.064   3.153   6.890 -0.4051  0.0050  0.1577
 3849SOL    HW111546   4.092   3.155   6.798 -1.2193 -1.6622 -0.1484
 3849SOL    HW211547   4.069   3.061   6.915  0.0986  0.4634  1.9051
 3850SOL     OW11548   2.249   3.607   4.937  0.3909  0.0544 -0.1533
 3850SOL    HW111549   2.209   3.665   5.002 -3.2842 -1.8779 -0.4386
 3850SOL    HW211550   2.247   3.658   4.856  2.5971  1.5089  0.6088
 3851SOL     OW11551   0.121   2.491   5.934  1.2401  0.0547 -0.0330
 3851SOL    HW111552   0.161   2.563   5.886  1.4709  0.0168  0.0982
 3851SOL    HW211553   0.105   2.424   5.868 -1.4553  1.2151 -0.6824
 3852SOL     OW11554   4.990   4.718   8.113 -0.3509  0.0486  0.9802
 3852SOL    HW111555   4.946   4.719   8.198 -3.5131 -3.9266 -0.2729
 3852SOL    HW211556   5.052   4.645   8.119 -1.9634 -1.5405 -0.5377
 3853SOL     OW11557   0.415   1.577   7.326 -0.4188  0.1595  0.4342
 3853SOL    HW111558   0.336   1.569   7.379 -0.4865 -1.3150  0.1819
 3853SOL    HW211559   0.383   1.593   7.237 -0.4439 -0.1924  0.3752
 3854SOL     OW11560   1.181   0.908   6.080 -0.2951  0.1293  0.0578
 3854SOL    HW111561   1.270   0.899   6.115 -0.4980  0.7009  0.7461
 3854SOL    HW211562   1.170   1.003   6.068 -0.2733 -0.0358 -1.4774
 3855SOL     OW11563   1.498   0.999   7.826  0.9226  0.4099  0.0162
 3855SOL    HW111564   1.474   1.079   7.872 -0.8954 -0.7627  1.2237
 3855SOL    HW211565   1.575   0.967   7.873  0.9240  0.8147  0.2920
 3856SOL     OW11566   2.144   0.956   5.985 -0.1060  0.3929  0.3173
 3856SOL    HW111567   2.137   1.052   5.986  0.7814  0.4808  1.2861
 3856SOL    HW211568   2.147   0.932   6.078 -1.9859 -0.7414  0.1194
 3857SOL     OW11569   4.743   0.348   5.548  0.2756  0.1447  0.0035
 3857SOL    HW111570   4.722   0.351   5.455  1.1240  1.9504 -0.1696
 3857SOL    HW211571   4.658   0.348   5.592 -0.1535  1.2688 -0.7648
 3858SOL     OW11572   2.882   1.731   7.050 -0.2755  0.6487  0.4142
 3858SOL    HW111573   2.888   1.670   7.123 -0.3519 -1.4432 -1.2136
 3858SOL    HW211574   2.960   1.714   6.997 -0.3332  1.9271 -0.1252
 3859SOL     OW11575   3.034   2.676   5.356  0.1383 -0.0980  0.1296
 3859SOL    HW111576   3.129   2.671   5.368 -0.3337 -2.0100  5.4412
 3859SOL    HW211577   3.004   2.586   5.359 -1.9610  0.5315 -0.2840
 3860SOL     OW11578   0.907   0.103   5.075 -0.8604 -0.9415 -0.3886
 3860SOL    HW111579   0.831   0.069   5.027 -2.1268  2.2559 -0.8890
 3860SOL    HW211580   0.907   0.055   5.158 -1.7932 -2.8853 -1.4666
 3861SOL     OW11581   0.789   1.107   7.953  0.2225 -0.2606  0.0065
 3861SOL    HW111582   0.844   1.171   7.998  1.8593 -0.3633 -1.6952
 3861SOL    HW211583   0.789   1.031   8.010 -1.9852  1.2365  2.1960
 3862SOL     OW11584   0.668   1.377   6.224 -0.3852 -0.1638 -0.4429
 3862SOL    HW111585   0.741   1.395   6.284  0.7323  0.2644 -1.8786
 3862SOL    HW211586   0.630   1.463   6.205 -0.9789 -0.3377 -0.0738
 3863SOL     OW11587   4.661   4.992   6.072  0.3571  0.4825 -0.5039
 3863SOL    HW111588   4.611   5.004   5.992 -1.2043 -0.1326  0.3298
 3863SOL    HW211589   4.635   4.906   6.104  1.3536  0.4903  0.3897
 3864SOL     OW11590   3.783  -0.007   6.866  0.0678  0.5016  0.1300
 3864SOL    HW111591   3.810   0.083   6.850  0.9439 -0.0068 -1.4676
 3864SOL    HW211592   3.857  -0.060   6.836 -1.1339 -0.8215 -0.6341
 3865SOL     OW11593   2.189   2.795   7.167  0.4697  0.3274  0.1723
 3865SOL    HW111594   2.220   2.740   7.239  0.1090  1.0625  0.9089
 3865SOL    HW211595   2.240   2.766   7.091  0.4411 -0.8690  0.5783
 3866SOL     OW11596   2.280   3.353   5.047 -0.2382 -0.1334 -0.0705
 3866SOL    HW111597   2.299   3.431   4.996 -1.2924  0.7441  0.8206
 3866SOL    HW211598   2.201   3.316   5.007 -0.7043  0.2071  0.5133
 3867SOL     OW11599   1.273   0.074   5.478  0.8195 -0.8916  0.1322
 3867SOL    HW111600   1.261  -0.017   5.450 -1.2027 -0.1333 -1.7374
 3867SOL    HW211601   1.197   0.093   5.533  1.0200 -0.2316  0.1915
 3868SOL     OW11602   0.221   1.758   6.648 -0.7726 -0.1898 -0.0916
 3868SOL    HW111603   0.235   1.719   6.734  0.7208  1.5978  0.5260
 3868SOL    HW211604   0.150   1.821   6.662 -0.3290  0.3139 -0.0843
 3869SOL     OW11605   2.008   3.133   5.778  0.2392 -0.5469 -0.9659
 3869SOL    HW111606   1.951   3.073   5.730 -1.3375 -0.1525  0.3348
 3869SOL    HW211607   2.082   3.080   5.806  0.0275 -1.3134 -1.8381
 3870SOL     OW11608   0.757   3.593   6.451  0.2869 -0.2085  0.1896
 3870SOL    HW111609   0.729   3.502   6.443  0.2840 -0.2374  0.4825
 3870SOL    HW211610   0.737   3.632   6.367  1.5849 -0.8228 -0.4239
 3871SOL     OW11611   3.259   1.087   9.305 -0.8234 -0.4846  0.2392
 3871SOL    HW111612   3.241   1.181   9.310 -0.6296 -0.5018  1.7548
 3871SOL    HW211613   3.179   1.050   9.269 -1.4682  0.1152  1.0006
 3872SOL     OW11614   0.243   3.383   6.539 -0.7383  0.3311  0.0325
 3872SOL    HW111615   0.161   3.411   6.580 -0.5116 -0.2774  0.9099
 3872SOL    HW211616   0.220   3.367   6.447 -1.2786  1.5720 -0.0653
 3873SOL     OW11617   3.891   2.431   9.124  0.7569  0.1159  0.2527
 3873SOL    HW111618   3.966   2.413   9.180  2.0313  1.1225 -1.0478
 3873SOL    HW211619   3.928   2.472   9.046 -1.1194  0.3413 -0.5916
 3874SOL     OW11620   4.118   0.445   4.732 -0.0890 -0.4037 -0.1871
 3874SOL    HW111621   4.124   0.386   4.807 -0.6071 -0.8582 -0.4937
 3874SOL    HW211622   4.198   0.428   4.682 -0.3662 -1.0621 -0.4208
 3875SOL     OW11623   2.679   2.888   6.707  0.7239 -0.2404  0.0273
 3875SOL    HW111624   2.654   2.841   6.627 -0.3200  0.9230 -0.3665
 3875SOL    HW211625   2.621   2.964   6.708  2.4988  1.1481  0.5350
 3876SOL     OW11626   0.415   1.767   8.771  0.6041 -0.3187 -0.3544
 3876SOL    HW111627   0.476   1.781   8.699  1.0270 -0.1219  0.0341
 3876SOL    HW211628   0.336   1.732   8.730  0.5887  0.4412 -0.9962
 3877SOL     OW11629   4.353   3.880   5.667  0.0267 -0.3540  0.1867
 3877SOL    HW111630   4.324   3.805   5.614  0.8911 -0.0960 -0.6665
 3877SOL    HW211631   4.442   3.898   5.637  0.0823  0.5825  0.8772
 3878SOL     OW11632   2.332   0.025   5.421  0.3164 -0.6740 -0.2134
 3878SOL    HW111633   2.269   0.064   5.360  0.0672  0.7224  0.8861
 3878SOL    HW211634   2.334  -0.068   5.397 -2.8136 -0.9562  0.2466
 3879SOL     OW11635   2.689   4.276   5.778 -0.0292 -0.0240 -0.1675
 3879SOL    HW111636   2.624   4.337   5.812 -1.4785  0.0871 -2.8264
 3879SOL    HW211637   2.771   4.326   5.778 -0.9543  1.5957 -1.2200
 3880SOL     OW11638   1.936   3.941   4.650 -0.1897  0.0388 -0.6637
 3880SOL    HW111639   1.841   3.928   4.651 -0.3244  0.9051 -0.9120
 3880SOL    HW211640   1.961   3.928   4.558 -0.2905  1.1688 -0.8686
 3881SOL     OW11641   0.582   3.435   9.629  0.2933  0.6122  0.3037
 3881SOL    HW111642   0.666   3.459   9.668  0.3748  0.7920  0.0221
 3881SOL    HW211643   0.603   3.365   9.567  0.0182 -0.3917  1.3195
 3882SOL     OW11644   3.162   2.175   5.906  0.9082 -0.5615 -0.6444
 3882SOL    HW111645   3.157   2.087   5.868  0.7643 -0.5460 -0.6642
 3882SOL    HW211646   3.125   2.233   5.839 -3.0821 -0.9607  0.8830
 3883SOL     OW11647   4.238   0.969   6.543 -0.0515 -0.2623 -0.2910
 3883SOL    HW111648   4.266   0.922   6.465 -1.6725 -0.8219 -0.5700
 3883SOL    HW211649   4.213   0.900   6.605  1.1147  0.1719  0.7041
 3884SOL     OW11650   4.327   1.287   5.640 -0.5966  0.8387 -0.3452
 3884SOL    HW111651   4.350   1.358   5.579  1.3216  1.9604  1.5381
 3884SOL    HW211652   4.411   1.257   5.675 -1.5224 -0.9742  0.4413
 3885SOL     OW11653   0.389   3.167   6.637  0.4876 -0.4804 -0.2012
 3885SOL    HW111654   0.373   3.192   6.727  1.0748 -0.3313 -0.1342
 3885SOL    HW211655   0.339   3.230   6.585  0.6473 -0.1828  0.0033
 3886SOL     OW11656   1.922   2.201   7.222 -0.1137  0.0069  0.6214
 3886SOL    HW111657   1.900   2.179   7.312  0.8891  0.2649  0.9381
 3886SOL    HW211658   2.017   2.213   7.222 -0.2564  1.3854 -0.1596
 3887SOL     OW11659   2.391   0.814   7.576  0.1275  0.1760 -0.3842
 3887SOL    HW111660   2.328   0.796   7.646 -1.1842  0.7468 -1.3530
 3887SOL    HW211661   2.431   0.897   7.601 -0.3214  0.3670 -0.2761
 3888SOL     OW11662   4.870   0.566   6.614  0.0998  0.8300  0.4866
 3888SOL    HW111663   4.952   0.550   6.661 -0.5907  1.6644  2.0565
 3888SOL    HW211664   4.891   0.633   6.549  0.9860 -0.0575 -0.1727
 3889SOL     OW11665   2.199   1.493   6.847  0.1888 -0.5046 -0.4811
 3889SOL    HW111666   2.205   1.586   6.823  2.0355 -0.4915 -0.1083
 3889SOL    HW211667   2.112   1.484   6.886 -0.4294  0.8327 -1.4695
 3890SOL     OW11668   1.790   3.106   5.109  0.1587 -0.2100 -0.0134
 3890SOL    HW111669   1.706   3.091   5.067 -0.8519  1.5534  1.2023
 3890SOL    HW211670   1.796   3.039   5.177  0.2013 -0.9417 -0.7344
 3891SOL     OW11671   2.075   3.077   5.008 -0.4495 -0.6617 -0.5166
 3891SOL    HW111672   2.064   3.038   4.921 -0.4337  0.3426 -0.9876
 3891SOL    HW211673   1.987   3.107   5.031 -0.0076  1.5517 -1.4323
 3892SOL     OW11674   0.790   4.841   5.777 -0.1714  0.3649  0.2694
 3892SOL    HW111675   0.819   4.765   5.827  0.0368  1.5694  2.0656
 3892SOL    HW211676   0.719   4.878   5.829 -0.2792  1.3922 -0.5770
 3893SOL     OW11677   2.316   2.981   5.004 -0.3478  0.4295  0.2053
 3893SOL    HW111678   2.228   3.016   5.019 -0.2016  1.6516 -1.5080
 3893SOL    HW211679   2.320   2.968   4.909  1.3517  0.4781  0.2508
 3894SOL     OW11680   0.366   3.498   5.877  0.0849  1.0017  0.0623
 3894SOL    HW111681   0.393   3.480   5.967 -1.9423  0.7335  0.6785
 3894SOL    HW211682   0.338   3.590   5.879  1.1989  1.3705 -0.6282
 3895SOL     OW11683   0.057   3.412   7.386  0.3878 -0.4292 -0.1454
 3895SOL    HW111684   0.104   3.479   7.337 -0.1232  1.9618  2.3542
 3895SOL    HW211685   0.122   3.380   7.450 -0.4710  0.7650  1.3876
 3896SOL     OW11686   0.575   4.565   8.598  0.6146  0.2415  0.5157
 3896SOL    HW111687   0.646   4.594   8.540  1.7420 -0.7612  1.3411
 3896SOL    HW211688   0.572   4.632   8.667  1.3275 -0.1183  0.9111
 3897SOL     OW11689   1.951   3.421   6.096  0.0759  0.1067 -0.2391
 3897SOL    HW111690   1.966   3.393   6.006 -0.1602 -0.7390 -0.0250
 3897SOL    HW211691   1.928   3.340   6.143 -1.6659  0.7986  0.1880
 3898SOL     OW11692   0.249   0.255   6.271 -0.1275 -1.3082 -0.3265
 3898SOL    HW111693   0.260   0.273   6.364  2.2365 -1.2603 -0.5626
 3898SOL    HW211694   0.167   0.298   6.247  0.2913  0.4835  1.2793
 3899SOL     OW11695   0.841   3.709  10.163  0.0059  0.5453  0.0018
 3899SOL    HW111696   0.807   3.769  10.230  0.9703  1.2891 -0.1579
 3899SOL    HW211697   0.936   3.719  10.167  0.2425 -1.5231  0.4520
 3900SOL     OW11698   1.576   1.471   9.854 -0.6557  0.2644 -0.4876
 3900SOL    HW111699   1.624   1.412   9.912 -3.5118  0.9795  2.9124
 3900SOL    HW211700   1.530   1.413   9.793  1.0598 -0.5874 -1.0544
 3901SOL     OW11701   0.380   4.895   5.074 -0.4625  0.0958  0.3041
 3901SOL    HW111702   0.316   4.848   5.021  0.4756 -0.6693 -0.1924
 3901SOL    HW211703   0.380   4.848   5.158  1.4438 -1.7579 -0.6283
 3902SOL     OW11704   3.882   2.469   9.544  0.2045 -0.4641  0.4002
 3902SOL    HW111705   3.918   2.424   9.467 -2.2508 -0.9144 -0.5786
 3902SOL    HW211706   3.930   2.431   9.618  2.0754 -0.6074 -0.8063
 3903SOL     OW11707   2.008   3.772   9.606  0.4828  0.1783  0.2264
 3903SOL    HW111708   2.100   3.761   9.583 -0.0591  0.5346 -2.3829
 3903SOL    HW211709   1.989   3.863   9.584 -1.2250 -0.6980 -2.4419
 3904SOL     OW11710   1.492   2.209   8.716 -0.1464 -0.2309  0.1583
 3904SOL    HW111711   1.517   2.283   8.770 -0.4500 -0.5200  0.7011
 3904SOL    HW211712   1.488   2.135   8.776 -3.1637 -0.0495  0.3166
 3905SOL     OW11713   0.426   0.661   9.457  0.5767  0.0664  0.4306
 3905SOL    HW111714   0.430   0.749   9.494 -0.1980  0.2570  0.0763
 3905SOL    HW211715   0.375   0.671   9.377 -1.4122 -1.0734  1.4915
 3906SOL     OW11716   1.130   1.489   8.970 -0.0134  0.3931 -0.0189
 3906SOL    HW111717   1.123   1.477   9.065  1.4475  2.2210  0.3637
 3906SOL    HW211718   1.095   1.577   8.955  2.7757  1.4938 -0.6704
 3907SOL     OW11719   4.376   0.688   6.515  0.6279  0.0884  0.0356
 3907SOL    HW111720   4.357   0.619   6.451 -0.3077 -0.4112  0.8292
 3907SOL    HW211721   4.371   0.644   6.599 -2.0249  1.4874  0.7284
 3908SOL     OW11722   2.315   0.775   8.522 -0.1367  0.5325 -0.7963
 3908SOL    HW111723   2.220   0.769   8.511 -0.2362 -1.2289  0.5431
 3908SOL    HW211724   2.328   0.787   8.616  0.9614 -1.0477 -0.6954
 3909SOL     OW11725   3.168   2.742   8.371 -0.1926 -0.1384  0.3565
 3909SOL    HW111726   3.098   2.679   8.390 -1.3686  1.0917  0.2191
 3909SOL    HW211727   3.247   2.701   8.406 -1.1650 -1.0250  1.6011
 3910SOL     OW11728   3.857   0.261   9.347 -0.3298  0.1754  0.0522
 3910SOL    HW111729   3.887   0.187   9.400  0.3726  0.9845  0.8187
 3910SOL    HW211730   3.936   0.312   9.332 -0.9088  1.0795  0.0376
 3911SOL     OW11731   4.062   4.028   7.197 -0.1425  0.1474 -0.2716
 3911SOL    HW111732   4.090   4.066   7.114 -0.0027 -1.0609 -0.8070
 3911SOL    HW211733   3.966   4.022   7.189 -0.1837  0.5386 -0.1081
 3912SOL     OW11734   1.610   2.024   9.992  0.6261  0.1696 -0.1149
 3912SOL    HW111735   1.522   2.015   9.956  1.0279  2.1918 -1.8730
 3912SOL    HW211736   1.655   1.943   9.967 -0.6218 -0.7650  0.5653
 3913SOL     OW11737   4.606   0.582   9.027  0.0609  0.2451 -0.1082
 3913SOL    HW111738   4.583   0.497   9.065  0.7125  0.4690  0.8195
 3913SOL    HW211739   4.584   0.573   8.934 -0.0475 -0.8782  0.0067
 3914SOL     OW11740   4.575   0.659   8.749  0.4343 -0.4689 -0.2172
 3914SOL    HW111741   4.481   0.664   8.734  0.3133 -1.5363  0.0797
 3914SOL    HW211742   4.605   0.750   8.745 -0.5848 -0.1268 -0.4292
 3915SOL     OW11743   1.083   0.500   6.940  0.1984  0.3943  0.9620
 3915SOL    HW111744   1.169   0.520   6.902 -0.0171  1.7639  1.1353
 3915SOL    HW211745   1.034   0.460   6.869  0.7356  0.3111  0.6324
 3916SOL     OW11746   3.551   1.536   8.935  0.3841  0.0152 -0.7774
 3916SOL    HW111747   3.615   1.480   8.979  0.9043  0.6224 -0.7444
 3916SOL    HW211748   3.474   1.480   8.925  0.1581 -0.0709  1.1003
 3917SOL     OW11749   3.943   1.649   6.615 -0.1660 -0.1976 -0.0271
 3917SOL    HW111750   3.880   1.628   6.684 -0.5565  1.3534  0.1309
 3917SOL    HW211751   3.927   1.583   6.547 -2.2441  0.3736 -0.1610
 3918SOL     OW11752   0.340   3.909   7.444 -0.4100  0.1216 -0.2880
 3918SOL    HW111753   0.319   3.977   7.508  0.3133  1.0891 -1.0496
 3918SOL    HW211754   0.274   3.918   7.376 -1.1266 -0.8499  0.2476
 3919SOL     OW11755   4.111   3.894   9.728  0.0366  0.0993  0.2814
 3919SOL    HW111756   4.141   3.922   9.815  1.6878 -1.7398  0.3684
 3919SOL    HW211757   4.182   3.918   9.669  1.3757 -3.2402  0.3047
 3920SOL     OW11758   0.116   4.079   7.704  0.3234  0.6567 -0.0507
 3920SOL    HW111759   0.060   4.001   7.701 -0.5252  1.1639  1.4247
 3920SOL    HW211760   0.063   4.147   7.662  1.0792  0.4586 -1.3743
 3921SOL     OW11761   1.567   0.484  10.162  0.4560 -0.4543 -0.3143
 3921SOL    HW111762   1.567   0.539  10.083 -0.0999 -0.2205 -0.1516
 3921SOL    HW211763   1.483   0.439  10.160 -2.0318  3.3962  2.7993
 3922SOL     OW11764   3.977   2.442   7.543  0.2324  0.6228  0.1133
 3922SOL    HW111765   4.003   2.357   7.579 -0.4761  0.5114  0.3697
 3922SOL    HW211766   3.899   2.423   7.491  1.0926  0.8261 -1.3032
 3923SOL     OW11767   0.335   0.243   8.649  0.0326  0.1843 -0.5454
 3923SOL    HW111768   0.403   0.198   8.698  0.9877 -0.1576 -2.1098
 3923SOL    HW211769   0.339   0.334   8.679 -0.9511 -0.4245  1.6032
 3924SOL     OW11770   0.910   1.572   5.691  0.1656 -0.7706 -0.0906
 3924SOL    HW111771   0.848   1.620   5.635  0.4427  0.8664  0.9140
 3924SOL    HW211772   0.974   1.536   5.631 -0.3613 -0.3101 -0.9515
 3925SOL     OW11773   4.963   0.256   7.046 -0.1862  0.1939 -0.0086
 3925SOL    HW111774   4.896   0.270   6.979  2.2040 -0.0869 -2.6402
 3925SOL    HW211775   4.983   0.343   7.080 -2.3096  0.2178  1.4356
 3926SOL     OW11776   1.248   4.748   7.738 -0.2022 -0.1884  0.5588
 3926SOL    HW111777   1.175   4.693   7.766  0.2615 -0.3679  1.4727
 3926SOL    HW211778   1.253   4.736   7.643 -0.5377 -1.1942  0.6545
 3927SOL     OW11779   0.018   0.833   8.621  0.2350  0.0866 -0.4468
 3927SOL    HW111780   0.060   0.897   8.564  0.2485  0.5782  0.1086
 3927SOL    HW211781   0.031   0.749   8.576  1.1712  0.3247 -0.6413
 3928SOL     OW11782   2.331   3.898   5.581 -0.8574 -0.2955 -0.3143
 3928SOL    HW111783   2.380   3.980   5.587 -0.7291 -0.3907 -0.0357
 3928SOL    HW211784   2.373   3.840   5.644  0.9058 -1.5510 -2.5055
 3929SOL     OW11785   2.707   2.249   9.715 -0.2796 -1.3151  0.2725
 3929SOL    HW111786   2.695   2.342   9.693  1.1072 -1.8202 -3.1234
 3929SOL    HW211787   2.799   2.242   9.740  0.0373 -1.9995 -1.0246
 3930SOL     OW11788   2.252   1.720   5.402  0.3158  0.4503 -0.2100
 3930SOL    HW111789   2.344   1.693   5.399 -0.0659 -0.9212 -2.3189
 3930SOL    HW211790   2.253   1.813   5.381  1.2491  0.5045  0.0381
 3931SOL     OW11791   5.000   0.416   5.375 -0.4160  0.2984 -0.1188
 3931SOL    HW111792   5.002   0.497   5.427 -1.7642  0.0917  0.3162
 3931SOL    HW211793   4.907   0.395   5.369 -0.1063 -1.0604 -0.4833
 3932SOL     OW11794   2.801   2.135   8.856  0.2798  0.5134  0.0479
 3932SOL    HW111795   2.734   2.136   8.924 -0.0470 -1.0446 -0.2080
 3932SOL    HW211796   2.809   2.226   8.828  0.3001  1.1531  2.0352
 3933SOL     OW11797   4.816   0.314   9.984 -0.3233  0.0229 -0.2390
 3933SOL    HW111798   4.729   0.332   9.947  0.3087  0.6549 -1.4993
 3933SOL    HW211799   4.817   0.220   9.996 -2.2102  0.2322  2.5764
 3934SOL     OW11800   3.590   4.129   6.431 -0.3423  0.4547  0.4303
 3934SOL    HW111801   3.611   4.107   6.341 -1.3985  1.8072 -0.1853
 3934SOL    HW211802   3.655   4.195   6.455  2.4022 -2.5542  2.0464
 3935SOL     OW11803   4.718   1.337   7.940 -0.2652 -0.1995  0.2237
 3935SOL    HW111804   4.695   1.429   7.951 -2.3648 -0.7544  0.9031
 3935SOL    HW211805   4.758   1.311   8.023  1.8151  0.4703 -0.5332
 3936SOL     OW11806   2.859   3.439   4.623  0.4610 -0.1055  0.3938
 3936SOL    HW111807   2.818   3.479   4.546  0.9669 -1.0318 -0.3842
 3936SOL    HW211808   2.930   3.500   4.646  0.1381  0.3131  0.2922
 3937SOL     OW11809   2.410   3.291   8.441  0.3842  0.2573 -0.1173
 3937SOL    HW111810   2.334   3.232   8.446 -0.7965  1.7892  1.0191
 3937SOL    HW211811   2.439   3.301   8.532  0.4464  1.5369 -0.2605
 3938SOL     OW11812   4.560   4.166   7.843  0.0227  0.4667  0.3487
 3938SOL    HW111813   4.470   4.198   7.847  0.6753  2.2811  2.0317
 3938SOL    HW211814   4.608   4.235   7.797  1.0901  1.0611  2.2553
 3939SOL     OW11815   2.105   1.392   6.372  0.3676 -0.0099  0.9624
 3939SOL    HW111816   2.189   1.378   6.327  0.0482 -1.4914  0.7967
 3939SOL    HW211817   2.113   1.480   6.409  1.7498  0.1238  0.4202
 3940SOL     OW11818   1.183   0.752   4.563  0.5339 -0.3943 -0.0398
 3940SOL    HW111819   1.119   0.747   4.634 -1.3730 -2.7076 -1.7604
 3940SOL    HW211820   1.143   0.704   4.491  2.6006  1.3470 -2.5507
 3941SOL     OW11821   4.567   4.699   6.366 -0.2004  0.1117  0.4318
 3941SOL    HW111822   4.514   4.747   6.430 -2.2920 -1.7557  0.2397
 3941SOL    HW211823   4.650   4.682   6.412 -0.6106  1.1491  1.6267
 3942SOL     OW11824   1.271   0.483   9.824 -0.0370 -0.7331  0.0865
 3942SOL    HW111825   1.310   0.401   9.796 -0.0581 -0.9825  0.7532
 3942SOL    HW211826   1.262   0.474   9.919  0.7443  0.3756  0.2854
 3943SOL     OW11827   4.165   4.344   7.431  0.3509  0.0032  0.1788
 3943SOL    HW111828   4.153   4.261   7.477  2.5431 -0.5837 -0.1780
 3943SOL    HW211829   4.204   4.320   7.347  1.2270  1.3737  0.1494
 3944SOL     OW11830   4.399   1.090   7.907 -0.4279  0.9099 -0.3251
 3944SOL    HW111831   4.418   1.156   7.974 -0.6810  0.5488  0.1067
 3944SOL    HW211832   4.304   1.090   7.899 -0.4247  0.6378 -0.3689
 3945SOL     OW11833   0.300   0.718   9.214 -0.2410 -0.2872 -0.6763
 3945SOL    HW111834   0.207   0.727   9.235  0.0517  1.2397  0.1393
 3945SOL    HW211835   0.302   0.715   9.118 -1.0418  1.6244 -0.8026
 3946SOL     OW11836   0.460   0.956   6.851  0.5248  0.1132  0.8862
 3946SOL    HW111837   0.506   0.877   6.821 -1.2206 -0.3617 -0.7432
 3946SOL    HW211838   0.524   1.027   6.841  1.9720 -0.9769  1.9275
 3947SOL     OW11839   4.088   3.285   5.563 -0.0346  0.6198  0.5506
 3947SOL    HW111840   4.028   3.223   5.605 -0.4677  0.9734  0.4622
 3947SOL    HW211841   4.057   3.371   5.591  0.0455  0.8306 -0.0024
 3948SOL     OW11842   4.679   3.909   8.272 -0.1625 -0.1201  0.0494
 3948SOL    HW111843   4.717   3.960   8.343  0.0962 -0.6642  0.3077
 3948SOL    HW211844   4.682   3.968   8.196  1.7917 -0.3506 -0.0975
 3949SOL     OW11845   4.966   0.907   9.655  0.4520 -0.3158  0.4627
 3949SOL    HW111846   5.026   0.976   9.685  1.0749 -0.3702 -0.6016
 3949SOL    HW211847   4.998   0.884   9.568 -1.4488  0.0376 -0.3798
 3950SOL     OW11848   1.877   1.037   9.879  0.1357  0.3993 -0.4500
 3950SOL    HW111849   1.968   1.067   9.870  0.0215  0.4271 -1.6524
 3950SOL    HW211850   1.882   0.967   9.944  1.3946 -1.0958 -2.0495
 3951SOL     OW11851   1.644   2.257   7.165 -0.5821  0.1196 -0.3627
 3951SOL    HW111852   1.735   2.274   7.190 -1.0095  1.3240  0.4365
 3951SOL    HW211853   1.638   2.292   7.076 -0.3835  0.4485 -0.2486
 3952SOL     OW11854   4.710   4.503   8.908 -0.7570  0.1673 -0.5875
 3952SOL    HW111855   4.700   4.441   8.980  0.6999 -0.7849 -1.1618
 3952SOL    HW211856   4.804   4.515   8.899 -0.9801  2.5481 -0.4589
 3953SOL     OW11857   1.854   3.737   9.070 -0.3136 -0.4510  0.2685
 3953SOL    HW111858   1.782   3.681   9.097 -1.1047 -0.0060 -0.8259
 3953SOL    HW211859   1.848   3.739   8.974 -0.8046  2.1214  0.2991
 3954SOL     OW11860   4.829   2.815   8.076 -0.2698  0.1997 -0.0970
 3954SOL    HW111861   4.760   2.766   8.121  0.9901 -3.1737 -1.5376
 3954SOL    HW211862   4.905   2.807   8.133  0.2569 -0.5621 -0.8943
 3955SOL     OW11863   3.575   3.861   9.258  0.5238  0.5664  0.3378
 3955SOL    HW111864   3.517   3.785   9.252  0.2889  0.5490  2.0631
 3955SOL    HW211865   3.589   3.871   9.353 -1.3759  4.1249  0.3897
 3956SOL     OW11866   0.681   3.922   4.941  0.3147 -0.0056 -0.4794
 3956SOL    HW111867   0.676   3.881   4.855 -1.6079 -1.1755  0.1317
 3956SOL    HW211868   0.652   4.012   4.926 -0.2347 -0.2636 -1.0266
 3957SOL     OW11869   2.810   4.861   9.979  0.2110 -0.3242 -0.2561
 3957SOL    HW111870   2.863   4.938  10.002 -0.1065  0.3702 -1.7084
 3957SOL    HW211871   2.864   4.786  10.005  0.8147  0.3861  0.5941
 3958SOL     OW11872   2.546   3.152   7.330 -0.1424  0.2084  0.4539
 3958SOL    HW111873   2.480   3.194   7.386 -0.4599  1.0576 -0.5256
 3958SOL    HW211874   2.627   3.199   7.349  0.1984 -0.8014  1.6198
 3959SOL     OW11875   1.322   1.669   7.624 -0.0407 -0.0116  0.3455
 3959SOL    HW111876   1.270   1.680   7.703  1.4515  0.8650  1.2593
 3959SOL    HW211877   1.274   1.717   7.556 -0.2845  1.0275  1.2302
 3960SOL     OW11878   3.342   1.176   7.632 -0.2196 -0.5499 -0.4908
 3960SOL    HW111879   3.334   1.118   7.557  0.4439  0.0392 -1.0301
 3960SOL    HW211880   3.359   1.262   7.594 -3.1771  0.4467  0.1768
 3961SOL     OW11881   4.388   3.986   5.910 -0.4111  0.2533  0.2969
 3961SOL    HW111882   4.402   4.070   5.866  2.8847 -0.1046  0.4099
 3961SOL    HW211883   4.388   3.922   5.839  3.2292 -0.1442  0.4361
 3962SOL     OW11884   2.322   4.685   9.786  1.6365 -0.2809 -0.1808
 3962SOL    HW111885   2.303   4.632   9.708  0.2263 -0.6241  0.3561
 3962SOL    HW211886   2.417   4.679   9.797  1.7182 -1.2034 -1.1795
 3963SOL     OW11887   4.572   3.470   8.803 -0.2397 -0.3418  0.4552
 3963SOL    HW111888   4.631   3.487   8.877 -1.0086 -1.4285  1.3531
 3963SOL    HW211889   4.622   3.497   8.726 -0.9367  4.9413  1.4924
 3964SOL     OW11890   2.379   0.836   6.871  0.2275 -0.3276  0.0112
 3964SOL    HW111891   2.356   0.904   6.806  2.9157 -1.1781 -1.9978
 3964SOL    HW211892   2.371   0.754   6.823  0.5690 -1.1397  1.3124
 3965SOL     OW11893   0.246  -0.003   8.832 -0.0161  0.4697  0.3937
 3965SOL    HW111894   0.299   0.077   8.827  1.3942 -0.4741 -0.6078
 3965SOL    HW211895   0.298  -0.063   8.886 -1.0367  0.1813  1.0973
 3966SOL     OW11896   1.067   0.964   9.106 -0.0017 -0.4143  0.0269
 3966SOL    HW111897   1.022   1.044   9.132  0.1994  0.9994 -3.4062
 3966SOL    HW211898   1.160   0.985   9.114  0.1427 -1.6846  2.5875
 3967SOL     OW11899   2.820   2.627   9.031 -0.2044 -1.2622 -0.2749
 3967SOL    HW111900   2.820   2.662   8.942  3.0825  1.1616  0.4844
 3967SOL    HW211901   2.728   2.634   9.058 -0.9037  0.2905 -2.6408
 3968SOL     OW11902   0.731   1.143   7.300 -0.2794  0.0073 -0.0811
 3968SOL    HW111903   0.789   1.135   7.225 -2.0095  0.6906 -1.5670
 3968SOL    HW211904   0.722   1.053   7.333  1.0121 -0.2060 -0.2661
 3969SOL     OW11905   3.401   4.294   7.684  0.0249  0.3727  0.0796
 3969SOL    HW111906   3.447   4.214   7.658 -0.1615  0.3361 -0.1514
 3969SOL    HW211907   3.423   4.307   7.776 -0.9647 -0.6703  0.4896
 3970SOL     OW11908   0.091   1.277   5.790  0.3428  0.0256  0.0714
 3970SOL    HW111909   0.166   1.283   5.849  0.6592  0.3709 -0.3654
 3970SOL    HW211910   0.129   1.279   5.702 -0.0893 -0.9879 -0.1533
 3971SOL     OW11911   1.408   1.245   5.873 -0.1329 -0.7315  0.0008
 3971SOL    HW111912   1.426   1.151   5.877 -0.3486 -1.0362 -3.3697
 3971SOL    HW211913   1.488   1.284   5.840  0.3648  0.5334  2.4806
 3972SOL     OW11914   3.437   0.934   7.444 -0.2266  0.1176  1.0312
 3972SOL    HW111915   3.428   0.899   7.356  1.3192 -2.4449  1.7951
 3972SOL    HW211916   3.531   0.950   7.454 -0.3309  0.0154  2.3463
 3973SOL     OW11917   4.190   0.926   8.649 -0.1487 -0.1681 -0.4580
 3973SOL    HW111918   4.260   0.990   8.638  0.2145 -0.7833 -2.1263
 3973SOL    HW211919   4.235   0.841   8.652 -0.7245 -0.4674 -0.0368
 3974SOL     OW11920   3.948   1.585   9.178  0.2598  0.5701 -0.7296
 3974SOL    HW111921   3.866   1.631   9.163 -0.4100 -0.2640  0.2244
 3974SOL    HW211922   3.992   1.637   9.245 -0.7446 -0.4110  0.7553
 3975SOL     OW11923   2.958   0.804   9.966  0.0808  0.3345 -0.0108
 3975SOL    HW111924   3.051   0.782   9.967 -0.1200 -0.6870  1.7384
 3975SOL    HW211925   2.916   0.727  10.005 -1.6086  0.3546 -1.6803
 3976SOL     OW11926   3.787   4.817   7.469  0.3435  0.0968  0.1165
 3976SOL    HW111927   3.709   4.852   7.513  1.0124  1.8160  0.0374
 3976SOL    HW211928   3.830   4.764   7.536 -0.0422  0.4849  0.6853
 3977SOL     OW11929   4.307   1.976   9.166  0.0889  0.2233  0.2743
 3977SOL    HW111930   4.213   1.963   9.173 -0.0972  1.8611  1.4776
 3977SOL    HW211931   4.317   2.043   9.099  0.2573  1.0990  1.1453
 3978SOL     OW11932   2.745   2.443   9.387 -0.6597  0.1516  0.3846
 3978SOL    HW111933   2.803   2.453   9.312 -1.5318  2.4441 -0.0613
 3978SOL    HW211934   2.803   2.413   9.458  0.4094 -0.8188 -0.8504
 3979SOL     OW11935   4.360   4.120   9.752 -0.0366  0.1421 -0.1387
 3979SOL    HW111936   4.345   4.070   9.672  0.7087  1.2518 -1.0198
 3979SOL    HW211937   4.363   4.055   9.822  0.0397 -0.9375 -1.1258
 3980SOL     OW11938   2.659   0.710   7.903 -0.2867  0.3971  0.8494
 3980SOL    HW111939   2.742   0.758   7.900  0.0060 -0.1109  0.6976
 3980SOL    HW211940   2.594   0.774   7.876 -0.3961  1.7094  3.8928
 3981SOL     OW11941   0.399   2.730   8.507  0.3778 -0.0544  0.0967
 3981SOL    HW111942   0.304   2.741   8.501  0.3304 -0.2179  0.4664
 3981SOL    HW211943   0.415   2.641   8.474  0.6005  0.5802 -1.5714
 3982SOL     OW11944   0.567   0.077   7.083  0.4427  0.0920 -0.3813
 3982SOL    HW111945   0.628   0.146   7.059  1.1274 -0.4343 -0.1901
 3982SOL    HW211946   0.503   0.120   7.140  0.5101  0.6921 -0.7556
 3983SOL     OW11947   4.332   0.849   9.004  0.0648  0.1146 -0.0613
 3983SOL    HW111948   4.398   0.907   8.967 -0.7224  0.9409 -0.2229
 3983SOL    HW211949   4.380   0.794   9.066  1.2839 -0.8344 -1.7596
 3984SOL     OW11950   1.022   3.604   9.147  0.3257  0.7725 -0.2555
 3984SOL    HW111951   0.975   3.575   9.068  1.4677  2.8055 -1.7853
 3984SOL    HW211952   1.095   3.543   9.154  0.0921  0.4374 -0.6369
 3985SOL     OW11953   4.638   3.216   8.035 -0.2939 -0.3200  0.1065
 3985SOL    HW111954   4.686   3.251   8.109  2.4487 -0.4016 -1.5115
 3985SOL    HW211955   4.595   3.292   7.996 -0.0051  0.0705  0.5388
 3986SOL     OW11956   0.247   4.569   7.162 -0.2507 -0.1798 -1.3656
 3986SOL    HW111957   0.193   4.582   7.084 -1.6183 -2.7948 -0.9755
 3986SOL    HW211958   0.202   4.500   7.211  2.7873 -1.6437 -0.3783
 3987SOL     OW11959   0.388   0.199   7.806  0.4022  0.4118  0.9670
 3987SOL    HW111960   0.345   0.189   7.721 -0.3366 -0.7594  1.4519
 3987SOL    HW211961   0.442   0.278   7.796 -1.6473  1.8209  0.2496
 3988SOL     OW11962   1.897   1.583   5.645 -0.6155  0.4818  0.1406
 3988SOL    HW111963   1.830   1.516   5.631  0.1671 -0.0825 -1.0877
 3988SOL    HW211964   1.934   1.598   5.558  0.4043  1.2576  0.6873
 3989SOL     OW11965   3.539   2.341   5.654 -0.8186  0.6385 -0.3166
 3989SOL    HW111966   3.521   2.250   5.631 -0.7472  0.4967  0.1776
 3989SOL    HW211967   3.602   2.336   5.726  0.5548  1.1206 -1.4437
 3990SOL     OW11968   2.523   0.876   7.117 -0.0483 -0.0736 -0.3341
 3990SOL    HW111969   2.462   0.831   7.059 -0.5726 -0.5428  0.5622
 3990SOL    HW211970   2.584   0.919   7.058  1.5669 -3.3554 -1.3096
 3991SOL     OW11971   3.512   1.001   8.335 -0.4426 -0.2443 -0.2308
 3991SOL    HW111972   3.420   0.976   8.336 -0.8105  0.7392 -3.1531
 3991SOL    HW211973   3.517   1.074   8.397 -1.6792 -0.0752 -0.2999
 3992SOL     OW11974   4.797   1.027  10.305 -0.8220 -0.3472  0.9821
 3992SOL    HW111975   4.706   1.042  10.282 -0.7928 -1.6878 -0.1594
 3992SOL    HW211976   4.845   1.098  10.262 -1.2289 -0.1851  0.7888
 3993SOL     OW11977   0.516   0.828   9.833 -0.0896  0.2483 -0.0350
 3993SOL    HW111978   0.597   0.784   9.859 -0.2594  0.2276  0.4641
 3993SOL    HW211979   0.449   0.759   9.836 -0.2840  0.4519  0.3843
 3994SOL     OW11980   0.921   0.771   8.956  0.1444 -0.0690 -0.0143
 3994SOL    HW111981   0.899   0.851   8.908 -3.6913 -0.3378  0.9615
 3994SOL    HW211982   0.976   0.801   9.028  2.3408  0.9525 -1.9678
 3995SOL     OW11983   3.884   0.089   7.981 -0.0142  0.1716  0.0745
 3995SOL    HW111984   3.850   0.017   8.034 -1.9079 -1.5329 -3.1382
 3995SOL    HW211985   3.822   0.161   7.995  1.2097  0.9224  2.3368
 3996SOL     OW11986   3.826   1.060   8.371 -0.0595  0.1501  0.1225
 3996SOL    HW111987   3.795   0.999   8.304  0.8291 -0.7404  0.4974
 3996SOL    HW211988   3.746   1.099   8.407 -0.6763 -1.0125  0.0663
 3997SOL     OW11989   1.983   1.480   7.154  0.4353  0.3364  0.6960
 3997SOL    HW111990   1.974   1.439   7.067  0.0633  0.6379  0.5844
 3997SOL    HW211991   1.906   1.537   7.160  0.3571  0.1723  1.3064
 3998SOL     OW11992   0.321   2.232   9.612  0.0263  0.4945  0.4349
 3998SOL    HW111993   0.253   2.269   9.556  2.0753  0.2727 -2.4245
 3998SOL    HW211994   0.293   2.142   9.629 -0.4834  0.4600 -0.5461
 3999SOL     OW11995   2.579   2.545   9.743  0.1966 -0.5676  0.2635
 3999SOL    HW111996   2.494   2.580   9.769  0.9442  0.1459  1.9378
 3999SOL    HW211997   2.623   2.526   9.826  1.5513 -1.2329 -0.5713
 4000SOL     OW11998   1.209   0.951   7.987 -0.5100 -0.6430  0.1259
 4000SOL    HW111999   1.272   1.022   7.976 -1.3824  0.5131  2.0877
 4000SOL    HW212000   1.237   0.907   8.067 -1.8009 -0.4866  0.6887
 4001SOL     OW12001   3.353   0.353   8.310  0.2389 -0.5611  0.2894
 4001SOL    HW112002   3.274   0.312   8.345  0.0059  1.4834  2.3923
 4001SOL    HW212003   3.424   0.318   8.364  0.8356 -2.2706 -1.4866
 4002SOL     OW12004   2.102   1.144   8.124  0.7981  0.1397  0.4548
 4002SOL    HW112005   2.026   1.186   8.083  0.8606  0.1137  0.3134
 4002SOL    HW212006   2.074   1.053   8.139  1.3777 -0.3395 -1.1388
 4003SOL     OW12007   4.900   3.483   8.750 -0.2383  0.4712  0.6059
 4003SOL    HW112008   4.901   3.452   8.841 -2.0292  0.4716  0.6606
 4003SOL    HW212009   4.887   3.578   8.758 -0.5073  0.4558  0.3499
 4004SOL     OW12010   1.597   4.935   9.675  0.2763 -1.1858 -0.0976
 4004SOL    HW112011   1.545   4.976   9.607 -1.7073 -1.9067  0.9063
 4004SOL    HW212012   1.616   4.847   9.642 -0.9724 -1.6536  0.3739
 4005SOL     OW12013   2.600   0.226  10.349 -0.4777  0.7124  0.2190
 4005SOL    HW112014   2.546   0.203  10.273 -1.1054 -2.2825  1.4360
 4005SOL    HW212015   2.540   0.273  10.407 -1.0852 -0.2737  0.4182
 4006SOL     OW12016   4.698   4.269   9.088 -0.1768 -0.6990  0.8938
 4006SOL    HW112017   4.675   4.218   9.010 -0.2325  1.7929 -0.8230
 4006SOL    HW212018   4.716   4.203   9.155 -6.1327 -3.1099  0.7416
 4007SOL     OW12019   0.132   3.881   9.253 -0.4467 -0.0827 -0.9752
 4007SOL    HW112020   0.126   3.800   9.202 -0.5051  0.5557 -1.9976
 4007SOL    HW212021   0.090   3.947   9.199 -0.3984  0.6473 -0.1497
 4008SOL     OW12022   0.316   2.236   8.928 -0.0510 -0.4178 -0.4893
 4008SOL    HW112023   0.364   2.216   9.008 -3.3839 -0.5347  1.6664
 4008SOL    HW212024   0.298   2.150   8.889 -1.7494 -0.7117  0.8300
 4009SOL     OW12025   0.102   0.338   7.763 -0.2432 -0.6269  0.6315
 4009SOL    HW112026   0.068   0.296   7.842  1.8394 -1.8668  0.9488
 4009SOL    HW212027   0.146   0.417   7.795 -3.1821  1.3522  0.1525
 4010SOL     OW12028   0.185   0.923   7.271  0.0558  1.1676 -0.3326
 4010SOL    HW112029   0.135   0.999   7.240  0.4200  2.2574  1.5455
 4010SOL    HW212030   0.235   0.895   7.195 -0.8500  2.1907 -1.3502
 4011SOL     OW12031   1.206   3.539   8.804  0.3344 -0.3197  0.7782
 4011SOL    HW112032   1.167   3.466   8.853  1.8550 -2.5571 -1.0897
 4011SOL    HW212033   1.145   3.556   8.733  0.1210  0.0381  1.0453
 4012SOL     OW12034   2.418   1.658   8.764 -0.0564  0.0618  0.0869
 4012SOL    HW112035   2.338   1.610   8.745 -1.4083  2.2034  0.1329
 4012SOL    HW212036   2.488   1.595   8.745 -1.6777 -1.4994 -1.0436
 4013SOL     OW12037   2.045   4.816  10.088  0.2697  0.3483  0.6618
 4013SOL    HW112038   2.098   4.888  10.055 -0.6550  0.5192 -0.4923
 4013SOL    HW212039   2.034   4.757  10.013 -2.0610  0.8527  0.5301
 4014SOL     OW12040   3.679   3.805   9.859  0.0064 -0.1725 -0.5100
 4014SOL    HW112041   3.665   3.886   9.809  1.9683 -0.5489 -1.7630
 4014SOL    HW212042   3.747   3.758   9.811 -0.5207 -2.2195  0.6315
 4015SOL     OW12043   0.446   3.649   8.539 -0.0880 -0.3361  0.4491
 4015SOL    HW112044   0.506   3.640   8.464 -0.0302 -2.0982  0.6578
 4015SOL    HW212045   0.497   3.618   8.614 -1.2104 -1.7988  0.6414
 4016SOL     OW12046   3.075   2.961   9.787  0.3277  0.5182  0.2094
 4016SOL    HW112047   3.059   3.055   9.796 -1.3931  0.5741 -2.3186
 4016SOL    HW212048   3.168   2.955   9.765  0.5992  1.5489  0.9852
 4017SOL     OW12049   1.702   3.319   9.936 -0.6054 -0.0412 -0.1513
 4017SOL    HW112050   1.679   3.399   9.983  0.1399  0.4021 -0.5240
 4017SOL    HW212051   1.652   3.250   9.981 -1.2479  0.6180  0.1824
 4018SOL     OW12052   4.341   3.940   9.561  0.8377  0.6279 -0.6535
 4018SOL    HW112053   4.360   3.956   9.468  1.3943 -0.3247 -0.7250
 4018SOL    HW212054   4.405   3.873   9.587 -0.8260 -0.9043 -0.2476
 4019SOL     OW12055   2.764   4.615   6.897 -0.2102  0.5864 -0.6972
 4019SOL    HW112056   2.678   4.652   6.917 -0.6231  1.5373 -3.7769
 4019SOL    HW212057   2.747   4.522   6.881 -0.2995  0.3730  0.5322
 4020SOL     OW12058   3.992   0.923  10.163 -0.0473 -0.2962 -0.2898
 4020SOL    HW112059   4.070   0.871  10.185 -0.2931 -0.8325 -0.6794
 4020SOL    HW212060   3.925   0.892  10.223 -0.0085  0.0559 -0.0605
 4021SOL     OW12061   1.596   3.464   9.577  0.3428 -0.1392 -0.0734
 4021SOL    HW112062   1.563   3.514   9.502 -2.0855  1.2211  1.7317
 4021SOL    HW212063   1.691   3.473   9.572  0.1303  2.2496 -1.4738
 4022SOL     OW12064   4.438   1.772   9.375  0.2901  0.4247 -0.2391
 4022SOL    HW112065   4.480   1.729   9.300 -1.1212 -0.1005 -0.7691
 4022SOL    HW212066   4.381   1.839   9.335 -0.2627  0.3330  0.3813
 4023SOL     OW12067   4.552   0.349   9.896  0.0702 -0.7545  0.1241
 4023SOL    HW112068   4.558   0.398   9.814  0.3129 -0.1464  0.4979
 4023SOL    HW212069   4.462   0.364   9.926  0.3841  0.1868  0.6637
 4024SOL     OW12070   4.823   2.457   8.814 -0.9842 -0.4121 -0.6374
 4024SOL    HW112071   4.900   2.402   8.835 -1.6456 -0.3748  2.4098
 4024SOL    HW212072   4.860   2.543   8.794 -0.1628 -0.6772 -0.3173
 4025SOL     OW12073   2.281   1.680   9.197 -0.0866 -0.4641 -0.1872
 4025SOL    HW112074   2.357   1.665   9.252  0.1721  1.8165  0.1845
 4025SOL    HW212075   2.259   1.594   9.160  0.9433 -1.6709  1.8861
 4026SOL     OW12076   1.945   1.979   9.728 -0.0932  0.2058  0.2851
 4026SOL    HW112077   1.902   1.907   9.773  1.0580 -1.6685 -1.4443
 4026SOL    HW212078   1.935   1.958   9.635  0.7954  1.9874 -0.2557
 4027SOL     OW12079   1.072   1.414   9.682  0.4924  0.0851 -0.0554
 4027SOL    HW112080   1.004   1.380   9.624 -0.2756  1.1761  0.1495
 4027SOL    HW212081   1.094   1.500   9.645  0.7848  0.3122  0.6302
 4028SOL     OW12082   3.051   1.696   9.233 -0.6253 -0.6236 -0.4199
 4028SOL    HW112083   3.125   1.637   9.223 -0.0756  0.0832 -0.5324
 4028SOL    HW212084   3.088   1.776   9.270 -1.4652 -0.5678  0.3518
 4029SOL     OW12085   1.858   2.151   7.497  0.1277 -0.2630 -0.2521
 4029SOL    HW112086   1.926   2.219   7.501 -0.5175  0.3551  1.2794
 4029SOL    HW212087   1.898   2.074   7.538  0.8280 -0.8071 -1.9033
 4030SOL     OW12088   4.818   3.612   6.989 -0.4278 -0.0907 -0.1120
 4030SOL    HW112089   4.766   3.566   7.055 -0.3426 -0.7499 -0.4930
 4030SOL    HW212090   4.799   3.704   7.003  0.4360 -0.1266  1.5752
 4031SOL     OW12091   1.824   4.420   9.869 -0.5368 -0.1504  0.3993
 4031SOL    HW112092   1.914   4.440   9.846 -0.3579  0.0993  1.2588
 4031SOL    HW212093   1.793   4.499   9.913 -1.3894  0.0085 -0.4603
 4032SOL     OW12094   0.306   3.985   9.441 -0.1578 -0.2669 -0.5513
 4032SOL    HW112095   0.239   3.947   9.384  0.6305 -0.4810 -1.3590
 4032SOL    HW212096   0.271   3.973   9.530 -1.4741  0.2049 -0.9723
 4033SOL     OW12097   1.057   0.064   9.390 -0.5360  0.2517 -0.2800
 4033SOL    HW112098   1.060   0.006   9.467 -1.7155  0.5321 -0.0028
 4033SOL    HW212099   0.994   0.022   9.331 -2.0879  1.6401  0.2953
 4034SOL     OW12100   2.628   2.473   8.793 -0.6555 -0.5608  0.7372
 4034SOL    HW112101   2.633   2.567   8.777 -2.3044 -0.9810 -3.6907
 4034SOL    HW212102   2.711   2.452   8.836  0.7987  2.5908 -0.1961
 4035SOL     OW12103   3.436   1.076   9.547  0.3955 -0.1969 -0.2779
 4035SOL    HW112104   3.359   1.070   9.604  1.8967 -1.4370  1.7883
 4035SOL    HW212105   3.401   1.072   9.458 -1.9953  0.7162  0.5434
 4036SOL     OW12106   1.175   0.705   9.236  0.1097 -0.3372  0.3223
 4036SOL    HW112107   1.133   0.790   9.248  1.3985  0.2945  0.5475
 4036SOL    HW212108   1.152   0.656   9.315 -0.8822 -0.3165  0.0549
 4037SOL     OW12109   4.571   1.227  10.496  0.1543 -0.1300  0.0635
 4037SOL    HW112110   4.527   1.141  10.496  2.0322 -1.1736 -2.0933
 4037SOL    HW212111   4.596   1.240  10.588  0.3258 -2.1749  0.3534
 4038SOL     OW12112   1.140   2.458   8.600  1.0063  0.2542 -0.0862
 4038SOL    HW112113   1.101   2.372   8.617  1.0097  0.0640 -0.9982
 4038SOL    HW212114   1.225   2.437   8.560  0.8737  0.6829 -0.5973
 4039SOL     OW12115   1.772   1.256   9.951 -0.8276  0.0489  0.3892
 4039SOL    HW112116   1.818   1.178   9.921 -0.1142  0.6441 -0.1026
 4039SOL    HW212117   1.715   1.225  10.021  1.2878 -0.5302  1.9534
 4040SOL     OW12118   0.551   2.018   9.165  0.2381  0.8254  0.3719
 4040SOL    HW112119   0.566   1.970   9.247  0.3805  1.1443  0.5339
 4040SOL    HW212120   0.599   1.968   9.099 -2.0044 -0.9697 -0.0481
 4041SOL     OW12121   2.599   2.645   9.204  0.3755 -0.3625  0.5103
 4041SOL    HW112122   2.518   2.663   9.252  0.8650 -1.3242  1.7635
 4041SOL    HW212123   2.644   2.579   9.257  2.2119  0.5099  0.1365
 4042SOL     OW12124   1.690   2.175   9.772  0.1253  0.6647 -0.4393
 4042SOL    HW112125   1.781   2.183   9.801  0.2094 -2.0467  0.2843
 4042SOL    HW212126   1.639   2.177   9.853 -0.0119 -2.3478 -0.3372
 4043SOL     OW12127   1.462   3.992   9.210  0.1240 -0.2585  0.2079
 4043SOL    HW112128   1.465   3.954   9.299 -1.7101 -1.5514 -0.2181
 4043SOL    HW212129   1.496   3.922   9.154  0.0526  0.0688 -0.2429
 4044SOL     OW12130   3.667   2.502  10.027 -0.0184  0.6514  0.1201
 4044SOL    HW112131   3.650   2.475   9.936 -1.6166  0.0961  0.5585
 4044SOL    HW212132   3.732   2.439  10.058  1.5749  1.6553 -1.0169
 4045SOL     OW12133   2.635   1.159  10.088 -0.0352 -0.0162  0.2786
 4045SOL    HW112134   2.728   1.139  10.083  0.0044  0.3473 -0.6918
 4045SOL    HW212135   2.600   1.096  10.150  1.1055  0.7929  1.8085
 4046SOL     OW12136   0.802   0.888   8.154  0.6081  0.3770  0.2657
 4046SOL    HW112137   0.790   0.874   8.248  1.2537 -0.9814  0.1685
 4046SOL    HW212138   0.729   0.841   8.113  1.1693 -0.3392  0.0490
 4047SOL     OW12139   2.973   0.088   8.625  0.0849 -0.2626  1.0466
 4047SOL    HW112140   2.970  -0.001   8.589 -0.1844  0.2975 -0.3478
 4047SOL    HW212141   2.990   0.074   8.718 -0.0308 -1.7812  0.8773
 4048SOL     OW12142   0.695   0.074   9.445  0.3866  0.3417 -0.2197
 4048SOL    HW112143   0.629   0.095   9.511  0.3988 -0.7154  0.1366
 4048SOL    HW212144   0.758   0.146   9.450 -1.1264  1.8191 -1.1232
 4049SOL     OW12145   3.751   0.482  10.179 -0.5870  0.5294  0.1133
 4049SOL    HW112146   3.771   0.389  10.165  1.2956  0.9108  0.0504
 4049SOL    HW212147   3.757   0.521  10.092  0.2690  0.9884  0.3703
 4050SOL     OW12148   3.553   4.178  10.146 -0.3521  0.0833  0.2588
 4050SOL    HW112149   3.570   4.188  10.239 -2.2565 -0.0871  0.6703
 4050SOL    HW212150   3.609   4.105  10.118  0.1402  0.0591  1.2928
 4051SOL     OW12151   5.015   0.621   8.017 -0.0533  0.4205  0.4966
 4051SOL    HW112152   4.935   0.635   7.966 -0.1720 -0.1231  0.5368
 4051SOL    HW212153   5.012   0.529   8.043  0.3605  0.5123  0.8836
 4052SOL     OW12154   0.669   2.117   7.677 -0.2578  0.1552  0.3694
 4052SOL    HW112155   0.613   2.195   7.676  0.3839  0.6235 -0.4363
 4052SOL    HW212156   0.758   2.151   7.674  0.0445 -0.6065  0.4380
 4053SOL     OW12157   0.751   3.804   9.922  0.4780  0.3562 -0.1076
 4053SOL    HW112158   0.732   3.896   9.908  0.2205  0.5349  1.2782
 4053SOL    HW212159   0.801   3.802  10.003  0.8992 -0.6924 -0.3698
 4054SOL     OW12160   0.948   2.608   9.937  0.8483  0.1693  0.1533
 4054SOL    HW112161   0.927   2.595   9.844  0.0785 -0.3401  0.3877
 4054SOL    HW212162   0.920   2.527   9.979  0.1476  0.8240  0.9923
 4055SOL     OW12163   1.863   0.773   8.805 -0.5589  0.3423  0.1352
 4055SOL    HW112164   1.900   0.715   8.872 -0.1486 -0.9145 -1.1218
 4055SOL    HW212165   1.925   0.767   8.732 -1.6255  0.6718 -0.8280
   5.00000   5.00000  15.00000
