Water Slab for Clausius-Clapeyron Phase 1 in water
12165
    1SOL     OW    1   3.185   3.055  10.094  0.4285 -0.0649 -0.5737
    1SOL    HW1    2   3.140   3.071  10.177 -1.0880  0.1784 -1.4024
    1SOL    HW2    3   3.126   3.092  10.027  2.4109  1.3085 -1.6541
    2SOL     OW    4   1.092   1.921   5.773  0.0197  0.2820 -0.1988
    2SOL    HW1    5   1.183   1.900   5.754 -0.5669 -1.6518 -1.1645
    2SOL    HW2    6   1.074   1.880   5.857  0.0004  0.5708 -0.0596
    3SOL     OW    7   4.957   1.760   6.517  0.1096  0.5170  0.3372
    3SOL    HW1    8   4.912   1.814   6.583 -0.2443  0.6850 -0.0415
    3SOL    HW2    9   5.034   1.725   6.564  0.3362  1.3351  0.5968
    4SOL     OW   10   2.615   1.734   5.315  0.3839  0.1872  0.3372
    4SOL    HW1   11   2.658   1.750   5.399 -0.5374  0.9965  0.6620
    4SOL    HW2   12   2.646   1.805   5.258  0.1228  0.2918  0.3257
    5SOL     OW   13   0.890   4.592   6.680  0.4201 -0.0359 -0.1491
    5SOL    HW1   14   0.978   4.592   6.717  0.5723  1.8373 -0.3837
    5SOL    HW2   15   0.833   4.570   6.753  1.0857 -1.6214 -0.0714
    6SOL     OW   16   0.228   2.792   4.154 -1.6920  0.2124 -0.6297
    6SOL    HW1   17   0.256   2.809   4.243 -3.1491 -0.3617 -0.0350
    6SOL    HW2   18   0.256   2.702   4.137 -3.3324 -0.4652  0.0685
    7SOL     OW   19   1.370   4.535   7.420 -0.2637  0.4165  0.1482
    7SOL    HW1   20   1.352   4.511   7.511 -0.5415 -0.2350 -0.0729
    7SOL    HW2   21   1.463   4.518   7.408 -0.8295 -2.8973 -0.6468
    8SOL     OW   22   4.222   0.104   6.855 -0.1032 -0.1103 -0.4721
    8SOL    HW1   23   4.288   0.124   6.921 -0.3594  2.2748 -0.8303
    8SOL    HW2   24   4.144   0.081   6.906  0.8437 -2.7595 -0.0518
    9SOL     OW   25   1.973   2.009   6.894 -0.3802 -0.1989 -0.1531
    9SOL    HW1   26   1.969   2.076   6.825 -0.5911 -0.1454 -0.0909
    9SOL    HW2   27   2.057   2.024   6.938  0.8533 -1.6709 -1.8399
   10SOL     OW   28   0.303   2.922   4.397  0.0709 -0.5374 -0.9167
   10SOL    HW1   29   0.327   2.929   4.490  2.0526 -2.5942 -1.1995
   10SOL    HW2   30   0.270   3.009   4.375  0.5653  0.3289  1.4436
   11SOL     OW   31   3.019   0.143   6.278 -0.1670 -0.8630 -0.3219
   11SOL    HW1   32   2.986   0.194   6.204 -1.3477 -0.0164  0.7374
   11SOL    HW2   33   3.110   0.124   6.256  0.2280  1.3961 -0.9619
   12SOL     OW   34   4.127   0.726   8.711  1.0659  0.1775 -0.8979
   12SOL    HW1   35   4.214   0.745   8.746  1.2600 -1.3258 -0.4655
   12SOL    HW2   36   4.072   0.797   8.742  1.2472 -0.9770  2.5025
   13SOL     OW   37   1.684   3.351   5.595 -0.6581  0.5459  0.4495
   13SOL    HW1   38   1.620   3.394   5.538 -1.2608 -0.0311  0.6697
   13SOL    HW2   39   1.660   3.259   5.592 -0.3182  0.4300  1.1634
   14SOL     OW   40   0.516   2.234   8.925  0.1132  0.2904 -0.3951
   14SOL    HW1   41   0.523   2.326   8.950  0.0331 -0.2818  1.9687
   14SOL    HW2   42   0.428   2.225   8.889  0.3557  1.2645 -1.2581
   15SOL     OW   43   3.477   0.800   7.352 -0.0302  0.1731 -0.1029
   15SOL    HW1   44   3.538   0.768   7.286  1.0995 -1.6174  1.6918
   15SOL    HW2   45   3.397   0.820   7.303  2.1188  3.4795 -2.6873
   16SOL     OW   46   0.727   0.859   5.719 -0.5550 -0.0604  0.4894
   16SOL    HW1   47   0.675   0.780   5.736 -0.4321  0.0429  1.3942
   16SOL    HW2   48   0.731   0.864   5.624  0.5958 -1.9168  0.3938
   17SOL     OW   49   2.117   4.793   7.355 -0.3584 -0.2519  1.5655
   17SOL    HW1   50   2.130   4.698   7.349  1.2800 -0.0534  1.6046
   17SOL    HW2   51   2.183   4.822   7.417  2.0084  1.4107 -1.4510
   18SOL     OW   52   4.896   1.356   5.024 -0.0674 -0.1945 -0.3844
   18SOL    HW1   53   4.907   1.319   4.936 -1.4624 -0.8560 -0.3151
   18SOL    HW2   54   4.865   1.445   5.008  0.6704  0.0393 -0.5535
   19SOL     OW   55   0.469   3.456   6.302 -0.5763  0.5310  0.0588
   19SOL    HW1   56   0.504   3.370   6.327 -1.6693  0.3480  1.0332
   19SOL    HW2   57   0.475   3.509   6.381 -0.3148  1.2189 -0.4184
   20SOL     OW   58   1.674   0.125   6.022  0.3809  0.1625  0.5737
   20SOL    HW1   59   1.596   0.169   6.056  0.2483 -1.7262  3.0914
   20SOL    HW2   60   1.639   0.055   5.967  0.1614 -1.1495  2.2910
   21SOL     OW   61   4.650   2.689   6.985  0.3845 -0.7799 -0.3501
   21SOL    HW1   62   4.674   2.597   6.969 -0.2365 -0.5240 -3.2359
   21SOL    HW2   63   4.701   2.739   6.922  1.5431  1.0619  1.8969
   22SOL     OW   64   0.467   0.144   8.512 -0.3463  0.0195 -0.1194
   22SOL    HW1   65   0.403   0.200   8.470  0.1712 -0.6624 -1.9176
   22SOL    HW2   66   0.427   0.057   8.511  0.0666 -0.1744 -0.0518
   23SOL     OW   67   1.155   4.793   6.989 -0.1313  0.5580  0.0705
   23SOL    HW1   68   1.125   4.863   6.932 -0.9302  0.8757  0.8510
   23SOL    HW2   69   1.110   4.809   7.072 -1.8672 -1.9365 -0.2777
   24SOL     OW   70   3.043   4.763   7.233 -0.0272  0.2372  0.0858
   24SOL    HW1   71   3.006   4.781   7.319  0.9206  0.4301  0.4626
   24SOL    HW2   72   3.102   4.688   7.248  1.2434  1.1714 -0.0855
   25SOL     OW   73   1.426   0.619   4.680  0.3083 -0.2831 -0.2586
   25SOL    HW1   74   1.364   0.549   4.659 -0.0806  0.1851 -0.6714
   25SOL    HW2   75   1.477   0.584   4.753 -0.1678 -0.8325 -0.1834
   26SOL     OW   76   4.336   1.961   6.170 -0.4924  0.5610  0.4171
   26SOL    HW1   77   4.242   1.978   6.171 -0.8197 -1.1497  1.5170
   26SOL    HW2   78   4.365   1.992   6.084 -1.9135  1.7175  0.3155
   27SOL     OW   79   4.974   1.774   5.409  0.6042  0.4891 -0.2359
   27SOL    HW1   80   5.021   1.731   5.338 -1.0054 -1.0616 -0.4407
   27SOL    HW2   81   4.950   1.704   5.469  0.8166  1.5982  1.2020
   28SOL     OW   82   0.435   4.488   5.860  0.5612  0.2842 -0.0697
   28SOL    HW1   83   0.404   4.501   5.771  2.7256  0.3861 -0.8581
   28SOL    HW2   84   0.492   4.411   5.855  0.4802  0.0964  1.2936
   29SOL     OW   85   1.466   4.122   5.988  0.1657 -0.3662  0.4850
   29SOL    HW1   86   1.526   4.098   5.918  0.0453  0.2849  0.1494
   29SOL    HW2   87   1.474   4.051   6.052  0.2534 -0.9778 -0.1973
   30SOL     OW   88   3.619   3.306   7.441  0.4525 -0.1714  0.3645
   30SOL    HW1   89   3.621   3.211   7.455  3.3652 -0.1101  0.8955
   30SOL    HW2   90   3.677   3.321   7.367 -0.3188  1.1858 -0.0014
   31SOL     OW   91   3.376   0.762   7.758  0.2293 -0.1145  0.5722
   31SOL    HW1   92   3.377   0.851   7.722  0.9014 -0.6332 -0.7780
   31SOL    HW2   93   3.460   0.753   7.804  1.0976 -0.6817 -1.0340
   32SOL     OW   94   4.547   0.458   8.413 -0.2322 -0.4530 -0.1789
   32SOL    HW1   95   4.518   0.547   8.433 -0.5393 -0.7431  0.7555
   32SOL    HW2   96   4.546   0.414   8.498  0.0306 -1.3150 -0.6148
   33SOL     OW   97   2.375   0.064   5.292  0.3044  0.0300 -0.4287
   33SOL    HW1   98   2.404   0.155   5.291  3.6305 -0.7821  2.4146
   33SOL    HW2   99   2.311   0.061   5.363  0.8021  0.0279  0.0254
   34SOL     OW  100   1.964   2.515   7.373 -0.8697 -0.6585  0.1581
   34SOL    HW1  101   1.882   2.478   7.405 -1.1719  0.7693  1.1698
   34SOL    HW2  102   2.032   2.470   7.424 -1.2893  0.7946  2.1440
   35SOL     OW  103   0.308   3.754   6.185  0.1593  0.3764  0.7293
   35SOL    HW1  104   0.275   3.667   6.162  0.8608  0.3452 -0.2420
   35SOL    HW2  105   0.330   3.747   6.277 -1.0294 -0.0719  1.0065
   36SOL     OW  106   0.638   3.582   5.537  0.0361  0.5002  0.0027
   36SOL    HW1  107   0.587   3.583   5.456  1.5753  1.9254 -1.0138
   36SOL    HW2  108   0.591   3.521   5.594 -1.7230  0.3224 -1.5353
   37SOL     OW  109   0.460   0.304   5.329 -0.2847 -0.5587 -0.0411
   37SOL    HW1  110   0.398   0.234   5.347  0.9098 -1.7074 -0.2735
   37SOL    HW2  111   0.531   0.291   5.392  0.3462 -0.0594 -0.6292
   38SOL     OW  112   0.912   4.550   5.960 -0.2582  0.0579  0.3480
   38SOL    HW1  113   0.911   4.646   5.958  1.9630  0.2987  3.8602
   38SOL    HW2  114   0.823   4.526   5.984 -0.7267  1.2314 -0.1078
   39SOL     OW  115   3.284   3.880   6.533 -0.3023 -0.4463 -0.4313
   39SOL    HW1  116   3.261   3.969   6.558 -3.3118 -0.9417 -0.9534
   39SOL    HW2  117   3.349   3.852   6.597 -2.1448  0.8493  2.1945
   40SOL     OW  118   3.592   3.358   6.188  0.0123 -0.3196 -0.4885
   40SOL    HW1  119   3.686   3.371   6.198 -0.0923 -0.8125  1.4870
   40SOL    HW2  120   3.585   3.270   6.149  0.3564  0.0263 -1.3708
   41SOL     OW  121   3.964   3.456   5.454  0.1673 -0.7020 -0.6248
   41SOL    HW1  122   3.916   3.374   5.461  0.5596 -0.9651 -1.0257
   41SOL    HW2  123   3.966   3.475   5.360  0.4446 -0.4520 -0.5689
   42SOL     OW  124   4.610   0.202   6.727  0.3517 -0.0957 -0.1757
   42SOL    HW1  125   4.536   0.263   6.722  0.1777  0.0145  2.2717
   42SOL    HW2  126   4.688   0.258   6.722  0.1930  0.3736  1.8615
   43SOL     OW  127   2.529   3.402   6.001 -0.5765 -0.1486  0.0913
   43SOL    HW1  128   2.592   3.474   6.006 -0.9179  0.3115 -1.8113
   43SOL    HW2  129   2.582   3.323   6.009  0.5200  0.1714 -2.9841
   44SOL     OW  130   3.797   4.117   5.106 -0.0463  0.3194 -0.4264
   44SOL    HW1  131   3.891   4.115   5.123  0.0998  1.7479 -0.9155
   44SOL    HW2  132   3.787   4.074   5.021 -0.2964 -3.0014  1.1227
   45SOL     OW  133   1.158   4.174   5.841 -0.7985 -0.0461  0.5057
   45SOL    HW1  134   1.138   4.154   5.749 -0.8300 -2.8754  1.0401
   45SOL    HW2  135   1.245   4.213   5.839 -1.9553  2.8034 -0.9110
   46SOL     OW  136   4.199   3.331   6.309 -0.4321  0.3256 -0.2836
   46SOL    HW1  137   4.223   3.327   6.401 -1.0108 -2.2868 -0.1609
   46SOL    HW2  138   4.112   3.293   6.304  0.3097 -1.3513 -2.0618
   47SOL     OW  139   3.035   0.202   8.566  0.1602 -0.1558  0.1254
   47SOL    HW1  140   3.111   0.196   8.622  1.0540  1.8439 -0.7636
   47SOL    HW2  141   2.982   0.272   8.605  0.6458  1.0418 -1.2689
   48SOL     OW  142   3.128   4.969   5.694 -0.3714 -0.0078 -0.8999
   48SOL    HW1  143   3.069   4.896   5.714  1.6660 -1.8125 -1.1526
   48SOL    HW2  144   3.214   4.939   5.724  0.1683  3.4597  1.7289
   49SOL     OW  145   2.156   0.730   6.466 -0.3304  0.0082  0.0244
   49SOL    HW1  146   2.134   0.637   6.470  0.4525 -0.2447 -1.1884
   49SOL    HW2  147   2.227   0.741   6.528 -0.1928 -0.2706 -0.0853
   50SOL     OW  148   3.608   3.838   8.276  0.2711  0.0577  0.3329
   50SOL    HW1  149   3.518   3.811   8.259  1.0301 -3.5613  1.0951
   50SOL    HW2  150   3.615   3.838   8.372  1.2152 -0.3057  0.2747
   51SOL     OW  151   2.771   2.663   5.893  0.1182 -0.9090 -0.4796
   51SOL    HW1  152   2.684   2.630   5.917 -0.4920 -0.7054 -2.2124
   51SOL    HW2  153   2.823   2.584   5.878  0.3460 -1.0330  0.8722
   52SOL     OW  154   3.711   4.112   5.846  0.3959  0.5966  0.2676
   52SOL    HW1  155   3.698   4.184   5.784 -1.9263  0.0856  0.0471
   52SOL    HW2  156   3.700   4.153   5.932  0.7829  0.8084  0.2170
   53SOL     OW  157   4.078   2.781   7.903  0.6608 -0.3594 -0.0252
   53SOL    HW1  158   4.083   2.876   7.890 -1.7626 -0.3337 -1.1810
   53SOL    HW2  159   4.169   2.751   7.893  1.3117  1.6783 -0.7765
   54SOL     OW  160   1.118   1.519   6.463  0.0942 -0.4918 -0.3634
   54SOL    HW1  161   1.041   1.544   6.515 -0.7716  2.7388 -2.8908
   54SOL    HW2  162   1.124   1.424   6.473 -2.7840 -0.5720  1.7939
   55SOL     OW  163   0.047   0.542   6.640  0.1440  0.5383 -0.0357
   55SOL    HW1  164   0.075   0.527   6.731  0.8990  0.8140 -0.2168
   55SOL    HW2  165   0.031   0.454   6.605  2.1087  0.2629 -0.3349
   56SOL     OW  166   0.345   4.376   5.282 -0.4234  0.1785  1.1861
   56SOL    HW1  167   0.264   4.325   5.286 -1.3101  1.4330  0.1017
   56SOL    HW2  168   0.316   4.467   5.278  0.9625  0.6043 -0.4295
   57SOL     OW  169   4.004   4.113   6.143 -0.4152 -0.2488 -0.2137
   57SOL    HW1  170   4.064   4.185   6.126  0.6215 -1.4291 -1.7886
   57SOL    HW2  171   3.970   4.131   6.231  0.6949  1.5059 -0.0843
   58SOL     OW  172   2.541   0.529   9.282  0.0937 -0.1210 -0.2657
   58SOL    HW1  173   2.518   0.620   9.262  2.8274  0.2743 -2.2634
   58SOL    HW2  174   2.552   0.527   9.377 -0.1607  1.6068 -0.1700
   59SOL     OW  175   2.113   2.731   5.246  0.4930 -0.2615 -0.1412
   59SOL    HW1  176   2.136   2.684   5.165  1.3855 -0.5990  0.2914
   59SOL    HW2  177   2.120   2.665   5.315  0.6858  0.2534  0.3347
   60SOL     OW  178   3.866   0.979   6.211 -0.1025  0.7727  0.5064
   60SOL    HW1  179   3.785   0.929   6.213 -0.2474  0.9584 -0.2110
   60SOL    HW2  180   3.843   1.059   6.163  0.7313  0.3746 -0.6136
   61SOL     OW  181   2.582   2.424   4.830 -0.5694 -0.4446  0.2292
   61SOL    HW1  182   2.516   2.484   4.864  0.4350  1.4072 -0.9570
   61SOL    HW2  183   2.570   2.425   4.735  0.5260 -0.8237  0.0630
   62SOL     OW  184   4.732   4.678   5.792 -0.4404  0.4836 -0.1782
   62SOL    HW1  185   4.688   4.690   5.707 -2.5976 -0.0545  0.7893
   62SOL    HW2  186   4.776   4.593   5.785 -0.7221  0.3787 -0.7121
   63SOL     OW  187   1.301   3.218   4.979  0.8362  0.3483  0.6611
   63SOL    HW1  188   1.297   3.307   4.945 -0.0265 -0.6231 -2.0248
   63SOL    HW2  189   1.379   3.180   4.938 -0.7581 -1.1580 -1.1500
   64SOL     OW  190   2.773   0.663   7.708 -0.0755 -0.0367 -0.7108
   64SOL    HW1  191   2.692   0.631   7.668  0.1624  0.3150 -1.5077
   64SOL    HW2  192   2.831   0.587   7.709  0.1987  0.1444 -1.8157
   65SOL     OW  193   3.169   4.460   7.231 -0.2981  0.3742  0.2978
   65SOL    HW1  194   3.121   4.389   7.274  0.6444 -1.4275 -1.4458
   65SOL    HW2  195   3.149   4.449   7.138  3.3380 -0.4499 -0.5332
   66SOL     OW  196   4.623   0.720   5.172  0.3854  0.1645  0.0897
   66SOL    HW1  197   4.699   0.768   5.206  0.0578  1.2568 -0.6656
   66SOL    HW2  198   4.552   0.745   5.231  0.2607  0.4558 -0.1809
   67SOL     OW  199   2.623   3.849   6.576 -0.1352  0.2048 -0.7168
   67SOL    HW1  200   2.598   3.836   6.667  0.2665 -1.2472 -0.7841
   67SOL    HW2  201   2.616   3.943   6.562 -0.4417  0.4204  0.7404
   68SOL     OW  202   2.544   1.640   6.543 -0.1511  0.2076  0.1935
   68SOL    HW1  203   2.516   1.602   6.460 -0.5507  0.5210  0.1818
   68SOL    HW2  204   2.603   1.575   6.580  1.3890  0.7785 -1.1260
   69SOL     OW  205   4.327   2.919   5.534  0.5514 -0.2385 -0.3782
   69SOL    HW1  206   4.323   2.904   5.628 -0.7885  2.0050 -0.0078
   69SOL    HW2  207   4.400   2.864   5.504  0.7163 -1.3439  1.8713
   70SOL     OW  208   4.111   4.832   7.801  0.8656  0.2884  0.4473
   70SOL    HW1  209   4.136   4.867   7.886  2.4824 -1.7618  0.9064
   70SOL    HW2  210   4.166   4.754   7.790 -1.5403 -1.3174 -1.0689
   71SOL     OW  211   4.153   4.334   5.825 -0.1567  0.0476 -0.7111
   71SOL    HW1  212   4.087   4.382   5.874 -1.1518 -0.7104 -1.2751
   71SOL    HW2  213   4.217   4.400   5.799 -0.0232  0.5970  0.8949
   72SOL     OW  214   4.959   3.182   6.336 -1.1013  0.5527  0.5522
   72SOL    HW1  215   4.918   3.099   6.362 -0.1863  0.4401  1.7453
   72SOL    HW2  216   4.898   3.220   6.273 -1.6610 -0.9061  0.1565
   73SOL     OW  217   2.533   4.157   6.583  0.1444 -0.1470 -0.0080
   73SOL    HW1  218   2.459   4.200   6.543 -0.7968 -1.6989 -0.0260
   73SOL    HW2  219   2.584   4.123   6.510  0.1170 -0.2829  0.0355
   74SOL     OW  220   0.931   1.939   6.815 -0.7464 -0.2127 -0.7776
   74SOL    HW1  221   0.941   2.033   6.830 -0.4006 -0.3052 -0.4096
   74SOL    HW2  222   0.847   1.930   6.769 -2.1386  0.0155  1.6041
   75SOL     OW  223   1.509   2.472   4.972  0.5673 -0.2805  0.8300
   75SOL    HW1  224   1.470   2.501   4.890  1.3416 -0.6875  0.3058
   75SOL    HW2  225   1.435   2.441   5.024  0.2252 -1.5324 -0.3404
   76SOL     OW  226   0.644   4.251   6.175  0.8009 -0.1360 -0.3022
   76SOL    HW1  227   0.592   4.230   6.098  1.0854 -0.3386 -0.4419
   76SOL    HW2  228   0.735   4.250   6.144  0.8924  0.1676 -0.0531
   77SOL     OW  229   2.897   1.390   8.298 -0.2218  0.0541 -0.6717
   77SOL    HW1  230   2.842   1.418   8.372 -0.5398 -0.3267 -0.7640
   77SOL    HW2  231   2.972   1.346   8.339 -1.3893 -1.9842 -0.6112
   78SOL     OW  232   0.037   4.936   6.896 -0.1416 -0.2183  0.1580
   78SOL    HW1  233  -0.057   4.954   6.901 -0.0465  1.2073 -1.8324
   78SOL    HW2  234   0.075   5.017   6.863  1.8801 -0.6103  1.3702
   79SOL     OW  235   4.984   1.098   4.743  0.2318 -0.3580  0.0418
   79SOL    HW1  236   4.916   1.050   4.790 -0.1898  0.1930  0.0088
   79SOL    HW2  237   5.063   1.045   4.754  0.0440 -0.4528  1.0089
   80SOL     OW  238   2.223   4.810   4.669 -0.2560  0.4047  0.1444
   80SOL    HW1  239   2.305   4.779   4.707  0.1291  0.8547 -0.2980
   80SOL    HW2  240   2.242   4.820   4.575 -0.8236  0.4925  0.0292
   81SOL     OW  241   0.597   1.642   5.078 -0.8492  0.2823 -0.0296
   81SOL    HW1  242   0.614   1.727   5.036 -2.1954  0.9806  0.7822
   81SOL    HW2  243   0.566   1.586   5.007  0.4544  0.3022 -0.6559
   82SOL     OW  244   2.192   1.983   5.562  0.4815 -0.0662  0.1294
   82SOL    HW1  245   2.230   1.990   5.650  1.9695 -0.9370 -0.4186
   82SOL    HW2  246   2.257   1.935   5.511 -0.8114 -0.4813 -1.1974
   83SOL     OW  247   4.498   4.061   5.974 -0.4682 -0.2404  0.0896
   83SOL    HW1  248   4.478   3.985   6.029  0.2864 -0.0676  0.6214
   83SOL    HW2  249   4.589   4.047   5.946 -0.7135 -0.1199 -0.7874
   84SOL     OW  250   3.701   2.423   9.373 -0.7292 -0.0568 -0.3532
   84SOL    HW1  251   3.716   2.332   9.345  1.0387  0.7205 -2.1789
   84SOL    HW2  252   3.755   2.433   9.451 -2.1065 -0.9556  0.7643
   85SOL     OW  253   1.531   4.879   5.113  0.0469 -0.2969  0.1424
   85SOL    HW1  254   1.537   4.853   5.205  0.4230 -0.7426 -0.0060
   85SOL    HW2  255   1.614   4.852   5.075  0.8033  1.8463  0.1577
   86SOL     OW  256   3.148   1.421   5.750  0.3917 -0.5614 -0.3566
   86SOL    HW1  257   3.157   1.470   5.669 -0.9142 -0.7999 -0.6665
   86SOL    HW2  258   3.104   1.482   5.810  2.0557 -0.0940  0.4786
   87SOL     OW  259   2.585   1.788   9.110  0.4189  0.6583 -0.3376
   87SOL    HW1  260   2.525   1.782   9.035 -0.7990  1.2257  0.5613
   87SOL    HW2  261   2.640   1.710   9.102  0.4097  0.7756 -1.8880
   88SOL     OW  262   3.314   1.829   6.478 -0.8667 -0.0482  0.2526
   88SOL    HW1  263   3.222   1.804   6.491 -1.0473  1.3131  1.8381
   88SOL    HW2  264   3.314   1.924   6.483  0.6398 -0.0176  0.1616
   89SOL     OW  265   0.718   1.427   5.814  0.2208  0.3772 -0.5429
   89SOL    HW1  266   0.736   1.508   5.862  0.9624  0.1508 -0.4271
   89SOL    HW2  267   0.645   1.387   5.860 -1.1910  1.7454 -1.5252
   90SOL     OW  268   2.390   2.676   7.656 -0.3510 -0.1195 -0.1912
   90SOL    HW1  269   2.383   2.744   7.724  0.7795  0.8184 -0.9710
   90SOL    HW2  270   2.364   2.720   7.575 -3.5350 -1.7224 -0.1708
   91SOL     OW  271   0.927   4.060   6.298 -0.3076 -0.4737  0.1640
   91SOL    HW1  272   0.916   3.983   6.353  0.8382  1.2749  3.1335
   91SOL    HW2  273   0.878   4.129   6.343 -0.0738  0.8868 -1.5462
   92SOL     OW  274   3.259   0.845   6.036  0.3775 -0.4578  0.1950
   92SOL    HW1  275   3.187   0.908   6.034 -0.4555 -1.4047 -0.2819
   92SOL    HW2  276   3.250   0.802   6.122 -0.3803 -1.3916 -0.3207
   93SOL     OW  277   0.666   4.542   6.112  0.5554 -0.9775  0.1021
   93SOL    HW1  278   0.635   4.453   6.128  2.8701 -1.6952  0.9991
   93SOL    HW2  279   0.704   4.570   6.195 -0.0349  0.8471 -0.1961
   94SOL     OW  280   3.537   0.282   8.003 -0.1470 -0.3715  0.1805
   94SOL    HW1  281   3.531   0.372   8.036 -2.2758 -0.8538  1.2836
   94SOL    HW2  282   3.488   0.284   7.921 -0.4284 -0.5923  0.3449
   95SOL     OW  283   2.756   2.413   5.036 -0.7191 -0.6809  0.5363
   95SOL    HW1  284   2.720   2.420   4.948 -2.1926 -0.5734  1.1184
   95SOL    HW2  285   2.844   2.376   5.024 -0.6611 -0.0761 -1.0042
   96SOL     OW  286   2.929   3.656   6.294 -0.1191 -0.1992  0.3992
   96SOL    HW1  287   2.921   3.634   6.201 -1.0627  2.2140 -0.1599
   96SOL    HW2  288   3.018   3.692   6.302  0.2418 -1.1157  0.6188
   97SOL     OW  289   3.847   1.162   5.157  0.0396  0.1286  0.0249
   97SOL    HW1  290   3.889   1.186   5.239 -0.4299 -0.8125  0.5533
   97SOL    HW2  291   3.910   1.187   5.089  0.6425  0.4428  0.6971
   98SOL     OW  292   3.246   1.803   5.414 -0.5242  0.1578 -0.4319
   98SOL    HW1  293   3.209   1.716   5.434  0.7043 -0.6990 -1.7248
   98SOL    HW2  294   3.173   1.851   5.374 -1.1224 -0.3638 -0.0051
   99SOL     OW  295   4.114   2.842   6.445  0.7539 -0.0071 -0.5922
   99SOL    HW1  296   4.142   2.933   6.450  0.1382  0.1539  0.3636
   99SOL    HW2  297   4.168   2.803   6.376  0.6933  1.1925 -1.3509
  100SOL     OW  298   0.573   1.532   6.982  0.5732  0.3625  0.1362
  100SOL    HW1  299   0.511   1.567   7.047  2.7067  1.6687  1.6056
  100SOL    HW2  300   0.573   1.438   6.998 -1.2831  0.2570 -0.1964
  101SOL     OW  301   3.019   2.995   7.457 -0.5326  0.1159  0.6800
  101SOL    HW1  302   3.070   2.986   7.376 -0.5121 -0.4406  0.7464
  101SOL    HW2  303   3.055   3.072   7.500 -0.3758  0.2727  0.2789
  102SOL     OW  304   0.579   4.613   5.125  0.2593 -0.3679  0.5966
  102SOL    HW1  305   0.657   4.619   5.180  0.4166 -2.4668  0.6839
  102SOL    HW2  306   0.568   4.701   5.089  1.6452  0.4028  1.9370
  103SOL     OW  307   4.416   0.095   7.429 -0.1690  0.3706  0.3028
  103SOL    HW1  308   4.436   0.049   7.348  0.4368  2.5449 -0.8481
  103SOL    HW2  309   4.320   0.091   7.435 -0.1062 -4.3265  2.3656
  104SOL     OW  310   3.198   3.432   5.219 -0.2099 -0.2488 -0.1404
  104SOL    HW1  311   3.142   3.499   5.180 -0.8439 -1.9089 -2.2677
  104SOL    HW2  312   3.287   3.456   5.191 -0.5730 -0.9630 -2.0446
  105SOL     OW  313   4.565   4.972   5.884 -0.3735 -0.1359  0.9454
  105SOL    HW1  314   4.617   4.972   5.964 -0.5776  0.8035  1.0883
  105SOL    HW2  315   4.586   4.889   5.842  0.9713  0.0634  1.1762
  106SOL     OW  316   0.759   1.287   4.834  0.0961  0.5893  0.5876
  106SOL    HW1  317   0.822   1.342   4.788  0.9345 -1.7798 -1.3069
  106SOL    HW2  318   0.813   1.224   4.882 -0.8398  0.4516  1.5029
  107SOL     OW  319   3.523   3.011   6.976  0.1108 -0.4480 -0.1522
  107SOL    HW1  320   3.537   2.966   7.060  0.6257  0.0554  0.0339
  107SOL    HW2  321   3.490   3.097   7.001 -0.9243 -0.7158 -0.5126
  108SOL     OW  322   0.955   2.834   5.560 -0.7991 -0.1519  0.5147
  108SOL    HW1  323   0.958   2.805   5.468  2.6427 -0.6329  0.6246
  108SOL    HW2  324   0.955   2.929   5.554  2.1401 -0.0891 -0.1646
  109SOL     OW  325   4.039   4.047   5.215 -0.1056  0.3741  0.7085
  109SOL    HW1  326   4.096   3.989   5.265  0.1475 -1.4641 -1.5236
  109SOL    HW2  327   3.986   4.092   5.281  1.6188 -0.3384  2.6653
  110SOL     OW  328   2.227   3.989   6.730  0.0465 -0.2971 -0.0127
  110SOL    HW1  329   2.187   4.075   6.744  1.8488  1.0196 -2.2954
  110SOL    HW2  330   2.321   4.005   6.739  0.4353 -1.9505 -0.9006
  111SOL     OW  331   2.847   0.700   7.447  0.0720 -0.1725  0.4369
  111SOL    HW1  332   2.809   0.672   7.530  0.1801  1.3746  1.0268
  111SOL    HW2  333   2.941   0.682   7.456  0.4500  2.1346  1.5983
  112SOL     OW  334   1.052   0.198   6.478  0.4085  0.1518 -1.1876
  112SOL    HW1  335   1.074   0.273   6.534  2.3633 -0.8176 -0.5522
  112SOL    HW2  336   1.133   0.181   6.429 -0.0075 -1.5023 -1.3388
  113SOL     OW  337   3.285   4.782   5.047  0.0531 -0.5098  0.4959
  113SOL    HW1  338   3.350   4.841   5.087 -0.1346  0.7156 -0.9211
  113SOL    HW2  339   3.324   4.759   4.962 -0.1119 -2.0548  0.8229
  114SOL     OW  340   4.950   3.106   5.975 -0.1757 -0.3731  0.1053
  114SOL    HW1  341   4.899   3.171   5.928  0.5363  1.3831  1.6602
  114SOL    HW2  342   4.943   3.131   6.067 -0.4447 -2.9195  0.8590
  115SOL     OW  343   2.035   4.712   5.636 -0.4443 -0.0157 -0.3678
  115SOL    HW1  344   2.008   4.788   5.687 -1.6800  0.7528 -2.0558
  115SOL    HW2  345   1.953   4.674   5.605  0.2133 -1.2239 -0.6950
  116SOL     OW  346   0.001   4.196   5.986  0.5263 -0.4499 -0.3648
  116SOL    HW1  347   0.013   4.258   6.058  0.6070 -1.2841  0.3693
  116SOL    HW2  348   0.076   4.209   5.929  0.8615 -0.3039  0.1077
  117SOL     OW  349   1.733   3.976   4.874 -0.9204 -0.2317  0.2657
  117SOL    HW1  350   1.778   3.965   4.958 -2.9717 -1.6172  1.2507
  117SOL    HW2  351   1.767   3.905   4.819 -0.3970  0.0003  0.2821
  118SOL     OW  352   1.198   4.219   6.408  0.7876 -0.2906  0.1163
  118SOL    HW1  353   1.191   4.307   6.371  4.9790 -0.6196 -2.0072
  118SOL    HW2  354   1.208   4.233   6.502  1.0718  1.4981 -0.1444
  119SOL     OW  355   2.199   4.889   9.177 -0.5348  0.0586  0.6000
  119SOL    HW1  356   2.290   4.863   9.159 -0.1218  1.2370  0.8759
  119SOL    HW2  357   2.157   4.889   9.091 -0.7648 -2.1432  0.6537
  120SOL     OW  358   3.605   3.360   5.641  0.5543  0.4495  0.5638
  120SOL    HW1  359   3.559   3.444   5.648 -1.3927 -0.6301  1.4881
  120SOL    HW2  360   3.648   3.349   5.726 -1.2914 -0.5831  1.4295
  121SOL     OW  361   0.769   0.912   8.376 -0.5097  0.4350 -0.8133
  121SOL    HW1  362   0.844   0.937   8.322 -0.9860  1.0702 -1.1852
  121SOL    HW2  363   0.789   0.822   8.404  0.4588  0.6559 -0.7756
  122SOL     OW  364   0.143   1.045   5.501  0.0686  0.2276  0.3255
  122SOL    HW1  365   0.093   1.093   5.435  2.6284  0.4791 -1.5824
  122SOL    HW2  366   0.118   0.954   5.488  0.6733  0.2444 -1.2318
  123SOL     OW  367   0.095   3.051   4.969  1.0379  0.3470  0.2150
  123SOL    HW1  368   0.031   3.103   5.017 -1.0012 -1.8144 -0.0122
  123SOL    HW2  369   0.054   3.036   4.883  1.4316 -1.7837  0.3544
  124SOL     OW  370   4.448   0.924   7.577  0.1420  0.1658  0.8002
  124SOL    HW1  371   4.496   0.998   7.613  1.0533  0.4942 -0.9610
  124SOL    HW2  372   4.410   0.957   7.496 -0.7695 -0.8741  0.7773
  125SOL     OW  373   3.663   3.985   5.399  0.4167  0.5838 -0.6881
  125SOL    HW1  374   3.673   3.905   5.348 -1.5636 -0.8158  0.9452
  125SOL    HW2  375   3.614   4.044   5.342  1.4919  0.4802 -1.7391
  126SOL     OW  376   3.079   4.198   7.783 -1.1780 -0.1540 -0.4836
  126SOL    HW1  377   3.022   4.132   7.822 -1.2746  0.4825  0.4797
  126SOL    HW2  378   3.129   4.233   7.857 -1.8118  1.5282 -0.8250
  127SOL     OW  379   4.189   3.440   6.953  0.0554  0.0905 -0.1547
  127SOL    HW1  380   4.280   3.466   6.940 -0.2152  1.0665 -0.2263
  127SOL    HW2  381   4.176   3.366   6.894  0.7902 -0.0419 -0.1599
  128SOL     OW  382   2.131   4.555   6.770 -1.0441  0.4237  0.0375
  128SOL    HW1  383   2.173   4.568   6.685 -0.9832 -1.0531 -0.1845
  128SOL    HW2  384   2.192   4.593   6.833  0.9306 -1.9769 -0.2346
  129SOL     OW  385   0.847   3.962   5.328 -0.5580 -0.5186 -0.4140
  129SOL    HW1  386   0.819   4.048   5.295  0.2941 -0.6515 -1.5412
  129SOL    HW2  387   0.935   3.951   5.294 -0.5221 -1.6940  0.0274
  130SOL     OW  388   2.283   1.484   5.752  0.4398 -0.1801  0.5290
  130SOL    HW1  389   2.234   1.549   5.804 -1.5512 -1.1998  0.0203
  130SOL    HW2  390   2.271   1.512   5.661  0.4196 -0.7187  0.3664
  131SOL     OW  391   4.231   2.700   4.836  0.0731  0.2375  0.3474
  131SOL    HW1  392   4.244   2.743   4.751 -2.0509  0.0497 -0.1322
  131SOL    HW2  393   4.257   2.609   4.821  2.2775  0.7360  0.7057
  132SOL     OW  394   1.277   0.721   6.332 -0.5292  0.3112  0.1320
  132SOL    HW1  395   1.282   0.736   6.237  1.3222 -0.0138  0.1448
  132SOL    HW2  396   1.359   0.677   6.353  0.1423  2.4219  2.2688
  133SOL     OW  397   0.302   0.648   8.794 -0.1674  0.4199  0.5331
  133SOL    HW1  398   0.372   0.584   8.784  0.2316  0.4024  2.8456
  133SOL    HW2  399   0.346   0.727   8.827 -0.6489  1.9644 -2.2587
  134SOL     OW  400   1.390   3.245   5.627 -0.7550  0.3191 -0.5640
  134SOL    HW1  401   1.374   3.215   5.538  0.0882 -0.2144 -0.5451
  134SOL    HW2  402   1.434   3.171   5.670 -1.3504  0.4849  0.3590
  135SOL     OW  403   4.211   1.745   5.982  0.0386  0.0659  0.0067
  135SOL    HW1  404   4.170   1.796   6.051  0.8266  2.4558 -1.1956
  135SOL    HW2  405   4.304   1.768   5.987  0.0349  0.7346 -2.1750
  136SOL     OW  406   3.474   0.452   7.645 -0.3737  0.4268  0.1713
  136SOL    HW1  407   3.485   0.525   7.707  0.3055 -1.4816  2.4148
  136SOL    HW2  408   3.561   0.440   7.606 -0.8556  1.7924 -1.4998
  137SOL     OW  409   4.397   3.884   7.421  0.2526  0.0006  0.3452
  137SOL    HW1  410   4.406   3.802   7.470 -0.5184 -1.0994 -1.2667
  137SOL    HW2  411   4.303   3.892   7.406  0.3903  0.8144 -0.1257
  138SOL     OW  412   4.600   0.746   6.705  0.0534 -0.5285 -0.4334
  138SOL    HW1  413   4.631   0.793   6.628 -1.1863 -0.6243 -1.0240
  138SOL    HW2  414   4.542   0.808   6.750 -0.4387 -0.9835 -0.4232
  139SOL     OW  415   1.356   1.513   6.101  0.0967  0.4757 -0.9659
  139SOL    HW1  416   1.284   1.560   6.059 -0.2312  0.6759 -0.2033
  139SOL    HW2  417   1.422   1.581   6.117  0.5992  0.2355 -1.9462
  140SOL     OW  418   1.742   3.280   5.103 -0.3789 -0.3347  0.8680
  140SOL    HW1  419   1.749   3.207   5.164 -2.2385 -0.0898  1.4203
  140SOL    HW2  420   1.773   3.356   5.154  0.8243 -0.5732  0.5352
  141SOL     OW  421   4.375   2.324   6.102  0.6600  0.5105  0.1748
  141SOL    HW1  422   4.447   2.297   6.158 -0.6000 -1.3001  1.0158
  141SOL    HW2  423   4.377   2.264   6.028 -0.0146  0.3892  0.2450
  142SOL     OW  424   3.973   4.510   4.975 -0.2734 -0.1449 -0.6869
  142SOL    HW1  425   3.938   4.569   4.908 -1.2909  0.0719  0.0273
  142SOL    HW2  426   4.053   4.554   5.004 -0.1490  0.0638 -1.3146
  143SOL     OW  427   3.332   3.433  10.072 -0.0465  0.3610  0.3176
  143SOL    HW1  428   3.346   3.345  10.038 -1.2352  0.6909 -1.1372
  143SOL    HW2  429   3.408   3.483  10.043 -0.1920  0.2045 -0.3344
  144SOL     OW  430   4.652   1.627   7.416  0.0535 -0.2464  0.8452
  144SOL    HW1  431   4.573   1.669   7.449  0.0297  0.0031  0.4691
  144SOL    HW2  432   4.621   1.568   7.347  0.0520 -1.0960  1.5525
  145SOL     OW  433   2.904   2.163   6.091  0.2155  1.0524 -0.1009
  145SOL    HW1  434   2.881   2.091   6.032  2.1857  0.2858 -0.0215
  145SOL    HW2  435   2.914   2.121   6.176  3.1986  0.9854 -0.3926
  146SOL     OW  436   1.203   1.157   9.511  0.5618 -0.6855  0.2109
  146SOL    HW1  437   1.256   1.142   9.433  0.3268 -0.6270  0.0383
  146SOL    HW2  438   1.175   1.070   9.539  2.8052 -1.0114  1.7808
  147SOL     OW  439   1.453   0.350   5.151 -0.2844 -0.3003 -0.1623
  147SOL    HW1  440   1.390   0.416   5.122 -0.0979 -0.2087 -0.3618
  147SOL    HW2  441   1.400   0.273   5.172 -0.4138 -0.3924 -0.8062
  148SOL     OW  442   0.359   0.010   7.487 -0.2421  0.0419 -0.1248
  148SOL    HW1  443   0.316   0.087   7.450 -0.0905  0.2425  0.1148
  148SOL    HW2  444   0.290  -0.037   7.533 -0.2286  0.3046  0.1643
  149SOL     OW  445   4.894   4.900   5.876  0.1200 -0.4681  0.0679
  149SOL    HW1  446   4.949   4.870   5.948 -0.1119 -1.9523 -0.3400
  149SOL    HW2  447   4.847   4.821   5.848 -0.5615  0.3089 -1.0240
  150SOL     OW  448   4.366   3.765   6.057  0.0294  0.2150  0.0719
  150SOL    HW1  449   4.324   3.780   6.142  0.5423  0.4572  0.2898
  150SOL    HW2  450   4.312   3.814   5.995  1.3670  2.6395  0.7023
  151SOL     OW  451   1.292   2.682   8.281 -0.4027 -0.9963  0.0918
  151SOL    HW1  452   1.331   2.737   8.349 -1.1529  0.5570 -0.6806
  151SOL    HW2  453   1.214   2.645   8.322 -1.3971  0.7106 -0.1703
  152SOL     OW  454   1.372   4.446   6.254 -0.1390 -0.9224  0.1403
  152SOL    HW1  455   1.304   4.428   6.189 -1.8316 -2.2336  2.1132
  152SOL    HW2  456   1.444   4.388   6.231  0.3825  0.4604 -1.9719
  153SOL     OW  457   1.423   3.229   4.497  0.3809  0.4220 -1.4479
  153SOL    HW1  458   1.509   3.187   4.503  0.8277  1.1507 -2.4497
  153SOL    HW2  459   1.442   3.319   4.473 -0.5510  1.3632  1.0941
  154SOL     OW  460   1.821   2.892   8.773 -0.0922 -0.0233  0.6522
  154SOL    HW1  461   1.883   2.821   8.789 -2.1116 -1.8853  0.6803
  154SOL    HW2  462   1.835   2.915   8.681  0.1890 -0.9023  0.4614
  155SOL     OW  463   3.279   2.674   4.885 -0.0322 -0.3115 -0.8294
  155SOL    HW1  464   3.268   2.717   4.970  0.2798  0.3378 -1.1114
  155SOL    HW2  465   3.297   2.746   4.824 -0.6587 -0.7352 -1.5177
  156SOL     OW  466   4.564   1.063   4.898  0.1585  0.4217 -0.2589
  156SOL    HW1  467   4.555   0.997   4.967 -1.3290 -1.2805 -1.9590
  156SOL    HW2  468   4.517   1.026   4.824  0.5575  2.7788 -1.7869
  157SOL     OW  469   0.651   4.307   5.715  0.0343 -0.8976 -0.0168
  157SOL    HW1  470   0.744   4.309   5.739 -0.0812 -1.7041  0.5493
  157SOL    HW2  471   0.630   4.214   5.710 -0.4959 -0.7278 -1.1475
  158SOL     OW  472   1.236   4.834   5.284 -0.4765  0.1432 -0.0724
  158SOL    HW1  473   1.195   4.749   5.301 -1.2698  0.6531  0.6312
  158SOL    HW2  474   1.319   4.830   5.331  0.5610 -1.0684 -1.8810
  159SOL     OW  475   2.823   4.467   5.958  0.0376 -0.4484 -0.1688
  159SOL    HW1  476   2.742   4.461   5.908 -0.2401 -0.1319  0.2427
  159SOL    HW2  477   2.819   4.552   6.001 -0.1893 -1.1112  1.1808
  160SOL     OW  478   0.101   2.104   7.048  0.3814  0.5373  0.8546
  160SOL    HW1  479   0.005   2.105   7.039  0.5195  0.3483 -1.1110
  160SOL    HW2  480   0.121   2.018   7.085 -0.1490  0.1128  0.1817
  161SOL     OW  481   0.021   1.017   5.149  0.1691  0.3014  0.6122
  161SOL    HW1  482  -0.035   1.044   5.076  0.6295  1.5003  0.6792
  161SOL    HW2  483   0.108   1.049   5.125  0.2783  0.9359  1.7972
  162SOL     OW  484   4.411   0.836   5.313  0.4446 -0.1827 -0.1820
  162SOL    HW1  485   4.320   0.814   5.294 -0.8325  2.7473  1.8245
  162SOL    HW2  486   4.415   0.841   5.408  2.6278  0.2010 -0.2421
  163SOL     OW  487   3.998   1.308   6.670 -0.2625  0.2083 -0.2846
  163SOL    HW1  488   3.951   1.298   6.752  1.0616 -1.0705  0.3721
  163SOL    HW2  489   3.930   1.326   6.605 -1.3622  0.9610  1.0301
  164SOL     OW  490   0.613   2.471   6.329  0.1114  0.2418 -0.2014
  164SOL    HW1  491   0.659   2.387   6.329 -1.0470 -0.4460 -1.7001
  164SOL    HW2  492   0.520   2.448   6.328 -0.2821  1.3705 -3.7833
  165SOL     OW  493   2.428   1.171   5.205  0.3619 -0.0194 -0.0200
  165SOL    HW1  494   2.467   1.175   5.292 -1.6439  0.0763  0.9484
  165SOL    HW2  495   2.343   1.214   5.216  1.6436  3.9137 -3.0382
  166SOL     OW  496   1.425   3.989   5.734 -0.2641 -0.3809  0.3738
  166SOL    HW1  497   1.391   3.900   5.722  1.0277 -1.1348  1.9025
  166SOL    HW2  498   1.413   4.007   5.827  0.5722  0.5879  0.3057
  167SOL     OW  499   1.115   2.007   7.883  0.3462  0.0027 -0.1526
  167SOL    HW1  500   1.148   2.091   7.851  0.1537  0.2281  0.2254
  167SOL    HW2  501   1.033   2.029   7.927  1.0370 -0.1586  1.2724
  168SOL     OW  502   2.745   1.739   6.367 -0.2753 -0.6950 -0.7964
  168SOL    HW1  503   2.678   1.711   6.430  1.0461  1.0107  1.5475
  168SOL    HW2  504   2.697   1.787   6.300 -1.6158 -1.3538 -0.3429
  169SOL     OW  505   2.125   3.951   5.924  0.9157  0.1237 -0.3865
  169SOL    HW1  506   2.109   3.888   5.995 -0.4041  2.1711  1.2435
  169SOL    HW2  507   2.213   3.985   5.942  0.2291  1.3229  0.9139
  170SOL     OW  508   0.646   3.288   5.761 -0.2669 -0.4316  0.3284
  170SOL    HW1  509   0.632   3.206   5.714  1.5420 -1.1522  0.9466
  170SOL    HW2  510   0.574   3.293   5.824 -1.8781 -0.1874 -1.4387
  171SOL     OW  511   2.898   3.368   4.938 -0.4649 -0.4093 -0.6659
  171SOL    HW1  512   2.924   3.288   4.983 -0.4938  0.1549  0.3952
  171SOL    HW2  513   2.805   3.355   4.918 -0.3765 -0.7873 -0.8385
  172SOL     OW  514   3.534   1.190   6.024 -0.3924 -0.1975  0.3240
  172SOL    HW1  515   3.553   1.284   6.020  0.2876 -0.3434 -2.7131
  172SOL    HW2  516   3.439   1.185   6.035 -0.3826  0.8317  1.0093
  173SOL     OW  517   1.144   0.468   6.967 -0.5779  0.3394 -0.0213
  173SOL    HW1  518   1.219   0.454   7.025 -0.8363  0.2120  0.2819
  173SOL    HW2  519   1.169   0.425   6.885  1.0133  2.9503 -1.0299
  174SOL     OW  520   2.998   1.963   7.779 -0.5503  0.0752  0.2044
  174SOL    HW1  521   3.037   2.008   7.854 -0.5945  0.1207  0.2002
  174SOL    HW2  522   3.068   1.961   7.713 -0.3894 -0.2918  0.3778
  175SOL     OW  523   1.105   1.720   7.909 -0.4969 -0.2649  0.1667
  175SOL    HW1  524   1.200   1.709   7.904 -0.7345 -2.4861 -0.5778
  175SOL    HW2  525   1.092   1.815   7.906  1.5902  0.0413 -1.9118
  176SOL     OW  526   1.390   0.089   6.572  0.4870  0.1880 -0.5064
  176SOL    HW1  527   1.402   0.013   6.515 -1.6955  0.0284 -0.8494
  176SOL    HW2  528   1.433   0.161   6.527 -1.2241  0.0764 -2.4469
  177SOL     OW  529   3.121   2.631   7.260 -0.1981  0.9007  0.3114
  177SOL    HW1  530   3.037   2.656   7.298 -2.1002 -1.0261 -2.3168
  177SOL    HW2  531   3.109   2.540   7.232  2.5839  0.7345 -0.6606
  178SOL     OW  532   1.337   0.886   4.753 -0.3036 -0.0305  0.1970
  178SOL    HW1  533   1.263   0.923   4.703  0.1906  0.3452 -0.2736
  178SOL    HW2  534   1.347   0.798   4.719  1.3255  0.8727 -1.8944
  179SOL     OW  535   0.703   2.244   6.489  0.2266  1.0282 -0.0737
  179SOL    HW1  536   0.639   2.182   6.452  0.1011  1.6782 -0.9768
  179SOL    HW2  537   0.666   2.267   6.574 -0.6732  1.2703 -0.5117
  180SOL     OW  538   2.530   1.071   7.061  0.1351 -0.1105 -0.1725
  180SOL    HW1  539   2.506   0.987   7.100  0.8075  0.4519  1.5345
  180SOL    HW2  540   2.447   1.107   7.030 -0.9018  0.4857  2.9557
  181SOL     OW  541   0.516   1.265   4.705 -0.1126 -0.6603  0.3785
  181SOL    HW1  542   0.459   1.265   4.782  0.8322 -1.4981  1.1045
  181SOL    HW2  543   0.604   1.275   4.741  0.1972  1.1224 -0.7551
  182SOL     OW  544   2.392   0.304   6.926 -0.3259  0.7587  0.0568
  182SOL    HW1  545   2.471   0.329   6.878  0.8173  0.5735  1.7757
  182SOL    HW2  546   2.396   0.209   6.933 -1.1279  0.6676 -0.5080
  183SOL     OW  547   0.942   0.471   8.278 -0.1803 -0.2937 -0.1430
  183SOL    HW1  548   1.020   0.417   8.273  0.9950  1.4108 -1.5363
  183SOL    HW2  549   0.871   0.410   8.300  1.4901 -1.8978  1.0423
  184SOL     OW  550   2.569   4.645   8.191 -0.1653 -0.5848  0.4835
  184SOL    HW1  551   2.627   4.594   8.135  0.6529 -0.7291  1.4276
  184SOL    HW2  552   2.486   4.649   8.143  0.7037 -0.0905 -1.0602
  185SOL     OW  553   3.822   3.404   6.644  0.2259  0.5311 -0.1984
  185SOL    HW1  554   3.806   3.327   6.590  0.3018 -0.4277  1.0764
  185SOL    HW2  555   3.915   3.424   6.630  0.3667 -0.0037 -0.0682
  186SOL     OW  556   3.334   2.489   5.704 -0.4475  0.0999 -0.5081
  186SOL    HW1  557   3.428   2.501   5.722 -0.6778  1.1045  0.1398
  186SOL    HW2  558   3.301   2.578   5.690 -1.5199 -0.1174  0.4463
  187SOL     OW  559   4.743   1.905   7.632 -0.1232  0.2329  0.2366
  187SOL    HW1  560   4.721   1.948   7.715 -1.8785 -2.3434  1.2414
  187SOL    HW2  561   4.664   1.912   7.579  0.0644 -0.4415 -0.1498
  188SOL     OW  562   0.166   0.776   6.152  0.6776  0.3167 -0.2231
  188SOL    HW1  563   0.121   0.845   6.202  0.6450  1.0779 -1.2761
  188SOL    HW2  564   0.258   0.801   6.155  0.6501  0.4982 -0.7187
  189SOL     OW  565   0.651   2.835   6.703  0.1144  0.1590  0.1819
  189SOL    HW1  566   0.700   2.797   6.629  0.0601  0.8313 -0.2040
  189SOL    HW2  567   0.569   2.864   6.664 -0.1154  0.0812  0.6098
  190SOL     OW  568   4.277   2.146   7.206 -0.1829 -0.4262 -0.5128
  190SOL    HW1  569   4.261   2.120   7.297  0.9198  0.8670  0.0759
  190SOL    HW2  570   4.260   2.066   7.155 -4.6039 -0.2972  0.3427
  191SOL     OW  571   4.854   2.701   6.428  0.1162 -0.6004  0.1266
  191SOL    HW1  572   4.869   2.696   6.334  2.4220  0.3413  0.3707
  191SOL    HW2  573   4.918   2.641   6.466  0.2669  0.1490  1.1322
  192SOL     OW  574   0.746   0.971   4.720 -0.0965 -0.2278  0.0814
  192SOL    HW1  575   0.715   0.926   4.799 -1.5229  1.1606  0.3499
  192SOL    HW2  576   0.673   0.963   4.658  1.4351 -2.3573 -1.6293
  193SOL     OW  577   1.504   3.892   5.458 -0.0548  0.3341 -0.7396
  193SOL    HW1  578   1.493   3.925   5.547  1.5638  1.3559 -0.8809
  193SOL    HW2  579   1.416   3.864   5.432 -0.6905  0.6691  0.9116
  194SOL     OW  580   4.456   3.040   5.138 -0.9105 -0.2154 -0.6719
  194SOL    HW1  581   4.392   3.099   5.098 -1.3725  1.6579  2.4722
  194SOL    HW2  582   4.402   2.973   5.181 -0.5757 -0.5087 -0.7022
  195SOL     OW  583   2.810   0.444   5.294  0.4065  0.3649  0.4822
  195SOL    HW1  584   2.854   0.366   5.327  1.9342  0.2458 -1.6231
  195SOL    HW2  585   2.877   0.513   5.297 -0.2607  1.0336  0.3059
  196SOL     OW  586   1.386   1.909   5.732 -0.2470  0.3900  0.5680
  196SOL    HW1  587   1.389   2.003   5.714  0.6386  0.3521  0.5167
  196SOL    HW2  588   1.404   1.867   5.648  0.5113  0.1863  0.8268
  197SOL     OW  589   0.677   0.670   7.977 -0.3966  0.1283 -0.4921
  197SOL    HW1  590   0.652   0.673   7.885 -1.0863 -0.4651 -0.3320
  197SOL    HW2  591   0.607   0.718   8.022  0.6419  1.6168 -0.4082
  198SOL     OW  592   0.900   1.988   4.750 -0.0651  0.6544  0.0479
  198SOL    HW1  593   0.873   1.995   4.659  0.9484 -1.2135 -0.4489
  198SOL    HW2  594   0.891   1.895   4.771  3.1101  0.3580  0.6793
  199SOL     OW  595   2.261   2.606   6.390  0.5278 -0.6436 -0.0839
  199SOL    HW1  596   2.346   2.566   6.371 -0.6619 -1.8990 -3.4649
  199SOL    HW2  597   2.199   2.533   6.382 -1.2634  0.9908 -2.0168
  200SOL     OW  598   2.007   4.917   5.825 -0.1778  0.0836 -0.1699
  200SOL    HW1  599   2.022   4.854   5.895 -1.5438 -0.4738 -0.3417
  200SOL    HW2  600   2.033   5.002   5.862 -1.6115 -0.0644  1.3268
  201SOL     OW  601   0.080   2.400   6.124  0.2655  0.0344 -0.4867
  201SOL    HW1  602   0.041   2.465   6.182 -0.5298 -0.6060 -0.2795
  201SOL    HW2  603   0.074   2.439   6.037 -0.8941 -0.0556 -0.4676
  202SOL     OW  604   2.837   0.529   6.623 -0.4905  1.1214  0.3832
  202SOL    HW1  605   2.864   0.481   6.546 -2.7253  0.1738  0.1080
  202SOL    HW2  606   2.862   0.474   6.697 -1.4372  0.3592  0.1485
  203SOL     OW  607   1.094   0.415   5.572  0.1012  0.7253 -0.5544
  203SOL    HW1  608   1.166   0.357   5.597 -0.7681  0.0290  0.4491
  203SOL    HW2  609   1.120   0.453   5.488  2.0912  1.2938  0.2751
  204SOL     OW  610   1.969   3.524   6.125 -0.7435  0.0583  0.8670
  204SOL    HW1  611   2.057   3.512   6.089 -0.8255 -0.9763  0.9886
  204SOL    HW2  612   1.970   3.613   6.161  0.0597  0.2709  0.3381
  205SOL     OW  613   3.587   4.523   5.291  0.0137 -1.0754  0.5353
  205SOL    HW1  614   3.609   4.505   5.383  1.5456 -1.4765  0.1200
  205SOL    HW2  615   3.667   4.502   5.243 -0.7775 -0.9028 -0.9064
  206SOL     OW  616   0.874   3.909   4.994 -0.1543 -0.5575  0.5994
  206SOL    HW1  617   0.918   3.990   5.018  0.9176 -1.3674  1.4429
  206SOL    HW2  618   0.783   3.935   4.979  0.4115  1.0151 -0.4153
  207SOL     OW  619   1.665   0.303   5.765 -0.7717  0.1126  0.0168
  207SOL    HW1  620   1.714   0.314   5.683  1.8762  1.0546  1.5863
  207SOL    HW2  621   1.685   0.214   5.793 -0.0776  0.4183  0.5393
  208SOL     OW  622   0.756   1.670   5.981 -0.1929  0.5240  0.6635
  208SOL    HW1  623   0.771   1.763   5.962 -2.4860  0.9636  0.7193
  208SOL    HW2  624   0.824   1.647   6.044  0.9659  1.9174 -0.0269
  209SOL     OW  625   4.197   4.314   6.139 -0.1829  0.1560 -0.5799
  209SOL    HW1  626   4.183   4.405   6.165  3.0489  0.3719  0.9492
  209SOL    HW2  627   4.282   4.315   6.096 -1.8395 -1.5926 -4.3325
  210SOL     OW  628   0.811   3.911   6.863 -0.4184  0.2396  0.2047
  210SOL    HW1  629   0.822   3.954   6.948 -0.9856  0.5626  0.1278
  210SOL    HW2  630   0.856   3.969   6.801  0.3414 -0.2051  0.3340
  211SOL     OW  631   2.556   2.541   5.200 -0.5855  0.1168 -0.5549
  211SOL    HW1  632   2.498   2.578   5.133 -1.0979  1.7811  0.7615
  211SOL    HW2  633   2.638   2.524   5.153 -1.1987  0.4229 -1.7866
  212SOL     OW  634   3.293   0.199   5.903 -0.1098  0.3006 -0.0183
  212SOL    HW1  635   3.375   0.159   5.874  0.0351  1.6579 -1.6178
  212SOL    HW2  636   3.300   0.291   5.876 -2.2918  0.3767 -0.5148
  213SOL     OW  637   2.479   1.202   7.623  0.0169  0.7187 -0.1580
  213SOL    HW1  638   2.481   1.107   7.611 -1.1613  0.6870 -0.2423
  213SOL    HW2  639   2.551   1.221   7.684 -0.5776 -0.3931  0.9251
  214SOL     OW  640   1.905   4.286   4.871  0.5840  0.2066 -0.1193
  214SOL    HW1  641   1.820   4.243   4.861 -0.2711  1.6400  0.6872
  214SOL    HW2  642   1.957   4.224   4.923  0.7347 -1.5399 -2.2158
  215SOL     OW  643   3.335   4.823   9.214  0.1289 -0.0763  0.9272
  215SOL    HW1  644   3.414   4.856   9.172 -1.0145  0.3605 -1.0103
  215SOL    HW2  645   3.314   4.887   9.282 -0.4830  1.7543 -0.8947
  216SOL     OW  646   1.790   0.765   7.688  0.9522  0.8532 -0.1589
  216SOL    HW1  647   1.828   0.799   7.770  1.8156 -1.1295  0.3435
  216SOL    HW2  648   1.699   0.792   7.690  1.0296  1.0796  1.3476
  217SOL     OW  649   0.473   3.426   7.431  0.8645  0.1484  0.3212
  217SOL    HW1  650   0.479   3.332   7.413  1.8941  0.1097  0.7765
  217SOL    HW2  651   0.543   3.442   7.496 -0.6523  0.8242  1.8731
  218SOL     OW  652   4.961   4.788   7.762  0.0199 -0.4728 -0.1710
  218SOL    HW1  653   5.018   4.725   7.805  0.1672 -0.4031 -0.2654
  218SOL    HW2  654   4.901   4.734   7.711  0.0647 -0.5414 -0.1515
  219SOL     OW  655   2.337   2.378   9.231  0.2738 -0.0046 -0.5139
  219SOL    HW1  656   2.251   2.418   9.241  1.2387  1.7128  2.0632
  219SOL    HW2  657   2.325   2.287   9.260 -0.7336  0.1057 -0.5754
  220SOL     OW  658   3.444   4.897   7.154 -0.2207  0.1755 -0.0749
  220SOL    HW1  659   3.488   4.819   7.190 -1.6235 -1.0082 -0.8038
  220SOL    HW2  660   3.508   4.967   7.163  1.1754 -1.1056  0.4303
  221SOL     OW  661   2.057   1.397   7.642  1.0974 -0.5841 -0.2663
  221SOL    HW1  662   2.145   1.422   7.614  1.3901 -1.5188 -0.2179
  221SOL    HW2  663   2.022   1.348   7.567 -0.3809  1.9198 -1.3480
  222SOL     OW  664   3.794   0.252  10.392  0.1814 -0.3377  0.2839
  222SOL    HW1  665   3.703   0.253  10.363  0.0153  1.6840  0.7260
  222SOL    HW2  666   3.826   0.340  10.375  1.4020 -0.3586  2.0960
  223SOL     OW  667   0.731   0.681   5.467 -0.1852 -0.3804 -0.9717
  223SOL    HW1  668   0.715   0.650   5.378 -0.4845  0.1382 -1.1028
  223SOL    HW2  669   0.728   0.602   5.521 -0.4754 -0.6374 -1.3600
  224SOL     OW  670   0.660   4.039   5.812  0.5314  0.1734 -0.5540
  224SOL    HW1  671   0.738   4.058   5.864  0.9601  1.0988 -1.4897
  224SOL    HW2  672   0.679   3.955   5.770  0.6388 -0.0390 -0.0882
  225SOL     OW  673   3.974   1.664   7.043  0.4127  0.1556 -0.0680
  225SOL    HW1  674   3.906   1.728   7.064  1.7166  1.3863  0.6025
  225SOL    HW2  675   4.047   1.686   7.101  0.8920 -2.0178  0.2449
  226SOL     OW  676   2.731   3.844   6.278  0.1177  0.5458 -0.5709
  226SOL    HW1  677   2.701   3.787   6.350  0.2324  1.5335  0.2781
  226SOL    HW2  678   2.808   3.799   6.243  0.9122  0.7251  0.8574
  227SOL     OW  679   2.565   1.937   9.897  0.9953  0.4419 -0.1157
  227SOL    HW1  680   2.541   1.877   9.826 -0.1532  0.7564 -0.0086
  227SOL    HW2  681   2.640   1.986   9.862  0.2228  0.8374 -1.2587
  228SOL     OW  682   3.522   4.198   7.821  0.7313 -0.1012  0.1138
  228SOL    HW1  683   3.493   4.285   7.849 -0.3115  0.2509 -1.9151
  228SOL    HW2  684   3.617   4.206   7.815  0.5244  1.6208 -2.1361
  229SOL     OW  685   2.080   2.048   7.798 -0.0618  0.1815 -0.2506
  229SOL    HW1  686   2.130   2.104   7.858 -0.5225  1.1355 -0.7320
  229SOL    HW2  687   2.119   1.961   7.808  0.5072  0.5286  0.7045
  230SOL     OW  688   1.197   2.965   7.718 -0.0620 -0.1496 -0.2094
  230SOL    HW1  689   1.234   3.026   7.781 -1.2548 -1.3473  1.7312
  230SOL    HW2  690   1.274   2.927   7.674  0.7570  1.1491  0.0368
  231SOL     OW  691   2.061   1.095   9.256 -0.1270 -0.0453 -0.3203
  231SOL    HW1  692   1.998   1.131   9.319  0.8473 -1.3786  1.5026
  231SOL    HW2  693   2.061   1.158   9.184 -4.9689 -0.8768 -1.4221
  232SOL     OW  694   3.834   1.307   9.949 -0.1007 -0.1321  0.0978
  232SOL    HW1  695   3.782   1.360  10.009  0.1644 -0.6506  0.7892
  232SOL    HW2  696   3.771   1.270   9.887 -0.3673  0.4255  0.0332
  233SOL     OW  697   2.807   0.451   8.426  0.0674 -0.1548 -0.0833
  233SOL    HW1  698   2.888   0.463   8.477  0.2981 -0.3752 -0.3960
  233SOL    HW2  699   2.737   0.477   8.487  0.1966 -2.1275  0.9955
  234SOL     OW  700   3.629   0.932   8.500  0.4541  0.0653 -0.2368
  234SOL    HW1  701   3.625   1.005   8.437 -0.3366  1.2409  1.1144
  234SOL    HW2  702   3.618   0.854   8.446 -1.8184  1.1017 -1.4184
  235SOL     OW  703   3.781   4.933   7.113  1.0608  0.6628  0.0228
  235SOL    HW1  704   3.779   4.845   7.149  1.5404  0.6046 -0.0903
  235SOL    HW2  705   3.710   4.934   7.048  0.8415  0.4659  0.2553
  236SOL     OW  706   4.516   0.740   6.028  0.2289 -0.1575 -0.1917
  236SOL    HW1  707   4.549   0.660   5.988 -1.4882 -0.6769 -0.6772
  236SOL    HW2  708   4.421   0.728   6.030  0.0530  1.1218  1.3650
  237SOL     OW  709   0.867   0.783   9.113 -0.0637 -0.0846  0.1236
  237SOL    HW1  710   0.889   0.869   9.150 -1.4130  0.2269  0.2629
  237SOL    HW2  711   0.876   0.795   9.019  0.3100  0.0362  0.1724
  238SOL     OW  712   0.859   0.360   6.337  0.9689 -0.2525  0.9477
  238SOL    HW1  713   0.900   0.439   6.302 -1.3659  1.2235  1.3457
  238SOL    HW2  714   0.924   0.325   6.399  1.4023  2.3341  2.0845
  239SOL     OW  715   2.619   0.127   8.510 -0.2504 -0.5840  0.1320
  239SOL    HW1  716   2.567   0.083   8.442  1.4311 -1.6166 -0.5604
  239SOL    HW2  717   2.708   0.130   8.474 -0.1569  3.1393  0.2883
  240SOL     OW  718   2.514   4.171   8.595 -0.0432 -0.7155 -0.3854
  240SOL    HW1  719   2.444   4.158   8.531 -2.2944  1.7458  1.3852
  240SOL    HW2  720   2.591   4.192   8.542 -1.5248  0.1429 -2.3248
  241SOL     OW  721   3.197   1.194   7.014  0.8480 -0.3087  0.3019
  241SOL    HW1  722   3.283   1.157   7.034 -0.5619 -2.9923  1.9735
  241SOL    HW2  723   3.150   1.123   6.970 -0.6175  1.0129 -0.3645
  242SOL     OW  724   0.377   2.674   5.008  0.0975 -0.4600 -0.1241
  242SOL    HW1  725   0.287   2.696   4.983 -0.2617 -1.0348  0.6271
  242SOL    HW2  726   0.411   2.623   4.935 -0.4412 -0.8823 -0.0801
  243SOL     OW  727   4.291   0.688   8.458 -0.3009  0.1474  0.6630
  243SOL    HW1  728   4.250   0.671   8.542 -0.3279  1.3070  0.8988
  243SOL    HW2  729   4.382   0.711   8.479 -0.1459 -0.1305  0.3245
  244SOL     OW  730   4.697   1.712   7.874 -0.5868  0.0492  0.9002
  244SOL    HW1  731   4.732   1.760   7.798 -3.2908 -0.0157 -0.4974
  244SOL    HW2  732   4.616   1.756   7.895 -2.2507 -2.7052  0.7441
  245SOL     OW  733   4.729   0.142   7.961 -0.3902 -0.9380  0.5380
  245SOL    HW1  734   4.758   0.109   7.876 -3.1725  0.2027 -0.9810
  245SOL    HW2  735   4.731   0.066   8.019  1.1835 -1.8333 -0.6148
  246SOL     OW  736   0.039   3.280   5.721  0.7454  0.4490  0.9811
  246SOL    HW1  737  -0.024   3.215   5.691  0.3465  0.4099  1.8686
  246SOL    HW2  738   0.114   3.269   5.663 -1.3577  2.9980 -2.5944
  247SOL     OW  739   2.326   4.704   9.881 -0.3542 -0.6859  0.8502
  247SOL    HW1  740   2.417   4.674   9.876 -0.1066  0.0145  0.9711
  247SOL    HW2  741   2.296   4.707   9.790 -1.1540 -3.4923  0.9334
  248SOL     OW  742   1.414   3.097  11.014 -0.0359 -0.1031  0.5422
  248SOL    HW1  743   1.429   3.034  11.085 -0.4096  1.1209  1.7535
  248SOL    HW2  744   1.342   3.061  10.963  1.2280 -1.7646 -0.1761
  249SOL     OW  745   0.038   2.065   8.041  0.3390  0.0019  0.2206
  249SOL    HW1  746   0.107   2.014   8.084 -2.6111 -3.2416  1.5754
  249SOL    HW2  747  -0.016   2.000   7.997  0.0363  2.7107 -3.9632
  250SOL     OW  748   1.410   3.248   9.075  0.1116 -0.3081  0.1080
  250SOL    HW1  749   1.466   3.181   9.114  0.4890 -1.0135 -1.5502
  250SOL    HW2  750   1.450   3.267   8.991 -2.0351 -0.7528 -1.0916
  251SOL     OW  751   0.540   3.109   5.532 -0.5428  0.7060  0.5206
  251SOL    HW1  752   0.453   3.143   5.509 -0.5412  1.2739  1.3382
  251SOL    HW2  753   0.562   3.049   5.460 -0.5303  2.4384 -0.9866
  252SOL     OW  754   2.767   0.011   9.501 -0.2909 -0.4668  0.3254
  252SOL    HW1  755   2.672   0.005   9.506 -0.2937 -1.6152 -0.7323
  252SOL    HW2  756   2.783   0.097   9.461 -0.8079  0.3554  1.8158
  253SOL     OW  757   3.069   4.722   9.766  0.4995  0.0995 -0.0483
  253SOL    HW1  758   3.036   4.807   9.737  0.0009  0.6508  1.9665
  253SOL    HW2  759   3.082   4.732   9.860  2.6746 -1.3557 -0.1148
  254SOL     OW  760   4.244   1.468   8.437 -0.2441  0.1027 -0.3647
  254SOL    HW1  761   4.238   1.374   8.417 -0.9770  0.6526 -3.0338
  254SOL    HW2  762   4.153   1.497   8.443 -0.0520  1.0353 -1.6991
  255SOL     OW  763   2.363   2.518   6.694 -0.4074 -0.2602 -0.0131
  255SOL    HW1  764   2.325   2.476   6.772 -0.9658 -0.2900 -0.2943
  255SOL    HW2  765   2.358   2.450   6.626  0.1526 -0.2617 -0.0521
  256SOL     OW  766   4.571   2.542   9.747  0.8145 -0.2886 -0.3634
  256SOL    HW1  767   4.567   2.544   9.843  1.2208 -2.1257 -0.2701
  256SOL    HW2  768   4.533   2.457   9.723 -2.0064  1.2599 -2.0426
  257SOL     OW  769   4.539   3.651   7.698  0.5128 -0.0372 -0.1734
  257SOL    HW1  770   4.544   3.560   7.726  0.5181 -0.8462 -2.5299
  257SOL    HW2  771   4.459   3.655   7.645 -0.2302  1.6993  1.0100
  258SOL     OW  772   0.893   4.662   7.802  0.2832  0.3114 -0.3460
  258SOL    HW1  773   0.965   4.614   7.762  2.5045  2.2430  1.0199
  258SOL    HW2  774   0.911   4.754   7.780 -0.4045  1.0730  1.9412
  259SOL     OW  775   0.706   2.470   8.291 -0.1594 -0.3866 -0.1642
  259SOL    HW1  776   0.614   2.481   8.267  0.5172  1.8265 -2.1317
  259SOL    HW2  777   0.730   2.386   8.252 -1.1487 -0.6332 -0.2915
  260SOL     OW  778   3.195   1.681   6.764 -0.2662 -0.1241 -0.7790
  260SOL    HW1  779   3.107   1.642   6.769 -0.2818  0.0066  0.1594
  260SOL    HW2  780   3.184   1.769   6.799 -0.1838  0.6959 -2.7022
  261SOL     OW  781   3.098   3.009   7.182 -0.1062  0.3477 -0.0218
  261SOL    HW1  782   3.118   2.934   7.125 -3.1960 -1.8934  1.5230
  261SOL    HW2  783   3.063   3.076   7.123  1.3273  0.0455 -1.2709
  262SOL     OW  784   0.747   4.208   7.815  0.3262 -0.6619 -0.3561
  262SOL    HW1  785   0.734   4.294   7.774 -0.2464 -0.5456  0.0575
  262SOL    HW2  786   0.766   4.228   7.907 -0.5492 -0.9949 -0.0922
  263SOL     OW  787   1.928   1.410   5.317  0.4554 -0.4840  0.3794
  263SOL    HW1  788   1.838   1.398   5.287  0.3824 -0.6853  0.6742
  263SOL    HW2  789   1.921   1.423   5.412  0.7089 -0.1566  0.3582
  264SOL     OW  790   4.735   0.770   7.880  0.4060  0.7069  0.3024
  264SOL    HW1  791   4.805   0.799   7.822  1.7877 -0.7563  1.1432
  264SOL    HW2  792   4.656   0.773   7.827  1.4846  0.1887 -1.3957
  265SOL     OW  793   1.958   4.364   9.026 -0.2579 -0.5063  0.0603
  265SOL    HW1  794   1.984   4.414   8.949 -0.1509  0.5967  0.7982
  265SOL    HW2  795   1.998   4.278   9.013  1.3606  0.2638 -0.2035
  266SOL     OW  796   4.439   0.486   6.674 -0.0407 -0.1023  0.3490
  266SOL    HW1  797   4.500   0.554   6.701 -0.6791 -0.1141  1.9661
  266SOL    HW2  798   4.365   0.495   6.735 -0.1853 -2.1358  0.5516
  267SOL     OW  799   4.687   2.540   8.179 -0.1594 -1.1242 -0.1756
  267SOL    HW1  800   4.776   2.570   8.162 -0.1855 -1.4149 -0.8694
  267SOL    HW2  801   4.685   2.520   8.273  0.6967 -1.7381 -0.2791
  268SOL     OW  802   3.715   3.589   7.301  0.6338 -0.5606  0.6893
  268SOL    HW1  803   3.624   3.618   7.308  0.2112 -1.7417  0.3213
  268SOL    HW2  804   3.718   3.543   7.217  1.8856  0.5080  0.1001
  269SOL     OW  805   0.446   2.155   5.143  0.7183 -0.0248 -1.4598
  269SOL    HW1  806   0.487   2.112   5.218 -1.2493 -1.9060 -1.3664
  269SOL    HW2  807   0.482   2.244   5.143  1.2631 -0.1775  1.2725
  270SOL     OW  808   0.956   4.912   7.773  0.0104  0.0691  0.6430
  270SOL    HW1  809   0.908   4.994   7.766  1.7088  1.0619  0.1558
  270SOL    HW2  810   1.023   4.929   7.839 -0.9191 -1.6430  2.1368
  271SOL     OW  811   0.645   2.933   5.331  0.3362  0.0804 -0.3752
  271SOL    HW1  812   0.688   2.857   5.372  1.0610  0.0567 -1.1476
  271SOL    HW2  813   0.612   2.899   5.248 -1.2593  0.0888  0.2307
  272SOL     OW  814   4.267   0.020   6.412  0.9786 -0.4553  0.3492
  272SOL    HW1  815   4.296   0.045   6.500  0.0320 -1.7420  1.0613
  272SOL    HW2  816   4.199  -0.046   6.427 -0.7214  0.8190 -1.3061
  273SOL     OW  817   3.437   1.460   8.299  0.8092  0.2663 -0.2230
  273SOL    HW1  818   3.521   1.450   8.255  1.5744  0.6253  1.0939
  273SOL    HW2  819   3.458   1.503   8.382 -0.5958 -0.2244  0.4241
  274SOL     OW  820   3.780   1.509   8.514  0.0601 -0.3720 -0.4586
  274SOL    HW1  821   3.698   1.464   8.535  1.9423 -3.7135  0.4342
  274SOL    HW2  822   3.841   1.480   8.582  2.6619 -0.1439 -2.5399
  275SOL     OW  823   3.695   4.133   8.777 -0.0746  0.2923  0.6193
  275SOL    HW1  824   3.658   4.091   8.855 -0.2875  0.6721  0.7230
  275SOL    HW2  825   3.788   4.110   8.780 -0.0886  0.2658  0.9644
  276SOL     OW  826   4.528   1.553  10.107 -0.2751 -0.3484  0.2820
  276SOL    HW1  827   4.540   1.488  10.176 -0.8656 -1.3109 -0.4961
  276SOL    HW2  828   4.462   1.613  10.142 -2.5949 -2.3276 -0.4021
  277SOL     OW  829   0.598   4.739   7.083 -0.0021 -0.8589 -0.1624
  277SOL    HW1  830   0.577   4.811   7.143  2.9254 -0.0696  0.0333
  277SOL    HW2  831   0.586   4.775   6.996 -0.6085 -0.8205 -0.0658
  278SOL     OW  832   4.724   3.096   7.593  0.3957 -0.3447 -1.0492
  278SOL    HW1  833   4.696   3.032   7.658  0.9091 -0.3426 -0.8171
  278SOL    HW2  834   4.797   3.142   7.635  1.7878 -1.4073 -2.1798
  279SOL     OW  835   0.046   2.781   7.284  0.3002 -0.0481  0.1881
  279SOL    HW1  836  -0.019   2.844   7.313 -0.0702  0.1578 -1.0297
  279SOL    HW2  837   0.129   2.815   7.316  0.1147  1.1060 -0.5195
  280SOL     OW  838   3.564   2.968   9.712  0.6109  0.4470 -0.1534
  280SOL    HW1  839   3.539   3.021   9.637  4.2905  1.1060 -1.1409
  280SOL    HW2  840   3.601   2.888   9.674  0.8973 -0.0016  1.0266
  281SOL     OW  841   2.562   0.314   5.242 -0.1659  0.0536 -0.4493
  281SOL    HW1  842   2.608   0.255   5.302 -0.6681 -0.3509 -0.4524
  281SOL    HW2  843   2.626   0.383   5.223  1.8502 -2.3435 -3.3480
  282SOL     OW  844   4.642   0.832   8.816 -0.1505  0.0879 -0.2665
  282SOL    HW1  845   4.649   0.926   8.800 -0.8202  0.2174  0.1756
  282SOL    HW2  846   4.661   0.822   8.909  1.5686 -0.4141 -0.6393
  283SOL     OW  847   0.299   3.578   5.462 -0.3891  0.0744  0.0848
  283SOL    HW1  848   0.362   3.581   5.390 -0.2374  2.0672  0.2389
  283SOL    HW2  849   0.235   3.646   5.441 -2.6354 -1.9570 -0.1197
  284SOL     OW  850   0.841   3.570   6.327 -0.0036  0.1500 -0.2460
  284SOL    HW1  851   0.885   3.540   6.407 -0.5486  2.4173  1.0013
  284SOL    HW2  852   0.905   3.628   6.285 -0.2055  0.0182 -0.7374
  285SOL     OW  853   0.718   0.889   7.430  0.1285 -0.3727 -0.1680
  285SOL    HW1  854   0.723   0.976   7.469 -2.2407  0.0907 -0.7108
  285SOL    HW2  855   0.809   0.865   7.412  0.8967  1.6098  0.7540
  286SOL     OW  856   1.676   1.020   8.546 -0.0298 -0.7412  0.5209
  286SOL    HW1  857   1.758   1.014   8.497 -1.9381 -1.6488 -2.9193
  286SOL    HW2  858   1.685   0.957   8.617  1.9381 -1.4199 -0.2721
  287SOL     OW  859   3.655   4.802   8.440  0.3859  0.0395 -0.3422
  287SOL    HW1  860   3.560   4.792   8.439  0.5277 -1.4476 -0.7056
  287SOL    HW2  861   3.681   4.781   8.529  0.3206  1.2002 -0.0339
  288SOL     OW  862   3.472   1.456   5.440  0.0371  0.6784 -0.4042
  288SOL    HW1  863   3.429   1.458   5.355  0.5470 -1.1477 -0.7318
  288SOL    HW2  864   3.557   1.414   5.424  0.0733  0.1399  1.0167
  289SOL     OW  865   2.180   0.838   5.193 -0.3246 -0.1389  0.1121
  289SOL    HW1  866   2.208   0.929   5.189 -1.0752  0.0720 -0.4986
  289SOL    HW2  867   2.262   0.788   5.199  0.2492  0.4480 -1.9676
  290SOL     OW  868   2.739   2.754   7.958  0.0018  0.5681  0.7689
  290SOL    HW1  869   2.824   2.770   8.000  1.4618  1.1247 -2.1386
  290SOL    HW2  870   2.742   2.663   7.930 -0.4306  0.5494  0.7694
  291SOL     OW  871   1.783   0.071   7.384 -0.3784  0.0208  0.0842
  291SOL    HW1  872   1.707   0.039   7.431 -0.1128 -0.0722  0.4483
  291SOL    HW2  873   1.755   0.157   7.350 -1.5127 -1.0510 -1.9239
  292SOL     OW  874   0.549   3.265   6.513 -0.0441  0.6183 -0.1242
  292SOL    HW1  875   0.486   3.308   6.571  0.3126  1.2403 -0.1899
  292SOL    HW2  876   0.525   3.173   6.516  1.6496  0.1434  3.2278
  293SOL     OW  877   1.227   0.941   5.011  0.1437 -0.7881 -0.1702
  293SOL    HW1  878   1.289   0.992   4.959  0.8155 -1.6506 -0.2334
  293SOL    HW2  879   1.206   0.997   5.086 -0.6481  0.3747 -1.2116
  294SOL     OW  880   4.731   0.450   6.194 -0.2502 -0.2174 -0.2649
  294SOL    HW1  881   4.757   0.507   6.123  3.5623  1.4771  2.1834
  294SOL    HW2  882   4.691   0.509   6.259 -0.0975 -1.0221  0.5832
  295SOL     OW  883   0.958   4.287   8.406  0.1661  0.7529 -0.3852
  295SOL    HW1  884   0.879   4.311   8.358  0.1999  1.7291  0.0334
  295SOL    HW2  885   0.928   4.223   8.470 -0.1071  0.3966 -0.8619
  296SOL     OW  886   3.452   1.962   9.674 -0.2638 -0.3735  0.1299
  296SOL    HW1  887   3.358   1.947   9.671 -0.3783  0.2542  0.3374
  296SOL    HW2  888   3.491   1.877   9.654 -0.8770 -0.5085 -0.5386
  297SOL     OW  889   1.930   0.496   7.985  0.2387 -0.7023 -0.1174
  297SOL    HW1  890   1.889   0.437   8.048 -0.1104  1.8620  2.2293
  297SOL    HW2  891   1.857   0.530   7.933  0.0266 -0.0143  0.6192
  298SOL     OW  892   1.770   1.319   6.145  0.1258 -0.0664 -0.2473
  298SOL    HW1  893   1.807   1.390   6.198  1.0891  1.1968 -2.4669
  298SOL    HW2  894   1.682   1.350   6.121  0.5208  0.3894 -1.1602
  299SOL     OW  895   4.704   4.766  10.234 -0.2927  0.1016  0.2916
  299SOL    HW1  896   4.752   4.829  10.180 -0.8387  0.2115 -0.0669
  299SOL    HW2  897   4.772   4.723  10.285  0.0989  0.9420  0.5040
  300SOL     OW  898   4.739   1.445  10.538  0.3531 -0.0778 -0.1703
  300SOL    HW1  899   4.821   1.412  10.501  0.2476 -1.4745  0.7417
  300SOL    HW2  900   4.716   1.381  10.606  0.9740  2.7199  2.9289
  301SOL     OW  901   1.276   1.236   6.585 -0.1882  0.2854 -0.5046
  301SOL    HW1  902   1.313   1.314   6.628 -0.9475  0.8193 -0.7953
  301SOL    HW2  903   1.181   1.243   6.601 -0.0534 -2.3437  2.4216
  302SOL     OW  904   1.494   3.477   8.889 -0.4567  0.1246 -0.1522
  302SOL    HW1  905   1.571   3.435   8.851  0.2296 -1.9629  3.1008
  302SOL    HW2  906   1.500   3.568   8.862  3.0109 -0.0241 -0.2907
  303SOL     OW  907   0.216   1.191   6.781 -0.6414  0.2202 -0.3503
  303SOL    HW1  908   0.257   1.277   6.771  1.0151 -0.7584 -2.9825
  303SOL    HW2  909   0.274   1.131   6.736 -1.8441 -2.3236  1.2317
  304SOL     OW  910   4.629   1.082   5.389  0.4113  0.4682 -0.2430
  304SOL    HW1  911   4.706   1.028   5.407  0.2283 -0.0338 -0.9496
  304SOL    HW2  912   4.566   1.022   5.349  0.7808  1.5143 -2.5480
  305SOL     OW  913   0.275   2.175   7.891  0.3920  0.1013  0.0758
  305SOL    HW1  914   0.314   2.122   7.960 -2.6203 -0.6738  1.3575
  305SOL    HW2  915   0.182   2.155   7.895 -0.9100  4.9470  0.1838
  306SOL     OW  916   1.853   2.224   6.476  0.3010 -0.6765  0.0028
  306SOL    HW1  917   1.805   2.289   6.424  0.2618  0.5893  1.5529
  306SOL    HW2  918   1.911   2.181   6.413  1.3361  1.8146 -0.8947
  307SOL     OW  919   4.740   4.885   7.229  0.6987  0.1186 -1.1207
  307SOL    HW1  920   4.694   4.966   7.210  0.2863  0.2090  0.1713
  307SOL    HW2  921   4.671   4.820   7.243  1.0109 -0.2725 -1.3606
  308SOL     OW  922   0.252   5.001   6.359  0.5246 -0.2833  0.2761
  308SOL    HW1  923   0.290   5.026   6.275  1.0053 -0.5614  0.4056
  308SOL    HW2  924   0.264   4.906   6.363 -0.4052 -0.4157  0.2166
  309SOL     OW  925   0.733   0.952   9.635  0.1837 -0.6020  0.0417
  309SOL    HW1  926   0.816   0.965   9.681 -0.0007  1.4464 -0.0877
  309SOL    HW2  927   0.668   0.941   9.704  0.3458 -0.6157  0.1927
  310SOL     OW  928   1.742   1.181   6.423 -0.4568  0.5651  0.2324
  310SOL    HW1  929   1.814   1.201   6.363 -1.4307  1.1385 -0.7817
  310SOL    HW2  930   1.663   1.197   6.371 -1.3135 -0.8989  1.0468
  311SOL     OW  931   1.464   4.095   9.516 -0.2695 -0.0796  0.0496
  311SOL    HW1  932   1.454   4.182   9.478 -1.0846  0.7654  2.0147
  311SOL    HW2  933   1.534   4.053   9.466 -0.2380  1.4989 -1.2839
  312SOL     OW  934   1.916   4.703   8.238  0.3682 -0.3110  0.1749
  312SOL    HW1  935   2.004   4.728   8.266  0.2697  0.3041 -0.0490
  312SOL    HW2  936   1.930   4.627   8.181  0.8526  0.4349 -0.7161
  313SOL     OW  937   2.361   1.274   8.009 -0.0722  0.1942 -0.1440
  313SOL    HW1  938   2.322   1.287   7.923 -1.2999  0.7090  0.4737
  313SOL    HW2  939   2.297   1.309   8.071  0.2223 -1.2771  1.0643
  314SOL     OW  940   0.343   4.584   6.101  0.2789 -0.0472  0.5608
  314SOL    HW1  941   0.366   4.518   6.166  0.1267  0.4121  1.0885
  314SOL    HW2  942   0.366   4.544   6.017  0.5420 -0.6178  0.8986
  315SOL     OW  943   2.263   0.211   8.741  0.2829 -0.4920 -0.5883
  315SOL    HW1  944   2.204   0.215   8.666 -0.9239  0.2456  0.3659
  315SOL    HW2  945   2.289   0.119   8.746 -1.0879 -0.9150 -0.8216
  316SOL     OW  946   3.621   4.877   7.979  0.8525  0.5022  0.3622
  316SOL    HW1  947   3.572   4.795   7.984  1.9988 -0.2046  0.2680
  316SOL    HW2  948   3.649   4.883   7.888 -0.1625  1.5749  0.0994
  317SOL     OW  949   3.462   4.088   6.274 -0.2700 -0.0239 -0.1985
  317SOL    HW1  950   3.422   4.028   6.337  0.6192 -0.2567  0.1718
  317SOL    HW2  951   3.555   4.088   6.298  0.0536  0.0250 -1.3968
  318SOL     OW  952   1.363   2.911   6.377  0.7255 -0.1476  0.2617
  318SOL    HW1  953   1.390   2.882   6.464 -0.0758  1.2964  1.0286
  318SOL    HW2  954   1.377   3.006   6.378 -1.1344  0.1664 -0.4847
  319SOL     OW  955   4.591   4.881   8.118 -0.3904 -0.4220 -0.4595
  319SOL    HW1  956   4.569   4.955   8.174  1.0109 -0.7348  0.5555
  319SOL    HW2  957   4.551   4.806   8.162 -1.5190 -0.3316 -1.3046
  320SOL     OW  958   1.716   1.529   7.166  0.1054 -0.1277  0.4109
  320SOL    HW1  959   1.727   1.470   7.092  0.4067  0.1745  0.2141
  320SOL    HW2  960   1.802   1.568   7.180 -0.0510  0.1444  0.6424
  321SOL     OW  961   1.449   0.184   9.124  0.1938  0.4477 -0.2518
  321SOL    HW1  962   1.406   0.198   9.208 -0.8103  1.5809 -0.9157
  321SOL    HW2  963   1.489   0.098   9.131 -2.8394 -1.0741  0.1729
  322SOL     OW  964   4.471   1.369   9.577  0.3140 -0.5734  0.3147
  322SOL    HW1  965   4.564   1.369   9.601  0.8435  0.6594 -1.4760
  322SOL    HW2  966   4.459   1.453   9.532 -0.8538 -2.0114 -2.3074
  323SOL     OW  967   2.755   0.984   8.293  0.4353  0.1049 -0.1006
  323SOL    HW1  968   2.775   0.988   8.387 -1.3520 -0.5378  0.3674
  323SOL    HW2  969   2.765   0.891   8.270  2.3855  0.4888 -0.9624
  324SOL     OW  970   1.786   3.212   7.449  0.1164  0.2031 -0.3757
  324SOL    HW1  971   1.863   3.246   7.494  0.1658  2.7072 -2.2140
  324SOL    HW2  972   1.721   3.202   7.519  0.1466  4.0500  0.4115
  325SOL     OW  973   2.373   4.233   8.020  0.5422 -0.0395 -0.0415
  325SOL    HW1  974   2.360   4.142   8.044 -2.4865  0.4694  0.6306
  325SOL    HW2  975   2.461   4.254   8.053  1.0300 -2.4570  0.4059
  326SOL     OW  976   2.945   1.042   6.653 -0.6042 -0.9671  0.1323
  326SOL    HW1  977   2.968   1.088   6.734  2.0201 -0.9117 -0.5554
  326SOL    HW2  978   2.966   0.951   6.670  0.7198 -0.8445 -0.6876
  327SOL     OW  979   4.277   2.606   9.262 -0.2765  0.2685 -0.0015
  327SOL    HW1  980   4.369   2.614   9.284  0.0490 -0.6520 -0.9226
  327SOL    HW2  981   4.248   2.695   9.244 -0.3050  0.9586  2.9212
  328SOL     OW  982   0.364   3.545   7.850  0.5293 -0.3737  0.4254
  328SOL    HW1  983   0.363   3.620   7.909  1.9155 -0.0775  0.1147
  328SOL    HW2  984   0.367   3.583   7.762 -0.2085 -0.8113  0.1978
  329SOL     OW  985   3.043   1.400   9.912  0.0662 -0.8344  1.2844
  329SOL    HW1  986   2.967   1.343   9.911 -1.3459  0.9441 -0.2054
  329SOL    HW2  987   3.044   1.439   9.999 -2.7479  1.5188  0.4334
  330SOL     OW  988   4.609   2.833   5.908  0.1049 -0.1719 -0.8117
  330SOL    HW1  989   4.523   2.860   5.875 -0.1534  1.1317  0.7751
  330SOL    HW2  990   4.668   2.844   5.833 -0.9351 -0.0518 -1.6278
  331SOL     OW  991   0.206   4.339   9.950  0.9621  0.2529 -0.0993
  331SOL    HW1  992   0.121   4.297   9.934 -0.3334  1.7915  2.1608
  331SOL    HW2  993   0.206   4.415   9.892  0.0604  1.0985  0.9610
  332SOL     OW  994   0.191   0.998   7.674 -0.2028 -0.3473  0.5781
  332SOL    HW1  995   0.243   1.043   7.607 -0.7168  2.3369  1.8345
  332SOL    HW2  996   0.245   1.003   7.753 -1.5128  0.7939  1.4482
  333SOL     OW  997   1.832   4.345   6.886  0.2739 -0.2279  0.5691
  333SOL    HW1  998   1.854   4.309   6.800 -0.7992 -1.1241  0.6448
  333SOL    HW2  999   1.859   4.437   6.881 -1.1329  0.1575 -1.2806
  334SOL     OW 1000   0.024   0.872   9.672  0.2363  0.4487 -0.4614
  334SOL    HW1 1001  -0.054   0.823   9.645 -0.0905 -0.0959  1.3536
  334SOL    HW2 1002   0.081   0.806   9.711  0.5377  1.2207  0.4517
  335SOL     OW 1003   0.812   4.292   8.856 -0.3344 -1.1180 -0.5694
  335SOL    HW1 1004   0.906   4.283   8.840 -0.1627 -1.2253  0.4686
  335SOL    HW2 1005   0.793   4.228   8.924 -1.1610 -1.0765 -0.7542
  336SOL     OW 1006   0.477   3.365   5.138  0.4971 -0.1970 -0.0391
  336SOL    HW1 1007   0.558   3.314   5.142  0.9934  0.5421 -0.5762
  336SOL    HW2 1008   0.418   3.310   5.086  1.1992 -0.0121 -1.0533
  337SOL     OW 1009   3.714   1.711   6.748  0.3031  0.4472  0.5081
  337SOL    HW1 1010   3.670   1.709   6.663  0.7699 -0.3487  0.2687
  337SOL    HW2 1011   3.796   1.757   6.731  1.0879 -1.0340  0.1616
  338SOL     OW 1012   1.762   3.623   9.552  0.0881 -0.3956  0.2489
  338SOL    HW1 1013   1.843   3.625   9.604  0.3629 -0.3502 -0.1718
  338SOL    HW2 1014   1.793   3.625   9.462 -0.4219  0.7776  0.0926
  339SOL     OW 1015   3.749   0.597   9.395  0.1158  0.3053 -1.1809
  339SOL    HW1 1016   3.681   0.654   9.358  0.7127  1.2521 -0.8647
  339SOL    HW2 1017   3.787   0.553   9.319 -0.1512  0.5531 -1.4625
  340SOL     OW 1018   0.700   1.227   6.213 -0.2296 -0.5718 -0.2510
  340SOL    HW1 1019   0.649   1.218   6.293 -2.0233  2.2624 -0.8980
  340SOL    HW2 1020   0.788   1.250   6.243  0.4261 -4.0545  0.8672
  341SOL     OW 1021   2.373   2.216   7.714  0.4831  0.0168 -0.0048
  341SOL    HW1 1022   2.306   2.205   7.781  1.1882 -0.2319  0.6718
  341SOL    HW2 1023   2.424   2.135   7.717  0.3043 -0.1475 -1.0900
  342SOL     OW 1024   3.013   1.808   6.443 -0.4241 -0.1069 -1.1353
  342SOL    HW1 1025   2.934   1.759   6.421 -2.0474  1.9207 -0.1722
  342SOL    HW2 1026   2.994   1.848   6.528  1.5672  0.6134 -0.9709
  343SOL     OW 1027   3.404   3.204   5.484 -0.2376  0.3733  0.3383
  343SOL    HW1 1028   3.451   3.273   5.531  0.4301  2.1705 -2.6472
  343SOL    HW2 1029   3.312   3.230   5.488 -0.5572 -0.8558  2.6046
  344SOL     OW 1030   2.392   2.181   8.118 -0.0584  0.1695  0.2679
  344SOL    HW1 1031   2.441   2.122   8.177  1.1940  3.9713  3.4472
  344SOL    HW2 1032   2.458   2.243   8.087 -1.6331  1.0629 -1.4408
  345SOL     OW 1033   1.523   0.486   5.924  0.0619 -0.4371  0.4860
  345SOL    HW1 1034   1.445   0.505   5.872  1.1824  0.0436 -1.0920
  345SOL    HW2 1035   1.558   0.405   5.886  1.3418  0.3526 -0.1017
  346SOL     OW 1036   1.242   1.336   9.110  0.2047  0.2035  0.3350
  346SOL    HW1 1037   1.256   1.416   9.159  1.7519  0.9560 -1.2239
  346SOL    HW2 1038   1.233   1.268   9.177  0.9736  1.3544  1.6596
  347SOL     OW 1039   1.563   3.692   8.015 -1.4104 -0.2657 -0.2676
  347SOL    HW1 1040   1.511   3.772   8.013  0.1638  0.9296  2.1467
  347SOL    HW2 1041   1.546   3.654   8.101 -1.9040 -2.4491 -1.2496
  348SOL     OW 1042   0.791   3.809   8.838 -0.6229  0.7734 -0.0826
  348SOL    HW1 1043   0.844   3.844   8.766 -0.8228  0.8803 -0.1763
  348SOL    HW2 1044   0.823   3.720   8.850  0.8081  1.3969  1.0187
  349SOL     OW 1045   2.550   2.388   8.782 -0.0815  0.8102 -0.3583
  349SOL    HW1 1046   2.566   2.474   8.744 -0.7665  0.9073 -0.4422
  349SOL    HW2 1047   2.525   2.406   8.872 -1.9237  0.8379 -0.8433
  350SOL     OW 1048   0.437   3.795   5.698 -0.4704  0.5031 -0.2025
  350SOL    HW1 1049   0.448   3.704   5.671  0.8011  0.4463  0.4194
  350SOL    HW2 1050   0.477   3.799   5.785 -0.3126  1.6932 -0.3139
  351SOL     OW 1051   1.952   3.334   7.033  0.1349 -0.0227  0.7558
  351SOL    HW1 1052   1.863   3.307   7.010 -0.8249  2.8241  0.7233
  351SOL    HW2 1053   1.943   3.375   7.119  1.0063  1.9715 -0.0439
  352SOL     OW 1054   2.456   0.647   7.399  0.1985  0.6449 -0.1125
  352SOL    HW1 1055   2.445   0.678   7.488 -1.1807 -2.0562  0.7877
  352SOL    HW2 1056   2.372   0.606   7.377  1.3212 -1.0349 -1.6396
  353SOL     OW 1057   1.640   4.254   8.550  0.6627  0.8277 -0.1739
  353SOL    HW1 1058   1.601   4.167   8.561  3.2058 -0.1392  2.8512
  353SOL    HW2 1059   1.574   4.313   8.586 -1.1718  0.2691 -2.4052
  354SOL     OW 1060   1.621   2.265  10.768 -0.2144 -0.5295  0.2463
  354SOL    HW1 1061   1.614   2.221  10.683 -1.4954 -2.0826  1.0952
  354SOL    HW2 1062   1.574   2.348  10.756  1.4903  0.3108 -1.1409
  355SOL     OW 1063   4.107   0.155   7.401  0.3474 -0.0333  0.1388
  355SOL    HW1 1064   4.023   0.198   7.415  1.4730  2.0305  1.0478
  355SOL    HW2 1065   4.105   0.078   7.457 -0.9580 -0.0753  0.0584
  356SOL     OW 1066   0.968   4.509   8.565  0.2645  0.3501  0.4010
  356SOL    HW1 1067   0.896   4.447   8.558  0.7620 -0.3491  1.2520
  356SOL    HW2 1068   1.020   4.477   8.639  2.8530 -0.6677 -1.6812
  357SOL     OW 1069   1.955   1.047   9.701 -0.4029  0.2073 -0.3506
  357SOL    HW1 1070   1.935   0.954   9.695  0.8518 -0.0307 -1.3843
  357SOL    HW2 1071   1.912   1.076   9.781  0.3100 -1.5705  0.7256
  358SOL     OW 1072   3.118   2.189   6.701 -0.0019  0.4945 -0.2905
  358SOL    HW1 1073   3.032   2.230   6.701  0.5054  1.6477  1.2256
  358SOL    HW2 1074   3.172   2.246   6.755  0.6787 -2.2993  2.2169
  359SOL     OW 1075   1.003   1.610   8.435  0.5128  0.3121  0.2435
  359SOL    HW1 1076   0.933   1.559   8.395  1.2828 -1.3570  0.9415
  359SOL    HW2 1077   1.083   1.560   8.418  1.1293  0.6074  2.0607
  360SOL     OW 1078   4.625   1.042   5.785  0.0279  0.1998 -0.1291
  360SOL    HW1 1079   4.681   1.117   5.767 -0.1125  0.7092  1.4258
  360SOL    HW2 1080   4.681   0.983   5.835 -0.8460  0.8066  1.6201
  361SOL     OW 1081   0.361   2.723   5.599  0.1414 -0.3832 -0.3938
  361SOL    HW1 1082   0.437   2.778   5.619  1.4144 -1.0992 -2.8731
  361SOL    HW2 1083   0.286   2.782   5.609  0.9387  0.3666  2.0063
  362SOL     OW 1084   2.939   3.144   6.015  0.3632 -0.1908 -0.5536
  362SOL    HW1 1085   2.879   3.154   6.089 -0.2766 -0.1614 -1.0685
  362SOL    HW2 1086   2.966   3.052   6.018  0.5365 -0.1288 -0.1414
  363SOL     OW 1087   1.123   1.560   9.261  0.5119  0.2517 -0.2945
  363SOL    HW1 1088   1.108   1.614   9.183  0.2232  0.5088 -0.0625
  363SOL    HW2 1089   1.153   1.622   9.328  0.2269  0.1191 -0.0427
  364SOL     OW 1090   4.804   1.969  10.001 -0.1531 -0.2806  0.1657
  364SOL    HW1 1091   4.799   1.946  10.094  1.6486 -3.2726 -0.3536
  364SOL    HW2 1092   4.897   1.967   9.981 -0.4332  1.2297 -1.5584
  365SOL     OW 1093   0.503   0.645  10.749  0.8372  0.0188 -0.3384
  365SOL    HW1 1094   0.437   0.604  10.694 -0.0781  1.6121 -0.5081
  365SOL    HW2 1095   0.544   0.711  10.692  1.5714  0.0232  0.1823
  366SOL     OW 1096   4.232   0.149   7.721  0.2505  0.1646  0.2248
  366SOL    HW1 1097   4.307   0.123   7.774  1.9939  0.1928 -2.0787
  366SOL    HW2 1098   4.268   0.213   7.659 -1.6775  0.1429 -0.9817
  367SOL     OW 1099   1.246   3.605   8.364 -0.1375  0.0692  0.1252
  367SOL    HW1 1100   1.171   3.547   8.378 -1.5991  1.5955 -0.9326
  367SOL    HW2 1101   1.224   3.653   8.284  0.4112  2.9299  1.5611
  368SOL     OW 1102   3.078   0.287   8.142  0.1836  0.2184 -0.1600
  368SOL    HW1 1103   3.080   0.202   8.186  1.4839 -0.4895 -1.5028
  368SOL    HW2 1104   3.170   0.313   8.135 -0.1524  1.4739 -0.2856
  369SOL     OW 1105   2.163   1.029   6.371  0.5180  0.2296  0.2777
  369SOL    HW1 1106   2.175   0.937   6.394  1.7340  0.2389 -0.2392
  369SOL    HW2 1107   2.106   1.026   6.294  0.6640 -0.1081  0.1771
  370SOL     OW 1108   3.834   1.586   8.905  0.6711 -0.1964 -0.4484
  370SOL    HW1 1109   3.857   1.632   8.825 -2.3601 -1.3507 -2.1501
  370SOL    HW2 1110   3.897   1.514   8.911  0.0967 -0.9430 -2.6300
  371SOL     OW 1111   2.733   1.245   7.308  0.3663 -0.0142 -0.1132
  371SOL    HW1 1112   2.757   1.154   7.324 -2.0861 -0.7855 -0.3682
  371SOL    HW2 1113   2.682   1.270   7.385 -1.1736  0.2327 -1.1650
  372SOL     OW 1114   1.762   1.438   9.517 -0.6267  0.5882  0.2621
  372SOL    HW1 1115   1.732   1.484   9.439 -1.3140  0.2052  0.2832
  372SOL    HW2 1116   1.729   1.491   9.590 -1.7422 -0.0969  0.2896
  373SOL     OW 1117   1.228   0.320   8.603  0.8797  0.5777 -0.5573
  373SOL    HW1 1118   1.207   0.405   8.643  3.5609  0.7786  0.6009
  373SOL    HW2 1119   1.146   0.271   8.607 -0.6513  2.9559 -0.9089
  374SOL     OW 1120   4.571   1.271   6.992  0.1003  0.0019 -0.2497
  374SOL    HW1 1121   4.558   1.349   6.938 -0.9539  1.8821  2.4528
  374SOL    HW2 1122   4.641   1.222   6.949 -1.6917  0.4614 -4.0761
  375SOL     OW 1123   0.126   2.359   7.161  0.2590 -0.0283 -0.0682
  375SOL    HW1 1124   0.090   2.395   7.080 -0.5426  0.4387  0.4791
  375SOL    HW2 1125   0.132   2.264   7.144 -0.4358 -0.0098 -0.4790
  376SOL     OW 1126   5.018   3.419   7.307  0.4292  0.1316 -0.8395
  376SOL    HW1 1127   4.926   3.409   7.333  0.2220  0.2530 -1.5274
  376SOL    HW2 1128   5.021   3.391   7.216  0.2816  3.8167 -2.1487
  377SOL     OW 1129   1.824   3.129   7.739 -0.0907  0.2042  0.0623
  377SOL    HW1 1130   1.739   3.173   7.733  0.0661  0.3804 -4.7546
  377SOL    HW2 1131   1.886   3.192   7.703  1.8561 -0.6200  1.8004
  378SOL     OW 1132   3.139   0.119   7.719  0.8940 -0.3185  0.5240
  378SOL    HW1 1133   3.156   0.205   7.759 -0.5576  0.6098 -0.7541
  378SOL    HW2 1134   3.068   0.082   7.771 -1.2053  1.0207 -1.2335
  379SOL     OW 1135   2.358   3.018   8.203  0.1931 -0.2402 -0.5828
  379SOL    HW1 1136   2.391   2.936   8.240 -0.7751 -0.5145 -0.2923
  379SOL    HW2 1137   2.398   3.086   8.258 -1.1666 -0.6392  1.0083
  380SOL     OW 1138   1.982   3.403   5.439  0.2340  0.6005 -1.0668
  380SOL    HW1 1139   1.931   3.441   5.367  0.7690  0.2842 -1.6222
  380SOL    HW2 1140   1.918   3.391   5.510 -0.6971 -0.6951 -2.0604
  381SOL     OW 1141   4.209   1.602  10.481 -0.2275  0.0152 -0.0224
  381SOL    HW1 1142   4.296   1.568  10.504  0.3059  0.5042 -1.2586
  381SOL    HW2 1143   4.223   1.652  10.401 -1.7394 -0.2494 -0.4699
  382SOL     OW 1144   1.912   0.139   6.581  0.2818 -0.1945  0.4745
  382SOL    HW1 1145   1.956   0.212   6.537 -3.4261 -0.1541 -3.9196
  382SOL    HW2 1146   1.896   0.171   6.670 -0.7983  4.3974 -1.0590
  383SOL     OW 1147   2.092   2.819   7.573  0.0850  0.0290  0.0804
  383SOL    HW1 1148   2.022   2.862   7.524 -0.7326  0.3314  1.4632
  383SOL    HW2 1149   2.150   2.890   7.600  1.4533 -0.3049 -1.7848
  384SOL     OW 1150   1.583   0.616   7.497  0.0597  0.6445  0.6321
  384SOL    HW1 1151   1.522   0.624   7.424 -0.1941  0.4551  0.8223
  384SOL    HW2 1152   1.604   0.707   7.520  0.8828  0.7054 -0.2830
  385SOL     OW 1153   2.118   4.501   7.346  0.0402 -0.8120 -0.4293
  385SOL    HW1 1154   2.036   4.453   7.342  1.3607 -3.2420 -0.0786
  385SOL    HW2 1155   2.181   4.445   7.301  1.6378  0.7342 -0.2391
  386SOL     OW 1156   1.991   2.514   9.499 -0.0238  0.1682  0.5434
  386SOL    HW1 1157   2.028   2.426   9.493 -1.6325 -0.5103 -0.0565
  386SOL    HW2 1158   2.053   2.570   9.453  2.2541 -0.1844  2.9170
  387SOL     OW 1159   2.097   2.055   6.614  0.2140  0.2234 -0.1242
  387SOL    HW1 1160   2.096   2.142   6.654 -3.7921 -0.0372  0.8014
  387SOL    HW2 1161   2.126   1.997   6.685  1.1566  0.5915 -0.1963
  388SOL     OW 1162   4.146   0.286   6.648 -0.0010 -0.5246  0.0291
  388SOL    HW1 1163   4.157   0.209   6.704 -4.3419  0.2311  2.3375
  388SOL    HW2 1164   4.189   0.357   6.696  0.1924 -0.6860  0.0962
  389SOL     OW 1165   1.015   3.819   7.671 -0.5136  0.0492  0.4885
  389SOL    HW1 1166   0.935   3.844   7.625 -0.8508  0.9659  1.5146
  389SOL    HW2 1167   1.085   3.833   7.607 -1.0145  0.8105  0.0909
  390SOL     OW 1168   1.150   4.013   8.024 -0.7382 -0.3269  0.4306
  390SOL    HW1 1169   1.152   4.099   8.064  3.6166  0.1086 -0.1705
  390SOL    HW2 1170   1.107   4.026   7.939  0.6482  1.5433 -0.0410
  391SOL     OW 1171   4.291   1.566   8.891 -0.1363 -0.5728 -0.3296
  391SOL    HW1 1172   4.341   1.642   8.921  1.2121 -2.2391  1.9561
  391SOL    HW2 1173   4.234   1.601   8.822  2.0422  2.0310 -1.0180
  392SOL     OW 1174   3.748   4.603   6.053  0.0206  0.0677 -0.5819
  392SOL    HW1 1175   3.829   4.554   6.057 -0.0361 -0.0693 -1.0243
  392SOL    HW2 1176   3.719   4.611   6.144 -0.3527 -1.3504 -0.5556
  393SOL     OW 1177   4.207   0.766   5.784 -0.2533 -0.5753 -0.1842
  393SOL    HW1 1178   4.260   0.723   5.717  1.3290 -1.1651  1.3909
  393SOL    HW2 1179   4.222   0.715   5.863 -2.7508 -0.4129  0.4896
  394SOL     OW 1180   3.970   2.019   9.062 -0.2453 -0.5539 -0.1442
  394SOL    HW1 1181   3.969   2.051   8.972 -1.2594 -0.0993  0.0072
  394SOL    HW2 1182   3.893   1.962   9.068  0.6185 -1.7468  0.0493
  395SOL     OW 1183   0.607   0.404   6.042  0.1497 -0.0619  0.3071
  395SOL    HW1 1184   0.529   0.396   6.097  0.2735  0.6909  0.6096
  395SOL    HW2 1185   0.576   0.382   5.954  0.0816 -1.8650  0.7459
  396SOL     OW 1186   0.006   2.398   7.907  0.6299 -0.0313 -0.7728
  396SOL    HW1 1187   0.087   2.399   7.856 -0.0590  2.0600 -1.9750
  396SOL    HW2 1188   0.025   2.455   7.983  0.2891  0.5228 -1.0961
  397SOL     OW 1189   2.488   3.456   8.785  0.3688 -0.3033 -0.2470
  397SOL    HW1 1190   2.413   3.445   8.843  0.4596 -1.0987 -0.2613
  397SOL    HW2 1191   2.537   3.529   8.822 -0.3893  0.2062 -0.2188
  398SOL     OW 1192   0.926   2.323  10.818 -0.1469  0.0553  0.4027
  398SOL    HW1 1193   0.935   2.395  10.881 -0.8869  0.3794  0.1538
  398SOL    HW2 1194   0.908   2.367  10.735  1.9009 -0.3078 -0.2967
  399SOL     OW 1195   2.953   5.006   7.881  0.0911 -0.9147 -0.2222
  399SOL    HW1 1196   2.952   4.940   7.951  1.3141  0.2988  0.9972
  399SOL    HW2 1197   2.861   5.032   7.871 -0.4601 -2.9370 -0.9058
  400SOL     OW 1198   0.869   4.767   7.415  0.3171 -0.5752 -0.1262
  400SOL    HW1 1199   0.935   4.704   7.442 -0.4036 -0.9739  0.7673
  400SOL    HW2 1200   0.799   4.713   7.377 -0.1304 -0.2984  0.2885
  401SOL     OW 1201   2.034   3.647   5.823  0.0706 -0.5416 -0.4012
  401SOL    HW1 1202   1.957   3.606   5.782  0.1924 -0.4764 -0.7023
  401SOL    HW2 1203   2.032   3.737   5.792  1.0789 -0.9103 -1.6038
  402SOL     OW 1204   2.261   1.903   9.080 -0.0885  0.2494 -0.0119
  402SOL    HW1 1205   2.330   1.903   9.146 -2.2231  0.6923  2.3650
  402SOL    HW2 1206   2.220   1.989   9.089 -0.3067  0.4227 -2.1533
  403SOL     OW 1207   0.122   1.693   8.312  0.2126 -0.9183 -0.2812
  403SOL    HW1 1208   0.126   1.731   8.225  1.4201  0.2085  0.2387
  403SOL    HW2 1209   0.089   1.604   8.298 -3.2313  0.3989 -1.4718
  404SOL     OW 1210   0.254   4.499   9.113  0.1673  0.2533 -0.1147
  404SOL    HW1 1211   0.217   4.539   9.191 -0.6116  1.4965 -1.0942
  404SOL    HW2 1212   0.307   4.568   9.073  0.1404 -0.1995 -0.9581
  405SOL     OW 1213   3.933   0.286   7.806  0.0298  0.1768 -0.3171
  405SOL    HW1 1214   3.871   0.228   7.851 -0.7786  1.0116 -0.3445
  405SOL    HW2 1215   4.013   0.234   7.801 -0.5905 -0.8421 -0.0910
  406SOL     OW 1216   3.310   2.339   6.898  0.8328 -0.3990 -0.0261
  406SOL    HW1 1217   3.343   2.290   6.973  0.4631  0.3972  0.6668
  406SOL    HW2 1218   3.313   2.431   6.926 -1.5248 -0.2471 -0.0966
  407SOL     OW 1219   1.846   4.740   7.579  0.2443 -0.7388 -0.0147
  407SOL    HW1 1220   1.879   4.807   7.519  2.4161  1.0301  2.8797
  407SOL    HW2 1221   1.791   4.788   7.641 -0.1360 -2.0991  0.7530
  408SOL     OW 1222   4.627   3.672   8.906 -0.1412 -0.2624 -0.4628
  408SOL    HW1 1223   4.638   3.587   8.864 -1.1792 -0.8967  0.4871
  408SOL    HW2 1224   4.558   3.658   8.971 -0.8962  1.5008 -0.8156
  409SOL     OW 1225   0.565   1.126   9.825  1.0549 -0.6791  0.0012
  409SOL    HW1 1226   0.586   1.215   9.796  2.0192 -0.9630 -0.2255
  409SOL    HW2 1227   0.623   1.111   9.900 -0.3700 -0.4934  1.1754
  410SOL     OW 1228   0.534   2.870   8.426  0.0211  0.5432  0.4086
  410SOL    HW1 1229   0.562   2.899   8.339 -1.8720  3.4592  0.6474
  410SOL    HW2 1230   0.456   2.817   8.410  0.4772 -0.1137  0.2951
  411SOL     OW 1231   2.134   2.407   5.744 -0.3111 -0.5158 -0.0157
  411SOL    HW1 1232   2.114   2.329   5.796  1.3890 -0.5082  0.7431
  411SOL    HW2 1233   2.191   2.374   5.674 -1.4282 -0.2969 -1.0469
  412SOL     OW 1234   3.117   4.600   9.225 -0.3109  0.7339 -0.2632
  412SOL    HW1 1235   3.141   4.690   9.202  2.1210  0.1623 -0.1597
  412SOL    HW2 1236   3.113   4.599   9.320  1.5289  0.3374 -0.1631
  413SOL     OW 1237   3.899   4.745   7.528  0.7485  0.3212  0.3003
  413SOL    HW1 1238   3.917   4.651   7.530  0.2781  0.1834 -1.0617
  413SOL    HW2 1239   3.819   4.755   7.581  0.7005 -0.0623  0.3019
  414SOL     OW 1240   3.694   4.329  10.231  0.3587 -0.3180 -0.0889
  414SOL    HW1 1241   3.607   4.314  10.193  0.7783 -3.1791 -0.0959
  414SOL    HW2 1242   3.677   4.386  10.306 -1.0852  1.5348 -1.6912
  415SOL     OW 1243   1.638   4.073   7.551  0.4437 -0.6949 -0.0201
  415SOL    HW1 1244   1.718   4.117   7.524  0.6575 -1.8188 -1.3177
  415SOL    HW2 1245   1.664   4.020   7.626  0.4746  0.3542  0.7304
  416SOL     OW 1246   2.327   2.687   6.109 -0.2148  1.0908 -0.1341
  416SOL    HW1 1247   2.326   2.631   6.187  1.4385 -0.5668 -1.2148
  416SOL    HW2 1248   2.269   2.759   6.131 -0.4180  0.2815  2.3349
  417SOL     OW 1249   1.839   2.877   9.804 -0.7256 -0.3120 -1.0883
  417SOL    HW1 1250   1.894   2.955   9.793 -0.1176 -0.1479  2.1945
  417SOL    HW2 1251   1.840   2.835   9.718 -0.2442  2.7184 -2.6983
  418SOL     OW 1252   2.027   2.816   6.531  0.2897  0.0000 -0.6611
  418SOL    HW1 1253   2.085   2.771   6.592 -2.5130 -2.5910  0.3471
  418SOL    HW2 1254   2.035   2.909   6.554 -0.3987 -0.7877  3.5738
  419SOL     OW 1255   3.725   0.542   6.727  0.1314  0.4392  0.5637
  419SOL    HW1 1256   3.816   0.548   6.698  0.0530 -0.0453  0.2207
  419SOL    HW2 1257   3.677   0.601   6.669 -0.1743 -1.2111 -0.9364
  420SOL     OW 1258   2.419   0.890   9.804 -0.2265 -0.2828  0.3842
  420SOL    HW1 1259   2.393   0.801   9.779 -0.9468 -0.6543  2.2881
  420SOL    HW2 1260   2.346   0.945   9.773  0.5598 -0.1975 -1.4623
  421SOL     OW 1261   0.819   2.804   7.254  0.1643  0.6316 -0.3294
  421SOL    HW1 1262   0.883   2.740   7.285  0.5481  1.9617  1.8576
  421SOL    HW2 1263   0.764   2.756   7.193  0.9798 -1.5411  0.5594
  422SOL     OW 1264   3.804   3.166   9.199  0.1527  0.2903 -0.2166
  422SOL    HW1 1265   3.878   3.202   9.247  0.3378  0.6018 -0.7205
  422SOL    HW2 1266   3.792   3.227   9.125  1.6310 -1.6161 -2.1465
  423SOL     OW 1267   1.640   4.807   9.709 -0.1548  0.1605  0.0291
  423SOL    HW1 1268   1.569   4.743   9.715 -1.0830  1.1793  0.2523
  423SOL    HW2 1269   1.716   4.762   9.743 -0.1207 -1.7438 -2.2945
  424SOL     OW 1270   1.688   1.385   5.223  0.4811  0.2120  0.0323
  424SOL    HW1 1271   1.681   1.342   5.138 -0.1366 -0.9177  0.6324
  424SOL    HW2 1272   1.597   1.395   5.252  0.4764  3.0937 -0.6141
  425SOL     OW 1273   4.822   0.701   9.638  0.1786  0.1084 -1.1831
  425SOL    HW1 1274   4.740   0.694   9.687  1.0299 -1.2543  0.1287
  425SOL    HW2 1275   4.794   0.713   9.547 -1.4494  1.3246 -0.5844
  426SOL     OW 1276   3.843   4.746  10.101 -0.2022 -0.0733  0.2023
  426SOL    HW1 1277   3.894   4.709  10.174  1.8730  1.1038 -0.5634
  426SOL    HW2 1278   3.755   4.710  10.113  0.0778 -0.0025  3.2134
  427SOL     OW 1279   4.887   0.853   9.045 -0.4061  0.0500  0.7907
  427SOL    HW1 1280   4.947   0.867   8.971 -1.8943  0.6990 -0.3448
  427SOL    HW2 1281   4.934   0.792   9.102  0.3797 -1.3625 -1.2244
  428SOL     OW 1282   3.857   4.218   9.284 -0.2968 -0.7584  0.0866
  428SOL    HW1 1283   3.900   4.267   9.214 -2.0737 -0.7732 -1.0740
  428SOL    HW2 1284   3.858   4.127   9.254 -1.0820 -0.7662  0.0734
  429SOL     OW 1285   0.585   3.162   9.681  0.1806  0.0137  0.2948
  429SOL    HW1 1286   0.654   3.192   9.740  1.3947 -2.6013  0.3306
  429SOL    HW2 1287   0.627   3.155   9.596  1.2512 -5.1275  0.9676
  430SOL     OW 1288   1.477   3.262   9.400 -0.1081  0.5426 -0.3705
  430SOL    HW1 1289   1.450   3.181   9.357  2.2122 -1.3842  1.5129
  430SOL    HW2 1290   1.510   3.233   9.485  2.0372  3.3369 -0.1349
  431SOL     OW 1291   2.525   0.736   8.479 -0.6402 -0.6981  0.0182
  431SOL    HW1 1292   2.549   0.657   8.528  0.1516 -0.6679 -0.3086
  431SOL    HW2 1293   2.440   0.761   8.514 -0.5099 -1.2139  0.7247
  432SOL     OW 1294   0.535   2.851   9.049 -0.4482 -0.4270 -0.0742
  432SOL    HW1 1295   0.620   2.808   9.040 -0.5245 -0.4243 -0.8879
  432SOL    HW2 1296   0.535   2.917   8.980 -0.3244  0.9194  1.1642
  433SOL     OW 1297   2.497   1.610   8.844 -0.9188  0.6237  0.4565
  433SOL    HW1 1298   2.413   1.563   8.846 -1.2230  1.1839  1.2459
  433SOL    HW2 1299   2.502   1.646   8.755 -0.7928 -0.6816 -0.0877
  434SOL     OW 1300   2.556   2.482   9.550 -0.1633  0.5385 -0.8387
  434SOL    HW1 1301   2.598   2.518   9.472  0.0464 -0.6973 -1.3206
  434SOL    HW2 1302   2.517   2.400   9.521 -3.0653  1.6655 -0.4348
  435SOL     OW 1303   4.686   0.546   8.858 -0.2864 -0.0168  0.2850
  435SOL    HW1 1304   4.629   0.478   8.823 -0.4375  0.2035  0.0966
  435SOL    HW2 1305   4.666   0.623   8.805 -0.2677  0.2297  0.6308
  436SOL     OW 1306   4.492   4.744   9.395  0.9163  0.8373  0.2738
  436SOL    HW1 1307   4.579   4.704   9.394  0.0736 -1.1276 -1.0235
  436SOL    HW2 1308   4.481   4.780   9.307 -0.0411 -0.1270 -0.0367
  437SOL     OW 1309   1.169   0.424   9.762  0.0399 -0.4552  0.4827
  437SOL    HW1 1310   1.245   0.461   9.808 -0.8633  1.9920  0.1568
  437SOL    HW2 1311   1.184   0.329   9.763  0.7391 -0.4626  4.5542
  438SOL     OW 1312   0.879   0.507   9.171 -0.0926 -0.6695  0.1414
  438SOL    HW1 1313   0.882   0.599   9.143 -1.2981 -1.0367 -1.3095
  438SOL    HW2 1314   0.933   0.460   9.108 -3.0922 -1.5534 -1.9944
  439SOL     OW 1315   2.308   3.402   9.822 -0.0822  0.0673 -0.0965
  439SOL    HW1 1316   2.275   3.419   9.910 -1.2000 -1.5555 -0.1540
  439SOL    HW2 1317   2.229   3.389   9.769  0.5493  1.7678 -1.5230
  440SOL     OW 1318   4.139   2.080   9.698  0.3147  0.3182  0.6534
  440SOL    HW1 1319   4.064   2.140   9.706 -0.0892  0.0643 -0.8490
  440SOL    HW2 1320   4.176   2.100   9.612 -0.6518 -2.4542 -0.5082
  441SOL     OW 1321   1.563   0.573   6.168  0.0335 -0.2646  0.3723
  441SOL    HW1 1322   1.618   0.650   6.153 -1.8466  0.9549 -0.6705
  441SOL    HW2 1323   1.545   0.539   6.081  0.8726 -1.9679  0.8228
  442SOL     OW 1324   4.450   4.835   9.128 -0.4649 -0.2204  0.2579
  442SOL    HW1 1325   4.412   4.922   9.144 -2.1013 -0.6655 -0.9000
  442SOL    HW2 1326   4.481   4.840   9.038 -1.3507 -1.0787 -0.1092
  443SOL     OW 1327   2.980   3.151   9.940 -0.3917 -0.4145  0.1335
  443SOL    HW1 1328   3.001   3.114   9.855  1.5557 -0.0546  0.3979
  443SOL    HW2 1329   3.000   3.244   9.931  2.9202 -0.8275  1.7743
  444SOL     OW 1330   1.433   2.130  10.263 -0.4915 -0.3034 -0.5828
  444SOL    HW1 1331   1.348   2.164  10.234 -1.0544 -0.1947  1.0764
  444SOL    HW2 1332   1.484   2.209  10.284 -0.9262 -0.3997  0.9175
  445SOL     OW 1333   2.095   1.809   8.838  0.2347 -0.1895  0.4591
  445SOL    HW1 1334   2.096   1.714   8.835  0.5689 -0.1896  0.6168
  445SOL    HW2 1335   2.039   1.830   8.913  0.1872 -0.2616  0.4432
  446SOL     OW 1336   3.807   3.905   9.689 -0.4119 -0.4691  0.0974
  446SOL    HW1 1337   3.871   3.844   9.725 -0.3435 -0.3341  0.2055
  446SOL    HW2 1338   3.831   3.990   9.726 -1.1431 -0.5488  0.8007
  447SOL     OW 1339   4.892   1.797   9.800 -0.1709 -0.0255 -0.1715
  447SOL    HW1 1340   4.868   1.888   9.819  1.6401  0.3998  0.2339
  447SOL    HW2 1341   4.841   1.746   9.862 -1.6834  0.6285 -0.8015
  448SOL     OW 1342   4.987   4.134   9.340  0.1407 -0.2021 -0.0198
  448SOL    HW1 1343   4.943   4.068   9.287  1.0894 -2.0218  1.3602
  448SOL    HW2 1344   4.934   4.140   9.419  1.0997 -0.7448  0.6797
  449SOL     OW 1345   2.108   3.560   7.536  0.0060  0.3233  0.7592
  449SOL    HW1 1346   2.150   3.620   7.597  2.0390 -2.0660  1.8998
  449SOL    HW2 1347   2.131   3.593   7.449 -2.0282  3.1710  1.1811
  450SOL     OW 1348   1.138   4.439   8.262 -0.0277 -0.5172  0.0604
  450SOL    HW1 1349   1.071   4.453   8.194  1.7344  1.3156 -1.4485
  450SOL    HW2 1350   1.089   4.410   8.338 -2.8434  2.4206 -0.3979
  451SOL     OW 1351   4.945   2.617   9.526  0.0328  0.6426  0.0117
  451SOL    HW1 1352   5.028   2.650   9.562  0.4327  0.0902 -0.3847
  451SOL    HW2 1353   4.964   2.603   9.433  0.3514 -2.0668  0.3935
  452SOL     OW 1354   1.101   4.828   9.857 -0.3715 -0.1252  1.3151
  452SOL    HW1 1355   1.103   4.817   9.952 -2.7844 -0.3691  1.3954
  452SOL    HW2 1356   1.034   4.767   9.826 -0.8627  1.1459 -0.3378
  453SOL     OW 1357   0.580   3.216   8.452 -0.2557  0.1568  0.5226
  453SOL    HW1 1358   0.670   3.188   8.470  0.1600  1.2342  0.2149
  453SOL    HW2 1359   0.537   3.218   8.537 -0.2493 -1.1782  0.5795
  454SOL     OW 1360   4.204   1.954   9.941  0.3006 -0.1639  1.0447
  454SOL    HW1 1361   4.193   1.998   9.857  0.0879 -0.3778  0.9595
  454SOL    HW2 1362   4.131   1.893   9.946  2.1206 -2.6439 -0.1593
  455SOL     OW 1363   4.305   2.012   8.700  0.2383 -0.5240  0.0866
  455SOL    HW1 1364   4.331   2.066   8.775  1.9681 -1.1771  0.0092
  455SOL    HW2 1365   4.373   1.945   8.695  0.0910 -0.5678 -1.9945
  456SOL     OW 1366   2.860   0.651   8.865  0.7636 -0.1240 -0.9573
  456SOL    HW1 1367   2.860   0.613   8.952 -2.4576 -0.4170 -0.9705
  456SOL    HW2 1368   2.950   0.681   8.852  1.3913 -0.1941  2.3757
  457SOL     OW 1369   0.704   0.624   9.805  0.4748 -0.6694  0.6670
  457SOL    HW1 1370   0.658   0.670   9.734  0.4072 -2.3915 -0.4808
  457SOL    HW2 1371   0.635   0.589   9.860  0.5320  1.2152  2.0187
  458SOL     OW 1372   0.826   0.732   6.324 -0.1509 -0.7141  0.0831
  458SOL    HW1 1373   0.851   0.696   6.239 -2.3848  2.2536 -2.0674
  458SOL    HW2 1374   0.885   0.806   6.338  0.6582 -1.5895  1.5408
  459SOL     OW 1375   0.090   1.429   8.894  0.2562  0.4344  0.1147
  459SOL    HW1 1376   0.061   1.428   8.985 -0.2476 -0.2470 -0.0520
  459SOL    HW2 1377   0.072   1.342   8.861  1.4554  0.3291 -0.3360
  460SOL     OW 1378   1.779   4.532   9.495  0.4726 -0.2633 -1.2428
  460SOL    HW1 1379   1.860   4.580   9.518  0.2224 -0.8749  1.2263
  460SOL    HW2 1380   1.713   4.601   9.486  0.8293  0.1002 -1.1383
  461SOL     OW 1381   4.661   3.155   9.736  0.2943  0.3189  0.7632
  461SOL    HW1 1382   4.725   3.086   9.755 -1.4973 -0.7865  3.3729
  461SOL    HW2 1383   4.640   3.143   9.644  3.5150  0.5092 -0.1121
  462SOL     OW 1384   4.926   4.562   9.019  0.1476  0.2656  0.7245
  462SOL    HW1 1385   4.936   4.533   8.929  1.7657  0.9304  0.6681
  462SOL    HW2 1386   4.964   4.492   9.072 -2.6491 -1.1188  1.0933
  463SOL     OW 1387   1.260   3.601   9.011  0.3054 -0.6101  0.3040
  463SOL    HW1 1388   1.242   3.584   9.103  1.0943 -1.8511  0.2667
  463SOL    HW2 1389   1.316   3.528   8.984  0.6780  0.1100 -0.9736
  464SOL     OW 1390   0.812   0.775   9.446 -0.3295  0.3573 -0.3156
  464SOL    HW1 1391   0.887   0.803   9.394  0.1169 -0.1923  0.0221
  464SOL    HW2 1392   0.787   0.853   9.496  0.2753  0.4334 -0.1222
  465SOL     OW 1393   4.045   2.699   9.974 -1.2717 -0.4486  0.2046
  465SOL    HW1 1394   4.119   2.697   9.913  0.2442 -1.2325  1.9423
  465SOL    HW2 1395   4.039   2.791  10.001 -2.2338 -0.0176 -1.3931
  466SOL     OW 1396   1.652   0.574   7.139 -0.5325  0.0578 -0.0010
  466SOL    HW1 1397   1.575   0.614   7.180 -0.3204  0.1808  0.2831
  466SOL    HW2 1398   1.717   0.569   7.210 -0.8603 -1.6546  0.2356
  467SOL     OW 1399   3.561   1.827   8.051  0.1239  0.2217  0.4414
  467SOL    HW1 1400   3.563   1.922   8.066 -0.5608  0.0389  1.8949
  467SOL    HW2 1401   3.535   1.790   8.136 -1.5229 -1.1302 -0.5765
  468SOL     OW 1402   2.550   2.233   9.432  0.7667  0.3884 -0.6181
  468SOL    HW1 1403   2.524   2.212   9.342 -1.7892 -0.5632  0.2685
  468SOL    HW2 1404   2.606   2.160   9.458 -0.4699 -0.6016 -0.6608
  469SOL     OW 1405   2.762   2.051   9.739  0.0643  0.1991  0.1476
  469SOL    HW1 1406   2.793   2.012   9.658 -0.5910 -0.9298  0.4216
  469SOL    HW2 1407   2.766   2.146   9.724  2.1436  0.0742 -0.3580
  470SOL     OW 1408   4.911   3.863   9.554  0.1125  0.0816 -0.0597
  470SOL    HW1 1409   4.950   3.779   9.579  0.0378 -0.0532 -0.3858
  470SOL    HW2 1410   4.878   3.848   9.465 -0.7923  0.1551  0.2546
  471SOL     OW 1411   2.179   4.251   9.715  0.4239  0.0860 -0.2675
  471SOL    HW1 1412   2.094   4.271   9.755 -0.2093 -0.9453 -1.0307
  471SOL    HW2 1413   2.243   4.276   9.781 -0.3991  2.0920 -0.1788
  472SOL     OW 1414   1.978   1.088   8.620 -0.0179  0.3633 -0.6182
  472SOL    HW1 1415   1.992   1.059   8.530 -0.0528 -1.5492 -0.0473
  472SOL    HW2 1416   2.052   1.146   8.639  1.7347 -1.6703 -0.8918
  473SOL     OW 1417   0.777   1.678   8.895 -0.3248 -0.0663 -0.2603
  473SOL    HW1 1418   0.814   1.741   8.956 -1.9003  0.3932  0.2655
  473SOL    HW2 1419   0.834   1.682   8.818  0.2225  1.1843  0.1893
  474SOL     OW 1420   2.292   3.446   7.907  0.6146  0.2273 -0.5723
  474SOL    HW1 1421   2.255   3.378   7.963  0.1537  0.1466 -0.9676
  474SOL    HW2 1422   2.283   3.412   7.818  1.8531  0.1079 -0.6750
  475SOL     OW 1423   3.121   0.508   5.412 -0.7142  0.2289  0.4007
  475SOL    HW1 1424   3.207   0.547   5.398  0.9741 -3.6801 -1.5141
  475SOL    HW2 1425   3.064   0.553   5.350  0.4271  1.4064  0.1516
  476SOL     OW 1426   3.163   0.758   8.647 -0.1188 -0.0325 -0.4316
  476SOL    HW1 1427   3.256   0.736   8.653  0.6154  2.8611  0.8017
  476SOL    HW2 1428   3.152   0.793   8.559  0.3733  1.0077 -0.1006
  477SOL     OW 1429   4.491   4.109   8.613  0.1988 -0.1542  0.7571
  477SOL    HW1 1430   4.583   4.132   8.602 -0.1086  1.6590  1.6472
  477SOL    HW2 1431   4.462   4.160   8.689 -1.3002 -1.4231  1.0949
  478SOL     OW 1432   0.294   3.452   9.154  0.0019 -0.0891 -0.6863
  478SOL    HW1 1433   0.341   3.487   9.230 -0.3035  0.2199 -0.6374
  478SOL    HW2 1434   0.331   3.499   9.079  1.4887 -1.5703 -0.9416
  479SOL     OW 1435   1.011   3.267  10.019  0.4600  0.5889 -0.2160
  479SOL    HW1 1436   1.081   3.224   9.969  1.6752  1.8993  0.2607
  479SOL    HW2 1437   1.040   3.358  10.026 -1.7858  1.4102 -0.8032
  480SOL     OW 1438   3.119   2.801   8.512 -0.7319 -0.3343 -0.4514
  480SOL    HW1 1439   3.185   2.731   8.505 -0.7698 -0.4004 -0.1583
  480SOL    HW2 1440   3.038   2.755   8.532 -0.5241 -0.1226  0.9819
  481SOL     OW 1441   1.038   0.655  10.103  0.1146 -0.6243 -0.1799
  481SOL    HW1 1442   1.097   0.581  10.092  0.9712 -0.4755  2.6440
  481SOL    HW2 1443   1.095   0.726  10.135 -1.0297  0.6398 -0.8383
  482SOL     OW 1444   3.870   3.489   8.646 -0.6161  0.8656 -0.4962
  482SOL    HW1 1445   3.780   3.521   8.649 -0.3403  2.0637 -2.6547
  482SOL    HW2 1446   3.877   3.443   8.563  0.5644  0.0485  0.0195
  483SOL     OW 1447   1.416   4.454   7.675 -0.2039  0.3188 -0.4804
  483SOL    HW1 1448   1.412   4.434   7.769 -1.4275  1.5619 -0.2335
  483SOL    HW2 1449   1.510   4.460   7.656  0.3000 -3.9769 -0.3198
  484SOL     OW 1450   2.112   3.207   8.527 -0.5291  0.1560 -0.0286
  484SOL    HW1 1451   2.089   3.221   8.435  1.8998 -3.1103 -1.3222
  484SOL    HW2 1452   2.161   3.286   8.551  0.8170  0.1229 -2.3300
  485SOL     OW 1453   1.440   4.509   8.765 -0.8962  0.3136  0.4447
  485SOL    HW1 1454   1.508   4.569   8.734 -0.0748 -0.2582  1.0808
  485SOL    HW2 1455   1.470   4.482   8.852 -1.6294 -0.4286  0.4817
  486SOL     OW 1456   2.459   2.114   8.886 -0.0609 -0.3399  0.3521
  486SOL    HW1 1457   2.464   2.200   8.845 -1.2896 -0.3729  0.0849
  486SOL    HW2 1458   2.383   2.072   8.845  0.6688 -1.6611  0.2749
  487SOL     OW 1459   3.684   0.841   6.919 -0.5075 -0.0368  0.5260
  487SOL    HW1 1460   3.657   0.933   6.916  3.5196  1.3312  0.4562
  487SOL    HW2 1461   3.661   0.806   6.833  0.2452  1.7040 -0.4214
  488SOL     OW 1462   3.648   1.857  10.331 -0.2311 -0.6866 -0.1225
  488SOL    HW1 1463   3.670   1.944  10.296 -0.0101 -0.1236  1.3127
  488SOL    HW2 1464   3.634   1.873  10.425 -0.4682 -2.1630  0.1074
  489SOL     OW 1465   0.759   4.120   8.578 -0.0979  0.0398 -0.1840
  489SOL    HW1 1466   0.807   4.037   8.581  1.9072  1.1482  0.6799
  489SOL    HW2 1467   0.786   4.166   8.657 -0.9274  1.6470 -0.7869
  490SOL     OW 1468   2.908   1.874   8.508 -0.5264 -0.1551  0.1349
  490SOL    HW1 1469   2.843   1.812   8.539 -1.3524 -0.3626 -1.8767
  490SOL    HW2 1470   2.859   1.936   8.454  0.8047  0.1405 -0.8117
  491SOL     OW 1471   0.055   1.136   9.178  0.4113  0.5697  0.1790
  491SOL    HW1 1472  -0.028   1.106   9.140  0.7023 -1.5752  1.0798
  491SOL    HW2 1473   0.118   1.069   9.153  0.9938  0.0486  2.7955
  492SOL     OW 1474   2.946  -0.021   9.900 -0.7720 -0.3379  0.2642
  492SOL    HW1 1475   3.041  -0.011   9.901 -0.6630 -1.2426 -0.2370
  492SOL    HW2 1476   2.914   0.048   9.959  0.2503 -0.6772  1.2509
  493SOL     OW 1477   4.998   3.036   7.985 -0.5014  0.3227  0.2774
  493SOL    HW1 1478   4.907   3.006   7.982  0.3303 -2.3623 -1.0482
  493SOL    HW2 1479   5.028   3.032   7.894  1.6951 -1.5772  0.9808
  494SOL     OW 1480   0.984   2.361   9.318  0.2788 -0.3785  0.0251
  494SOL    HW1 1481   0.942   2.416   9.251 -0.6914  1.4771  2.0458
  494SOL    HW2 1482   1.071   2.343   9.282 -0.6952 -0.7126 -2.3708
  495SOL     OW 1483   1.867   3.136   8.313 -0.5109  0.5387  0.0857
  495SOL    HW1 1484   1.853   3.211   8.256 -1.3328  1.5453  1.5526
  495SOL    HW2 1485   1.798   3.074   8.289 -0.0935  0.4096 -0.8282
  496SOL     OW 1486   1.123   3.956   9.134 -0.0592  0.0133  0.6591
  496SOL    HW1 1487   1.120   3.927   9.043  1.6630  0.5681  0.3911
  496SOL    HW2 1488   1.113   3.876   9.185 -1.3646 -0.2652  0.0118
  497SOL     OW 1489   0.982   1.771   7.168  0.0273  0.1737 -0.3673
  497SOL    HW1 1490   0.893   1.774   7.133 -0.6570 -1.9226  1.0126
  497SOL    HW2 1491   1.038   1.794   7.094 -1.5726  0.0249 -1.6772
  498SOL     OW 1492   2.054   3.052   9.321  0.1914  0.1762  0.7361
  498SOL    HW1 1493   2.056   3.090   9.233  1.5811  1.3221  1.2173
  498SOL    HW2 1494   2.036   2.959   9.306 -0.4232  0.4850 -0.6906
  499SOL     OW 1495   3.324   4.371   9.068  0.5674 -0.0413 -0.2353
  499SOL    HW1 1496   3.329   4.453   9.018 -0.2376  0.4211  0.4033
  499SOL    HW2 1497   3.299   4.305   9.004 -0.5692  0.5655 -0.4573
  500SOL     OW 1498   1.934   4.898   9.305 -0.1620 -0.2752 -0.4992
  500SOL    HW1 1499   2.014   4.881   9.256  0.1308  0.6551 -0.3541
  500SOL    HW2 1500   1.869   4.839   9.266  0.9467 -2.2160  0.4076
  501SOL     OW 1501   0.057   0.315   9.394 -0.5747  0.3342  0.6134
  501SOL    HW1 1502   0.039   0.406   9.416 -1.7011  0.4262 -0.6060
  501SOL    HW2 1503   0.122   0.287   9.459 -0.0692  2.0461  0.8791
  502SOL     OW 1504   2.269   0.683   9.738 -0.0505 -0.0288  0.7013
  502SOL    HW1 1505   2.241   0.594   9.720  2.3307 -0.5693 -0.7880
  502SOL    HW2 1506   2.219   0.737   9.677  2.1950 -1.0112 -2.2505
  503SOL     OW 1507   3.289   3.949   7.398 -0.0195  0.1440  0.4045
  503SOL    HW1 1508   3.242   4.022   7.357 -0.6846 -0.8764 -0.7212
  503SOL    HW2 1509   3.283   3.966   7.492 -2.5027  0.1857  0.3047
  504SOL     OW 1510   1.373   2.103   6.232 -0.2212 -0.4346 -0.5633
  504SOL    HW1 1511   1.386   2.102   6.137  1.0933 -0.0824 -0.4054
  504SOL    HW2 1512   1.329   2.187   6.249  1.0581  0.2936 -0.7094
  505SOL     OW 1513   0.415   4.330   8.335 -0.2754 -0.2019  0.0306
  505SOL    HW1 1514   0.381   4.416   8.311 -1.3328 -0.2435  1.2707
  505SOL    HW2 1515   0.337   4.277   8.351  0.3708 -1.2474 -0.2112
  506SOL     OW 1516   0.461   3.735   8.050 -1.0045 -0.7999 -0.0943
  506SOL    HW1 1517   0.506   3.819   8.041 -2.2619  0.0907  1.4541
  506SOL    HW2 1518   0.444   3.727   8.144 -0.2644 -3.1646 -0.1103
  507SOL     OW 1519   4.870   4.597   9.372 -0.0532 -0.7103  0.2974
  507SOL    HW1 1520   4.815   4.564   9.444 -0.0774 -0.0423  0.5942
  507SOL    HW2 1521   4.849   4.541   9.298 -0.0374 -1.4017  0.8124
  508SOL     OW 1522   3.308   0.639   9.103  0.2901 -0.4225  0.4732
  508SOL    HW1 1523   3.238   0.674   9.048  0.3246  1.3163  1.4660
  508SOL    HW2 1524   3.290   0.673   9.191  1.6164 -1.0794  1.0400
  509SOL     OW 1525   2.070   4.473   8.788  0.7190  0.2264 -0.3809
  509SOL    HW1 1526   2.155   4.515   8.783  0.6028  0.3696 -1.6663
  509SOL    HW2 1527   2.019   4.514   8.717 -0.0382 -0.6565 -0.3663
  510SOL     OW 1528   0.158   0.741  10.301  0.2255  0.1960  0.2418
  510SOL    HW1 1529   0.110   0.793  10.365  0.6396  0.5364  0.2841
  510SOL    HW2 1530   0.097   0.728  10.229  1.0328  3.4562 -1.2397
  511SOL     OW 1531   4.660   1.718   5.655  0.1584 -0.0337 -0.0122
  511SOL    HW1 1532   4.668   1.651   5.723 -1.6437  1.3150  1.6223
  511SOL    HW2 1533   4.577   1.700   5.611 -0.3271  1.0637  0.4115
  512SOL     OW 1534   3.916   0.840  10.561  0.5610 -0.1456  0.0525
  512SOL    HW1 1535   4.002   0.862  10.523  0.4792 -0.6049 -0.4087
  512SOL    HW2 1536   3.937   0.802  10.646  0.9172 -1.4873 -0.5943
  513SOL     OW 1537   0.943   3.282   9.599  0.3788 -0.7215  0.2934
  513SOL    HW1 1538   0.993   3.204   9.575 -2.4412 -2.0277 -1.8125
  513SOL    HW2 1539   0.984   3.352   9.547  0.3674 -1.6472 -1.0135
  514SOL     OW 1540   0.207   0.940   9.041 -0.5394  0.4775 -0.2568
  514SOL    HW1 1541   0.197   0.871   9.107  2.7092  3.0974  3.4520
  514SOL    HW2 1542   0.293   0.924   9.002  0.2446  2.2431  0.6331
  515SOL     OW 1543   2.594   2.776   9.248 -0.3885 -0.3226  1.2613
  515SOL    HW1 1544   2.629   2.812   9.330 -0.6832 -0.1215  1.3021
  515SOL    HW2 1545   2.522   2.835   9.225  0.7332  0.5978 -0.0385
  516SOL     OW 1546   0.878   1.457  10.209  0.0010  0.6793 -0.4638
  516SOL    HW1 1547   0.910   1.389  10.149  2.4501  2.5113 -1.3988
  516SOL    HW2 1548   0.906   1.429  10.295 -0.5621 -0.3071 -0.5795
  517SOL     OW 1549   0.521   2.664   7.218  0.2450  0.1969 -0.2928
  517SOL    HW1 1550   0.580   2.609   7.269 -1.3463 -1.2814  0.0290
  517SOL    HW2 1551   0.481   2.723   7.283  1.8443  1.7489 -0.6174
  518SOL     OW 1552   2.078   0.727   9.546 -0.4714 -0.1282 -0.5883
  518SOL    HW1 1553   2.007   0.786   9.522 -2.7252 -2.5601 -0.3242
  518SOL    HW2 1554   2.068   0.651   9.488  1.7296 -0.7300 -0.2980
  519SOL     OW 1555   0.592   0.738  10.113 -0.5045 -0.5051  0.0067
  519SOL    HW1 1556   0.632   0.739  10.200 -0.5891  0.5396  0.0473
  519SOL    HW2 1557   0.665   0.741  10.052 -0.4838  0.3285  0.0670
  520SOL     OW 1558   0.735   1.227   9.340 -0.4145 -0.2514 -0.5946
  520SOL    HW1 1559   0.745   1.268   9.254  0.8744 -1.3434 -0.9953
  520SOL    HW2 1560   0.650   1.183   9.336  0.6674 -2.4108 -2.2967
  521SOL     OW 1561   4.929   3.903   8.900 -0.4123 -0.2858  0.7562
  521SOL    HW1 1562   4.870   3.828   8.888  3.3431 -3.2579 -1.5993
  521SOL    HW2 1563   4.939   3.939   8.812  1.7289 -0.4010  0.8963
  522SOL     OW 1564   3.939   1.341   8.923 -0.4128 -0.6727 -0.0806
  522SOL    HW1 1565   3.973   1.252   8.915  1.4374 -0.0505  0.2585
  522SOL    HW2 1566   3.937   1.358   9.017 -0.3936 -0.2408 -0.1539
  523SOL     OW 1567   0.409   2.968   9.568  0.0416  0.0517 -0.5172
  523SOL    HW1 1568   0.458   3.042   9.604  1.0659 -0.8541  0.0608
  523SOL    HW2 1569   0.473   2.896   9.568 -1.1050 -0.9965 -0.4256
  524SOL     OW 1570   0.389   0.910   8.829 -0.6837  0.6821  0.8527
  524SOL    HW1 1571   0.423   0.895   8.741  0.8653  0.5737  1.4424
  524SOL    HW2 1572   0.436   0.988   8.860 -2.4855  1.7922  0.9671
  525SOL     OW 1573   0.893   3.810   8.345  0.4626  0.6801  0.6161
  525SOL    HW1 1574   0.810   3.857   8.354  0.4163  0.5313  0.9823
  525SOL    HW2 1575   0.868   3.724   8.309  0.6321  1.2206 -0.8653
  526SOL     OW 1576   0.525   4.902   9.135  0.2137 -0.3374 -0.6159
  526SOL    HW1 1577   0.566   4.905   9.222  2.2244 -2.7762 -1.3796
  526SOL    HW2 1578   0.444   4.952   9.146  0.4290 -0.4563  2.6383
  527SOL     OW 1579   0.324   2.551   6.976 -0.8186  0.5263  0.5537
  527SOL    HW1 1580   0.300   2.462   6.949 -0.0885  0.1272  1.1772
  527SOL    HW2 1581   0.365   2.540   7.061  2.3004  1.0255 -0.7504
  528SOL     OW 1582   1.239   4.948   8.308  0.9513 -0.6140  0.0204
  528SOL    HW1 1583   1.327   4.978   8.329  0.3538 -0.1563  2.1142
  528SOL    HW2 1584   1.221   4.878   8.371  0.1605 -1.3930 -1.0237
  529SOL     OW 1585   2.855   1.154   9.936  0.0955 -0.3394  0.0170
  529SOL    HW1 1586   2.930   1.103   9.963  1.5295  2.1620  1.1156
  529SOL    HW2 1587   2.817   1.187  10.017 -0.6211  0.5271 -0.6379
  530SOL     OW 1588   2.106   2.638   5.616  0.0181  0.4836  0.0001
  530SOL    HW1 1589   2.072   2.590   5.540  0.1256  0.4417 -0.0225
  530SOL    HW2 1590   2.118   2.571   5.683  0.0272  0.5027  0.0177
  531SOL     OW 1591   0.362   2.705   7.657  0.6598  0.1163 -0.2374
  531SOL    HW1 1592   0.276   2.664   7.645  0.8512  0.1283 -1.8322
  531SOL    HW2 1593   0.393   2.723   7.569  2.2094  0.3455  0.3191
  532SOL     OW 1594   3.948   1.969  10.274  0.5033  0.2529 -0.3255
  532SOL    HW1 1595   3.871   1.925  10.239 -0.1149  0.3594  0.8627
  532SOL    HW2 1596   3.995   2.001  10.197 -1.8631  2.3059 -1.0275
  533SOL     OW 1597   3.840   0.504  10.305  0.0796 -0.5958 -0.1576
  533SOL    HW1 1598   3.801   0.506  10.218  0.5682 -0.5202 -0.3765
  533SOL    HW2 1599   3.932   0.526  10.291  0.6751 -2.7451  0.0974
  534SOL     OW 1600   2.603   1.280   8.269 -0.4967  0.2695 -0.6680
  534SOL    HW1 1601   2.618   1.224   8.193  0.6292 -0.6401  0.2010
  534SOL    HW2 1602   2.564   1.223   8.335 -0.6601  0.8527 -0.2479
  535SOL     OW 1603   4.721   2.551  10.065  0.7405  0.2867 -0.4689
  535SOL    HW1 1604   4.648   2.550  10.127  1.4137 -0.2626  0.3380
  535SOL    HW2 1605   4.778   2.622  10.095  1.7470 -0.8297  0.3935
  536SOL     OW 1606   3.557   4.360   7.291 -0.1558 -0.6049  0.0446
  536SOL    HW1 1607   3.479   4.376   7.238 -0.4974 -0.3286  0.6299
  536SOL    HW2 1608   3.629   4.396   7.239 -0.8087  2.3572  1.0178
  537SOL     OW 1609   1.268   2.916   9.475  0.1138  0.3845 -0.2901
  537SOL    HW1 1610   1.342   2.872   9.517 -0.9844 -2.1554 -0.8112
  537SOL    HW2 1611   1.194   2.901   9.534 -0.1380  2.4715 -0.0072
  538SOL     OW 1612   0.258   2.579   9.912  0.6883  0.0128 -0.5632
  538SOL    HW1 1613   0.286   2.562  10.002  1.9344  1.4789 -0.6258
  538SOL    HW2 1614   0.226   2.495   9.880 -1.5293 -0.1772  1.8125
  539SOL     OW 1615   0.247   1.871   7.779 -0.2232 -0.2186 -0.6700
  539SOL    HW1 1616   0.175   1.916   7.734  0.2653  1.9073  0.5558
  539SOL    HW2 1617   0.322   1.883   7.720 -0.3391 -0.3714 -0.8499
  540SOL     OW 1618   4.019   4.841  10.378  0.1911  0.5979 -0.2923
  540SOL    HW1 1619   3.947   4.889  10.419  0.3696  1.1574 -0.6269
  540SOL    HW2 1620   4.070   4.908  10.334  0.7895  0.1705 -0.2512
  541SOL     OW 1621   4.102   2.637   8.622 -1.2239  0.9111 -0.9605
  541SOL    HW1 1622   4.026   2.593   8.660  0.2437 -1.2050 -0.2793
  541SOL    HW2 1623   4.135   2.692   8.693 -0.6285 -0.1969 -0.3528
  542SOL     OW 1624   1.620   3.276   7.217 -1.0537  0.1498  0.0989
  542SOL    HW1 1625   1.683   3.268   7.146  0.3882  0.7147  1.2658
  542SOL    HW2 1626   1.668   3.251   7.296 -2.4360  0.0971  0.9798
  543SOL     OW 1627   2.291   1.810  10.258 -0.7102  0.2489 -0.4106
  543SOL    HW1 1628   2.348   1.879  10.225 -1.3979  0.2566 -1.6259
  543SOL    HW2 1629   2.317   1.799  10.350  2.3394 -0.8559 -1.2914
  544SOL     OW 1630   0.468   2.213   8.276 -0.2953 -0.3431  0.3275
  544SOL    HW1 1631   0.464   2.117   8.270  0.8097 -0.3982  0.2951
  544SOL    HW2 1632   0.543   2.230   8.333 -0.0789  0.5174 -0.2011
  545SOL     OW 1633   4.717   3.327   8.527  0.0643  0.0605  0.4674
  545SOL    HW1 1634   4.775   3.357   8.457  1.3515 -1.3012  0.9011
  545SOL    HW2 1635   4.695   3.237   8.502 -0.9831  0.1903  0.8813
  546SOL     OW 1636   4.082   4.775   7.148  0.2510 -0.7917  0.1281
  546SOL    HW1 1637   4.072   4.845   7.083  1.6542  0.1427  0.8727
  546SOL    HW2 1638   4.019   4.796   7.217 -0.2157 -0.9869 -0.2278
  547SOL     OW 1639   4.127   3.013   9.131  0.0670  0.3796  0.4518
  547SOL    HW1 1640   4.117   3.000   9.226  1.2000  0.4475  0.5971
  547SOL    HW2 1641   4.161   2.930   9.099  2.5285  1.2581  0.5951
  548SOL     OW 1642   2.342   4.790   9.616  0.6956  1.0147 -0.2301
  548SOL    HW1 1643   2.367   4.882   9.620  1.5194  0.7805  3.4385
  548SOL    HW2 1644   2.387   4.756   9.540 -0.3169  3.7503 -2.2221
  549SOL     OW 1645   3.695   1.813   8.614  0.3610 -0.2932  0.4538
  549SOL    HW1 1646   3.696   1.720   8.591 -2.0194 -0.3407  0.3918
  549SOL    HW2 1647   3.777   1.847   8.576  0.2525 -1.9070 -1.4070
  550SOL     OW 1648   2.705   5.017   6.190  0.5834 -0.6963  0.6252
  550SOL    HW1 1649   2.635   4.963   6.228 -0.6043  1.1232  1.1164
  550SOL    HW2 1650   2.784   4.967   6.207 -0.3362 -1.7312  2.1620
  551SOL     OW 1651   1.002   2.691   8.690 -0.4543  0.5259  0.2346
  551SOL    HW1 1652   0.937   2.718   8.755 -0.2876  0.0452  0.6049
  551SOL    HW2 1653   1.048   2.618   8.731  1.2639  1.7395  0.5788
  552SOL     OW 1654   0.250   0.163   9.504  0.0134 -0.0826  0.0312
  552SOL    HW1 1655   0.336   0.202   9.520  0.1860  0.9606 -2.8309
  552SOL    HW2 1656   0.268   0.071   9.489  0.2041 -0.4634  2.3323
  553SOL     OW 1657   3.544   0.770   9.297 -0.1615 -0.7865  0.2679
  553SOL    HW1 1658   3.585   0.857   9.298 -0.0530 -0.8358  0.2005
  553SOL    HW2 1659   3.589   0.724   9.225 -2.0158 -0.0386 -1.4688
  554SOL     OW 1660   2.935   2.328   9.064  0.0847  0.1198 -0.7796
  554SOL    HW1 1661   2.844   2.339   9.037  0.2161 -1.0749 -1.8515
  554SOL    HW2 1662   2.937   2.243   9.109  0.8665 -0.4815 -1.8925
  555SOL     OW 1663   4.806   3.060  10.516  0.1467  0.4401 -0.3276
  555SOL    HW1 1664   4.887   3.110  10.532  0.6458 -0.7460  1.0727
  555SOL    HW2 1665   4.821   2.976  10.558 -1.5768 -0.0588 -0.6377
  556SOL     OW 1666   4.356   2.517   5.072  0.2016 -0.2177  0.0272
  556SOL    HW1 1667   4.269   2.520   5.112  0.2606  1.1961  0.0741
  556SOL    HW2 1668   4.410   2.575   5.126  1.3932 -1.6574  0.4596
  557SOL     OW 1669   1.927   0.266   7.810 -0.5865 -0.5030  0.6418
  557SOL    HW1 1670   1.921   0.352   7.851  2.6466  0.2116 -0.0752
  557SOL    HW2 1671   1.984   0.215   7.868 -0.4071 -1.3040 -0.2060
  558SOL     OW 1672   0.548   4.875   9.533 -0.2184  0.0715  0.0932
  558SOL    HW1 1673   0.640   4.857   9.515 -0.5238 -3.0254  0.9981
  558SOL    HW2 1674   0.514   4.793   9.569 -3.6108  0.6997 -1.2768
  559SOL     OW 1675   0.733   0.381   7.826  0.3536 -0.0163  0.0050
  559SOL    HW1 1676   0.819   0.407   7.861  0.5210 -0.5829  0.0298
  559SOL    HW2 1677   0.676   0.380   7.903  0.3589  0.2260  0.0123
  560SOL     OW 1678   2.264   2.478   8.927 -0.4688  0.3040  0.2145
  560SOL    HW1 1679   2.328   2.513   8.990 -0.5144 -1.9788  1.6302
  560SOL    HW2 1680   2.311   2.476   8.844 -0.0672  2.4118  0.3310
  561SOL     OW 1681   1.298   3.148  10.329 -0.4224 -0.1672  0.4228
  561SOL    HW1 1682   1.269   3.058  10.313  0.5010 -0.6710  1.4679
  561SOL    HW2 1683   1.290   3.160  10.423  0.5248  0.4547  0.4394
  562SOL     OW 1684   2.781   3.344   8.850  0.1487  0.2830  0.2100
  562SOL    HW1 1685   2.854   3.307   8.800  0.4422  1.0385  0.0755
  562SOL    HW2 1686   2.822   3.392   8.922 -0.1593  1.7933 -0.5986
  563SOL     OW 1687   0.697   0.340  10.170  0.2592  0.5556  0.0576
  563SOL    HW1 1688   0.745   0.303  10.096  0.3609  0.8460 -0.0193
  563SOL    HW2 1689   0.615   0.290  10.172  0.6796 -0.1362  0.3650
  564SOL     OW 1690   4.947   0.944  10.376  0.6360 -0.2984 -1.2261
  564SOL    HW1 1691   4.923   0.968  10.286 -1.3595  2.5798 -0.0604
  564SOL    HW2 1692   4.892   0.869  10.397  1.2360 -1.0992 -2.4198
  565SOL     OW 1693   3.943   1.050  10.036 -0.2582  0.1581 -0.5832
  565SOL    HW1 1694   3.918   1.142  10.045  1.8574  0.8169 -0.9487
  565SOL    HW2 1695   3.909   1.024   9.950 -2.4284  0.0106  0.2642
  566SOL     OW 1696   3.909   1.896   9.595 -0.0208  0.1087 -0.4535
  566SOL    HW1 1697   3.985   1.954   9.596  0.0039  0.2214 -3.1531
  566SOL    HW2 1698   3.844   1.941   9.540 -1.2881 -0.9084  0.1378
  567SOL     OW 1699   0.700   0.047   8.200  0.3045 -0.5396  0.5352
  567SOL    HW1 1700   0.717  -0.035   8.154 -2.4316 -1.3342  0.7894
  567SOL    HW2 1701   0.613   0.037   8.238 -0.3142  2.6379  0.2745
  568SOL     OW 1702   4.022   2.833   8.342  0.1253 -0.0198  0.3473
  568SOL    HW1 1703   4.036   2.742   8.313 -0.3540 -0.2450  0.8044
  568SOL    HW2 1704   4.013   2.826   8.437 -3.3107  0.0282  0.1495
  569SOL     OW 1705   4.726   4.471   7.265  0.0185 -0.1205 -0.1410
  569SOL    HW1 1706   4.682   4.402   7.315  0.5510 -3.7559 -4.0788
  569SOL    HW2 1707   4.658   4.536   7.248 -1.0438 -0.5289  2.1576
  570SOL     OW 1708   0.032   2.980   9.064  1.4134  0.4565 -0.2347
  570SOL    HW1 1709   0.113   2.929   9.056  0.9606 -0.5794  1.3041
  570SOL    HW2 1710   0.054   3.066   9.028  2.1534 -0.7945 -3.1331
  571SOL     OW 1711   4.189   0.536   6.372 -0.7019  0.6922 -0.3611
  571SOL    HW1 1712   4.220   0.603   6.312 -1.7147  0.6435 -0.9700
  571SOL    HW2 1713   4.268   0.500   6.411 -0.1715  2.8591  0.6818
  572SOL     OW 1714   0.911   4.838   5.366  0.0884  0.2904  0.4996
  572SOL    HW1 1715   0.920   4.744   5.351  1.1512  0.5242 -0.3948
  572SOL    HW2 1716   0.989   4.877   5.328 -0.9393  1.6634 -0.3215
  573SOL     OW 1717   1.665   1.298   6.658 -0.3383 -0.0346  0.7756
  573SOL    HW1 1718   1.657   1.388   6.628  0.6383  1.4447  4.3920
  573SOL    HW2 1719   1.722   1.256   6.594 -0.1060  2.1277 -0.5369
  574SOL     OW 1720   4.910   4.297   7.871  0.3311  0.6850  0.2707
  574SOL    HW1 1721   4.844   4.358   7.836 -1.4789 -0.0374  2.2032
  574SOL    HW2 1722   4.890   4.214   7.828 -0.7879  0.2113  1.6156
  575SOL     OW 1723   3.060   0.595   5.106  0.8530 -0.2607 -0.1740
  575SOL    HW1 1724   3.096   0.681   5.128  1.3669 -0.7713  1.0654
  575SOL    HW2 1725   3.134   0.547   5.067  0.2624  0.2267 -2.0033
  576SOL     OW 1726   1.559   1.398   8.712 -0.3847 -0.4023  0.1789
  576SOL    HW1 1727   1.504   1.329   8.676  1.1433 -2.0444  0.8486
  576SOL    HW2 1728   1.645   1.358   8.720  1.2439  2.3956 -1.8476
  577SOL     OW 1729   1.170   3.665   5.767  0.3133  0.3015 -0.2908
  577SOL    HW1 1730   1.245   3.705   5.811 -0.0284  0.5474  0.0793
  577SOL    HW2 1731   1.187   3.571   5.770  0.7393  0.3724 -0.4564
  578SOL     OW 1732   0.943   1.240   5.094  0.2240  0.4705  0.4651
  578SOL    HW1 1733   0.875   1.175   5.112  0.2449  0.0831 -0.7740
  578SOL    HW2 1734   1.012   1.219   5.157 -0.1844 -0.0774  0.7473
  579SOL     OW 1735   1.243   3.423   5.810  0.2112  0.7385  0.0182
  579SOL    HW1 1736   1.273   3.370   5.736 -1.3632 -0.1660 -0.0110
  579SOL    HW2 1737   1.323   3.443   5.858  0.7912 -4.2631  1.7706
  580SOL     OW 1738   0.249   1.158   6.204  0.2048  0.0090  0.2083
  580SOL    HW1 1739   0.260   1.118   6.118  2.7730  0.3244  0.3268
  580SOL    HW2 1740   0.323   1.127   6.255 -1.2436 -0.1599  2.3548
  581SOL     OW 1741   1.956   1.856   5.583 -0.0804 -0.1662  0.4266
  581SOL    HW1 1742   2.022   1.923   5.567 -0.4890  0.4654  1.2927
  581SOL    HW2 1743   1.978   1.785   5.523  1.3109  0.0808  0.6281
  582SOL     OW 1744   1.643   4.286   6.227  0.7854 -0.3136  0.1051
  582SOL    HW1 1745   1.688   4.297   6.143  0.5384 -4.3278 -0.7471
  582SOL    HW2 1746   1.712   4.262   6.288  0.4199 -2.6020 -0.2912
  583SOL     OW 1747   4.456   4.469   7.322 -0.6655  0.4182  0.1380
  583SOL    HW1 1748   4.371   4.494   7.356 -0.8383 -0.9371  0.7640
  583SOL    HW2 1749   4.450   4.374   7.308  0.8959  0.1937  0.7048
  584SOL     OW 1750   1.798   2.444   8.201  0.6284  0.5522 -0.8030
  584SOL    HW1 1751   1.891   2.427   8.184  0.5546 -1.2631  0.3894
  584SOL    HW2 1752   1.766   2.364   8.241 -1.2641  1.4860 -0.3509
  585SOL     OW 1753   4.555   2.401   6.597 -0.1567  0.6283 -0.1019
  585SOL    HW1 1754   4.513   2.488   6.597  1.2247  1.3572  1.3119
  585SOL    HW2 1755   4.625   2.408   6.533  0.1126  0.6635  0.1912
  586SOL     OW 1756   1.917   2.654   4.995 -0.0336 -0.3500  0.2928
  586SOL    HW1 1757   1.877   2.624   5.077  0.8227  1.1847  1.3084
  586SOL    HW2 1758   1.875   2.737   4.977 -1.1012 -1.2321 -1.5377
  587SOL     OW 1759   2.456   2.871   5.900 -0.4077  0.1922 -0.1356
  587SOL    HW1 1760   2.483   2.933   5.968 -2.0876  0.2461  0.5411
  587SOL    HW2 1761   2.446   2.788   5.947  0.1361 -0.2007 -0.6949
  588SOL     OW 1762   2.594   0.037   5.651 -0.1836 -0.0341  0.5028
  588SOL    HW1 1763   2.517   0.068   5.603 -0.3517  0.3355  1.0048
  588SOL    HW2 1764   2.582   0.071   5.739  0.2766 -0.4551  0.7305
  589SOL     OW 1765   1.128   0.529   5.333 -0.1022 -0.6407 -0.1228
  589SOL    HW1 1766   1.057   0.536   5.269 -1.2966  1.8797  1.3173
  589SOL    HW2 1767   1.205   0.505   5.281 -1.1900  0.3847 -2.3716
  590SOL     OW 1768   3.469   4.672   6.147  0.1111  0.0520 -0.0263
  590SOL    HW1 1769   3.419   4.718   6.080 -0.7263  1.8210  1.6958
  590SOL    HW2 1770   3.540   4.732   6.170  0.4386 -0.5496  0.5867
  591SOL     OW 1771   2.605   1.427   5.103 -0.0288 -0.4333 -1.0038
  591SOL    HW1 1772   2.564   1.514   5.105 -0.6363 -0.7268  0.6656
  591SOL    HW2 1773   2.533   1.366   5.116  0.4095 -1.2129 -2.0743
  592SOL     OW 1774   0.459   2.839   7.433  0.0186  0.3280  0.2835
  592SOL    HW1 1775   0.441   2.926   7.398  2.9576 -0.0584 -2.6973
  592SOL    HW2 1776   0.535   2.851   7.490 -0.5718 -0.0958  1.1899
  593SOL     OW 1777   3.063   2.227   9.954  0.3606  0.3131 -0.1808
  593SOL    HW1 1778   2.972   2.210   9.931 -0.0890  2.0920  0.0676
  593SOL    HW2 1779   3.071   2.323   9.950  1.1897  0.5293  3.3904
  594SOL     OW 1780   0.681   1.081   5.163 -0.9236  0.0722  0.2927
  594SOL    HW1 1781   0.673   1.086   5.258 -0.7117  0.5503  0.2872
  594SOL    HW2 1782   0.629   1.154   5.130 -1.2230 -0.2554  0.0260
  595SOL     OW 1783   3.362   1.479   5.177 -0.0747 -0.0924 -0.2934
  595SOL    HW1 1784   3.287   1.446   5.228  0.9728 -1.3491  0.5075
  595SOL    HW2 1785   3.326   1.551   5.126 -2.5634 -2.4166 -2.1735
  596SOL     OW 1786   1.925   1.382   7.016  0.6236 -0.0782 -0.2312
  596SOL    HW1 1787   1.961   1.434   7.088 -1.2404  1.9739 -0.6457
  596SOL    HW2 1788   1.963   1.421   6.938 -0.8034  0.7763 -0.5481
  597SOL     OW 1789   0.376   3.068   6.214 -0.2091 -0.1323 -0.0681
  597SOL    HW1 1790   0.470   3.055   6.203 -0.1208  0.4396  0.0037
  597SOL    HW2 1791   0.338   2.981   6.199  0.0466  0.1660 -2.9919
  598SOL     OW 1792   4.980   2.502   5.873  0.2641 -0.3973 -0.2709
  598SOL    HW1 1793   4.899   2.455   5.891  1.1748 -2.0623 -0.2592
  598SOL    HW2 1794   4.974   2.527   5.781  0.1490 -1.4108 -0.5546
  599SOL     OW 1795   3.127   3.198   5.404  0.6569  0.1132 -0.4448
  599SOL    HW1 1796   3.094   3.121   5.358  1.3982 -1.4391  1.4810
  599SOL    HW2 1797   3.049   3.239   5.442  0.4374 -0.9726  0.3337
  600SOL     OW 1798   1.242   3.860   5.982 -0.5260 -0.4453  0.0458
  600SOL    HW1 1799   1.156   3.879   5.943 -2.2946 -1.8553  2.8943
  600SOL    HW2 1800   1.238   3.900   6.069  2.8896  1.8176 -0.6413
  601SOL     OW 1801   3.423   1.244   8.094 -0.1718  0.0636  0.5121
  601SOL    HW1 1802   3.413   1.284   8.008  0.6245  0.0313  0.3913
  601SOL    HW2 1803   3.376   1.302   8.154  1.7950  1.8061  0.4959
  602SOL     OW 1804   3.716   2.584   7.106  0.0575  0.4634  0.1389
  602SOL    HW1 1805   3.660   2.554   7.034  0.4082  0.3928 -0.1085
  602SOL    HW2 1806   3.711   2.680   7.101  0.2758  0.4640 -0.1431
  603SOL     OW 1807   2.794   4.516   7.407  0.6016  0.0132 -0.1202
  603SOL    HW1 1808   2.723   4.489   7.464  2.2498 -1.0647  1.5349
  603SOL    HW2 1809   2.838   4.434   7.383  1.4126  0.6637 -0.9555
  604SOL     OW 1810   3.051   2.747   5.451 -0.1099  0.0285 -0.3768
  604SOL    HW1 1811   2.990   2.717   5.383  0.9580 -1.0615 -0.8871
  604SOL    HW2 1812   3.053   2.676   5.514  1.4056 -0.4259 -0.8992
  605SOL     OW 1813   1.759   4.451   6.502  0.0848  0.2544 -0.2119
  605SOL    HW1 1814   1.727   4.540   6.518 -1.0558  0.0651 -1.2306
  605SOL    HW2 1815   1.819   4.459   6.429 -1.1171  0.0391 -1.2705
  606SOL     OW 1816   1.113   4.253   7.638  0.2650  0.6103  0.2202
  606SOL    HW1 1817   1.115   4.200   7.718  1.6939  2.4579  1.5077
  606SOL    HW2 1818   1.195   4.232   7.594 -0.5986 -0.5324 -0.9086
  607SOL     OW 1819   4.109   2.644   5.102 -0.0353  0.0832  0.3075
  607SOL    HW1 1820   4.056   2.583   5.051 -0.0600 -0.6957  1.2075
  607SOL    HW2 1821   4.191   2.652   5.054  1.4473 -3.5476  1.8295
  608SOL     OW 1822   3.562   0.314   5.445  0.3489  0.5920 -0.7121
  608SOL    HW1 1823   3.644   0.275   5.415  0.9105  0.3221  1.1108
  608SOL    HW2 1824   3.535   0.370   5.372  2.0295  0.5106 -1.4386
  609SOL     OW 1825   1.755   1.629   6.868  0.0439  1.1201 -0.1381
  609SOL    HW1 1826   1.810   1.622   6.790 -1.4337  0.4120 -1.1563
  609SOL    HW2 1827   1.673   1.666   6.836  0.0117  2.4929  1.4101
  610SOL     OW 1828   0.298   3.284   5.402 -0.3627 -0.3470  0.0530
  610SOL    HW1 1829   0.334   3.303   5.315 -0.9099 -0.2130 -0.1494
  610SOL    HW2 1830   0.281   3.370   5.440 -1.9291 -0.3864 -0.4778
  611SOL     OW 1831   2.906   2.174   7.418  0.7303 -0.1167 -0.1765
  611SOL    HW1 1832   2.917   2.124   7.499 -2.3340  0.7269  0.9189
  611SOL    HW2 1833   2.821   2.217   7.428  0.3755  0.3257 -3.7163
  612SOL     OW 1834   2.162   0.658   7.488  0.1611 -0.6511  0.3045
  612SOL    HW1 1835   2.205   0.739   7.515  0.7331 -0.8950  0.1518
  612SOL    HW2 1836   2.127   0.677   7.401 -0.9228 -0.1372  0.8460
  613SOL     OW 1837   0.234   1.660   8.588 -0.2321  0.6549  0.2445
  613SOL    HW1 1838   0.251   1.567   8.606 -1.7370  0.5694  1.4190
  613SOL    HW2 1839   0.157   1.659   8.530 -1.4907  1.1664  1.8303
  614SOL     OW 1840   1.419   2.452   5.778  0.1631  0.1854  0.5614
  614SOL    HW1 1841   1.438   2.533   5.731  0.0423  1.1300  2.0845
  614SOL    HW2 1842   1.324   2.452   5.788  0.1152 -0.3949  0.1547
  615SOL     OW 1843   1.872   1.766   7.486 -0.0680  0.4380 -0.3215
  615SOL    HW1 1844   1.938   1.699   7.466  0.6381  1.1511 -0.4333
  615SOL    HW2 1845   1.921   1.848   7.487 -1.3040  1.2654 -2.4309
  616SOL     OW 1846   3.770   2.677   6.153  0.5216 -1.0859 -0.4556
  616SOL    HW1 1847   3.740   2.630   6.075  0.2645  2.5919 -2.8092
  616SOL    HW2 1848   3.865   2.683   6.142  0.5449 -0.9611 -0.1927
  617SOL     OW 1849   0.650   3.608   6.132 -0.1104  0.0109  0.5168
  617SOL    HW1 1850   0.730   3.593   6.183 -0.2471 -3.5369 -0.0602
  617SOL    HW2 1851   0.583   3.556   6.176 -2.1136  2.5324  0.7092
  618SOL     OW 1852   3.008   3.142   6.464 -0.0652 -0.2687 -0.2549
  618SOL    HW1 1853   2.942   3.156   6.532 -0.3132  0.7397 -0.6784
  618SOL    HW2 1854   2.980   3.199   6.392  0.6233 -0.7294 -0.9005
  619SOL     OW 1855   0.276   2.425   6.589  0.5992 -0.0260  0.4355
  619SOL    HW1 1856   0.333   2.357   6.625 -1.7428 -1.4334  1.7559
  619SOL    HW2 1857   0.289   2.500   6.647  1.5164 -0.1301  0.3716
  620SOL     OW 1858   2.156   2.557   4.992 -0.3321  0.0561  0.0591
  620SOL    HW1 1859   2.139   2.474   5.037 -0.7180  0.7994  1.3321
  620SOL    HW2 1860   2.070   2.595   4.978 -0.2374 -0.2367 -1.5318
  621SOL     OW 1861   3.275   4.546   5.867 -0.2374  0.4094  0.0877
  621SOL    HW1 1862   3.216   4.587   5.804  0.9851  0.1060 -1.3093
  621SOL    HW2 1863   3.326   4.618   5.904  1.3867  0.3371 -1.8128
  622SOL     OW 1864   2.933   1.278   7.123  0.0145  0.5520  0.1673
  622SOL    HW1 1865   2.983   1.210   7.168  0.6054 -1.2987 -2.9735
  622SOL    HW2 1866   2.847   1.276   7.164  0.5100 -0.9966  1.2059
  623SOL     OW 1867   0.338   2.741   7.970 -0.3783 -0.2406 -0.4150
  623SOL    HW1 1868   0.403   2.788   7.918 -2.7473  2.3685 -1.2190
  623SOL    HW2 1869   0.285   2.809   8.011 -3.8957 -2.1040 -1.4469
  624SOL     OW 1870   3.083   4.096   7.228 -0.1678 -0.4832  0.1180
  624SOL    HW1 1871   3.106   4.144   7.148 -0.3027  0.8945  0.8702
  624SOL    HW2 1872   3.012   4.038   7.202  0.3521 -0.6712 -0.9411
  625SOL     OW 1873   1.358   4.341   5.421 -0.3543 -0.4042 -0.9402
  625SOL    HW1 1874   1.379   4.392   5.343  1.2863  1.0492  0.3673
  625SOL    HW2 1875   1.434   4.283   5.433 -0.2605 -0.1113 -0.0451
  626SOL     OW 1876   0.834   2.008   7.310  0.0217  0.2696  0.0825
  626SOL    HW1 1877   0.798   2.095   7.295  0.7556  0.6489  0.4863
  626SOL    HW2 1878   0.929   2.018   7.299  0.4339  0.1678  2.8728
  627SOL     OW 1879   0.934   3.102   6.428  0.3224  0.0391  0.1198
  627SOL    HW1 1880   0.891   3.132   6.508 -0.0694  1.7186 -0.6606
  627SOL    HW2 1881   0.970   3.016   6.450 -2.7063 -1.1030  1.0618
  628SOL     OW 1882   2.012   0.466   8.544  1.1364 -0.2278 -0.4035
  628SOL    HW1 1883   1.934   0.445   8.595  1.3397 -0.4663 -0.1930
  628SOL    HW2 1884   2.033   0.556   8.569  2.8217 -1.1900  2.0251
  629SOL     OW 1885   3.339   3.106   6.117 -0.3050 -0.5723 -0.1451
  629SOL    HW1 1886   3.253   3.068   6.099 -0.7210  0.6570 -0.8477
  629SOL    HW2 1887   3.338   3.125   6.211  0.2712 -3.0885  0.4512
  630SOL     OW 1888   2.640   4.486   6.412 -0.7619 -0.9411 -1.0984
  630SOL    HW1 1889   2.637   4.564   6.356 -0.2285 -0.5093 -0.5448
  630SOL    HW2 1890   2.695   4.424   6.363  1.4470  0.1927 -0.1778
  631SOL     OW 1891   2.871   0.131   5.796 -0.2341  0.5933  0.4808
  631SOL    HW1 1892   2.966   0.129   5.811 -0.2012 -0.4132  0.1846
  631SOL    HW2 1893   2.849   0.042   5.769 -1.7251  0.0020  3.3108
  632SOL     OW 1894   0.618   2.548   6.858 -0.4530  0.0179  0.5557
  632SOL    HW1 1895   0.525   2.545   6.878 -0.3078 -0.7911  1.1589
  632SOL    HW2 1896   0.624   2.600   6.777 -1.7130 -2.2211 -1.0981
  633SOL     OW 1897   2.568   0.673   5.112 -0.1867  0.0352  0.0693
  633SOL    HW1 1898   2.501   0.667   5.044 -0.0291 -1.5674  0.0144
  633SOL    HW2 1899   2.647   0.640   5.070  0.6666  1.9037  0.1374
  634SOL     OW 1900   3.083   0.939   6.945  0.4864  0.3248 -0.1525
  634SOL    HW1 1901   3.016   0.952   7.012  0.8406  0.7786  0.1214
  634SOL    HW2 1902   3.039   0.891   6.876  0.3075 -0.8173  0.7308
  635SOL     OW 1903   0.275   3.734   6.784 -0.3148  0.3306  0.1077
  635SOL    HW1 1904   0.329   3.802   6.744  1.1881 -1.7004 -1.5489
  635SOL    HW2 1905   0.188   3.748   6.747 -0.4571  2.2709  1.0478
  636SOL     OW 1906   3.101   1.092   5.105  0.5138  0.2990  0.7180
  636SOL    HW1 1907   3.105   1.053   5.193 -0.8201  2.7461  1.9721
  636SOL    HW2 1908   3.185   1.136   5.094  0.7453 -0.1443  0.6737
  637SOL     OW 1909   4.007   2.970   6.093 -0.4408  0.2336  0.0059
  637SOL    HW1 1910   4.035   3.010   6.011  0.9042 -1.7701 -0.5938
  637SOL    HW2 1911   4.021   2.876   6.080 -0.3338 -0.1656  2.4602
  638SOL     OW 1912   1.170   0.620   5.001  0.3875  0.3282 -0.0912
  638SOL    HW1 1913   1.197   0.708   4.974  0.1044 -0.0895 -1.8870
  638SOL    HW2 1914   1.252   0.575   5.022  0.5721  0.8747  0.3623
  639SOL     OW 1915   1.106   4.534   5.282 -0.1481 -0.3408 -0.8737
  639SOL    HW1 1916   1.078   4.542   5.373 -0.0355  0.6555 -0.9155
  639SOL    HW2 1917   1.071   4.449   5.253 -1.7442  0.1498 -0.4561
  640SOL     OW 1918   1.237   3.345   8.537  0.1585 -0.9867 -0.4084
  640SOL    HW1 1919   1.153   3.364   8.495  1.0266  0.8338 -1.4602
  640SOL    HW2 1920   1.227   3.257   8.572 -2.5428 -0.4311  0.4336
  641SOL     OW 1921   3.966   2.236   5.431 -0.0799 -0.5119  0.9322
  641SOL    HW1 1922   4.009   2.286   5.362 -0.7063  0.1700  1.0194
  641SOL    HW2 1923   3.897   2.186   5.387 -0.7915  0.2885  1.1107
  642SOL     OW 1924   2.561   3.594   7.985 -0.1677 -0.1761 -0.0892
  642SOL    HW1 1925   2.591   3.504   7.974  2.1274  0.8415 -4.0153
  642SOL    HW2 1926   2.610   3.627   8.060 -0.0605 -1.7770  0.5803
  643SOL     OW 1927   3.903   4.178   5.410 -0.1537  0.2953 -0.4225
  643SOL    HW1 1928   3.828   4.120   5.423 -0.8098  1.4728  1.6380
  643SOL    HW2 1929   3.864   4.266   5.406  1.0181  0.8228 -0.5116
  644SOL     OW 1930   2.542   2.728   5.523 -0.2857  0.0203  0.2451
  644SOL    HW1 1931   2.618   2.733   5.465  0.9243  1.6839  1.8675
  644SOL    HW2 1932   2.516   2.819   5.537 -2.0146 -0.4656  0.5099
  645SOL     OW 1933   2.012   4.184   7.632  1.0667 -0.3172  0.4454
  645SOL    HW1 1934   1.933   4.238   7.625  1.5375  0.6034  1.8394
  645SOL    HW2 1935   2.080   4.234   7.587  0.9434 -1.0060 -0.5562
  646SOL     OW 1936   2.968   0.428   7.421  0.2636 -0.3485  0.3127
  646SOL    HW1 1937   2.873   0.421   7.415  0.3504 -0.6534 -1.1294
  646SOL    HW2 1938   2.993   0.363   7.488 -0.5281 -0.2961  0.6616
  647SOL     OW 1939   0.194   0.437   5.507  0.6356 -0.2197  0.5025
  647SOL    HW1 1940   0.151   0.352   5.510  1.1199 -0.4513  2.0203
  647SOL    HW2 1941   0.202   0.463   5.599  2.3631  0.5024  0.1969
  648SOL     OW 1942   1.778   1.973   5.190 -0.1084 -0.0387  0.0311
  648SOL    HW1 1943   1.873   1.983   5.195  0.2269 -1.7089 -1.7848
  648SOL    HW2 1944   1.762   1.882   5.214 -1.5423  0.7838  2.5449
  649SOL     OW 1945   2.905   3.914   7.158  0.2780  0.4929  0.6563
  649SOL    HW1 1946   2.991   3.872   7.164  0.5206  1.1080  1.8803
  649SOL    HW2 1947   2.843   3.848   7.188  0.1270 -0.3947 -1.4181
  650SOL     OW 1948   4.848   4.717   7.514  0.8369  0.0016  0.4398
  650SOL    HW1 1949   4.766   4.737   7.469 -0.1360  2.3732  2.9959
  650SOL    HW2 1950   4.897   4.664   7.451 -1.4736  0.8362 -2.3002
  651SOL     OW 1951   3.684   2.993   4.629  0.1809 -0.3308  0.6728
  651SOL    HW1 1952   3.748   2.946   4.574  0.0192 -2.0672  1.8652
  651SOL    HW2 1953   3.608   2.935   4.631 -1.0934  1.2557  0.0801
  652SOL     OW 1954   4.961   2.651   5.091 -0.4829 -0.4061 -0.4909
  652SOL    HW1 1955   4.929   2.572   5.135 -0.4499 -0.8055 -1.1765
  652SOL    HW2 1956   4.985   2.710   5.163 -2.7735 -0.0637  0.0748
  653SOL     OW 1957  -0.022   0.799   6.529 -0.3887 -0.3239  0.3075
  653SOL    HW1 1958  -0.014   0.720   6.582 -0.8140 -0.3270  0.3734
  653SOL    HW2 1959   0.063   0.842   6.537 -0.7576  0.1891  1.8464
  654SOL     OW 1960   2.289   0.679   7.045  0.4278 -0.2904 -0.6836
  654SOL    HW1 1961   2.253   0.680   6.957  1.3220 -2.4271 -1.1349
  654SOL    HW2 1962   2.216   0.653   7.101  0.6596 -2.5372 -1.3213
  655SOL     OW 1963   4.459   3.447   6.806  0.0728  0.2330 -0.0183
  655SOL    HW1 1964   4.538   3.496   6.784  0.4353  0.3709  1.4294
  655SOL    HW2 1965   4.488   3.355   6.810 -0.8721 -0.3902 -3.9702
  656SOL     OW 1966  -0.031   1.117   7.582 -0.0783  0.3085  0.7877
  656SOL    HW1 1967   0.031   1.054   7.620  0.0832  0.6689  1.1373
  656SOL    HW2 1968   0.023   1.195   7.563 -0.2488  0.2925  0.2314
  657SOL     OW 1969   3.892   0.563   5.887 -0.5375 -0.2895 -0.0178
  657SOL    HW1 1970   3.833   0.537   5.958 -0.9988  0.5307 -0.0790
  657SOL    HW2 1971   3.953   0.625   5.928 -2.8790  2.9057 -0.9325
  658SOL     OW 1972   2.535   0.082   7.557  0.1831  0.6371 -0.0348
  658SOL    HW1 1973   2.617   0.083   7.509  0.9775 -0.3094  1.2325
  658SOL    HW2 1974   2.486   0.158   7.524  0.2180 -0.5069 -3.0396
  659SOL     OW 1975   4.909   0.493   8.540 -0.0919  0.5683  0.3373
  659SOL    HW1 1976   4.906   0.430   8.468  0.4867  0.0395  0.7702
  659SOL    HW2 1977   4.818   0.503   8.567 -0.3281  0.8281 -0.5097
  660SOL     OW 1978   2.337   0.305   6.152 -0.2693  0.9976  0.8920
  660SOL    HW1 1979   2.393   0.382   6.161 -1.5998  1.8218  2.6738
  660SOL    HW2 1980   2.333   0.267   6.240  0.7657 -1.4630 -0.0295
  661SOL     OW 1981   2.224   3.081   6.762  0.1148  0.2771 -0.2934
  661SOL    HW1 1982   2.258   3.104   6.849  0.0468  1.1717 -0.4947
  661SOL    HW2 1983   2.198   2.989   6.770  2.6424 -0.4860 -0.1437
  662SOL     OW 1984   3.029   1.554   6.310 -0.2303 -0.2729 -0.1753
  662SOL    HW1 1985   3.069   1.561   6.397  1.8073 -0.2131 -1.0721
  662SOL    HW2 1986   2.935   1.545   6.328 -0.2453  2.7099  1.9586
  663SOL     OW 1987   3.959   4.801   6.054 -0.1919 -0.4431  0.4090
  663SOL    HW1 1988   3.947   4.871   5.990 -0.4030 -1.7303 -1.0297
  663SOL    HW2 1989   3.882   4.745   6.044  0.9945 -2.0843 -0.1298
  664SOL     OW 1990   2.184   0.511   4.737 -0.7020 -0.2394  0.1703
  664SOL    HW1 1991   2.164   0.445   4.803 -0.5531 -1.6024 -1.1108
  664SOL    HW2 1992   2.211   0.461   4.660 -2.0542  1.2446 -1.3532
  665SOL     OW 1993   1.015   2.920   6.109  0.0728  0.2741 -0.3984
  665SOL    HW1 1994   1.016   2.947   6.017  1.8609  2.2488  0.1241
  665SOL    HW2 1995   1.091   2.963   6.147 -0.6513 -0.4654  2.0434
  666SOL     OW 1996   1.324   0.782   5.356  0.6241  0.0388 -0.6924
  666SOL    HW1 1997   1.261   0.723   5.315 -0.1965  0.9951 -0.8567
  666SOL    HW2 1998   1.408   0.760   5.315  0.4986 -1.5356 -0.1722
  667SOL     OW 1999   0.785   2.869   6.260 -0.5685  0.5993  0.1342
  667SOL    HW1 2000   0.860   2.924   6.240 -0.4865  1.2623  2.1186
  667SOL    HW2 2001   0.709   2.927   6.247 -0.4091  1.9812  4.1751
  668SOL     OW 2002   2.457   0.059   8.054  0.1656  0.0162  0.1651
  668SOL    HW1 2003   2.459  -0.020   7.999 -2.2047  0.4005 -0.5718
  668SOL    HW2 2004   2.524   0.116   8.016  0.5479 -0.8675 -0.5231
  669SOL     OW 2005   1.007   3.169   6.865  0.5838  0.0594  0.4251
  669SOL    HW1 2006   1.037   3.145   6.777  0.1119  0.1144  0.2459
  669SOL    HW2 2007   0.921   3.127   6.873  0.5117  0.2683  0.7583
  670SOL     OW 2008   4.794   3.258   6.150 -0.0596  0.2946 -0.1466
  670SOL    HW1 2009   4.814   3.346   6.120  1.6101  0.0869  0.2390
  670SOL    HW2 2010   4.702   3.261   6.174  0.0722  2.0634  0.2919
  671SOL     OW 2011   0.970   2.982   7.436 -0.1637 -0.3314 -0.0698
  671SOL    HW1 2012   0.996   3.060   7.387 -0.1046 -0.1170  0.2968
  671SOL    HW2 2013   0.888   2.955   7.396 -1.6736  1.5438  1.5482
  672SOL     OW 2014   4.059   0.478  10.174  0.4480  0.6167 -0.6651
  672SOL    HW1 2015   4.036   0.500  10.084  0.0794  0.3636 -0.6318
  672SOL    HW2 2016   4.150   0.447  10.168 -0.3628 -1.8819 -1.3656
  673SOL     OW 2017   4.606   0.282   5.066  0.0928 -0.0233  0.0394
  673SOL    HW1 2018   4.612   0.376   5.084 -1.5421  0.4631 -1.6285
  673SOL    HW2 2019   4.678   0.265   5.005 -0.4004  0.4707 -0.7054
  674SOL     OW 2020   1.057   3.517   7.391 -0.5325 -0.6432  0.1383
  674SOL    HW1 2021   1.034   3.427   7.412  0.4590 -1.2361 -1.1930
  674SOL    HW2 2022   1.147   3.512   7.359 -0.6250  0.7559 -0.3973
  675SOL     OW 2023   0.034   1.696   6.034  0.0691 -0.1880 -0.2596
  675SOL    HW1 2024  -0.051   1.699   6.076  1.6681 -1.4095  3.5125
  675SOL    HW2 2025   0.033   1.768   5.971 -2.7793  1.5659  1.5910
  676SOL     OW 2026   1.708   0.104   7.815 -0.3624  0.5620  0.2781
  676SOL    HW1 2027   1.746   0.179   7.769  0.7224 -0.5802 -0.7694
  676SOL    HW2 2028   1.727   0.029   7.758 -0.3136 -0.6957  1.8814
  677SOL     OW 2029   3.812   1.898   5.483  0.8100  0.0091 -0.2062
  677SOL    HW1 2030   3.813   1.803   5.477 -0.1292 -0.2564  2.5440
  677SOL    HW2 2031   3.768   1.927   5.403  0.0283 -1.9359 -0.5262
  678SOL     OW 2032   3.992   2.149   6.766  0.1331  0.6378  0.0745
  678SOL    HW1 2033   4.061   2.166   6.702  2.3737 -1.6077  1.6659
  678SOL    HW2 2034   4.022   2.192   6.846 -0.4899 -0.0475  0.6980
  679SOL     OW 2035   0.862   1.490   5.012 -0.7373  0.5885 -0.0923
  679SOL    HW1 2036   0.876   1.396   5.023  2.6340  0.9463 -0.3184
  679SOL    HW2 2037   0.833   1.500   4.921  3.1608 -0.0468 -1.5888
  680SOL     OW 2038   4.448   2.180   6.751 -0.2221 -0.5747  0.9866
  680SOL    HW1 2039   4.496   2.252   6.710 -0.5141 -0.3364  1.0551
  680SOL    HW2 2040   4.429   2.120   6.679  2.0486 -1.7678  1.2985
  681SOL     OW 2041   4.840   3.826   6.256  0.4997 -0.7213 -0.2291
  681SOL    HW1 2042   4.825   3.839   6.163  1.5315  0.3745 -0.2671
  681SOL    HW2 2043   4.929   3.791   6.262 -0.4478 -3.3236  0.2203
  682SOL     OW 2044   0.941   2.118   5.202 -0.1193  0.0087  0.0064
  682SOL    HW1 2045   0.951   2.122   5.107 -0.6894 -1.8034 -0.1704
  682SOL    HW2 2046   0.987   2.196   5.234  2.4697 -0.7204 -1.5786
  683SOL     OW 2047   4.741   4.965   6.911  0.2669 -0.4623 -0.1826
  683SOL    HW1 2048   4.661   4.965   6.964  0.5573 -1.3418  0.2640
  683SOL    HW2 2049   4.725   5.032   6.844  0.3341  1.4934  1.6514
  684SOL     OW 2050   2.549   2.819   6.650 -0.4736 -0.2498  0.5821
  684SOL    HW1 2051   2.529   2.868   6.731 -3.8666  0.6122 -0.5934
  684SOL    HW2 2052   2.479   2.754   6.644 -0.3582 -0.2217 -1.6897
  685SOL     OW 2053   4.706   4.892   5.205 -0.1182  0.3006  0.4220
  685SOL    HW1 2054   4.691   4.810   5.252  0.5730  0.3918  0.8171
  685SOL    HW2 2055   4.644   4.890   5.133 -2.3195  0.8463  2.1796
  686SOL     OW 2056   1.538   3.472   5.074 -0.2032 -0.2747  0.8494
  686SOL    HW1 2057   1.531   3.462   5.169  2.0087  1.3054  1.2479
  686SOL    HW2 2058   1.606   3.411   5.048 -0.8074 -0.7084  0.2559
  687SOL     OW 2059   4.805   4.611   5.284  0.0223 -0.5086 -0.6511
  687SOL    HW1 2060   4.817   4.530   5.334 -2.0436 -1.0171 -0.9256
  687SOL    HW2 2061   4.880   4.665   5.310 -0.8630 -0.7459  3.0282
  688SOL     OW 2062   1.444   2.790   6.937 -0.3693  0.3442 -0.3649
  688SOL    HW1 2063   1.409   2.766   7.023 -0.0997 -1.6917 -0.7903
  688SOL    HW2 2064   1.536   2.765   6.940 -0.6543 -0.9433 -1.6632
  689SOL     OW 2065   3.783   3.623   8.959  0.1795 -0.6710  0.7171
  689SOL    HW1 2066   3.727   3.650   8.887 -1.2889  1.3803  2.5104
  689SOL    HW2 2067   3.871   3.651   8.933 -0.1360 -0.9122 -0.6892
  690SOL     OW 2068   3.599   4.408   6.893  0.2648 -0.3154  0.4652
  690SOL    HW1 2069   3.563   4.333   6.941 -0.8291 -0.4060 -0.4695
  690SOL    HW2 2070   3.561   4.402   6.805 -1.9706  2.7280  1.0227
  691SOL     OW 2071   2.152   4.581   6.383  0.4944  0.0024 -0.7781
  691SOL    HW1 2072   2.228   4.536   6.420 -0.3352 -1.3121 -0.5835
  691SOL    HW2 2073   2.132   4.650   6.446  1.0030 -0.1984 -0.3916
  692SOL     OW 2074   0.091   1.297   6.356 -0.0546 -0.5883  0.4313
  692SOL    HW1 2075   0.030   1.322   6.287 -0.0537  0.2375  0.7135
  692SOL    HW2 2076   0.169   1.266   6.309  0.7273  1.8343 -0.0142
  693SOL     OW 2077   4.106   0.070   5.932 -0.3798  0.1593 -0.0995
  693SOL    HW1 2078   4.162   0.086   6.008  3.1167  0.9154 -2.6227
  693SOL    HW2 2079   4.114  -0.024   5.915 -0.2432  0.1924 -0.2151
  694SOL     OW 2080   1.137   0.948   6.582 -0.8558  0.0194  0.5948
  694SOL    HW1 2081   1.222   0.977   6.617 -1.6758  1.9426  1.1169
  694SOL    HW2 2082   1.143   0.852   6.582  0.7627  0.0615  2.0015
  695SOL     OW 2083   0.955   2.069   7.612  0.1395 -0.4826 -0.0724
  695SOL    HW1 2084   1.010   2.001   7.651 -0.7494 -1.7622 -0.9588
  695SOL    HW2 2085   0.915   2.027   7.536 -2.1773  0.3249  0.6223
  696SOL     OW 2086   1.575   0.250   6.763 -0.3070  0.3120 -0.2057
  696SOL    HW1 2087   1.670   0.256   6.763 -0.3154  1.3046 -2.2392
  696SOL    HW2 2088   1.545   0.341   6.760 -1.4302  0.1271  2.2535
  697SOL     OW 2089   4.757   3.196   6.908  0.6294  0.2098  0.4239
  697SOL    HW1 2090   4.806   3.127   6.864  0.7042  0.1166  0.6533
  697SOL    HW2 2091   4.783   3.189   6.999 -0.5349 -0.4861  0.7314
  698SOL     OW 2092   1.923   4.492   6.265  0.1373  0.3755  0.0334
  698SOL    HW1 2093   1.884   4.575   6.239 -0.4806 -0.8750 -3.7615
  698SOL    HW2 2094   2.009   4.515   6.300 -1.5735  2.7738  3.1286
  699SOL     OW 2095   3.667   2.662   7.426  0.1627 -0.1087  0.1774
  699SOL    HW1 2096   3.684   2.670   7.333 -1.6433  0.0757 -0.1780
  699SOL    HW2 2097   3.747   2.624   7.463  1.3117  0.8669 -1.2520
  700SOL     OW 2098   4.011   0.434   5.457  0.3030 -0.7106 -1.0803
  700SOL    HW1 2099   4.077   0.456   5.523 -1.2710 -1.4724  0.8657
  700SOL    HW2 2100   3.966   0.516   5.440 -1.8760 -1.1362  1.9084
  701SOL     OW 2101   4.444   3.481   5.328 -0.2777 -0.6850  0.0332
  701SOL    HW1 2102   4.521   3.446   5.284 -0.9227  0.0020 -1.7385
  701SOL    HW2 2103   4.477   3.552   5.383  0.1961  0.9395 -2.2267
  702SOL     OW 2104   0.793   3.899   5.598  0.4190 -0.3147  0.2339
  702SOL    HW1 2105   0.747   3.816   5.599 -0.3221  0.0856  0.8672
  702SOL    HW2 2106   0.801   3.922   5.505 -1.2987 -0.0642  0.1140
  703SOL     OW 2107   1.831   3.351   4.853 -0.0999 -0.1841 -0.1131
  703SOL    HW1 2108   1.795   3.326   4.939 -0.9885  0.1727 -0.3703
  703SOL    HW2 2109   1.911   3.300   4.846 -1.6505 -2.7725 -0.4585
  704SOL     OW 2110   4.771   2.383   5.314  0.7866  0.1994  0.4050
  704SOL    HW1 2111   4.766   2.296   5.352  0.5983  0.3045  0.6216
  704SOL    HW2 2112   4.855   2.385   5.268 -0.4763 -1.1412 -2.1943
  705SOL     OW 2113   0.887   3.403   7.089  0.7460  0.1571  0.3642
  705SOL    HW1 2114   0.965   3.417   7.036 -0.4665 -0.0189 -1.5361
  705SOL    HW2 2115   0.825   3.471   7.061  0.5384  1.0230  2.6318
  706SOL     OW 2116   0.428   2.852   6.570  0.5163 -0.1206  0.5416
  706SOL    HW1 2117   0.450   2.800   6.493 -2.4900  0.3729 -0.7861
  706SOL    HW2 2118   0.334   2.842   6.580  0.5610  1.2133  3.1726
  707SOL     OW 2119   0.016   4.777   5.398  0.6996 -0.1561  0.0913
  707SOL    HW1 2120   0.009   4.807   5.489  0.5541 -0.2825  0.1211
  707SOL    HW2 2121   0.110   4.775   5.381  0.8654 -2.3783  0.9753
  708SOL     OW 2122   1.489   3.733   5.709  0.3189 -0.5810  0.1291
  708SOL    HW1 2123   1.566   3.683   5.684  0.1414 -1.3552  1.0441
  708SOL    HW2 2124   1.484   3.721   5.804 -0.1675  0.5585  0.2535
  709SOL     OW 2125   3.173   3.990   5.647  0.6106  0.7586 -0.0725
  709SOL    HW1 2126   3.235   3.973   5.576 -0.1515  0.4925 -0.6891
  709SOL    HW2 2127   3.140   4.078   5.629  0.4273  0.6962 -0.0403
  710SOL     OW 2128   3.860   0.644   5.410 -0.3829  0.8765  0.3287
  710SOL    HW1 2129   3.793   0.643   5.478 -0.2822  1.3987  0.4349
  710SOL    HW2 2130   3.811   0.649   5.328 -0.6822 -2.5662  0.1221
  711SOL     OW 2131   4.866   3.636   6.755 -0.0782  0.5063  0.4532
  711SOL    HW1 2132   4.917   3.565   6.794  0.5264  1.7963  2.1203
  711SOL    HW2 2133   4.841   3.691   6.829 -0.9120  1.8024 -0.7433
  712SOL     OW 2134   0.910   1.637   6.591  0.2401 -0.0855  0.6519
  712SOL    HW1 2135   0.845   1.639   6.521  2.2928  1.8268 -1.3765
  712SOL    HW2 2136   0.883   1.706   6.652  0.1953  0.4995 -0.0262
  713SOL     OW 2137   1.572   1.922   6.300  0.5964 -0.3609 -0.4095
  713SOL    HW1 2138   1.490   1.971   6.297  0.4604 -0.3478  1.7072
  713SOL    HW2 2139   1.627   1.962   6.233 -0.8181  0.1804 -1.2877
  714SOL     OW 2140   2.284   3.273   7.577  0.4564  0.6408 -0.4707
  714SOL    HW1 2141   2.251   3.260   7.488  0.7972  2.9514 -1.0197
  714SOL    HW2 2142   2.360   3.330   7.565  0.2190  1.3840  1.3150
  715SOL     OW 2143   4.169   0.868   7.202  0.4843  0.1402  0.7385
  715SOL    HW1 2144   4.096   0.830   7.252 -1.9525  1.0975 -1.8350
  715SOL    HW2 2145   4.206   0.793   7.155 -0.0982 -0.0551  0.5809
  716SOL     OW 2146   2.020   4.501   5.030 -0.0583  0.0690 -0.0506
  716SOL    HW1 2147   1.986   4.437   4.967 -0.2408  1.5059 -1.4744
  716SOL    HW2 2148   2.091   4.455   5.075 -0.4226 -1.2490 -0.7735
  717SOL     OW 2149   3.845   0.280   7.443  0.7086  0.7443 -0.2698
  717SOL    HW1 2150   3.786   0.347   7.409  1.6021  0.3648 -2.7582
  717SOL    HW2 2151   3.811   0.198   7.407  1.8026  0.3364 -0.4240
  718SOL     OW 2152   1.564   1.481   5.768 -0.0185  0.6444 -0.3504
  718SOL    HW1 2153   1.523   1.445   5.689  2.3817 -0.0345 -1.3820
  718SOL    HW2 2154   1.619   1.552   5.735  0.2146  1.0497  0.8772
  719SOL     OW 2155   4.806   2.095   5.121  0.4815 -0.3898  0.4156
  719SOL    HW1 2156   4.799   2.134   5.034  1.8560 -1.7993 -0.3904
  719SOL    HW2 2157   4.878   2.142   5.163  0.6861 -0.5724  0.2749
  720SOL     OW 2158   0.029   3.537   5.819  0.0844  0.7546 -0.4181
  720SOL    HW1 2159  -0.040   3.473   5.802 -0.5661  1.4475 -0.4389
  720SOL    HW2 2160   0.106   3.503   5.773 -0.0707 -0.3262  0.0902
  721SOL     OW 2161   1.111   1.251   4.844 -0.2395  0.6084 -0.3743
  721SOL    HW1 2162   1.142   1.300   4.920  2.2952 -0.1352 -0.8293
  721SOL    HW2 2163   1.095   1.163   4.877 -4.0107  1.3588  0.2666
  722SOL     OW 2164   4.754   0.198   6.347  0.2317  0.2802 -0.1735
  722SOL    HW1 2165   4.799   0.159   6.272  2.5547 -2.6771  2.4813
  722SOL    HW2 2166   4.699   0.266   6.309  1.2400 -1.0112 -4.5095
  723SOL     OW 2167   3.351   3.557   7.484 -0.2641 -0.4322  0.0650
  723SOL    HW1 2168   3.409   3.631   7.465 -0.5824  0.9859  3.8239
  723SOL    HW2 2169   3.387   3.485   7.432  0.5870  2.0137 -3.1101
  724SOL     OW 2170   2.107   2.686   6.974 -0.3302  0.0759  0.5885
  724SOL    HW1 2171   2.122   2.735   7.055  0.8858  1.3957 -0.3987
  724SOL    HW2 2172   2.012   2.688   6.962 -0.2761  3.0306  0.1276
  725SOL     OW 2173   3.160   1.114   5.510 -0.3204  0.0072  0.0722
  725SOL    HW1 2174   3.122   1.190   5.464 -1.1418 -0.3410  0.1525
  725SOL    HW2 2175   3.220   1.152   5.573  1.0437  0.4892 -1.4547
  726SOL     OW 2176   1.251   4.736   5.866  0.1408 -0.6932  0.0276
  726SOL    HW1 2177   1.189   4.734   5.793  1.9242  2.2353 -1.7106
  726SOL    HW2 2178   1.210   4.793   5.931  0.2496 -0.2084 -0.3341
  727SOL     OW 2179   3.795   0.638   5.118  0.2312  0.0471  0.4886
  727SOL    HW1 2180   3.846   0.719   5.123  0.0383  0.1400  0.9940
  727SOL    HW2 2181   3.847   0.580   5.062  0.6236  0.3321  0.5579
  728SOL     OW 2182   0.031   4.604   7.197 -0.6901  0.1550 -0.0038
  728SOL    HW1 2183  -0.034   4.615   7.128  0.0664 -1.1432 -0.9647
  728SOL    HW2 2184   0.049   4.693   7.228 -0.4821  0.8615 -2.0204
  729SOL     OW 2185   2.798   3.325   6.785  0.9691  0.1831  0.0022
  729SOL    HW1 2186   2.817   3.273   6.863 -1.0888 -0.5051  0.1197
  729SOL    HW2 2187   2.728   3.385   6.814 -0.0089 -0.2645 -1.3530
  730SOL     OW 2188   3.044   2.755   7.636 -0.1118  0.8803 -0.0615
  730SOL    HW1 2189   2.953   2.732   7.655  0.1347 -0.7979 -0.6958
  730SOL    HW2 2190   3.040   2.807   7.556 -0.3611 -2.2663 -2.3000
  731SOL     OW 2191   1.216   1.269   5.156 -0.1960 -0.1441  0.1902
  731SOL    HW1 2192   1.232   1.237   5.245 -1.0196  1.5596  0.9986
  731SOL    HW2 2193   1.265   1.350   5.151 -0.6034  0.0532 -0.7328
  732SOL     OW 2194   0.076   2.587   4.626 -0.1883  0.4480  0.1324
  732SOL    HW1 2195   0.039   2.561   4.710 -0.2266 -0.8848 -0.2755
  732SOL    HW2 2196   0.013   2.558   4.561  0.3664  0.4656 -0.4260
  733SOL     OW 2197   0.760   2.191   8.306  0.0546  0.0326 -0.2299
  733SOL    HW1 2198   0.777   2.191   8.212 -1.9309 -1.1978 -0.6389
  733SOL    HW2 2199   0.777   2.101   8.334  0.9492  0.4620  0.6959
  734SOL     OW 2200   2.411   0.220   5.564  0.4962 -0.2808  0.0131
  734SOL    HW1 2201   2.388   0.297   5.513  0.5141 -1.8260 -2.4582
  734SOL    HW2 2202   2.507   0.224   5.572  0.5269 -0.2255 -0.3894
  735SOL     OW 2203   1.491   3.693   6.981  0.0986  0.2963  0.3167
  735SOL    HW1 2204   1.533   3.700   6.896 -1.0069  0.1279 -0.2653
  735SOL    HW2 2205   1.432   3.618   6.973 -0.6469  0.7934  0.9385
  736SOL     OW 2206   1.677   4.199   6.635 -0.2820  0.1790 -0.0035
  736SOL    HW1 2207   1.742   4.264   6.606 -1.6397  0.6522 -2.1598
  736SOL    HW2 2208   1.625   4.180   6.557 -1.1932 -2.0541  1.0627
  737SOL     OW 2209   1.694   3.347   8.226 -0.4162 -0.1763 -0.7637
  737SOL    HW1 2210   1.696   3.443   8.233 -0.3782 -0.1728 -0.8208
  737SOL    HW2 2211   1.634   3.319   8.296  0.0838 -0.1522 -0.3226
  738SOL     OW 2212   1.537   3.233   8.022  0.0510  0.2921  0.2162
  738SOL    HW1 2213   1.558   3.274   7.938  0.2532  0.8751  0.5430
  738SOL    HW2 2214   1.602   3.270   8.083  0.9613 -1.3532  0.2956
  739SOL     OW 2215   3.759   3.153   6.444 -0.1944 -0.1690  0.5020
  739SOL    HW1 2216   3.680   3.110   6.412 -0.6428 -1.0914  2.6502
  739SOL    HW2 2217   3.788   3.098   6.517  0.9365  1.5808  1.4341
  740SOL     OW 2218   0.460   2.855   5.994 -0.4132  0.5311 -0.1806
  740SOL    HW1 2219   0.475   2.884   5.904  1.6644  0.6407  0.1680
  740SOL    HW2 2220   0.490   2.928   6.048  0.8147 -0.5353  0.6278
  741SOL     OW 2221   0.592   0.055   7.612  0.4773 -0.4832 -0.0778
  741SOL    HW1 2222   0.513   0.029   7.564 -0.4927  2.7982 -0.4435
  741SOL    HW2 2223   0.569   0.043   7.704  0.6683 -2.3149 -0.2297
  742SOL     OW 2224   4.916   4.188   5.703 -0.3576 -0.5454  1.0527
  742SOL    HW1 2225   4.981   4.125   5.735  1.1546  1.5457  2.3896
  742SOL    HW2 2226   4.834   4.139   5.700  0.5974 -2.3778  2.6828
  743SOL     OW 2227   2.711   0.960   5.199 -0.6655  0.2057 -0.2282
  743SOL    HW1 2228   2.719   0.887   5.260  2.5066  0.3380 -0.3210
  743SOL    HW2 2229   2.628   1.001   5.222 -1.8366 -2.5135  0.7992
  744SOL     OW 2230   4.297   4.673   6.872 -0.0350  0.5592 -0.2613
  744SOL    HW1 2231   4.201   4.680   6.873 -0.0800 -0.0113 -0.5624
  744SOL    HW2 2232   4.320   4.645   6.961 -0.0801  1.4944  0.0560
  745SOL     OW 2233   0.949   1.280   6.353 -0.2799 -0.4968  0.8557
  745SOL    HW1 2234   0.945   1.184   6.363 -3.3288 -0.9022 -2.2085
  745SOL    HW2 2235   1.029   1.296   6.303  0.5634 -1.3306  1.8824
  746SOL     OW 2236   4.630   3.777   6.416 -0.1483 -0.3859 -0.5330
  746SOL    HW1 2237   4.577   3.845   6.375 -0.1014 -0.5942 -0.9446
  746SOL    HW2 2238   4.708   3.771   6.361 -0.0391 -0.6021 -0.3576
  747SOL     OW 2239   1.696   2.470   7.434 -0.4054  0.1019  0.1846
  747SOL    HW1 2240   1.694   2.416   7.355  0.0693  1.2807 -0.6503
  747SOL    HW2 2241   1.625   2.434   7.488 -1.9496  0.3959 -1.5302
  748SOL     OW 2242   1.215   2.073   7.015 -0.0609 -0.0048 -0.4071
  748SOL    HW1 2243   1.273   2.148   7.002 -2.7568  2.3258  0.2917
  748SOL    HW2 2244   1.190   2.047   6.926 -0.9228  1.4506 -0.6084
  749SOL     OW 2245   1.526   3.170   4.788  0.1960  0.0063 -0.1430
  749SOL    HW1 2246   1.544   3.106   4.719 -1.8521  0.8012 -1.5087
  749SOL    HW2 2247   1.604   3.225   4.790  0.4640 -0.2669 -1.6008
  750SOL     OW 2248   0.088   0.012   8.150  0.5534 -0.4039  0.0177
  750SOL    HW1 2249   0.048   0.097   8.131 -0.6649 -1.3632 -2.0673
  750SOL    HW2 2250   0.026  -0.052   8.116  2.4492 -2.0710 -0.4962
  751SOL     OW 2251   0.755   0.758   6.611  0.0580  0.2684 -0.4650
  751SOL    HW1 2252   0.766   0.851   6.631  0.4979  0.4979 -1.6673
  751SOL    HW2 2253   0.765   0.754   6.515  1.4636 -1.2173 -0.2849
  752SOL     OW 2254   1.911   0.650   4.995 -0.1172  0.5721 -0.2757
  752SOL    HW1 2255   1.934   0.738   4.968  0.2273  0.5817  0.0397
  752SOL    HW2 2256   1.979   0.594   4.956 -0.1931  0.4773 -0.2724
  753SOL     OW 2257   4.576   3.232   5.306 -0.8296  0.2101  0.0278
  753SOL    HW1 2258   4.633   3.169   5.349 -0.1844  0.2924 -0.6863
  753SOL    HW2 2259   4.527   3.180   5.242  0.0600  0.4915 -0.9093
  754SOL     OW 2260   2.009   4.196   5.436 -0.1547  0.1882  0.7314
  754SOL    HW1 2261   2.044   4.209   5.524  0.6441 -1.3099  0.6621
  754SOL    HW2 2262   2.004   4.101   5.425 -1.7563  0.3359 -0.2669
  755SOL     OW 2263   3.133   2.332   5.352  0.0953 -0.1438  0.1703
  755SOL    HW1 2264   3.220   2.318   5.315 -0.7285 -0.4123 -1.7920
  755SOL    HW2 2265   3.144   2.406   5.411  1.4761  0.4315 -0.7512
  756SOL     OW 2266   3.667   4.852   6.883 -0.2096 -0.5926 -0.0096
  756SOL    HW1 2267   3.608   4.821   6.815  1.1390 -0.1702 -1.4171
  756SOL    HW2 2268   3.754   4.847   6.844  0.4128  1.6021  0.9286
  757SOL     OW 2269   1.222   4.524   6.497 -0.5951 -0.2114  0.1931
  757SOL    HW1 2270   1.315   4.503   6.490 -0.1224  1.8402 -0.3343
  757SOL    HW2 2271   1.203   4.518   6.591 -0.6074 -3.0361  0.0942
  758SOL     OW 2272   1.919   0.379   5.886 -0.9822  0.9753  0.2987
  758SOL    HW1 2273   1.854   0.342   5.827 -0.2784  1.6017 -0.8959
  758SOL    HW2 2274   1.926   0.471   5.861  3.6216  0.1222 -2.8793
  759SOL     OW 2275   2.258   3.432   6.059 -0.2132 -0.1770  0.0615
  759SOL    HW1 2276   2.351   3.423   6.040 -0.4353  0.1920 -1.3182
  759SOL    HW2 2277   2.238   3.360   6.119  0.8695 -0.5104  0.0349
  760SOL     OW 2278   4.550   3.694   5.457 -0.2352 -0.1722  0.3841
  760SOL    HW1 2279   4.601   3.768   5.491 -1.0267  0.9357 -0.7369
  760SOL    HW2 2280   4.459   3.715   5.482 -0.6189 -0.1318 -0.9851
  761SOL     OW 2281   2.379   4.273   5.561  0.0938  0.2488  0.1469
  761SOL    HW1 2282   2.301   4.320   5.592 -1.0957 -1.3814 -0.2113
  761SOL    HW2 2283   2.452   4.332   5.578 -1.4289  2.7371 -1.3745
  762SOL     OW 2284   0.693   4.557   7.377  0.1382  0.0923  0.0316
  762SOL    HW1 2285   0.648   4.475   7.354 -1.5459  0.3911  1.9324
  762SOL    HW2 2286   0.629   4.626   7.359 -0.7896  0.4486  3.7768
  763SOL     OW 2287   2.129   2.349   7.199  0.3773  0.6608 -0.2794
  763SOL    HW1 2288   2.158   2.299   7.276 -0.1220  0.7440 -0.0331
  763SOL    HW2 2289   2.042   2.381   7.223 -0.4437 -0.5582 -1.4484
  764SOL     OW 2290   3.317   4.590   5.258 -0.5406 -0.2867 -0.0409
  764SOL    HW1 2291   3.409   4.608   5.276 -1.0574  1.9011  0.6392
  764SOL    HW2 2292   3.304   4.617   5.167 -0.3718 -1.2540 -0.3618
  765SOL     OW 2293   2.411   4.081   5.837  0.5014 -0.1009 -0.4606
  765SOL    HW1 2294   2.389   4.147   5.902  0.7289 -0.6414  0.1757
  765SOL    HW2 2295   2.506   4.086   5.827  0.4016  0.4448 -1.2705
  766SOL     OW 2296   4.418   1.512   5.102  0.5057  0.5000  0.5864
  766SOL    HW1 2297   4.472   1.577   5.057  0.2543  0.4310  0.1785
  766SOL    HW2 2298   4.460   1.428   5.081 -0.7063  0.2699 -1.1710
  767SOL     OW 2299   1.542   0.903   4.936  0.4645 -0.3081  0.4125
  767SOL    HW1 2300   1.473   0.893   4.871  2.5847  1.4225 -2.3540
  767SOL    HW2 2301   1.595   0.824   4.927  0.6511 -0.1547  0.1390
  768SOL     OW 2302   2.040   0.125   7.582 -0.7661  0.3867  0.3062
  768SOL    HW1 2303   1.985   0.184   7.635 -2.2815  0.6703 -1.4461
  768SOL    HW2 2304   2.038   0.164   7.494  0.5670 -0.7573 -0.2662
  769SOL     OW 2305   4.296   0.080   9.174  0.2427  0.4086 -0.0297
  769SOL    HW1 2306   4.267   0.043   9.257 -1.1199 -0.8317 -1.0190
  769SOL    HW2 2307   4.249   0.164   9.168  1.0996  0.9853  0.8617
  770SOL     OW 2308   4.330   0.964   6.468  0.2619  0.8591  0.0448
  770SOL    HW1 2309   4.239   0.989   6.453  1.1222  2.5810 -3.0340
  770SOL    HW2 2310   4.376   1.047   6.478  1.7206  0.0515  0.2108
  771SOL     OW 2311   1.322   0.783   6.018 -0.3766  0.2115  0.1130
  771SOL    HW1 2312   1.282   0.842   5.954 -0.9953 -0.7005 -0.3700
  771SOL    HW2 2313   1.413   0.812   6.025 -0.6871  1.2545 -0.0588
  772SOL     OW 2314   4.444   3.580   5.716  0.3209 -0.1492  0.4073
  772SOL    HW1 2315   4.372   3.640   5.737  0.2236  0.1487 -0.7214
  772SOL    HW2 2316   4.407   3.522   5.649  0.8357 -0.6172  0.5253
  773SOL     OW 2317   3.081   1.810   6.121 -0.2602 -0.2935  0.2895
  773SOL    HW1 2318   3.160   1.864   6.128 -1.5760  1.6697  1.0858
  773SOL    HW2 2319   3.086   1.752   6.196  0.0940  0.3253  0.7611
  774SOL     OW 2320   0.495   2.592   4.793 -0.2148  0.0176  0.3329
  774SOL    HW1 2321   0.576   2.627   4.755 -0.1289 -0.2314  0.2881
  774SOL    HW2 2322   0.425   2.633   4.742 -0.1342  0.6235  0.6994
  775SOL     OW 2323   1.351   0.535   5.692 -0.7787 -0.1028  1.1457
  775SOL    HW1 2324   1.271   0.574   5.729 -3.3197 -3.6272 -0.0996
  775SOL    HW2 2325   1.371   0.589   5.616 -2.1289  0.7097  1.3275
  776SOL     OW 2326   0.412   2.784   6.245  0.8031 -0.1006 -0.0686
  776SOL    HW1 2327   0.387   2.692   6.254  1.0079 -0.0432  1.2196
  776SOL    HW2 2328   0.455   2.788   6.159  0.5369 -1.1384 -0.2742
  777SOL     OW 2329   0.764   4.841   5.102 -0.3153  0.6213 -0.0242
  777SOL    HW1 2330   0.852   4.831   5.138 -1.4516 -1.8942  2.4235
  777SOL    HW2 2331   0.767   4.798   5.017  0.2729 -1.7408  1.1319
  778SOL     OW 2332   4.380   2.563   5.988  0.7999  0.4888  0.2120
  778SOL    HW1 2333   4.468   2.525   5.994  0.9092  0.7958  0.6616
  778SOL    HW2 2334   4.321   2.489   6.002  0.9927  0.3203  0.1387
  779SOL     OW 2335   2.760   2.947   7.756  0.1397  0.2691  0.3753
  779SOL    HW1 2336   2.708   2.918   7.681  2.1162 -0.9572 -0.5990
  779SOL    HW2 2337   2.759   2.872   7.816 -2.2744  1.5849  2.1803
  780SOL     OW 2338   2.384   4.000   7.190  0.6439  0.2656 -0.2998
  780SOL    HW1 2339   2.439   3.959   7.257  1.3265  0.9476 -0.4190
  780SOL    HW2 2340   2.446   4.021   7.120  0.1649  0.7425 -0.5824
  781SOL     OW 2341   1.213   0.885   5.570  0.8088 -0.0177  0.0454
  781SOL    HW1 2342   1.178   0.812   5.620  1.6285 -0.4015  0.0724
  781SOL    HW2 2343   1.272   0.844   5.506  0.9713  0.5832 -0.1955
  782SOL     OW 2344   3.275   0.231   6.187 -0.1276  0.5756 -0.3639
  782SOL    HW1 2345   3.267   0.326   6.188  0.5047  0.6768 -2.1766
  782SOL    HW2 2346   3.310   0.210   6.101  0.1639 -1.2802  0.1555
  783SOL     OW 2347   0.279   3.458   5.699 -0.2908  0.4543  0.0027
  783SOL    HW1 2348   0.291   3.516   5.624  0.4117 -0.6473 -0.7732
  783SOL    HW2 2349   0.368   3.442   5.732 -0.6548  1.9405  1.9215
  784SOL     OW 2350   2.140   3.100   5.513  0.1029  0.6870  0.5203
  784SOL    HW1 2351   2.137   3.036   5.584  0.7957  0.1803  0.0966
  784SOL    HW2 2352   2.106   3.180   5.552  0.2148  0.3372  1.3508
  785SOL     OW 2353   0.359   0.658   7.994 -0.0681 -0.7061 -0.3666
  785SOL    HW1 2354   0.284   0.713   7.969  1.5814  1.8302 -0.0475
  785SOL    HW2 2355   0.423   0.672   7.924  0.7442 -1.5315  0.1890
  786SOL     OW 2356   0.762   1.025   6.933  0.4318  0.0305  0.3128
  786SOL    HW1 2357   0.713   0.943   6.932  1.6762 -0.7392  0.7366
  786SOL    HW2 2358   0.794   1.036   6.844  0.1900  0.1055  0.2348
  787SOL     OW 2359   3.820   3.764   4.972  0.4698  0.1677  0.7292
  787SOL    HW1 2360   3.866   3.694   4.926  0.5196  0.4998  0.2686
  787SOL    HW2 2361   3.874   3.842   4.958  0.1573  0.4027  0.8212
  788SOL     OW 2362   0.255   0.638   9.758  0.4077  0.1827 -0.7361
  788SOL    HW1 2363   0.320   0.631   9.688  3.3972 -3.6099  1.9344
  788SOL    HW2 2364   0.305   0.663   9.835 -1.1740 -2.7389  1.4507
  789SOL     OW 2365   1.918   1.149   5.934 -0.1911 -0.4932 -0.3577
  789SOL    HW1 2366   2.004   1.181   5.907 -0.6181  0.0683 -1.0888
  789SOL    HW2 2367   1.890   1.210   6.002 -1.3168  1.2281 -2.2430
  790SOL     OW 2368   1.524   1.284   5.979 -0.0004 -0.9649  0.0457
  790SOL    HW1 2369   1.548   1.338   5.904  2.3445  0.7241  1.8266
  790SOL    HW2 2370   1.463   1.338   6.029 -0.0058 -1.2213  0.3157
  791SOL     OW 2371   0.967   2.209   6.783  0.4413 -0.1749  0.4127
  791SOL    HW1 2372   1.025   2.259   6.725 -1.0097  1.0832 -0.0146
  791SOL    HW2 2373   0.881   2.248   6.771 -0.2939 -1.2084  1.9344
  792SOL     OW 2374   1.080   2.377   9.594 -0.1614  0.0215  0.1408
  792SOL    HW1 2375   1.125   2.452   9.554  0.3604  0.1029  0.8584
  792SOL    HW2 2376   1.012   2.354   9.531  0.2396  0.5389 -0.4988
  793SOL     OW 2377   1.144   3.826   7.209  0.1052 -0.6720  0.7571
  793SOL    HW1 2378   1.078   3.894   7.214  0.4596 -0.1936 -0.6251
  793SOL    HW2 2379   1.188   3.841   7.125  0.7505 -2.0821  0.8113
  794SOL     OW 2380   3.766   1.658   7.418  0.5887  0.2314  0.7778
  794SOL    HW1 2381   3.789   1.592   7.353  0.4645  1.9797 -1.1218
  794SOL    HW2 2382   3.700   1.713   7.375  0.1704  1.2031  2.5441
  795SOL     OW 2383   2.384   0.824   6.647  0.3556  0.3407 -1.0078
  795SOL    HW1 2384   2.347   0.818   6.735 -0.9686  0.0541 -1.5590
  795SOL    HW2 2385   2.446   0.897   6.652 -1.2509  1.7182 -0.3596
  796SOL     OW 2386   0.674   3.186   5.127  0.1298 -0.3286  0.0476
  796SOL    HW1 2387   0.703   3.168   5.217 -1.8162  2.6863  1.4550
  796SOL    HW2 2388   0.624   3.108   5.102 -1.2084 -0.3929  2.5524
  797SOL     OW 2389   0.212   2.300   6.885 -0.1464  0.2586  0.2790
  797SOL    HW1 2390   0.130   2.330   6.846  0.4465  1.3951 -0.1359
  797SOL    HW2 2391   0.187   2.224   6.937 -0.8647 -1.8676 -2.8983
  798SOL     OW 2392   2.753   4.848   9.763 -0.3398  0.1064 -0.3922
  798SOL    HW1 2393   2.780   4.902   9.688 -0.3022  0.3702 -0.1903
  798SOL    HW2 2394   2.812   4.875   9.834 -1.0191  0.5772  0.0087
  799SOL     OW 2395   3.839   1.412   7.934 -0.0456 -0.4143 -0.8868
  799SOL    HW1 2396   3.783   1.363   7.874 -1.3557  0.6081 -0.5385
  799SOL    HW2 2397   3.915   1.355   7.948 -1.3914 -2.2425 -0.6721
  800SOL     OW 2398   1.596   2.812   7.314 -0.5939 -0.2993 -0.0267
  800SOL    HW1 2399   1.519   2.865   7.290 -0.0681  1.0042  1.0764
  800SOL    HW2 2400   1.574   2.776   7.400 -0.0294 -0.0623  0.2141
  801SOL     OW 2401   1.122   1.123   9.977 -0.1823  0.1357  0.4864
  801SOL    HW1 2402   1.153   1.170  10.055 -0.9836 -0.3449  1.1177
  801SOL    HW2 2403   1.186   1.143   9.910 -0.2993  1.8305  0.8297
  802SOL     OW 2404   4.750   1.448   8.401  0.3698  0.0888 -0.7198
  802SOL    HW1 2405   4.716   1.367   8.364 -0.8764  0.5142 -0.5746
  802SOL    HW2 2406   4.675   1.486   8.448  0.9474  1.2686 -0.7115
  803SOL     OW 2407   1.885   0.915   7.917 -0.0569  0.2057 -0.6966
  803SOL    HW1 2408   1.812   0.935   7.975 -0.0169  1.0491 -0.9171
  803SOL    HW2 2409   1.954   0.884   7.975 -0.4219 -0.1249 -0.4329
  804SOL     OW 2410   3.543   4.650   9.827  0.0732  0.0535  0.2289
  804SOL    HW1 2411   3.616   4.627   9.769 -0.1579 -0.4132  0.1121
  804SOL    HW2 2412   3.468   4.605   9.789 -0.2260  0.3320  0.4861
  805SOL     OW 2413   1.737   3.821   8.432  0.3044  0.3078  0.2651
  805SOL    HW1 2414   1.720   3.806   8.339  0.5759  1.1646  0.0681
  805SOL    HW2 2415   1.744   3.733   8.470  0.3414 -0.0458 -0.5476
  806SOL     OW 2416   4.827   0.717   7.353 -0.2740 -0.1673  0.9842
  806SOL    HW1 2417   4.886   0.652   7.315  0.3363  0.5409  0.7047
  806SOL    HW2 2418   4.805   0.776   7.280 -3.1532 -1.6726  0.4917
  807SOL     OW 2419   3.995   3.192   9.904 -0.2228  0.1123  0.4015
  807SOL    HW1 2420   3.916   3.225   9.946 -1.6936  0.5195 -2.4447
  807SOL    HW2 2421   4.067   3.229   9.955 -1.8353  2.4651  1.1240
  808SOL     OW 2422   2.501   1.229   5.634 -1.1814  0.2509 -0.4208
  808SOL    HW1 2423   2.411   1.212   5.659 -0.7444 -1.7202 -0.0007
  808SOL    HW2 2424   2.522   1.159   5.572  0.4204 -0.0647  0.4291
  809SOL     OW 2425   4.218   4.951   9.399  0.1807 -0.1153  0.0201
  809SOL    HW1 2426   4.307   4.944   9.434  1.1898  3.1653 -1.4965
  809SOL    HW2 2427   4.161   4.951   9.476  1.4077 -2.1315  1.0304
  810SOL     OW 2428   4.811   0.404   8.029  0.0899 -0.6516  0.1441
  810SOL    HW1 2429   4.750   0.463   7.984 -0.5209 -1.5221 -0.2126
  810SOL    HW2 2430   4.778   0.316   8.007 -0.7066 -1.1326  2.9302
  811SOL     OW 2431   0.892   3.538   8.208  0.1964 -0.2760 -0.6544
  811SOL    HW1 2432   0.846   3.582   8.136 -3.9851 -0.2053  1.7004
  811SOL    HW2 2433   0.849   3.452   8.214  1.1557 -0.6828  1.0984
  812SOL     OW 2434   1.068   2.619   6.213  0.6672 -0.4841  0.1597
  812SOL    HW1 2435   1.067   2.697   6.268  3.1869 -1.7651  2.2348
  812SOL    HW2 2436   1.020   2.644   6.134  1.0506  3.0033  0.8924
  813SOL     OW 2437   4.942   1.956   7.320  0.2733 -0.6310 -0.0568
  813SOL    HW1 2438   5.007   1.894   7.352  0.7665 -0.1785 -0.1617
  813SOL    HW2 2439   4.859   1.923   7.353  0.4382 -1.7349 -0.7026
  814SOL     OW 2440   4.533   3.356   9.852  0.2434 -0.3290 -0.0973
  814SOL    HW1 2441   4.590   3.282   9.832  1.5576  0.4432  0.6447
  814SOL    HW2 2442   4.446   3.328   9.825  1.0554 -1.3323 -1.7861
  815SOL     OW 2443   0.231   2.529   8.130 -0.8032 -0.0198  0.2079
  815SOL    HW1 2444   0.269   2.609   8.093  2.1842 -2.1880 -1.7693
  815SOL    HW2 2445   0.296   2.461   8.114 -3.4581 -3.0487  1.2523
  816SOL     OW 2446   1.129   0.305   5.105 -0.5466 -0.3131 -0.1477
  816SOL    HW1 2447   1.127   0.247   5.029 -1.9231 -0.0672 -0.3181
  816SOL    HW2 2448   1.177   0.255   5.172 -1.5263 -1.5766 -0.3521
  817SOL     OW 2449   2.641   0.371   6.800 -0.4128 -0.0151  0.2941
  817SOL    HW1 2450   2.693   0.324   6.735 -1.8494 -0.9338 -0.2360
  817SOL    HW2 2451   2.614   0.452   6.756  0.0806  0.1950  0.3744
  818SOL     OW 2452   2.830   3.043   8.764 -0.0394 -0.1260 -0.3781
  818SOL    HW1 2453   2.917   3.079   8.780  0.0758 -0.2606 -0.6979
  818SOL    HW2 2454   2.842   2.948   8.767  0.1044 -0.1768 -1.8171
  819SOL     OW 2455   0.977   2.374   8.124 -0.4036  0.0236  0.2620
  819SOL    HW1 2456   1.065   2.352   8.095 -0.8368 -0.7238 -0.5338
  819SOL    HW2 2457   0.929   2.291   8.123 -1.1999  0.4668  0.3669
  820SOL     OW 2458   3.959   4.064   8.789  0.6357  0.2162 -0.3114
  820SOL    HW1 2459   4.045   4.106   8.785  0.0136  1.4584 -1.8550
  820SOL    HW2 2460   3.978   3.971   8.802  2.0971  0.7452  2.1096
  821SOL     OW 2461   1.731   3.056   5.245 -0.5630 -0.1242  0.1144
  821SOL    HW1 2462   1.670   3.026   5.313 -1.4810  0.3461 -0.4777
  821SOL    HW2 2463   1.808   3.001   5.257 -1.5358 -1.5579  0.1607
  822SOL     OW 2464   3.672   3.917   6.356  0.4277 -0.7156  1.0192
  822SOL    HW1 2465   3.670   3.826   6.327 -0.6322 -0.1356 -0.9162
  822SOL    HW2 2466   3.764   3.941   6.356  0.5330 -0.9995 -1.2070
  823SOL     OW 2467   1.081   1.426   7.108  0.4468  0.1589  0.1491
  823SOL    HW1 2468   1.112   1.426   7.017  3.6384 -2.6099  1.0222
  823SOL    HW2 2469   1.161   1.431   7.161 -1.2234  0.4945  2.8176
  824SOL     OW 2470   2.740   4.367   7.060  0.0121 -0.0335 -0.0752
  824SOL    HW1 2471   2.650   4.359   7.093 -1.0714  0.7709 -2.5761
  824SOL    HW2 2472   2.774   4.445   7.103 -1.7612  1.6612 -1.5237
  825SOL     OW 2473   0.123   0.402   7.037 -0.4336  0.5560  0.4406
  825SOL    HW1 2474   0.185   0.330   7.046  0.5306  1.6368  4.4361
  825SOL    HW2 2475   0.038   0.360   7.030  0.4294 -0.9263 -3.3257
  826SOL     OW 2476   0.829   2.800   8.880  0.3429  0.3992  0.1362
  826SOL    HW1 2477   0.868   2.887   8.880 -0.3704  0.7368  1.4049
  826SOL    HW2 2478   0.833   2.771   8.971 -0.2682 -0.5169 -0.1085
  827SOL     OW 2479   0.468   1.647   9.253  0.3845 -0.1136 -0.5731
  827SOL    HW1 2480   0.549   1.615   9.212  0.9168 -0.3324  0.6070
  827SOL    HW2 2481   0.400   1.630   9.188  0.9095 -2.1001 -0.6512
  828SOL     OW 2482   2.981   2.947   9.385  0.1072  0.4939 -0.3943
  828SOL    HW1 2483   2.983   3.011   9.314  0.4379  0.9350  0.0078
  828SOL    HW2 2484   2.911   2.977   9.443  0.7332  0.9056  0.1657
  829SOL     OW 2485   2.796   3.255   7.746  0.5839 -0.5836  0.2250
  829SOL    HW1 2486   2.726   3.268   7.809  0.5583 -0.4562  0.1696
  829SOL    HW2 2487   2.788   3.163   7.721 -2.2813  0.3485 -3.0065
  830SOL     OW 2488   0.295   0.254   7.408 -1.0682  0.3653 -0.0261
  830SOL    HW1 2489   0.253   0.310   7.473  0.2787  0.2990  0.9448
  830SOL    HW2 2490   0.317   0.312   7.335 -3.2034  0.3129 -0.7663
  831SOL     OW 2491   4.872   0.284   6.576  0.0991 -0.0619 -0.3402
  831SOL    HW1 2492   4.795   0.262   6.522  0.2536  3.2242 -2.1172
  831SOL    HW2 2493   4.944   0.238   6.533 -0.5130 -1.4679  0.0809
  832SOL     OW 2494   4.686   0.333   5.901  0.3248  0.4823 -0.3243
  832SOL    HW1 2495   4.597   0.329   5.935  0.4128 -0.0574 -0.1468
  832SOL    HW2 2496   4.683   0.286   5.818  0.0650  1.9800 -1.1929
  833SOL     OW 2497   1.289   2.276   8.163 -0.0776  0.2322  0.4468
  833SOL    HW1 2498   1.378   2.267   8.199  0.4309 -0.3097 -0.8680
  833SOL    HW2 2499   1.259   2.185   8.152 -0.4752  0.3974  0.1420
  834SOL     OW 2500   2.932   3.897   6.553 -0.0366 -0.2236 -0.0160
  834SOL    HW1 2501   2.843   3.882   6.521 -0.5138 -4.2588  2.4560
  834SOL    HW2 2502   2.989   3.867   6.482 -0.7421 -0.0711 -0.6528
  835SOL     OW 2503   3.430   4.039   8.162  0.2491 -0.0024 -0.3556
  835SOL    HW1 2504   3.401   4.027   8.071 -0.7245 -0.0062 -0.0599
  835SOL    HW2 2505   3.490   3.966   8.178 -3.1839 -2.9265  0.4508
  836SOL     OW 2506   4.412   0.097   8.648  0.3346 -0.1519  0.0750
  836SOL    HW1 2507   4.382   0.028   8.707  0.9940  1.4010  2.3714
  836SOL    HW2 2508   4.335   0.120   8.595 -0.7731 -0.4772  1.4993
  837SOL     OW 2509   0.737   4.860   6.398  0.0413 -0.9323  0.3374
  837SOL    HW1 2510   0.829   4.863   6.423  0.5154 -0.0103 -1.3612
  837SOL    HW2 2511   0.726   4.933   6.338 -2.0584 -0.3942  1.2556
  838SOL     OW 2512   4.721   4.143   8.442 -0.0446  0.5275 -0.2449
  838SOL    HW1 2513   4.740   4.234   8.419 -0.7882  1.0133  0.9961
  838SOL    HW2 2514   4.798   4.094   8.411 -0.0879  1.4131 -1.8323
  839SOL     OW 2515   1.398   3.810   7.695 -0.1526  0.2613  0.4819
  839SOL    HW1 2516   1.488   3.796   7.667 -0.5097 -1.0597 -0.1281
  839SOL    HW2 2517   1.350   3.829   7.614 -0.2707  1.9422  0.9176
  840SOL     OW 2518   1.459   2.969   5.889 -0.7467  0.1024  0.6668
  840SOL    HW1 2519   1.448   2.885   5.933  0.7178 -0.4184  0.1064
  840SOL    HW2 2520   1.373   2.988   5.851 -1.3683 -0.6228  1.6663
  841SOL     OW 2521   2.211   2.780   6.745  0.5361 -0.0194 -0.2760
  841SOL    HW1 2522   2.266   2.709   6.710  0.7978  0.0104  0.0717
  841SOL    HW2 2523   2.185   2.749   6.832  1.8290  0.9277  0.4673
  842SOL     OW 2524   2.978   4.374   9.216 -0.1185 -0.2075  0.3107
  842SOL    HW1 2525   2.995   4.468   9.210  0.8218 -0.3055  1.3126
  842SOL    HW2 2526   2.884   4.368   9.235 -0.1036  0.5356  0.6434
  843SOL     OW 2527   3.160   4.651   8.014  0.7233  0.2109  0.0161
  843SOL    HW1 2528   3.187   4.714   7.948 -1.2212  3.1660  1.7430
  843SOL    HW2 2529   3.217   4.669   8.089 -0.7898  1.0879  1.0273
  844SOL     OW 2530   2.658   3.811   4.657 -0.3992  0.0201 -0.3450
  844SOL    HW1 2531   2.657   3.894   4.704  2.1048  1.0047 -1.8095
  844SOL    HW2 2532   2.598   3.825   4.584 -0.5609  0.2739 -0.1659
  845SOL     OW 2533   2.922   4.742   7.513 -0.5401  0.4302 -0.0167
  845SOL    HW1 2534   2.955   4.690   7.587 -0.0272 -1.0149 -1.2172
  845SOL    HW2 2535   2.859   4.686   7.470  1.6520 -0.2152 -2.6833
  846SOL     OW 2536   4.125   4.904   7.540  0.2033 -0.1443 -0.1740
  846SOL    HW1 2537   4.041   4.860   7.537 -0.8617  1.7796 -0.3991
  846SOL    HW2 2538   4.135   4.932   7.631 -0.5069  1.5317 -0.5648
  847SOL     OW 2539   4.858   3.239   7.802 -0.3436 -0.5622 -0.4804
  847SOL    HW1 2540   4.811   3.232   7.885  0.1576  2.7471  0.2400
  847SOL    HW2 2541   4.893   3.328   7.802 -0.6327 -0.2581 -4.4299
  848SOL     OW 2542   3.585   0.448   8.329  0.1290 -0.0905 -0.3742
  848SOL    HW1 2543   3.626   0.363   8.344  1.7932  0.8833  0.7945
  848SOL    HW2 2544   3.628   0.507   8.390 -1.7189  1.4068 -0.4263
  849SOL     OW 2545   4.404   4.097   8.024 -0.3044 -0.4829 -0.5677
  849SOL    HW1 2546   4.419   4.189   8.003  3.1139 -0.3648  1.6460
  849SOL    HW2 2547   4.356   4.098   8.107  0.6853 -0.6507  0.0166
  850SOL     OW 2548   4.338   2.671   7.922  0.0162  0.4637  0.1511
  850SOL    HW1 2549   4.337   2.575   7.932  1.2875  0.6250  2.3580
  850SOL    HW2 2550   4.418   2.690   7.874 -0.0446  0.4496  0.0437
  851SOL     OW 2551   0.098   1.404   9.630  0.1750  0.6453  0.0611
  851SOL    HW1 2552   0.068   1.380   9.718 -1.3397  1.4903 -0.2017
  851SOL    HW2 2553   0.125   1.495   9.637 -0.0685  0.7536 -0.3917
  852SOL     OW 2554   4.362   2.846   7.657  0.5934 -0.8872  0.0093
  852SOL    HW1 2555   4.456   2.844   7.672  0.6258  0.6802  0.1838
  852SOL    HW2 2556   4.350   2.913   7.589 -0.3843 -1.1390 -0.0817
  853SOL     OW 2557   3.607   2.190   8.333  0.3530  0.9620  0.2557
  853SOL    HW1 2558   3.615   2.225   8.422  5.2908 -2.5977  1.6474
  853SOL    HW2 2559   3.687   2.220   8.289  0.3246 -1.1604 -1.3677
  854SOL     OW 2560   1.288   4.877   8.697  1.0712  0.1914 -0.9320
  854SOL    HW1 2561   1.290   4.971   8.713 -0.0370 -0.2084  2.6895
  854SOL    HW2 2562   1.209   4.847   8.743  1.6764 -2.5596 -1.4784
  855SOL     OW 2563   2.388   4.868   5.114 -0.4516  0.2640  0.3947
  855SOL    HW1 2564   2.482   4.856   5.100 -0.4532 -0.1438  0.7081
  855SOL    HW2 2565   2.382   4.945   5.169 -0.4119  1.4941 -1.2352
  856SOL     OW 2566   3.280   0.494   7.943  0.6746  0.0222 -0.3805
  856SOL    HW1 2567   3.330   0.528   8.017  2.2966 -2.4485 -0.2482
  856SOL    HW2 2568   3.298   0.555   7.872  2.0759  0.3956  0.2717
  857SOL     OW 2569   1.149   2.847   7.157  0.0453 -0.3286  0.4898
  857SOL    HW1 2570   1.111   2.770   7.198 -3.4344 -0.4290 -2.4537
  857SOL    HW2 2571   1.090   2.919   7.182  0.3766  0.4085 -0.7598
  858SOL     OW 2572   4.599   1.275  10.703  0.0091  0.4908  0.1324
  858SOL    HW1 2573   4.534   1.251  10.769 -0.3456  0.1769 -0.3238
  858SOL    HW2 2574   4.607   1.197  10.648 -0.8237  1.2510 -1.1097
  859SOL     OW 2575   2.563   2.324   6.163  0.0221  0.0212 -0.6730
  859SOL    HW1 2576   2.542   2.234   6.190  1.4740 -0.9939 -2.6580
  859SOL    HW2 2577   2.659   2.326   6.160  0.0096  0.5610 -3.8028
  860SOL     OW 2578   4.550   2.556   5.295  0.4875  0.0940  0.1777
  860SOL    HW1 2579   4.615   2.486   5.301  1.6124  1.1837  1.2740
  860SOL    HW2 2580   4.589   2.619   5.234  0.5483  0.8151  0.9432
  861SOL     OW 2581   4.649   1.491   5.914 -0.3281 -0.1073 -0.2435
  861SOL    HW1 2582   4.567   1.494   5.866 -0.8651  1.0769  0.7190
  861SOL    HW2 2583   4.628   1.444   5.995 -0.5450  1.8133  0.8542
  862SOL     OW 2584   2.752   2.267   8.416  0.1310  0.4122 -0.3936
  862SOL    HW1 2585   2.788   2.344   8.373 -2.2599  1.3851 -0.8484
  862SOL    HW2 2586   2.770   2.281   8.509  0.3060  1.1936 -0.5336
  863SOL     OW 2587   2.220   1.197   6.852  0.4464 -0.4795 -0.0467
  863SOL    HW1 2588   2.234   1.156   6.937  0.5695 -0.7460 -0.1933
  863SOL    HW2 2589   2.303   1.184   6.805  0.7060  0.4932  0.1309
  864SOL     OW 2590   0.802   2.298   7.701 -0.6393  0.1096 -0.1533
  864SOL    HW1 2591   0.838   2.214   7.672  0.9558  0.1973  1.4466
  864SOL    HW2 2592   0.835   2.361   7.637 -0.1852 -0.2069 -0.2357
  865SOL     OW 2593   4.491   1.993   7.479  0.5568 -0.8636  0.0196
  865SOL    HW1 2594   4.403   2.031   7.473 -0.4258 -2.8647  0.8864
  865SOL    HW2 2595   4.509   1.959   7.391  0.4969 -0.3999 -0.1749
  866SOL     OW 2596   1.690   1.671   5.535 -0.3817  0.2846 -0.9240
  866SOL    HW1 2597   1.753   1.600   5.549 -1.4256 -0.4326  0.3396
  866SOL    HW2 2598   1.726   1.745   5.583 -0.0574  0.1607 -0.9718
  867SOL     OW 2599   4.040   3.327   8.082  0.4122 -0.0550  0.4899
  867SOL    HW1 2600   4.007   3.348   8.169  0.6938  1.9744  0.1519
  867SOL    HW2 2601   4.074   3.238   8.091 -1.6549 -0.7954  1.8178
  868SOL     OW 2602   3.896   2.446   9.572  0.3465  0.3297 -0.2723
  868SOL    HW1 2603   3.938   2.530   9.552 -2.4624  1.7053 -0.8477
  868SOL    HW2 2604   3.879   2.449   9.666  2.1295 -0.6006  0.1323
  869SOL     OW 2605   2.187   1.801   8.205 -0.0356  0.0434  0.1048
  869SOL    HW1 2606   2.159   1.871   8.145  1.3735  0.5068 -0.0401
  869SOL    HW2 2607   2.223   1.733   8.148 -0.9423 -0.6036  0.2815
  870SOL     OW 2608   0.061   2.210   5.866  0.4800 -0.5950  0.5295
  870SOL    HW1 2609   0.097   2.299   5.861 -0.1796 -0.3734 -0.7509
  870SOL    HW2 2610   0.136   2.155   5.889  1.6401 -0.1149 -1.8198
  871SOL     OW 2611   4.251   1.189   7.670 -0.6939 -0.3864 -0.1412
  871SOL    HW1 2612   4.219   1.099   7.676  0.3769 -0.8715 -1.2010
  871SOL    HW2 2613   4.344   1.179   7.650 -0.4863  0.9671  0.0978
  872SOL     OW 2614   3.644   1.374   6.830 -0.1866  0.4114  1.2493
  872SOL    HW1 2615   3.731   1.388   6.868  0.8577 -0.5661 -0.6721
  872SOL    HW2 2616   3.610   1.462   6.816  2.2297  1.0627 -1.6571
  873SOL     OW 2617   1.847   3.798   8.990 -0.3563 -0.2348 -0.1926
  873SOL    HW1 2618   1.852   3.719   9.044  0.2452 -0.6334 -0.8196
  873SOL    HW2 2619   1.757   3.799   8.958 -0.4889 -0.4256  0.1698
  874SOL     OW 2620   1.516   0.521   8.196  0.2758 -0.1051 -0.5278
  874SOL    HW1 2621   1.508   0.445   8.139  0.9885 -1.5148  1.1309
  874SOL    HW2 2622   1.461   0.500   8.272  1.3248  0.5296  0.4417
  875SOL     OW 2623   4.425   4.280   8.808 -0.3132  0.3211  0.0436
  875SOL    HW1 2624   4.479   4.347   8.765 -0.7185  0.5502 -0.1142
  875SOL    HW2 2625   4.372   4.329   8.870 -0.4173  0.1073  0.1217
  876SOL     OW 2626   2.422   0.568   5.642  0.4497  0.3952 -0.2597
  876SOL    HW1 2627   2.348   0.529   5.595 -0.9171 -0.5634  2.4740
  876SOL    HW2 2628   2.497   0.515   5.616 -0.2532 -0.1337 -1.2930
  877SOL     OW 2629   0.174   0.512   7.313  0.2602 -0.2627  0.1639
  877SOL    HW1 2630   0.089   0.489   7.276  0.1286  1.2116 -0.4945
  877SOL    HW2 2631   0.159   0.515   7.408 -0.6178  0.7008  0.0039
  878SOL     OW 2632   4.980   1.624   7.179  0.0571  0.0759 -0.3431
  878SOL    HW1 2633   4.966   1.539   7.137  0.9860  0.0902 -0.7048
  878SOL    HW2 2634   4.953   1.688   7.114  0.6470  0.0766 -0.5988
  879SOL     OW 2635   1.253   3.844   7.456 -0.6061 -0.2024  0.6178
  879SOL    HW1 2636   1.253   3.938   7.435  3.3722 -0.0019  0.7446
  879SOL    HW2 2637   1.199   3.804   7.388  1.2877  1.7973 -2.2962
  880SOL     OW 2638   2.655   1.302  10.186 -0.1218 -0.5265 -0.1140
  880SOL    HW1 2639   2.627   1.280  10.097 -0.0527 -0.8198 -0.0665
  880SOL    HW2 2640   2.629   1.226  10.238  0.0081 -0.4373  0.0816
  881SOL     OW 2641   1.474   2.129   5.616 -0.0999  0.5668  0.0264
  881SOL    HW1 2642   1.490   2.213   5.572  1.4259  0.1060 -0.3744
  881SOL    HW2 2643   1.555   2.080   5.603 -1.4579 -1.5465 -1.0134
  882SOL     OW 2644   0.474   3.588   6.568 -0.5369  0.2975 -0.8239
  882SOL    HW1 2645   0.476   3.530   6.644  0.9182  3.1004  1.4528
  882SOL    HW2 2646   0.409   3.655   6.590 -0.1168  1.1488 -2.0437
  883SOL     OW 2647   0.862   3.559   9.129  0.1940 -0.5217  0.3282
  883SOL    HW1 2648   0.787   3.601   9.171 -0.8489 -0.9977 -1.0077
  883SOL    HW2 2649   0.909   3.631   9.086 -0.6728 -0.4779 -0.5771
  884SOL     OW 2650   4.695   4.571   9.801  0.5775  0.3950 -0.8306
  884SOL    HW1 2651   4.607   4.558   9.838 -0.3281  0.9029 -2.6613
  884SOL    HW2 2652   4.691   4.529   9.715  2.0023  0.8044 -1.1154
  885SOL     OW 2653   0.362   0.346   6.158  0.0803  0.1764  0.0939
  885SOL    HW1 2654   0.380   0.387   6.243 -0.0416 -0.4390  0.4289
  885SOL    HW2 2655   0.274   0.310   6.167 -1.3984  3.0367 -1.4762
  886SOL     OW 2656   4.512   1.759   6.239 -0.2916 -0.2675 -0.1608
  886SOL    HW1 2657   4.480   1.849   6.241  1.6587  0.5265  2.9306
  886SOL    HW2 2658   4.434   1.706   6.227 -1.5658  1.7646 -1.5695
  887SOL     OW 2659   2.682   2.280   7.524 -0.0272 -0.8298 -0.2371
  887SOL    HW1 2660   2.637   2.340   7.583  0.7523 -0.4880  0.0317
  887SOL    HW2 2661   2.642   2.194   7.540  0.1000 -0.7204  0.7210
  888SOL     OW 2662   2.707   0.917   9.739  0.1331  0.1569  0.1176
  888SOL    HW1 2663   2.638   0.852   9.749  0.8048 -0.8044 -1.2941
  888SOL    HW2 2664   2.715   0.956   9.826 -1.1431 -0.7554  0.6761
  889SOL     OW 2665   4.552   1.721   4.988  0.0378  0.4054 -0.2126
  889SOL    HW1 2666   4.496   1.784   4.943  0.1090  0.0225 -0.8367
  889SOL    HW2 2667   4.603   1.775   5.050  0.9920  1.1507 -1.5971
  890SOL     OW 2668   0.964   0.809   4.931  0.3324 -0.0362 -0.1208
  890SOL    HW1 2669   1.017   0.733   4.959  2.4405  1.0071 -1.0327
  890SOL    HW2 2670   1.028   0.880   4.923 -0.9802  0.9408 -2.7693
  891SOL     OW 2671   1.286   1.838   6.098 -0.1865 -0.4933 -0.2353
  891SOL    HW1 2672   1.265   1.810   6.187  2.2209  1.3923  1.0602
  891SOL    HW2 2673   1.380   1.820   6.088 -0.3209 -0.3237 -2.2633
  892SOL     OW 2674   0.935   4.900   9.247 -0.7252 -0.1285  0.1577
  892SOL    HW1 2675   0.866   4.866   9.305 -0.9616  0.0381 -0.0220
  892SOL    HW2 2676   0.897   4.981   9.211 -0.1755  0.3245  0.5771
  893SOL     OW 2677   2.988   3.491   9.324 -0.4171  0.2366 -0.4595
  893SOL    HW1 2678   2.950   3.468   9.409 -0.8706  0.4534 -0.6053
  893SOL    HW2 2679   3.034   3.573   9.340  0.0873 -0.0796 -0.2584
  894SOL     OW 2680   0.160   4.588   9.363  0.1186  0.0318 -0.2430
  894SOL    HW1 2681   0.067   4.596   9.346  0.3766 -0.3488 -2.0137
  894SOL    HW2 2682   0.181   4.665   9.417 -1.5011 -0.8187  1.7654
  895SOL     OW 2683   2.632   3.028   8.555 -0.2721 -0.3949 -0.0025
  895SOL    HW1 2684   2.670   2.949   8.518  0.4120 -0.0929  0.0455
  895SOL    HW2 2685   2.694   3.056   8.622  0.2935  1.0365 -1.0686
  896SOL     OW 2686   3.570   3.200   9.524 -0.8966 -0.5840  0.2035
  896SOL    HW1 2687   3.639   3.243   9.574 -2.3691  0.3672  1.5261
  896SOL    HW2 2688   3.546   3.264   9.456 -1.0051 -0.5642  0.2586
  897SOL     OW 2689   2.647   4.265   8.114  0.2351 -0.0316 -0.1293
  897SOL    HW1 2690   2.726   4.251   8.168 -0.3603 -1.0052  0.5268
  897SOL    HW2 2691   2.577   4.276   8.178 -0.6325 -2.0379 -0.6696
  898SOL     OW 2692   0.125   0.118   8.429  0.8064 -0.0395 -0.8974
  898SOL    HW1 2693   0.126   0.069   8.347  2.9289 -2.5505  0.4622
  898SOL    HW2 2694   0.184   0.192   8.413  2.3589 -1.3047 -1.2863
  899SOL     OW 2695   3.457   1.084   8.310  0.5837 -0.0356  0.5440
  899SOL    HW1 2696   3.419   1.120   8.230 -0.8105  0.1349  1.2549
  899SOL    HW2 2697   3.398   1.013   8.335  2.1276 -1.4629  0.3230
  900SOL     OW 2698   4.266   0.465   7.367 -0.5730  0.0376 -0.0016
  900SOL    HW1 2699   4.283   0.490   7.458 -2.2674 -2.1981  1.0290
  900SOL    HW2 2700   4.349   0.426   7.337  0.1018  1.0882  0.4480
  901SOL     OW 2701   3.106   1.072   5.771  0.5348  0.0833  0.2165
  901SOL    HW1 2702   3.016   1.100   5.757 -0.1248 -0.7290  2.4485
  901SOL    HW2 2703   3.115   0.992   5.719 -0.3311 -0.3120  0.6544
  902SOL     OW 2704   2.634   3.688   8.832  0.8028  0.1425 -0.3808
  902SOL    HW1 2705   2.567   3.696   8.900 -0.6691  1.3019 -1.8998
  902SOL    HW2 2706   2.703   3.748   8.859 -1.5553  3.8657 -1.8113
  903SOL     OW 2707   1.938   1.481   6.330  0.4315 -0.2107  0.2877
  903SOL    HW1 2708   2.029   1.462   6.308  0.5153 -0.7641  1.0591
  903SOL    HW2 2709   1.907   1.538   6.260  1.0781 -0.8197 -0.5058
  904SOL     OW 2710   0.483   4.858   8.262 -0.2848 -0.1513 -0.1580
  904SOL    HW1 2711   0.531   4.783   8.228 -0.1149  0.2787 -0.8801
  904SOL    HW2 2712   0.440   4.825   8.341 -0.4208 -1.0756 -0.6027
  905SOL     OW 2713   1.604   1.004   6.660  0.7435  0.5952 -0.2397
  905SOL    HW1 2714   1.543   0.974   6.727  1.1896  0.0613 -0.0621
  905SOL    HW2 2715   1.623   1.095   6.683  1.9229  0.0263  1.1495
  906SOL     OW 2716   4.152   2.797   6.747 -0.2548  0.4323  0.1461
  906SOL    HW1 2717   4.167   2.849   6.669  3.0160 -1.9488 -1.0383
  906SOL    HW2 2718   4.222   2.823   6.808  0.9206 -1.7729 -0.1487
  907SOL     OW 2719   0.078   3.292   5.190 -0.1253 -0.3694  0.3853
  907SOL    HW1 2720  -0.016   3.311   5.185  0.0018 -0.0290 -1.0132
  907SOL    HW2 2721   0.104   3.325   5.276 -0.9236  1.2340  0.0557
  908SOL     OW 2722   0.185   2.884   8.138 -0.2392 -0.1596  0.2517
  908SOL    HW1 2723   0.115   2.922   8.086 -0.4769 -0.3827  0.4048
  908SOL    HW2 2724   0.178   2.929   8.223  1.7993  2.1293 -0.6829
  909SOL     OW 2725   3.122   0.648   7.385  0.2235 -0.0853 -0.6255
  909SOL    HW1 2726   3.210   0.630   7.418  0.1716 -0.5466 -0.7276
  909SOL    HW2 2727   3.078   0.563   7.388 -1.2218  0.6394  2.3303
  910SOL     OW 2728   4.424   0.426   7.595 -0.2104  0.4557  0.1831
  910SOL    HW1 2729   4.516   0.399   7.606  0.0068  0.9341 -0.4412
  910SOL    HW2 2730   4.395   0.446   7.684 -0.2359 -1.3461  0.6117
  911SOL     OW 2731   4.796   2.884   9.747  0.0215  0.3395  0.7923
  911SOL    HW1 2732   4.780   2.799   9.707  2.0385  0.1442  0.3318
  911SOL    HW2 2733   4.886   2.880   9.780  0.8209  2.8323 -0.7754
  912SOL     OW 2734   3.661   2.084   6.610  0.3029 -0.7392 -0.7354
  912SOL    HW1 2735   3.603   2.160   6.615  0.2727 -0.8483  1.2785
  912SOL    HW2 2736   3.693   2.084   6.520 -1.9239 -0.0117 -1.5964
  913SOL     OW 2737   4.792   3.924   7.243  0.1745 -0.1262  0.3515
  913SOL    HW1 2738   4.796   3.829   7.235  1.5372 -0.1564  1.1268
  913SOL    HW2 2739   4.808   3.957   7.154 -4.1807 -0.5762 -0.8356
  914SOL     OW 2740   3.523   1.471   7.810 -0.4636 -0.3868  0.2301
  914SOL    HW1 2741   3.470   1.412   7.864  0.7876 -1.3271  0.4684
  914SOL    HW2 2742   3.593   1.416   7.776  0.4333  0.8507  0.0081
  915SOL     OW 2743   1.433   4.174   6.998  0.3327 -0.2336 -0.4977
  915SOL    HW1 2744   1.510   4.231   6.991  0.7070 -0.8488 -1.4593
  915SOL    HW2 2745   1.428   4.154   7.092  0.1642  1.4009 -0.1145
  916SOL     OW 2746   3.414   4.844   8.825  0.4382  0.2748  0.5423
  916SOL    HW1 2747   3.418   4.915   8.889  2.2817  0.1187  0.6653
  916SOL    HW2 2748   3.429   4.764   8.877 -0.2007 -0.0655  0.2087
  917SOL     OW 2749   2.988   3.836   8.345 -0.2883 -0.0440  0.2640
  917SOL    HW1 2750   3.040   3.769   8.389  0.3749  0.6240  0.5110
  917SOL    HW2 2751   2.935   3.876   8.414 -1.4788 -1.0126 -0.0550
  918SOL     OW 2752   1.702   2.030   8.305  0.1195  0.0271 -0.6128
  918SOL    HW1 2753   1.641   2.035   8.231  1.0230  1.3318 -1.2885
  918SOL    HW2 2754   1.789   2.034   8.266  0.6344 -0.2086  0.4658
  919SOL     OW 2755   1.573   3.096   6.269 -0.3458  0.1002 -0.7184
  919SOL    HW1 2756   1.508   3.037   6.231 -0.9988  0.3774 -0.0463
  919SOL    HW2 2757   1.524   3.149   6.331  0.3382  1.0004 -0.9327
  920SOL     OW 2758   4.634   0.298   7.164  0.4137 -0.0757 -0.6807
  920SOL    HW1 2759   4.596   0.365   7.108 -2.2256 -0.7164  0.1993
  920SOL    HW2 2760   4.587   0.218   7.142  2.1457 -1.2429 -0.3447
  921SOL     OW 2761   3.519   1.796   8.310 -0.0816  0.1845  0.4157
  921SOL    HW1 2762   3.584   1.729   8.333 -1.6926 -2.1674 -1.4387
  921SOL    HW2 2763   3.442   1.774   8.363 -0.4686  0.9378  0.1783
  922SOL     OW 2764   3.845   0.956   6.598 -0.4239 -0.7875  0.1183
  922SOL    HW1 2765   3.870   0.986   6.511 -0.6890  0.7652  0.5295
  922SOL    HW2 2766   3.926   0.928   6.639 -0.3613 -1.9543 -0.7616
  923SOL     OW 2767   3.707   3.466   6.870 -0.7569 -0.2295 -0.0464
  923SOL    HW1 2768   3.724   3.439   6.780 -3.0784 -0.0174 -0.6192
  923SOL    HW2 2769   3.788   3.508   6.899 -0.2525  0.5119 -2.3374
  924SOL     OW 2770   0.772   2.399   8.852  0.4626 -0.3845 -0.0755
  924SOL    HW1 2771   0.692   2.450   8.861 -0.0906 -1.3637  0.6353
  924SOL    HW2 2772   0.796   2.409   8.759 -0.8703 -0.6538 -0.4670
  925SOL     OW 2773   0.982   0.959   5.774 -0.8743 -0.2977  0.3074
  925SOL    HW1 2774   0.995   0.995   5.687  0.3859  1.4892  1.1725
  925SOL    HW2 2775   0.888   0.938   5.778 -0.9111 -0.5857 -1.5082
  926SOL     OW 2776   1.881   2.759   7.262 -0.5709  0.6129 -0.5806
  926SOL    HW1 2777   1.824   2.786   7.334  2.6779  2.7298  1.4430
  926SOL    HW2 2778   1.899   2.667   7.279 -1.2029  0.6396  0.3053
  927SOL     OW 2779   1.750   1.235   9.094 -0.1756  0.2723 -0.0080
  927SOL    HW1 2780   1.778   1.293   9.023 -1.2050  1.4488  0.5219
  927SOL    HW2 2781   1.675   1.188   9.059  0.1430 -0.1477 -0.1431
  928SOL     OW 2782   1.064   2.376   7.508 -0.1718  0.0029 -0.2860
  928SOL    HW1 2783   1.097   2.289   7.532 -2.7195 -0.5950  1.4519
  928SOL    HW2 2784   1.092   2.433   7.579 -1.8473 -0.3080  0.6874
  929SOL     OW 2785   4.057   2.165   4.981  0.3582  0.3439 -0.4760
  929SOL    HW1 2786   4.122   2.162   5.052  0.5451 -2.8411 -0.6614
  929SOL    HW2 2787   4.093   2.108   4.914 -2.2265 -0.8247 -0.9591
  930SOL     OW 2788   4.446   1.736   7.549  0.2020 -0.3285 -0.1167
  930SOL    HW1 2789   4.353   1.755   7.535 -0.1421 -1.5268  0.3822
  930SOL    HW2 2790   4.489   1.821   7.546 -1.1088  0.4171  1.0330
  931SOL     OW 2791   1.308   3.410   6.219 -0.1079 -0.9279  0.3374
  931SOL    HW1 2792   1.350   3.459   6.148 -3.3307 -0.5133 -1.5192
  931SOL    HW2 2793   1.290   3.324   6.181 -1.0114 -1.0372  0.9799
  932SOL     OW 2794   0.984   0.453   7.296 -0.0382  0.3483 -0.5847
  932SOL    HW1 2795   0.894   0.481   7.316  0.2241 -0.0435  1.3846
  932SOL    HW2 2796   0.976   0.360   7.278  0.3280 -0.5763  3.2471
  933SOL     OW 2797   4.367   1.299   8.107 -0.5515 -0.5908  0.3409
  933SOL    HW1 2798   4.343   1.252   8.187  2.2688  0.1051  1.7517
  933SOL    HW2 2799   4.456   1.268   8.087  0.3025  2.0070 -0.2684
  934SOL     OW 2800   4.401   2.818   6.915 -0.1419  0.4677  0.6779
  934SOL    HW1 2801   4.435   2.901   6.950  1.0432 -0.2407  1.2982
  934SOL    HW2 2802   4.469   2.754   6.937 -0.6079 -0.5036 -0.6123
  935SOL     OW 2803   0.401   3.044   9.264  0.6752 -0.5624  1.1272
  935SOL    HW1 2804   0.328   2.996   9.305  1.8258 -3.3443  0.1855
  935SOL    HW2 2805   0.461   2.975   9.235  1.4761  1.3710 -2.2975
  936SOL     OW 2806   1.121   3.778   8.160  0.0204 -0.2832  0.2562
  936SOL    HW1 2807   1.044   3.792   8.215  1.2139  0.3106  1.8335
  936SOL    HW2 2808   1.135   3.862   8.116  0.7733  0.1578  1.3154
  937SOL     OW 2809   3.099   1.125   8.539 -0.5333  0.3714  0.1736
  937SOL    HW1 2810   3.130   1.159   8.623 -2.2785 -1.1112  1.4900
  937SOL    HW2 2811   3.006   1.108   8.553 -0.9210  0.2667 -2.1512
  938SOL     OW 2812   3.763   0.763   9.117  0.4162 -0.0468 -0.2199
  938SOL    HW1 2813   3.855   0.778   9.097  0.2525  0.1445 -0.8905
  938SOL    HW2 2814   3.726   0.732   9.034 -0.6809  2.4929 -0.7854
  939SOL     OW 2815   4.042   0.545   7.226 -0.5030 -0.3649 -0.3746
  939SOL    HW1 2816   4.119   0.511   7.272 -0.3266 -0.3898 -0.6840
  939SOL    HW2 2817   3.999   0.467   7.191 -1.0030 -0.4018  0.3065
  940SOL     OW 2818   1.845   2.685   9.084  0.3042  0.3709  0.3624
  940SOL    HW1 2819   1.842   2.589   9.088  1.7993  0.2768 -0.1807
  940SOL    HW2 2820   1.895   2.704   9.005  1.9082  1.5364  1.5719
  941SOL     OW 2821   2.566   0.391   6.508  0.0143  0.4587  0.9461
  941SOL    HW1 2822   2.542   0.457   6.572  0.2254 -0.6277  2.1870
  941SOL    HW2 2823   2.624   0.437   6.447  0.8600  1.2153  2.2697
  942SOL     OW 2824   1.876   0.919   4.877  0.3046  1.1666  0.0443
  942SOL    HW1 2825   1.816   0.990   4.856 -0.2624  0.6669 -0.0418
  942SOL    HW2 2826   1.912   0.892   4.792  1.1962  1.9262  0.1615
  943SOL     OW 2827   1.148   3.111   9.804  0.0577 -0.0901  0.6029
  943SOL    HW1 2828   1.228   3.132   9.756  0.1671 -1.0059  0.3736
  943SOL    HW2 2829   1.103   3.047   9.749  0.5930 -1.7950  2.0896
  944SOL     OW 2830   0.686   0.425   6.535 -0.0487 -0.2730  0.1415
  944SOL    HW1 2831   0.672   0.391   6.623  1.2023 -2.3803 -0.4035
  944SOL    HW2 2832   0.779   0.411   6.518  0.5278  3.1835 -0.3481
  945SOL     OW 2833   4.372   2.626   9.956 -0.1027  0.2999 -0.2425
  945SOL    HW1 2834   4.396   2.717   9.972  0.3338  0.7133 -2.8906
  945SOL    HW2 2835   4.303   2.630   9.890  0.0491 -1.2961 -0.5378
  946SOL     OW 2836   4.040   0.908  10.257 -0.0772  0.4380 -0.0608
  946SOL    HW1 2837   4.111   0.874  10.203 -0.2575  0.9093 -0.6054
  946SOL    HW2 2838   3.975   0.939  10.194 -1.0926 -0.6426  0.4173
  947SOL     OW 2839   3.913   1.791   5.907  0.3156 -0.0613  0.4690
  947SOL    HW1 2840   3.966   1.712   5.906  1.4501  0.6830  0.0206
  947SOL    HW2 2841   3.962   1.854   5.854 -1.3909  0.4248 -0.5995
  948SOL     OW 2842   3.526   3.329   6.468 -0.5132  0.1784 -0.1924
  948SOL    HW1 2843   3.479   3.253   6.433  0.4414  0.0454 -1.2308
  948SOL    HW2 2844   3.595   3.347   6.403 -0.2600  1.4723  0.4082
  949SOL     OW 2845   0.215   3.821   9.934  0.3877 -0.5852  0.4278
  949SOL    HW1 2846   0.238   3.775   9.853  0.6874  0.3726 -0.0420
  949SOL    HW2 2847   0.281   3.792   9.997 -0.2195 -1.8280  0.5314
  950SOL     OW 2848   3.889   0.787   7.246  0.1943 -0.4144  0.7249
  950SOL    HW1 2849   3.922   0.698   7.234  1.5832  0.0660  0.7873
  950SOL    HW2 2850   3.799   0.776   7.275 -0.2279 -1.7773 -0.9350
  951SOL     OW 2851   4.286   1.241   6.162  0.5240  0.1528  0.7001
  951SOL    HW1 2852   4.333   1.183   6.102  0.7713  0.2741  0.7744
  951SOL    HW2 2853   4.216   1.187   6.198  0.8910 -0.1646  0.9385
  952SOL     OW 2854   1.381   2.083   9.669  0.2982  0.1139  0.1445
  952SOL    HW1 2855   1.357   2.068   9.578  0.4779  1.9629 -0.2414
  952SOL    HW2 2856   1.340   2.011   9.717 -1.6549  0.3135 -1.1236
  953SOL     OW 2857   1.443   2.231   7.919 -0.7413  0.4957  0.0632
  953SOL    HW1 2858   1.441   2.297   7.850  1.0387  1.5956  0.9891
  953SOL    HW2 2859   1.449   2.282   8.000 -1.5517 -0.7900  0.9787
  954SOL     OW 2860   4.814   2.996  10.215  0.5853  0.1001  0.4709
  954SOL    HW1 2861   4.723   3.026  10.224  0.2844 -0.7863  0.5304
  954SOL    HW2 2862   4.851   3.004  10.303  0.5298  0.3626  0.4707
  955SOL     OW 2863   2.208   4.421   5.948 -0.9487  1.2572 -0.0529
  955SOL    HW1 2864   2.202   4.404   5.854  1.0332  0.7573 -0.1314
  955SOL    HW2 2865   2.132   4.377   5.985  0.8494 -3.0206 -0.9178
  956SOL     OW 2866   3.126   1.637   7.971 -0.3351 -0.3954 -0.0835
  956SOL    HW1 2867   3.180   1.700   7.923 -1.5080  0.2052 -0.6581
  956SOL    HW2 2868   3.163   1.552   7.948  1.0597  0.0455  0.4279
  957SOL     OW 2869   0.258   2.186   9.604 -0.5835 -0.0098  0.2618
  957SOL    HW1 2870   0.278   2.243   9.531  0.6061 -0.0694  0.5093
  957SOL    HW2 2871   0.262   2.243   9.681 -0.3090 -0.2398  0.4200
  958SOL     OW 2872   4.200   3.826   7.644 -0.2850 -0.0447 -0.0857
  958SOL    HW1 2873   4.265   3.774   7.598 -1.2672 -1.5951  0.2186
  958SOL    HW2 2874   4.158   3.765   7.705 -2.1330  0.8352 -0.3895
  959SOL     OW 2875   0.683   0.798   8.888 -0.2659 -0.3750  0.5018
  959SOL    HW1 2876   0.649   0.801   8.977  0.0291 -2.4302  0.7215
  959SOL    HW2 2877   0.659   0.883   8.850  2.3601  1.9425  3.4703
  960SOL     OW 2878   2.681   2.669   6.214  1.0409 -0.4170 -0.1507
  960SOL    HW1 2879   2.707   2.698   6.127  1.5494  0.9832  0.4306
  960SOL    HW2 2880   2.749   2.702   6.272 -0.6231  1.0490  1.0927
  961SOL     OW 2881   4.039   3.671   9.326  0.4211 -0.5490 -0.0107
  961SOL    HW1 2882   4.068   3.653   9.416  1.6057 -0.6106 -0.3958
  961SOL    HW2 2883   4.071   3.596   9.275  1.9212  0.6415 -0.9123
  962SOL     OW 2884   3.419   2.865  10.305  0.4185  0.2255 -0.6360
  962SOL    HW1 2885   3.375   2.854  10.220  1.6124  1.7778 -1.5103
  962SOL    HW2 2886   3.487   2.931  10.288  0.3635  0.9462  1.6597
  963SOL     OW 2887   2.248   1.208   5.746  0.2339  0.2182 -0.5831
  963SOL    HW1 2888   2.268   1.301   5.747 -0.6164  0.4247 -1.1275
  963SOL    HW2 2889   2.258   1.180   5.837 -0.5994  1.0954 -0.2014
  964SOL     OW 2890   1.133   3.419   6.866  0.9481 -0.1704  0.4722
  964SOL    HW1 2891   1.068   3.447   6.801  2.2687  1.4106 -0.2650
  964SOL    HW2 2892   1.100   3.336   6.899 -0.7849 -0.0478 -0.7939
  965SOL     OW 2893   1.440   3.020   9.285 -0.4157  0.1539  0.4901
  965SOL    HW1 2894   1.386   2.976   9.351  0.7111 -1.5078  0.3764
  965SOL    HW2 2895   1.419   2.975   9.203  0.7185 -0.1422  0.3503
  966SOL     OW 2896   0.675   3.697   9.261 -0.3011  0.9779 -0.2506
  966SOL    HW1 2897   0.632   3.782   9.251  0.8578  1.6467  0.3466
  966SOL    HW2 2898   0.603   3.635   9.271 -1.1453  2.1093  1.0278
  967SOL     OW 2899   4.459   0.666   9.617 -0.0753 -0.2959  0.3337
  967SOL    HW1 2900   4.423   0.749   9.646 -0.6717 -0.3394 -0.2567
  967SOL    HW2 2901   4.499   0.685   9.532 -1.2653 -0.8441 -0.3765
  968SOL     OW 2902   4.422   0.433   8.982  0.2643 -0.4567  0.4454
  968SOL    HW1 2903   4.493   0.369   8.978  1.0564  0.4664 -0.9736
  968SOL    HW2 2904   4.343   0.381   8.995  1.1162 -1.5401  1.5914
  969SOL     OW 2905   0.223   4.756   8.812  0.2311  0.2378 -0.4964
  969SOL    HW1 2906   0.213   4.676   8.761 -1.6328  0.4774 -0.5479
  969SOL    HW2 2907   0.309   4.747   8.854 -0.0099 -1.8481 -0.3798
  970SOL     OW 2908   0.505   2.175   9.687 -0.3760 -0.0023 -0.2180
  970SOL    HW1 2909   0.512   2.271   9.691 -4.0706  0.3794  0.4519
  970SOL    HW2 2910   0.414   2.158   9.662  0.4539 -3.3894 -1.5032
  971SOL     OW 2911   1.031   3.630   5.013  0.4185 -0.0450 -0.3077
  971SOL    HW1 2912   1.037   3.717   4.973  2.2535  0.2853  0.5760
  971SOL    HW2 2913   1.054   3.569   4.942 -1.8449  0.0461 -1.2058
  972SOL     OW 2914   0.299   3.799   6.449 -0.0903 -0.0228 -0.2973
  972SOL    HW1 2915   0.234   3.767   6.511 -1.3451  0.7074 -1.1856
  972SOL    HW2 2916   0.267   3.885   6.423  0.9409  0.1112 -1.1792
  973SOL     OW 2917   0.507   1.545   6.547 -0.4656  0.4071 -0.1399
  973SOL    HW1 2918   0.600   1.569   6.544 -0.5128  0.9889  1.6875
  973SOL    HW2 2919   0.462   1.623   6.516 -0.3378 -0.4746 -2.7635
  974SOL     OW 2920   0.407   1.176   8.402 -0.3311 -0.0092 -0.5488
  974SOL    HW1 2921   0.359   1.247   8.444 -0.3916 -0.4753  0.1944
  974SOL    HW2 2922   0.380   1.180   8.311 -1.0176  0.3638 -0.3382
  975SOL     OW 2923   0.767   3.891   7.142  0.3707  0.5635  0.3926
  975SOL    HW1 2924   0.750   3.911   7.234  0.7808 -0.1031  0.6243
  975SOL    HW2 2925   0.837   3.826   7.144 -0.9237 -0.9369 -0.2986
  976SOL     OW 2926   2.536   0.363   8.642  0.1276  0.4033 -0.0306
  976SOL    HW1 2927   2.449   0.328   8.660  0.2354 -0.4263 -0.9737
  976SOL    HW2 2928   2.575   0.300   8.581  0.2579  2.2434 -2.0168
  977SOL     OW 2929   0.740   1.581   6.385 -0.4778  0.5651  0.5882
  977SOL    HW1 2930   0.815   1.564   6.328  1.5394  1.0213  2.9447
  977SOL    HW2 2931   0.672   1.615   6.326  2.1304  2.9362 -1.3273
  978SOL     OW 2932   3.068   4.435   8.865 -0.4018  0.2394  0.4232
  978SOL    HW1 2933   3.020   4.517   8.848  0.6736  1.3106  2.2366
  978SOL    HW2 2934   3.063   4.425   8.960 -2.3852 -3.0327  0.1059
  979SOL     OW 2935   2.701   0.037   9.058  0.1294 -0.0611  0.0219
  979SOL    HW1 2936   2.657   0.109   9.014  0.0838 -0.2465 -0.2421
  979SOL    HW2 2937   2.750  -0.007   8.989  0.9996  0.3387  0.3719
  980SOL     OW 2938   3.566   2.098   9.023 -0.0457 -0.3129  0.6155
  980SOL    HW1 2939   3.548   2.052   8.941  1.4922  1.0292 -0.5467
  980SOL    HW2 2940   3.653   2.137   9.010  0.4594 -0.4679  3.0872
  981SOL     OW 2941   0.022   4.414   7.581  0.4484 -0.1225 -0.8224
  981SOL    HW1 2942   0.074   4.402   7.661  0.2184  1.6546 -0.3524
  981SOL    HW2 2943  -0.040   4.341   7.582  2.1050 -1.5972 -0.7542
  982SOL     OW 2944   2.691   4.388   9.299 -0.0326  0.3477  0.3476
  982SOL    HW1 2945   2.682   4.460   9.361 -2.3103  0.2115  0.2437
  982SOL    HW2 2946   2.684   4.309   9.352 -1.5547  0.2324  0.0147
  983SOL     OW 2947   0.353   0.484   6.389  0.7513  0.0403 -0.0168
  983SOL    HW1 2948   0.275   0.536   6.369 -0.6269 -1.8597  0.0283
  983SOL    HW2 2949   0.425   0.546   6.387 -0.5939  1.6676 -1.2930
  984SOL     OW 2950   4.368   4.621   9.597  0.0086  0.4839  0.2708
  984SOL    HW1 2951   4.364   4.715   9.613  3.4969  0.4332  2.4181
  984SOL    HW2 2952   4.409   4.614   9.511 -1.4889  0.8614 -0.5049
  985SOL     OW 2953   3.089   3.415   9.905 -0.0714  0.5900  0.1978
  985SOL    HW1 2954   3.164   3.439   9.959 -0.8062 -0.4859  1.7575
  985SOL    HW2 2955   3.081   3.487   9.842  0.1772  2.4861  2.2122
  986SOL     OW 2956   2.995   0.371   6.447 -0.1409 -0.2811 -0.5162
  986SOL    HW1 2957   2.987   0.318   6.527 -1.7458 -0.4647 -0.7612
  986SOL    HW2 2958   3.012   0.308   6.378  3.7309  0.0450 -0.1081
  987SOL     OW 2959   1.708   2.602   5.136  0.2955  0.0552  0.0035
  987SOL    HW1 2960   1.671   2.562   5.058 -0.9220  0.1238  0.5239
  987SOL    HW2 2961   1.633   2.641   5.181  0.6581 -1.4964  2.1042
  988SOL     OW 2962   3.382   2.586   6.998  0.6784  0.1184 -0.0467
  988SOL    HW1 2963   3.453   2.648   6.983  1.1342  0.2098  2.1730
  988SOL    HW2 2964   3.343   2.613   7.081 -1.8111 -0.1040 -1.0378
  989SOL     OW 2965   3.703   2.163   7.268 -0.3727 -0.1351 -0.3764
  989SOL    HW1 2966   3.723   2.125   7.182  1.4036  1.1101 -0.5604
  989SOL    HW2 2967   3.738   2.251   7.265 -0.8525  0.1697  1.4280
  990SOL     OW 2968   2.944   3.393   6.351  0.0255 -0.4163  0.1982
  990SOL    HW1 2969   2.985   3.397   6.264 -0.8616  0.2664 -0.2106
  990SOL    HW2 2970   2.886   3.470   6.353  2.6085  1.6634  2.7322
  991SOL     OW 2971   1.561   1.125   5.372 -0.1704  0.2049 -0.3136
  991SOL    HW1 2972   1.480   1.075   5.369  0.6841 -1.1744 -1.0457
  991SOL    HW2 2973   1.589   1.133   5.281  1.1155 -0.3436  0.0076
  992SOL     OW 2974   1.227   1.816   8.323  0.1975  0.3461  0.4891
  992SOL    HW1 2975   1.174   1.852   8.394 -2.7180  0.1427 -1.4199
  992SOL    HW2 2976   1.267   1.893   8.282 -0.6382  0.8034  0.4972
  993SOL     OW 2977   3.348   4.096   7.657 -0.0625 -0.6245 -0.1094
  993SOL    HW1 2978   3.276   4.116   7.717 -1.0251  1.3861 -1.7962
  993SOL    HW2 2979   3.427   4.115   7.707 -0.8031  0.0677  0.8360
  994SOL     OW 2980   0.555   2.619   8.605 -0.1470  0.4922 -0.0712
  994SOL    HW1 2981   0.478   2.600   8.551 -0.4140 -0.1073  0.5000
  994SOL    HW2 2982   0.618   2.657   8.544  0.1993 -1.7290 -1.2074
  995SOL     OW 2983   4.637   4.620   6.042  0.3340  0.1003 -0.1891
  995SOL    HW1 2984   4.715   4.655   6.084 -0.7418  1.6533  0.6281
  995SOL    HW2 2985   4.651   4.636   5.948  0.2040  2.1517  0.0974
  996SOL     OW 2986   0.519   0.249   7.999  0.4941 -0.9941  0.2383
  996SOL    HW1 2987   0.578   0.193   7.949  1.2877 -1.3357  1.5095
  996SOL    HW2 2988   0.457   0.188   8.039 -2.3952 -0.5080 -3.0109
  997SOL     OW 2989   0.281   1.977   5.424 -0.1877  0.1901 -0.0167
  997SOL    HW1 2990   0.293   1.915   5.496 -0.9813  0.5501  0.4391
  997SOL    HW2 2991   0.218   1.934   5.366 -0.6266  0.5027  0.2251
  998SOL     OW 2992   3.724   2.258   6.865 -0.0695 -0.1012  0.4202
  998SOL    HW1 2993   3.807   2.211   6.855 -0.9718 -1.9366  0.8975
  998SOL    HW2 2994   3.679   2.210   6.935 -1.7185  0.5492 -0.1478
  999SOL     OW 2995   0.056   3.456   6.835  0.9457  0.0976 -0.0696
  999SOL    HW1 2996   0.079   3.470   6.927  0.2585  1.5793 -0.0988
  999SOL    HW2 2997   0.140   3.453   6.790  1.2444  1.2504  0.3727
 1000SOL     OW 2998   0.745   2.965   3.254 -0.8661  0.8127  0.3854
 1000SOL    HW1 2999   0.706   2.959   3.341  1.0977 -0.2233  1.2565
 1000SOL    HW2 3000   0.741   3.058   3.232 -1.2920  1.1115  1.6455
 1001SOL     OW 3001   0.955   1.356   9.915 -0.3961  0.0724  0.2875
 1001SOL    HW1 3002   1.016   1.417   9.956  0.8367  0.3748 -1.8507
 1001SOL    HW2 3003   1.002   1.273   9.914 -0.3258  0.1190 -0.6750
 1002SOL     OW 3004   4.832   2.254   8.075 -0.1579 -0.4021 -0.7148
 1002SOL    HW1 3005   4.891   2.186   8.044  1.8647  0.6280  0.6820
 1002SOL    HW2 3006   4.816   2.309   7.998  4.1511  1.6843 -0.3767
 1003SOL     OW 3007   3.696   3.883   9.088 -0.2688 -0.7659 -0.8553
 1003SOL    HW1 3008   3.656   3.798   9.101 -1.9195  0.1189  0.1355
 1003SOL    HW2 3009   3.630   3.935   9.042 -0.5143  0.8251  1.1063
 1004SOL     OW 3010   1.023   2.809   9.157 -0.3031  1.0295  0.1416
 1004SOL    HW1 3011   1.042   2.903   9.162  2.8495  0.6149 -1.4715
 1004SOL    HW2 3012   1.093   2.767   9.207  0.5095 -0.5413 -2.1537
 1005SOL     OW 3013   3.146   3.709   9.354  0.3795  0.3444 -0.3688
 1005SOL    HW1 3014   3.150   3.805   9.347  0.1185  0.5049  1.3078
 1005SOL    HW2 3015   3.237   3.682   9.365  0.6963  0.1642 -2.7409
 1006SOL     OW 3016   0.885   4.977   9.667  0.2912 -0.3566 -0.0162
 1006SOL    HW1 3017   0.834   4.897   9.660 -0.7798  0.3283 -0.2572
 1006SOL    HW2 3018   0.940   4.964   9.745 -1.0792 -0.6597  0.9318
 1007SOL     OW 3019   0.112   2.030   9.966 -0.1295  0.7448  0.0320
 1007SOL    HW1 3020   0.186   1.971   9.981  2.1092  3.1781 -0.6964
 1007SOL    HW2 3021   0.093   2.021   9.872 -0.3660  0.5828  0.0934
 1008SOL     OW 3022   4.190   0.890   8.318 -0.1589  0.3030  0.0905
 1008SOL    HW1 3023   4.253   0.825   8.349  1.9106  2.0734 -0.1870
 1008SOL    HW2 3024   4.203   0.894   8.224 -2.5773 -1.1090 -0.4018
 1009SOL     OW 3025   3.957   3.530  10.105 -0.0166 -0.4738  0.0395
 1009SOL    HW1 3026   3.896   3.601  10.085  0.6161  0.3361  0.8894
 1009SOL    HW2 3027   3.910   3.472  10.164  0.0352  0.1586  0.7083
 1010SOL     OW 3028   0.659   2.581   9.116  0.0165 -0.4976 -0.4175
 1010SOL    HW1 3029   0.620   2.575   9.029  2.3220 -0.4416 -1.5460
 1010SOL    HW2 3030   0.642   2.496   9.156 -1.9137 -0.1882 -0.5029
 1011SOL     OW 3031   2.875   2.974   9.096 -0.1239  0.2139 -0.6900
 1011SOL    HW1 3032   2.878   2.879   9.093 -0.9839  0.1477  0.0378
 1011SOL    HW2 3033   2.938   3.003   9.030  0.7363 -0.8463 -0.3552
 1012SOL     OW 3034   0.954   4.034   7.329  0.2658 -0.3506 -0.1197
 1012SOL    HW1 3035   0.988   4.117   7.359 -1.1736  0.4590 -0.6184
 1012SOL    HW2 3036   0.863   4.033   7.358  0.1160 -1.5182 -0.5629
 1013SOL     OW 3037   0.990   0.183   8.982  0.3848  0.2954  0.8017
 1013SOL    HW1 3038   0.910   0.150   9.023 -0.4770  1.1396 -0.1516
 1013SOL    HW2 3039   1.012   0.261   9.033 -0.5904  1.2479 -0.2053
 1014SOL     OW 3040   1.425   1.427   4.645 -0.5541  0.1889 -0.0370
 1014SOL    HW1 3041   1.361   1.393   4.583 -0.8498  1.2070 -0.2961
 1014SOL    HW2 3042   1.437   1.355   4.708  2.7482 -2.5597 -3.3330
 1015SOL     OW 3043   4.758   1.947   8.015 -0.0445 -0.4236 -0.1249
 1015SOL    HW1 3044   4.728   1.856   8.019  0.2994 -0.4957  1.5297
 1015SOL    HW2 3045   4.775   1.971   8.106  0.9281  0.9503 -0.6304
 1016SOL     OW 3046   0.985   1.150   5.565  0.2607  0.2156 -0.1658
 1016SOL    HW1 3047   0.975   1.142   5.470  0.9171 -0.7828 -0.1771
 1016SOL    HW2 3048   0.927   1.222   5.590  0.4920  0.8571 -1.3911
 1017SOL     OW 3049   3.814   4.047   8.288 -0.3469 -0.0025  0.1753
 1017SOL    HW1 3050   3.895   4.001   8.311  0.8601  1.2760 -1.2800
 1017SOL    HW2 3051   3.745   3.998   8.333  1.0150 -2.2405 -0.0149
 1018SOL     OW 3052   0.549   1.000   9.224 -0.3760  0.0159 -0.8872
 1018SOL    HW1 3053   0.524   1.031   9.311  1.6849  0.4567 -0.4052
 1018SOL    HW2 3054   0.517   0.910   9.220  0.1299 -0.2451  0.6118
 1019SOL     OW 3055   0.180   2.153   8.317 -0.1345 -0.6206 -0.0736
 1019SOL    HW1 3056   0.242   2.226   8.308  0.3307 -0.9859  0.0969
 1019SOL    HW2 3057   0.229   2.086   8.364  0.1590 -1.8382 -1.9705
 1020SOL     OW 3058   3.801   2.167   9.270  0.3457  0.2313  0.3869
 1020SOL    HW1 3059   3.828   2.084   9.308 -0.6832 -0.4644 -0.3374
 1020SOL    HW2 3060   3.769   2.145   9.183 -1.1382  1.1792  0.6371
 1021SOL     OW 3061   3.029   4.949   9.606  0.0332 -0.2401  0.1029
 1021SOL    HW1 3062   3.085   5.027   9.608  1.1799 -1.0473  1.4340
 1021SOL    HW2 3063   2.948   4.978   9.565  0.7562  1.4344 -0.2004
 1022SOL     OW 3064   0.825   4.437   9.465 -0.0244  0.0656 -0.0071
 1022SOL    HW1 3065   0.904   4.384   9.454  0.7558  1.1425  0.2109
 1022SOL    HW2 3066   0.844   4.491   9.542 -1.1424  0.0559  0.2891
 1023SOL     OW 3067   3.183   4.356   7.987  0.1362 -0.0230 -0.9639
 1023SOL    HW1 3068   3.134   4.334   8.066  1.4650  0.9780  0.1950
 1023SOL    HW2 3069   3.202   4.450   7.996  1.2918 -0.1442 -1.9031
 1024SOL     OW 3070   4.151   4.624  10.261  0.7948 -0.4911  0.3206
 1024SOL    HW1 3071   4.103   4.547  10.230  1.4452 -0.8997  0.2894
 1024SOL    HW2 3072   4.086   4.676  10.307  0.0084 -0.3324 -0.9094
 1025SOL     OW 3073   2.931   4.670   6.976 -0.3368 -0.6652 -0.3689
 1025SOL    HW1 3074   2.977   4.740   6.930 -1.6240 -0.6209 -1.6665
 1025SOL    HW2 3075   2.970   4.669   7.063  1.1250  0.2811 -0.9704
 1026SOL     OW 3076   1.890   4.453   8.112  0.1199  0.1277 -0.2581
 1026SOL    HW1 3077   1.912   4.404   8.191  0.2965  1.2206  0.3880
 1026SOL    HW2 3078   1.950   4.420   8.046  0.1759 -0.5839  0.1408
 1027SOL     OW 3079   4.825   0.982  10.103  0.2335 -0.5802  0.5005
 1027SOL    HW1 3080   4.909   0.967  10.059  0.9641  0.8019  1.3510
 1027SOL    HW2 3081   4.771   0.906  10.079  0.6424 -0.0213 -2.5817
 1028SOL     OW 3082   3.677   1.210   9.767  0.5788 -0.6956  0.0646
 1028SOL    HW1 3083   3.737   1.203   9.693  1.7889  1.1503  0.8111
 1028SOL    HW2 3084   3.593   1.178   9.733  1.5274 -1.6067 -1.5378
 1029SOL     OW 3085   2.418   1.008   8.763 -0.9010 -0.3883 -0.4488
 1029SOL    HW1 3086   2.354   0.936   8.761  0.7483 -1.9224 -0.2862
 1029SOL    HW2 3087   2.500   0.967   8.790  0.2817  1.4454 -1.0455
 1030SOL     OW 3088   1.549   4.915   6.751 -0.7270  0.0848 -0.5264
 1030SOL    HW1 3089   1.462   4.947   6.728 -0.4592  0.9406 -0.3692
 1030SOL    HW2 3090   1.596   4.913   6.668 -0.8534 -0.2694 -0.5934
 1031SOL     OW 3091   0.196   4.365   9.499 -0.8205  0.1912 -0.3645
 1031SOL    HW1 3092   0.150   4.287   9.469 -2.4600  1.2684 -0.7551
 1031SOL    HW2 3093   0.163   4.435   9.443 -1.0280  1.5633  1.4243
 1032SOL     OW 3094   1.212   2.246   8.902 -0.0941 -0.3986 -0.2730
 1032SOL    HW1 3095   1.117   2.242   8.908 -0.3177  1.7108 -1.6130
 1032SOL    HW2 3096   1.235   2.174   8.843 -1.0321  0.0445 -1.2106
 1033SOL     OW 3097   0.699   4.157   9.798  0.0858 -0.3270 -0.0989
 1033SOL    HW1 3098   0.708   4.193   9.710  0.2906 -1.2379 -0.4604
 1033SOL    HW2 3099   0.607   4.167   9.819  0.0358 -0.1056 -0.4151
 1034SOL     OW 3100   4.329   0.875   8.764 -0.6247  0.0239 -0.5702
 1034SOL    HW1 3101   4.414   0.832   8.756  0.2389  1.6631 -0.5800
 1034SOL    HW2 3102   4.335   0.924   8.847 -1.1716  0.9392 -1.0556
 1035SOL     OW 3103   0.768   4.553   6.393 -0.1920  0.1148 -0.2432
 1035SOL    HW1 3104   0.841   4.598   6.349  0.3161 -0.6239 -0.1624
 1035SOL    HW2 3105   0.776   4.579   6.484 -0.0617  0.0743 -0.2429
 1036SOL     OW 3106   2.838   1.421   8.050 -0.6079 -0.2895  0.2645
 1036SOL    HW1 3107   2.848   1.387   8.139  0.0352  0.5056  0.5125
 1036SOL    HW2 3108   2.855   1.515   8.058 -1.9171  0.0392 -0.4711
 1037SOL     OW 3109   4.393   2.874   9.144  0.2710 -0.4005  0.3436
 1037SOL    HW1 3110   4.464   2.904   9.201 -1.2061  0.0965  2.0170
 1037SOL    HW2 3111   4.431   2.802   9.094  3.0541  2.2182 -1.6149
 1038SOL     OW 3112   4.218   1.291   7.399  0.1164 -0.3203  0.6305
 1038SOL    HW1 3113   4.216   1.286   7.494 -0.1311 -1.2267  0.5881
 1038SOL    HW2 3114   4.127   1.276   7.372  0.2358 -0.3647  0.2429
 1039SOL     OW 3115   4.214   2.367   6.658 -0.3201 -0.2592  0.0961
 1039SOL    HW1 3116   4.250   2.443   6.613 -1.0772 -0.4479 -0.8680
 1039SOL    HW2 3117   4.290   2.310   6.673  0.5428  1.3762  2.3473
 1040SOL     OW 3118   4.564   4.015   9.902 -0.0101  0.0610  0.0433
 1040SOL    HW1 3119   4.518   3.956   9.961 -2.6576  0.9679 -0.9082
 1040SOL    HW2 3120   4.549   3.978   9.815 -2.6805  2.4693 -0.6988
 1041SOL     OW 3121   1.840   3.280  10.125 -0.0036  0.5759 -0.1934
 1041SOL    HW1 3122   1.776   3.348  10.151  1.1023  0.6555  2.7165
 1041SOL    HW2 3123   1.786   3.206  10.097 -1.2905  1.6618 -0.6898
 1042SOL     OW 3124   3.945   2.593   6.759  0.3249 -0.1564  0.0032
 1042SOL    HW1 3125   4.034   2.573   6.730 -0.6274 -2.6087 -1.5137
 1042SOL    HW2 3126   3.956   2.661   6.826  3.2919 -0.3128 -0.2122
 1043SOL     OW 3127   0.905   3.572   8.779 -0.1290 -0.8121  0.2640
 1043SOL    HW1 3128   0.966   3.643   8.757 -0.6816 -1.5103 -4.6498
 1043SOL    HW2 3129   0.961   3.496   8.793  0.3493  0.0056  3.6660
 1044SOL     OW 3130   0.990   2.462  10.227 -0.2805 -0.0081  0.0990
 1044SOL    HW1 3131   0.930   2.529  10.261 -0.0213  0.6834 -0.7748
 1044SOL    HW2 3132   0.937   2.383  10.223 -1.8541  1.0515 -2.6835
 1045SOL     OW 3133   1.547   0.954   7.308 -0.4452 -0.6131  0.5590
 1045SOL    HW1 3134   1.534   1.028   7.367  1.4585 -1.1159  1.7259
 1045SOL    HW2 3135   1.570   0.993   7.224  1.0098  0.1674  1.2816
 1046SOL     OW 3136   0.013   0.426   7.840  0.6625  0.0419  0.0845
 1046SOL    HW1 3137   0.063   0.345   7.836 -1.9245 -1.6217 -1.4295
 1046SOL    HW2 3138  -0.058   0.408   7.901  1.4968  2.1681  1.8217
 1047SOL     OW 3139   3.979   1.496   6.398 -1.1255 -0.2958 -0.0346
 1047SOL    HW1 3140   3.927   1.560   6.349 -0.7642 -0.3246 -0.4650
 1047SOL    HW2 3141   4.014   1.438   6.330 -0.1224  0.0224  0.1987
 1048SOL     OW 3142   4.142   4.440   9.621  1.3623  0.0824 -0.8265
 1048SOL    HW1 3143   4.088   4.516   9.600 -0.1288  0.0648  2.3374
 1048SOL    HW2 3144   4.226   4.477   9.648  0.9123  0.5985 -0.0855
 1049SOL     OW 3145   4.730   0.914   7.146  0.2923 -0.5091 -0.6096
 1049SOL    HW1 3146   4.731   0.960   7.230  1.8520 -0.8719 -0.4046
 1049SOL    HW2 3147   4.759   0.980   7.082 -0.8131 -0.2568 -0.8748
 1050SOL     OW 3148   1.826   1.198   4.795 -0.0106  0.1447 -0.7299
 1050SOL    HW1 3149   1.862   1.180   4.708  0.5852 -0.5744 -0.3550
 1050SOL    HW2 3150   1.792   1.287   4.789  0.1515  0.1596 -1.6553
 1051SOL     OW 3151   0.970   1.556   9.730 -0.1840  0.1377 -0.3306
 1051SOL    HW1 3152   0.963   1.493   9.801  0.0960 -3.2311 -3.0332
 1051SOL    HW2 3153   0.882   1.561   9.693 -0.6846  3.0132  1.0017
 1052SOL     OW 3154   4.115   2.950   9.383  0.3652  0.8576 -0.5455
 1052SOL    HW1 3155   4.131   3.008   9.457 -1.1902  2.7332 -1.5758
 1052SOL    HW2 3156   4.031   2.909   9.402  0.2611  0.8627 -0.9708
 1053SOL     OW 3157   2.957   3.427   7.008 -0.4144 -0.6133 -0.1467
 1053SOL    HW1 3158   2.955   3.341   7.049 -0.9600 -1.4125 -1.7717
 1053SOL    HW2 3159   2.954   3.489   7.081 -0.1719 -1.9553  1.0405
 1054SOL     OW 3160   4.924   3.816   9.921  0.3433  0.1863  0.0915
 1054SOL    HW1 3161   4.891   3.840  10.007  3.2795 -0.8549  1.6269
 1054SOL    HW2 3162   5.017   3.836   9.924  1.2444 -3.0433 -1.5518
 1055SOL     OW 3163   3.762   3.353   9.006 -0.0399 -0.1526  0.6078
 1055SOL    HW1 3164   3.748   3.445   9.029 -1.1550 -0.3828  0.9290
 1055SOL    HW2 3165   3.835   3.354   8.944 -0.4085  1.0019  0.1705
 1056SOL     OW 3166   0.596   3.348   8.131 -0.1923  0.4812  0.4623
 1056SOL    HW1 3167   0.598   3.392   8.046  2.5727  0.2233  0.2894
 1056SOL    HW2 3168   0.540   3.272   8.118  1.3737 -0.4392 -1.6796
 1057SOL     OW 3169   1.332   0.733   8.057 -0.1269 -0.1656 -1.2433
 1057SOL    HW1 3170   1.268   0.667   8.029  0.4210 -0.7077 -1.2363
 1057SOL    HW2 3171   1.377   0.694   8.131 -0.1620  0.4454 -0.8868
 1058SOL     OW 3172   0.647   0.363   6.832  0.2412 -0.4533  0.1295
 1058SOL    HW1 3173   0.725   0.418   6.843  1.1950 -1.1697 -2.4646
 1058SOL    HW2 3174   0.599   0.374   6.914  1.8875  1.8568  0.8925
 1059SOL     OW 3175   4.599   1.099   8.803 -0.4530 -0.1217  0.6343
 1059SOL    HW1 3176   4.662   1.170   8.790 -0.2301 -0.3465  0.4872
 1059SOL    HW2 3177   4.531   1.137   8.859 -0.0694  0.0498  0.9851
 1060SOL     OW 3178   0.896   0.803  10.708  0.2822 -0.7821 -0.5547
 1060SOL    HW1 3179   0.900   0.812  10.803  1.7187  1.8109 -0.7596
 1060SOL    HW2 3180   0.986   0.789  10.681 -0.3128 -3.3757 -1.4857
 1061SOL     OW 3181   2.868   0.567   9.138 -0.2940 -0.0506  0.7908
 1061SOL    HW1 3182   2.936   0.581   9.204 -0.3638  0.3477  0.7788
 1061SOL    HW2 3183   2.788   0.551   9.188 -0.2660 -0.1495  0.8038
 1062SOL     OW 3184   1.471   0.323   7.668  1.0769  1.1260  0.6130
 1062SOL    HW1 3185   1.427   0.351   7.589  0.6552  0.3378  0.5609
 1062SOL    HW2 3186   1.546   0.383   7.676  0.3047  2.1484  0.4328
 1063SOL     OW 3187   0.865   2.458   8.580  0.2702  0.0145 -0.0660
 1063SOL    HW1 3188   0.917   2.536   8.598 -0.6135  0.3027  1.5156
 1063SOL    HW2 3189   0.845   2.462   8.487  1.7109  0.7288 -0.3604
 1064SOL     OW 3190   1.621   3.702   9.911  0.5993  0.1401  0.2110
 1064SOL    HW1 3191   1.692   3.643   9.882 -0.1593 -0.8817  0.3671
 1064SOL    HW2 3192   1.575   3.652   9.978  0.2619  1.1523  0.7538
 1065SOL     OW 3193   0.348   1.143   5.668 -0.2582 -0.2637 -0.1004
 1065SOL    HW1 3194   0.351   1.203   5.593 -0.7772  1.7077  1.3493
 1065SOL    HW2 3195   0.288   1.073   5.641 -2.3334  1.6253 -0.7314
 1066SOL     OW 3196   4.192   3.456   6.056  0.2337  0.4331  0.0477
 1066SOL    HW1 3197   4.287   3.456   6.050  0.5411  2.2235  2.9183
 1066SOL    HW2 3198   4.173   3.419   6.142 -1.8199 -1.4086 -1.1115
 1067SOL     OW 3199   4.393   4.118   5.749 -0.0425  0.6089  0.0796
 1067SOL    HW1 3200   4.299   4.138   5.750 -0.0955  0.3479  0.4888
 1067SOL    HW2 3201   4.413   4.093   5.839 -0.4189 -3.1215 -0.6865
 1068SOL     OW 3202   1.836   1.153   9.921  0.0892  0.0902  0.0726
 1068SOL    HW1 3203   1.792   1.236   9.938  0.6756  0.4121  0.0562
 1068SOL    HW2 3204   1.904   1.148   9.988  1.0760  0.3757 -0.8741
 1069SOL     OW 3205   0.021   1.359   6.607 -0.5746  0.6618 -0.3408
 1069SOL    HW1 3206   0.001   1.369   6.514  1.8875 -0.6356 -1.0823
 1069SOL    HW2 3207   0.016   1.265   6.623  2.8470  0.3942 -0.2173
 1070SOL     OW 3208   2.147   1.817  10.000 -0.1858  1.0678  0.1026
 1070SOL    HW1 3209   2.196   1.819  10.083 -1.9754  1.4874  1.1949
 1070SOL    HW2 3210   2.095   1.897  10.000 -1.8124  0.0640 -0.4046
 1071SOL     OW 3211   3.312   3.511   8.855 -0.2130 -0.0465  0.0243
 1071SOL    HW1 3212   3.313   3.517   8.950  1.9730  0.3747  0.0289
 1071SOL    HW2 3213   3.264   3.590   8.827 -0.9129 -0.1982  0.7424
 1072SOL     OW 3214   0.366   1.124   7.500  0.1073 -0.0472  0.2768
 1072SOL    HW1 3215   0.450   1.168   7.504 -0.5336  1.2138  0.3445
 1072SOL    HW2 3216   0.319   1.167   7.428 -0.1323 -1.3893 -0.4189
 1073SOL     OW 3217   2.020   2.053  10.040 -0.0895  0.4050 -0.1027
 1073SOL    HW1 3218   1.962   2.073  10.114 -2.1111 -2.0852 -0.8569
 1073SOL    HW2 3219   2.000   2.120   9.975 -0.9290  0.5250  0.2659
 1074SOL     OW 3220   3.711   2.461   6.674  0.4784  0.0956  0.5573
 1074SOL    HW1 3221   3.781   2.519   6.704  0.4055 -0.2234  1.3628
 1074SOL    HW2 3222   3.731   2.377   6.715  0.0193 -0.1871  0.2084
 1075SOL     OW 3223   1.173   4.812   9.106 -0.3066 -0.2708  0.2341
 1075SOL    HW1 3224   1.102   4.838   9.164 -0.6470  0.4767 -0.4931
 1075SOL    HW2 3225   1.143   4.838   9.019 -1.2333 -4.1715 -0.7958
 1076SOL     OW 3226   3.326   1.799   7.876  0.2602  0.0171  0.5862
 1076SOL    HW1 3227   3.343   1.790   7.782 -0.0510 -0.0567  0.5351
 1076SOL    HW2 3228   3.411   1.786   7.917  0.0636 -2.1881  0.4478
 1077SOL     OW 3229   4.155   0.614   9.639  0.0830 -0.4356  0.0071
 1077SOL    HW1 3230   4.213   0.632   9.565  0.4858  0.8295  0.5975
 1077SOL    HW2 3231   4.198   0.655   9.713 -0.6922 -1.0389  0.8141
 1078SOL     OW 3232   0.028   4.745  10.166  0.2455  0.5444 -0.0328
 1078SOL    HW1 3233  -0.005   4.731  10.077  0.6296  0.5212 -0.1723
 1078SOL    HW2 3234  -0.016   4.826  10.195 -0.4292  0.1635  0.0293
 1079SOL     OW 3235   4.422   4.869   7.898 -0.4253 -0.4254 -1.4540
 1079SOL    HW1 3236   4.485   4.853   7.968 -1.4854 -0.3567 -0.4664
 1079SOL    HW2 3237   4.353   4.921   7.939 -0.7184  0.2345 -2.7339
 1080SOL     OW 3238   3.843   3.729   7.503 -0.3578  0.3204 -0.0205
 1080SOL    HW1 3239   3.784   3.695   7.436 -3.6539  1.1444  2.2207
 1080SOL    HW2 3240   3.887   3.651   7.538 -0.0035 -0.3143 -1.7446
 1081SOL     OW 3241   1.630   3.457   7.848  0.5539 -0.0095  0.1669
 1081SOL    HW1 3242   1.700   3.499   7.799 -0.6586  0.9760 -0.7718
 1081SOL    HW2 3243   1.577   3.529   7.881 -1.3734 -0.7312 -1.1711
 1082SOL     OW 3244   2.189   4.469   5.657  0.2240 -0.4803 -0.2847
 1082SOL    HW1 3245   2.249   4.518   5.601  0.7760 -1.5221 -0.6320
 1082SOL    HW2 3246   2.114   4.527   5.669  0.6921  0.2847 -0.9937
 1083SOL     OW 3247   1.889   1.016   7.626 -0.3890  0.1814 -0.0889
 1083SOL    HW1 3248   1.860   0.983   7.711 -1.3326 -0.4369 -0.6315
 1083SOL    HW2 3249   1.893   0.939   7.570  1.3119  0.4108 -0.3352
 1084SOL     OW 3250   1.471   0.632   5.170 -0.5634  0.9666  0.2239
 1084SOL    HW1 3251   1.488   0.542   5.196 -2.6396  0.6205  0.5899
 1084SOL    HW2 3252   1.544   0.656   5.113  0.5718 -0.5642  0.9818
 1085SOL     OW 3253   0.984   4.061   7.796  0.1576 -0.2086  0.2907
 1085SOL    HW1 3254   0.906   4.106   7.765  1.6703  1.2712 -1.5660
 1085SOL    HW2 3255   0.986   3.979   7.745  0.2003  0.0926 -0.1966
 1086SOL     OW 3256   1.652   4.952   7.595 -0.0489 -0.0990  0.1667
 1086SOL    HW1 3257   1.572   4.999   7.573 -0.5456 -1.2645 -0.6783
 1086SOL    HW2 3258   1.628   4.897   7.670  0.8327  1.7258  1.8711
 1087SOL     OW 3259   3.677   1.291   8.857 -0.5168 -0.2207 -0.2922
 1087SOL    HW1 3260   3.765   1.324   8.843 -0.3604 -0.9299 -1.0561
 1087SOL    HW2 3261   3.667   1.287   8.952  0.2138  0.0156 -0.2056
 1088SOL     OW 3262   2.737   2.979   5.141 -0.1049 -0.4784 -0.1238
 1088SOL    HW1 3263   2.824   2.973   5.180 -0.7514  1.5147  1.7733
 1088SOL    HW2 3264   2.682   3.017   5.209 -1.7356  1.4794 -2.3543
 1089SOL     OW 3265   0.560   2.910   8.708  0.3653 -0.1990 -0.3068
 1089SOL    HW1 3266   0.545   2.894   8.615  0.1793  1.1505 -0.5302
 1089SOL    HW2 3267   0.614   2.836   8.737  0.2713 -0.7271 -1.4341
 1090SOL     OW 3268   1.238   1.379  10.030 -0.0500 -0.6357 -0.0396
 1090SOL    HW1 3269   1.253   1.450   9.968 -1.1201  0.4763  0.9130
 1090SOL    HW2 3270   1.309   1.387  10.093 -0.0197 -0.5656 -0.0833
 1091SOL     OW 3271   1.590   1.565   9.331 -0.1026 -0.0707  0.2073
 1091SOL    HW1 3272   1.527   1.494   9.333  0.1189 -0.2693  0.1497
 1091SOL    HW2 3273   1.539   1.643   9.355 -0.7352  0.0561 -1.4182
 1092SOL     OW 3274   2.225   2.023   8.705  0.4398  0.0753 -0.3002
 1092SOL    HW1 3275   2.195   1.960   8.770  1.9153  0.2418  0.5820
 1092SOL    HW2 3276   2.230   1.973   8.623  0.4206 -0.6221  0.1213
 1093SOL     OW 3277   4.898   2.746  10.111  0.4924  0.1723  0.1010
 1093SOL    HW1 3278   4.878   2.828  10.156  3.0751  0.5775  0.6906
 1093SOL    HW2 3279   4.949   2.773  10.034 -1.1549 -0.7331 -1.3613
 1094SOL     OW 3280   1.103   0.610   9.517  0.2151  0.0813  0.1459
 1094SOL    HW1 3281   1.147   0.616   9.602  0.9185 -0.1181 -0.2018
 1094SOL    HW2 3282   1.043   0.536   9.526  0.7665 -0.3557  0.2526
 1095SOL     OW 3283   1.177   2.209  10.151 -0.1897  0.1431 -0.3385
 1095SOL    HW1 3284   1.119   2.203  10.228 -0.0077 -0.9809 -0.2639
 1095SOL    HW2 3285   1.119   2.231  10.079 -0.4860  0.4306 -0.0173
 1096SOL     OW 3286   0.490   1.153   8.976  0.1108 -0.0867 -0.0657
 1096SOL    HW1 3287   0.489   1.114   9.064 -1.5717 -0.8579 -0.3874
 1096SOL    HW2 3288   0.458   1.242   8.989 -2.1259 -0.8316 -0.1186
 1097SOL     OW 3289   0.679   1.165   8.322 -0.0090  0.4565 -0.0071
 1097SOL    HW1 3290   0.591   1.186   8.354 -0.3696  0.7067 -1.1198
 1097SOL    HW2 3291   0.700   1.081   8.363 -0.3334  0.8852  1.0748
 1098SOL     OW 3292   0.181   2.030   9.290  0.1992  0.4649 -0.2064
 1098SOL    HW1 3293   0.106   2.031   9.231 -1.6724 -0.0947  2.0244
 1098SOL    HW2 3294   0.162   1.961   9.353  0.9237  2.4611  2.4117
 1099SOL     OW 3295   3.445   0.712  10.426  0.8958 -0.8112 -0.4171
 1099SOL    HW1 3296   3.524   0.668  10.456 -0.4327 -1.7743  1.9813
 1099SOL    HW2 3297   3.456   0.803  10.453  0.5684 -1.2698  1.4217
 1100SOL     OW 3298   2.894   2.700   9.314  0.0043  0.2958  0.1245
 1100SOL    HW1 3299   2.935   2.778   9.352  1.9845 -0.8909  0.5996
 1100SOL    HW2 3300   2.804   2.726   9.296 -0.2025  1.8484  2.8709
 1101SOL     OW 3301   1.693   2.736   9.315 -0.4854 -0.4393  0.2825
 1101SOL    HW1 3302   1.751   2.749   9.240  0.3130 -0.4956  0.8839
 1101SOL    HW2 3303   1.655   2.823   9.331  1.2473  0.1669  1.3511
 1102SOL     OW 3304   4.950   1.220  10.394  0.3139 -0.5377  0.5474
 1102SOL    HW1 3305   5.036   1.246  10.425  1.4393 -3.2976 -0.0097
 1102SOL    HW2 3306   4.955   1.125  10.384 -2.2768 -0.6095 -1.0991
 1103SOL     OW 3307   4.493   1.485   7.713 -1.0696  0.6344  0.1470
 1103SOL    HW1 3308   4.559   1.517   7.774 -1.4478  1.1294  0.2950
 1103SOL    HW2 3309   4.461   1.563   7.669 -1.8915  0.4490  0.4038
 1104SOL     OW 3310   4.109   1.823   6.765 -0.1755 -0.0245  0.2311
 1104SOL    HW1 3311   4.059   1.884   6.711  0.0739  0.2303  0.2841
 1104SOL    HW2 3312   4.046   1.793   6.831 -0.7354 -1.0494 -0.7474
 1105SOL     OW 3313   0.980   3.224   7.868 -0.0900 -1.3167 -0.2541
 1105SOL    HW1 3314   0.963   3.244   7.960  0.8685 -0.7254 -0.1886
 1105SOL    HW2 3315   1.075   3.237   7.858 -0.4311  0.5142 -1.7572
 1106SOL     OW 3316   0.253   1.163   9.753 -0.6550  0.4347  0.3486
 1106SOL    HW1 3317   0.327   1.221   9.770 -0.1621  0.5944 -1.9552
 1106SOL    HW2 3318   0.183   1.221   9.726 -0.9001  0.1323  0.3308
 1107SOL     OW 3319   3.388   1.631   8.502 -0.1620 -0.1841  0.5849
 1107SOL    HW1 3320   3.421   1.642   8.591  0.6828  0.0043  0.2622
 1107SOL    HW2 3321   3.301   1.670   8.503  0.1883  0.6034  1.1129
 1108SOL     OW 3322   0.926   3.896   8.605  0.0635  0.2125  0.1017
 1108SOL    HW1 3323   0.929   3.858   8.517  2.1396 -0.1504  0.2714
 1108SOL    HW2 3324   1.013   3.880   8.641  0.3299  3.1798  1.0460
 1109SOL     OW 3325   1.823   3.729   7.233  0.7609  0.6210 -0.2473
 1109SOL    HW1 3326   1.801   3.807   7.182 -0.3799  0.9617  0.7188
 1109SOL    HW2 3327   1.913   3.710   7.209  0.8618  1.8688 -0.9768
 1110SOL     OW 3328   1.837   2.636   6.458 -0.1144 -0.0619 -0.0358
 1110SOL    HW1 3329   1.904   2.568   6.451  0.4103  0.6078 -3.1840
 1110SOL    HW2 3330   1.887   2.718   6.462 -0.7288  0.3172 -0.0469
 1111SOL     OW 3331   4.313   3.385   5.548 -0.0177 -0.6739 -0.1691
 1111SOL    HW1 3332   4.321   3.438   5.468 -0.9367 -1.5840 -0.8994
 1111SOL    HW2 3333   4.388   3.325   5.544 -1.5487 -2.6196 -1.8788
 1112SOL     OW 3334   4.350   4.950   9.884 -0.6430  0.2233  0.1947
 1112SOL    HW1 3335   4.435   4.980   9.852  0.9874 -4.0080 -0.0228
 1112SOL    HW2 3336   4.350   4.973   9.977  1.6373 -1.2914  0.6399
 1113SOL     OW 3337   1.764   0.219   9.330  0.8435 -0.1322 -0.5622
 1113SOL    HW1 3338   1.706   0.143   9.337  1.2516 -0.4548 -0.6934
 1113SOL    HW2 3339   1.849   0.183   9.307  1.2546  0.2856  0.2445
 1114SOL     OW 3340   2.701   0.571   8.644 -0.6776 -0.5125  0.3228
 1114SOL    HW1 3341   2.645   0.502   8.680 -1.3112 -0.9692 -1.4671
 1114SOL    HW2 3342   2.767   0.586   8.712 -1.6758 -1.5037  1.5503
 1115SOL     OW 3343   0.457   2.488   9.708  0.0661  0.4179 -0.2045
 1115SOL    HW1 3344   0.399   2.542   9.761  0.5358 -0.7922  1.6714
 1115SOL    HW2 3345   0.540   2.534   9.708 -0.3477  1.1946 -1.2546
 1116SOL     OW 3346   3.826   4.889   5.773 -0.0461 -0.0670  0.0925
 1116SOL    HW1 3347   3.857   4.944   5.701 -0.0395 -1.3776 -0.9463
 1116SOL    HW2 3348   3.803   4.806   5.732  0.2399 -0.9667  1.6491
 1117SOL     OW 3349   0.314   3.057  10.152  0.4476  0.5338 -0.0057
 1117SOL    HW1 3350   0.382   3.117  10.120  0.9447  0.6624  1.2496
 1117SOL    HW2 3351   0.362   2.979  10.181 -0.1366 -0.2333 -1.0045
 1118SOL     OW 3352   3.961   0.845   6.967  0.1825  0.0371  0.5766
 1118SOL    HW1 3353   3.874   0.814   6.946  0.6159 -2.3848  1.9086
 1118SOL    HW2 3354   3.964   0.846   7.063  1.0920  1.8161  0.5905
 1119SOL     OW 3355   1.687   1.365   9.884 -0.3589  0.4013  0.7274
 1119SOL    HW1 3356   1.705   1.437   9.824 -0.1594 -0.6273 -0.5079
 1119SOL    HW2 3357   1.617   1.316   9.842  0.1123 -0.6195  1.0830
 1120SOL     OW 3358   0.227   1.495   8.127 -0.1700  0.5265  0.7338
 1120SOL    HW1 3359   0.311   1.457   8.150  0.7653  1.8363 -0.3056
 1120SOL    HW2 3360   0.248   1.587   8.106 -1.7135  0.6718 -0.3213
 1121SOL     OW 3361   1.103   4.734   8.830 -0.3069 -0.2171 -0.1175
 1121SOL    HW1 3362   1.084   4.642   8.814  1.8925 -1.0439  1.5402
 1121SOL    HW2 3363   1.026   4.768   8.876 -0.5705 -1.6117  0.4983
 1122SOL     OW 3364   1.063   0.428   8.819 -0.1615 -0.1380  0.3891
 1122SOL    HW1 3365   1.068   0.337   8.848  0.7716 -0.0361  0.5798
 1122SOL    HW2 3366   0.985   0.463   8.863 -2.0168 -1.4888 -1.6099
 1123SOL     OW 3367   2.498   3.779   8.331  0.0482 -0.6117 -0.3547
 1123SOL    HW1 3368   2.521   3.762   8.422 -0.6777  1.7694  0.3677
 1123SOL    HW2 3369   2.581   3.804   8.290  0.2753 -1.0516 -0.1642
 1124SOL     OW 3370   0.775   4.706   9.397  0.6471 -0.5368 -0.1392
 1124SOL    HW1 3371   0.824   4.626   9.419  2.9024  0.3584 -1.5843
 1124SOL    HW2 3372   0.722   4.681   9.321  0.3850 -0.9651  0.1754
 1125SOL     OW 3373   2.249   4.257   7.529  0.3693  0.3453  0.6114
 1125SOL    HW1 3374   2.269   4.178   7.480  1.1547  1.8346 -1.6196
 1125SOL    HW2 3375   2.324   4.314   7.516 -1.4097  2.6397 -0.4458
 1126SOL     OW 3376   0.432   0.196  10.212 -0.6893  0.2360  0.0192
 1126SOL    HW1 3377   0.475   0.113  10.232 -1.8737 -0.2168  0.8796
 1126SOL    HW2 3378   0.338   0.176  10.218 -1.0033  1.7932  1.0326
 1127SOL     OW 3379   4.119   1.940   9.276  0.0002  0.5091  0.1774
 1127SOL    HW1 3380   4.055   1.946   9.205  1.5736 -0.8426 -1.4478
 1127SOL    HW2 3381   4.121   2.028   9.314 -2.1322  0.8210 -0.2785
 1128SOL     OW 3382   4.054   0.142  10.304  0.0380  0.3261  0.0427
 1128SOL    HW1 3383   4.126   0.201  10.282 -1.2509  1.5644 -1.0420
 1128SOL    HW2 3384   3.977   0.199  10.307 -1.1760 -1.2316 -0.5241
 1129SOL     OW 3385   2.309   2.883  10.202  0.1372  0.0537 -1.0026
 1129SOL    HW1 3386   2.395   2.857  10.234 -0.4449 -1.4712 -0.5943
 1129SOL    HW2 3387   2.298   2.833  10.121 -0.7240 -0.4869 -0.5664
 1130SOL     OW 3388   4.766   1.675   6.129 -0.4758 -1.3949  0.3396
 1130SOL    HW1 3389   4.741   1.604   6.070 -1.5087 -0.5832 -0.2150
 1130SOL    HW2 3390   4.692   1.685   6.189 -0.3687 -0.7463  0.3736
 1131SOL     OW 3391   4.746   4.872   9.365  0.1052 -0.1225  0.2661
 1131SOL    HW1 3392   4.806   4.934   9.406  0.5593 -0.6823  0.4532
 1131SOL    HW2 3393   4.791   4.843   9.285 -0.2569  0.0475 -0.0056
 1132SOL     OW 3394   2.677   2.405   6.959  0.2732  0.0539 -1.0928
 1132SOL    HW1 3395   2.720   2.391   7.043  0.7118 -3.1087 -1.7231
 1132SOL    HW2 3396   2.747   2.431   6.900  1.2803 -3.6057 -1.7595
 1133SOL     OW 3397   0.322   1.736   6.464 -0.0245 -0.3296  0.3169
 1133SOL    HW1 3398   0.312   1.746   6.370  0.8062  0.4313  0.3060
 1133SOL    HW2 3399   0.245   1.684   6.490 -0.3373 -0.4289 -0.7424
 1134SOL     OW 3400   3.975   4.484   8.969  0.3280  0.4832 -0.5558
 1134SOL    HW1 3401   3.958   4.506   8.878 -1.1992 -1.5748 -0.8410
 1134SOL    HW2 3402   4.048   4.540   8.994 -0.9542  3.0885 -2.1810
 1135SOL     OW 3403   5.010   4.090   7.577 -0.4901  0.7981  0.4353
 1135SOL    HW1 3404   4.965   4.010   7.604 -0.6769  0.8999  0.4282
 1135SOL    HW2 3405   4.978   4.107   7.489  0.7433  0.0093 -0.1849
 1136SOL     OW 3406   3.204   2.953   9.734 -0.4730  0.2350  0.1557
 1136SOL    HW1 3407   3.217   2.886   9.668  0.0004  1.5052 -1.0884
 1136SOL    HW2 3408   3.233   3.034   9.692 -2.9622  1.5894  0.8640
 1137SOL     OW 3409   2.369   2.867   8.979  0.2702 -0.5390 -0.0638
 1137SOL    HW1 3410   2.394   2.895   8.891 -0.1077  1.3463  0.3822
 1137SOL    HW2 3411   2.400   2.937   9.037 -0.3534 -1.2614  1.2001
 1138SOL     OW 3412   3.726   0.510   7.743  0.1984  0.1977 -0.0962
 1138SOL    HW1 3413   3.785   0.568   7.695 -0.8210  2.3034  1.0683
 1138SOL    HW2 3414   3.780   0.436   7.769  2.1456  1.7090  0.3263
 1139SOL     OW 3415   1.097   1.764  10.102  0.4825  0.1567 -0.6166
 1139SOL    HW1 3416   1.166   1.702  10.128  2.1884  1.9793 -0.5875
 1139SOL    HW2 3417   1.017   1.727  10.140  1.1388 -2.6911 -1.6840
 1140SOL     OW 3418   0.550   4.577   9.615 -0.3556 -0.6555 -0.3685
 1140SOL    HW1 3419   0.535   4.511   9.547 -0.0817 -0.8779 -0.2133
 1140SOL    HW2 3420   0.506   4.542   9.693 -1.6960  0.1550 -0.7335
 1141SOL     OW 3421   0.797   0.588  10.246  0.4795 -0.3555  0.0431
 1141SOL    HW1 3422   0.741   0.510  10.244  2.0910 -1.6073  0.9848
 1141SOL    HW2 3423   0.874   0.564  10.195  1.4887  0.2058  1.2408
 1142SOL     OW 3424   1.685   2.454   8.814  0.4464 -0.0698  0.5256
 1142SOL    HW1 3425   1.629   2.385   8.850  0.4190 -0.9583 -1.1642
 1142SOL    HW2 3426   1.627   2.530   8.806  0.1971 -0.1616  1.3294
 1143SOL     OW 3427   1.253   0.491   6.116 -0.0290  0.1209 -0.0827
 1143SOL    HW1 3428   1.180   0.505   6.056 -1.0847 -0.3625  1.0273
 1143SOL    HW2 3429   1.323   0.547   6.083 -0.7830  0.3460 -1.3747
 1144SOL     OW 3430   0.233   4.317   8.894 -0.3098 -0.2392  0.5561
 1144SOL    HW1 3431   0.209   4.387   8.954  1.7270  0.5499  0.5246
 1144SOL    HW2 3432   0.251   4.242   8.951  0.8641  0.2848  0.9059
 1145SOL     OW 3433   3.061   2.524   6.793  0.3935  0.0622  0.1348
 1145SOL    HW1 3434   2.979   2.486   6.761  0.0372  0.5329  0.4854
 1145SOL    HW2 3435   3.055   2.617   6.771 -1.3553  1.1955  4.4003
 1146SOL     OW 3436   0.951   4.409   4.995 -0.4886  0.1216 -0.2225
 1146SOL    HW1 3437   0.955   4.497   5.030 -0.6234 -0.7364  2.1220
 1146SOL    HW2 3438   1.021   4.405   4.930  1.5168  1.0956  1.7517
 1147SOL     OW 3439   0.901   0.673   7.610 -0.5571 -0.1410  0.6273
 1147SOL    HW1 3440   0.916   0.692   7.517  0.0517 -0.7131  0.6044
 1147SOL    HW2 3441   0.807   0.659   7.617 -0.6101 -0.0531  0.1004
 1148SOL     OW 3442   2.517   2.491   6.400 -0.2324  0.1919  0.7152
 1148SOL    HW1 3443   2.564   2.536   6.330 -0.3224  0.8194  1.0602
 1148SOL    HW2 3444   2.567   2.509   6.479 -0.4405 -0.0627  0.9076
 1149SOL     OW 3445   0.458   4.315   9.619 -0.3015 -0.1266 -0.1181
 1149SOL    HW1 3446   0.379   4.311   9.565  0.4937 -2.3291 -1.2275
 1149SOL    HW2 3447   0.432   4.275   9.702 -0.7117  0.4763  0.0525
 1150SOL     OW 3448   4.306   1.195   5.556  0.0969 -0.2316 -0.4789
 1150SOL    HW1 3449   4.362   1.227   5.485 -0.5553  1.8178 -0.1460
 1150SOL    HW2 3450   4.228   1.250   5.552 -1.0186 -1.6854  0.3375
 1151SOL     OW 3451   0.280   4.338   5.608 -0.1131  0.0460 -0.0271
 1151SOL    HW1 3452   0.346   4.364   5.545  2.2992 -2.1323  1.4242
 1151SOL    HW2 3453   0.257   4.248   5.584 -1.9176  0.4483  0.0570
 1152SOL     OW 3454   1.450   1.326   5.573 -0.5647 -0.2783 -0.3798
 1152SOL    HW1 3455   1.527   1.275   5.549  0.6592  0.7900  1.1316
 1152SOL    HW2 3456   1.394   1.263   5.619  1.2918 -0.2204  2.1954
 1153SOL     OW 3457   0.110   2.041   7.565 -0.1889 -0.0700 -0.0159
 1153SOL    HW1 3458   0.198   2.079   7.554 -0.8749  1.4474 -0.6423
 1153SOL    HW2 3459   0.052   2.117   7.567 -1.9855 -1.0660 -4.2415
 1154SOL     OW 3460   3.877   3.098   5.771  0.5846 -0.2772  0.2171
 1154SOL    HW1 3461   3.815   3.169   5.791  1.6510  0.5233  0.7715
 1154SOL    HW2 3462   3.960   3.127   5.809  1.6307 -0.7215 -1.5930
 1155SOL     OW 3463   0.922   0.828   5.248 -0.1115 -0.0160 -0.0113
 1155SOL    HW1 3464   0.907   0.804   5.157  1.4336  1.5084 -0.7239
 1155SOL    HW2 3465   0.856   0.779   5.297 -3.0445  1.3819 -2.2182
 1156SOL     OW 3466   3.421   2.500   5.279 -0.3862 -0.5150 -0.1675
 1156SOL    HW1 3467   3.417   2.456   5.194  1.9922  0.5955 -0.9391
 1156SOL    HW2 3468   3.514   2.496   5.303 -0.6924  0.9560  1.4269
 1157SOL     OW 3469   0.612   4.430   5.471  0.1450  0.6645  0.2509
 1157SOL    HW1 3470   0.689   4.398   5.423  1.5051  3.0404  0.6677
 1157SOL    HW2 3471   0.623   4.395   5.559 -1.3555 -2.1309 -0.5452
 1158SOL     OW 3472   0.726   1.472   5.281 -0.7188 -0.5785 -0.3087
 1158SOL    HW1 3473   0.669   1.524   5.225 -1.4314  0.7741  1.5936
 1158SOL    HW2 3474   0.794   1.439   5.222 -2.2759 -0.4884 -2.2219
 1159SOL     OW 3475  -0.020   4.693   6.664  0.4819 -0.7242 -0.1148
 1159SOL    HW1 3476   0.033   4.648   6.730  2.2834 -0.5485 -1.3601
 1159SOL    HW2 3477   0.021   4.779   6.655 -1.2847  0.1990  0.3122
 1160SOL     OW 3478   2.025   3.876   5.685 -0.1607 -0.3833 -0.2087
 1160SOL    HW1 3479   2.053   3.906   5.771 -1.4157 -0.9409  0.4216
 1160SOL    HW2 3480   2.097   3.900   5.626  0.2015  1.0867  0.7828
 1161SOL     OW 3481   4.884   0.685   4.851 -0.3670 -0.1151  0.9231
 1161SOL    HW1 3482   4.881   0.645   4.938 -0.3559 -1.3450  0.3783
 1161SOL    HW2 3483   4.976   0.677   4.824 -0.3402  0.3891  0.8484
 1162SOL     OW 3484   0.781   3.002   6.864  0.4713 -0.7019  0.2056
 1162SOL    HW1 3485   0.742   2.948   6.796 -0.7570 -2.6415  2.2898
 1162SOL    HW2 3486   0.807   2.940   6.932  0.2353  1.2128  2.1779
 1163SOL     OW 3487   0.871   4.310   6.883 -0.8349 -0.3224  0.3403
 1163SOL    HW1 3488   0.891   4.403   6.886 -0.4378 -0.4325  1.4408
 1163SOL    HW2 3489   0.932   4.270   6.945  0.8456 -1.6610 -2.0027
 1164SOL     OW 3490   0.209   3.519   8.262  0.7741 -0.2672  0.0448
 1164SOL    HW1 3491   0.207   3.461   8.186  0.2404  1.4894 -1.3396
 1164SOL    HW2 3492   0.299   3.552   8.266  0.6194  0.1969 -0.2675
 1165SOL     OW 3493   2.942   0.931   6.008  0.0872 -0.1991 -0.0819
 1165SOL    HW1 3494   2.934   0.972   5.922 -0.3204 -0.1763 -0.0353
 1165SOL    HW2 3495   2.942   0.837   5.990  0.2940 -0.1905 -0.1290
 1166SOL     OW 3496   3.606   2.369   5.739  0.0790 -0.2441  0.1241
 1166SOL    HW1 3497   3.620   2.277   5.721  0.7767 -0.0571 -0.3124
 1166SOL    HW2 3498   3.518   2.373   5.778 -0.9579 -0.8196 -2.0066
 1167SOL     OW 3499   1.006   1.884   6.339  0.1931  0.0037  0.2161
 1167SOL    HW1 3500   1.019   1.943   6.265 -0.4769 -0.7559 -0.5352
 1167SOL    HW2 3501   0.931   1.921   6.386 -0.9757 -0.8124 -0.9007
 1168SOL     OW 3502   0.959   1.547   6.229  0.0193  0.3475  0.8640
 1168SOL    HW1 3503   1.011   1.558   6.309 -1.3974  0.3070  1.8217
 1168SOL    HW2 3504   0.975   1.457   6.202  3.2217  1.2735 -0.9390
 1169SOL     OW 3505   1.503   0.839   7.710  0.1560 -0.4297 -0.3161
 1169SOL    HW1 3506   1.493   0.903   7.780  0.8123  1.3041 -1.7250
 1169SOL    HW2 3507   1.424   0.785   7.714 -0.9810  1.2002  0.2140
 1170SOL     OW 3508   2.342   0.007   6.610 -0.2937 -0.1756  0.1125
 1170SOL    HW1 3509   2.332   0.072   6.679  1.6030 -0.8924  1.1175
 1170SOL    HW2 3510   2.346   0.059   6.529 -2.2721  0.6785  0.4853
 1171SOL     OW 3511   0.927   3.340   5.141 -0.1048  0.5759  0.1218
 1171SOL    HW1 3512   0.927   3.415   5.199 -2.3488  1.2190 -0.6081
 1171SOL    HW2 3513   0.840   3.302   5.149  0.2963 -0.7299 -1.0551
 1172SOL     OW 3514   2.258   2.080   9.557 -0.0738  0.1630  0.6959
 1172SOL    HW1 3515   2.308   2.044   9.484 -1.9684  0.8237 -1.0264
 1172SOL    HW2 3516   2.236   2.004   9.611  1.5257 -0.3064  0.7267
 1173SOL     OW 3517   4.428   4.762   6.164 -0.3844 -0.2980 -0.2900
 1173SOL    HW1 3518   4.492   4.701   6.128 -0.9957  0.2082 -2.3430
 1173SOL    HW2 3519   4.387   4.714   6.236 -0.5832 -2.1749 -1.6033
 1174SOL     OW 3520   3.141   0.849   5.605 -0.0352  1.1780  0.3493
 1174SOL    HW1 3521   3.106   0.919   5.550 -1.5856  1.0904  1.1767
 1174SOL    HW2 3522   3.213   0.812   5.554 -1.0680  1.4588 -1.3884
 1175SOL     OW 3523   2.260   3.601   9.231 -0.2037  0.0640  0.5731
 1175SOL    HW1 3524   2.189   3.547   9.196 -0.1991 -0.2482  1.0297
 1175SOL    HW2 3525   2.230   3.691   9.221  0.5645  0.1340 -1.9353
 1176SOL     OW 3526   3.359   1.202   5.175 -0.5997 -0.2407  0.7101
 1176SOL    HW1 3527   3.449   1.205   5.207 -0.8873 -2.7222  1.9636
 1176SOL    HW2 3528   3.340   1.293   5.150  1.7611  0.6100  1.6874
 1177SOL     OW 3529   1.695   2.902   8.272  0.5514 -0.4966 -0.3615
 1177SOL    HW1 3530   1.702   2.882   8.179  3.4578  0.9120 -0.5448
 1177SOL    HW2 3531   1.685   2.816   8.314  2.4329 -1.4907 -1.7890
 1178SOL     OW 3532   1.171   4.007   6.203  0.2284 -0.2479 -0.1028
 1178SOL    HW1 3533   1.220   4.083   6.233  0.3316 -0.2543 -0.2521
 1178SOL    HW2 3534   1.079   4.031   6.211  0.2653  0.0862 -0.6504
 1179SOL     OW 3535   2.861   0.171   4.893 -0.4777 -0.4005 -0.0111
 1179SOL    HW1 3536   2.908   0.100   4.936 -1.2492 -0.8611  0.0665
 1179SOL    HW2 3537   2.930   0.217   4.843  0.0485 -1.1111  0.0392
 1180SOL     OW 3538   4.798   3.571   5.403 -0.5162  0.1118 -0.6740
 1180SOL    HW1 3539   4.849   3.590   5.481  0.6873  0.7863 -1.5926
 1180SOL    HW2 3540   4.712   3.608   5.421 -0.1212  0.6745  0.1421
 1181SOL     OW 3541   1.344   2.302   5.106  0.3889  0.0431  0.0361
 1181SOL    HW1 3542   1.301   2.220   5.079 -0.0568  0.5289 -0.7755
 1181SOL    HW2 3543   1.377   2.284   5.194 -1.0548 -0.5142  0.4939
 1182SOL     OW 3544   1.053   2.434   6.628  0.3477 -0.6543  0.3688
 1182SOL    HW1 3545   1.085   2.524   6.620  1.0107 -0.9967 -1.3054
 1182SOL    HW2 3546   0.978   2.430   6.569 -0.2298 -0.9852  1.1066
 1183SOL     OW 3547   1.710   4.757   6.543 -0.7131  0.0846 -0.0764
 1183SOL    HW1 3548   1.782   4.808   6.507 -0.5454  0.1174  0.3012
 1183SOL    HW2 3549   1.642   4.760   6.476 -0.3032 -0.0829 -0.4990
 1184SOL     OW 3550   0.870   0.041   5.527  0.4640 -0.2736  0.2941
 1184SOL    HW1 3551   0.961   0.067   5.537  0.7763 -1.6537  1.5088
 1184SOL    HW2 3552   0.874  -0.051   5.500 -0.5401 -0.6306  1.2536
 1185SOL     OW 3553   4.515   2.969   6.155  0.8107 -0.6231  0.4176
 1185SOL    HW1 3554   4.427   2.943   6.184 -0.4070  1.1560 -1.3789
 1185SOL    HW2 3555   4.543   2.898   6.097  0.1502 -0.7849  0.2801
 1186SOL     OW 3556   2.554   1.586   7.604 -0.0674 -0.2877 -0.2326
 1186SOL    HW1 3557   2.566   1.559   7.695 -0.0432 -3.9790 -1.1809
 1186SOL    HW2 3558   2.641   1.578   7.565 -0.1801  0.7472 -0.7181
 1187SOL     OW 3559   3.771   4.802   6.425 -0.5825  0.0846  0.3937
 1187SOL    HW1 3560   3.772   4.889   6.465  0.2632  1.1374 -1.7234
 1187SOL    HW2 3561   3.714   4.812   6.348  3.3251  0.2926 -2.7681
 1188SOL     OW 3562   2.628   3.837   5.392 -0.9517  0.1324 -0.0905
 1188SOL    HW1 3563   2.596   3.926   5.410  0.4502  0.9767 -1.4940
 1188SOL    HW2 3564   2.714   3.834   5.433 -0.0063  0.2648 -1.9702
 1189SOL     OW 3565   0.429   0.838   6.202  0.1923  0.2915  0.0641
 1189SOL    HW1 3566   0.475   0.754   6.198  0.3345  0.1722  2.5886
 1189SOL    HW2 3567   0.495   0.902   6.175  1.0784 -0.1230  1.1648
 1190SOL     OW 3568   2.743   2.106   6.839 -0.0301 -0.0353  0.2842
 1190SOL    HW1 3569   2.656   2.146   6.842 -1.0113 -1.9468 -0.3910
 1190SOL    HW2 3570   2.750   2.058   6.922 -0.0583 -0.6717 -0.0716
 1191SOL     OW 3571   1.746   1.703   5.230  0.6289 -0.0367  0.2170
 1191SOL    HW1 3572   1.743   1.640   5.302  0.6501  0.0952  0.3346
 1191SOL    HW2 3573   1.690   1.665   5.163  0.3915 -0.0308  0.4099
 1192SOL     OW 3574   4.073   3.268   6.604 -0.2115 -0.1741  0.2203
 1192SOL    HW1 3575   4.064   3.231   6.692  0.2145 -1.2544 -0.1729
 1192SOL    HW2 3576   4.106   3.195   6.551 -0.7895  0.3643 -0.9117
 1193SOL     OW 3577   3.204   2.955   8.726  0.9155  0.0235 -0.3938
 1193SOL    HW1 3578   3.297   2.964   8.704  0.4452  2.4153 -1.6860
 1193SOL    HW2 3579   3.167   2.907   8.652  1.1757 -1.4905  0.4148
 1194SOL     OW 3580   2.631   4.792   5.481  1.3832  0.4187  0.3104
 1194SOL    HW1 3581   2.586   4.875   5.496  0.7472  0.4794 -1.7066
 1194SOL    HW2 3582   2.701   4.813   5.419  0.5684 -0.7034 -1.0389
 1195SOL     OW 3583   1.264   1.500   6.908 -0.1129  0.4628 -0.0856
 1195SOL    HW1 3584   1.285   1.584   6.950  0.5119 -0.0755  0.7124
 1195SOL    HW2 3585   1.345   1.476   6.863 -0.5295  0.6451 -0.9408
 1196SOL     OW 3586   1.160   1.677   4.651  0.7307 -0.1251  1.2806
 1196SOL    HW1 3587   1.100   1.752   4.642 -1.3461 -1.6961  1.2947
 1196SOL    HW2 3588   1.247   1.715   4.638 -0.0886  2.5467  2.7038
 1197SOL     OW 3589   0.215   4.916   7.083  0.5474  0.3333 -0.6855
 1197SOL    HW1 3590   0.160   4.900   7.160  0.5859  2.6474 -0.1005
 1197SOL    HW2 3591   0.155   4.911   7.009 -0.0136  0.6166 -0.2579
 1198SOL     OW 3592   2.631   3.499   5.680 -0.4554 -0.5715  0.2902
 1198SOL    HW1 3593   2.618   3.420   5.628  0.2723 -0.7258  0.3342
 1198SOL    HW2 3594   2.611   3.471   5.770  0.7268 -0.9638  0.4429
 1199SOL     OW 3595   4.435   0.928   5.599  0.2663 -0.0693  0.2459
 1199SOL    HW1 3596   4.505   0.965   5.652  0.6454 -0.1905 -0.1629
 1199SOL    HW2 3597   4.380   1.003   5.577  0.3102  0.0399  0.5068
 1200SOL     OW 3598   1.959   1.344   5.014  0.0072 -0.1605 -0.1921
 1200SOL    HW1 3599   2.048   1.370   4.993 -0.6430  2.2134 -0.3439
 1200SOL    HW2 3600   1.966   1.253   5.044  2.5879  0.2709  0.7351
 1201SOL     OW 3601   2.420   4.263   6.053  0.0604 -0.2663 -0.3490
 1201SOL    HW1 3602   2.370   4.329   6.005  1.4433  1.0916 -0.0003
 1201SOL    HW2 3603   2.446   4.307   6.134 -0.0330 -1.6679  0.4779
 1202SOL     OW 3604   0.376   3.739   7.528 -0.0551 -0.4307  0.1131
 1202SOL    HW1 3605   0.391   3.659   7.477 -0.9957  0.2991 -1.3779
 1202SOL    HW2 3606   0.295   3.722   7.575  0.4080 -0.8101  0.7964
 1203SOL     OW 3607   4.133   3.155   5.436 -0.0869 -0.7892  0.2260
 1203SOL    HW1 3608   4.193   3.089   5.472 -1.4409 -2.1023  0.1538
 1203SOL    HW2 3609   4.147   3.233   5.490 -0.4013 -1.9801  2.0877
 1204SOL     OW 3610   2.626   0.438   5.514  0.4881 -0.1050 -0.2535
 1204SOL    HW1 3611   2.670   0.423   5.429 -1.7731 -2.3337 -1.1587
 1204SOL    HW2 3612   2.693   0.415   5.579  1.4435 -1.0558 -1.5035
 1205SOL     OW 3613   2.218   5.007   5.520 -1.2459  0.5136 -0.4366
 1205SOL    HW1 3614   2.168   4.929   5.544  0.3398  0.1225  1.9000
 1205SOL    HW2 3615   2.221   5.059   5.601  1.6474  0.7345 -0.6083
 1206SOL     OW 3616   2.659   4.511   6.679  0.1128  0.6319  0.5294
 1206SOL    HW1 3617   2.639   4.489   6.588  1.0112  0.5287  0.3443
 1206SOL    HW2 3618   2.648   4.606   6.684  3.5594  1.2344 -0.6803
 1207SOL     OW 3619   0.945   3.572   5.269  0.0777  0.8297 -0.0501
 1207SOL    HW1 3620   1.025   3.574   5.217 -0.0413  3.5391 -0.2714
 1207SOL    HW2 3621   0.889   3.639   5.230 -1.3816  0.5731  1.4844
 1208SOL     OW 3622   3.027   1.793   7.102  0.6309 -0.5256 -0.0996
 1208SOL    HW1 3623   3.074   1.713   7.079 -0.7717 -1.1203 -1.0459
 1208SOL    HW2 3624   2.935   1.768   7.103  0.3080  0.3180  2.8103
 1209SOL     OW 3625   2.798   4.348   6.210 -0.3126  0.2056 -0.0639
 1209SOL    HW1 3626   2.842   4.380   6.131  0.4644 -1.9209 -0.5500
 1209SOL    HW2 3627   2.863   4.357   6.279 -0.7967  1.5142  0.2620
 1210SOL     OW 3628   1.665   0.637   5.683 -0.5733  0.3975 -0.1624
 1210SOL    HW1 3629   1.646   0.554   5.728 -1.9590 -0.3149 -1.9302
 1210SOL    HW2 3630   1.742   0.671   5.728 -1.9839 -0.0961  2.8967
 1211SOL     OW 3631   0.760   2.812   5.775  0.4341  0.1672  0.3836
 1211SOL    HW1 3632   0.835   2.802   5.715 -0.0962 -2.4047  0.0018
 1211SOL    HW2 3633   0.782   2.756   5.849  0.8085  2.8564  2.4436
 1212SOL     OW 3634   1.443   1.705   4.679  0.6431  1.2097 -1.0391
 1212SOL    HW1 3635   1.506   1.710   4.751 -1.9189  0.1402  1.4922
 1212SOL    HW2 3636   1.436   1.611   4.660 -0.5808  1.2359 -0.8068
 1213SOL     OW 3637   1.999   1.663   5.089 -0.3347 -0.2743  0.4950
 1213SOL    HW1 3638   1.941   1.613   5.147 -0.8626 -0.8805 -0.5155
 1213SOL    HW2 3639   1.941   1.696   5.021  0.2285  0.6523  0.4558
 1214SOL     OW 3640   0.830   3.689   7.984  0.1063 -0.2154  0.1764
 1214SOL    HW1 3641   0.909   3.681   7.930  3.2171  1.7425  3.9153
 1214SOL    HW2 3642   0.795   3.775   7.963  1.2817  0.5232  1.1302
 1215SOL     OW 3643   4.257   2.562   8.392  0.3530 -0.1833 -0.2527
 1215SOL    HW1 3644   4.203   2.598   8.462  0.4922 -1.7262  0.6927
 1215SOL    HW2 3645   4.195   2.528   8.328  0.2035 -0.5311  0.0740
 1216SOL     OW 3646   4.817   4.259  10.148 -0.9267  0.3245 -0.2976
 1216SOL    HW1 3647   4.853   4.339  10.187  0.2310  1.0977 -2.7669
 1216SOL    HW2 3648   4.722   4.267  10.162 -0.6996  1.3665  0.8311
 1217SOL     OW 3649   1.810   3.963   8.106  0.2854  0.0073 -0.1420
 1217SOL    HW1 3650   1.897   3.997   8.124  0.0706  1.0007 -0.8776
 1217SOL    HW2 3651   1.824   3.891   8.045  0.7710 -1.5137  1.6699
 1218SOL     OW 3652   0.098   1.323   5.767 -0.5771  0.6712  0.1375
 1218SOL    HW1 3653   0.134   1.238   5.793  1.1347  1.1565 -0.4789
 1218SOL    HW2 3654   0.103   1.376   5.847  0.2844  0.7756  0.0272
 1219SOL     OW 3655   2.620   2.618   7.452 -0.5441  0.3408 -0.1274
 1219SOL    HW1 3656   2.584   2.559   7.519 -1.9201 -1.4509 -2.2882
 1219SOL    HW2 3657   2.546   2.675   7.429  0.2332  1.6757  0.5859
 1220SOL     OW 3658   3.514   2.586   8.023  0.2145  0.0223  0.0048
 1220SOL    HW1 3659   3.589   2.628   7.979  1.0912 -0.7315  0.7352
 1220SOL    HW2 3660   3.450   2.656   8.032  1.4593  1.1151  0.7873
 1221SOL     OW 3661   4.992   2.018   5.559  1.1009  0.1924  0.0258
 1221SOL    HW1 3662   5.015   1.965   5.635  2.1489 -1.8110 -1.5859
 1221SOL    HW2 3663   4.984   1.955   5.487  0.8844  2.0742 -1.6952
 1222SOL     OW 3664   4.672   4.033   5.639 -0.1799 -0.2510  0.0007
 1222SOL    HW1 3665   4.597   4.070   5.685 -2.0463 -1.6262 -1.7723
 1222SOL    HW2 3666   4.681   3.945   5.674  3.3504  1.0701  3.1631
 1223SOL     OW 3667   4.855   1.993   7.063 -0.6309  1.0395 -0.6562
 1223SOL    HW1 3668   4.800   2.070   7.067 -1.6548  0.3891 -1.6156
 1223SOL    HW2 3669   4.877   1.973   7.154 -2.1385  1.2096 -0.2419
 1224SOL     OW 3670   3.590   4.365   6.046  0.0057  0.4283  0.8721
 1224SOL    HW1 3671   3.497   4.364   6.025  0.4482 -0.1452 -1.3003
 1224SOL    HW2 3672   3.619   4.453   6.022  0.0627  0.5826  1.4809
 1225SOL     OW 3673   1.186   0.724   7.755 -0.0121 -0.1878 -0.6339
 1225SOL    HW1 3674   1.111   0.678   7.716 -0.4203  0.1281 -0.2269
 1225SOL    HW2 3675   1.195   0.687   7.842  1.1808 -1.2082 -1.1578
 1226SOL     OW 3676   1.252   1.762   6.386 -0.3232 -0.4967 -0.1584
 1226SOL    HW1 3677   1.220   1.677   6.414 -2.5957 -0.4777 -2.3210
 1226SOL    HW2 3678   1.174   1.819   6.386  0.7712  1.0797 -0.5198
 1227SOL     OW 3679   3.098   4.696   6.373 -0.4084  0.0989 -0.0557
 1227SOL    HW1 3680   3.122   4.628   6.436 -2.6758 -0.3454  0.4317
 1227SOL    HW2 3681   3.125   4.778   6.415  2.7588 -0.4076 -0.8443
 1228SOL     OW 3682   2.899   1.796   7.561 -0.1086  0.2379 -0.4782
 1228SOL    HW1 3683   2.952   1.872   7.586  0.5862 -0.1431 -0.7669
 1228SOL    HW2 3684   2.956   1.721   7.577 -0.9469 -0.2581  0.2239
 1229SOL     OW 3685   2.944   0.260   5.436 -0.1894  0.5923  0.0852
 1229SOL    HW1 3686   3.026   0.300   5.464 -0.0477  1.4582 -1.4603
 1229SOL    HW2 3687   2.955   0.167   5.455 -0.4674  1.1611  3.6160
 1230SOL     OW 3688   1.772   2.962   4.978  0.6597  0.5050  0.1437
 1230SOL    HW1 3689   1.715   3.019   5.029 -0.4175 -0.2361 -0.2073
 1230SOL    HW2 3690   1.850   3.015   4.962 -0.1768  1.7691  0.0983
 1231SOL     OW 3691   0.214   0.915   6.896  0.0160 -0.5265  0.5716
 1231SOL    HW1 3692   0.231   0.828   6.859 -1.3885 -1.1318  1.2643
 1231SOL    HW2 3693   0.120   0.915   6.915  0.1280  0.8796  1.2665
 1232SOL     OW 3694   1.085   3.097   5.148  1.0627 -0.1700 -0.8100
 1232SOL    HW1 3695   1.163   3.114   5.096  1.0405  0.7680 -0.5685
 1232SOL    HW2 3696   1.040   3.182   5.151  0.3964 -0.5299 -0.3644
 1233SOL     OW 3697   3.442   3.691   7.061  0.0401  0.0723 -0.0535
 1233SOL    HW1 3698   3.477   3.732   6.981 -0.4861 -1.5347 -1.1685
 1233SOL    HW2 3699   3.417   3.603   7.033  0.9254 -0.9620  2.1788
 1234SOL     OW 3700   0.384   0.125   8.841  0.4803  0.1364  0.1141
 1234SOL    HW1 3701   0.335   0.205   8.861  0.8935  0.1231  1.2810
 1234SOL    HW2 3702   0.318   0.064   8.808  0.0965  0.8311 -0.4367
 1235SOL     OW 3703   2.501   2.443   7.653 -0.5234  0.7380  0.0836
 1235SOL    HW1 3704   2.449   2.522   7.670  0.2178  0.8040  2.3414
 1235SOL    HW2 3705   2.444   2.371   7.681  0.9609  0.8810  4.2272
 1236SOL     OW 3706   2.076   2.152   4.801 -0.6270  0.8939 -0.2254
 1236SOL    HW1 3707   2.016   2.222   4.827 -0.3415  0.6694  1.1091
 1236SOL    HW2 3708   2.131   2.138   4.878 -0.1371 -0.2299 -0.7577
 1237SOL     OW 3709   4.208   1.737   5.714 -0.0100 -0.3337 -0.0690
 1237SOL    HW1 3710   4.153   1.799   5.666  1.0621 -0.2175 -1.1932
 1237SOL    HW2 3711   4.196   1.760   5.806 -1.6946 -0.2096 -0.2969
 1238SOL     OW 3712   0.874   3.508   6.764  0.2998  0.5775  0.1434
 1238SOL    HW1 3713   0.784   3.484   6.740  1.2318 -1.1087 -2.0225
 1238SOL    HW2 3714   0.864   3.572   6.834 -2.5568 -0.9424  1.2828
 1239SOL     OW 3715   4.208   0.384   5.198 -0.1544 -0.4365  0.6606
 1239SOL    HW1 3716   4.277   0.426   5.249 -0.2509 -1.1192  1.3825
 1239SOL    HW2 3717   4.135   0.375   5.260 -1.0879  0.7238 -0.2136
 1240SOL     OW 3718   4.201   3.471   5.178  0.6319 -0.1665  0.0154
 1240SOL    HW1 3719   4.281   3.460   5.230  0.8068 -1.0104 -0.4110
 1240SOL    HW2 3720   4.203   3.398   5.116 -1.7498 -1.7858  1.6453
 1241SOL     OW 3721   3.554   3.001   5.411  0.6346  0.1063 -0.5098
 1241SOL    HW1 3722   3.503   3.079   5.434 -0.5407  0.0536 -2.6566
 1241SOL    HW2 3723   3.489   2.931   5.403  1.2815 -0.4163 -1.3919
 1242SOL     OW 3724   1.643   1.043   6.155  0.5433  0.3132 -0.6034
 1242SOL    HW1 3725   1.554   1.077   6.141  0.7574  1.2639  0.2127
 1242SOL    HW2 3726   1.700   1.111   6.118  0.9766  0.8486  0.9483
 1243SOL     OW 3727   0.667   0.551   5.244  0.3256  0.5252 -0.2683
 1243SOL    HW1 3728   0.679   0.586   5.156 -2.1383 -0.0733 -0.9133
 1243SOL    HW2 3729   0.636   0.462   5.231 -1.8903  1.0093  1.1002
 1244SOL     OW 3730   1.416   0.081   7.532  0.2081  0.6774  0.2451
 1244SOL    HW1 3731   1.348   0.023   7.565  1.4671 -0.7031  0.5154
 1244SOL    HW2 3732   1.382   0.114   7.449  0.4215 -2.4512 -1.2046
 1245SOL     OW 3733   0.504   4.612   6.429  0.1320 -0.1443 -0.2094
 1245SOL    HW1 3734   0.598   4.599   6.443  0.2654 -0.1056 -0.9816
 1245SOL    HW2 3735   0.468   4.523   6.424  0.3702 -0.1976 -1.3280
 1246SOL     OW 3736   4.738   5.008   5.609 -0.2060 -0.2208  0.4720
 1246SOL    HW1 3737   4.788   4.976   5.684  0.6908 -1.6800 -0.6758
 1246SOL    HW2 3738   4.734   4.933   5.550 -0.9655  0.8524 -0.8970
 1247SOL     OW 3739   4.001   3.965   4.938  0.0184 -0.1119  0.1571
 1247SOL    HW1 3740   4.052   3.990   5.015 -1.6285  1.6814  0.7370
 1247SOL    HW2 3741   4.053   3.995   4.864  0.3452  0.6738  0.6920
 1248SOL     OW 3742   1.705   2.104   6.139  0.0467 -0.0282  0.1047
 1248SOL    HW1 3743   1.622   2.107   6.092  0.0885  1.1650  0.0788
 1248SOL    HW2 3744   1.709   2.187   6.186 -1.0177 -1.9612  4.0511
 1249SOL     OW 3745   2.349   4.499   6.548 -0.3532 -1.3474  0.2741
 1249SOL    HW1 3746   2.326   4.408   6.563  1.3478 -2.2143 -1.8899
 1249SOL    HW2 3747   2.443   4.497   6.529 -0.2671  0.8647  0.1979
 1250SOL     OW 3748   1.969   4.288   6.072  0.0435 -0.5997 -0.0539
 1250SOL    HW1 3749   1.900   4.291   6.005  2.2291  1.7825 -2.4275
 1250SOL    HW2 3750   1.943   4.354   6.136 -1.3728 -1.9390  0.8392
 1251SOL     OW 3751   2.462   4.370   6.984  0.5139  0.1876 -0.4087
 1251SOL    HW1 3752   2.525   4.304   6.955 -1.0469 -1.2941 -0.5816
 1251SOL    HW2 3753   2.382   4.349   6.936 -0.7339  0.6944  1.3541
 1252SOL     OW 3754   3.084   4.997   5.077  0.4996 -0.6039 -0.6398
 1252SOL    HW1 3755   3.116   4.910   5.050 -0.9922 -1.3731 -0.0577
 1252SOL    HW2 3756   3.103   5.002   5.170  0.8400 -0.1877 -0.7329
 1253SOL     OW 3757   3.520   3.954   6.019  0.0638 -0.0353 -0.9413
 1253SOL    HW1 3758   3.526   3.995   6.105 -1.8596 -2.5952  0.5670
 1253SOL    HW2 3759   3.611   3.942   5.991  0.8202 -0.6836  1.5508
 1254SOL     OW 3760   4.833   3.064   7.349  0.1243  0.5250  0.1393
 1254SOL    HW1 3761   4.783   3.091   7.426 -1.0284  2.3329 -1.1867
 1254SOL    HW2 3762   4.772   3.012   7.297  1.0036 -0.9915  0.5578
 1255SOL     OW 3763   3.792   0.896   8.724  0.0546 -0.0502  0.1485
 1255SOL    HW1 3764   3.773   0.932   8.638  0.0938  1.1494  0.6095
 1255SOL    HW2 3765   3.725   0.830   8.739  0.6893 -1.0572 -1.2317
 1256SOL     OW 3766   1.744   0.381   5.272  0.2756  0.0201 -0.6655
 1256SOL    HW1 3767   1.678   0.313   5.257 -0.1307  0.3640 -0.4349
 1256SOL    HW2 3768   1.698   0.449   5.321  1.3759 -0.7207  1.5165
 1257SOL     OW 3769   4.498   2.935   7.326  0.6817  0.6257  0.1038
 1257SOL    HW1 3770   4.418   2.985   7.344 -0.9725 -1.4235 -1.0985
 1257SOL    HW2 3771   4.526   2.965   7.240 -1.0309 -1.2328 -1.1965
 1258SOL     OW 3772   3.464   0.415   6.485 -0.9689  0.1651  0.2700
 1258SOL    HW1 3773   3.422   0.376   6.561  1.0454 -1.4470  0.6436
 1258SOL    HW2 3774   3.393   0.434   6.424 -2.2044 -3.5285  0.3384
 1259SOL     OW 3775   0.581   4.749   5.872 -0.4507  0.1701  0.1693
 1259SOL    HW1 3776   0.595   4.656   5.852  1.0273  0.1590  1.1258
 1259SOL    HW2 3777   0.554   4.750   5.964 -1.4295  0.6347 -0.1103
 1260SOL     OW 3778   0.591   2.287   5.858 -0.0612  0.0185  0.1645
 1260SOL    HW1 3779   0.570   2.377   5.886 -2.2870 -0.3403 -0.1766
 1260SOL    HW2 3780   0.515   2.236   5.885 -0.3379 -1.1586 -2.5804
 1261SOL     OW 3781   4.570   4.817   8.897  0.1187 -0.7937  0.4102
 1261SOL    HW1 3782   4.502   4.795   8.834  0.4305 -2.0076  0.4651
 1261SOL    HW2 3783   4.624   4.882   8.853 -0.3426 -0.7615 -0.1178
 1262SOL     OW 3784   3.307   0.680   5.350  0.0125  0.4642 -0.4839
 1262SOL    HW1 3785   3.380   0.634   5.309 -1.7486 -2.5298 -0.5315
 1262SOL    HW2 3786   3.324   0.772   5.332  2.4839 -0.2778 -2.5862
 1263SOL     OW 3787   1.115   1.646   5.176  0.4532  0.4162 -0.0312
 1263SOL    HW1 3788   1.187   1.603   5.129  0.6144  0.4661  0.1670
 1263SOL    HW2 3789   1.036   1.602   5.145  0.6605 -0.4125  0.5851
 1264SOL     OW 3790   1.571   3.775   5.968  1.1082  0.8430 -0.5718
 1264SOL    HW1 3791   1.541   3.815   6.049 -0.4352  0.7350 -1.0499
 1264SOL    HW2 3792   1.640   3.834   5.936  0.2968  2.0226 -0.2309
 1265SOL     OW 3793   4.397   4.552   6.626 -0.0777 -0.3920  0.8453
 1265SOL    HW1 3794   4.462   4.617   6.600 -0.1428  0.6313  3.0512
 1265SOL    HW2 3795   4.371   4.578   6.714 -0.3009 -3.2715  1.7337
 1266SOL     OW 3796   2.758   3.624   7.660  0.8392  0.0822  0.2316
 1266SOL    HW1 3797   2.749   3.545   7.714 -0.1048  0.1691  0.2167
 1266SOL    HW2 3798   2.850   3.624   7.634  0.7575 -1.2556 -0.1401
 1267SOL     OW 3799   2.214   1.084   8.362  0.2363 -0.7945 -0.1331
 1267SOL    HW1 3800   2.230   1.174   8.390  3.1670 -1.5806  1.1903
 1267SOL    HW2 3801   2.223   1.086   8.267 -0.5196  0.4052 -0.1948
 1268SOL     OW 3802   2.203   4.309   5.294  0.1184 -1.1711 -0.4675
 1268SOL    HW1 3803   2.168   4.230   5.334 -2.3744 -0.0462 -0.2760
 1268SOL    HW2 3804   2.276   4.334   5.351 -3.0049  0.1540  3.4292
 1269SOL     OW 3805   4.111   4.336   8.648  0.5073  0.1630 -0.2355
 1269SOL    HW1 3806   4.128   4.429   8.636 -1.2185  0.8626  2.0193
 1269SOL    HW2 3807   4.198   4.298   8.665  0.9740  1.9373  1.8483
 1270SOL     OW 3808   1.140   3.103   5.432 -0.1751 -0.1952  0.2835
 1270SOL    HW1 3809   1.067   3.137   5.484 -0.4739  0.4290 -0.5283
 1270SOL    HW2 3810   1.103   3.086   5.346  0.7875  0.8957 -0.3857
 1271SOL     OW 3811   1.808   1.842   6.622 -0.0890 -0.4856 -0.2217
 1271SOL    HW1 3812   1.743   1.911   6.609 -3.4060 -2.7574  2.4386
 1271SOL    HW2 3813   1.865   1.875   6.692 -2.7614 -0.9255  2.3382
 1272SOL     OW 3814   1.084   2.103   7.248  0.1949 -0.1220 -0.5024
 1272SOL    HW1 3815   1.109   2.195   7.258  0.2321 -0.1756 -0.0508
 1272SOL    HW2 3816   1.136   2.071   7.175 -2.1743  1.0652 -2.9008
 1273SOL     OW 3817   4.219   3.740   5.753  0.2959 -0.3449 -0.0366
 1273SOL    HW1 3818   4.207   3.816   5.810  1.3276 -2.7074  3.6317
 1273SOL    HW2 3819   4.131   3.716   5.726 -0.1721  1.1690  0.0568
 1274SOL     OW 3820   3.461   1.860   7.640 -0.2410  0.2944  0.0521
 1274SOL    HW1 3821   3.513   1.937   7.616 -0.6104  0.1665 -1.2227
 1274SOL    HW2 3822   3.494   1.790   7.583 -0.9775 -0.0940  0.0973
 1275SOL     OW 3823   2.585   3.701   5.135  0.4214  0.1738  0.1258
 1275SOL    HW1 3824   2.623   3.624   5.178  0.6469  0.4708  0.4694
 1275SOL    HW2 3825   2.606   3.773   5.194  0.9790  0.6369 -0.6166
 1276SOL     OW 3826   4.881   0.190   6.107  0.5442 -0.0087 -0.0664
 1276SOL    HW1 3827   4.834   0.268   6.079  1.3079  0.1921 -0.8300
 1276SOL    HW2 3828   4.897   0.141   6.026 -2.4019 -2.4296  0.6350
 1277SOL     OW 3829   1.072   4.225   5.371 -0.3223 -0.1452  0.5963
 1277SOL    HW1 3830   1.062   4.140   5.327 -3.3529  1.1575 -1.5601
 1277SOL    HW2 3831   1.158   4.220   5.413  0.4519 -3.5431 -1.0455
 1278SOL     OW 3832   2.322   3.967   8.072 -0.2915 -0.8042  0.6780
 1278SOL    HW1 3833   2.369   3.886   8.092 -1.4736 -1.7525 -0.2448
 1278SOL    HW2 3834   2.287   3.954   7.984 -1.4454  0.2541  0.9467
 1279SOL     OW 3835   2.881   4.661   5.534 -0.6593 -0.2266 -0.0769
 1279SOL    HW1 3836   2.798   4.669   5.486 -0.1998 -0.9873 -1.0202
 1279SOL    HW2 3837   2.884   4.569   5.560 -0.5488  0.0150  0.7869
 1280SOL     OW 3838   4.964   4.029   6.629 -0.4044 -0.1020  0.4268
 1280SOL    HW1 3839   4.952   4.067   6.542  2.2358 -0.0748 -0.0169
 1280SOL    HW2 3840   5.021   4.091   6.675 -0.2898 -0.9843  1.5336
 1281SOL     OW 3841   4.393  -0.030   6.690 -0.2409  0.3855 -0.3637
 1281SOL    HW1 3842   4.464   0.034   6.694  1.0831 -1.0013 -0.6413
 1281SOL    HW2 3843   4.319   0.013   6.733  0.7788  1.8614 -0.0242
 1282SOL     OW 3844   3.117   4.104   6.316 -0.0805 -0.0777 -0.9461
 1282SOL    HW1 3845   3.065   4.181   6.293 -0.9982 -0.1037  0.8824
 1282SOL    HW2 3846   3.183   4.137   6.377  0.4507 -0.5024 -1.2821
 1283SOL     OW 3847   0.752   2.389   4.781  0.4788 -0.4904 -0.0072
 1283SOL    HW1 3848   0.768   2.296   4.765  1.1698 -0.1766 -1.2771
 1283SOL    HW2 3849   0.658   2.400   4.767  0.5710 -0.8162 -1.0007
 1284SOL     OW 3850   3.469   0.022   5.684  0.5450 -0.4535  0.4661
 1284SOL    HW1 3851   3.421  -0.006   5.607 -1.0774  1.1497  0.8318
 1284SOL    HW2 3852   3.520   0.097   5.655  3.4696 -2.4565 -0.0638
 1285SOL     OW 3853   4.750   0.537   7.123  0.5623  0.6057 -0.3236
 1285SOL    HW1 3854   4.665   0.577   7.102  0.8983  2.9112  2.0713
 1285SOL    HW2 3855   4.727   0.452   7.162 -0.9641  2.1376  2.4642
 1286SOL     OW 3856   3.106   2.929   6.160 -0.2325  0.0031  0.2730
 1286SOL    HW1 3857   3.159   2.900   6.234  0.8463 -0.8219 -0.7810
 1286SOL    HW2 3858   3.019   2.943   6.197  0.2650 -0.4335  1.6769
 1287SOL     OW 3859   1.250   2.727   4.614 -0.0026  0.3958 -0.5070
 1287SOL    HW1 3860   1.217   2.751   4.528 -0.7756  0.3443 -0.2386
 1287SOL    HW2 3861   1.237   2.805   4.668  4.0813  1.8478 -1.3277
 1288SOL     OW 3862   0.603   1.227   7.367  0.3454 -0.2230 -0.2990
 1288SOL    HW1 3863   0.603   1.322   7.375  0.0312 -0.0789 -1.7796
 1288SOL    HW2 3864   0.622   1.211   7.275  3.4872 -1.6579  0.4647
 1289SOL     OW 3865   3.662   4.689   7.679 -0.6830  0.1273  0.4467
 1289SOL    HW1 3866   3.629   4.606   7.645 -0.6684  0.1924  0.2723
 1289SOL    HW2 3867   3.604   4.755   7.640 -0.8922  0.1764  0.8344
 1290SOL     OW 3868   2.107   4.829   6.617 -0.6062 -0.0923  0.3455
 1290SOL    HW1 3869   2.050   4.905   6.624  1.3877  1.6794 -1.1809
 1290SOL    HW2 3870   2.195   4.866   6.608  0.4055 -2.5491 -0.8506
 1291SOL     OW 3871   2.217   3.204   9.492 -0.8997  1.0579  0.0315
 1291SOL    HW1 3872   2.168   3.152   9.428 -0.1996 -1.4406  1.4254
 1291SOL    HW2 3873   2.308   3.198   9.463 -0.7871  1.4183  0.3019
 1292SOL     OW 3874   0.834   2.263  10.380 -0.4588 -0.2090 -0.1872
 1292SOL    HW1 3875   0.884   2.186  10.407  0.5528  0.7100  0.6733
 1292SOL    HW2 3876   0.816   2.310  10.462 -0.2905  0.9200 -0.7803
 1293SOL     OW 3877   1.036   0.955   4.718 -0.4188  0.5091  0.2007
 1293SOL    HW1 3878   0.996   0.986   4.636 -0.3899 -0.7459 -0.3155
 1293SOL    HW2 3879   0.965   0.911   4.764  0.2146 -1.4779 -0.5879
 1294SOL     OW 3880   3.957   1.285   5.870 -0.2166  0.0186  0.5306
 1294SOL    HW1 3881   3.965   1.192   5.850  1.1841  0.5388 -1.6714
 1294SOL    HW2 3882   4.009   1.297   5.950 -0.4022 -1.0587  0.8315
 1295SOL     OW 3883   1.437   3.443   9.678 -0.2437  0.1040 -0.8117
 1295SOL    HW1 3884   1.519   3.469   9.636 -0.1914 -1.5202 -1.7742
 1295SOL    HW2 3885   1.405   3.370   9.626 -1.2420 -0.6546  0.7988
 1296SOL     OW 3886   2.027   2.261   5.152  0.0366  0.1122  0.2757
 1296SOL    HW1 3887   2.011   2.167   5.163  0.8300 -0.2622 -1.3973
 1296SOL    HW2 3888   1.945   2.302   5.179 -0.6914 -1.1373  0.0772
 1297SOL     OW 3889   1.486   2.465   7.778 -0.0124 -0.7100 -0.1319
 1297SOL    HW1 3890   1.555   2.480   7.843 -0.1083 -1.5597  0.1826
 1297SOL    HW2 3891   1.462   2.552   7.748  1.8365 -0.4227 -0.9259
 1298SOL     OW 3892   2.369   1.558   6.818 -0.1480 -0.0376 -0.2509
 1298SOL    HW1 3893   2.382   1.487   6.881 -0.7335  0.3343  0.3042
 1298SOL    HW2 3894   2.365   1.514   6.733 -1.0478 -0.7552  0.1373
 1299SOL     OW 3895   4.254   2.660   7.398  0.0662 -0.7211  0.3224
 1299SOL    HW1 3896   4.348   2.656   7.414  0.4233  0.3014 -1.3407
 1299SOL    HW2 3897   4.216   2.673   7.485  1.5190 -0.3622  0.9271
 1300SOL     OW 3898   3.809   0.868   7.776 -0.2878 -0.1692 -0.1908
 1300SOL    HW1 3899   3.808   0.815   7.697 -0.2749  0.5771 -0.6983
 1300SOL    HW2 3900   3.727   0.845   7.821  0.7719 -2.3087  0.7602
 1301SOL     OW 3901   1.643   1.711   4.868 -0.4056 -0.2631  0.3693
 1301SOL    HW1 3902   1.733   1.738   4.854 -0.8751  0.0715 -2.4398
 1301SOL    HW2 3903   1.600   1.789   4.904 -0.2934  0.7261 -1.5346
 1302SOL     OW 3904   3.736   0.033   7.369  0.5439 -0.0937 -0.1723
 1302SOL    HW1 3905   3.756  -0.041   7.311 -1.9067  0.5500 -2.0022
 1302SOL    HW2 3906   3.646   0.058   7.346 -0.2264  0.8317  3.3042
 1303SOL     OW 3907   1.647   0.283   7.089  0.3010  0.1741  0.1367
 1303SOL    HW1 3908   1.632   0.377   7.087  1.2491  0.3290 -0.2583
 1303SOL    HW2 3909   1.615   0.255   7.175  0.9799  1.0263  0.6812
 1304SOL     OW 3910   1.293   0.617   9.903  0.0983  0.0523 -0.7381
 1304SOL    HW1 3911   1.378   0.603   9.862  0.2227 -0.1748 -0.4070
 1304SOL    HW2 3912   1.308   0.685   9.968  0.3554 -0.9717  0.3046
 1305SOL     OW 3913   1.313   3.097   6.105  0.1441 -0.1584 -0.2846
 1305SOL    HW1 3914   1.264   3.160   6.052  1.6551 -0.1203 -1.7276
 1305SOL    HW2 3915   1.298   3.012   6.062  0.1493 -0.3820  0.1441
 1306SOL     OW 3916   3.883   2.933   7.177  0.1661 -0.0600  0.0387
 1306SOL    HW1 3917   3.923   2.887   7.104  1.2905 -0.2224  0.7442
 1306SOL    HW2 3918   3.791   2.904   7.177  0.6443 -1.6549 -0.0437
 1307SOL     OW 3919   3.423   4.464   6.333 -0.2206 -0.5783  0.2986
 1307SOL    HW1 3920   3.441   4.521   6.258  0.1724 -1.8698 -0.6285
 1307SOL    HW2 3921   3.355   4.404   6.302 -0.5389 -0.7008  1.2065
 1308SOL     OW 3922   2.289   1.812   9.646 -1.2404 -0.0333  0.5432
 1308SOL    HW1 3923   2.380   1.822   9.674 -0.6916  0.6228 -1.3237
 1308SOL    HW2 3924   2.253   1.745   9.704 -0.1840  1.1209  2.6482
 1309SOL     OW 3925   3.733   0.608   8.499  0.7788 -0.5791 -0.3523
 1309SOL    HW1 3926   3.800   0.670   8.472 -0.2020  1.0695  0.8151
 1309SOL    HW2 3927   3.777   0.523   8.499  2.1546  0.0867 -2.0219
 1310SOL     OW 3928   4.812   1.015   9.466  0.7783  0.3249 -0.0565
 1310SOL    HW1 3929   4.879   0.949   9.448 -0.5048 -0.8534 -0.7040
 1310SOL    HW2 3930   4.755   1.012   9.389 -0.0128  1.2924  0.4753
 1311SOL     OW 3931   3.245   2.358   5.041  0.2615 -0.3187  0.2529
 1311SOL    HW1 3932   3.153   2.366   5.015  0.5002 -3.4238 -2.1670
 1311SOL    HW2 3933   3.292   2.417   4.982 -0.0867  1.1332  1.3708
 1312SOL     OW 3934   3.478   1.075   8.871 -0.3571 -0.4090  0.4759
 1312SOL    HW1 3935   3.530   1.155   8.883 -0.4648 -0.5534  2.1695
 1312SOL    HW2 3936   3.542   1.004   8.877 -0.4137 -0.4899  0.0981
 1313SOL     OW 3937   1.579   2.636  10.047  0.1218  0.7115  0.7890
 1313SOL    HW1 3938   1.619   2.570   9.990  2.1623  0.8159  2.0165
 1313SOL    HW2 3939   1.543   2.586  10.120 -2.0944  0.6218 -0.2837
 1314SOL     OW 3940   1.216   1.620  10.311  0.1455  0.2140  0.9458
 1314SOL    HW1 3941   1.234   1.559  10.382  2.5246  1.2378  1.3137
 1314SOL    HW2 3942   1.201   1.704  10.354 -0.2213  0.4852  0.3100
 1315SOL     OW 3943   3.973   4.972   5.565  0.6385 -0.3714 -0.1139
 1315SOL    HW1 3944   4.059   4.967   5.605  0.5074  0.0855  0.2282
 1315SOL    HW2 3945   3.984   5.029   5.489  0.0186  2.3429  1.6632
 1316SOL     OW 3946   1.693   3.801   7.560  0.1152 -0.1570 -0.1534
 1316SOL    HW1 3947   1.682   3.824   7.467  0.0568 -2.7028 -0.8499
 1316SOL    HW2 3948   1.788   3.809   7.574  0.1854 -0.1970 -0.5661
 1317SOL     OW 3949   1.995   4.056   7.270  0.2760  0.0684 -0.6814
 1317SOL    HW1 3950   2.009   4.148   7.293  0.1624 -0.1228  0.1913
 1317SOL    HW2 3951   1.979   4.013   7.354 -3.8957 -0.0422 -1.3127
 1318SOL     OW 3952   1.831   2.049  10.820 -0.1166 -0.3683  0.7249
 1318SOL    HW1 3953   1.747   2.096  10.814  0.0147 -0.2413 -0.2152
 1318SOL    HW2 3954   1.846   2.041  10.914 -1.6593 -1.2409  0.9374
 1319SOL     OW 3955   3.651   4.194   8.109 -0.2915 -0.1967 -0.0853
 1319SOL    HW1 3956   3.712   4.154   8.170  1.5788  0.4271 -1.4706
 1319SOL    HW2 3957   3.567   4.152   8.129  0.8623 -2.2375  0.8128
 1320SOL     OW 3958   4.492   4.887   7.591 -0.1401 -0.1597  0.4482
 1320SOL    HW1 3959   4.460   4.888   7.681  0.2783 -1.1781  0.6255
 1320SOL    HW2 3960   4.493   4.979   7.565 -0.6068  0.1174  1.3593
 1321SOL     OW 3961   0.863   0.558   6.076 -0.0994  0.2274 -0.3914
 1321SOL    HW1 3962   0.913   0.508   6.011 -0.4864  2.3575 -2.4658
 1321SOL    HW2 3963   0.784   0.506   6.090  0.7922 -1.1438 -0.2187
 1322SOL     OW 3964   4.935   0.491   5.680  0.6457 -0.8120 -0.3600
 1322SOL    HW1 3965   4.930   0.403   5.716 -0.6932 -0.3071  0.8068
 1322SOL    HW2 3966   5.026   0.518   5.693  0.7633 -1.5520  0.4247
 1323SOL     OW 3967   1.616   4.633   6.806 -0.1674 -0.4505 -0.0881
 1323SOL    HW1 3968   1.597   4.718   6.767 -0.3082  0.7298  2.3401
 1323SOL    HW2 3969   1.710   4.622   6.798 -0.2057 -0.2581 -0.7852
 1324SOL     OW 3970   1.961   1.661   7.920 -0.3153 -0.5550  0.5306
 1324SOL    HW1 3971   1.910   1.585   7.948 -1.9779  1.3718  3.1531
 1324SOL    HW2 3972   1.919   1.689   7.839  1.9611 -3.7899 -2.0272
 1325SOL     OW 3973   1.385   3.886   7.958  0.2987 -0.4904  0.3183
 1325SOL    HW1 3974   1.317   3.951   7.974  1.1650  0.9409 -1.3781
 1325SOL    HW2 3975   1.373   3.863   7.866  0.5481 -2.1318  0.6758
 1326SOL     OW 3976   4.737   0.895   6.011  0.6601  0.4763  0.2345
 1326SOL    HW1 3977   4.670   0.828   6.026  2.9307 -2.0361 -0.0775
 1326SOL    HW2 3978   4.764   0.920   6.099  0.1743  0.5947  0.3547
 1327SOL     OW 3979   4.402   2.163   9.919 -0.0263  0.3776 -0.3571
 1327SOL    HW1 3980   4.391   2.223   9.993  2.7033 -1.7899  2.0951
 1327SOL    HW2 3981   4.345   2.089   9.939  2.8064 -1.5523  1.3983
 1328SOL     OW 3982   1.494   3.913   6.203 -0.6715 -0.3859  0.3161
 1328SOL    HW1 3983   1.554   3.929   6.275 -1.3882  0.7759  0.6684
 1328SOL    HW2 3984   1.413   3.882   6.244 -1.6952  1.9510  0.2125
 1329SOL     OW 3985   4.309   4.574   9.033  0.9572  0.7768 -0.1253
 1329SOL    HW1 3986   4.355   4.637   9.089  3.5222 -2.2430  1.4315
 1329SOL    HW2 3987   4.379   4.527   8.988 -0.8458 -0.8680 -1.3656
 1330SOL     OW 3988   1.919   2.652   8.445 -0.3763 -0.1918 -0.0747
 1330SOL    HW1 3989   1.859   2.587   8.410  1.0417 -0.5034 -2.1005
 1330SOL    HW2 3990   1.951   2.615   8.527 -0.1838 -1.6991 -0.8091
 1331SOL     OW 3991   3.024   1.811   5.174 -0.0453  0.3974 -0.5609
 1331SOL    HW1 3992   3.096   1.831   5.114 -1.1995  0.2457 -2.0355
 1331SOL    HW2 3993   3.020   1.888   5.231  0.1975  1.1720 -1.5516
 1332SOL     OW 3994   2.269   3.315   7.316  0.1236 -0.8592 -0.9346
 1332SOL    HW1 3995   2.361   3.312   7.290  0.6671  1.6635  0.3455
 1332SOL    HW2 3996   2.245   3.407   7.305 -2.1857 -1.4231 -0.9595
 1333SOL     OW 3997   1.636   2.329   5.493  0.4336 -0.1560  0.2910
 1333SOL    HW1 3998   1.577   2.402   5.474 -1.3577 -1.3570  0.8736
 1333SOL    HW2 3999   1.717   2.370   5.522 -0.5421  1.6046  0.6715
 1334SOL     OW 4000   0.279   0.116   5.564 -0.4378 -0.4564 -0.1994
 1334SOL    HW1 4001   0.358   0.120   5.619 -0.5802  0.4721 -0.0418
 1334SOL    HW2 4002   0.284   0.031   5.522  1.9188  0.4842 -2.0618
 1335SOL     OW 4003   1.217   0.797   6.964  0.0939 -0.5938 -0.2368
 1335SOL    HW1 4004   1.206   0.883   7.004 -0.1217  0.1625 -1.8596
 1335SOL    HW2 4005   1.128   0.766   6.949  0.1544 -0.1002 -1.6951
 1336SOL     OW 4006   2.613   0.967   6.652 -0.4708 -0.5880 -1.0361
 1336SOL    HW1 4007   2.625   0.907   6.579 -0.5406 -0.4332 -1.1751
 1336SOL    HW2 4008   2.681   0.943   6.714 -1.6691 -2.0855 -0.2357
 1337SOL     OW 4009   1.877   0.025   8.161  0.2837  0.5847 -0.3383
 1337SOL    HW1 4010   1.891  -0.066   8.136 -1.1138 -0.3932  2.0550
 1337SOL    HW2 4011   1.830   0.063   8.086 -0.1751 -1.0077 -0.9121
 1338SOL     OW 4012   3.035   1.300   5.351  0.0919  0.0751  0.1452
 1338SOL    HW1 4013   3.028   1.258   5.266  1.8061 -0.2133  0.1171
 1338SOL    HW2 4014   2.946   1.300   5.385 -0.1577 -2.6229 -0.3076
 1339SOL     OW 4015   0.177   3.195   7.107  0.5970  0.1837 -0.2068
 1339SOL    HW1 4016   0.196   3.132   7.176 -0.4487 -0.7632 -0.7508
 1339SOL    HW2 4017   0.232   3.271   7.127  3.2641 -1.5533 -0.5266
 1340SOL     OW 4018   0.339   2.640   4.552 -0.2481  0.4260  0.2072
 1340SOL    HW1 4019   0.352   2.689   4.471  2.0146  0.0203  0.2703
 1340SOL    HW2 4020   0.244   2.626   4.557 -0.5099  1.1675 -1.9381
 1341SOL     OW 4021   2.220   4.136   6.204  0.3363  0.5801 -0.7420
 1341SOL    HW1 4022   2.153   4.177   6.150 -0.5724 -1.7203 -1.4547
 1341SOL    HW2 4023   2.298   4.131   6.148 -0.3469 -1.0174 -1.5970
 1342SOL     OW 4024   0.265   3.951   7.890  0.1273  0.1965 -0.4471
 1342SOL    HW1 4025   0.203   3.880   7.902 -1.1078  0.7198 -3.0449
 1342SOL    HW2 4026   0.346   3.909   7.863  0.4873 -0.3740  1.3624
 1343SOL     OW 4027   3.614   3.661   8.738 -0.5525 -0.0879 -0.0772
 1343SOL    HW1 4028   3.635   3.707   8.656 -0.7437 -0.0824 -0.1246
 1343SOL    HW2 4029   3.523   3.687   8.756 -0.4647  0.0216  0.2114
 1344SOL     OW 4030   3.328   4.720   7.714 -0.4036  0.2507 -0.0888
 1344SOL    HW1 4031   3.406   4.759   7.754  1.0313  0.1106 -2.5735
 1344SOL    HW2 4032   3.274   4.795   7.690 -1.3187  0.3375  2.0116
 1345SOL     OW 4033   1.988   3.325   7.600  0.3560  0.4708  0.0463
 1345SOL    HW1 4034   2.061   3.281   7.644  0.5222  1.1759  0.5054
 1345SOL    HW2 4035   2.029   3.399   7.554 -0.1026  1.0539  0.5624
 1346SOL     OW 4036   3.412   2.682   7.245  0.2701  0.6623  0.6110
 1346SOL    HW1 4037   3.445   2.635   7.321  1.1587  0.1872 -0.0694
 1346SOL    HW2 4038   3.316   2.677   7.254  0.3635  0.1147  1.3808
 1347SOL     OW 4039   3.545   0.153   7.031  0.3499  0.6555 -0.8457
 1347SOL    HW1 4040   3.496   0.228   7.065  2.6747  2.4445 -1.1521
 1347SOL    HW2 4041   3.486   0.112   6.968 -1.1357  2.0224 -0.4127
 1348SOL     OW 4042   1.769   3.773   7.831 -0.3282  0.4730 -0.3250
 1348SOL    HW1 4043   1.756   3.700   7.771 -1.7043  0.7715 -0.4249
 1348SOL    HW2 4044   1.703   3.760   7.899  1.1175  0.2086  1.0935
 1349SOL     OW 4045   4.727   3.881   6.820 -0.3385  0.5477  0.4674
 1349SOL    HW1 4046   4.735   3.974   6.803 -1.6699  0.3945 -1.1637
 1349SOL    HW2 4047   4.638   3.858   6.793  0.3254 -1.3995 -0.2767
 1350SOL     OW 4048   1.282   1.217   7.568  0.2259 -0.0392  0.1570
 1350SOL    HW1 4049   1.376   1.202   7.553  0.6354  0.2947  2.1536
 1350SOL    HW2 4050   1.260   1.161   7.642 -1.5189 -1.1606 -1.1289
 1351SOL     OW 4051   2.217   2.435   6.931 -0.0426 -0.4006 -0.9609
 1351SOL    HW1 4052   2.175   2.521   6.934 -1.1388 -0.9283 -0.6409
 1351SOL    HW2 4053   2.210   2.402   7.021  2.1676 -0.0113 -0.5821
 1352SOL     OW 4054   3.266   1.587   7.627 -0.4879 -0.1900 -0.0734
 1352SOL    HW1 4055   3.224   1.537   7.698 -2.0701  1.4694  0.2308
 1352SOL    HW2 4056   3.353   1.547   7.619 -1.8354 -3.4322 -0.3321
 1353SOL     OW 4057   1.124   3.053   8.343 -0.7243 -0.2377 -0.2930
 1353SOL    HW1 4058   1.148   3.095   8.260 -1.6672 -1.0711 -1.0102
 1353SOL    HW2 4059   1.204   3.057   8.395 -0.0367  0.0980 -1.3296
 1354SOL     OW 4060   1.302   0.121   5.241 -0.6493 -0.1622  0.3976
 1354SOL    HW1 4061   1.297   0.028   5.220  0.3379 -0.1367 -0.0098
 1354SOL    HW2 4062   1.336   0.124   5.330  0.8079 -0.1981 -0.1180
 1355SOL     OW 4063   3.625   3.933   8.566  0.3564 -0.1353 -0.9177
 1355SOL    HW1 4064   3.530   3.932   8.575  0.2517 -1.0840 -1.9483
 1355SOL    HW2 4065   3.656   3.981   8.643 -0.9085 -0.4426 -0.1954
 1356SOL     OW 4066   0.201   4.468   8.650 -0.5684 -0.2973 -0.1404
 1356SOL    HW1 4067   0.110   4.455   8.676  0.1365 -3.2914  1.3146
 1356SOL    HW2 4068   0.251   4.418   8.714  1.8934 -1.3385 -2.6736
 1357SOL     OW 4069   1.160   2.324  10.682  0.1410  0.1184  0.0214
 1357SOL    HW1 4070   1.078   2.303  10.725 -0.4587  1.0175 -0.6388
 1357SOL    HW2 4071   1.180   2.247  10.629 -1.5752  0.7878 -1.7127
 1358SOL     OW 4072   4.600   1.651   9.594 -0.5731 -1.0075  0.5842
 1358SOL    HW1 4073   4.564   1.702   9.522 -0.0112 -1.1868  0.1702
 1358SOL    HW2 4074   4.529   1.647   9.658 -1.2151 -1.1779 -0.1212
 1359SOL     OW 4075   2.019   0.785   4.698 -0.1285  0.4733  0.7654
 1359SOL    HW1 4076   2.092   0.846   4.706 -0.4814  0.8991  0.7802
 1359SOL    HW2 4077   2.060   0.700   4.685  0.3655  0.9392 -0.8985
 1360SOL     OW 4078   0.255   1.552   7.669  0.2614  0.6114  0.1801
 1360SOL    HW1 4079   0.338   1.593   7.645  0.7318 -0.3446  0.1254
 1360SOL    HW2 4080   0.278   1.484   7.733 -0.1135 -1.3248 -1.6031
 1361SOL     OW 4081   1.647   1.436   8.389 -0.2495 -0.1704  0.0106
 1361SOL    HW1 4082   1.611   1.483   8.314 -0.8061  0.1928  0.4870
 1361SOL    HW2 4083   1.726   1.484   8.412 -1.8710  1.9031  1.7723
 1362SOL     OW 4084   3.859   0.358   5.664 -0.3920  0.1229  0.1014
 1362SOL    HW1 4085   3.903   0.400   5.738 -1.0846  0.3893  0.3706
 1362SOL    HW2 4086   3.904   0.393   5.587 -0.5046  0.8439  0.3510
 1363SOL     OW 4087   1.565   1.985   6.834  0.1141  0.6307 -0.5523
 1363SOL    HW1 4088   1.548   2.070   6.794 -0.4545  1.0564  0.5767
 1363SOL    HW2 4089   1.560   2.000   6.928  1.1795 -0.4153 -0.3066
 1364SOL     OW 4090   3.787   2.475   5.931  0.5244 -0.4827 -0.1583
 1364SOL    HW1 4091   3.735   2.443   5.858  0.2422 -0.5726  0.0793
 1364SOL    HW2 4092   3.862   2.517   5.890  1.7599 -2.8171 -0.4953
 1365SOL     OW 4093   3.121   3.544  10.308  0.4046 -1.1150  0.3864
 1365SOL    HW1 4094   3.160   3.611  10.365 -0.8198 -0.5583  0.6102
 1365SOL    HW2 4095   3.196   3.498  10.271  1.2598 -1.4990  2.4440
 1366SOL     OW 4096   4.467   1.694   7.096 -0.0661  0.4686 -0.4752
 1366SOL    HW1 4097   4.420   1.631   7.150  0.3290  1.7543  1.4408
 1366SOL    HW2 4098   4.415   1.699   7.015 -0.3011 -1.9993 -0.5795
 1367SOL     OW 4099   3.365   3.747   9.715 -0.5256 -0.3832 -0.1125
 1367SOL    HW1 4100   3.322   3.812   9.771  0.0810 -0.7361  0.7828
 1367SOL    HW2 4101   3.434   3.796   9.670  1.2128 -0.7310  2.0097
 1368SOL     OW 4102   3.755   2.023   7.037 -0.5579 -0.0875 -0.2452
 1368SOL    HW1 4103   3.685   1.958   7.031  1.3272 -2.3601  0.6993
 1368SOL    HW2 4104   3.823   1.991   6.978  0.0600  1.6312 -0.5413
 1369SOL     OW 4105   2.573   3.090   6.036 -0.2213 -0.5190  0.3435
 1369SOL    HW1 4106   2.497   3.109   6.092 -0.2477 -0.6136  0.3400
 1369SOL    HW2 4107   2.642   3.066   6.096 -1.0922 -3.7131  0.2584
 1370SOL     OW 4108   1.751   4.774   4.942 -0.7923 -0.6733 -0.0022
 1370SOL    HW1 4109   1.745   4.707   5.011 -2.6301 -0.8806 -0.3106
 1370SOL    HW2 4110   1.790   4.728   4.868 -0.6630 -0.9883  0.2535
 1371SOL     OW 4111   1.252   1.998   8.127  0.0016 -0.4073 -0.7407
 1371SOL    HW1 4112   1.199   1.979   8.049 -0.2441 -1.0260 -0.4337
 1371SOL    HW2 4113   1.339   2.017   8.093 -0.6222  1.6783 -1.3399
 1372SOL     OW 4114   0.697   3.620   8.496  0.3727  0.1952 -0.0113
 1372SOL    HW1 4115   0.671   3.711   8.482 -2.4170 -0.2895  1.3650
 1372SOL    HW2 4116   0.619   3.569   8.475  1.7487 -1.8939 -0.4083
 1373SOL     OW 4117   4.340   2.791   5.807 -0.4370  0.0683 -0.2463
 1373SOL    HW1 4118   4.372   2.721   5.863  1.2090 -0.6192 -1.9341
 1373SOL    HW2 4119   4.248   2.769   5.791 -0.6613 -0.2495  1.3250
 1374SOL     OW 4120   1.118   1.336   6.170  0.1324  0.1928 -0.2105
 1374SOL    HW1 4121   1.104   1.275   6.097  0.6094  0.3213 -0.4121
 1374SOL    HW2 4122   1.186   1.396   6.139  0.3184  0.2685  0.3312
 1375SOL     OW 4123   4.087   2.252   6.235  0.0499 -0.1461  0.5306
 1375SOL    HW1 4124   4.063   2.224   6.146  1.0764 -1.2995  0.5897
 1375SOL    HW2 4125   4.158   2.315   6.221 -1.3373  1.4604  0.4597
 1376SOL     OW 4126   3.190   4.241   9.274  0.3288  0.4085 -0.6147
 1376SOL    HW1 4127   3.108   4.289   9.273  2.1365  3.9658  1.7107
 1376SOL    HW2 4128   3.251   4.295   9.223  2.1047 -0.1072  0.8298
 1377SOL     OW 4129   4.767   4.368   9.282  0.4564 -0.5120 -0.0778
 1377SOL    HW1 4130   4.862   4.356   9.272  0.4289 -1.0390  0.2670
 1377SOL    HW2 4131   4.729   4.288   9.247  0.2000 -0.8274  0.8933
 1378SOL     OW 4132   2.991   0.765   6.710 -0.6331 -0.1687 -0.1899
 1378SOL    HW1 4133   3.040   0.718   6.642 -1.2879 -0.5166 -0.4228
 1378SOL    HW2 4134   2.919   0.707   6.732  0.1146 -0.4927  1.5100
 1379SOL     OW 4135   4.336   2.145   8.963 -0.3884 -0.0860 -0.3771
 1379SOL    HW1 4136   4.290   2.061   8.970  2.3985 -1.7044  0.1414
 1379SOL    HW2 4137   4.364   2.165   9.052  0.8935  0.1879 -0.8183
 1380SOL     OW 4138   3.711   3.222   8.295 -0.6648 -0.4540  0.5645
 1380SOL    HW1 4139   3.690   3.138   8.254  1.5044 -0.7837  0.0059
 1380SOL    HW2 4140   3.794   3.206   8.341 -0.0266  1.4635  0.1429
 1381SOL     OW 4141   1.806   3.406   5.963 -0.0238 -0.2870  0.1683
 1381SOL    HW1 4142   1.860   3.454   6.025 -0.4999  1.0156 -0.4043
 1381SOL    HW2 4143   1.764   3.338   6.015 -0.9422  1.1963  1.4331
 1382SOL     OW 4144   1.731   2.456   9.311  0.6200 -0.0900  0.5729
 1382SOL    HW1 4145   1.799   2.405   9.355  0.9214  0.0646  0.2922
 1382SOL    HW2 4146   1.730   2.540   9.358 -0.7150 -0.7718  1.8164
 1383SOL     OW 4147   2.399   1.046   8.118 -0.4576 -0.1676  0.0849
 1383SOL    HW1 4148   2.495   1.038   8.124 -0.4302  0.9142  1.8730
 1383SOL    HW2 4149   2.384   1.135   8.088 -0.8835  0.2825  1.5335
 1384SOL     OW 4150   3.993   1.494  10.306  0.5387 -0.4527 -0.1672
 1384SOL    HW1 4151   4.054   1.502  10.379  0.2003 -1.3533  0.2350
 1384SOL    HW2 4152   4.029   1.423  10.252  1.1775  0.6764 -1.2916
 1385SOL     OW 4153   2.575   2.181  10.213  0.4114  0.5729 -0.1957
 1385SOL    HW1 4154   2.644   2.244  10.236  1.4341  0.4976 -2.7481
 1385SOL    HW2 4155   2.504   2.235  10.180  0.4537  0.4826 -0.4310
 1386SOL     OW 4156   0.075   1.151   7.025  0.2944  0.1692 -0.0801
 1386SOL    HW1 4157   0.152   1.143   6.968  0.0228  1.3263 -0.6496
 1386SOL    HW2 4158   0.111   1.152   7.114  0.9275  0.4315 -0.3290
 1387SOL     OW 4159   4.138   4.583   6.197  0.0852  0.2262 -0.0594
 1387SOL    HW1 4160   4.070   4.640   6.161  0.1422  0.3960  0.0927
 1387SOL    HW2 4161   4.193   4.643   6.248  0.3146  0.0807 -0.1349
 1388SOL     OW 4162   0.965   4.875   7.188 -0.0336  0.3503  0.3284
 1388SOL    HW1 4163   0.890   4.856   7.132  1.0983  1.0793 -1.5351
 1388SOL    HW2 4164   0.942   4.839   7.273 -2.1347 -0.1677 -0.4148
 1389SOL     OW 4165   2.288   3.401   6.716  0.4211  0.3028  0.9679
 1389SOL    HW1 4166   2.281   3.311   6.749  3.3296 -0.3006  0.2122
 1389SOL    HW2 4167   2.309   3.391   6.623  2.2799  1.6701  1.1909
 1390SOL     OW 4168   4.831   0.066   9.014  0.2363 -0.1751  0.1758
 1390SOL    HW1 4169   4.790  -0.019   9.032 -0.1313  0.3628  2.0272
 1390SOL    HW2 4170   4.923   0.053   9.039  0.8590 -0.8116 -2.1862
 1391SOL     OW 4171   3.389   4.265   7.024 -0.1144  0.1012 -0.5055
 1391SOL    HW1 4172   3.391   4.180   7.068  0.0568  1.2741  1.9031
 1391SOL    HW2 4173   3.296   4.281   7.007 -0.0057 -1.4968 -3.0600
 1392SOL     OW 4174   1.409   4.860   4.858  0.1281  0.0295  0.7175
 1392SOL    HW1 4175   1.420   4.876   4.952  1.1018  0.3227  0.5634
 1392SOL    HW2 4176   1.482   4.804   4.834  0.1568  0.3416  0.0468
 1393SOL     OW 4177   1.524   1.713   6.768  0.1212 -0.0371 -0.2625
 1393SOL    HW1 4178   1.491   1.715   6.678  2.6231  1.0095 -1.2512
 1393SOL    HW2 4179   1.520   1.804   6.796 -3.1039 -0.6620  1.7728
 1394SOL     OW 4180   3.797   4.485   6.330  0.3862  0.2533  0.5295
 1394SOL    HW1 4181   3.795   4.573   6.367 -0.0883  0.4133  0.1197
 1394SOL    HW2 4182   3.741   4.433   6.388 -0.4129  0.5190  0.0070
 1395SOL     OW 4183   2.567   1.248   6.345  1.1971  0.1424 -0.0365
 1395SOL    HW1 4184   2.635   1.291   6.292  0.2074  4.1711  1.6474
 1395SOL    HW2 4185   2.495   1.310   6.347 -1.4049 -2.6549  0.8268
 1396SOL     OW 4186   4.646   4.590   6.891  0.7498  0.2163 -0.1302
 1396SOL    HW1 4187   4.631   4.571   6.798 -0.5259 -1.6171  0.3975
 1396SOL    HW2 4188   4.664   4.504   6.930 -4.2235 -0.0762  2.2694
 1397SOL     OW 4189   1.706   2.839   6.776  0.1110 -0.0416 -0.1377
 1397SOL    HW1 4190   1.766   2.882   6.716 -1.2072 -0.4092 -1.7767
 1397SOL    HW2 4191   1.754   2.761   6.806  0.7364  0.0658 -0.8313
 1398SOL     OW 4192   4.747   2.672   7.248  0.4563  0.3154  0.0324
 1398SOL    HW1 4193   4.819   2.614   7.222 -0.5623 -0.0893 -2.0570
 1398SOL    HW2 4194   4.713   2.707   7.166  0.0334  2.7162  1.1365
 1399SOL     OW 4195   1.258   2.419   6.907  0.7558  0.3274  0.4654
 1399SOL    HW1 4196   1.200   2.492   6.928  0.2129 -0.3015  1.1590
 1399SOL    HW2 4197   1.203   2.356   6.861  0.7342 -0.5191  1.6147
 1400SOL     OW 4198   4.172   0.145   8.142  0.3499  0.0413  0.1342
 1400SOL    HW1 4199   4.214   0.149   8.056 -1.1425 -0.4147 -0.6505
 1400SOL    HW2 4200   4.145   0.235   8.160 -2.9649 -0.3714 -1.8391
 1401SOL     OW 4201   0.841   2.531   7.872 -0.4352  0.4244  0.2237
 1401SOL    HW1 4202   0.800   2.556   7.955  1.8475 -0.3165  1.6761
 1401SOL    HW2 4203   0.855   2.437   7.879 -1.6882  0.0236 -1.7800
 1402SOL     OW 4204   3.218   3.516   8.068 -0.2362  0.4467 -0.0061
 1402SOL    HW1 4205   3.225   3.514   7.973 -0.6873 -1.9310 -0.0531
 1402SOL    HW2 4206   3.295   3.468   8.099 -0.9151 -0.1858  0.7354
 1403SOL     OW 4207   3.376   2.009   8.433 -0.5036 -1.1260 -0.7417
 1403SOL    HW1 4208   3.394   1.933   8.378  0.4667 -0.7873 -0.9113
 1403SOL    HW2 4209   3.445   2.071   8.411 -2.5274  0.7430 -2.3058
 1404SOL     OW 4210   0.366   0.523   5.207 -0.9142 -0.3150 -0.0487
 1404SOL    HW1 4211   0.298   0.458   5.188  0.8008 -1.5343 -2.5789
 1404SOL    HW2 4212   0.425   0.479   5.268 -0.8722 -0.3407 -0.1078
 1405SOL     OW 4213   0.590   1.977   6.417 -0.0260  0.0959  0.2089
 1405SOL    HW1 4214   0.618   1.921   6.345 -0.2747 -0.5070  0.5752
 1405SOL    HW2 4215   0.496   1.961   6.426 -0.0399  0.3307  0.5237
 1406SOL     OW 4216   4.515   4.428   8.243 -0.1387  0.5888 -0.3749
 1406SOL    HW1 4217   4.487   4.494   8.307  0.8913  0.7947 -0.1245
 1406SOL    HW2 4218   4.446   4.362   8.246  0.0166  0.4589  1.1540
 1407SOL     OW 4219   3.232   0.517   6.394 -0.1331  0.1887 -0.1794
 1407SOL    HW1 4220   3.219   0.557   6.308  1.0625 -0.6695 -0.7749
 1407SOL    HW2 4221   3.144   0.488   6.420 -0.2386 -1.1920 -1.9475
 1408SOL     OW 4222   1.452   0.179   8.548  0.6404  0.0916  0.4446
 1408SOL    HW1 4223   1.375   0.234   8.563  0.4801 -0.6350  2.5281
 1408SOL    HW2 4224   1.459   0.125   8.626  1.8112 -1.6579 -0.7886
 1409SOL     OW 4225   1.884   1.720   9.932 -0.9985 -0.3358  0.5014
 1409SOL    HW1 4226   1.965   1.731   9.983 -1.9919  0.5888  1.9516
 1409SOL    HW2 4227   1.857   1.809   9.911 -0.3736 -0.6847 -2.1634
 1410SOL     OW 4228   4.489   1.466  13.241 -0.0733 -0.0783 -0.4084
 1410SOL    HW1 4229   4.497   1.479  13.336 -0.5983  1.8601 -0.5921
 1410SOL    HW2 4230   4.515   1.374  13.228  2.5976  0.3078  1.2957
 1411SOL     OW 4231   2.700   4.118   6.325 -0.1691 -1.1204  0.6347
 1411SOL    HW1 4232   2.729   4.203   6.291 -2.7038 -0.9490 -1.4083
 1411SOL    HW2 4233   2.764   4.055   6.293  1.1395 -0.1581  1.2557
 1412SOL     OW 4234   3.376   3.877   9.023 -0.0082  0.1609  0.1419
 1412SOL    HW1 4235   3.386   3.789   9.059  0.2095 -0.0620 -0.4566
 1412SOL    HW2 4236   3.304   3.916   9.074  1.0236  0.2657  1.5862
 1413SOL     OW 4237   0.194   2.740   9.588  0.1191 -0.2413  0.0588
 1413SOL    HW1 4238   0.237   2.824   9.571 -1.0225  1.0902  3.0275
 1413SOL    HW2 4239   0.194   2.732   9.684 -1.7343 -2.5840 -0.0402
 1414SOL     OW 4240   1.350   2.752  10.279 -0.0254 -0.3307 -0.3388
 1414SOL    HW1 4241   1.387   2.691  10.342  1.3033 -0.0564 -0.8231
 1414SOL    HW2 4242   1.374   2.716  10.193  0.0935  0.4442 -0.6416
 1415SOL     OW 4243   0.026   1.397   7.591  0.7258  0.4756 -0.1124
 1415SOL    HW1 4244   0.109   1.422   7.631 -0.5948  1.7127  2.0728
 1415SOL    HW2 4245  -0.020   1.480   7.576  0.2182 -0.1166 -2.1500
 1416SOL     OW 4246   0.497   1.132   5.358  0.4173 -0.5505  0.7419
 1416SOL    HW1 4247   0.527   1.135   5.449 -0.7847 -2.1630  1.2326
 1416SOL    HW2 4248   0.407   1.163   5.362  0.4558 -0.3380  0.0321
 1417SOL     OW 4249   2.591   3.185   9.577 -0.3771 -0.2528 -0.1797
 1417SOL    HW1 4250   2.622   3.250   9.640  0.9431 -1.4093  0.4115
 1417SOL    HW2 4251   2.519   3.141   9.622 -0.9360  0.4422 -0.3815
 1418SOL     OW 4252   1.667   0.573   6.687  0.7154 -0.1591 -0.6309
 1418SOL    HW1 4253   1.604   0.589   6.757  0.4756  0.9551 -1.0772
 1418SOL    HW2 4254   1.750   0.609   6.721  1.3854 -2.4786  0.3452
 1419SOL     OW 4255   4.443   3.132   7.887 -0.6637  0.2366 -0.3211
 1419SOL    HW1 4256   4.532   3.101   7.903 -0.4673  0.9944  0.1026
 1419SOL    HW2 4257   4.415   3.169   7.971 -1.3843 -0.0056 -0.4462
 1420SOL     OW 4258   1.916   4.871   8.708  0.0137  0.1826 -0.3167
 1420SOL    HW1 4259   1.857   4.796   8.718  0.5536 -0.0823  1.0577
 1420SOL    HW2 4260   1.978   4.843   8.640 -0.1847 -0.3582 -0.2807
 1421SOL     OW 4261   0.498   0.657   5.707  0.1109  0.3208  0.2167
 1421SOL    HW1 4262   0.459   0.678   5.622 -0.4160 -0.3283  0.2910
 1421SOL    HW2 4263   0.431   0.681   5.771 -0.2282 -0.8935  0.3396
 1422SOL     OW 4264   4.603   1.191   8.016 -1.1110 -0.7304 -0.5739
 1422SOL    HW1 4265   4.660   1.115   8.020  0.0844  0.1299 -0.6520
 1422SOL    HW2 4266   4.629   1.237   7.936 -1.0794  0.2930  0.0023
 1423SOL     OW 4267   1.323   3.613   8.622  0.4058 -0.6031 -0.3366
 1423SOL    HW1 4268   1.324   3.667   8.543  1.7012 -1.8281 -1.2197
 1423SOL    HW2 4269   1.298   3.526   8.591 -0.8344 -0.7245  0.9192
 1424SOL     OW 4270   4.527   1.944   6.576 -0.2571 -0.4794  0.1444
 1424SOL    HW1 4271   4.447   1.978   6.536 -0.2682 -0.1795  0.4209
 1424SOL    HW2 4272   4.497   1.892   6.650 -0.2881 -1.7585 -0.7231
 1425SOL     OW 4273   0.990   0.893   7.411 -0.1718 -0.5045  0.8579
 1425SOL    HW1 4274   1.033   0.969   7.451 -1.1626  1.1804 -1.0867
 1425SOL    HW2 4275   1.062   0.841   7.376  0.5020  1.6444 -1.2795
 1426SOL     OW 4276   3.091   3.300   5.842 -0.0872 -0.1381 -0.0237
 1426SOL    HW1 4277   3.035   3.341   5.776  0.5903  1.6102  0.4308
 1426SOL    HW2 4278   3.034   3.241   5.890 -1.3271  0.9041 -0.1684
 1427SOL     OW 4279   3.286   1.996   4.716  0.1124  0.1866  0.2481
 1427SOL    HW1 4280   3.352   1.983   4.648 -0.6267  0.0593 -0.4591
 1427SOL    HW2 4281   3.223   1.925   4.702 -1.0883  1.3036 -0.2036
 1428SOL     OW 4282   3.927   0.515   9.589 -0.3076  0.4683 -0.5547
 1428SOL    HW1 4283   3.874   0.543   9.515 -1.2074  0.7582  0.1751
 1428SOL    HW2 4284   4.008   0.565   9.581 -0.9579  1.5611 -0.5708
 1429SOL     OW 4285   2.081   2.709   7.920 -0.0733 -0.1980 -0.4925
 1429SOL    HW1 4286   2.044   2.796   7.938 -2.7133 -1.6120  1.6474
 1429SOL    HW2 4287   2.052   2.689   7.831  1.4953  1.4507 -1.4534
 1430SOL     OW 4288   1.185   2.437   8.650 -0.1694 -0.0768  0.8789
 1430SOL    HW1 4289   1.216   2.369   8.709  3.6933  0.8621  0.2053
 1430SOL    HW2 4290   1.154   2.390   8.573  1.7112 -1.1452  0.7241
 1431SOL     OW 4291   0.828   1.834   9.882 -0.1661  0.1586 -0.2324
 1431SOL    HW1 4292   0.818   1.825   9.787 -2.2355  1.0266 -0.1476
 1431SOL    HW2 4293   0.832   1.744   9.914  3.0401 -0.1893 -1.2852
 1432SOL     OW 4294   3.026   0.224   9.055  0.6185  0.3542  0.2219
 1432SOL    HW1 4295   2.953   0.220   9.116 -1.6420  1.6669 -2.1997
 1432SOL    HW2 4296   3.044   0.132   9.034 -2.2079  0.0107 -1.1130
 1433SOL     OW 4297   0.800   3.753   9.592 -0.1986  0.1323 -0.3265
 1433SOL    HW1 4298   0.758   3.825   9.546 -2.3399 -0.6780  0.2541
 1433SOL    HW2 4299   0.790   3.774   9.685  0.1578 -0.3701 -0.1694
 1434SOL     OW 4300   3.069   1.164   9.721 -0.5660  0.0114 -0.1394
 1434SOL    HW1 4301   3.001   1.149   9.786 -0.4611 -1.7119 -0.3878
 1434SOL    HW2 4302   3.118   1.240   9.753 -1.8854  0.5614  0.6211
 1435SOL     OW 4303   0.893   4.209   8.096  0.4526 -0.2695  0.2214
 1435SOL    HW1 4304   0.947   4.177   8.024  0.4797 -2.0759  0.9979
 1435SOL    HW2 4305   0.920   4.300   8.107  0.5868  0.0092 -1.8989
 1436SOL     OW 4306   3.995   1.159  10.362 -0.0807  0.4179  0.3349
 1436SOL    HW1 4307   3.990   1.067  10.337  1.1297  0.1822  0.8977
 1436SOL    HW2 4308   4.061   1.196  10.303  0.8431  0.4677  1.3742
 1437SOL     OW 4309   4.328   3.343   9.598  0.3713  0.0687 -0.0700
 1437SOL    HW1 4310   4.340   3.249   9.592  0.9245  0.0924  0.4742
 1437SOL    HW2 4311   4.352   3.376   9.511 -1.7533 -0.4436 -0.9062
 1438SOL     OW 4312   2.579   1.353   9.102 -0.0149 -0.2775 -0.3585
 1438SOL    HW1 4313   2.547   1.319   9.018 -0.2026  0.5513 -0.6368
 1438SOL    HW2 4314   2.502   1.352   9.159 -0.1942  0.3361 -0.5828
 1439SOL     OW 4315   2.066   3.365  10.028  0.3537  0.0416  0.6863
 1439SOL    HW1 4316   2.008   3.292  10.053  0.8329 -1.2056 -1.6215
 1439SOL    HW2 4317   2.006   3.439  10.019 -0.7605 -0.9395 -0.4893
 1440SOL     OW 4318   1.180   1.015   9.203 -0.3481  0.6237 -0.0881
 1440SOL    HW1 4319   1.197   0.932   9.158  1.5806  1.2260 -0.5443
 1440SOL    HW2 4320   1.085   1.027   9.194 -0.4514 -0.7691 -1.3596
 1441SOL     OW 4321   2.085   0.451   6.951 -0.2640  0.2912 -0.3585
 1441SOL    HW1 4322   2.166   0.426   6.995 -1.7094 -0.6887  1.9027
 1441SOL    HW2 4323   2.019   0.392   6.987 -2.3156  2.1599 -0.8484
 1442SOL     OW 4324   4.641   1.174   8.363  0.2438 -0.0604 -0.5138
 1442SOL    HW1 4325   4.631   1.113   8.289 -0.1354  0.6158 -1.0352
 1442SOL    HW2 4326   4.595   1.131   8.435  0.6833 -0.7679 -0.6375
 1443SOL     OW 4327   4.932   3.592   9.749 -0.2346 -0.8274 -0.1209
 1443SOL    HW1 4328   4.888   3.654   9.808  0.3969 -1.0017  0.5460
 1443SOL    HW2 4329   4.982   3.535   9.808 -0.4476 -1.6833 -0.7565
 1444SOL     OW 4330   2.792   3.275   7.481  0.0018 -0.5592 -0.4133
 1444SOL    HW1 4331   2.802   3.283   7.575  0.4027 -3.0912 -0.1747
 1444SOL    HW2 4332   2.803   3.181   7.463 -2.2323 -0.5026 -2.7057
 1445SOL     OW 4333   1.364   0.786   8.721  0.3405 -0.4099 -0.7675
 1445SOL    HW1 4334   1.332   0.870   8.754  1.6251  0.1685 -0.8961
 1445SOL    HW2 4335   1.344   0.723   8.790 -1.0798 -0.1120 -0.8831
 1446SOL     OW 4336   0.883   0.520   8.013  0.5791 -0.0267 -0.0564
 1446SOL    HW1 4337   0.910   0.533   8.104  0.4006  1.7345 -0.2285
 1446SOL    HW2 4338   0.810   0.580   8.001 -0.1924 -1.1101 -1.0452
 1447SOL     OW 4339   4.401   1.224   9.166 -0.2274  0.8141 -0.0570
 1447SOL    HW1 4340   4.396   1.186   9.254 -1.0426 -1.4759 -1.0075
 1447SOL    HW2 4341   4.339   1.297   9.168  0.3184  1.2777  1.4639
 1448SOL     OW 4342   2.244   0.762   9.149  0.1555  0.0109 -0.3796
 1448SOL    HW1 4343   2.322   0.745   9.097  0.8343 -0.0968  0.6366
 1448SOL    HW2 4344   2.270   0.740   9.239 -1.4107 -1.2216 -0.1740
 1449SOL     OW 4345   3.782   2.248  10.253 -0.2286 -0.2807  0.0602
 1449SOL    HW1 4346   3.821   2.162  10.240 -0.2536 -0.3820  0.6029
 1449SOL    HW2 4347   3.853   2.310  10.238 -0.3050 -0.3785 -0.7038
 1450SOL     OW 4348   0.943   0.746   9.807 -0.5248 -1.0268  0.1117
 1450SOL    HW1 4349   1.014   0.741   9.871 -0.8081  1.7801  0.7996
 1450SOL    HW2 4350   0.872   0.694   9.845 -0.0658 -0.8841  1.1997
 1451SOL     OW 4351   4.580   2.233   8.829  0.3047 -0.1544  0.0722
 1451SOL    HW1 4352   4.640   2.208   8.899  0.4385 -0.5311 -0.1762
 1451SOL    HW2 4353   4.496   2.247   8.874 -0.2486 -2.7855  0.0342
 1452SOL     OW 4354   3.471   1.290   7.188  0.0294  0.1079  0.0088
 1452SOL    HW1 4355   3.438   1.379   7.180 -0.4961 -0.0466  0.3561
 1452SOL    HW2 4356   3.502   1.283   7.278  0.4943  0.0782 -0.1521
 1453SOL     OW 4357   3.551   4.209   9.319 -0.2548 -0.4918  0.2001
 1453SOL    HW1 4358   3.637   4.170   9.334  0.0590  0.2442  0.3242
 1453SOL    HW2 4359   3.524   4.175   9.233  0.0482 -0.9129  0.2693
 1454SOL     OW 4360   3.817   2.536   9.978 -0.1269 -0.9699  0.3778
 1454SOL    HW1 4361   3.752   2.595   9.939  0.8670 -0.9444 -1.3095
 1454SOL    HW2 4362   3.899   2.586   9.976  0.6031 -2.1739 -0.5328
 1455SOL     OW 4363   3.222   4.090   8.333  0.0251  0.5482  0.7071
 1455SOL    HW1 4364   3.291   4.069   8.269 -0.4877  2.1692 -0.4599
 1455SOL    HW2 4365   3.141   4.062   8.291 -0.3372  1.7944  0.5544
 1456SOL     OW 4366   2.767   2.008   7.082  0.2532 -0.3674 -0.3428
 1456SOL    HW1 4367   2.844   1.991   7.137  0.2815  0.2200 -0.1922
 1456SOL    HW2 4368   2.696   2.024   7.143  0.3898  0.7694 -0.4523
 1457SOL     OW 4369   4.982   4.307   9.116  0.0023  0.0820  0.3352
 1457SOL    HW1 4370   4.958   4.250   9.043 -0.1583 -1.5578  1.6181
 1457SOL    HW2 4371   4.997   4.248   9.189  2.0627  1.5021  1.1688
 1458SOL     OW 4372   0.285   2.269   9.310 -0.1334  0.2684  0.6353
 1458SOL    HW1 4373   0.204   2.318   9.298 -1.1507 -1.4040  0.3601
 1458SOL    HW2 4374   0.258   2.177   9.312  1.5947 -0.2784  1.9899
 1459SOL     OW 4375   1.233   4.297   7.295 -0.1001  0.0459  0.1808
 1459SOL    HW1 4376   1.283   4.377   7.283  1.8037 -1.2483 -1.0300
 1459SOL    HW2 4377   1.298   4.231   7.317 -1.3247 -1.6077 -0.9026
 1460SOL     OW 4378   0.028   1.520   9.153  0.4392 -0.4014  0.5194
 1460SOL    HW1 4379   0.088   1.487   9.219  0.0489 -2.5009 -0.0722
 1460SOL    HW2 4380  -0.058   1.517   9.195 -0.1860 -4.0064 -0.6155
 1461SOL     OW 4381   4.398   1.628   9.857 -0.4600  0.0681  0.3398
 1461SOL    HW1 4382   4.398   1.723   9.871 -0.5878  0.0858  0.2189
 1461SOL    HW2 4383   4.444   1.593   9.933 -1.2300  0.1565  0.8577
 1462SOL     OW 4384   4.257   4.302  10.130 -1.0290  0.2613 -0.0815
 1462SOL    HW1 4385   4.229   4.353  10.054  1.3961 -1.5238 -2.3282
 1462SOL    HW2 4386   4.194   4.231  10.136  0.0043 -0.8828 -1.9441
 1463SOL     OW 4387   2.488   3.150   7.918 -0.3193 -0.1270 -0.9027
 1463SOL    HW1 4388   2.404   3.141   7.964  0.6164  0.1929  0.9582
 1463SOL    HW2 4389   2.517   3.061   7.903  1.6315 -0.5647  3.6564
 1464SOL     OW 4390   0.021   2.264   7.407 -0.4383  0.9775 -0.2582
 1464SOL    HW1 4391   0.010   2.177   7.367 -0.5506  1.7146 -1.9407
 1464SOL    HW2 4392   0.057   2.318   7.336  2.1154  1.7195  1.4611
 1465SOL     OW 4393   0.829   1.892   9.053  0.0209  0.1582  0.1584
 1465SOL    HW1 4394   0.876   1.944   9.118  0.4130  2.4055 -1.7696
 1465SOL    HW2 4395   0.745   1.937   9.043 -0.8360 -1.3132  0.4741
 1466SOL     OW 4396   0.126   3.091   9.865 -0.2932  0.0690 -0.0574
 1466SOL    HW1 4397   0.098   3.137   9.944 -1.4060 -0.3126 -0.2098
 1466SOL    HW2 4398   0.198   3.144   9.830 -0.9231  1.1767  0.2808
 1467SOL     OW 4399   1.094   4.607   7.459 -0.5860 -0.1399 -0.3963
 1467SOL    HW1 4400   1.097   4.600   7.554 -1.8733 -0.6257 -0.3724
 1467SOL    HW2 4401   1.183   4.587   7.430  0.3296  1.9157  0.7979
 1468SOL     OW 4402   0.840   0.792  10.989 -0.1917 -0.4698 -0.0551
 1468SOL    HW1 4403   0.797   0.706  10.985  0.7680 -1.0658  1.4403
 1468SOL    HW2 4404   0.772   0.852  11.018 -0.3888 -1.1208  0.8557
 1469SOL     OW 4405   1.536   1.446   8.982  0.8631 -0.1487 -0.5779
 1469SOL    HW1 4406   1.538   1.385   8.908  1.9070  0.4533 -1.0786
 1469SOL    HW2 4407   1.528   1.390   9.059 -0.5778 -0.7736 -1.1470
 1470SOL     OW 4408   3.144   3.046   8.340 -0.2005  0.2536 -0.2981
 1470SOL    HW1 4409   3.108   3.001   8.417 -0.4529 -1.6622 -1.4851
 1470SOL    HW2 4410   3.071   3.099   8.307 -0.6370 -0.3019 -0.2349
 1471SOL     OW 4411   3.926   0.130   9.235 -0.5885 -1.2696  0.1449
 1471SOL    HW1 4412   3.971   0.186   9.172 -0.5347  0.7888  1.9029
 1471SOL    HW2 4413   3.997   0.085   9.281 -0.6437 -3.1992 -1.5416
 1472SOL     OW 4414   0.229   0.820   7.222 -0.0425  0.5202  0.8662
 1472SOL    HW1 4415   0.171   0.758   7.177  0.5704 -0.2919  1.1738
 1472SOL    HW2 4416   0.211   0.807   7.315 -0.6437  1.5456  0.9145
 1473SOL     OW 4417   4.514   3.666   8.468  0.6576 -0.7974 -0.3629
 1473SOL    HW1 4418   4.456   3.592   8.486 -0.2222  0.0321  0.3374
 1473SOL    HW2 4419   4.550   3.648   8.381 -1.4547 -0.8839 -1.2910
 1474SOL     OW 4420   1.237   1.814   9.843  0.5549 -0.1271  0.3140
 1474SOL    HW1 4421   1.167   1.775   9.895 -0.3003 -0.0102 -0.7032
 1474SOL    HW2 4422   1.267   1.890   9.893 -0.7315  0.3950  0.3226
 1475SOL     OW 4423   0.795   1.108   7.870  0.3823 -0.9814 -0.2131
 1475SOL    HW1 4424   0.824   1.063   7.949  0.5792 -2.1236 -0.9058
 1475SOL    HW2 4425   0.810   1.045   7.799 -1.1298 -0.5497 -0.9744
 1476SOL     OW 4426   3.708   0.702   9.703  0.3992  0.3953  0.2236
 1476SOL    HW1 4427   3.711   0.629   9.641 -0.0277  0.2250  0.3981
 1476SOL    HW2 4428   3.794   0.743   9.697  0.0577  0.9693 -1.2140
 1477SOL     OW 4429   2.806   0.437   9.916  0.5096 -0.3274  0.5581
 1477SOL    HW1 4430   2.764   0.483   9.844 -1.4723 -1.2030  1.0795
 1477SOL    HW2 4431   2.867   0.376   9.874  3.2188  2.5696 -0.1545
 1478SOL     OW 4432   1.935   1.793   9.049 -0.3760  0.0131  0.2588
 1478SOL    HW1 4433   1.886   1.723   9.091  0.0707 -0.5189 -0.1019
 1478SOL    HW2 4434   2.008   1.810   9.109 -0.0412 -0.3736 -0.0403
 1479SOL     OW 4435   0.374   0.970   7.868  0.4897  0.6575  0.0515
 1479SOL    HW1 4436   0.409   0.931   7.788 -1.5690  1.5857 -1.4257
 1479SOL    HW2 4437   0.447   1.017   7.906  1.6429 -0.1596 -1.0630
 1480SOL     OW 4438   0.599   4.993   7.868 -0.4336  0.2927 -0.6409
 1480SOL    HW1 4439   0.523   4.954   7.912 -0.2222 -0.0502 -0.5813
 1480SOL    HW2 4440   0.673   4.972   7.925 -0.2157  0.1760 -0.9659
 1481SOL     OW 4441   3.175   3.894   7.886 -0.4501 -0.1877  0.1500
 1481SOL    HW1 4442   3.267   3.919   7.881 -0.3904 -0.4854 -0.3177
 1481SOL    HW2 4443   3.155   3.893   7.979 -0.4817  1.6725  0.1902
 1482SOL     OW 4444   4.974   3.504   7.878 -0.8643 -0.7860 -0.0120
 1482SOL    HW1 4445   5.020   3.570   7.827  1.5106 -1.2227  1.4032
 1482SOL    HW2 4446   4.909   3.553   7.929  0.1787  0.3383  0.2666
 1483SOL     OW 4447   1.996   0.780   8.602  0.0691 -0.0987 -0.4677
 1483SOL    HW1 4448   1.936   0.838   8.555  1.1861  0.7139 -0.9131
 1483SOL    HW2 4449   1.985   0.805   8.694  0.6117  0.9173 -0.6622
 1484SOL     OW 4450   2.364   4.248   4.733  0.0260  0.1974  0.0906
 1484SOL    HW1 4451   2.337   4.259   4.824  0.0258 -0.9070  0.2471
 1484SOL    HW2 4452   2.293   4.287   4.682  1.2115  3.1753  0.5563
 1485SOL     OW 4453   4.799   2.983   9.483  0.4553 -0.5525  0.2873
 1485SOL    HW1 4454   4.892   2.962   9.474  1.0287  0.6973  2.6334
 1485SOL    HW2 4455   4.772   2.940   9.564  0.0094  2.0559  1.6406
 1486SOL     OW 4456   4.212   0.381   9.239 -0.7164  0.0043 -0.1520
 1486SOL    HW1 4457   4.281   0.445   9.257  0.2844 -0.8067 -0.9450
 1486SOL    HW2 4458   4.196   0.338   9.323  0.6520 -0.6514 -0.2054
 1487SOL     OW 4459   0.309   1.850  10.001  0.9015 -0.1668  0.7495
 1487SOL    HW1 4460   0.359   1.842   9.920  2.3123 -1.7628  1.6888
 1487SOL    HW2 4461   0.362   1.802  10.066 -0.3915  0.6641  2.5061
 1488SOL     OW 4462   4.831   3.651   7.540  0.1016 -0.1786  0.0347
 1488SOL    HW1 4463   4.831   3.632   7.446  1.4336 -1.7578  0.3107
 1488SOL    HW2 4464   4.746   3.621   7.571 -0.9781  1.7360 -0.8598
 1489SOL     OW 4465   0.627   3.028   7.565 -0.0233  0.0432  0.3543
 1489SOL    HW1 4466   0.713   3.059   7.538 -0.4950  1.3725  0.3313
 1489SOL    HW2 4467   0.598   3.092   7.630 -1.5406  0.3437 -0.5777
 1490SOL     OW 4468   3.654   3.844   9.944 -0.4372  0.3182 -0.7079
 1490SOL    HW1 4469   3.741   3.816   9.914 -0.2088 -1.9430  1.6508
 1490SOL    HW2 4470   3.602   3.763   9.945 -1.2864  0.8184  1.8302
 1491SOL     OW 4471   4.441   3.772   9.828 -0.2115 -0.5264  0.3994
 1491SOL    HW1 4472   4.396   3.707   9.775 -0.1245  0.2303 -0.6270
 1491SOL    HW2 4473   4.522   3.791   9.781  0.2721 -0.4403  1.2298
 1492SOL     OW 4474   3.507   2.960   9.359 -0.1504  0.0599  0.3155
 1492SOL    HW1 4475   3.517   2.978   9.266  1.8767 -2.1191  0.0336
 1492SOL    HW2 4476   3.546   3.036   9.402  0.7633  0.1749 -0.6669
 1493SOL     OW 4477   4.352   1.722   5.321 -0.8436  0.7741 -0.0850
 1493SOL    HW1 4478   4.360   1.637   5.278  0.6640  0.5958  0.5164
 1493SOL    HW2 4479   4.270   1.758   5.286 -0.2566  0.1557 -2.2492
 1494SOL     OW 4480   1.389   2.039  10.003 -0.2205 -0.2487 -0.1308
 1494SOL    HW1 4481   1.425   2.126   9.985  0.6265 -0.0917  2.0088
 1494SOL    HW2 4482   1.307   2.056  10.048 -0.7075 -0.5940 -0.8666
 1495SOL     OW 4483   3.050   3.676   8.783  0.6510  0.0361 -0.2357
 1495SOL    HW1 4484   3.031   3.769   8.767  0.5433 -0.0887 -0.8611
 1495SOL    HW2 4485   3.025   3.662   8.874 -0.7098  0.2726 -0.5506
 1496SOL     OW 4486   0.261   4.979   9.152  0.8025  0.1249  0.4549
 1496SOL    HW1 4487   0.193   4.924   9.112  1.7978  0.4417 -1.8240
 1496SOL    HW2 4488   0.228   5.068   9.141 -0.1620  0.1361  2.8933
 1497SOL     OW 4489   3.530   4.533   8.827  0.1698  0.1989 -0.2782
 1497SOL    HW1 4490   3.614   4.573   8.806  0.1686 -0.4422 -1.5693
 1497SOL    HW2 4491   3.551   4.443   8.852 -0.0621  0.2928  0.2966
 1498SOL     OW 4492   4.771   2.259   9.058 -0.2633 -0.0195  0.2329
 1498SOL    HW1 4493   4.760   2.348   9.025 -0.9964 -0.0928  0.2722
 1498SOL    HW2 4494   4.855   2.231   9.022 -0.9949 -0.0822 -1.5343
 1499SOL     OW 4495   1.430   1.383   9.447 -0.1720 -0.0310 -0.0917
 1499SOL    HW1 4496   1.344   1.378   9.490 -0.5829  2.4619 -0.4644
 1499SOL    HW2 4497   1.487   1.329   9.501 -1.2836  0.8640  2.0999
 1500SOL     OW 4498   4.761   3.051   9.044  0.0146  0.6030  0.2339
 1500SOL    HW1 4499   4.714   3.047   9.128  1.4464  2.2353  1.1714
 1500SOL    HW2 4500   4.841   3.000   9.059 -0.4755 -0.4794 -0.7055
 1501SOL     OW 4501   3.787   4.092   7.811 -1.2212  0.1983 -0.0599
 1501SOL    HW1 4502   3.785   4.035   7.888 -1.2601  1.5393  0.9571
 1501SOL    HW2 4503   3.855   4.055   7.755 -1.5931 -1.1387  0.3384
 1502SOL     OW 4504   2.258   3.416   8.924 -0.0701 -0.3440 -0.0078
 1502SOL    HW1 4505   2.242   3.325   8.898  1.5644 -0.3969 -0.9521
 1502SOL    HW2 4506   2.195   3.432   8.994  0.0766 -2.4365  0.6799
 1503SOL     OW 4507   1.514   4.238   8.907  0.0228 -1.0195 -0.3801
 1503SOL    HW1 4508   1.458   4.216   8.981 -0.7877 -0.0836 -0.6907
 1503SOL    HW2 4509   1.538   4.154   8.869  0.2327 -1.5060  0.7711
 1504SOL     OW 4510   3.741   2.296   8.953 -0.1032 -0.6195  0.2045
 1504SOL    HW1 4511   3.666   2.354   8.941  0.1475  0.3120  2.6508
 1504SOL    HW2 4512   3.816   2.354   8.959  0.1992 -1.1536  2.3583
 1505SOL     OW 4513   2.824   2.628   7.672 -0.1583  0.9435 -0.3145
 1505SOL    HW1 4514   2.777   2.601   7.593  0.7280  0.5341 -0.7122
 1505SOL    HW2 4515   2.827   2.549   7.726 -0.1293  1.0360 -0.1788
 1506SOL     OW 4516   3.566   1.465   9.476  0.1848  1.2381  0.5142
 1506SOL    HW1 4517   3.539   1.556   9.485  0.5158  1.6439 -1.9661
 1506SOL    HW2 4518   3.659   1.469   9.452  0.1210  0.2688  0.0550
 1507SOL     OW 4519   0.506   1.922   7.655 -0.0316  0.0263 -0.2623
 1507SOL    HW1 4520   0.496   2.017   7.652 -1.3637 -0.1041 -0.9419
 1507SOL    HW2 4521   0.583   1.904   7.602  1.2128  0.8178  1.1980
 1508SOL     OW 4522   0.472   1.949   8.142  0.1966  0.2322  0.5716
 1508SOL    HW1 4523   0.473   1.865   8.188  2.1977  0.4073  0.9646
 1508SOL    HW2 4524   0.519   1.932   8.061  0.4925  0.9272  0.5955
 1509SOL     OW 4525   4.136   1.127   9.815 -0.2315  0.3612 -0.0352
 1509SOL    HW1 4526   4.182   1.211   9.817  1.5488 -0.5708  0.9398
 1509SOL    HW2 4527   4.130   1.100   9.906 -3.8063  0.8959  0.0351
 1510SOL     OW 4528   2.418   2.538   7.233  0.1127 -0.3038  0.4536
 1510SOL    HW1 4529   2.365   2.589   7.294  1.2639  0.8255  0.5375
 1510SOL    HW2 4530   2.412   2.448   7.266  2.6512  0.5581  3.7627
 1511SOL     OW 4531   2.820   2.653   7.294 -0.9078  0.0877 -0.1034
 1511SOL    HW1 4532   2.756   2.631   7.362 -1.3880 -0.5216 -0.7322
 1511SOL    HW2 4533   2.801   2.591   7.223  0.6561 -0.3843 -0.1423
 1512SOL     OW 4534   1.085   3.522   9.871 -0.8910  0.6463 -0.0258
 1512SOL    HW1 4535   1.026   3.572   9.816 -1.2396 -0.5537 -0.7932
 1512SOL    HW2 4536   1.147   3.483   9.809  1.4836  2.7893  0.8364
 1513SOL     OW 4537   1.317   1.640   8.905 -0.0631  0.7948 -0.1736
 1513SOL    HW1 4538   1.396   1.592   8.929 -0.3528  0.1307 -0.5206
 1513SOL    HW2 4539   1.317   1.639   8.809 -1.2313 -0.4652 -0.1847
 1514SOL     OW 4540   1.802   3.908   6.986 -0.2661  0.4630 -0.2788
 1514SOL    HW1 4541   1.749   3.860   6.923 -0.5256 -0.5109  0.6575
 1514SOL    HW2 4542   1.867   3.954   6.933  1.3864 -2.5956 -1.1306
 1515SOL     OW 4543   4.519   4.991   9.576 -0.6527 -0.2665  0.1649
 1515SOL    HW1 4544   4.532   4.914   9.520  1.5783  1.1735 -1.4529
 1515SOL    HW2 4545   4.517   5.065   9.515 -4.1548  0.9720  1.5275
 1516SOL     OW 4546   0.243   2.920   8.757  0.4236  0.1295  0.3412
 1516SOL    HW1 4547   0.322   2.868   8.761  0.6048  0.4473  1.5290
 1516SOL    HW2 4548   0.259   2.993   8.818 -1.9210 -1.4811  3.2091
 1517SOL     OW 4549   0.301   4.565   7.176  0.3115  0.4349  0.0429
 1517SOL    HW1 4550   0.322   4.642   7.123 -0.3501 -0.3874 -1.4842
 1517SOL    HW2 4551   0.205   4.562   7.177  0.2907 -1.2814 -1.4053
 1518SOL     OW 4552   4.492   1.531  10.536 -0.4922 -0.1587  0.3076
 1518SOL    HW1 4553   4.479   1.515  10.630  1.6245  2.3886  1.1808
 1518SOL    HW2 4554   4.587   1.529  10.525 -0.7372 -2.1435 -2.2251
 1519SOL     OW 4555   4.776   3.973  10.121 -0.4600  0.2380  0.1213
 1519SOL    HW1 4556   4.712   3.969  10.050 -2.0536 -0.8909  1.5388
 1519SOL    HW2 4557   4.784   4.066  10.140 -0.5654  0.5015 -1.0486
 1520SOL     OW 4558   1.600   0.320   7.354 -0.5114  0.3182  0.9067
 1520SOL    HW1 4559   1.509   0.312   7.381 -1.1074  2.1603 -0.3994
 1520SOL    HW2 4560   1.626   0.407   7.383  0.8711 -0.1858  1.2777
 1521SOL     OW 4561   3.284   0.346   8.932  0.1530 -0.1835 -0.4998
 1521SOL    HW1 4562   3.363   0.369   8.980  1.4573 -0.5229 -2.3598
 1521SOL    HW2 4563   3.214   0.390   8.978  1.3805 -0.0753  1.3699
 1522SOL     OW 4564   0.209   3.088   6.869 -0.2091 -0.2784 -1.0246
 1522SOL    HW1 4565   0.265   3.012   6.889  1.0291  0.4021 -1.7659
 1522SOL    HW2 4566   0.200   3.133   6.953 -1.9026 -1.8233 -0.3337
 1523SOL     OW 4567   0.356   1.587   9.761 -0.1028  0.2942 -0.1669
 1523SOL    HW1 4568   0.415   1.628   9.698 -1.1526  0.9770 -0.7472
 1523SOL    HW2 4569   0.268   1.611   9.730 -0.8151 -2.4559 -0.6055
 1524SOL     OW 4570   4.039   4.335  10.514  0.2625 -0.6705  0.1241
 1524SOL    HW1 4571   4.111   4.277  10.490  0.2536 -0.3320 -0.7427
 1524SOL    HW2 4572   4.073   4.387  10.586  0.2783 -1.7273  0.8990
 1525SOL     OW 4573   3.890   1.382   6.966 -0.0406  0.4427  0.1759
 1525SOL    HW1 4574   3.900   1.477   6.975 -0.8232  0.5380  0.0765
 1525SOL    HW2 4575   3.913   1.348   7.052 -2.4387  0.9516  1.0986
 1526SOL     OW 4576   3.863   2.925   9.669 -0.2175 -0.2423  0.1958
 1526SOL    HW1 4577   3.886   2.918   9.577 -0.2791  1.1354  0.0506
 1526SOL    HW2 4578   3.812   2.846   9.687  1.1112 -1.2997 -0.5252
 1527SOL     OW 4579   1.615   1.887   7.418  0.7941  0.9156 -0.0819
 1527SOL    HW1 4580   1.649   1.798   7.412 -0.5934  0.3726 -0.1343
 1527SOL    HW2 4581   1.691   1.939   7.444  1.4178 -0.4312  0.9430
 1528SOL     OW 4582   0.790   4.600   5.332  0.3736  0.1858  0.3748
 1528SOL    HW1 4583   0.845   4.522   5.341  0.9717  0.6233  0.5438
 1528SOL    HW2 4584   0.714   4.582   5.388 -0.4527 -1.1051 -1.0968
 1529SOL     OW 4585   3.783   0.135   7.996  0.0178  0.7719 -0.6741
 1529SOL    HW1 4586   3.789   0.073   8.069  0.1126 -0.4652 -1.6993
 1529SOL    HW2 4587   3.689   0.150   7.986  0.0412  1.5294  0.1665
 1530SOL     OW 4588   4.590   3.735   7.043 -0.0905  0.7573  0.0908
 1530SOL    HW1 4589   4.507   3.700   7.012 -0.6364  0.9309  1.2814
 1530SOL    HW2 4590   4.616   3.799   6.977 -1.3090  1.2566  0.0845
 1531SOL     OW 4591   1.720   4.135   7.169  0.2097  0.0124  0.0060
 1531SOL    HW1 4592   1.804   4.088   7.164  0.8993  1.0580  1.1710
 1531SOL    HW2 4593   1.695   4.148   7.078  2.2935  1.3188 -0.4573
 1532SOL     OW 4594   4.136   2.707   7.147 -0.1310  0.4050  0.5372
 1532SOL    HW1 4595   4.150   2.802   7.140  2.4537  0.0256 -0.4665
 1532SOL    HW2 4596   4.168   2.684   7.234 -0.0691  0.3658  0.5045
 1533SOL     OW 4597   3.398   4.965   9.763  0.1500  0.0840  0.1544
 1533SOL    HW1 4598   3.446   4.958   9.680 -0.1421 -0.4015  0.0197
 1533SOL    HW2 4599   3.423   4.886   9.811 -1.2704 -0.6965 -0.3287
 1534SOL     OW 4600   1.787   0.462   6.425 -0.1286  0.9657 -0.8481
 1534SOL    HW1 4601   1.725   0.484   6.355 -1.5526 -2.0396 -0.6898
 1534SOL    HW2 4602   1.742   0.486   6.506 -0.3021  0.5104 -0.8078
 1535SOL     OW 4603   3.438   0.760   6.622  0.3296 -0.2875  0.7354
 1535SOL    HW1 4604   3.427   0.748   6.528  2.1157 -1.5624  0.6319
 1535SOL    HW2 4605   3.402   0.847   6.640  1.4496  0.6791 -1.4104
 1536SOL     OW 4606   3.715   1.915   6.070  0.3391  0.3035  0.2495
 1536SOL    HW1 4607   3.722   2.011   6.072  0.0654  0.3186  0.6514
 1536SOL    HW2 4608   3.739   1.891   5.980  0.5217  0.7397  0.1790
 1537SOL     OW 4609   0.586   0.317   7.404  0.0989  0.2464 -0.6233
 1537SOL    HW1 4610   0.617   0.230   7.429 -2.0297 -0.2693  0.4118
 1537SOL    HW2 4611   0.493   0.305   7.387  0.1368  1.9604 -2.3754
 1538SOL     OW 4612   2.020   3.133   9.876 -0.6899  0.0243 -0.0457
 1538SOL    HW1 4613   2.115   3.122   9.876 -0.4294  1.0892  3.2628
 1538SOL    HW2 4614   2.003   3.197   9.808  0.7275 -1.2687 -1.7009
 1539SOL     OW 4615   2.215   2.259   5.473 -0.3416  0.3880 -0.1954
 1539SOL    HW1 4616   2.176   2.174   5.491 -0.7465  0.1780 -1.8958
 1539SOL    HW2 4617   2.308   2.247   5.489 -0.4181 -0.3220 -0.2495
 1540SOL     OW 4618   3.117   4.907   5.954 -0.7537  0.1835 -0.2821
 1540SOL    HW1 4619   3.206   4.900   5.989 -0.3510  1.7332 -0.9037
 1540SOL    HW2 4620   3.114   4.994   5.914 -3.0772  0.9178  1.2514
 1541SOL     OW 4621   1.424   2.911   7.551  0.0119 -0.6198  0.5160
 1541SOL    HW1 4622   1.441   2.845   7.619 -2.7109 -1.6123  0.3690
 1541SOL    HW2 4623   1.349   2.876   7.503 -1.7687  2.7266  0.6189
 1542SOL     OW 4624   4.035   2.444   4.928 -0.0149 -0.4291  0.6500
 1542SOL    HW1 4625   3.940   2.453   4.926  0.0503  0.9430  1.7467
 1542SOL    HW2 4626   4.051   2.351   4.911 -1.4794 -0.5147 -0.5309
 1543SOL     OW 4627   2.886   4.976   5.483  0.3929 -0.7758  0.3802
 1543SOL    HW1 4628   2.906   4.892   5.443  0.3232 -0.9213  0.6496
 1543SOL    HW2 4629   2.849   4.954   5.569 -1.4286 -0.5279 -0.2939
 1544SOL     OW 4630   3.122   2.531   5.959  0.2989 -0.3278 -0.0304
 1544SOL    HW1 4631   3.138   2.618   5.924  0.6218 -0.5812 -0.5182
 1544SOL    HW2 4632   3.027   2.527   5.971  0.2479 -0.0293 -0.3236
 1545SOL     OW 4633   0.432   3.223   5.945 -0.2415 -0.4357 -0.3169
 1545SOL    HW1 4634   0.340   3.248   5.946 -0.1256  0.0087 -0.4879
 1545SOL    HW2 4635   0.456   3.212   6.037 -0.2845  0.1285 -0.2369
 1546SOL     OW 4636   2.622   1.721   5.590  0.0179  0.1630 -0.2425
 1546SOL    HW1 4637   2.570   1.650   5.553 -1.0184  0.5015  0.5078
 1546SOL    HW2 4638   2.561   1.794   5.599  0.5744  0.5208  0.8325
 1547SOL     OW 4639   1.923   0.195   7.043 -0.3160  0.2453 -0.3306
 1547SOL    HW1 4640   1.828   0.206   7.053 -0.3432  0.2539 -0.5962
 1547SOL    HW2 4641   1.943   0.113   7.089 -0.2286  0.9887  0.9974
 1548SOL     OW 4642   3.939   4.396   6.042  0.1780  0.1803 -0.6952
 1548SOL    HW1 4643   3.886   4.338   6.097 -0.0839  2.1900  1.2871
 1548SOL    HW2 4644   4.024   4.353   6.036 -0.6394 -1.4675 -1.1773
 1549SOL     OW 4645   1.349   2.564   6.530 -0.9768  0.3215  0.0125
 1549SOL    HW1 4646   1.440   2.536   6.545 -0.7133  1.5125  0.7647
 1549SOL    HW2 4647   1.313   2.497   6.472 -0.2194 -1.2508  1.2946
 1550SOL     OW 4648   4.129   4.502   5.456  0.6865 -0.2683 -0.2232
 1550SOL    HW1 4649   4.182   4.434   5.415  1.3282 -0.5966  1.0839
 1550SOL    HW2 4650   4.057   4.455   5.498  0.2423  0.0250 -0.6385
 1551SOL     OW 4651   3.221   1.353   7.834  0.2546 -0.3039 -1.0335
 1551SOL    HW1 4652   3.194   1.289   7.768  0.2860 -1.2481 -0.1492
 1551SOL    HW2 4653   3.214   1.306   7.917 -3.6173  1.9527  0.1697
 1552SOL     OW 4654   0.099   4.945   6.574  0.5880  0.5358 -0.1129
 1552SOL    HW1 4655   0.141   4.967   6.491  1.8875 -0.7316  0.1648
 1552SOL    HW2 4656   0.140   5.003   6.638  0.0970  1.0230 -0.2351
 1553SOL     OW 4657   0.490   0.055   5.719  0.2520  0.3861 -0.8194
 1553SOL    HW1 4658   0.458   0.062   5.809  0.7800 -0.2647 -0.5684
 1553SOL    HW2 4659   0.579   0.022   5.728 -0.0153 -0.6328 -1.6028
 1554SOL     OW 4660   4.215   0.096   5.653  0.0879  0.0490  0.4560
 1554SOL    HW1 4661   4.189   0.081   5.744  0.4867  0.0128  0.5652
 1554SOL    HW2 4662   4.218   0.191   5.644  0.1648  0.0523  0.5154
 1555SOL     OW 4663   3.288   4.272   5.624  1.0184 -0.0180  0.0911
 1555SOL    HW1 4664   3.318   4.206   5.562  0.1129  0.3395 -0.7647
 1555SOL    HW2 4665   3.316   4.240   5.709 -0.3943 -2.1040 -0.1687
 1556SOL     OW 4666   2.073   1.578   9.309 -0.4211 -0.0319 -0.1763
 1556SOL    HW1 4667   2.042   1.668   9.321 -1.8893 -0.5048 -0.2559
 1556SOL    HW2 4668   2.086   1.545   9.398 -2.1580 -0.4766 -0.0567
 1557SOL     OW 4669   3.268   1.420   6.323  0.5890  0.4492 -0.3015
 1557SOL    HW1 4670   3.193   1.461   6.281  1.4282  1.3563 -0.9569
 1557SOL    HW2 4671   3.234   1.336   6.355 -0.6885  0.8267 -0.5941
 1558SOL     OW 4672   1.972   3.386   6.417  0.4200  0.1532 -0.3562
 1558SOL    HW1 4673   1.880   3.393   6.443  0.2892 -1.5629 -0.2564
 1558SOL    HW2 4674   2.001   3.476   6.407 -1.0374  0.7397  0.4518
 1559SOL     OW 4675   1.809   0.944   5.804  0.0909  0.2877 -0.3656
 1559SOL    HW1 4676   1.716   0.950   5.828 -0.3245 -2.7200 -0.8060
 1559SOL    HW2 4677   1.847   1.026   5.836 -2.4635  1.0941  0.9258
 1560SOL     OW 4678   4.408   1.311   8.894  0.2428 -0.0278  0.0106
 1560SOL    HW1 4679   4.379   1.402   8.894  0.7133  0.1252  0.3354
 1560SOL    HW2 4680   4.406   1.285   8.986 -0.0388 -0.3933 -0.0980
 1561SOL     OW 4681   4.581   2.013   6.951  0.3587 -0.5463  0.1017
 1561SOL    HW1 4682   4.486   2.002   6.957  0.5525 -1.7269  1.4840
 1561SOL    HW2 4683   4.592   2.087   6.891 -1.3036 -2.3543 -2.6839
 1562SOL     OW 4684   0.625   2.298   7.936 -0.5329  0.1086  0.4037
 1562SOL    HW1 4685   0.656   2.213   7.903  2.9211  1.1159  0.6695
 1562SOL    HW2 4686   0.630   2.357   7.860  1.8249  1.1063  1.2550
 1563SOL     OW 4687   2.305   1.847   5.318 -0.2666  0.0053 -0.2199
 1563SOL    HW1 4688   2.395   1.849   5.348 -0.1926 -1.0277 -0.3416
 1563SOL    HW2 4689   2.309   1.870   5.225 -0.0815 -0.4410 -0.3225
 1564SOL     OW 4690   1.724   4.407   8.783 -0.0742  0.0681  0.0405
 1564SOL    HW1 4691   1.790   4.355   8.737 -0.8503 -0.0143 -1.0160
 1564SOL    HW2 4692   1.673   4.343   8.832  0.5938  0.1304  0.8500
 1565SOL     OW 4693   1.489   2.199   4.901  0.0658  0.8243 -0.1046
 1565SOL    HW1 4694   1.418   2.230   4.845 -0.0597  1.1129  0.2131
 1565SOL    HW2 4695   1.473   2.240   4.986 -0.4728 -0.6153  0.5223
 1566SOL     OW 4696   1.169   1.321   5.439 -0.3979 -0.3879  0.7134
 1566SOL    HW1 4697   1.200   1.388   5.500 -0.2761  1.6322 -1.4565
 1566SOL    HW2 4698   1.096   1.279   5.485 -0.9203  1.7028  1.8931
 1567SOL     OW 4699   1.637   2.362   8.549 -0.3460  0.8021  0.2124
 1567SOL    HW1 4700   1.654   2.267   8.551  0.0538  0.7216 -2.7460
 1567SOL    HW2 4701   1.677   2.395   8.630  1.6319 -1.2473  0.1699
 1568SOL     OW 4702   2.548   1.905   6.209 -0.2318 -0.2030 -0.5256
 1568SOL    HW1 4703   2.494   1.953   6.271  1.4886  1.2438 -0.0530
 1568SOL    HW2 4704   2.551   1.961   6.131  1.5358  0.3664 -0.0900
 1569SOL     OW 4705   3.152   1.183   9.118 -0.0131  0.0269  0.4662
 1569SOL    HW1 4706   3.190   1.104   9.080  0.9186 -0.0883  1.6069
 1569SOL    HW2 4707   3.067   1.192   9.075  0.2082 -1.1490 -0.2424
 1570SOL     OW 4708   2.708   2.731   4.965  0.1756 -0.5546  0.6801
 1570SOL    HW1 4709   2.728   2.811   5.014 -0.4721  1.5183 -2.2057
 1570SOL    HW2 4710   2.612   2.729   4.960  0.2356 -0.3515 -0.9822
 1571SOL     OW 4711   3.650   4.481   5.592 -0.1920  0.1432 -0.2006
 1571SOL    HW1 4712   3.626   4.390   5.609 -3.7673  0.9544 -0.0675
 1571SOL    HW2 4713   3.657   4.521   5.679  1.5928  0.0366 -0.2480
 1572SOL     OW 4714   1.649   0.649   4.903 -0.0955 -0.1174 -0.4312
 1572SOL    HW1 4715   1.726   0.667   4.957 -0.7025  0.0244  0.4114
 1572SOL    HW2 4716   1.684   0.634   4.815  0.6442  4.7954 -1.2930
 1573SOL     OW 4717   1.977   4.982   7.245  0.6744  0.0967  0.0666
 1573SOL    HW1 4718   2.036   4.915   7.277  0.5445 -0.5470 -0.9865
 1573SOL    HW2 4719   1.919   5.001   7.319  1.7128  0.2195  0.8732
 1574SOL     OW 4720   2.756   0.602   5.967  0.6671  0.0024 -0.1945
 1574SOL    HW1 4721   2.728   0.516   5.934  1.4593 -0.9618  1.4830
 1574SOL    HW2 4722   2.766   0.656   5.889 -1.7753 -0.8254 -1.1612
 1575SOL     OW 4723   2.596   2.065   7.662 -0.8133 -0.2763 -0.4108
 1575SOL    HW1 4724   2.570   1.975   7.642 -0.7145 -0.2771 -0.5355
 1575SOL    HW2 4725   2.630   2.060   7.752  1.3597 -0.8195 -1.1955
 1576SOL     OW 4726   1.576   1.115   7.593 -0.3199 -0.0094 -0.2904
 1576SOL    HW1 4727   1.555   1.027   7.623 -0.6909 -0.1375 -0.9345
 1576SOL    HW2 4728   1.672   1.115   7.583 -0.2675 -0.1847  0.1816
 1577SOL     OW 4729   2.641   1.836   9.386 -0.6158  0.1661  0.0201
 1577SOL    HW1 4730   2.734   1.852   9.406 -0.6047  1.9990 -1.2394
 1577SOL    HW2 4731   2.639   1.825   9.291 -1.7573  0.6254 -0.0207
 1578SOL     OW 4732   2.265   3.929   5.622 -0.0556  0.7230 -0.4698
 1578SOL    HW1 4733   2.314   3.948   5.701 -1.0527 -1.9885  0.9315
 1578SOL    HW2 4734   2.323   3.956   5.550  1.1593  2.5789  1.1170
 1579SOL     OW 4735   1.268   3.789   6.345  0.0521  0.0082  0.5264
 1579SOL    HW1 4736   1.201   3.856   6.334 -0.4261 -0.4239  0.7278
 1579SOL    HW2 4737   1.219   3.708   6.360  0.6097 -0.4525 -0.0493
 1580SOL     OW 4738   1.527   1.078   5.796 -0.2873 -0.1752 -0.1689
 1580SOL    HW1 4739   1.535   1.142   5.867  0.0413 -0.7969  0.3736
 1580SOL    HW2 4740   1.435   1.080   5.771 -0.5755 -0.5133  0.8302
 1581SOL     OW 4741   3.192   1.795   8.179 -0.2504 -0.0060  0.3196
 1581SOL    HW1 4742   3.193   1.709   8.138 -1.0193  0.5589 -0.9319
 1581SOL    HW2 4743   3.208   1.856   8.107 -1.2766  0.9921  0.9036
 1582SOL     OW 4744   2.881   1.337   5.763  0.1433  0.0261  0.2953
 1582SOL    HW1 4745   2.830   1.413   5.735  0.4748  0.9888  2.1659
 1582SOL    HW2 4746   2.972   1.361   5.743  0.2805  0.2771  1.2033
 1583SOL     OW 4747   0.295   3.067   4.052  0.5369  0.3291 -0.1729
 1583SOL    HW1 4748   0.306   3.035   3.962  0.7750  0.0396 -0.0411
 1583SOL    HW2 4749   0.271   2.989   4.102  1.1603  0.3509  0.1585
 1584SOL     OW 4750   0.608   1.259   5.575  0.4889  0.1653 -0.5170
 1584SOL    HW1 4751   0.677   1.263   5.642  1.1085 -1.1862 -1.0339
 1584SOL    HW2 4752   0.530   1.231   5.623  0.6543  0.2802 -0.1771
 1585SOL     OW 4753   3.345   3.557   6.432  0.2558 -0.0085 -0.3349
 1585SOL    HW1 4754   3.394   3.475   6.426  0.5960  0.0893  0.8243
 1585SOL    HW2 4755   3.259   3.530   6.465 -0.1149 -0.0490 -1.3011
 1586SOL     OW 4756   0.512   3.556   8.294 -0.6039  0.5503  0.1455
 1586SOL    HW1 4757   0.519   3.462   8.281 -1.0713  0.6795 -1.2515
 1586SOL    HW2 4758   0.601   3.589   8.278 -0.2836  0.3010  1.3096
 1587SOL     OW 4759   1.170   4.932   6.047 -0.0691 -0.4934  0.1063
 1587SOL    HW1 4760   1.106   4.901   6.111  0.1814  1.8796  1.6517
 1587SOL    HW2 4761   1.118   4.987   5.987  0.3176  0.7740  0.8847
 1588SOL     OW 4762   2.199   2.507  10.028  0.3370 -0.0681 -0.3122
 1588SOL    HW1 4763   2.133   2.553  10.079 -0.2474 -1.4846  0.2557
 1588SOL    HW2 4764   2.151   2.467   9.956  0.2998 -2.0948  0.7551
 1589SOL     OW 4765   3.080   1.532   5.155  0.0782 -0.1080 -0.3783
 1589SOL    HW1 4766   3.037   1.599   5.208 -0.2288 -0.0736 -0.6675
 1589SOL    HW2 4767   3.010   1.469   5.135  0.5411 -0.9700  0.6089
 1590SOL     OW 4768   2.323   0.425   5.171 -0.2332  0.0198 -0.7006
 1590SOL    HW1 4769   2.414   0.413   5.197 -0.3779 -2.1100 -1.0269
 1590SOL    HW2 4770   2.326   0.491   5.102  1.2325 -1.0355 -1.6866
 1591SOL     OW 4771   1.957   1.696   8.441  0.2372  0.3925 -0.1308
 1591SOL    HW1 4772   1.948   1.635   8.367 -0.3614  0.9268 -0.5042
 1591SOL    HW2 4773   1.928   1.646   8.517 -0.3326  0.2402 -0.4485
 1592SOL     OW 4774   0.260   1.037   4.999  0.3786  0.2736  0.2257
 1592SOL    HW1 4775   0.300   0.989   4.927 -3.0645 -0.2441 -1.5934
 1592SOL    HW2 4776   0.252   0.973   5.069 -1.0867 -0.9686 -0.9776
 1593SOL     OW 4777   2.276   2.255   6.113  0.2920 -0.0949  1.1250
 1593SOL    HW1 4778   2.360   2.289   6.080 -0.7227  1.4931  0.0461
 1593SOL    HW2 4779   2.221   2.247   6.035 -1.4892  1.7053  2.1221
 1594SOL     OW 4780   1.728   0.514   9.646 -0.1497 -0.2005 -0.1788
 1594SOL    HW1 4781   1.809   0.564   9.661  0.9386 -2.2859  1.4386
 1594SOL    HW2 4782   1.742   0.469   9.563 -0.4734  0.8848 -0.8433
 1595SOL     OW 4783   0.882   0.537   6.976 -0.4282 -0.4650 -0.5053
 1595SOL    HW1 4784   0.851   0.554   7.065 -0.3583 -0.8589 -0.4027
 1595SOL    HW2 4785   0.972   0.506   6.989 -0.6809 -1.2809 -0.6567
 1596SOL     OW 4786   0.308   1.967   8.515 -0.5771  0.4328  0.3092
 1596SOL    HW1 4787   0.253   1.895   8.547  0.7936 -1.9805 -2.3566
 1596SOL    HW2 4788   0.394   1.927   8.501  0.2529  2.6111 -1.2975
 1597SOL     OW 4789   4.644   3.862   9.669 -0.4990 -0.1088  0.1102
 1597SOL    HW1 4790   4.659   3.879   9.576 -0.1816 -2.5705 -0.3531
 1597SOL    HW2 4791   4.727   3.884   9.711 -0.2765 -0.0533 -0.3542
 1598SOL     OW 4792   1.752   3.958   5.893  0.4237 -0.0746  0.5118
 1598SOL    HW1 4793   1.812   4.013   5.943 -1.6298  2.2784  0.5795
 1598SOL    HW2 4794   1.780   3.968   5.802  0.9375 -0.1159  0.6620
 1599SOL     OW 4795   1.193   4.435   6.046  0.6837 -0.1841  0.4181
 1599SOL    HW1 4796   1.208   4.351   6.002  2.7820  0.1346  0.4305
 1599SOL    HW2 4797   1.120   4.474   5.999 -0.7992 -2.2914  0.8394
 1600SOL     OW 4798   4.386   4.309   5.517 -0.9034 -0.0444 -0.3838
 1600SOL    HW1 4799   4.397   4.225   5.472 -0.8079  0.5702 -1.5499
 1600SOL    HW2 4800   4.416   4.292   5.606 -0.2003 -1.0661 -0.7903
 1601SOL     OW 4801   2.175   1.416   5.216 -0.6779  0.8553  0.5178
 1601SOL    HW1 4802   2.086   1.380   5.228 -1.0271  2.0004  1.4913
 1601SOL    HW2 4803   2.166   1.477   5.143 -0.2199 -0.4818 -0.7148
 1602SOL     OW 4804   0.302   0.722   8.314 -0.8025  0.8424  0.3410
 1602SOL    HW1 4805   0.315   0.680   8.229 -2.2555  1.8155 -0.4094
 1602SOL    HW2 4806   0.257   0.656   8.367  0.4118  0.1093  0.5053
 1603SOL     OW 4807   0.468   4.626   5.571  0.0303  0.1155 -0.5153
 1603SOL    HW1 4808   0.532   4.697   5.567 -0.9677  1.0011 -1.8039
 1603SOL    HW2 4809   0.501   4.560   5.511 -0.4143  0.7535 -1.5076
 1604SOL     OW 4810   2.775   2.848   4.605 -0.2521  0.3159 -0.3231
 1604SOL    HW1 4811   2.854   2.899   4.585  0.7381 -0.5812  1.1569
 1604SOL    HW2 4812   2.795   2.801   4.686 -1.8738 -0.8837 -0.5483
 1605SOL     OW 4813   0.541   1.360   6.007 -0.1716 -0.3119 -0.3815
 1605SOL    HW1 4814   0.581   1.389   6.089 -1.1379  2.8241 -0.8907
 1605SOL    HW2 4815   0.482   1.289   6.032  0.3321 -0.1199  1.4534
 1606SOL     OW 4816   4.017   3.463   5.774  0.7338 -0.4128  0.5312
 1606SOL    HW1 4817   4.005   3.483   5.681 -1.7534 -1.8934  0.4507
 1606SOL    HW2 4818   4.029   3.368   5.777 -1.1201 -0.6614  1.8003
 1607SOL     OW 4819   3.860   2.830   6.576 -0.5453  0.1670 -0.1053
 1607SOL    HW1 4820   3.856   2.738   6.603 -2.2925 -0.4101 -2.0555
 1607SOL    HW2 4821   3.941   2.835   6.525  0.4144  0.1552  1.3740
 1608SOL     OW 4822   1.614   3.970   9.255 -0.2398  0.9021  0.2567
 1608SOL    HW1 4823   1.544   3.980   9.190 -0.3506  1.0934  0.4058
 1608SOL    HW2 4824   1.669   4.047   9.243  1.0055 -0.1484 -1.1354
 1609SOL     OW 4825   2.473   0.835   7.165  1.0150  0.0066  0.1797
 1609SOL    HW1 4826   2.396   0.788   7.132 -0.2389  1.5170  0.8252
 1609SOL    HW2 4827   2.491   0.795   7.250 -2.2182  2.7092  2.4322
 1610SOL     OW 4828   4.456   2.316   7.036 -0.0834  0.5246 -0.5075
 1610SOL    HW1 4829   4.398   2.289   6.965 -1.6995  1.0055  0.5691
 1610SOL    HW2 4830   4.423   2.268   7.113  0.9950  0.7770  0.1297
 1611SOL     OW 4831   1.180   2.095   4.930 -0.2093 -0.1446 -0.5873
 1611SOL    HW1 4832   1.107   2.107   4.869 -1.5374  2.2339  1.2620
 1611SOL    HW2 4833   1.256   2.080   4.874 -1.7809 -0.7576 -2.6806
 1612SOL     OW 4834   0.363   4.999   8.063  1.1139  0.3856  0.0207
 1612SOL    HW1 4835   0.419   4.941   8.115 -0.2232  2.0815  3.6707
 1612SOL    HW2 4836   0.275   4.986   8.098 -0.1785  0.6598 -2.8640
 1613SOL     OW 4837   3.028   3.692   7.595  0.2081 -0.0164 -0.3948
 1613SOL    HW1 4838   3.097   3.681   7.530 -0.4443 -0.6134 -1.0149
 1613SOL    HW2 4839   3.067   3.746   7.663  0.9833  0.4397 -1.1808
 1614SOL     OW 4840   2.845   1.109   5.011  0.5607  0.2181  0.3821
 1614SOL    HW1 4841   2.934   1.084   5.036 -0.1042 -2.7758  0.1783
 1614SOL    HW2 4842   2.789   1.065   5.074 -0.8112  1.8195  0.3342
 1615SOL     OW 4843   1.587   4.235   5.513 -0.2595 -0.8059  0.4260
 1615SOL    HW1 4844   1.634   4.210   5.593 -0.0094 -1.1357  0.1797
 1615SOL    HW2 4845   1.647   4.213   5.442  0.2790  1.1601  0.2110
 1616SOL     OW 4846   0.539   3.533   5.771 -0.0733  0.1040  0.3304
 1616SOL    HW1 4847   0.594   3.456   5.789 -0.3951 -0.1819  0.1074
 1616SOL    HW2 4848   0.585   3.605   5.814 -0.8281 -0.5520  2.3445
 1617SOL     OW 4849   3.467   3.746   7.329  0.0517 -0.0627  0.1800
 1617SOL    HW1 4850   3.399   3.810   7.348 -1.8545 -1.8209 -0.4311
 1617SOL    HW2 4851   3.440   3.705   7.247  1.9104 -0.7826 -0.1403
 1618SOL     OW 4852   2.571   0.136   5.918  0.3789  0.2526 -0.2171
 1618SOL    HW1 4853   2.495   0.184   5.952  0.6692  1.6241 -1.3713
 1618SOL    HW2 4854   2.572   0.054   5.966 -1.8726  0.1801 -0.2005
 1619SOL     OW 4855   4.512   4.861   4.912  0.7704  0.1122  0.9515
 1619SOL    HW1 4856   4.469   4.946   4.902 -1.3717 -0.9193  0.8534
 1619SOL    HW2 4857   4.531   4.833   4.822 -1.8817 -1.0839  0.6885
 1620SOL     OW 4858   0.517   0.865   5.267  0.3577  0.3382  0.3480
 1620SOL    HW1 4859   0.499   0.957   5.286 -0.0691  0.7974 -1.9502
 1620SOL    HW2 4860   0.613   0.861   5.258  0.4393  0.3934  1.1219
 1621SOL     OW 4861   3.675   0.570   7.123 -0.6519 -0.5181 -0.5832
 1621SOL    HW1 4862   3.705   0.648   7.076 -0.8052 -0.5803 -0.7870
 1621SOL    HW2 4863   3.617   0.525   7.061  0.2582 -1.3491 -0.8616
 1622SOL     OW 4864   4.751   0.984   8.115  0.3751  0.5485  0.0157
 1622SOL    HW1 4865   4.750   0.911   8.054 -1.0762 -0.5580  1.2845
 1622SOL    HW2 4866   4.843   1.012   8.118  0.7454 -0.4340 -1.3857
 1623SOL     OW 4867   0.692   2.244   5.585  0.2351  0.1733 -0.1271
 1623SOL    HW1 4868   0.643   2.257   5.666  1.0142 -1.1846  0.5888
 1623SOL    HW2 4869   0.625   2.231   5.518 -0.4175  1.2893  0.2733
 1624SOL     OW 4870   1.951   0.115   5.409  0.1070 -0.7765  0.3802
 1624SOL    HW1 4871   1.972   0.024   5.431  1.3136 -0.6936 -0.3477
 1624SOL    HW2 4872   2.020   0.141   5.348 -1.4891 -0.0964 -1.2172
 1625SOL     OW 4873   4.036   0.283   7.107  0.3654 -0.2772 -0.0405
 1625SOL    HW1 4874   4.088   0.270   7.186  4.5104 -2.2453 -2.7740
 1625SOL    HW2 4875   3.999   0.197   7.088 -0.1423  0.0468 -0.5716
 1626SOL     OW 4876   1.121   2.430   8.366  0.4383 -0.3438  0.6312
 1626SOL    HW1 4877   1.039   2.426   8.315  0.3270  3.4435  0.2227
 1626SOL    HW2 4878   1.185   2.384   8.312 -0.7418 -0.5799 -0.6241
 1627SOL     OW 4879   0.940   4.550   7.230 -0.6345  0.7814  0.5846
 1627SOL    HW1 4880   1.011   4.570   7.292 -0.0328  0.1475  0.1143
 1627SOL    HW2 4881   0.861   4.551   7.283 -0.1454  0.3955  1.3426
 1628SOL     OW 4882   3.770   0.076   7.644 -1.0067 -0.2294 -0.3636
 1628SOL    HW1 4883   3.771   0.062   7.550 -1.9628  2.0576 -0.7952
 1628SOL    HW2 4884   3.843   0.136   7.661 -1.0405 -0.3603  0.2898
 1629SOL     OW 4885   0.061   3.683   6.314  0.0184  0.1686  0.0921
 1629SOL    HW1 4886   0.123   3.628   6.362 -0.5051 -0.5358 -0.0226
 1629SOL    HW2 4887   0.032   3.628   6.241 -1.6183  0.0431  0.7864
 1630SOL     OW 4888   1.053   2.359   5.226 -0.4765  0.5472  0.2190
 1630SOL    HW1 4889   1.124   2.416   5.195 -1.5451  0.4727 -2.6730
 1630SOL    HW2 4890   1.015   2.406   5.299 -1.1722  3.5897 -1.8940
 1631SOL     OW 4891   0.090   0.317   6.205 -0.1356  0.0200  0.1779
 1631SOL    HW1 4892   0.018   0.261   6.175  0.7761  0.1597 -2.5830
 1631SOL    HW2 4893   0.082   0.397   6.153  3.3942 -0.9724 -2.2937
 1632SOL     OW 4894   1.251   0.392   4.669 -0.3433 -0.1670 -0.2643
 1632SOL    HW1 4895   1.253   0.297   4.682 -2.2245 -0.1179  0.7123
 1632SOL    HW2 4896   1.158   0.413   4.659  0.0429  1.5763 -0.5742
 1633SOL     OW 4897   2.804   3.524   5.188  0.3143 -0.6087 -0.2043
 1633SOL    HW1 4898   2.840   3.484   5.109  1.9419  0.0548  0.1822
 1633SOL    HW2 4899   2.870   3.510   5.255  0.0101  0.9366  0.4501
 1634SOL     OW 4900   3.410   4.741   5.575 -0.1102  0.4065  0.0660
 1634SOL    HW1 4901   3.351   4.667   5.557  0.1999  0.4960 -1.4559
 1634SOL    HW2 4902   3.498   4.703   5.572 -0.0171  0.5216  1.0319
 1635SOL     OW 4903   2.274   3.943   5.182  0.7342  0.3459  0.2025
 1635SOL    HW1 4904   2.327   3.863   5.177 -0.3367 -0.4672  1.2321
 1635SOL    HW2 4905   2.323   4.001   5.241  1.5816  0.5270 -0.6537
 1636SOL     OW 4906   3.622   2.466   5.476  0.3701  0.2756 -0.0244
 1636SOL    HW1 4907   3.622   2.417   5.558  0.2309 -0.3615 -0.3968
 1636SOL    HW2 4908   3.625   2.557   5.502  1.5636  0.0513  0.6724
 1637SOL     OW 4909   2.204   3.438   6.980  0.0776 -0.9058  0.0092
 1637SOL    HW1 4910   2.210   3.455   6.886  0.2091  0.7282  0.2926
 1637SOL    HW2 4911   2.120   3.392   6.990 -0.3632 -0.3069 -0.8042
 1638SOL     OW 4912   0.723   1.916   5.560 -0.4080 -0.1294 -0.5333
 1638SOL    HW1 4913   0.812   1.911   5.525 -0.6247  1.1804 -1.3587
 1638SOL    HW2 4914   0.729   1.874   5.646  0.8459 -0.6909 -0.8658
 1639SOL     OW 4915   1.377   0.486   9.402  0.7024  0.4360 -0.3026
 1639SOL    HW1 4916   1.359   0.415   9.463 -2.1342  1.1940 -0.1565
 1639SOL    HW2 4917   1.408   0.558   9.457  1.6663 -0.0034 -0.2381
 1640SOL     OW 4918   3.732   1.493   7.197 -0.3731  0.3223 -0.4301
 1640SOL    HW1 4919   3.701   1.559   7.134  0.2577 -1.1591 -2.4225
 1640SOL    HW2 4920   3.710   1.409   7.156 -0.9221 -0.7350  1.8993
 1641SOL     OW 4921   1.859   2.818   6.174  0.1595 -0.4773 -0.3069
 1641SOL    HW1 4922   1.777   2.775   6.199  1.3614 -1.9355  1.4053
 1641SOL    HW2 4923   1.844   2.911   6.194 -0.6950 -0.8941  1.1891
 1642SOL     OW 4924   3.122   2.041   5.325 -0.3281 -0.2945  0.3212
 1642SOL    HW1 4925   3.199   2.034   5.382 -0.9029 -0.1769  1.1402
 1642SOL    HW2 4926   3.113   2.135   5.308  0.5925 -0.4415 -1.0370
 1643SOL     OW 4927   1.194   1.370   8.280 -0.8520 -0.1407  0.0903
 1643SOL    HW1 4928   1.215   1.289   8.325  0.4660  1.9752  3.7309
 1643SOL    HW2 4929   1.263   1.381   8.215 -1.7183 -2.3673 -1.3226
 1644SOL     OW 4930   2.526   0.590   6.661 -0.2180 -0.0670 -0.0348
 1644SOL    HW1 4931   2.445   0.640   6.654 -0.2336 -0.0438  0.2824
 1644SOL    HW2 4932   2.583   0.643   6.717  0.9714  1.1420 -2.2374
 1645SOL     OW 4933   0.661   0.210   5.482 -0.4708 -1.0707  0.0668
 1645SOL    HW1 4934   0.747   0.169   5.485 -0.1872 -0.7280 -2.1665
 1645SOL    HW2 4935   0.660   0.267   5.560  0.7428 -2.1325  0.8996
 1646SOL     OW 4936   1.014   3.549   7.730  0.2764  0.2683  0.5083
 1646SOL    HW1 4937   1.103   3.541   7.764  0.9009  1.0132 -0.8559
 1646SOL    HW2 4938   0.998   3.644   7.728 -0.5362  0.1424  0.7068
 1647SOL     OW 4939   2.304   4.937   8.572 -0.8643  1.0211  0.4835
 1647SOL    HW1 4940   2.284   4.974   8.487 -0.6078 -0.8459 -0.4467
 1647SOL    HW2 4941   2.399   4.933   8.575 -0.8849  0.3416  0.4949
 1648SOL     OW 4942   3.743   0.700   5.661 -0.1052  0.6578 -0.0805
 1648SOL    HW1 4943   3.674   0.638   5.687 -0.9678  2.1474  1.3714
 1648SOL    HW2 4944   3.808   0.694   5.732 -0.2862  1.5366  0.1670
 1649SOL     OW 4945   1.883   1.795   5.819  0.1487 -0.1654  0.0167
 1649SOL    HW1 4946   1.921   1.816   5.734 -1.2519  0.7152 -0.4210
 1649SOL    HW2 4947   1.793   1.828   5.814  0.4160  1.1309  2.3026
 1650SOL     OW 4948   4.636   3.780   5.779  0.2633  0.3261 -0.2151
 1650SOL    HW1 4949   4.576   3.712   5.750 -1.1656  1.1837  0.5995
 1650SOL    HW2 4950   4.664   3.753   5.866  0.1223  0.4890 -0.1161
 1651SOL     OW 4951   3.802   3.455   9.406  0.0302 -0.4801  0.0817
 1651SOL    HW1 4952   3.865   3.386   9.427 -0.2977 -1.6348 -2.2847
 1651SOL    HW2 4953   3.847   3.536   9.425  1.0872 -1.3156  1.3077
 1652SOL     OW 4954   4.494   4.824   8.539 -0.4951 -0.5966 -0.1212
 1652SOL    HW1 4955   4.461   4.815   8.450 -0.5222  0.9040 -0.2951
 1652SOL    HW2 4956   4.514   4.917   8.547  0.1094 -0.8239  1.2366
 1653SOL     OW 4957   3.429   2.242   5.966  0.9036  0.1920  0.5956
 1653SOL    HW1 4958   3.351   2.291   5.994 -1.0770 -1.4422 -1.5528
 1653SOL    HW2 4959   3.423   2.159   6.012  2.1464  0.5007  1.3635
 1654SOL     OW 4960   0.534   2.425   5.169  0.6175  0.3982  0.1869
 1654SOL    HW1 4961   0.495   2.489   5.110  1.3938  0.7491  0.0345
 1654SOL    HW2 4962   0.542   2.471   5.252  1.1894  0.5172  0.0733
 1655SOL     OW 4963   2.715   0.211   4.623 -0.4357  0.3576 -0.2501
 1655SOL    HW1 4964   2.756   0.164   4.696 -0.9750 -1.1958 -0.9026
 1655SOL    HW2 4965   2.631   0.166   4.610 -0.3999  0.6731 -1.7591
 1656SOL     OW 4966   1.372   4.140   7.582 -0.6756  0.4115 -0.1054
 1656SOL    HW1 4967   1.466   4.118   7.579 -0.8769 -0.4010 -1.0566
 1656SOL    HW2 4968   1.369   4.229   7.616  0.3502 -0.1039  1.4564
 1657SOL     OW 4969   3.514   0.346   8.701 -0.1414 -0.1431  0.2454
 1657SOL    HW1 4970   3.476   0.428   8.671  0.1715  0.4434  1.3987
 1657SOL    HW2 4971   3.571   0.371   8.774 -1.1887 -1.5575  1.6053
 1658SOL     OW 4972   2.618   0.822   5.600 -0.0674  0.2372  0.6082
 1658SOL    HW1 4973   2.705   0.783   5.604  0.1569  0.8098  1.9733
 1658SOL    HW2 4974   2.562   0.760   5.647  0.1373  1.1086  2.0667
 1659SOL     OW 4975   4.079   1.359   5.516 -0.6358 -0.2075  0.0254
 1659SOL    HW1 4976   4.069   1.431   5.578 -0.1824 -2.2330  2.6037
 1659SOL    HW2 4977   3.989   1.338   5.489 -0.7121  2.6323 -2.6272
 1660SOL     OW 4978   3.930   0.024   4.960  0.2846 -0.4262  0.0401
 1660SOL    HW1 4979   3.851  -0.020   4.930  1.9651 -2.4736 -1.6817
 1660SOL    HW2 4980   3.910   0.050   5.050 -1.7707 -2.3773  0.2427
 1661SOL     OW 4981   3.303   2.971   6.783 -0.2450 -0.6357  0.0766
 1661SOL    HW1 4982   3.258   2.944   6.863  2.0416 -0.9158  1.3377
 1661SOL    HW2 4983   3.383   3.015   6.813 -0.0516  0.6165 -2.0510
 1662SOL     OW 4984   4.920   2.836   5.835 -0.6494 -0.3240  0.3036
 1662SOL    HW1 4985   4.940   2.914   5.888 -1.5634  0.2528 -0.1856
 1662SOL    HW2 4986   4.913   2.765   5.899 -0.3310  0.0892  0.8087
 1663SOL     OW 4987   4.039   3.229   5.943  0.2534 -0.1416  0.3223
 1663SOL    HW1 4988   3.964   3.246   6.001 -0.6467 -1.8926 -0.2340
 1663SOL    HW2 4989   4.113   3.271   5.987 -0.9699  1.3690  1.0634
 1664SOL     OW 4990   0.966   2.795   5.095 -0.1404 -0.5878 -0.1024
 1664SOL    HW1 4991   0.904   2.740   5.046  1.4671 -0.2031 -2.7798
 1664SOL    HW2 4992   0.943   2.884   5.071 -2.7835  0.1780  4.2833
 1665SOL     OW 4993   1.580   0.804   6.450  0.1859 -0.0180  0.0726
 1665SOL    HW1 4994   1.564   0.871   6.516  0.4213  1.2851 -1.1449
 1665SOL    HW2 4995   1.654   0.838   6.399 -1.1907 -0.0314 -2.0439
 1666SOL     OW 4996   1.451   0.063   7.816  0.4807 -0.4329 -0.2908
 1666SOL    HW1 4997   1.546   0.071   7.821  0.4901 -0.9179  0.5222
 1666SOL    HW2 4998   1.427   0.104   7.732  1.3989 -0.3163 -0.5013
 1667SOL     OW 4999   2.167   2.835   5.796  0.1132 -0.5720  0.1616
 1667SOL    HW1 5000   2.262   2.838   5.785 -0.0546  0.4432 -1.2605
 1667SOL    HW2 5001   2.138   2.765   5.737  0.1295 -2.3991  2.2024
 1668SOL     OW 5002   1.924   2.682   5.918 -0.0597 -0.1285 -0.0493
 1668SOL    HW1 5003   2.000   2.729   5.883  1.0995 -1.4178  0.6525
 1668SOL    HW2 5004   1.909   2.722   6.003  0.6870 -0.7435  0.3843
 1669SOL     OW 5005   2.639   1.681   6.877 -0.1683  0.2122  0.3224
 1669SOL    HW1 5006   2.594   1.761   6.905  0.1505  0.7783 -0.7062
 1669SOL    HW2 5007   2.570   1.623   6.847 -0.3188  0.5509  0.0080
 1670SOL     OW 5008   4.228   2.062   5.183 -0.0418  0.2910  0.5050
 1670SOL    HW1 5009   4.268   2.056   5.270  0.8879  0.0035  0.0659
 1670SOL    HW2 5010   4.185   1.978   5.170  1.4008 -0.3771 -0.0650
 1671SOL     OW 5011   4.511   3.249   7.524 -0.6008  0.0222  0.1607
 1671SOL    HW1 5012   4.576   3.188   7.561 -0.0357 -0.0029 -0.8601
 1671SOL    HW2 5013   4.528   3.332   7.568  0.4124  0.1246 -0.4064
 1672SOL     OW 5014   2.276   1.871   7.864  0.2755 -0.6845  0.3718
 1672SOL    HW1 5015   2.332   1.891   7.939 -0.4153 -1.3139  1.0676
 1672SOL    HW2 5016   2.300   1.781   7.840  1.0076 -0.2395 -0.6343
 1673SOL     OW 5017   3.944   4.405   7.818 -0.1168  0.5057  0.8684
 1673SOL    HW1 5018   3.878   4.339   7.838 -1.1398  1.0505 -0.5931
 1673SOL    HW2 5019   3.903   4.488   7.839 -0.8421  1.0322 -2.1379
 1674SOL     OW 5020   0.329   4.876   5.424 -0.1790  0.2769 -0.4577
 1674SOL    HW1 5021   0.403   4.876   5.484 -0.0306  0.7195 -0.6343
 1674SOL    HW2 5022   0.367   4.855   5.339 -0.2523  0.5376 -0.5553
 1675SOL     OW 5023   3.577   1.063   9.438 -0.0344 -0.5213 -0.4075
 1675SOL    HW1 5024   3.516   1.127   9.401  0.6771  0.5705  0.2451
 1675SOL    HW2 5025   3.521   1.001   9.484 -0.6669  0.6408  0.4661
 1676SOL     OW 5026   1.916   4.527   5.397 -0.9182  0.2953 -0.3281
 1676SOL    HW1 5027   1.930   4.467   5.323 -2.3622 -1.8485  1.0492
 1676SOL    HW2 5028   1.995   4.516   5.451 -1.3674 -0.7581  0.1429
 1677SOL     OW 5029   4.030   3.674   6.045 -0.5847  0.2590  0.1611
 1677SOL    HW1 5030   4.067   3.588   6.028  2.0065  0.6118  3.1038
 1677SOL    HW2 5031   4.099   3.736   6.021 -1.2083  1.3131  0.9434
 1678SOL     OW 5032   0.640   2.975   9.881 -0.3642  0.1546 -0.0135
 1678SOL    HW1 5033   0.571   3.014   9.827 -0.2831 -1.9466 -1.7873
 1678SOL    HW2 5034   0.718   3.027   9.861 -0.3329 -0.5806 -2.0129
 1679SOL     OW 5035   4.210   2.066   7.463 -0.3473 -0.1251 -0.1564
 1679SOL    HW1 5036   4.169   2.114   7.536  3.6451  4.3577 -0.3991
 1679SOL    HW2 5037   4.167   1.980   7.464 -5.1891  1.9047  3.1711
 1680SOL     OW 5038   0.831   4.340   5.333  0.4317 -0.5089  0.4297
 1680SOL    HW1 5039   0.906   4.283   5.342  1.4215  0.2871 -1.9089
 1680SOL    HW2 5040   0.782   4.304   5.259 -1.0604 -0.5273  1.3828
 1681SOL     OW 5041   1.526   2.724   5.635  0.3957  0.2143 -0.3487
 1681SOL    HW1 5042   1.558   2.734   5.725  0.4736  2.7967 -0.5747
 1681SOL    HW2 5043   1.604   2.728   5.581  0.1368  2.9247 -0.6901
 1682SOL     OW 5044   2.699   0.691   6.438  0.1113 -0.3670  0.3466
 1682SOL    HW1 5045   2.715   0.627   6.369  0.9837 -1.5721  1.5941
 1682SOL    HW2 5046   2.750   0.659   6.512 -0.9979  0.7185  1.6441
 1683SOL     OW 5047   2.152   3.228   6.229 -0.8045 -0.7375  0.2657
 1683SOL    HW1 5048   2.081   3.197   6.172 -0.0132  0.6688 -1.5800
 1683SOL    HW2 5049   2.107   3.267   6.303 -1.9305 -1.0634 -0.2156
 1684SOL     OW 5050   2.499   4.485   7.468  0.0462 -0.2284  0.3290
 1684SOL    HW1 5051   2.467   4.506   7.556 -0.2277 -1.9528  0.6643
 1684SOL    HW2 5052   2.479   4.563   7.416 -0.6350  0.4538  1.5714
 1685SOL     OW 5053   2.500   2.534   5.950  0.3736  0.8763  0.1291
 1685SOL    HW1 5054   2.529   2.460   6.004  1.0314  2.2719  1.8016
 1685SOL    HW2 5055   2.432   2.576   6.003 -0.9229  0.7418 -1.3798
 1686SOL     OW 5056   0.632   1.932   5.033 -0.4554  0.7492  0.5586
 1686SOL    HW1 5057   0.595   2.008   5.078  0.3198  0.0311  2.5358
 1686SOL    HW2 5058   0.727   1.944   5.041 -0.2832  0.5982 -0.9697
 1687SOL     OW 5059   1.726   4.678   8.707  0.0569 -0.2596 -0.4352
 1687SOL    HW1 5060   1.680   4.690   8.624  0.0227 -0.8880 -0.5121
 1687SOL    HW2 5061   1.721   4.583   8.724  0.1809 -0.1559  0.2123
 1688SOL     OW 5062   3.217   1.965   7.159  0.1380  0.2420 -0.3579
 1688SOL    HW1 5063   3.164   1.887   7.142 -0.5183  0.7921 -0.8580
 1688SOL    HW2 5064   3.167   2.015   7.223  0.9507 -0.1305  0.5967
 1689SOL     OW 5065   0.532   0.622   6.702  0.1528 -0.8882 -0.6691
 1689SOL    HW1 5066   0.537   0.527   6.700 -0.4489 -0.9218 -0.6310
 1689SOL    HW2 5067   0.620   0.651   6.677  0.7610 -1.4532  0.7030
 1690SOL     OW 5068   3.714   0.948   5.551  0.2286 -0.1654  0.2722
 1690SOL    HW1 5069   3.723   0.864   5.596 -0.2197 -0.3404  0.0403
 1690SOL    HW2 5070   3.684   1.009   5.619  0.8120 -0.1270  0.5008
 1691SOL     OW 5071   1.422   4.461   4.842 -0.4955  0.8394  0.0319
 1691SOL    HW1 5072   1.481   4.387   4.861  0.4172  1.9098  1.5693
 1691SOL    HW2 5073   1.475   4.520   4.788 -0.4890  1.3038  0.5288
 1692SOL     OW 5074   1.921   0.066   6.174  0.0639 -0.1455 -0.1039
 1692SOL    HW1 5075   1.835   0.076   6.132 -0.8943  0.6306  1.9015
 1692SOL    HW2 5076   1.965   0.150   6.160  1.1704 -1.0296 -2.4019
 1693SOL     OW 5077   3.632   3.434   8.508 -0.2959  0.2138 -0.7546
 1693SOL    HW1 5078   3.547   3.478   8.513 -0.6684 -0.3818 -1.5774
 1693SOL    HW2 5079   3.613   3.348   8.472  0.3765 -0.8197  1.2147
 1694SOL     OW 5080   3.753   3.557   5.986 -0.2702  0.1963  0.5480
 1694SOL    HW1 5081   3.691   3.618   5.946  0.9016 -0.5763 -2.7637
 1694SOL    HW2 5082   3.838   3.582   5.952  0.5651 -1.7908  1.0082
 1695SOL     OW 5083   0.782   2.492   7.133  0.3331 -0.7019  0.1368
 1695SOL    HW1 5084   0.701   2.493   7.082 -0.0894 -0.8192  0.8028
 1695SOL    HW2 5085   0.794   2.401   7.158  1.1719 -0.8472 -0.7412
 1696SOL     OW 5086   3.319   0.954   5.362  0.2646 -0.0102 -0.3565
 1696SOL    HW1 5087   3.388   1.009   5.324 -0.6069  0.0246 -1.9898
 1696SOL    HW2 5088   3.259   1.017   5.404  1.4374 -0.0779  1.5164
 1697SOL     OW 5089   4.154   3.447   7.672  0.3938 -0.4596 -0.2862
 1697SOL    HW1 5090   4.143   3.352   7.669 -2.4384 -0.3606  1.9744
 1697SOL    HW2 5091   4.126   3.472   7.761  1.7682  2.4452 -0.5213
 1698SOL     OW 5092   1.306   0.275   5.689 -0.6223  0.0490 -0.3711
 1698SOL    HW1 5093   1.336   0.365   5.681  0.6289 -0.3277 -0.0010
 1698SOL    HW2 5094   1.301   0.259   5.783  0.1600 -0.5843 -0.4279
 1699SOL     OW 5095   2.423   4.867   7.418  0.4245 -0.3552  0.4712
 1699SOL    HW1 5096   2.438   4.882   7.325  0.0510  1.2368  0.6365
 1699SOL    HW2 5097   2.466   4.941   7.461 -0.8614 -0.1454  1.4500
 1700SOL     OW 5098   1.329   1.906   7.423  0.6744  0.1114  0.4950
 1700SOL    HW1 5099   1.423   1.926   7.427  0.4114  2.6324 -2.3941
 1700SOL    HW2 5100   1.287   1.983   7.461 -0.2634 -0.1230 -0.0443
 1701SOL     OW 5101   0.334   0.985   6.490 -0.6476  0.1743 -0.0598
 1701SOL    HW1 5102   0.391   0.975   6.566  0.5071  2.2855 -0.5737
 1701SOL    HW2 5103   0.348   0.906   6.438 -1.8148 -1.5335  2.0804
 1702SOL     OW 5104   0.413   1.822   5.947  0.0532  0.0452 -0.3072
 1702SOL    HW1 5105   0.444   1.820   5.857 -0.7232 -1.8878 -0.5795
 1702SOL    HW2 5106   0.335   1.765   5.947  0.0981 -0.0830  1.5913
 1703SOL     OW 5107   2.376   1.887   5.076  0.4467 -0.0814 -0.6314
 1703SOL    HW1 5108   2.384   1.793   5.064 -1.5603 -0.0260 -3.1523
 1703SOL    HW2 5109   2.423   1.925   5.002  0.4744  0.8782 -0.1340
 1704SOL     OW 5110   3.884   2.794   7.702 -0.2731 -0.4266 -0.3375
 1704SOL    HW1 5111   3.976   2.778   7.726 -0.2072 -0.3866 -0.5617
 1704SOL    HW2 5112   3.887   2.875   7.650 -0.5168 -0.0626  0.2004
 1705SOL     OW 5113   3.214   0.817   9.842  0.0254  0.1214  0.5704
 1705SOL    HW1 5114   3.269   0.773   9.777 -0.1777  0.4433  0.1741
 1705SOL    HW2 5115   3.259   0.803   9.925  1.0103  0.8404  0.1868
 1706SOL     OW 5116   3.620   3.090   6.108  0.5877 -0.5822  0.3561
 1706SOL    HW1 5117   3.525   3.101   6.116  0.6995  0.9402 -0.1568
 1706SOL    HW2 5118   3.640   3.016   6.166 -0.9064 -0.9623  0.4361
 1707SOL     OW 5119   4.834   0.531   5.104  0.0797  0.3508 -0.1941
 1707SOL    HW1 5120   4.779   0.609   5.115  1.2047  1.0088  0.9476
 1707SOL    HW2 5121   4.844   0.496   5.192  1.0403 -0.0705 -0.4599
 1708SOL     OW 5122   1.111   3.544   6.415 -0.3560  0.4424  0.1232
 1708SOL    HW1 5123   1.165   3.497   6.351 -2.4994 -1.2799 -0.5365
 1708SOL    HW2 5124   1.130   3.501   6.498  0.0714  0.5823  0.1045
 1709SOL     OW 5125   0.833   2.709   6.018 -0.0397  0.6696 -0.2232
 1709SOL    HW1 5126   0.798   2.623   6.040 -0.0361  1.0179  1.2448
 1709SOL    HW2 5127   0.806   2.766   6.090  5.8095  0.4110  2.8037
 1710SOL     OW 5128   0.265   1.737   6.194  0.7029  0.1702 -0.2400
 1710SOL    HW1 5129   0.306   1.651   6.203  0.3827 -0.1582 -1.6374
 1710SOL    HW2 5130   0.195   1.723   6.130 -0.8313  0.9757  1.1997
 1711SOL     OW 5131   0.056   0.018   9.650  0.6002 -0.9467  0.0792
 1711SOL    HW1 5132  -0.029   0.022   9.605  0.0388 -2.7537  0.8978
 1711SOL    HW2 5133   0.117   0.056   9.587 -0.7899  0.4659 -0.5109
 1712SOL     OW 5134   1.739   2.179   5.006  0.5128 -0.3919  0.0562
 1712SOL    HW1 5135   1.742   2.099   5.059 -2.4474 -1.3385 -0.9792
 1712SOL    HW2 5136   1.648   2.184   4.976  0.3942  3.6979  0.4978
 1713SOL     OW 5137   3.077   1.794   4.713  0.1645  0.0933 -0.2775
 1713SOL    HW1 5138   3.067   1.721   4.775 -1.4299  0.4506 -0.0589
 1713SOL    HW2 5139   2.994   1.794   4.664  0.7192  0.8907 -1.2416
 1714SOL     OW 5140   2.884   1.351   5.018  0.1264 -0.4058  0.0083
 1714SOL    HW1 5141   2.796   1.386   5.031 -0.2053 -0.5569 -1.6328
 1714SOL    HW2 5142   2.876   1.257   5.035 -0.6442 -0.8662 -2.4756
 1715SOL     OW 5143   1.238   2.132   5.428  0.1566 -0.3879 -0.1682
 1715SOL    HW1 5144   1.207   2.212   5.470 -0.8210 -1.0699  0.4481
 1715SOL    HW2 5145   1.318   2.109   5.476  1.4585  1.1625 -1.5064
 1716SOL     OW 5146   0.867   4.818   5.912  0.1265 -0.0007 -0.1034
 1716SOL    HW1 5147   0.772   4.816   5.921  0.2133 -1.1048  0.7027
 1716SOL    HW2 5148   0.889   4.911   5.915 -0.8222  0.2132  0.7871
 1717SOL     OW 5149   2.763   2.974   5.494 -0.1372 -0.1952  0.4109
 1717SOL    HW1 5150   2.851   2.975   5.534 -0.4632 -2.7911  1.3791
 1717SOL    HW2 5151   2.706   2.942   5.564 -1.6285  0.1189 -0.6303
 1718SOL     OW 5152   4.899   4.110   6.358 -0.3924  0.2598 -0.2860
 1718SOL    HW1 5153   4.827   4.064   6.315 -0.1063 -0.5387  0.0758
 1718SOL    HW2 5154   4.881   4.203   6.341 -1.5251  0.0779 -0.1728
 1719SOL     OW 5155   4.737   1.307   5.496  0.4288  0.1555  0.0071
 1719SOL    HW1 5156   4.707   1.227   5.453  0.5440  1.1185 -1.9605
 1719SOL    HW2 5157   4.734   1.286   5.590  2.1927 -2.7764 -0.4572
 1720SOL     OW 5158   0.296   4.004   8.169  0.3616 -0.8704  0.2668
 1720SOL    HW1 5159   0.212   3.968   8.199  0.8730 -1.7043  0.7116
 1720SOL    HW2 5160   0.286   4.010   8.074 -0.4132 -0.4060  0.3658
 1721SOL     OW 5161   1.805   2.357   5.247  0.6002  0.7479 -0.3543
 1721SOL    HW1 5162   1.768   2.350   5.159  1.9563  2.5531 -1.1147
 1721SOL    HW2 5163   1.729   2.349   5.305 -0.2249 -1.3600 -1.5841
 1722SOL     OW 5164   0.646   1.570   5.514 -0.4034 -0.0722  0.1445
 1722SOL    HW1 5165   0.675   1.495   5.566  2.8767  1.3418  0.5907
 1722SOL    HW2 5166   0.674   1.550   5.425  1.3037  0.9007  0.4152
 1723SOL     OW 5167   2.305   4.664   8.060  0.1347  0.0028  0.2359
 1723SOL    HW1 5168   2.269   4.619   7.983 -1.7061  1.9122 -0.1124
 1723SOL    HW2 5169   2.277   4.755   8.049  2.2310  0.8970  1.7738
 1724SOL     OW 5170   1.076   4.586   6.297  0.0853  0.3894  0.4700
 1724SOL    HW1 5171   1.094   4.519   6.231  0.4314  0.2951  0.6572
 1724SOL    HW2 5172   1.123   4.557   6.375  0.8123  1.1932  0.3507
 1725SOL     OW 5173   0.805   3.194   6.639 -0.0015 -0.4301  0.5641
 1725SOL    HW1 5174   0.740   3.162   6.703 -0.4588  1.2503  0.9975
 1725SOL    HW2 5175   0.753   3.235   6.571  0.4318 -3.0285 -1.4824
 1726SOL     OW 5176   3.337   1.015   6.585  0.2102  0.3315  0.1293
 1726SOL    HW1 5177   3.406   1.038   6.523  1.9150  0.5489  2.0138
 1726SOL    HW2 5178   3.303   1.100   6.615  0.5739  0.2678  0.7359
 1727SOL     OW 5179   3.750   4.396   5.101 -0.0291 -0.4237  0.3357
 1727SOL    HW1 5180   3.842   4.418   5.087 -0.3151  0.9217  0.4301
 1727SOL    HW2 5181   3.746   4.301   5.089  0.3543 -0.0737 -5.6892
 1728SOL     OW 5182   3.321   2.088   6.515 -0.1007 -0.5441  0.3491
 1728SOL    HW1 5183   3.245   2.106   6.570 -0.3545 -2.0088  0.5343
 1728SOL    HW2 5184   3.384   2.157   6.536 -0.4739 -0.6557  1.9629
 1729SOL     OW 5185   2.429   2.620   4.982 -0.3255  0.1685  0.4367
 1729SOL    HW1 5186   2.337   2.596   4.985 -0.3146  0.1453  0.5767
 1729SOL    HW2 5187   2.428   2.716   4.981 -0.3760  0.1710 -0.3329
 1730SOL     OW 5188   2.826   3.132   7.011  0.2427 -0.0826 -0.5159
 1730SOL    HW1 5189   2.828   3.059   6.949  2.4103 -1.0183  0.5331
 1730SOL    HW2 5190   2.752   3.113   7.069  0.4900 -1.2044 -0.5516
 1731SOL     OW 5191   3.163   4.994   9.025 -0.1290  0.8979 -0.5308
 1731SOL    HW1 5192   3.257   5.006   9.014  0.3066  0.9873  2.3692
 1731SOL    HW2 5193   3.155   4.924   9.089 -2.1019  0.2842 -1.3626
 1732SOL     OW 5194   3.913   4.699   5.337  0.4201 -0.2118 -0.2951
 1732SOL    HW1 5195   3.968   4.768   5.374 -2.3332  0.7520  2.4493
 1732SOL    HW2 5196   3.957   4.674   5.256  3.8522  1.6792  0.7618
 1733SOL     OW 5197   0.836   1.292   7.524 -0.0110  0.4112  0.8008
 1733SOL    HW1 5198   0.915   1.339   7.499  1.8243 -2.4995  0.6878
 1733SOL    HW2 5199   0.790   1.277   7.442 -0.4043  1.5739  0.7911
 1734SOL     OW 5200   2.884   3.835   5.535  0.4826 -0.2769 -0.4610
 1734SOL    HW1 5201   2.856   3.891   5.608 -2.8101  0.3917 -2.0579
 1734SOL    HW2 5202   2.965   3.794   5.566 -0.5455  0.2507  3.3820
 1735SOL     OW 5203   2.059   1.251   8.082  0.6870 -0.0389  0.0011
 1735SOL    HW1 5204   1.973   1.212   8.097  1.5374 -1.7666  0.6269
 1735SOL    HW2 5205   2.068   1.251   7.987  0.6490 -1.4093 -0.0256
 1736SOL     OW 5206   1.961   4.108   6.707  0.3659  0.0036  0.5409
 1736SOL    HW1 5207   1.866   4.110   6.716  0.4169  1.6285  1.0686
 1736SOL    HW2 5208   1.978   4.037   6.645 -1.1204 -0.8439  1.0496
 1737SOL     OW 5209   3.495   0.316   9.349 -0.9528 -0.5611  0.2118
 1737SOL    HW1 5210   3.489   0.223   9.327  2.9361 -0.8160 -0.5004
 1737SOL    HW2 5211   3.564   0.320   9.415  0.0153  1.9129 -0.8329
 1738SOL     OW 5212   0.322   0.175   6.975 -0.8156 -0.1115 -0.1261
 1738SOL    HW1 5213   0.351   0.199   6.887  2.4060 -0.9811  0.5326
 1738SOL    HW2 5214   0.303   0.082   6.969 -0.0941 -0.2880  0.1543
 1739SOL     OW 5215   2.307   2.268   7.433 -0.8015  0.2918 -0.0626
 1739SOL    HW1 5216   2.341   2.309   7.512 -1.4268  0.8215 -0.0697
 1739SOL    HW2 5217   2.253   2.196   7.465  0.2393 -0.5189 -0.0493
 1740SOL     OW 5218   1.468   4.687   9.389 -0.0246 -0.2695  0.5015
 1740SOL    HW1 5219   1.393   4.633   9.364 -0.0106 -0.2028  0.3161
 1740SOL    HW2 5220   1.434   4.745   9.458 -1.1671  2.3011 -1.9962
 1741SOL     OW 5221   2.825   2.930   6.855  0.0152 -0.1268  0.5556
 1741SOL    HW1 5222   2.740   2.896   6.882 -0.6719  1.5372  0.6029
 1741SOL    HW2 5223   2.808   2.979   6.775  0.8168  0.6704  0.8516
 1742SOL     OW 5224   2.779   4.126   8.752 -0.1645  0.8000 -0.4906
 1742SOL    HW1 5225   2.690   4.147   8.722 -0.2872  0.6732 -0.2154
 1742SOL    HW2 5226   2.772   4.122   8.847  0.1496  0.8424 -0.4675
 1743SOL     OW 5227   0.204   3.290   7.469 -0.1272  0.5574 -0.3318
 1743SOL    HW1 5228   0.293   3.326   7.465 -0.4572  1.4555  0.1175
 1743SOL    HW2 5229   0.153   3.348   7.411 -0.9414  1.6738  1.4218
 1744SOL     OW 5230   3.047   0.215   6.976 -0.3302  0.2524 -0.3161
 1744SOL    HW1 5231   3.115   0.237   7.040  0.5681  3.6823 -2.1723
 1744SOL    HW2 5232   2.965   0.233   7.021  0.1813  0.3517  0.6008
 1745SOL     OW 5233   2.998   2.068   4.819 -0.6579  0.3243  0.1540
 1745SOL    HW1 5234   3.083   2.036   4.789 -0.2469  0.6816  0.9020
 1745SOL    HW2 5235   2.985   2.151   4.772 -0.6138  0.2514  0.0126
 1746SOL     OW 5236   4.212   1.437   9.235 -0.2111  0.1607  0.0088
 1746SOL    HW1 5237   4.119   1.455   9.227 -0.1076  1.0793  0.7637
 1746SOL    HW2 5238   4.254   1.523   9.229  0.4887 -0.1017  0.9448
 1747SOL     OW 5239   2.429   4.302   8.350 -0.2932  0.1022 -0.1678
 1747SOL    HW1 5240   2.350   4.257   8.380 -1.0657  1.7146  0.3937
 1747SOL    HW2 5241   2.398   4.388   8.322  0.4395 -0.9167 -5.0808
 1748SOL     OW 5242   3.704   4.709   7.261  0.6127  0.8820  0.1007
 1748SOL    HW1 5243   3.736   4.624   7.230 -1.1890 -0.1172  0.8225
 1748SOL    HW2 5244   3.697   4.699   7.356 -1.0010  1.3005  0.0544
 1749SOL     OW 5245   0.752   2.022   9.459 -0.8611  0.3389 -0.2038
 1749SOL    HW1 5246   0.694   2.061   9.393  0.6379 -0.5248 -2.1131
 1749SOL    HW2 5247   0.837   2.016   9.416  0.2258 -0.1641  1.8745
 1750SOL     OW 5248   4.553   2.266   7.567  0.2142 -0.1142 -0.0627
 1750SOL    HW1 5249   4.545   2.308   7.481 -0.9280 -0.3987 -0.1139
 1750SOL    HW2 5250   4.581   2.176   7.546  1.5593  0.2745 -0.0196
 1751SOL     OW 5251   0.769   1.843   7.520 -0.1624  0.4253 -0.4660
 1751SOL    HW1 5252   0.780   1.895   7.441 -0.3677 -1.7775 -2.0601
 1751SOL    HW2 5253   0.821   1.764   7.504 -3.2950 -1.9001 -0.2410
 1752SOL     OW 5254   1.716   4.660   9.233  0.5885 -0.3395  0.0515
 1752SOL    HW1 5255   1.709   4.607   9.153 -0.0680 -0.2228  0.0324
 1752SOL    HW2 5256   1.633   4.647   9.278 -0.8255  2.9170 -1.3280
 1753SOL     OW 5257   3.583   2.573   8.952  0.3732  0.5166 -0.2170
 1753SOL    HW1 5258   3.555   2.539   9.036 -0.4301  0.8491 -0.3436
 1753SOL    HW2 5259   3.536   2.656   8.943  3.0070  2.2133  0.5388
 1754SOL     OW 5260   1.160   2.282   7.897  0.6448 -0.4869 -0.6869
 1754SOL    HW1 5261   1.238   2.308   7.945  0.2934 -0.8281  0.0886
 1754SOL    HW2 5262   1.142   2.355   7.838  0.8477  0.1281 -0.0058
 1755SOL     OW 5263   0.545   2.371   9.309 -0.1153  0.1892 -0.7042
 1755SOL    HW1 5264   0.620   2.315   9.289  1.0567  1.8198 -1.0762
 1755SOL    HW2 5265   0.469   2.313   9.300  1.1480 -1.9755  1.4193
 1756SOL     OW 5266   2.753   1.745   9.961  0.1190 -0.4032  0.2260
 1756SOL    HW1 5267   2.681   1.806   9.971  0.9470  0.3459  2.2443
 1756SOL    HW2 5268   2.711   1.660   9.946 -1.2199 -0.0149  1.5265
 1757SOL     OW 5269   3.519   1.416   9.970 -0.0805 -0.0638  0.2050
 1757SOL    HW1 5270   3.558   1.431   9.884  1.2634 -1.4424  0.5180
 1757SOL    HW2 5271   3.568   1.473  10.029 -1.3467  1.2712  0.0274
 1758SOL     OW 5272   1.847   2.101  10.282  0.0488  0.2298 -0.3591
 1758SOL    HW1 5273   1.805   2.187  10.286  0.7864  0.6529 -1.4102
 1758SOL    HW2 5274   1.780   2.041  10.314 -0.1882  1.2816  1.2667
 1759SOL     OW 5275   2.286   4.234   6.501 -0.0581 -0.1569  0.2702
 1759SOL    HW1 5276   2.288   4.207   6.409 -1.6892 -1.0049  0.4277
 1759SOL    HW2 5277   2.194   4.255   6.517  0.4305  1.3188  1.3690
 1760SOL     OW 5278   1.463   1.881   9.224  0.4238  0.6410 -0.0663
 1760SOL    HW1 5279   1.405   1.927   9.284 -0.8202 -0.5084 -0.3504
 1760SOL    HW2 5280   1.430   1.901   9.137 -2.5005 -3.4928 -0.1852
 1761SOL     OW 5281   2.391   1.439   6.304  0.3956 -0.2946 -0.3155
 1761SOL    HW1 5282   2.328   1.498   6.343  0.4386  0.1097 -0.8429
 1761SOL    HW2 5283   2.442   1.494   6.245  0.5644 -0.8179 -0.6669
 1762SOL     OW 5284   2.755   3.229   9.160  0.0537  0.7946 -0.2976
 1762SOL    HW1 5285   2.768   3.201   9.250  1.5510 -0.9557 -0.9780
 1762SOL    HW2 5286   2.795   3.159   9.107  0.4604  2.4033 -2.2646
 1763SOL     OW 5287   1.486   2.433   9.146  0.0193 -0.0157  0.2277
 1763SOL    HW1 5288   1.488   2.386   9.063 -0.8058  2.1363 -1.0572
 1763SOL    HW2 5289   1.568   2.408   9.189  0.7390 -0.7048 -1.4707
 1764SOL     OW 5290   0.992   3.861   5.789 -0.4644 -0.0126 -0.5487
 1764SOL    HW1 5291   0.900   3.855   5.762 -0.5205 -1.4914 -0.0875
 1764SOL    HW2 5292   1.023   3.771   5.788  1.5569  0.6292 -2.5645
 1765SOL     OW 5293   1.792   1.896   8.004 -1.4820 -0.9525  0.6456
 1765SOL    HW1 5294   1.856   1.952   8.049 -0.7151 -1.1811 -0.1414
 1765SOL    HW2 5295   1.845   1.831   7.958 -2.3558 -2.3612  1.5416
 1766SOL     OW 5296   1.631   3.486   7.457 -0.1066  0.2352 -0.4069
 1766SOL    HW1 5297   1.595   3.539   7.386 -2.4662  0.5913  0.9645
 1766SOL    HW2 5298   1.582   3.404   7.453 -0.4546  0.3629  0.9738
 1767SOL     OW 5299   4.512   4.837   6.945  0.7228 -0.1087 -0.5317
 1767SOL    HW1 5300   4.528   4.745   6.924  1.9783  0.0349 -0.3013
 1767SOL    HW2 5301   4.476   4.875   6.865 -1.8801 -1.2350 -0.0146
 1768SOL     OW 5302   3.395   3.468   6.796 -0.0164  0.7911 -0.9891
 1768SOL    HW1 5303   3.374   3.422   6.715  0.1890 -1.3112  0.0878
 1768SOL    HW2 5304   3.489   3.481   6.793  0.0120  0.5766 -1.0187
 1769SOL     OW 5305   2.024   2.280   8.256 -0.0270  0.6115 -0.7234
 1769SOL    HW1 5306   2.093   2.311   8.315  1.6017 -0.0059 -2.2254
 1769SOL    HW2 5307   2.044   2.322   8.172 -1.0128 -0.2261 -1.3961
 1770SOL     OW 5308   0.064   3.019   9.353  0.0081  0.2203  0.0130
 1770SOL    HW1 5309   0.056   2.956   9.281  0.3056  0.6242 -0.3769
 1770SOL    HW2 5310  -0.007   3.081   9.337  0.3239  0.5389 -0.1659
 1771SOL     OW 5311   3.980   3.826   6.769  0.6286  0.0844  0.0240
 1771SOL    HW1 5312   3.903   3.835   6.712  1.9725 -0.2686 -1.9616
 1771SOL    HW2 5313   3.976   3.736   6.801 -1.2966  0.9029  2.3604
 1772SOL     OW 5314   2.980   2.651   9.757  0.5855  0.4230 -0.2241
 1772SOL    HW1 5315   2.949   2.739   9.775  0.8423  0.2031  1.4861
 1772SOL    HW2 5316   2.932   2.595   9.818 -0.9248 -0.9263 -2.4744
 1773SOL     OW 5317   0.544   0.572   8.401 -0.3688 -0.3414 -0.3435
 1773SOL    HW1 5318   0.482   0.645   8.396 -1.2977 -1.0642  0.2581
 1773SOL    HW2 5319   0.513   0.510   8.335 -1.1778 -1.3515  0.9427
 1774SOL     OW 5320   1.258   3.128   8.866 -0.1324  0.1296  0.0571
 1774SOL    HW1 5321   1.232   3.045   8.907 -3.0418  0.8572 -0.0850
 1774SOL    HW2 5322   1.310   3.172   8.932  2.0322 -2.0217 -0.0935
 1775SOL     OW 5323   0.984   2.038  10.375 -0.3450 -0.5913 -0.2667
 1775SOL    HW1 5324   0.904   1.984  10.371  0.2519 -1.4456 -1.2010
 1775SOL    HW2 5325   1.036   2.008  10.300  0.2254  0.9660 -0.5226
 1776SOL     OW 5326   2.407   0.542   5.916  0.5348  0.2373 -0.4160
 1776SOL    HW1 5327   2.328   0.489   5.909  2.0454 -2.0102 -1.7278
 1776SOL    HW2 5328   2.442   0.546   5.827  4.1184 -2.6269  0.6179
 1777SOL     OW 5329   3.508   2.007   9.276  0.2609  0.1105 -0.0515
 1777SOL    HW1 5330   3.422   2.031   9.311 -0.2078 -0.0983 -1.0362
 1777SOL    HW2 5331   3.510   2.046   9.189  0.5586 -1.1457 -0.6282
 1778SOL     OW 5332   2.480   2.755   8.254 -0.3760 -0.3114  0.1913
 1778SOL    HW1 5333   2.486   2.664   8.222 -1.8409 -1.1611  2.1754
 1778SOL    HW2 5334   2.434   2.748   8.337  0.0253  2.2262  0.6847
 1779SOL     OW 5335   4.047   3.327   4.666  0.2602  0.1126 -0.5826
 1779SOL    HW1 5336   3.989   3.290   4.733 -0.1527  0.1706 -0.9046
 1779SOL    HW2 5337   4.127   3.350   4.714 -0.7238  1.9331  0.2545
 1780SOL     OW 5338   1.331   0.180   7.267  0.1420 -0.1533 -0.8291
 1780SOL    HW1 5339   1.281   0.100   7.283 -0.6567  0.1939 -1.5327
 1780SOL    HW2 5340   1.339   0.185   7.172 -0.8818  1.2246 -0.8697
 1781SOL     OW 5341   4.390   3.436   8.766 -0.7331  0.3462 -0.6566
 1781SOL    HW1 5342   4.358   3.352   8.800  0.6543 -0.5326 -1.4371
 1781SOL    HW2 5343   4.482   3.439   8.793 -0.0460  0.3841 -2.8399
 1782SOL     OW 5344   1.893   3.556   8.174  0.8122 -0.2966 -0.2480
 1782SOL    HW1 5345   1.967   3.617   8.175 -1.7829  3.1521 -1.6332
 1782SOL    HW2 5346   1.881   3.532   8.265 -0.4394  4.6422  1.1696
 1783SOL     OW 5347   1.504   1.414   6.818 -0.2530 -0.0734 -0.0586
 1783SOL    HW1 5348   1.557   1.494   6.816  2.3233 -1.4936  2.8972
 1783SOL    HW2 5349   1.562   1.346   6.785 -1.7170 -1.0975 -0.6253
 1784SOL     OW 5350   4.872   3.281   9.356  0.1135 -0.0512 -0.2630
 1784SOL    HW1 5351   4.788   3.268   9.400  1.2180  0.3705  2.1458
 1784SOL    HW2 5352   4.921   3.339   9.415  2.3784 -0.9055 -1.2103
 1785SOL     OW 5353   0.846   4.814   8.956  0.2035 -0.4235  0.5096
 1785SOL    HW1 5354   0.803   4.728   8.954 -2.4763  0.8334  0.0653
 1785SOL    HW2 5355   0.889   4.817   9.042  0.0288 -2.0503  0.6826
 1786SOL     OW 5356   3.252   4.531   5.533  0.1192 -0.6241  0.2046
 1786SOL    HW1 5357   3.251   4.442   5.568  2.0758 -1.5448 -1.8123
 1786SOL    HW2 5358   3.224   4.521   5.442 -1.1555  1.0988  0.3595
 1787SOL     OW 5359   1.578   2.705   8.762  1.1661 -0.5357  0.9504
 1787SOL    HW1 5360   1.588   2.685   8.669 -0.4861  0.5399  0.4835
 1787SOL    HW2 5361   1.659   2.748   8.787  0.2195  2.8093 -1.0961
 1788SOL     OW 5362   3.700   0.342   6.366  0.3812 -0.4187  0.0994
 1788SOL    HW1 5363   3.757   0.366   6.439  1.6036  0.6055 -1.1478
 1788SOL    HW2 5364   3.614   0.375   6.390  1.0717  1.1754  0.4622
 1789SOL     OW 5365   3.879   0.940   5.862 -0.1185 -0.6395  0.0043
 1789SOL    HW1 5366   3.920   0.863   5.901  0.0843 -0.1004  0.9000
 1789SOL    HW2 5367   3.795   0.948   5.907 -0.4646 -0.7693 -0.6177
 1790SOL     OW 5368   3.401   0.811   8.107 -0.5530  0.8558 -0.3934
 1790SOL    HW1 5369   3.447   0.884   8.149  0.1889  0.3326 -0.2731
 1790SOL    HW2 5370   3.314   0.846   8.087  0.1119  2.0990 -1.2757
 1791SOL     OW 5371   3.267   3.145   9.124  0.2968 -0.5933 -0.5992
 1791SOL    HW1 5372   3.361   3.160   9.117  0.2334  1.2309  1.3341
 1791SOL    HW2 5373   3.260   3.054   9.153  1.9141  0.4933  4.1927
 1792SOL     OW 5374   3.569   2.608   9.820 -0.1013  0.2726 -0.1400
 1792SOL    HW1 5375   3.555   2.522   9.859  0.8336  0.5055  0.7679
 1792SOL    HW2 5376   3.497   2.662   9.852 -0.7784 -0.2002 -0.8396
 1793SOL     OW 5377   2.774   1.254   6.540 -0.4207  0.2522  0.1523
 1793SOL    HW1 5378   2.700   1.203   6.505 -0.2044 -0.3117  0.5073
 1793SOL    HW2 5379   2.827   1.191   6.588 -1.6917  1.3109  3.1690
 1794SOL     OW 5380   1.943   3.149   6.055  0.2526  0.0880 -0.1699
 1794SOL    HW1 5381   1.947   3.204   5.977 -1.1429  0.5927  0.0972
 1794SOL    HW2 5382   1.856   3.110   6.053  0.5642 -0.6843  0.6182
 1795SOL     OW 5383   1.769   0.611   8.241 -0.3654  0.0479  0.2702
 1795SOL    HW1 5384   1.827   0.547   8.199 -1.8419  0.0715 -1.9553
 1795SOL    HW2 5385   1.690   0.561   8.261 -0.9129  0.8165  0.0399
 1796SOL     OW 5386   1.496   4.714   8.533 -1.0109  0.4885 -1.0302
 1796SOL    HW1 5387   1.442   4.695   8.610 -1.7323  0.8808 -1.4315
 1796SOL    HW2 5388   1.462   4.657   8.464  0.5970 -0.9619 -0.7020
 1797SOL     OW 5389   3.780   1.252   9.398  0.1983  0.0893  0.3909
 1797SOL    HW1 5390   3.848   1.271   9.463  1.1950  0.6773 -0.7758
 1797SOL    HW2 5391   3.736   1.174   9.430  0.0270  0.9129  2.2547
 1798SOL     OW 5392   2.824   0.762   9.529  0.2478  0.6211  0.3975
 1798SOL    HW1 5393   2.905   0.798   9.492 -1.8793  1.6366 -4.0303
 1798SOL    HW2 5394   2.795   0.828   9.592  1.6985  1.3692  0.3396
 1799SOL     OW 5395   2.681   0.406   7.364 -0.6917 -0.6543 -0.5671
 1799SOL    HW1 5396   2.660   0.497   7.385  0.3898 -0.4868 -0.1601
 1799SOL    HW2 5397   2.605   0.357   7.394  0.0515 -0.2374  2.3429
 1800SOL     OW 5398   4.913   0.513   5.413  0.1976  1.1028  0.3617
 1800SOL    HW1 5399   5.007   0.525   5.403  0.7461 -1.5544  1.4145
 1800SOL    HW2 5400   4.899   0.507   5.507 -0.3553 -2.1873  0.1860
 1801SOL     OW 5401   3.184   1.843   9.281  0.1115  0.0016  0.1113
 1801SOL    HW1 5402   3.098   1.827   9.319  0.1600  0.3771  0.3828
 1801SOL    HW2 5403   3.205   1.933   9.305 -0.9861  1.2177 -3.0249
 1802SOL     OW 5404   1.602   2.939   9.941 -0.3495 -0.4790  0.3716
 1802SOL    HW1 5405   1.601   2.845   9.959 -0.0845 -0.5124  0.2147
 1802SOL    HW2 5406   1.680   2.953   9.888 -1.6432 -0.5315 -1.6561
 1803SOL     OW 5407   1.288   2.885   5.419 -0.0461  0.3982 -0.3187
 1803SOL    HW1 5408   1.304   2.847   5.506 -1.6927 -0.9280 -0.5326
 1803SOL    HW2 5409   1.242   2.967   5.437  0.4714  0.6060  0.0808
 1804SOL     OW 5410   3.346   3.247   7.826  0.0301  0.3716 -0.0676
 1804SOL    HW1 5411   3.411   3.180   7.846  1.8837  2.5081  1.5096
 1804SOL    HW2 5412   3.287   3.247   7.901  0.5533  1.0721  0.3515
 1805SOL     OW 5413   4.167   1.357   7.867  0.4174  0.3582 -0.3603
 1805SOL    HW1 5414   4.231   1.348   7.937 -1.6527 -2.0873  1.4289
 1805SOL    HW2 5415   4.202   1.304   7.795  1.4300  0.9252 -0.2999
 1806SOL     OW 5416   0.413   2.170   7.648  0.4610 -0.2030  0.2719
 1806SOL    HW1 5417   0.419   2.259   7.615  0.9539  0.4432  1.9620
 1806SOL    HW2 5418   0.358   2.177   7.726 -2.1979 -1.9463 -1.2818
 1807SOL     OW 5419   1.639   0.919   9.137  0.0134  0.2294 -0.4025
 1807SOL    HW1 5420   1.578   0.921   9.063 -0.0893 -0.8462 -0.3653
 1807SOL    HW2 5421   1.719   0.881   9.102 -0.0213 -0.2511  0.0280
 1808SOL     OW 5422   2.546   1.188   9.935  0.1656 -0.1995  0.3319
 1808SOL    HW1 5423   2.507   1.125   9.875 -0.3263  0.7942 -0.4382
 1808SOL    HW2 5424   2.611   1.235   9.883 -1.6104  1.9954 -0.0651
 1809SOL     OW 5425   3.208   1.074   9.370  0.2555 -0.5204  0.0225
 1809SOL    HW1 5426   3.261   1.146   9.335 -0.9483  0.0648 -0.6586
 1809SOL    HW2 5427   3.268   1.025   9.426  1.0978  1.0717  0.5880
 1810SOL     OW 5428   2.196   4.918   8.002 -0.2429  0.2889 -0.2039
 1810SOL    HW1 5429   2.218   4.991   8.060  0.8150 -0.0763 -0.1211
 1810SOL    HW2 5430   2.183   4.959   7.916 -2.0363  0.8583  0.2945
 1811SOL     OW 5431   2.564   0.217   8.887 -0.4442  0.7968  0.5225
 1811SOL    HW1 5432   2.650   0.223   8.844 -0.4288 -2.4356 -0.1447
 1811SOL    HW2 5433   2.503   0.256   8.825  0.1324 -0.1154 -0.6742
 1812SOL     OW 5434   2.085   0.195   8.056  0.2138 -0.6381  1.0942
 1812SOL    HW1 5435   2.156   0.195   8.120  0.7291  2.1383  0.6775
 1812SOL    HW2 5436   2.007   0.216   8.107  0.5609  1.1874  0.9335
 1813SOL     OW 5437   2.634   2.036   8.010  0.6199  0.4165  0.0251
 1813SOL    HW1 5438   2.594   2.045   8.097 -0.3091  1.8812 -0.5102
 1813SOL    HW2 5439   2.669   1.947   8.009 -1.8777 -0.6920  0.8912
 1814SOL     OW 5440   0.109   2.575   6.407  0.3862 -0.2751  0.0007
 1814SOL    HW1 5441   0.145   2.525   6.480 -1.4726 -0.0847  1.1234
 1814SOL    HW2 5442   0.183   2.591   6.350  2.4624  1.4175  2.8956
 1815SOL     OW 5443   4.190   1.368   5.221 -1.0055  0.1889  0.2978
 1815SOL    HW1 5444   4.227   1.339   5.305 -1.3740 -1.7146 -0.1543
 1815SOL    HW2 5445   4.265   1.397   5.170  0.0215 -3.5281 -0.5746
 1816SOL     OW 5446   0.607   1.686   8.371 -0.0513 -0.7260 -0.0283
 1816SOL    HW1 5447   0.663   1.613   8.397  2.3335  1.1118  0.3446
 1816SOL    HW2 5448   0.566   1.715   8.453  1.2673  0.1149  0.3593
 1817SOL     OW 5449   2.572   3.352   6.416  0.1939 -0.2909  0.2023
 1817SOL    HW1 5450   2.528   3.437   6.426  0.7940 -0.0048  0.5031
 1817SOL    HW2 5451   2.512   3.289   6.453  0.9691  0.3595  2.7917
 1818SOL     OW 5452   0.573   4.023   6.473  0.4498 -0.0635  0.0328
 1818SOL    HW1 5453   0.581   3.937   6.432  1.6221 -0.2597  0.6062
 1818SOL    HW2 5454   0.543   4.004   6.562 -1.5063  0.3124 -0.5091
 1819SOL     OW 5455   2.389   3.657   4.919  0.0106 -0.1908  0.9218
 1819SOL    HW1 5456   2.454   3.719   4.951 -0.3778  0.5883  0.2277
 1819SOL    HW2 5457   2.432   3.572   4.926  1.9675  0.4718 -1.5018
 1820SOL     OW 5458   0.449   0.554   7.266 -0.2142 -0.1485  0.3384
 1820SOL    HW1 5459   0.363   0.577   7.299 -0.6980  0.5095 -1.2927
 1820SOL    HW2 5460   0.502   0.632   7.279  0.4474 -0.8440  2.1843
 1821SOL     OW 5461   1.424   0.699   7.300 -0.2136  0.0666  0.4552
 1821SOL    HW1 5462   1.453   0.790   7.300  0.2195 -0.0266  2.5980
 1821SOL    HW2 5463   1.329   0.704   7.304 -0.7463  0.3548 -4.7770
 1822SOL     OW 5464   3.598   4.600   5.016  0.1409 -0.7794  0.0503
 1822SOL    HW1 5465   3.585   4.605   5.111 -2.7225 -2.6938 -0.1083
 1822SOL    HW2 5466   3.661   4.528   5.005 -0.9368 -1.8254  0.4939
 1823SOL     OW 5467   0.842   3.157   9.836 -0.1149 -0.0042  0.0454
 1823SOL    HW1 5468   0.889   3.178   9.756 -0.1564  0.7036  0.2067
 1823SOL    HW2 5469   0.898   3.190   9.906  1.7645 -3.7618  0.5945
 1824SOL     OW 5470   1.255   4.803   6.510 -0.5268 -0.8496 -0.4791
 1824SOL    HW1 5471   1.184   4.864   6.526  1.6477  0.9638  4.0671
 1824SOL    HW2 5472   1.219   4.717   6.531 -1.7000 -0.0862  0.7636
 1825SOL     OW 5473   4.408   0.936   6.848 -0.8475  0.7504 -0.1004
 1825SOL    HW1 5474   4.481   0.995   6.827  0.1929 -0.3950  0.1602
 1825SOL    HW2 5475   4.337   0.994   6.874  0.2072  1.8886  0.3499
 1826SOL     OW 5476   4.425   4.416   6.044 -0.1569  0.2790  0.0793
 1826SOL    HW1 5477   4.495   4.474   6.073 -2.1516  2.8901  0.0400
 1826SOL    HW2 5478   4.414   4.437   5.951 -0.2071 -1.0096 -0.2256
 1827SOL     OW 5479   2.851   0.699   5.640 -0.7828  0.3339 -0.3155
 1827SOL    HW1 5480   2.861   0.605   5.630  1.0712  0.5547 -0.9775
 1827SOL    HW2 5481   2.941   0.732   5.645 -1.3957  1.9477  1.1422
 1828SOL     OW 5482   1.659   0.874   8.168 -0.1251  0.4609  0.5717
 1828SOL    HW1 5483   1.623   0.877   8.257 -2.3247 -1.7010 -0.1768
 1828SOL    HW2 5484   1.709   0.792   8.165 -1.2710 -0.2190 -0.5841
 1829SOL     OW 5485   4.006   0.459   8.780 -0.1707  0.0046  0.3987
 1829SOL    HW1 5486   4.030   0.551   8.771 -1.1815  0.5638  2.5505
 1829SOL    HW2 5487   3.922   0.451   8.736  0.3231 -0.1340 -0.5509
 1830SOL     OW 5488   0.678   4.044   7.365  0.0537 -0.1944 -0.3453
 1830SOL    HW1 5489   0.651   4.135   7.357  0.7987  0.1429  0.8457
 1830SOL    HW2 5490   0.599   3.994   7.346 -0.1086  0.6497 -2.1347
 1831SOL     OW 5491   0.759   3.633   6.997 -0.0611 -0.4649 -0.4627
 1831SOL    HW1 5492   0.668   3.615   6.973 -0.1264 -1.8067  0.6489
 1831SOL    HW2 5493   0.777   3.720   6.962 -2.1923  0.3926  0.4512
 1832SOL     OW 5494   4.456   2.113   8.079 -0.0046  0.5222  0.4926
 1832SOL    HW1 5495   4.495   2.103   7.992  1.0658  0.3709  0.9599
 1832SOL    HW2 5496   4.450   2.023   8.112 -2.3210  0.3738 -0.1886
 1833SOL     OW 5497   2.656   1.486   9.621 -0.2718  0.2139  0.3713
 1833SOL    HW1 5498   2.648   1.439   9.538  2.7134  2.1289 -1.1973
 1833SOL    HW2 5499   2.690   1.420   9.683  0.9671 -0.4383 -0.9476
 1834SOL     OW 5500   3.125   1.965   9.901  0.1743  0.3739 -0.7070
 1834SOL    HW1 5501   3.153   2.056   9.893  0.6890  0.1000 -2.3524
 1834SOL    HW2 5502   3.072   1.963   9.981 -0.0273  2.1524 -0.7579
 1835SOL     OW 5503   1.825   0.876   9.460  0.1567  0.6905 -0.0004
 1835SOL    HW1 5504   1.880   0.852   9.386  0.3886 -2.0155  0.9321
 1835SOL    HW2 5505   1.762   0.939   9.425  1.5179  1.0217 -1.9632
 1836SOL     OW 5506   2.639   1.859   8.660 -0.1454  0.6992  0.2667
 1836SOL    HW1 5507   2.560   1.820   8.621  1.8004 -2.5259 -0.8815
 1836SOL    HW2 5508   2.616   1.951   8.673 -3.1773  0.5495 -2.5502
 1837SOL     OW 5509   3.307   1.330  10.133  0.0749  0.4419 -1.0028
 1837SOL    HW1 5510   3.383   1.325  10.075 -0.4927 -0.5268 -1.6887
 1837SOL    HW2 5511   3.294   1.424  10.147  2.4932  0.6129  0.6277
 1838SOL     OW 5512   2.864   3.529   9.586 -0.6193  0.1890 -0.3439
 1838SOL    HW1 5513   2.772   3.556   9.580  0.0368  2.6835 -0.2292
 1838SOL    HW2 5514   2.899   3.580   9.658  1.2330  0.4624 -1.3755
 1839SOL     OW 5515   3.873   2.951   5.538  0.3211  0.1567 -1.0148
 1839SOL    HW1 5516   3.910   2.991   5.459  0.8809  0.1508 -0.7610
 1839SOL    HW2 5517   3.881   3.019   5.605 -1.0361  0.5128 -1.1783
 1840SOL     OW 5518   4.943   2.155   9.723 -0.1376  0.1359 -0.3880
 1840SOL    HW1 5519   4.902   2.214   9.659 -0.3802  0.5840  0.1734
 1840SOL    HW2 5520   4.887   2.161   9.800 -0.1932 -0.8718 -0.3326
 1841SOL     OW 5521   3.820   1.205   6.423 -0.2770  0.2180  0.2045
 1841SOL    HW1 5522   3.803   1.253   6.342  0.1197 -0.6015 -0.3807
 1841SOL    HW2 5523   3.742   1.220   6.477 -0.2664  1.2865 -0.0659
 1842SOL     OW 5524   3.764   4.931   8.216 -0.3589 -0.1398  0.1189
 1842SOL    HW1 5525   3.718   4.902   8.294 -2.2786  0.4372 -0.7386
 1842SOL    HW2 5526   3.718   4.887   8.144  0.6873  0.1773 -0.7694
 1843SOL     OW 5527   1.496   4.524   6.585 -1.4043  0.2864 -0.1952
 1843SOL    HW1 5528   1.542   4.441   6.578 -0.6441  0.7387 -0.8189
 1843SOL    HW2 5529   1.507   4.551   6.676 -0.6516  0.2508 -0.2700
 1844SOL     OW 5530   1.508   4.182   4.881 -0.4960  0.0676  0.4784
 1844SOL    HW1 5531   1.516   4.148   4.792 -1.2347 -2.3913  1.2751
 1844SOL    HW2 5532   1.571   4.132   4.932 -0.3740  1.1539  1.4485
 1845SOL     OW 5533   2.029   4.139   5.099 -0.1107 -0.1096 -0.2745
 1845SOL    HW1 5534   2.074   4.181   5.172  0.2429 -2.1722  0.7603
 1845SOL    HW2 5535   2.099   4.101   5.046 -0.4927 -1.2635  0.0202
 1846SOL     OW 5536   1.531   4.938   9.137  0.0932  0.2866  0.5192
 1846SOL    HW1 5537   1.508   4.890   9.057 -0.8446  2.0549 -0.3294
 1846SOL    HW2 5538   1.557   4.870   9.199 -1.2904 -1.3196 -0.5750
 1847SOL     OW 5539   1.956   1.045   6.785  0.4936  0.0778  0.2029
 1847SOL    HW1 5540   2.038   1.087   6.810  0.5042  0.6623 -0.7612
 1847SOL    HW2 5541   1.898   1.117   6.761 -0.0303 -0.3712  0.1051
 1848SOL     OW 5542   1.802   0.802   9.706  0.2595 -0.0268  0.6446
 1848SOL    HW1 5543   1.801   0.831   9.615  0.6484 -0.0166  0.6402
 1848SOL    HW2 5544   1.715   0.765   9.721  0.4623 -0.7696  0.0336
 1849SOL     OW 5545   4.705   0.979   9.218  0.8336  0.3742 -0.7162
 1849SOL    HW1 5546   4.621   0.982   9.172  0.5872  0.8733 -0.2345
 1849SOL    HW2 5547   4.771   0.975   9.148  0.3720 -1.4438 -1.1071
 1850SOL     OW 5548   2.044   3.447   9.143  0.3151  0.0717  0.0861
 1850SOL    HW1 5549   2.043   3.351   9.143  2.7243 -0.0130 -0.2514
 1850SOL    HW2 5550   1.955   3.471   9.118  0.3117 -2.1330 -2.5866
 1851SOL     OW 5551   4.706   1.190  10.249  0.6508  0.6525  0.2520
 1851SOL    HW1 5552   4.775   1.186  10.316 -0.0341 -1.9491  0.8956
 1851SOL    HW2 5553   4.729   1.122  10.186 -1.7456 -0.9089  0.9540
 1852SOL     OW 5554   2.681   2.917   9.463  0.3124 -0.1568 -0.4128
 1852SOL    HW1 5555   2.633   2.883   9.538  1.1191  1.8492  1.1024
 1852SOL    HW2 5556   2.649   3.007   9.452  0.8065 -0.1300 -1.9697
 1853SOL     OW 5557   1.343   4.443   9.245 -0.1441 -0.1740  0.4589
 1853SOL    HW1 5558   1.386   4.507   9.189  1.7241 -0.4845  1.4549
 1853SOL    HW2 5559   1.273   4.492   9.288 -2.8171 -0.3018 -3.2696
 1854SOL     OW 5560   2.325   0.705   9.413 -0.3876  0.5651 -0.4582
 1854SOL    HW1 5561   2.275   0.732   9.490  2.5493 -1.6473  2.5242
 1854SOL    HW2 5562   2.411   0.745   9.425  0.7139 -1.3317 -1.5538
 1855SOL     OW 5563   4.021   3.668   7.169 -0.8768 -0.3889  0.1555
 1855SOL    HW1 5564   4.020   3.748   7.222 -1.9665 -0.6517  0.5498
 1855SOL    HW2 5565   4.007   3.597   7.231 -0.6782 -0.8327 -0.2945
 1856SOL     OW 5566   1.758   4.177   8.268  0.3483  0.5592 -0.3202
 1856SOL    HW1 5567   1.833   4.204   8.321  0.3148  0.5513 -0.2690
 1856SOL    HW2 5568   1.786   4.096   8.225  1.0312  1.5194 -1.7361
 1857SOL     OW 5569   4.994   1.844   8.494  0.4255  0.1830  0.7490
 1857SOL    HW1 5570   5.048   1.790   8.436  0.1121  0.7117 -0.0454
 1857SOL    HW2 5571   4.945   1.781   8.547  1.8089 -0.3184  1.5047
 1858SOL     OW 5572   2.608   3.059   7.164 -0.4323 -0.1533  0.0457
 1858SOL    HW1 5573   2.547   3.126   7.198 -1.3788 -1.1852  0.4644
 1858SOL    HW2 5574   2.632   3.008   7.242  1.4199  0.5614 -0.0297
 1859SOL     OW 5575   1.258   4.154   8.315  0.2008 -0.4236  0.2888
 1859SOL    HW1 5576   1.186   4.212   8.293  0.7449 -0.7439 -2.7743
 1859SOL    HW2 5577   1.337   4.206   8.300  0.6468 -1.1158  0.1633
 1860SOL     OW 5578   3.500   0.044   8.181  0.6127  0.9056  0.1456
 1860SOL    HW1 5579   3.476   0.129   8.143 -1.5448 -0.2273 -1.2814
 1860SOL    HW2 5580   3.539  -0.005   8.109  0.1273  0.0799  0.4139
 1861SOL     OW 5581   1.906   2.415   6.031 -0.2398 -0.1757  0.4301
 1861SOL    HW1 5582   1.905   2.466   5.950 -0.0652  1.5106  1.4431
 1861SOL    HW2 5583   1.951   2.471   6.094  1.2788 -2.1824  1.2642
 1862SOL     OW 5584   3.288   4.417   9.493 -0.1608  0.9593 -0.3995
 1862SOL    HW1 5585   3.308   4.455   9.407  0.2929 -0.9268 -1.1612
 1862SOL    HW2 5586   3.199   4.384   9.484  0.0511  0.3600 -0.2830
 1863SOL     OW 5587   4.288   4.259   6.661  0.7116  0.5214  0.0189
 1863SOL    HW1 5588   4.306   4.352   6.654  3.0515  0.1086 -0.1711
 1863SOL    HW2 5589   4.201   4.254   6.700  1.4063  2.7874  2.0915
 1864SOL     OW 5590  -0.002   1.052   8.072  0.6510  0.5638 -0.1496
 1864SOL    HW1 5591   0.086   1.015   8.072  0.0393 -1.0130 -1.8034
 1864SOL    HW2 5592  -0.000   1.120   8.005  0.6092  0.5467 -0.1680
 1865SOL     OW 5593   0.753   4.555   8.944  0.9609 -0.1098 -0.7784
 1865SOL    HW1 5594   0.753   4.480   8.886 -1.3233  0.1733 -1.2408
 1865SOL    HW2 5595   0.705   4.526   9.022  0.6727  0.6473 -0.6618
 1866SOL     OW 5596   2.081   1.267   7.230  0.1804  0.5152  0.0254
 1866SOL    HW1 5597   2.134   1.340   7.198 -1.0024  1.9875  1.2648
 1866SOL    HW2 5598   2.042   1.299   7.311 -1.8287 -0.8318 -0.3287
 1867SOL     OW 5599   1.200   2.820   7.454  0.2180 -0.4954  0.2549
 1867SOL    HW1 5600   1.132   2.869   7.409  0.6777 -1.8555 -2.0960
 1867SOL    HW2 5601   1.152   2.755   7.506 -0.2894  0.0051  0.4250
 1868SOL     OW 5602   1.458   1.425   8.093 -0.3594 -0.5506  0.1641
 1868SOL    HW1 5603   1.465   1.333   8.120  1.0777 -0.4819  0.1360
 1868SOL    HW2 5604   1.438   1.422   8.000 -1.9213 -0.8095  0.4862
 1869SOL     OW 5605   3.867   4.455   9.430 -1.0872 -0.8387 -0.0817
 1869SOL    HW1 5606   3.885   4.375   9.381 -1.5795  0.2092 -2.0876
 1869SOL    HW2 5607   3.795   4.432   9.488 -1.7761 -1.6734 -1.2215
 1870SOL     OW 5608   4.068   3.786   8.814 -0.3209 -0.2342  0.3347
 1870SOL    HW1 5609   4.148   3.803   8.764 -1.2082 -0.2633 -1.1647
 1870SOL    HW2 5610   4.054   3.692   8.804 -1.0900 -0.0597 -0.3021
 1871SOL     OW 5611   3.552   0.703   8.969 -0.2632  0.0797 -0.6323
 1871SOL    HW1 5612   3.466   0.672   8.998 -0.1479 -1.4191 -1.7849
 1871SOL    HW2 5613   3.534   0.760   8.895 -0.4536  2.6689  1.3014
 1872SOL     OW 5614   1.884   0.279   9.758  0.0508 -0.1661 -0.1390
 1872SOL    HW1 5615   1.813   0.341   9.776 -0.6877 -0.9323 -0.3506
 1872SOL    HW2 5616   1.876   0.213   9.827  1.7413  0.7148  0.9514
 1873SOL     OW 5617   1.749   1.169   5.620 -0.5304 -0.1590  1.0315
 1873SOL    HW1 5618   1.760   1.099   5.555 -0.7411 -0.2221  1.0625
 1873SOL    HW2 5619   1.665   1.150   5.662 -3.6869  3.2879 -2.8826
 1874SOL     OW 5620   0.073   1.108   9.483  0.0212 -0.0783 -0.3268
 1874SOL    HW1 5621   0.123   1.028   9.498 -2.6909 -2.2199 -1.6582
 1874SOL    HW2 5622  -0.008   1.095   9.532 -0.3664  2.0614 -0.3036
 1875SOL     OW 5623   1.058   1.714   9.054  0.6253 -0.3825  0.4890
 1875SOL    HW1 5624   1.134   1.740   9.000  0.5039 -1.0523 -0.0178
 1875SOL    HW2 5625   0.991   1.779   9.033  0.5035 -0.7615 -0.3622
 1876SOL     OW 5626   2.169   4.542   8.285 -0.4854 -0.4431 -0.0234
 1876SOL    HW1 5627   2.176   4.629   8.324  1.1219 -0.9048  0.8144
 1876SOL    HW2 5628   2.189   4.556   8.192 -3.0634  0.4669 -0.5086
 1877SOL     OW 5629   0.228   3.703   9.329 -0.1818  0.5255 -0.3186
 1877SOL    HW1 5630   0.218   3.796   9.352 -0.3528  0.7837 -1.3848
 1877SOL    HW2 5631   0.138   3.673   9.313 -0.2716 -0.1996  1.3299
 1878SOL     OW 5632   2.548   0.312   7.965 -0.3840  0.4336  0.2140
 1878SOL    HW1 5633   2.586   0.396   7.990  0.3119  0.2740 -0.2942
 1878SOL    HW2 5634   2.454   0.330   7.960 -0.1332  1.5581 -1.2565
 1879SOL     OW 5635   1.301   1.894   8.950  0.2333  0.2206 -0.3132
 1879SOL    HW1 5636   1.271   1.930   8.867  1.2970 -1.3358 -1.4115
 1879SOL    HW2 5637   1.317   1.802   8.932 -2.2279 -0.8854  2.3387
 1880SOL     OW 5638   3.570   1.955   8.795 -0.1183 -0.1640 -0.1881
 1880SOL    HW1 5639   3.634   1.922   8.731  1.5175  3.4228 -0.6417
 1880SOL    HW2 5640   3.488   1.911   8.771  1.7851 -4.0012 -0.3879
 1881SOL     OW 5641   0.476   2.238   6.667 -0.6397  0.5310 -0.0611
 1881SOL    HW1 5642   0.438   2.208   6.749 -0.3973 -1.2308 -0.5635
 1881SOL    HW2 5643   0.467   2.164   6.607 -1.0891  1.8697 -1.7301
 1882SOL     OW 5644   4.372   0.995   9.014  0.5808  0.0804  0.5079
 1882SOL    HW1 5645   4.384   0.936   9.089  2.4175  0.6691  0.7131
 1882SOL    HW2 5646   4.368   1.083   9.053 -1.0570  0.2280  0.1059
 1883SOL     OW 5647   2.045   1.828   9.379 -0.5788 -0.4356 -0.1932
 1883SOL    HW1 5648   1.973   1.887   9.361  0.0388  0.0672 -1.1274
 1883SOL    HW2 5649   2.037   1.807   9.472 -3.1483 -2.0752 -0.6972
 1884SOL     OW 5650   4.100   3.961  10.230  0.3746 -0.1898 -0.7120
 1884SOL    HW1 5651   4.032   3.929  10.171  1.2918 -1.5256 -1.1047
 1884SOL    HW2 5652   4.057   4.029  10.282 -2.1627 -3.0398  1.2175
 1885SOL     OW 5653   4.328   1.680   6.860  0.0597 -0.6351 -0.4498
 1885SOL    HW1 5654   4.324   1.609   6.796  1.2584  0.5895 -1.9765
 1885SOL    HW2 5655   4.263   1.743   6.829 -2.4976 -1.8680  2.0513
 1886SOL     OW 5656   4.894   2.714   8.777  0.1921 -0.6380 -0.3450
 1886SOL    HW1 5657   4.955   2.788   8.773  0.8301 -1.1997 -2.0971
 1886SOL    HW2 5658   4.946   2.638   8.750 -0.5362 -1.6811  1.0728
 1887SOL     OW 5659   2.164   0.799   6.833  0.1722 -0.1365  0.0278
 1887SOL    HW1 5660   2.142   0.841   6.916  2.0783 -1.3146  1.2024
 1887SOL    HW2 5661   2.086   0.812   6.778 -1.4370  0.0278  2.2254
 1888SOL     OW 5662   1.029   1.302   6.670  0.5217 -0.2342 -0.4109
 1888SOL    HW1 5663   0.942   1.338   6.688  0.7332  0.6840 -1.1406
 1888SOL    HW2 5664   1.082   1.329   6.745 -0.0232 -1.5978  0.5022
 1889SOL     OW 5665   3.048   0.937   9.547  0.2193 -0.2308  0.6233
 1889SOL    HW1 5666   3.096   0.971   9.472 -0.3577 -0.4834  0.1314
 1889SOL    HW2 5667   3.055   1.006   9.613 -1.0693  0.9500 -0.4110
 1890SOL     OW 5668   4.880   0.141   8.545 -0.5650  0.3388 -0.1138
 1890SOL    HW1 5669   4.822   0.189   8.486  0.7978  0.9021 -1.0354
 1890SOL    HW2 5670   4.962   0.134   8.498 -0.4454 -2.1962  0.3339
 1891SOL     OW 5671   0.181   1.865   7.158 -0.0394 -0.1017 -0.6661
 1891SOL    HW1 5672   0.165   1.827   7.244 -0.5033 -1.0992 -1.1750
 1891SOL    HW2 5673   0.210   1.792   7.104  2.4807  0.9213 -0.8150
 1892SOL     OW 5674   2.957   1.754   9.771 -0.0063  0.3252  0.6741
 1892SOL    HW1 5675   3.012   1.827   9.800 -2.3473  2.3114  0.4415
 1892SOL    HW2 5676   2.903   1.733   9.847  1.9918 -2.6592  1.4107
 1893SOL     OW 5677   4.928   0.802   7.649 -0.1308 -0.0602 -0.5004
 1893SOL    HW1 5678   4.864   0.738   7.616 -0.9522  0.6359 -0.2943
 1893SOL    HW2 5679   4.921   0.876   7.589 -0.9126  0.7997  0.6194
 1894SOL     OW 5680   4.724   2.234   7.054 -0.0007 -0.0899 -0.1510
 1894SOL    HW1 5681   4.733   2.276   6.968 -2.2439 -0.8003 -0.7913
 1894SOL    HW2 5682   4.631   2.242   7.075  0.2917 -1.0430  1.6401
 1895SOL     OW 5683   3.930   4.629   8.430  0.1524  0.4928 -0.0447
 1895SOL    HW1 5684   3.901   4.720   8.434  0.7345  0.6708  0.1901
 1895SOL    HW2 5685   3.903   4.592   8.514  0.5508  0.6417  0.1482
 1896SOL     OW 5686   3.470   3.331   8.170 -0.2417  0.2477  0.1046
 1896SOL    HW1 5687   3.557   3.348   8.136  0.0286  1.7736  1.4460
 1896SOL    HW2 5688   3.483   3.268   8.240 -0.2335  0.4274  0.2638
 1897SOL     OW 5689   0.151   1.605   6.630 -0.3354  0.0579 -0.1147
 1897SOL    HW1 5690   0.233   1.576   6.670  0.1325 -0.3314 -1.3204
 1897SOL    HW2 5691   0.094   1.528   6.634 -0.1279 -0.1281 -0.5846
 1898SOL     OW 5692   0.957   1.406   7.760 -0.2955 -0.1066  0.5725
 1898SOL    HW1 5693   0.869   1.366   7.757 -0.1826 -0.5144  1.8718
 1898SOL    HW2 5694   0.944   1.487   7.810 -0.3836  1.1916 -1.4372
 1899SOL     OW 5695   0.939   3.298   7.575 -0.5782  0.1273  0.1778
 1899SOL    HW1 5696   0.942   3.372   7.636  2.8959  0.6839 -0.4991
 1899SOL    HW2 5697   0.965   3.223   7.628 -2.2918 -0.3526  0.4151
 1900SOL     OW 5698   2.013   3.172   9.065 -0.1859 -0.1501  0.4159
 1900SOL    HW1 5699   2.044   3.094   9.018  0.0444  0.3526 -0.2951
 1900SOL    HW2 5700   1.952   3.214   9.003  0.2183  0.5938  0.5122
 1901SOL     OW 5701   3.864   3.561   8.006  0.0655 -0.2326  0.5151
 1901SOL    HW1 5702   3.785   3.565   8.060  0.3260 -1.2823  1.0116
 1901SOL    HW2 5703   3.912   3.485   8.040  1.3138  0.4211  0.2586
 1902SOL     OW 5704   3.111   0.604   7.692 -0.2111 -0.3030 -0.3128
 1902SOL    HW1 5705   3.128   0.673   7.757 -2.7284  0.0102  0.1113
 1902SOL    HW2 5706   3.196   0.588   7.651  0.5107  2.9724 -0.3482
 1903SOL     OW 5707   3.266   1.614   9.570 -0.3764  0.1030  0.6542
 1903SOL    HW1 5708   3.252   1.650   9.657  0.6270  0.4160  0.6932
 1903SOL    HW2 5709   3.194   1.552   9.558 -0.1101 -0.4998  2.0060
 1904SOL     OW 5710   4.053   1.064   6.403 -0.2731  0.8599  0.3574
 1904SOL    HW1 5711   3.999   1.030   6.332 -1.3908  0.4890  1.3587
 1904SOL    HW2 5712   4.007   1.143   6.433  0.1825  1.0150  0.6646
 1905SOL     OW 5713   0.972   3.077   8.957  0.3386 -0.2358 -0.1058
 1905SOL    HW1 5714   0.954   3.136   9.030 -0.3026 -0.2420 -0.2497
 1905SOL    HW2 5715   1.045   3.117   8.910  0.8755 -0.3296  0.6440
 1906SOL     OW 5716   0.010   1.340   8.017 -0.0559 -0.3395  0.1382
 1906SOL    HW1 5717  -0.067   1.397   8.025  1.3289  1.4839  1.4219
 1906SOL    HW2 5718   0.084   1.399   8.027  1.5488 -2.0813 -0.7929
 1907SOL     OW 5719   3.508   2.558   8.573  0.8183  0.7864 -0.3176
 1907SOL    HW1 5720   3.415   2.541   8.557  0.3450  3.5254 -0.9485
 1907SOL    HW2 5721   3.536   2.486   8.630 -1.8704  0.3455  0.5823
 1908SOL     OW 5722   2.157   2.168   9.064  0.8111 -0.0305 -0.0105
 1908SOL    HW1 5723   2.205   2.243   9.029 -0.1216 -0.0873 -1.4800
 1908SOL    HW2 5724   2.065   2.186   9.043  0.6381 -1.8792 -1.0122
 1909SOL     OW 5725   1.890   4.371   7.304  0.5225 -0.6997  0.5303
 1909SOL    HW1 5726   1.824   4.366   7.235  2.6757 -3.5873 -1.5715
 1909SOL    HW2 5727   1.849   4.328   7.379 -0.7875 -0.3000  0.0757
 1910SOL     OW 5728   4.384   4.102   9.582  0.4676 -0.6091  0.2780
 1910SOL    HW1 5729   4.458   4.051   9.550  1.1532 -0.5557  1.6893
 1910SOL    HW2 5730   4.341   4.134   9.503  2.3028 -0.1373 -0.5848
 1911SOL     OW 5731   0.697   1.833   6.667 -0.3665  0.3589 -0.1461
 1911SOL    HW1 5732   0.628   1.859   6.729 -1.1046 -2.4894  0.3395
 1911SOL    HW2 5733   0.658   1.847   6.581  0.2905  3.3545 -0.0631
 1912SOL     OW 5734   2.144   1.536   8.868  0.5812  0.0835  1.0772
 1912SOL    HW1 5735   2.223   1.566   8.913  1.2062 -0.6495  0.4826
 1912SOL    HW2 5736   2.100   1.480   8.932  1.9125 -1.6738  0.5519
 1913SOL     OW 5737   3.546   1.647  10.178  0.1580 -0.6053 -0.4655
 1913SOL    HW1 5738   3.557   1.717  10.243  0.4470 -0.3834 -0.7543
 1913SOL    HW2 5739   3.636   1.623  10.153  0.1327 -2.0305  0.6426
 1914SOL     OW 5740   3.348   1.601   9.311  0.1090 -0.2360 -0.3079
 1914SOL    HW1 5741   3.275   1.661   9.294 -1.9974 -2.1978  1.2130
 1914SOL    HW2 5742   3.344   1.585   9.405  1.2317 -1.9804 -0.5162
 1915SOL     OW 5743   3.993   0.559   6.586 -0.1042  0.4027 -0.3200
 1915SOL    HW1 5744   3.999   0.611   6.666 -1.3607 -0.3296  0.2746
 1915SOL    HW2 5745   4.049   0.605   6.523 -0.1390  1.7167  0.5809
 1916SOL     OW 5746   1.932   1.197   9.475 -0.4176  0.3830 -0.0205
 1916SOL    HW1 5747   1.934   1.143   9.554 -0.8861  0.2252 -0.1143
 1916SOL    HW2 5748   1.864   1.263   9.492 -0.0110  0.8041 -0.0004
 1917SOL     OW 5749   0.981   1.655   6.871  0.1449 -0.5331 -0.0609
 1917SOL    HW1 5750   1.059   1.634   6.818  1.1463 -0.3413  1.3043
 1917SOL    HW2 5751   0.979   1.750   6.874 -0.8689 -0.4988 -1.0990
 1918SOL     OW 5752   1.861   0.163   8.420  0.0541  0.3629 -0.2409
 1918SOL    HW1 5753   1.831   0.093   8.363 -2.2629  0.6990  0.4718
 1918SOL    HW2 5754   1.786   0.222   8.427  0.6092  0.8712  2.2794
 1919SOL     OW 5755   1.510   0.773   9.572 -0.4678 -0.8730 -0.0228
 1919SOL    HW1 5756   1.539   0.720   9.498 -0.3436 -1.1820  0.2397
 1919SOL    HW2 5757   1.474   0.853   9.533  0.6279 -0.5359 -0.3669
 1920SOL     OW 5758   0.660   1.934   7.926  0.2461 -0.1342 -0.3431
 1920SOL    HW1 5759   0.602   1.908   7.855  0.5640  0.0399 -0.6693
 1920SOL    HW2 5760   0.674   1.854   7.976  2.9067 -1.1963 -2.5289
 1921SOL     OW 5761   2.451   4.747   9.133  0.2505  0.3193  0.0735
 1921SOL    HW1 5762   2.524   4.789   9.178  1.4046 -1.0514 -0.4350
 1921SOL    HW2 5763   2.398   4.709   9.203 -0.6576  2.2779  0.5221
 1922SOL     OW 5764   0.119   1.674   9.653  0.6149  0.0120 -0.2646
 1922SOL    HW1 5765   0.042   1.718   9.690 -1.2275  0.0852 -3.7314
 1922SOL    HW2 5766   0.167   1.743   9.608 -0.0285 -0.7323 -2.2126
 1923SOL     OW 5767   0.665   1.370   9.721 -0.3657  0.0232  0.0337
 1923SOL    HW1 5768   0.614   1.428   9.664 -1.1192 -2.3731 -1.9268
 1923SOL    HW2 5769   0.744   1.351   9.669  0.6328  0.5309  1.3289
 1924SOL     OW 5770   2.547   1.758   7.970 -0.6149  1.1576  0.9235
 1924SOL    HW1 5771   2.537   1.674   7.924 -0.4609  0.4602  2.1273
 1924SOL    HW2 5772   2.634   1.788   7.946 -0.5743  0.8530  0.6805
 1925SOL     OW 5773   4.106   4.822   6.558 -0.1162  0.2677 -0.0747
 1925SOL    HW1 5774   4.025   4.796   6.515 -0.0833 -0.1522  0.1111
 1925SOL    HW2 5775   4.090   4.807   6.651  0.3528 -0.3187 -0.0809
 1926SOL     OW 5776   1.690   1.736   8.280  0.7827  0.3470 -0.4696
 1926SOL    HW1 5777   1.640   1.757   8.360 -0.0012 -0.8097 -0.6264
 1926SOL    HW2 5778   1.749   1.811   8.269  0.4761  0.8267  0.8449
 1927SOL     OW 5779   2.749   2.910   7.391 -0.6423 -0.5689 -0.1474
 1927SOL    HW1 5780   2.761   2.818   7.370 -0.3865 -1.2034  2.4257
 1927SOL    HW2 5781   2.838   2.944   7.402 -0.7378 -0.8652  1.9449
 1928SOL     OW 5782   3.314   1.599  10.063  0.1160  0.7594 -0.5862
 1928SOL    HW1 5783   3.396   1.628  10.103  0.6621  0.9418 -1.8095
 1928SOL    HW2 5784   3.341   1.535   9.997 -0.8408 -0.1905 -0.0961
 1929SOL     OW 5785   0.357   3.389   7.133  0.4599 -0.2882  0.0721
 1929SOL    HW1 5786   0.377   3.467   7.081  1.0085  0.4416  1.3196
 1929SOL    HW2 5787   0.418   3.394   7.207 -1.8198  0.0044  2.0570
 1930SOL     OW 5788   1.061   0.411   5.906  0.2284 -0.4682  0.1269
 1930SOL    HW1 5789   1.140   0.371   5.943 -0.2398 -0.3167  1.3379
 1930SOL    HW2 5790   1.059   0.381   5.815  0.9868 -1.5123  0.4377
 1931SOL     OW 5791   1.476   1.733   9.834  0.1840 -0.6069 -0.0170
 1931SOL    HW1 5792   1.476   1.682   9.915 -1.8439  0.4926  0.7525
 1931SOL    HW2 5793   1.393   1.781   9.836  1.5322  1.9559 -1.1690
 1932SOL     OW 5794   4.058   1.135   7.132  0.1818 -1.0970  0.1911
 1932SOL    HW1 5795   4.038   1.079   7.058  0.4724 -2.0526  0.8221
 1932SOL    HW2 5796   4.091   1.076   7.199 -1.2076 -0.4215  1.5264
 1933SOL     OW 5797   2.796   2.488   7.904 -0.5030 -0.1662 -0.1084
 1933SOL    HW1 5798   2.809   2.396   7.879 -0.1007 -0.7304  1.9393
 1933SOL    HW2 5799   2.885   2.521   7.917 -0.6805 -0.1517  1.2368
 1934SOL     OW 5800   0.545   4.009   8.258  0.6268 -0.3372 -0.1122
 1934SOL    HW1 5801   0.454   3.989   8.236  0.6252  0.5494 -0.9968
 1934SOL    HW2 5802   0.546   4.104   8.270  1.3601 -0.3920  0.3067
 1935SOL     OW 5803   1.872   4.601   6.754  0.1056 -0.0995 -0.1111
 1935SOL    HW1 5804   1.963   4.573   6.764  0.1635 -0.8888 -2.2417
 1935SOL    HW2 5805   1.877   4.680   6.700 -0.4450  0.1663  0.2188
 1936SOL     OW 5806   1.096   2.749   7.864 -0.2135  0.1637  0.1343
 1936SOL    HW1 5807   1.111   2.832   7.817 -0.4787 -0.0930 -0.4077
 1936SOL    HW2 5808   1.003   2.750   7.886 -0.7816 -1.0173 -1.9227
 1937SOL     OW 5809   1.208   3.303   9.455  0.0306 -0.0066 -0.4357
 1937SOL    HW1 5810   1.154   3.352   9.394 -1.0520 -0.3420  0.2142
 1937SOL    HW2 5811   1.298   3.328   9.434 -0.4881  3.7074  1.0519
 1938SOL     OW 5812   3.955   0.509   6.924 -0.0068 -0.0737  0.3692
 1938SOL    HW1 5813   3.966   0.419   6.957  0.5918 -0.8829 -1.8317
 1938SOL    HW2 5814   3.863   0.512   6.895  0.3361 -0.4779 -0.8240
 1939SOL     OW 5815   2.148   1.609   9.808 -0.2726  0.1075 -0.4857
 1939SOL    HW1 5816   2.146   1.686   9.864 -0.0347 -0.2023 -0.0466
 1939SOL    HW2 5817   2.173   1.537   9.866 -1.6538 -0.5269 -0.6324
 1940SOL     OW 5818   4.302   2.882   9.949 -0.1094 -0.2767 -0.0859
 1940SOL    HW1 5819   4.347   2.884  10.034 -1.8030 -0.6018  0.8582
 1940SOL    HW2 5820   4.328   2.964   9.907 -2.0267  1.7177  2.2992
 1941SOL     OW 5821   3.196   4.704  10.010 -0.3074 -0.6311  0.0790
 1941SOL    HW1 5822   3.152   4.692  10.094 -0.5010  3.0805  0.6988
 1941SOL    HW2 5823   3.274   4.756  10.031 -0.3913  0.4544 -1.9914
 1942SOL     OW 5824   2.476   0.877   4.756  0.9399 -0.3438  1.1523
 1942SOL    HW1 5825   2.561   0.910   4.725  0.2771 -0.7319 -1.2819
 1942SOL    HW2 5826   2.481   0.782   4.744  0.1018 -0.3485  0.8045
 1943SOL     OW 5827   2.085   0.259   7.350  0.5578  0.1396 -0.2116
 1943SOL    HW1 5828   2.151   0.308   7.300  0.6604  0.1497 -0.0667
 1943SOL    HW2 5829   2.068   0.181   7.297 -0.0447  0.6210 -0.7343
 1944SOL     OW 5830   1.445   0.386   8.741 -0.3284  0.0705 -0.5476
 1944SOL    HW1 5831   1.420   0.472   8.776 -1.1326  0.0632 -1.0947
 1944SOL    HW2 5832   1.364   0.349   8.707 -0.0150 -0.9828 -0.1824
 1945SOL     OW 5833   1.339   2.854   8.076 -0.3985 -0.2372  0.8600
 1945SOL    HW1 5834   1.251   2.850   8.037 -0.9801  2.3841  1.7025
 1945SOL    HW2 5835   1.331   2.807   8.159 -1.4025  1.0130  1.5086
 1946SOL     OW 5836   3.084   1.564   5.455 -0.2112 -0.3425  0.6591
 1946SOL    HW1 5837   3.051   1.482   5.417  1.1885 -0.9378  0.6454
 1946SOL    HW2 5838   3.021   1.586   5.524 -1.2121 -0.8133 -0.0793
 1947SOL     OW 5839   4.606   1.067   6.673 -0.7282 -0.1891  0.4196
 1947SOL    HW1 5840   4.698   1.041   6.678 -0.8624 -0.9792 -0.8797
 1947SOL    HW2 5841   4.572   1.021   6.596 -2.4180 -0.5661  1.3329
 1948SOL     OW 5842   2.746   0.963   6.945 -0.1613 -0.4295 -0.1627
 1948SOL    HW1 5843   2.676   1.018   6.980  0.5968  0.4095  0.0636
 1948SOL    HW2 5844   2.806   1.024   6.903  1.6946 -0.8213  1.7652
 1949SOL     OW 5845   0.346   2.448   7.450 -0.3862 -0.2994 -0.1913
 1949SOL    HW1 5846   0.288   2.522   7.434  0.7331  0.7981  0.5755
 1949SOL    HW2 5847   0.326   2.422   7.540  0.8720  0.6632  0.3990
 1950SOL     OW 5848   4.713   0.847   6.494  0.1888  0.2037  0.2977
 1950SOL    HW1 5849   4.713   0.926   6.440  0.4805 -0.6668 -1.0352
 1950SOL    HW2 5850   4.805   0.832   6.515 -0.0035  1.0800  1.9201
 1951SOL     OW 5851   0.971   2.025   5.464 -0.4909 -0.3888  0.2731
 1951SOL    HW1 5852   1.059   2.057   5.446 -0.3977 -0.4516  0.6046
 1951SOL    HW2 5853   0.929   2.018   5.378 -0.5841  0.8307  0.2022
 1952SOL     OW 5854   0.145   1.746   8.033 -0.0138 -0.2798 -0.3970
 1952SOL    HW1 5855   0.050   1.733   8.025 -0.5481  2.9174 -0.6210
 1952SOL    HW2 5856   0.174   1.759   7.943  0.4227 -0.0846 -0.2272
 1953SOL     OW 5857   2.110   0.454   9.033 -0.0546  0.4407  0.0331
 1953SOL    HW1 5858   2.067   0.375   9.000  1.5243 -0.3463 -0.2296
 1953SOL    HW2 5859   2.203   0.433   9.029  0.3220  1.7612  1.4322
 1954SOL     OW 5860   2.583   3.371   9.808  0.8058 -0.1220 -0.2573
 1954SOL    HW1 5861   2.492   3.392   9.830  1.0611  1.2135 -0.4155
 1954SOL    HW2 5862   2.627   3.364   9.893  0.4396 -1.4453 -0.1495
 1955SOL     OW 5863   4.374   4.031   7.734 -0.1630 -0.0820 -0.2961
 1955SOL    HW1 5864   4.313   3.975   7.685 -1.1432 -1.9129  2.7364
 1955SOL    HW2 5865   4.364   4.003   7.825  3.3298  1.3941  0.6993
 1956SOL     OW 5866   0.114   0.615   9.001 -0.3895 -0.3179  0.7645
 1956SOL    HW1 5867   0.167   0.641   8.925  0.8814 -1.8022  1.0779
 1956SOL    HW2 5868   0.157   0.535   9.033 -0.3875  0.6948  3.5532
 1957SOL     OW 5869   4.957   3.633   9.312 -0.4472 -0.4041 -0.6683
 1957SOL    HW1 5870   4.971   3.567   9.381  1.6457 -0.8986 -1.4947
 1957SOL    HW2 5871   4.865   3.623   9.288 -0.3665 -2.6215 -0.3174
 1958SOL     OW 5872   3.166   3.671   8.494  0.5772 -0.3651  0.3227
 1958SOL    HW1 5873   3.118   3.658   8.576  0.8667 -0.8313  0.4194
 1958SOL    HW2 5874   3.214   3.590   8.480  1.2079  0.0293  0.1341
 1959SOL     OW 5875   3.672   3.713   7.750 -0.8894 -0.1175  0.3439
 1959SOL    HW1 5876   3.716   3.696   7.667 -0.7172 -0.1729  0.4474
 1959SOL    HW2 5877   3.652   3.807   7.747 -0.8614 -0.1141  0.2523
 1960SOL     OW 5878   2.548   1.780   9.685 -0.6234  0.2558 -0.2059
 1960SOL    HW1 5879   2.553   1.799   9.591 -0.9076  2.3753  0.1739
 1960SOL    HW2 5880   2.591   1.695   9.694  0.5453  0.5891 -2.0789
 1961SOL     OW 5881   0.879   3.033   8.504  0.0897 -0.3503  0.0410
 1961SOL    HW1 5882   0.920   3.061   8.423  0.1126  0.5888  0.3696
 1961SOL    HW2 5883   0.951   3.005   8.560  0.2227  0.5015  0.3094
 1962SOL     OW 5884   1.296   2.143   9.405 -0.5322 -0.0443  0.0301
 1962SOL    HW1 5885   1.235   2.180   9.469 -1.3993 -1.7510  0.2407
 1962SOL    HW2 5886   1.296   2.205   9.332  0.4614  1.9396  1.6163
 1963SOL     OW 5887   0.599   3.147  10.105 -0.1818 -0.2726  0.0183
 1963SOL    HW1 5888   0.560   3.231  10.081 -1.9291 -0.9908  0.1692
 1963SOL    HW2 5889   0.614   3.102  10.022  1.4533  0.4515 -0.1073
 1964SOL     OW 5890   4.927   3.702   8.241  0.2749 -0.0351 -0.0369
 1964SOL    HW1 5891   4.996   3.697   8.175 -1.3175  2.4204 -2.0681
 1964SOL    HW2 5892   4.971   3.681   8.324  2.5407 -2.4116 -1.6882
 1965SOL     OW 5893   4.538   4.235  10.128  0.1934  0.1941 -0.4112
 1965SOL    HW1 5894   4.451   4.262  10.156  0.8209  1.9955 -0.0937
 1965SOL    HW2 5895   4.525   4.206  10.037 -0.9786 -1.0401  0.1160
 1966SOL     OW 5896   0.767   3.307   7.345  0.0931  0.7166  0.4531
 1966SOL    HW1 5897   0.823   3.307   7.423  1.0616  0.7749 -0.2288
 1966SOL    HW2 5898   0.819   3.351   7.278  0.1535 -1.2128 -0.8416
 1967SOL     OW 5899   1.878   1.818   7.047 -0.2474 -0.3652  0.4723
 1967SOL    HW1 5900   1.917   1.897   7.009  0.8415 -0.3207  1.6146
 1967SOL    HW2 5901   1.819   1.786   6.980 -1.3878  1.9004  0.2837
 1968SOL     OW 5902   4.529   1.547   8.525 -0.0449  0.2458 -0.0066
 1968SOL    HW1 5903   4.446   1.500   8.528 -0.6627  1.2103  4.0530
 1968SOL    HW2 5904   4.511   1.627   8.477 -1.9779  1.0862  1.9526
 1969SOL     OW 5905   4.631   1.055  10.516 -0.5875  0.1650  0.2377
 1969SOL    HW1 5906   4.638   1.083  10.425 -2.7372  1.7263  0.4704
 1969SOL    HW2 5907   4.638   0.959  10.512 -0.9148  0.1808 -1.5958
 1970SOL     OW 5908   3.908   1.856   9.878  0.5382 -0.7470  0.1357
 1970SOL    HW1 5909   3.941   1.768   9.857  2.5746 -0.1567  0.5676
 1970SOL    HW2 5910   3.881   1.892   9.794  0.2934 -1.5528 -0.1396
 1971SOL     OW 5911   1.039   4.223   7.055  0.3454  0.4641 -0.8160
 1971SOL    HW1 5912   1.001   4.281   7.121  1.2383  0.5691 -0.3782
 1971SOL    HW2 5913   1.123   4.196   7.093  1.5543  1.6802 -2.5073
 1972SOL     OW 5914   0.744   0.049   8.517  0.3067 -0.4662  0.3664
 1972SOL    HW1 5915   0.665   0.093   8.548  1.5101  1.8210  0.4229
 1972SOL    HW2 5916   0.718   0.011   8.433 -0.9076  0.0276  0.4906
 1973SOL     OW 5917   4.539   0.612   9.153 -0.5777 -0.0384  0.1229
 1973SOL    HW1 5918   4.492   0.573   9.080 -1.6956 -0.3498  0.9877
 1973SOL    HW2 5919   4.564   0.537   9.208  0.8688  0.1276 -0.2700
 1974SOL     OW 5920   3.311   2.525   8.332 -0.4766  0.1599 -0.3297
 1974SOL    HW1 5921   3.325   2.446   8.383 -1.9897  1.1925  1.8133
 1974SOL    HW2 5922   3.362   2.511   8.252  1.0677 -2.0191  0.9322
 1975SOL     OW 5923   5.034   2.343   9.358 -0.4290 -0.4080  0.1668
 1975SOL    HW1 5924   4.946   2.335   9.321  0.3401  1.8886 -2.5102
 1975SOL    HW2 5925   5.020   2.351   9.452 -3.4802  3.3355 -0.3824
 1976SOL     OW 5926   0.473   4.076   8.812 -0.0490 -0.0628  0.0048
 1976SOL    HW1 5927   0.474   4.142   8.743 -2.4322  0.0955  0.0392
 1976SOL    HW2 5928   0.459   4.125   8.892  1.5141 -0.3595  0.4957
 1977SOL     OW 5929   3.606   2.970   9.995 -0.2958 -0.0335 -0.3711
 1977SOL    HW1 5930   3.524   2.921   9.993 -0.3673  0.0006  0.9134
 1977SOL    HW2 5931   3.614   3.007   9.907 -2.6391  1.5236 -0.0186
 1978SOL     OW 5932   0.841   0.850  10.228 -0.7932  0.3245  0.5880
 1978SOL    HW1 5933   0.926   0.877  10.192 -0.9909  1.2260  0.7824
 1978SOL    HW2 5934   0.853   0.758  10.252  0.4251  0.7072  1.5197
 1979SOL     OW 5935   2.055   2.672   8.906  0.5597  0.0928  0.2421
 1979SOL    HW1 5936   2.014   2.631   8.829  1.1896  0.1412 -0.1250
 1979SOL    HW2 5937   2.149   2.663   8.890  0.6926  0.3013  0.9082
 1980SOL     OW 5938   2.826   4.078   9.214  1.3088 -0.5068  0.4347
 1980SOL    HW1 5939   2.750   4.101   9.161  2.5121 -3.2690 -2.8396
 1980SOL    HW2 5940   2.896   4.135   9.183  1.0069  1.1512  2.5586
 1981SOL     OW 5941   2.692   0.557   9.685  0.2969  0.5529 -0.9211
 1981SOL    HW1 5942   2.669   0.495   9.616 -0.4454  1.4465 -1.4958
 1981SOL    HW2 5943   2.711   0.638   9.639  0.9134  0.8505 -0.1512
 1982SOL     OW 5944   1.314   2.394   9.752 -0.2810  0.4009 -0.2308
 1982SOL    HW1 5945   1.377   2.322   9.746  0.4930  1.1026 -0.8517
 1982SOL    HW2 5946   1.232   2.358   9.718 -0.0627 -0.3483  0.0266
 1983SOL     OW 5947   2.827   4.813   8.105  0.9368 -0.0364 -0.2185
 1983SOL    HW1 5948   2.752   4.812   8.165 -0.2126  0.4197 -1.5798
 1983SOL    HW2 5949   2.902   4.791   8.160 -0.5275 -3.3133  0.7502
 1984SOL     OW 5950   2.624   0.349   9.474  0.2394 -0.4460 -0.2747
 1984SOL    HW1 5951   2.533   0.356   9.502  0.1378  0.4667 -0.8099
 1984SOL    HW2 5952   2.621   0.292   9.397 -0.8493  4.2031 -4.2086
 1985SOL     OW 5953   4.383   0.206   5.900 -0.2885  0.3790 -0.3946
 1985SOL    HW1 5954   4.461   0.182   5.849  0.5294 -1.1348  1.4437
 1985SOL    HW2 5955   4.393   0.159   5.983 -2.7967  0.7573  0.2091
 1986SOL     OW 5956   2.441   4.128   9.875 -0.1333  0.3010 -0.1683
 1986SOL    HW1 5957   2.391   4.210   9.881  0.0656  0.3529  1.0819
 1986SOL    HW2 5958   2.394   4.076   9.810  0.3416  1.8015 -1.8097
 1987SOL     OW 5959   0.017   2.140   8.988  0.2378 -0.0325 -0.1012
 1987SOL    HW1 5960   0.052   2.131   8.899  3.0847  0.9121  0.8104
 1987SOL    HW2 5961  -0.003   2.051   9.015  1.7154 -0.6235 -0.8386
 1988SOL     OW 5962   1.106   0.335   9.163 -0.7358 -0.0671 -0.6273
 1988SOL    HW1 5963   1.068   0.354   9.249 -1.2945 -0.8959 -0.6816
 1988SOL    HW2 5964   1.200   0.348   9.175 -0.8511  0.2518 -0.0094
 1989SOL     OW 5965   2.920   1.722   9.168 -0.3760 -0.2876 -0.3659
 1989SOL    HW1 5966   2.920   1.636   9.127  0.7376 -0.1046 -0.7850
 1989SOL    HW2 5967   2.890   1.706   9.257 -0.8052 -1.0067 -0.6319
 1990SOL     OW 5968   2.604   1.063   9.303  0.0970  0.0249  0.1200
 1990SOL    HW1 5969   2.664   1.133   9.274  0.7627 -0.5372  0.1124
 1990SOL    HW2 5970   2.560   1.036   9.222  2.3024 -1.8724 -0.5740
 1991SOL     OW 5971   0.651   2.622   9.415 -0.3584  1.1121  0.6940
 1991SOL    HW1 5972   0.663   2.668   9.332  1.0506  1.4339  1.0543
 1991SOL    HW2 5973   0.613   2.537   9.390 -0.0301  1.2359 -0.2736
 1992SOL     OW 5974   0.140   4.623   7.924  0.0821  0.0186 -0.3178
 1992SOL    HW1 5975   0.192   4.570   7.864 -0.6476  0.6127 -1.5183
 1992SOL    HW2 5976   0.187   4.618   8.007  1.7608  0.1144 -1.2141
 1993SOL     OW 5977   2.078   4.560   9.287  1.0925  0.0621  0.8125
 1993SOL    HW1 5978   2.052   4.556   9.379  0.5136 -0.8436  0.6162
 1993SOL    HW2 5979   1.997   4.580   9.239  1.1965 -0.4695  0.4077
 1994SOL     OW 5980   3.858   4.672   9.584 -0.0744  0.1845  0.8979
 1994SOL    HW1 5981   3.865   4.616   9.506 -0.1677  0.5638  0.6179
 1994SOL    HW2 5982   3.765   4.670   9.607 -0.2029  0.8270  0.4434
 1995SOL     OW 5983   1.034   4.260   9.434 -0.2198 -0.6727 -0.2409
 1995SOL    HW1 5984   1.058   4.209   9.511  5.0911  2.6775  0.8593
 1995SOL    HW2 5985   1.078   4.217   9.361 -1.6635 -1.4210 -0.7181
 1996SOL     OW 5986   2.134   4.987   9.826  0.2127  0.5827 -0.2075
 1996SOL    HW1 5987   2.170   5.053   9.885  0.6247  0.9176 -0.8181
 1996SOL    HW2 5988   2.100   4.919   9.884  3.2811 -0.5663  0.4353
 1997SOL     OW 5989   3.037   0.617   9.332 -0.2544  0.5927 -0.8033
 1997SOL    HW1 5990   3.120   0.635   9.377 -0.7953  1.9384 -0.2892
 1997SOL    HW2 5991   2.994   0.551   9.386  1.5428 -2.1696 -2.4413
 1998SOL     OW 5992   0.990   0.167   8.613  0.0071 -0.0195 -0.2595
 1998SOL    HW1 5993   0.974   0.143   8.521  0.8313 -2.6221  0.1811
 1998SOL    HW2 5994   0.903   0.182   8.649 -0.3928  0.1376 -1.2426
 1999SOL     OW 5995   3.239   0.148   9.884  0.2219  0.1859 -0.1341
 1999SOL    HW1 5996   3.293   0.096   9.826  3.9329  1.2702  2.0129
 1999SOL    HW2 5997   3.235   0.097   9.965 -1.2385  0.5759  0.0718
 2000SOL     OW 5998   2.319   0.089   9.326  0.5995 -0.1065  1.4314
 2000SOL    HW1 5999   2.260   0.084   9.401 -0.0135 -0.8554  0.9152
 2000SOL    HW2 6000   2.285   0.025   9.264 -0.0412  1.7817 -0.2979
 2001SOL     OW 6001   3.740   2.813   9.123 -0.6913 -0.4063 -0.3830
 2001SOL    HW1 6002   3.813   2.755   9.143 -1.3135 -0.5076  1.8409
 2001SOL    HW2 6003   3.674   2.756   9.083 -3.2423 -2.7130  5.8478
 2002SOL     OW 6004   3.443   1.176   6.329 -0.3316 -0.1116 -0.4260
 2002SOL    HW1 6005   3.358   1.147   6.295 -0.2997  0.5375 -1.0622
 2002SOL    HW2 6006   3.480   1.230   6.260 -0.2561  1.2244  0.6124
 2003SOL     OW 6007   0.079   0.521   9.983  0.0572 -0.2297 -0.9344
 2003SOL    HW1 6008   0.167   0.557   9.996  0.9158 -2.4566 -0.0200
 2003SOL    HW2 6009   0.084   0.477   9.898  0.3050 -1.5315 -0.2726
 2004SOL     OW 6010   4.652   1.017   9.685  0.3686  0.5729  0.3233
 2004SOL    HW1 6011   4.720   1.026   9.618  0.5966  2.1799  0.7483
 2004SOL    HW2 6012   4.700   1.013   9.767  0.0701 -1.1213  0.4591
 2005SOL     OW 6013   4.660   0.727   9.393  0.3584 -0.5490  0.1319
 2005SOL    HW1 6014   4.658   0.658   9.327  2.8342 -0.3496 -0.2508
 2005SOL    HW2 6015   4.721   0.792   9.359 -1.5712  1.6995  0.6820
 2006SOL     OW 6016   4.492   1.042   8.557  0.2663  0.5876 -0.0314
 2006SOL    HW1 6017   4.525   1.061   8.645  0.8292 -0.5083  0.0070
 2006SOL    HW2 6018   4.397   1.035   8.568  0.3433  0.3478  0.5141
 2007SOL     OW 6019   4.914   0.688   8.128 -0.1470  0.2843  0.5840
 2007SOL    HW1 6020   4.888   0.724   8.043  0.4094  1.4987  0.9038
 2007SOL    HW2 6021   4.953   0.603   8.108  2.5348  1.7088 -0.7355
 2008SOL     OW 6022   4.218   0.146   9.709  0.0551 -0.0624  0.0836
 2008SOL    HW1 6023   4.285   0.086   9.741  2.0059  2.0966  0.2787
 2008SOL    HW2 6024   4.203   0.207   9.782 -0.6439  0.7023 -0.6685
 2009SOL     OW 6025   4.108   3.465   9.130 -0.5816  0.5481  0.1773
 2009SOL    HW1 6026   4.125   3.491   9.040  0.5097  4.0636  1.1983
 2009SOL    HW2 6027   4.120   3.370   9.131 -1.0929  0.3114 -3.4076
 2010SOL     OW 6028   1.225   2.419  10.406  0.6876  0.4753  0.0353
 2010SOL    HW1 6029   1.165   2.427  10.479  0.0571 -2.4108 -0.0595
 2010SOL    HW2 6030   1.181   2.463  10.333  0.4612  1.6834  0.8784
 2011SOL     OW 6031   2.991   2.347   8.667 -0.5808 -0.1361  0.4466
 2011SOL    HW1 6032   2.926   2.277   8.680  1.8642 -3.1854 -2.0583
 2011SOL    HW2 6033   3.066   2.320   8.719  1.3618 -0.9622 -2.5598
 2012SOL     OW 6034   0.357   4.742   8.490  0.5842 -0.0254  0.4987
 2012SOL    HW1 6035   0.438   4.692   8.485 -0.3293 -1.4128 -1.5982
 2012SOL    HW2 6036   0.290   4.679   8.516 -0.4802  0.1662 -1.5635
 2013SOL     OW 6037   4.456   1.323   5.384 -0.5256  0.5498  0.1563
 2013SOL    HW1 6038   4.536   1.277   5.358 -0.8666  0.9856 -1.8552
 2013SOL    HW2 6039   4.481   1.415   5.390 -1.3035  1.1060 -3.0734
 2014SOL     OW 6040   4.434   3.134   9.239 -0.0060 -0.3873 -0.1337
 2014SOL    HW1 6041   4.463   3.086   9.162  0.9816 -1.7053  1.0061
 2014SOL    HW2 6042   4.402   3.066   9.299  1.3855  0.3510  1.5085
 2015SOL     OW 6043   0.654   0.788  10.579  0.3712  0.2082 -0.4115
 2015SOL    HW1 6044   0.734   0.781  10.630  0.7983  0.7974 -0.9785
 2015SOL    HW2 6045   0.676   0.749  10.494  0.0963  0.4794 -0.6109
 2016SOL     OW 6046   0.906   0.939   8.135  0.9187  0.3591  0.3513
 2016SOL    HW1 6047   0.983   0.883   8.142  0.5070 -0.4730 -1.1588
 2016SOL    HW2 6048   0.886   0.940   8.041  1.3244  3.6628  0.1999
 2017SOL     OW 6049   1.716   2.326  10.370  0.3628  0.0546  0.0059
 2017SOL    HW1 6050   1.627   2.362  10.365  0.2969  0.2632  1.7820
 2017SOL    HW2 6051   1.771   2.402  10.390  0.7352 -0.2770  0.2564
 2018SOL     OW 6052   0.078   2.445   8.490 -0.2772 -0.1400 -0.8296
 2018SOL    HW1 6053   0.064   2.540   8.492 -1.1635 -0.2663  0.9209
 2018SOL    HW2 6054   0.043   2.418   8.405 -0.3690  1.0416 -1.1901
 2019SOL     OW 6055   4.568   4.534   8.509  0.5535  0.1032 -0.2769
 2019SOL    HW1 6056   4.647   4.486   8.482  1.1052  0.5208  0.5440
 2019SOL    HW2 6057   4.601   4.616   8.544 -0.1421 -0.2572  1.3090
 2020SOL     OW 6058   4.867   3.310   6.651 -0.0736 -0.1531 -0.4372
 2020SOL    HW1 6059   4.958   3.288   6.634  0.4965  2.4749 -1.3381
 2020SOL    HW2 6060   4.860   3.315   6.746  0.4780 -1.2146 -0.3325
 2021SOL     OW 6061   1.397   4.886   9.580 -0.8084  0.2170  0.1349
 2021SOL    HW1 6062   1.347   4.882   9.662 -1.3089  0.8286 -0.1297
 2021SOL    HW2 6063   1.488   4.899   9.608 -0.9517  0.2465  0.5973
 2022SOL     OW 6064   4.680   2.934   8.708  0.0073  0.3688 -0.2396
 2022SOL    HW1 6065   4.758   2.881   8.724  3.0426  3.5995 -2.7689
 2022SOL    HW2 6066   4.704   3.022   8.736 -3.5331  1.2131  0.6698
 2023SOL     OW 6067   0.597   2.480  10.286  0.2030 -0.0105  0.0785
 2023SOL    HW1 6068   0.524   2.488  10.347 -0.7389  0.1383 -1.0377
 2023SOL    HW2 6069   0.581   2.397  10.241  0.9535 -0.1786  0.1105
 2024SOL     OW 6070   2.451   2.195   6.653 -0.0229  0.0990  0.7538
 2024SOL    HW1 6071   2.458   2.106   6.621  0.6710 -0.2993  1.9490
 2024SOL    HW2 6072   2.402   2.242   6.585  0.3693 -0.9690 -0.2882
 2025SOL     OW 6073   4.247   2.993   8.551  0.4420 -0.0360 -0.2643
 2025SOL    HW1 6074   4.155   2.972   8.536 -0.4009  3.7276 -1.4562
 2025SOL    HW2 6075   4.264   2.964   8.640 -1.8293 -0.9478 -0.0444
 2026SOL     OW 6076   0.470   4.711   8.948 -0.1048 -0.4719 -0.6561
 2026SOL    HW1 6077   0.562   4.699   8.927  0.0274 -1.8737  0.5449
 2026SOL    HW2 6078   0.468   4.790   9.003  0.4117 -0.5618 -0.5033
 2027SOL     OW 6079   0.330   3.227   9.760 -0.0486 -0.1688  0.4004
 2027SOL    HW1 6080   0.425   3.239   9.754 -0.3097  1.8894 -0.1698
 2027SOL    HW2 6081   0.308   3.178   9.680  0.6291 -1.7071  1.1018
 2028SOL     OW 6082   2.395   0.367   9.637  0.5052 -0.2781 -0.2000
 2028SOL    HW1 6083   2.391   0.439   9.699 -0.1688 -0.2318 -0.2940
 2028SOL    HW2 6084   2.304   0.347   9.616  0.5213 -2.6491  1.5633
 2029SOL     OW 6085   2.002   3.321   8.004 -0.0662 -0.0905  0.1794
 2029SOL    HW1 6086   2.027   3.386   8.070 -1.1921 -0.7585  1.3184
 2029SOL    HW2 6087   1.916   3.351   7.974 -1.0703 -1.5490  1.4631
 2030SOL     OW 6088   1.196   0.874  10.107  0.2027 -0.3032  0.4419
 2030SOL    HW1 6089   1.288   0.899  10.109  0.3506 -0.3735 -2.4600
 2030SOL    HW2 6090   1.152   0.947  10.062 -1.4176  0.2813  2.7705
 2031SOL     OW 6091   1.552   1.548  10.011 -0.3326 -0.7349 -0.3140
 2031SOL    HW1 6092   1.616   1.481   9.990 -0.8732 -0.6214 -2.6143
 2031SOL    HW2 6093   1.579   1.582  10.096  1.2244 -2.3361 -0.1234
 2032SOL     OW 6094   0.867   1.011   9.866 -0.6363 -0.4743 -0.4297
 2032SOL    HW1 6095   0.938   1.054   9.913 -1.7211  0.1163  0.7455
 2032SOL    HW2 6096   0.893   0.920   9.861  0.0971 -0.3090  0.2050
 2033SOL     OW 6097   0.505   1.965   6.787  0.1799  0.7353 -0.1199
 2033SOL    HW1 6098   0.508   1.979   6.881  0.3479 -1.6783  0.3168
 2033SOL    HW2 6099   0.416   1.990   6.761 -0.2895  0.2079  0.9317
 2034SOL     OW 6100   0.842   3.065  10.168  0.3306 -0.5521  0.2506
 2034SOL    HW1 6101   0.887   3.126  10.110 -1.5851  1.9434  1.2146
 2034SOL    HW2 6102   0.750   3.088  10.160 -0.9530 -5.1321 -1.3185
 2035SOL     OW 6103   2.592   2.059   9.100  0.1432  0.3343  0.1686
 2035SOL    HW1 6104   2.560   2.076   9.012  1.7004  0.7891 -0.3352
 2035SOL    HW2 6105   2.563   1.970   9.119 -0.7077  0.4416 -0.5635
 2036SOL     OW 6106   3.260   3.197   9.608  0.4152  0.5209  0.3963
 2036SOL    HW1 6107   3.227   3.188   9.518 -1.6373  2.8691  0.8054
 2036SOL    HW2 6108   3.337   3.253   9.600  0.7376  0.0318  0.0272
 2037SOL     OW 6109   3.931   4.452   7.565  0.1346 -0.0450  0.5924
 2037SOL    HW1 6110   3.931   4.439   7.660  1.2612 -0.1015  0.5961
 2037SOL    HW2 6111   3.940   4.364   7.529  0.7696  0.0689  0.4625
 2038SOL     OW 6112   4.076   3.396   9.443  0.6640  0.7050 -0.3267
 2038SOL    HW1 6113   4.100   3.408   9.535  0.6603 -3.3119  0.3839
 2038SOL    HW2 6114   4.157   3.369   9.400  0.3434  1.0397 -1.1596
 2039SOL     OW 6115   0.495   3.196   7.305 -0.4610  0.5396 -0.2857
 2039SOL    HW1 6116   0.584   3.227   7.286 -0.2746  0.6322  0.6780
 2039SOL    HW2 6117   0.491   3.110   7.262 -0.0682  0.7404 -0.7351
 2040SOL     OW 6118   4.906   3.282   8.922  0.1396  0.7337 -0.5537
 2040SOL    HW1 6119   4.849   3.211   8.951 -0.5731 -0.0103 -3.4283
 2040SOL    HW2 6120   4.984   3.275   8.977 -0.6797 -1.1101  0.4449
 2041SOL     OW 6121   2.670   4.866   9.251  0.3986  0.2600 -0.2024
 2041SOL    HW1 6122   2.704   4.907   9.331 -1.4178  1.3980  0.0370
 2041SOL    HW2 6123   2.697   4.924   9.180  1.1512 -0.2226 -0.3235
 2042SOL     OW 6124   4.424   0.846   9.210  0.1891 -0.0743 -0.1073
 2042SOL    HW1 6125   4.414   0.836   9.305 -1.3626 -0.7905 -0.3178
 2042SOL    HW2 6126   4.480   0.773   9.184  0.7435  0.2102  0.2642
 2043SOL     OW 6127   4.448   4.392   7.916 -0.0005  0.6059 -0.2290
 2043SOL    HW1 6128   4.368   4.421   7.959  1.2522  3.8640  0.2049
 2043SOL    HW2 6129   4.461   4.453   7.844  1.0595 -1.1283 -1.6245
 2044SOL     OW 6130   4.692   4.492   7.843  0.0805 -0.0907 -0.5349
 2044SOL    HW1 6131   4.615   4.467   7.896 -0.7518  0.1473 -1.5963
 2044SOL    HW2 6132   4.656   4.546   7.773  1.5098  2.0309  0.2661
 2045SOL     OW 6133   1.525   4.812   8.879  0.1654  0.0285 -0.3246
 2045SOL    HW1 6134   1.492   4.863   8.805  0.1165 -0.6169 -0.7639
 2045SOL    HW2 6135   1.618   4.799   8.859 -0.6262 -3.7787 -2.5694
 2046SOL     OW 6136   0.482   1.732   9.540 -0.7182 -0.8419 -0.4532
 2046SOL    HW1 6137   0.575   1.754   9.548 -1.2498  1.9364 -0.6701
 2046SOL    HW2 6138   0.469   1.720   9.446 -0.6733 -0.6830 -0.4803
 2047SOL     OW 6139   4.993   2.741   8.479  0.0077 -0.0222  0.6802
 2047SOL    HW1 6140   5.045   2.815   8.448 -0.7580  1.1905  2.1543
 2047SOL    HW2 6141   4.902   2.768   8.463 -0.2518 -1.1098  0.2725
 2048SOL     OW 6142   3.448   0.472   6.977  0.2265 -1.0585  0.4695
 2048SOL    HW1 6143   3.381   0.537   6.955  2.8896  3.8244  4.4316
 2048SOL    HW2 6144   3.470   0.430   6.894 -2.7141  2.2643 -2.2884
 2049SOL     OW 6145   0.046   1.156   8.780  0.2290  0.2811 -0.7347
 2049SOL    HW1 6146   0.014   1.072   8.748 -0.2782  0.3501 -0.4257
 2049SOL    HW2 6147   0.109   1.133   8.849 -0.3116  0.1529 -0.2735
 2050SOL     OW 6148   2.006   0.837   9.268 -0.0038 -0.4717 -0.4082
 2050SOL    HW1 6149   2.005   0.930   9.246 -1.9720 -0.8754 -2.4418
 2050SOL    HW2 6150   2.097   0.809   9.254  0.5237  1.0490 -0.1569
 2051SOL     OW 6151   1.425   2.562   8.581 -0.5308  0.3571  0.3653
 2051SOL    HW1 6152   1.476   2.486   8.555 -1.9249  0.0278 -1.6134
 2051SOL    HW2 6153   1.337   2.528   8.597 -1.1135  1.4905 -0.2905
 2052SOL     OW 6154   1.608   0.238   8.298 -0.6968 -0.6858  0.4758
 2052SOL    HW1 6155   1.535   0.218   8.356 -1.6350 -1.2128 -0.8233
 2052SOL    HW2 6156   1.568   0.243   8.211  0.6409  0.1428 -0.1293
 2053SOL     OW 6157   3.243   3.979   9.216 -0.2540 -0.0526 -0.4798
 2053SOL    HW1 6158   3.267   3.982   9.308  0.3552 -0.9948 -0.5942
 2053SOL    HW2 6159   3.201   4.064   9.199  0.7846  0.6516  0.3410
 2054SOL     OW 6160   1.922   0.529   7.592  0.1599  0.0655 -0.4944
 2054SOL    HW1 6161   2.004   0.574   7.611  0.1198  1.3585 -2.9585
 2054SOL    HW2 6162   1.855   0.596   7.601 -0.7984 -1.0974  2.0217
 2055SOL     OW 6163   3.387   1.383   9.700 -0.4942 -0.1395  0.0737
 2055SOL    HW1 6164   3.323   1.449   9.674  0.2946  1.9468  2.9431
 2055SOL    HW2 6165   3.466   1.406   9.651 -0.5431  0.4114  0.2408
 2056SOL     OW 6166   2.962   4.579   6.615  0.0471 -0.1378 -0.6449
 2056SOL    HW1 6167   2.921   4.537   6.690 -0.3564 -1.7937 -1.7406
 2056SOL    HW2 6168   3.054   4.591   6.641  0.2412 -1.9958 -0.3827
 2057SOL     OW 6169   1.427   1.170   8.182 -0.1368  0.2798  0.6242
 2057SOL    HW1 6170   1.432   1.101   8.116  2.2169  1.3049 -0.3916
 2057SOL    HW2 6171   1.471   1.134   8.259  1.9597  0.8708 -0.2205
 2058SOL     OW 6172   1.453   1.839  10.270  0.7483 -0.2305  0.0402
 2058SOL    HW1 6173   1.448   1.933  10.283  0.3118 -0.0121 -1.4977
 2058SOL    HW2 6174   1.382   1.819  10.208  0.1341 -1.7374  1.1649
 2059SOL     OW 6175   4.183   4.607   8.562  0.2555 -0.1663 -0.1561
 2059SOL    HW1 6176   4.220   4.689   8.529 -0.2171  1.1294  2.2766
 2059SOL    HW2 6177   4.101   4.597   8.513  0.7103  0.3842 -1.0524
 2060SOL     OW 6178   0.617   0.676   9.212  1.2415  0.0346 -0.0690
 2060SOL    HW1 6179   0.629   0.637   9.299  1.6316  1.4433  0.5376
 2060SOL    HW2 6180   0.686   0.637   9.159  1.7325  0.0303  0.5600
 2061SOL     OW 6181   3.235   3.920   9.887  0.8372  0.0501 -0.1667
 2061SOL    HW1 6182   3.239   3.987   9.819 -0.6675 -0.9950 -1.3450
 2061SOL    HW2 6183   3.206   3.968   9.965  2.3842  1.2268 -0.2628
 2062SOL     OW 6184   3.043   4.209   8.721 -0.0007 -0.2681  0.3725
 2062SOL    HW1 6185   3.053   4.279   8.786  2.2366 -0.7095  0.5896
 2062SOL    HW2 6186   2.949   4.203   8.706 -0.4766  0.7770  2.5591
 2063SOL     OW 6187   1.449   2.427  10.265 -0.4465  0.7387 -0.0181
 2063SOL    HW1 6188   1.374   2.416  10.323 -0.6106 -3.4780 -0.7119
 2063SOL    HW2 6189   1.411   2.451  10.181 -0.9908 -0.4827 -0.1418
 2064SOL     OW 6190   3.621   4.701   9.089  0.1633  0.1217  0.4781
 2064SOL    HW1 6191   3.638   4.614   9.051 -0.0936  0.3401 -0.1434
 2064SOL    HW2 6192   3.650   4.693   9.180  0.3272 -0.5582  0.3733
 2065SOL     OW 6193   4.268   2.426   9.541 -0.1905  0.2266 -1.2768
 2065SOL    HW1 6194   4.297   2.482   9.470  1.6522  2.8963  1.3240
 2065SOL    HW2 6195   4.349   2.389   9.577 -0.4591  2.1733  1.7591
 2066SOL     OW 6196   1.101   4.166   8.885 -0.2725  0.3466 -0.5156
 2066SOL    HW1 6197   1.176   4.177   8.943 -1.2647  3.1365  0.4245
 2066SOL    HW2 6198   1.042   4.107   8.932 -0.2213  1.0522  0.4537
 2067SOL     OW 6199   4.165   2.366   8.188 -0.4979  0.3994 -0.4057
 2067SOL    HW1 6200   4.144   2.279   8.222 -1.6570  1.6435  2.3968
 2067SOL    HW2 6201   4.209   2.349   8.104 -1.8228 -2.7965 -0.6129
 2068SOL     OW 6202   3.293   1.756   9.830 -0.6765 -0.9198  0.0463
 2068SOL    HW1 6203   3.292   1.700   9.908 -0.5943 -0.5175  0.3406
 2068SOL    HW2 6204   3.226   1.822   9.847  0.4711  0.1594  0.5144
 2069SOL     OW 6205   0.036   3.240   8.175  0.4192  0.0365 -0.4658
 2069SOL    HW1 6206   0.094   3.302   8.131 -1.4516  2.1046 -0.1655
 2069SOL    HW2 6207   0.020   3.172   8.109  4.5533 -1.7119  0.0307
 2070SOL     OW 6208   2.882   4.963   8.807  0.2535 -0.2854 -0.3405
 2070SOL    HW1 6209   2.830   4.888   8.778 -0.0659 -0.6327  1.0474
 2070SOL    HW2 6210   2.962   4.925   8.842  0.7046  0.1276 -0.9250
 2071SOL     OW 6211   2.535   2.812   9.658 -0.1473  1.2717 -0.1372
 2071SOL    HW1 6212   2.486   2.731   9.674  0.2752  0.9384 -0.5129
 2071SOL    HW2 6213   2.479   2.881   9.694 -1.0614  0.9429 -0.8792
 2072SOL     OW 6214   2.403   2.677  10.025  0.4177 -0.1814  0.1901
 2072SOL    HW1 6215   2.329   2.618  10.040  0.4109  0.1657  1.6854
 2072SOL    HW2 6216   2.426   2.664   9.933 -0.4624 -1.4853  0.1319
 2073SOL     OW 6217   3.813   1.631   5.546 -0.3128 -0.1762 -0.5636
 2073SOL    HW1 6218   3.734   1.605   5.594  0.0202  1.4532  0.9508
 2073SOL    HW2 6219   3.882   1.577   5.583 -0.0329  1.1659  0.9675
 2074SOL     OW 6220   2.226   3.882   9.295 -0.3197  0.1301 -0.3458
 2074SOL    HW1 6221   2.168   3.840   9.359  0.5015  0.5878  0.7293
 2074SOL    HW2 6222   2.279   3.942   9.347  0.9476 -0.0974 -1.3402
 2075SOL     OW 6223   4.455   1.914   9.681 -0.2828  0.6120  0.5049
 2075SOL    HW1 6224   4.481   1.878   9.766  0.7845 -1.0314 -0.4506
 2075SOL    HW2 6225   4.361   1.929   9.689 -0.0842  1.1518  2.1812
 2076SOL     OW 6226   0.173   0.664   9.355  0.4382 -0.0093 -0.1114
 2076SOL    HW1 6227   0.235   0.614   9.407 -0.5618 -2.2940 -0.9871
 2076SOL    HW2 6228   0.215   0.672   9.269  0.8350  1.2415  0.1664
 2077SOL     OW 6229   0.858   0.673   8.481  0.2989  0.2452  0.0347
 2077SOL    HW1 6230   0.851   0.618   8.403  0.2490 -0.6854  0.6907
 2077SOL    HW2 6231   0.819   0.622   8.551  2.5722 -0.0260  1.2151
 2078SOL     OW 6232   4.354   4.047  10.295  0.2198 -0.4356 -0.1700
 2078SOL    HW1 6233   4.268   4.016  10.264  0.4979 -0.6505 -0.7293
 2078SOL    HW2 6234   4.395   3.969  10.332  0.0107 -0.2435  0.4791
 2079SOL     OW 6235  -0.020   2.310   6.702 -0.0064 -0.2309  0.3899
 2079SOL    HW1 6236   0.065   2.318   6.658 -0.0931  0.5129  0.3441
 2079SOL    HW2 6237  -0.037   2.216   6.703  1.3179 -0.5008  1.3754
 2080SOL     OW 6238   3.930   1.049   8.210  0.0498 -0.0370 -0.2683
 2080SOL    HW1 6239   3.861   1.110   8.182  0.0054  0.8889  1.6859
 2080SOL    HW2 6240   4.012   1.094   8.188  0.0286 -0.0888 -0.4580
 2081SOL     OW 6241   0.391   1.300   9.213  0.0824 -0.0331 -0.0059
 2081SOL    HW1 6242   0.447   1.296   9.290 -0.0378 -0.7200  0.0493
 2081SOL    HW2 6243   0.303   1.314   9.247  0.0543 -0.1594 -0.0248
 2082SOL     OW 6244   0.949   0.400   9.419  0.5332  0.5913  0.3953
 2082SOL    HW1 6245   0.910   0.437   9.339  2.2250  0.2280 -0.6609
 2082SOL    HW2 6246   0.890   0.330   9.445  1.5643 -1.6197 -2.5856
 2083SOL     OW 6247   2.104   3.715   8.615  0.3537  0.9341 -0.2596
 2083SOL    HW1 6248   2.064   3.770   8.682  2.2221  0.9658  0.9083
 2083SOL    HW2 6249   2.108   3.770   8.537 -0.8253  1.2846 -0.0826
 2084SOL     OW 6250   3.198   4.428   9.974 -0.0484  0.7156  0.2782
 2084SOL    HW1 6251   3.171   4.519   9.959 -1.8880  0.0115 -1.0982
 2084SOL    HW2 6252   3.233   4.400   9.889 -1.4257 -0.4244  0.0390
 2085SOL     OW 6253   1.064   3.894   9.875  0.1247  0.4954  0.7659
 2085SOL    HW1 6254   1.146   3.844   9.868  0.0531  0.4244  0.3985
 2085SOL    HW2 6255   1.090   3.977   9.913  0.4834  0.7364  0.0152
 2086SOL     OW 6256   4.868   4.403   8.123  0.1229  0.3146 -0.4583
 2086SOL    HW1 6257   4.839   4.470   8.063  4.1395 -0.4901 -3.7924
 2086SOL    HW2 6258   4.839   4.320   8.084  0.1235 -0.1372  0.4532
 2087SOL     OW 6259   0.768   2.645   4.980  0.5026  0.3414  0.4604
 2087SOL    HW1 6260   0.778   2.640   4.885 -0.4920  1.1988  0.2832
 2087SOL    HW2 6261   0.761   2.554   5.008 -0.3157  0.1053 -0.4427
 2088SOL     OW 6262   0.603   2.165  10.197 -0.4452  0.0250  0.0598
 2088SOL    HW1 6263   0.628   2.116  10.118 -1.2446  0.2732 -0.3640
 2088SOL    HW2 6264   0.683   2.208  10.225 -0.9137  3.8042 -3.3518
 2089SOL     OW 6265   0.150   1.328   9.319 -0.0753 -0.0009  0.1500
 2089SOL    HW1 6266   0.145   1.285   9.404  1.0905 -1.3227 -0.4044
 2089SOL    HW2 6267   0.088   1.281   9.264  1.6817 -1.5483 -0.6446
 2090SOL     OW 6268   3.637   4.729  10.318 -0.0568 -0.4427  0.3511
 2090SOL    HW1 6269   3.576   4.685  10.258 -2.5217  1.1085  1.5704
 2090SOL    HW2 6270   3.665   4.659  10.377 -1.3937 -1.0583  0.3157
 2091SOL     OW 6271   3.409   0.679   9.717 -0.3104 -0.2673  0.0396
 2091SOL    HW1 6272   3.396   0.587   9.741 -2.1819 -0.2288 -0.5840
 2091SOL    HW2 6273   3.504   0.691   9.714 -0.0179 -1.5595  2.3469
 2092SOL     OW 6274   0.445   3.611   6.990  0.0901  0.1948  0.2669
 2092SOL    HW1 6275   0.388   3.645   6.921  0.7225  1.1123  0.1726
 2092SOL    HW2 6276   0.434   3.673   7.062 -0.9368 -1.0295  1.1809
 2093SOL     OW 6277   4.212   0.384   8.287 -0.1668  0.4075 -0.3111
 2093SOL    HW1 6278   4.160   0.457   8.251  1.0704  0.4952 -2.0737
 2093SOL    HW2 6279   4.279   0.427   8.341  0.9813  0.6891 -1.8892
 2094SOL     OW 6280   0.873   0.391   9.765 -0.4531  1.1855 -0.5819
 2094SOL    HW1 6281   0.953   0.443   9.756 -0.5489  1.4592  0.0862
 2094SOL    HW2 6282   0.807   0.454   9.796 -0.0965  0.3469  2.2017
 2095SOL     OW 6283   1.717   1.559   6.496  0.3665 -0.0434  0.3446
 2095SOL    HW1 6284   1.802   1.524   6.467  0.4703  1.0621 -0.7852
 2095SOL    HW2 6285   1.737   1.647   6.526 -0.4222  0.3266 -0.1921
 2096SOL     OW 6286   1.533   1.876   7.685  0.3301  0.2029 -0.4129
 2096SOL    HW1 6287   1.555   1.884   7.593 -2.8510  0.3653 -1.2887
 2096SOL    HW2 6288   1.510   1.784   7.697  0.1961  0.2902  0.0607
 2097SOL     OW 6289   0.920   2.147   5.743  0.0843 -0.3637 -0.5385
 2097SOL    HW1 6290   0.843   2.168   5.690  0.6248  0.0428 -1.1775
 2097SOL    HW2 6291   0.955   2.066   5.705  1.1984  0.6007 -1.6351
 2098SOL     OW 6292   4.703   3.031   6.344 -0.2314 -0.2555 -0.1768
 2098SOL    HW1 6293   4.638   3.013   6.276  0.4488 -0.2553 -0.8415
 2098SOL    HW2 6294   4.694   3.125   6.362 -1.6861 -0.6001  1.0951
 2099SOL     OW 6295   2.212   1.435   5.470 -0.2543 -0.1586 -0.1717
 2099SOL    HW1 6296   2.215   1.430   5.374  0.4417 -2.1968 -0.0946
 2099SOL    HW2 6297   2.150   1.367   5.495  0.8343 -0.7932  0.8738
 2100SOL     OW 6298   1.795   3.976   5.570 -0.6275  0.1749 -0.6341
 2100SOL    HW1 6299   1.867   3.943   5.623 -0.7629  0.9344  0.0530
 2100SOL    HW2 6300   1.775   3.906   5.508  0.3778 -0.2257 -0.5133
 2101SOL     OW 6301   3.581   2.390   4.982  0.1442 -0.1010 -0.6059
 2101SOL    HW1 6302   3.652   2.447   4.953  1.4861 -0.6677  1.3601
 2101SOL    HW2 6303   3.623   2.304   4.993 -0.3280 -0.0354  2.3933
 2102SOL     OW 6304   0.306   4.758   6.877  0.0061  0.0571  0.5288
 2102SOL    HW1 6305   0.332   4.809   6.953 -0.3612 -0.5014  1.0447
 2102SOL    HW2 6306   0.388   4.736   6.833  0.2705 -0.1357  1.1071
 2103SOL     OW 6307   2.086   0.367   5.618 -0.0857  0.9205  0.1620
 2103SOL    HW1 6308   2.059   0.442   5.671 -3.1978  1.3467 -1.7793
 2103SOL    HW2 6309   2.010   0.347   5.563  2.2469 -0.6327 -2.8369
 2104SOL     OW 6310   0.539   2.540   5.441 -0.4453  0.5408  0.3319
 2104SOL    HW1 6311   0.457   2.589   5.446 -0.3354  0.6011  2.4987
 2104SOL    HW2 6312   0.518   2.453   5.475  0.2363  0.3392  0.2506
 2105SOL     OW 6313   3.236   2.338   8.518  0.1885  0.3753  0.3046
 2105SOL    HW1 6314   3.238   2.246   8.492  2.4914 -0.4660  2.9382
 2105SOL    HW2 6315   3.153   2.347   8.565 -0.0393 -0.3904  0.0680
 2106SOL     OW 6316   4.714   1.269   7.511 -0.5709 -0.5713 -0.0205
 2106SOL    HW1 6317   4.700   1.353   7.468  2.2815 -0.7505 -1.5874
 2106SOL    HW2 6318   4.799   1.278   7.555  0.2349 -2.8251 -0.9281
 2107SOL     OW 6319   0.197   2.735   6.676  0.3276 -0.2330  0.3320
 2107SOL    HW1 6320   0.143   2.794   6.624  0.6711 -1.6987 -1.8143
 2107SOL    HW2 6321   0.135   2.677   6.719  0.0792 -1.1576 -1.1911
 2108SOL     OW 6322   2.311   2.303   5.202  0.7763  0.0641  0.2703
 2108SOL    HW1 6323   2.318   2.396   5.179 -2.6733  0.1681 -0.8081
 2108SOL    HW2 6324   2.220   2.280   5.184  0.8186 -2.8994  3.0119
 2109SOL     OW 6325   3.118   0.759   8.920  0.1336  0.3931  0.0713
 2109SOL    HW1 6326   3.147   0.742   8.830  0.0127  1.3224 -0.1504
 2109SOL    HW2 6327   3.119   0.854   8.928  0.1753  0.3170  1.0715
 2110SOL     OW 6328   3.243   2.405   6.558 -0.3894  0.0412 -0.6033
 2110SOL    HW1 6329   3.331   2.378   6.586 -0.4764  0.5681  0.2123
 2110SOL    HW2 6330   3.204   2.443   6.636 -0.4423  2.0871 -1.5805
 2111SOL     OW 6331   4.687   0.581   7.551 -0.3310 -0.0886 -0.0254
 2111SOL    HW1 6332   4.684   0.644   7.479 -0.6299  0.1508  0.1898
 2111SOL    HW2 6333   4.697   0.496   7.509 -0.8097  0.0200 -0.3718
 2112SOL     OW 6334   3.268   0.323   7.164 -0.1683 -0.0014  0.7914
 2112SOL    HW1 6335   3.287   0.342   7.256  1.7685 -1.0981  0.6612
 2112SOL    HW2 6336   3.332   0.376   7.116 -0.3501 -0.3915  0.1195
 2113SOL     OW 6337   3.134   4.873   8.738 -0.1995 -0.2694 -0.3578
 2113SOL    HW1 6338   3.212   4.897   8.788  0.0817  1.0855 -1.3914
 2113SOL    HW2 6339   3.097   4.956   8.709 -1.7617 -0.9054 -0.3374
 2114SOL     OW 6340   1.919   1.975   6.037 -0.3532 -0.0661  0.6186
 2114SOL    HW1 6341   1.835   2.004   6.072 -0.9128  0.3993 -1.0663
 2114SOL    HW2 6342   1.897   1.902   5.979  0.6306 -1.2358  1.6410
 2115SOL     OW 6343   2.331   0.227   6.444  0.3676  1.1692  0.3041
 2115SOL    HW1 6344   2.272   0.237   6.519  0.7567  0.7444  0.6719
 2115SOL    HW2 6345   2.411   0.274   6.469 -0.2374  2.8516 -0.7070
 2116SOL     OW 6346   3.545   4.103   9.023  0.1993 -0.2398 -0.4706
 2116SOL    HW1 6347   3.546   4.194   8.994 -0.7541  0.6104  1.8948
 2116SOL    HW2 6348   3.452   4.079   9.022  0.0718 -0.0583  1.9634
 2117SOL     OW 6349   3.299   3.531   5.774 -0.7491  0.2830  0.0789
 2117SOL    HW1 6350   3.272   3.439   5.779 -1.8047  0.4096 -2.0765
 2117SOL    HW2 6351   3.309   3.558   5.866  0.2316 -2.1264  0.7574
 2118SOL     OW 6352   3.644   1.670   4.876  0.0697  0.0513 -0.1334
 2118SOL    HW1 6353   3.557   1.632   4.888 -1.5305  2.6310 -2.2484
 2118SOL    HW2 6354   3.689   1.610   4.817 -0.2451 -1.3067  0.9620
 2119SOL     OW 6355   2.862   4.416   5.612 -0.4936  0.2013  0.1321
 2119SOL    HW1 6356   2.853   4.347   5.677 -0.4220 -1.0177 -1.0931
 2119SOL    HW2 6357   2.901   4.373   5.536  1.4999  2.0444 -0.0003
 2120SOL     OW 6358   2.874   2.646   5.252 -0.6384 -0.1250 -0.9978
 2120SOL    HW1 6359   2.840   2.628   5.165 -1.3742 -1.1298 -0.5132
 2120SOL    HW2 6360   2.900   2.561   5.287 -1.1374  0.1402  0.0836
 2121SOL     OW 6361   1.124   3.968   5.229 -0.1543 -0.3178  0.0368
 2121SOL    HW1 6362   1.146   3.924   5.147  0.1852  0.1998 -0.1569
 2121SOL    HW2 6363   1.209   3.983   5.271 -0.2250  0.6318 -0.1530
 2122SOL     OW 6364   0.292   2.080   5.872 -0.1954 -0.1542  0.2682
 2122SOL    HW1 6365   0.353   2.018   5.914  1.1090  1.1912  0.4701
 2122SOL    HW2 6366   0.297   2.060   5.779 -0.6701 -1.0843  0.4318
 2123SOL     OW 6367   3.452   3.053   4.960 -0.2790 -0.0627 -0.2554
 2123SOL    HW1 6368   3.421   3.085   5.044  0.3944 -0.8547  0.3154
 2123SOL    HW2 6369   3.545   3.077   4.957 -0.2753 -0.1159 -0.7364
 2124SOL     OW 6370   1.735   4.900   7.115 -0.1665 -0.1962 -0.6684
 2124SOL    HW1 6371   1.746   4.939   7.028 -0.1953 -0.2889 -0.7135
 2124SOL    HW2 6372   1.809   4.933   7.165 -0.5888  0.5013 -0.4949
 2125SOL     OW 6373   2.013   1.084   5.064  0.5371 -0.1692 -0.2911
 2125SOL    HW1 6374   1.975   1.058   5.148  0.9919 -0.0972 -0.0596
 2125SOL    HW2 6375   1.993   1.011   5.005  2.8510 -1.6970  0.6528
 2126SOL     OW 6376   2.706   3.146   5.775 -1.0588  0.3428 -0.2179
 2126SOL    HW1 6377   2.792   3.113   5.747 -1.3178  0.9093 -1.8011
 2126SOL    HW2 6378   2.681   3.089   5.848 -0.1073 -0.9580 -0.8504
 2127SOL     OW 6379   1.920   4.791   6.111 -0.2039  0.5760  0.4115
 2127SOL    HW1 6380   1.909   4.884   6.132  1.6408  0.7714  0.6731
 2127SOL    HW2 6381   1.840   4.750   6.143 -0.5588  1.9101  1.3296
 2128SOL     OW 6382   0.123   2.903   5.308 -0.3880 -0.6936  0.5249
 2128SOL    HW1 6383   0.205   2.908   5.259 -0.5484  2.6704  0.3581
 2128SOL    HW2 6384   0.150   2.895   5.400  0.2553  1.3043  0.5641
 2129SOL     OW 6385   3.093   3.667   5.640  0.3083  0.4775 -0.2622
 2129SOL    HW1 6386   3.037   3.596   5.672 -1.0734  2.2135  1.4557
 2129SOL    HW2 6387   3.177   3.653   5.682 -0.0802  0.0658  0.3931
 2130SOL     OW 6388   1.294   3.094   8.586  0.0125  0.6692  0.3975
 2130SOL    HW1 6389   1.328   3.005   8.584 -0.5187  0.4668 -0.9367
 2130SOL    HW2 6390   1.292   3.117   8.679 -1.2011 -1.2399  0.9062
 2131SOL     OW 6391   2.082   4.935   8.911 -0.2506  0.3913  0.0874
 2131SOL    HW1 6392   2.106   5.025   8.892 -0.3066  0.3035 -0.4010
 2131SOL    HW2 6393   2.026   4.908   8.838  1.1663 -0.5917 -0.6887
 2132SOL     OW 6394   0.890   1.751   4.882  0.3161 -0.6466  0.7868
 2132SOL    HW1 6395   0.938   1.669   4.878 -0.0820 -0.9045  1.2237
 2132SOL    HW2 6396   0.830   1.741   4.956  0.3385  0.0785  0.9133
 2133SOL     OW 6397   4.810   4.427   5.831  0.8859  0.5580 -0.6315
 2133SOL    HW1 6398   4.861   4.356   5.792  1.0004  0.8430 -0.9996
 2133SOL    HW2 6399   4.834   4.424   5.924  0.9298  0.1516 -0.6511
 2134SOL     OW 6400   2.598   0.754   7.987 -0.2044  0.1521  0.4285
 2134SOL    HW1 6401   2.606   0.762   8.082  0.2390 -0.3960  0.4456
 2134SOL    HW2 6402   2.538   0.680   7.974  1.4134 -1.2068  0.3016
 2135SOL     OW 6403   0.577   4.851   6.809  0.0737  0.2782  0.4047
 2135SOL    HW1 6404   0.512   4.878   6.745 -0.1102 -1.4425 -0.1792
 2135SOL    HW2 6405   0.660   4.885   6.775 -0.2390  0.7648  0.1171
 2136SOL     OW 6406   1.728   2.007   5.524 -0.0473  0.6009 -0.7869
 2136SOL    HW1 6407   1.799   1.944   5.538 -0.6865 -0.6401 -2.7847
 2136SOL    HW2 6408   1.759   2.063   5.454 -1.5683 -0.9583 -2.8256
 2137SOL     OW 6409   1.841   0.813   5.391 -0.9212  0.4712  0.3967
 2137SOL    HW1 6410   1.904   0.750   5.355 -1.9725 -0.4490  0.1247
 2137SOL    HW2 6411   1.880   0.899   5.372 -0.3261 -0.0437 -0.8498
 2138SOL     OW 6412   3.067   4.780   5.338 -0.2393  0.9781 -0.2444
 2138SOL    HW1 6413   3.022   4.730   5.407  2.0107  2.1119  2.1923
 2138SOL    HW2 6414   3.150   4.735   5.326  1.0547  2.9979  0.6784
 2139SOL     OW 6415   2.537   2.985   5.347  0.4123 -0.0835 -0.1419
 2139SOL    HW1 6416   2.595   2.959   5.419 -0.2488 -0.7919  0.1515
 2139SOL    HW2 6417   2.515   3.076   5.366  0.8486 -0.0322  0.1357
 2140SOL     OW 6418   4.770   2.676   6.081  0.5620  0.1850  0.7097
 2140SOL    HW1 6419   4.696   2.653   6.138  0.8731 -0.7917  0.7282
 2140SOL    HW2 6420   4.729   2.711   6.002  0.0457 -0.7982  0.5178
 2141SOL     OW 6421   1.761   3.948   6.396  0.1811 -0.5402 -0.1990
 2141SOL    HW1 6422   1.845   3.968   6.438  0.8729 -1.0694 -1.2519
 2141SOL    HW2 6423   1.716   3.890   6.457  0.5716 -0.2231  0.3949
 2142SOL     OW 6424   0.450   4.232   5.983 -0.5256 -0.0516 -0.0576
 2142SOL    HW1 6425   0.457   4.142   6.015  2.3872  0.5084  1.2040
 2142SOL    HW2 6426   0.402   4.224   5.901  1.3557 -3.0591 -1.0344
 2143SOL     OW 6427   2.786   1.865   6.710 -0.6880  0.2553 -0.6482
 2143SOL    HW1 6428   2.744   1.797   6.763 -1.0097  1.6045  0.9096
 2143SOL    HW2 6429   2.756   1.947   6.749 -1.3076  1.3543 -3.2151
 2144SOL     OW 6430   4.895   3.789   5.216 -0.3071  0.6658 -0.8174
 2144SOL    HW1 6431   4.844   3.787   5.298  1.4533  1.6825  0.3673
 2144SOL    HW2 6432   4.877   3.876   5.180  0.1045  0.7989 -0.7043
 2145SOL     OW 6433   1.765   1.737   7.752 -0.0060  0.8672  0.5736
 2145SOL    HW1 6434   1.675   1.769   7.751  0.3417  1.9946 -1.7194
 2145SOL    HW2 6435   1.802   1.766   7.668  2.3398 -0.0201  1.2103
 2146SOL     OW 6436   4.652   3.839   8.088 -1.1904 -0.3097 -0.5697
 2146SOL    HW1 6437   4.628   3.892   8.165  1.9537 -0.1678  0.4717
 2146SOL    HW2 6438   4.597   3.873   8.017 -0.9007  2.8384  0.5673
 2147SOL     OW 6439   1.617   2.308   7.210 -0.1873 -0.3715  0.5749
 2147SOL    HW1 6440   1.532   2.349   7.195 -0.0328 -1.1692 -3.7371
 2147SOL    HW2 6441   1.597   2.216   7.224 -0.0812 -0.6640 -1.0353
 2148SOL     OW 6442   0.480   1.264   6.395  0.0825  0.5301  0.1889
 2148SOL    HW1 6443   0.483   1.195   6.461 -0.7918  2.0320  1.8846
 2148SOL    HW2 6444   0.489   1.345   6.445 -0.8092  1.7436 -1.5269
 2149SOL     OW 6445   3.905   1.692   7.644  0.2559 -0.7582  0.6295
 2149SOL    HW1 6446   3.852   1.670   7.568  0.5454 -0.7795  0.4292
 2149SOL    HW2 6447   3.848   1.744   7.700 -0.1457 -1.2531  0.6790
 2150SOL     OW 6448   2.387   1.602  10.031 -0.2252 -0.4090 -0.4168
 2150SOL    HW1 6449   2.387   1.692  10.000 -1.8552 -0.1460  0.2051
 2150SOL    HW2 6450   2.427   1.606  10.118 -1.2107 -0.0744  0.0424
 2151SOL     OW 6451   3.631   2.098   5.678  0.4408 -0.0341  0.5967
 2151SOL    HW1 6452   3.599   2.031   5.739  1.6794  0.1201  1.4517
 2151SOL    HW2 6453   3.665   2.048   5.604  0.3391 -0.3053  0.7308
 2152SOL     OW 6454   3.375   3.762   5.221  0.3060 -0.2534  0.5264
 2152SOL    HW1 6455   3.468   3.744   5.203  0.4715  0.8744  0.1367
 2152SOL    HW2 6456   3.369   3.765   5.317  0.1029 -2.9738  0.6679
 2153SOL     OW 6457   2.989   3.818   6.098 -0.1575 -0.1256 -0.3228
 2153SOL    HW1 6458   3.040   3.813   6.179  1.5274 -0.7900 -1.3609
 2153SOL    HW2 6459   2.985   3.911   6.077 -1.4954  0.1524  1.0222
 2154SOL     OW 6460   1.219   4.113   6.754 -0.1746  0.8263  0.0419
 2154SOL    HW1 6461   1.221   4.029   6.801  2.3996  1.2190  0.8150
 2154SOL    HW2 6462   1.126   4.135   6.748 -0.8793 -1.6526  0.5523
 2155SOL     OW 6463   0.126   2.112  13.306  0.0095 -0.5363 -0.8047
 2155SOL    HW1 6464   0.121   2.017  13.301 -0.7037 -0.4875 -1.0828
 2155SOL    HW2 6465   0.056   2.143  13.249 -2.4083  0.1335  2.2677
 2156SOL     OW 6466   2.370   1.626   4.951 -0.1863 -0.7230 -0.0170
 2156SOL    HW1 6467   2.455   1.666   4.933  0.3165  0.2439  3.6740
 2156SOL    HW2 6468   2.378   1.536   4.918  0.9671  0.2745 -2.7446
 2157SOL     OW 6469   2.884   2.796   6.354  0.5175  1.0141 -0.0213
 2157SOL    HW1 6470   2.861   2.848   6.431  0.1053 -0.8109  1.1671
 2157SOL    HW2 6471   2.971   2.760   6.375 -0.1575 -0.5480  0.2178
 2158SOL     OW 6472   2.977   4.268   5.402  0.5066  0.3053  0.0863
 2158SOL    HW1 6473   2.894   4.241   5.362  0.2220  1.6302 -0.2553
 2158SOL    HW2 6474   3.035   4.193   5.388  0.5341  0.7649 -3.1366
 2159SOL     OW 6475   4.012   1.504   5.745 -0.1873  0.6117  0.2242
 2159SOL    HW1 6476   4.096   1.503   5.791  0.7127 -0.5885 -1.3205
 2159SOL    HW2 6477   3.961   1.434   5.784  0.2154  0.2046  0.0310
 2160SOL     OW 6478   5.012   1.271   5.354  0.0396  0.2542 -0.1562
 2160SOL    HW1 6479   4.958   1.282   5.276 -1.7637 -2.2160  0.6404
 2160SOL    HW2 6480   4.953   1.293   5.427  0.9630  0.2083  0.6194
 2161SOL     OW 6481   2.525   4.466   4.880  0.0869 -0.4131  0.3340
 2161SOL    HW1 6482   2.470   4.436   4.952  1.0790 -0.0869  1.2695
 2161SOL    HW2 6483   2.538   4.389   4.826 -0.7271 -0.6522  0.4635
 2162SOL     OW 6484   1.412   4.958   5.960  0.1669 -0.3180 -0.6838
 2162SOL    HW1 6485   1.379   4.974   5.872  1.0059  3.3129 -0.5022
 2162SOL    HW2 6486   1.335   4.930   6.010 -0.5491 -1.2529 -2.2432
 2163SOL     OW 6487   3.115   2.675   7.882 -0.0111 -0.6886  0.1400
 2163SOL    HW1 6488   3.086   2.738   7.948  0.7575 -0.5503  0.3585
 2163SOL    HW2 6489   3.098   2.718   7.799  0.2825 -0.2918  0.2837
 2164SOL     OW 6490   2.786   1.359   5.390  0.0931  0.1545 -0.5553
 2164SOL    HW1 6491   2.705   1.351   5.339 -0.7298  2.4647  0.2357
 2164SOL    HW2 6492   2.766   1.426   5.455  1.9537 -0.8547  1.1498
 2165SOL     OW 6493   1.972   1.593   7.173 -0.1566  0.4289  0.3389
 2165SOL    HW1 6494   2.037   1.622   7.237  1.2589  1.9910 -1.6669
 2165SOL    HW2 6495   1.966   1.665   7.111 -2.3593 -0.5219 -0.6637
 2166SOL     OW 6496   2.917   1.795   4.922  0.1002  0.9360  0.3158
 2166SOL    HW1 6497   2.916   1.774   5.015  0.2647  1.3564  0.4174
 2166SOL    HW2 6498   2.992   1.854   4.911  1.0923 -0.4048 -0.3817
 2167SOL     OW 6499   2.165   1.014   7.064  0.2318  0.9105 -0.2521
 2167SOL    HW1 6500   2.161   0.984   7.154 -0.9827  1.4468 -0.1142
 2167SOL    HW2 6501   2.106   1.089   7.060 -1.3491 -0.3005 -1.9208
 2168SOL     OW 6502   0.900   3.487   5.502 -0.0120 -0.1673  0.2807
 2168SOL    HW1 6503   0.917   3.536   5.421  1.5971 -0.3727  0.4560
 2168SOL    HW2 6504   0.829   3.535   5.545  1.7120  2.3065  0.6241
 2169SOL     OW 6505   4.698   0.331   7.442  0.8657 -0.7754 -0.3999
 2169SOL    HW1 6506   4.688   0.329   7.347 -0.7838  1.7118 -0.3757
 2169SOL    HW2 6507   4.661   0.248   7.472 -1.7448 -0.2168 -1.7831
 2170SOL     OW 6508   0.109   1.405   6.065  0.2598  0.0625 -0.3118
 2170SOL    HW1 6509   0.188   1.378   6.111 -0.4890  0.8992  1.5392
 2170SOL    HW2 6510   0.105   1.500   6.078  0.5372  0.5171 -2.9751
 2171SOL     OW 6511   3.198   1.870   5.689 -0.1159 -0.8236 -0.4916
 2171SOL    HW1 6512   3.181   1.964   5.700 -2.6560 -1.3358  0.8775
 2171SOL    HW2 6513   3.218   1.860   5.596 -0.6814  0.9807 -0.8564
 2172SOL     OW 6514   1.837   1.455   5.620  0.7663 -0.4217  0.1217
 2172SOL    HW1 6515   1.796   1.370   5.601  0.6334 -0.0202 -1.5562
 2172SOL    HW2 6516   1.874   1.445   5.708  1.5385 -2.5139 -0.3906
 2173SOL     OW 6517   3.941   2.549   7.522 -0.7214 -0.2073 -0.0442
 2173SOL    HW1 6518   4.004   2.517   7.586 -0.2738 -1.9408 -1.2939
 2173SOL    HW2 6519   3.995   2.590   7.454 -1.2025  1.8009  0.7125
 2174SOL     OW 6520   0.880   2.988   7.706  0.3043  0.1705  0.4848
 2174SOL    HW1 6521   0.970   3.020   7.715  0.4579 -0.6591  2.6403
 2174SOL    HW2 6522   0.882   2.931   7.629  1.1456  1.6103 -0.5918
 2175SOL     OW 6523   2.514   4.901   7.140 -0.1108 -0.0685  0.0801
 2175SOL    HW1 6524   2.533   4.819   7.095  4.0736  1.6963 -1.9526
 2175SOL    HW2 6525   2.491   4.963   7.070 -2.3314  0.7747  1.4565
 2176SOL     OW 6526   0.315   2.519   6.257  0.2499  0.5230 -0.3987
 2176SOL    HW1 6527   0.311   2.502   6.163 -2.4354 -0.3646 -0.2052
 2176SOL    HW2 6528   0.320   2.433   6.298 -0.5930  0.7761  0.2934
 2177SOL     OW 6529   4.240   4.566   7.772 -0.7625  0.1067 -0.9263
 2177SOL    HW1 6530   4.327   4.603   7.758 -0.0471 -0.8385  0.7623
 2177SOL    HW2 6531   4.245   4.477   7.738 -0.5426 -0.5035  0.6504
 2178SOL     OW 6532   2.892   1.070   6.248  0.3923 -0.4657  0.5004
 2178SOL    HW1 6533   2.896   1.010   6.173 -1.5383  0.9512 -0.8354
 2178SOL    HW2 6534   2.815   1.041   6.297 -0.2102  0.5279  0.1639
 2179SOL     OW 6535   2.224   1.070   7.456  0.0656 -1.0562 -0.0893
 2179SOL    HW1 6536   2.137   1.046   7.422 -0.2378 -0.3199  0.1393
 2179SOL    HW2 6537   2.267   1.113   7.383  0.1004 -1.1018 -0.0953
 2180SOL     OW 6538   2.382   1.909   9.345  0.6260 -0.0063 -0.1602
 2180SOL    HW1 6539   2.451   1.844   9.359  0.3912 -0.3713 -0.6751
 2180SOL    HW2 6540   2.301   1.857   9.344  0.0924  0.6305  2.5585
 2181SOL     OW 6541   2.562   3.740   5.869 -0.4913  0.0117  0.0012
 2181SOL    HW1 6542   2.469   3.753   5.886 -1.1275 -2.5456 -1.1357
 2181SOL    HW2 6543   2.565   3.699   5.783  1.3131 -4.0470  1.7687
 2182SOL     OW 6544   4.488   3.144   5.559 -0.6599 -0.5973 -0.0638
 2182SOL    HW1 6545   4.512   3.205   5.489 -3.5866  2.3615  1.2357
 2182SOL    HW2 6546   4.422   3.087   5.519 -0.2079 -0.8343 -0.4739
 2183SOL     OW 6547   3.996   3.133   4.905  0.0887  0.6862  0.2828
 2183SOL    HW1 6548   3.963   3.149   4.993 -1.4344 -0.0240 -0.1293
 2183SOL    HW2 6549   3.991   3.038   4.894 -1.3637  0.8805 -1.1426
 2184SOL     OW 6550   1.490   4.948   8.362 -0.1462  0.3366  0.1296
 2184SOL    HW1 6551   1.495   4.865   8.409  2.7732  0.7574  0.7234
 2184SOL    HW2 6552   1.500   5.015   8.429  1.3765  1.0181 -0.7189
 2185SOL     OW 6553   1.716   4.356   5.953  0.3393  0.3604  0.1719
 2185SOL    HW1 6554   1.737   4.435   5.904  0.1076  0.8310  0.8192
 2185SOL    HW2 6555   1.624   4.339   5.933  0.7030 -0.4314 -0.9027
 2186SOL     OW 6556   1.977   3.695   5.065 -0.0960  0.3461 -0.0472
 2186SOL    HW1 6557   2.040   3.703   5.137 -0.5857 -1.7268  0.6732
 2186SOL    HW2 6558   2.030   3.707   4.986  0.5607  2.0390  0.5984
 2187SOL     OW 6559   3.156   2.462   4.746 -0.1044 -0.0098 -0.6296
 2187SOL    HW1 6560   3.184   2.544   4.787  0.1084  0.2230 -1.2270
 2187SOL    HW2 6561   3.228   2.401   4.761 -0.0457  0.0605 -0.6274
 2188SOL     OW 6562   3.209   3.028   5.687 -0.3025 -0.0610  0.3592
 2188SOL    HW1 6563   3.182   3.071   5.606 -0.8892  0.0342  0.6039
 2188SOL    HW2 6564   3.266   3.091   5.730 -2.5084  1.2333  1.5465
 2189SOL     OW 6565   1.159   2.653   5.240  0.6116  0.0039  0.1643
 2189SOL    HW1 6566   1.168   2.716   5.311  0.7201 -0.6272  0.7247
 2189SOL    HW2 6567   1.104   2.697   5.175  1.4710  1.0220  0.1083
 2190SOL     OW 6568   3.684   0.775   6.437  0.2309  0.6737 -0.1474
 2190SOL    HW1 6569   3.758   0.718   6.415 -0.7775 -0.9516  0.4186
 2190SOL    HW2 6570   3.724   0.850   6.481  1.5604 -0.1364  0.1082
 2191SOL     OW 6571   0.105   0.123   4.911  0.1716  0.2237  0.3912
 2191SOL    HW1 6572   0.089   0.165   4.995  2.7509 -0.0362  1.0854
 2191SOL    HW2 6573   0.186   0.163   4.880  0.5708 -1.4467 -0.8127
 2192SOL     OW 6574   2.840   2.409   7.161  0.3138 -0.8116 -0.0605
 2192SOL    HW1 6575   2.866   2.366   7.242  0.7416 -1.6347 -0.6146
 2192SOL    HW2 6576   2.922   2.417   7.111  0.3596  1.2297  0.2731
 2193SOL     OW 6577   3.272   4.157   6.549 -0.5916 -0.2535 -0.9347
 2193SOL    HW1 6578   3.350   4.182   6.598 -0.9270 -1.1934  0.1344
 2193SOL    HW2 6579   3.201   4.208   6.588 -1.4215 -3.1175  1.7842
 2194SOL     OW 6580   1.311   3.762   5.113 -0.6700  0.5635 -0.6726
 2194SOL    HW1 6581   1.261   3.687   5.144  0.9010 -0.1187  0.3299
 2194SOL    HW2 6582   1.383   3.725   5.062  0.5815  1.2930  0.4820
 2195SOL     OW 6583   1.231   0.674   6.594 -0.7348  0.3994  0.1913
 2195SOL    HW1 6584   1.270   0.683   6.507  0.3169 -1.8123  0.3554
 2195SOL    HW2 6585   1.304   0.689   6.655 -0.7689 -0.8640  0.5803
 2196SOL     OW 6586   0.203   4.134   8.431  0.3529  0.2069  0.2127
 2196SOL    HW1 6587   0.159   4.120   8.515  1.5847  0.4665  0.9277
 2196SOL    HW2 6588   0.138   4.109   8.365 -0.0280 -1.7540  1.2647
 2197SOL     OW 6589   4.299   4.797   7.317  0.8445  0.0162  0.1661
 2197SOL    HW1 6590   4.236   4.765   7.253  0.8941 -0.4218  0.3340
 2197SOL    HW2 6591   4.248   4.811   7.397  0.8403  0.2683  0.1196
 2198SOL     OW 6592   2.277   1.208   6.017  0.8626  0.3366 -0.5465
 2198SOL    HW1 6593   2.304   1.136   6.074 -4.8180 -1.3036  0.6726
 2198SOL    HW2 6594   2.269   1.283   6.076  0.5948  0.2215 -0.4368
 2199SOL     OW 6595   3.756   0.035   5.207  0.2547 -0.0041  0.5195
 2199SOL    HW1 6596   3.732   0.125   5.188 -0.9378 -0.1924  1.0381
 2199SOL    HW2 6597   3.828   0.042   5.270 -0.5463  0.6079  1.3954
 2200SOL     OW 6598   0.504   4.924   6.551 -0.2948 -0.2128  0.6800
 2200SOL    HW1 6599   0.538   4.835   6.535  0.0325  0.0821 -0.3444
 2200SOL    HW2 6600   0.498   4.963   6.464  0.2228  1.0092  1.1664
 2201SOL     OW 6601   3.498   4.243   5.320  0.9888  0.2411  0.5334
 2201SOL    HW1 6602   3.429   4.289   5.271 -1.1363 -0.3387  2.8324
 2201SOL    HW2 6603   3.559   4.313   5.345 -0.3758  1.2968  1.0449
 2202SOL     OW 6604   3.394   4.051   5.492 -0.7097 -0.5436 -0.4350
 2202SOL    HW1 6605   3.413   4.100   5.412 -1.2989  1.1099  0.3926
 2202SOL    HW2 6606   3.457   3.978   5.491  1.0588  0.9117 -1.1270
 2203SOL     OW 6607   1.205   3.656   4.720  0.3001 -0.1386 -0.3203
 2203SOL    HW1 6608   1.178   3.746   4.739 -2.7264 -1.2252  1.2541
 2203SOL    HW2 6609   1.187   3.646   4.626 -2.0341  0.2017  0.0107
 2204SOL     OW 6610   0.770   4.224   6.479 -0.2075  0.5187  0.5564
 2204SOL    HW1 6611   0.683   4.185   6.474 -0.0296 -0.0900  1.7903
 2204SOL    HW2 6612   0.766   4.299   6.419 -1.6809  0.7047  0.8449
 2205SOL     OW 6613   2.028   0.603   5.245 -0.4252  0.2050 -0.1837
 2205SOL    HW1 6614   1.974   0.587   5.168  0.0275  0.3725 -0.5392
 2205SOL    HW2 6615   2.082   0.679   5.222 -0.8043  0.7123  0.5701
 2206SOL     OW 6616   3.250   2.911   4.761  0.5521  0.2130 -0.0937
 2206SOL    HW1 6617   3.284   2.963   4.833 -0.2824 -1.0275  1.2589
 2206SOL    HW2 6618   3.158   2.936   4.755  0.7686  0.7995 -1.2031
 2207SOL     OW 6619   0.610   1.524   7.405 -0.5548  0.2263  0.2875
 2207SOL    HW1 6620   0.567   1.607   7.427  0.3267  0.4019  1.4436
 2207SOL    HW2 6621   0.673   1.546   7.337  0.7501  0.8475  1.6376
 2208SOL     OW 6622   4.170   1.079   5.781 -0.4749  0.5907  0.3059
 2208SOL    HW1 6623   4.220   1.095   5.701 -0.4964 -2.0325 -0.3423
 2208SOL    HW2 6624   4.112   1.007   5.758 -2.7771  1.8561  1.8038
 2209SOL     OW 6625   0.566   0.937   4.941  0.0010 -0.1719 -0.1078
 2209SOL    HW1 6626   0.491   0.889   4.975  0.0063  0.1436  0.3489
 2209SOL    HW2 6627   0.618   0.959   5.018  1.1559 -1.3662 -0.4972
 2210SOL     OW 6628   0.176   4.017   6.374  0.0804 -0.1889 -0.4630
 2210SOL    HW1 6629   0.180   3.971   6.290  1.1845  0.8512 -1.0032
 2210SOL    HW2 6630   0.084   4.042   6.382 -0.2570 -1.2192 -0.8299
 2211SOL     OW 6631   0.196   3.170   4.301  0.3811 -0.7697 -0.2818
 2211SOL    HW1 6632   0.242   3.150   4.219 -0.2573 -1.1805 -0.5545
 2211SOL    HW2 6633   0.168   3.261   4.291  0.2731 -0.8292 -0.5373
 2212SOL     OW 6634   0.901   4.205   5.990  0.1739  0.6866 -0.0823
 2212SOL    HW1 6635   0.996   4.197   5.975  0.6061  1.4781  1.9148
 2212SOL    HW2 6636   0.881   4.133   6.050 -1.0548 -1.0455 -2.3952
 2213SOL     OW 6637   2.797   2.327   5.614  0.0163  0.2195  0.3929
 2213SOL    HW1 6638   2.749   2.323   5.531 -1.6961 -0.1240  1.3552
 2213SOL    HW2 6639   2.787   2.240   5.652 -2.2155  1.2742  2.5153
 2214SOL     OW 6640   0.927   0.172   7.720  0.0064  0.2087  0.0309
 2214SOL    HW1 6641   0.867   0.233   7.764  0.8501  0.3614  1.0097
 2214SOL    HW2 6642   0.889   0.160   7.633 -2.3893 -1.0142  1.1391
 2215SOL     OW 6643   4.641   1.949   5.858 -0.1893  0.2658  0.2319
 2215SOL    HW1 6644   4.658   1.886   5.928 -1.9325 -1.7047 -1.0184
 2215SOL    HW2 6645   4.646   1.899   5.777 -2.7321  1.4013 -0.7508
 2216SOL     OW 6646   2.988   4.391   5.007 -0.1885  0.3551  0.0018
 2216SOL    HW1 6647   2.919   4.337   4.969 -0.4927  1.9409 -1.8343
 2216SOL    HW2 6648   3.067   4.366   4.959  0.5272 -1.1252  1.7836
 2217SOL     OW 6649   3.703   4.058   6.822 -0.0081  0.0045  0.0569
 2217SOL    HW1 6650   3.682   4.032   6.912 -0.1746  0.3287  0.1125
 2217SOL    HW2 6651   3.799   4.061   6.820 -0.0132  0.3437  0.3221
 2218SOL     OW 6652   1.655   4.512   5.513 -1.3290  0.4250 -0.4428
 2218SOL    HW1 6653   1.613   4.427   5.502 -0.7154  0.2408 -1.5888
 2218SOL    HW2 6654   1.746   4.497   5.486 -1.0914  1.3336 -0.1847
 2219SOL     OW 6655   3.030   3.502   5.429 -0.6945  0.2864  0.2959
 2219SOL    HW1 6656   3.076   3.573   5.474  1.3956 -1.4129  1.0367
 2219SOL    HW2 6657   3.094   3.470   5.365 -2.4356  0.5223 -1.6882
 2220SOL     OW 6658   0.749   1.453   8.085 -0.5023  0.3556  0.3941
 2220SOL    HW1 6659   0.817   1.514   8.056 -0.5281 -0.4825 -1.6101
 2220SOL    HW2 6660   0.795   1.372   8.102 -0.9806 -0.2982 -1.2393
 2221SOL     OW 6661   4.089   4.122   5.706  0.5029  0.1602  0.1103
 2221SOL    HW1 6662   4.103   4.209   5.743 -0.9739  0.6393 -0.4166
 2221SOL    HW2 6663   4.043   4.137   5.624  0.2843 -1.1112 -0.0204
 2222SOL     OW 6664   3.863   1.970   7.721  0.4696 -0.3584  0.3469
 2222SOL    HW1 6665   3.786   1.922   7.752 -0.2124  0.7229  0.3939
 2222SOL    HW2 6666   3.856   1.967   7.626 -1.1965  2.0636  0.3134
 2223SOL     OW 6667   3.603   2.725   6.847  0.0472 -0.0158  0.1292
 2223SOL    HW1 6668   3.655   2.803   6.828  1.2078 -0.6801  0.4572
 2223SOL    HW2 6669   3.597   2.679   6.763  0.2827 -0.0988  0.1561
 2224SOL     OW 6670   2.331   3.584   8.143 -0.2587 -0.2410  0.0210
 2224SOL    HW1 6671   2.415   3.590   8.188 -0.3062 -2.1198  0.4242
 2224SOL    HW2 6672   2.353   3.556   8.054 -0.2545  2.4356 -0.9239
 2225SOL     OW 6673   4.505   0.434   6.961  0.3069 -0.4614  0.7288
 2225SOL    HW1 6674   4.513   0.529   6.952 -0.3414 -0.5783 -2.0877
 2225SOL    HW2 6675   4.485   0.404   6.872  0.4721 -3.2410  1.5568
 2226SOL     OW 6676   1.310   2.634   4.860 -0.1296  0.3783  0.4808
 2226SOL    HW1 6677   1.243   2.692   4.896  0.7814  0.4572  2.1404
 2226SOL    HW2 6678   1.287   2.625   4.768 -0.3078  3.4058  0.1298
 2227SOL     OW 6679   3.112   1.501   4.892  0.1899 -0.1570  0.3966
 2227SOL    HW1 6680   3.088   1.512   4.984 -0.4089 -1.4623  0.4278
 2227SOL    HW2 6681   3.080   1.413   4.870 -0.6909  0.5797 -1.3918
 2228SOL     OW 6682   1.685   4.968   5.497 -0.8786 -0.0178  0.6006
 2228SOL    HW1 6683   1.716   4.979   5.408 -0.0033  1.4106  1.0644
 2228SOL    HW2 6684   1.613   5.030   5.506 -1.2075 -0.4164  0.7855
 2229SOL     OW 6685   2.591   3.143   8.933  0.5464 -0.9329 -0.0619
 2229SOL    HW1 6686   2.605   3.237   8.918  2.6953 -1.2598 -0.4028
 2229SOL    HW2 6687   2.649   3.100   8.870  0.0932 -2.4950  0.5473
 2230SOL     OW 6688   3.032   3.524   7.313  0.9220  0.0941 -0.1478
 2230SOL    HW1 6689   2.942   3.505   7.339  0.6335 -0.3676 -1.4236
 2230SOL    HW2 6690   3.085   3.484   7.382  0.1615 -0.0750  0.3525
 2231SOL     OW 6691   0.525   2.946   5.753  0.4652  0.1342  0.7428
 2231SOL    HW1 6692   0.536   3.005   5.678 -0.8962 -0.1822  0.2706
 2231SOL    HW2 6693   0.610   2.904   5.762  0.5969 -0.0253 -0.8231
 2232SOL     OW 6694   1.307   3.920   6.993  0.1105 -0.6099 -0.0570
 2232SOL    HW1 6695   1.357   4.001   6.986 -0.1717 -0.3890  0.4031
 2232SOL    HW2 6696   1.372   3.853   7.013  0.3699 -0.5321 -0.6287
 2233SOL     OW 6697   2.486   2.304   5.510 -0.4392 -0.1256 -0.9045
 2233SOL    HW1 6698   2.481   2.356   5.430  0.5529  1.8013  0.2005
 2233SOL    HW2 6699   2.489   2.369   5.580 -2.3616 -1.7657  0.8008
 2234SOL     OW 6700   3.289   2.949   7.686 -0.1069  0.5680  0.0784
 2234SOL    HW1 6701   3.234   2.891   7.634  0.6174  2.1777 -2.7293
 2234SOL    HW2 6702   3.377   2.912   7.677  0.1557  1.3361 -0.6311
 2235SOL     OW 6703   3.016   4.097   6.039 -0.3114  0.2238 -0.3031
 2235SOL    HW1 6704   3.107   4.069   6.048 -0.6473 -0.7753  0.1078
 2235SOL    HW2 6705   3.016   4.154   5.962  0.3040 -1.3770 -1.5487
 2236SOL     OW 6706   0.297   1.296   5.448  0.3835 -0.1573  0.1116
 2236SOL    HW1 6707   0.202   1.309   5.445  0.4396  0.5065  0.8301
 2236SOL    HW2 6708   0.333   1.384   5.449  0.8381 -0.2206  3.8317
 2237SOL     OW 6709   4.001   4.993   6.980 -0.3712 -0.4695 -0.0135
 2237SOL    HW1 6710   3.976   5.016   6.891 -0.7996  2.5278  0.7623
 2237SOL    HW2 6711   3.918   4.980   7.026 -0.2496  0.2873  0.4411
 2238SOL     OW 6712   2.844   2.023   6.318  0.4399  0.2232  0.2614
 2238SOL    HW1 6713   2.787   1.976   6.378 -0.9612 -0.0623 -1.2403
 2238SOL    HW2 6714   2.932   1.993   6.341 -0.3251 -2.6392 -0.1916
 2239SOL     OW 6715   2.205   3.241   5.244 -0.0351 -0.3347  0.0563
 2239SOL    HW1 6716   2.139   3.303   5.275  2.6439  3.3686 -0.9528
 2239SOL    HW2 6717   2.241   3.202   5.324 -1.6584 -0.4961  0.7353
 2240SOL     OW 6718   1.804   3.708   6.567 -0.0220 -0.3774 -0.2404
 2240SOL    HW1 6719   1.762   3.624   6.586  0.2684 -0.5971 -0.5623
 2240SOL    HW2 6720   1.897   3.688   6.568  0.2130  0.4932  2.3938
 2241SOL     OW 6721   1.119   2.680   6.907  0.3201  0.7375 -0.1831
 2241SOL    HW1 6722   1.086   2.738   6.976 -1.2518  0.7625 -0.8980
 2241SOL    HW2 6723   1.207   2.712   6.888  0.1361  1.7833  0.6526
 2242SOL     OW 6724   2.816   3.209   9.432  0.4491  0.4560 -0.1341
 2242SOL    HW1 6725   2.738   3.203   9.487  1.5758  0.3941  1.5468
 2242SOL    HW2 6726   2.867   3.281   9.470  1.6732 -0.1528 -0.5604
 2243SOL     OW 6727   2.834   2.097   5.772  0.3844 -1.0664 -0.1218
 2243SOL    HW1 6728   2.832   2.019   5.826  1.1988 -1.1128 -0.1457
 2243SOL    HW2 6729   2.890   2.074   5.698  0.7857 -0.4005 -0.0326
 2244SOL     OW 6730   0.788   2.640   5.330  0.2802  0.1758 -0.0896
 2244SOL    HW1 6731   0.793   2.647   5.235 -1.4370  0.0709 -0.2108
 2244SOL    HW2 6732   0.710   2.586   5.346  1.0331 -0.5422  1.3599
 2245SOL     OW 6733   3.106   2.107   8.240  0.6416  0.2557 -0.2713
 2245SOL    HW1 6734   3.025   2.158   8.246  1.0681  0.9080  0.1694
 2245SOL    HW2 6735   3.130   2.090   8.332  0.5497 -0.6803 -0.4097
 2246SOL     OW 6736   2.177   1.275   6.474 -0.4711  0.8221  0.6622
 2246SOL    HW1 6737   2.175   1.184   6.445 -4.3458  1.1003 -0.5606
 2246SOL    HW2 6738   2.247   1.315   6.423  0.1827 -1.0889 -0.0335
 2247SOL     OW 6739   2.237   3.704   5.991 -0.6396 -0.3077 -0.8736
 2247SOL    HW1 6740   2.164   3.681   5.935 -0.0370 -0.4271 -1.6250
 2247SOL    HW2 6741   2.285   3.622   6.004 -0.3378 -0.1294 -0.8316
 2248SOL     OW 6742   2.179   1.798   6.781 -0.0988  0.2365  0.1343
 2248SOL    HW1 6743   2.154   1.712   6.816 -0.5860  0.5795  0.6274
 2248SOL    HW2 6744   2.275   1.797   6.784 -0.0612 -0.6315 -0.6980
 2249SOL     OW 6745   1.547   0.262   6.414 -0.5729 -0.3176 -0.4722
 2249SOL    HW1 6746   1.629   0.243   6.459  0.5623 -0.4874 -2.4823
 2249SOL    HW2 6747   1.520   0.348   6.448  0.8851  0.1211 -0.3578
 2250SOL     OW 6748   0.176   0.492   5.811  0.3154  0.0732 -0.1344
 2250SOL    HW1 6749   0.140   0.504   5.898 -1.1037 -4.0461  0.0568
 2250SOL    HW2 6750   0.252   0.435   5.823  0.4545 -0.0809 -1.5048
 2251SOL     OW 6751   2.970   0.562   6.959  0.2345 -0.5201 -0.1847
 2251SOL    HW1 6752   2.982   0.488   7.019  0.4681 -1.2830 -1.1383
 2251SOL    HW2 6753   3.053   0.569   6.913 -0.1738 -0.4109 -0.9216
 2252SOL     OW 6754   4.857   3.914   5.473 -0.4310  0.1425  0.3057
 2252SOL    HW1 6755   4.898   3.869   5.547  0.4147  2.2926  1.2190
 2252SOL    HW2 6756   4.783   3.961   5.512 -2.1193 -1.3987 -0.8540
 2253SOL     OW 6757   4.621   3.624   6.064  0.7412  0.7677 -0.3099
 2253SOL    HW1 6758   4.566   3.700   6.085  0.9723  0.6638  0.7338
 2253SOL    HW2 6759   4.563   3.564   6.018  0.6693  1.7515 -1.5706
 2254SOL     OW 6760   3.907   3.853   6.204 -0.3053 -0.2519 -0.3440
 2254SOL    HW1 6761   3.945   3.789   6.144 -0.5900  0.3433 -1.1703
 2254SOL    HW2 6762   3.942   3.937   6.174  0.8897 -0.0913  1.3475
 2255SOL     OW 6763   1.742   4.572   5.113  0.0069  0.5217  0.1684
 2255SOL    HW1 6764   1.836   4.583   5.129 -0.0833 -0.1607  1.3034
 2255SOL    HW2 6765   1.718   4.495   5.166 -1.5836  1.8703  1.5239
 2256SOL     OW 6766   3.350   2.215   7.133 -0.1794  0.4418 -0.3457
 2256SOL    HW1 6767   3.388   2.133   7.163  1.5041  0.8801 -1.1518
 2256SOL    HW2 6768   3.275   2.231   7.191  0.4442 -0.8259  0.8359
 2257SOL     OW 6769   1.229   3.690   5.434  0.3530 -0.1984  0.5234
 2257SOL    HW1 6770   1.188   3.670   5.518 -0.7015  0.5709  0.2150
 2257SOL    HW2 6771   1.180   3.766   5.401  0.0982 -1.0754 -1.2336
 2258SOL     OW 6772   3.395   1.118   9.777 -0.2173  0.7909  0.2598
 2258SOL    HW1 6773   3.356   1.111   9.864 -1.1842  0.8310 -0.1584
 2258SOL    HW2 6774   3.372   1.206   9.747 -0.4068  0.5691 -0.2689
 2259SOL     OW 6775   1.460   1.144   4.771  0.1841  0.0476  0.0335
 2259SOL    HW1 6776   1.508   1.085   4.830 -1.4934  0.2070  1.6458
 2259SOL    HW2 6777   1.412   1.085   4.713 -0.9018 -0.2165  1.1571
 2260SOL     OW 6778   2.001   3.936   7.524  0.1822  1.4324  0.5826
 2260SOL    HW1 6779   2.037   3.867   7.580 -3.9151 -1.0822  0.5093
 2260SOL    HW2 6780   2.002   4.014   7.579 -1.8913 -0.4916  3.6619
 2261SOL     OW 6781   2.580   3.862   7.688  0.6258  0.0701  0.0873
 2261SOL    HW1 6782   2.623   3.941   7.720  0.2690  0.7292 -0.9728
 2261SOL    HW2 6783   2.646   3.794   7.695  0.7931  0.3560  1.4452
 2262SOL     OW 6784   0.018   0.801   5.510  0.4691 -0.5128 -0.0658
 2262SOL    HW1 6785   0.086   0.773   5.572  1.0054 -0.8282 -0.7893
 2262SOL    HW2 6786   0.023   0.738   5.438 -0.9733 -0.8815  0.1187
 2263SOL     OW 6787   2.879   4.850   6.701 -0.3650  0.3735  0.2812
 2263SOL    HW1 6788   2.908   4.779   6.644 -1.1866  1.1230 -1.1433
 2263SOL    HW2 6789   2.784   4.836   6.709 -0.0560 -0.6854  2.9063
 2264SOL     OW 6790   2.236   4.171   8.508  0.4531  0.1097  0.1345
 2264SOL    HW1 6791   2.219   4.079   8.487  2.6593 -0.5092  0.7318
 2264SOL    HW2 6792   2.165   4.195   8.567 -0.6052 -0.9573 -0.6512
 2265SOL     OW 6793   2.748   0.144   8.238  0.4853 -0.0765  0.5540
 2265SOL    HW1 6794   2.705   0.081   8.179  0.0221  1.2130 -0.5235
 2265SOL    HW2 6795   2.770   0.218   8.182  2.1609  0.2195  1.5479
 2266SOL     OW 6796   2.824   1.520   6.543 -0.2258  0.2232  0.1399
 2266SOL    HW1 6797   2.805   1.427   6.546 -0.0800  0.1011 -1.5976
 2266SOL    HW2 6798   2.887   1.534   6.614 -0.0071 -1.0671  0.2220
 2267SOL     OW 6799   0.058   3.741   5.999  0.3026 -0.3290  0.0366
 2267SOL    HW1 6800   0.060   3.670   5.935  1.6041  1.6282 -2.3030
 2267SOL    HW2 6801   0.142   3.734   6.045 -0.3867 -1.3992  1.1584
 2268SOL     OW 6802   0.504   4.036   7.046  0.7181 -0.2167 -0.2204
 2268SOL    HW1 6803   0.539   4.124   7.060  0.6973  0.2472 -2.6445
 2268SOL    HW2 6804   0.578   3.978   7.062  0.4546  0.0645  2.5397
 2269SOL     OW 6805   2.568   3.240   5.503 -0.2808 -0.1864 -0.6326
 2269SOL    HW1 6806   2.509   3.268   5.572 -1.2764 -1.3120 -0.9828
 2269SOL    HW2 6807   2.638   3.192   5.549  0.1531  0.7935 -0.2530
 2270SOL     OW 6808   2.296   1.399   7.519 -0.1200  0.2985 -0.8096
 2270SOL    HW1 6809   2.332   1.327   7.570 -1.1497  1.3247  1.5065
 2270SOL    HW2 6810   2.365   1.465   7.518  0.4609 -0.3029 -2.0965
 2271SOL     OW 6811   0.998   4.088   5.636 -0.1407  0.6944 -0.4569
 2271SOL    HW1 6812   0.958   4.022   5.693 -1.6669  2.8845  1.1794
 2271SOL    HW2 6813   0.944   4.086   5.557 -0.8542  0.6956  0.0200
 2272SOL     OW 6814   1.073   2.389   7.141 -0.6028  0.2501 -0.0403
 2272SOL    HW1 6815   1.011   2.340   7.088  0.3374 -2.5171  1.2346
 2272SOL    HW2 6816   1.019   2.443   7.198 -1.7146  0.1170 -0.9344
 2273SOL     OW 6817   1.515   2.926   4.560 -0.5808 -0.0246 -0.3604
 2273SOL    HW1 6818   1.476   2.839   4.563  1.5585 -1.0140  0.5440
 2273SOL    HW2 6819   1.546   2.935   4.470  2.1269 -1.6453  0.3141
 2274SOL     OW 6820   3.543   3.828   6.780 -0.5644 -0.1636 -0.4793
 2274SOL    HW1 6821   3.566   3.790   6.695  0.3434  0.1470 -0.3852
 2274SOL    HW2 6822   3.611   3.893   6.796 -0.5652 -0.4196  0.6287
 2275SOL     OW 6823   2.966   0.587   6.144 -0.0577 -0.1059 -0.5252
 2275SOL    HW1 6824   2.932   0.565   6.230 -1.4881 -0.9680 -1.2802
 2275SOL    HW2 6825   2.893   0.571   6.084  0.8565  0.6098 -1.8882
 2276SOL     OW 6826   3.360   1.604   4.865  0.4143 -0.3396  0.4581
 2276SOL    HW1 6827   3.271   1.571   4.880 -0.3784 -0.2328 -3.1933
 2276SOL    HW2 6828   3.352   1.699   4.874  0.3424 -0.3841  0.8862
 2277SOL     OW 6829   2.936   4.487   7.700  0.4639 -0.7597  0.1155
 2277SOL    HW1 6830   2.866   4.426   7.677  0.6444 -0.6666 -0.7340
 2277SOL    HW2 6831   3.008   4.431   7.729  0.3293 -0.9059  0.1656
 2278SOL     OW 6832   2.189   3.974   4.898  0.2237  0.3501  0.1327
 2278SOL    HW1 6833   2.126   3.903   4.900 -2.9428  2.8510 -1.4621
 2278SOL    HW2 6834   2.227   3.971   4.810  2.5706 -1.1576  1.0867
 2279SOL     OW 6835   2.116   2.511   8.137 -0.7262  0.0301 -0.3682
 2279SOL    HW1 6836   2.140   2.565   8.062  1.5292 -0.9569 -0.4207
 2279SOL    HW2 6837   2.120   2.571   8.212  0.1228  0.3208 -0.6383
 2280SOL     OW 6838   1.883   4.740   4.717 -0.6463 -0.0287  0.6814
 2280SOL    HW1 6839   1.889   4.735   4.622 -0.6021  2.8387  0.4379
 2280SOL    HW2 6840   1.951   4.681   4.749 -0.1597 -0.4666 -1.0773
 2281SOL     OW 6841   4.822   0.967   4.892 -0.2151  0.5133  0.2374
 2281SOL    HW1 6842   4.738   1.006   4.869 -0.9282 -0.3574  1.3158
 2281SOL    HW2 6843   4.807   0.873   4.890  0.8192  0.3355  0.1531
 2282SOL     OW 6844   1.636   1.638   6.192 -0.2372  1.1144  0.0228
 2282SOL    HW1 6845   1.647   1.732   6.208  0.3852  1.1784 -0.7478
 2282SOL    HW2 6846   1.613   1.602   6.278  2.6243  1.5216  1.0640
 2283SOL     OW 6847   3.362   0.314   6.708 -0.4550  0.3669 -0.0083
 2283SOL    HW1 6848   3.422   0.240   6.702  0.1008  0.8625 -0.7599
 2283SOL    HW2 6849   3.275   0.275   6.705 -0.1744 -0.3209  0.5100
 2284SOL     OW 6850   4.202   2.517   6.940 -0.1446 -0.2984 -0.0938
 2284SOL    HW1 6851   4.200   2.584   7.009  2.8896 -1.4185  1.2790
 2284SOL    HW2 6852   4.278   2.540   6.886 -1.3943 -0.4752 -1.9921
 2285SOL     OW 6853   0.324   2.398   7.764  0.0060 -0.5690  0.3481
 2285SOL    HW1 6854   0.323   2.344   7.843 -1.6303 -2.9523 -1.1697
 2285SOL    HW2 6855   0.399   2.457   7.776  3.4476 -4.6129  1.2555
 2286SOL     OW 6856   4.768   1.288   5.771  0.0014  1.1551  0.8837
 2286SOL    HW1 6857   4.854   1.276   5.810  0.7636  0.9625 -0.7582
 2286SOL    HW2 6858   4.730   1.362   5.818  0.0533 -0.2150  3.2384
 2287SOL     OW 6859   3.245   3.450   7.016 -0.2673  0.0343 -0.1154
 2287SOL    HW1 6860   3.150   3.463   7.020 -0.4428 -1.3273  0.5246
 2287SOL    HW2 6861   3.266   3.463   6.923 -1.3493 -1.2653 -0.5864
 2288SOL     OW 6862   3.616   2.918   5.837 -0.1358  0.2863  0.6325
 2288SOL    HW1 6863   3.705   2.952   5.822 -0.1986 -0.2937 -1.4590
 2288SOL    HW2 6864   3.567   2.993   5.870  1.1149  0.6237  1.7867
 2289SOL     OW 6865   1.241   1.654   7.361 -0.0667 -0.4533  0.1669
 2289SOL    HW1 6866   1.292   1.727   7.396  0.8920 -0.6541 -0.7593
 2289SOL    HW2 6867   1.154   1.691   7.345  0.2864  0.3681  0.1112
 2290SOL     OW 6868   1.144   0.556   7.959  0.3643 -0.2238 -0.0685
 2290SOL    HW1 6869   1.197   0.491   7.914 -0.4382 -0.0116 -1.3715
 2290SOL    HW2 6870   1.056   0.544   7.924 -0.6569 -1.0278  2.5411
 2291SOL     OW 6871   3.618   0.928   6.022 -0.2395  0.4633  0.0273
 2291SOL    HW1 6872   3.598   1.021   6.029 -1.3102  0.2606 -0.0562
 2291SOL    HW2 6873   3.534   0.888   5.999  0.1255 -0.5628  0.4304
 2292SOL     OW 6874   3.548   4.917   7.594  0.1152 -0.0417  0.1959
 2292SOL    HW1 6875   3.590   5.000   7.618 -0.6794  0.9576 -1.6724
 2292SOL    HW2 6876   3.488   4.940   7.523 -2.3959 -1.7092  1.6383
 2293SOL     OW 6877   1.895   1.251   7.467 -0.1890  0.3364 -0.0858
 2293SOL    HW1 6878   1.825   1.307   7.501 -0.3357 -0.5365  1.1375
 2293SOL    HW2 6879   1.912   1.189   7.539  1.0478 -0.1787 -0.8050
 2294SOL     OW 6880   4.926   3.790   5.688 -0.7516 -1.0580  0.6436
 2294SOL    HW1 6881   4.898   3.700   5.703  0.0352 -1.2337  1.1099
 2294SOL    HW2 6882   4.998   3.803   5.750 -0.3739 -0.3494  0.0661
 2295SOL     OW 6883   4.336   4.247   8.374 -0.5920 -0.1965  0.4627
 2295SOL    HW1 6884   4.348   4.245   8.469  2.7365  1.8360  0.2635
 2295SOL    HW2 6885   4.252   4.291   8.361 -0.9142 -0.1349  2.4343
 2296SOL     OW 6886   3.509   1.446   6.459  0.2767 -0.1772 -0.0822
 2296SOL    HW1 6887   3.436   1.435   6.399 -0.4067  0.9376  0.5101
 2296SOL    HW2 6888   3.497   1.378   6.526  0.4605 -0.7522 -0.6274
 2297SOL     OW 6889   2.340   4.269   5.059 -0.1811  0.4732  0.0991
 2297SOL    HW1 6890   2.388   4.187   5.059 -2.7740 -1.1964  0.9766
 2297SOL    HW2 6891   2.323   4.288   5.152  0.4667  2.0943 -0.0736
 2298SOL     OW 6892   2.215   1.255   4.905  0.0574  0.4941 -0.6997
 2298SOL    HW1 6893   2.283   1.235   4.970  0.6388 -0.8223 -1.6706
 2298SOL    HW2 6894   2.148   1.189   4.920  0.8192 -0.7068 -2.2753
 2299SOL     OW 6895   1.301   3.003   4.706 -0.0107 -1.0070 -0.9384
 2299SOL    HW1 6896   1.388   2.986   4.670 -0.4579 -2.6061 -1.3657
 2299SOL    HW2 6897   1.307   3.090   4.744  1.4921 -0.6900 -1.8217
 2300SOL     OW 6898   2.296   0.213   4.825  0.2299  0.0072  0.2779
 2300SOL    HW1 6899   2.307   0.140   4.765 -0.9087 -0.3690  0.5156
 2300SOL    HW2 6900   2.270   0.173   4.908  0.3263  0.6321  0.6181
 2301SOL     OW 6901   0.454   3.968   6.104  0.2411 -0.6566  0.3374
 2301SOL    HW1 6902   0.380   3.908   6.116 -0.0610 -0.4520 -0.4377
 2301SOL    HW2 6903   0.504   3.960   6.185  0.3706 -2.1811  0.1463
 2302SOL     OW 6904   3.346   0.461   5.811 -0.9401 -0.2211  0.7608
 2302SOL    HW1 6905   3.426   0.472   5.759 -1.6612  1.2495 -0.0928
 2302SOL    HW2 6906   3.307   0.548   5.814 -2.1348 -0.7659  1.7948
 2303SOL     OW 6907   2.446   4.847   5.878  0.2135 -0.2169 -0.0800
 2303SOL    HW1 6908   2.385   4.870   5.948 -0.7646 -0.4268 -0.8440
 2303SOL    HW2 6909   2.392   4.838   5.800  0.9647 -2.0630 -0.4579
 2304SOL     OW 6910   3.115   3.827   5.097  0.1375 -0.2883  0.4729
 2304SOL    HW1 6911   3.210   3.832   5.105  0.1563  0.5513 -0.0945
 2304SOL    HW2 6912   3.098   3.743   5.055  0.6603 -0.2805  0.2421
 2305SOL     OW 6913   1.273   4.214   5.041  0.1172 -0.1660 -0.8839
 2305SOL    HW1 6914   1.352   4.220   4.987  0.8923  1.9952  0.3659
 2305SOL    HW2 6915   1.305   4.185   5.126 -0.2247  1.7123 -0.0667
 2306SOL     OW 6916   2.323   3.625   5.420 -0.3659 -0.2409 -0.2835
 2306SOL    HW1 6917   2.410   3.617   5.382 -1.2129 -3.1702 -1.9024
 2306SOL    HW2 6918   2.327   3.576   5.501 -0.3230  0.3408  0.0740
 2307SOL     OW 6919   1.005   4.737   4.953 -0.0410 -0.0184 -0.0062
 2307SOL    HW1 6920   1.058   4.662   4.928 -0.2597  0.4286 -1.9282
 2307SOL    HW2 6921   1.040   4.810   4.901 -1.5749  0.6039 -0.2266
 2308SOL     OW 6922   4.740   0.475   6.736 -0.5046 -0.0510  0.1607
 2308SOL    HW1 6923   4.776   0.483   6.648 -0.9114 -0.2421 -0.0235
 2308SOL    HW2 6924   4.751   0.562   6.775 -0.2972  0.0246 -0.0651
 2309SOL     OW 6925   4.287   3.575   7.262 -0.2168  0.0816  0.0917
 2309SOL    HW1 6926   4.333   3.491   7.265 -0.5641 -0.1332 -0.4890
 2309SOL    HW2 6927   4.271   3.591   7.169  1.0324  1.4495  0.0653
 2310SOL     OW 6928   0.518   3.424   6.787 -0.3115 -0.1421  0.3819
 2310SOL    HW1 6929   0.495   3.472   6.866  1.8205  1.2335  0.2448
 2310SOL    HW2 6930   0.531   3.334   6.816  0.7608  0.4069  1.7061
 2311SOL     OW 6931   2.095   4.888   4.921 -0.2420  0.6166  0.0924
 2311SOL    HW1 6932   2.005   4.908   4.896 -0.7235 -1.9349 -0.5611
 2311SOL    HW2 6933   2.131   4.843   4.845  0.5646 -1.1057  1.4180
 2312SOL     OW 6934   2.554   4.909   8.306  0.1988  0.1314  0.0488
 2312SOL    HW1 6935   2.536   4.924   8.213 -0.2158 -0.8258 -0.0410
 2312SOL    HW2 6936   2.536   4.816   8.319  1.0850  0.0595  0.9046
 2313SOL     OW 6937   0.548   3.656   9.941  0.3889  0.0118 -0.7424
 2313SOL    HW1 6938   0.581   3.708   9.868  1.0432 -0.3658 -0.7245
 2313SOL    HW2 6939   0.614   3.665  10.009 -1.1378  1.9704  0.5823
 2314SOL     OW 6940   0.531   2.559   7.789 -0.6122  0.5738 -0.6886
 2314SOL    HW1 6941   0.557   2.610   7.866 -0.9670 -0.0203 -0.1650
 2314SOL    HW2 6942   0.476   2.619   7.738 -0.2290  1.0301 -0.5793
 2315SOL     OW 6943   2.339   3.879   9.729 -0.3412 -0.1188  0.3457
 2315SOL    HW1 6944   2.336   3.936   9.652  0.9663  0.6783  0.8707
 2315SOL    HW2 6945   2.374   3.796   9.696  2.9206  1.0693  0.5267
 2316SOL     OW 6946   2.731   1.780   7.312 -0.2986 -0.1149 -0.2741
 2316SOL    HW1 6947   2.645   1.806   7.346 -0.6425 -2.3032  0.6770
 2316SOL    HW2 6948   2.792   1.799   7.383 -0.4994 -1.4815  0.2877
 2317SOL     OW 6949   3.084   1.679   5.849  0.5653 -0.1858 -0.2106
 2317SOL    HW1 6950   3.128   1.753   5.808  1.0622 -0.3961 -0.0557
 2317SOL    HW2 6951   3.060   1.710   5.936 -0.4177  0.2336 -0.6191
 2318SOL     OW 6952   4.236   2.851   8.827 -0.0565 -0.2552 -0.4068
 2318SOL    HW1 6953   4.175   2.786   8.862 -0.7653 -0.5661 -2.1661
 2318SOL    HW2 6954   4.320   2.804   8.825  0.5658  0.4309  2.8129
 2319SOL     OW 6955   1.326   0.117   4.736 -0.0685  0.1429 -0.3985
 2319SOL    HW1 6956   1.416   0.148   4.752 -0.7056  1.5949  0.5327
 2319SOL    HW2 6957   1.329   0.024   4.757  1.2178  0.1634 -0.3925
 2320SOL     OW 6958   2.430   2.760   7.952  0.6748 -0.0700 -0.9575
 2320SOL    HW1 6959   2.397   2.805   8.030 -1.1135 -0.5611 -1.3789
 2320SOL    HW2 6960   2.523   2.746   7.970 -0.0263 -1.8735  1.9723
 2321SOL     OW 6961   0.614   3.367   9.915 -0.4358 -0.3211  0.7059
 2321SOL    HW1 6962   0.708   3.374   9.898 -0.3170 -0.6866  1.1977
 2321SOL    HW2 6963   0.576   3.445   9.874 -0.1549 -1.0974 -1.1323
 2322SOL     OW 6964   2.659   3.510   9.103  0.6305 -0.3267 -0.4779
 2322SOL    HW1 6965   2.710   3.541   9.029  0.4799  0.0749 -0.4125
 2322SOL    HW2 6966   2.685   3.418   9.113  0.2354 -0.5486 -1.3801
 2323SOL     OW 6967   3.105   2.147   5.612  0.4525 -0.6200  0.1587
 2323SOL    HW1 6968   3.110   2.197   5.693 -1.2478 -1.1756  0.6455
 2323SOL    HW2 6969   3.127   2.210   5.543 -1.3951  0.7742  0.7651
 2324SOL     OW 6970   2.698   1.041   8.038  0.2740  0.0864 -0.4849
 2324SOL    HW1 6971   2.681   0.954   8.001 -1.0837  0.1837 -0.1479
 2324SOL    HW2 6972   2.735   1.024   8.124 -1.1925 -0.1991  0.1188
 2325SOL     OW 6973   3.201   3.788   6.277  0.1676 -0.0379 -0.4819
 2325SOL    HW1 6974   3.265   3.727   6.315 -1.5747 -1.5451  0.1891
 2325SOL    HW2 6975   3.226   3.874   6.311  2.1195 -0.4768 -0.6679
 2326SOL     OW 6976   4.891   4.850   8.082 -0.1122 -0.7012 -0.2647
 2326SOL    HW1 6977   4.889   4.800   8.001  0.7125  0.4980 -1.0634
 2326SOL    HW2 6978   4.799   4.873   8.099 -0.0680  4.4844 -4.4863
 2327SOL     OW 6979   4.247   3.901   9.236  0.0623 -0.5623  0.1743
 2327SOL    HW1 6980   4.171   3.847   9.255  0.2588 -0.5710  0.9574
 2327SOL    HW2 6981   4.235   3.979   9.290  0.8670 -0.7979  0.7100
 2328SOL     OW 6982   0.781   3.857   7.548 -0.4695  0.1040 -0.0332
 2328SOL    HW1 6983   0.717   3.919   7.512 -1.4610 -0.8025  0.1168
 2328SOL    HW2 6984   0.767   3.776   7.498  1.8178  0.3755 -1.2456
 2329SOL     OW 6985   3.551   1.838   7.337 -0.3420  0.4913 -0.4517
 2329SOL    HW1 6986   3.520   1.901   7.272 -0.3649  1.0773  0.1162
 2329SOL    HW2 6987   3.473   1.788   7.362 -0.0967 -0.6426 -1.8297
 2330SOL     OW 6988   2.076   2.297   6.709  0.1943  1.1727  0.0436
 2330SOL    HW1 6989   1.991   2.336   6.729 -1.0088 -0.9123 -0.7266
 2330SOL    HW2 6990   2.131   2.324   6.783 -0.5152  4.1391 -0.3528
 2331SOL     OW 6991   1.624   2.523   7.993 -0.7783  0.4090  0.5151
 2331SOL    HW1 6992   1.622   2.611   8.032 -0.6343  0.6873 -0.1041
 2331SOL    HW2 6993   1.694   2.479   8.041 -0.5389  0.7810  0.5165
 2332SOL     OW 6994   2.886   2.394   5.867 -0.7531  0.4837 -0.0676
 2332SOL    HW1 6995   2.864   2.356   5.782 -0.1723  1.9013 -0.8862
 2332SOL    HW2 6996   2.907   2.319   5.922  1.7223 -0.3965 -2.0160
 2333SOL     OW 6997   4.189   1.765   7.210 -0.3752 -0.3894 -0.3509
 2333SOL    HW1 6998   4.254   1.826   7.178 -1.7220  1.6066  0.5417
 2333SOL    HW2 6999   4.239   1.687   7.235  1.6059  0.9093 -0.0828
 2334SOL     OW 7000   3.115   4.931   6.497  0.0584  0.0768 -0.8838
 2334SOL    HW1 7001   3.069   4.938   6.581 -1.3244 -1.4260 -1.4682
 2334SOL    HW2 7002   3.061   4.982   6.436  0.7093  0.6295 -1.0076
 2335SOL     OW 7003   1.803   4.144   9.222 -0.2375 -0.3605  0.0463
 2335SOL    HW1 7004   1.867   4.074   9.207 -1.6889 -1.4369 -1.5419
 2335SOL    HW2 7005   1.844   4.222   9.184  0.4918 -0.8413 -0.1783
 2336SOL     OW 7006   4.482   2.214   5.365 -0.3792 -0.0825 -0.1009
 2336SOL    HW1 7007   4.576   2.234   5.364 -0.1765 -0.8294  1.4780
 2336SOL    HW2 7008   4.475   2.127   5.405 -1.5858 -1.2398 -2.6120
 2337SOL     OW 7009   3.940   0.771   8.404 -0.2731 -0.4345 -0.4761
 2337SOL    HW1 7010   3.945   0.839   8.336 -3.2369  0.1482 -0.2166
 2337SOL    HW2 7011   4.028   0.732   8.404  1.7260  3.4980 -0.4784
 2338SOL     OW 7012   3.076   3.181   5.048 -0.7389 -0.2761 -0.5609
 2338SOL    HW1 7013   3.123   3.098   5.034  1.4259  1.0466 -1.7209
 2338SOL    HW2 7014   3.111   3.216   5.129 -1.2866 -0.2580 -0.3291
 2339SOL     OW 7015   0.051   2.918   6.558 -0.0742 -0.5488  0.4519
 2339SOL    HW1 7016   0.097   2.989   6.513 -2.1037  0.7442  0.3012
 2339SOL    HW2 7017  -0.024   2.899   6.503 -1.3606 -0.5306  2.1277
 2340SOL     OW 7018   2.138   0.154   9.597 -0.6085  0.0948 -0.3612
 2340SOL    HW1 7019   2.050   0.184   9.619 -0.6554 -1.4574  1.9455
 2340SOL    HW2 7020   2.156   0.084   9.660  2.5369  0.8025 -0.2920
 2341SOL     OW 7021   0.437   4.203   9.878  0.7033  0.3910  0.3635
 2341SOL    HW1 7022   0.395   4.118   9.885  2.8421 -0.7170  0.6920
 2341SOL    HW2 7023   0.386   4.261   9.934 -0.1801 -0.9307  0.9549
 2342SOL     OW 7024   1.532   4.159   7.998 -0.0465 -0.2299 -1.7404
 2342SOL    HW1 7025   1.485   4.075   8.002 -1.5315  0.6238  0.2753
 2342SOL    HW2 7026   1.623   4.136   8.017 -0.5440 -1.3353 -0.5157
 2343SOL     OW 7027   2.915   1.575   6.832 -0.0215 -0.2118  0.1893
 2343SOL    HW1 7028   2.944   1.533   6.913  2.4584  0.6496 -0.1842
 2343SOL    HW2 7029   2.828   1.609   6.853  0.5398 -0.0287  2.4918
 2344SOL     OW 7030   2.293   4.637   8.713  1.0133  0.4035 -0.2534
 2344SOL    HW1 7031   2.311   4.689   8.634 -0.9234  0.1893 -0.8867
 2344SOL    HW2 7032   2.367   4.655   8.770  1.6851  1.8252 -1.4865
 2345SOL     OW 7033   0.984   2.018   9.321 -0.2000 -0.6098  0.1072
 2345SOL    HW1 7034   1.059   2.006   9.378 -1.2044 -1.1297  1.3599
 2345SOL    HW2 7035   0.983   2.112   9.302  1.4837 -0.7771 -0.9853
 2346SOL     OW 7036   4.107   4.367   8.305 -0.4426 -0.5962 -0.0600
 2346SOL    HW1 7037   4.094   4.462   8.301 -1.6631 -0.7393 -0.1083
 2346SOL    HW2 7038   4.022   4.331   8.280 -0.1112 -1.6987  0.3542
 2347SOL     OW 7039   3.918   0.655   7.602 -0.1558 -0.4138  0.2004
 2347SOL    HW1 7040   3.990   0.592   7.605  0.3000  0.0530 -0.6469
 2347SOL    HW2 7041   3.899   0.666   7.509 -0.2608  0.6564  0.3306
 2348SOL     OW 7042   4.924   3.088   5.575 -0.2361  0.0460 -0.4532
 2348SOL    HW1 7043   4.979   3.015   5.548 -1.1015 -0.7757 -0.0434
 2348SOL    HW2 7044   4.834   3.055   5.567 -0.6681  1.1839 -0.6172
 2349SOL     OW 7045   1.888   0.580   9.165 -0.3541 -0.5040  0.5344
 2349SOL    HW1 7046   1.962   0.545   9.115 -1.2551  1.2447 -2.2653
 2349SOL    HW2 7047   1.922   0.662   9.202  0.1881 -1.5965  2.5520
 2350SOL     OW 7048   0.192   2.309   9.842 -0.0058  0.4503  0.2621
 2350SOL    HW1 7049   0.108   2.321   9.888 -0.7491 -2.1809 -0.2206
 2350SOL    HW2 7050   0.242   2.250   9.899  0.6819  0.3671 -0.4106
 2351SOL     OW 7051   2.110   2.397   6.291 -0.8837  0.2623 -0.5222
 2351SOL    HW1 7052   2.173   2.376   6.221  0.1022 -0.1340  0.4542
 2351SOL    HW2 7053   2.045   2.327   6.286 -1.2575  0.6742 -1.5459
 2352SOL     OW 7054   1.940   2.489   8.684 -0.2428  0.2705 -0.9309
 2352SOL    HW1 7055   1.990   2.411   8.659  1.0406 -0.0790  2.3165
 2352SOL    HW2 7056   1.860   2.454   8.722 -1.3634  0.7439 -2.7105
 2353SOL     OW 7057   4.323   3.947   8.509  0.5972  0.2971 -0.6818
 2353SOL    HW1 7058   4.400   4.001   8.526 -0.6466  1.4884  1.7225
 2353SOL    HW2 7059   4.321   3.883   8.580 -0.6009  0.2810 -0.7023
 2354SOL     OW 7060   4.594   4.300   9.839  0.6214 -0.3470  0.2501
 2354SOL    HW1 7061   4.575   4.215   9.877  2.5831  0.0513  2.3083
 2354SOL    HW2 7062   4.550   4.363   9.897 -1.3036  0.1143 -1.5714
 2355SOL     OW 7063   2.944   1.840  10.129  0.1557  0.8113 -0.3587
 2355SOL    HW1 7064   2.882   1.816  10.059 -0.2143 -3.1244  1.0426
 2355SOL    HW2 7065   2.899   1.815  10.210  2.3425  0.9199  0.9566
 2356SOL     OW 7066   2.992   0.211  10.386 -0.3762  0.0101  0.1428
 2356SOL    HW1 7067   3.056   0.237  10.452 -0.0526 -0.3345 -0.0320
 2356SOL    HW2 7068   3.007   0.272  10.313  1.8870 -1.9373 -1.1851
 2357SOL     OW 7069   1.686   4.444   9.063 -1.0798 -0.4368 -0.1913
 2357SOL    HW1 7070   1.776   4.420   9.085  0.1074  3.2331 -0.3445
 2357SOL    HW2 7071   1.681   4.433   8.969  0.5951  2.8080 -0.7967
 2358SOL     OW 7072   0.631   1.435   7.653  0.2007 -0.1652  0.3471
 2358SOL    HW1 7073   0.715   1.407   7.616  0.8508  1.7364  0.2794
 2358SOL    HW2 7074   0.583   1.471   7.578 -0.8056 -1.4431  0.3415
 2359SOL     OW 7075   1.751   2.082   5.786 -0.2490 -0.0364  0.0708
 2359SOL    HW1 7076   1.759   2.065   5.692 -0.4232 -1.0521  0.2300
 2359SOL    HW2 7077   1.804   2.161   5.800 -0.3192  0.1995 -0.8942
 2360SOL     OW 7078   3.488   4.106   9.907 -0.1431  0.1900 -0.1098
 2360SOL    HW1 7079   3.521   4.117   9.818  0.1825  1.6322  0.1719
 2360SOL    HW2 7080   3.562   4.066   9.954 -0.6227 -1.4256 -0.6627
 2361SOL     OW 7081   3.620   1.117   6.951 -0.2517 -0.0546 -0.4103
 2361SOL    HW1 7082   3.548   1.139   7.011  0.3503  2.4678 -0.5277
 2361SOL    HW2 7083   3.646   1.200   6.913  1.8416 -1.1065 -1.4217
 2362SOL     OW 7084   3.162   2.777   9.483 -0.0967 -0.5154  0.5276
 2362SOL    HW1 7085   3.090   2.713   9.485 -0.3990 -0.2261 -0.6861
 2362SOL    HW2 7086   3.122   2.858   9.451  0.6663 -0.1959  0.3557
 2363SOL     OW 7087   4.925   1.625   7.463 -0.1916  0.4120 -0.5167
 2363SOL    HW1 7088   4.837   1.628   7.499 -0.1785 -0.4744 -0.3968
 2363SOL    HW2 7089   4.914   1.599   7.372  0.0821 -2.6042  0.2032
 2364SOL     OW 7090   4.472   1.831   8.387 -0.5054  0.4552  0.0860
 2364SOL    HW1 7091   4.509   1.916   8.410 -0.3934  0.8309 -1.4161
 2364SOL    HW2 7092   4.387   1.830   8.431 -0.0846  0.9009  0.9470
 2365SOL     OW 7093   2.101   0.228   8.538  0.3426  0.0494  0.2240
 2365SOL    HW1 7094   2.021   0.191   8.499  0.8104 -0.9773  0.2108
 2365SOL    HW2 7095   2.086   0.322   8.538  0.0870  0.0608 -1.9261
 2366SOL     OW 7096   1.365   4.812   7.725 -0.4842  0.0744  0.3448
 2366SOL    HW1 7097   1.367   4.896   7.772  0.1155  0.2801 -0.0399
 2366SOL    HW2 7098   1.285   4.817   7.672 -0.3791  0.4679  0.2145
 2367SOL     OW 7099   3.735   3.094   4.948 -0.3546 -0.5276  0.6173
 2367SOL    HW1 7100   3.816   3.121   4.904  1.4468 -1.5177  3.1244
 2367SOL    HW2 7101   3.736   2.999   4.944  0.1489 -0.6909  3.1190
 2368SOL     OW 7102   2.866   2.902   5.743  0.8228 -0.1145 -0.4533
 2368SOL    HW1 7103   2.958   2.881   5.755  0.6376 -0.3427  0.6895
 2368SOL    HW2 7104   2.819   2.824   5.771  0.2466  0.3434 -0.1056
 2369SOL     OW 7105   3.249   1.951   5.021 -0.1089 -0.1832 -0.2037
 2369SOL    HW1 7106   3.274   1.995   4.940  1.4412 -1.6505 -0.5961
 2369SOL    HW2 7107   3.317   1.977   5.084  0.6674 -1.6640 -0.3629
 2370SOL     OW 7108   4.567   2.920  10.065 -0.9499  0.1527  0.8147
 2370SOL    HW1 7109   4.627   2.976  10.014 -1.2870  0.1551  0.4106
 2370SOL    HW2 7110   4.617   2.841  10.083 -1.3522 -0.5766 -0.9920
 2371SOL     OW 7111   3.625   0.111   6.755 -0.9109 -0.2674 -0.0895
 2371SOL    HW1 7112   3.617   0.132   6.848  1.6270 -2.2884  0.7326
 2371SOL    HW2 7113   3.540   0.075   6.731 -2.1700  1.8266  0.9372
 2372SOL     OW 7114   2.462   1.933   6.879  0.2778 -0.0910 -1.1877
 2372SOL    HW1 7115   2.464   2.027   6.895  0.7100 -0.1869 -0.6631
 2372SOL    HW2 7116   2.441   1.925   6.786 -0.0693  0.5147 -1.1624
 2373SOL     OW 7117   2.641   3.961   7.078  0.4183 -0.6448 -0.6531
 2373SOL    HW1 7118   2.638   4.034   7.017 -0.2751 -1.1137 -1.1948
 2373SOL    HW2 7119   2.726   3.969   7.121  0.2214  0.6677 -0.4632
 2374SOL     OW 7120   1.069   0.910   9.564 -0.2410 -0.0385 -0.3421
 2374SOL    HW1 7121   1.048   0.899   9.657 -0.1049  0.8232 -0.1949
 2374SOL    HW2 7122   1.040   0.829   9.522  1.1962 -1.1568  0.7000
 2375SOL     OW 7123   1.976   0.372   8.259 -0.1633  0.2743 -0.8256
 2375SOL    HW1 7124   1.971   0.420   8.342 -0.1241  0.7848 -1.1119
 2375SOL    HW2 7125   1.951   0.283   8.281  0.5016  0.2499 -0.1399
 2376SOL     OW 7126   3.838   0.262   9.567  0.3485  0.6597 -1.0431
 2376SOL    HW1 7127   3.865   0.344   9.608 -1.3645 -0.3634  2.5261
 2376SOL    HW2 7128   3.914   0.233   9.517  2.4999  2.3756  1.0359
 2377SOL     OW 7129   2.146   3.764   6.899  0.1740 -0.6338  0.1923
 2377SOL    HW1 7130   2.145   3.844   6.847 -3.6104  0.0088  0.9451
 2377SOL    HW2 7131   2.184   3.790   6.983  0.5945 -0.0738 -0.1709
 2378SOL     OW 7132   2.560   1.600   8.338 -0.3322  0.1161  0.1161
 2378SOL    HW1 7133   2.475   1.610   8.297  0.9441 -0.0724 -2.8247
 2378SOL    HW2 7134   2.595   1.518   8.302  1.1071  0.1871  1.2459
 2379SOL     OW 7135   0.550   3.609   5.281 -0.8073 -0.5793  0.3502
 2379SOL    HW1 7136   0.609   3.651   5.219 -3.1554  2.0709 -0.3222
 2379SOL    HW2 7137   0.508   3.540   5.231 -0.4977 -0.4478 -0.0957
 2380SOL     OW 7138   0.186   3.022   7.425 -0.4286 -0.2391  0.6526
 2380SOL    HW1 7139   0.186   3.003   7.519 -0.9078 -0.2713  0.6489
 2380SOL    HW2 7140   0.193   3.117   7.420  3.3347 -0.3858  0.6510
 2381SOL     OW 7141   3.283   2.462   7.768 -0.2781  0.0434 -0.5766
 2381SOL    HW1 7142   3.303   2.519   7.693 -0.7039 -0.1227 -0.8184
 2381SOL    HW2 7143   3.262   2.523   7.839 -2.1405  0.2125 -1.2110
 2382SOL     OW 7144  -0.023   0.999   6.771 -0.6798 -0.7009  0.4240
 2382SOL    HW1 7145  -0.025   0.938   6.697  2.4128  0.3596 -0.6962
 2382SOL    HW2 7146   0.053   1.055   6.754 -2.0794  2.1058  2.4893
 2383SOL     OW 7147   1.433   3.527   6.003  0.3730  0.2465 -0.3807
 2383SOL    HW1 7148   1.520   3.557   5.978 -0.0393  2.2526  0.3948
 2383SOL    HW2 7149   1.384   3.607   6.022 -1.1554 -0.8924  0.8045
 2384SOL     OW 7150   1.301   2.751   8.811  0.2176  0.5053 -0.5216
 2384SOL    HW1 7151   1.394   2.741   8.789 -0.0926 -0.4639 -1.5028
 2384SOL    HW2 7152   1.255   2.717   8.734 -0.9397 -0.6420  0.6266
 2385SOL     OW 7153   5.029   4.982   7.542 -0.8575 -0.1338  0.6350
 2385SOL    HW1 7154   4.958   5.040   7.571 -0.8845 -0.2057  0.7143
 2385SOL    HW2 7155   4.988   4.895   7.537 -1.0216 -0.0108 -0.2672
 2386SOL     OW 7156   3.014   4.749   8.346 -0.0998 -0.0626 -0.4470
 2386SOL    HW1 7157   3.107   4.767   8.355 -0.4498  2.2243 -0.7153
 2386SOL    HW2 7158   2.984   4.732   8.436  0.1853  1.5030 -0.0293
 2387SOL     OW 7159   3.135   4.178   6.977 -0.1152  0.2070  0.9143
 2387SOL    HW1 7160   3.063   4.140   6.926 -1.1606  3.0662  0.0996
 2387SOL    HW2 7161   3.214   4.141   6.938 -0.9731  0.7497 -1.4820
 2388SOL     OW 7162   4.828   3.446   5.173  0.2678  0.2290  0.5830
 2388SOL    HW1 7163   4.803   3.479   5.259  2.2305 -2.0607  2.1572
 2388SOL    HW2 7164   4.909   3.493   5.152  0.8571 -0.6161  0.9324
 2389SOL     OW 7165   1.635   2.243   9.605  0.7230  0.2937  0.1177
 2389SOL    HW1 7166   1.574   2.212   9.672  1.2006 -1.2130 -0.1131
 2389SOL    HW2 7167   1.604   2.331   9.585 -0.6219  0.0431  0.9004
 2390SOL     OW 7168   0.786   1.482   7.144 -0.4789  0.1836 -0.1515
 2390SOL    HW1 7169   0.880   1.490   7.129 -0.4167 -1.4065 -0.7964
 2390SOL    HW2 7170   0.746   1.524   7.068 -0.2234 -1.7626 -1.4212
 2391SOL     OW 7171   0.676   2.227   7.156  0.4192  0.3378 -0.0454
 2391SOL    HW1 7172   0.610   2.227   7.225 -0.0133  1.1213 -0.4454
 2391SOL    HW2 7173   0.663   2.144   7.110  0.6405 -0.1380  0.7366
 2392SOL     OW 7174   2.415   1.266   8.802 -0.2569  0.3171  0.4711
 2392SOL    HW1 7175   2.438   1.281   8.710  1.7800  0.3392  0.9402
 2392SOL    HW2 7176   2.405   1.171   8.808 -2.2035  0.4446 -0.1248
 2393SOL     OW 7177   4.151   4.347   9.902 -0.3489  0.4932  0.1501
 2393SOL    HW1 7178   4.152   4.443   9.897  1.7523  0.5552  0.6432
 2393SOL    HW2 7179   4.108   4.319   9.822  2.4136  1.8529 -2.0063
 2394SOL     OW 7180   3.137   1.204   7.642 -0.4323 -0.0951 -0.0957
 2394SOL    HW1 7181   3.168   1.186   7.554 -2.0616  0.8400 -0.9183
 2394SOL    HW2 7182   3.045   1.176   7.641 -0.8779  1.2036  0.8401
 2395SOL     OW 7183   4.387   1.082   7.350  0.1582  0.0892 -0.5546
 2395SOL    HW1 7184   4.403   1.045   7.263 -0.7412  0.1315 -0.7460
 2395SOL    HW2 7185   4.325   1.152   7.335  2.0334  1.9138 -0.2268
 2396SOL     OW 7186   4.675   3.558   8.143  0.3116 -0.2059 -0.4284
 2396SOL    HW1 7187   4.743   3.531   8.204 -0.8053  1.3979  1.6582
 2396SOL    HW2 7188   4.658   3.650   8.164 -1.8098 -0.2759 -1.5209
 2397SOL     OW 7189   4.194   0.922   7.777  0.5073  0.3169 -0.6450
 2397SOL    HW1 7190   4.244   0.890   7.852 -0.2019  0.3009 -0.1702
 2397SOL    HW2 7191   4.135   0.850   7.756 -0.2645  0.8421 -0.3268
 2398SOL     OW 7192   2.985   0.460   9.569 -0.4328  0.2252  0.0006
 2398SOL    HW1 7193   2.899   0.445   9.609  1.7231 -1.8914  4.5437
 2398SOL    HW2 7194   3.023   0.532   9.619  1.0673  0.0309 -0.7985
 2399SOL     OW 7195   1.891   3.088   6.604 -0.0089 -0.1642  0.2849
 2399SOL    HW1 7196   1.925   3.155   6.663 -0.9062 -0.6063  1.3507
 2399SOL    HW2 7197   1.867   3.136   6.525  0.2353  0.6241  0.6779
 2400SOL     OW 7198   0.966   2.529   9.084 -0.0297  0.2034 -0.1852
 2400SOL    HW1 7199   0.898   2.515   9.018 -3.2170  1.7992  2.5034
 2400SOL    HW2 7200   0.991   2.621   9.074  0.4783  0.0940  0.0185
 2401SOL     OW 7201   4.811   1.117   7.296  0.9150  0.0987  0.0396
 2401SOL    HW1 7202   4.780   1.193   7.247  1.1868  0.4355  0.3801
 2401SOL    HW2 7203   4.811   1.146   7.387  0.9176 -0.3455  0.1800
 2402SOL     OW 7204   3.449   4.215   8.664  0.0420  0.0892 -0.3203
 2402SOL    HW1 7205   3.524   4.174   8.707 -0.7108 -1.1062 -0.0977
 2402SOL    HW2 7206   3.477   4.227   8.573  1.3208  1.8038  0.2584
 2403SOL     OW 7207   4.423   0.079  10.114 -0.7755 -0.7271  0.0152
 2403SOL    HW1 7208   4.497   0.056  10.058 -1.5918 -0.1802 -1.3480
 2403SOL    HW2 7209   4.402  -0.002  10.161 -0.1674 -1.2486 -0.5962
 2404SOL     OW 7210   3.359   2.822   8.017 -0.4167  0.1956  0.0918
 2404SOL    HW1 7211   3.286   2.799   7.959 -0.0646 -0.3188 -0.1540
 2404SOL    HW2 7212   3.379   2.913   7.996 -0.6671  0.1863 -0.1895
 2405SOL     OW 7213   0.834   2.114   8.060  0.0264  0.2079 -0.0437
 2405SOL    HW1 7214   0.862   2.035   8.107 -1.4760  0.0681  0.6653
 2405SOL    HW2 7215   0.770   2.083   7.996  0.8952  0.6122 -1.1355
 2406SOL     OW 7216   1.502   1.338   7.846  0.5154  0.5527 -0.1744
 2406SOL    HW1 7217   1.592   1.367   7.833  0.5860  0.3080 -0.2392
 2406SOL    HW2 7218   1.508   1.243   7.851  0.5163  0.6259  1.8468
 2407SOL     OW 7219   1.765   2.371  10.068 -0.2608  0.1302  0.2616
 2407SOL    HW1 7220   1.777   2.329  10.153 -4.1803 -1.5657  0.1887
 2407SOL    HW2 7221   1.818   2.318  10.008  1.0234  0.1764  1.3159
 2408SOL     OW 7222   3.630   3.111   8.545  0.1946  0.7430 -0.0653
 2408SOL    HW1 7223   3.718   3.126   8.581 -0.1132  0.7810  0.6721
 2408SOL    HW2 7224   3.635   3.147   8.456  0.7922  1.1415  0.1210
 2409SOL     OW 7225   0.623   0.427   5.662 -0.1724  0.2362 -0.0291
 2409SOL    HW1 7226   0.618   0.515   5.698 -0.9897 -0.4923  1.7275
 2409SOL    HW2 7227   0.533   0.396   5.659  0.1507 -0.7517 -0.0463
 2410SOL     OW 7228   1.139   4.547   9.393  0.7377  0.2725  0.3592
 2410SOL    HW1 7229   1.110   4.461   9.423 -1.3673  0.8814  0.2262
 2410SOL    HW2 7230   1.098   4.608   9.454 -1.3055  1.3873 -1.9638
 2411SOL     OW 7231   3.532   4.500   9.316  0.1098 -0.6131 -0.7083
 2411SOL    HW1 7232   3.474   4.518   9.242  0.6836 -1.7902 -1.4736
 2411SOL    HW2 7233   3.545   4.405   9.314  0.9051 -0.5435  0.3284
 2412SOL     OW 7234   0.566   2.839   7.865 -0.5221 -0.5586 -0.1678
 2412SOL    HW1 7235   0.580   2.830   7.771 -3.0833  0.5756 -0.7473
 2412SOL    HW2 7236   0.609   2.922   7.888  0.2394 -0.9141 -0.2659
 2413SOL     OW 7237   0.380   1.683   7.307  0.4090  0.1361 -0.6347
 2413SOL    HW1 7238   0.305   1.722   7.351  0.2057 -0.0471 -0.8186
 2413SOL    HW2 7239   0.356   1.683   7.214  0.5957 -0.0123 -0.6836
 2414SOL     OW 7240   0.268   4.714   6.318  0.4727  0.6854 -0.8758
 2414SOL    HW1 7241   0.310   4.674   6.241 -0.2374 -0.7769 -0.5383
 2414SOL    HW2 7242   0.333   4.708   6.387 -0.1723 -1.4195 -0.3986
 2415SOL     OW 7243   2.024   3.161   4.971 -0.3919 -0.5927 -0.4205
 2415SOL    HW1 7244   2.027   3.074   5.011  0.0649 -0.0394  0.8199
 2415SOL    HW2 7245   2.090   3.212   5.019  0.2512  0.1023 -1.9718
 2416SOL     OW 7246   2.307   4.283   9.282 -0.4034  0.2155  0.2002
 2416SOL    HW1 7247   2.323   4.332   9.202 -0.6850 -1.1427 -0.7338
 2416SOL    HW2 7248   2.213   4.292   9.298 -0.4243  0.1348  0.1259
 2417SOL     OW 7249   0.311   0.722  10.068  0.1976  0.8535  0.0698
 2417SOL    HW1 7250   0.398   0.760  10.081  0.7790 -0.1038 -0.8516
 2417SOL    HW2 7251   0.262   0.745  10.147  0.8037  2.6888 -0.0491
 2418SOL     OW 7252   0.136   2.608   7.480 -0.2369 -0.3236 -0.9922
 2418SOL    HW1 7253   0.089   2.672   7.426 -0.0424  0.8973  0.2052
 2418SOL    HW2 7254   0.066   2.564   7.529 -0.2360  1.6789  0.9884
 2419SOL     OW 7255   1.423   2.707   9.218  0.0992  0.1063  0.1974
 2419SOL    HW1 7256   1.505   2.689   9.266 -0.2351  0.8366  1.0650
 2419SOL    HW2 7257   1.418   2.637   9.153  1.2101 -0.1862  0.3999
 2420SOL     OW 7258   2.945   1.264   8.914 -0.3899  0.3245  0.1044
 2420SOL    HW1 7259   2.871   1.228   8.864 -0.0620  0.6884 -0.6673
 2420SOL    HW2 7260   3.022   1.240   8.862  0.3623 -2.5245  2.2865
 2421SOL     OW 7261   1.268   2.033   8.726  0.5805 -0.3347  0.0491
 2421SOL    HW1 7262   1.208   2.041   8.651 -1.0425 -0.9809  1.2176
 2421SOL    HW2 7263   1.343   1.984   8.691 -0.8809 -2.1056 -0.8050
 2422SOL     OW 7264   4.298   4.314  10.395 -0.6322  0.2215 -0.2121
 2422SOL    HW1 7265   4.339   4.228  10.389  0.4850  0.6039  1.3992
 2422SOL    HW2 7266   4.289   4.343  10.304  0.9851 -0.6692 -0.6796
 2423SOL     OW 7267   3.173   0.533   9.946 -0.1309 -0.0018  0.4618
 2423SOL    HW1 7268   3.113   0.532   9.871 -1.4392 -0.7937  1.4538
 2423SOL    HW2 7269   3.129   0.588  10.011 -0.3145 -1.4092  1.5911
 2424SOL     OW 7270   2.733   0.175   6.581  0.6149  0.2854 -0.0709
 2424SOL    HW1 7271   2.739   0.123   6.501  0.3630 -1.4255  0.9731
 2424SOL    HW2 7272   2.662   0.236   6.565 -1.1006 -1.6754 -0.2972
 2425SOL     OW 7273   4.516   0.865   8.122 -0.0729  0.3248  0.2818
 2425SOL    HW1 7274   4.555   0.804   8.184 -0.6482 -0.1445  0.1889
 2425SOL    HW2 7275   4.582   0.933   8.111  1.0861 -0.8719 -0.5199
 2426SOL     OW 7276   4.500   3.966   6.295  0.7120 -0.1035  0.4580
 2426SOL    HW1 7277   4.419   4.016   6.301  1.1915  1.0604 -1.5632
 2426SOL    HW2 7278   4.568   4.033   6.282  1.3322 -1.1559 -2.9335
 2427SOL     OW 7279   2.501   1.500   7.866 -0.0934  0.6693  0.6739
 2427SOL    HW1 7280   2.524   1.408   7.853  1.2769  0.7473  2.1952
 2427SOL    HW2 7281   2.449   1.501   7.947 -0.2236  1.2222  0.5893
 2428SOL     OW 7282   3.759   1.937   6.365  1.1500 -0.6780 -0.0776
 2428SOL    HW1 7283   3.692   1.873   6.391 -1.8397  2.2010 -0.0764
 2428SOL    HW2 7284   3.757   1.935   6.269 -1.9468  2.0040 -0.2342
 2429SOL     OW 7285   1.616   0.920   8.869 -0.4598  0.0020 -0.1513
 2429SOL    HW1 7286   1.582   0.863   8.800  1.9204 -2.3134  0.4322
 2429SOL    HW2 7287   1.698   0.879   8.897  0.4529  2.7348  1.6740
 2430SOL     OW 7288   4.155   2.475   7.693  0.1579  0.0289  1.0215
 2430SOL    HW1 7289   4.162   2.501   7.785  2.2341  0.6174  0.7423
 2430SOL    HW2 7290   4.245   2.476   7.660 -0.6431  1.5504 -1.4737
 2431SOL     OW 7291   2.514   1.638   6.168  0.2745 -0.1215  0.0882
 2431SOL    HW1 7292   2.549   1.618   6.081 -0.6186  0.7273 -0.4959
 2431SOL    HW2 7293   2.495   1.732   6.165  0.0167 -0.1250  1.1236
 2432SOL     OW 7294   1.051   3.378   9.244  0.1483 -0.0938  0.9348
 2432SOL    HW1 7295   1.010   3.436   9.180  1.1059 -1.3260 -0.8895
 2432SOL    HW2 7296   1.003   3.296   9.235  1.3420 -0.7706  0.5901
 2433SOL     OW 7297   0.498   3.237   7.697  0.2153 -0.4539  0.4108
 2433SOL    HW1 7298   0.547   3.251   7.778  2.6336  2.1638 -1.3104
 2433SOL    HW2 7299   0.408   3.221   7.726  1.3625 -2.1149  3.6249
 2434SOL     OW 7300   0.468   1.418   8.241 -0.3748 -0.7157  0.2764
 2434SOL    HW1 7301   0.473   1.500   8.289  0.4333 -0.7608  0.2890
 2434SOL    HW2 7302   0.556   1.407   8.203 -0.2804 -1.8649  0.7761
 2435SOL     OW 7303   4.587   0.402   9.324 -0.2561 -0.1350  0.8274
 2435SOL    HW1 7304   4.585   0.316   9.366 -1.9501  1.2566  3.8984
 2435SOL    HW2 7305   4.660   0.448   9.365 -0.9664  0.7462  1.1348
 2436SOL     OW 7306   3.765   3.887   5.696  0.1154  0.4157 -0.0054
 2436SOL    HW1 7307   3.835   3.945   5.725 -1.5866  2.4877  0.2707
 2436SOL    HW2 7308   3.686   3.941   5.703 -1.6869 -2.1726  0.8146
 2437SOL     OW 7309   1.584   3.040   5.657  0.1432  0.3986  0.2248
 2437SOL    HW1 7310   1.585   3.033   5.752  0.6159  0.0353  0.1936
 2437SOL    HW2 7311   1.591   2.950   5.626  1.9544  0.6305 -0.1531
 2438SOL     OW 7312   1.436   1.115   6.433 -0.1888  0.5702  0.2066
 2438SOL    HW1 7313   1.470   1.049   6.493  2.5198  1.4298 -0.2504
 2438SOL    HW2 7314   1.368   1.161   6.483 -1.8894 -2.1910  0.6629
 2439SOL     OW 7315   0.976   0.489   6.579 -0.4295 -0.0233  0.1170
 2439SOL    HW1 7316   1.047   0.540   6.538  0.1994 -0.8059  0.2014
 2439SOL    HW2 7317   0.946   0.545   6.650  0.6631 -0.0025  0.5913
 2440SOL     OW 7318   4.531   1.194   7.676  0.6821 -0.5099 -0.5128
 2440SOL    HW1 7319   4.521   1.284   7.708  1.7286 -0.5257 -0.1058
 2440SOL    HW2 7320   4.601   1.200   7.611  4.1742 -1.7039  2.7564
 2441SOL     OW 7321   3.857   1.997   7.995  0.4708  0.1027 -0.5065
 2441SOL    HW1 7322   3.787   1.934   8.016  1.9269 -1.2606  0.4695
 2441SOL    HW2 7323   3.862   1.996   7.899 -0.0591 -0.6895 -0.5379
 2442SOL     OW 7324   4.805   1.110   6.975  0.3475  0.1763 -0.6513
 2442SOL    HW1 7325   4.803   1.051   6.899 -2.0374  0.8417 -1.1993
 2442SOL    HW2 7326   4.898   1.123   6.992  0.9720 -2.4410 -1.4997
 2443SOL     OW 7327   2.092   2.531   7.696  0.7823  0.3039  0.3501
 2443SOL    HW1 7328   2.111   2.595   7.627 -1.1055  2.0549  1.3357
 2443SOL    HW2 7329   2.170   2.533   7.752  1.6517  0.0891 -0.8258
 2444SOL     OW 7330   2.242   0.248   6.703 -1.0042 -0.3564 -0.2863
 2444SOL    HW1 7331   2.150   0.261   6.678 -0.8762  0.3578 -0.3949
 2444SOL    HW2 7332   2.260   0.320   6.764 -0.9357 -1.3264  0.8926
 2445SOL     OW 7333   3.267   1.145   7.384 -0.7395  0.0632 -0.3061
 2445SOL    HW1 7334   3.220   1.079   7.332  0.5310 -0.0428 -1.3532
 2445SOL    HW2 7335   3.337   1.175   7.327 -0.7595  1.7113  0.4839
 2446SOL     OW 7336   1.508   4.405   9.450  0.5208  0.0694  0.3380
 2446SOL    HW1 7337   1.445   4.396   9.379  0.0638 -0.3509  0.7826
 2446SOL    HW2 7338   1.586   4.441   9.409  0.5488 -0.9433 -0.5431
 2447SOL     OW 7339   4.121   1.801   7.505  0.3648  0.1362 -0.0453
 2447SOL    HW1 7340   4.041   1.803   7.559  0.2740 -0.9969 -0.1277
 2447SOL    HW2 7341   4.100   1.740   7.434  0.2683  2.0079 -1.7290
 2448SOL     OW 7342   1.674   1.164   7.169  0.6047  0.1117  0.6519
 2448SOL    HW1 7343   1.760   1.203   7.153 -0.0599  1.9075  1.2014
 2448SOL    HW2 7344   1.613   1.219   7.118 -0.3889 -0.0921  1.5762
 2449SOL     OW 7345   0.627   3.478   8.787  0.3585 -0.1893  0.1694
 2449SOL    HW1 7346   0.688   3.546   8.758 -0.9503  0.4548 -1.2437
 2449SOL    HW2 7347   0.665   3.396   8.756 -0.2329  0.3479 -2.2179
 2450SOL     OW 7348   3.042   2.622   8.229  1.1826 -0.2161  0.0171
 2450SOL    HW1 7349   3.133   2.598   8.250  0.9239 -0.7147  0.5931
 2450SOL    HW2 7350   3.049   2.708   8.188  1.9011 -0.1650  0.2323
 2451SOL     OW 7351   2.178   3.831   7.270  0.1043  0.8026 -0.1057
 2451SOL    HW1 7352   2.095   3.878   7.270  0.2503  1.2642 -3.2295
 2451SOL    HW2 7353   2.241   3.893   7.231  0.6994 -1.2184 -2.6280
 2452SOL     OW 7354   4.352   0.031   6.141  0.2959 -0.6256 -0.1470
 2452SOL    HW1 7355   4.378  -0.061   6.137 -1.4553 -1.2318  1.2459
 2452SOL    HW2 7356   4.345   0.050   6.235 -2.9147 -0.1914 -0.3569
 2453SOL     OW 7357   0.288   3.850   9.014 -0.0546  0.3524  0.5179
 2453SOL    HW1 7358   0.290   3.754   9.005 -0.7183  0.3240  0.6241
 2453SOL    HW2 7359   0.270   3.881   8.925 -2.9849  0.2277  0.9888
 2454SOL     OW 7360   2.389   4.398   9.582 -0.2643  0.5255 -0.5247
 2454SOL    HW1 7361   2.296   4.381   9.569 -0.1217  0.1313 -1.0433
 2454SOL    HW2 7362   2.433   4.326   9.537  0.2557 -0.5342  1.5420
 2455SOL     OW 7363   2.087   4.531   4.361 -0.3749  0.4115 -0.1032
 2455SOL    HW1 7364   2.162   4.556   4.306  0.5147 -0.0951  0.8395
 2455SOL    HW2 7365   2.098   4.437   4.375  0.0384  0.7030  1.7913
 2456SOL     OW 7366   4.895   1.634   8.702  0.1985 -0.0494 -0.3598
 2456SOL    HW1 7367   4.934   1.638   8.790 -2.7440  1.6856  0.9834
 2456SOL    HW2 7368   4.806   1.602   8.717 -1.2591  2.7549 -2.3324
 2457SOL     OW 7369   3.156   4.359   8.510  0.5842  0.3153 -0.2938
 2457SOL    HW1 7370   3.117   4.294   8.569 -0.0379  0.7081 -0.2650
 2457SOL    HW2 7371   3.221   4.309   8.460 -1.5549 -0.9153 -2.0109
 2458SOL     OW 7372   3.354   0.567   8.452 -0.1381  0.4164 -0.1958
 2458SOL    HW1 7373   3.434   0.537   8.408 -0.9985 -1.1291 -0.7570
 2458SOL    HW2 7374   3.284   0.515   8.414 -1.7606  3.1558 -1.1798
 2459SOL     OW 7375   4.045   2.645   9.454 -0.6334 -0.1917 -0.4137
 2459SOL    HW1 7376   4.124   2.605   9.417 -1.1109 -0.1141 -1.5588
 2459SOL    HW2 7377   4.001   2.685   9.379 -0.8524  1.3294  0.4903
 2460SOL     OW 7378   2.493   2.985   5.645 -0.2523  0.1444 -0.6988
 2460SOL    HW1 7379   2.498   2.939   5.728 -0.0970 -0.4129 -1.0103
 2460SOL    HW2 7380   2.491   3.078   5.668 -1.3309 -0.0329 -0.0329
 2461SOL     OW 7381   0.462   4.933   7.249  0.0097  0.2993 -0.2683
 2461SOL    HW1 7382   0.452   4.989   7.326 -2.1060 -0.0634 -0.2312
 2461SOL    HW2 7383   0.374   4.924   7.214  0.4941 -1.8757 -1.0968
 2462SOL     OW 7384   3.573   4.706   6.678  0.2833  0.0075 -0.1462
 2462SOL    HW1 7385   3.531   4.636   6.728 -1.0080 -0.3816 -1.6814
 2462SOL    HW2 7386   3.511   4.725   6.608  1.9031  0.7064 -1.4503
 2463SOL     OW 7387   1.279   1.148   5.702  0.1199 -0.2213  0.9796
 2463SOL    HW1 7388   1.206   1.203   5.675 -0.8124 -1.9563 -0.2106
 2463SOL    HW2 7389   1.254   1.059   5.676  2.2169 -1.0146  1.4387
 2464SOL     OW 7390   0.585   3.868   8.487 -0.5270  0.7864 -0.3328
 2464SOL    HW1 7391   0.568   3.935   8.421  0.0080  1.5499  0.2836
 2464SOL    HW2 7392   0.536   3.897   8.564 -0.7374  0.1767 -0.2291
 2465SOL     OW 7393   1.352   0.459   9.126  0.1811  0.0899  0.0405
 2465SOL    HW1 7394   1.367   0.498   9.212 -1.3073 -1.3490  0.9885
 2465SOL    HW2 7395   1.424   0.397   9.115  0.0567 -0.1305  0.4823
 2466SOL     OW 7396   3.250   0.904   8.396  0.1450  0.7045 -0.3467
 2466SOL    HW1 7397   3.202   0.912   8.314 -2.3390  1.0034  1.0245
 2466SOL    HW2 7398   3.246   0.991   8.435  0.0873  0.2610  0.6793
 2467SOL     OW 7399   2.992   1.263   6.820  0.4789 -0.5006 -1.0366
 2467SOL    HW1 7400   2.964   1.346   6.782 -0.7988 -0.7357 -0.6616
 2467SOL    HW2 7401   2.985   1.277   6.915  2.4761 -0.3053 -0.8716
 2468SOL     OW 7402   3.544   2.627  10.189  0.1224  0.0456 -0.3967
 2468SOL    HW1 7403   3.563   2.662  10.276 -0.3966 -2.5334  0.8354
 2468SOL    HW2 7404   3.468   2.676  10.159 -0.7759 -0.1873  1.3895
 2469SOL     OW 7405   1.856   4.678   9.782 -0.0855 -0.0900 -0.5726
 2469SOL    HW1 7406   1.909   4.663   9.704 -1.8979  2.1459 -2.3945
 2469SOL    HW2 7407   1.919   4.688   9.852  1.7602 -0.0278 -2.1611
 2470SOL     OW 7408   2.021   4.730   9.550  0.5830  0.9731  0.7473
 2470SOL    HW1 7409   2.016   4.807   9.494 -1.7652  2.3667  2.6555
 2470SOL    HW2 7410   2.077   4.758   9.623  0.0501  0.7545  1.2470
 2471SOL     OW 7411   1.509   2.252   8.325 -0.0600  0.3510  1.1366
 2471SOL    HW1 7412   1.523   2.280   8.416  0.1181  1.2719  0.8326
 2471SOL    HW2 7413   1.569   2.178   8.314 -0.1604  0.1615  1.7999
 2472SOL     OW 7414   2.034   0.686   7.205  0.2490 -0.2828 -0.5298
 2472SOL    HW1 7415   2.020   0.592   7.197 -0.9584 -0.5317  2.7758
 2472SOL    HW2 7416   1.965   0.726   7.153 -0.4796 -1.2807 -0.3584
 2473SOL     OW 7417   1.679   3.127   6.023 -0.0904 -0.3436 -0.4911
 2473SOL    HW1 7418   1.649   3.127   6.114  0.4983  1.3724 -0.2526
 2473SOL    HW2 7419   1.608   3.084   5.975 -0.6203 -0.8700  0.7020
 2474SOL     OW 7420   0.745   3.994   8.015  0.6476 -0.1728  0.1692
 2474SOL    HW1 7421   0.682   3.964   8.081 -0.5399  0.8262 -0.4560
 2474SOL    HW2 7422   0.785   4.072   8.054 -1.6933  1.7936 -1.0671
 2475SOL     OW 7423   0.209   3.981   5.699  0.4208  0.6994  0.0703
 2475SOL    HW1 7424   0.195   4.007   5.607  1.1818  2.6511  0.4385
 2475SOL    HW2 7425   0.290   3.930   5.697  1.5096  2.3571 -0.1497
 2476SOL     OW 7426   3.738   2.581   7.782 -0.1535  0.2811 -0.3163
 2476SOL    HW1 7427   3.660   2.594   7.728 -0.0392  0.6614 -0.3931
 2476SOL    HW2 7428   3.804   2.640   7.744  0.1999 -0.1059 -0.3123
 2477SOL     OW 7429   4.201   4.490   8.035  0.2200  0.4325  0.0219
 2477SOL    HW1 7430   4.182   4.489   7.941  2.1250  1.1412 -0.4256
 2477SOL    HW2 7431   4.121   4.523   8.075 -0.3884  0.8326 -1.4405
 2478SOL     OW 7432   0.567   0.855   8.585 -0.8375 -0.0839 -0.3748
 2478SOL    HW1 7433   0.625   0.916   8.631 -0.1083  0.0981 -1.5114
 2478SOL    HW2 7434   0.604   0.848   8.498 -2.7108  0.2961 -1.2470
 2479SOL     OW 7435   1.225   0.043   8.937  0.3600  0.2254 -0.2173
 2479SOL    HW1 7436   1.138   0.071   8.965 -0.3420 -1.4640 -0.5326
 2479SOL    HW2 7437   1.285   0.086   8.997 -0.9843 -2.2647  3.2667
 2480SOL     OW 7438   3.882   1.105   7.659  0.3945  0.0847 -0.0332
 2480SOL    HW1 7439   3.970   1.128   7.688  0.9784 -2.1791  0.2272
 2480SOL    HW2 7440   3.864   1.022   7.704 -1.1600 -0.3764 -1.4378
 2481SOL     OW 7441   2.497   2.483   8.234 -0.2835  0.0496  0.1454
 2481SOL    HW1 7442   2.494   2.388   8.251 -2.8603  0.0356 -0.0663
 2481SOL    HW2 7443   2.507   2.489   8.139  1.1375  0.0515  0.2645
 2482SOL     OW 7444   0.357   2.205  10.055  0.6117  0.1101 -0.3767
 2482SOL    HW1 7445   0.443   2.163  10.060  1.1283  0.6924 -2.7843
 2482SOL    HW2 7446   0.296   2.134  10.035  0.4577 -0.3314  1.4988
 2483SOL     OW 7447   1.545   0.654   9.799 -0.1635  0.5189 -0.3056
 2483SOL    HW1 7448   1.598   0.591   9.751  1.2259  0.4932  1.1938
 2483SOL    HW2 7449   1.506   0.709   9.731  3.2539  1.7288 -1.4552
 2484SOL     OW 7450   1.523   2.021   7.196  0.5581 -0.1745 -0.4911
 2484SOL    HW1 7451   1.430   2.040   7.204  0.7751  1.4425 -1.3579
 2484SOL    HW2 7452   1.540   1.955   7.263 -1.3575 -1.1312 -0.8945
 2485SOL     OW 7453   0.393   0.326   9.728 -0.4448  0.1863 -0.1071
 2485SOL    HW1 7454   0.424   0.257   9.670 -1.1509 -1.2125  1.0965
 2485SOL    HW2 7455   0.467   0.342   9.787 -0.6200 -0.2909  0.2515
 2486SOL     OW 7456   0.245   0.941   8.153  0.6536  0.1640 -0.2029
 2486SOL    HW1 7457   0.293   0.907   8.078 -0.4297 -1.4327 -0.2187
 2486SOL    HW2 7458   0.281   0.895   8.229  0.9671  0.9377  0.1276
 2487SOL     OW 7459   2.703   4.467   8.708 -0.4064 -0.5533  0.2722
 2487SOL    HW1 7460   2.728   4.455   8.800  1.2128  0.7475  0.0494
 2487SOL    HW2 7461   2.620   4.421   8.700 -0.7319 -0.4688  2.4644
 2488SOL     OW 7462   4.885   2.412   8.793  0.5050  0.1588 -0.8518
 2488SOL    HW1 7463   4.801   2.457   8.797 -0.6278 -1.8961 -0.4178
 2488SOL    HW2 7464   4.879   2.356   8.716  0.5887 -1.6275  0.3909
 2489SOL     OW 7465   3.677   1.246   7.682 -0.5969  0.6604 -0.8679
 2489SOL    HW1 7466   3.622   1.169   7.667  0.9668 -0.3393 -1.7179
 2489SOL    HW2 7467   3.766   1.212   7.686 -0.0044  2.2097  0.6322
 2490SOL     OW 7468   4.832   4.921  10.048 -0.1612  0.3678  0.1053
 2490SOL    HW1 7469   4.796   4.870   9.975  0.2296 -0.8936  0.7637
 2490SOL    HW2 7470   4.875   4.996  10.006 -1.5768  0.6915 -0.8222
 2491SOL     OW 7471   2.693   1.542   9.275 -0.4366 -0.1920 -0.8670
 2491SOL    HW1 7472   2.630   1.478   9.243 -1.1391  0.7960 -1.4968
 2491SOL    HW2 7473   2.653   1.578   9.354 -0.1933 -0.2725 -0.7023
 2492SOL     OW 7474   4.553   1.896   7.253  0.3721  0.3666 -0.1990
 2492SOL    HW1 7475   4.580   1.962   7.188  1.4603 -0.5684 -0.7301
 2492SOL    HW2 7476   4.539   1.817   7.201  0.4265 -0.1744  0.6089
 2493SOL     OW 7477   2.755   4.141   6.028  0.5147 -0.1708 -0.4476
 2493SOL    HW1 7478   2.726   4.198   6.099  0.9809  2.1047 -1.9697
 2493SOL    HW2 7479   2.842   4.113   6.053  0.5751  0.4078 -0.0036
 2494SOL     OW 7480   2.192   0.414   7.643 -0.1669 -0.3909  1.2659
 2494SOL    HW1 7481   2.131   0.374   7.581  0.6469 -1.4740  1.1341
 2494SOL    HW2 7482   2.196   0.506   7.616  0.7584 -0.9710 -0.8515
 2495SOL     OW 7483   3.334   0.360   7.430  0.1293 -0.6620 -0.4832
 2495SOL    HW1 7484   3.362   0.270   7.447  1.8125 -0.0204  0.3073
 2495SOL    HW2 7485   3.334   0.402   7.516  0.9492  0.5125 -1.0343
 2496SOL     OW 7486   1.908   2.519  10.446 -0.0834 -0.4861  0.2300
 2496SOL    HW1 7487   1.961   2.505  10.367 -1.1936  2.7792 -1.2415
 2496SOL    HW2 7488   1.958   2.583  10.497 -2.4699  2.8291 -1.2891
 2497SOL     OW 7489   4.784   2.000   6.704 -0.1328  0.5992 -0.1137
 2497SOL    HW1 7490   4.761   1.930   6.764  0.0380  2.4957  2.2929
 2497SOL    HW2 7491   4.728   1.985   6.627 -0.0081 -2.1712  0.2369
 2498SOL     OW 7492   1.419   3.000   7.202 -0.1614  0.3922  0.0023
 2498SOL    HW1 7493   1.405   3.095   7.207 -1.2247  0.1660  2.7150
 2498SOL    HW2 7494   1.333   2.964   7.182  0.2051 -0.0596 -0.8414
 2499SOL     OW 7495   0.089   2.201   6.451 -0.4937  0.2497  0.2038
 2499SOL    HW1 7496   0.153   2.263   6.417 -1.7571  1.4139 -0.1569
 2499SOL    HW2 7497   0.088   2.130   6.387 -2.0443  1.8920 -1.7754
 2500SOL     OW 7498   3.879   4.302   8.509 -0.2464 -0.2267 -0.3215
 2500SOL    HW1 7499   3.801   4.320   8.561 -1.2836 -0.4286 -1.7480
 2500SOL    HW2 7500   3.951   4.305   8.572 -1.4301 -0.3608  1.0938
 2501SOL     OW 7501   2.289   2.505   7.876  0.6158  0.1922  1.3857
 2501SOL    HW1 7502   2.284   2.598   7.897  3.8812  1.2751 -1.5902
 2501SOL    HW2 7503   2.379   2.480   7.899  0.6820 -1.4334 -0.3714
 2502SOL     OW 7504   2.502   4.774   6.279 -0.0615  0.4188 -0.2124
 2502SOL    HW1 7505   2.507   4.839   6.349  1.5763  0.4575 -0.3241
 2502SOL    HW2 7506   2.408   4.762   6.263 -0.4409  0.9971  1.4290
 2503SOL     OW 7507   5.000   2.552   6.865 -0.3744  0.1888  0.0737
 2503SOL    HW1 7508   4.942   2.477   6.876  0.8986 -1.2223 -1.9391
 2503SOL    HW2 7509   4.962   2.621   6.919 -0.5154 -2.4551  3.7452
 2504SOL     OW 7510   3.697   4.553   8.286 -0.3450 -0.2843  0.4174
 2504SOL    HW1 7511   3.771   4.513   8.331  2.2569  1.9993 -1.4665
 2504SOL    HW2 7512   3.672   4.626   8.342 -0.8958 -0.7603  0.8090
 2505SOL     OW 7513   2.312   4.063   9.474  0.0426  0.3587 -0.5039
 2505SOL    HW1 7514   2.230   4.090   9.516 -0.1370 -0.9121  0.0115
 2505SOL    HW2 7515   2.335   4.136   9.417 -0.6348  1.4026  0.4992
 2506SOL     OW 7516   4.965   3.975   8.340 -0.6392  0.1699  0.6409
 2506SOL    HW1 7517   4.983   3.916   8.267 -2.7570 -0.1955  0.3722
 2506SOL    HW2 7518   4.961   3.918   8.416 -0.2750  0.3095  0.7672
 2507SOL     OW 7519   2.973   2.875   9.898  1.0776 -0.4610 -0.1949
 2507SOL    HW1 7520   3.046   2.915   9.852 -0.3160 -0.2594 -2.3856
 2507SOL    HW2 7521   2.913   2.947   9.916 -0.5446 -1.1211 -2.4158
 2508SOL     OW 7522   2.273   0.444   5.432 -0.1861  0.3442 -0.0170
 2508SOL    HW1 7523   2.241   0.413   5.347 -0.5636  0.0723  0.2190
 2508SOL    HW2 7524   2.218   0.399   5.495  0.8322 -0.3323  0.4149
 2509SOL     OW 7525   3.384   1.493   6.878  0.1002 -0.3005 -0.1725
 2509SOL    HW1 7526   3.322   1.560   6.850  0.4799 -0.4885 -1.5226
 2509SOL    HW2 7527   3.392   1.435   6.803  0.1189 -1.6211  0.8166
 2510SOL     OW 7528   3.231   3.423   8.387  0.6704  0.4003 -0.0130
 2510SOL    HW1 7529   3.298   3.413   8.455 -0.1633 -1.1073  0.6617
 2510SOL    HW2 7530   3.250   3.353   8.325 -0.4153 -0.2417  0.3435
 2511SOL     OW 7531   4.181   3.380  10.005 -0.1725 -0.0028  0.9042
 2511SOL    HW1 7532   4.264   3.419  10.032 -0.7227  1.9027  0.0122
 2511SOL    HW2 7533   4.114   3.441  10.036 -1.0047  0.4461 -1.4980
 2512SOL     OW 7534   4.347   1.706   9.407 -0.2668  0.5380 -0.2212
 2512SOL    HW1 7535   4.262   1.671   9.380  0.1135 -2.3834  1.8416
 2512SOL    HW2 7536   4.325   1.778   9.466 -1.2631  0.7345 -0.8014
 2513SOL     OW 7537   4.415   0.403   8.051 -0.5767 -0.3562 -0.1574
 2513SOL    HW1 7538   4.389   0.486   8.011  1.2376  0.6101  0.5381
 2513SOL    HW2 7539   4.364   0.399   8.132  0.1421  0.6813  0.3693
 2514SOL     OW 7540   4.261   3.221   8.930 -0.2287  0.1450 -0.6604
 2514SOL    HW1 7541   4.334   3.177   8.887  0.0550 -0.0977  0.0568
 2514SOL    HW2 7542   4.259   3.184   9.019 -2.4798 -1.3553 -1.2492
 2515SOL     OW 7543   4.003   3.150   8.942  0.7636  0.1729 -0.4977
 2515SOL    HW1 7544   4.019   3.091   9.015 -1.6647  1.4874  1.2427
 2515SOL    HW2 7545   4.090   3.184   8.919  1.7312 -1.1646  0.9767
 2516SOL     OW 7546   2.636   2.484  10.099  0.7789 -0.4938  0.4785
 2516SOL    HW1 7547   2.635   2.554  10.163  0.2700  0.9013 -0.9973
 2516SOL    HW2 7548   2.551   2.490  10.055  1.3436 -1.0067 -0.7313
 2517SOL     OW 7549   3.449   3.424   5.115  0.3537  0.7723 -0.4934
 2517SOL    HW1 7550   3.482   3.503   5.073  1.7991  0.0250 -0.8341
 2517SOL    HW2 7551   3.527   3.371   5.131 -0.7310 -1.6618 -2.4792
 2518SOL     OW 7552   2.258   2.317   6.524  0.5170  0.1136  0.1243
 2518SOL    HW1 7553   2.209   2.309   6.442  0.7163 -0.8682  0.0872
 2518SOL    HW2 7554   2.191   2.338   6.589  0.6410  3.4738 -0.6385
 2519SOL     OW 7555   1.230   0.341   7.822 -0.0629  0.7113  0.0309
 2519SOL    HW1 7556   1.182   0.317   7.743 -0.3939 -1.5749  0.8374
 2519SOL    HW2 7557   1.322   0.337   7.796 -0.0771 -1.7347  0.0777
 2520SOL     OW 7558   1.642   1.160   9.657  1.0276  0.7323  0.1990
 2520SOL    HW1 7559   1.716   1.143   9.715  1.4741  0.0534 -0.5541
 2520SOL    HW2 7560   1.676   1.147   9.569 -0.9272 -4.1042 -0.1674
 2521SOL     OW 7561   4.366   4.835  10.225  0.6844 -0.3435  0.5698
 2521SOL    HW1 7562   4.297   4.782  10.264 -0.8301  0.5059 -0.8398
 2521SOL    HW2 7563   4.446   4.785  10.242 -0.2142 -1.3108  2.3466
 2522SOL     OW 7564   3.707   0.678  10.472  0.4421 -0.0004  0.0974
 2522SOL    HW1 7565   3.752   0.609  10.423  0.6573 -0.8806  1.4704
 2522SOL    HW2 7566   3.765   0.754  10.466 -0.4383  0.5657 -2.6022
 2523SOL     OW 7567   4.449   3.031   8.313  0.4513 -0.1602 -0.5464
 2523SOL    HW1 7568   4.379   3.051   8.376 -0.7124  0.0594 -1.8512
 2523SOL    HW2 7569   4.426   2.944   8.279  0.3604  0.2561 -1.5715
 2524SOL     OW 7570   1.737   3.135   7.020  0.2343  0.1108 -0.7475
 2524SOL    HW1 7571   1.677   3.098   6.955 -1.7928  0.1205  1.0164
 2524SOL    HW2 7572   1.791   3.061   7.047 -2.7391 -1.4295  1.6062
 2525SOL     OW 7573   1.314   3.741   9.519  0.3043 -0.2497  0.1273
 2525SOL    HW1 7574   1.384   3.804   9.500  0.9371 -0.8750  0.3581
 2525SOL    HW2 7575   1.328   3.715   9.610 -0.0185 -0.6466  0.0690
 2526SOL     OW 7576   3.998   3.259   7.821  0.1560  0.0885 -0.2339
 2526SOL    HW1 7577   4.010   3.261   7.916  1.1922 -0.3818 -0.3426
 2526SOL    HW2 7578   4.074   3.211   7.788 -0.2853  0.0840 -1.2900
 2527SOL     OW 7579   3.481   0.822   8.732  0.5450  0.1314 -1.0561
 2527SOL    HW1 7580   3.418   0.894   8.739 -0.4935 -0.4337 -3.4485
 2527SOL    HW2 7581   3.538   0.847   8.660  1.7861 -0.3182 -0.2524
 2528SOL     OW 7582   3.656   3.946   9.487 -0.2945  0.2968 -0.2790
 2528SOL    HW1 7583   3.697   3.895   9.557 -0.0406 -2.0216 -1.9714
 2528SOL    HW2 7584   3.718   3.939   9.414 -2.5641 -1.4389 -2.2144
 2529SOL     OW 7585   4.841   4.409   6.359  0.1806  0.4956 -0.6386
 2529SOL    HW1 7586   4.784   4.421   6.435  1.5418 -0.9814  0.7057
 2529SOL    HW2 7587   4.908   4.477   6.368  0.1480  0.5343 -0.6933
 2530SOL     OW 7588   1.486   0.536   6.417 -0.1859 -0.3170 -0.3136
 2530SOL    HW1 7589   1.517   0.621   6.449 -4.0668  1.2071 -0.0819
 2530SOL    HW2 7590   1.511   0.534   6.325  1.3577  0.2976  0.0630
 2531SOL     OW 7591   4.686   3.902   9.372  0.2041 -0.2103  0.2664
 2531SOL    HW1 7592   4.687   3.934   9.282  2.4096 -3.3478 -1.0240
 2531SOL    HW2 7593   4.677   3.807   9.363  1.0142 -0.6875  3.3435
 2532SOL     OW 7594   4.844   2.008   8.293  0.1299  0.1556  0.2539
 2532SOL    HW1 7595   4.895   1.955   8.355  1.0481  1.0132  0.2428
 2532SOL    HW2 7596   4.793   2.067   8.349  0.1485  0.2026  0.2203
 2533SOL     OW 7597   4.619   0.263   9.024  0.3164 -0.2292  0.2341
 2533SOL    HW1 7598   4.646   0.330   9.087 -0.8422 -1.1746  1.7757
 2533SOL    HW2 7599   4.691   0.199   9.025  0.7445  0.2364 -0.1471
 2534SOL     OW 7600   2.301   0.185   9.986  1.3637  0.9591  0.3203
 2534SOL    HW1 7601   2.311   0.211  10.078  2.9276 -2.3531  1.2392
 2534SOL    HW2 7602   2.391   0.178   9.954  0.9964 -1.1225 -0.4052
 2535SOL     OW 7603   1.631   4.590   8.057  0.3762  0.5163 -0.0845
 2535SOL    HW1 7604   1.627   4.646   8.134 -0.5949  0.0952  0.1796
 2535SOL    HW2 7605   1.719   4.552   8.060  0.1288 -0.0084  1.1840
 2536SOL     OW 7606   0.538   0.726   9.605  0.1578  0.3197 -0.1343
 2536SOL    HW1 7607   0.477   0.770   9.664 -0.9308  0.0875 -1.0670
 2536SOL    HW2 7608   0.535   0.777   9.524 -0.0686 -0.6600 -0.7532
 2537SOL     OW 7609   0.381   2.346   7.206 -0.7233 -0.6501 -0.3071
 2537SOL    HW1 7610   0.292   2.358   7.172 -0.6025 -0.0637 -0.4326
 2537SOL    HW2 7611   0.377   2.378   7.296 -0.6880 -0.8051 -0.2507
 2538SOL     OW 7612   0.535   3.908   6.748 -0.2434 -0.4957  0.4468
 2538SOL    HW1 7613   0.619   3.868   6.768 -1.7033 -4.3071 -0.1210
 2538SOL    HW2 7614   0.507   3.949   6.830  1.8819  0.4357  0.7574
 2539SOL     OW 7615   2.202   3.789   7.680 -0.4001 -0.2557 -0.9280
 2539SOL    HW1 7616   2.149   3.820   7.753 -1.0617 -1.2652 -0.9682
 2539SOL    HW2 7617   2.281   3.754   7.720 -0.5456 -0.3647 -0.7388
 2540SOL     OW 7618   4.935   3.254  10.139  0.2435  0.1740 -0.0524
 2540SOL    HW1 7619   4.903   3.165  10.154  0.2473 -0.6563 -3.9757
 2540SOL    HW2 7620   4.882   3.309  10.197 -0.0067 -2.2687  2.2157
 2541SOL     OW 7621   1.112   4.961   8.060  0.3903  0.1293 -0.6797
 2541SOL    HW1 7622   1.173   4.935   7.990  0.7896 -0.0726 -0.2626
 2541SOL    HW2 7623   1.166   4.960   8.139 -0.1233  0.1173 -0.3313
 2542SOL     OW 7624   1.264   0.574   8.889  0.7095  0.2816  0.9176
 2542SOL    HW1 7625   1.189   0.527   8.853  1.2933  0.2381 -0.3080
 2542SOL    HW2 7626   1.278   0.535   8.975  0.3713 -0.8936  0.4635
 2543SOL     OW 7627   4.652   4.958   6.166 -0.4156  0.7855 -0.4990
 2543SOL    HW1 7628   4.563   4.924   6.158  0.6557 -2.7291  0.5927
 2543SOL    HW2 7629   4.658   4.989   6.257  0.1943 -1.7593  0.4114
 2544SOL     OW 7630   1.212   0.974   8.832  0.1942 -0.0379  0.0035
 2544SOL    HW1 7631   1.199   1.067   8.848 -1.6031 -0.6121  2.6131
 2544SOL    HW2 7632   1.129   0.944   8.795 -0.8160 -1.1709  2.8603
 2545SOL     OW 7633   0.091   3.287   9.121  0.5644 -0.0183 -0.2305
 2545SOL    HW1 7634   0.178   3.317   9.147  0.7183 -0.8782  0.2893
 2545SOL    HW2 7635   0.035   3.310   9.195  0.3370  0.5811 -0.5870
 2546SOL     OW 7636   4.854   0.454   9.074 -0.2597 -0.7894  0.4638
 2546SOL    HW1 7637   4.794   0.435   9.001 -0.3607 -1.6679  0.7624
 2546SOL    HW2 7638   4.907   0.527   9.043 -1.5333  0.0739  0.2134
 2547SOL     OW 7639   0.004   2.627   9.139 -0.5682 -0.3158 -0.3397
 2547SOL    HW1 7640   0.040   2.538   9.143 -0.9428 -0.4864 -0.7385
 2547SOL    HW2 7641   0.081   2.683   9.145 -0.1999 -0.6837 -1.3680
 2548SOL     OW 7642   3.917   1.290   7.380  0.5671  0.0673  0.4186
 2548SOL    HW1 7643   3.890   1.251   7.298 -1.7382  1.1252  0.5881
 2548SOL    HW2 7644   3.865   1.245   7.447  0.3242  1.1327  0.9704
 2549SOL     OW 7645   3.967   4.959   9.509  0.2116 -0.1346  0.1956
 2549SOL    HW1 7646   3.883   4.996   9.483  1.1596  0.3648 -2.5468
 2549SOL    HW2 7647   3.946   4.873   9.543 -1.3791 -0.3423 -1.1805
 2550SOL     OW 7648   3.165   3.926   8.691  0.3831 -0.2830 -0.3342
 2550SOL    HW1 7649   3.075   3.947   8.667 -0.1874 -0.8663  1.1636
 2550SOL    HW2 7650   3.216   4.001   8.660 -0.6613  0.2077 -0.9185
 2551SOL     OW 7651   0.459   2.047   9.366 -0.5246 -0.2787  0.2036
 2551SOL    HW1 7652   0.463   2.062   9.460 -1.4771  1.5843 -0.0068
 2551SOL    HW2 7653   0.366   2.041   9.346 -0.4316  1.0793 -0.8129
 2552SOL     OW 7654   0.448   1.026   9.499  0.5166  0.2657  0.8981
 2552SOL    HW1 7655   0.517   1.019   9.565 -0.6723  1.2594  2.3268
 2552SOL    HW2 7656   0.379   1.077   9.543 -1.7439 -1.8991  0.0522
 2553SOL     OW 7657   3.855   4.174   9.907  0.2700  0.7236  0.2553
 2553SOL    HW1 7658   3.854   4.239   9.977  2.1011  1.1279 -0.0485
 2553SOL    HW2 7659   3.880   4.092   9.951 -0.1291  0.6366  0.3226
 2554SOL     OW 7660   1.241   3.271   8.160  0.1055 -0.7419 -0.3291
 2554SOL    HW1 7661   1.285   3.322   8.229  0.6437 -1.6013 -0.0232
 2554SOL    HW2 7662   1.210   3.337   8.098  0.5035 -0.0167  0.2218
 2555SOL     OW 7663   1.494   3.341   8.443  0.2134 -0.9106  0.0786
 2555SOL    HW1 7664   1.500   3.248   8.465 -2.6964 -1.2793 -0.3412
 2555SOL    HW2 7665   1.430   3.376   8.505 -0.2177  0.3589 -1.0510
 2556SOL     OW 7666   1.477   2.802   8.481  0.6793  0.9668 -0.3737
 2556SOL    HW1 7667   1.534   2.755   8.421 -2.2952  0.0181 -2.7201
 2556SOL    HW2 7668   1.442   2.733   8.538 -1.1680  0.7462 -1.6749
 2557SOL     OW 7669   4.940   5.013   5.323  0.0535 -0.2952 -0.4390
 2557SOL    HW1 7670   4.989   4.934   5.344  0.1417 -0.8978 -2.6979
 2557SOL    HW2 7671   4.855   4.981   5.291 -0.0874  0.5263 -0.9348
 2558SOL     OW 7672   2.251   2.995   7.419 -0.2470 -0.5241 -0.0438
 2558SOL    HW1 7673   2.291   3.042   7.492  1.0397  0.7541 -1.4887
 2558SOL    HW2 7674   2.173   3.047   7.397  1.3515  1.3047 -1.8518
 2559SOL     OW 7675   4.364   2.319   8.461 -0.7242  0.0374  1.0136
 2559SOL    HW1 7676   4.305   2.254   8.422  0.8866 -0.1132 -1.3940
 2559SOL    HW2 7677   4.334   2.403   8.426  0.8024 -0.1092 -0.8055
 2560SOL     OW 7678   4.490   3.150   8.795  0.2133  0.0631 -0.0840
 2560SOL    HW1 7679   4.519   3.071   8.748  0.4656  0.8907 -1.3558
 2560SOL    HW2 7680   4.566   3.207   8.795 -0.6857  1.3254 -1.4213
 2561SOL     OW 7681   4.220   1.419   9.773 -0.2205  0.5686  0.2423
 2561SOL    HW1 7682   4.295   1.375   9.734  0.0072 -0.9179  2.1997
 2561SOL    HW2 7683   4.258   1.492   9.822 -0.1101  0.2275  0.6717
 2562SOL     OW 7684   2.865   1.163   7.655  0.5213  0.7358  0.0443
 2562SOL    HW1 7685   2.820   1.165   7.740  2.3403  1.1584  1.0740
 2562SOL    HW2 7686   2.802   1.126   7.594 -1.1277  1.1733  1.4175
 2563SOL     OW 7687   1.904   2.257   9.862 -0.2401 -0.6270 -0.0805
 2563SOL    HW1 7688   1.953   2.327   9.820 -1.1216 -0.1124 -0.2817
 2563SOL    HW2 7689   1.921   2.180   9.808  0.0990 -0.3852 -0.3208
 2564SOL     OW 7690   3.974   0.558   9.897 -0.7474  0.4564 -0.9796
 2564SOL    HW1 7691   3.929   0.642   9.907  1.1995  1.3268  1.6347
 2564SOL    HW2 7692   4.008   0.560   9.808 -3.2641  1.0535 -1.9967
 2565SOL     OW 7693   0.808   3.228   8.787 -0.4656 -0.7331  0.4471
 2565SOL    HW1 7694   0.851   3.173   8.853 -0.3060 -0.9778  0.1456
 2565SOL    HW2 7695   0.806   3.173   8.709 -1.2629 -0.6920  0.4350
 2566SOL     OW 7696   1.762   1.593   9.109 -0.3247  0.4621 -0.2238
 2566SOL    HW1 7697   1.700   1.578   9.181  1.8296 -2.3016  1.2742
 2566SOL    HW2 7698   1.714   1.565   9.031 -1.1828 -1.1999  0.8319
 2567SOL     OW 7699   1.570   0.689   9.331 -0.1010 -0.4128  0.4445
 2567SOL    HW1 7700   1.583   0.619   9.268 -2.6467 -1.1784  0.6438
 2567SOL    HW2 7701   1.606   0.767   9.289  1.5710 -1.5640 -0.3507
 2568SOL     OW 7702   4.727   2.888   7.813 -0.7029 -0.3238 -0.6948
 2568SOL    HW1 7703   4.700   2.836   7.888  1.1403 -0.4899 -0.0962
 2568SOL    HW2 7704   4.795   2.836   7.770 -1.2994  0.0380 -2.1462
 2569SOL     OW 7705   1.423   3.128   9.888 -0.8701 -0.5400  0.3208
 2569SOL    HW1 7706   1.475   3.059   9.929 -0.2438 -0.3658 -0.1631
 2569SOL    HW2 7707   1.376   3.169   9.961  1.8820  1.1983  1.2540
 2570SOL     OW 7708   1.714   3.075   8.939  0.5528  0.4057  0.1377
 2570SOL    HW1 7709   1.756   3.013   8.879  0.6633 -0.3217  0.9547
 2570SOL    HW2 7710   1.731   3.040   9.026 -1.7871  0.0325  0.5035
 2571SOL     OW 7711   1.746   1.698  10.372 -0.3591  1.0483  0.0542
 2571SOL    HW1 7712   1.656   1.723  10.351 -0.8935 -0.9518 -0.2559
 2571SOL    HW2 7713   1.800   1.755  10.318 -1.5445 -0.1568 -2.5832
 2572SOL     OW 7714   0.453   0.813   7.548  0.0716  0.0585  0.3588
 2572SOL    HW1 7715   0.414   0.898   7.528  0.4901  0.6356  1.8968
 2572SOL    HW2 7716   0.524   0.805   7.485 -0.3403  0.5728 -0.1867
 2573SOL     OW 7717   2.596   0.854   8.887 -0.3562  0.3693 -0.0758
 2573SOL    HW1 7718   2.631   0.768   8.862 -0.4203 -0.1499  1.5183
 2573SOL    HW2 7719   2.672   0.912   8.883  0.1089 -0.1693  0.6726
 2574SOL     OW 7720   3.332   0.895   7.088  0.2883 -0.4820  0.5324
 2574SOL    HW1 7721   3.326   0.871   6.995  0.6801  1.9878 -0.2009
 2574SOL    HW2 7722   3.246   0.874   7.124  0.0966 -1.3825 -0.3887
 2575SOL     OW 7723   3.966   2.655   2.900  0.1260  0.5622  0.0337
 2575SOL    HW1 7724   4.050   2.682   2.863  0.4972 -0.5169  0.0789
 2575SOL    HW2 7725   3.906   2.726   2.875  1.3732  2.2209  1.4557
 2576SOL     OW 7726   4.495   0.703   7.716 -0.4268 -0.1362 -0.1084
 2576SOL    HW1 7727   4.548   0.645   7.661 -1.4144 -1.8182  0.6644
 2576SOL    HW2 7728   4.465   0.772   7.656  0.8660 -0.3238 -1.0162
 2577SOL     OW 7729   2.389   2.617   8.688  1.0888 -0.0051 -0.0295
 2577SOL    HW1 7730   2.414   2.709   8.702 -0.8793  0.4417  0.8324
 2577SOL    HW2 7731   2.370   2.612   8.594  2.1639  0.1787 -0.2788
 2578SOL     OW 7732   3.839   0.202  10.062 -0.5439 -0.2756  0.1021
 2578SOL    HW1 7733   3.805   0.285  10.095  0.4215  0.7680 -1.3806
 2578SOL    HW2 7734   3.799   0.136  10.118  0.2671  1.2768  2.7130
 2579SOL     OW 7735   3.459   4.967  10.203 -0.4264 -0.7119 -0.3694
 2579SOL    HW1 7736   3.548   4.991  10.177 -1.0177  2.0434 -0.1508
 2579SOL    HW2 7737   3.470   4.898  10.268  1.8194  1.7608  2.1392
 2580SOL     OW 7738   2.557   2.415   7.957 -0.9246 -0.3540  0.0681
 2580SOL    HW1 7739   2.639   2.460   7.975 -1.4869  0.5632  0.3984
 2580SOL    HW2 7740   2.553   2.409   7.861 -1.1147  0.8544 -0.0176
 2581SOL     OW 7741   0.518   4.322   9.120  0.8022 -0.0900 -0.0054
 2581SOL    HW1 7742   0.431   4.296   9.150  0.7547 -1.5713 -1.2918
 2581SOL    HW2 7743   0.570   4.242   9.124  2.1678  0.7968  0.8698
 2582SOL     OW 7744   2.825   0.160  10.102  0.0015 -0.1525  0.0253
 2582SOL    HW1 7745   2.799   0.252  10.103 -1.7093 -0.5791 -0.5181
 2582SOL    HW2 7746   2.858   0.143  10.190 -1.2802  0.5798  0.6800
 2583SOL     OW 7747   2.105   3.738   8.143  0.0388  0.0579 -0.1940
 2583SOL    HW1 7748   2.101   3.786   8.060  0.4309  0.9376  0.2827
 2583SOL    HW2 7749   2.184   3.684   8.137 -0.7508 -1.0545 -0.9950
 2584SOL     OW 7750   4.677   1.992   6.356 -0.0845  0.1777  0.5056
 2584SOL    HW1 7751   4.710   1.915   6.310 -0.6439  0.5247 -0.5055
 2584SOL    HW2 7752   4.612   1.957   6.417  1.2190 -0.3663  1.6215
 2585SOL     OW 7753   2.622   0.120   6.944 -0.2718  0.0610  0.8895
 2585SOL    HW1 7754   2.679   0.119   7.021  2.1242  0.3348 -0.7834
 2585SOL    HW2 7755   2.645   0.201   6.898 -2.1746  0.2660  0.1982
 2586SOL     OW 7756   1.840   2.148   9.471  0.4445  0.2680  0.6779
 2586SOL    HW1 7757   1.772   2.199   9.514  0.4220  1.9415 -1.1852
 2586SOL    HW2 7758   1.793   2.074   9.431  0.3337 -0.7390  2.5569
 2587SOL     OW 7759   1.421   4.380   7.959  0.4579 -0.1857 -0.3186
 2587SOL    HW1 7760   1.459   4.294   7.973  2.8066  0.8068 -0.1972
 2587SOL    HW2 7761   1.462   4.436   8.025  0.4145  1.4236 -1.5989
 2588SOL     OW 7762   0.942   1.910   8.222 -0.6241 -0.2635 -0.3452
 2588SOL    HW1 7763   0.923   1.847   8.292  0.8788  1.6331  1.9093
 2588SOL    HW2 7764   1.036   1.925   8.229 -0.1972 -0.7828 -3.5678
 2589SOL     OW 7765   3.251   4.002   9.608 -0.2706  0.3884 -0.1350
 2589SOL    HW1 7766   3.292   4.043   9.532 -1.9987  1.1595 -0.7089
 2589SOL    HW2 7767   3.165   3.973   9.577  1.1768 -4.9655 -0.1242
 2590SOL     OW 7768   0.582   1.002   8.065  0.6153  0.0335  0.1508
 2590SOL    HW1 7769   0.561   0.980   8.156  0.3422  1.5867  0.4884
 2590SOL    HW2 7770   0.642   1.076   8.071  1.0714 -0.2322 -0.9308
 2591SOL     OW 7771   0.133   0.137  10.241 -0.1944 -0.5940 -0.1975
 2591SOL    HW1 7772   0.054   0.172  10.201  1.1626  1.9283 -0.8753
 2591SOL    HW2 7773   0.143   0.185  10.323  1.6227  0.5980 -1.0475
 2592SOL     OW 7774   1.441   0.266   8.063  0.0120  0.4897  0.8384
 2592SOL    HW1 7775   1.381   0.219   8.121  0.6069  0.3355  1.3325
 2592SOL    HW2 7776   1.428   0.226   7.977 -0.0610 -0.0427  1.0937
 2593SOL     OW 7777   3.632   0.427   7.363 -0.6627 -0.4017 -0.1482
 2593SOL    HW1 7778   3.538   0.419   7.377 -1.0526  3.5166  0.4201
 2593SOL    HW2 7779   3.640   0.483   7.286  1.1276  1.2821  1.1852
 2594SOL     OW 7780   4.224   1.224   9.417  0.1032  0.1648  0.7575
 2594SOL    HW1 7781   4.233   1.274   9.336  1.5785  0.1702  0.8878
 2594SOL    HW2 7782   4.133   1.235   9.442 -0.6056 -0.4793 -1.3127
 2595SOL     OW 7783   1.606   4.770   7.861  0.1093 -0.2079 -0.8869
 2595SOL    HW1 7784   1.519   4.787   7.826  0.0944  2.4012  0.1234
 2595SOL    HW2 7785   1.595   4.693   7.917 -1.0701 -1.0799 -2.2592
 2596SOL     OW 7786   0.828   2.470  10.605  0.3956 -0.2026 -0.2656
 2596SOL    HW1 7787   0.783   2.539  10.653  0.3402 -0.6728  0.3637
 2596SOL    HW2 7788   0.872   2.516  10.533  1.3326  0.6738  0.8224
 2597SOL     OW 7789   2.693   2.633   6.552 -0.4993  0.1846 -0.3077
 2597SOL    HW1 7790   2.640   2.698   6.598  0.6691  1.2725 -0.4700
 2597SOL    HW2 7791   2.775   2.677   6.533 -0.7184 -0.4043 -2.9954
 2598SOL     OW 7792   0.633   2.092   9.162  0.5207  0.0869  0.3719
 2598SOL    HW1 7793   0.552   2.065   9.206  0.1198 -1.2834 -1.1271
 2598SOL    HW2 7794   0.604   2.150   9.092  0.7905 -0.7058 -0.4057
 2599SOL     OW 7795   3.526   2.562   9.222  0.8369  0.1874  0.3028
 2599SOL    HW1 7796   3.458   2.587   9.284 -0.1254  0.6430 -0.8780
 2599SOL    HW2 7797   3.599   2.532   9.276 -0.0113  0.4309  1.6263
 2600SOL     OW 7798   2.320   2.721   7.400 -0.0205 -0.3694 -0.2456
 2600SOL    HW1 7799   2.336   2.809   7.368  0.7199 -0.6029 -0.5274
 2600SOL    HW2 7800   2.226   2.718   7.416 -0.2264  0.1071 -1.3214
 2601SOL     OW 7801   1.399   1.356  10.257  0.3055 -0.1105 -0.5844
 2601SOL    HW1 7802   1.326   1.323  10.309 -0.9227  2.8434 -0.2081
 2601SOL    HW2 7803   1.467   1.375  10.322  0.1633  0.1216 -0.4985
 2602SOL     OW 7804   0.166   0.547   8.535  0.0253 -0.5666 -0.6188
 2602SOL    HW1 7805   0.197   0.617   8.592 -0.2438 -0.6494 -0.3727
 2602SOL    HW2 7806   0.071   0.555   8.535 -0.1660 -2.1986  1.0503
 2603SOL     OW 7807   3.566   1.738   9.241  0.4355  0.3909  0.1847
 2603SOL    HW1 7808   3.483   1.691   9.234 -0.2901  1.8767 -4.0070
 2603SOL    HW2 7809   3.542   1.827   9.267  0.9309  0.4267  0.5417
 2604SOL     OW 7810   0.348   1.547   5.890  0.1906  0.1850 -0.1188
 2604SOL    HW1 7811   0.376   1.469   5.938 -2.3422  0.3331  1.7844
 2604SOL    HW2 7812   0.350   1.520   5.798 -1.6128 -2.5269  0.5348
 2605SOL     OW 7813   1.174   2.494   7.738 -0.3825 -0.0576  0.0671
 2605SOL    HW1 7814   1.135   2.563   7.792 -0.7808 -0.9917  1.0145
 2605SOL    HW2 7815   1.268   2.501   7.754 -0.3588  0.6799 -0.3627
 2606SOL     OW 7816   1.442   3.876   9.064  0.2144  0.4748  0.1932
 2606SOL    HW1 7817   1.429   3.781   9.068  1.3785  0.3311  1.4450
 2606SOL    HW2 7818   1.360   3.910   9.027 -1.3235 -0.8042  2.1962
 2607SOL     OW 7819   2.123   3.691   9.799 -0.1384  0.5147  0.5603
 2607SOL    HW1 7820   2.116   3.728   9.711 -0.8923  1.0633  0.8374
 2607SOL    HW2 7821   2.214   3.703   9.823  0.3248 -0.5735 -0.5363
 2608SOL     OW 7822   2.293   3.613   6.454 -0.4526 -0.1287  0.3404
 2608SOL    HW1 7823   2.330   3.685   6.402 -0.8812  0.6977  1.1670
 2608SOL    HW2 7824   2.207   3.645   6.482 -1.0035 -1.2913  0.0362
 2609SOL     OW 7825   4.826   2.326   9.925  0.3576  0.2294  0.1269
 2609SOL    HW1 7826   4.798   2.394   9.986  2.4400  0.6818  0.6414
 2609SOL    HW2 7827   4.857   2.374   9.848  1.1387 -0.1506  0.1936
 2610SOL     OW 7828   1.568   1.454  10.463  0.6121  0.4598 -0.1913
 2610SOL    HW1 7829   1.592   1.475  10.554  1.2383 -0.7466 -0.0680
 2610SOL    HW2 7830   1.627   1.508  10.410  1.2417  0.0900  0.1232
 2611SOL     OW 7831   2.375   3.596   9.592  0.2447 -0.2042  0.4602
 2611SOL    HW1 7832   2.420   3.596   9.507 -0.5549 -0.0553  0.0219
 2611SOL    HW2 7833   2.377   3.504   9.620 -0.5511 -0.4681 -0.3125
 2612SOL     OW 7834   0.311   2.452  10.129  0.7905 -0.4915 -0.0624
 2612SOL    HW1 7835   0.326   2.360  10.106 -0.3140 -0.5006 -0.8244
 2612SOL    HW2 7836   0.251   2.448  10.203 -1.3658 -0.3975 -1.7147
 2613SOL     OW 7837   1.285   3.344  10.135  0.1313 -0.5816  0.5891
 2613SOL    HW1 7838   1.200   3.367  10.171  0.2568  0.1861  0.4172
 2613SOL    HW2 7839   1.324   3.286  10.200 -0.2744 -0.4452  0.9597
 2614SOL     OW 7840   4.934   0.743   9.348 -0.1340  0.2157 -0.6696
 2614SOL    HW1 7841   4.897   0.655   9.352  0.1477  0.0384 -1.5586
 2614SOL    HW2 7842   5.029   0.729   9.351 -0.1050  0.5431 -0.0557
 2615SOL     OW 7843   1.628   2.505   9.651  0.3468  0.3605  0.5279
 2615SOL    HW1 7844   1.572   2.583   9.654 -1.2679 -0.7753  2.5429
 2615SOL    HW2 7845   1.717   2.540   9.643 -0.4342  2.3192 -0.2621
 2616SOL     OW 7846   3.967   1.069   8.845 -0.4136  0.1145 -0.0334
 2616SOL    HW1 7847   3.998   1.003   8.907  0.9533 -0.2504 -1.0485
 2616SOL    HW2 7848   3.887   1.033   8.808  0.9342 -1.5947 -1.4537
 2617SOL     OW 7849   0.190   3.406   8.011 -0.1550  0.2175  0.1204
 2617SOL    HW1 7850   0.259   3.435   7.952  0.0156  3.4683  1.7084
 2617SOL    HW2 7851   0.109   3.443   7.973 -0.3159  0.5827  0.8017
 2618SOL     OW 7852   0.302   2.823   6.924 -0.4434 -0.1131  0.7283
 2618SOL    HW1 7853   0.277   2.820   6.831 -1.3531  2.4161  0.8174
 2618SOL    HW2 7854   0.298   2.732   6.953 -0.7943 -0.8761 -1.5453
 2619SOL     OW 7855   0.721   4.131   9.187 -0.3400  0.3795  0.3285
 2619SOL    HW1 7856   0.809   4.100   9.210 -0.0487  1.9626  1.5604
 2619SOL    HW2 7857   0.684   4.159   9.271 -2.8760 -2.1711  0.2227
 2620SOL     OW 7858   0.281   4.212   7.592  0.5844 -0.0405  0.6560
 2620SOL    HW1 7859   0.272   4.277   7.522  2.5631  0.0875  0.4816
 2620SOL    HW2 7860   0.197   4.165   7.591  0.1563  0.6769 -1.0648
 2621SOL     OW 7861   1.408   3.493   9.946  0.1868  0.2939  0.0026
 2621SOL    HW1 7862   1.416   3.467   9.855  4.1804 -2.9770  0.9389
 2621SOL    HW2 7863   1.327   3.452   9.977 -2.8498  3.8117 -2.3919
 2622SOL     OW 7864   4.281   3.067   7.361  0.2724 -0.1080  0.2095
 2622SOL    HW1 7865   4.256   3.121   7.286 -0.7339 -1.3517 -0.4072
 2622SOL    HW2 7866   4.229   3.101   7.434  1.5752  1.3899  0.4826
 2623SOL     OW 7867   3.676   1.152   5.731  0.4039 -0.0168  0.2162
 2623SOL    HW1 7868   3.585   1.165   5.706  0.1952 -1.4918  0.1116
 2623SOL    HW2 7869   3.682   1.186   5.821 -0.1199  0.5196  0.0495
 2624SOL     OW 7870   1.214   1.678   8.653  0.1318  0.5870 -0.1831
 2624SOL    HW1 7871   1.268   1.687   8.574  0.9786 -0.1063  0.3018
 2624SOL    HW2 7872   1.129   1.648   8.620  0.6047 -0.1223 -0.8073
 2625SOL     OW 7873   4.928   1.082   9.805 -0.0032 -0.4755  0.2777
 2625SOL    HW1 7874   4.974   1.165   9.822  1.8050 -1.1245 -1.0698
 2625SOL    HW2 7875   4.998   1.018   9.795 -1.2369 -1.6543 -1.2905
 2626SOL     OW 7876   1.063   2.219   9.888 -0.0343  0.0778 -0.3481
 2626SOL    HW1 7877   1.002   2.146   9.885 -0.1994  0.2256 -0.6670
 2626SOL    HW2 7878   1.046   2.268   9.807  0.0476  0.4886 -0.1200
 2627SOL     OW 7879   2.593   0.153   9.282  0.1430 -0.3285  0.5864
 2627SOL    HW1 7880   2.611   0.102   9.204  3.0042  0.2022  0.7886
 2627SOL    HW2 7881   2.516   0.112   9.321  0.8765 -2.9532 -0.5374
 2628SOL     OW 7882   3.563   2.093   8.096 -0.5621  0.3002 -0.0127
 2628SOL    HW1 7883   3.590   2.119   8.184  2.8180 -1.2756 -0.4521
 2628SOL    HW2 7884   3.600   2.160   8.038 -0.8576  0.1400 -0.3930
 2629SOL     OW 7885   4.953   3.061   6.772  0.1509  0.4349  0.5191
 2629SOL    HW1 7886   4.971   2.979   6.725 -1.0696  0.3079  0.2391
 2629SOL    HW2 7887   5.037   3.085   6.812  0.3930 -1.2438  1.0726
 2630SOL     OW 7888   4.525   1.713   9.169  0.2762 -0.6610 -0.3427
 2630SOL    HW1 7889   4.511   1.635   9.224 -3.3352  0.1646  0.1659
 2630SOL    HW2 7890   4.602   1.755   9.208  0.3333 -2.2690  1.4729
 2631SOL     OW 7891   4.112   0.946   9.296  0.2475  0.0195 -0.0852
 2631SOL    HW1 7892   4.194   0.958   9.344  0.6152  0.0920 -0.7187
 2631SOL    HW2 7893   4.047   0.926   9.363  0.4145  1.6899  0.6040
 2632SOL     OW 7894   4.002   1.583   8.385  0.2101  0.1502  0.0764
 2632SOL    HW1 7895   3.915   1.547   8.401  0.4094  0.1643  1.2631
 2632SOL    HW2 7896   3.996   1.621   8.297 -0.7401 -0.5433 -0.1782
 2633SOL     OW 7897   3.499   0.667  10.037  0.3701 -0.3875 -0.6213
 2633SOL    HW1 7898   3.408   0.693  10.051  0.2771 -0.3115 -1.3032
 2633SOL    HW2 7899   3.542   0.747  10.007  1.3481  0.3201  2.3854
 2634SOL     OW 7900   4.206   4.895   8.058 -0.1997 -0.3225  0.1120
 2634SOL    HW1 7901   4.206   4.826   8.125 -2.8807 -1.2477 -0.7202
 2634SOL    HW2 7902   4.180   4.974   8.105 -0.1357 -0.5411  0.5196
 2635SOL     OW 7903   3.468   4.360  10.072 -0.9681  0.0077 -0.1067
 2635SOL    HW1 7904   3.447   4.352   9.979  0.6186 -3.4980 -0.3178
 2635SOL    HW2 7905   3.415   4.291  10.114 -0.0050  0.0548  1.2417
 2636SOL     OW 7906   3.512   2.290   8.711  0.1773  0.1285 -0.1713
 2636SOL    HW1 7907   3.560   2.216   8.746  0.1315 -1.0715 -2.4716
 2636SOL    HW2 7908   3.433   2.252   8.673 -1.2860  1.7386  1.1004
 2637SOL     OW 7909   2.173   3.207   8.803 -0.0588 -0.0989  0.3555
 2637SOL    HW1 7910   2.125   3.187   8.723 -0.3240  0.0806  0.4663
 2637SOL    HW2 7911   2.249   3.150   8.801 -0.6246 -0.8735  0.5012
 2638SOL     OW 7912   0.604   0.292   9.032  0.2087  1.1783 -0.8213
 2638SOL    HW1 7913   0.653   0.362   8.988 -0.2510  1.4611 -0.8855
 2638SOL    HW2 7914   0.595   0.224   8.965  0.0625  1.3419 -0.9674
 2639SOL     OW 7915   4.419   2.027   9.256  0.1523  0.6125 -0.2307
 2639SOL    HW1 7916   4.460   2.008   9.340  2.2193 -1.0609 -1.5108
 2639SOL    HW2 7917   4.325   2.017   9.273  0.4707  0.7215  1.9313
 2640SOL     OW 7918   2.053   4.022   9.571 -0.4607  0.9804  0.1652
 2640SOL    HW1 7919   2.098   3.938   9.566  0.5563  1.5817 -1.4078
 2640SOL    HW2 7920   2.006   4.018   9.654 -0.2091 -1.0141  0.2784
 2641SOL     OW 7921   2.085   0.716   8.922  0.7355  0.0493 -0.6437
 2641SOL    HW1 7922   2.133   0.761   8.991  0.5721  0.0872 -0.5543
 2641SOL    HW2 7923   2.086   0.624   8.947 -0.4592  0.2211  0.0997
 2642SOL     OW 7924   3.685   2.006   9.493 -0.2359 -0.3276 -0.3008
 2642SOL    HW1 7925   3.632   2.001   9.414  0.1102  2.3008 -0.7968
 2642SOL    HW2 7926   3.656   2.086   9.537  1.5857 -0.1362  0.6876
 2643SOL     OW 7927   0.257   4.515   9.736  0.4660 -0.4371  0.2866
 2643SOL    HW1 7928   0.216   4.483   9.656  2.3799 -2.2491 -0.0391
 2643SOL    HW2 7929   0.234   4.608   9.739 -0.3232 -0.5115 -1.9017
 2644SOL     OW 7930   4.603   2.666   8.954  0.3449  0.0489 -0.4195
 2644SOL    HW1 7931   4.651   2.628   8.881 -0.2596  2.6808 -2.3516
 2644SOL    HW2 7932   4.545   2.731   8.913  0.1005  1.7740  2.4216
 2645SOL     OW 7933   0.461   1.899   9.767 -0.9808 -0.2308  0.5610
 2645SOL    HW1 7934   0.474   1.834   9.698 -0.2114 -1.4429  1.7768
 2645SOL    HW2 7935   0.506   1.977   9.736 -1.8111 -0.2967 -0.8837
 2646SOL     OW 7936   4.129   3.519   8.801 -0.0748 -0.2300 -0.4825
 2646SOL    HW1 7937   4.181   3.440   8.789  1.0682  0.3564  0.4074
 2646SOL    HW2 7938   4.057   3.510   8.739 -0.8219 -2.6442  0.6108
 2647SOL     OW 7939   2.731   1.491   8.542 -0.2869  0.6624 -0.4080
 2647SOL    HW1 7940   2.727   1.568   8.485 -2.0158  0.4460 -0.6325
 2647SOL    HW2 7941   2.753   1.526   8.629  1.4193  1.0945 -0.9758
 2648SOL     OW 7942   2.529   3.894   7.407 -0.2269  0.4622 -0.2912
 2648SOL    HW1 7943   2.558   3.928   7.492  0.9732 -1.4459  0.1245
 2648SOL    HW2 7944   2.458   3.834   7.429  0.8810 -0.9463 -0.4845
 2649SOL     OW 7945   1.742   3.861   9.716  0.0602  0.4618  0.5391
 2649SOL    HW1 7946   1.679   3.813   9.769  0.9649 -0.3525  0.8943
 2649SOL    HW2 7947   1.742   3.816   9.632  2.0595 -1.2407  1.3528
 2650SOL     OW 7948   3.268   0.013   9.414 -0.3964  0.4925 -0.1148
 2650SOL    HW1 7949   3.255   0.100   9.452  0.8191  1.3781 -1.5943
 2650SOL    HW2 7950   3.332  -0.029   9.472  0.2931  1.2500 -0.2957
 2651SOL     OW 7951   0.831   2.665   7.584  0.9495 -0.1232  0.3895
 2651SOL    HW1 7952   0.829   2.664   7.680 -0.4703  0.2391  0.3837
 2651SOL    HW2 7953   0.755   2.613   7.558  0.4191  1.0747 -0.5247
 2652SOL     OW 7954   4.249   3.946   8.254  0.5391  0.5400 -0.3540
 2652SOL    HW1 7955   4.237   3.983   8.342 -0.4296  0.2202 -0.3426
 2652SOL    HW2 7956   4.323   3.886   8.263  0.4890  0.5627  0.2226
 2653SOL     OW 7957   0.378   0.907   9.768 -0.4845  0.5861  0.1476
 2653SOL    HW1 7958   0.428   0.945   9.840  0.8645 -0.7872 -0.0142
 2653SOL    HW2 7959   0.323   0.979   9.735  1.3167  2.1370  0.4015
 2654SOL     OW 7960   3.954   1.259   9.609  0.0170 -0.6840 -0.2703
 2654SOL    HW1 7961   3.912   1.322   9.668 -0.0192  0.4852 -1.4949
 2654SOL    HW2 7962   4.022   1.218   9.663  1.1268  1.5756  0.1764
 2655SOL     OW 7963   3.989   1.587   9.863  0.2168  0.2833 -0.3126
 2655SOL    HW1 7964   3.945   1.512   9.903 -1.6965  1.4238 -0.1361
 2655SOL    HW2 7965   4.081   1.561   9.857  0.2141 -0.8184  2.7541
 2656SOL     OW 7966   4.577   0.132   9.331  0.1386  0.8985  0.8273
 2656SOL    HW1 7967   4.519   0.091   9.266 -1.8132  0.4584  2.7172
 2656SOL    HW2 7968   4.661   0.088   9.319 -1.0200 -1.4180  0.6555
 2657SOL     OW 7969   2.501   3.042   9.171 -0.0353  0.3233  0.2031
 2657SOL    HW1 7970   2.525   3.078   9.085 -0.1878  1.5665  0.6700
 2657SOL    HW2 7971   2.551   3.094   9.234  1.3861 -1.6431  0.8315
 2658SOL     OW 7972   0.756   1.484   8.406 -0.4715 -0.0573  0.2437
 2658SOL    HW1 7973   0.768   1.463   8.498  1.2164  0.1947  0.1288
 2658SOL    HW2 7974   0.733   1.401   8.365  1.6258 -0.8187  0.4829
 2659SOL     OW 7975   0.806   3.236   9.289 -0.7458  0.4711  0.0541
 2659SOL    HW1 7976   0.806   3.265   9.198 -2.1634  1.3808  0.3124
 2659SOL    HW2 7977   0.725   3.271   9.325 -1.2032 -1.5337  1.1400
 2660SOL     OW 7978   4.424   3.013   9.526  0.3575  0.1471  0.0419
 2660SOL    HW1 7979   4.494   2.949   9.535  0.3121  0.2627  1.4669
 2660SOL    HW2 7980   4.369   3.001   9.604 -0.6664  0.7111 -0.5571
 2661SOL     OW 7981   4.675   3.433   8.788  0.3948  0.0482 -0.3261
 2661SOL    HW1 7982   4.702   3.398   8.703  1.3810 -1.0665  0.4186
 2661SOL    HW2 7983   4.741   3.401   8.850 -1.0777 -0.4138  1.1008
 2662SOL     OW 7984   4.178   4.602   9.969 -0.5330 -0.3806  0.0200
 2662SOL    HW1 7985   4.192   4.655  10.047  1.5135 -1.9219  0.7903
 2662SOL    HW2 7986   4.149   4.664   9.902 -1.5490  1.1063  1.7484
 2663SOL     OW 7987   2.895   2.495   9.509  0.1648 -0.3983 -0.4146
 2663SOL    HW1 7988   2.904   2.561   9.577  0.7865 -1.1253  0.2301
 2663SOL    HW2 7989   2.893   2.545   9.427  0.4812  0.4238  0.0636
 2664SOL     OW 7990   2.877   2.537   9.985 -0.6918 -0.2309 -0.1897
 2664SOL    HW1 7991   2.802   2.501  10.032 -1.1553  0.2742 -0.5212
 2664SOL    HW2 7992   2.896   2.619  10.029  1.2661 -1.4862  1.4628
 2665SOL     OW 7993   2.222   1.599   8.024  0.0631  0.1156 -0.0241
 2665SOL    HW1 7994   2.190   1.509   8.033 -0.6451  0.5402  2.3964
 2665SOL    HW2 7995   2.146   1.648   7.993 -0.4505  0.3556  1.5239
 2666SOL     OW 7996   3.330   4.835   6.888  0.4281  0.0839 -0.3937
 2666SOL    HW1 7997   3.273   4.895   6.937 -1.6269 -2.0668  0.0428
 2666SOL    HW2 7998   3.393   4.804   6.953  0.1092  0.1103 -0.0653
 2667SOL     OW 7999   0.222   4.778   5.931 -0.6079 -1.2061 -0.1623
 2667SOL    HW1 8000   0.144   4.724   5.918  0.3332 -3.0758  1.4605
 2667SOL    HW2 8001   0.277   4.727   5.989  1.6252  0.2904 -0.8297
 2668SOL     OW 8002   2.812   4.333   6.810 -0.4421  0.5284 -0.4855
 2668SOL    HW1 8003   2.759   4.403   6.772 -2.2544 -0.7993 -0.5593
 2668SOL    HW2 8004   2.783   4.328   6.901  1.3673  1.3869  0.1751
 2669SOL     OW 8005   1.264   0.250   5.982 -0.3166  0.5221  0.0625
 2669SOL    HW1 8006   1.274   0.293   6.067  1.0269  1.2730 -0.4466
 2669SOL    HW2 8007   1.272   0.157   6.001 -2.5233  0.4551  1.0780
 2670SOL     OW 8008   3.106   1.237   8.064  0.0758  0.1614  0.0398
 2670SOL    HW1 8009   3.038   1.301   8.045 -0.5922  0.0187  1.7580
 2670SOL    HW2 8010   3.125   1.249   8.157 -1.8473 -3.7072  1.1452
 2671SOL     OW 8011   2.721   3.760   8.188  0.3911  0.1881 -0.1981
 2671SOL    HW1 8012   2.758   3.778   8.101 -2.0951  3.8050 -0.7524
 2671SOL    HW2 8013   2.797   3.743   8.243  2.3099  0.6916 -2.5069
 2672SOL     OW 8014   2.884   2.285   4.608  0.2618  0.3204 -0.2167
 2672SOL    HW1 8015   2.837   2.365   4.585 -0.6550 -0.2690 -0.4275
 2672SOL    HW2 8016   2.955   2.280   4.544  0.2541  0.8933 -0.2789
 2673SOL     OW 8017   2.447   0.469   8.291 -0.2692  0.3240  0.0290
 2673SOL    HW1 8018   2.505   0.481   8.366  0.7872  0.8099 -0.8354
 2673SOL    HW2 8019   2.402   0.387   8.308 -0.7362  0.8748  1.6287
 2674SOL     OW 8020   0.129   0.700   5.278  0.2210 -0.2829 -0.3784
 2674SOL    HW1 8021   0.176   0.633   5.228  1.0516  0.7459 -1.0090
 2674SOL    HW2 8022   0.110   0.768   5.215  1.8979  1.3667  0.7884
 2675SOL     OW 8023   1.474   4.130   7.295  0.9029  0.0118  0.1474
 2675SOL    HW1 8024   1.479   4.107   7.388  0.5504  2.6378  0.8930
 2675SOL    HW2 8025   1.564   4.151   7.270  0.6839  1.5945  0.5898
 2676SOL     OW 8026   1.924   2.941   7.901  0.2193 -1.2547  0.1958
 2676SOL    HW1 8027   1.906   3.018   7.846  1.9067 -0.2753  0.9328
 2676SOL    HW2 8028   1.859   2.877   7.874 -1.0955  0.3390 -0.6338
 2677SOL     OW 8029   3.722   0.313   5.178  0.2820 -0.1205 -0.0300
 2677SOL    HW1 8030   3.685   0.402   5.181 -0.6280 -0.5161  0.7549
 2677SOL    HW2 8031   3.811   0.323   5.212 -0.7572  0.0472  2.8651
 2678SOL     OW 8032   1.022   1.524   8.077  0.0442 -0.3404  0.2698
 2678SOL    HW1 8033   1.054   1.580   8.006 -0.9625  0.2908  0.2780
 2678SOL    HW2 8034   1.097   1.472   8.103  0.6704  0.0741 -0.6422
 2679SOL     OW 8035   1.629   1.820   5.796 -0.1716 -0.2935 -0.5473
 2679SOL    HW1 8036   1.536   1.827   5.773 -0.2217 -1.1943 -0.6921
 2679SOL    HW2 8037   1.659   1.910   5.804 -1.3344  0.0186  0.6640
 2680SOL     OW 8038   2.208   4.703   6.058  0.3055 -0.3055 -0.0237
 2680SOL    HW1 8039   2.235   4.612   6.046 -3.1674 -1.6264  1.0318
 2680SOL    HW2 8040   2.115   4.698   6.080 -0.1495  3.5637 -0.3743
 2681SOL     OW 8041   0.118   4.568   6.875 -0.2455  0.6517  0.0539
 2681SOL    HW1 8042   0.201   4.616   6.881  1.3647 -2.1062  1.9743
 2681SOL    HW2 8043   0.063   4.607   6.942  0.1214  1.3890 -0.0607
 2682SOL     OW 8044   1.495   4.709   6.378 -0.7087 -0.7395  0.8529
 2682SOL    HW1 8045   1.497   4.628   6.429 -1.1064 -0.3039  1.5749
 2682SOL    HW2 8046   1.409   4.747   6.396 -1.5294 -1.3622 -1.4068
 2683SOL     OW 8047   3.451   3.914   7.911  0.0678  0.7477 -0.0953
 2683SOL    HW1 8048   3.538   3.952   7.915  0.1453  0.6605 -0.9093
 2683SOL    HW2 8049   3.464   3.821   7.931  0.2854  0.5548 -1.1222
 2684SOL     OW 8050   4.414   3.403   6.506  0.2570  0.0378 -0.0460
 2684SOL    HW1 8051   4.393   3.454   6.427 -1.0839 -1.0486 -0.4200
 2684SOL    HW2 8052   4.435   3.470   6.572 -1.6047  1.1059 -0.4763
 2685SOL     OW 8053   2.052   1.862   6.396  0.0488 -0.3859  0.4359
 2685SOL    HW1 8054   1.966   1.823   6.413 -0.1964 -0.0674 -0.0608
 2685SOL    HW2 8055   2.065   1.924   6.468 -0.1790 -0.3669  0.4613
 2686SOL     OW 8056   2.941   2.588   8.525 -0.8716  0.4265  0.3935
 2686SOL    HW1 8057   2.953   2.568   8.432 -0.1520  0.6708  0.4345
 2686SOL    HW2 8058   2.947   2.503   8.569  1.2639  0.5619  0.4674
 2687SOL     OW 8059   2.819   0.378   7.705 -0.0295 -0.0917  0.4320
 2687SOL    HW1 8060   2.772   0.295   7.696 -1.3062  0.4163  1.8393
 2687SOL    HW2 8061   2.885   0.361   7.772 -1.3184  0.3867  1.8829
 2688SOL     OW 8062   2.740   0.485   4.967 -0.6297  0.8709 -0.4362
 2688SOL    HW1 8063   2.705   0.400   4.941  0.3741  0.6215 -1.0010
 2688SOL    HW2 8064   2.834   0.479   4.949 -0.1592  1.3133  1.5826
 2689SOL     OW 8065   2.681   0.718   6.857 -0.4428  0.3302  0.1380
 2689SOL    HW1 8066   2.691   0.800   6.906  1.4604  1.8487 -2.4495
 2689SOL    HW2 8067   2.746   0.659   6.896 -0.2769  0.8309  0.6380
 2690SOL     OW 8068   4.637   0.332   5.456 -0.7478 -0.3135 -0.3176
 2690SOL    HW1 8069   4.731   0.349   5.470 -1.1963  0.4668  2.2668
 2690SOL    HW2 8070   4.635   0.256   5.398  1.4747 -0.2568 -0.5769
 2691SOL     OW 8071   2.919   3.453   5.670 -1.1554 -0.4114 -0.5279
 2691SOL    HW1 8072   2.838   3.501   5.684 -0.2799  1.7774 -2.2505
 2691SOL    HW2 8073   2.929   3.451   5.575  0.8357 -0.5331 -0.3622
 2692SOL     OW 8074   2.521   1.009   5.423  0.2022 -0.4937 -0.0180
 2692SOL    HW1 8075   2.591   0.954   5.456 -0.7574 -2.2789 -0.8153
 2692SOL    HW2 8076   2.449   0.949   5.405 -2.5670  1.5019  3.1663
 2693SOL     OW 8077   1.784   2.026   7.606  0.1502  0.5339  0.7271
 2693SOL    HW1 8078   1.854   2.060   7.662 -0.0205  1.7126  0.2754
 2693SOL    HW2 8079   1.706   2.029   7.661  0.0937  1.1179  0.6221
 2694SOL     OW 8080   2.443   0.315   7.484  0.3351  0.2500 -0.4235
 2694SOL    HW1 8081   2.368   0.353   7.528  1.3737 -1.1630  2.8804
 2694SOL    HW2 8082   2.518   0.336   7.540  1.3738 -3.9131  0.1055
 2695SOL     OW 8083   4.814   1.622   4.699  0.6177  0.2272  0.5101
 2695SOL    HW1 8084   4.773   1.692   4.648  1.1423  0.6716  0.6967
 2695SOL    HW2 8085   4.780   1.541   4.659  0.3110  0.5769  0.0478
 2696SOL     OW 8086   1.314   2.540   6.080 -0.0313  0.6483  0.2871
 2696SOL    HW1 8087   1.361   2.623   6.077  1.1863  0.1763  3.2300
 2696SOL    HW2 8088   1.221   2.566   6.082  0.2340  1.8024 -0.8178
 2697SOL     OW 8089   1.153   4.525   4.854 -0.3631  0.0192  0.8219
 2697SOL    HW1 8090   1.231   4.477   4.879 -1.5248 -1.5534  1.6158
 2697SOL    HW2 8091   1.164   4.543   4.761 -0.4987 -3.1140  0.0956
 2698SOL     OW 8092   3.753   4.459   7.131 -0.7482  0.3045 -0.3921
 2698SOL    HW1 8093   3.837   4.498   7.110  0.7343 -0.3037  3.5983
 2698SOL    HW2 8094   3.723   4.420   7.049  3.1684 -0.0243 -1.8363
 2699SOL     OW 8095   0.339   1.326   4.933 -0.1758  0.3066  0.0393
 2699SOL    HW1 8096   0.353   1.363   5.020  3.3834  1.2082 -0.7585
 2699SOL    HW2 8097   0.325   1.232   4.949  0.7906  0.3949  1.6022
 2700SOL     OW 8098   1.434   4.480   5.170  0.0589  0.5714 -0.1569
 2700SOL    HW1 8099   1.496   4.550   5.151 -0.2401  1.6073  2.2905
 2700SOL    HW2 8100   1.348   4.520   5.153 -0.0711  0.4520  0.2165
 2701SOL     OW 8101   3.744   3.235   5.413  0.0771  0.1196 -0.0516
 2701SOL    HW1 8102   3.716   3.144   5.406  1.7557 -0.7666  3.2391
 2701SOL    HW2 8103   3.705   3.266   5.494  0.4692  2.0181 -0.5458
 2702SOL     OW 8104   2.785   1.582   5.992 -0.3092 -0.1348  0.4597
 2702SOL    HW1 8105   2.733   1.502   5.986  1.0967 -0.9732 -1.7785
 2702SOL    HW2 8106   2.864   1.556   6.040 -0.8125  0.5068  1.6760
 2703SOL     OW 8107   3.255   0.064   5.440 -0.4692  0.9537  0.5276
 2703SOL    HW1 8108   3.202   0.008   5.496 -2.0327  1.2843 -0.5493
 2703SOL    HW2 8109   3.263   0.146   5.490  1.6433 -0.0708  2.0097
 2704SOL     OW 8110   4.558   4.771   6.554  0.7707  0.1276  0.1960
 2704SOL    HW1 8111   4.639   4.820   6.538  0.8102 -0.4039 -1.3999
 2704SOL    HW2 8112   4.489   4.838   6.554  1.1854  0.5860  1.6047
 2705SOL     OW 8113   0.556   3.193   6.893  0.8038 -0.1355  0.2766
 2705SOL    HW1 8114   0.626   3.129   6.905  1.2363  0.7694  3.6191
 2705SOL    HW2 8115   0.487   3.166   6.953 -1.2584 -0.2450 -1.9938
 2706SOL     OW 8116   2.242   3.824   6.271 -0.7703 -0.9523 -0.1394
 2706SOL    HW1 8117   2.295   3.901   6.253 -0.7288 -0.5302  1.6227
 2706SOL    HW2 8118   2.237   3.778   6.187  0.3206  0.2595 -0.9034
 2707SOL     OW 8119   4.724   3.161   5.056 -0.2242 -0.4975 -0.2736
 2707SOL    HW1 8120   4.629   3.148   5.063 -0.3822  0.0868 -1.1076
 2707SOL    HW2 8121   4.737   3.252   5.080  0.1663 -0.6510  0.1024
 2708SOL     OW 8122   3.991   3.699   5.583 -0.6777 -0.3219  0.0030
 2708SOL    HW1 8123   3.910   3.719   5.630 -0.2851 -0.5366  0.7742
 2708SOL    HW2 8124   3.971   3.619   5.534 -1.2781  0.2371 -0.6953
 2709SOL     OW 8125   0.723   0.513   7.201  0.1764 -0.5970  0.6325
 2709SOL    HW1 8126   0.651   0.512   7.264  0.1752 -0.0888  0.6472
 2709SOL    HW2 8127   0.693   0.458   7.129 -0.4434  0.0129  0.4122
 2710SOL     OW 8128   1.380   4.642   9.066 -0.1671 -0.0312  0.4130
 2710SOL    HW1 8129   1.416   4.688   8.990 -0.8683 -0.1904 -0.0266
 2710SOL    HW2 8130   1.294   4.683   9.080  0.6435  1.1473  2.1662
 2711SOL     OW 8131   0.661   3.066   6.149  0.9409 -0.0002  0.2567
 2711SOL    HW1 8132   0.704   3.146   6.181  3.1055 -0.7428 -0.6084
 2711SOL    HW2 8133   0.692   3.057   6.059 -0.5973 -0.9618 -0.2104
 2712SOL     OW 8134   2.281   4.930   6.218  0.5902 -0.6670  0.8214
 2712SOL    HW1 8135   2.214   4.999   6.216  1.3150  0.0386  0.3765
 2712SOL    HW2 8136   2.248   4.863   6.157  0.7961  0.1781 -0.2538
 2713SOL     OW 8137   1.003   3.458   8.448 -0.0313 -0.2970  0.0702
 2713SOL    HW1 8138   0.946   3.508   8.506  0.2150 -0.9023  0.8583
 2713SOL    HW2 8139   0.981   3.488   8.360 -1.5251 -0.4682  0.3635
 2714SOL     OW 8140   3.758   2.580   4.862  0.5282 -0.4719  0.0031
 2714SOL    HW1 8141   3.743   2.542   4.775  2.5880 -1.3101 -0.0450
 2714SOL    HW2 8142   3.691   2.647   4.871 -1.3019 -2.0329 -1.1959
 2715SOL     OW 8143   3.485   2.296   6.644  0.0329  0.2669  0.4653
 2715SOL    HW1 8144   3.543   2.372   6.635 -0.9227  0.7569 -2.8956
 2715SOL    HW2 8145   3.487   2.275   6.738  1.7729  3.2633  1.2267
 2716SOL     OW 8146   1.974   3.345   6.747  0.1155 -0.0539 -0.0340
 2716SOL    HW1 8147   1.980   3.355   6.842  0.5000 -2.0106  0.1932
 2716SOL    HW2 8148   2.063   3.326   6.719 -0.3256 -1.7233 -0.4407
 2717SOL     OW 8149   3.161   1.773   8.453 -0.4376  0.1042 -0.3535
 2717SOL    HW1 8150   3.178   1.779   8.359 -1.2782 -1.6252 -0.6594
 2717SOL    HW2 8151   3.082   1.826   8.467  0.8724  2.1193 -0.2002
 2718SOL     OW 8152   2.423   0.995   6.134  0.3505  0.1010  0.3998
 2718SOL    HW1 8153   2.394   0.905   6.122 -0.8726  0.6491 -1.0729
 2718SOL    HW2 8154   2.443   1.001   6.227  0.2087 -1.6134  0.5799
 2719SOL     OW 8155   1.605   4.397   6.992 -0.3096 -0.2709  0.3390
 2719SOL    HW1 8156   1.676   4.362   6.938 -1.2708 -2.3533  0.3442
 2719SOL    HW2 8157   1.569   4.469   6.940 -0.5539 -1.5757 -1.3888
 2720SOL     OW 8158   0.762   4.769   8.652  0.3601 -1.0531  0.7883
 2720SOL    HW1 8159   0.776   4.779   8.746 -0.2414 -0.3021  0.8079
 2720SOL    HW2 8160   0.817   4.837   8.612 -0.4302 -0.4472  0.6874
 2721SOL     OW 8161   2.489   1.924   6.581  0.2256 -0.7464  0.5114
 2721SOL    HW1 8162   2.545   1.853   6.611  1.7877 -0.6014 -1.8103
 2721SOL    HW2 8163   2.476   1.907   6.488  1.0539  2.2097 -0.2581
 2722SOL     OW 8164   0.180   0.787   7.496 -0.6515  0.4076  0.2587
 2722SOL    HW1 8165   0.133   0.813   7.575 -2.8079 -2.6414  0.1768
 2722SOL    HW2 8166   0.267   0.761   7.528 -0.6726  1.4834  1.2336
 2723SOL     OW 8167   4.527   1.407   6.380 -0.1972  0.3700 -0.0012
 2723SOL    HW1 8168   4.446   1.356   6.390  0.4907 -0.7019  0.2568
 2723SOL    HW2 8169   4.497   1.497   6.365 -1.4268  0.0833  0.6068
 2724SOL     OW 8170   1.791   4.353   7.620 -0.3588  0.0780  0.7911
 2724SOL    HW1 8171   1.746   4.421   7.570  1.9715  1.3974  0.3284
 2724SOL    HW2 8172   1.841   4.401   7.686  2.9127 -0.8613 -0.7559
 2725SOL     OW 8173   3.019   0.107   8.341 -0.0269 -0.0469 -0.0188
 2725SOL    HW1 8174   2.929   0.133   8.323 -0.1354 -1.0462 -0.9992
 2725SOL    HW2 8175   3.037   0.142   8.429 -1.3647  0.1588  0.1901
 2726SOL     OW 8176   3.561   2.759   4.896  0.1385 -0.5910  0.2006
 2726SOL    HW1 8177   3.478   2.715   4.915  0.8329 -2.5995 -1.1172
 2726SOL    HW2 8178   3.537   2.851   4.883 -1.8140 -1.0515  0.2377
 2727SOL     OW 8179   4.266   0.106   5.343 -0.3372 -0.0440 -0.1979
 2727SOL    HW1 8180   4.237   0.028   5.297 -0.7037 -0.4461  0.7016
 2727SOL    HW2 8181   4.361   0.106   5.332 -0.1099 -1.6373  1.3369
 2728SOL     OW 8182   0.476   1.781   5.297  0.0502  0.0027 -0.2525
 2728SOL    HW1 8183   0.478   1.876   5.290  1.3536 -0.0991 -1.7592
 2728SOL    HW2 8184   0.502   1.749   5.211 -0.4748 -1.7388  0.1753
 2729SOL     OW 8185   3.287   2.344   6.273 -0.5244  0.0196 -0.0708
 2729SOL    HW1 8186   3.204   2.388   6.259  0.7613  2.2461 -1.1286
 2729SOL    HW2 8187   3.298   2.343   6.368 -2.6208 -2.1423  0.2418
 2730SOL     OW 8188   0.605   4.322   5.173 -0.4142 -0.7907 -0.2735
 2730SOL    HW1 8189   0.621   4.381   5.100  1.3622 -1.3225 -0.3808
 2730SOL    HW2 8190   0.517   4.342   5.203 -0.9310 -0.1193 -2.1423
 2731SOL     OW 8191   2.067   1.467   6.016  0.3298 -0.3755 -0.6556
 2731SOL    HW1 8192   2.111   1.544   5.981  0.3655 -0.8130 -1.5964
 2731SOL    HW2 8193   1.990   1.456   5.961 -0.7485  0.1256  0.7061
 2732SOL     OW 8194   2.612   4.783   6.739  0.6819  0.9429 -0.0329
 2732SOL    HW1 8195   2.564   4.866   6.731 -2.0898 -0.7530 -3.2455
 2732SOL    HW2 8196   2.575   4.742   6.817  0.9918  2.0159  0.7117
 2733SOL     OW 8197   1.957   2.916   5.365  0.4642 -0.7177 -0.6358
 2733SOL    HW1 8198   1.995   2.833   5.337  0.1718 -0.3386 -2.2465
 2733SOL    HW2 8199   2.033   2.974   5.374  0.6493 -1.0799  0.3056
 2734SOL     OW 8200   4.800   0.575   5.944  0.2606  0.0167 -0.0038
 2734SOL    HW1 8201   4.748   0.495   5.946 -2.5416  1.7283  0.8410
 2734SOL    HW2 8202   4.835   0.579   5.855 -0.1110 -1.7765 -0.2610
 2735SOL     OW 8203   2.739   0.400   5.773 -0.3095  0.0492 -0.1273
 2735SOL    HW1 8204   2.814   0.351   5.739  1.0706  0.2633  2.3553
 2735SOL    HW2 8205   2.677   0.333   5.801  1.7052 -0.5457  3.5511
 2736SOL     OW 8206   2.876   1.883   5.970 -0.1652  0.7337  0.1083
 2736SOL    HW1 8207   2.945   1.875   6.036 -0.1344 -1.0031 -0.0896
 2736SOL    HW2 8208   2.847   1.793   5.954 -2.5546  1.3929  0.2622
 2737SOL     OW 8209   3.591   3.037   7.497  0.3273 -0.3023  0.0178
 2737SOL    HW1 8210   3.642   3.057   7.576  1.6726 -2.3507 -0.2473
 2737SOL    HW2 8211   3.560   2.948   7.510  0.7869 -0.7768 -1.8449
 2738SOL     OW 8212   0.810   0.074   7.470  0.1534 -0.4951  0.1521
 2738SOL    HW1 8213   0.734   0.084   7.528  1.1481  0.8753  1.2784
 2738SOL    HW2 8214   0.813  -0.019   7.450 -1.0535 -0.7709  1.1550
 2739SOL     OW 8215   1.524   2.121   5.326 -0.3023 -0.8658 -0.7043
 2739SOL    HW1 8216   1.597   2.064   5.302 -0.2241 -0.8180 -0.5819
 2739SOL    HW2 8217   1.463   2.064   5.374  0.0462 -0.7185 -0.0767
 2740SOL     OW 8218   2.394   0.768   5.371  0.3540  0.4519  0.2795
 2740SOL    HW1 8219   2.460   0.746   5.305  1.0035  1.3995  0.5855
 2740SOL    HW2 8220   2.395   0.693   5.431 -1.4190 -1.1905 -1.6001
 2741SOL     OW 8221   1.079   1.020   5.330  0.0420 -0.1764 -0.0275
 2741SOL    HW1 8222   1.060   0.935   5.290  1.8592 -1.1940  1.1542
 2741SOL    HW2 8223   1.137   1.000   5.403  0.0040  2.0386  0.6728
 2742SOL     OW 8224   3.209   0.331   5.579 -0.0859  0.6420  0.2261
 2742SOL    HW1 8225   3.192   0.407   5.523  1.8835  0.2263 -1.0234
 2742SOL    HW2 8226   3.272   0.363   5.643 -0.9233  0.6122  1.0803
 2743SOL     OW 8227   4.466   3.818   6.754 -0.4361  0.2709  0.5071
 2743SOL    HW1 8228   4.517   3.755   6.703  0.5523  0.8885  0.7171
 2743SOL    HW2 8229   4.378   3.813   6.717 -0.3606 -1.1592  0.4538
 2744SOL     OW 8230   0.621   0.789   7.217 -0.2703 -0.1248  0.4746
 2744SOL    HW1 8231   0.691   0.728   7.195 -0.3231 -0.1575  0.3936
 2744SOL    HW2 8232   0.640   0.818   7.306 -0.7009 -0.8859  0.8164
 2745SOL     OW 8233   4.811   0.872   5.287 -0.1153 -0.0088 -0.2960
 2745SOL    HW1 8234   4.859   0.881   5.369 -0.6515  0.3467 -0.0148
 2745SOL    HW2 8235   4.876   0.889   5.219  0.6049 -1.3819 -0.0051
 2746SOL     OW 8236   2.687   1.278   7.854 -1.0419  0.6486 -0.1797
 2746SOL    HW1 8237   2.736   1.348   7.896 -1.0840 -0.4177  1.7507
 2746SOL    HW2 8238   2.703   1.201   7.909 -1.7882 -0.6316 -1.6713
 2747SOL     OW 8239   0.303   0.055   6.028  0.0330 -0.1467 -0.0630
 2747SOL    HW1 8240   0.249  -0.016   5.992  1.3122 -1.0118 -0.3527
 2747SOL    HW2 8241   0.364   0.011   6.087  0.2654  0.8389  0.4476
 2748SOL     OW 8242   1.439   1.458   6.396 -0.0354 -0.0092  0.2363
 2748SOL    HW1 8243   1.439   1.459   6.301  0.3700 -0.3143  0.2331
 2748SOL    HW2 8244   1.517   1.408   6.420 -0.0811  0.1499  0.7276
 2749SOL     OW 8245   1.051   2.737   5.829 -0.0187 -1.6888 -0.3007
 2749SOL    HW1 8246   0.989   2.720   5.901 -0.9324  0.5096 -0.4937
 2749SOL    HW2 8247   1.028   2.673   5.762 -2.4858 -0.6006 -0.5745
 2750SOL     OW 8248   1.164   4.594   7.726 -0.4236 -0.2401 -0.1811
 2750SOL    HW1 8249   1.188   4.507   7.695  1.9683  1.1663 -2.7164
 2750SOL    HW2 8250   1.248   4.637   7.743 -1.5559  0.9520  3.2156
 2751SOL     OW 8251   1.882   0.151   5.021  0.5379  0.4179 -0.0812
 2751SOL    HW1 8252   1.977   0.139   5.016  0.3624 -1.3208  0.1145
 2751SOL    HW2 8253   1.871   0.240   5.056  2.0615  1.0018 -0.9725
 2752SOL     OW 8254   3.785   3.836   6.598  0.3830 -0.2144 -0.6216
 2752SOL    HW1 8255   3.742   3.756   6.569 -0.6955  0.2012 -0.2161
 2752SOL    HW2 8256   3.744   3.905   6.546 -0.1858  0.3106  0.5029
 2753SOL     OW 8257   4.670   4.752   5.494 -1.0640 -0.7805 -0.5695
 2753SOL    HW1 8258   4.578   4.772   5.476 -0.3178  1.1713 -2.9464
 2753SOL    HW2 8259   4.687   4.672   5.445 -1.3415 -0.7103 -0.7877
 2754SOL     OW 8260   1.095   3.892   4.861  0.8764  0.1062 -0.1781
 2754SOL    HW1 8261   1.013   3.900   4.910  1.0096 -1.6213  0.4059
 2754SOL    HW2 8262   1.149   3.964   4.892  0.4669 -0.1757  1.2779
 2755SOL     OW 8263   2.084   4.340   7.989 -0.5761  0.2006  0.1375
 2755SOL    HW1 8264   2.038   4.265   7.951 -0.8760 -0.7783  2.2708
 2755SOL    HW2 8265   2.165   4.346   7.938 -2.0814  0.7289 -2.3945
 2756SOL     OW 8266   2.770   3.116   6.234 -0.4571 -0.0686  0.4336
 2756SOL    HW1 8267   2.726   3.194   6.267 -2.2346 -1.0196  0.4491
 2756SOL    HW2 8268   2.801   3.071   6.312  2.3217  1.4981  0.3616
 2757SOL     OW 8269   2.924   1.753   8.184 -0.3240 -0.2862 -0.3282
 2757SOL    HW1 8270   2.945   1.732   8.274 -1.1225  0.0037 -0.0595
 2757SOL    HW2 8271   3.008   1.770   8.142  0.2163 -2.2977 -0.1445
 2758SOL     OW 8272   4.560   4.209   7.736 -0.5286  0.4499  0.0161
 2758SOL    HW1 8273   4.495   4.140   7.752 -0.5627  0.8192  1.7104
 2758SOL    HW2 8274   4.526   4.285   7.784  0.1086  1.2904 -0.8297
 2759SOL     OW 8275   2.407   2.103   6.330 -1.5257 -0.5958  0.2570
 2759SOL    HW1 8276   2.360   2.162   6.271  0.6236  1.4532  0.4438
 2759SOL    HW2 8277   2.389   2.136   6.417  2.5336  2.4191  0.2769
 2760SOL     OW 8278   4.833   1.543   6.411 -0.4621  0.4857  0.5743
 2760SOL    HW1 8279   4.819   1.566   6.319  0.7164 -1.3482 -0.1093
 2760SOL    HW2 8280   4.868   1.623   6.450  1.7818  0.5065 -1.2711
 2761SOL     OW 8281   2.140   3.106   5.845  0.2636 -0.3134  0.0233
 2761SOL    HW1 8282   2.135   3.011   5.854  3.2551 -0.5907 -0.0634
 2761SOL    HW2 8283   2.184   3.136   5.925 -0.4570  0.9942 -0.0373
 2762SOL     OW 8284   3.301   3.124   6.394  0.1820 -0.0804 -0.2933
 2762SOL    HW1 8285   3.211   3.156   6.396 -0.1607 -0.9950  1.2200
 2762SOL    HW2 8286   3.305   3.062   6.467  1.4587 -1.6349 -1.6037
 2763SOL     OW 8287   1.839   2.622   6.902  0.4794  0.1954  0.4582
 2763SOL    HW1 8288   1.843   2.527   6.913 -0.3982 -0.0390 -1.0300
 2763SOL    HW2 8289   1.792   2.654   6.980 -0.3051 -0.7266  0.3763
 2764SOL     OW 8290   1.279   2.835   5.686 -0.4042 -0.0023  0.1897
 2764SOL    HW1 8291   1.207   2.820   5.747 -0.4534 -0.1627  0.0923
 2764SOL    HW2 8292   1.344   2.770   5.710 -0.7681 -0.6193 -0.4710
 2765SOL     OW 8293   3.179   3.361   6.568  0.3119  0.3431  0.3126
 2765SOL    HW1 8294   3.088   3.389   6.563  0.0906 -0.5811 -1.9296
 2765SOL    HW2 8295   3.177   3.277   6.614 -0.0034  0.1607 -0.0359
 2766SOL     OW 8296   2.987   4.378   6.403  0.3042  0.7926  0.4370
 2766SOL    HW1 8297   2.994   4.315   6.474 -4.2909  0.3405  0.7856
 2766SOL    HW2 8298   2.981   4.463   6.446 -0.2210  0.7459  0.4637
 2767SOL     OW 8299   1.424   2.915   6.704  0.5240  0.3159 -0.2140
 2767SOL    HW1 8300   1.420   2.857   6.780  2.3621 -1.6430 -1.5153
 2767SOL    HW2 8301   1.518   2.925   6.686  0.1729 -1.3095 -3.6509
 2768SOL     OW 8302   3.284   0.503   6.109 -0.5431 -0.4601  0.0437
 2768SOL    HW1 8303   3.353   0.561   6.140 -1.4089  0.2659  0.6442
 2768SOL    HW2 8304   3.259   0.538   6.024  0.0983 -0.9655 -0.3601
 2769SOL     OW 8305   3.769   3.243   4.693  1.0577 -0.2197  0.0539
 2769SOL    HW1 8306   3.780   3.281   4.605 -0.6456  0.2271  0.0122
 2769SOL    HW2 8307   3.738   3.154   4.676  2.1104 -0.6358  0.2098
 2770SOL     OW 8308   0.918   0.508   5.073  0.0743 -0.1032  0.0810
 2770SOL    HW1 8309   0.936   0.415   5.086 -1.0704 -0.2084  1.0864
 2770SOL    HW2 8310   0.968   0.532   4.994  0.3246 -1.5716 -0.2270
 2771SOL     OW 8311   0.331   1.459   6.203  0.3146 -1.0566 -0.5394
 2771SOL    HW1 8312   0.317   1.413   6.286 -0.1366 -0.5392 -0.3208
 2771SOL    HW2 8313   0.425   1.454   6.188  0.6792  0.4841  0.9745
 2772SOL     OW 8314   3.469   0.679   6.214 -0.3518  0.6699  0.3204
 2772SOL    HW1 8315   3.525   0.677   6.136 -0.7840  2.3755 -0.0640
 2772SOL    HW2 8316   3.516   0.734   6.276 -0.5410  0.2366  0.8556
 2773SOL     OW 8317   0.242   0.618   6.871  0.0546  0.6586 -0.0473
 2773SOL    HW1 8318   0.316   0.655   6.921 -0.4220  3.2325 -1.0680
 2773SOL    HW2 8319   0.223   0.535   6.915  1.0300  1.7536  2.7297
 2774SOL     OW 8320   3.604   3.300   9.983  0.2346  0.2936  0.4757
 2774SOL    HW1 8321   3.537   3.259   9.930  0.2938 -0.7445  1.1814
 2774SOL    HW2 8322   3.619   3.239  10.055  0.6923  1.3141  1.2764
 2775SOL     OW 8323   0.626   3.770   6.388  0.3226 -0.4894  0.0612
 2775SOL    HW1 8324   0.665   3.719   6.316  1.7855  1.7438 -0.8423
 2775SOL    HW2 8325   0.548   3.721   6.413  0.2862 -1.8439 -2.4200
 2776SOL     OW 8326   0.442   2.583   5.922  0.3136  0.6307 -0.3132
 2776SOL    HW1 8327   0.418   2.607   5.833  0.5277  1.9871 -0.0371
 2776SOL    HW2 8328   0.439   2.666   5.970 -0.8282 -0.2262  1.1900
 2777SOL     OW 8329   3.669   2.301   7.946 -0.3781 -0.2071 -0.9127
 2777SOL    HW1 8330   3.747   2.312   7.892 -0.6122 -1.4049 -1.5429
 2777SOL    HW2 8331   3.614   2.375   7.923  0.8042  0.9895 -0.0119
 2778SOL     OW 8332   2.548   0.324   4.837 -0.5671 -0.2528 -0.4616
 2778SOL    HW1 8333   2.459   0.301   4.860 -0.6181 -1.6631 -1.9314
 2778SOL    HW2 8334   2.557   0.300   4.745  2.0885 -2.6031  0.2643
 2779SOL     OW 8335   4.375   2.779   5.278  0.0531  0.2532  0.4811
 2779SOL    HW1 8336   4.288   2.771   5.318  0.0970 -1.8970  0.2388
 2779SOL    HW2 8337   4.415   2.694   5.291  0.6592 -0.0857 -2.7979
 2780SOL     OW 8338   2.783   2.922   6.581  0.1035 -0.5597 -0.5842
 2780SOL    HW1 8339   2.758   3.012   6.560 -0.6247 -1.0341 -1.8576
 2780SOL    HW2 8340   2.701   2.878   6.604  0.3207 -1.1293 -0.8741
 2781SOL     OW 8341   4.162   3.283   7.238 -0.8184  0.2385  0.3725
 2781SOL    HW1 8342   4.166   3.377   7.257  0.1688  0.1917  0.4818
 2781SOL    HW2 8343   4.091   3.274   7.175  2.3921  1.8843 -4.0091
 2782SOL     OW 8344   4.007   0.427   5.020  0.5673 -0.4063  0.8321
 2782SOL    HW1 8345   4.053   0.372   4.956  1.9362  1.4516  0.1430
 2782SOL    HW2 8346   4.069   0.437   5.092  0.1675 -0.1183  1.1403
 2783SOL     OW 8347   2.859   4.824   6.378 -0.2309  0.2747 -0.2863
 2783SOL    HW1 8348   2.944   4.785   6.359  1.1459  2.6325  0.5259
 2783SOL    HW2 8349   2.851   4.818   6.473 -1.5395 -0.9197 -0.4449
 2784SOL     OW 8350   1.119   0.676   5.815  0.7602  0.0459  0.5485
 2784SOL    HW1 8351   1.135   0.724   5.896 -1.5738  1.3000  0.3445
 2784SOL    HW2 8352   1.071   0.598   5.842  0.7541  0.0259  0.4810
 2785SOL     OW 8353   2.144   4.798   5.182 -0.1797  0.4549  0.4201
 2785SOL    HW1 8354   2.098   4.826   5.104 -0.5153 -0.0146  0.4429
 2785SOL    HW2 8355   2.234   4.830   5.170 -0.7833  2.5162  0.9717
 2786SOL     OW 8356   1.699   0.139   4.823 -0.7149 -0.0438 -0.3597
 2786SOL    HW1 8357   1.734   0.067   4.771 -1.1190 -1.4210  1.1824
 2786SOL    HW2 8358   1.763   0.153   4.892 -1.0664  0.4656 -0.1288
 2787SOL     OW 8359   2.798   4.322   5.214  0.3502  0.4566  0.5996
 2787SOL    HW1 8360   2.762   4.406   5.186 -1.1835 -0.6339 -0.9290
 2787SOL    HW2 8361   2.892   4.329   5.198  0.4161  2.2683  1.6139
 2788SOL     OW 8362   0.361   1.548   6.776  0.2970 -0.0637 -0.1930
 2788SOL    HW1 8363   0.421   1.547   6.702  0.3171 -2.2925 -0.2176
 2788SOL    HW2 8364   0.417   1.543   6.853  0.2141 -0.5071 -0.1557
 2789SOL     OW 8365   0.110   3.164   7.727 -0.6235 -0.3147 -0.3208
 2789SOL    HW1 8366   0.028   3.207   7.752  0.7628  3.1178 -1.0881
 2789SOL    HW2 8367   0.137   3.209   7.647  2.2600 -0.9654  0.1797
 2790SOL     OW 8368   1.002   4.150   5.021 -0.4153 -0.1034  0.3677
 2790SOL    HW1 8369   1.091   4.182   5.006 -0.3731  0.3235  1.4273
 2790SOL    HW2 8370   0.947   4.227   5.009 -0.9247 -0.7877 -2.4385
 2791SOL     OW 8371   3.866   2.996   1.194  0.5277  0.3341 -0.6808
 2791SOL    HW1 8372   3.804   2.923   1.193  1.4157 -0.4256 -1.8284
 2791SOL    HW2 8373   3.811   3.073   1.212 -0.3150 -0.6796  1.4321
 2792SOL     OW 8374   0.979   4.934   6.507  0.9437 -0.2293  0.3443
 2792SOL    HW1 8375   0.970   5.028   6.521  0.7950 -0.0835 -0.6991
 2792SOL    HW2 8376   0.983   4.897   6.596  3.5707  0.9879  0.8292
 2793SOL     OW 8377   3.515   0.498   4.932  0.3845 -0.7083  0.0686
 2793SOL    HW1 8378   3.599   0.472   4.893 -0.6163 -1.1031 -1.9122
 2793SOL    HW2 8379   3.522   0.594   4.939  0.9974 -0.7332 -0.1039
 2794SOL     OW 8380   4.831   3.051   4.790 -0.9020  0.1036  0.2110
 2794SOL    HW1 8381   4.801   3.066   4.879  2.0870  2.6069  0.9689
 2794SOL    HW2 8382   4.784   3.115   4.736 -0.6133  0.5595  0.5002
 2795SOL     OW 8383   3.843   3.486   4.938 -0.0626 -0.1957  0.5783
 2795SOL    HW1 8384   3.780   3.473   5.010  0.0331 -1.4688  0.4619
 2795SOL    HW2 8385   3.814   3.424   4.871  1.3295 -0.8368  0.5383
 2796SOL     OW 8386   1.302   0.280   6.283  0.1021  0.2433  0.3116
 2796SOL    HW1 8387   1.390   0.294   6.319  0.0127  1.2757  0.1564
 2796SOL    HW2 8388   1.286   0.357   6.229 -1.2160  0.4592  0.9662
 2797SOL     OW 8389   1.494   1.760   6.486 -0.5065  0.7023 -0.3342
 2797SOL    HW1 8390   1.537   1.821   6.425  0.0152 -0.2040 -0.8946
 2797SOL    HW2 8391   1.403   1.757   6.457 -0.5394  1.2223 -0.2923
 2798SOL     OW 8392   3.035   2.955   5.275 -0.1411 -0.1722  0.2797
 2798SOL    HW1 8393   3.077   2.896   5.212 -1.1304  0.1379 -0.7116
 2798SOL    HW2 8394   3.032   2.905   5.356  0.5829 -0.8347 -0.0888
 2799SOL     OW 8395   2.721   1.316   6.911 -0.2529  0.2601  0.4315
 2799SOL    HW1 8396   2.735   1.409   6.927  0.8413  0.3898 -1.1038
 2799SOL    HW2 8397   2.686   1.282   6.994  0.0585  1.8722  1.2513
 2800SOL     OW 8398   0.838   1.018   6.677  0.5086 -0.1698  0.0179
 2800SOL    HW1 8399   0.801   1.097   6.636 -0.4551 -0.4639  0.2933
 2800SOL    HW2 8400   0.929   1.016   6.646  0.2878  0.5467 -0.7319
 2801SOL     OW 8401   4.421   3.372   6.185  0.2201  0.7905  0.0384
 2801SOL    HW1 8402   4.473   3.428   6.243  0.7763 -0.0019  0.3252
 2801SOL    HW2 8403   4.341   3.354   6.235  0.6220  0.2504  0.5117
 2802SOL     OW 8404   3.276   0.415   5.033  0.2064  0.3442 -0.1683
 2802SOL    HW1 8405   3.367   0.434   5.011 -0.1076  2.1631 -0.0483
 2802SOL    HW2 8406   3.262   0.325   5.003  1.4973  0.6799 -1.9322
 2803SOL     OW 8407   2.683   3.251   8.320  0.1270 -0.1750  0.2351
 2803SOL    HW1 8408   2.605   3.199   8.339  0.8438 -0.3821  3.0990
 2803SOL    HW2 8409   2.682   3.320   8.386  0.6187  1.9042 -1.8261
 2804SOL     OW 8410   2.790   4.873   5.735  0.3011  0.0876 -0.1584
 2804SOL    HW1 8411   2.766   4.781   5.739  0.7495 -0.0073  0.7034
 2804SOL    HW2 8412   2.708   4.919   5.717 -0.1141 -0.4052  0.4172
 2805SOL     OW 8413   1.436   4.779   7.073 -0.1315  0.0088 -0.3497
 2805SOL    HW1 8414   1.509   4.804   7.016 -0.6536  4.7328  0.6866
 2805SOL    HW2 8415   1.361   4.772   7.014 -0.1154  2.1594 -0.7187
 2806SOL     OW 8416   3.961   2.740   5.956 -1.0901 -0.1818 -0.0132
 2806SOL    HW1 8417   3.875   2.763   5.922 -1.7134 -1.4943  0.6305
 2806SOL    HW2 8418   4.009   2.710   5.879 -0.1660  3.2054 -0.9416
 2807SOL     OW 8419   3.559   2.731   8.359 -0.1245  0.1766  0.1491
 2807SOL    HW1 8420   3.562   2.681   8.441 -2.6027  0.1893  0.3383
 2807SOL    HW2 8421   3.490   2.688   8.308  0.2439  1.1835 -1.2405
 2808SOL     OW 8422   3.848   2.721   8.066 -0.3848  0.8097  0.2684
 2808SOL    HW1 8423   3.810   2.669   7.995 -0.2160 -1.0721  1.4748
 2808SOL    HW2 8424   3.929   2.756   8.028 -2.0789  3.0636 -1.6194
 2809SOL     OW 8425   1.953   2.027   8.190 -0.4069 -0.0340 -0.0189
 2809SOL    HW1 8426   1.987   1.984   8.269  0.2186 -1.5016 -1.0608
 2809SOL    HW2 8427   1.987   2.116   8.195  0.3848 -0.3771  0.9072
 2810SOL     OW 8428   2.435   1.016   6.432 -0.5567 -0.2363  0.4671
 2810SOL    HW1 8429   2.341   1.033   6.428 -0.2943  1.0499 -0.7430
 2810SOL    HW2 8430   2.475   1.102   6.436  0.6502 -0.6637 -1.4155
 2811SOL     OW 8431   3.103   1.522   7.074  0.2290 -0.2301  1.1916
 2811SOL    HW1 8432   3.194   1.520   7.042  0.0484  0.7070  0.5766
 2811SOL    HW2 8433   3.084   1.431   7.097  0.7196 -0.7757 -0.4116
 2812SOL     OW 8434   1.109   4.780   9.519 -0.4320 -0.3200 -0.0391
 2812SOL    HW1 8435   1.135   4.837   9.591  2.2029 -1.1713 -0.2329
 2812SOL    HW2 8436   1.084   4.840   9.449  0.0163  0.5661  0.5403
 2813SOL     OW 8437   2.516   1.090   8.460  0.5734  0.0854 -0.5135
 2813SOL    HW1 8438   2.535   1.016   8.518  0.3542  0.5614  0.1718
 2813SOL    HW2 8439   2.429   1.070   8.424  0.1538  0.4033  0.3054
 2814SOL     OW 8440   3.429   2.714   9.438 -0.1806 -0.0484 -0.0577
 2814SOL    HW1 8441   3.342   2.728   9.476  0.7807 -1.4079  2.9780
 2814SOL    HW2 8442   3.455   2.801   9.405 -1.7397  0.9319  1.1401
 2815SOL     OW 8443   4.711   0.409   9.966  0.0283 -0.2058  0.1247
 2815SOL    HW1 8444   4.779   0.392   9.900  0.0155  0.0290  0.0501
 2815SOL    HW2 8445   4.740   0.361  10.043 -0.0095 -0.5684 -0.0845
 2816SOL     OW 8446   0.824   2.981   8.189 -0.6866  0.0805  0.1062
 2816SOL    HW1 8447   0.816   2.936   8.105 -0.8854  0.2181  0.0493
 2816SOL    HW2 8448   0.833   2.911   8.253  0.2152 -0.0132 -0.1041
 2817SOL     OW 8449   2.824   2.205   7.871 -0.3246  0.7291  0.6469
 2817SOL    HW1 8450   2.851   2.131   7.817  0.4198  2.2094 -1.1063
 2817SOL    HW2 8451   2.761   2.168   7.933  2.8558 -2.1552  2.4779
 2818SOL     OW 8452   1.291   1.546   4.930  0.4883  0.0959  0.7551
 2818SOL    HW1 8453   1.266   1.588   4.848  1.6286  1.8969  1.2505
 2818SOL    HW2 8454   1.379   1.511   4.913 -0.1107 -1.3950  0.6085
 2819SOL     OW 8455   4.042   3.918   8.095  0.6102 -0.1714 -0.5152
 2819SOL    HW1 8456   4.126   3.914   8.140  0.3746 -1.3262 -0.1446
 2819SOL    HW2 8457   3.998   3.994   8.134 -0.3875 -2.2021  2.7259
 2820SOL     OW 8458   0.262   3.379   8.507 -0.0589 -0.2085  0.5051
 2820SOL    HW1 8459   0.243   3.423   8.424  0.5864  1.3961  1.1820
 2820SOL    HW2 8460   0.329   3.314   8.485 -0.6187 -0.5081 -0.3972
 2821SOL     OW 8461   0.105   2.869   5.609 -0.9590 -0.6848  0.0280
 2821SOL    HW1 8462   0.036   2.821   5.655 -0.2810 -1.9650 -0.2337
 2821SOL    HW2 8463   0.157   2.908   5.678 -1.6596 -0.1083  0.2421
 2822SOL     OW 8464   1.175   2.757   9.853 -0.2702 -0.4816  0.3041
 2822SOL    HW1 8465   1.098   2.701   9.851 -0.7010  0.1145 -0.3788
 2822SOL    HW2 8466   1.147   2.834   9.904 -0.4232  0.1303 -0.6739
 2823SOL     OW 8467   3.338   3.476   9.421  0.1299  0.1860 -0.0101
 2823SOL    HW1 8468   3.322   3.485   9.515  0.1594  0.7202 -0.0546
 2823SOL    HW2 8469   3.296   3.394   9.398  1.6496 -0.8825  0.8134
 2824SOL     OW 8470   2.754   3.353  10.007  0.2404 -0.0509 -1.0823
 2824SOL    HW1 8471   2.796   3.267  10.000 -1.5222 -1.1085  0.4685
 2824SOL    HW2 8472   2.814   3.405  10.062 -0.7301 -1.8374  1.9241
 2825SOL     OW 8473   0.848   0.557   8.874 -0.6405 -0.9412  0.2264
 2825SOL    HW1 8474   0.802   0.549   8.790 -1.7201 -1.2949  0.8426
 2825SOL    HW2 8475   0.825   0.644   8.907 -2.1387 -1.7011  1.2581
 2826SOL     OW 8476   1.079   1.951   8.491  0.8136 -0.3041  0.6988
 2826SOL    HW1 8477   1.058   2.035   8.530  0.1915  0.3394 -0.9525
 2826SOL    HW2 8478   0.996   1.903   8.490  1.5024 -1.7672  3.3825
 2827SOL     OW 8479   2.047   2.482   5.393 -0.0240  0.7812  0.0274
 2827SOL    HW1 8480   2.004   2.467   5.309 -2.4840 -1.1730  1.4833
 2827SOL    HW2 8481   2.099   2.403   5.409  1.5598  1.7414 -0.2521
 2828SOL     OW 8482   2.225   1.912   7.057  0.8502  0.7920 -0.0955
 2828SOL    HW1 8483   2.175   1.838   7.021  0.9234 -0.1398  1.6070
 2828SOL    HW2 8484   2.297   1.925   6.996 -0.9986  1.6942 -2.2389
 2829SOL     OW 8485   0.995   3.331   5.687  0.0652 -0.6875 -0.6532
 2829SOL    HW1 8486   1.073   3.371   5.727  0.9380 -2.5637 -0.4013
 2829SOL    HW2 8487   0.970   3.393   5.618  1.7049  0.0233 -0.6594
 2830SOL     OW 8488   1.382   1.474   7.202  0.5163 -0.1009 -0.1929
 2830SOL    HW1 8489   1.421   1.537   7.141 -0.8436 -1.1994 -2.2983
 2830SOL    HW2 8490   1.331   1.527   7.262 -1.1765  0.8494 -2.3533
 2831SOL     OW 8491   1.243   0.769   9.176 -0.0737  0.3297  0.1663
 2831SOL    HW1 8492   1.221   0.710   9.248  3.4512 -1.2056  0.1882
 2831SOL    HW2 8493   1.255   0.712   9.101  1.2581  1.2667 -0.3655
 2832SOL     OW 8494   3.083   3.058   8.941  0.5500  0.0566 -0.0800
 2832SOL    HW1 8495   3.154   3.062   9.004 -0.4736  1.7432  1.0236
 2832SOL    HW2 8496   3.125   3.031   8.859  3.0143  3.6775 -0.2028
 2833SOL     OW 8497   4.221   1.790   8.482  0.9060 -0.0545  0.1144
 2833SOL    HW1 8498   4.193   1.762   8.395 -0.4749  0.8066  0.2459
 2833SOL    HW2 8499   4.157   1.750   8.541 -0.2328  2.0934  0.4215
 2834SOL     OW 8500   3.414   0.044   9.030 -0.5953 -0.1574 -0.7379
 2834SOL    HW1 8501   3.508   0.056   9.045 -0.3546 -0.6356 -1.8131
 2834SOL    HW2 8502   3.379   0.133   9.023 -0.2502  0.0253 -0.2123
 2835SOL     OW 8503   3.980   0.151   5.331  0.2537 -0.5523  0.3368
 2835SOL    HW1 8504   3.989   0.234   5.378 -0.0387  0.4368 -1.2563
 2835SOL    HW2 8505   4.069   0.116   5.324  0.3829 -0.3509  0.9750
 2836SOL     OW 8506   1.500   1.152   9.007  0.0230 -0.1336  0.8731
 2836SOL    HW1 8507   1.412   1.127   9.037  0.2821 -1.4521  0.5905
 2836SOL    HW2 8508   1.529   1.078   8.953  1.1225  0.4971  0.5689
 2837SOL     OW 8509   3.329   2.181   7.875  0.0088 -0.0369  0.3960
 2837SOL    HW1 8510   3.405   2.127   7.897  0.2925 -0.3461 -1.2001
 2837SOL    HW2 8511   3.366   2.264   7.845 -0.4100  0.8713  2.3029
 2838SOL     OW 8512   3.498   0.413   9.093  0.3095 -0.8144  0.5013
 2838SOL    HW1 8513   3.459   0.496   9.119 -0.2141 -0.6775 -0.6748
 2838SOL    HW2 8514   3.541   0.381   9.173 -0.4758  0.0076  1.2807
 2839SOL     OW 8515   3.372   3.713   8.197 -0.1502 -0.2348 -0.4230
 2839SOL    HW1 8516   3.303   3.684   8.256 -2.6754  0.4196 -2.8281
 2839SOL    HW2 8517   3.351   3.673   8.113  1.6356  1.0705 -1.5804
 2840SOL     OW 8518   4.930   4.194   6.878 -0.0024 -0.1703  0.1274
 2840SOL    HW1 8519   4.863   4.238   6.825 -0.4588 -0.9472  0.0469
 2840SOL    HW2 8520   4.907   4.218   6.968  0.6019  0.9116  0.0083
 2841SOL     OW 8521   0.130   1.090   7.292  0.2605 -0.5718  0.4676
 2841SOL    HW1 8522   0.070   1.091   7.366 -0.2227  0.4920  0.0800
 2841SOL    HW2 8523   0.134   0.998   7.265  0.6506 -1.0180  1.9622
 2842SOL     OW 8524   0.211   4.074   6.906  0.2922  0.2159  0.1729
 2842SOL    HW1 8525   0.140   4.135   6.882  0.2523  0.1947  0.2360
 2842SOL    HW2 8526   0.281   4.130   6.939  0.6292  0.3065 -0.6677
 2843SOL     OW 8527   2.465   1.952  10.144  0.2343  0.0526 -0.2459
 2843SOL    HW1 8528   2.498   1.965  10.055 -0.1318 -1.6318 -0.6617
 2843SOL    HW2 8529   2.510   2.019  10.196  0.3928  1.1254 -1.6907
 2844SOL     OW 8530   3.701   2.332   7.566  0.2883 -0.4889 -0.2193
 2844SOL    HW1 8531   3.676   2.376   7.485  1.2473 -1.0869 -0.8664
 2844SOL    HW2 8532   3.749   2.398   7.616 -0.4569 -0.0659 -0.0551
 2845SOL     OW 8533   4.849   4.729   6.172 -0.3666  0.2486  0.1017
 2845SOL    HW1 8534   4.852   4.824   6.185 -1.0071 -0.0288  2.9301
 2845SOL    HW2 8535   4.885   4.693   6.253 -2.2480 -1.9108  0.0619
 2846SOL     OW 8536   3.935   2.301   7.867 -0.8829  0.0027  0.3113
 2846SOL    HW1 8537   4.018   2.312   7.914  0.4339 -1.0800 -1.6340
 2846SOL    HW2 8538   3.907   2.212   7.887  0.7996 -1.2841 -2.4266
 2847SOL     OW 8539   0.078   0.979  10.019  0.6574 -0.0681 -0.8541
 2847SOL    HW1 8540   0.153   1.029  10.049  0.4084  1.1674 -2.1769
 2847SOL    HW2 8541   0.112   0.924   9.948  0.8955 -1.7052  0.4818
 2848SOL     OW 8542   0.605   1.009   6.087  0.0659 -0.1434 -0.5879
 2848SOL    HW1 8543   0.640   1.098   6.087 -0.6178  0.1402 -1.3575
 2848SOL    HW2 8544   0.659   0.963   6.023  0.2763 -0.2219 -0.3538
 2849SOL     OW 8545   4.770   4.937   6.526  0.0492 -0.3905 -0.2183
 2849SOL    HW1 8546   4.756   5.032   6.526 -0.8662 -0.5007  1.2557
 2849SOL    HW2 8547   4.854   4.926   6.571 -0.5023 -0.3396  0.8510
 2850SOL     OW 8548   0.917   1.346  10.452  0.6279 -0.4188 -0.3199
 2850SOL    HW1 8549   0.968   1.282  10.402  0.4460 -0.3742 -0.5630
 2850SOL    HW2 8550   0.937   1.326  10.543  1.8544  0.2110 -0.4187
 2851SOL     OW 8551   1.430   3.439   4.711  0.1454 -0.2489 -0.6539
 2851SOL    HW1 8552   1.391   3.507   4.766  0.7060  0.7653 -1.5052
 2851SOL    HW2 8553   1.415   3.358   4.761 -2.4515  0.1558 -0.6212
 2852SOL     OW 8554   4.958   1.898   5.838 -0.2305  0.1878  0.0275
 2852SOL    HW1 8555   4.897   1.866   5.771 -1.3678 -1.1837  1.6211
 2852SOL    HW2 8556   4.950   1.993   5.835 -0.2139  0.1718 -1.7731
 2853SOL     OW 8557   4.392   2.435   4.822  0.9655  0.0355  0.3037
 2853SOL    HW1 8558   4.399   2.466   4.912 -1.3882 -2.0483  1.3327
 2853SOL    HW2 8559   4.398   2.340   4.828  1.3502 -0.1350 -1.8355
 2854SOL     OW 8560   2.001   2.116   6.257  0.1932 -0.1512 -1.1033
 2854SOL    HW1 8561   2.013   2.030   6.298 -0.5604 -0.1777 -0.9204
 2854SOL    HW2 8562   1.980   2.097   6.166  0.3327 -0.1456 -1.1374
 2855SOL     OW 8563   4.256   3.493   8.195 -0.2973 -0.1693 -0.1691
 2855SOL    HW1 8564   4.306   3.536   8.126 -2.2160  0.0695 -1.4940
 2855SOL    HW2 8565   4.178   3.459   8.151 -2.2057  1.0272  2.0349
 2856SOL     OW 8566   4.872   4.271   7.134 -0.8293  0.3214 -0.9050
 2856SOL    HW1 8567   4.966   4.267   7.151 -0.6178 -3.5195 -2.1401
 2856SOL    HW2 8568   4.842   4.346   7.186  2.9650  2.2674 -1.1627
 2857SOL     OW 8569   4.460   2.631   6.620 -0.5800 -0.9980 -0.4429
 2857SOL    HW1 8570   4.382   2.684   6.638 -1.1594 -2.1773  0.7002
 2857SOL    HW2 8571   4.526   2.695   6.593 -1.5132  0.2062 -0.0077
 2858SOL     OW 8572   3.749   0.469  10.058  0.6871 -0.3819  0.1972
 2858SOL    HW1 8573   3.667   0.505  10.092  0.3825 -1.2921  0.4656
 2858SOL    HW2 8574   3.764   0.516   9.976  1.9396  2.5451  1.9424
 2859SOL     OW 8575   2.221   0.716   8.275  0.2973 -0.1038  0.2043
 2859SOL    HW1 8576   2.286   0.654   8.243  0.5076 -0.9570  2.1568
 2859SOL    HW2 8577   2.261   0.756   8.352 -0.6316  0.9875  0.1500
 2860SOL     OW 8578   2.557   4.860   8.698  0.0784 -0.1838  0.1850
 2860SOL    HW1 8579   2.584   4.951   8.684 -4.3279  1.6623  2.0203
 2860SOL    HW2 8580   2.628   4.808   8.659  2.2696  3.9681 -2.0560
 2861SOL     OW 8581   0.141   1.751   6.875  0.3937  0.1851 -0.1431
 2861SOL    HW1 8582   0.227   1.727   6.840  0.0773  1.4590 -1.9338
 2861SOL    HW2 8583   0.082   1.683   6.843  0.6468 -0.4719  0.7531
 2862SOL     OW 8584   1.491   0.976   7.978  0.3291  0.4848 -0.1384
 2862SOL    HW1 8585   1.412   0.923   7.961  0.5180  0.6102 -1.5595
 2862SOL    HW2 8586   1.551   0.916   8.022 -1.7316  1.2965  4.2857
 2863SOL     OW 8587   3.935   3.455   7.400  0.4713 -0.1072  0.3128
 2863SOL    HW1 8588   3.846   3.489   7.396  0.5714  0.2606  0.9500
 2863SOL    HW2 8589   3.926   3.365   7.431  0.2212 -0.5878 -1.1150
 2864SOL     OW 8590   4.064   1.972   6.152  0.2267  0.1176  0.1083
 2864SOL    HW1 8591   4.016   2.024   6.088 -1.1101 -1.0211  0.1298
 2864SOL    HW2 8592   4.041   2.009   6.237  0.8183  0.6866  0.0294
 2865SOL     OW 8593   1.667   1.452   7.457  0.4336 -0.5037 -0.4232
 2865SOL    HW1 8594   1.700   1.451   7.368 -1.0935 -0.6120 -1.0151
 2865SOL    HW2 8595   1.592   1.513   7.455 -0.6004 -1.6862  0.3837
 2866SOL     OW 8596   3.365   2.733   5.433 -0.2627  0.5468 -0.0617
 2866SOL    HW1 8597   3.271   2.725   5.450 -0.3156  0.0130 -0.5577
 2866SOL    HW2 8598   3.386   2.657   5.379  0.5971  0.2925  0.6092
 2867SOL     OW 8599   4.958   4.807   8.401  0.2160 -0.1515  0.5042
 2867SOL    HW1 8600   4.978   4.715   8.385 -1.6066 -0.4409 -0.3061
 2867SOL    HW2 8601   5.028   4.855   8.357  2.0916 -1.1148  2.2603
 2868SOL     OW 8602   3.381   0.379   9.856  0.1929  0.2530 -0.2257
 2868SOL    HW1 8603   3.327   0.305   9.883  3.5705 -1.2879  3.4065
 2868SOL    HW2 8604   3.332   0.457   9.883 -0.7013 -1.0103  2.0705
 2869SOL     OW 8605   0.496   1.745   8.600 -1.3641 -0.0755 -0.6693
 2869SOL    HW1 8606   0.483   1.794   8.681  0.8665 -1.5499  0.7102
 2869SOL    HW2 8607   0.410   1.707   8.580 -2.4990  2.1840 -0.3480
 2870SOL     OW 8608   4.229   4.276   9.417  0.2509  0.2496 -0.5944
 2870SOL    HW1 8609   4.184   4.330   9.482  1.0743  0.8638 -0.5149
 2870SOL    HW2 8610   4.210   4.317   9.333 -0.0709 -0.0175 -0.6540
 2871SOL     OW 8611   3.618   4.909   6.247  0.9457 -0.0802  0.9122
 2871SOL    HW1 8612   3.591   4.991   6.288  3.3150  0.2218  2.0037
 2871SOL    HW2 8613   3.672   4.935   6.173  0.2458 -0.6834  0.1618
 2872SOL     OW 8614   4.401   1.536   5.725 -0.1129 -0.0877 -0.3520
 2872SOL    HW1 8615   4.341   1.608   5.701  0.3471  0.6798  0.7032
 2872SOL    HW2 8616   4.343   1.469   5.762 -0.5922 -0.4377 -1.6908
 2873SOL     OW 8617   1.997   2.209   7.399 -0.8070 -0.0533 -0.1327
 2873SOL    HW1 8618   1.986   2.219   7.493 -0.5399 -0.2529 -0.0793
 2873SOL    HW2 8619   1.913   2.174   7.368 -1.4971  1.5604 -0.2116
 2874SOL     OW 8620   4.955   0.879   8.316 -0.5142 -0.2810 -0.1301
 2874SOL    HW1 8621   5.025   0.938   8.286 -2.7944  2.3518 -0.7125
 2874SOL    HW2 8622   4.950   0.812   8.249  0.4657  0.3270 -0.8472
 2875SOL     OW 8623   3.866   3.910   9.287 -0.4755 -0.3255  0.0183
 2875SOL    HW1 8624   3.824   3.902   9.201  2.8176 -2.3053 -1.6600
 2875SOL    HW2 8625   3.943   3.852   9.281  2.0289  2.3015  2.9859
 2876SOL     OW 8626   0.728   4.477   7.694 -0.3348 -0.0755  0.5063
 2876SOL    HW1 8627   0.771   4.547   7.743 -0.9963 -0.8076  2.2191
 2876SOL    HW2 8628   0.712   4.515   7.608  0.7618  1.3187  0.8751
 2877SOL     OW 8629   3.676   2.715   9.587 -0.1168  0.6169 -0.0031
 2877SOL    HW1 8630   3.599   2.720   9.530  0.9428  0.2656 -1.5035
 2877SOL    HW2 8631   3.644   2.668   9.665 -1.4429  0.5577 -0.5450
 2878SOL     OW 8632   0.649   1.509   8.686 -0.6345 -0.0468  0.3825
 2878SOL    HW1 8633   0.567   1.554   8.666 -0.3254  0.8018  0.9595
 2878SOL    HW2 8634   0.688   1.561   8.757  1.0743  0.4040 -0.8248
 2879SOL     OW 8635   1.397   0.967   6.846 -0.4200  0.1741  0.3576
 2879SOL    HW1 8636   1.346   0.890   6.870 -2.7741  1.6042  0.2205
 2879SOL    HW2 8637   1.372   1.034   6.910  2.6470  0.4978  1.3719
 2880SOL     OW 8638   3.736   4.991  10.195 -0.4618  0.1321  0.2930
 2880SOL    HW1 8639   3.793   4.996  10.272 -0.5688 -0.6897  0.4348
 2880SOL    HW2 8640   3.768   4.915  10.147 -2.0072 -0.9192  0.8497
 2881SOL     OW 8641   2.307   3.106   9.963 -0.5459  0.9839 -0.0345
 2881SOL    HW1 8642   2.319   3.046  10.036 -0.0637  1.2860  0.1386
 2881SOL    HW2 8643   2.264   3.182  10.002 -0.7975  0.9136 -0.1757
 2882SOL     OW 8644   2.924   2.594   4.750  0.3655 -0.8357 -0.4854
 2882SOL    HW1 8645   3.013   2.559   4.754  1.2678  1.2849 -0.2668
 2882SOL    HW2 8646   2.895   2.596   4.842  1.1894  0.9079 -0.2104
 2883SOL     OW 8647   4.851   3.504   6.086  0.3256 -0.6603 -0.8420
 2883SOL    HW1 8648   4.768   3.552   6.094  0.9665  0.2762  0.7199
 2883SOL    HW2 8649   4.910   3.565   6.041  0.9488 -0.1910  0.5522
 2884SOL     OW 8650   4.778   4.958   8.765  0.6569  0.0118  0.0174
 2884SOL    HW1 8651   4.808   5.005   8.688 -2.0103  1.8350 -0.0483
 2884SOL    HW2 8652   4.797   5.017   8.838  4.4915 -2.2900  1.1427
 2885SOL     OW 8653   2.630   4.096   5.180  0.5033  0.0715 -0.5254
 2885SOL    HW1 8654   2.668   4.184   5.182  2.6835 -0.7964  0.2485
 2885SOL    HW2 8655   2.693   4.044   5.129  0.8798 -1.6459  1.5288
 2886SOL     OW 8656   4.914   1.876   8.906 -0.2257 -0.1966 -0.3842
 2886SOL    HW1 8657   4.893   1.924   8.826 -1.9701 -1.5232 -0.7673
 2886SOL    HW2 8658   4.992   1.825   8.883 -1.3342 -1.3970 -1.6400
 2887SOL     OW 8659   2.696   3.988   9.866 -0.0445 -0.1753  0.0950
 2887SOL    HW1 8660   2.763   3.984   9.934 -0.1219  1.2949  0.2942
 2887SOL    HW2 8661   2.628   4.046   9.902  0.3222  1.3728 -1.5390
 2888SOL     OW 8662   4.864   2.739   5.398 -0.0661  0.1614  0.5053
 2888SOL    HW1 8663   4.912   2.816   5.368 -0.4077 -0.4431 -1.7943
 2888SOL    HW2 8664   4.783   2.739   5.347 -0.6005 -1.1063  1.2886
 2889SOL     OW 8665   2.540   0.600   4.702  0.1469  0.0291  0.0131
 2889SOL    HW1 8666   2.592   0.569   4.628  2.1051  1.7926  0.5602
 2889SOL    HW2 8667   2.572   0.549   4.776  2.0637  1.9027  0.5695
 2890SOL     OW 8668   0.975   4.516   9.742 -0.5682 -0.7932  0.1992
 2890SOL    HW1 8669   0.975   4.426   9.774  0.8885 -0.9213 -0.1058
 2890SOL    HW2 8670   1.063   4.530   9.707 -1.1365  0.3595 -0.8713
 2891SOL     OW 8671   3.094   3.708   7.118  0.3340 -0.4172  0.1118
 2891SOL    HW1 8672   3.177   3.667   7.095 -0.3512 -3.3515  2.1487
 2891SOL    HW2 8673   3.084   3.690   7.212 -2.1781  0.5758  0.1203
 2892SOL     OW 8674   0.731   4.814   8.087 -0.6350  0.3871  0.2387
 2892SOL    HW1 8675   0.819   4.776   8.092 -0.8895 -0.7555 -2.2072
 2892SOL    HW2 8676   0.676   4.742   8.058 -1.9712  1.5883 -0.3400
 2893SOL     OW 8677   1.695   3.232   4.536  0.5360 -0.0072  0.0771
 2893SOL    HW1 8678   1.780   3.203   4.502  0.4885  3.6368 -3.8580
 2893SOL    HW2 8679   1.698   3.327   4.531 -3.4364  0.3258  0.8726
 2894SOL     OW 8680   3.567   2.597   6.489  0.6672 -0.2045  0.1736
 2894SOL    HW1 8681   3.610   2.555   6.563  0.3353 -0.4177  0.2454
 2894SOL    HW2 8682   3.627   2.582   6.415  0.2643 -1.3554  0.0584
 2895SOL     OW 8683   2.334   4.579   9.320 -0.6574 -0.0428  0.2474
 2895SOL    HW1 8684   2.356   4.521   9.393 -1.3728  1.8255  2.0479
 2895SOL    HW2 8685   2.239   4.575   9.313 -0.8456  1.6529  1.1505
 2896SOL     OW 8686   1.561   1.835   8.645  0.4964 -0.7176  0.4694
 2896SOL    HW1 8687   1.603   1.776   8.709 -0.7471 -1.3518  0.7312
 2896SOL    HW2 8688   1.516   1.776   8.585  1.3792 -0.1055 -0.8245
 2897SOL     OW 8689   2.514   1.495   5.488  0.0120 -0.3387 -0.7352
 2897SOL    HW1 8690   2.488   1.443   5.564 -2.1065  0.2320 -1.0034
 2897SOL    HW2 8691   2.431   1.519   5.446  1.0130  1.4491 -1.8243
 2898SOL     OW 8692   0.864   1.741  10.238  0.6631  0.2883 -0.0421
 2898SOL    HW1 8693   0.795   1.807  10.242  1.6847  1.3371  1.7102
 2898SOL    HW2 8694   0.832   1.669  10.291  2.0254  2.0486  3.5618
 2899SOL     OW 8695   3.158   4.948   8.161 -0.4142 -0.7509 -0.6353
 2899SOL    HW1 8696   3.110   4.973   8.082 -0.2059  0.1315 -0.4924
 2899SOL    HW2 8697   3.109   4.988   8.233 -1.1961 -2.4187 -0.1973
 2900SOL     OW 8698   2.892   3.445  10.199  0.7123  0.2075 -0.0535
 2900SOL    HW1 8699   2.832   3.515  10.222  0.5618 -0.1017  0.5191
 2900SOL    HW2 8700   2.977   3.474  10.231  0.4880 -0.2618  1.0142
 2901SOL     OW 8701   4.412   3.623   6.346  0.4946 -0.6479 -0.5003
 2901SOL    HW1 8702   4.364   3.706   6.341 -0.5247 -1.2484 -1.4254
 2901SOL    HW2 8703   4.502   3.648   6.363  0.1374  0.6286 -0.3568
 2902SOL     OW 8704   2.437   3.145   8.428 -0.1646 -0.3616 -0.5416
 2902SOL    HW1 8705   2.392   3.215   8.475 -0.9619 -1.1099 -0.1434
 2902SOL    HW2 8706   2.503   3.114   8.489  3.4865  3.0514 -2.3501
 2903SOL     OW 8707   2.519   2.891   6.920  0.0129 -0.1351 -0.0056
 2903SOL    HW1 8708   2.481   2.808   6.949 -1.8099  1.2845  2.0359
 2903SOL    HW2 8709   2.505   2.951   6.994  1.4797  1.9417 -1.2941
 2904SOL     OW 8710   4.093   4.757   4.945  0.0796  0.3363 -0.2638
 2904SOL    HW1 8711   4.181   4.776   4.912  0.5128  0.5502  0.9792
 2904SOL    HW2 8712   4.059   4.841   4.973 -0.4821  0.2328 -0.6096
 2905SOL     OW 8713   1.668   0.480   7.710  0.2306  0.2603  0.7282
 2905SOL    HW1 8714   1.761   0.462   7.700  0.1668 -0.1799  0.9108
 2905SOL    HW2 8715   1.647   0.538   7.636  0.5226 -0.1168  0.3469
 2906SOL     OW 8716   1.856   1.535   5.867 -0.1959  0.0456  0.4266
 2906SOL    HW1 8717   1.803   1.528   5.947  2.7838 -1.8912  2.4140
 2906SOL    HW2 8718   1.853   1.628   5.845  0.3273  1.0330  3.9315
 2907SOL     OW 8719   0.500   1.502   9.979 -0.7149  0.0176  0.2383
 2907SOL    HW1 8720   0.512   1.407   9.972 -2.2803 -0.2464  0.7749
 2907SOL    HW2 8721   0.452   1.526   9.899 -0.3809  0.3526  0.1364
 2908SOL     OW 8722   1.981   3.940   9.842  0.5831 -0.2758  0.4539
 2908SOL    HW1 8723   1.902   3.892   9.820  1.1234 -1.1246  0.3039
 2908SOL    HW2 8724   2.038   3.875   9.884  1.2894  0.2560  0.3519
 2909SOL     OW 8725   0.853   3.248   6.210 -0.1571  0.1392 -0.2463
 2909SOL    HW1 8726   0.895   3.194   6.277 -1.4836 -0.2369  0.3123
 2909SOL    HW2 8727   0.830   3.330   6.255 -0.0425  0.3364 -0.5398
 2910SOL     OW 8728   3.760   3.885   8.012 -0.9472 -0.9144 -0.3609
 2910SOL    HW1 8729   3.854   3.868   8.022 -0.3441  1.1020 -1.9091
 2910SOL    HW2 8730   3.722   3.857   8.095  1.5098  1.2741  1.7034
 2911SOL     OW 8731   4.884   4.515   8.738 -0.0847 -0.5349  0.0682
 2911SOL    HW1 8732   4.823   4.578   8.698  2.0508  1.0969 -0.7825
 2911SOL    HW2 8733   4.853   4.430   8.707 -1.5473  0.2734 -0.8544
 2912SOL     OW 8734   1.551   3.488   9.194  0.2225 -0.2628 -0.7176
 2912SOL    HW1 8735   1.548   3.534   9.278  2.5691 -3.2978  1.2577
 2912SOL    HW2 8736   1.478   3.426   9.198  0.3384 -0.4132 -0.9030
 2913SOL     OW 8737   1.641   0.449   9.189 -0.4728 -0.0732  0.2689
 2913SOL    HW1 8738   1.733   0.473   9.176 -0.4268 -0.8005 -0.9011
 2913SOL    HW2 8739   1.634   0.361   9.153 -1.6073 -0.0650  0.4465
 2914SOL     OW 8740   1.956   2.256   7.661  0.2932  0.4479 -0.2651
 2914SOL    HW1 8741   1.960   2.351   7.675  2.0854  0.1600  1.7970
 2914SOL    HW2 8742   1.978   2.219   7.746  0.9528 -1.8195 -1.3486
 2915SOL     OW 8743   1.354   1.118   6.186 -0.4387 -1.2350  0.2640
 2915SOL    HW1 8744   1.272   1.164   6.203  1.1874  1.6689  0.9849
 2915SOL    HW2 8745   1.395   1.109   6.272  1.1973 -0.0631 -0.3408
 2916SOL     OW 8746   0.077   1.056   6.493 -0.2423  0.4858 -0.0273
 2916SOL    HW1 8747   0.071   1.129   6.431 -1.9420 -1.5231 -2.4467
 2916SOL    HW2 8748   0.168   1.029   6.490 -0.6044 -0.9005 -3.5375
 2917SOL     OW 8749   1.300   4.383   6.818  0.2753  0.1768 -0.5261
 2917SOL    HW1 8750   1.325   4.352   6.905 -0.9129  0.9495  0.1157
 2917SOL    HW2 8751   1.279   4.302   6.770  2.4784 -0.3787 -0.6447
 2918SOL     OW 8752   1.176   1.577   9.579 -0.0252  0.0669  0.5074
 2918SOL    HW1 8753   1.187   1.594   9.673 -0.7254 -0.5691  0.7165
 2918SOL    HW2 8754   1.091   1.533   9.573 -1.0333  2.0660 -0.6689
 2919SOL     OW 8755   0.777   1.795   9.594  0.0187  0.8085 -0.0851
 2919SOL    HW1 8756   0.827   1.749   9.527  0.9583  0.6233  0.7208
 2919SOL    HW2 8757   0.763   1.882   9.559 -0.1972  0.4742 -0.8544
 2920SOL     OW 8758   2.320   0.859   7.608 -0.1310  0.3205 -0.4651
 2920SOL    HW1 8759   2.292   0.929   7.549  0.5081  0.2215 -0.9019
 2920SOL    HW2 8760   2.325   0.900   7.694 -0.2728  0.6747 -0.6237
 2921SOL     OW 8761   1.679   2.696   7.098  0.0318 -0.5959 -0.0370
 2921SOL    HW1 8762   1.613   2.749   7.143 -0.8121  0.7403 -2.6886
 2921SOL    HW2 8763   1.755   2.700   7.156 -0.9225  1.1449  1.2126
 2922SOL     OW 8764   3.680   3.072   6.753 -0.2284 -0.2277  0.4352
 2922SOL    HW1 8765   3.641   3.066   6.840 -3.3064 -0.6685 -0.8087
 2922SOL    HW2 8766   3.685   3.166   6.734 -0.1801 -0.1512  0.8332
 2923SOL     OW 8767   1.479   4.587   5.928 -0.3221  0.7663 -0.1812
 2923SOL    HW1 8768   1.440   4.541   6.003 -2.5525 -2.2714 -2.8782
 2923SOL    HW2 8769   1.416   4.656   5.908 -0.4034  0.7387 -0.0317
 2924SOL     OW 8770   3.078   1.030   9.984 -0.2620 -0.1724 -0.1933
 2924SOL    HW1 8771   3.157   1.031  10.038  0.9666  3.7650 -1.7378
 2924SOL    HW2 8772   3.100   0.972   9.910  1.7737  1.7308 -1.2010
 2925SOL     OW 8773   2.836   2.426   8.218  0.0366  0.2733 -0.0263
 2925SOL    HW1 8774   2.904   2.493   8.220  2.7602 -2.3465  1.0095
 2925SOL    HW2 8775   2.838   2.392   8.129 -1.7798  1.8155 -0.7402
 2926SOL     OW 8776   2.037   0.363   6.463 -0.2735  0.5178  0.4734
 2926SOL    HW1 8777   1.948   0.398   6.457 -0.5043 -0.2150 -0.6662
 2926SOL    HW2 8778   2.057   0.331   6.375 -0.0610 -2.1741  1.4109
 2927SOL     OW 8779   0.065   1.943   6.285  0.0882 -0.1490 -0.0833
 2927SOL    HW1 8780   0.018   1.929   6.367  1.0086  2.0875  0.9155
 2927SOL    HW2 8781   0.083   1.854   6.253  2.0331 -1.2877  3.5284
 2928SOL     OW 8782   2.179   3.453   5.681 -0.7087 -0.3857 -0.1552
 2928SOL    HW1 8783   2.108   3.471   5.743 -1.6241 -0.8560 -1.0313
 2928SOL    HW2 8784   2.134   3.431   5.599  0.4305  2.4854 -1.7143
 2929SOL     OW 8785   3.841   3.213  10.215  0.0607  0.0013 -0.2983
 2929SOL    HW1 8786   3.813   3.182  10.301  0.5794  2.1187  0.6918
 2929SOL    HW2 8787   3.877   3.135  10.172 -2.2942 -1.5972  0.4540
 2930SOL     OW 8788   2.599   0.158   9.907 -0.3683 -0.7505 -0.4080
 2930SOL    HW1 8789   2.617   0.070   9.940 -2.1555 -0.9014  0.2975
 2930SOL    HW2 8790   2.675   0.209   9.932 -0.1644 -1.6634  0.9574
 2931SOL     OW 8791   1.234   2.905  10.513  0.5364  0.5913  0.2290
 2931SOL    HW1 8792   1.294   2.899  10.587  1.3231  2.7350 -0.1555
 2931SOL    HW2 8793   1.270   2.847  10.447 -1.5207 -3.3683  2.2466
 2932SOL     OW 8794   2.745   2.785   8.583  0.4450  0.3689  0.0700
 2932SOL    HW1 8795   2.731   2.759   8.674  1.2817  0.1283  0.1355
 2932SOL    HW2 8796   2.819   2.732   8.554  0.5865  0.9044 -0.5604
 2933SOL     OW 8797   3.696   2.222   6.048  0.1378  0.1887 -0.3781
 2933SOL    HW1 8798   3.744   2.291   6.002  0.3507  1.0792  1.1080
 2933SOL    HW2 8799   3.605   2.250   6.044 -0.5640 -1.8672 -3.8491
 2934SOL     OW 8800   1.436   1.259   7.044  0.1306  0.0024  0.4051
 2934SOL    HW1 8801   1.418   1.336   7.098  1.1854  2.4304 -2.3943
 2934SOL    HW2 8802   1.418   1.288   6.955 -2.3509 -3.9969 -0.6768
 2935SOL     OW 8803   3.147   2.272   7.333 -0.6617  0.1466  0.2831
 2935SOL    HW1 8804   3.051   2.263   7.331 -0.4940 -2.1596 -0.3663
 2935SOL    HW2 8805   3.169   2.270   7.426 -1.2598  1.2757  0.4659
 2936SOL     OW 8806   3.494   4.621  10.105  0.3007  0.1487 -0.1374
 2936SOL    HW1 8807   3.518   4.631  10.013  3.4370 -1.1128  0.4178
 2936SOL    HW2 8808   3.449   4.537  10.109  1.3214 -0.4255 -0.3633
 2937SOL     OW 8809   1.936   3.776   6.187 -0.2098  0.0174 -0.2299
 2937SOL    HW1 8810   1.928   3.811   6.276  1.4759  1.4032 -0.5716
 2937SOL    HW2 8811   1.851   3.794   6.147 -0.6489  0.2903  0.7834
 2938SOL     OW 8812   4.570   0.554   6.415  0.7562  0.4501  0.1818
 2938SOL    HW1 8813   4.559   0.645   6.441 -1.4218  0.4688 -0.5947
 2938SOL    HW2 8814   4.533   0.504   6.488 -2.9277  0.4315 -1.4724
 2939SOL     OW 8815   4.417   3.408   8.473  0.1764 -0.7041  0.9346
 2939SOL    HW1 8816   4.507   3.395   8.443 -0.0612 -0.8742  0.2801
 2939SOL    HW2 8817   4.422   3.399   8.568  1.7141  3.9940  1.5690
 2940SOL     OW 8818   0.519   4.320   7.393 -0.1272  0.5560 -0.3396
 2940SOL    HW1 8819   0.446   4.363   7.347 -0.4601  1.1310  0.6922
 2940SOL    HW2 8820   0.489   4.312   7.483  1.0500  0.7109  0.0860
 2941SOL     OW 8821   4.508   4.641   7.758  0.5431 -0.5945  0.8261
 2941SOL    HW1 8822   4.503   4.696   7.679  4.8778 -0.2856  0.5387
 2941SOL    HW2 8823   4.485   4.701   7.829  0.1629  0.1328  0.1192
 2942SOL     OW 8824   4.559   3.163   6.730  0.3333  0.0732  0.2167
 2942SOL    HW1 8825   4.633   3.207   6.772  0.4990  1.0034 -1.0162
 2942SOL    HW2 8826   4.566   3.186   6.637 -0.6450 -1.0518 -0.1669
 2943SOL     OW 8827   1.178   4.602   6.749  0.0376  0.1912 -0.3986
 2943SOL    HW1 8828   1.236   4.669   6.787  0.9755  1.1030 -3.2210
 2943SOL    HW2 8829   1.222   4.519   6.767  0.7424  0.6422 -0.0107
 2944SOL     OW 8830   1.281   3.562   7.224  0.0184 -0.3598 -0.3014
 2944SOL    HW1 8831   1.366   3.605   7.222  0.3965 -1.0110  0.9129
 2944SOL    HW2 8832   1.220   3.626   7.188  1.2193 -0.3949 -2.6045
 2945SOL     OW 8833   3.381   2.297   4.756  0.4695 -0.2017 -0.4726
 2945SOL    HW1 8834   3.323   2.232   4.797  1.6606 -2.5009 -2.1918
 2945SOL    HW2 8835   3.464   2.287   4.801  0.7441 -0.1101 -0.9493
 2946SOL     OW 8836   2.971   0.051   7.526 -0.5376 -0.5191 -0.1770
 2946SOL    HW1 8837   2.970  -0.045   7.525 -1.0513 -0.5207 -0.1360
 2946SOL    HW2 8838   3.033   0.074   7.595  0.2879 -0.8114 -0.8091
 2947SOL     OW 8839   3.745   0.615   8.774 -0.0974  0.3544 -0.5869
 2947SOL    HW1 8840   3.666   0.599   8.826  0.1421 -2.1768 -0.8886
 2947SOL    HW2 8841   3.713   0.622   8.684 -0.1224  1.0088 -0.5338
 2948SOL     OW 8842   1.620   3.418  10.164 -0.4169 -0.7166  0.5167
 2948SOL    HW1 8843   1.550   3.428  10.228 -0.2614  1.7421  0.3737
 2948SOL    HW2 8844   1.577   3.432  10.079  0.3720  2.1859  0.4953
 2949SOL     OW 8845   0.107   2.410   9.039 -0.7030 -0.0289  0.1818
 2949SOL    HW1 8846   0.122   2.347   9.109 -1.2586 -0.8090 -0.3901
 2949SOL    HW2 8847   0.072   2.359   8.967  1.8358  0.3798 -1.4661
 2950SOL     OW 8848   4.109   1.755  10.248 -0.0378  0.3555 -0.1823
 2950SOL    HW1 8849   4.055   1.677  10.259  1.4837 -0.4856  1.9885
 2950SOL    HW2 8850   4.052   1.828  10.273 -0.7189 -0.3232  0.2751
 2951SOL     OW 8851   4.723   0.745  10.441  0.3305  0.3482 -0.2621
 2951SOL    HW1 8852   4.662   0.681  10.478  0.4974  0.6536  0.5632
 2951SOL    HW2 8853   4.698   0.752  10.349 -2.9981  2.7687  0.6389
 2952SOL     OW 8854   2.350   2.316   9.691  0.1499  0.0002  0.0685
 2952SOL    HW1 8855   2.333   2.265   9.612 -0.9260  0.1694  0.1838
 2952SOL    HW2 8856   2.380   2.251   9.756  1.2803 -0.1037 -0.5282
 2953SOL     OW 8857   4.204   2.608   9.708  0.2289 -0.3947 -0.4785
 2953SOL    HW1 8858   4.206   2.529   9.653 -2.8607 -1.1327  0.2566
 2953SOL    HW2 8859   4.145   2.668   9.662 -0.8769 -0.2725  1.0082
 2954SOL     OW 8860   2.902   1.993   9.512  0.5674  0.0853 -0.2434
 2954SOL    HW1 8861   2.962   2.064   9.537 -0.1413  0.2291  1.1375
 2954SOL    HW2 8862   2.959   1.921   9.487  1.4801 -0.6605  3.4351
 2955SOL     OW 8863   1.934   0.447   9.427 -0.0849 -0.2119 -0.0315
 2955SOL    HW1 8864   1.950   0.369   9.374 -0.2284  0.0158 -0.4207
 2955SOL    HW2 8865   1.893   0.509   9.366  1.8531  0.9192 -0.2795
 2956SOL     OW 8866   1.295   0.296   8.307 -0.6435 -0.0898  0.1654
 2956SOL    HW1 8867   1.279   0.335   8.393 -0.5225  1.2112 -0.3852
 2956SOL    HW2 8868   1.208   0.286   8.269 -0.7682 -1.4543  0.7470
 2957SOL     OW 8869   0.452   3.552   9.347  0.4738 -0.4154  0.0836
 2957SOL    HW1 8870   0.390   3.623   9.336 -1.7322 -2.3516 -0.7703
 2957SOL    HW2 8871   0.480   3.558   9.439  1.0354  1.9877 -0.1882
 2958SOL     OW 8872   3.835   2.542   8.860  0.2567  0.7588 -0.6021
 2958SOL    HW1 8873   3.746   2.575   8.873 -0.8586 -1.6445 -1.4897
 2958SOL    HW2 8874   3.838   2.519   8.767  0.7911 -1.7957 -0.0319
 2959SOL     OW 8875   1.714   3.582   8.604  0.6000  0.2005 -0.1645
 2959SOL    HW1 8876   1.651   3.588   8.676  0.3117  1.5587 -0.4957
 2959SOL    HW2 8877   1.799   3.595   8.646  0.6829 -1.6395  0.2846
 2960SOL     OW 8878   1.379   1.136   9.816  0.0321  0.2585 -0.0775
 2960SOL    HW1 8879   1.463   1.140   9.770 -0.9764  3.1633 -1.9646
 2960SOL    HW2 8880   1.313   1.148   9.747 -1.7955  0.5528  1.6157
 2961SOL     OW 8881   4.012   0.305   9.040  0.4288  0.0175 -0.1710
 2961SOL    HW1 8882   4.080   0.335   9.100  2.0878  0.0344 -1.9698
 2961SOL    HW2 8883   4.035   0.343   8.955 -1.2659 -0.8096 -1.0647
 2962SOL     OW 8884   0.053   4.455  10.218 -0.0861  0.3114  0.3799
 2962SOL    HW1 8885   0.132   4.426  10.172 -0.5084 -0.0308 -0.1502
 2962SOL    HW2 8886   0.063   4.550  10.225  1.2283  0.1097  1.9615
 2963SOL     OW 8887   2.020   3.871   7.876  0.0965 -0.5026 -0.3369
 2963SOL    HW1 8888   1.995   3.956   7.842  2.1382  0.3660  0.1749
 2963SOL    HW2 8889   1.942   3.816   7.864 -0.9987  1.1957 -1.3984
 2964SOL     OW 8890   3.494   3.288   8.929  0.4396 -0.4043  0.5577
 2964SOL    HW1 8891   3.584   3.322   8.926 -0.1406  1.2696  1.1716
 2964SOL    HW2 8892   3.440   3.358   8.894 -0.6044 -1.6342 -0.4066
 2965SOL     OW 8893   2.513   4.685   8.876 -0.3763 -0.8518  0.2763
 2965SOL    HW1 8894   2.479   4.720   8.959 -0.4495 -1.7175  0.6214
 2965SOL    HW2 8895   2.520   4.762   8.819 -0.6634 -0.2969  0.9661
 2966SOL     OW 8896   3.296   0.456   9.542 -0.4360 -0.9348 -0.5574
 2966SOL    HW1 8897   3.365   0.391   9.558  1.1588  0.3044 -2.0458
 2966SOL    HW2 8898   3.277   0.448   9.449  0.7921  1.6006 -1.0953
 2967SOL     OW 8899   3.654   0.116   9.174  0.4283  0.0030 -0.2178
 2967SOL    HW1 8900   3.747   0.139   9.172  0.7039 -1.0693 -0.2224
 2967SOL    HW2 8901   3.635   0.098   9.266 -0.0222  1.1322 -0.0707
 2968SOL     OW 8902   4.899   0.261   6.952  0.2424 -0.5550  0.3974
 2968SOL    HW1 8903   4.823   0.259   7.009 -0.1122  2.5745  0.1991
 2968SOL    HW2 8904   4.863   0.259   6.863  0.1768  2.2286  0.2774
 2969SOL     OW 8905   0.016   0.500   9.653 -0.1707 -0.3580  0.5555
 2969SOL    HW1 8906   0.089   0.523   9.710 -0.0950  1.2855 -0.1276
 2969SOL    HW2 8907  -0.034   0.582   9.644  0.5783 -0.1005 -2.7574
 2970SOL     OW 8908   1.576   2.258   9.895  0.1466  0.3660 -0.3446
 2970SOL    HW1 8909   1.607   2.308   9.971 -0.8351  1.9115 -0.9105
 2970SOL    HW2 8910   1.652   2.255   9.836  0.1842  1.3525 -0.3683
 2971SOL     OW 8911   4.831   2.368   9.575  1.1167  0.4878 -0.5050
 2971SOL    HW1 8912   4.769   2.344   9.507  0.6106 -0.1527  0.1635
 2971SOL    HW2 8913   4.835   2.464   9.572  0.1383  0.5319 -0.5931
 2972SOL     OW 8914   3.060   1.938   9.030  0.1579 -0.3618  0.1740
 2972SOL    HW1 8915   3.128   1.943   9.098  0.0663 -0.7270  0.2944
 2972SOL    HW2 8916   2.978   1.951   9.077  0.1375 -0.0382  0.0457
 2973SOL     OW 8917   4.732   0.678  10.011  0.3679 -0.0165 -0.6445
 2973SOL    HW1 8918   4.816   0.685   9.965  1.2469 -0.4979  0.8222
 2973SOL    HW2 8919   4.692   0.598   9.976  0.5911  0.1281 -1.2382
 2974SOL     OW 8920   4.696   1.443   9.219  0.2254  0.6135  0.3699
 2974SOL    HW1 8921   4.770   1.397   9.259  0.4914 -0.6510 -1.4715
 2974SOL    HW2 8922   4.619   1.402   9.258  0.3596  2.8160  3.2945
 2975SOL     OW 8923   3.643   3.563   8.182 -0.5411 -0.6915  0.1112
 2975SOL    HW1 8924   3.574   3.589   8.122  1.2852  0.0053 -1.8415
 2975SOL    HW2 8925   3.633   3.621   8.257  0.6248  2.7332 -2.1381
 2976SOL     OW 8926   1.983   0.793   8.200 -0.2080  0.4599 -0.1449
 2976SOL    HW1 8927   1.923   0.725   8.232 -0.6972  0.6391 -0.6693
 2976SOL    HW2 8928   2.070   0.753   8.204 -0.3992  0.0812  0.3066
 2977SOL     OW 8929   2.495   1.182   6.765  0.0975 -0.0055  0.0682
 2977SOL    HW1 8930   2.564   1.244   6.789 -0.0025  0.5136 -0.9355
 2977SOL    HW2 8931   2.542   1.104   6.736  0.2323 -0.2009  0.7937
 2978SOL     OW 8932   1.636   3.809   6.782  0.0482 -0.4958  0.0268
 2978SOL    HW1 8933   1.570   3.862   6.738  0.0950 -1.2212 -0.9564
 2978SOL    HW2 8934   1.677   3.759   6.712 -1.5386 -3.5495  1.0970
 2979SOL     OW 8935   3.460   4.674   8.003  0.2904  0.1564 -0.1843
 2979SOL    HW1 8936   3.526   4.605   8.007 -1.0824 -1.1611  0.6403
 2979SOL    HW2 8937   3.423   4.677   8.091 -1.8000 -0.2415 -0.9972
 2980SOL     OW 8938   2.224   1.541   8.347  0.1677 -0.4463  0.8828
 2980SOL    HW1 8939   2.233   1.612   8.411  1.8380 -2.1542  2.6881
 2980SOL    HW2 8940   2.145   1.564   8.298  0.5166  2.5215  1.4901
 2981SOL     OW 8941   2.339   0.200   8.249 -0.0224  0.0454 -0.5706
 2981SOL    HW1 8942   2.396   0.172   8.178 -1.8178  1.2189 -2.6120
 2981SOL    HW2 8943   2.315   0.118   8.294 -0.2341 -0.9865 -2.4501
 2982SOL     OW 8944   3.760   1.274   8.302 -0.1652  0.3437  0.1856
 2982SOL    HW1 8945   3.702   1.311   8.368  0.2030 -0.6525  1.0984
 2982SOL    HW2 8946   3.811   1.208   8.349 -0.2340 -0.7412 -1.1881
 2983SOL     OW 8947   2.439   1.707   8.585 -0.0048  0.1256  1.0830
 2983SOL    HW1 8948   2.364   1.761   8.560 -0.9442 -1.1329  1.0818
 2983SOL    HW2 8949   2.467   1.667   8.503  0.7813  0.7006  1.0601
 2984SOL     OW 8950   0.382   4.414   7.942  0.1300  0.6559 -0.0067
 2984SOL    HW1 8951   0.337   4.338   7.978  0.0989  1.7396  2.4029
 2984SOL    HW2 8952   0.419   4.382   7.859 -0.7415 -1.6614  0.4075
 2985SOL     OW 8953   3.745   2.014  10.072 -0.0277 -0.9971 -0.4269
 2985SOL    HW1 8954   3.808   1.955  10.030  0.8917 -0.4492  0.1352
 2985SOL    HW2 8955   3.673   2.021  10.010  1.1291 -0.4824 -1.7601
 2986SOL     OW 8956   1.210   0.271   9.481 -0.7659 -0.2012  0.2224
 2986SOL    HW1 8957   1.210   0.191   9.429  2.3277  0.1167 -0.4691
 2986SOL    HW2 8958   1.121   0.304   9.475 -1.1986 -1.5980 -2.6600
 2987SOL     OW 8959   3.791   3.062   8.820 -0.1554  0.4844 -0.6007
 2987SOL    HW1 8960   3.859   3.101   8.875  1.3820 -0.5343 -1.7037
 2987SOL    HW2 8961   3.710   3.105   8.848  0.9873  2.0525  0.4593
 2988SOL     OW 8962   3.678   4.798   8.753 -0.0807  0.2365 -0.4386
 2988SOL    HW1 8963   3.583   4.793   8.755 -0.1206  0.6970 -0.8363
 2988SOL    HW2 8964   3.702   4.836   8.838 -0.1043 -1.6941  0.4701
 2989SOL     OW 8965   0.345   0.449   9.053 -0.5863  0.1020 -0.7681
 2989SOL    HW1 8966   0.283   0.406   8.995 -0.4387 -0.0621 -0.8067
 2989SOL    HW2 8967   0.394   0.377   9.093 -0.0497  0.2470 -1.1485
 2990SOL     OW 8968   3.366   3.181   9.884  0.3611 -0.5659  0.2537
 2990SOL    HW1 8969   3.347   3.088   9.900  1.4784 -0.5624  1.8590
 2990SOL    HW2 8970   3.330   3.198   9.797 -0.8484 -2.2170  0.3721
 2991SOL     OW 8971   3.565   0.889   9.896 -0.2638  1.1989  0.2616
 2991SOL    HW1 8972   3.613   0.969   9.874 -0.3557  1.0078 -0.6714
 2991SOL    HW2 8973   3.593   0.825   9.831 -2.2289  1.2572 -0.7451
 2992SOL     OW 8974   4.479   2.429   8.683  0.0272 -0.1730  0.4646
 2992SOL    HW1 8975   4.430   2.383   8.614 -0.0360  0.3024  0.1888
 2992SOL    HW2 8976   4.524   2.359   8.731  0.0598 -0.5092 -0.0468
 2993SOL     OW 8977   2.460   4.332   7.732  0.5594 -0.0218  0.3623
 2993SOL    HW1 8978   2.420   4.260   7.782  1.4475  0.1717  1.3996
 2993SOL    HW2 8979   2.427   4.411   7.773 -1.6661  0.2517 -1.7802
 2994SOL     OW 8980   3.291   4.150   8.874 -0.0457  0.2065  0.0450
 2994SOL    HW1 8981   3.203   4.123   8.848  1.0188 -1.5190 -2.1077
 2994SOL    HW2 8982   3.333   4.178   8.792  2.1105 -1.2027  0.5802
 2995SOL     OW 8983   3.607   2.364  10.008  0.5156  0.1786 -0.4819
 2995SOL    HW1 8984   3.585   2.430  10.073  2.9677  2.6918 -1.9714
 2995SOL    HW2 8985   3.655   2.297  10.057  1.1315  1.3402  0.5590
 2996SOL     OW 8986   0.189   4.245   7.966 -0.5173  0.3674 -0.1330
 2996SOL    HW1 8987   0.210   4.189   7.891 -0.1195 -1.7392  1.4889
 2996SOL    HW2 8988   0.094   4.255   7.962 -0.6217 -0.6191 -0.3077
 2997SOL     OW 8989   0.404   3.592   8.945  0.0306  0.1504 -0.3186
 2997SOL    HW1 8990   0.467   3.520   8.950  0.0120  0.1426 -0.1845
 2997SOL    HW2 8991   0.443   3.654   8.884  0.5716  0.5332  0.3961
 2998SOL     OW 8992   4.367   1.750  10.146  0.4884 -0.1295  0.3976
 2998SOL    HW1 8993   4.396   1.829  10.101 -2.7888 -1.0037 -4.0564
 2998SOL    HW2 8994   4.275   1.767  10.167 -0.0953 -2.3794 -0.0396
 2999SOL     OW 8995   2.045   4.378  10.067  0.4950  0.8172  0.4926
 2999SOL    HW1 8996   2.026   4.333  10.149 -0.5703  2.2212  1.0658
 2999SOL    HW2 8997   1.996   4.329  10.001 -0.6762  1.1183  1.1024
 3000SOL     OW 8998   3.744   4.383   9.669  0.9948  0.4643 -0.3640
 3000SOL    HW1 8999   3.813   4.355   9.730  0.4795 -0.9711 -0.4049
 3000SOL    HW2 9000   3.704   4.302   9.640 -0.9464  1.2776 -0.1013
 3001SOL     OW 9001   3.017   2.018   8.776 -0.2659  0.0608  0.3110
 3001SOL    HW1 9002   3.036   2.002   8.869 -2.2615  1.1116  0.9683
 3001SOL    HW2 9003   2.963   1.944   8.749 -0.6524  0.3304  0.3345
 3002SOL     OW 9004   0.683   0.518   9.486 -0.3859 -0.0126  0.1602
 3002SOL    HW1 9005   0.766   0.548   9.449 -1.0350  1.6733  0.0186
 3002SOL    HW2 9006   0.656   0.587   9.546 -2.8993  0.7106 -1.6226
 3003SOL     OW 9007   4.439   0.301   9.905 -0.5946  0.0386 -0.4163
 3003SOL    HW1 9008   4.387   0.304   9.986  1.1995 -0.7446  0.8374
 3003SOL    HW2 9009   4.507   0.366   9.918  0.7900 -1.3359 -0.4491
 3004SOL     OW 9010   0.067   2.807   9.881 -0.1517  0.0690  0.1523
 3004SOL    HW1 9011   0.120   2.887   9.881 -0.2677  0.1454 -0.4616
 3004SOL    HW2 9012   0.124   2.741   9.921  0.3672  0.1750 -0.3956
 3005SOL     OW 9013   1.827   0.785   8.989 -0.0702  0.4293  0.0074
 3005SOL    HW1 9014   1.824   0.694   9.018 -1.1616  0.5961  0.4591
 3005SOL    HW2 9015   1.920   0.801   8.970  0.4663 -0.1990  1.8435
 3006SOL     OW 9016   3.307   0.689   9.382 -0.0912  0.2879  0.0049
 3006SOL    HW1 9017   3.324   0.625   9.451 -1.9461 -1.8568 -1.3640
 3006SOL    HW2 9018   3.394   0.719   9.355  1.0361 -2.8996 -0.3335
 3007SOL     OW 9019   1.003   2.962   9.607  0.8280 -0.3446  0.4438
 3007SOL    HW1 9020   1.004   2.866   9.614  1.3130 -0.3436  0.4187
 3007SOL    HW2 9021   0.923   2.981   9.559  0.3868 -0.6946  1.0261
 3008SOL     OW 9022   1.376   0.478   7.147  0.0972  0.7169  0.5731
 3008SOL    HW1 9023   1.364   0.407   7.209  0.2828 -0.8470 -1.0846
 3008SOL    HW2 9024   1.378   0.557   7.200 -1.1267 -0.4127  2.3905
 3009SOL     OW 9025   0.762   3.307   9.030  0.0698  0.5156  0.1335
 3009SOL    HW1 9026   0.734   3.300   8.939  2.6722  0.4305 -0.7151
 3009SOL    HW2 9027   0.777   3.401   9.043 -1.1665  0.6446  0.7950
 3010SOL     OW 9028   4.626   2.232   8.253  0.0263  0.2223  0.3726
 3010SOL    HW1 9029   4.689   2.238   8.181  0.5874  2.6144  0.9865
 3010SOL    HW2 9030   4.540   2.233   8.209  0.3408  2.4221 -0.2946
 3011SOL     OW 9031   0.844   2.724   6.950  0.2279 -0.9831  0.2358
 3011SOL    HW1 9032   0.836   2.642   6.999 -1.6079  0.0316  1.7470
 3011SOL    HW2 9033   0.796   2.708   6.869 -0.8155 -1.1627  0.8763
 3012SOL     OW 9034   1.003   4.235   9.779 -0.2437  0.9925 -0.1850
 3012SOL    HW1 9035   1.047   4.171   9.723 -0.7090  0.1508  0.3657
 3012SOL    HW2 9036   0.911   4.207   9.778 -0.0699  0.0647  2.0689
 3013SOL     OW 9037   0.693   4.210   9.458 -0.6764 -0.5231  0.3652
 3013SOL    HW1 9038   0.616   4.266   9.469 -1.6891 -1.5403 -1.2989
 3013SOL    HW2 9039   0.764   4.272   9.441 -1.8782  0.3315 -2.0507
 3014SOL     OW 9040   0.199   4.032   9.752  0.1156 -0.4170 -0.4379
 3014SOL    HW1 9041   0.161   3.951   9.788 -0.1485 -0.7382 -1.4182
 3014SOL    HW2 9042   0.143   4.102   9.786 -0.2841 -0.7377 -0.4273
 3015SOL     OW 9043   2.099   2.270   9.448 -0.4483 -0.3274 -0.1050
 3015SOL    HW1 9044   2.018   2.221   9.438 -0.3329 -0.7110  0.7575
 3015SOL    HW2 9045   2.161   2.206   9.484 -0.3938  0.5176  1.3793
 3016SOL     OW 9046   2.144   2.825   9.112 -1.1093 -0.4117  0.1664
 3016SOL    HW1 9047   2.077   2.783   9.058  0.7217 -3.3503  0.0057
 3016SOL    HW2 9048   2.218   2.836   9.053 -0.5258  0.3304  1.0204
 3017SOL     OW 9049   3.269   1.893   8.698  0.8221 -0.0153 -0.0500
 3017SOL    HW1 9050   3.209   1.950   8.747 -0.0507 -0.5825 -0.4414
 3017SOL    HW2 9051   3.212   1.843   8.639  1.4607 -1.8602  0.8274
 3018SOL     OW 9052   1.178   4.736   8.475 -0.4361  0.6311  0.4062
 3018SOL    HW1 9053   1.145   4.652   8.508  1.3860 -0.0531  0.6162
 3018SOL    HW2 9054   1.230   4.771   8.548  0.2562  1.0860 -0.2926
 3019SOL     OW 9055   1.514   3.579   8.298  0.6179 -0.0896 -0.0736
 3019SOL    HW1 9056   1.424   3.594   8.327  0.6655 -0.1610  0.1083
 3019SOL    HW2 9057   1.536   3.491   8.329 -0.9134 -2.1937 -4.1707
 3020SOL     OW 9058   3.875   2.073   7.476  0.3439 -0.3940  0.0122
 3020SOL    HW1 9059   3.854   2.152   7.527  0.3857  0.2954 -1.0173
 3020SOL    HW2 9060   3.807   2.069   7.408  0.7851 -0.8223 -0.4102
 3021SOL     OW 9061   0.143   1.710   8.890 -0.3059 -0.5469 -0.0994
 3021SOL    HW1 9062   0.123   1.643   8.956  1.7413 -0.3861  0.7554
 3021SOL    HW2 9063   0.183   1.660   8.818 -1.2507 -0.5468 -0.6379
 3022SOL     OW 9064   0.645   1.069   8.752 -0.9462  0.5560  0.0060
 3022SOL    HW1 9065   0.697   1.143   8.784  1.4937 -0.8288 -0.4617
 3022SOL    HW2 9066   0.556   1.103   8.744  0.1638  3.5878 -0.7362
 3023SOL     OW 9067   0.131   4.782   9.765 -0.6408  0.3277  0.2731
 3023SOL    HW1 9068   0.041   4.750   9.761 -1.1079  1.5575  0.5529
 3023SOL    HW2 9069   0.126   4.874   9.739  0.6129  0.2926 -0.1891
 3024SOL     OW 9070   0.511   0.505   9.978  0.0868 -0.1959  0.3266
 3024SOL    HW1 9071   0.483   0.566  10.046  0.0132  0.0649  0.0608
 3024SOL    HW2 9072   0.485   0.419  10.012  0.3691 -0.1008  0.7874
 3025SOL     OW 9073   1.304   3.944   8.467  0.6084 -0.0374 -0.4586
 3025SOL    HW1 9074   1.287   4.024   8.418  0.4440 -1.3680 -2.6860
 3025SOL    HW2 9075   1.291   3.873   8.404  0.7324 -1.8472  1.4326
 3026SOL     OW 9076   0.931   0.217   7.190 -0.0547  0.0914  0.0823
 3026SOL    HW1 9077   0.897   0.154   7.255  0.2990  0.3511  0.5274
 3026SOL    HW2 9078   0.977   0.163   7.127 -0.2657 -0.1537  0.1333
 3027SOL     OW 9079   2.811   1.659   8.741  1.0053 -0.6233  0.1725
 3027SOL    HW1 9080   2.812   1.633   8.833  0.2533  0.3579  0.4774
 3027SOL    HW2 9081   2.741   1.724   8.735  1.3532 -0.3261 -0.9989
 3028SOL     OW 9082   1.257   3.179   7.904 -0.3262 -0.2997 -0.2641
 3028SOL    HW1 9083   1.277   3.272   7.893 -2.5062  0.0859 -1.4300
 3028SOL    HW2 9084   1.298   3.156   7.988  0.9837  1.4698 -0.3624
 3029SOL     OW 9085   3.901   4.197   7.472 -0.3515  0.1279 -0.0984
 3029SOL    HW1 9086   3.808   4.198   7.495 -0.7186  0.4035 -1.5177
 3029SOL    HW2 9087   3.941   4.141   7.539 -1.4045  0.6021  0.9628
 3030SOL     OW 9088   0.682   3.957   9.441  0.0614  0.1163  0.2559
 3030SOL    HW1 9089   0.608   3.954   9.380  0.1782  0.8425  0.0794
 3030SOL    HW2 9090   0.704   4.050   9.448  0.1180  0.0365  1.3176
 3031SOL     OW 9091   2.074   4.265   9.416  0.6637 -0.5181 -0.3128
 3031SOL    HW1 9092   1.984   4.299   9.415  0.7511 -0.2616 -1.6389
 3031SOL    HW2 9093   2.075   4.202   9.487 -0.7858 -1.0446 -0.7218
 3032SOL     OW 9094   0.797   0.212   9.569  0.2406  0.3974 -0.6470
 3032SOL    HW1 9095   0.829   0.129   9.605 -2.7377 -1.1256 -1.1941
 3032SOL    HW2 9096   0.808   0.275   9.641  0.7460 -0.9254  0.4796
 3033SOL     OW 9097   2.794   3.639   5.985  0.3426 -0.7198  0.3345
 3033SOL    HW1 9098   2.711   3.681   5.966  0.5299 -0.9771 -1.1180
 3033SOL    HW2 9099   2.848   3.710   6.022 -0.0000 -0.1625 -0.2100
 3034SOL     OW 9100   0.613   4.557   9.195 -0.5627 -0.0874 -0.1055
 3034SOL    HW1 9101   0.561   4.482   9.168 -2.9557  1.4435 -0.0288
 3034SOL    HW2 9102   0.559   4.633   9.173  0.8969  1.5494  1.5889
 3035SOL     OW 9103   2.853   2.064   9.204  0.3550 -0.0351  0.3283
 3035SOL    HW1 9104   2.843   2.041   9.296 -2.5431  1.3868  0.4712
 3035SOL    HW2 9105   2.764   2.077   9.172  1.3342  1.0482 -2.2743
 3036SOL     OW 9106   2.663   1.845   8.234 -0.2899 -0.1440  1.1548
 3036SOL    HW1 9107   2.623   1.762   8.261 -0.1899 -0.2872  0.8749
 3036SOL    HW2 9108   2.743   1.818   8.189 -1.3551 -0.0201 -0.9146
 3037SOL     OW 9109   0.548   0.134   9.584  0.4242  0.0300  0.6929
 3037SOL    HW1 9110   0.634   0.149   9.546  0.9376 -1.4726  1.1773
 3037SOL    HW2 9111   0.544   0.039   9.598 -1.2359  0.0827  0.8540
 3038SOL     OW 9112   4.674   2.260   9.336  0.4489  0.0890  0.2442
 3038SOL    HW1 9113   4.611   2.199   9.374 -0.5437  1.5222  0.9784
 3038SOL    HW2 9114   4.664   2.250   9.242 -1.8470  1.1746  0.3013
 3039SOL     OW 9115   4.567   2.774   9.590 -0.2628 -0.2141  0.0996
 3039SOL    HW1 9116   4.539   2.708   9.653  2.6506 -1.0164  0.7146
 3039SOL    HW2 9117   4.569   2.728   9.506 -0.6011 -0.1997  0.0831
 3040SOL     OW 9118   3.499   1.139  10.361 -0.2228  0.2334  0.1779
 3040SOL    HW1 9119   3.458   1.223  10.340  2.2931  1.0269 -2.2481
 3040SOL    HW2 9120   3.474   1.122  10.452 -1.4496  3.1965  0.5271
 3041SOL     OW 9121   4.370   3.384   9.336  0.7027  0.5851 -0.2272
 3041SOL    HW1 9122   4.420   3.305   9.315 -1.0834 -0.7855  0.4191
 3041SOL    HW2 9123   4.363   3.430   9.252  1.0931 -0.3658 -0.8030
 3042SOL     OW 9124   2.055   2.123  10.642 -0.0238 -0.1029 -0.0512
 3042SOL    HW1 9125   2.057   2.216  10.621 -0.5063  0.0190  0.4166
 3042SOL    HW2 9126   1.991   2.116  10.714 -0.3868 -0.8559 -0.4321
 3043SOL     OW 9127   4.635   1.342   6.145 -0.2566  0.4535  0.3656
 3043SOL    HW1 9128   4.610   1.356   6.236 -2.6039 -1.6328  0.1517
 3043SOL    HW2 9129   4.677   1.255   6.144  3.1189  1.9232 -0.0769
 3044SOL     OW 9130   1.828   2.727   9.571  0.2010 -0.2498 -0.3617
 3044SOL    HW1 9131   1.790   2.743   9.485 -2.1875 -2.1073  0.2486
 3044SOL    HW2 9132   1.881   2.647   9.559  0.9341  0.2253 -0.3664
 3045SOL     OW 9133   1.521   2.833   9.587 -0.2834  0.0467  0.2363
 3045SOL    HW1 9134   1.492   2.779   9.661  0.0217 -0.5594 -0.0705
 3045SOL    HW2 9135   1.617   2.823   9.588 -0.3220 -0.4926 -0.6213
 3046SOL     OW 9136   4.246   2.077   8.422  0.5150 -0.2476  1.3128
 3046SOL    HW1 9137   4.265   2.070   8.515 -0.9311 -0.8992  1.5727
 3046SOL    HW2 9138   4.279   1.995   8.384 -2.4714 -1.8629  1.9267
 3047SOL     OW 9139   3.321   4.024   6.870 -0.1306  0.2435  0.3796
 3047SOL    HW1 9140   3.405   3.978   6.876 -0.0714  0.2809 -0.1318
 3047SOL    HW2 9141   3.256   3.954   6.866 -0.2493  0.1994  2.1714
 3048SOL     OW 9142   0.983   1.437   4.732  0.1012 -0.3982 -0.2110
 3048SOL    HW1 9143   1.038   1.515   4.728 -0.0426 -0.2070  1.2956
 3048SOL    HW2 9144   1.043   1.367   4.759  0.2319 -0.8403 -1.5606
 3049SOL     OW 9145   1.071   4.566   5.553  0.3752 -0.5181  0.4146
 3049SOL    HW1 9146   0.988   4.532   5.585  0.2172  0.1628  0.7494
 3049SOL    HW2 9147   1.137   4.522   5.606  0.1564 -0.0475  1.0857
 3050SOL     OW 9148   3.014   2.480   5.574 -0.1634  0.3078 -0.2587
 3050SOL    HW1 9149   2.924   2.450   5.568 -0.3912  1.0584 -0.7822
 3050SOL    HW2 9150   3.052   2.428   5.645 -0.6628 -0.8523 -0.8073
 3051SOL     OW 9151   0.040   4.497   5.595  0.0439  0.5687 -0.0368
 3051SOL    HW1 9152   0.077   4.567   5.649  0.0316 -0.8459  1.9254
 3051SOL    HW2 9153   0.087   4.419   5.622 -1.7445 -0.6377 -0.2160
 3052SOL     OW 9154   2.371   0.954   7.841 -0.6849  0.5747  0.6193
 3052SOL    HW1 9155   2.334   1.012   7.908 -0.9804  2.0343 -0.7592
 3052SOL    HW2 9156   2.452   0.921   7.881 -3.0216 -2.3518  3.5381
 3053SOL     OW 9157   1.273   3.308   7.583 -0.8790  0.5151  0.2586
 3053SOL    HW1 9158   1.178   3.311   7.572 -0.8340 -0.9466 -0.7507
 3053SOL    HW2 9159   1.292   3.218   7.607  0.4121  0.2958 -1.4108
 3054SOL     OW 9160   3.964   3.171   5.223  0.1336  0.1666 -0.1523
 3054SOL    HW1 9161   4.027   3.178   5.294 -0.4141  0.7795  0.2929
 3054SOL    HW2 9162   3.885   3.214   5.257 -0.1008  0.5761 -1.1688
 3055SOL     OW 9163   0.790   3.511   9.721 -0.2628  0.2055  0.0427
 3055SOL    HW1 9164   0.815   3.446   9.655 -0.4525 -0.1372  0.3066
 3055SOL    HW2 9165   0.776   3.591   9.671 -0.6016 -0.0988 -0.3596
 3056SOL     OW 9166   4.426   3.272   8.120  0.1186  0.4073  0.7242
 3056SOL    HW1 9167   4.456   3.236   8.203 -1.2156  3.3252  2.6297
 3056SOL    HW2 9168   4.362   3.339   8.144 -0.9504  0.8460 -2.7162
 3057SOL     OW 9169   3.254   0.152   4.910  0.5707 -0.0605  0.5789
 3057SOL    HW1 9170   3.187   0.117   4.968  2.4694  1.4171  3.9148
 3057SOL    HW2 9171   3.313   0.078   4.893  0.7812 -0.1704  1.7602
 3058SOL     OW 9172   0.492   1.045   4.556  0.3739  0.9145 -0.3409
 3058SOL    HW1 9173   0.483   1.108   4.628 -2.4964  0.6852 -0.3980
 3058SOL    HW2 9174   0.488   1.099   4.477  1.6505  0.9732 -0.3906
 3059SOL     OW 9175   4.825   4.405   5.452  0.5225  0.4667  0.4893
 3059SOL    HW1 9176   4.812   4.322   5.497 -1.6292  0.8546  0.6557
 3059SOL    HW2 9177   4.891   4.451   5.504 -1.4508  0.6617  2.9957
 3060SOL     OW 9178   0.227   3.498   6.159  0.5058  0.0267 -0.2431
 3060SOL    HW1 9179   0.217   3.417   6.110  0.3109 -0.5565  0.7446
 3060SOL    HW2 9180   0.291   3.479   6.226  2.4976  1.4773 -1.6044
 3061SOL     OW 9181   0.741   1.228   6.553 -0.3118 -0.4595  0.4683
 3061SOL    HW1 9182   0.803   1.256   6.486  0.5950 -0.6158  1.2106
 3061SOL    HW2 9183   0.742   1.299   6.618  2.0246 -2.0685  2.3801
 3062SOL     OW 9184   4.154   3.886   6.583 -1.0144 -0.5380 -0.5224
 3062SOL    HW1 9185   4.098   3.870   6.659 -0.0755 -0.1292  0.2840
 3062SOL    HW2 9186   4.093   3.901   6.510 -1.9762  0.8554  0.5192
 3063SOL     OW 9187   0.050   0.540   6.056 -0.1096  0.4985 -0.4569
 3063SOL    HW1 9188  -0.041   0.554   6.031 -1.2082 -0.0834  2.8240
 3063SOL    HW2 9189   0.083   0.628   6.076  0.6055  0.8953 -2.9484
 3064SOL     OW 9190   4.379   0.644   5.600  0.1162 -0.2907 -0.5518
 3064SOL    HW1 9191   4.433   0.722   5.587  1.4323 -1.2780 -1.2890
 3064SOL    HW2 9192   4.387   0.595   5.518 -2.5010 -0.1594 -0.9596
 3065SOL     OW 9193   0.849   1.952   5.930 -0.6831 -0.0643  0.1144
 3065SOL    HW1 9194   0.900   1.959   5.850  0.3228  0.0974  0.7597
 3065SOL    HW2 9195   0.845   2.042   5.964 -0.9119 -0.1678  0.3716
 3066SOL     OW 9196   3.709   4.865   4.993  0.6778 -0.3677  0.1837
 3066SOL    HW1 9197   3.711   4.914   5.075 -2.1352 -0.6950  0.5420
 3066SOL    HW2 9198   3.685   4.776   5.019  1.0428 -0.8044 -0.9024
 3067SOL     OW 9199   2.471   0.540   6.199  0.2201  0.4355  0.0154
 3067SOL    HW1 9200   2.453   0.621   6.248 -0.0839 -0.2416  1.0525
 3067SOL    HW2 9201   2.444   0.560   6.109  0.7536  1.6985  0.1110
 3068SOL     OW 9202   0.444   1.831   5.601 -0.7041  0.0407 -0.7457
 3068SOL    HW1 9203   0.533   1.838   5.565 -0.1558 -1.5466  0.2331
 3068SOL    HW2 9204   0.423   1.738   5.596 -1.3930  0.0479  1.1353
 3069SOL     OW 9205   2.857   4.627   5.129  0.2440  0.1325  0.3937
 3069SOL    HW1 9206   2.903   4.549   5.097 -0.2290  0.0862 -0.1851
 3069SOL    HW2 9207   2.904   4.700   5.090 -0.0949  0.0907 -0.0877
 3070SOL     OW 9208   2.822   0.397   8.164  0.0068 -0.1137  0.0747
 3070SOL    HW1 9209   2.908   0.364   8.193 -0.9402 -1.9679  0.9302
 3070SOL    HW2 9210   2.781   0.429   8.244  0.0059  1.1003 -0.3938
 3071SOL     OW 9211   2.815   3.673   6.843 -0.0963 -0.2591 -0.5533
 3071SOL    HW1 9212   2.739   3.626   6.807  1.3458 -1.1450 -2.6733
 3071SOL    HW2 9213   2.839   3.622   6.920 -1.8412  0.2592  0.3905
 3072SOL     OW 9214   4.529   0.145   8.229  0.0005  0.8082  1.0902
 3072SOL    HW1 9215   4.449   0.154   8.281 -1.1794 -1.3095 -0.2353
 3072SOL    HW2 9216   4.538   0.229   8.185 -0.2375  1.8475  2.8921
 3073SOL     OW 9217   4.426   2.752   8.488  0.2377 -0.0341  0.1951
 3073SOL    HW1 9218   4.371   2.830   8.493  0.4569  0.1087  0.3490
 3073SOL    HW2 9219   4.369   2.686   8.448 -0.2082 -0.0261  0.7884
 3074SOL     OW 9220   1.755   2.784   5.539 -0.2695 -0.9762 -0.0919
 3074SOL    HW1 9221   1.733   2.831   5.458  0.8272  0.4170  0.3891
 3074SOL    HW2 9222   1.849   2.799   5.551 -0.7295  0.3917  2.3942
 3075SOL     OW 9223   0.931   3.825   6.445  0.2805  0.1898  0.1888
 3075SOL    HW1 9224   0.861   3.834   6.510  0.5067  1.9669  0.2263
 3075SOL    HW2 9225   1.000   3.777   6.491 -0.7077 -1.2140  0.2808
 3076SOL     OW 9226   3.203   4.667   6.666 -0.3401 -0.1360 -0.0527
 3076SOL    HW1 9227   3.230   4.723   6.738 -1.6621  1.2843 -0.6059
 3076SOL    HW2 9228   3.275   4.672   6.603  0.6953 -1.1648  0.9972
 3077SOL     OW 9229   4.316   2.331   5.733  0.2192  0.1684  0.6462
 3077SOL    HW1 9230   4.365   2.342   5.652 -2.0880  0.7550 -0.7791
 3077SOL    HW2 9231   4.337   2.409   5.785  1.9367 -0.3532  0.7684
 3078SOL     OW 9232   2.744   2.060   4.876  0.8727  0.3016 -0.2137
 3078SOL    HW1 9233   2.711   2.144   4.843  1.3915  2.0914  3.2999
 3078SOL    HW2 9234   2.834   2.055   4.844  0.4051  0.3543 -1.5857
 3079SOL     OW 9235   4.736   4.553   6.588 -0.3283 -0.4097 -0.3034
 3079SOL    HW1 9236   4.808   4.610   6.616 -0.4642  0.4467 -1.6017
 3079SOL    HW2 9237   4.671   4.614   6.553 -1.5344 -1.2031  0.4985
 3080SOL     OW 9238   4.588   2.248   5.737  0.3332 -0.4551  0.3240
 3080SOL    HW1 9239   4.499   2.252   5.773  0.1822 -2.8280  0.3508
 3080SOL    HW2 9240   4.643   2.224   5.812  0.4307 -2.6071 -0.3829
 3081SOL     OW 9241   2.048   2.223   8.631  0.4145 -0.2049 -0.2132
 3081SOL    HW1 9242   1.961   2.192   8.655 -0.3770  0.2166 -2.2644
 3081SOL    HW2 9243   2.107   2.153   8.658 -0.6800 -0.9319  0.3565
 3082SOL     OW 9244   4.870   2.592   7.724  0.6522  0.8844  0.3807
 3082SOL    HW1 9245   4.861   2.562   7.633  0.0486 -0.1969  0.7780
 3082SOL    HW2 9246   4.944   2.543   7.758 -1.6477 -1.9932  1.6845
 3083SOL     OW 9247   2.839   0.251   6.086 -0.0395 -0.4940  0.3048
 3083SOL    HW1 9248   2.762   0.193   6.085 -1.7740  1.6162 -2.2858
 3083SOL    HW2 9249   2.854   0.271   5.994 -1.0014  4.8473  1.0135
 3084SOL     OW 9250   4.648   2.583   8.483 -0.1131  0.1858  0.1094
 3084SOL    HW1 9251   4.615   2.493   8.473 -1.1673  0.5429  0.2544
 3084SOL    HW2 9252   4.569   2.636   8.493  0.3252  1.4449 -2.2756
 3085SOL     OW 9253   3.057   4.005   5.317  0.0290  0.2532  0.3363
 3085SOL    HW1 9254   3.081   3.942   5.248  1.2083 -0.4731  1.3667
 3085SOL    HW2 9255   2.995   3.957   5.372 -0.1930  0.5105  0.3138
 3086SOL     OW 9256   3.311   4.547   8.671  0.7583 -0.4544 -0.2921
 3086SOL    HW1 9257   3.374   4.520   8.738 -0.3773 -0.0666  0.9810
 3086SOL    HW2 9258   3.290   4.466   8.625  1.4633 -0.7528 -0.1074
 3087SOL     OW 9259   1.494   3.407   6.622  0.0118 -0.5027 -0.5862
 3087SOL    HW1 9260   1.455   3.336   6.572  1.4520 -2.1490  0.5364
 3087SOL    HW2 9261   1.479   3.485   6.567 -6.2022 -0.4870  0.3601
 3088SOL     OW 9262   4.554   2.228   6.305 -0.0384  0.2194  0.2590
 3088SOL    HW1 9263   4.591   2.140   6.302 -1.5532 -0.4018 -1.5661
 3088SOL    HW2 9264   4.593   2.267   6.384  0.9476 -1.9207  0.9054
 3089SOL     OW 9265   1.390   1.987   4.674  0.0381  0.0989 -0.6012
 3089SOL    HW1 9266   1.431   1.959   4.756  1.6475  0.1255 -1.3573
 3089SOL    HW2 9267   1.397   1.911   4.617  0.1155  0.5021 -1.1346
 3090SOL     OW 9268   2.041   3.957   6.421 -0.1373 -0.4319  0.6661
 3090SOL    HW1 9269   2.093   4.035   6.400  0.6974 -0.2776  3.0632
 3090SOL    HW2 9270   2.083   3.887   6.371 -1.1000  0.6252 -1.7897
 3091SOL     OW 9271   4.212   3.880   6.240  0.4204  0.0125 -0.0733
 3091SOL    HW1 9272   4.231   3.964   6.281  1.6382 -0.4324  0.3458
 3091SOL    HW2 9273   4.121   3.862   6.261  0.7205  0.2955  1.5758
 3092SOL     OW 9274   4.892   4.703   7.005 -0.4193  0.2822  0.3040
 3092SOL    HW1 9275   4.851   4.648   6.938  0.2812  2.4418 -2.0818
 3092SOL    HW2 9276   4.836   4.781   7.008  0.7689  1.1511  0.5925
 3093SOL     OW 9277   3.463   2.163   5.166 -0.1470 -0.1211  0.2564
 3093SOL    HW1 9278   3.425   2.183   5.252 -1.8458 -0.9294 -0.2623
 3093SOL    HW2 9279   3.427   2.230   5.107 -1.0285 -1.0592 -0.2973
 3094SOL     OW 9280   1.705   0.783   6.114 -0.6014  0.3031 -0.4194
 3094SOL    HW1 9281   1.766   0.804   6.043 -1.0464 -2.0067 -1.5993
 3094SOL    HW2 9282   1.657   0.864   6.129  0.4492  1.2383 -1.7950
 3095SOL     OW 9283   1.731   2.374   6.246  1.1893  0.0469  0.4930
 3095SOL    HW1 9284   1.661   2.433   6.216 -0.1499 -1.5263  0.4016
 3095SOL    HW2 9285   1.795   2.375   6.176  1.8243  2.3277  1.0218
 3096SOL     OW 9286   2.757   0.104   7.377 -0.2580  0.2522  0.4088
 3096SOL    HW1 9287   2.845   0.094   7.413 -0.9365 -2.4857  1.5973
 3096SOL    HW2 9288   2.754   0.041   7.305 -0.7074  1.6888 -0.8863
 3097SOL     OW 9289   0.742   2.697   6.490 -0.3047 -0.2321 -0.1400
 3097SOL    HW1 9290   0.694   2.623   6.452  0.6594 -1.0768  0.2365
 3097SOL    HW2 9291   0.778   2.744   6.415 -2.5200  1.0317 -0.5036
 3098SOL     OW 9292   4.578   0.208   5.683 -0.4538 -0.9125 -0.0508
 3098SOL    HW1 9293   4.616   0.121   5.669  1.2736 -0.2547  0.2816
 3098SOL    HW2 9294   4.588   0.252   5.599  0.7800 -0.3038  0.3832
 3099SOL     OW 9295   1.733   1.467   7.732 -0.5556  0.8643 -1.0641
 3099SOL    HW1 9296   1.724   1.549   7.780 -0.3208  1.8559 -2.6169
 3099SOL    HW2 9297   1.718   1.492   7.640  1.2043 -0.5147 -1.7784
 3100SOL     OW 9298   2.804   3.149   4.716  0.4405  0.0382  0.2881
 3100SOL    HW1 9299   2.780   3.174   4.626  1.6210  0.1669 -0.0031
 3100SOL    HW2 9300   2.722   3.118   4.754 -0.1172  0.1264 -0.7857
 3101SOL     OW 9301   4.453   0.515   5.338  0.0117 -0.7169  0.7278
 3101SOL    HW1 9302   4.510   0.451   5.380  0.4781 -1.2839 -0.6940
 3101SOL    HW2 9303   4.512   0.564   5.280 -0.7892 -0.7667 -0.1555
 3102SOL     OW 9304   3.528   1.734   6.202 -0.1134 -0.3335  0.0315
 3102SOL    HW1 9305   3.534   1.799   6.132  0.1619 -1.0174 -0.5882
 3102SOL    HW2 9306   3.493   1.783   6.277  0.0451  0.5141 -0.4358
 3103SOL     OW 9307   4.784   1.491   9.805 -0.0302 -0.1569  0.3343
 3103SOL    HW1 9308   4.779   1.540   9.724 -1.5033 -2.1657 -0.8876
 3103SOL    HW2 9309   4.703   1.514   9.852 -0.9981 -1.6569 -0.4847
 3104SOL     OW 9310   0.465   1.549   4.866 -0.1712  0.2032 -0.5353
 3104SOL    HW1 9311   0.412   1.602   4.806  1.4209  1.0208 -1.2619
 3104SOL    HW2 9312   0.418   1.465   4.870  0.7178 -0.6893 -4.6840
 3105SOL     OW 9313   3.113   4.684   5.716  0.0418  0.7904 -0.3212
 3105SOL    HW1 9314   3.161   4.669   5.634  0.8496 -2.2014  0.5896
 3105SOL    HW2 9315   3.022   4.668   5.694  0.4449 -1.9813 -0.3353
 3106SOL     OW 9316   4.776   2.334   4.938 -0.1066 -0.3377 -0.1968
 3106SOL    HW1 9317   4.693   2.303   4.973 -0.5570  0.2211 -0.7424
 3106SOL    HW2 9318   4.777   2.428   4.958 -0.1966 -0.0865 -1.2995
 3107SOL     OW 9319   4.227   0.624   6.020 -0.8765 -0.3512 -0.8022
 3107SOL    HW1 9320   4.144   0.654   6.058 -1.0367 -0.7476 -0.8275
 3107SOL    HW2 9321   4.219   0.529   6.018 -0.1698 -0.4347 -0.2400
 3108SOL     OW 9322   3.396   4.888   5.910  0.3518 -0.0801  0.1008
 3108SOL    HW1 9323   3.466   4.909   5.971  0.4548 -0.7233  0.2170
 3108SOL    HW2 9324   3.427   4.920   5.825  0.3463  0.5302  0.3249
 3109SOL     OW 9325   0.646   0.142   5.071  0.2254  0.3144 -0.2759
 3109SOL    HW1 9326   0.666   0.063   5.020  0.5083  1.4791 -2.0444
 3109SOL    HW2 9327   0.616   0.108   5.155  1.7504 -1.6619 -0.4309
 3110SOL     OW 9328   1.975   4.522   8.526 -0.4942  0.1617  0.1903
 3110SOL    HW1 9329   2.015   4.575   8.457  0.7429 -1.4549 -0.4018
 3110SOL    HW2 9330   1.881   4.538   8.517 -0.2942  0.7224 -1.2323
 3111SOL     OW 9331   3.079   3.572   4.992 -0.3199 -0.2678 -0.0139
 3111SOL    HW1 9332   3.118   3.607   4.912  1.8120 -0.5404  0.8359
 3111SOL    HW2 9333   3.042   3.488   4.967 -0.8862  0.2569 -0.9778
 3112SOL     OW 9334   1.045   4.843   6.255 -0.9789  0.1610  0.2536
 3112SOL    HW1 9335   1.058   4.748   6.258 -1.7614 -0.0575 -1.5826
 3112SOL    HW2 9336   1.039   4.869   6.346 -0.6901 -1.5474  0.8041
 3113SOL     OW 9337   1.829   0.788   7.014 -0.1820  0.0489  0.2229
 3113SOL    HW1 9338   1.834   0.740   6.931  2.1148 -0.0952  0.3867
 3113SOL    HW2 9339   1.792   0.873   6.991  0.3719 -0.0136 -0.9566
 3114SOL     OW 9340   0.662   0.532   7.560  0.0203 -0.3786 -0.3888
 3114SOL    HW1 9341   0.662   0.488   7.645 -1.4476  0.3319  0.0155
 3114SOL    HW2 9342   0.647   0.461   7.497  1.6568 -0.9900 -0.1415
 3115SOL     OW 9343   0.153   3.834   5.374  0.7018  0.1578  0.6049
 3115SOL    HW1 9344   0.085   3.837   5.307  0.4420  1.1200  0.8889
 3115SOL    HW2 9345   0.157   3.924   5.407 -0.3915 -0.5960  3.0644
 3116SOL     OW 9346   2.924   3.206   8.190 -0.4582 -0.0950 -0.0808
 3116SOL    HW1 9347   2.982   3.282   8.200  0.8360 -1.1286  0.4956
 3116SOL    HW2 9348   2.838   3.238   8.218 -0.1385  1.3957 -0.7065
 3117SOL     OW 9349   1.001   0.986   6.356  0.3314 -0.1860  0.3547
 3117SOL    HW1 9350   1.032   0.984   6.447 -2.0788  2.3990  1.3745
 3117SOL    HW2 9351   1.079   1.011   6.305  1.4358 -0.3904  1.8637
 3118SOL     OW 9352   2.445   4.743   4.873 -0.5064  0.2233  0.3933
 3118SOL    HW1 9353   2.415   4.780   4.956  3.3631 -1.6727  2.9163
 3118SOL    HW2 9354   2.466   4.652   4.893  2.7634  0.2811 -1.9708
 3119SOL     OW 9355   4.223   4.787   5.921 -0.1768 -0.5481  0.2074
 3119SOL    HW1 9356   4.285   4.811   5.991  0.9192 -1.4625 -0.4133
 3119SOL    HW2 9357   4.152   4.743   5.967  0.0102 -0.1964  0.8596
 3120SOL     OW 9358   2.076   0.390   4.959  0.2103  0.0856 -0.2274
 3120SOL    HW1 9359   2.130   0.312   4.948  0.4954  0.0624  1.0883
 3120SOL    HW2 9360   2.072   0.402   5.054  0.2135  1.6963 -0.4094
 3121SOL     OW 9361   1.948   2.989   7.397 -0.1939 -0.0228  0.0849
 3121SOL    HW1 9362   1.937   2.919   7.332 -4.0434  0.3749  0.0964
 3121SOL    HW2 9363   1.865   3.035   7.397  1.6212  3.6401  1.2783
 3122SOL     OW 9364   1.697   3.486   4.617 -0.2780  0.1361  0.3041
 3122SOL    HW1 9365   1.603   3.467   4.621 -0.4739  0.7179 -0.9672
 3122SOL    HW2 9366   1.728   3.471   4.706 -1.2862 -1.5094  0.4313
 3123SOL     OW 9367   3.671  -0.009   5.990 -0.4043  0.1766 -0.1887
 3123SOL    HW1 9368   3.736  -0.038   5.926 -1.0942  0.6552 -1.1347
 3123SOL    HW2 9369   3.662   0.085   5.973 -0.6405  0.2982  0.5834
 3124SOL     OW 9370   2.624   0.139   5.028  0.1044 -0.4624 -0.1334
 3124SOL    HW1 9371   2.716   0.154   5.006  0.8205 -1.3324  2.0105
 3124SOL    HW2 9372   2.601   0.212   5.085 -0.6818 -0.0600 -0.9334
 3125SOL     OW 9373   4.309   2.076   6.498  0.9088  0.3021  0.0156
 3125SOL    HW1 9374   4.221   2.041   6.479  1.4982 -1.4294  0.2583
 3125SOL    HW2 9375   4.311   2.161   6.454 -0.9102  0.4069  0.0643
 3126SOL     OW 9376   1.427   3.169   6.490  0.1546 -0.1497  0.2123
 3126SOL    HW1 9377   1.337   3.178   6.523 -0.8889  0.1682 -2.4780
 3126SOL    HW2 9378   1.481   3.169   6.569 -2.0145  1.9555  1.8519
 3127SOL     OW 9379   0.311   0.800   5.880 -0.0228  0.3049 -0.0787
 3127SOL    HW1 9380   0.328   0.775   5.971 -2.0347  0.7880  0.4773
 3127SOL    HW2 9381   0.216   0.792   5.870 -0.0619  2.0136 -1.5995
 3128SOL     OW 9382   4.799   2.347   6.440 -0.3595 -0.3761 -0.5897
 3128SOL    HW1 9383   4.856   2.323   6.512 -1.1295  0.5624  0.3600
 3128SOL    HW2 9384   4.832   2.297   6.365  1.2508 -0.3649  0.0886
 3129SOL     OW 9385   4.375   4.868   5.647 -0.2785  0.2694 -0.4717
 3129SOL    HW1 9386   4.364   4.961   5.627 -0.8968  0.4528  0.6358
 3129SOL    HW2 9387   4.372   4.863   5.742  1.0792 -0.7372 -0.4460
 3130SOL     OW 9388   2.053   0.310   6.130  0.2548 -0.2864  0.4781
 3130SOL    HW1 9389   2.022   0.337   6.044  0.0516 -0.7706  0.3952
 3130SOL    HW2 9390   2.148   0.318   6.126  0.3182 -1.2013 -0.1038
 3131SOL     OW 9391   4.362   4.536   5.771  0.4242  0.4844 -0.2161
 3131SOL    HW1 9392   4.383   4.546   5.678  1.9247  1.2345  0.1791
 3131SOL    HW2 9393   4.357   4.625   5.805  1.9641  0.2088  0.8360
 3132SOL     OW 9394   3.893   2.228   9.796 -0.4444  0.5645  0.0087
 3132SOL    HW1 9395   3.820   2.218   9.735 -1.4536 -0.0400  1.2673
 3132SOL    HW2 9396   3.860   2.287   9.863  0.3199  0.5011  0.4490
 3133SOL     OW 9397   3.678   4.395   9.049  0.4840  0.3123 -0.1590
 3133SOL    HW1 9398   3.760   4.397   9.000  0.7470  0.0619  0.2577
 3133SOL    HW2 9399   3.690   4.324   9.112  0.1569  0.6356  0.2731
 3134SOL     OW 9400   3.958   3.574   6.927 -0.7911 -0.4211  0.6796
 3134SOL    HW1 9401   3.957   3.622   7.010  0.0042  1.6757 -0.4380
 3134SOL    HW2 9402   4.047   3.538   6.921 -0.6080  0.0517  0.4416
 3135SOL     OW 9403   3.659   1.704   7.007 -0.3360  0.0624 -0.2413
 3135SOL    HW1 9404   3.596   1.777   7.011  0.9229  1.2286 -0.9878
 3135SOL    HW2 9405   3.679   1.695   6.914  2.2266  1.1983  0.1095
 3136SOL     OW 9406   4.186   4.497   7.404 -0.3132  0.0252  0.1583
 3136SOL    HW1 9407   4.106   4.445   7.394 -1.2348  0.7599  2.8215
 3136SOL    HW2 9408   4.170   4.551   7.482  2.2018  1.3138 -0.1117
 3137SOL     OW 9409   0.124   4.378   8.197  0.0768  1.3046  0.0110
 3137SOL    HW1 9410   0.035   4.397   8.167 -0.0852 -0.2498 -0.5811
 3137SOL    HW2 9411   0.156   4.313   8.135 -0.4124 -2.4737  3.3303
 3138SOL     OW 9412   0.651   4.017   4.902 -0.4412 -0.9420 -0.9163
 3138SOL    HW1 9413   0.559   3.998   4.916 -0.5360  0.4002  0.5789
 3138SOL    HW2 9414   0.654   4.111   4.884  0.6562 -0.9114 -0.6840
 3139SOL     OW 9415   3.355   2.065   6.214 -0.6384 -0.0658  0.3435
 3139SOL    HW1 9416   3.336   2.015   6.294  0.8573  0.4782  1.0795
 3139SOL    HW2 9417   3.337   2.156   6.238 -0.8732  0.0258 -0.1718
 3140SOL     OW 9418   2.985   4.201   6.632  0.1044  0.6459  0.3429
 3140SOL    HW1 9419   2.965   4.108   6.640  1.5631  0.3539  0.8302
 3140SOL    HW2 9420   2.918   4.245   6.686 -0.1130 -0.1670  0.7476
 3141SOL     OW 9421   1.378   0.094   6.910 -0.2570 -0.5660  0.2890
 3141SOL    HW1 9422   1.421   0.028   6.964 -1.3369  0.7896  3.0062
 3141SOL    HW2 9423   1.446   0.126   6.851  0.9460 -2.2487  0.6964
 3142SOL     OW 9424   1.799   0.315   5.534  0.2143 -0.3233 -0.1573
 3142SOL    HW1 9425   1.787   0.348   5.445 -0.3287  0.1697  0.0915
 3142SOL    HW2 9426   1.826   0.224   5.523  0.9223 -0.0359 -0.8431
 3143SOL     OW 9427   0.916   2.407   5.446  0.3757 -0.1187  0.5625
 3143SOL    HW1 9428   0.880   2.495   5.434  0.3806  0.0135  1.4778
 3143SOL    HW2 9429   0.839   2.352   5.464  0.5238 -0.0135  1.5436
 3144SOL     OW 9430   3.975   0.769   6.088  0.2968 -0.2987  0.1016
 3144SOL    HW1 9431   3.978   0.861   6.116 -2.1763 -0.2667  0.5325
 3144SOL    HW2 9432   3.960   0.720   6.169  0.8953 -1.0180 -0.2177
 3145SOL     OW 9433   2.664   0.031   7.805 -0.3304  0.1281  0.1625
 3145SOL    HW1 9434   2.688  -0.058   7.777  0.1329  0.3629 -0.2000
 3145SOL    HW2 9435   2.600   0.060   7.740 -2.2119 -0.7633  1.5198
 3146SOL     OW 9436   4.218   1.757   8.192 -0.9441  0.5835  0.6047
 3146SOL    HW1 9437   4.203   1.807   8.111  0.6089 -0.1742 -0.1933
 3146SOL    HW2 9438   4.301   1.711   8.177 -0.0045  1.3182  3.1066
 3147SOL     OW 9439   1.319   3.518   7.739 -0.7588  0.9660  0.0228
 3147SOL    HW1 9440   1.349   3.589   7.683  0.0052  1.1177  0.6053
 3147SOL    HW2 9441   1.312   3.443   7.680  1.9468  0.6044  0.0160
 3148SOL     OW 9442   3.479   2.828   4.589  0.1369 -0.2068 -0.2986
 3148SOL    HW1 9443   3.457   2.762   4.523 -0.6097  0.7375 -1.0150
 3148SOL    HW2 9444   3.395   2.853   4.628  0.0905  1.9856 -1.6714
 3149SOL     OW 9445   1.102   2.857   6.401  0.4266 -0.7119  0.0493
 3149SOL    HW1 9446   1.195   2.877   6.408 -0.1054  1.4601  2.0954
 3149SOL    HW2 9447   1.083   2.803   6.478 -0.3414  0.5643  0.7919
 3150SOL     OW 9448   2.058   1.227   5.544 -0.1603 -0.3121 -0.7085
 3150SOL    HW1 9449   1.971   1.197   5.570 -0.5629 -0.1007 -1.7501
 3150SOL    HW2 9450   2.111   1.218   5.623 -1.5334  1.2613  0.4609
 3151SOL     OW 9451   3.849   4.621   6.634 -0.0109  0.2552  0.1075
 3151SOL    HW1 9452   3.813   4.680   6.568 -1.7585 -0.4497  0.3869
 3151SOL    HW2 9453   3.777   4.562   6.655  1.7948 -2.3536 -0.5419
 3152SOL     OW 9454   3.336   3.514   7.774  0.0170 -0.3491 -0.4271
 3152SOL    HW1 9455   3.381   3.432   7.794 -0.9281 -0.9131 -0.5389
 3152SOL    HW2 9456   3.319   3.510   7.680 -2.3628 -1.2937 -0.0368
 3153SOL     OW 9457   1.011   1.106   7.628  1.0220  0.0877  0.4656
 3153SOL    HW1 9458   0.934   1.163   7.629 -0.3048 -1.6112  0.0542
 3153SOL    HW2 9459   1.070   1.147   7.564 -0.4169  0.3545 -0.7384
 3154SOL     OW 9460   2.413   3.304   5.726  0.3859 -0.4587  0.2864
 3154SOL    HW1 9461   2.355   3.378   5.711  0.9548 -0.0885 -0.0929
 3154SOL    HW2 9462   2.366   3.249   5.790 -0.0551  0.1948  0.5272
 3155SOL     OW 9463   1.507   2.279   8.935 -1.0781 -0.0604  0.0420
 3155SOL    HW1 9464   1.568   2.205   8.929 -0.8007  0.2707 -3.9547
 3155SOL    HW2 9465   1.420   2.239   8.923 -0.9925  0.0823 -1.2644
 3156SOL     OW 9466   0.054   4.890   9.043 -0.3073  0.7155 -0.1121
 3156SOL    HW1 9467   0.056   4.860   8.953 -0.5809  2.0036 -0.5698
 3156SOL    HW2 9468   0.009   4.820   9.091  0.9314 -0.5486 -0.7289
 3157SOL     OW 9469   3.707   0.222   5.865  0.0791  0.0144  0.0788
 3157SOL    HW1 9470   3.785   0.212   5.809 -0.9081  1.0423 -1.5437
 3157SOL    HW2 9471   3.647   0.276   5.814 -2.1778 -1.6424  0.8039
 3158SOL     OW 9472   0.772   0.067   6.747 -0.1716 -0.1396 -0.2379
 3158SOL    HW1 9473   0.693   0.120   6.752 -0.0867 -0.1102  1.9688
 3158SOL    HW2 9474   0.825   0.096   6.822  2.2629  0.3171 -2.0055
 3159SOL     OW 9475   3.486   0.566   8.102 -0.7655  0.3226 -0.0695
 3159SOL    HW1 9476   3.520   0.523   8.180 -1.2245  0.0663 -0.0099
 3159SOL    HW2 9477   3.464   0.655   8.131  0.7199  0.8165 -0.3233
 3160SOL     OW 9478   0.395   3.954   4.885  0.3513 -0.4581 -0.0269
 3160SOL    HW1 9479   0.364   3.949   4.795 -2.1722 -0.1412  0.7448
 3160SOL    HW2 9480   0.356   3.878   4.928  0.5070  0.0648  1.0647
 3161SOL     OW 9481   3.298   0.734   5.796  0.1546 -0.3064  0.2406
 3161SOL    HW1 9482   3.225   0.774   5.750  0.3635 -0.0645  0.1127
 3161SOL    HW2 9483   3.313   0.791   5.871  1.9397  1.2222 -1.1802
 3162SOL     OW 9484   3.496   2.778   7.595  0.0430 -0.0937  0.2910
 3162SOL    HW1 9485   3.431   2.710   7.576 -0.0287 -0.1250  0.6339
 3162SOL    HW2 9486   3.571   2.757   7.539 -0.5406  0.4069 -0.7192
 3163SOL     OW 9487   1.123   2.871   4.854  0.0304  0.4418  0.3007
 3163SOL    HW1 9488   1.170   2.944   4.814 -0.5843  0.9482  0.4840
 3163SOL    HW2 9489   1.113   2.897   4.946 -0.3407  0.2055  0.3279
 3164SOL     OW 9490   3.358   3.288   7.376  0.2139  0.4098  0.1497
 3164SOL    HW1 9491   3.294   3.245   7.432  1.0946 -2.1393 -0.6684
 3164SOL    HW2 9492   3.440   3.283   7.425  0.9579 -1.6889 -1.1840
 3165SOL     OW 9493   2.583   2.117   8.285 -0.3329 -0.1216 -0.1407
 3165SOL    HW1 9494   2.640   2.187   8.317  0.8726 -0.4574 -1.4497
 3165SOL    HW2 9495   2.636   2.038   8.292  0.0396 -0.2125 -2.8846
 3166SOL     OW 9496   2.870   4.256   8.312 -0.3625  0.3009  0.7848
 3166SOL    HW1 9497   2.887   4.331   8.254 -1.3565  2.2306  2.8700
 3166SOL    HW2 9498   2.887   4.289   8.400 -0.5355 -2.0562  1.7755
 3167SOL     OW 9499   1.744   4.614   5.741 -0.2997  0.4324 -0.0826
 3167SOL    HW1 9500   1.718   4.575   5.658  0.8860  1.5574 -1.0356
 3167SOL    HW2 9501   1.662   4.623   5.790 -0.9506 -0.7365 -0.9000
 3168SOL     OW 9502   3.570   3.979   7.082 -0.7124 -0.4255  0.0043
 3168SOL    HW1 9503   3.508   3.943   7.146 -2.1996  0.4320 -0.9042
 3168SOL    HW2 9504   3.642   4.011   7.135 -2.0804  0.6218  1.3286
 3169SOL     OW 9505   1.146   4.950   7.584 -0.0606  0.0175 -0.4697
 3169SOL    HW1 9506   1.143   4.940   7.489  0.5020 -1.2623 -0.3697
 3169SOL    HW2 9507   1.063   4.913   7.615 -0.8257  1.5931 -0.5208
 3170SOL     OW 9508   3.260   0.572   6.730 -0.4789 -0.0884  0.2219
 3170SOL    HW1 9509   3.295   0.638   6.671  1.2730  1.2032  2.5064
 3170SOL    HW2 9510   3.281   0.488   6.689 -2.3250  0.6856 -2.5183
 3171SOL     OW 9511   4.113   1.653   7.842 -0.8422  1.4234 -0.2926
 3171SOL    HW1 9512   4.065   1.661   7.759  1.7120  1.1473 -1.9295
 3171SOL    HW2 9513   4.111   1.560   7.862  2.0881  0.7093 -2.5210
 3172SOL     OW 9514   3.458   4.926   5.214  0.8454  0.3379  0.9490
 3172SOL    HW1 9515   3.534   4.984   5.220 -0.7460  2.9901 -1.7121
 3172SOL    HW2 9516   3.396   4.960   5.278  0.8294 -0.0133  1.1220
 3173SOL     OW 9517   2.732   0.432   6.285 -0.2616 -0.2861 -0.2401
 3173SOL    HW1 9518   2.664   0.477   6.234 -1.4980  0.8548  2.2094
 3173SOL    HW2 9519   2.760   0.360   6.229 -0.1951  1.8728 -3.2231
 3174SOL     OW 9520   4.048   1.618   5.115  0.0837 -0.1279 -0.3506
 3174SOL    HW1 9521   3.972   1.572   5.150  0.7930 -0.7740  0.3957
 3174SOL    HW2 9522   4.115   1.550   5.105  0.4719  0.3656 -1.3051
 3175SOL     OW 9523   0.308   2.261   6.252  0.0789  0.1105  0.0357
 3175SOL    HW1 9524   0.233   2.276   6.194 -0.8401 -1.6619  0.7116
 3175SOL    HW2 9525   0.334   2.170   6.234  1.5547  0.4376  0.4121
 3176SOL     OW 9526   4.175   1.093   6.883 -0.3489 -0.0251 -0.1716
 3176SOL    HW1 9527   4.101   1.061   6.831  0.5129  2.0564 -2.9466
 3176SOL    HW2 9528   4.170   1.189   6.874  2.7604  0.1766 -0.6627
 3177SOL     OW 9529   1.367   3.303   7.154  0.1502  0.1574 -0.4004
 3177SOL    HW1 9530   1.348   3.391   7.185 -1.3175  0.2255 -1.3748
 3177SOL    HW2 9531   1.458   3.288   7.176 -0.1485  1.1204  1.6672
 3178SOL     OW 9532   2.590   1.988   5.509  0.5234 -0.3131  0.2552
 3178SOL    HW1 9533   2.584   2.033   5.425 -1.1832  1.4484  1.2322
 3178SOL    HW2 9534   2.675   2.014   5.545  0.1622  1.0595  0.1808
 3179SOL     OW 9535   0.056   2.001   6.732  0.0311  0.2242 -0.1152
 3179SOL    HW1 9536   0.072   1.955   6.814 -3.2574 -3.5351 -1.2734
 3179SOL    HW2 9537  -0.039   2.003   6.723  0.2041 -0.8758 -4.3940
 3180SOL     OW 9538   3.277   4.046   5.961  0.3326 -0.0681 -0.2004
 3180SOL    HW1 9539   3.244   3.972   5.910  0.0134 -0.6555  0.8215
 3180SOL    HW2 9540   3.366   4.021   5.984 -0.3940 -1.0658  1.7799
 3181SOL     OW 9541   2.498   2.114   5.238  0.3777 -0.0102 -0.1640
 3181SOL    HW1 9542   2.428   2.053   5.213 -0.5907 -0.5859  3.3068
 3181SOL    HW2 9543   2.453   2.198   5.251  0.4090 -0.1771  1.2515
 3182SOL     OW 9544   0.589   0.607   6.329  0.0354 -0.1176 -0.5157
 3182SOL    HW1 9545   0.609   0.545   6.400 -0.4549 -0.9454 -1.0827
 3182SOL    HW2 9546   0.675   0.638   6.301  0.1882  1.9732  1.9078
 3183SOL     OW 9547   2.347   3.063   6.192 -0.6757  0.3029 -0.3755
 3183SOL    HW1 9548   2.335   2.997   6.260  0.0016 -0.0567 -0.6034
 3183SOL    HW2 9549   2.272   3.122   6.203 -1.1391 -0.3422  0.0061
 3184SOL     OW 9550   0.173   4.723   5.684 -0.4930 -0.1676 -0.1483
 3184SOL    HW1 9551   0.252   4.728   5.630 -0.0676 -0.8499  0.3959
 3184SOL    HW2 9552   0.196   4.769   5.764 -0.6524 -0.3527  0.0044
 3185SOL     OW 9553   0.852   3.150   5.540 -0.3151 -0.0899  0.2564
 3185SOL    HW1 9554   0.778   3.200   5.506  0.3698 -0.5057 -2.0775
 3185SOL    HW2 9555   0.895   3.208   5.602 -3.4717 -0.4366  3.0494
 3186SOL     OW 9556   1.412   1.712   7.041 -0.0042  0.5432  0.0268
 3186SOL    HW1 9557   1.470   1.765   7.097  0.1127 -1.7484  2.2611
 3186SOL    HW2 9558   1.459   1.706   6.958  0.5577  2.8221  0.1066
 3187SOL     OW 9559   1.656   2.103   8.579  0.2743 -0.8584 -0.1131
 3187SOL    HW1 9560   1.639   2.017   8.616 -0.8722 -0.2631  0.8131
 3187SOL    HW2 9561   1.691   2.085   8.492 -0.0515 -2.2471  0.0160
 3188SOL     OW 9562   2.826   2.421   6.702  0.0217 -0.1635 -0.1422
 3188SOL    HW1 9563   2.763   2.349   6.704  1.6581 -1.7551 -1.9077
 3188SOL    HW2 9564   2.803   2.471   6.624 -0.0563  0.2452  0.1383
 3189SOL     OW 9565   3.985   2.189   5.991  0.1434  0.6582 -0.1366
 3189SOL    HW1 9566   3.932   2.268   6.005 -2.8133 -1.1394 -0.3036
 3189SOL    HW2 9567   4.017   2.197   5.901  0.5700  2.0049  0.1104
 3190SOL     OW 9568   1.807   0.112   8.790  0.2857 -0.1145  0.2129
 3190SOL    HW1 9569   1.717   0.095   8.816  0.6699 -1.1830  0.9000
 3190SOL    HW2 9570   1.829   0.043   8.728  1.4442 -1.4774  2.0430
 3191SOL     OW 9571   2.804   4.956   7.138 -0.3127 -0.6330 -0.1308
 3191SOL    HW1 9572   2.863   4.884   7.115  0.9664  0.2670  0.2691
 3191SOL    HW2 9573   2.718   4.914   7.145 -0.2035 -1.5687 -3.0760
 3192SOL     OW 9574   0.373   0.900   4.767 -0.2022 -0.4731  0.2041
 3192SOL    HW1 9575   0.453   0.914   4.818  0.3972 -3.0009  0.0389
 3192SOL    HW2 9576   0.397   0.924   4.678  0.5503 -1.6599  0.0653
 3193SOL     OW 9577   0.371   0.535   9.485  0.0165  0.1768 -0.1365
 3193SOL    HW1 9578   0.461   0.511   9.463  0.0645  0.5143 -0.3194
 3193SOL    HW2 9579   0.342   0.467   9.546  1.0263  1.0285  1.3597
 3194SOL     OW 9580   3.144   1.178   6.393  0.1013 -0.0302 -0.0439
 3194SOL    HW1 9581   3.151   1.122   6.470  1.5943 -0.1144 -0.2010
 3194SOL    HW2 9582   3.069   1.144   6.344 -0.3211 -0.5280  0.9271
 3195SOL     OW 9583   0.772   4.726   9.723 -0.1769 -0.1145  0.1578
 3195SOL    HW1 9584   0.842   4.665   9.701  0.1993  0.5079 -0.4410
 3195SOL    HW2 9585   0.693   4.686   9.688  0.1676  0.0494 -0.8404
 3196SOL     OW 9586   2.858   1.427   7.560 -0.1917  0.3779  0.6178
 3196SOL    HW1 9587   2.893   1.500   7.611  1.5794  0.1787 -0.2206
 3196SOL    HW2 9588   2.909   1.351   7.589 -0.3947 -0.0654 -0.1527
 3197SOL     OW 9589   1.259   2.330   9.171  0.0795  0.1122 -0.1292
 3197SOL    HW1 9590   1.239   2.318   9.078  0.0136  1.1531 -0.2657
 3197SOL    HW2 9591   1.353   2.350   9.173  0.3058 -0.9292  0.1362
 3198SOL     OW 9592   3.074   1.425   9.518 -0.1923 -0.5250  0.4389
 3198SOL    HW1 9593   3.066   1.340   9.560 -0.2376 -1.0535 -0.6078
 3198SOL    HW2 9594   3.047   1.410   9.427  0.2824  0.4928  0.1089
 3199SOL     OW 9595   0.724   1.221   7.124  0.4451  0.6856  0.0186
 3199SOL    HW1 9596   0.722   1.182   7.037  0.0323  0.2373  0.2211
 3199SOL    HW2 9597   0.774   1.302   7.114  3.5369 -1.0706  0.0906
 3200SOL     OW 9598   2.563   4.154   9.493  0.6007  0.4135  0.3661
 3200SOL    HW1 9599   2.627   4.107   9.546  0.0806 -0.2741  0.4002
 3200SOL    HW2 9600   2.491   4.092   9.481 -0.3364  1.3685  0.8429
 3201SOL     OW 9601   3.877   3.153   7.445 -0.3649 -0.3459  0.2354
 3201SOL    HW1 9602   3.949   3.090   7.443 -1.8125 -2.0664 -1.1288
 3201SOL    HW2 9603   3.830   3.133   7.526 -1.8004 -2.2437 -1.0199
 3202SOL     OW 9604   0.225   3.122   6.423 -0.1304  0.2904  0.2760
 3202SOL    HW1 9605   0.152   3.179   6.399  0.5928  1.8309  1.5467
 3202SOL    HW2 9606   0.273   3.108   6.342 -0.2827  1.5907 -0.0600
 3203SOL     OW 9607   0.054   4.404   6.675 -0.7428 -0.5352 -0.5356
 3203SOL    HW1 9608   0.076   4.460   6.749  0.3081 -3.1590  1.2925
 3203SOL    HW2 9609  -0.042   4.400   6.676 -0.8101  0.6866 -0.3324
 3204SOL     OW 9610   4.172   0.164   8.516  0.3502  0.2697  0.1278
 3204SOL    HW1 9611   4.167   0.240   8.459  0.5001  0.5225  0.4507
 3204SOL    HW2 9612   4.126   0.095   8.468  2.0135 -0.0314 -1.0961
 3205SOL     OW 9613   3.564   2.737   5.629 -0.1817 -0.1699  0.0993
 3205SOL    HW1 9614   3.578   2.789   5.708 -0.5295 -2.1916  1.5885
 3205SOL    HW2 9615   3.500   2.787   5.579 -0.6917  0.7260  1.5612
 3206SOL     OW 9616   1.501   2.938   7.875 -0.7070  0.1800 -0.6276
 3206SOL    HW1 9617   1.467   2.901   7.956 -2.5825  0.6396 -1.1627
 3206SOL    HW2 9618   1.534   3.024   7.900 -0.0173 -0.2273 -0.1149
 3207SOL     OW 9619   4.065   2.681   8.960  0.3390 -0.3059  0.0981
 3207SOL    HW1 9620   4.073   2.586   8.972  0.9078 -0.1095  1.4329
 3207SOL    HW2 9621   3.991   2.706   9.015 -0.3297 -0.0649 -0.8796
 3208SOL     OW 9622   4.365   0.228   7.070 -0.5008 -0.5416  0.5668
 3208SOL    HW1 9623   4.378   0.317   7.036  1.4283 -0.8138  0.4911
 3208SOL    HW2 9624   4.345   0.240   7.162  0.8248 -0.0460  0.8092
 3209SOL     OW 9625   3.765   4.059   7.267 -0.2443  0.6223  0.0058
 3209SOL    HW1 9626   3.700   4.036   7.333 -0.2319 -0.5194 -0.3599
 3209SOL    HW2 9627   3.820   4.126   7.309  0.5567 -0.9799  1.6314
 3210SOL     OW 9628   4.039   3.756   9.897 -0.2304  0.7799  0.4751
 3210SOL    HW1 9629   4.089   3.715   9.968  1.0071 -0.6542 -1.1418
 3210SOL    HW2 9630   4.085   3.838   9.880  2.1706 -0.8163 -1.4378
 3211SOL     OW 9631   4.102   1.785   8.768 -0.8400  0.5304  0.3113
 3211SOL    HW1 9632   4.110   1.853   8.701 -2.8452  1.8197  1.2540
 3211SOL    HW2 9633   4.104   1.833   8.851 -2.2919 -0.5238  1.0131
 3212SOL     OW 9634   1.090   3.399   8.862  0.1241 -0.3686  0.8695
 3212SOL    HW1 9635   1.134   3.480   8.887  1.2086  0.4677 -3.1579
 3212SOL    HW2 9636   1.159   3.332   8.867 -0.5707 -1.0191  3.3668
 3213SOL     OW 9637   4.309   3.627   9.614 -0.3890 -0.1313 -0.5076
 3213SOL    HW1 9638   4.232   3.571   9.614 -0.3547 -0.4232 -4.1912
 3213SOL    HW2 9639   4.383   3.566   9.602  0.0672  0.3642 -0.2577
 3214SOL     OW 9640   1.436   0.978   8.395  0.0718 -0.1512 -0.3861
 3214SOL    HW1 9641   1.494   1.003   8.467 -0.2996  0.3184 -0.2464
 3214SOL    HW2 9642   1.413   0.887   8.413  1.0882 -0.4770 -0.6625
 3215SOL     OW 9643   2.752   2.235   8.754  0.2487 -0.5877 -0.1196
 3215SOL    HW1 9644   2.667   2.279   8.759  0.5462 -0.0123  0.0238
 3215SOL    HW2 9645   2.759   2.187   8.837  0.0238 -0.7147 -0.1734
 3216SOL     OW 9646   1.979   0.948   7.337 -0.1220  0.1295 -0.1144
 3216SOL    HW1 9647   1.946   0.864   7.306 -1.0094 -0.7913  2.9350
 3216SOL    HW2 9648   1.908   1.010   7.319 -1.1269 -0.6286  1.0586
 3217SOL     OW 9649   3.698   3.281   5.145 -0.1603 -0.1502 -0.4976
 3217SOL    HW1 9650   3.688   3.236   5.229 -0.3254 -1.2107 -1.0700
 3217SOL    HW2 9651   3.704   3.210   5.080  2.0607  0.5887 -1.1805
 3218SOL     OW 9652   2.079   1.701   5.425 -0.6722  0.5147  0.2129
 3218SOL    HW1 9653   2.155   1.756   5.405  0.3433 -0.4560  1.2856
 3218SOL    HW2 9654   2.106   1.612   5.402 -0.5874 -0.1919  2.8009
 3219SOL     OW 9655   3.019   3.447   9.037  0.3229  0.2457 -0.6493
 3219SOL    HW1 9656   3.108   3.412   9.047  0.0110 -0.1218  1.2619
 3219SOL    HW2 9657   2.987   3.456   9.127 -0.7923  2.4753 -1.2093
 3220SOL     OW 9658   0.052   0.210   5.162  0.4340 -0.0482  0.2164
 3220SOL    HW1 9659   0.043   0.150   5.237  1.6558 -0.8029 -0.1995
 3220SOL    HW2 9660  -0.038   0.234   5.139 -0.1973 -2.4359 -0.1388
 3221SOL     OW 9661   1.959   0.643   5.786 -0.4211  0.6746  0.5445
 3221SOL    HW1 9662   1.948   0.737   5.797  1.5047  0.8448  1.3595
 3221SOL    HW2 9663   2.037   0.633   5.732 -1.0332 -0.4764 -0.1877
 3222SOL     OW 9664   4.433   1.153   9.724 -0.1895  0.3311 -0.7731
 3222SOL    HW1 9665   4.426   1.227   9.664  2.0046  0.7444 -0.6151
 3222SOL    HW2 9666   4.514   1.108   9.697 -0.3489 -0.7680  0.4630
 3223SOL     OW 9667   3.694   2.395   6.293 -0.1254  0.2251 -0.3622
 3223SOL    HW1 9668   3.730   2.329   6.234 -0.9174 -0.6882  0.1553
 3223SOL    HW2 9669   3.599   2.385   6.286 -0.2435 -0.2131  1.3829
 3224SOL     OW 9670   3.692   4.988   9.650 -0.3619  0.7517 -0.0126
 3224SOL    HW1 9671   3.754   5.053   9.684 -1.1821  0.9746  1.0918
 3224SOL    HW2 9672   3.718   4.906   9.692  0.4314  0.4030 -1.1142
 3225SOL     OW 9673   1.013   0.837   8.677  0.6784 -0.2739  0.1866
 3225SOL    HW1 9674   1.088   0.841   8.617 -0.0456  3.6497 -0.7964
 3225SOL    HW2 9675   0.940   0.812   8.622  0.6751 -0.5234  0.3064
 3226SOL     OW 9676   3.099   0.326  10.155  0.0239 -0.6633 -0.4981
 3226SOL    HW1 9677   3.136   0.246  10.117 -0.5679 -0.4467 -1.5620
 3226SOL    HW2 9678   3.111   0.392  10.087  2.1681  0.6602  1.0159
 3227SOL     OW 9679   2.621   1.017   5.948  0.3633 -0.2249 -0.6436
 3227SOL    HW1 9680   2.538   1.043   5.989 -0.6571 -1.2688 -1.9774
 3227SOL    HW2 9681   2.644   0.935   5.991 -0.2014 -0.8151 -1.4409
 3228SOL     OW 9682   3.584   2.894   7.228 -0.0602 -0.6283  0.1117
 3228SOL    HW1 9683   3.553   2.959   7.292 -1.7367 -0.7394 -0.5380
 3228SOL    HW2 9684   3.516   2.826   7.229 -0.9801  0.0985 -2.8686
 3229SOL     OW 9685   0.195   3.223   9.476  0.2859  0.0042  0.4594
 3229SOL    HW1 9686   0.265   3.176   9.431  1.7852 -0.0787  2.6727
 3229SOL    HW2 9687   0.123   3.159   9.482  1.5345 -1.3909  1.6201
 3230SOL     OW 9688   2.199   1.272   9.456 -0.4186 -0.3589  0.6084
 3230SOL    HW1 9689   2.121   1.232   9.417 -0.1475 -0.9132  0.6197
 3230SOL    HW2 9690   2.165   1.345   9.508 -1.0706 -1.3538  1.6422
 3231SOL     OW 9691   3.037   4.579   9.516 -1.0091 -0.6202 -0.1706
 3231SOL    HW1 9692   2.992   4.524   9.580  1.5367 -0.5428  1.8320
 3231SOL    HW2 9693   3.034   4.667   9.553  0.7350 -0.6187  0.0389
 3232SOL     OW 9694   3.835  -0.003  10.488 -0.3435 -0.0846  0.1563
 3232SOL    HW1 9695   3.744  -0.026  10.508 -1.7186  1.1175 -3.8907
 3232SOL    HW2 9696   3.835   0.092  10.483  0.6095 -0.1399 -1.7979
 3233SOL     OW 9697   1.762   0.368   8.673  0.0920 -0.3521 -0.1066
 3233SOL    HW1 9698   1.792   0.295   8.727 -0.1937 -1.3757 -1.2910
 3233SOL    HW2 9699   1.667   0.354   8.666  0.4618 -2.1759 -3.5067
 3234SOL     OW 9700   4.084   0.450   7.613  0.2803  0.4393 -0.0003
 3234SOL    HW1 9701   4.089   0.397   7.533  0.8339  1.6226 -0.7781
 3234SOL    HW2 9702   4.021   0.404   7.668 -0.8305  0.0933 -1.5020
 3235SOL     OW 9703   4.403   1.778   7.828  0.1605 -0.2893 -0.0319
 3235SOL    HW1 9704   4.372   1.689   7.810 -1.4731  0.0983  0.6584
 3235SOL    HW2 9705   4.325   1.824   7.859  1.3780  0.8637  1.4735
 3236SOL     OW 9706   0.934   0.891   7.794 -0.1918 -0.2317  0.7823
 3236SOL    HW1 9707   0.959   0.953   7.725 -0.4988 -0.9754 -0.0183
 3236SOL    HW2 9708   0.923   0.808   7.748 -0.7043 -0.6765  1.6907
 3237SOL     OW 9709   4.398   3.258   5.797  0.4951  0.5571  0.0840
 3237SOL    HW1 9710   4.343   3.324   5.754  1.2343  0.3821 -1.1831
 3237SOL    HW2 9711   4.451   3.222   5.726  1.4251 -0.0926  1.0880
 3238SOL     OW 9712   2.826   3.969   6.805  1.0532 -0.2728  0.5501
 3238SOL    HW1 9713   2.838   3.908   6.732  0.9327 -2.1085  1.9694
 3238SOL    HW2 9714   2.800   3.913   6.878 -0.3666  1.6605  1.6316
 3239SOL     OW 9715   1.885   0.785   6.737  0.4163 -0.9193 -0.3975
 3239SOL    HW1 9716   1.804   0.789   6.685  0.8810 -1.2373 -1.1588
 3239SOL    HW2 9717   1.901   0.876   6.762 -0.1996 -0.8586 -0.1956
 3240SOL     OW 9718   4.097   3.048   8.122 -0.2555 -0.2371  0.3578
 3240SOL    HW1 9719   4.047   3.022   8.199 -0.3076  2.0257  1.1506
 3240SOL    HW2 9720   4.181   3.003   8.131  0.0192  0.5809  2.1518
 3241SOL     OW 9721   4.797   3.882   8.598  0.1349  0.3051  0.3656
 3241SOL    HW1 9722   4.703   3.877   8.579  0.1492 -0.0032  0.3806
 3241SOL    HW2 9723   4.832   3.798   8.569  0.2805  0.1139  1.0909
 3242SOL     OW 9724   1.501   4.772   5.379 -0.0721  0.0768 -0.3648
 3242SOL    HW1 9725   1.586   4.785   5.420 -0.7864 -0.7178  1.4662
 3242SOL    HW2 9726   1.472   4.686   5.408 -0.6644 -0.5452 -2.5750
 3243SOL     OW 9727   4.415   1.955   5.462 -0.9721 -0.5951  0.3834
 3243SOL    HW1 9728   4.505   1.942   5.432 -0.2684  1.5277  1.3482
 3243SOL    HW2 9729   4.382   1.867   5.478  0.7881 -1.4556 -0.3668
 3244SOL     OW 9730   4.201   0.442   5.722 -0.4492 -0.1320 -0.5037
 3244SOL    HW1 9731   4.278   0.499   5.729 -1.4007  1.0508  1.0934
 3244SOL    HW2 9732   4.187   0.409   5.811 -3.2811  1.8063 -0.0999
 3245SOL     OW 9733   0.277   4.117   9.065 -0.4231  0.3006 -0.4060
 3245SOL    HW1 9734   0.192   4.132   9.106  0.3425 -0.0428  1.4055
 3245SOL    HW2 9735   0.298   4.026   9.085  0.6233  0.5424 -0.3326
 3246SOL     OW 9736   4.712   4.310   6.771  0.1547 -0.2426 -0.1209
 3246SOL    HW1 9737   4.698   4.370   6.698  0.3926  0.3088  0.2787
 3246SOL    HW2 9738   4.649   4.240   6.757  0.9108 -0.7047 -1.4430
 3247SOL     OW 9739   2.639   1.799   4.886 -0.8118  0.6539 -0.5029
 3247SOL    HW1 9740   2.717   1.744   4.888 -1.3093 -0.0915 -1.0731
 3247SOL    HW2 9741   2.669   1.880   4.843 -0.3044  0.4621 -0.5245
 3248SOL     OW 9742   3.240   3.601   6.032 -0.2397  0.0860 -0.4268
 3248SOL    HW1 9743   3.211   3.676   6.084 -1.3894 -0.4488 -0.2550
 3248SOL    HW2 9744   3.187   3.528   6.064 -0.5579 -0.3892 -1.9509
 3249SOL     OW 9745   3.181   1.957   6.836 -0.1672  1.0576  0.2449
 3249SOL    HW1 9746   3.202   1.998   6.920  0.8886  0.5776  0.2316
 3249SOL    HW2 9747   3.106   2.006   6.803  0.3987  2.2815  0.7236
 3250SOL     OW 9748   4.480   2.060   7.806  0.0990  0.4388  0.0061
 3250SOL    HW1 9749   4.458   1.967   7.820 -0.7901  0.7407  0.7919
 3250SOL    HW2 9750   4.435   2.083   7.725  1.0659 -0.0334 -0.6833
 3251SOL     OW 9751   4.265   3.185   7.659 -0.0933 -0.5229  0.6060
 3251SOL    HW1 9752   4.325   3.209   7.588 -1.3049  2.4713  0.4644
 3251SOL    HW2 9753   4.323   3.153   7.729  1.2081 -2.4678 -1.2070
 3252SOL     OW 9754   0.424   3.941   7.361 -0.1547 -0.0460  0.4726
 3252SOL    HW1 9755   0.410   3.884   7.436 -0.8040 -0.8696 -0.2561
 3252SOL    HW2 9756   0.347   3.997   7.358  0.1950  0.4607  0.8218
 3253SOL     OW 9757   3.930   0.242   6.511 -0.1073 -0.3102 -0.0348
 3253SOL    HW1 9758   3.988   0.301   6.560 -0.0034 -1.9433  1.9464
 3253SOL    HW2 9759   3.983   0.212   6.437  0.7494  0.0775  0.4071
 3254SOL     OW 9760   1.718   1.564   8.058 -0.3779  0.1674  0.4158
 3254SOL    HW1 9761   1.727   1.637   8.119  0.9928  1.8759 -1.6944
 3254SOL    HW2 9762   1.631   1.528   8.076 -1.4096  2.7874  1.0866
 3255SOL     OW 9763   2.036   0.336   5.254 -0.0886  0.3792 -0.1495
 3255SOL    HW1 9764   2.055   0.430   5.257  0.4058  0.2769  0.0925
 3255SOL    HW2 9765   1.947   0.328   5.286  0.4169  0.6244  1.3892
 3256SOL     OW 9766   4.505   2.403   7.343  0.2962 -0.0814  0.1948
 3256SOL    HW1 9767   4.435   2.458   7.378  0.3556  0.5432 -0.6334
 3256SOL    HW2 9768   4.508   2.425   7.249 -1.2867 -3.1728 -0.7165
 3257SOL     OW 9769   3.699   1.750   7.834  0.1336  0.3796  0.8446
 3257SOL    HW1 9770   3.648   1.770   7.913  0.8102 -1.2190  1.7373
 3257SOL    HW2 9771   3.696   1.654   7.827 -1.3512  0.5387 -2.0786
 3258SOL     OW 9772   4.128   3.060   9.677  0.2175  0.5599 -0.1569
 3258SOL    HW1 9773   4.093   3.114   9.749  1.1590 -0.6674  1.2835
 3258SOL    HW2 9774   4.069   2.985   9.673  0.3372  0.4823 -0.4939
 3259SOL     OW 9775   3.642   4.138   7.506 -0.3191 -0.1135 -0.3086
 3259SOL    HW1 9776   3.591   4.107   7.581 -0.3964 -0.2146 -0.4023
 3259SOL    HW2 9777   3.582   4.193   7.458  0.1688  1.1657  0.4918
 3260SOL     OW 9778   0.297   2.000   6.597  0.6914 -0.2913 -0.5983
 3260SOL    HW1 9779   0.205   2.027   6.602  0.8828  0.7035 -1.8217
 3260SOL    HW2 9780   0.293   1.906   6.580 -0.0678 -0.4515  0.3535
 3261SOL     OW 9781   0.876   3.257   8.141 -0.0205  0.6002 -0.2266
 3261SOL    HW1 9782   0.782   3.275   8.148  0.0373  0.3112  2.1085
 3261SOL    HW2 9783   0.888   3.172   8.183  1.3853  1.0440  0.3569
 3262SOL     OW 9784   4.532   0.347   8.695 -0.5522  0.2655 -0.1595
 3262SOL    HW1 9785   4.459   0.384   8.743 -0.5540 -0.4765  0.4179
 3262SOL    HW2 9786   4.503   0.259   8.671  0.5003 -0.4113  0.9302
 3263SOL     OW 9787   4.943   3.655   7.108 -0.7387  0.4176  0.9896
 3263SOL    HW1 9788   4.963   3.747   7.092  1.0615 -0.2469 -1.0288
 3263SOL    HW2 9789   5.028   3.611   7.107 -1.6769 -1.5510 -0.2440
 3264SOL     OW 9790   4.021   1.460   6.128 -1.1213  1.2762  0.0403
 3264SOL    HW1 9791   3.934   1.497   6.108 -0.6566  2.3045 -0.1533
 3264SOL    HW2 9792   4.081   1.513   6.076 -0.3363  0.8140  0.4702
 3265SOL     OW 9793   4.238   3.217   5.040 -0.8852  0.6964 -0.0040
 3265SOL    HW1 9794   4.182   3.178   5.106  0.8629 -1.2264  0.4726
 3265SOL    HW2 9795   4.190   3.206   4.958 -1.0741 -1.3367  0.3173
 3266SOL     OW 9796   0.217   4.392   7.398  0.5593  0.6142 -0.3004
 3266SOL    HW1 9797   0.237   4.469   7.343 -0.9627  2.3224  1.4116
 3266SOL    HW2 9798   0.136   4.415   7.443  0.2468 -1.8970  0.5496
 3267SOL     OW 9799   3.943   1.524   9.153 -0.3996 -0.0841 -0.3716
 3267SOL    HW1 9800   3.899   1.563   9.228  1.7231  1.2291  0.2780
 3267SOL    HW2 9801   3.920   1.581   9.079 -0.5988 -0.0185 -0.2607
 3268SOL     OW 9802   2.678   0.100   5.365 -0.7096 -0.5321  0.5154
 3268SOL    HW1 9803   2.660   0.024   5.310  1.5995  0.2519 -1.5095
 3268SOL    HW2 9804   2.756   0.076   5.415  1.1903  0.9308 -1.4649
 3269SOL     OW 9805   4.115   0.605   8.171 -0.5263 -0.2522 -0.4169
 3269SOL    HW1 9806   4.172   0.669   8.129  0.4721 -0.6082  0.3738
 3269SOL    HW2 9807   4.034   0.608   8.119 -0.7056  2.0152 -0.0942
 3270SOL     OW 9808   1.876   0.321   6.791  0.3299  0.0494  0.6433
 3270SOL    HW1 9809   1.901   0.264   6.864  2.2100  1.0301  0.8383
 3270SOL    HW2 9810   1.907   0.407   6.816 -0.3415  0.7144 -0.6780
 3271SOL     OW 9811   1.592   3.724   8.824 -0.1293 -0.1823 -0.0903
 3271SOL    HW1 9812   1.569   3.769   8.743  0.8558  1.4346  0.4907
 3271SOL    HW2 9813   1.568   3.786   8.893  0.6155 -0.8392  0.7699
 3272SOL     OW 9814   2.935   3.721   9.090  0.2619  0.1755 -0.2103
 3272SOL    HW1 9815   2.969   3.637   9.060  2.0174  0.7147  0.1829
 3272SOL    HW2 9816   2.950   3.722   9.184  0.6538  1.0841 -0.2667
 3273SOL     OW 9817   1.198   4.058   9.595  0.4537  0.2562 -1.1464
 3273SOL    HW1 9818   1.185   3.963   9.591 -1.0467  0.1983  2.0510
 3273SOL    HW2 9819   1.293   4.069   9.592  0.8621 -1.6692  1.2049
 3274SOL     OW 9820   4.480   1.034   7.118  0.2509 -0.1489 -0.1864
 3274SOL    HW1 9821   4.559   0.998   7.158  0.9642 -1.6809 -2.7864
 3274SOL    HW2 9822   4.511   1.083   7.042 -1.2274  0.3512 -0.5097
 3275SOL     OW 9823   0.820   1.829   8.508 -0.0284  0.1260 -0.8903
 3275SOL    HW1 9824   0.729   1.811   8.531  1.0929 -2.5065  2.2312
 3275SOL    HW2 9825   0.858   1.743   8.490  2.1881  0.9870 -0.7368
 3276SOL     OW 9826   2.704   4.173   7.409  0.4832  0.6240 -0.0949
 3276SOL    HW1 9827   2.638   4.232   7.372  0.5868  1.7129  1.3837
 3276SOL    HW2 9828   2.710   4.101   7.345 -1.0447  1.2340 -0.9844
 3277SOL     OW 9829   2.803   4.711   8.709 -0.0556 -0.7264  0.2648
 3277SOL    HW1 9830   2.757   4.627   8.710 -0.4067 -0.6487 -2.2925
 3277SOL    HW2 9831   2.886   4.693   8.664  0.9493 -0.1601  1.8210
 3278SOL     OW 9832   0.238   1.380   7.298 -0.7307 -0.1922  0.0449
 3278SOL    HW1 9833   0.282   1.408   7.378 -1.3345  2.0842 -0.3382
 3278SOL    HW2 9834   0.172   1.317   7.328  0.7685 -1.4192  0.9562
 3279SOL     OW 9835   1.383   2.717   7.773 -0.1906  0.1242 -0.5619
 3279SOL    HW1 9836   1.429   2.790   7.814  0.1169 -0.3594 -0.0291
 3279SOL    HW2 9837   1.291   2.732   7.793 -0.4684  1.7637 -2.6645
 3280SOL     OW 9838   4.886   2.966   5.209  0.3337 -0.3668 -0.4329
 3280SOL    HW1 9839   4.979   2.969   5.232  0.1128  1.8658  0.3687
 3280SOL    HW2 9840   4.869   3.050   5.166 -0.5990 -2.0514 -3.7584
 3281SOL     OW 9841   4.955   2.581   8.176  0.3505  0.8904  0.2990
 3281SOL    HW1 9842   5.035   2.634   8.174  1.6285 -0.8591 -2.6566
 3281SOL    HW2 9843   4.981   2.499   8.216  0.0392  0.3434 -0.5930
 3282SOL     OW 9844   2.108   2.442   9.780  0.3018  0.4003 -0.0104
 3282SOL    HW1 9845   2.054   2.481   9.712 -1.7003 -2.4076 -0.2097
 3282SOL    HW2 9846   2.161   2.376   9.734 -1.1911 -1.6443  1.0422
 3283SOL     OW 9847   3.701   0.062   6.473  0.5330 -0.2298  0.5241
 3283SOL    HW1 9848   3.667   0.084   6.560 -2.0756  0.6333 -0.6087
 3283SOL    HW2 9849   3.744   0.142   6.444 -0.6065  0.2790  0.1663
 3284SOL     OW 9850   2.072   4.076   8.140 -0.1456  0.7739 -1.1434
 3284SOL    HW1 9851   2.096   4.162   8.175 -0.3958  0.0334  0.9623
 3284SOL    HW2 9852   2.156   4.032   8.125  0.0677 -0.3115  2.3644
 3285SOL     OW 9853   0.592   4.586   8.281 -0.6539 -0.2946  0.1069
 3285SOL    HW1 9854   0.562   4.548   8.364 -0.0876 -2.0273 -0.4374
 3285SOL    HW2 9855   0.676   4.627   8.302 -1.2186  0.6066  0.6805
 3286SOL     OW 9856   3.952   0.907   9.768 -0.2749  0.1628  0.0282
 3286SOL    HW1 9857   4.016   0.978   9.776  0.0467 -0.2317  1.0389
 3286SOL    HW2 9858   3.975   0.864   9.685  1.2503 -0.4253  0.7204
 3287SOL     OW 9859   4.414   2.675   8.739 -0.4713  0.9520 -0.6333
 3287SOL    HW1 9860   4.446   2.585   8.726 -1.5171  0.7476 -2.1202
 3287SOL    HW2 9861   4.401   2.708   8.650 -3.0244  1.4859 -0.1359
 3288SOL     OW 9862   2.014   1.421   9.107 -0.1553 -0.3693 -0.8181
 3288SOL    HW1 9863   1.920   1.415   9.120 -0.3446  1.5244 -1.0233
 3288SOL    HW2 9864   2.046   1.468   9.185  0.7941 -1.8824 -0.2436
 3289SOL     OW 9865   3.628   2.183   9.712  0.0343 -0.3019 -0.7168
 3289SOL    HW1 9866   3.597   2.094   9.727 -1.9452  0.2067 -1.5143
 3289SOL    HW2 9867   3.592   2.234   9.784 -2.5146  0.5862 -2.4678
 3290SOL     OW 9868   4.585   3.520   9.593  0.4255 -0.4100  0.4237
 3290SOL    HW1 9869   4.575   3.449   9.657  0.9690 -0.7345  0.1509
 3290SOL    HW2 9870   4.630   3.590   9.642 -0.0705 -0.2654  0.6797
 3291SOL     OW 9871   0.534   1.214   7.808  0.1746  0.5834 -0.4418
 3291SOL    HW1 9872   0.617   1.172   7.829 -0.9656 -1.5778  0.0424
 3291SOL    HW2 9873   0.559   1.298   7.768  2.5257  0.6422  0.9604
 3292SOL     OW 9874   2.166   1.714   5.930  0.1262  0.5512  0.5911
 3292SOL    HW1 9875   2.195   1.782   5.990  0.0209 -0.2914  1.6367
 3292SOL    HW2 9876   2.087   1.750   5.890 -0.0967  0.9481  1.3519
 3293SOL     OW 9877   2.439   1.381   9.335  0.0751  0.0006 -0.2592
 3293SOL    HW1 9878   2.401   1.460   9.373  0.9165  0.6670 -0.7478
 3293SOL    HW2 9879   2.383   1.310   9.365  1.0488  0.3825  2.7723
 3294SOL     OW 9880   1.920   1.017   8.341  0.4251 -0.1560  0.4612
 3294SOL    HW1 9881   1.922   0.949   8.273 -1.0493  1.8134 -1.7301
 3294SOL    HW2 9882   1.868   1.088   8.302  0.6884  1.6673  3.1639
 3295SOL     OW 9883   0.533   2.545   8.877 -0.6098  0.0287  0.3586
 3295SOL    HW1 9884   0.437   2.547   8.874 -0.5870  0.1535 -0.6972
 3295SOL    HW2 9885   0.560   2.598   8.803  0.2900  0.3850  0.9323
 3296SOL     OW 9886   0.262   2.798   9.086  0.3682 -0.5006 -0.0961
 3296SOL    HW1 9887   0.266   2.748   9.167  0.8226  0.7259  0.6784
 3296SOL    HW2 9888   0.344   2.847   9.085 -0.2895  0.6224 -0.5326
 3297SOL     OW 9889   1.782   1.183   8.158 -0.1250 -0.3067 -0.3829
 3297SOL    HW1 9890   1.748   1.244   8.225  1.2446  0.3044 -0.2138
 3297SOL    HW2 9891   1.703   1.148   8.116 -1.0637 -1.0710  1.8424
 3298SOL     OW 9892   4.778   4.767   9.068 -0.1127 -0.8791  0.3474
 3298SOL    HW1 9893   4.725   4.752   8.990  0.4345 -0.8548 -0.0275
 3298SOL    HW2 9894   4.834   4.690   9.075 -0.4416 -1.0749  0.9512
 3299SOL     OW 9895   0.091   0.285   8.984 -0.1999 -0.0186  0.8785
 3299SOL    HW1 9896   0.086   0.277   8.889  0.7754 -0.1815  0.8352
 3299SOL    HW2 9897   0.009   0.329   9.009 -0.1643  0.6173 -0.0954
 3300SOL     OW 9898   3.576   1.397   7.450 -0.0045  0.0463 -0.5592
 3300SOL    HW1 9899   3.612   1.416   7.536  0.8809 -2.3963 -0.2958
 3300SOL    HW2 9900   3.638   1.438   7.389 -1.6993  3.5320 -0.1574
 3301SOL     OW 9901   4.552   4.077   8.929 -0.1346 -0.1206 -0.6268
 3301SOL    HW1 9902   4.540   4.040   8.842  2.8258  3.3072 -2.7951
 3301SOL    HW2 9903   4.495   4.154   8.931  0.3139  0.2077  0.1955
 3302SOL     OW 9904   1.533   2.008   8.036  0.3157 -0.3240  0.1409
 3302SOL    HW1 9905   1.618   1.980   8.003 -0.0216  0.4688 -1.5165
 3302SOL    HW2 9906   1.501   2.070   7.970 -1.7129 -0.8929  0.5206
 3303SOL     OW 9907   2.700   4.665   6.111  0.8636 -0.4867  0.2699
 3303SOL    HW1 9908   2.648   4.719   6.170  0.3331 -0.8654  0.1519
 3303SOL    HW2 9909   2.785   4.710   6.106  0.7104 -0.1262  0.8359
 3304SOL     OW 9910   0.056   1.459   6.883  0.0488  1.0041 -0.5686
 3304SOL    HW1 9911   0.091   1.374   6.910  0.2489  1.2696  0.0254
 3304SOL    HW2 9912   0.021   1.444   6.795  1.5120  0.7005 -1.1225
 3305SOL     OW 9913   0.270   0.732   6.593 -0.3319  0.0448  0.2508
 3305SOL    HW1 9914   0.355   0.730   6.636 -0.3883 -0.3799  0.3493
 3305SOL    HW2 9915   0.232   0.645   6.610 -1.5448  0.8102  1.7115
 3306SOL     OW 9916   3.277   2.110   9.383 -0.3281  0.1129  0.3727
 3306SOL    HW1 9917   3.325   2.190   9.402 -1.4971  1.8068 -2.9985
 3306SOL    HW2 9918   3.209   2.106   9.449  0.0892  1.5917  0.9202
 3307SOL     OW 9919   4.741   2.689   9.188 -1.0798 -0.1926 -0.6258
 3307SOL    HW1 9920   4.835   2.676   9.176 -0.6142  1.8659  0.3021
 3307SOL    HW2 9921   4.704   2.685   9.100 -0.0035 -0.2376 -1.0816
 3308SOL     OW 9922   4.035   4.856   8.565 -0.3195  0.0085  0.2304
 3308SOL    HW1 9923   4.046   4.904   8.647 -3.0300  1.6184 -0.2069
 3308SOL    HW2 9924   4.021   4.925   8.500 -0.1384 -1.3067 -1.2330
 3309SOL     OW 9925   1.855   3.512   5.696  0.3625  0.0230  0.1419
 3309SOL    HW1 9926   1.796   3.464   5.638  1.8502 -0.9305 -0.6357
 3309SOL    HW2 9927   1.831   3.483   5.784 -1.9834  1.5613  0.0950
 3310SOL     OW 9928   0.592   0.536  10.982 -0.2627  0.5214  0.1763
 3310SOL    HW1 9929   0.519   0.480  11.010 -0.3737  0.7434  0.3376
 3310SOL    HW2 9930   0.561   0.576  10.901 -0.2505  0.4745  0.1493
 3311SOL     OW 9931   0.261   2.583   8.894  0.8053  0.0838 -0.3173
 3311SOL    HW1 9932   0.195   2.529   8.938  0.1712  1.7003  0.8203
 3311SOL    HW2 9933   0.268   2.661   8.948  2.7719  0.5181 -1.1082
 3312SOL     OW 9934   2.117   1.367   8.673 -0.7256  0.0840  0.2376
 3312SOL    HW1 9935   2.123   1.426   8.748 -1.4426 -0.2339  0.5602
 3312SOL    HW2 9936   2.208   1.346   8.651 -0.5068  0.2548  0.9558
 3313SOL     OW 9937   4.417   1.260   9.973 -0.0648 -0.2530  0.0735
 3313SOL    HW1 9938   4.492   1.299  10.019 -0.2903  0.6075 -0.2583
 3313SOL    HW2 9939   4.456   1.218   9.896  0.2390 -1.1194  0.6902
 3314SOL     OW 9940   4.035   4.659   6.832 -0.2474  0.4283  0.2853
 3314SOL    HW1 9941   3.957   4.639   6.780 -0.6463 -0.2225  1.1073
 3314SOL    HW2 9942   4.019   4.615   6.915  0.0496  2.0461  1.2295
 3315SOL     OW 9943   2.230   4.020   8.850  1.5712 -0.3201  0.0075
 3315SOL    HW1 9944   2.293   4.020   8.778  2.0767  1.6626  0.4065
 3315SOL    HW2 9945   2.283   4.035   8.929  0.9698 -1.9579  0.7754
 3316SOL     OW 9946   1.760   1.855   9.337 -0.4485  0.0248 -0.4026
 3316SOL    HW1 9947   1.746   1.773   9.290 -4.1377 -0.3560  0.9972
 3316SOL    HW2 9948   1.676   1.901   9.330 -0.6235  0.8204  3.9553
 3317SOL     OW 9949   4.624   2.551   7.918  0.3471 -0.7051 -0.2526
 3317SOL    HW1 9950   4.713   2.520   7.900  0.0669 -1.7658  0.1131
 3317SOL    HW2 9951   4.613   2.537   8.013  0.4134  1.0887  0.0497
 3318SOL     OW 9952   3.290   0.154   8.710 -0.0800 -0.0575 -0.1382
 3318SOL    HW1 9953   3.364   0.168   8.650 -2.0177  1.6991 -2.2835
 3318SOL    HW2 9954   3.300   0.223   8.775  1.0374 -0.8509  0.5653
 3319SOL     OW 9955   3.730   0.851   7.462  0.5790  0.8532  0.2594
 3319SOL    HW1 9956   3.642   0.814   7.457  1.1562 -0.6627  0.8862
 3319SOL    HW2 9957   3.728   0.926   7.403 -0.4458 -0.5839 -1.6176
 3320SOL     OW 9958   3.018   0.660   9.748  0.4730 -0.1831 -0.6733
 3320SOL    HW1 9959   2.943   0.714   9.722 -1.8141 -1.8336  1.8520
 3320SOL    HW2 9960   3.081   0.721   9.786 -1.7257  0.8812  1.5165
 3321SOL     OW 9961   0.556   3.920   7.805  0.3048 -0.4662  0.6446
 3321SOL    HW1 9962   0.585   3.935   7.715 -2.5099 -1.7181 -0.6297
 3321SOL    HW2 9963   0.605   3.982   7.857 -0.1166  2.5156 -2.1894
 3322SOL     OW 9964   0.380   1.095   5.956  0.7656 -0.2160  0.4017
 3322SOL    HW1 9965   0.448   1.029   5.969  0.1094 -0.8751  0.5129
 3322SOL    HW2 9966   0.348   1.079   5.868 -0.2970 -0.9079  0.8954
 3323SOL     OW 9967   4.280   1.504   7.220  0.1281 -0.3720 -0.3955
 3323SOL    HW1 9968   4.244   1.456   7.295 -1.2662 -1.7922 -1.9213
 3323SOL    HW2 9969   4.302   1.437   7.156 -0.7635  0.9067 -2.1225
 3324SOL     OW 9970   1.003   1.200   7.247 -0.2277 -0.7334  0.0711
 3324SOL    HW1 9971   0.911   1.176   7.230 -0.0698 -1.7007  0.4716
 3324SOL    HW2 9972   1.017   1.279   7.195 -1.1178 -0.9056 -0.4695
 3325SOL     OW 9973   3.694   1.072   7.265  0.4619  0.2742  0.1233
 3325SOL    HW1 9974   3.704   1.056   7.171 -0.9724 -2.1096  0.2756
 3325SOL    HW2 9975   3.610   1.117   7.274  0.7432  0.7798  0.2504
 3326SOL     OW 9976   2.719   0.951   7.417  0.2366 -0.0680 -0.2022
 3326SOL    HW1 9977   2.681   0.921   7.500 -0.9263  0.6295 -0.4610
 3326SOL    HW2 9978   2.730   0.871   7.366 -2.0781 -0.2102 -0.5832
 3327SOL     OW 9979   4.861   4.163   9.557  0.2375  0.4856  0.4209
 3327SOL    HW1 9980   4.839   4.204   9.640  1.3481  1.1661  0.3840
 3327SOL    HW2 9981   4.888   4.074   9.581  0.0617  0.5143  0.7323
 3328SOL     OW 9982   0.491   4.933   6.197 -0.8187 -0.1593  0.3990
 3328SOL    HW1 9983   0.515   4.844   6.172 -1.5919 -0.4562  0.6911
 3328SOL    HW2 9984   0.574   4.974   6.220 -0.3393 -0.5066 -0.6462
 3329SOL     OW 9985   2.660   4.470   8.982 -0.1513  0.1092 -1.1574
 3329SOL    HW1 9986   2.707   4.477   9.066 -0.4727  0.3317 -0.9946
 3329SOL    HW2 9987   2.600   4.544   8.982  1.1207  1.1791 -2.4098
 3330SOL     OW 9988   4.742   1.799   9.328  0.1751  0.1829 -0.1121
 3330SOL    HW1 9989   4.823   1.847   9.314 -0.3806  2.4429  3.2412
 3330SOL    HW2 9990   4.766   1.726   9.384  0.0154  0.4552  0.3158
 3331SOL     OW 9991   3.924   1.306   8.629  0.3894  0.5910 -0.0182
 3331SOL    HW1 9992   3.967   1.276   8.709 -0.7466  2.3674  1.3567
 3331SOL    HW2 9993   3.991   1.301   8.561  1.0358 -2.1248  0.7337
 3332SOL     OW 9994   2.303   3.178   7.009 -0.4857 -0.1897 -0.1194
 3332SOL    HW1 9995   2.328   3.270   7.007  1.4194 -0.6670 -0.6554
 3332SOL    HW2 9996   2.257   3.167   7.092 -2.2546  1.5588 -0.7852
 3333SOL     OW 9997   3.547   4.186   9.637 -0.2270 -0.0329 -0.1984
 3333SOL    HW1 9998   3.589   4.103   9.612  1.4314  0.5970  0.3768
 3333SOL    HW2 9999   3.515   4.223   9.555 -2.8602 -2.1460 -0.2783
 3334SOL     OW10000   3.778   1.821   9.069  0.2378 -0.2193  0.7104
 3334SOL    HW110001   3.768   1.739   9.021 -0.6631  0.3525 -0.1244
 3334SOL    HW210002   3.692   1.836   9.110 -1.3436  2.6274 -3.0296
 3335SOL     OW10003   1.220   1.031   7.835 -0.4830  1.1851 -0.0420
 3335SOL    HW110004   1.152   1.079   7.881 -0.5669  0.6109  0.4538
 3335SOL    HW210005   1.180   0.946   7.816  0.4071  0.4805  1.1181
 3336SOL     OW10006   4.224   1.269  10.245 -0.1030  0.3199 -0.1700
 3336SOL    HW110007   4.243   1.250  10.153  1.2541 -0.2411  0.1932
 3336SOL    HW210008   4.302   1.314  10.276 -1.1269  1.7932  0.3761
 3337SOL     OW10009   2.647   3.372   8.564 -0.3903 -0.2928  0.3417
 3337SOL    HW110010   2.608   3.408   8.644  1.0849  1.4778  0.3243
 3337SOL    HW210011   2.732   3.338   8.592  1.0652  2.1963 -0.7399
 3338SOL     OW10012   2.824   0.814   8.520  0.0065 -0.4318  0.1064
 3338SOL    HW110013   2.750   0.758   8.543 -2.1567  0.9555 -2.8081
 3338SOL    HW210014   2.884   0.757   8.471 -1.7634 -0.5237 -2.1031
 3339SOL     OW10015   2.352   0.402   9.089  0.3821  0.3886 -0.3594
 3339SOL    HW110016   2.424   0.431   9.144  0.0068  1.4934 -0.4195
 3339SOL    HW210017   2.378   0.315   9.058  1.5391  0.6488 -0.1490
 3340SOL     OW10018   1.464   2.882  10.703  0.1779  0.4888 -0.2855
 3340SOL    HW110019   1.559   2.885  10.717  0.5151 -0.7584 -2.0719
 3340SOL    HW210020   1.445   2.790  10.687 -1.4535  0.6335  0.6043
 3341SOL     OW10021   0.954   3.563   9.450 -0.0588 -0.2417  0.6296
 3341SOL    HW110022   0.898   3.624   9.498 -1.1506 -1.1858  0.5974
 3341SOL    HW210023   0.904   3.539   9.372  1.5883  1.0866 -0.9293
 3342SOL     OW10024   2.662   0.740   8.245 -0.1173  0.8456  0.2300
 3342SOL    HW110025   2.618   0.751   8.329  1.8499 -0.0771  1.4386
 3342SOL    HW210026   2.704   0.654   8.251  0.2052  0.8354 -1.6396
 3343SOL     OW10027   3.016   0.515   8.609 -0.2814  0.3007  0.2320
 3343SOL    HW110028   3.064   0.595   8.629 -0.0053  0.1462  0.1971
 3343SOL    HW210029   3.005   0.472   8.694 -1.0770  0.7287  0.3565
 3344SOL     OW10030   0.789   0.106   9.131  0.3448 -0.8000 -0.1754
 3344SOL    HW110031   0.719   0.171   9.126  0.7579 -0.4342 -1.5170
 3344SOL    HW210032   0.746   0.023   9.109 -0.3879 -1.2085  2.4516
 3345SOL     OW10033   1.964   3.532   8.443  0.2246  0.1831  0.3525
 3345SOL    HW110034   1.910   3.519   8.521  2.0847 -1.0177  1.5226
 3345SOL    HW210035   2.034   3.590   8.471  0.4060  0.4967 -0.6959
 3346SOL     OW10036   4.749   1.285   9.572  0.7948  0.2787  0.7030
 3346SOL    HW110037   4.790   1.246   9.649 -1.4094 -0.0365  1.8048
 3346SOL    HW210038   4.757   1.219   9.504  1.6244  0.0333  1.0234
 3347SOL     OW10039   4.398   4.647   8.140 -0.0687  0.2551 -0.0028
 3347SOL    HW110040   4.318   4.606   8.107  0.0669  0.8716 -1.1338
 3347SOL    HW210041   4.467   4.583   8.122  0.1118  0.8480 -1.5837
 3348SOL     OW10042   1.657   0.767   8.641 -0.1913 -0.5208  0.5289
 3348SOL    HW110043   1.676   0.674   8.633 -0.2414 -0.4854 -0.0300
 3348SOL    HW210044   1.562   0.773   8.647 -0.3205 -0.4080 -1.1064
 3349SOL     OW10045   2.983   4.040   9.443 -0.2165  0.6943 -0.4258
 3349SOL    HW110046   2.948   4.017   9.357 -0.1368 -0.2037 -0.2235
 3349SOL    HW210047   2.930   4.115   9.470 -1.4101 -0.0825 -0.5206
 3350SOL     OW10048   2.234   2.695   8.366  0.0752  0.4551  0.4956
 3350SOL    HW110049   2.151   2.653   8.391 -0.6308  1.5375  0.0477
 3350SOL    HW210050   2.218   2.789   8.380  1.2773  0.6668  0.5239
 3351SOL     OW10051   4.835   0.329   9.615  0.0154  0.1630  0.2040
 3351SOL    HW110052   4.763   0.366   9.666 -0.0580  1.5371 -0.8454
 3351SOL    HW210053   4.910   0.385   9.632  0.5073 -0.4991  0.2829
 3352SOL     OW10054   2.156   2.643   9.329 -0.3953  0.7483 -0.2307
 3352SOL    HW110055   2.133   2.681   9.244  0.9125  0.1341 -0.8908
 3352SOL    HW210056   2.245   2.674   9.345 -0.6453  0.9052  0.9687
 3353SOL     OW10057   0.439   1.421   9.489  0.3419 -0.0833  0.2475
 3353SOL    HW110058   0.480   1.488   9.433  1.7835  0.4493  1.8618
 3353SOL    HW210059   0.395   1.471   9.557  0.7461 -0.7418  1.0097
 3354SOL     OW10060   4.219   0.494   6.841  0.4015 -0.0236  0.0469
 3354SOL    HW110061   4.125   0.489   6.859  0.1919  0.0922 -0.9398
 3354SOL    HW210062   4.246   0.578   6.879 -0.2451  0.7161 -1.0769
 3355SOL     OW10063   3.973   4.239  10.212 -0.0778 -0.0965  0.7207
 3355SOL    HW110064   3.881   4.226  10.233  0.2034 -1.2860  1.3213
 3355SOL    HW210065   4.006   4.294  10.283 -0.8048  2.3576 -0.7221
 3356SOL     OW10066   2.516   3.568   9.344  0.5676  0.0375 -0.5013
 3356SOL    HW110067   2.583   3.531   9.285  1.1231 -1.0591  0.7746
 3356SOL    HW210068   2.437   3.573   9.290  1.1475 -0.6214 -1.4459
 3357SOL     OW10069   4.475   2.302   9.689 -0.4305 -0.4456 -0.7260
 3357SOL    HW110070   4.418   2.270   9.759 -2.6991 -0.9630 -2.6840
 3357SOL    HW210071   4.534   2.229   9.671  1.2618  0.2447  1.6137
 3358SOL     OW10072   3.188   1.390   8.263  0.1207  0.1338 -0.0830
 3358SOL    HW110073   3.276   1.420   8.285 -0.5798  0.5795  2.5346
 3358SOL    HW210074   3.134   1.468   8.267 -0.6609 -0.4026  0.0623
 3359SOL     OW10075   3.436   2.455   9.605  0.1605  0.1567  0.2705
 3359SOL    HW110076   3.510   2.404   9.638  0.1606  0.1003  0.1853
 3359SOL    HW210077   3.475   2.517   9.544  0.1735  0.3364  0.4628
 3360SOL     OW10078   2.038   0.240   9.261  0.3907 -0.2373 -0.3108
 3360SOL    HW110079   2.070   0.235   9.171  1.3681 -0.6191  0.0433
 3360SOL    HW210080   2.106   0.289   9.308  0.2023 -0.6079  0.3575
 3361SOL     OW10081   4.838   4.790   9.784 -0.1944  0.8374 -0.5260
 3361SOL    HW110082   4.824   4.787   9.690 -1.0745 -0.0504 -0.3823
 3361SOL    HW210083   4.819   4.701   9.814  1.6211  0.6754  0.2889
 3362SOL     OW10084   3.144   2.010   7.996  0.1975 -0.0296 -0.2145
 3362SOL    HW110085   3.117   2.045   8.081  1.2793 -2.1476  1.0766
 3362SOL    HW210086   3.216   2.068   7.969  0.4446  0.1376  0.7613
 3363SOL     OW10087   2.770   1.214   8.580 -0.1285  0.0805 -0.7369
 3363SOL    HW110088   2.723   1.187   8.501 -1.5584  1.0104 -0.2336
 3363SOL    HW210089   2.783   1.309   8.570  1.7306 -0.1446 -0.8852
 3364SOL     OW10090   2.349   4.597   7.736  0.5647 -0.5833 -0.0581
 3364SOL    HW110091   2.354   4.688   7.765  1.3871 -0.6052 -0.0910
 3364SOL    HW210092   2.281   4.596   7.669  0.9977  0.1469 -0.5231
 3365SOL     OW10093   0.548   4.583   8.567  0.4134  0.5295  0.4262
 3365SOL    HW110094   0.609   4.619   8.631 -0.2355  1.0521  0.7577
 3365SOL    HW210095   0.537   4.492   8.592  0.5800  0.5951  0.7334
 3366SOL     OW10096   2.391   3.089   9.718  0.2144 -0.4251  0.0906
 3366SOL    HW110097   2.372   3.095   9.812 -0.8495  0.6452 -0.1686
 3366SOL    HW210098   2.325   3.145   9.677  0.6887 -0.8581 -1.2989
 3367SOL     OW10099   2.134   3.732   9.529  0.0947 -0.5188 -0.5667
 3367SOL    HW110100   2.219   3.693   9.546 -0.2727 -0.9903  0.2384
 3367SOL    HW210101   2.076   3.658   9.513 -0.7147 -0.3890  1.4402
 3368SOL     OW10102   1.215   4.939   7.304  0.4187 -0.0839 -0.0775
 3368SOL    HW110103   1.127   4.935   7.266  0.8334 -0.3986 -1.0210
 3368SOL    HW210104   1.262   4.866   7.263  1.2365  0.3194  0.1330
 3369SOL     OW10105   3.330   4.642   9.636 -0.5917  0.1134 -0.0874
 3369SOL    HW110106   3.244   4.663   9.673 -0.5787  1.4827 -0.7870
 3369SOL    HW210107   3.318   4.557   9.594 -1.2662 -0.2861  0.9002
 3370SOL     OW10108   4.752   1.297   8.681 -0.0525  0.2269  0.4695
 3370SOL    HW110109   4.847   1.287   8.672 -0.0679  0.1085  0.4350
 3370SOL    HW210110   4.717   1.275   8.594 -0.2217 -1.1573  0.8688
 3371SOL     OW10111   2.552   4.503   9.941  0.3109  0.4195  0.5486
 3371SOL    HW110112   2.606   4.493   9.863 -1.2529 -0.1907 -0.4898
 3371SOL    HW210113   2.611   4.542  10.006  1.2649  2.3364 -1.3530
 3372SOL     OW10114   1.930   1.948   8.623 -0.8493  0.4585  0.2455
 3372SOL    HW110115   1.921   1.878   8.558  1.6545  2.6990 -2.8402
 3372SOL    HW210116   1.979   1.907   8.695 -0.6996 -1.3270 -0.8014
 3373SOL     OW10117   0.483   3.909   9.245  1.0142  0.2937 -0.1113
 3373SOL    HW110118   0.468   3.875   9.157  1.9231  2.3280 -1.1226
 3373SOL    HW210119   0.396   3.937   9.275  0.7413 -0.1721 -0.4590
 3374SOL     OW10120   0.735   0.212   9.918 -0.3969  0.4465 -0.4931
 3374SOL    HW110121   0.775   0.142   9.866  2.2182 -0.5825  2.5339
 3374SOL    HW210122   0.775   0.292   9.884  1.3174 -0.2077 -0.1470
 3375SOL     OW10123   3.571   1.372   8.550 -0.3236 -0.4005 -0.0822
 3375SOL    HW110124   3.562   1.323   8.631 -0.0434 -1.7551 -0.8320
 3375SOL    HW210125   3.481   1.394   8.525 -0.5946 -1.8040 -0.4502
 3376SOL     OW10126   2.089   1.506   9.566  0.2031 -0.5174 -0.4190
 3376SOL    HW110127   2.104   1.533   9.657  0.4762  1.5317 -1.0070
 3376SOL    HW210128   1.996   1.481   9.565  0.1543 -0.4261  0.3966
 3377SOL     OW10129   4.004   2.573   8.263 -0.0481 -0.0177  0.0552
 3377SOL    HW110130   4.051   2.493   8.237  0.1623  0.1291 -0.0225
 3377SOL    HW210131   3.955   2.598   8.185  0.8540  0.6170 -0.3293
 3378SOL     OW10132   3.146   3.811   6.769 -0.2734 -0.2989 -0.3128
 3378SOL    HW110133   3.090   3.764   6.831  0.6421 -1.7538 -0.5227
 3378SOL    HW210134   3.087   3.840   6.700 -0.8947 -1.1769 -0.1727
 3379SOL     OW10135   1.472   0.077   8.799 -0.0267 -0.2329 -1.1485
 3379SOL    HW110136   1.421   0.022   8.858  1.3891 -0.0706  0.2882
 3379SOL    HW210137   1.463   0.165   8.835  3.0135 -0.4824  0.5699
 3380SOL     OW10138   4.276   0.314  10.137 -0.2365  0.2626  0.0445
 3380SOL    HW110139   4.216   0.296  10.065  0.5753  0.2491 -0.6461
 3380SOL    HW210140   4.324   0.232  10.150  0.6577  0.7000 -0.4075
 3381SOL     OW10141   0.096   1.520  10.366  0.1120  0.7672  0.5848
 3381SOL    HW110142   0.029   1.587  10.377 -1.6130 -1.1148  2.1288
 3381SOL    HW210143   0.058   1.457  10.306 -0.5321 -1.4340  3.1228
 3382SOL     OW10144   3.947   0.759   7.987 -0.1531 -0.2039 -0.1502
 3382SOL    HW110145   3.916   0.829   8.045  1.0535  1.0786 -1.0224
 3382SOL    HW210146   3.911   0.780   7.901  0.6587 -0.3569 -0.5373
 3383SOL     OW10147   0.976   4.726   8.159  0.1774  0.2444  0.2517
 3383SOL    HW110148   0.968   4.753   8.251 -1.0517  1.8036 -0.2670
 3383SOL    HW210149   1.002   4.806   8.113  0.3238 -0.4090 -0.8339
 3384SOL     OW10150   1.115   4.343   0.196 -0.2862  0.3732  0.5602
 3384SOL    HW110151   1.105   4.296   0.279 -0.3305  1.4718  1.1898
 3384SOL    HW210152   1.043   4.406   0.194 -1.6746 -1.1340 -1.3763
 3385SOL     OW10153   2.752   2.332   9.680  0.8279  0.0074  0.2408
 3385SOL    HW110154   2.819   2.367   9.622 -0.5931 -1.0493 -2.2216
 3385SOL    HW210155   2.688   2.402   9.689  0.9730  0.1187  0.4133
 3386SOL     OW10156   4.382   3.575   9.139 -0.5265 -0.2157 -0.2855
 3386SOL    HW110157   4.405   3.663   9.168  0.1927 -0.9332  1.4220
 3386SOL    HW210158   4.290   3.581   9.115 -0.4855  0.9954 -0.1952
 3387SOL     OW10159   0.243   1.364   8.639  0.1584  0.4304 -0.0191
 3387SOL    HW110160   0.173   1.363   8.574  0.1414  1.6168 -0.0348
 3387SOL    HW210161   0.199   1.348   8.723 -0.0551  0.6392 -0.0920
 3388SOL     OW10162   0.535   4.622   8.009 -0.3332 -0.2458 -0.0871
 3388SOL    HW110163   0.483   4.550   7.974 -3.0280  1.4158  0.1590
 3388SOL    HW210164   0.528   4.614   8.104 -0.5922  0.2846 -0.0563
 3389SOL     OW10165   1.948   4.027   8.811  0.0756  0.0975  0.4048
 3389SOL    HW110166   2.043   4.033   8.819 -0.0883  0.8763  2.3026
 3389SOL    HW210167   1.922   3.969   8.882 -0.9273  0.4373  0.3290
 3390SOL     OW10168   2.370   2.122   9.849  0.4713  0.0270  0.0851
 3390SOL    HW110169   2.458   2.092   9.870  0.5408  1.5312  2.2995
 3390SOL    HW210170   2.317   2.098   9.925 -0.5556  0.9210 -0.3153
 3391SOL     OW10171   1.306   2.436  10.037  0.1691  0.2142 -0.3227
 3391SOL    HW110172   1.214   2.414  10.021  0.6023 -3.3808  1.0121
 3391SOL    HW210173   1.354   2.392   9.968  1.0070 -0.4854  0.6680
 3392SOL     OW10174   1.505   3.121   9.632  0.5420 -0.7268 -0.0089
 3392SOL    HW110175   1.496   3.032   9.599  0.3758 -0.2197 -1.3843
 3392SOL    HW210176   1.485   3.114   9.726 -0.1834 -2.0072 -0.2435
 3393SOL     OW10177   3.652   0.178   8.401  0.5286 -0.0479 -0.0169
 3393SOL    HW110178   3.618   0.114   8.338 -1.9549 -0.0960  1.2855
 3393SOL    HW210179   3.631   0.142   8.487  0.9018  1.5793  0.8053
 3394SOL     OW10180   4.970   2.300   8.290  0.1267  0.3541 -0.9050
 3394SOL    HW110181   4.921   2.278   8.211  1.4154 -1.5586 -1.2486
 3394SOL    HW210182   5.046   2.241   8.288  1.2513  1.6571  0.7339
 3395SOL     OW10183   0.811   2.759   8.477 -0.5944  0.5389 -0.5026
 3395SOL    HW110184   0.794   2.853   8.481 -1.9686  0.2802  0.3719
 3395SOL    HW210185   0.880   2.743   8.541 -0.8014  0.8742 -0.1954
 3396SOL     OW10186   4.154   2.448   9.056  0.4549  0.0426 -0.1010
 3396SOL    HW110187   4.216   2.381   9.025  1.2269  0.1799  1.1043
 3396SOL    HW210188   4.209   2.517   9.091 -0.3520  1.1299 -0.8945
 3397SOL     OW10189   0.273   1.583   7.079  0.0386  0.1198 -0.0231
 3397SOL    HW110190   0.217   1.571   7.002  0.2561 -3.2901  0.2275
 3397SOL    HW210191   0.232   1.530   7.148  1.3992  0.7939  1.3733
 3398SOL     OW10192   2.729   1.290   6.077 -0.4079  0.4986  0.3023
 3398SOL    HW110193   2.772   1.215   6.119 -2.3548 -0.9502 -0.1111
 3398SOL    HW210194   2.700   1.256   5.992  0.7608  2.4783 -0.9561
 3399SOL     OW10195   3.294   1.060  10.135  0.5086 -0.1537  0.0309
 3399SOL    HW110196   3.268   1.152  10.133  1.7906  0.2265 -0.1743
 3399SOL    HW210197   3.373   1.058  10.189 -0.3084 -1.3690  1.2320
 3400SOL     OW10198   1.897   2.021   9.724 -0.7143 -0.0647 -0.0581
 3400SOL    HW110199   1.880   2.079   9.649 -0.4818  1.5452  1.0664
 3400SOL    HW210200   1.810   2.002   9.759 -0.7809 -0.2149 -0.3012
 3401SOL     OW10201   1.323   3.779   9.835 -0.2222 -0.5244 -0.2097
 3401SOL    HW110202   1.398   3.838   9.845 -1.5326  1.2176 -0.0893
 3401SOL    HW210203   1.354   3.695   9.867  1.8256  0.0050 -0.6479
 3402SOL     OW10204   3.325   2.663   6.207  0.0175  0.4927 -0.9046
 3402SOL    HW110205   3.413   2.634   6.186  0.2619  1.6683 -1.6300
 3402SOL    HW210206   3.272   2.633   6.133 -0.0226  0.5650 -0.9055
 3403SOL     OW10207   2.500   2.526   9.060 -0.0649  1.1124 -0.4600
 3403SOL    HW110208   2.458   2.470   9.125  1.5571 -0.6605 -0.8646
 3403SOL    HW210209   2.540   2.597   9.111 -0.9844  1.1747  0.1951
 3404SOL     OW10210   0.509   3.809   8.819 -0.3634  0.6927  0.5480
 3404SOL    HW110211   0.602   3.804   8.843 -0.3648  0.6804  0.5506
 3404SOL    HW210212   0.488   3.903   8.825 -0.1827  0.7810 -0.0987
 3405SOL     OW10213   4.189   1.066   8.659 -0.0659  0.0157 -0.9552
 3405SOL    HW110214   4.107   1.056   8.706  0.0940  0.2511 -0.6255
 3405SOL    HW210215   4.243   0.992   8.689  0.1265  0.3080 -0.5788
 3406SOL     OW10216   4.610   1.561   8.802  0.7074  0.1713 -0.6067
 3406SOL    HW110217   4.575   1.557   8.713 -0.2463  1.0617 -0.2821
 3406SOL    HW210218   4.603   1.472   8.835  2.1438 -0.4414 -1.7992
 3407SOL     OW10219   3.748   1.455  10.199 -0.3565 -0.0672  0.4543
 3407SOL    HW110220   3.710   1.378  10.242 -0.2420 -0.3766  0.0142
 3407SOL    HW210221   3.807   1.492  10.265  2.1202 -2.2389 -0.3344
 3408SOL     OW10222   0.374   1.474   9.012  0.1112 -0.4277 -0.5345
 3408SOL    HW110223   0.286   1.453   8.980 -1.2063  1.9448  1.1965
 3408SOL    HW210224   0.391   1.411   9.082 -0.2882 -0.7319 -0.7085
 3409SOL     OW10225   1.120   3.735   9.270  0.4269  0.2613 -0.0391
 3409SOL    HW110226   1.208   3.747   9.306  1.2048 -0.2073 -1.6802
 3409SOL    HW210227   1.076   3.678   9.333  1.2109  0.7075  0.9342
 3410SOL     OW10228   0.865   2.699   9.603  0.0641 -0.2083 -0.4826
 3410SOL    HW110229   0.800   2.688   9.672  0.7713 -0.7660  0.1093
 3410SOL    HW210230   0.826   2.655   9.527  0.6740 -2.5596  0.4761
 3411SOL     OW10231   1.415   2.636   9.736 -0.2882 -0.4039 -0.3324
 3411SOL    HW110232   1.358   2.705   9.770  0.2415 -0.8554  1.5735
 3411SOL    HW210233   1.370   2.555   9.758  1.2965 -0.7907  1.7439
 3412SOL     OW10234   2.957   3.107   7.943 -0.5739 -0.5047 -0.3276
 3412SOL    HW110235   2.935   3.151   8.025 -0.5193 -0.4249 -0.3543
 3412SOL    HW210236   2.890   3.137   7.882 -1.2697 -1.4346 -0.0331
 3413SOL     OW10237   4.364   0.687   7.984 -0.5338  0.2528  0.4684
 3413SOL    HW110238   4.381   0.690   7.890 -1.0469  0.6972  0.3913
 3413SOL    HW210239   4.401   0.769   8.018 -1.2843  0.5840  0.4985
 3414SOL     OW10240   0.164   4.342   6.433 -0.3127  0.0598 -1.1898
 3414SOL    HW110241   0.131   4.373   6.517 -1.9328  0.5880 -1.9708
 3414SOL    HW210242   0.174   4.248   6.443 -0.6585  0.0999 -0.4551
 3415SOL     OW10243   1.762   1.227   8.682 -0.8163 -0.4998  1.2344
 3415SOL    HW110244   1.850   1.192   8.667 -0.1255  1.6009 -0.1999
 3415SOL    HW210245   1.703   1.165   8.640  0.1966 -0.8709  0.3209
 3416SOL     OW10246   4.541   0.723   8.553  0.4987  0.5602 -0.4297
 3416SOL    HW110247   4.595   0.776   8.495  0.3812  0.9027 -0.2311
 3416SOL    HW210248   4.569   0.748   8.641 -0.1704  0.9459 -0.3207
 3417SOL     OW10249   4.926   0.307  10.120 -0.3861  0.3098 -0.5803
 3417SOL    HW110250   4.964   0.388  10.088 -1.8720  1.2883  0.0467
 3417SOL    HW210251   4.942   0.244  10.050  0.8147  1.1119 -1.0618
 3418SOL     OW10252   4.217   3.739   6.948 -0.3549 -0.0782 -0.2558
 3418SOL    HW110253   4.164   3.796   6.892  0.4142 -0.1529 -1.0843
 3418SOL    HW210254   4.163   3.725   7.025 -0.9621  0.9785 -0.4647
 3419SOL     OW10255   2.813   1.832   7.933 -0.6890 -0.4163 -0.1908
 3419SOL    HW110256   2.865   1.867   7.860  0.8090 -0.4362  0.8157
 3419SOL    HW210257   2.879   1.803   7.997 -1.9670 -0.1703  1.2765
 3420SOL     OW10258   4.903   3.181   7.127 -1.4135 -0.8750 -0.0042
 3420SOL    HW110259   4.993   3.151   7.118 -1.1028  0.2741 -0.9647
 3420SOL    HW210260   4.881   3.164   7.218  0.1465 -0.2100  0.5325
 3421SOL     OW10261   0.087   3.408   9.846 -1.4800  0.4092 -0.1631
 3421SOL    HW110262   0.076   3.366   9.930 -1.3023  0.6589 -0.0115
 3421SOL    HW210263   0.149   3.352   9.799 -1.8122  0.1088 -0.2427
 3422SOL     OW10264   4.324   3.622   7.528 -0.2382  0.2052  0.0980
 3422SOL    HW110265   4.303   3.601   7.437  0.4609 -3.1305  0.5773
 3422SOL    HW210266   4.269   3.562   7.579  1.9402 -0.5437  1.7060
 3423SOL     OW10267   4.683   3.626   9.337 -0.1040 -0.1009  0.5755
 3423SOL    HW110268   4.629   3.621   9.258  0.7677  1.1685 -0.1437
 3423SOL    HW210269   4.643   3.564   9.398 -2.0620  0.3945 -0.1148
 3424SOL     OW10270   3.105   2.325   8.010  0.1971 -0.4254  0.1853
 3424SOL    HW110271   3.064   2.278   7.938 -0.8065  2.3745 -1.2467
 3424SOL    HW210272   3.195   2.341   7.980 -0.6336  2.0763 -1.3325
 3425SOL     OW10273   3.202   3.173   7.590 -0.2718 -0.4605 -0.2688
 3425SOL    HW110274   3.249   3.099   7.629  2.0894  0.9854 -0.1612
 3425SOL    HW210275   3.183   3.231   7.664 -0.0986  0.0577 -0.6231
 3426SOL     OW10276   2.954   2.784   8.809 -0.1612 -0.4417  0.0998
 3426SOL    HW110277   2.969   2.717   8.875 -2.3626 -0.7675  0.3609
 3426SOL    HW210278   3.041   2.820   8.791  1.0817 -3.1872  0.0921
 3427SOL     OW10279   2.073   3.668   6.626  0.4532 -0.0206 -0.1777
 3427SOL    HW110280   2.118   3.588   6.654  0.0089 -0.1140  0.2838
 3427SOL    HW210281   2.094   3.732   6.694  0.8589  0.2772 -0.5773
 3428SOL     OW10282   2.293   0.504   7.958 -0.2827 -0.4731  0.4122
 3428SOL    HW110283   2.241   0.489   8.036 -2.4835  0.8067 -0.7059
 3428SOL    HW210284   2.232   0.494   7.885  1.5758 -1.1585 -1.1675
 3429SOL     OW10285   0.586   3.768   5.925 -0.2619  0.1741  0.4626
 3429SOL    HW110286   0.592   3.854   5.967  0.9175 -0.0332  0.7747
 3429SOL    HW210287   0.593   3.706   5.997 -2.3415 -0.2161  0.3769
 3430SOL     OW10288   2.744   3.194   6.573  0.0065  0.2855  0.6867
 3430SOL    HW110289   2.789   3.235   6.647  5.5790 -1.2668 -1.2707
 3430SOL    HW210290   2.712   3.268   6.521  0.8528  1.6698  2.0310
 3431SOL     OW10291   1.391   2.804   6.154  0.9491  0.3905  0.3694
 3431SOL    HW110292   1.358   2.850   6.232  1.8988  0.8165  0.5335
 3431SOL    HW210293   1.483   2.785   6.175  0.2188 -3.1763  1.0694
 3432SOL     OW10294   3.617   0.713   7.913 -0.1828 -0.5220  0.5426
 3432SOL    HW110295   3.579   0.689   7.998  2.4051 -0.1329  1.9204
 3432SOL    HW210296   3.655   0.631   7.880 -1.0287 -0.6329 -0.1814
 3433SOL     OW10297   3.190   2.248   7.591  0.0473  0.0356  0.0728
 3433SOL    HW110298   3.261   2.196   7.629  0.4799  0.2593 -0.4201
 3433SOL    HW210299   3.190   2.330   7.640 -0.5324 -0.3528  0.7451
 3434SOL     OW10300  -0.011   2.281   5.221 -0.1476 -0.6155 -0.4387
 3434SOL    HW110301   0.025   2.274   5.310  1.8050  0.3356 -1.0878
 3434SOL    HW210302   0.052   2.233   5.167  0.3025  1.2252 -1.6539
 3435SOL     OW10303   1.518   1.928   4.984  0.1622 -0.4948 -0.7428
 3435SOL    HW110304   1.537   1.932   5.078  2.3685 -2.5495 -0.9940
 3435SOL    HW210305   1.514   2.019   4.956  0.0304  0.1579  1.2258
 3436SOL     OW10306   3.156   2.755   6.394 -0.3891 -0.6325  0.6815
 3436SOL    HW110307   3.213   2.692   6.351 -1.3049 -2.4516  2.0000
 3436SOL    HW210308   3.215   2.812   6.444  0.4592 -0.2816 -0.6816
 3437SOL     OW10309   4.838   0.145   4.989  0.1190  0.5164  0.1595
 3437SOL    HW110310   4.898   0.109   4.924 -1.3931 -0.4723 -0.7262
 3437SOL    HW210311   4.828   0.075   5.053 -1.2030  0.1080 -0.4684
 3438SOL     OW10312   1.875   4.940   6.411  0.0800 -0.3326  0.1479
 3438SOL    HW110313   1.874   4.986   6.327  0.1686  0.4256  0.5521
 3438SOL    HW210314   1.887   5.010   6.476  0.9497 -1.0073  0.7259
 3439SOL     OW10315   4.110   2.702   5.665 -0.0093 -0.1833  0.2681
 3439SOL    HW110316   4.014   2.702   5.673 -0.0653  2.4121  0.3969
 3439SOL    HW210317   4.127   2.737   5.577  0.8396 -1.1201  0.0428
 3440SOL     OW10318   4.099   1.848   5.222 -0.5947  0.2256 -0.0948
 3440SOL    HW110319   4.079   1.766   5.176 -0.0912 -1.1415  1.9846
 3440SOL    HW210320   4.029   1.856   5.287 -0.7889  1.6256 -0.4617
 3441SOL     OW10321   2.221   2.955   8.470 -0.7149 -0.2276  0.3053
 3441SOL    HW110322   2.146   3.014   8.483 -0.5045  0.2053 -0.3999
 3441SOL    HW210323   2.281   3.005   8.414  0.4626 -0.2593  1.4916
 3442SOL     OW10324   2.522   1.497   5.920 -0.2456  0.1614  0.8900
 3442SOL    HW110325   2.583   1.462   5.854  0.7934  1.8316  0.9047
 3442SOL    HW210326   2.441   1.449   5.905  0.8159 -1.5946  0.3497
 3443SOL     OW10327   2.757   4.845   5.229 -0.0779 -0.6938  0.3422
 3443SOL    HW110328   2.772   4.906   5.158  2.0586  0.5928  1.7884
 3443SOL    HW210329   2.779   4.759   5.193 -0.8782 -0.3525 -1.0375
 3444SOL     OW10330   2.047   2.217   5.901  0.7536  0.4816 -0.0581
 3444SOL    HW110331   2.000   2.271   5.964  0.4094 -0.0035  0.1132
 3444SOL    HW210332   2.064   2.135   5.948 -1.0755 -0.5911 -1.1100
 3445SOL     OW10333   3.261   0.889  12.397 -0.0520 -0.1417  0.2416
 3445SOL    HW110334   3.209   0.809  12.399 -1.7176  0.8276 -1.4029
 3445SOL    HW210335   3.198   0.959  12.380  1.8804  0.9211 -3.6746
 3446SOL     OW10336   3.994   1.962   5.681 -0.0985  0.2316  0.5898
 3446SOL    HW110337   3.921   1.957   5.620  0.2244  0.8808  0.1335
 3446SOL    HW210338   4.013   2.056   5.688 -0.2427  0.1858  1.8309
 3447SOL     OW10339   3.852   1.212   5.517 -0.6275 -0.0329 -0.6260
 3447SOL    HW110340   3.784   1.202   5.583  1.3417 -0.3826  1.4745
 3447SOL    HW210341   3.852   1.129   5.469 -1.7331  0.0303 -0.7572
 3448SOL     OW10342   2.968   3.533   8.240  0.4981 -0.0988  0.4665
 3448SOL    HW110343   3.059   3.559   8.252  1.0073 -0.9313 -1.2666
 3448SOL    HW210344   2.953   3.540   8.145 -1.5518  0.9851  0.8006
 3449SOL     OW10345   3.340   0.035   6.357 -0.2244  0.8148  0.4021
 3449SOL    HW110346   3.320   0.116   6.311 -0.7122  0.1009 -0.6725
 3449SOL    HW210347   3.255  -0.006   6.372  0.1579 -1.2324 -2.3384
 3450SOL     OW10348   2.146   2.963   5.133  0.5579  0.3156  0.3177
 3450SOL    HW110349   2.123   2.879   5.173  2.1641  0.3846  1.4998
 3450SOL    HW210350   2.157   3.023   5.207  0.1973  1.3790 -0.4640
 3451SOL     OW10351   3.001   3.477   6.058  0.2216 -0.6585 -0.2114
 3451SOL    HW110352   3.011   3.400   6.002  0.4350 -1.1462  0.4848
 3451SOL    HW210353   2.928   3.525   6.020  2.1654  0.5814 -2.6835
 3452SOL     OW10354   3.909   0.613   6.309  0.0160  0.1979 -0.1174
 3452SOL    HW110355   3.856   0.554   6.255 -0.7984  0.3265  0.5108
 3452SOL    HW210356   3.980   0.558   6.343 -0.3417 -0.2548 -0.0911
 3453SOL     OW10357   4.241   4.793   8.356  0.2151 -1.0011 -0.1728
 3453SOL    HW110358   4.242   4.703   8.323 -1.9874 -1.4990  0.9195
 3453SOL    HW210359   4.148   4.815   8.362  0.7044  1.3361 -0.3025
 3454SOL     OW10360   3.153   2.325   5.786 -0.1334 -0.0709  0.1278
 3454SOL    HW110361   3.124   2.392   5.848  0.6449 -1.7025  2.3744
 3454SOL    HW210362   3.241   2.353   5.760  0.0402 -0.0184  0.7588
 3455SOL     OW10363   2.553   4.645   6.974 -0.2136 -0.0122  0.5739
 3455SOL    HW110364   2.522   4.555   6.982 -0.3797 -0.1475 -1.2309
 3455SOL    HW210365   2.647   4.637   6.959 -0.5153 -0.0243 -1.5322
 3456SOL     OW10366   1.428   1.442   5.313 -0.0148 -0.5417 -0.3225
 3456SOL    HW110367   1.368   1.509   5.347  0.1878  0.8568 -2.5228
 3456SOL    HW210368   1.432   1.377   5.382 -2.6575  0.1909  0.6574
 3457SOL     OW10369   2.204   4.255   6.926  1.0373  0.7823  0.1209
 3457SOL    HW110370   2.209   4.278   7.018 -1.1998 -1.8773  1.0543
 3457SOL    HW210371   2.120   4.290   6.896  1.0227  0.2898 -0.4432
 3458SOL     OW10372   0.507   3.257   9.395  0.1176  0.2778 -0.3699
 3458SOL    HW110373   0.467   3.339   9.366 -1.4188 -0.5220 -0.6276
 3458SOL    HW210374   0.475   3.191   9.333 -1.0417 -1.0073  1.4808
 3459SOL     OW10375   3.395   3.397   8.599 -0.0231  0.1792 -0.5808
 3459SOL    HW110376   3.410   3.321   8.655 -0.5196 -0.1114 -0.8326
 3459SOL    HW210377   3.370   3.467   8.660  0.0923  0.0473 -0.3792
 3460SOL     OW10378   4.546   4.709   7.347 -0.6027 -0.6491  0.2874
 3460SOL    HW110379   4.524   4.616   7.335 -0.0579 -0.5729 -1.6194
 3460SOL    HW210380   4.462   4.751   7.367 -1.0908 -1.3388 -0.2532
 3461SOL     OW10381   4.287   3.058   6.379  0.4090  0.4095 -0.0421
 3461SOL    HW110382   4.366   3.111   6.380  2.1192 -1.7752 -3.1530
 3461SOL    HW210383   4.237   3.091   6.305 -0.1729 -0.1295  0.1062
 3462SOL     OW10384   3.978   4.640   8.131 -0.5579  0.1940  0.0391
 3462SOL    HW110385   3.915   4.650   8.059 -1.9903 -0.0436  1.2018
 3462SOL    HW210386   3.924   4.619   8.207  0.9416  0.1148  1.1305
 3463SOL     OW10387   4.891   2.660   4.836 -0.3411 -0.2255  0.3111
 3463SOL    HW110388   4.937   2.649   4.919 -1.7428 -0.0164  1.1483
 3463SOL    HW210389   4.918   2.746   4.804  3.0468 -1.7351 -1.3432
 3464SOL     OW10390   2.404   3.784   7.860  0.0035  0.9264 -0.1003
 3464SOL    HW110391   2.446   3.700   7.878 -1.4112 -0.0607 -1.1679
 3464SOL    HW210392   2.464   3.829   7.800  1.5171  1.4006  1.6861
 3465SOL     OW10393   3.617   4.392   6.505  0.0813  0.1028 -0.6581
 3465SOL    HW110394   3.541   4.373   6.450 -1.0590 -1.5490  1.3474
 3465SOL    HW210395   3.632   4.312   6.555  4.0269 -0.1304 -1.8821
 3466SOL     OW10396   2.443   2.879   5.064 -0.1405 -0.9463  0.5885
 3466SOL    HW110397   2.362   2.929   5.073 -0.7374 -1.8729  0.4371
 3466SOL    HW210398   2.500   2.913   5.133 -0.0556  0.8226 -0.2963
 3467SOL     OW10399   4.986   4.624   5.964  0.9298 -0.4438  0.3120
 3467SOL    HW110400   4.938   4.670   6.033  2.8251  2.2337 -0.0037
 3467SOL    HW210401   5.005   4.538   6.002 -2.2538 -0.8922  1.1706
 3468SOL     OW10402   4.782   1.278   6.436 -0.2672 -0.4190 -0.0758
 3468SOL    HW110403   4.702   1.302   6.482  1.5457  0.7506  2.7896
 3468SOL    HW210404   4.834   1.358   6.435  0.6813 -1.0002 -2.3602
 3469SOL     OW10405   2.903   1.726   9.496 -0.1505 -0.0496 -0.3877
 3469SOL    HW110406   2.914   1.631   9.496 -0.8978 -0.1431 -0.6989
 3469SOL    HW210407   2.886   1.748   9.587 -1.7180 -0.4388 -0.5643
 3470SOL     OW10408   3.943   3.556   5.205 -0.5252 -0.3062  0.1387
 3470SOL    HW110409   4.031   3.520   5.219 -1.1765 -1.8310  0.4639
 3470SOL    HW210410   3.933   3.558   5.110 -0.0616  0.1128  0.0912
 3471SOL     OW10411   1.682   0.085   5.202 -0.4344 -0.1761 -0.0474
 3471SOL    HW110412   1.626   0.056   5.130 -0.9992  0.9430 -0.0836
 3471SOL    HW210413   1.769   0.092   5.163 -0.5885 -0.3031 -0.4213
 3472SOL     OW10414   1.116   1.129   5.954  0.5175  0.3386  0.1985
 3472SOL    HW110415   1.073   1.048   5.926  0.7444  0.6261 -1.0326
 3472SOL    HW210416   1.178   1.149   5.884 -0.1270  2.0373  0.0670
 3473SOL     OW10417   1.151   1.920   9.593  0.3302 -0.0884 -0.9221
 3473SOL    HW110418   1.184   1.830   9.585  0.1814 -0.2530  0.1801
 3473SOL    HW210419   1.132   1.931   9.686  3.7433  2.2894 -0.3164
 3474SOL     OW10420   4.609   1.305   5.041 -0.3175 -0.0689 -0.5714
 3474SOL    HW110421   4.579   1.234   4.984  0.9022 -1.5994  0.5802
 3474SOL    HW210422   4.704   1.294   5.045 -0.3244  0.1786  1.4506
 3475SOL     OW10423   1.815   2.373   6.973 -0.8696 -0.5706 -0.0136
 3475SOL    HW110424   1.800   2.286   6.935 -0.3977 -1.0053  0.7797
 3475SOL    HW210425   1.754   2.378   7.046 -0.1536 -0.6616  0.5974
 3476SOL     OW10426   1.532   0.548   6.911  0.5850  0.5272  0.3671
 3476SOL    HW110427   1.439   0.547   6.931  0.4762  1.9068  0.0645
 3476SOL    HW210428   1.575   0.547   6.996  0.1917  3.1154  0.6975
 3477SOL     OW10429   3.128   2.826   5.868  0.5021  0.0367  0.6781
 3477SOL    HW110430   3.156   2.889   5.802  1.5340 -0.1452  0.9177
 3477SOL    HW210431   3.137   2.873   5.951 -1.1166  0.3812  0.6957
 3478SOL     OW10432   0.651   2.040   5.320  0.2580  0.0305  0.0501
 3478SOL    HW110433   0.665   1.983   5.395 -1.3365 -0.2710  0.1395
 3478SOL    HW210434   0.740   2.065   5.292  0.9179 -1.1181  1.0425
 3479SOL     OW10435   4.554   0.718   7.028 -0.1872  0.6451  0.1718
 3479SOL    HW110436   4.617   0.768   7.080 -0.5816  0.4289  0.8736
 3479SOL    HW210437   4.488   0.783   7.001 -1.3165  0.3340  2.0436
 3480SOL     OW10438   1.664   0.600   5.407  0.2276  0.5032 -0.2303
 3480SOL    HW110439   1.669   0.619   5.501 -1.9831  1.5849 -0.2800
 3480SOL    HW210440   1.724   0.663   5.367 -0.5103  1.5485  0.2922
 3481SOL     OW10441   2.206   0.155   5.753 -0.2227 -0.1989  0.0367
 3481SOL    HW110442   2.146   0.221   5.718  0.0013 -0.7720 -1.5135
 3481SOL    HW210443   2.290   0.175   5.712  0.2708 -0.4263  0.8983
 3482SOL     OW10444   3.631   2.859   6.288  0.5495 -0.0368  0.2125
 3482SOL    HW110445   3.672   2.804   6.222  1.3861  0.0839  0.6158
 3482SOL    HW210446   3.613   2.799   6.361  1.3280  0.1862  0.5944
 3483SOL     OW10447   1.212   1.037   7.108 -0.4024  0.0976  0.4980
 3483SOL    HW110448   1.132   1.079   7.141 -0.8031  1.6051 -2.1181
 3483SOL    HW210449   1.281   1.102   7.120 -0.3112  0.1896 -0.4327
 3484SOL     OW10450   1.969   1.516   8.203  0.0090 -0.5012 -0.2955
 3484SOL    HW110451   1.977   1.434   8.156  0.3459  0.1969 -1.4999
 3484SOL    HW210452   1.906   1.567   8.152  1.7137  0.9542 -1.0428
 3485SOL     OW10453   0.039   0.211   5.573 -0.4162  0.2845  0.0400
 3485SOL    HW110454  -0.007   0.154   5.512 -0.4485  1.0674 -0.6896
 3485SOL    HW210455   0.122   0.167   5.590 -1.3501 -1.0897  1.2863
 3486SOL     OW10456   4.863   1.636   4.970  0.2285 -0.3355  0.4361
 3486SOL    HW110457   4.805   1.712   4.973 -2.7364 -2.1990 -2.6584
 3486SOL    HW210458   4.866   1.612   4.877  0.0358 -4.5935  1.3258
 3487SOL     OW10459   1.669   4.555   7.473  0.5649  0.1197 -0.1122
 3487SOL    HW110460   1.664   4.593   7.385 -1.0132  1.1180  0.3552
 3487SOL    HW210461   1.716   4.620   7.524 -0.4741  0.6118  0.2560
 3488SOL     OW10462   0.869   0.293   5.714  0.0889 -0.1285  0.0849
 3488SOL    HW110463   0.803   0.362   5.718  2.2061  2.0053  0.5357
 3488SOL    HW210464   0.918   0.311   5.634  2.1790  0.4391  1.4057
 3489SOL     OW10465   3.452   2.927   8.661 -0.3243 -0.6065  0.0082
 3489SOL    HW110466   3.485   2.848   8.619  0.8313  0.2809 -0.8272
 3489SOL    HW210467   3.512   2.996   8.633 -0.9494  0.4640  1.1957
 3490SOL     OW10468   1.455   1.848   5.483 -0.2289  0.7513  0.2202
 3490SOL    HW110469   1.391   1.843   5.412  1.5329 -0.5892 -1.3735
 3490SOL    HW210470   1.516   1.777   5.466  1.0094  1.1961  2.3829
 3491SOL     OW10471   1.777   3.428   6.590  0.1288  0.5372  0.0139
 3491SOL    HW110472   1.830   3.410   6.668 -1.7102  1.1199  1.4593
 3491SOL    HW210473   1.688   3.405   6.615 -0.6169  1.3471 -1.7130
 3492SOL     OW10474   3.057   4.340   5.889 -0.1710  0.0514  0.4713
 3492SOL    HW110475   2.972   4.378   5.910 -0.4412  0.7909 -1.7349
 3492SOL    HW210476   3.117   4.414   5.889  0.1917 -0.2408  0.5585
 3493SOL     OW10477   3.580   3.556   9.936 -0.0944  0.0967 -0.2481
 3493SOL    HW110478   3.610   3.466   9.927 -0.2765  0.0655 -0.5251
 3493SOL    HW210479   3.528   3.573   9.858 -0.1189  0.4198 -0.1643
 3494SOL     OW10480   3.286   2.831   5.119 -0.3705 -0.3257  0.8147
 3494SOL    HW110481   3.292   2.813   5.212 -1.6772  1.4381  1.3065
 3494SOL    HW210482   3.309   2.924   5.111  0.8949 -0.7365 -0.7999
 3495SOL     OW10483   4.415   4.414   7.041  0.2322  0.1165  0.1430
 3495SOL    HW110484   4.450   4.337   7.085  3.0771  0.7619 -0.7773
 3495SOL    HW210485   4.437   4.487   7.099  1.3589  0.6357 -0.8897
 3496SOL     OW10486   3.445   3.278   5.920  0.4288 -0.0814 -0.1723
 3496SOL    HW110487   3.442   3.349   5.984 -0.4540  1.8171 -2.1837
 3496SOL    HW210488   3.405   3.203   5.964  1.5436  0.5672  2.0816
 3497SOL     OW10489   2.256   2.891   6.389  0.5604 -0.8241 -0.3882
 3497SOL    HW110490   2.166   2.866   6.406  0.1886 -0.7462 -2.0304
 3497SOL    HW210491   2.307   2.812   6.404  0.2729 -0.7768  0.8859
 3498SOL     OW10492   0.698   2.679   9.849  0.1688 -0.1001 -0.5600
 3498SOL    HW110493   0.707   2.611   9.915  1.3702 -0.9997 -1.6003
 3498SOL    HW210494   0.669   2.756   9.898 -1.3605 -1.3610  0.6183
 3499SOL     OW10495   4.220   2.728   6.220 -0.0315  0.3066  0.2649
 3499SOL    HW110496   4.147   2.706   6.162 -0.0564 -1.9894  1.0684
 3499SOL    HW210497   4.294   2.679   6.185 -0.2140 -1.7379  2.5054
 3500SOL     OW10498   3.174   2.820   6.986  0.4663 -0.3953  0.6667
 3500SOL    HW110499   3.231   2.752   6.949  0.3469 -1.2176  1.9502
 3500SOL    HW210500   3.087   2.780   6.988 -0.5178  1.2451 -2.3760
 3501SOL     OW10501   1.542   2.415   6.064  0.1653 -0.6661 -0.1974
 3501SOL    HW110502   1.522   2.346   6.001  2.0472  1.4624 -3.4122
 3501SOL    HW210503   1.462   2.467   6.069  0.0579 -0.7297 -1.0769
 3502SOL     OW10504   2.398   4.074   9.094  0.3470 -0.3820 -0.0735
 3502SOL    HW110505   2.432   4.019   9.165  0.0677  0.2347  0.5478
 3502SOL    HW210506   2.324   4.120   9.133  0.5425  0.3945 -0.6035
 3503SOL     OW10507   4.554   2.268   5.079 -0.2578  0.2798 -0.1780
 3503SOL    HW110508   4.565   2.186   5.127 -1.5925 -0.8141 -1.6431
 3503SOL    HW210509   4.490   2.318   5.131 -0.8527 -0.4098 -0.2374
 3504SOL     OW10510   0.314   3.192   5.038 -0.6949 -1.0371  0.2463
 3504SOL    HW110511   0.232   3.223   5.075 -0.5849  2.1553 -1.7871
 3504SOL    HW210512   0.288   3.120   4.980 -2.5258  1.1613 -1.9121
 3505SOL     OW10513   4.065   2.235   5.711  0.6034  0.0818  0.0047
 3505SOL    HW110514   4.156   2.255   5.733  0.7992 -1.2310  0.4783
 3505SOL    HW210515   4.046   2.291   5.636  1.8274  0.3148 -0.1593
 3506SOL     OW10516   3.602   0.440   5.684  0.2636 -0.7289 -0.0680
 3506SOL    HW110517   3.554   0.384   5.624  0.3469 -1.5281  0.5875
 3506SOL    HW210518   3.694   0.419   5.669  0.2346 -2.1405  1.4318
 3507SOL     OW10519   0.995   3.081   7.180  0.3151  0.2564  0.0045
 3507SOL    HW110520   0.909   3.041   7.176  0.4847 -0.3974  1.9566
 3507SOL    HW210521   1.011   3.113   7.091 -1.0898 -1.3535 -0.8832
 3508SOL     OW10522   3.607   3.635   6.542  1.1734 -0.4665 -0.4850
 3508SOL    HW110523   3.522   3.633   6.498 -0.5391 -0.4843  2.5181
 3508SOL    HW210524   3.636   3.544   6.541  1.1421 -0.4740 -1.4878
 3509SOL     OW10525   1.893   1.110   5.330  0.3953  0.1270  0.5473
 3509SOL    HW110526   1.821   1.163   5.297 -0.2896 -0.3761  1.1860
 3509SOL    HW210527   1.956   1.173   5.366  0.5784  0.6039 -0.5686
 3510SOL     OW10528   3.247   1.256   6.674 -0.0337  0.3452  0.6316
 3510SOL    HW110529   3.208   1.249   6.587  0.7420 -1.8097  0.4101
 3510SOL    HW210530   3.172   1.254   6.734 -0.5268  1.1474  0.0620
 3511SOL     OW10531   4.304   1.955   7.000  0.1011 -0.2083 -0.3303
 3511SOL    HW110532   4.293   2.015   6.926 -0.9050  0.3838  0.2787
 3511SOL    HW210533   4.261   1.875   6.972  0.7724 -0.4054 -0.8420
 3512SOL     OW10534   1.328   4.384   5.739  0.1138 -0.0437 -0.3631
 3512SOL    HW110535   1.317   4.380   5.644  0.8578 -0.1359 -0.4478
 3512SOL    HW210536   1.386   4.459   5.753  2.9112 -2.0992 -0.2514
 3513SOL     OW10537   0.404   1.553   5.446 -0.5089 -0.0001 -0.2231
 3513SOL    HW110538   0.407   1.637   5.400 -1.4249  1.7774  2.6939
 3513SOL    HW210539   0.495   1.530   5.461 -0.1414 -0.8867 -3.1154
 3514SOL     OW10540   4.290   1.525   6.285  0.1679 -0.7545 -0.3065
 3514SOL    HW110541   4.287   1.433   6.262 -2.5381 -1.8949  3.5762
 3514SOL    HW210542   4.203   1.545   6.320  1.5678  2.3302  2.0089
 3515SOL     OW10543   3.253   1.163   5.978  0.0830 -0.1956 -0.1935
 3515SOL    HW110544   3.183   1.183   6.040  0.5546 -2.0057  1.0174
 3515SOL    HW210545   3.207   1.141   5.897 -0.5516  2.1442 -0.5369
 3516SOL     OW10546   4.858   1.043   6.308  0.4650 -0.3374 -0.0613
 3516SOL    HW110547   4.924   1.028   6.376 -0.6822 -1.4801  0.8301
 3516SOL    HW210548   4.825   1.131   6.327  0.3468 -0.5361  0.7133
 3517SOL     OW10549   2.131   4.770   8.415  0.3490  0.2262 -0.0926
 3517SOL    HW110550   2.139   4.864   8.401 -0.3838  0.4514  0.8255
 3517SOL    HW210551   2.176   4.754   8.498 -1.0493  0.0947  0.6763
 3518SOL     OW10552   2.799   4.146   5.772 -0.4114 -0.6407  0.1273
 3518SOL    HW110553   2.763   4.150   5.861 -0.4970  2.1422  0.0718
 3518SOL    HW210554   2.894   4.148   5.785 -0.3844  2.3950  0.2588
 3519SOL     OW10555   4.169   3.888   5.393 -0.1500 -0.0997  0.5409
 3519SOL    HW110556   4.211   3.892   5.480 -0.8543  0.4017  0.8663
 3519SOL    HW210557   4.107   3.816   5.400 -0.8433  0.5014  0.7561
 3520SOL     OW10558   4.013   0.924   5.582  0.2506 -0.4733  0.0531
 3520SOL    HW110559   3.920   0.935   5.601  0.5201  1.4502  0.4704
 3520SOL    HW210560   4.045   0.867   5.652 -0.5781 -1.0964 -0.0531
 3521SOL     OW10561   2.603   4.597   5.830 -0.2080  0.2480  0.0872
 3521SOL    HW110562   2.539   4.667   5.815 -1.4439 -0.6779  0.8575
 3521SOL    HW210563   2.636   4.612   5.918  2.9289  2.4360 -1.2624
 3522SOL     OW10564   4.439   0.162   7.883  0.2702  0.0566  0.9534
 3522SOL    HW110565   4.422   0.223   7.954  1.1350 -1.0079  2.1103
 3522SOL    HW210566   4.533   0.146   7.886  0.3901  0.2606 -0.6771
 3523SOL     OW10567   4.364   0.122   4.879  0.0560  0.5598  0.5488
 3523SOL    HW110568   4.427   0.160   4.940 -0.3264 -1.5849  2.4022
 3523SOL    HW210569   4.281   0.166   4.899  0.6315  2.4976 -1.0457
 3524SOL     OW10570  -0.009   4.627   6.370  0.0183 -0.6873 -0.1427
 3524SOL    HW110571   0.005   4.639   6.464 -1.1543 -3.0473  0.4182
 3524SOL    HW210572   0.076   4.645   6.330  0.9001 -0.9730  1.5206
 3525SOL     OW10573   2.965   0.278   6.719  0.5202 -0.1253  0.8310
 3525SOL    HW110574   2.892   0.217   6.703 -0.4523  1.1779  0.0695
 3525SOL    HW210575   2.986   0.266   6.811 -3.2262  2.0354  2.2094
 3526SOL     OW10576   4.069   4.392   6.458 -0.3597 -0.3295 -0.2660
 3526SOL    HW110577   4.062   4.411   6.552  0.2613  1.8026 -0.5943
 3526SOL    HW210578   4.054   4.476   6.416 -2.7284 -1.5906 -2.2387
 3527SOL     OW10579   2.582   3.944   9.296  0.2261  0.0919  0.1050
 3527SOL    HW110580   2.667   3.964   9.256  0.9298 -0.9423  1.0333
 3527SOL    HW210581   2.603   3.915   9.385 -1.1536  0.4006  0.5601
 3528SOL     OW10582   1.331   0.031   5.514 -0.1537  0.2869 -0.6286
 3528SOL    HW110583   1.318   0.103   5.576  0.0475  0.3217 -0.6274
 3528SOL    HW210584   1.285  -0.043   5.553 -0.0566  0.3188 -0.4551
 3529SOL     OW10585   2.747   1.529   7.095 -0.1974  0.4570  0.2278
 3529SOL    HW110586   2.738   1.623   7.110 -1.2028  0.5135 -0.5629
 3529SOL    HW210587   2.770   1.493   7.180 -0.3901  1.3538  0.6744
 3530SOL     OW10588   2.101   4.641   7.612 -0.4287 -0.0092 -0.3252
 3530SOL    HW110589   2.113   4.587   7.534  0.1443  1.2445 -1.1485
 3530SOL    HW210590   2.013   4.677   7.604  0.1134  1.2115 -1.1500
 3531SOL     OW10591   4.773   2.383   6.845  0.2192 -0.2110  0.0718
 3531SOL    HW110592   4.705   2.409   6.783  0.2020 -1.1116 -0.3001
 3531SOL    HW210593   4.848   2.361   6.790  0.5480 -0.0001  0.4335
 3532SOL     OW10594   2.865   3.913   5.009  0.3174 -0.2173  0.1087
 3532SOL    HW110595   2.939   3.895   5.067  0.5969  2.0037  0.5288
 3532SOL    HW210596   2.824   3.827   4.995  1.9519 -1.2443  1.2266
 3533SOL     OW10597   0.762   3.688   5.096 -0.0662 -0.8183 -0.3771
 3533SOL    HW110598   0.794   3.765   5.048  1.2994 -0.4890  1.0050
 3533SOL    HW210599   0.785   3.614   5.039 -2.7253 -0.2124 -2.4446
 3534SOL     OW10600   1.249   3.243   6.688  0.5883  0.6957 -0.2410
 3534SOL    HW110601   1.239   3.329   6.727 -2.1894  0.5675 -0.4568
 3534SOL    HW210602   1.293   3.190   6.755  0.6293  1.7916  0.6176
 3535SOL     OW10603   4.234   1.308   6.475  0.1097  0.0330  0.5986
 3535SOL    HW110604   4.221   1.401   6.494  1.1674 -0.1047  2.1699
 3535SOL    HW210605   4.189   1.262   6.546  0.6419 -0.6276  0.5246
 3536SOL     OW10606   1.541   3.887   8.618  0.0745 -0.3105  0.3582
 3536SOL    HW110607   1.620   3.877   8.565 -0.8933  0.9834 -1.4254
 3536SOL    HW210608   1.472   3.908   8.555 -1.5354 -0.5462  1.9544
 3537SOL     OW10609   0.989   0.073   5.872  0.3553  0.2691  0.6843
 3537SOL    HW110610   0.948   0.127   5.939 -2.5135 -1.4095  0.4198
 3537SOL    HW210611   0.960   0.111   5.789 -0.5265 -0.8070  0.4838
 3538SOL     OW10612   0.631   1.713   8.107  0.5133 -0.6736  0.7144
 3538SOL    HW110613   0.615   1.708   8.201  1.5679 -3.4096  0.8221
 3538SOL    HW210614   0.651   1.624   8.080 -0.4376 -0.1283 -2.2785
 3539SOL     OW10615   0.913   4.102   6.692 -0.0908  0.3751 -0.0764
 3539SOL    HW110616   0.893   4.178   6.746 -3.7421  0.5469 -1.4036
 3539SOL    HW210617   0.877   4.123   6.606 -1.0919 -2.7175 -0.5362
 3540SOL     OW10618   3.739   3.301   5.869 -0.5355  0.2725 -0.3709
 3540SOL    HW110619   3.662   3.280   5.921 -0.3685 -0.3416 -0.3638
 3540SOL    HW210620   3.780   3.374   5.916  0.7484 -1.5699  1.5832
 3541SOL     OW10621   0.896   2.692   4.721  0.2721  0.0195  0.1068
 3541SOL    HW110622   0.979   2.741   4.725 -0.3405  1.2662 -1.4852
 3541SOL    HW210623   0.857   2.717   4.637 -2.3656  0.4972  1.3845
 3542SOL     OW10624   3.784   2.191   4.971  0.1974 -0.1970 -0.2066
 3542SOL    HW110625   3.877   2.179   4.952  0.2964 -0.4020  0.3773
 3542SOL    HW210626   3.770   2.144   5.054  0.1051  1.8177  1.0012
 3543SOL     OW10627   1.171   0.667   7.237 -0.2926  0.7350  0.2260
 3543SOL    HW110628   1.174   0.707   7.150 -2.6786  2.2269  0.7409
 3543SOL    HW210629   1.107   0.597   7.228 -0.0030  0.4163  0.6260
 3544SOL     OW10630   2.596   4.406   5.575  0.1122 -0.2211  0.3593
 3544SOL    HW110631   2.665   4.370   5.520 -0.4228  1.7748 -1.8038
 3544SOL    HW210632   2.641   4.438   5.653  1.8972  1.8659 -1.3811
 3545SOL     OW10633   3.010   4.054   8.158 -0.0897 -0.9192 -0.1889
 3545SOL    HW110634   3.003   3.981   8.220  1.8103 -2.0428 -1.1974
 3545SOL    HW210635   2.933   4.108   8.175 -1.0631 -2.6616  1.2438
 3546SOL     OW10636   5.030   0.847   5.850 -0.3074 -0.6263  0.1157
 3546SOL    HW110637   4.954   0.788   5.855 -0.8321 -0.2204 -2.0346
 3546SOL    HW210638   4.992   0.935   5.852 -0.1149 -0.4040 -2.2274
 3547SOL     OW10639   0.969   3.173   5.946 -0.1200 -0.6222 -0.2009
 3547SOL    HW110640   0.954   3.239   5.879  0.8996  0.6279  0.7416
 3547SOL    HW210641   0.895   3.184   6.007  1.1566  1.2848  1.1509
 3548SOL     OW10642   3.250   4.355   6.121  1.0885  0.0817  0.2921
 3548SOL    HW110643   3.247   4.270   6.076  1.0661 -0.0436  0.5245
 3548SOL    HW210644   3.233   4.419   6.053  1.1926 -0.0962  0.0973
 3549SOL     OW10645   0.998   2.437   5.741  0.3422  0.2805  0.2455
 3549SOL    HW110646   1.001   2.344   5.763 -0.7049 -0.0748 -1.0163
 3549SOL    HW210647   0.953   2.441   5.657 -3.0657  2.2012  1.9263
 3550SOL     OW10648   3.902   0.880   5.134  0.2810 -0.2670 -0.2399
 3550SOL    HW110649   3.982   0.902   5.183  0.6854  0.3055 -1.1231
 3550SOL    HW210650   3.848   0.959   5.141 -1.2709 -1.4200  2.2984
 3551SOL     OW10651   3.358   2.854   6.537 -0.2555 -0.3451 -0.0383
 3551SOL    HW110652   3.338   2.895   6.621  0.2154  0.6313 -0.3933
 3551SOL    HW210653   3.447   2.819   6.548  0.0064  0.2266 -0.2826
 3552SOL     OW10654   1.182   3.037   5.872 -0.8172  0.1043 -0.1221
 3552SOL    HW110655   1.094   3.068   5.894 -0.9516 -0.6934  0.5292
 3552SOL    HW210656   1.168   2.980   5.796 -0.9145 -0.2913  0.1904
 3553SOL     OW10657   4.518   4.551   5.386  0.0283 -0.4166 -0.0544
 3553SOL    HW110658   4.596   4.516   5.343  0.6855  0.8853  0.0584
 3553SOL    HW210659   4.472   4.473   5.417 -0.1198 -1.3808 -2.4543
 3554SOL     OW10660   0.435   1.398   5.188  0.7723  0.0535 -0.5506
 3554SOL    HW110661   0.449   1.492   5.177  0.3499  0.0607 -1.0578
 3554SOL    HW210662   0.489   1.375   5.264  1.7770  0.4881 -1.1097
 3555SOL     OW10663   4.452   2.103   5.946 -0.2786 -0.0169  0.0591
 3555SOL    HW110664   4.545   2.084   5.935 -0.1022 -0.9017  2.3966
 3555SOL    HW210665   4.410   2.070   5.866  0.6087 -6.3017  1.6494
 3556SOL     OW10666   0.365   0.321   5.890  0.6433  0.0023 -0.8795
 3556SOL    HW110667   0.362   0.354   5.980  2.3338 -0.3489 -0.6540
 3556SOL    HW210668   0.326   0.234   5.895  0.4614  0.1015 -0.5505
 3557SOL     OW10669   0.963   4.554   6.966 -1.0822  0.1894  0.2464
 3557SOL    HW110670   1.049   4.582   6.936 -1.0664 -1.0973 -1.0147
 3557SOL    HW210671   0.963   4.573   7.060  0.9119 -0.6074  0.4460
 3558SOL     OW10672   1.085   1.426   7.475 -0.3266 -0.0381  0.4403
 3558SOL    HW110673   1.151   1.470   7.423  0.3388 -2.1117 -0.5616
 3558SOL    HW210674   1.134   1.379   7.542 -0.9204 -0.1654  0.7931
 3559SOL     OW10675   3.584   3.638   5.022 -0.0361 -0.2394  0.3603
 3559SOL    HW110676   3.580   3.684   4.938  2.5610 -3.4939 -1.7641
 3559SOL    HW210677   3.668   3.664   5.059 -0.6974  0.3421  1.5021
 3560SOL     OW10678   0.755   0.203   5.952 -0.1177  0.8082  0.0871
 3560SOL    HW110679   0.712   0.283   5.982 -0.4380  0.9810 -0.8061
 3560SOL    HW210680   0.777   0.221   5.860  0.2725  0.0650  0.0332
 3561SOL     OW10681   2.276   4.269   7.172 -0.4137 -0.0524  0.3020
 3561SOL    HW110682   2.361   4.307   7.147 -0.4522  0.4495  0.8996
 3561SOL    HW210683   2.297   4.182   7.204  0.0019  0.4008  1.3109
 3562SOL     OW10684   4.526   4.116   6.758  0.2776  0.2326  0.1440
 3562SOL    HW110685   4.498   4.027   6.737  0.1896  0.1681  0.5312
 3562SOL    HW210686   4.452   4.171   6.734  0.0322  0.1205  0.6269
 3563SOL     OW10687   3.439   3.249   7.123 -0.3462 -0.1555  0.0948
 3563SOL    HW110688   3.418   3.253   7.216  1.1882  0.4241  0.4500
 3563SOL    HW210689   3.391   3.323   7.084  0.5053  0.7858  0.7711
 3564SOL     OW10690   0.221   0.654   4.864 -0.6691 -0.1406  0.0654
 3564SOL    HW110691   0.247   0.621   4.950 -1.7639  1.6688  1.1612
 3564SOL    HW210692   0.278   0.729   4.849 -1.2839  0.2768 -0.2244
 3565SOL     OW10693   1.701   2.104   8.900 -0.7271 -0.3897 -0.2368
 3565SOL    HW110694   1.698   2.048   8.978 -4.1333 -1.2031 -0.7981
 3565SOL    HW210695   1.710   2.042   8.827 -0.1721  0.1567 -0.6390
 3566SOL     OW10696   4.536   2.658   7.439  0.1455  0.7476  0.0169
 3566SOL    HW110697   4.535   2.736   7.383 -0.5116 -0.5575 -1.8479
 3566SOL    HW210698   4.590   2.595   7.392  0.3211 -0.0967  1.2946
 3567SOL     OW10699   3.025   3.126  10.308  0.1147  0.2713  0.0064
 3567SOL    HW110700   2.958   3.179  10.265  2.0132  0.8750 -2.3999
 3567SOL    HW210701   3.031   3.162  10.397 -2.0672  0.7707  0.0148
 3568SOL     OW10702   4.569   1.366   7.260  0.6643  0.4079  0.0679
 3568SOL    HW110703   4.569   1.335   7.170 -0.4092  0.3863  0.0640
 3568SOL    HW210704   4.514   1.304   7.307  2.5972 -0.5861  1.1269
 3569SOL     OW10705   2.103   3.708   5.292  0.6758  0.4172  0.1313
 3569SOL    HW110706   2.058   3.679   5.371 -0.3301 -3.4926 -1.6429
 3569SOL    HW210707   2.195   3.688   5.308  0.1650 -3.3175 -0.5701
 3570SOL     OW10708   2.516   0.046   4.760 -0.5066  0.3501  0.4379
 3570SOL    HW110709   2.546   0.093   4.837  0.1356  1.4172 -0.4378
 3570SOL    HW210710   2.549  -0.043   4.772  1.4856  1.0497  0.3663
 3571SOL     OW10711   4.113   2.249   6.984 -0.4102 -0.1057  0.5782
 3571SOL    HW110712   4.126   2.238   7.078  0.6786 -0.9055  0.3526
 3571SOL    HW210713   4.112   2.344   6.971  1.5492  0.0227  1.1422
 3572SOL     OW10714   4.630   4.205   7.072  0.0790  0.0515 -0.0752
 3572SOL    HW110715   4.721   4.226   7.094 -0.4386 -0.3357  2.8258
 3572SOL    HW210716   4.637   4.147   6.996  2.2787 -0.2134  0.2570
 3573SOL     OW10717   3.043   2.203   9.593 -0.3134  0.0205 -0.0086
 3573SOL    HW110718   2.997   2.274   9.547 -0.1730 -0.9101 -1.6718
 3573SOL    HW210719   3.080   2.245   9.670 -0.6011  1.6673 -0.7085
 3574SOL     OW10720   1.599   3.238   7.653  0.2995  0.5443 -0.0516
 3574SOL    HW110721   1.515   3.213   7.615 -0.5864 -0.3047  2.3114
 3574SOL    HW210722   1.580   3.317   7.703  0.5601 -0.3573  1.5368
 3575SOL     OW10723   1.664   2.475   6.608  0.3040 -0.3972 -0.0611
 3575SOL    HW110724   1.709   2.396   6.577 -1.6617 -2.1031  1.1391
 3575SOL    HW210725   1.698   2.545   6.553  1.9996 -2.1006 -1.3268
 3576SOL     OW10726   1.422   0.986  10.091  0.1151  0.3826 -0.2318
 3576SOL    HW110727   1.487   0.919  10.069  0.7889  0.9472  0.0056
 3576SOL    HW210728   1.434   1.054  10.025 -3.2604 -1.3923 -3.0265
 3577SOL     OW10729   0.052   3.906   7.304  0.9822 -0.3569  0.5839
 3577SOL    HW110730   0.092   3.903   7.217  2.3715 -0.2886  1.1890
 3577SOL    HW210731  -0.042   3.897   7.288  1.3134 -1.6626 -0.8244
 3578SOL     OW10732   3.912   0.094   6.727 -0.0544 -0.1943  0.4504
 3578SOL    HW110733   3.822   0.126   6.731 -1.1124 -2.6334 -1.3803
 3578SOL    HW210734   3.952   0.143   6.656 -0.3099  0.0842  0.4972
 3579SOL     OW10735   1.942   4.165   5.787  0.9100  0.3337  0.7531
 3579SOL    HW110736   1.860   4.134   5.827  1.0350  2.5870  2.9559
 3579SOL    HW210737   2.011   4.131   5.844  1.4528 -0.3165 -0.2581
 3580SOL     OW10738   2.617   3.586   7.227  0.4020 -0.6032 -0.0700
 3580SOL    HW110739   2.694   3.628   7.267  0.6417  0.1072 -1.2247
 3580SOL    HW210740   2.551   3.655   7.224 -0.8834 -1.6299  2.3646
 3581SOL     OW10741   3.639   1.258   9.147 -0.5303 -0.5355  0.0729
 3581SOL    HW110742   3.695   1.261   9.225  0.9329  1.4577 -0.9710
 3581SOL    HW210743   3.551   1.270   9.181  0.0742  0.3434  1.4511
 3582SOL     OW10744   0.102   2.898   7.685  0.0820  0.5523 -0.0387
 3582SOL    HW110745   0.119   2.993   7.688 -0.6054  0.6527  1.0750
 3582SOL    HW210746   0.146   2.863   7.762  0.7727 -0.1274 -0.7236
 3583SOL     OW10747   0.932   4.372   5.746 -0.2635 -0.2090  0.4108
 3583SOL    HW110748   0.956   4.414   5.828  1.7345 -1.5811  0.5893
 3583SOL    HW210749   0.954   4.280   5.758  1.1130 -0.2768 -1.9855
 3584SOL     OW10750   3.678   3.389   7.118 -0.1934 -0.2859  0.0153
 3584SOL    HW110751   3.679   3.407   7.024 -0.2083 -1.2012 -0.1681
 3584SOL    HW210752   3.598   3.338   7.131 -0.5176  0.3786  0.6308
 3585SOL     OW10753   4.282   1.277   7.056 -0.1266 -0.0554  0.0070
 3585SOL    HW110754   4.360   1.222   7.062  0.2574  0.5369  0.5738
 3585SOL    HW210755   4.209   1.216   7.072  0.2147 -0.6038 -0.4827
 3586SOL     OW10756   2.292   1.823   7.318  0.1194 -0.8658  0.3536
 3586SOL    HW110757   2.240   1.864   7.387  0.3030  1.7116 -0.9007
 3586SOL    HW210758   2.265   1.868   7.238  1.9520 -1.7331 -0.8277
 3587SOL     OW10759   4.627   2.903   9.280  0.6060 -0.1216 -0.0073
 3587SOL    HW110760   4.684   2.829   9.261  1.5546 -0.0325  2.1661
 3587SOL    HW210761   4.657   2.935   9.365 -1.1281  1.4630  0.0759
 3588SOL     OW10762   2.771   4.678   7.849  0.1104 -0.2315  0.5966
 3588SOL    HW110763   2.834   4.609   7.833  0.2579 -0.3074  1.4343
 3588SOL    HW210764   2.809   4.729   7.921  0.3256  1.1266 -0.4492
 3589SOL     OW10765   3.691   1.584   8.203  0.6614  0.2183 -0.0052
 3589SOL    HW110766   3.706   1.642   8.129  1.1865 -1.2747 -1.1259
 3589SOL    HW210767   3.745   1.507   8.184  0.1429 -0.5574  1.5108
 3590SOL     OW10768   1.225   4.614   9.680  0.2087 -0.3649 -0.0503
 3590SOL    HW110769   1.319   4.598   9.675  0.4536  0.9644 -0.2158
 3590SOL    HW210770   1.209   4.682   9.614 -0.4799  0.9576  1.3919
 3591SOL     OW10771   3.059   2.580   9.011  0.7436  0.0229 -0.6372
 3591SOL    HW110772   3.091   2.491   9.020 -2.2481 -1.4101 -2.5716
 3591SOL    HW210773   3.019   2.600   9.096  0.4371 -0.9342 -0.5461
 3592SOL     OW10774   1.857   3.925   5.094 -1.0187  0.0723  0.3454
 3592SOL    HW110775   1.918   3.995   5.118 -1.2612  0.2317  0.5001
 3592SOL    HW210776   1.913   3.850   5.076 -0.8765 -0.3544  2.3816
 3593SOL     OW10777   4.408   3.890   5.606  0.5712 -0.1128 -0.2291
 3593SOL    HW110778   4.415   3.983   5.629  0.7395  0.0495 -0.9011
 3593SOL    HW210779   4.358   3.851   5.677 -0.2330  0.6553 -0.3557
 3594SOL     OW10780   0.880   4.049   8.983 -0.2840 -0.3812  0.0637
 3594SOL    HW110781   0.807   4.053   9.045  0.3096  1.6701  0.7116
 3594SOL    HW210782   0.862   3.972   8.929 -1.7061 -1.2585  1.6915
 3595SOL     OW10783   1.356   2.892   9.040 -0.4118  0.0337 -0.2013
 3595SOL    HW110784   1.327   2.842   8.964  1.1478  1.0570 -1.5481
 3595SOL    HW210785   1.384   2.826   9.104  1.0510 -0.8742 -1.7033
 3596SOL     OW10786   3.709   1.960   5.229 -0.0653  0.0376  0.3591
 3596SOL    HW110787   3.724   1.879   5.180 -0.0586  1.1815 -1.6290
 3596SOL    HW210788   3.632   1.999   5.186 -0.7102  0.5945  1.9603
 3597SOL     OW10789   1.806   2.050   7.284 -0.5270 -0.6900 -0.0340
 3597SOL    HW110790   1.874   1.999   7.240  1.0159 -1.1580  2.6327
 3597SOL    HW210791   1.754   2.087   7.213  1.3178 -1.9181 -2.1784
 3598SOL     OW10792   0.813   3.659   7.358  0.3261 -0.2941  0.5117
 3598SOL    HW110793   0.889   3.607   7.382  1.6248  1.2869 -0.0113
 3598SOL    HW210794   0.791   3.631   7.269 -0.8874 -2.0397  1.3117
 3599SOL     OW10795   4.142   2.203   9.437  0.2656  0.3475 -0.2162
 3599SOL    HW110796   4.213   2.264   9.421  1.3759 -1.5111 -3.0993
 3599SOL    HW210797   4.062   2.256   9.430  1.2401  2.2626  2.0653
 3600SOL     OW10798   2.073   4.063   9.171 -0.7767  0.3038  0.3146
 3600SOL    HW110799   2.128   3.986   9.184 -2.4399 -1.2674 -1.4376
 3600SOL    HW210800   2.054   4.094   9.260  0.8124 -0.6404  1.0208
 3601SOL     OW10801   4.624   3.631   6.633  0.8979  0.2349 -0.3223
 3601SOL    HW110802   4.653   3.679   6.556  4.8380 -2.5165 -0.8771
 3601SOL    HW210803   4.704   3.615   6.683 -0.6702 -2.6003  1.5814
 3602SOL     OW10804   4.288   0.875   9.726  0.2936 -0.2506 -0.0073
 3602SOL    HW110805   4.253   0.929   9.654  0.2578 -1.9799 -1.3648
 3602SOL    HW210806   4.294   0.935   9.800 -0.0481  1.5250 -1.3407
 3603SOL     OW10807   5.023   4.900   7.260 -0.5516 -0.5235 -0.2566
 3603SOL    HW110808   5.020   4.944   7.345  0.1698  0.4207 -0.7009
 3603SOL    HW210809   4.932   4.880   7.239 -0.8816  0.6605  0.0097
 3604SOL     OW10810   3.032   2.870   8.075 -0.7686 -0.4742  0.1024
 3604SOL    HW110811   3.065   2.917   8.152 -0.9263 -1.5026  0.8085
 3604SOL    HW210812   3.005   2.940   8.015 -0.8132  0.3512  1.0521
 3605SOL     OW10813   4.139   0.235   9.441 -0.2196  0.4019 -0.0999
 3605SOL    HW110814   4.136   0.251   9.536 -3.4676 -1.2860  0.2259
 3605SOL    HW210815   4.133   0.140   9.433 -0.7336  0.5615 -2.0188
 3606SOL     OW10816   4.044   2.075   8.189  0.3267 -0.4285 -0.6018
 3606SOL    HW110817   3.993   2.032   8.120  1.6772  0.7577 -2.4454
 3606SOL    HW210818   4.088   2.003   8.235 -3.1755 -1.5487  1.3794
 3607SOL     OW10819   1.284   1.858   5.278  0.0981  0.1583  0.5185
 3607SOL    HW110820   1.216   1.791   5.269  0.0948 -0.0920  2.0841
 3607SOL    HW210821   1.234   1.939   5.296  0.1750 -0.0549  1.8269
 3608SOL     OW10822   3.174   1.914   7.591  0.5688 -0.3319  0.6260
 3608SOL    HW110823   3.266   1.937   7.589  0.1787  1.2785  0.1021
 3608SOL    HW210824   3.172   1.820   7.569  2.1654 -0.8074  2.3217
 3609SOL     OW10825   4.027   2.924   7.428 -0.1311 -0.5472  0.2331
 3609SOL    HW110826   4.103   2.866   7.421 -0.6003 -1.0895 -0.5226
 3609SOL    HW210827   3.998   2.938   7.338 -0.1940  0.6576  0.4159
 3610SOL     OW10828   2.625   3.712   8.558 -0.7915  0.2663 -0.5185
 3610SOL    HW110829   2.588   3.711   8.646 -0.3191  1.1228 -0.3033
 3610SOL    HW210830   2.669   3.627   8.550 -0.7867  0.2073  0.0975
 3611SOL     OW10831   3.201   0.901   9.151 -0.8169 -0.4216 -0.3661
 3611SOL    HW110832   3.214   0.969   9.218 -0.2528  0.0420 -0.9394
 3611SOL    HW210833   3.124   0.852   9.182  0.4325 -1.3160  1.5275
 3612SOL     OW10834   0.977   2.614   7.372 -0.1070 -0.5588  0.4674
 3612SOL    HW110835   1.003   2.530   7.409  0.4374  0.1278  1.7065
 3612SOL    HW210836   0.915   2.651   7.435  0.7214  0.5788  0.6487
 3613SOL     OW10837   1.358   2.416   7.177 -0.6526 -0.5997 -0.2406
 3613SOL    HW110838   1.334   2.433   7.086 -1.8924 -3.0713 -0.4658
 3613SOL    HW210839   1.275   2.413   7.224 -0.2151 -1.4947  0.5226
 3614SOL     OW10840   3.563   2.083   7.526  0.5185 -0.4777 -0.2669
 3614SOL    HW110841   3.600   2.171   7.533  1.0879 -0.6344 -1.1096
 3614SOL    HW210842   3.621   2.038   7.464  0.3179 -1.4869  0.2505
 3615SOL     OW10843   0.437   1.003   6.742 -0.8993  0.0674 -0.1766
 3615SOL    HW110844   0.525   0.973   6.766 -1.0502  0.6419  1.1645
 3615SOL    HW210845   0.385   0.990   6.821 -1.3105  2.4457  0.0188
 3616SOL     OW10846   4.682   2.793   5.181  0.9278 -0.4218 -0.3394
 3616SOL    HW110847   4.604   2.846   5.167  0.5725 -1.1909 -1.3831
 3616SOL    HW210848   4.754   2.849   5.151  0.7623  0.1552  0.3024
 3617SOL     OW10849   1.871   1.907   4.845 -0.2868 -0.2191 -0.2166
 3617SOL    HW110850   1.830   1.993   4.852 -0.0705 -0.0375 -1.0617
 3617SOL    HW210851   1.949   1.922   4.790  1.7314 -0.2817  2.4491
 3618SOL     OW10852   2.673   3.327   7.963 -0.0716  0.4443 -0.1934
 3618SOL    HW110853   2.599   3.268   7.948 -0.2067  0.5091  0.2153
 3618SOL    HW210854   2.690   3.322   8.057 -0.0509  1.0114 -0.1632
 3619SOL     OW10855   4.853   4.209   9.871 -0.3850 -0.1191  0.9255
 3619SOL    HW110856   4.773   4.262   9.869 -0.7160 -0.6034  1.0946
 3619SOL    HW210857   4.872   4.197   9.964  1.0874  1.7563  0.9160
 3620SOL     OW10858   4.120   3.943   5.909  0.0495 -0.0813  0.1621
 3620SOL    HW110859   4.124   4.014   5.973 -0.7659  0.7586 -0.6899
 3620SOL    HW210860   4.075   3.981   5.834 -0.6098 -1.5835 -0.2293
 3621SOL     OW10861   0.303   3.336   6.588 -0.2017  0.3890  0.0241
 3621SOL    HW110862   0.216   3.332   6.628 -0.4552 -1.4235 -0.6200
 3621SOL    HW210863   0.299   3.274   6.515  1.5473  0.4934 -0.2009
 3622SOL     OW10864   3.464   1.911   5.481  0.0246  0.0043  0.9901
 3622SOL    HW110865   3.384   1.878   5.440  0.7022  0.0448 -0.4146
 3622SOL    HW210866   3.515   1.833   5.501  2.1769 -0.0513 -3.4377
 3623SOL     OW10867   1.674   1.720   8.874 -0.4197  0.8276  0.3317
 3623SOL    HW110868   1.626   1.642   8.901  0.3710 -0.0534 -0.7042
 3623SOL    HW210869   1.752   1.721   8.929  2.3029 -2.1668 -2.9698
 3624SOL     OW10870   2.659   3.923   9.619  0.4143  0.0113  0.0197
 3624SOL    HW110871   2.626   3.833   9.618 -1.1660  0.4842 -3.1968
 3624SOL    HW210872   2.656   3.948   9.711  0.6588 -3.0969  0.9838
 3625SOL     OW10873   2.265   3.564   7.237 -0.1165  0.0953  0.7442
 3625SOL    HW110874   2.238   3.656   7.233  0.3361  0.1834 -1.4440
 3625SOL    HW210875   2.264   3.534   7.146 -1.0412 -2.3335  1.4572
 3626SOL     OW10876   3.382   3.845   8.460  0.3714 -0.1639  0.1345
 3626SOL    HW110877   3.322   3.784   8.416  2.6512 -0.5209 -2.8799
 3626SOL    HW210878   3.339   3.930   8.455 -0.4344 -0.6083 -0.8829
 3627SOL     OW10879   0.208   2.098   5.035 -0.2491  0.2739 -0.8224
 3627SOL    HW110880   0.209   2.003   5.042 -2.0660  0.2744  0.0718
 3627SOL    HW210881   0.297   2.125   5.057 -0.0129 -1.1636  0.0881
 3628SOL     OW10882   1.135   4.437   8.782  0.4249  0.3843 -0.0198
 3628SOL    HW110883   1.229   4.447   8.767  0.1544  0.1606 -2.1316
 3628SOL    HW210884   1.127   4.357   8.834  1.4221  0.7275  0.6845
 3629SOL     OW10885   1.876   0.453   7.329  0.8174  0.2562 -0.1085
 3629SOL    HW110886   1.926   0.376   7.301  3.8799  2.0731 -0.0517
 3629SOL    HW210887   1.909   0.472   7.416 -1.9618  0.0919  1.0905
 3630SOL     OW10888   0.650   0.781   6.905  0.0142 -0.3282  0.6941
 3630SOL    HW110889   0.725   0.721   6.899  0.7245  0.5928  0.1640
 3630SOL    HW210890   0.597   0.760   6.828  2.8480  3.0824 -2.5555
 3631SOL     OW10891   4.706   3.048   8.198 -0.0353  0.0264 -0.2314
 3631SOL    HW110892   4.767   2.984   8.236  0.4604  1.2936  1.2036
 3631SOL    HW210893   4.627   3.039   8.251 -0.9608 -1.2129 -1.7288
 3632SOL     OW10894   2.359   3.159   6.531  0.0124  0.8974  0.3560
 3632SOL    HW110895   2.318   3.115   6.605  0.5144 -1.1127 -0.4948
 3632SOL    HW210896   2.384   3.088   6.471  0.0446  2.3996 -1.5301
 3633SOL     OW10897   2.504   0.067   9.644 -0.1828 -0.1410 -0.6475
 3633SOL    HW110898   2.469   0.153   9.665  1.6825  1.4265 -3.3430
 3633SOL    HW210899   2.562   0.045   9.717 -1.1114  0.6025  0.3265
 3634SOL     OW10900   3.436   3.051   8.280  0.2170 -0.0761 -0.4850
 3634SOL    HW110901   3.341   3.063   8.280  0.2182  0.0503 -1.6650
 3634SOL    HW210902   3.449   2.959   8.301  0.0015  0.6092  3.2976
 3635SOL     OW10903   4.259   0.357   8.751 -0.2206 -0.7159 -0.7152
 3635SOL    HW110904   4.233   0.265   8.752  1.0984 -1.1285  0.9892
 3635SOL    HW210905   4.177   0.405   8.761 -0.7321 -1.8187  0.9135
 3636SOL     OW10906   2.210   1.852   8.477 -0.6873 -0.1935  0.3306
 3636SOL    HW110907   2.126   1.807   8.471 -0.6281 -0.2639  0.0288
 3636SOL    HW210908   2.239   1.861   8.386  0.8322 -2.3930  0.5438
 3637SOL     OW10909   4.123   3.846   7.371 -0.3236  0.1792  0.1418
 3637SOL    HW110910   4.039   3.884   7.398 -0.6176 -0.4966  0.2024
 3637SOL    HW210911   4.117   3.754   7.397  0.2725  0.0284 -0.2345
 3638SOL     OW10912   4.662   3.275   6.443 -0.2651  0.5609 -0.2362
 3638SOL    HW110913   4.736   3.308   6.494 -0.3979  0.7727 -0.1796
 3638SOL    HW210914   4.585   3.317   6.481 -0.2320  1.8490 -1.5128
 3639SOL     OW10915   3.351   1.261   5.641 -0.1865  0.2591  0.1442
 3639SOL    HW110916   3.284   1.303   5.695 -0.7912 -0.4659 -0.0238
 3639SOL    HW210917   3.386   1.331   5.587  0.8766  1.1530  1.8908
 3640SOL     OW10918   2.279   3.012   7.727 -0.0480  0.0755  0.0741
 3640SOL    HW110919   2.291   3.102   7.697 -1.3395  1.0287  2.1878
 3640SOL    HW210920   2.253   3.020   7.818  0.8040 -2.5273  0.6328
 3641SOL     OW10921   2.466   4.016   6.233 -0.3097 -0.2472  0.4281
 3641SOL    HW110922   2.557   4.026   6.262 -0.0175  1.4872 -0.9126
 3641SOL    HW210923   2.473   3.978   6.146 -0.7371  1.4398 -0.3780
 3642SOL     OW10924   1.685   1.920   9.846 -0.5064 -0.9341  0.4841
 3642SOL    HW110925   1.630   1.865   9.790 -0.1185  0.5592 -1.4727
 3642SOL    HW210926   1.635   1.930   9.927 -1.5929 -2.2761  0.0080
 3643SOL     OW10927   3.393   0.050   6.626 -0.7434 -0.6188  0.3236
 3643SOL    HW110928   3.412   0.046   6.532  1.0182  0.3020  0.5977
 3643SOL    HW210929   3.342  -0.030   6.644  2.0477 -2.7977 -0.7504
 3644SOL     OW10930   3.922   2.857   6.871 -0.5965  0.4453 -0.4082
 3644SOL    HW110931   3.877   2.908   6.804  0.6056  2.0826 -0.0575
 3644SOL    HW210932   4.009   2.840   6.835 -0.1062  0.9056  0.5005
 3645SOL     OW10933   4.755   4.245   7.557  0.0838 -1.1121  0.5758
 3645SOL    HW110934   4.759   4.167   7.502  1.2838  0.0415 -1.0829
 3645SOL    HW210935   4.675   4.235   7.608 -2.0300 -1.5496 -2.5364
 3646SOL     OW10936   3.545   0.350   9.638  0.1450  0.6038 -0.4895
 3646SOL    HW110937   3.628   0.314   9.669 -0.0368  1.1823  0.7515
 3646SOL    HW210938   3.484   0.336   9.710 -0.8697  0.1455 -1.4034
 3647SOL     OW10939   2.378   1.628   9.430 -0.2951  0.0423  0.7805
 3647SOL    HW110940   2.325   1.647   9.353 -0.1848  0.4348  0.7947
 3647SOL    HW210941   2.320   1.649   9.504  0.4541  2.3428  0.8141
 3648SOL     OW10942   0.391   4.367   6.229  0.2689  0.3246  0.0808
 3648SOL    HW110943   0.451   4.311   6.180  1.1683  1.2222  0.1203
 3648SOL    HW210944   0.364   4.313   6.304 -0.7113 -0.8681 -1.0804
 3649SOL     OW10945   1.038   2.207   8.577 -0.3647  0.1638 -0.4162
 3649SOL    HW110946   1.000   2.207   8.665  0.2041  0.0821 -0.1623
 3649SOL    HW210947   0.964   2.225   8.519 -1.0685 -1.4125 -0.0612
 3650SOL     OW10948   0.154   4.117   8.694  0.0248 -0.6186 -0.2525
 3650SOL    HW110949   0.175   4.182   8.761 -0.2685 -0.0737 -0.6863
 3650SOL    HW210950   0.232   4.061   8.689  1.7909  1.7877 -2.3381
 3651SOL     OW10951   0.605   2.510   7.545  0.1826 -0.4123 -0.2745
 3651SOL    HW110952   0.542   2.456   7.496  0.9155 -0.0099 -1.7186
 3651SOL    HW210953   0.578   2.502   7.636 -0.6623 -1.9614 -0.6330
 3652SOL     OW10954   4.785   1.737   6.990  0.4652  0.0378 -0.2460
 3652SOL    HW110955   4.728   1.728   7.066  1.8513  0.8537  0.9408
 3652SOL    HW210956   4.825   1.824   7.000  0.3901  0.3276 -2.1140
 3653SOL     OW10957   3.543   0.586   5.201 -0.1170  0.2037 -0.0575
 3653SOL    HW110958   3.498   0.573   5.117 -0.2847 -1.5196  0.2636
 3653SOL    HW210959   3.630   0.617   5.177  0.1564 -1.1361 -0.9613
 3654SOL     OW10960   2.131   1.959   7.507  0.4086  0.5026  0.1487
 3654SOL    HW110961   2.102   2.017   7.437  1.0800 -1.9831 -2.3990
 3654SOL    HW210962   2.128   2.012   7.587 -2.5698  2.8566 -1.3570
 3655SOL     OW10963   2.992   4.517   8.202 -0.6112  0.1233 -0.4618
 3655SOL    HW110964   2.984   4.589   8.264  2.4569 -0.0616  0.3510
 3655SOL    HW210965   2.992   4.559   8.116 -1.9949  0.7151 -0.1824
 3656SOL     OW10966   2.463   2.191   6.924 -0.8394 -0.2136  0.9327
 3656SOL    HW110967   2.454   2.236   6.840 -3.1798  0.5352  1.5140
 3656SOL    HW210968   2.511   2.252   6.980  0.0557 -0.4007  0.3837
 3657SOL     OW10969   2.960   4.749   6.098 -0.6192  0.2255  0.1267
 3657SOL    HW110970   3.023   4.791   6.038 -0.5128 -0.4632 -0.2570
 3657SOL    HW210971   3.012   4.727   6.175 -0.2134 -0.9138 -0.4400
 3658SOL     OW10972   1.788   3.335   9.426  0.3946 -0.6463 -0.4681
 3658SOL    HW110973   1.704   3.348   9.383  0.6937  0.1998 -0.8191
 3658SOL    HW210974   1.806   3.242   9.417  0.6058 -0.4497 -2.4728
 3659SOL     OW10975   1.476   3.503   5.454  0.9375 -1.0212  0.8829
 3659SOL    HW110976   1.446   3.593   5.442  2.2594 -0.7502 -0.7438
 3659SOL    HW210977   1.398   3.455   5.483 -0.3248  0.2101 -0.3358
 3660SOL     OW10978   0.125   4.390   6.108  0.5215 -0.1371 -0.3798
 3660SOL    HW110979   0.219   4.382   6.094  0.6009  0.6021 -0.3283
 3660SOL    HW210980   0.116   4.398   6.203  0.3594 -0.6930 -0.3426
 3661SOL     OW10981   3.777   1.671   9.406  0.0061  0.2204 -0.6791
 3661SOL    HW110982   3.720   1.697   9.333  1.0174  1.9343 -0.9116
 3661SOL    HW210983   3.783   1.750   9.460  2.1660  0.1063 -0.6787
 3662SOL     OW10984   4.064   0.841   9.036 -0.3676  0.5755 -0.5522
 3662SOL    HW110985   4.088   0.889   9.114 -0.1192  0.3623 -0.4955
 3662SOL    HW210986   4.147   0.806   9.002 -0.3560  1.3491 -1.3721
 3663SOL     OW10987   4.232   1.390   5.896  0.1814  1.3070 -0.0658
 3663SOL    HW110988   4.208   1.314   5.843  1.1122  0.9623 -0.0028
 3663SOL    HW210989   4.283   1.353   5.968 -1.4675  1.7017  1.3721
 3664SOL     OW10990   3.834   0.859   9.482 -0.6801 -0.1203  0.8983
 3664SOL    HW110991   3.809   0.767   9.474 -0.7763  0.0466 -1.1321
 3664SOL    HW210992   3.753   0.907   9.462  0.1116  0.4015 -1.1897
 3665SOL     OW10993   3.902   2.603   9.169 -0.0487  0.8596 -0.7204
 3665SOL    HW110994   3.960   2.550   9.114 -1.3683  0.9545 -2.2816
 3665SOL    HW210995   3.854   2.539   9.221  0.6480  0.7199 -0.2379
 3666SOL     OW10996   1.988   3.327   9.661  0.3062 -0.5780 -0.5567
 3666SOL    HW110997   2.012   3.254   9.604 -1.9712 -0.9172 -1.1795
 3666SOL    HW210998   1.994   3.404   9.605  0.9559 -0.4977 -0.3921
 3667SOL     OW10999   3.820   4.525  10.411  0.3989 -0.1323  0.1403
 3667SOL    HW111000   3.872   4.466  10.465  0.5421  2.4380  3.0581
 3667SOL    HW211001   3.868   4.608  10.413 -1.9989  1.3319 -0.0833
 3668SOL     OW11002   4.282   3.100   6.011 -0.1868 -0.0083 -0.1845
 3668SOL    HW111003   4.266   3.167   5.944 -1.3988  0.4443  0.5194
 3668SOL    HW211004   4.376   3.100   6.024 -0.2555  2.4709  0.6971
 3669SOL     OW11005   2.069   2.715  10.152 -0.2874  0.1297 -0.4946
 3669SOL    HW111006   2.001   2.759  10.100  1.0134  2.3419 -0.4588
 3669SOL    HW211007   2.111   2.786  10.201 -0.9057 -1.6865  3.0622
 3670SOL     OW11008   3.543   1.969   6.812  0.3642  1.0005  0.5518
 3670SOL    HW111009   3.583   2.012   6.736 -0.9925  2.7722  0.7870
 3670SOL    HW211010   3.461   1.932   6.779  0.5547  0.3295  0.8111
 3671SOL     OW11011   3.941   3.955   7.621 -0.3453  0.1719  0.2050
 3671SOL    HW111012   4.020   3.902   7.632 -0.6165  0.0268  1.6218
 3671SOL    HW211013   3.874   3.893   7.593 -1.0803 -0.6641  3.4030
 3672SOL     OW11014   4.729   3.589   7.264 -0.0332 -0.4954 -0.9614
 3672SOL    HW111015   4.793   3.632   7.208 -0.0602  2.1344  0.8749
 3672SOL    HW211016   4.646   3.598   7.218 -0.1761  2.2359 -0.3437
 3673SOL     OW11017   3.849   0.351   8.533  0.7099  0.1632  0.3325
 3673SOL    HW111018   3.812   0.285   8.475 -0.8309  0.3524  1.0498
 3673SOL    HW211019   3.915   0.305   8.585  1.6184 -0.1572 -1.0647
 3674SOL     OW11020   4.150   1.732   9.602 -0.6306  0.2333 -0.3056
 3674SOL    HW111021   4.083   1.795   9.628 -1.6338  0.0497 -2.2571
 3674SOL    HW211022   4.110   1.647   9.620 -0.8095  0.1284 -1.1491
 3675SOL     OW11023   3.553   4.480   7.543  1.1851  0.8452 -0.1369
 3675SOL    HW111024   3.549   4.449   7.452 -0.1572  2.4191 -0.6666
 3675SOL    HW211025   3.497   4.419   7.592  2.3843 -0.3663 -0.2131
 3676SOL     OW11026   0.647   4.289   7.047 -0.0571  0.1391  0.1372
 3676SOL    HW111027   0.723   4.276   6.991  0.9716 -0.9206  1.6826
 3676SOL    HW211028   0.620   4.380   7.031  0.1467 -0.1351 -2.0470
 3677SOL     OW11029   0.551   1.768  10.134  0.2057 -0.1056  0.1852
 3677SOL    HW111030   0.552   1.673  10.141  2.5455 -0.0545  1.9672
 3677SOL    HW211031   0.597   1.787  10.052  1.1819 -0.5464  0.6094
 3678SOL     OW11032   2.477   0.794   6.314 -0.2276 -0.1907 -0.0615
 3678SOL    HW111033   2.454   0.875   6.359  2.1514  0.4384  0.1449
 3678SOL    HW211034   2.540   0.751   6.372  0.2808 -1.0454 -1.2076
 3679SOL     OW11035   2.354   1.370   8.505 -0.0508 -0.7230 -0.4980
 3679SOL    HW111036   2.288   1.419   8.456 -1.5566 -1.9173  0.2534
 3679SOL    HW211037   2.435   1.382   8.454 -0.9647  0.2392 -1.8090
 3680SOL     OW11038   1.478   2.541   5.402  0.6171 -0.1847 -0.6199
 3680SOL    HW111039   1.477   2.592   5.320 -0.1265  0.1525 -0.4073
 3680SOL    HW211040   1.424   2.592   5.462 -0.2784 -1.2994 -0.4494
 3681SOL     OW11041   0.386   0.774   5.064  0.1535  0.4551  0.4752
 3681SOL    HW111042   0.413   0.682   5.070 -0.1780  0.2041 -1.2987
 3681SOL    HW211043   0.420   0.814   5.143 -1.5108 -1.6409  2.3802
 3682SOL     OW11044   3.082   3.656   9.732  0.2545  0.3244  0.4387
 3682SOL    HW111045   3.055   3.711   9.805  1.2052 -1.6540  2.3967
 3682SOL    HW211046   3.175   3.674   9.720  0.4961 -0.5900  0.8748
 3683SOL     OW11047   3.583   0.766   4.867 -0.5413  0.8572 -0.0973
 3683SOL    HW111048   3.540   0.769   4.781 -2.6600 -0.5663  0.8225
 3683SOL    HW211049   3.577   0.857   4.899 -3.2031  0.7087  0.0588
 3684SOL     OW11050   4.350   0.973   9.451 -0.1810  0.4591  0.7289
 3684SOL    HW111051   4.330   1.066   9.462 -0.4484  0.4285  0.5152
 3684SOL    HW211052   4.436   0.962   9.492  0.1610  0.9391  0.1668
 3685SOL     OW11053   2.560   3.322   7.266 -0.4434  0.4515 -0.1767
 3685SOL    HW111054   2.577   3.414   7.242 -0.2154  1.0495  2.0730
 3685SOL    HW211055   2.631   3.300   7.326 -0.5944 -1.1732 -0.5664
 3686SOL     OW11056   0.163   1.532   5.183  0.1423  0.5086 -0.1482
 3686SOL    HW111057   0.110   1.474   5.128 -1.2917 -0.2047  1.8618
 3686SOL    HW211058   0.239   1.479   5.206  1.1469  1.0682 -1.9406
 3687SOL     OW11059   0.596   4.921   5.360 -0.7943  0.5437  0.0299
 3687SOL    HW111060   0.639   4.997   5.400  0.0427  0.7966 -1.2731
 3687SOL    HW211061   0.662   4.885   5.301 -1.7875 -0.1449 -0.6911
 3688SOL     OW11062   0.047   3.603   9.015 -0.7728 -0.3336 -0.3241
 3688SOL    HW111063   0.115   3.547   9.052  0.1294  0.5373 -0.6210
 3688SOL    HW211064   0.044   3.679   9.073  0.0627  0.6450 -1.5127
 3689SOL     OW11065   1.783   3.725   9.273 -0.1516 -0.3660  0.3648
 3689SOL    HW111066   1.874   3.736   9.247  0.3092 -2.6662  0.8075
 3689SOL    HW211067   1.746   3.813   9.267  1.4639  0.2649 -2.1140
 3690SOL     OW11068   4.908   2.236   8.563 -0.4185 -0.7379 -0.4867
 3690SOL    HW111069   4.978   2.301   8.551  1.5208 -2.8397 -1.2963
 3690SOL    HW211070   4.849   2.250   8.489 -0.8317  0.9593  0.1108
 3691SOL     OW11071   2.777   4.046   7.811 -0.4016 -0.1847  0.8641
 3691SOL    HW111072   2.784   4.068   7.904  0.5516  0.6768  0.6110
 3691SOL    HW211073   2.765   4.131   7.767  1.9525 -0.2449 -0.0273
 3692SOL     OW11074   4.813   2.258   5.927 -1.0560 -0.1398  0.2036
 3692SOL    HW111075   4.897   2.248   5.883 -0.9630  0.9517  0.1094
 3692SOL    HW211076   4.830   2.235   6.018 -1.1741 -2.0823 -0.2145
 3693SOL     OW11077   0.485   0.633   7.768 -0.5141 -0.4040  0.0792
 3693SOL    HW111078   0.511   0.683   7.691  0.7243 -0.0336  0.7205
 3693SOL    HW211079   0.501   0.542   7.744  0.5834 -0.2419  0.1461
 3694SOL     OW11080   1.560   3.663   7.251 -0.0683  0.1172  0.1655
 3694SOL    HW111081   1.648   3.701   7.256  0.6007 -1.4799  1.1413
 3694SOL    HW211082   1.527   3.689   7.165  1.2750  0.8976 -0.1365
 3695SOL     OW11083   0.565   1.702   6.171  0.2679 -0.4419 -0.0070
 3695SOL    HW111084   0.497   1.755   6.130  0.9425  1.4660  1.2063
 3695SOL    HW211085   0.630   1.689   6.103  0.3096  0.7307 -0.2099
 3696SOL     OW11086   3.352   3.501   9.127 -0.2093  0.9380 -0.2433
 3696SOL    HW111087   3.321   3.515   9.216  0.3239  0.3747  0.0363
 3696SOL    HW211088   3.421   3.435   9.135  0.5254  1.5911 -0.9399
 3697SOL     OW11089   1.111   3.755   8.803  0.2675  0.0700  0.6083
 3697SOL    HW111090   1.170   3.737   8.730 -0.2931  1.4199 -0.2098
 3697SOL    HW211091   1.158   3.722   8.880  2.1118  1.0669 -0.0053
 3698SOL     OW11092   2.031   4.240   8.650 -0.5333  0.2424 -0.2335
 3698SOL    HW111093   2.005   4.157   8.690  2.9013  0.0860  2.0959
 3698SOL    HW211094   2.035   4.302   8.723  0.1092  1.5808 -1.3598
 3699SOL     OW11095   2.702   4.589   9.719 -0.6858  0.3127  0.4009
 3699SOL    HW111096   2.702   4.579   9.624 -0.2331  0.9107  0.3338
 3699SOL    HW211097   2.692   4.683   9.733 -3.1789  0.0138  0.9887
 3700SOL     OW11098   1.969   0.954   6.179  0.2668 -0.2967 -0.2675
 3700SOL    HW111099   1.901   0.898   6.216  0.9583 -2.0359 -1.5018
 3700SOL    HW211100   1.935   0.982   6.094  1.1490 -1.3565 -0.9907
 3701SOL     OW11101   4.492   3.856   9.166  0.2966  0.2249 -0.1533
 3701SOL    HW111102   4.500   3.919   9.094  0.9206  2.1692  1.5073
 3701SOL    HW211103   4.402   3.867   9.197  0.7453  1.1976  0.8694
 3702SOL     OW11104   4.526   2.594   9.366 -0.0185  0.0324 -0.3209
 3702SOL    HW111105   4.601   2.642   9.333  0.3904 -1.1330 -1.1722
 3702SOL    HW211106   4.556   2.503   9.368 -1.0073 -0.2858  0.5062
 3703SOL     OW11107   2.142   1.599   7.376 -0.4127  0.3704 -0.0468
 3703SOL    HW111108   2.160   1.541   7.450 -0.5924 -1.5194 -1.4121
 3703SOL    HW211109   2.224   1.648   7.364 -0.2372  0.3958  1.1212
 3704SOL     OW11110   4.762   2.782   8.330 -0.0369 -0.1105  0.0561
 3704SOL    HW111111   4.689   2.745   8.379  0.6865 -0.0905  1.1882
 3704SOL    HW211112   4.785   2.715   8.266  0.4611 -1.1118  1.2649
 3705SOL     OW11113   3.813   2.915  10.163  0.1443 -0.1430 -0.2039
 3705SOL    HW111114   3.758   2.951  10.093  0.4219 -0.8465 -0.8040
 3705SOL    HW211115   3.797   2.821  10.159 -0.4550 -0.1194  1.2368
 3706SOL     OW11116   4.911   2.779   6.978 -0.3235  0.0966  0.6252
 3706SOL    HW111117   4.952   2.851   6.929 -0.6122 -1.3856 -1.9643
 3706SOL    HW211118   4.962   2.773   7.059  2.4812  0.4381 -0.9937
 3707SOL     OW11119   2.652   4.188   9.002  0.7600 -0.2211 -0.1143
 3707SOL    HW111120   2.654   4.283   9.009  0.9869  0.1226 -3.4536
 3707SOL    HW211121   2.561   4.165   9.021  1.1608  0.2895  3.0087
 3708SOL     OW11122   3.868   2.078   8.823  0.0350  0.0732 -0.3723
 3708SOL    HW111123   3.847   2.156   8.874 -1.1316  1.0778 -2.2912
 3708SOL    HW211124   3.784   2.045   8.792  0.7395  0.5624 -3.0928
 3709SOL     OW11125   3.062   2.364   7.034 -0.3945 -0.3995 -0.8752
 3709SOL    HW111126   3.056   2.408   6.950 -2.5321 -1.2353 -1.2323
 3709SOL    HW211127   3.105   2.280   7.015 -1.0945 -0.6910 -1.1953
 3710SOL     OW11128   1.497   4.278   8.274 -0.4044  0.5412  0.1737
 3710SOL    HW111129   1.536   4.242   8.194  0.7814  2.3732 -0.1240
 3710SOL    HW211130   1.557   4.252   8.344 -1.3241 -0.8674  0.4939
 3711SOL     OW11131   0.490   4.211   8.587  0.0480  0.3006 -0.6274
 3711SOL    HW111132   0.447   4.256   8.514 -1.3490  1.9869  1.1276
 3711SOL    HW211133   0.570   4.175   8.549 -0.0887  2.0313 -2.7620
 3712SOL     OW11134   4.862   1.515   9.435  0.3417 -0.3095 -0.1950
 3712SOL    HW111135   4.957   1.519   9.448  0.9665  1.1160 -4.0588
 3712SOL    HW211136   4.831   1.462   9.508  4.3166 -2.3633  0.2941
 3713SOL     OW11137   1.672   1.072   9.371 -0.0472 -0.8167  0.5873
 3713SOL    HW111138   1.726   1.147   9.344 -1.2240  0.2208  0.9980
 3713SOL    HW211139   1.652   1.026   9.289  0.6758 -0.6776  0.3275
 3714SOL     OW11140   0.743   0.088   6.247  0.5405 -0.4777  0.4625
 3714SOL    HW111141   0.721   0.163   6.302 -1.0401 -3.0025  3.6328
 3714SOL    HW211142   0.828   0.111   6.208  0.1844  2.8386  1.3469
 3715SOL     OW11143   4.416   2.446   7.730 -0.1242  0.3059  0.2972
 3715SOL    HW111144   4.455   2.369   7.687  1.2519  0.7799  0.6583
 3715SOL    HW211145   4.487   2.483   7.782 -0.8865  1.6080  0.4410
 3716SOL     OW11146   2.975   0.725   8.296  0.5559 -0.7782 -0.5015
 3716SOL    HW111147   3.007   0.807   8.259 -2.7586  0.1475 -1.6493
 3716SOL    HW211148   2.974   0.664   8.222 -0.2698 -0.7765 -0.5003
 3717SOL     OW11149   4.997   1.345   9.866  0.1878  0.2197  0.4331
 3717SOL    HW111150   4.910   1.376   9.840  0.2306  0.6432  0.7776
 3717SOL    HW211151   5.022   1.402   9.939  1.7279  1.6627 -1.1392
 3718SOL     OW11152   3.397   1.281   9.318 -0.3208  0.0391  0.0690
 3718SOL    HW111153   3.342   1.319   9.250  0.4860  1.5152  0.1887
 3718SOL    HW211154   3.425   1.356   9.371 -1.3235 -1.1046  2.3693
 3719SOL     OW11155   0.729   0.480   8.626  0.3556 -0.5389  0.3623
 3719SOL    HW111156   0.680   0.494   8.545 -0.3033  1.5253  1.0454
 3719SOL    HW211157   0.693   0.399   8.663 -0.4586 -0.6356 -0.6135
 3720SOL     OW11158   3.663   2.909   8.134 -0.6641 -0.2843  0.1437
 3720SOL    HW111159   3.738   2.870   8.088  0.1788  0.4670  0.8386
 3720SOL    HW211160   3.648   2.851   8.209 -0.2228  0.0049  0.4677
 3721SOL     OW11161   1.264   0.395   7.424 -1.0761  0.1913  0.2226
 3721SOL    HW111162   1.285   0.325   7.362 -1.1191  0.2642  0.1257
 3721SOL    HW211163   1.169   0.392   7.432 -1.0668  0.1526  0.3202
 3722SOL     OW11164   3.285   2.905   9.177  0.2596 -0.3649 -0.0263
 3722SOL    HW111165   3.303   2.853   9.099 -0.4060  1.8870 -1.7796
 3722SOL    HW211166   3.277   2.840   9.247 -1.9461 -2.7934 -2.2945
 3723SOL     OW11167   4.111   0.346   6.019 -0.3612  0.2086  0.5319
 3723SOL    HW111168   4.046   0.324   6.086  0.9400 -0.6569  1.5680
 3723SOL    HW211169   4.160   0.265   6.006  3.3882  1.8194  3.0751
 3724SOL     OW11170   0.913   1.649   9.397  0.6356 -0.4143  0.2809
 3724SOL    HW111171   1.002   1.625   9.423  1.3126 -1.1462 -2.3462
 3724SOL    HW211172   0.910   1.628   9.303 -3.1170 -2.8206  0.7555
 3725SOL     OW11173   4.891   1.603   8.042  0.1426  0.1195 -0.0777
 3725SOL    HW111174   4.847   1.636   8.120  0.1476 -0.0902  0.0145
 3725SOL    HW211175   4.828   1.619   7.971 -0.5999 -1.2851  0.2379
 3726SOL     OW11176   3.847   1.658   6.151 -0.5937 -0.7558 -0.7053
 3726SOL    HW111177   3.753   1.671   6.166 -0.4972 -1.2431  0.3960
 3726SOL    HW211178   3.868   1.718   6.079 -1.7122 -0.5231 -0.8588
 3727SOL     OW11179  -0.016   0.068   7.818 -0.4178 -0.2074 -0.0467
 3727SOL    HW111180  -0.013  -0.024   7.844  1.4586  0.0596  0.8991
 3727SOL    HW211181   0.030   0.071   7.734 -0.9660 -0.1969 -0.3510
 3728SOL     OW11182   2.336   3.339   8.601 -0.5104  0.5160  0.1798
 3728SOL    HW111183   2.392   3.372   8.672 -0.7271  0.4421  0.3896
 3728SOL    HW211184   2.330   3.411   8.539 -0.5058  0.6622  0.3489
 3729SOL     OW11185   1.932   4.226   9.854  0.1687 -0.0391 -0.2274
 3729SOL    HW111186   1.946   4.133   9.873  0.6565 -0.5466 -2.7522
 3729SOL    HW211187   1.860   4.227   9.791 -0.8647  1.4601  0.8942
 3730SOL     OW11188   3.546   5.015   9.435  0.5479  0.1755  0.3590
 3730SOL    HW111189   3.548   4.920   9.424  0.6241  0.1127  0.8847
 3730SOL    HW211190   3.599   5.031   9.513  1.9885  0.8016 -0.7131
 3731SOL     OW11191   0.239   2.644   9.337  0.2945 -0.7390 -0.4332
 3731SOL    HW111192   0.203   2.683   9.416 -0.5129 -0.2565 -1.0246
 3731SOL    HW211193   0.262   2.555   9.362  0.9172 -0.3074  0.5823
 3732SOL     OW11194   4.659   2.835   6.532  0.2326  0.0686 -0.5943
 3732SOL    HW111195   4.668   2.922   6.493 -0.4619 -0.4320 -1.9156
 3732SOL    HW211196   4.738   2.788   6.504  0.8870  0.4340  0.5926
 3733SOL     OW11197   0.817   2.651  10.328  0.1925 -0.2547  0.0728
 3733SOL    HW111198   0.737   2.597  10.327 -0.3773  0.4750 -2.6108
 3733SOL    HW211199   0.785   2.741  10.325  1.1032  0.0571 -0.7907
 3734SOL     OW11200   0.712   2.071   9.931 -0.0223 -0.9678  0.3992
 3734SOL    HW111201   0.744   1.983   9.915  1.7014 -0.9481  3.1554
 3734SOL    HW211202   0.704   2.110   9.844  1.3969 -3.0953 -0.7601
 3735SOL     OW11203   0.073   3.187  10.449 -0.0953  0.2864 -0.6027
 3735SOL    HW111204   0.087   3.201  10.355 -0.6046  1.8488 -0.4756
 3735SOL    HW211205   0.135   3.247  10.491 -0.9904  0.7913  0.0289
 3736SOL     OW11206   4.312   2.893   8.112  0.2839  0.6654 -0.1905
 3736SOL    HW111207   4.367   2.890   8.034  1.2178  0.4703  0.4575
 3736SOL    HW211208   4.253   2.818   8.104  0.9309  0.1655 -0.3076
 3737SOL     OW11209   4.693   4.449   9.552 -0.4855  0.4490 -0.7447
 3737SOL    HW111210   4.704   4.390   9.477 -3.1313 -0.2088 -0.7306
 3737SOL    HW211211   4.637   4.401   9.613 -0.6400  2.0155  0.4194
 3738SOL     OW11212   4.899   3.378   8.337  0.1458  0.2800 -0.1162
 3738SOL    HW111213   4.960   3.451   8.327  0.0339  0.4672  0.5382
 3738SOL    HW211214   4.933   3.311   8.278  0.0696  0.9645 -0.9576
 3739SOL     OW11215   1.917   2.948   8.538  0.3389  0.0223 -0.6924
 3739SOL    HW111216   1.955   2.875   8.489  2.7596 -0.1254  1.2026
 3739SOL    HW211217   1.879   3.005   8.472 -0.0839 -2.0850 -2.3650
 3740SOL     OW11218   0.891   1.014   9.239  0.3705 -0.2840  0.1457
 3740SOL    HW111219   0.804   1.044   9.266 -0.1175 -2.3233  1.1203
 3740SOL    HW211220   0.951   1.074   9.282 -0.5356 -0.2290  1.4133
 3741SOL     OW11221   1.323   2.614  10.644  0.9347  0.0007  0.2999
 3741SOL    HW111222   1.237   2.603  10.684  1.4963  1.2623  1.9601
 3741SOL    HW211223   1.330   2.541  10.582 -1.1064 -0.4104  0.4983
 3742SOL     OW11224   3.228   1.201   8.784  0.0996  0.4292 -0.1861
 3742SOL    HW111225   3.233   1.290   8.818 -0.4613  0.7877 -1.0109
 3742SOL    HW211226   3.311   1.161   8.810  0.4011  1.2200  0.1062
 3743SOL     OW11227   0.076   4.523   8.422  0.5893 -0.6359 -0.0756
 3743SOL    HW111228   0.118   4.493   8.341  1.4375  1.2810 -0.4058
 3743SOL    HW211229   0.129   4.485   8.492  1.6818  0.0756 -0.4800
 3744SOL     OW11230   0.866   4.249   7.507  0.0916 -0.4618 -0.4960
 3744SOL    HW111231   0.792   4.231   7.565  0.2763  2.4678  0.7943
 3744SOL    HW211232   0.943   4.242   7.562  0.3733  1.0188 -0.6495
 3745SOL     OW11233   3.712   1.320  10.431  0.2186  0.1970  0.3412
 3745SOL    HW111234   3.698   1.234  10.391 -2.0332  0.6561  0.0421
 3745SOL    HW211235   3.806   1.322  10.449  0.3992 -2.1604  0.0005
 3746SOL     OW11236   0.973   4.487   8.049  0.3255 -0.2207 -0.6323
 3746SOL    HW111237   0.939   4.488   7.959  2.2354  1.7101 -1.4101
 3746SOL    HW211238   0.954   4.575   8.082  2.0837  0.0069 -0.1522
 3747SOL     OW11239   1.429   4.547   8.326  0.8427 -0.5994 -0.5673
 3747SOL    HW111240   1.463   4.460   8.302 -0.2081 -1.3446  0.5160
 3747SOL    HW211241   1.333   4.536   8.323  0.7032  0.4724 -0.2516
 3748SOL     OW11242   1.983   1.767   9.642  0.3403  0.0030 -0.4936
 3748SOL    HW111243   1.973   1.852   9.686  0.0558  0.1682 -0.8755
 3748SOL    HW211244   1.934   1.706   9.697  0.1107  0.1821 -0.4959
 3749SOL     OW11245   0.053   0.138   9.896  0.3843 -0.4699  0.3123
 3749SOL    HW111246   0.038   0.089   9.815 -0.4088 -2.0291  1.3485
 3749SOL    HW211247   0.142   0.113   9.923  0.7383  0.2284 -0.1631
 3750SOL     OW11248   4.953   1.898   9.187 -0.5717  0.4133  0.2631
 3750SOL    HW111249   4.891   1.874   9.118  0.0515  0.1374 -0.2098
 3750SOL    HW211250   5.019   1.829   9.186 -0.9428  0.0063  1.6438
 3751SOL     OW11251   3.356   4.751   8.235 -0.0724  0.0224  0.0607
 3751SOL    HW111252   3.383   4.765   8.326 -2.5303  1.2100  0.6946
 3751SOL    HW211253   3.330   4.838   8.204 -2.0013 -0.7827 -0.7788
 3752SOL     OW11254   0.940   2.152   8.833 -0.0635  0.0902 -0.1724
 3752SOL    HW111255   0.887   2.087   8.880 -0.2099 -1.0623 -1.8364
 3752SOL    HW211256   0.900   2.236   8.856 -3.0321 -0.7364 -1.7133
 3753SOL     OW11257   0.384   1.866   8.832 -0.0130 -0.3753  0.1592
 3753SOL    HW111258   0.359   1.958   8.840 -0.6822 -0.3433 -1.6926
 3753SOL    HW211259   0.303   1.817   8.845  0.1661 -0.6522  0.2537
 3754SOL     OW11260   4.451   4.504   9.987 -0.4610  0.2303  0.4074
 3754SOL    HW111261   4.426   4.526  10.077 -0.3770  0.5630  0.3490
 3754SOL    HW211262   4.405   4.568   9.933 -0.1718  0.2970  0.2406
 3755SOL     OW11263   1.893   1.484   8.592 -0.4780 -0.0254 -0.2918
 3755SOL    HW111264   1.843   1.404   8.606 -0.9676 -0.0485 -1.9410
 3755SOL    HW211265   1.984   1.456   8.593 -0.6657 -0.7398 -1.4820
 3756SOL     OW11266   0.805   3.818   9.860 -0.1645 -0.6987 -0.2409
 3756SOL    HW111267   0.895   3.849   9.867 -1.0977  1.8582  3.5696
 3756SOL    HW211268   0.811   3.724   9.874  1.8850 -0.4522  0.9776
 3757SOL     OW11269   4.964   1.196   8.298 -0.0224 -0.1606 -0.3121
 3757SOL    HW111270   4.971   1.254   8.222  0.3676  0.6547  0.3324
 3757SOL    HW211271   4.931   1.114   8.262  3.5092 -1.0575 -1.9934
 3758SOL     OW11272   3.311   4.306   9.754  0.1556 -0.4622 -0.2149
 3758SOL    HW111273   3.326   4.331   9.663  1.6240 -1.8097 -0.4049
 3758SOL    HW211274   3.366   4.228   9.766  0.0206 -0.2889  1.8356
 3759SOL     OW11275   0.670   2.122   8.682 -0.2490 -0.0181 -0.0247
 3759SOL    HW111276   0.657   2.153   8.771  1.6938  2.7950 -0.5683
 3759SOL    HW211277   0.644   2.196   8.627 -1.1026 -1.5614 -1.8108
 3760SOL     OW11278   3.869   2.390   7.198  0.6104 -0.4207 -0.0344
 3760SOL    HW111279   3.831   2.457   7.142  0.2631  0.7215  1.4950
 3760SOL    HW211280   3.940   2.435   7.244 -0.5258 -0.6180  2.0749
 3761SOL     OW11281   0.703   1.933  10.375  0.1636 -0.0648  0.0574
 3761SOL    HW111282   0.694   1.881  10.455  0.2443  0.6120  0.5055
 3761SOL    HW211283   0.614   1.955  10.350  0.2034  2.3346  1.6919
 3762SOL     OW11284   0.753   2.904  10.369  0.0958 -0.1391  0.6871
 3762SOL    HW111285   0.832   2.920  10.420  1.1457 -0.5858 -0.7331
 3762SOL    HW211286   0.763   2.958  10.291 -1.5824  0.7120  1.0090
 3763SOL     OW11287   3.015   0.348   7.875 -0.1444 -0.8675 -0.1040
 3763SOL    HW111288   3.063   0.430   7.864 -1.0368 -0.2633  0.3384
 3763SOL    HW211289   3.039   0.319   7.963  0.6629 -1.4253 -0.4976
 3764SOL     OW11290   1.579   3.062   8.464  0.8427 -0.1267  0.3182
 3764SOL    HW111291   1.518   3.002   8.507 -0.4782  0.2288 -0.9641
 3764SOL    HW211292   1.597   3.022   8.379  1.1468  0.5510  0.0500
 3765SOL     OW11293   4.924   1.006   8.583 -0.1059  0.6321  0.4841
 3765SOL    HW111294   4.927   0.940   8.513 -2.8320 -0.4918  1.3172
 3765SOL    HW211295   4.895   1.086   8.540  2.3848  1.1803 -0.3705
 3766SOL     OW11296   0.435   0.980   7.100  0.3898  0.6350 -0.6207
 3766SOL    HW111297   0.506   0.938   7.149  1.2387  1.1257 -1.4047
 3766SOL    HW211298   0.356   0.937   7.133  0.8338  1.4384  1.7155
 3767SOL     OW11299   0.067   0.294   8.717  0.4056  0.3068 -0.0092
 3767SOL    HW111300   0.054   0.381   8.680 -0.0322  0.4576  0.4951
 3767SOL    HW211301   0.034   0.234   8.650  0.2948  0.5485 -0.1697
 3768SOL     OW11302   2.333   2.293  10.143 -0.5959 -0.3476 -0.1393
 3768SOL    HW111303   2.291   2.214  10.111  1.4449 -2.4289  1.9984
 3768SOL    HW211304   2.271   2.363  10.120 -3.3205 -2.6921 -0.5772
 3769SOL     OW11305   0.044   3.777   6.619  0.1482  0.1528  0.4415
 3769SOL    HW111306  -0.025   3.712   6.632  0.5665  0.0185  2.4021
 3769SOL    HW211307  -0.001   3.861   6.620 -0.0861  0.0262  0.9464
 3770SOL     OW11308   1.714   1.597   9.734 -0.0336 -0.0450 -0.1366
 3770SOL    HW111309   1.767   1.637   9.803 -1.2346 -0.8059  1.2817
 3770SOL    HW211310   1.635   1.651   9.731 -1.2205 -1.6386  1.0877
 3771SOL     OW11311   3.758   3.186   7.700  0.6203  0.2044  0.2028
 3771SOL    HW111312   3.689   3.246   7.726  0.5810  1.0054 -1.5833
 3771SOL    HW211313   3.838   3.224   7.735  0.2998 -0.1447  1.3435
 3772SOL     OW11314   3.115   2.071   8.506 -0.2066 -0.4179 -0.0530
 3772SOL    HW111315   3.201   2.029   8.512 -1.1227 -2.3598  0.4592
 3772SOL    HW211316   3.077   2.061   8.593 -0.0151  2.7237  0.5051
 3773SOL     OW11317   0.861   2.643   8.173  0.5009 -0.4355  0.1265
 3773SOL    HW111318   0.929   2.576   8.161  1.0316 -0.2382  1.7279
 3773SOL    HW211319   0.785   2.594   8.204  1.0372 -0.3113  1.7771
 3774SOL     OW11320   4.252   2.293   7.948  0.5088 -0.5349 -0.4671
 3774SOL    HW111321   4.333   2.271   7.994  1.4708 -0.8630 -2.2392
 3774SOL    HW211322   4.244   2.227   7.879  0.4399  1.2746 -2.3088
 3775SOL     OW11323   3.014   1.415   9.243 -0.4294  0.2402 -0.3890
 3775SOL    HW111324   3.072   1.343   9.215 -2.2916 -2.4756  2.1133
 3775SOL    HW211325   2.942   1.413   9.180 -0.1801  0.3429 -0.6816
 3776SOL     OW11326   3.529   1.432   6.165 -0.1652 -0.8836  0.2945
 3776SOL    HW111327   3.451   1.429   6.219 -0.0065  0.3066  0.6262
 3776SOL    HW211328   3.553   1.525   6.162 -1.1469 -0.6051 -3.2466
 3777SOL     OW11329   3.557   2.399   7.297 -0.4233  0.2769  0.3036
 3777SOL    HW111330   3.629   2.428   7.241 -0.8395  0.5132 -0.1086
 3777SOL    HW211331   3.505   2.340   7.242 -0.9200  0.6280  0.3928
 3778SOL     OW11332   3.905   3.216   8.526 -0.1381  0.2515  0.0458
 3778SOL    HW111333   3.914   3.184   8.615  2.2554 -4.8314 -1.6701
 3778SOL    HW211334   3.982   3.271   8.512 -0.7622  1.4485  1.1364
 3779SOL     OW11335   4.419   3.533  10.035 -0.3004  0.4969 -0.4203
 3779SOL    HW111336   4.419   3.619   9.993 -1.0523  0.4998 -0.4313
 3779SOL    HW211337   4.467   3.476   9.976  0.8264  1.0688 -0.0727
 3780SOL     OW11338   3.344   2.823  10.020 -0.2423  0.8019 -0.2759
 3780SOL    HW111339   3.269   2.879  10.035 -0.9139  0.6361 -2.6612
 3780SOL    HW211340   3.327   2.781   9.935  2.4165  0.5870 -0.8008
 3781SOL     OW11341   4.164   3.314   8.547 -0.6188 -0.3110  0.0995
 3781SOL    HW111342   4.202   3.382   8.492 -3.6241 -0.7009 -2.7606
 3781SOL    HW211343   4.235   3.251   8.559  1.1184  1.4285 -0.4147
 3782SOL     OW11344   2.098   3.875   8.392  0.1446 -0.4181 -0.1155
 3782SOL    HW111345   2.047   3.954   8.376 -0.3118 -0.4449  1.0765
 3782SOL    HW211346   2.104   3.832   8.306 -2.2080 -0.6149 -0.2398
 3783SOL     OW11347   2.481   2.195   5.836  0.2015 -0.3534 -0.1254
 3783SOL    HW111348   2.458   2.264   5.773 -0.5780 -0.0419  0.4781
 3783SOL    HW211349   2.575   2.182   5.824  0.0770 -0.2597 -1.3066
 3784SOL     OW11350   2.209   2.234   7.932  0.1208 -0.0014  0.1226
 3784SOL    HW111351   2.247   2.214   8.017 -1.4222  2.5970  1.5485
 3784SOL    HW211352   2.221   2.329   7.921  0.5681 -0.2961 -2.7306
 3785SOL     OW11353   4.699   0.802   8.347  0.2221 -0.8628  0.4786
 3785SOL    HW111354   4.752   0.722   8.339 -0.3199 -1.0541 -1.8945
 3785SOL    HW211355   4.762   0.873   8.339  0.4288 -1.0704  0.2515
 3786SOL     OW11356   2.040   1.917  10.478  0.6785 -0.2268  0.0686
 3786SOL    HW111357   1.972   1.867  10.523 -1.6668  1.1695 -1.6656
 3786SOL    HW211358   2.052   1.996  10.531 -1.2646  0.8832 -1.0099
 3787SOL     OW11359   3.590   3.332   9.292  0.5979  0.7346 -0.3485
 3787SOL    HW111360   3.653   3.401   9.312  0.3432  0.8206  0.1692
 3787SOL    HW211361   3.645   3.256   9.270  1.0320 -0.2212  3.3768
 3788SOL     OW11362   0.034   3.701   8.530  0.2607  0.1606 -0.3683
 3788SOL    HW111363  -0.018   3.625   8.554 -3.1963  1.8022 -1.8883
 3788SOL    HW211364   0.073   3.731   8.612 -0.8943 -1.4177  0.8083
 3789SOL     OW11365   0.508   0.400   7.061  0.0536  0.4237  0.5419
 3789SOL    HW111366   0.440   0.333   7.058  0.8558 -0.3820 -0.3422
 3789SOL    HW211367   0.477   0.463   7.126 -0.8398 -0.6740  1.2193
 3790SOL     OW11368   1.251   0.317   6.695 -0.9833 -0.3160  0.1506
 3790SOL    HW111369   1.306   0.240   6.680 -1.1321 -0.3863 -0.0322
 3790SOL    HW211370   1.261   0.369   6.615  0.5592  0.7455  0.9783
 3791SOL     OW11371   1.734   3.380   8.820 -0.0947 -0.1323 -0.4297
 3791SOL    HW111372   1.724   3.286   8.835 -0.1673 -0.0927 -0.2219
 3791SOL    HW211373   1.757   3.388   8.728 -1.7408 -0.2391 -0.8778
 3792SOL     OW11374   1.864   3.540   9.873  0.5556 -0.4072 -0.2890
 3792SOL    HW111375   1.949   3.582   9.862  1.0565 -1.6050 -1.1888
 3792SOL    HW211376   1.867   3.465   9.815 -1.0290 -0.6233 -0.1258
 3793SOL     OW11377   0.812   1.441   6.755 -0.0829  0.0918 -0.7068
 3793SOL    HW111378   0.748   1.462   6.824  0.5030 -1.0494  0.2282
 3793SOL    HW211379   0.857   1.524   6.738 -0.3251  0.4253  0.2081
 3794SOL     OW11380   1.304   4.208   9.083  0.2799 -0.0294  0.4260
 3794SOL    HW111381   1.245   4.154   9.135 -0.9761 -0.5877 -1.4792
 3794SOL    HW211382   1.297   4.295   9.122  1.1988 -0.8745  2.6153
 3795SOL     OW11383   0.715   2.315   6.767 -0.3936 -0.3620 -0.1927
 3795SOL    HW111384   0.704   2.391   6.824  2.0720 -0.5760  0.6991
 3795SOL    HW211385   0.629   2.273   6.766 -0.8869  0.4248  2.2866
 3796SOL     OW11386   4.520   4.540   8.788 -0.5147 -0.2746 -0.3141
 3796SOL    HW111387   4.585   4.597   8.828 -1.6219 -0.4402  1.8449
 3796SOL    HW211388   4.525   4.560   8.694  1.0540  1.3036  0.0533
 3797SOL     OW11389   3.492   3.523   9.651 -0.0884 -0.4005 -0.4806
 3797SOL    HW111390   3.548   3.556   9.581 -2.0498  0.5506 -1.6927
 3797SOL    HW211391   3.421   3.587   9.657 -1.5889 -2.0554  0.2862
 3798SOL     OW11392   2.481   2.490   5.695 -0.9201 -0.1077  0.2007
 3798SOL    HW111393   2.491   2.498   5.790  0.9607 -1.2924  0.1552
 3798SOL    HW211394   2.522   2.569   5.660  0.2174 -0.6104  0.3450
 3799SOL     OW11395   1.170   4.281   7.945 -0.1187 -0.1696 -0.4987
 3799SOL    HW111396   1.263   4.303   7.944  0.1587 -1.2283  0.0575
 3799SOL    HW211397   1.128   4.353   7.992  0.8844 -1.2082  2.1581
 3800SOL     OW11398   0.354   0.708   9.145 -0.0378  0.5535  0.9625
 3800SOL    HW111399   0.355   0.634   9.084 -0.8892 -0.8533  2.5627
 3800SOL    HW211400   0.433   0.696   9.199 -0.4460  0.5075  1.5588
 3801SOL     OW11401   0.651   1.516   9.101 -0.3516 -0.4744 -0.4804
 3801SOL    HW111402   0.704   1.574   9.046  0.4779 -1.5691 -0.8757
 3801SOL    HW211403   0.589   1.475   9.042  0.2244 -1.2914 -0.5417
 3802SOL     OW11404   2.399   2.586   9.754 -0.3496  0.0295  0.0745
 3802SOL    HW111405   2.461   2.538   9.700  1.8216  0.2222  2.2136
 3802SOL    HW211406   2.322   2.529   9.759 -0.5958 -0.0710 -2.9011
 3803SOL     OW11407   0.315   2.209   8.735  0.2093 -0.7884  0.7191
 3803SOL    HW111408   0.311   2.124   8.692  1.9475 -0.4113 -0.3046
 3803SOL    HW211409   0.240   2.258   8.700 -0.0780 -1.4857  0.3526
 3804SOL     OW11410   4.064   2.046   6.440 -0.2785 -0.1492 -0.2323
 3804SOL    HW111411   3.980   2.003   6.458 -0.6056  1.5690  2.8434
 3804SOL    HW211412   4.041   2.119   6.382 -0.9812  0.4552  0.7782
 3805SOL     OW11413   0.548   2.897   5.087  0.3238  0.5397  0.3216
 3805SOL    HW111414   0.478   2.841   5.120 -0.4074  0.7652 -0.8189
 3805SOL    HW211415   0.607   2.837   5.042  0.3847  0.4696  0.4952
 3806SOL     OW11416   2.856   2.068   5.478  0.0198  0.3109 -0.3983
 3806SOL    HW111417   2.950   2.081   5.468  0.2201 -1.6641 -1.7181
 3806SOL    HW211418   2.817   2.112   5.403 -0.1732  1.4416  0.3425
 3807SOL     OW11419   0.175   3.295   5.999  0.8870  0.0208 -0.2535
 3807SOL    HW111420   0.091   3.251   6.013  0.8457  0.5565  1.2773
 3807SOL    HW211421   0.160   3.348   5.920  0.0883 -0.5983 -0.5390
 3808SOL     OW11422   1.532   2.795   5.320 -0.4346 -0.0582 -0.3339
 3808SOL    HW111423   1.547   2.834   5.233  1.3055  1.7571  0.6928
 3808SOL    HW211424   1.452   2.837   5.351 -0.5763 -0.0466 -0.7049
 3809SOL     OW11425   4.851   2.481   7.453  0.1283 -0.4603 -0.6906
 3809SOL    HW111426   4.894   2.398   7.433  1.0501  0.0228 -0.7598
 3809SOL    HW211427   4.791   2.496   7.381 -4.2115 -3.7222  1.7721
 3810SOL     OW11428   1.039   4.817   5.693 -0.3460  0.4000 -0.3347
 3810SOL    HW111429   0.976   4.829   5.764  0.1000 -1.5629  0.4752
 3810SOL    HW211430   1.030   4.725   5.669 -0.3526  0.9602 -2.7481
 3811SOL     OW11431   4.232   1.905   8.999 -0.7469 -0.7834 -0.4537
 3811SOL    HW111432   4.157   1.867   9.044  0.2458 -2.4567 -0.1510
 3811SOL    HW211433   4.308   1.866   9.041  0.3585  1.3039 -0.3708
 3812SOL     OW11434   4.433   1.087   5.956  0.0138  0.2220  0.2145
 3812SOL    HW111435   4.510   1.038   5.928 -0.8913 -2.0765  1.4677
 3812SOL    HW211436   4.368   1.074   5.886 -0.9043 -2.1856  1.4182
 3813SOL     OW11437   4.086   0.843   5.324 -0.0959 -0.5637  0.4121
 3813SOL    HW111438   4.029   0.767   5.339  0.2676 -0.8154  0.5178
 3813SOL    HW211439   4.108   0.874   5.412  3.0023 -2.7572  0.5639
 3814SOL     OW11440   2.052   1.970   5.202  0.4877  0.1008  0.9017
 3814SOL    HW111441   2.087   1.956   5.114  0.1172 -1.6100  0.9857
 3814SOL    HW211442   2.087   1.898   5.253  3.1511  2.6496  2.9987
 3815SOL     OW11443   3.917   4.647   8.718  0.1376 -0.1263 -0.2201
 3815SOL    HW111444   3.874   4.725   8.753  1.6636 -0.4873  2.7835
 3815SOL    HW211445   3.998   4.680   8.679 -0.2725 -0.0094 -0.9915
 3816SOL     OW11446   2.580   3.500   6.794 -0.1818 -0.2324  0.1479
 3816SOL    HW111447   2.514   3.522   6.728 -0.2107 -1.0709 -0.1167
 3816SOL    HW211448   2.529   3.474   6.871 -0.1485  0.3770  0.3827
 3817SOL     OW11449   2.174   3.712   4.751 -0.0915 -0.3685  0.3725
 3817SOL    HW111450   2.252   3.710   4.805 -0.0347  0.9533  0.3725
 3817SOL    HW211451   2.174   3.628   4.705  1.6707 -0.1398 -0.1003
 3818SOL     OW11452   1.929   4.810   5.353  0.9117 -0.0053  0.3985
 3818SOL    HW111453   1.911   4.716   5.358 -0.8996  0.3462  1.5163
 3818SOL    HW211454   1.998   4.818   5.286  0.2112 -1.9943 -0.6502
 3819SOL     OW11455   0.494   3.863   9.704  0.2487 -0.3346 -0.2729
 3819SOL    HW111456   0.431   3.934   9.716  0.2993 -0.6935  2.8596
 3819SOL    HW211457   0.569   3.905   9.663  0.1168  1.3807  1.1239
 3820SOL     OW11458   1.702   1.426   4.921 -0.2723  0.0341 -0.4042
 3820SOL    HW111459   1.675   1.510   4.884 -0.5341  0.1103 -0.0437
 3820SOL    HW211460   1.783   1.445   4.968  0.1445 -0.0934 -1.0617
 3821SOL     OW11461   4.628   4.213   6.268  0.3085 -0.1962  0.6742
 3821SOL    HW111462   4.702   4.274   6.274  0.8236 -0.7838  0.3986
 3821SOL    HW211463   4.605   4.212   6.175  1.4187 -1.7007  0.3816
 3822SOL     OW11464   3.489   4.235   6.698 -0.8346  0.9653  0.7378
 3822SOL    HW111465   3.563   4.178   6.719 -0.5522  1.3568  0.8242
 3822SOL    HW211466   3.434   4.233   6.776 -0.2431  1.7062  1.1932
 3823SOL     OW11467   4.504   4.189   7.356 -0.3356  0.0161  0.3267
 3823SOL    HW111468   4.444   4.117   7.379 -1.7127  0.6397 -1.1472
 3823SOL    HW211469   4.532   4.169   7.267  1.7633 -0.2700  0.9823
 3824SOL     OW11470   2.218   0.966   4.827  0.9549  0.7101  0.7013
 3824SOL    HW111471   2.240   1.043   4.878  1.8783 -0.2891  1.8568
 3824SOL    HW211472   2.295   0.950   4.773  1.0673  0.1711  1.0144
 3825SOL     OW11473   3.561   1.744   6.519 -0.3569 -0.4844  0.0598
 3825SOL    HW111474   3.466   1.753   6.511 -0.2453  0.3849 -0.4174
 3825SOL    HW211475   3.579   1.657   6.483 -0.7904  0.0891 -1.6896
 3826SOL     OW11476   0.064   2.290   5.495 -0.1776  0.2286 -0.1924
 3826SOL    HW111477   0.140   2.332   5.535 -1.7776  3.1093  0.1446
 3826SOL    HW211478   0.061   2.203   5.533  1.0818  1.1849  2.2960
 3827SOL     OW11479   3.974   3.163   6.274  0.3219  0.7577 -0.2232
 3827SOL    HW111480   3.887   3.156   6.313  1.1980 -1.6114  1.5647
 3827SOL    HW211481   3.981   3.088   6.215  1.2192  0.7641 -0.1493
 3828SOL     OW11482   4.213   1.543   6.653 -0.3559  0.1976 -0.0611
 3828SOL    HW111483   4.151   1.608   6.619  0.1971  0.8091  0.0842
 3828SOL    HW211484   4.157   1.472   6.685 -1.0690  1.4463  1.5751
 3829SOL     OW11485   0.826   2.303   6.020 -0.1843 -0.2074 -0.3667
 3829SOL    HW111486   0.886   2.283   5.948  0.0001 -0.3124 -0.1852
 3829SOL    HW211487   0.739   2.304   5.979 -0.1313 -0.7568 -0.4964
 3830SOL     OW11488   2.831   2.534   4.491  1.1718 -0.1982  0.1409
 3830SOL    HW111489   2.872   2.539   4.578 -0.2511  0.7689  0.7999
 3830SOL    HW211490   2.794   2.621   4.477 -3.0635 -1.6257  0.8611
 3831SOL     OW11491   2.755   2.134   5.227  0.5905 -0.1528  0.3827
 3831SOL    HW111492   2.660   2.129   5.241  0.4942  1.1592  0.3719
 3831SOL    HW211493   2.765   2.143   5.132  0.8827 -2.6101  0.1293
 3832SOL     OW11494   2.300   0.377   7.200  0.2563 -0.8308 -0.3408
 3832SOL    HW111495   2.330   0.296   7.241 -1.0029 -1.8764 -1.4072
 3832SOL    HW211496   2.367   0.397   7.135  0.9736 -0.5489  0.4577
 3833SOL     OW11497   1.527   2.874   5.071 -0.3700  0.1608  0.1777
 3833SOL    HW111498   1.598   2.892   5.009  0.7533 -0.9378  1.1030
 3833SOL    HW211499   1.473   2.808   5.027  0.2104 -0.3401  0.2021
 3834SOL     OW11500   4.810   3.906   7.708 -0.0340  0.2461 -0.2612
 3834SOL    HW111501   4.719   3.930   7.692 -0.2358 -0.1165  0.3232
 3834SOL    HW211502   4.819   3.820   7.667  0.2316  0.5735 -0.8998
 3835SOL     OW11503   3.608   1.256   5.221 -0.0620  0.5716  0.2241
 3835SOL    HW111504   3.692   1.212   5.208 -0.6646 -0.3464 -0.7763
 3835SOL    HW211505   3.595   1.306   5.140 -1.7308 -1.5152 -0.9159
 3836SOL     OW11506   0.284   0.143   6.648 -0.2689 -0.1067 -0.2554
 3836SOL    HW111507   0.270   0.213   6.585 -2.6945  0.0764  0.4189
 3836SOL    HW211508   0.340   0.080   6.601 -3.8116 -1.1520 -3.5963
 3837SOL     OW11509   3.471   3.697   5.526 -0.7026  0.5022  0.5178
 3837SOL    HW111510   3.423   3.689   5.608 -0.8967 -0.6197  0.3041
 3837SOL    HW211511   3.562   3.680   5.549 -0.5304  1.6072  0.7359
 3838SOL     OW11512   3.846   0.105   8.729 -0.9127 -0.1622  0.9229
 3838SOL    HW111513   3.754   0.081   8.731 -0.4108 -2.3637  3.3183
 3838SOL    HW211514   3.869   0.122   8.820  1.9863 -4.2444  1.2334
 3839SOL     OW11515   3.425   4.727   4.821 -1.1684 -0.4347 -0.7520
 3839SOL    HW111516   3.502   4.697   4.869 -2.0712 -2.3850 -0.4208
 3839SOL    HW211517   3.456   4.739   4.731  0.2736  2.1568  0.0076
 3840SOL     OW11518   3.772   3.765   5.249  0.4244 -0.1004  0.5543
 3840SOL    HW111519   3.784   3.813   5.167  0.8923 -0.8035  0.2082
 3840SOL    HW211520   3.844   3.703   5.251  1.2302  0.8321  2.1636
 3841SOL     OW11521   3.380   4.755   8.504 -0.1215  0.3032 -0.6735
 3841SOL    HW111522   3.361   4.819   8.573  1.2331  0.2581 -0.2373
 3841SOL    HW211523   3.381   4.670   8.550  1.7874  0.3698 -0.5036
 3842SOL     OW11524   1.087   2.728   6.645  0.1440 -0.4789 -0.4173
 3842SOL    HW111525   1.164   2.671   6.635 -0.4891 -2.2186  3.0442
 3842SOL    HW211526   1.064   2.721   6.738 -2.7636  1.9279 -0.8075
 3843SOL     OW11527   4.079   1.216   5.034 -0.1075  0.7788 -0.0346
 3843SOL    HW111528   4.134   1.255   5.102  2.2588 -0.0271 -1.3557
 3843SOL    HW211529   4.074   1.283   4.966 -1.6290  1.2101  0.4732
 3844SOL     OW11530   4.609   0.435   9.692  0.2245 -0.6660  0.3480
 3844SOL    HW111531   4.564   0.512   9.656  2.2892  0.7064  0.5381
 3844SOL    HW211532   4.539   0.381   9.728 -1.2829  1.3095  0.5463
 3845SOL     OW11533   0.368   2.260   5.401  0.3180 -0.0123  0.2675
 3845SOL    HW111534   0.325   2.177   5.421  0.8697 -0.3072  0.2300
 3845SOL    HW211535   0.385   2.257   5.307 -1.8314  1.1704 -0.2301
 3846SOL     OW11536   4.772   0.353   8.312  0.4508  0.1801  0.0738
 3846SOL    HW111537   4.688   0.385   8.345 -0.0009  1.1801 -1.8670
 3846SOL    HW211538   4.777   0.387   8.222  0.7083 -3.8124 -1.6463
 3847SOL     OW11539   4.661   2.908   6.797  0.8044 -0.4772 -0.0814
 3847SOL    HW111540   4.641   2.879   6.709  1.0094  0.6576 -0.5216
 3847SOL    HW211541   4.637   3.001   6.798  3.1065  0.1870  0.2665
 3848SOL     OW11542   0.938   1.438   5.641  0.5401 -0.6442 -0.2680
 3848SOL    HW111543   0.876   1.466   5.708 -0.1038 -1.4974 -0.4845
 3848SOL    HW211544   0.966   1.519   5.598  0.3480 -0.1661  0.4953
 3849SOL     OW11545   2.096   1.395   6.741 -0.2340  0.5714 -0.4731
 3849SOL    HW111546   2.133   1.331   6.803 -3.0307  0.0726  0.8628
 3849SOL    HW211547   2.096   1.349   6.657  1.9556  0.5854 -0.5545
 3850SOL     OW11548   3.408   1.100   7.623 -0.1797 -0.3632  0.4510
 3850SOL    HW111549   3.364   1.186   7.624  2.1780  0.9255  0.5969
 3850SOL    HW211550   3.387   1.065   7.536 -2.4988 -0.4199  0.9744
 3851SOL     OW11551   4.028   0.008   8.340  0.9428  0.1033  0.0803
 3851SOL    HW111552   3.949  -0.026   8.297 -0.2501  1.7857  0.8083
 3851SOL    HW211553   4.061   0.074   8.279  0.9743  0.3807  0.3966
 3852SOL     OW11554   1.179   1.253   8.859 -0.7972  0.2293  0.0913
 3852SOL    HW111555   1.153   1.274   8.949 -1.6377  2.3261 -0.5608
 3852SOL    HW211556   1.225   1.332   8.829  0.9594 -1.0695 -0.8102
 3853SOL     OW11557   3.929   2.847   4.969  0.4263 -0.0529  0.4217
 3853SOL    HW111558   3.920   2.840   4.874 -1.9988  1.0484  0.5096
 3853SOL    HW211559   3.963   2.762   4.996  1.2578 -0.3578 -1.4186
 3854SOL     OW11560   3.555   3.087   9.112 -0.2060 -0.6098 -0.0672
 3854SOL    HW111561   3.549   3.162   9.052 -1.1152  0.3947  1.2121
 3854SOL    HW211562   3.648   3.079   9.131 -0.1805  0.9773  0.6715
 3855SOL     OW11563   4.728   2.159   5.505  0.3216 -1.1634  0.0643
 3855SOL    HW111564   4.803   2.120   5.551 -0.8509 -1.6953  1.6356
 3855SOL    HW211565   4.676   2.200   5.575  1.4277  3.3699 -1.4495
 3856SOL     OW11566   2.272   0.814   8.514 -0.4249  0.0040  0.2857
 3856SOL    HW111567   2.243   0.904   8.498  0.9045  0.5552  0.8285
 3856SOL    HW211568   2.191   0.764   8.524 -1.2250  0.7260 -2.0673
 3857SOL     OW11569   2.822   0.267   7.140 -0.3198  0.2179 -0.8055
 3857SOL    HW111570   2.860   0.217   7.212  1.5761  0.2754 -1.7060
 3857SOL    HW211571   2.756   0.322   7.181 -0.8085 -1.2970  0.5548
 3858SOL     OW11572   3.358   0.098   7.518  0.4668  1.2926  0.0562
 3858SOL    HW111573   3.316   0.041   7.453  3.6007 -1.8598  0.4632
 3858SOL    HW211574   3.300   0.095   7.594  0.1835 -1.0202 -0.1686
 3859SOL     OW11575   3.881   1.927   6.710 -0.2914 -0.0476  0.5255
 3859SOL    HW111576   3.809   1.945   6.650  0.4089 -0.7361 -0.5571
 3859SOL    HW211577   3.915   2.013   6.734 -1.7989  0.3182  1.4937
 3860SOL     OW11578   1.199   2.375   6.269 -0.6195 -0.3390  0.7522
 3860SOL    HW111579   1.242   2.442   6.216  1.1899 -1.1297  1.1299
 3860SOL    HW211580   1.107   2.401   6.270 -0.5694  0.2794 -1.8936
 3861SOL     OW11581   1.665   4.345   5.247 -0.7603  0.1470 -0.6947
 3861SOL    HW111582   1.674   4.257   5.209 -2.7494 -2.0818  3.3687
 3861SOL    HW211583   1.584   4.379   5.209 -0.7499 -0.3847 -1.2031
 3862SOL     OW11584   4.943   1.520   5.528  0.4706 -0.0601  0.1088
 3862SOL    HW111585   4.860   1.474   5.545  0.4572 -1.5763 -3.1518
 3862SOL    HW211586   5.010   1.463   5.566  0.2867 -1.9090 -2.0566
 3863SOL     OW11587   1.840   0.080   5.701  0.0629 -0.5254 -0.4117
 3863SOL    HW111588   1.808   0.028   5.627  1.6974 -1.0544 -0.7807
 3863SOL    HW211589   1.888   0.017   5.755 -1.6969 -0.3068  1.5273
 3864SOL     OW11590   1.111   0.106   6.917  0.4059 -0.1761 -0.8005
 3864SOL    HW111591   1.093   0.161   6.841  1.5645 -1.5056 -2.1159
 3864SOL    HW211592   1.205   0.088   6.912  0.5709 -0.0618  1.1436
 3865SOL     OW11593   2.212   0.134   5.055  0.1699 -0.1569 -0.5400
 3865SOL    HW111594   2.217   0.038   5.046 -1.8717 -0.3592  0.0172
 3865SOL    HW211595   2.226   0.150   5.148 -0.2507  0.0250 -0.5086
 3866SOL     OW11596   1.628   2.671   6.256  0.0136 -0.6843 -0.2760
 3866SOL    HW111597   1.708   2.659   6.308 -0.1461  1.3698  0.5485
 3866SOL    HW211598   1.557   2.656   6.319 -0.2589 -1.9637 -0.8711
 3867SOL     OW11599   3.223   4.974   7.323  0.3252 -0.4302 -0.1037
 3867SOL    HW111600   3.146   4.918   7.321  1.5502 -2.1947 -0.9697
 3867SOL    HW211601   3.282   4.936   7.258  2.7551 -0.3949  1.9344
 3868SOL     OW11602   1.665   2.659   5.872  0.2452 -0.0531 -0.4014
 3868SOL    HW111603   1.760   2.660   5.879  0.1821  0.3044  0.7035
 3868SOL    HW211604   1.636   2.605   5.946 -0.3770 -1.1869 -1.4309
 3869SOL     OW11605   4.979   3.886   6.985 -0.0236 -0.1498  0.2947
 3869SOL    HW111606   5.068   3.918   6.975 -0.3701  0.6656 -0.2743
 3869SOL    HW211607   4.933   3.916   6.906 -1.0828  0.4109  1.0891
 3870SOL     OW11608   4.020   4.134   6.425 -0.9897  0.2623  1.1068
 3870SOL    HW111609   4.015   4.228   6.440  1.2183  0.2369  2.3799
 3870SOL    HW211610   4.114   4.115   6.421 -1.3657 -1.9708  1.4657
 3871SOL     OW11611   1.661   4.024   5.256 -0.8429 -0.1520 -1.0934
 3871SOL    HW111612   1.710   3.961   5.203  0.0262  0.2893 -0.8358
 3871SOL    HW211613   1.607   3.969   5.313  1.1543 -0.7646  0.3307
 3872SOL     OW11614   1.621   1.153   5.077  0.0731  0.4059  0.8802
 3872SOL    HW111615   1.571   1.214   5.022  0.1654  0.3199  0.7015
 3872SOL    HW211616   1.625   1.072   5.026  0.7128  0.5270  0.7320
 3873SOL     OW11617   4.009   4.102   6.721  0.1225  0.0405 -0.1108
 3873SOL    HW111618   3.993   4.014   6.756 -1.0927 -1.0931 -3.1870
 3873SOL    HW211619   4.085   4.091   6.664  0.9919  1.4231  0.7308
 3874SOL     OW11620   4.933   2.544   5.574 -0.7074  0.2609  0.0917
 3874SOL    HW111621   4.971   2.461   5.543  1.6384  1.2337  0.1168
 3874SOL    HW211622   4.930   2.599   5.496 -0.2133  0.8403  0.4710
 3875SOL     OW11623   2.484   2.649   6.992  0.1396 -0.0571 -0.0713
 3875SOL    HW111624   2.467   2.611   7.078 -0.2617  0.3963  0.0580
 3875SOL    HW211625   2.562   2.604   6.960  0.6225  0.1668  0.7756
 3876SOL     OW11626   0.351   2.006   6.178  0.5633 -0.0230 -0.2039
 3876SOL    HW111627   0.408   1.946   6.130 -0.0451 -0.5433 -0.2816
 3876SOL    HW211628   0.283   1.951   6.216 -1.4822  0.8263 -2.3565
 3877SOL     OW11629   1.233   4.023   5.512 -0.4909 -0.0597  0.2366
 3877SOL    HW111630   1.157   4.038   5.568 -1.2757  2.3934 -1.3074
 3877SOL    HW211631   1.300   4.083   5.546 -0.1658 -0.2845 -0.0020
 3878SOL     OW11632   2.927   4.101   4.838 -0.3687 -0.4936 -0.1602
 3878SOL    HW111633   2.869   4.054   4.779  0.6473 -0.8702 -0.8770
 3878SOL    HW211634   2.932   4.046   4.916  0.8349 -1.6356 -0.9996
 3879SOL     OW11635   1.170   4.561   4.586 -0.0292 -0.1907  0.0776
 3879SOL    HW111636   1.137   4.513   4.509 -2.9416  0.4829  0.7785
 3879SOL    HW211637   1.159   4.653   4.562  1.1827  0.0778  0.4950
 3880SOL     OW11638   4.746   2.774   5.645  0.3825 -0.1736 -0.0450
 3880SOL    HW111639   4.815   2.784   5.710 -0.5010 -0.5328  0.9758
 3880SOL    HW211640   4.792   2.751   5.564  1.6550  2.0389 -0.0315
 3881SOL     OW11641   3.738   4.235   6.212 -0.4111  0.3981  0.2141
 3881SOL    HW111642   3.772   4.307   6.265  2.1223 -1.0754  0.7464
 3881SOL    HW211643   3.668   4.274   6.160  2.0352  3.7105 -0.9313
 3882SOL     OW11644   1.789   3.522   9.061 -0.3814 -0.0725 -0.7326
 3882SOL    HW111645   1.717   3.520   9.125 -0.9196  1.0192 -1.2858
 3882SOL    HW211646   1.758   3.468   8.989  0.6665 -2.2153  0.3246
 3883SOL     OW11647   0.118   3.706   7.670 -0.0478  0.4788 -0.2458
 3883SOL    HW111648   0.112   3.795   7.638 -0.6632  0.4065 -0.3544
 3883SOL    HW211649   0.033   3.667   7.650  0.4957 -0.3899 -0.9505
 3884SOL     OW11650   4.740   1.815   5.165 -0.3606 -0.0455  0.4185
 3884SOL    HW111651   4.808   1.752   5.187  0.3017  0.3284 -0.4861
 3884SOL    HW211652   4.784   1.900   5.168 -0.7042  0.1740 -0.5015
 3885SOL     OW11653   4.121   0.866   6.689 -0.0797  0.1163  0.6966
 3885SOL    HW111654   4.128   0.869   6.784  2.1684 -2.8077  0.7538
 3885SOL    HW211655   4.209   0.888   6.657  0.2054 -2.3066 -0.4654
 3886SOL     OW11656   2.319   4.357   9.919 -0.9099  1.5334 -0.1845
 3886SOL    HW111657   2.393   4.414   9.940 -0.1139  0.8810 -1.0904
 3886SOL    HW211658   2.242   4.406   9.946 -0.2709  3.1462 -1.1483
 3887SOL     OW11659   4.286   4.165   6.373  0.1616 -0.5583  0.4854
 3887SOL    HW111660   4.294   4.223   6.297  3.5532 -1.2088  0.2052
 3887SOL    HW211661   4.281   4.225   6.447 -1.9645  0.0671 -0.0877
 3888SOL     OW11662   3.839   0.372   6.107 -0.0147 -0.2091 -0.0364
 3888SOL    HW111663   3.810   0.297   6.055 -0.8806 -1.5000  2.1875
 3888SOL    HW211664   3.807   0.355   6.195  1.6773  1.7164  1.0529
 3889SOL     OW11665   2.274   2.011   5.891 -0.2860  0.1739 -0.0073
 3889SOL    HW111666   2.316   2.095   5.877  0.0809 -0.3017 -2.0378
 3889SOL    HW211667   2.339   1.946   5.866 -0.8416 -0.7104  0.7387
 3890SOL     OW11668   1.482   4.123   6.392 -0.2891  0.7257  0.4221
 3890SOL    HW111669   1.398   4.167   6.399  0.5518  2.2826  1.4253
 3890SOL    HW211670   1.535   4.181   6.337  0.6815  0.7363  1.3381
 3891SOL     OW11671   3.621   4.200   5.594  0.0401 -0.0598 -0.1285
 3891SOL    HW111672   3.670   4.132   5.547 -3.1285 -1.3963 -1.8582
 3891SOL    HW211673   3.532   4.194   5.558 -0.7168  4.3432  0.3918
 3892SOL     OW11674   2.221   1.610   6.422 -0.1687  0.3687 -0.4094
 3892SOL    HW111675   2.223   1.577   6.512  0.2607  1.5123  0.0221
 3892SOL    HW211676   2.171   1.692   6.427 -0.7753  0.0750 -1.3559
 3893SOL     OW11677   2.802   3.700   7.379  0.0014 -0.0570 -0.5499
 3893SOL    HW111678   2.878   3.701   7.438 -0.9055 -1.6871  0.7228
 3893SOL    HW211679   2.728   3.719   7.436 -0.9609 -2.1198 -1.0243
 3894SOL     OW11680   2.667   0.950   7.712 -0.5286 -0.1140  0.4279
 3894SOL    HW111681   2.626   0.910   7.788  0.1805  1.2575  1.5887
 3894SOL    HW211682   2.742   0.895   7.693  0.2856  0.4540  1.8337
 3895SOL     OW11683   3.115   0.945   8.114 -0.4046 -0.1416 -0.2773
 3895SOL    HW111684   3.038   0.923   8.062  0.1861 -0.1378 -1.1704
 3895SOL    HW211685   3.113   1.040   8.123 -0.6426 -0.1659 -0.0802
 3896SOL     OW11686   1.061   0.221   8.196 -0.4138  0.5342  0.0980
 3896SOL    HW111687   1.057   0.127   8.178 -2.1502  0.2420  1.6521
 3896SOL    HW211688   1.043   0.262   8.112 -2.1315 -0.6155 -0.1634
 3897SOL     OW11689   4.831   0.493   9.326 -0.6260 -0.1841 -0.0865
 3897SOL    HW111690   4.831   0.475   9.232 -2.0815 -0.9654  0.0241
 3897SOL    HW211691   4.877   0.418   9.365 -0.5083 -0.1406 -0.1439
 3898SOL     OW11692   2.606   4.146   6.867 -0.5735  0.0392  0.2180
 3898SOL    HW111693   2.567   4.146   6.780  0.3052 -1.4936 -0.2288
 3898SOL    HW211694   2.700   4.144   6.851 -0.4064 -0.9770  1.1687
 3899SOL     OW11695   4.474   1.788   8.928 -0.3376  0.0096 -0.0896
 3899SOL    HW111696   4.504   1.783   9.018  2.1205  0.4518 -0.8118
 3899SOL    HW211697   4.543   1.746   8.877 -1.6662 -0.2381 -1.7869
 3900SOL     OW11698   2.803   1.502   9.029  0.0463 -0.2739  0.7906
 3900SOL    HW111699   2.824   1.423   8.980 -0.2554  0.3797 -0.4447
 3900SOL    HW211700   2.726   1.479   9.081 -0.1619 -0.7420  0.2853
 3901SOL     OW11701   2.205  -0.019   7.723  0.0752 -0.2990  0.1440
 3901SOL    HW111702   2.284   0.013   7.679 -0.2515  0.4919  0.1143
 3901SOL    HW211703   2.134   0.036   7.689 -0.5295 -1.1324  0.0134
 3902SOL     OW11704   1.667   0.871   9.979 -0.2537 -0.5746 -0.5146
 3902SOL    HW111705   1.752   0.902   9.949  0.0310 -0.3772  0.4418
 3902SOL    HW211706   1.656   0.785   9.938  0.4348 -0.6276 -0.5960
 3903SOL     OW11707   4.283   4.322   7.677  0.1919 -0.1867 -0.3271
 3903SOL    HW111708   4.309   4.248   7.623  0.1299 -0.9781  0.7051
 3903SOL    HW211709   4.218   4.287   7.737  0.6272  0.5345  0.6080
 3904SOL     OW11710   1.668   4.661   7.238 -0.7495  0.1128 -0.4639
 3904SOL    HW111711   1.584   4.634   7.200  0.5545 -2.3803 -1.8361
 3904SOL    HW211712   1.678   4.753   7.211 -2.9499  0.4665 -0.3027
 3905SOL     OW11713   3.042   2.770   6.711 -0.4258 -0.2838 -0.3524
 3905SOL    HW111714   3.124   2.818   6.726 -0.4832  0.0051 -0.9514
 3905SOL    HW211715   2.973   2.835   6.722 -0.6339 -0.6970  0.9330
 3906SOL     OW11716   4.789   4.391   8.387 -0.1137 -0.2310 -0.4595
 3906SOL    HW111717   4.876   4.416   8.419 -0.3967  0.5196 -0.2474
 3906SOL    HW211718   4.792   4.405   8.293 -0.2066  0.4198 -0.3662
 3907SOL     OW11719   0.442   2.391   8.082  0.3182  0.1625 -0.2155
 3907SOL    HW111720   0.504   2.360   8.016  1.8451  0.6510  0.9388
 3907SOL    HW211721   0.459   2.336   8.159 -0.4515  0.5383  0.2362
 3908SOL     OW11722   3.913   4.348   6.768  0.9503  0.3136 -0.3257
 3908SOL    HW111723   3.917   4.254   6.751  0.0113  0.0023  0.9850
 3908SOL    HW211724   3.823   4.363   6.799  1.2549  1.5401  0.0260
 3909SOL     OW11725   3.931   3.258   7.116  0.5883  0.1242 -0.3545
 3909SOL    HW111726   3.908   3.182   7.169  0.9203 -0.7399 -1.4040
 3909SOL    HW211727   3.856   3.318   7.126 -0.3459 -0.9624 -0.6446
 3910SOL     OW11728   4.554   1.745   8.131 -0.1574  0.4733  0.0404
 3910SOL    HW111729   4.555   1.787   8.217 -2.5808  1.9082 -0.5285
 3910SOL    HW211730   4.545   1.652   8.150  0.2459  0.6752  1.3219
 3911SOL     OW11731   3.853   2.712   5.665 -0.0650  0.6764 -0.5149
 3911SOL    HW111732   3.838   2.794   5.619 -4.4527  0.1177 -0.5622
 3911SOL    HW211733   3.779   2.656   5.639  1.6242 -2.5800  1.0511
 3912SOL     OW11734   4.069   3.217   6.879 -0.0122  0.0835  0.0463
 3912SOL    HW111735   4.125   3.157   6.928  0.0631 -1.4303 -1.7501
 3912SOL    HW211736   4.026   3.270   6.946  2.7368  0.6197  1.5530
 3913SOL     OW11737   1.203   0.061   9.294  0.6883  0.0643 -0.3232
 3913SOL    HW111738   1.255  -0.017   9.276  0.2858  0.0738 -1.5523
 3913SOL    HW211739   1.117   0.042   9.257  0.3039  0.7146  0.2172
 3914SOL     OW11740   3.457   2.832   8.956 -0.8580  0.7821  1.0155
 3914SOL    HW111741   3.417   2.871   8.878 -0.1567 -0.1204  0.1682
 3914SOL    HW211742   3.493   2.906   9.005 -0.9077  1.3277  0.2430
 3915SOL     OW11743   0.143   1.766   7.409  0.6282  0.0844  0.5270
 3915SOL    HW111744   0.144   1.808   7.496 -0.9271 -1.2928  1.2498
 3915SOL    HW211745   0.094   1.685   7.422 -2.5590  1.3219 -2.2969
 3916SOL     OW11746   0.109   2.987   8.377  0.2674 -1.1822  0.0687
 3916SOL    HW111747   0.071   3.073   8.357 -1.8296 -2.1031 -0.2574
 3916SOL    HW211748   0.133   2.992   8.469 -1.5087 -0.7708  0.5539
 3917SOL     OW11749   0.697   3.106   7.880 -0.0437 -0.5649 -0.4778
 3917SOL    HW111750   0.733   3.190   7.908  2.0941 -1.7534  0.6314
 3917SOL    HW211751   0.765   3.069   7.822 -1.3035 -1.2014 -1.6037
 3918SOL     OW11752   4.453   4.972   7.189  0.3264  0.1200 -0.1338
 3918SOL    HW111753   4.389   4.917   7.235  1.6827 -1.5481 -0.1402
 3918SOL    HW211754   4.447   4.943   7.097  0.2529  0.8138 -0.3508
 3919SOL     OW11755   2.900   0.860   7.153  0.0167 -0.3961 -0.0667
 3919SOL    HW111756   2.906   0.785   7.212  0.5974 -0.6773 -0.4741
 3919SOL    HW211757   2.836   0.833   7.087  1.9647 -1.5404 -1.6048
 3920SOL     OW11758   4.505   1.899   9.934 -0.1964  0.2150 -0.3093
 3920SOL    HW111759   4.599   1.908   9.950 -0.1700 -0.2560 -0.1490
 3920SOL    HW211760   4.476   1.986   9.907  0.5731  0.0116 -1.9059
 3921SOL     OW11761   1.509   2.324   6.805  0.4194  0.2882  0.7795
 3921SOL    HW111762   1.580   2.386   6.785 -1.0607  2.2388  1.2772
 3921SOL    HW211763   1.435   2.380   6.828 -1.3942 -1.6868 -0.0413
 3922SOL     OW11764   2.936   4.288   7.378 -0.3211 -0.5439  0.2510
 3922SOL    HW111765   2.880   4.228   7.428 -0.3889 -0.2785  0.4980
 3922SOL    HW211766   3.023   4.250   7.384 -0.3084 -0.4591  0.6656
 3923SOL     OW11767   1.439   2.096   5.949  0.3451  0.2570  0.2463
 3923SOL    HW111768   1.498   2.141   5.888  0.8756 -1.0023 -0.2037
 3923SOL    HW211769   1.399   2.027   5.897 -0.3831  0.1358  0.9480
 3924SOL     OW11770   2.718   4.280   7.672  0.4677  0.7631  0.0663
 3924SOL    HW111771   2.682   4.249   7.589  0.2449 -1.0050  0.7784
 3924SOL    HW211772   2.643   4.315   7.720  0.0345 -0.9396  0.6824
 3925SOL     OW11773   4.429   2.447   5.526 -0.2530  0.0997  0.3880
 3925SOL    HW111774   4.496   2.513   5.541 -1.9031  2.0227 -0.3160
 3925SOL    HW211775   4.431   2.432   5.431 -0.9670  0.3301  0.3348
 3926SOL     OW11776   2.034   0.220   8.910 -0.4156 -0.0007 -0.1674
 3926SOL    HW111777   1.965   0.183   8.855  0.1862 -0.0735 -0.8964
 3926SOL    HW211778   2.108   0.234   8.850  0.3193 -0.2411  0.6486
 3927SOL     OW11779   3.673   4.640   5.809 -0.6302 -0.2162 -0.2693
 3927SOL    HW111780   3.713   4.629   5.895 -0.8776  0.6806 -0.0295
 3927SOL    HW211781   3.610   4.712   5.821  0.9201  1.4884 -1.7066
 3928SOL     OW11782   3.865   4.450   5.430  0.0048 -0.8033 -0.4847
 3928SOL    HW111783   3.903   4.532   5.398  0.6150  0.0184  2.0680
 3928SOL    HW211784   3.798   4.478   5.493 -0.0967 -2.2696  0.0927
 3929SOL     OW11785   3.839   2.463   8.600  0.1744 -0.3071  0.3268
 3929SOL    HW111786   3.913   2.402   8.589  0.4609  0.0244  0.3967
 3929SOL    HW211787   3.798   2.466   8.514  0.8917  0.3307 -0.0110
 3930SOL     OW11788   3.142   0.917   7.288  0.8075 -0.6309  0.2726
 3930SOL    HW111789   3.170   0.837   7.333 -0.4830 -0.9165  0.6085
 3930SOL    HW211790   3.054   0.897   7.257  0.4826  0.6456  0.3212
 3931SOL     OW11791   3.475   1.933   7.062  0.6649 -0.0415  0.0379
 3931SOL    HW111792   3.488   1.968   6.974 -0.4325 -0.3503 -0.2582
 3931SOL    HW211793   3.381   1.940   7.078  0.8621  0.1225  1.2387
 3932SOL     OW11794   3.416   3.829   8.764 -0.2661 -0.1117  0.1191
 3932SOL    HW111795   3.410   3.852   8.857  1.4099  0.4769  0.1122
 3932SOL    HW211796   3.336   3.864   8.726 -0.5328  0.4799  1.1722
 3933SOL     OW11797   4.124   2.154   7.740 -0.1053  0.5007  0.3989
 3933SOL    HW111798   4.044   2.117   7.778  0.5139 -0.8210  0.4651
 3933SOL    HW211799   4.095   2.234   7.697 -2.0239 -1.4068 -2.1253
 3934SOL     OW11800   4.158   1.192   8.417 -0.1132  0.4263 -0.0243
 3934SOL    HW111801   4.172   1.146   8.499  2.6442 -1.1745 -1.2871
 3934SOL    HW211802   4.144   1.123   8.352  0.3905  1.5085 -1.3386
 3935SOL     OW11803   2.526   1.829   5.860  0.2075 -0.0342  0.6282
 3935SOL    HW111804   2.524   1.734   5.870 -0.6224 -0.1601 -0.6099
 3935SOL    HW211805   2.614   1.847   5.825  0.1863 -0.3896  0.3911
 3936SOL     OW11806   3.877   4.692   7.861  0.2642 -0.0893 -0.3806
 3936SOL    HW111807   3.807   4.706   7.797 -0.4426  1.2857  0.6332
 3936SOL    HW211808   3.946   4.752   7.834  0.1075  0.2323 -0.0823
 3937SOL     OW11809   1.133   3.096   9.193  0.2747  0.3419  0.2684
 3937SOL    HW111810   1.152   3.087   9.287 -1.4122 -1.8113  0.5093
 3937SOL    HW211811   1.218   3.089   9.151  0.9463 -0.0199  1.6104
 3938SOL     OW11812   1.758   4.287   9.652  0.4235 -0.0385 -0.3522
 3938SOL    HW111813   1.684   4.233   9.626 -0.3397 -0.3981  2.2184
 3938SOL    HW211814   1.759   4.359   9.590 -1.0709 -0.8788 -1.4168
 3939SOL     OW11815   4.077   3.506   9.749 -0.1889  0.1617  0.6786
 3939SOL    HW111816   4.054   3.586   9.797  1.2429  0.3252  1.1296
 3939SOL    HW211817   4.092   3.441   9.817  2.1626  0.4725  0.5298
 3940SOL     OW11818   0.248   3.864   7.081 -0.0250 -0.2289 -0.3080
 3940SOL    HW111819   0.328   3.895   7.124 -0.2497  2.0425 -1.3918
 3940SOL    HW211820   0.270   3.865   6.988 -0.5154 -2.1408 -0.4785
 3941SOL     OW11821   0.145   0.302   6.480 -0.5424 -0.4798 -0.6709
 3941SOL    HW111822   0.130   0.261   6.394  0.5330 -1.2062 -0.5355
 3941SOL    HW211823   0.220   0.359   6.466  1.2072 -2.4178  0.3032
 3942SOL     OW11824   0.243   4.855   9.399  0.2354 -0.6421  0.0773
 3942SOL    HW111825   0.252   4.905   9.318  0.7008 -1.5685 -0.4588
 3942SOL    HW211826   0.333   4.828   9.421 -0.0613 -1.7858 -0.0199
 3943SOL     OW11827   4.877   4.263   8.654  0.0757  0.1464 -0.0646
 3943SOL    HW111828   4.954   4.211   8.674 -1.2775 -2.1235 -0.3484
 3943SOL    HW211829   4.838   4.220   8.578 -1.5917  1.0658  0.2100
 3944SOL     OW11830   4.988   0.664   7.093  0.2223  0.1002 -0.6664
 3944SOL    HW111831   5.046   0.594   7.062  1.0546  1.0053 -1.2129
 3944SOL    HW211832   4.903   0.643   7.055  0.5529 -0.3950 -1.1593
 3945SOL     OW11833   1.575   2.628   8.279  0.0725  0.3486 -0.3480
 3945SOL    HW111834   1.605   2.538   8.287  3.1396  1.1107 -1.5977
 3945SOL    HW211835   1.481   2.621   8.262 -0.2732 -2.4175  2.0730
 3946SOL     OW11836   4.552   2.994   7.034  0.0805 -0.0589 -0.3124
 3946SOL    HW111837   4.598   3.072   7.003 -1.2303  0.0969 -2.0870
 3946SOL    HW211838   4.608   2.921   7.007  0.0506  0.1876 -1.0856
 3947SOL     OW11839   3.380   2.180   5.460  0.6040  0.2370 -0.2930
 3947SOL    HW111840   3.411   2.256   5.509 -1.4441  0.1702  1.2555
 3947SOL    HW211841   3.439   2.109   5.485  0.8794  0.7099  0.4219
 3948SOL     OW11842   3.006   2.961   4.827  0.5921  0.9454  0.3560
 3948SOL    HW111843   2.940   2.900   4.861  2.0416 -1.8554 -1.5505
 3948SOL    HW211844   2.961   3.046   4.827 -1.7616 -0.1608  2.4811
 3949SOL     OW11845   2.823   1.061   5.765  0.0209 -0.1147 -0.2315
 3949SOL    HW111846   2.819   1.151   5.734  1.5529  0.3152  0.6633
 3949SOL    HW211847   2.744   1.050   5.817 -0.0358  0.8207 -0.0947
 3950SOL     OW11848   0.122   1.801   5.148  0.6428  0.9599  0.4318
 3950SOL    HW111849   0.049   1.753   5.108  0.6765  0.5147  0.8941
 3950SOL    HW211850   0.196   1.741   5.141  0.6511  0.8783  1.1385
 3951SOL     OW11851   2.099   0.485   9.671  0.3951 -0.2464  0.3107
 3951SOL    HW111852   2.029   0.475   9.606 -0.7466 -1.3146  1.6408
 3951SOL    HW211853   2.075   0.425   9.742  1.0296  1.6026  2.1974
 3952SOL     OW11854   3.342   3.143   5.204  0.5102 -0.3445 -0.1390
 3952SOL    HW111855   3.350   3.153   5.299 -1.5489 -2.4110  0.3567
 3952SOL    HW211856   3.304   3.225   5.174  0.5143  0.0638  0.9314
 3953SOL     OW11857   1.464   1.703   8.439 -0.1504  0.2435 -0.0384
 3953SOL    HW111858   1.402   1.766   8.402  1.3720  0.6201 -2.2127
 3953SOL    HW211859   1.452   1.624   8.387  0.3804 -0.0605  0.2897
 3954SOL     OW11860   0.278   0.335   8.416  0.0361  0.3465 -0.0861
 3954SOL    HW111861   0.219   0.390   8.467  2.4154  0.9816  2.2192
 3954SOL    HW211862   0.320   0.395   8.355 -1.0830  0.0396 -1.1894
 3955SOL     OW11863   4.932   3.837   7.982 -0.5674  0.0634  0.4955
 3955SOL    HW111864   4.857   3.847   8.040 -0.2454  0.3080  0.8651
 3955SOL    HW211865   4.904   3.878   7.900 -1.0407 -0.3340  0.4481
 3956SOL     OW11866   4.035   4.502   7.075  0.6692 -0.4321  0.2115
 3956SOL    HW111867   4.081   4.419   7.064  0.4101 -0.7138  1.2083
 3956SOL    HW211868   4.085   4.549   7.142  1.2652  0.5566 -0.8805
 3957SOL     OW11869   0.213   3.972   9.341 -0.1779 -0.3121  0.4025
 3957SOL    HW111870   0.136   4.026   9.322 -0.0704  0.2650  1.5412
 3957SOL    HW211871   0.239   3.996   9.430  2.2645  0.6873 -0.4791
 3958SOL     OW11872   3.846   3.966  10.104  0.8798  0.1172 -0.8531
 3958SOL    HW111873   3.770   3.926  10.062  0.6812 -0.6364  0.1886
 3958SOL    HW211874   3.809   4.038  10.155  0.4390 -1.8235  1.7608
 3959SOL     OW11875   4.543   0.140   5.298  0.0720  0.0907 -0.4109
 3959SOL    HW111876   4.606   0.068   5.300  1.9167  1.6477  1.4637
 3959SOL    HW211877   4.565   0.189   5.218 -0.7242 -0.9591 -1.3083
 3960SOL     OW11878   0.524   2.948   7.136 -0.1340  0.2952 -0.0421
 3960SOL    HW111879   0.457   2.906   7.081 -1.6376  0.9901  1.1711
 3960SOL    HW211880   0.558   2.876   7.190 -3.8663  0.5966  3.2106
 3961SOL     OW11881   2.011   4.293   8.359 -0.2337  0.6105  0.2486
 3961SOL    HW111882   2.006   4.282   8.454  4.6118 -1.8578  0.5345
 3961SOL    HW211883   2.060   4.374   8.346  0.3491  0.2148 -0.0535
 3962SOL     OW11884   3.487   3.057   8.002  0.1900 -0.1400  0.4381
 3962SOL    HW111885   3.442   3.106   8.072  0.3051 -0.5166  0.7793
 3962SOL    HW211886   3.560   3.014   8.047  0.1866 -0.4908  0.1079
 3963SOL     OW11887   2.895   1.617   5.643  0.3040 -0.4793 -0.2846
 3963SOL    HW111888   2.827   1.673   5.605  1.3194  1.5632  0.7323
 3963SOL    HW211889   2.916   1.659   5.727  0.5480 -2.9040  0.9347
 3964SOL     OW11890   3.575   4.713   9.484  0.2937 -0.9256  0.8623
 3964SOL    HW111891   3.487   4.717   9.521  0.4141 -2.2783  1.3526
 3964SOL    HW211892   3.580   4.626   9.444  1.1134 -0.5223  0.0537
 3965SOL     OW11893   0.367   0.719   5.465 -0.5519 -0.3728  0.1828
 3965SOL    HW111894   0.424   0.759   5.399  0.8308 -0.2298  1.4258
 3965SOL    HW211895   0.295   0.682   5.414 -0.4658  1.2786 -1.2533
 3966SOL     OW11896   1.483   3.867   6.521 -0.0322 -0.4357 -0.2500
 3966SOL    HW111897   1.404   3.827   6.483 -1.4417  0.8419  1.1634
 3966SOL    HW211898   1.483   3.956   6.486  1.6408 -0.8191 -1.3506
 3967SOL     OW11899   1.788   3.231   8.567  0.8150 -0.1770 -0.2187
 3967SOL    HW111900   1.721   3.201   8.506  0.4094  1.8214 -0.8154
 3967SOL    HW211901   1.868   3.187   8.537 -0.1376 -2.4830  0.4293
 3968SOL     OW11902   0.223   2.971   5.799 -0.3449 -0.1877  0.3622
 3968SOL    HW111903   0.158   3.005   5.860  1.4078 -0.4909  2.5331
 3968SOL    HW211904   0.299   3.028   5.812  0.0515 -0.1939 -1.6628
 3969SOL     OW11905   3.617   4.451   8.039 -0.1848  0.0081  0.3689
 3969SOL    HW111906   3.670   4.468   8.117  0.4100 -0.1147 -0.0022
 3969SOL    HW211907   3.605   4.356   8.039 -2.9328  0.2491  2.0657
 3970SOL     OW11908   2.990   2.232   5.034 -0.0255 -0.6206 -0.4195
 3970SOL    HW111909   2.998   2.147   4.990  1.5382 -1.4595  1.3201
 3970SOL    HW211910   2.990   2.210   5.127 -2.3596  1.1263  0.0770
 3971SOL     OW11911   1.733   0.299   8.031  0.6675 -0.1683  0.4288
 3971SOL    HW111912   1.751   0.252   7.949  0.8459  3.9906 -2.2293
 3971SOL    HW211913   1.639   0.285   8.046  0.8747 -1.9826  0.2636
 3972SOL     OW11914   2.408   4.056   5.398  0.0894 -0.0877  0.2878
 3972SOL    HW111915   2.377   4.122   5.461 -0.2852 -0.1842  0.2067
 3972SOL    HW211916   2.478   4.100   5.350  2.5667 -0.9301  2.7939
 3973SOL     OW11917   1.720   4.571   8.424  0.2724 -0.1670  0.0107
 3973SOL    HW111918   1.724   4.482   8.388 -0.3743 -0.2614  0.1597
 3973SOL    HW211919   1.754   4.627   8.354  0.4091 -0.5027 -0.1940
 3974SOL     OW11920   1.501   4.554   9.768 -0.1845  0.1470  0.1081
 3974SOL    HW111921   1.596   4.561   9.770 -0.1280 -0.6258  0.5246
 3974SOL    HW211922   1.482   4.472   9.814 -0.9439 -0.6228 -1.4959
 3975SOL     OW11923   4.192   4.792   5.400  0.1003 -0.5131  0.1663
 3975SOL    HW111924   4.158   4.703   5.396  0.2355 -0.5833  0.5016
 3975SOL    HW211925   4.259   4.788   5.468  0.0162 -0.1255  0.2716
 3976SOL     OW11926   2.473   3.740   9.047 -0.0811  0.1625  0.0885
 3976SOL    HW111927   2.510   3.678   9.110  1.0559  0.0028 -0.7095
 3976SOL    HW211928   2.393   3.771   9.088  0.4614 -0.1925  1.4661
 3977SOL     OW11929   2.930   0.808   7.956 -0.3316  0.2150 -0.0202
 3977SOL    HW111930   2.983   0.819   7.877 -1.0978  1.0211 -0.4371
 3977SOL    HW211931   2.860   0.748   7.930 -0.3359  0.1311  0.1793
 3978SOL     OW11932   0.322   4.077   5.433  0.5078  0.2397 -0.3685
 3978SOL    HW111933   0.390   4.145   5.427  1.3150 -0.4072  1.0050
 3978SOL    HW211934   0.343   4.015   5.363  0.9144  0.4065 -0.3953
 3979SOL     OW11935   4.698   3.260   8.038 -0.2445  0.2288  0.1445
 3979SOL    HW111936   4.701   3.179   8.090  2.0526  0.2777  0.1826
 3979SOL    HW211937   4.612   3.298   8.058 -1.1358 -1.8808  0.5812
 3980SOL     OW11938   4.193   1.915   7.966  0.1837 -0.1216 -0.1826
 3980SOL    HW111939   4.165   1.980   7.901  0.5076 -0.7003 -0.9162
 3980SOL    HW211940   4.161   1.831   7.931  1.9553 -0.6798 -0.5502
 3981SOL     OW11941   2.683   1.211   9.688 -0.6087  0.1542 -0.7634
 3981SOL    HW111942   2.654   1.133   9.641 -0.0266 -2.0579  2.2218
 3981SOL    HW211943   2.776   1.195   9.706 -0.5623  1.3489  0.2105
 3982SOL     OW11944   1.678   4.676   6.152  0.1897  0.3239  0.4474
 3982SOL    HW111945   1.627   4.685   6.233 -1.6032 -0.8581 -0.4916
 3982SOL    HW211946   1.613   4.665   6.083  1.6863  0.8945 -1.1421
 3983SOL     OW11947   2.851   1.031   8.757 -0.5623 -0.2344  0.1556
 3983SOL    HW111948   2.805   1.101   8.711 -0.7083  0.1875  0.9248
 3983SOL    HW211949   2.854   0.959   8.694 -2.1957 -0.2457  0.0393
 3984SOL     OW11950   2.986   1.608   7.742 -0.3461  0.4993  0.3396
 3984SOL    HW111951   3.043   1.644   7.809 -0.7242 -2.8848  2.7361
 3984SOL    HW211952   2.902   1.654   7.754 -0.7746 -0.8501  3.1253
 3985SOL     OW11953   4.063   3.698   7.837  0.0850 -0.2728  0.0070
 3985SOL    HW111954   4.008   3.634   7.882  0.5902  0.8937  2.4443
 3985SOL    HW211955   4.029   3.783   7.865  1.1154  0.4977 -0.9866
 3986SOL     OW11956   4.544   3.982   8.301 -0.4891  0.1402  0.0275
 3986SOL    HW111957   4.616   4.003   8.360 -0.6806 -2.4735  1.3632
 3986SOL    HW211958   4.485   4.057   8.305  1.0426  1.3570  0.6615
 3987SOL     OW11959   0.456   1.252   7.057 -0.0686 -0.4645 -0.1824
 3987SOL    HW111960   0.465   1.169   7.011 -0.5647 -0.8342  0.3607
 3987SOL    HW211961   0.420   1.227   7.143  0.2471  0.2626  0.1635
 3988SOL     OW11962   3.395   4.736   6.480 -0.0963 -0.2131 -0.1348
 3988SOL    HW111963   3.398   4.790   6.401 -1.8905  0.8323  0.4465
 3988SOL    HW211964   3.404   4.647   6.448  2.4144  0.3387 -1.1850
 3989SOL     OW11965   4.510   1.350  10.292  0.3186  0.3532 -0.0712
 3989SOL    HW111966   4.539   1.409  10.362  2.8392  2.3492 -2.5734
 3989SOL    HW211967   4.576   1.280  10.291 -0.4235 -0.3833  0.2681
 3990SOL     OW11968   2.128   0.022   8.322  0.5780  0.1975 -0.3686
 3990SOL    HW111969   2.098   0.087   8.386  0.0160  0.1374 -0.5725
 3990SOL    HW211970   2.075   0.039   8.244  0.9099 -0.0606 -0.6532
 3991SOL     OW11971   1.966   1.798  10.248 -0.6962  0.1990  0.3214
 3991SOL    HW111972   1.989   1.842  10.330 -0.4901  0.0610  0.3389
 3991SOL    HW211973   2.051   1.780  10.206 -0.7016 -1.2871  0.8852
 3992SOL     OW11974   5.015   1.386   8.492 -0.1574  0.1919 -0.3278
 3992SOL    HW111975   4.930   1.410   8.528  0.4348  0.5919  0.8630
 3992SOL    HW211976   4.996   1.319   8.427 -1.2749 -0.7079  0.8726
 3993SOL     OW11977   0.249   1.282   7.767  0.2950 -0.0842 -0.4060
 3993SOL    HW111978   0.322   1.228   7.736  0.3929  0.2498 -0.7579
 3993SOL    HW211979   0.200   1.224   7.824  2.5974  0.5356  2.4659
 3994SOL     OW11980   1.799   3.527   7.665  0.0776 -0.4597  0.9714
 3994SOL    HW111981   1.887   3.496   7.645  0.2569 -0.1662  1.2905
 3994SOL    HW211982   1.749   3.510   7.585  0.9458  1.3330 -0.0238
 3995SOL     OW11983   4.594   2.071   9.520 -0.3688  0.0450 -0.1290
 3995SOL    HW111984   4.682   2.034   9.512 -0.7042 -0.4600 -1.7699
 3995SOL    HW211985   4.548   2.009   9.577  0.3638  0.4049  0.8860
 3996SOL     OW11986   3.508   3.642   7.952  0.1952 -0.1568 -0.0952
 3996SOL    HW111987   3.443   3.613   7.888  0.2625 -1.3925  0.3770
 3996SOL    HW211988   3.585   3.662   7.900 -0.6903  1.8711 -0.7289
 3997SOL     OW11989   4.734   1.746  10.195  0.4439 -0.8034  0.1387
 3997SOL    HW111990   4.741   1.719  10.286  1.1380 -1.8957 -0.2124
 3997SOL    HW211991   4.681   1.678  10.153  1.0549 -0.9159 -0.4874
 3998SOL     OW11992   0.609   2.338   8.521  1.1864 -0.3062 -0.0975
 3998SOL    HW111993   0.677   2.319   8.455  1.9945  1.6587  0.1034
 3998SOL    HW211994   0.605   2.433   8.523 -2.6874 -0.3044 -1.1478
 3999SOL     OW11995   2.220   3.123   7.974  1.3179  0.1110 -0.0530
 3999SOL    HW111996   2.124   3.117   7.970  1.3471 -0.0266 -0.6456
 3999SOL    HW211997   2.243   3.081   8.057  0.7726  1.3155  0.7391
 4000SOL     OW11998   2.402   2.957   8.697  0.7037  0.2289  0.4618
 4000SOL    HW111999   2.487   2.988   8.666  0.7453  0.9873  1.2818
 4000SOL    HW212000   2.345   2.962   8.620  0.9916  1.3472  0.2988
 4001SOL     OW12001   0.080   1.966   9.547  0.2294  0.1443 -0.2035
 4001SOL    HW112002   0.005   2.011   9.585 -0.2587  1.0080 -2.0909
 4001SOL    HW212003   0.155   2.021   9.570  0.5716 -1.3398  2.7356
 4002SOL     OW12004  -0.013   3.523   8.739  0.2575 -0.1029 -0.1583
 4002SOL    HW112005   0.000   3.550   8.830 -0.3189  1.0405 -0.3977
 4002SOL    HW212006   0.066   3.475   8.717  1.0782  0.9222  0.4725
 4003SOL     OW12007   0.188   1.279  10.488 -0.7577 -0.3350  0.0962
 4003SOL    HW112008   0.263   1.292  10.545  1.1371  2.8943 -2.7812
 4003SOL    HW212009   0.151   1.366  10.475 -2.0006 -1.1239 -2.3810
 4004SOL     OW12010   3.208   0.036  10.130 -0.5273 -1.2239  0.2344
 4004SOL    HW112011   3.296   0.001  10.138  1.7982  3.9632  1.1928
 4004SOL    HW212012   3.187   0.069  10.218  0.6804  5.4312 -1.4573
 4005SOL     OW12013   2.848   0.241   8.814 -0.0070 -0.1883 -0.8323
 4005SOL    HW112014   2.916   0.242   8.881 -0.1616 -2.7526 -0.5700
 4005SOL    HW212015   2.848   0.152   8.780 -1.9048  0.2760 -2.2295
 4006SOL     OW12016   0.422   2.083   7.131 -0.1571  0.2085  0.5286
 4006SOL    HW112017   0.343   2.048   7.173 -1.2616  0.9217 -0.8864
 4006SOL    HW212018   0.429   2.172   7.166  0.3372 -0.0249  1.0426
 4007SOL     OW12019   2.122   1.226   7.834  0.4587  0.3559 -0.0415
 4007SOL    HW112020   2.086   1.143   7.802 -2.5339  1.5258 -0.0649
 4007SOL    HW212021   2.106   1.288   7.763  1.2567  1.2954  0.5668
 4008SOL     OW12022   0.019   2.022   8.702 -0.0433 -0.3024  0.2234
 4008SOL    HW112023   0.004   2.104   8.656  3.6417  0.9588  0.9281
 4008SOL    HW212024   0.037   1.958   8.632 -1.5376 -0.2403 -0.2595
 4009SOL     OW12025   2.442   0.600   7.731 -0.3284 -0.0651 -0.3487
 4009SOL    HW112026   2.414   0.688   7.756 -1.0013 -0.0063 -1.2805
 4009SOL    HW212027   2.402   0.543   7.796 -3.3565 -0.0709 -2.0620
 4010SOL     OW12028   4.302   4.666   6.393  0.4687  0.4524  0.1790
 4010SOL    HW112029   4.284   4.727   6.465  1.9870  0.9850  0.1285
 4010SOL    HW212030   4.326   4.584   6.436  0.2788  0.4341  0.2541
 4011SOL     OW12031   2.076   4.738   9.974 -0.2377  0.5170 -0.4296
 4011SOL    HW112032   2.069   4.707  10.064  2.1391 -0.9256 -0.6577
 4011SOL    HW212033   2.161   4.705   9.944  0.2197  3.1565 -2.3597
 4012SOL     OW12034   3.174   3.260   9.355  0.4039  0.4177  0.0365
 4012SOL    HW112035   3.192   3.223   9.269  1.0741  0.0745  0.3244
 4012SOL    HW212036   3.099   3.318   9.340  0.9131  0.8518 -0.9014
 4013SOL     OW12037   3.608   4.248   8.400 -0.1171 -0.4108 -0.1363
 4013SOL    HW112038   3.682   4.187   8.404  1.1552  1.0974  0.5643
 4013SOL    HW212039   3.620   4.295   8.318 -0.2887 -0.1465 -0.0104
 4014SOL     OW12040   1.945   3.459   7.275  0.3158 -0.2322 -0.5156
 4014SOL    HW112041   1.872   3.519   7.262  0.6610  0.6159  1.1677
 4014SOL    HW212042   1.922   3.411   7.355  0.1980 -2.1475 -1.6543
 4015SOL     OW12043   3.846   2.867   9.379  0.1320  1.1241 -0.2746
 4015SOL    HW112044   3.775   2.808   9.405  0.0587  0.4820 -1.8420
 4015SOL    HW212045   3.810   2.918   9.306  0.8506  1.7290 -0.2227
 4016SOL     OW12046   3.380   0.946   9.570  0.4854  0.2823  0.2567
 4016SOL    HW112047   3.338   0.988   9.645 -2.5439 -0.5898 -0.7683
 4016SOL    HW212048   3.381   0.853   9.592  0.1635  0.0942 -0.4943
 4017SOL     OW12049   0.010   3.453   9.523  1.2093  0.0534  0.1607
 4017SOL    HW112050   0.079   3.389   9.537 -0.0449 -1.3998 -0.0388
 4017SOL    HW212051   0.004   3.500   9.607  1.0396 -1.2387  0.9014
 4018SOL     OW12052   4.588   3.387   7.754  0.0300  0.2284 -0.7440
 4018SOL    HW112053   4.527   3.318   7.782  0.0444  0.6290  0.3103
 4018SOL    HW212054   4.652   3.391   7.825 -0.7699  2.3063 -0.0844
 4019SOL     OW12055   3.277   0.774  10.115 -0.2170 -0.0788 -0.2798
 4019SOL    HW112056   3.254   0.723  10.192 -1.4023 -0.5836 -0.9413
 4019SOL    HW212057   3.278   0.865  10.145 -0.8246 -0.2588  0.2958
 4020SOL     OW12058   4.758   4.049   9.105 -0.3561  0.0269  0.2043
 4020SOL    HW112059   4.808   4.006   9.036 -0.3205  0.1998  0.1212
 4020SOL    HW212060   4.667   4.048   9.074 -0.1062  1.7597 -0.7217
 4021SOL     OW12061   4.888   0.107   9.441 -0.3145  0.1478  0.5088
 4021SOL    HW112062   4.946   0.183   9.430  0.4755 -0.5253 -0.1468
 4021SOL    HW212063   4.822   0.136   9.504  0.1507  1.2734  0.5060
 4022SOL     OW12064   4.148   4.054   9.757  0.4872 -0.4049 -0.2132
 4022SOL    HW112065   4.223   4.052   9.698  0.3243 -1.4339 -0.4044
 4022SOL    HW212066   4.162   4.131   9.812  0.8224  0.3830 -1.3551
 4023SOL     OW12067   4.591   2.087   8.474  0.5826 -0.1851  0.1831
 4023SOL    HW112068   4.589   2.149   8.401  1.2673  1.1682  1.2540
 4023SOL    HW212069   4.610   2.141   8.550 -2.6087 -1.1376  1.8339
 4024SOL     OW12070   3.388   2.499   7.497 -0.1224  0.3209 -0.5738
 4024SOL    HW112071   3.304   2.464   7.467  0.1875  0.0357 -1.1161
 4024SOL    HW212072   3.451   2.430   7.479  0.0252 -0.0276  1.1359
 4025SOL     OW12073   3.235   4.694   7.423 -0.2807 -0.1120  0.5781
 4025SOL    HW112074   3.234   4.607   7.383  3.0417 -1.0669  2.2212
 4025SOL    HW212075   3.239   4.678   7.517  1.6422  1.6756  0.8957
 4026SOL     OW12076   4.470   0.795   4.951 -0.5801 -0.5800  0.5900
 4026SOL    HW112077   4.529   0.775   5.024 -0.3442  0.5655  0.7336
 4026SOL    HW212078   4.421   0.714   4.937 -0.5739 -0.8465  1.9705
 4027SOL     OW12079   4.426   3.556   8.001 -0.1521 -0.2457  0.1517
 4027SOL    HW112080   4.421   3.584   7.909  0.5617  0.9400  0.4515
 4027SOL    HW212081   4.520   3.554   8.020 -0.2842 -0.7557  0.7866
 4028SOL     OW12082   4.744   4.719   8.612 -0.3764  0.6113 -0.4641
 4028SOL    HW112083   4.719   4.793   8.667  0.2814 -0.7058  1.7264
 4028SOL    HW212084   4.801   4.758   8.544 -0.2288  2.1384  0.4904
 4029SOL     OW12085   0.818   4.715   8.384 -0.2687  0.0586 -0.4829
 4029SOL    HW112086   0.886   4.656   8.416  0.0559  0.7710  0.1544
 4029SOL    HW212087   0.749   4.712   8.451 -2.1721 -2.7322 -2.3274
 4030SOL     OW12088   4.284   2.429  10.112  0.4411 -0.5461 -0.0990
 4030SOL    HW112089   4.193   2.455  10.101  0.1242 -0.9874  1.3200
 4030SOL    HW212090   4.332   2.485  10.051 -0.8755 -1.1769 -1.8120
 4031SOL     OW12091   3.140   0.208   9.594  0.2304  0.3980 -0.4666
 4031SOL    HW112092   3.168   0.247   9.677  1.5406 -0.3852 -0.5108
 4031SOL    HW212093   3.099   0.280   9.547 -1.4363  0.6433  1.2181
 4032SOL     OW12094   2.319   0.614   4.957  0.3974 -0.8223  0.2350
 4032SOL    HW112095   2.306   0.576   4.870 -0.3060 -4.1052  1.6123
 4032SOL    HW212096   2.260   0.689   4.959 -2.7324 -3.0419 -0.8544
 4033SOL     OW12097   0.336   2.530   8.413  0.0858  0.1408  0.4506
 4033SOL    HW112098   0.313   2.562   8.326 -0.1736 -1.6619 -0.1846
 4033SOL    HW212099   0.273   2.460   8.431 -0.0092  0.6306  2.1949
 4034SOL     OW12100   3.767   2.392   8.196 -0.5079  0.1396  0.2334
 4034SOL    HW112101   3.717   2.473   8.204 -1.0481 -0.2094  0.4308
 4034SOL    HW212102   3.750   2.360   8.108  0.1757  0.5408 -0.0533
 4035SOL     OW12103   2.022   3.512   9.467 -0.0302 -0.3771  0.1539
 4035SOL    HW112104   2.101   3.476   9.427 -1.2507 -2.0795 -0.8054
 4035SOL    HW212105   1.950   3.466   9.426 -1.5676  1.1257  1.0147
 4036SOL     OW12106   2.160   3.360   8.289 -0.2109  0.1366  0.0737
 4036SOL    HW112107   2.084   3.409   8.321  1.3504  1.6057  1.7476
 4036SOL    HW212108   2.222   3.427   8.262  0.6478 -1.0363 -0.9520
 4037SOL     OW12109   0.076   0.466   7.556  0.2442 -0.2813  0.2439
 4037SOL    HW112110   0.054   0.404   7.625  1.8951 -1.6234 -0.3821
 4037SOL    HW212111   0.041   0.550   7.587 -2.3677 -1.5253  0.9628
 4038SOL     OW12112   3.990   2.938   8.647  0.1066  0.0675 -0.5882
 4038SOL    HW112113   3.906   2.977   8.670  0.3913 -0.1118  0.8407
 4038SOL    HW212114   4.051   2.972   8.713  0.7899 -1.1755 -0.5554
 4039SOL     OW12115   2.497   1.851   7.567 -0.4666 -0.0975 -0.4182
 4039SOL    HW112116   2.444   1.841   7.488  0.3859  0.7153 -1.1237
 4039SOL    HW212117   2.517   1.762   7.595 -0.3672 -0.3922 -1.4052
 4040SOL     OW12118   4.100   0.276   9.936  0.9050 -0.6035 -0.7220
 4040SOL    HW112119   4.040   0.348   9.916 -0.7907 -0.8114  2.9039
 4040SOL    HW212120   4.042   0.201   9.949  2.3200 -1.7272 -0.7329
 4041SOL     OW12121   0.400   0.470   8.196  0.1519  0.3409  0.0246
 4041SOL    HW112122   0.386   0.507   8.108 -1.2513 -2.2057 -0.9558
 4041SOL    HW212123   0.400   0.375   8.181 -1.2565 -0.2002  2.9351
 4042SOL     OW12124   3.916   4.840   8.949 -0.7240 -0.5044 -0.1087
 4042SOL    HW112125   3.968   4.902   9.000  0.9043 -1.6141 -0.3562
 4042SOL    HW212126   3.863   4.794   9.015  1.7616 -2.3059  0.7525
 4043SOL     OW12127   3.966   2.236   8.443  0.6974 -0.3591  0.4725
 4043SOL    HW112128   4.001   2.214   8.357 -0.4251 -2.4775  0.4727
 4043SOL    HW212129   4.005   2.172   8.502 -0.1850 -0.3013  1.1414
 4044SOL     OW12130   1.499   1.589   7.677 -0.9017 -0.1152  0.2903
 4044SOL    HW112131   1.407   1.577   7.654 -1.6826  0.9351  2.5198
 4044SOL    HW212132   1.527   1.503   7.710 -0.7775 -0.6824 -1.2424
 4045SOL     OW12133   0.642   3.431   7.862  0.3365 -0.0489 -0.6570
 4045SOL    HW112134   0.569   3.485   7.831  0.6811 -0.8707 -3.0741
 4045SOL    HW212135   0.717   3.491   7.863  0.4662 -0.1486 -2.1762
 4046SOL     OW12136   2.601   0.814   9.342  0.6758  0.3714  0.7053
 4046SOL    HW112137   2.620   0.904   9.315 -2.4009  0.9817  0.2090
 4046SOL    HW212138   2.619   0.814   9.436 -1.2812  2.2581  1.1939
 4047SOL     OW12139   4.338   3.708   8.708  0.0418 -0.2070  0.5971
 4047SOL    HW112140   4.431   3.721   8.693 -0.0566 -0.8706 -0.7446
 4047SOL    HW212141   4.331   3.616   8.734 -0.2998 -0.3339  0.0658
 4048SOL     OW12142   3.047   4.609   8.597 -0.3523 -0.5600  0.9781
 4048SOL    HW112143   3.073   4.519   8.576 -2.6025 -1.5067  1.9335
 4048SOL    HW212144   3.122   4.644   8.645  1.4303 -1.1497 -1.1962
 4049SOL     OW12145   1.830   3.558   5.289 -0.5687 -0.5217  0.1867
 4049SOL    HW112146   1.843   3.608   5.208  1.0961 -1.4851 -0.1919
 4049SOL    HW212147   1.736   3.540   5.291 -0.9123  1.0354 -0.5982
 4050SOL     OW12148   3.257   2.666   9.806 -0.2444  0.8288 -0.4287
 4050SOL    HW112149   3.178   2.690   9.758  0.1331  1.9672 -0.5057
 4050SOL    HW212150   3.294   2.593   9.756 -0.5338  1.1631 -1.1424
 4051SOL     OW12151   2.853   3.870   8.642  0.0295  0.9502  0.3547
 4051SOL    HW112152   2.804   3.796   8.608 -0.7768  2.2181 -1.4091
 4051SOL    HW212153   2.786   3.931   8.674  0.6543  1.1325  1.3791
 4052SOL     OW12154   1.259   3.476   7.987  0.3474 -0.7269  0.0091
 4052SOL    HW112155   1.283   3.483   7.895  0.4345 -0.1279  0.0747
 4052SOL    HW212156   1.242   3.566   8.015 -0.4250 -0.9798  0.3835
 4053SOL     OW12157   1.038   2.688  10.508 -0.5087  0.2270  0.2657
 4053SOL    HW112158   0.984   2.706  10.430 -2.5051  3.3206  2.1362
 4053SOL    HW212159   1.088   2.768  10.522  0.4751 -0.5942  1.6901
 4054SOL     OW12160   4.270   4.878   8.755  0.1442 -0.5095 -0.2432
 4054SOL    HW112161   4.295   4.822   8.681  1.4877 -1.5655  0.9599
 4054SOL    HW212162   4.231   4.818   8.819 -0.9739  0.3818 -0.0544
 4055SOL     OW12163   4.771   3.989   5.932  0.3468  0.1191 -0.5472
 4055SOL    HW112164   4.843   3.998   5.994  1.4394  1.0864 -1.8873
 4055SOL    HW212165   4.812   3.947   5.856 -0.2765  1.4304 -1.6467
   5.00000   5.00000  15.00000
