Water Box for Fluid Dynamics Phase 2 in water
 6495
    1SOL     OW    1   0.233   0.626   0.123
    1SOL    HW1    2   0.140   0.628   0.149
    1SOL    HW2    3   0.232   0.608   0.029
    2SOL     OW    4   0.225   0.283   0.989
    2SOL    HW1    5   0.254   0.254   1.076
    2SOL    HW2    6   0.140   0.240   0.977
    3SOL     OW    7   4.015   0.389   0.633
    3SOL    HW1    8   3.934   0.398   0.684
    3SOL    HW2    9   4.011   0.301   0.597
    4SOL     OW   10   0.569   1.274   1.170
    4SOL    HW1   11   0.482   1.277   1.131
    4SOL    HW2   12   0.582   1.361   1.206
    5SOL     OW   13   1.554   1.511   0.702
    5SOL    HW1   14   1.505   1.498   0.784
    5SOL    HW2   15   1.486   1.519   0.635
    6SOL     OW   16   1.131   0.701   0.711
    6SOL    HW1   17   1.183   0.780   0.694
    6SOL    HW2   18   1.081   0.721   0.790
    7SOL     OW   19   1.814   0.578   0.233
    7SOL    HW1   20   1.768   0.588   0.150
    7SOL    HW2   21   1.755   0.524   0.287
    8SOL     OW   22   0.764   1.146   1.031
    8SOL    HW1   23   0.692   1.174   1.086
    8SOL    HW2   24   0.795   1.226   0.989
    9SOL     OW   25   0.854   0.792   1.821
    9SOL    HW1   26   0.848   0.865   1.883
    9SOL    HW2   27   0.877   0.833   1.738
   10SOL     OW   28   0.688   1.016   0.655
   10SOL    HW1   29   0.748   0.994   0.726
   10SOL    HW2   30   0.615   1.060   0.698
   11SOL     OW   31   0.699   1.155   1.805
   11SOL    HW1   32   0.748   1.235   1.823
   11SOL    HW2   33   0.615   1.186   1.772
   12SOL     OW   34   0.350   1.412   1.077
   12SOL    HW1   35   0.268   1.395   1.030
   12SOL    HW2   36   0.398   1.474   1.022
   13SOL     OW   37   1.462   1.500   1.344
   13SOL    HW1   38   1.490   1.589   1.361
   13SOL    HW2   39   1.429   1.468   1.428
   14SOL     OW   40   0.444   0.401   1.504
   14SOL    HW1   41   0.522   0.346   1.498
   14SOL    HW2   42   0.370   0.340   1.502
   15SOL     OW   43   1.612   0.450   0.737
   15SOL    HW1   44   1.537   0.485   0.688
   15SOL    HW2   45   1.643   0.525   0.788
   16SOL     OW   46   0.231   1.706   0.491
   16SOL    HW1   47   0.258   1.791   0.528
   16SOL    HW2   48   0.278   1.701   0.408
   17SOL     OW   49   1.133   1.340   1.689
   17SOL    HW1   50   1.172   1.338   1.776
   17SOL    HW2   51   1.080   1.261   1.685
   18SOL     OW   52   0.235   1.439   0.538
   18SOL    HW1   53   0.214   1.532   0.535
   18SOL    HW2   54   0.164   1.399   0.589
   19SOL     OW   55   0.246   1.079   0.883
   19SOL    HW1   56   0.258   0.999   0.934
   19SOL    HW2   57   0.194   1.136   0.939
   20SOL     OW   58   0.619   1.788   1.436
   20SOL    HW1   59   0.534   1.774   1.477
   20SOL    HW2   60   0.642   1.878   1.459
   21SOL     OW   61   0.607   0.975   0.131
   21SOL    HW1   62   0.608   1.061   0.088
   21SOL    HW2   63   0.650   0.991   0.216
   22SOL     OW   64   1.580   0.124   1.465
   22SOL    HW1   65   1.584   0.199   1.406
   22SOL    HW2   66   1.575   0.162   1.553
   23SOL     OW   67   0.133   0.643   0.567
   23SOL    HW1   68   0.086   0.560   0.577
   23SOL    HW2   69   0.108   0.694   0.644
   24SOL     OW   70   1.837   1.774   0.356
   24SOL    HW1   71   1.891   1.731   0.422
   24SOL    HW2   72   1.887   1.852   0.331
   25SOL     OW   73   0.016   1.580   0.110
   25SOL    HW1   74   0.008   1.495   0.154
   25SOL    HW2   75  -0.007   1.644   0.177
   26SOL     OW   76   1.689   0.919   0.627
   26SOL    HW1   77   1.779   0.888   0.619
   26SOL    HW2   78   1.675   0.973   0.550
   27SOL     OW   79   1.644   1.108   0.431
   27SOL    HW1   80   1.727   1.120   0.384
   27SOL    HW2   81   1.651   1.166   0.507
   28SOL     OW   82   0.120   0.745   1.598
   28SOL    HW1   83   0.212   0.739   1.625
   28SOL    HW2   84   0.105   0.838   1.581
   29SOL     OW   85   0.611   1.375   0.733
   29SOL    HW1   86   0.566   1.291   0.739
   29SOL    HW2   87   0.593   1.405   0.643
   30SOL     OW   88   1.292   1.237   1.425
   30SOL    HW1   89   1.326   1.168   1.368
   30SOL    HW2   90   1.344   1.229   1.505
   31SOL     OW   91   0.810   0.000   0.508
   31SOL    HW1   92   0.852   0.085   0.495
   31SOL    HW2   93   0.716   0.020   0.511
   32SOL     OW   94   0.192   0.967   1.269
   32SOL    HW1   95   0.278   0.929   1.251
   32SOL    HW2   96   0.130   0.907   1.227
   33SOL     OW   97   1.530   0.990   0.193
   33SOL    HW1   98   1.459   0.933   0.221
   33SOL    HW2   99   1.568   1.022   0.275
   34SOL     OW  100   1.184   1.798   1.616
   34SOL    HW1  101   1.208   1.853   1.542
   34SOL    HW2  102   1.198   1.709   1.586
   35SOL     OW  103   0.325   0.252   1.803
   35SOL    HW1  104   0.384   0.327   1.807
   35SOL    HW2  105   0.241   0.285   1.834
   36SOL     OW  106   1.464   1.420   0.954
   36SOL    HW1  107   1.399   1.429   1.023
   36SOL    HW2  108   1.453   1.330   0.923
   37SOL     OW  109   1.662   1.723   0.577
   37SOL    HW1  110   1.633   1.697   0.490
   37SOL    HW2  111   1.640   1.649   0.633
   38SOL     OW  112   0.591   0.726   0.266
   38SOL    HW1  113   0.620   0.804   0.219
   38SOL    HW2  114   0.528   0.758   0.330
   39SOL     OW  115   1.279   0.353   0.940
   39SOL    HW1  116   1.195   0.308   0.938
   39SOL    HW2  117   1.336   0.296   0.991
   40SOL     OW  118   1.581   1.664   0.309
   40SOL    HW1  119   1.671   1.696   0.305
   40SOL    HW2  120   1.559   1.644   0.218
   41SOL     OW  121   0.800   0.611   1.457
   41SOL    HW1  122   0.766   0.594   1.545
   41SOL    HW2  123   0.752   0.550   1.401
   42SOL     OW  124   1.393   0.472   1.676
   42SOL    HW1  125   1.387   0.515   1.762
   42SOL    HW2  126   1.463   0.408   1.687
   43SOL     OW  127   0.964   0.891   1.578
   43SOL    HW1  128   1.016   0.817   1.546
   43SOL    HW2  129   0.917   0.922   1.501
   44SOL     OW  130   0.991   0.405   1.244
   44SOL    HW1  131   0.913   0.439   1.288
   44SOL    HW2  132   0.957   0.366   1.163
   45SOL     OW  133   1.046   0.700   0.429
   45SOL    HW1  134   1.060   0.692   0.523
   45SOL    HW2  135   0.965   0.651   0.413
   46SOL     OW  136   0.080   0.817   0.786
   46SOL    HW1  137   0.169   0.796   0.814
   46SOL    HW2  138   0.069   0.910   0.806
   47SOL     OW  139   0.130   1.842   1.570
   47SOL    HW1  140   0.132   1.807   1.659
   47SOL    HW2  141   0.038   1.839   1.545
   48SOL     OW  142   0.883   0.346   0.212
   48SOL    HW1  143   0.917   0.402   0.142
   48SOL    HW2  144   0.878   0.259   0.172
   49SOL     OW  145   1.715   0.579   1.829
   49SOL    HW1  146   1.686   0.663   1.792
   49SOL    HW2  147   1.726   0.522   1.752
   50SOL     OW  148   1.369   1.143   0.543
   50SOL    HW1  149   1.448   1.125   0.492
   50SOL    HW2  150   1.321   1.206   0.490
   51SOL     OW  151   0.554   0.195   0.884
   51SOL    HW1  152   0.551   0.205   0.979
   51SOL    HW2  153   0.550   0.285   0.851
   52SOL     OW  154   1.009   1.460   0.477
   52SOL    HW1  155   0.956   1.533   0.445
   52SOL    HW2  156   1.006   1.468   0.573
   53SOL     OW  157   0.359   1.804   0.859
   53SOL    HW1  158   0.419   1.729   0.855
   53SOL    HW2  159   0.416   1.881   0.860
   54SOL     OW  160   1.797   1.064   0.868
   54SOL    HW1  161   1.735   1.051   0.796
   54SOL    HW2  162   1.742   1.069   0.946
   55SOL     OW  163   1.228   1.545   1.508
   55SOL    HW1  164   1.221   1.471   1.568
   55SOL    HW2  165   1.172   1.522   1.435
   56SOL     OW  166   0.317   0.949   0.249
   56SOL    HW1  167   0.395   0.979   0.201
   56SOL    HW2  168   0.293   0.867   0.206
   57SOL     OW  169   1.469   0.733   0.727
   57SOL    HW1  170   1.456   0.683   0.807
   57SOL    HW2  171   1.543   0.791   0.746
   58SOL     OW  172   0.462   1.258   1.735
   58SOL    HW1  173   0.428   1.269   1.646
   58SOL    HW2  174   0.384   1.261   1.791
   59SOL     OW  175   1.105   1.777   0.226
   59SOL    HW1  176   1.057   1.724   0.289
   59SOL    HW2  177   1.153   1.714   0.172
   60SOL     OW  178   0.198   0.296   1.497
   60SOL    HW1  179   0.108   0.329   1.487
   60SOL    HW2  180   0.195   0.244   1.577
   61SOL     OW  181   1.629   1.375   0.098
   61SOL    HW1  182   1.598   1.462   0.075
   61SOL    HW2  183   1.559   1.316   0.069
   62SOL     OW  184   0.478   1.738   0.333
   62SOL    HW1  185   0.505   1.798   0.402
   62SOL    HW2  186   0.555   1.729   0.277
   63SOL     OW  187   1.433   0.148   0.408
   63SOL    HW1  188   1.401   0.088   0.340
   63SOL    HW2  189   1.524   0.122   0.422
   64SOL     OW  190   0.251   1.790   1.237
   64SOL    HW1  191   0.302   1.726   1.286
   64SOL    HW2  192   0.236   1.749   1.152
   65SOL     OW  193   0.940   1.698   0.903
   65SOL    HW1  194   1.015   1.642   0.921
   65SOL    HW2  195   0.892   1.652   0.834
   66SOL     OW  196   0.386   0.697   0.478
   66SOL    HW1  197   0.420   0.607   0.484
   66SOL    HW2  198   0.294   0.689   0.505
   67SOL     OW  199   1.539   0.235   1.725
   67SOL    HW1  200   1.541   0.255   1.818
   67SOL    HW2  201   1.485   0.157   1.718
   68SOL     OW  202   0.614   0.110   0.119
   68SOL    HW1  203   0.709   0.101   0.124
   68SOL    HW2  204   0.595   0.119   0.026
   69SOL     OW  205   0.783   0.278   1.756
   69SOL    HW1  206   0.838   0.204   1.782
   69SOL    HW2  207   0.714   0.280   1.822
   70SOL     OW  208   0.881   1.518   1.193
   70SOL    HW1  209   0.865   1.484   1.105
   70SOL    HW2  210   0.945   1.458   1.231
   71SOL     OW  211   1.345   0.588   1.432
   71SOL    HW1  212   1.375   0.555   1.517
   71SOL    HW2  213   1.378   0.678   1.428
   72SOL     OW  214   0.807   1.404   0.930
   72SOL    HW1  215   0.891   1.401   0.884
   72SOL    HW2  216   0.742   1.396   0.860
   73SOL     OW  217   0.926   0.507   0.902
   73SOL    HW1  218   0.901   0.497   0.811
   73SOL    HW2  219   0.962   0.423   0.927
   74SOL     OW  220   0.547   0.059   0.504
   74SOL    HW1  221   0.467   0.065   0.557
   74SOL    HW2  222   0.548   0.140   0.453
   75SOL     OW  223   1.429   1.200   0.048
   75SOL    HW1  224   1.459   1.126   0.102
   75SOL    HW2  225   1.341   1.219   0.081
   76SOL     OW  226   0.317   0.035   0.187
   76SOL    HW1  227   0.365   0.102   0.138
   76SOL    HW2  228   0.386  -0.023   0.221
   77SOL     OW  229   0.934   0.241   0.473
   77SOL    HW1  230   0.899   0.281   0.394
   77SOL    HW2  231   1.029   0.241   0.461
   78SOL     OW  232   1.079   0.679   1.462
   78SOL    HW1  233   1.005   0.618   1.467
   78SOL    HW2  234   1.155   0.622   1.448
   79SOL     OW  235   1.226   1.569   0.792
   79SOL    HW1  236   1.248   1.639   0.731
   79SOL    HW2  237   1.293   1.575   0.861
   80SOL     OW  238   0.464   1.147   0.744
   80SOL    HW1  239   0.389   1.127   0.799
   80SOL    HW2  240   0.434   1.128   0.655
   81SOL     OW  241   1.271   1.796   0.597
   81SOL    HW1  242   1.314   1.859   0.539
   81SOL    HW2  243   1.215   1.850   0.653
   82SOL     OW  244   1.074   0.575  -0.001
   82SOL    HW1  245   0.984   0.607   0.005
   82SOL    HW2  246   1.103   0.569   0.090
   83SOL     OW  247   0.076   0.564   1.390
   83SOL    HW1  248   0.164   0.553   1.354
   83SOL    HW2  249   0.085   0.634   1.454
   84SOL     OW  250   0.569   0.231   1.160
   84SOL    HW1  251   0.596   0.141   1.177
   84SOL    HW2  252   0.478   0.235   1.188
   85SOL     OW  253   0.874   0.460   0.639
   85SOL    HW1  254   0.826   0.515   0.577
   85SOL    HW2  255   0.886   0.377   0.593
   86SOL     OW  256   0.994   0.050   0.774
   86SOL    HW1  257   0.960   0.052   0.685
   86SOL    HW2  258   0.999  -0.044   0.796
   87SOL     OW  259   1.433   1.166   0.861
   87SOL    HW1  260   1.371   1.094   0.856
   87SOL    HW2  261   1.454   1.187   0.770
   88SOL     OW  262   1.470   0.596   0.988
   88SOL    HW1  263   1.431   0.509   0.995
   88SOL    HW2  264   1.534   0.599   1.058
   89SOL     OW  265   1.844   0.822   0.390
   89SOL    HW1  266   1.902   0.765   0.441
   89SOL    HW2  267   1.825   0.772   0.311
   90SOL     OW  268   0.498   1.403   0.179
   90SOL    HW1  269   0.417   1.373   0.220
   90SOL    HW2  270   0.480   1.400   0.085
   91SOL     OW  271   1.665   1.269   0.657
   91SOL    HW1  272   1.760   1.279   0.664
   91SOL    HW2  273   1.630   1.356   0.677
   92SOL     OW  274   1.362   0.547   0.058
   92SOL    HW1  275   1.311   0.540   0.139
   92SOL    HW2  276   1.453   0.551   0.088
   93SOL     OW  277   0.557   0.265   0.329
   93SOL    HW1  278   0.571   0.207   0.254
   93SOL    HW2  279   0.529   0.348   0.290
   94SOL     OW  280   1.754   1.229   1.581
   94SOL    HW1  281   1.842   1.192   1.578
   94SOL    HW2  282   1.767   1.319   1.612
   95SOL     OW  283   1.066   1.353   1.337
   95SOL    HW1  284   0.990   1.322   1.387
   95SOL    HW2  285   1.141   1.312   1.381
   96SOL     OW  286   1.598   1.626   1.643
   96SOL    HW1  287   1.607   1.659   1.553
   96SOL    HW2  288   1.682   1.584   1.662
   97SOL     OW  289   1.118   1.198   1.107
   97SOL    HW1  290   1.065   1.239   1.175
   97SOL    HW2  291   1.079   1.230   1.025
   98SOL     OW  292   1.636   1.103   1.079
   98SOL    HW1  293   1.632   1.168   1.148
   98SOL    HW2  294   1.552   1.111   1.033
   99SOL     OW  295   0.914   0.100   1.405
   99SOL    HW1  296   0.935   0.080   1.313
   99SOL    HW2  297   0.992   0.147   1.437
  100SOL     OW  298   0.983   1.114   1.719
  100SOL    HW1  299   0.889   1.124   1.733
  100SOL    HW2  300   0.990   1.036   1.664
  101SOL     OW  301   0.707   1.057   0.371
  101SOL    HW1  302   0.693   1.049   0.466
  101SOL    HW2  303   0.785   1.004   0.354
  102SOL     OW  304   0.414   0.813   1.252
  102SOL    HW1  305   0.487   0.821   1.312
  102SOL    HW2  306   0.379   0.726   1.268
  103SOL     OW  307   1.268   0.378   1.272
  103SOL    HW1  308   1.300   0.456   1.318
  103SOL    HW2  309   1.186   0.406   1.231
  104SOL     OW  310   0.061   1.576   1.340
  104SOL    HW1  311   0.044   1.654   1.289
  104SOL    HW2  312   0.156   1.575   1.352
  105SOL     OW  313   0.384   1.102   0.493
  105SOL    HW1  314   0.362   1.177   0.438
  105SOL    HW2  315   0.370   1.026   0.436
  106SOL     OW  316   0.562   0.538   0.864
  106SOL    HW1  317   0.579   0.597   0.791
  106SOL    HW2  318   0.615   0.572   0.935
  107SOL     OW  319   1.250   1.348   0.389
  107SOL    HW1  320   1.300   1.422   0.423
  107SOL    HW2  321   1.162   1.361   0.424
  108SOL     OW  322   1.271   1.451   1.144
  108SOL    HW1  323   1.323   1.455   1.225
  108SOL    HW2  324   1.216   1.374   1.155
  109SOL     OW  325   1.581   0.640   0.474
  109SOL    HW1  326   1.546   0.695   0.545
  109SOL    HW2  327   1.646   0.695   0.432
  110SOL     OW  328   0.350   1.519   1.323
  110SOL    HW1  329   0.338   1.470   1.242
  110SOL    HW2  330   0.444   1.535   1.328
  111SOL     OW  331   0.407   0.746   1.600
  111SOL    HW1  332   0.468   0.794   1.544
  111SOL    HW2  333   0.450   0.662   1.616
  112SOL     OW  334   1.589   0.774   1.673
  112SOL    HW1  335   1.504   0.816   1.666
  112SOL    HW2  336   1.643   0.819   1.608
  113SOL     OW  337   1.026   0.111   1.775
  113SOL    HW1  338   1.030   0.190   1.722
  113SOL    HW2  339   1.033   0.039   1.711
  114SOL     OW  340   0.486   0.043   1.764
  114SOL    HW1  341   0.481   0.014   1.673
  114SOL    HW2  342   0.431   0.121   1.767
  115SOL     OW  343   0.581   0.870   1.031
  115SOL    HW1  344   0.612   0.960   1.024
  115SOL    HW2  345   0.520   0.871   1.105
  116SOL     OW  346   1.363   0.861   1.039
  116SOL    HW1  347   1.285   0.857   0.983
  116SOL    HW2  348   1.394   0.770   1.044
  117SOL     OW  349   1.206   0.530   0.274
  117SOL    HW1  350   1.217   0.450   0.326
  117SOL    HW2  351   1.169   0.594   0.335
  118SOL     OW  352   0.314   0.217   1.239
  118SOL    HW1  353   0.281   0.244   1.325
  118SOL    HW2  354   0.285   0.127   1.229
  119SOL     OW  355   0.049   1.301   1.279
  119SOL    HW1  356   0.088   1.266   1.359
  119SOL    HW2  357   0.051   1.396   1.292
  120SOL     OW  358   0.733   0.636   1.065
  120SOL    HW1  359   0.794   0.613   0.995
  120SOL    HW2  360   0.702   0.723   1.041
  121SOL     OW  361   1.733   0.953   1.851
  121SOL    HW1  362   1.682   0.917   1.778
  121SOL    HW2  363   1.669   0.969   1.920
  122SOL     OW  364   0.318   0.059   0.633
  122SOL    HW1  365   0.287   0.149   0.646
  122SOL    HW2  366   0.286   0.012   0.710
  123SOL     OW  367   1.622   0.380   0.370
  123SOL    HW1  368   1.626   0.304   0.428
  123SOL    HW2  369   1.577   0.447   0.421
  124SOL     OW  370   1.025   0.763   0.965
  124SOL    HW1  371   1.032   0.779   1.059
  124SOL    HW2  372   0.997   0.672   0.959
  125SOL     OW  373   0.983   1.567   1.709
  125SOL    HW1  374   0.965   1.611   1.626
  125SOL    HW2  375   1.022   1.484   1.683
  126SOL     OW  376   1.858   1.515   1.606
  126SOL    HW1  377   1.874   1.540   1.515
  126SOL    HW2  378   1.938   1.538   1.652
  127SOL     OW  379   0.350   0.915   1.804
  127SOL    HW1  380   0.431   0.935   1.851
  127SOL    HW2  381   0.376   0.854   1.735
  128SOL     OW  382   1.521   0.295   0.122
  128SOL    HW1  383   1.472   0.216   0.146
  128SOL    HW2  384   1.563   0.322   0.203
  129SOL     OW  385   1.312   0.833   0.037
  129SOL    HW1  386   1.334   0.741   0.048
  129SOL    HW2  387   1.301   0.845  -0.057
  130SOL     OW  388   1.064   1.335   0.849
  130SOL    HW1  389   1.071   1.259   0.792
  130SOL    HW2  390   1.130   1.396   0.816
  131SOL     OW  391   0.315   0.814   0.955
  131SOL    HW1  392   0.408   0.833   0.947
  131SOL    HW2  393   0.311   0.724   0.988
  132SOL     OW  394   0.338   0.519   1.008
  132SOL    HW1  395   0.295   0.435   0.992
  132SOL    HW2  396   0.412   0.520   0.947
  133SOL     OW  397   1.136   0.384   1.679
  133SOL    HW1  398   1.093   0.439   1.745
  133SOL    HW2  399   1.225   0.419   1.674
  134SOL     OW  400   1.155   0.216   1.482
  134SOL    HW1  401   1.148   0.274   1.558
  134SOL    HW2  402   1.174   0.274   1.408
  135SOL     OW  403   4.004   1.324   0.197
  135SOL    HW1  404   3.910   1.341   0.188
  135SOL    HW2  405   4.009   1.229   0.210
  136SOL     OW  406   0.078   1.803   0.902
  136SOL    HW1  407   0.066   1.708   0.909
  136SOL    HW2  408   0.173   1.815   0.897
  137SOL     OW  409   0.504   1.571   0.905
  137SOL    HW1  410   0.572   1.634   0.927
  137SOL    HW2  411   0.550   1.499   0.862
  138SOL     OW  412   0.996   0.797   1.232
  138SOL    HW1  413   1.040   0.768   1.313
  138SOL    HW2  414   0.907   0.764   1.240
  139SOL     OW  415   0.042   0.558   1.114
  139SOL    HW1  416   0.113   0.512   1.070
  139SOL    HW2  417   0.061   0.548   1.208
  140SOL     OW  418   0.199   0.516   1.720
  140SOL    HW1  419   0.254   0.484   1.650
  140SOL    HW2  420   0.146   0.585   1.680
  141SOL     OW  421   1.375   0.945   1.660
  141SOL    HW1  422   1.397   1.037   1.668
  141SOL    HW2  423   1.375   0.927   1.566
  142SOL     OW  424   0.813   0.571   0.351
  142SOL    HW1  425   0.823   0.495   0.294
  142SOL    HW2  426   0.733   0.614   0.321
  143SOL     OW  427   1.645   0.600   1.195
  143SOL    HW1  428   1.629   0.538   1.266
  143SOL    HW2  429   1.732   0.577   1.161
  144SOL     OW  430   0.284   1.550   1.743
  144SOL    HW1  431   0.232   1.617   1.787
  144SOL    HW2  432   0.246   1.467   1.772
  145SOL     OW  433   0.685   0.461   1.267
  145SOL    HW1  434   0.641   0.381   1.238
  145SOL    HW2  435   0.690   0.516   1.189
  146SOL     OW  436   0.933   1.677   1.464
  146SOL    HW1  437   0.905   1.657   1.374
  146SOL    HW2  438   0.944   1.772   1.465
  147SOL     OW  439   0.469   0.496   0.195
  147SOL    HW1  440   0.529   0.569   0.212
  147SOL    HW2  441   0.382   0.536   0.194
  148SOL     OW  442   0.157   1.137   1.467
  148SOL    HW1  443   0.174   1.081   1.543
  148SOL    HW2  444   0.174   1.082   1.391
  149SOL     OW  445   1.338   1.052   1.230
  149SOL    HW1  446   1.362   0.993   1.158
  149SOL    HW2  447   1.259   1.096   1.199
  150SOL     OW  448   1.307   0.853   0.311
  150SOL    HW1  449   1.225   0.826   0.352
  150SOL    HW2  450   1.290   0.843   0.217
  151SOL     OW  451   1.760   1.750   1.148
  151SOL    HW1  452   1.822   1.774   1.079
  151SOL    HW2  453   1.737   1.659   1.129
  152SOL     OW  454   1.246   1.731   1.124
  152SOL    HW1  455   1.327   1.742   1.074
  152SOL    HW2  456   1.240   1.637   1.140
  153SOL     OW  457   0.078   1.221   1.025
  153SOL    HW1  458   0.078   1.249   1.116
  153SOL    HW2  459  -0.014   1.218   1.001
  154SOL     OW  460   0.681   1.661   1.718
  154SOL    HW1  461   0.632   1.743   1.720
  154SOL    HW2  462   0.738   1.670   1.642
  155SOL     OW  463   0.903   0.091   0.123
  155SOL    HW1  464   0.970   0.088   0.055
  155SOL    HW2  465   0.942   0.048   0.198
  156SOL     OW  466   1.699   0.138   0.511
  156SOL    HW1  467   1.775   0.136   0.453
  156SOL    HW2  468   1.689   0.048   0.541
  157SOL     OW  469   1.388   1.569   0.478
  157SOL    HW1  470   1.451   1.594   0.410
  157SOL    HW2  471   1.348   1.652   0.505
  158SOL     OW  472   0.170   1.771   1.828
  158SOL    HW1  473   0.102   1.728   1.879
  158SOL    HW2  474   0.205   1.838   1.886
  159SOL     OW  475   1.277   0.923   0.671
  159SOL    HW1  476   1.348   0.858   0.673
  159SOL    HW2  477   1.312   0.995   0.619
  160SOL     OW  478   0.825   1.271   1.430
  160SOL    HW1  479   0.807   1.308   1.516
  160SOL    HW2  480   0.748   1.292   1.378
  161SOL     OW  481   0.684   1.605   0.159
  161SOL    HW1  482   0.683   1.618   0.065
  161SOL    HW2  483   0.628   1.529   0.174
  162SOL     OW  484   1.646   1.725   1.394
  162SOL    HW1  485   1.689   1.735   1.310
  162SOL    HW2  486   1.626   1.814   1.422
  163SOL     OW  487   1.839   0.171   0.968
  163SOL    HW1  488   1.870   0.093   0.922
  163SOL    HW2  489   1.751   0.186   0.935
  164SOL     OW  490   0.269   0.327   0.721
  164SOL    HW1  491   0.185   0.361   0.691
  164SOL    HW2  492   0.256   0.308   0.814
  165SOL     OW  493   1.209   1.591   0.048
  165SOL    HW1  494   1.204   1.501   0.079
  165SOL    HW2  495   1.177   1.587  -0.042
  166SOL     OW  496   0.825   1.005   1.372
  166SOL    HW1  497   0.864   1.004   1.284
  166SOL    HW2  498   0.828   1.096   1.399
  167SOL     OW  499   0.916   0.913   0.291
  167SOL    HW1  500   0.978   0.941   0.224
  167SOL    HW2  501   0.957   0.835   0.329
  168SOL     OW  502   1.505   1.616   0.046
  168SOL    HW1  503   1.411   1.634   0.046
  168SOL    HW2  504   1.532   1.628  -0.045
  169SOL     OW  505   0.371   1.296   1.491
  169SOL    HW1  506   0.356   1.379   1.446
  169SOL    HW2  507   0.293   1.244   1.473
  170SOL     OW  508   1.611   1.285   1.285
  170SOL    HW1  509   1.671   1.287   1.360
  170SOL    HW2  510   1.549   1.356   1.302
  171SOL     OW  511   1.042   1.101   0.701
  171SOL    HW1  512   0.974   1.051   0.744
  171SOL    HW2  513   1.100   1.035   0.662
  172SOL     OW  514   1.019   0.241   0.966
  172SOL    HW1  515   1.004   0.197   0.883
  172SOL    HW2  516   1.005   0.173   1.032
  173SOL     OW  517   0.601   1.493   0.486
  173SOL    HW1  518   0.629   1.435   0.415
  173SOL    HW2  519   0.539   1.553   0.444
  174SOL     OW  520   1.715   0.386   1.381
  174SOL    HW1  521   1.783   0.453   1.378
  174SOL    HW2  522   1.746   0.317   1.322
  175SOL     OW  523   0.256   1.349   0.291
  175SOL    HW1  524   0.163   1.352   0.267
  175SOL    HW2  525   0.260   1.390   0.377
  176SOL     OW  526   0.103   1.004   1.722
  176SOL    HW1  527   0.038   0.984   1.789
  176SOL    HW2  528   0.187   0.981   1.763
  177SOL     OW  529   0.688   0.227   1.490
  177SOL    HW1  530   0.763   0.181   1.452
  177SOL    HW2  531   0.700   0.218   1.584
  178SOL     OW  532   0.070   0.362   0.042
  178SOL    HW1  533  -0.008   0.318   0.008
  178SOL    HW2  534   0.104   0.410  -0.033
  179SOL     OW  535   1.436   0.857   1.401
  179SOL    HW1  536   1.387   0.913   1.341
  179SOL    HW2  537   1.527   0.864   1.373
  180SOL     OW  538   0.048   0.161   0.295
  180SOL    HW1  539   0.057   0.251   0.264
  180SOL    HW2  540   0.136   0.135   0.323
  181SOL     OW  541   1.199   1.316   0.115
  181SOL    HW1  542   1.104   1.322   0.124
  181SOL    HW2  543   1.233   1.329   0.203
  182SOL     OW  544   0.615   0.836   1.431
  182SOL    HW1  545   0.671   0.913   1.417
  182SOL    HW2  546   0.676   0.763   1.437
  183SOL     OW  547   1.489   1.770   0.966
  183SOL    HW1  548   1.521   1.827   0.897
  183SOL    HW2  549   1.563   1.761   1.026
  184SOL     OW  550   0.715   0.566   1.710
  184SOL    HW1  551   0.744   0.628   1.776
  184SOL    HW2  552   0.765   0.486   1.726
  185SOL     OW  553   1.460   1.209   1.634
  185SOL    HW1  554   1.451   1.218   1.729
  185SOL    HW2  555   1.554   1.216   1.618
  186SOL     OW  556   0.386   1.741   1.561
  186SOL    HW1  557   0.298   1.778   1.554
  186SOL    HW2  558   0.373   1.655   1.601
  187SOL     OW  559   1.674   0.883   1.256
  187SOL    HW1  560   1.659   0.798   1.214
  187SOL    HW2  561   1.669   0.946   1.184
  188SOL     OW  562   1.225   0.326   0.451
  188SOL    HW1  563   1.292   0.258   0.440
  188SOL    HW2  564   1.251   0.372   0.531
  189SOL     OW  565   0.593   0.746   0.662
  189SOL    HW1  566   0.635   0.828   0.639
  189SOL    HW2  567   0.517   0.740   0.603
  190SOL     OW  568   1.767   0.363   1.645
  190SOL    HW1  569   1.751   0.372   1.552
  190SOL    HW2  570   1.698   0.304   1.676
  191SOL     OW  571   1.737   0.934   1.515
  191SOL    HW1  572   1.757   1.026   1.526
  191SOL    HW2  573   1.725   0.923   1.420
  192SOL     OW  574   0.834   1.381   0.003
  192SOL    HW1  575   0.814   1.370   0.096
  192SOL    HW2  576   0.898   1.452  -0.000
  193SOL     OW  577   0.657   1.794   0.952
  193SOL    HW1  578   0.629   1.883   0.930
  193SOL    HW2  579   0.752   1.796   0.944
  194SOL     OW  580   0.863   0.961   0.858
  194SOL    HW1  581   0.914   0.893   0.903
  194SOL    HW2  582   0.833   1.018   0.929
  195SOL     OW  583   1.085   0.990   0.089
  195SOL    HW1  584   1.060   1.020   0.002
  195SOL    HW2  585   1.160   0.933   0.075
  196SOL     OW  586   1.860   1.562   0.847
  196SOL    HW1  587   1.787   1.550   0.788
  196SOL    HW2  588   1.853   1.490   0.910
  197SOL     OW  589   0.222   1.306   1.851
  197SOL    HW1  590   0.154   1.242   1.830
  197SOL    HW2  591   0.212   1.321   1.945
  198SOL     OW  592   0.104   1.265   0.707
  198SOL    HW1  593   0.088   1.196   0.771
  198SOL    HW2  594   0.136   1.218   0.629
  199SOL     OW  595   0.676   1.396   1.622
  199SOL    HW1  596   0.598   1.352   1.655
  199SOL    HW2  597   0.671   1.484   1.659
  200SOL     OW  598   1.816   0.187   1.237
  200SOL    HW1  599   1.820   0.093   1.255
  200SOL    HW2  600   1.828   0.194   1.142
  201SOL     OW  601   0.436   0.431   0.525
  201SOL    HW1  602   0.452   0.359   0.465
  201SOL    HW2  603   0.386   0.392   0.597
  202SOL     OW  604   1.702   1.493   1.106
  202SOL    HW1  605   1.620   1.462   1.069
  202SOL    HW2  606   1.724   1.429   1.174
  203SOL     OW  607   0.324   0.549   1.288
  203SOL    HW1  608   0.373   0.489   1.344
  203SOL    HW2  609   0.347   0.523   1.199
  204SOL     OW  610   0.820   1.577   0.685
  204SOL    HW1  611   0.828   1.609   0.595
  204SOL    HW2  612   0.738   1.528   0.686
  205SOL     OW  613   1.454   0.242   1.115
  205SOL    HW1  614   1.476   0.159   1.156
  205SOL    HW2  615   1.389   0.281   1.173
  206SOL     OW  616   1.008   4.032   1.149
  206SOL    HW1  617   0.941   3.968   1.127
  206SOL    HW2  618   1.089   3.982   1.153
  207SOL     OW  619   0.768   1.328   0.306
  207SOL    HW1  620   0.728   1.242   0.318
  207SOL    HW2  621   0.855   1.320   0.345
  208SOL     OW  622   0.619   1.565   1.282
  208SOL    HW1  623   0.621   1.643   1.336
  208SOL    HW2  624   0.706   1.558   1.244
  209SOL     OW  625   1.285   0.072   0.168
  209SOL    HW1  626   1.361   0.042   0.117
  209SOL    HW2  627   1.244  -0.007   0.201
  210SOL     OW  628   1.294   0.459   0.690
  210SOL    HW1  629   1.240   0.538   0.697
  210SOL    HW2  630   1.304   0.428   0.780
  211SOL     OW  631   1.590   0.214   0.872
  211SOL    HW1  632   1.523   0.227   0.939
  211SOL    HW2  633   1.590   0.296   0.822
  212SOL     OW  634   0.031   1.052   0.260
  212SOL    HW1  635   0.126   1.053   0.264
  212SOL    HW2  636   0.005   0.980   0.319
  213SOL     OW  637   0.870   1.651   0.351
  213SOL    HW1  638   0.797   1.631   0.292
  213SOL    HW2  639   0.841   1.730   0.398
  214SOL     OW  640   0.231   0.622   1.982
  214SOL    HW1  641   0.139   0.631   2.005
  214SOL    HW2  642   0.230   0.594   1.890
  215SOL     OW  643   0.225   0.283   2.851
  215SOL    HW1  644   0.254   0.254   2.937
  215SOL    HW2  645   0.140   0.240   2.839
  216SOL     OW  646   4.015   0.389   2.495
  216SOL    HW1  647   3.934   0.399   2.545
  216SOL    HW2  648   4.011   0.300   2.460
  217SOL     OW  649   0.569   1.274   3.032
  217SOL    HW1  650   0.482   1.277   2.993
  217SOL    HW2  651   0.582   1.361   3.068
  218SOL     OW  652   1.554   1.511   2.565
  218SOL    HW1  653   1.505   1.498   2.646
  218SOL    HW2  654   1.486   1.519   2.497
  219SOL     OW  655   1.131   0.701   2.573
  219SOL    HW1  656   1.183   0.779   2.556
  219SOL    HW2  657   1.081   0.721   2.652
  220SOL     OW  658   1.752   0.614   2.095
  220SOL    HW1  659   1.743   0.601   2.001
  220SOL    HW2  660   1.740   0.528   2.134
  221SOL     OW  661   0.764   1.146   2.893
  221SOL    HW1  662   0.692   1.174   2.948
  221SOL    HW2  663   0.795   1.226   2.850
  222SOL     OW  664   0.853   0.793   3.683
  222SOL    HW1  665   0.851   0.868   3.743
  222SOL    HW2  666   0.877   0.830   3.599
  223SOL     OW  667   0.687   1.015   2.517
  223SOL    HW1  668   0.748   0.994   2.588
  223SOL    HW2  669   0.615   1.061   2.560
  224SOL     OW  670   0.699   1.156   3.669
  224SOL    HW1  671   0.749   1.236   3.683
  224SOL    HW2  672   0.615   1.186   3.634
  225SOL     OW  673   0.350   1.412   2.939
  225SOL    HW1  674   0.268   1.395   2.892
  225SOL    HW2  675   0.398   1.474   2.884
  226SOL     OW  676   1.461   1.500   3.206
  226SOL    HW1  677   1.490   1.589   3.223
  226SOL    HW2  678   1.430   1.468   3.290
  227SOL     OW  679   0.444   0.402   3.366
  227SOL    HW1  680   0.522   0.346   3.360
  227SOL    HW2  681   0.371   0.340   3.364
  228SOL     OW  682   1.611   0.450   2.598
  228SOL    HW1  683   1.537   0.485   2.550
  228SOL    HW2  684   1.644   0.524   2.649
  229SOL     OW  685   0.228   1.714   2.334
  229SOL    HW1  686   0.254   1.788   2.388
  229SOL    HW2  687   0.294   1.710   2.265
  230SOL     OW  688   1.133   1.340   3.551
  230SOL    HW1  689   1.174   1.336   3.638
  230SOL    HW2  690   1.080   1.261   3.546
  231SOL     OW  691   0.235   1.439   2.398
  231SOL    HW1  692   0.211   1.532   2.397
  231SOL    HW2  693   0.166   1.398   2.451
  232SOL     OW  694   0.246   1.079   2.745
  232SOL    HW1  695   0.258   0.999   2.796
  232SOL    HW2  696   0.194   1.136   2.801
  233SOL     OW  697   0.620   1.788   3.298
  233SOL    HW1  698   0.534   1.774   3.339
  233SOL    HW2  699   0.642   1.878   3.321
  234SOL     OW  700   0.593   0.975   1.991
  234SOL    HW1  701   0.627   1.037   1.927
  234SOL    HW2  702   0.643   0.993   2.071
  235SOL     OW  703   1.581   0.124   3.327
  235SOL    HW1  704   1.583   0.200   3.269
  235SOL    HW2  705   1.574   0.161   3.415
  236SOL     OW  706   0.135   0.642   2.430
  236SOL    HW1  707   0.085   0.561   2.439
  236SOL    HW2  708   0.108   0.695   2.506
  237SOL     OW  709   1.842   1.765   2.207
  237SOL    HW1  710   1.894   1.736   2.282
  237SOL    HW2  711   1.873   1.854   2.189
  238SOL     OW  712   0.042   1.593   2.001
  238SOL    HW1  713   0.020   1.501   2.013
  238SOL    HW2  714  -0.024   1.640   2.052
  239SOL     OW  715   1.690   0.921   2.490
  239SOL    HW1  716   1.779   0.887   2.480
  239SOL    HW2  717   1.674   0.971   2.411
  240SOL     OW  718   1.644   1.109   2.293
  240SOL    HW1  719   1.727   1.119   2.247
  240SOL    HW2  720   1.652   1.166   2.369
  241SOL     OW  721   0.120   0.745   3.461
  241SOL    HW1  722   0.212   0.740   3.485
  241SOL    HW2  723   0.104   0.837   3.443
  242SOL     OW  724   0.610   1.375   2.595
  242SOL    HW1  725   0.566   1.291   2.601
  242SOL    HW2  726   0.593   1.405   2.505
  243SOL     OW  727   1.292   1.236   3.287
  243SOL    HW1  728   1.326   1.168   3.230
  243SOL    HW2  729   1.344   1.229   3.367
  244SOL     OW  730   0.809   0.000   2.369
  244SOL    HW1  731   0.852   0.085   2.358
  244SOL    HW2  732   0.716   0.021   2.374
  245SOL     OW  733   0.192   0.967   3.132
  245SOL    HW1  734   0.278   0.929   3.113
  245SOL    HW2  735   0.130   0.908   3.089
  246SOL     OW  736   1.532   0.991   2.054
  246SOL    HW1  737   1.464   0.929   2.077
  246SOL    HW2  738   1.568   1.019   2.138
  247SOL     OW  739   1.185   1.797   3.480
  247SOL    HW1  740   1.208   1.854   3.406
  247SOL    HW2  741   1.197   1.708   3.447
  248SOL     OW  742   0.320   0.255   3.652
  248SOL    HW1  743   0.385   0.323   3.669
  248SOL    HW2  744   0.241   0.285   3.698
  249SOL     OW  745   1.464   1.419   2.816
  249SOL    HW1  746   1.399   1.429   2.885
  249SOL    HW2  747   1.453   1.330   2.785
  250SOL     OW  748   1.665   1.722   2.438
  250SOL    HW1  749   1.633   1.696   2.351
  250SOL    HW2  750   1.641   1.650   2.495
  251SOL     OW  751   0.594   0.725   2.125
  251SOL    HW1  752   0.612   0.801   2.070
  251SOL    HW2  753   0.529   0.755   2.188
  252SOL     OW  754   1.279   0.353   2.802
  252SOL    HW1  755   1.195   0.308   2.800
  252SOL    HW2  756   1.336   0.296   2.853
  253SOL     OW  757   1.581   1.664   2.170
  253SOL    HW1  758   1.667   1.705   2.166
  253SOL    HW2  759   1.559   1.645   2.079
  254SOL     OW  760   0.799   0.612   3.319
  254SOL    HW1  761   0.766   0.594   3.408
  254SOL    HW2  762   0.752   0.550   3.263
  255SOL     OW  763   1.394   0.473   3.537
  255SOL    HW1  764   1.384   0.513   3.623
  255SOL    HW2  765   1.462   0.406   3.550
  256SOL     OW  766   0.964   0.891   3.440
  256SOL    HW1  767   1.016   0.817   3.408
  256SOL    HW2  768   0.917   0.922   3.363
  257SOL     OW  769   0.991   0.405   3.105
  257SOL    HW1  770   0.914   0.439   3.151
  257SOL    HW2  771   0.957   0.366   3.025
  258SOL     OW  772   1.047   0.700   2.291
  258SOL    HW1  773   1.061   0.693   2.385
  258SOL    HW2  774   0.965   0.652   2.275
  259SOL     OW  775   0.080   0.816   2.648
  259SOL    HW1  776   0.169   0.797   2.676
  259SOL    HW2  777   0.069   0.910   2.667
  260SOL     OW  778   0.130   1.841   3.434
  260SOL    HW1  779   0.131   1.808   3.524
  260SOL    HW2  780   0.038   1.838   3.407
  261SOL     OW  781   0.874   0.346   2.057
  261SOL    HW1  782   0.926   0.405   2.002
  261SOL    HW2  783   0.894   0.258   2.024
  262SOL     OW  784   1.717   0.583   3.691
  262SOL    HW1  785   1.686   0.665   3.653
  262SOL    HW2  786   1.725   0.523   3.617
  263SOL     OW  787   1.370   1.144   2.406
  263SOL    HW1  788   1.447   1.124   2.353
  263SOL    HW2  789   1.320   1.206   2.352
  264SOL     OW  790   0.554   0.195   2.746
  264SOL    HW1  791   0.551   0.204   2.841
  264SOL    HW2  792   0.550   0.285   2.713
  265SOL     OW  793   1.011   1.449   2.338
  265SOL    HW1  794   0.967   1.519   2.290
  265SOL    HW2  795   1.003   1.475   2.430
  266SOL     OW  796   0.359   1.804   2.720
  266SOL    HW1  797   0.420   1.729   2.718
  266SOL    HW2  798   0.416   1.881   2.722
  267SOL     OW  799   1.797   1.065   2.730
  267SOL    HW1  800   1.735   1.050   2.658
  267SOL    HW2  801   1.742   1.069   2.808
  268SOL     OW  802   1.227   1.545   3.371
  268SOL    HW1  803   1.222   1.469   3.429
  268SOL    HW2  804   1.173   1.522   3.296
  269SOL     OW  805   0.315   0.952   2.102
  269SOL    HW1  806   0.402   0.975   2.067
  269SOL    HW2  807   0.296   0.866   2.065
  270SOL     OW  808   1.468   0.733   2.589
  270SOL    HW1  809   1.457   0.683   2.670
  270SOL    HW2  810   1.542   0.791   2.607
  271SOL     OW  811   0.462   1.258   3.597
  271SOL    HW1  812   0.429   1.269   3.508
  271SOL    HW2  813   0.384   1.262   3.652
  272SOL     OW  814   1.119   1.775   2.097
  272SOL    HW1  815   1.051   1.727   2.143
  272SOL    HW2  816   1.137   1.723   2.019
  273SOL     OW  817   0.197   0.297   3.358
  273SOL    HW1  818   0.108   0.329   3.350
  273SOL    HW2  819   0.197   0.245   3.438
  274SOL     OW  820   1.631   1.377   1.948
  274SOL    HW1  821   1.593   1.463   1.933
  274SOL    HW2  822   1.560   1.315   1.930
  275SOL     OW  823   0.466   1.740   2.184
  275SOL    HW1  824   0.501   1.792   2.256
  275SOL    HW2  825   0.541   1.725   2.126
  276SOL     OW  826   1.430   0.142   2.273
  276SOL    HW1  827   1.399   0.084   2.204
  276SOL    HW2  828   1.521   0.116   2.288
  277SOL     OW  829   0.251   1.791   3.098
  277SOL    HW1  830   0.302   1.727   3.148
  277SOL    HW2  831   0.236   1.748   3.014
  278SOL     OW  832   0.939   1.698   2.765
  278SOL    HW1  833   1.016   1.642   2.782
  278SOL    HW2  834   0.892   1.653   2.696
  279SOL     OW  835   0.386   0.697   2.340
  279SOL    HW1  836   0.420   0.607   2.346
  279SOL    HW2  837   0.294   0.689   2.367
  280SOL     OW  838   1.539   0.235   3.586
  280SOL    HW1  839   1.540   0.255   3.679
  280SOL    HW2  840   1.485   0.156   3.579
  281SOL     OW  841   0.626   0.145   1.965
  281SOL    HW1  842   0.695   0.085   1.992
  281SOL    HW2  843   0.578   0.097   1.897
  282SOL     OW  844   0.779   0.275   3.613
  282SOL    HW1  845   0.841   0.209   3.644
  282SOL    HW2  846   0.717   0.285   3.686
  283SOL     OW  847   0.881   1.518   3.055
  283SOL    HW1  848   0.866   1.485   2.967
  283SOL    HW2  849   0.945   1.458   3.093
  284SOL     OW  850   1.345   0.588   3.294
  284SOL    HW1  851   1.375   0.555   3.379
  284SOL    HW2  852   1.378   0.678   3.291
  285SOL     OW  853   0.807   1.404   2.791
  285SOL    HW1  854   0.891   1.401   2.746
  285SOL    HW2  855   0.742   1.396   2.722
  286SOL     OW  856   0.926   0.507   2.765
  286SOL    HW1  857   0.901   0.497   2.673
  286SOL    HW2  858   0.963   0.423   2.790
  287SOL     OW  859   0.546   0.059   2.365
  287SOL    HW1  860   0.468   0.064   2.419
  287SOL    HW2  861   0.547   0.142   2.317
  288SOL     OW  862   1.430   1.194   1.901
  288SOL    HW1  863   1.461   1.121   1.954
  288SOL    HW2  864   1.343   1.214   1.938
  289SOL     OW  865   0.315   0.041   2.046
  289SOL    HW1  866   0.365   0.104   1.994
  289SOL    HW2  867   0.381  -0.007   2.096
  290SOL     OW  868   0.933   0.241   2.336
  290SOL    HW1  869   0.899   0.282   2.257
  290SOL    HW2  870   1.028   0.239   2.323
  291SOL     OW  871   1.079   0.679   3.323
  291SOL    HW1  872   1.005   0.618   3.329
  291SOL    HW2  873   1.155   0.623   3.310
  292SOL     OW  874   1.225   1.570   2.655
  292SOL    HW1  875   1.247   1.638   2.593
  292SOL    HW2  876   1.293   1.576   2.723
  293SOL     OW  877   0.464   1.147   2.606
  293SOL    HW1  878   0.389   1.127   2.661
  293SOL    HW2  879   0.434   1.128   2.517
  294SOL     OW  880   1.273   1.797   2.461
  294SOL    HW1  881   1.313   1.859   2.400
  294SOL    HW2  882   1.215   1.850   2.515
  295SOL     OW  883   1.032   0.549   1.875
  295SOL    HW1  884   0.989   0.631   1.852
  295SOL    HW2  885   1.090   0.572   1.949
  296SOL     OW  886   0.076   0.564   3.252
  296SOL    HW1  887   0.164   0.552   3.216
  296SOL    HW2  888   0.086   0.635   3.316
  297SOL     OW  889   0.569   0.231   3.021
  297SOL    HW1  890   0.596   0.141   3.040
  297SOL    HW2  891   0.478   0.235   3.051
  298SOL     OW  892   0.874   0.460   2.502
  298SOL    HW1  893   0.826   0.515   2.441
  298SOL    HW2  894   0.887   0.377   2.455
  299SOL     OW  895   0.994   0.049   2.636
  299SOL    HW1  896   0.961   0.051   2.546
  299SOL    HW2  897   0.999  -0.044   2.658
  300SOL     OW  898   1.434   1.166   2.723
  300SOL    HW1  899   1.371   1.094   2.718
  300SOL    HW2  900   1.454   1.187   2.632
  301SOL     OW  901   1.471   0.595   2.849
  301SOL    HW1  902   1.430   0.509   2.858
  301SOL    HW2  903   1.534   0.599   2.921
  302SOL     OW  904   1.850   0.825   2.242
  302SOL    HW1  905   1.902   0.768   2.298
  302SOL    HW2  906   1.819   0.768   2.171
  303SOL     OW  907   0.493   1.401   2.031
  303SOL    HW1  908   0.414   1.373   2.078
  303SOL    HW2  909   0.465   1.405   1.939
  304SOL     OW  910   1.666   1.269   2.519
  304SOL    HW1  911   1.760   1.280   2.527
  304SOL    HW2  912   1.630   1.356   2.539
  305SOL     OW  913   1.391   0.571   1.933
  305SOL    HW1  914   1.336   0.554   2.010
  305SOL    HW2  915   1.479   0.542   1.960
  306SOL     OW  916   0.554   0.265   2.191
  306SOL    HW1  917   0.573   0.212   2.114
  306SOL    HW2  918   0.529   0.350   2.156
  307SOL     OW  919   1.754   1.229   3.442
  307SOL    HW1  920   1.842   1.192   3.440
  307SOL    HW2  921   1.766   1.318   3.475
  308SOL     OW  922   1.066   1.353   3.200
  308SOL    HW1  923   0.990   1.322   3.249
  308SOL    HW2  924   1.141   1.311   3.243
  309SOL     OW  925   1.597   1.627   3.505
  309SOL    HW1  926   1.608   1.658   3.415
  309SOL    HW2  927   1.681   1.584   3.525
  310SOL     OW  928   1.118   1.198   2.969
  310SOL    HW1  929   1.065   1.239   3.037
  310SOL    HW2  930   1.080   1.230   2.887
  311SOL     OW  931   1.636   1.102   2.941
  311SOL    HW1  932   1.632   1.168   3.010
  311SOL    HW2  933   1.552   1.111   2.895
  312SOL     OW  934   0.914   0.100   3.267
  312SOL    HW1  935   0.935   0.080   3.175
  312SOL    HW2  936   0.992   0.147   3.299
  313SOL     OW  937   0.983   1.113   3.582
  313SOL    HW1  938   0.889   1.125   3.594
  313SOL    HW2  939   0.991   1.037   3.525
  314SOL     OW  940   0.707   1.057   2.234
  314SOL    HW1  941   0.694   1.049   2.328
  314SOL    HW2  942   0.784   1.004   2.215
  315SOL     OW  943   0.413   0.813   3.114
  315SOL    HW1  944   0.488   0.821   3.174
  315SOL    HW2  945   0.379   0.725   3.130
  316SOL     OW  946   1.268   0.379   3.134
  316SOL    HW1  947   1.300   0.456   3.180
  316SOL    HW2  948   1.186   0.406   3.094
  317SOL     OW  949   0.061   1.575   3.202
  317SOL    HW1  950   0.044   1.655   3.152
  317SOL    HW2  951   0.156   1.575   3.214
  318SOL     OW  952   0.381   1.102   2.356
  318SOL    HW1  953   0.364   1.177   2.299
  318SOL    HW2  954   0.371   1.026   2.298
  319SOL     OW  955   0.562   0.538   2.725
  319SOL    HW1  956   0.579   0.598   2.653
  319SOL    HW2  957   0.615   0.572   2.797
  320SOL     OW  958   1.248   1.347   2.252
  320SOL    HW1  959   1.300   1.421   2.284
  320SOL    HW2  960   1.160   1.363   2.285
  321SOL     OW  961   1.271   1.451   3.006
  321SOL    HW1  962   1.323   1.455   3.086
  321SOL    HW2  963   1.216   1.374   3.017
  322SOL     OW  964   1.584   0.633   2.339
  322SOL    HW1  965   1.548   0.697   2.400
  322SOL    HW2  966   1.629   0.686   2.273
  323SOL     OW  967   0.350   1.519   3.185
  323SOL    HW1  968   0.338   1.470   3.104
  323SOL    HW2  969   0.445   1.535   3.189
  324SOL     OW  970   0.407   0.746   3.463
  324SOL    HW1  971   0.468   0.794   3.406
  324SOL    HW2  972   0.450   0.662   3.478
  325SOL     OW  973   1.589   0.773   3.535
  325SOL    HW1  974   1.503   0.815   3.528
  325SOL    HW2  975   1.643   0.819   3.470
  326SOL     OW  976   1.020   0.110   3.637
  326SOL    HW1  977   1.032   0.190   3.587
  326SOL    HW2  978   1.035   0.039   3.574
  327SOL     OW  979   0.498   0.052   3.623
  327SOL    HW1  980   0.478   0.013   3.537
  327SOL    HW2  981   0.431   0.119   3.635
  328SOL     OW  982   0.581   0.870   2.893
  328SOL    HW1  983   0.612   0.960   2.886
  328SOL    HW2  984   0.520   0.871   2.967
  329SOL     OW  985   1.363   0.861   2.902
  329SOL    HW1  986   1.286   0.857   2.845
  329SOL    HW2  987   1.394   0.770   2.905
  330SOL     OW  988   1.212   0.530   2.134
  330SOL    HW1  989   1.218   0.450   2.187
  330SOL    HW2  990   1.172   0.594   2.193
  331SOL     OW  991   0.313   0.218   3.100
  331SOL    HW1  992   0.282   0.244   3.187
  331SOL    HW2  993   0.286   0.127   3.091
  332SOL     OW  994   0.050   1.301   3.141
  332SOL    HW1  995   0.088   1.266   3.222
  332SOL    HW2  996   0.051   1.396   3.154
  333SOL     OW  997   0.733   0.636   2.927
  333SOL    HW1  998   0.794   0.613   2.857
  333SOL    HW2  999   0.702   0.723   2.903
  334SOL     OW 1000   1.736   0.948   3.712
  334SOL    HW1 1001   1.681   0.919   3.639
  334SOL    HW2 1002   1.674   0.968   3.782
  335SOL     OW 1003   0.318   0.060   2.495
  335SOL    HW1 1004   0.287   0.150   2.509
  335SOL    HW2 1005   0.286   0.012   2.571
  336SOL     OW 1006   1.584   0.374   2.248
  336SOL    HW1 1007   1.605   0.309   2.315
  336SOL    HW2 1008   1.570   0.455   2.296
  337SOL     OW 1009   1.025   0.763   2.827
  337SOL    HW1 1010   1.032   0.779   2.921
  337SOL    HW2 1011   0.997   0.672   2.821
  338SOL     OW 1012   0.984   1.568   3.571
  338SOL    HW1 1013   0.964   1.612   3.488
  338SOL    HW2 1014   1.022   1.484   3.545
  339SOL     OW 1015   1.858   1.514   3.467
  339SOL    HW1 1016   1.875   1.540   3.377
  339SOL    HW2 1017   1.937   1.539   3.515
  340SOL     OW 1018   0.349   0.911   3.668
  340SOL    HW1 1019   0.431   0.936   3.711
  340SOL    HW2 1020   0.377   0.854   3.596
  341SOL     OW 1021   1.528   0.272   1.992
  341SOL    HW1 1022   1.454   0.216   2.015
  341SOL    HW2 1023   1.545   0.324   2.071
  342SOL     OW 1024   1.300   0.831   1.900
  342SOL    HW1 1025   1.339   0.743   1.904
  342SOL    HW2 1026   1.326   0.864   1.814
  343SOL     OW 1027   1.065   1.334   2.712
  343SOL    HW1 1028   1.070   1.259   2.653
  343SOL    HW2 1029   1.129   1.396   2.677
  344SOL     OW 1030   0.315   0.814   2.817
  344SOL    HW1 1031   0.408   0.833   2.809
  344SOL    HW2 1032   0.311   0.724   2.850
  345SOL     OW 1033   0.338   0.519   2.870
  345SOL    HW1 1034   0.295   0.435   2.855
  345SOL    HW2 1035   0.412   0.520   2.809
  346SOL     OW 1036   1.137   0.384   3.540
  346SOL    HW1 1037   1.094   0.439   3.606
  346SOL    HW2 1038   1.226   0.418   3.535
  347SOL     OW 1039   1.155   0.216   3.343
  347SOL    HW1 1040   1.148   0.274   3.419
  347SOL    HW2 1041   1.174   0.275   3.270
  348SOL     OW 1042   4.001   1.323   2.046
  348SOL    HW1 1043   3.907   1.339   2.047
  348SOL    HW2 1044   4.011   1.231   2.071
  349SOL     OW 1045   0.078   1.803   2.763
  349SOL    HW1 1046   0.066   1.708   2.771
  349SOL    HW2 1047   0.173   1.815   2.760
  350SOL     OW 1048   0.503   1.571   2.767
  350SOL    HW1 1049   0.572   1.634   2.789
  350SOL    HW2 1050   0.550   1.499   2.724
  351SOL     OW 1051   0.996   0.797   3.094
  351SOL    HW1 1052   1.040   0.768   3.174
  351SOL    HW2 1053   0.907   0.764   3.102
  352SOL     OW 1054   0.042   0.558   2.977
  352SOL    HW1 1055   0.113   0.512   2.932
  352SOL    HW2 1056   0.061   0.548   3.070
  353SOL     OW 1057   0.196   0.517   3.582
  353SOL    HW1 1058   0.254   0.482   3.515
  353SOL    HW2 1059   0.147   0.587   3.538
  354SOL     OW 1060   1.374   0.944   3.522
  354SOL    HW1 1061   1.398   1.037   3.531
  354SOL    HW2 1062   1.375   0.928   3.428
  355SOL     OW 1063   0.816   0.570   2.204
  355SOL    HW1 1064   0.817   0.491   2.150
  355SOL    HW2 1065   0.733   0.614   2.180
  356SOL     OW 1066   1.645   0.600   3.057
  356SOL    HW1 1067   1.629   0.538   3.128
  356SOL    HW2 1068   1.732   0.577   3.023
  357SOL     OW 1069   0.282   1.554   3.609
  357SOL    HW1 1070   0.227   1.619   3.653
  357SOL    HW2 1071   0.244   1.470   3.634
  358SOL     OW 1072   0.684   0.461   3.129
  358SOL    HW1 1073   0.641   0.381   3.100
  358SOL    HW2 1074   0.689   0.516   3.051
  359SOL     OW 1075   0.933   1.677   3.326
  359SOL    HW1 1076   0.905   1.657   3.237
  359SOL    HW2 1077   0.944   1.772   3.327
  360SOL     OW 1078   0.469   0.495   2.051
  360SOL    HW1 1079   0.529   0.568   2.066
  360SOL    HW2 1080   0.382   0.536   2.050
  361SOL     OW 1081   0.157   1.137   3.329
  361SOL    HW1 1082   0.173   1.081   3.405
  361SOL    HW2 1083   0.175   1.082   3.253
  362SOL     OW 1084   1.338   1.052   3.092
  362SOL    HW1 1085   1.362   0.993   3.021
  362SOL    HW2 1086   1.259   1.097   3.060
  363SOL     OW 1087   1.305   0.853   2.172
  363SOL    HW1 1088   1.223   0.826   2.213
  363SOL    HW2 1089   1.289   0.843   2.078
  364SOL     OW 1090   1.760   1.750   3.010
  364SOL    HW1 1091   1.822   1.774   2.941
  364SOL    HW2 1092   1.737   1.659   2.991
  365SOL     OW 1093   1.246   1.731   2.986
  365SOL    HW1 1094   1.327   1.742   2.936
  365SOL    HW2 1095   1.239   1.637   3.002
  366SOL     OW 1096   0.078   1.221   2.887
  366SOL    HW1 1097   0.078   1.249   2.978
  366SOL    HW2 1098  -0.015   1.218   2.863
  367SOL     OW 1099   0.682   1.661   3.580
  367SOL    HW1 1100   0.631   1.743   3.583
  367SOL    HW2 1101   0.737   1.670   3.503
  368SOL     OW 1102   1.702   0.136   2.350
  368SOL    HW1 1103   1.788   0.127   2.309
  368SOL    HW2 1104   1.688   0.052   2.395
  369SOL     OW 1105   1.390   1.569   2.342
  369SOL    HW1 1106   1.450   1.594   2.272
  369SOL    HW2 1107   1.346   1.650   2.366
  370SOL     OW 1108   0.157   1.778   3.695
  370SOL    HW1 1109   0.096   1.727   3.749
  370SOL    HW2 1110   0.200   1.836   3.757
  371SOL     OW 1111   1.277   0.923   2.533
  371SOL    HW1 1112   1.348   0.858   2.534
  371SOL    HW2 1113   1.312   0.995   2.481
  372SOL     OW 1114   0.825   1.271   3.293
  372SOL    HW1 1115   0.806   1.309   3.378
  372SOL    HW2 1116   0.748   1.292   3.240
  373SOL     OW 1117   0.672   1.613   2.017
  373SOL    HW1 1118   0.679   1.623   1.922
  373SOL    HW2 1119   0.626   1.531   2.030
  374SOL     OW 1120   1.645   1.725   3.256
  374SOL    HW1 1121   1.689   1.735   3.172
  374SOL    HW2 1122   1.626   1.814   3.284
  375SOL     OW 1123   1.839   0.172   2.829
  375SOL    HW1 1124   1.869   0.093   2.785
  375SOL    HW2 1125   1.750   0.185   2.797
  376SOL     OW 1126   0.269   0.327   2.583
  376SOL    HW1 1127   0.185   0.361   2.553
  376SOL    HW2 1128   0.256   0.308   2.676
  377SOL     OW 1129   1.201   1.611   1.893
  377SOL    HW1 1130   1.197   1.519   1.922
  377SOL    HW2 1131   1.138   1.615   1.821
  378SOL     OW 1132   0.825   1.005   3.234
  378SOL    HW1 1133   0.864   1.004   3.147
  378SOL    HW2 1134   0.828   1.096   3.261
  379SOL     OW 1135   0.916   0.911   2.152
  379SOL    HW1 1136   0.978   0.942   2.086
  379SOL    HW2 1137   0.958   0.835   2.192
  380SOL     OW 1138   1.504   1.621   1.905
  380SOL    HW1 1139   1.408   1.630   1.901
  380SOL    HW2 1140   1.531   1.628   1.813
  381SOL     OW 1141   0.371   1.296   3.353
  381SOL    HW1 1142   0.357   1.379   3.308
  381SOL    HW2 1143   0.293   1.244   3.335
  382SOL     OW 1144   1.611   1.286   3.147
  382SOL    HW1 1145   1.671   1.287   3.222
  382SOL    HW2 1146   1.550   1.356   3.164
  383SOL     OW 1147   1.042   1.101   2.564
  383SOL    HW1 1148   0.973   1.050   2.606
  383SOL    HW2 1149   1.100   1.036   2.524
  384SOL     OW 1150   1.019   0.241   2.828
  384SOL    HW1 1151   1.004   0.197   2.745
  384SOL    HW2 1152   1.005   0.173   2.894
  385SOL     OW 1153   0.598   1.490   2.348
  385SOL    HW1 1154   0.632   1.435   2.278
  385SOL    HW2 1155   0.542   1.554   2.304
  386SOL     OW 1156   1.715   0.386   3.244
  386SOL    HW1 1157   1.783   0.453   3.240
  386SOL    HW2 1158   1.745   0.317   3.184
  387SOL     OW 1159   0.253   1.346   2.149
  387SOL    HW1 1160   0.160   1.356   2.128
  387SOL    HW2 1161   0.262   1.387   2.235
  388SOL     OW 1162   0.103   1.001   3.582
  388SOL    HW1 1163   0.037   0.988   3.651
  388SOL    HW2 1164   0.186   0.982   3.625
  389SOL     OW 1165   0.688   0.228   3.351
  389SOL    HW1 1166   0.763   0.180   3.314
  389SOL    HW2 1167   0.699   0.219   3.446
  390SOL     OW 1168   0.082   0.333   1.886
  390SOL    HW1 1169  -0.014   0.329   1.887
  390SOL    HW2 1170   0.102   0.415   1.842
  391SOL     OW 1171   1.436   0.857   3.264
  391SOL    HW1 1172   1.387   0.913   3.203
  391SOL    HW2 1173   1.527   0.864   3.235
  392SOL     OW 1174   0.045   0.159   2.142
  392SOL    HW1 1175   0.050   0.254   2.128
  392SOL    HW2 1176   0.128   0.137   2.185
  393SOL     OW 1177   1.182   1.344   1.979
  393SOL    HW1 1178   1.090   1.317   1.984
  393SOL    HW2 1179   1.212   1.343   2.070
  394SOL     OW 1180   0.615   0.836   3.294
  394SOL    HW1 1181   0.671   0.913   3.279
  394SOL    HW2 1182   0.675   0.763   3.299
  395SOL     OW 1183   1.489   1.770   2.828
  395SOL    HW1 1184   1.521   1.827   2.759
  395SOL    HW2 1185   1.563   1.761   2.888
  396SOL     OW 1186   0.715   0.566   3.571
  396SOL    HW1 1187   0.744   0.627   3.639
  396SOL    HW2 1188   0.765   0.486   3.588
  397SOL     OW 1189   1.460   1.211   3.495
  397SOL    HW1 1190   1.451   1.217   3.590
  397SOL    HW2 1191   1.555   1.216   3.479
  398SOL     OW 1192   0.386   1.740   3.422
  398SOL    HW1 1193   0.298   1.778   3.417
  398SOL    HW2 1194   0.372   1.655   3.464
  399SOL     OW 1195   1.675   0.883   3.118
  399SOL    HW1 1196   1.659   0.798   3.076
  399SOL    HW2 1197   1.669   0.946   3.046
  400SOL     OW 1198   1.225   0.326   2.313
  400SOL    HW1 1199   1.291   0.258   2.303
  400SOL    HW2 1200   1.251   0.373   2.392
  401SOL     OW 1201   0.593   0.745   2.523
  401SOL    HW1 1202   0.635   0.829   2.502
  401SOL    HW2 1203   0.517   0.740   2.465
  402SOL     OW 1204   1.769   0.360   3.510
  402SOL    HW1 1205   1.753   0.373   3.416
  402SOL    HW2 1206   1.698   0.303   3.539
  403SOL     OW 1207   1.737   0.933   3.377
  403SOL    HW1 1208   1.757   1.026   3.388
  403SOL    HW2 1209   1.725   0.923   3.282
  404SOL     OW 1210   0.863   1.371   1.885
  404SOL    HW1 1211   0.820   1.393   1.968
  404SOL    HW2 1212   0.888   1.455   1.848
  405SOL     OW 1213   0.657   1.794   2.814
  405SOL    HW1 1214   0.630   1.883   2.793
  405SOL    HW2 1215   0.752   1.795   2.805
  406SOL     OW 1216   0.862   0.960   2.720
  406SOL    HW1 1217   0.914   0.893   2.765
  406SOL    HW2 1218   0.833   1.018   2.791
  407SOL     OW 1219   1.080   0.986   1.950
  407SOL    HW1 1220   1.061   1.036   1.871
  407SOL    HW2 1221   1.158   0.935   1.927
  408SOL     OW 1222   1.861   1.562   2.709
  408SOL    HW1 1223   1.786   1.550   2.650
  408SOL    HW2 1224   1.853   1.490   2.772
  409SOL     OW 1225   0.225   1.303   3.714
  409SOL    HW1 1226   0.152   1.246   3.691
  409SOL    HW2 1227   0.210   1.325   3.806
  410SOL     OW 1228   0.104   1.265   2.566
  410SOL    HW1 1229   0.088   1.197   2.632
  410SOL    HW2 1230   0.136   1.216   2.490
  411SOL     OW 1231   0.676   1.396   3.484
  411SOL    HW1 1232   0.597   1.352   3.516
  411SOL    HW2 1233   0.671   1.484   3.520
  412SOL     OW 1234   1.816   0.187   3.099
  412SOL    HW1 1235   1.820   0.093   3.117
  412SOL    HW2 1236   1.829   0.194   3.004
  413SOL     OW 1237   0.436   0.431   2.386
  413SOL    HW1 1238   0.451   0.357   2.327
  413SOL    HW2 1239   0.386   0.393   2.459
  414SOL     OW 1240   1.702   1.493   2.968
  414SOL    HW1 1241   1.620   1.462   2.931
  414SOL    HW2 1242   1.724   1.429   3.036
  415SOL     OW 1243   0.324   0.549   3.150
  415SOL    HW1 1244   0.373   0.489   3.206
  415SOL    HW2 1245   0.347   0.523   3.061
  416SOL     OW 1246   0.820   1.578   2.547
  416SOL    HW1 1247   0.830   1.607   2.456
  416SOL    HW2 1248   0.739   1.528   2.547
  417SOL     OW 1249   1.454   0.242   2.977
  417SOL    HW1 1250   1.476   0.159   3.018
  417SOL    HW2 1251   1.389   0.282   3.035
  418SOL     OW 1252   1.008   4.032   3.011
  418SOL    HW1 1253   0.941   3.968   2.989
  418SOL    HW2 1254   1.089   3.982   3.016
  419SOL     OW 1255   0.770   1.332   2.167
  419SOL    HW1 1256   0.732   1.244   2.177
  419SOL    HW2 1257   0.855   1.326   2.210
  420SOL     OW 1258   0.619   1.564   3.144
  420SOL    HW1 1259   0.621   1.643   3.198
  420SOL    HW2 1260   0.706   1.559   3.106
  421SOL     OW 1261   1.320   0.070   2.028
  421SOL    HW1 1262   1.359   0.021   1.955
  421SOL    HW2 1263   1.243   0.020   2.053
  422SOL     OW 1264   1.294   0.459   2.552
  422SOL    HW1 1265   1.241   0.538   2.559
  422SOL    HW2 1266   1.304   0.429   2.642
  423SOL     OW 1267   1.589   0.214   2.733
  423SOL    HW1 1268   1.524   0.226   2.801
  423SOL    HW2 1269   1.590   0.297   2.684
  424SOL     OW 1270   0.036   1.060   2.114
  424SOL    HW1 1271   0.131   1.052   2.117
  424SOL    HW2 1272   0.004   0.985   2.164
  425SOL     OW 1273   0.875   1.644   2.209
  425SOL    HW1 1274   0.806   1.625   2.146
  425SOL    HW2 1275   0.845   1.723   2.254
  426SOL     OW 1276   0.221   0.614   3.848
  426SOL    HW1 1277   0.128   0.636   3.854
  426SOL    HW2 1278   0.235   0.594   3.755
  427SOL     OW 1279   1.752   0.608   3.959
  427SOL    HW1 1280   1.741   0.610   3.864
  427SOL    HW2 1281   1.741   0.516   3.983
  428SOL     OW 1282   0.233   1.740   0.208
  428SOL    HW1 1283   0.303   1.785   0.255
  428SOL    HW2 1284   0.275   1.705   0.130
  429SOL     OW 1285   0.592   0.976   3.846
  429SOL    HW1 1286   0.628   1.041   3.785
  429SOL    HW2 1287   0.650   0.978   3.921
  430SOL     OW 1288   0.029   1.598   3.847
  430SOL    HW1 1289   0.022   1.504   3.863
  430SOL    HW2 1290   0.003   1.639   3.930
  431SOL     OW 1291   1.544   0.980   3.906
  431SOL    HW1 1292   1.470   0.923   3.927
  431SOL    HW2 1293   1.574   1.012   3.991
  432SOL     OW 1294   0.583   0.724   3.977
  432SOL    HW1 1295   0.613   0.797   3.923
  432SOL    HW2 1296   0.531   0.765   4.046
  433SOL     OW 1297   0.862   0.349   3.900
  433SOL    HW1 1298   0.932   0.407   3.870
  433SOL    HW2 1299   0.900   0.261   3.895
  434SOL     OW 1300   1.003   1.473   0.198
  434SOL    HW1 1301   0.944   1.546   0.179
  434SOL    HW2 1302   1.006   1.468   0.294
  435SOL     OW 1303   0.318   0.944   3.961
  435SOL    HW1 1304   0.401   0.974   3.924
  435SOL    HW2 1305   0.297   0.865   3.912
  436SOL     OW 1306   1.083   1.810   3.931
  436SOL    HW1 1307   1.055   1.749   4.000
  436SOL    HW2 1308   1.120   1.753   3.864
  437SOL     OW 1309   1.632   1.376   3.797
  437SOL    HW1 1310   1.593   1.463   3.792
  437SOL    HW2 1311   1.558   1.316   3.790
  438SOL     OW 1312   0.457   1.744   0.033
  438SOL    HW1 1313   0.490   1.788   0.111
  438SOL    HW2 1314   0.535   1.729  -0.021
  439SOL     OW 1315   0.653   0.111   3.838
  439SOL    HW1 1316   0.743   0.097   3.808
  439SOL    HW2 1317   0.599   0.094   3.761
  440SOL     OW 1318   1.427   1.189   3.758
  440SOL    HW1 1319   1.466   1.123   3.816
  440SOL    HW2 1320   1.346   1.215   3.802
  441SOL     OW 1321   0.334   0.014   3.876
  441SOL    HW1 1322   0.360   0.106   3.877
  441SOL    HW2 1323   0.351  -0.016   3.965
  442SOL     OW 1324   1.037   0.553   3.725
  442SOL    HW1 1325   0.989   0.635   3.710
  442SOL    HW2 1326   1.079   0.565   3.811
  443SOL     OW 1327   1.846   0.829   0.098
  443SOL    HW1 1328   1.905   0.773   0.148
  443SOL    HW2 1329   1.818   0.775   0.024
  444SOL     OW 1330   0.489   1.397   3.891
  444SOL    HW1 1331   0.405   1.371   3.930
  444SOL    HW2 1332   0.471   1.407   3.798
  445SOL     OW 1333   1.388   0.570   3.794
  445SOL    HW1 1334   1.345   0.554   3.878
  445SOL    HW2 1335   1.478   0.540   3.807
  446SOL     OW 1336   1.560   0.668   0.183
  446SOL    HW1 1337   1.543   0.710   0.267
  446SOL    HW2 1338   1.625   0.725   0.141
  447SOL     OW 1339   1.523   0.273   3.846
  447SOL    HW1 1340   1.455   0.210   3.869
  447SOL    HW2 1341   1.543   0.318   3.929
  448SOL     OW 1342   1.305   0.834   3.767
  448SOL    HW1 1343   1.335   0.743   3.766
  448SOL    HW2 1344   1.326   0.867   3.679
  449SOL     OW 1345   4.004   1.320   3.899
  449SOL    HW1 1346   3.910   1.338   3.901
  449SOL    HW2 1347   4.012   1.232   3.937
  450SOL     OW 1348   0.806   0.576   0.042
  450SOL    HW1 1349   0.800   0.489   0.003
  450SOL    HW2 1350   0.718   0.612   0.035
  451SOL     OW 1351   0.472   0.504   3.886
  451SOL    HW1 1352   0.532   0.572   3.919
  451SOL    HW2 1353   0.385   0.536   3.908
  452SOL     OW 1354   1.715   0.118   0.229
  452SOL    HW1 1355   1.798   0.124   0.182
  452SOL    HW2 1356   1.720   0.036   0.278
  453SOL     OW 1357   0.672   1.612   3.879
  453SOL    HW1 1358   0.680   1.626   3.785
  453SOL    HW2 1359   0.625   1.529   3.887
  454SOL     OW 1360   1.190   1.611   3.764
  454SOL    HW1 1361   1.201   1.517   3.775
  454SOL    HW2 1362   1.138   1.620   3.684
  455SOL     OW 1363   1.501   1.620   3.767
  455SOL    HW1 1364   1.407   1.634   3.758
  455SOL    HW2 1365   1.535   1.628   3.677
  456SOL     OW 1366   0.251   1.357   0.007
  456SOL    HW1 1367   0.157   1.354  -0.012
  456SOL    HW2 1368   0.257   1.389   0.097
  457SOL     OW 1369   0.078   0.336   3.748
  457SOL    HW1 1370  -0.017   0.334   3.745
  457SOL    HW2 1371   0.102   0.414   3.698
  458SOL     OW 1372   1.178   1.349   3.842
  458SOL    HW1 1373   1.090   1.312   3.841
  458SOL    HW2 1374   1.210   1.333   3.930
  459SOL     OW 1375   0.859   1.371   3.734
  459SOL    HW1 1376   0.828   1.385   3.824
  459SOL    HW2 1377   0.886   1.457   3.704
  460SOL     OW 1378   1.083   0.994   3.812
  460SOL    HW1 1379   1.060   1.036   3.729
  460SOL    HW2 1380   1.155   0.934   3.790
  461SOL     OW 1381   1.318   0.067   3.873
  461SOL    HW1 1382   1.373   0.012   3.816
  461SOL    HW2 1383   1.248   0.008   3.901
  462SOL     OW 1384   0.044   1.060  -0.010
  462SOL    HW1 1385   0.139   1.063   0.001
  462SOL    HW2 1386   0.014   1.000   0.059
  463SOL     OW 1387   0.232   2.485   0.124
  463SOL    HW1 1388   0.140   2.490   0.148
  463SOL    HW2 1389   0.232   2.472   0.029
  464SOL     OW 1390   0.228   2.131   0.988
  464SOL    HW1 1391   0.253   2.111   1.079
  464SOL    HW2 1392   0.135   2.108   0.983
  465SOL     OW 1393   4.015   2.235   0.641
  465SOL    HW1 1394   3.932   2.257   0.683
  465SOL    HW2 1395   3.991   2.174   0.571
  466SOL     OW 1396   0.569   3.135   1.170
  466SOL    HW1 1397   0.482   3.139   1.131
  466SOL    HW2 1398   0.583   3.223   1.206
  467SOL     OW 1399   1.554   3.373   0.702
  467SOL    HW1 1400   1.505   3.360   0.784
  467SOL    HW2 1401   1.486   3.381   0.635
  468SOL     OW 1402   1.130   2.563   0.710
  468SOL    HW1 1403   1.183   2.641   0.694
  468SOL    HW2 1404   1.081   2.583   0.790
  469SOL     OW 1405   1.813   2.443   0.238
  469SOL    HW1 1406   1.771   2.452   0.152
  469SOL    HW2 1407   1.755   2.386   0.288
  470SOL     OW 1408   0.764   3.008   1.031
  470SOL    HW1 1409   0.692   3.036   1.086
  470SOL    HW2 1410   0.795   3.088   0.989
  471SOL     OW 1411   0.853   2.654   1.820
  471SOL    HW1 1412   0.848   2.726   1.883
  471SOL    HW2 1413   0.878   2.695   1.738
  472SOL     OW 1414   0.688   2.877   0.655
  472SOL    HW1 1415   0.748   2.856   0.726
  472SOL    HW2 1416   0.615   2.923   0.698
  473SOL     OW 1417   0.699   3.017   1.805
  473SOL    HW1 1418   0.749   3.097   1.823
  473SOL    HW2 1419   0.615   3.048   1.772
  474SOL     OW 1420   0.351   3.273   1.077
  474SOL    HW1 1421   0.268   3.258   1.030
  474SOL    HW2 1422   0.398   3.336   1.023
  475SOL     OW 1423   1.462   3.362   1.344
  475SOL    HW1 1424   1.490   3.451   1.361
  475SOL    HW2 1425   1.429   3.330   1.428
  476SOL     OW 1426   0.446   2.260   1.500
  476SOL    HW1 1427   0.520   2.200   1.500
  476SOL    HW2 1428   0.369   2.204   1.504
  477SOL     OW 1429   1.611   2.312   0.736
  477SOL    HW1 1430   1.535   2.347   0.690
  477SOL    HW2 1431   1.643   2.386   0.789
  478SOL     OW 1432   0.233   3.570   0.493
  478SOL    HW1 1433   0.259   3.653   0.532
  478SOL    HW2 1434   0.279   3.566   0.410
  479SOL     OW 1435   1.133   3.202   1.689
  479SOL    HW1 1436   1.172   3.200   1.776
  479SOL    HW2 1437   1.080   3.123   1.685
  480SOL     OW 1438   0.235   3.301   0.538
  480SOL    HW1 1439   0.214   3.394   0.536
  480SOL    HW2 1440   0.165   3.261   0.589
  481SOL     OW 1441   0.246   2.941   0.883
  481SOL    HW1 1442   0.258   2.861   0.935
  481SOL    HW2 1443   0.194   2.999   0.939
  482SOL     OW 1444   0.619   3.649   1.436
  482SOL    HW1 1445   0.534   3.636   1.477
  482SOL    HW2 1446   0.643   3.739   1.458
  483SOL     OW 1447   0.607   2.837   0.131
  483SOL    HW1 1448   0.608   2.922   0.088
  483SOL    HW2 1449   0.650   2.853   0.216
  484SOL     OW 1450   1.596   1.977   1.473
  484SOL    HW1 1451   1.581   2.051   1.415
  484SOL    HW2 1452   1.589   2.015   1.561
  485SOL     OW 1453   0.136   2.503   0.570
  485SOL    HW1 1454   0.081   2.424   0.577
  485SOL    HW2 1455   0.108   2.558   0.643
  486SOL     OW 1456   1.838   3.633   0.355
  486SOL    HW1 1457   1.892   3.593   0.423
  486SOL    HW2 1458   1.886   3.712   0.330
  487SOL     OW 1459   0.013   3.444   0.110
  487SOL    HW1 1460   0.009   3.359   0.153
  487SOL    HW2 1461  -0.005   3.507   0.179
  488SOL     OW 1462   1.689   2.781   0.627
  488SOL    HW1 1463   1.780   2.750   0.618
  488SOL    HW2 1464   1.675   2.835   0.549
  489SOL     OW 1465   1.644   2.970   0.431
  489SOL    HW1 1466   1.727   2.982   0.384
  489SOL    HW2 1467   1.651   3.028   0.507
  490SOL     OW 1468   0.120   2.606   1.598
  490SOL    HW1 1469   0.211   2.601   1.625
  490SOL    HW2 1470   0.105   2.699   1.581
  491SOL     OW 1471   0.611   3.237   0.732
  491SOL    HW1 1472   0.566   3.153   0.739
  491SOL    HW2 1473   0.593   3.267   0.643
  492SOL     OW 1474   1.292   3.099   1.425
  492SOL    HW1 1475   1.326   3.030   1.368
  492SOL    HW2 1476   1.344   3.091   1.505
  493SOL     OW 1477   0.808   1.861   0.502
  493SOL    HW1 1478   0.849   1.947   0.492
  493SOL    HW2 1479   0.715   1.880   0.513
  494SOL     OW 1480   0.192   2.829   1.270
  494SOL    HW1 1481   0.278   2.791   1.251
  494SOL    HW2 1482   0.130   2.770   1.227
  495SOL     OW 1483   1.530   2.852   0.193
  495SOL    HW1 1484   1.458   2.795   0.221
  495SOL    HW2 1485   1.568   2.883   0.275
  496SOL     OW 1486   1.195   3.659   1.620
  496SOL    HW1 1487   1.204   3.715   1.543
  496SOL    HW2 1488   1.199   3.570   1.586
  497SOL     OW 1489   0.327   2.111   1.806
  497SOL    HW1 1490   0.382   2.189   1.811
  497SOL    HW2 1491   0.240   2.141   1.832
  498SOL     OW 1492   1.464   3.282   0.954
  498SOL    HW1 1493   1.399   3.291   1.023
  498SOL    HW2 1494   1.453   3.192   0.923
  499SOL     OW 1495   1.662   3.585   0.577
  499SOL    HW1 1496   1.633   3.558   0.490
  499SOL    HW2 1497   1.641   3.511   0.634
  500SOL     OW 1498   0.592   2.588   0.267
  500SOL    HW1 1499   0.620   2.666   0.218
  500SOL    HW2 1500   0.527   2.621   0.330
  501SOL     OW 1501   1.282   2.205   0.934
  501SOL    HW1 1502   1.194   2.168   0.937
  501SOL    HW2 1503   1.332   2.155   0.998
  502SOL     OW 1504   1.579   3.530   0.308
  502SOL    HW1 1505   1.672   3.556   0.307
  502SOL    HW2 1506   1.561   3.504   0.218
  503SOL     OW 1507   0.799   2.474   1.457
  503SOL    HW1 1508   0.766   2.457   1.546
  503SOL    HW2 1509   0.752   2.412   1.402
  504SOL     OW 1510   1.393   2.334   1.677
  504SOL    HW1 1511   1.387   2.376   1.762
  504SOL    HW2 1512   1.463   2.269   1.687
  505SOL     OW 1513   0.964   2.752   1.578
  505SOL    HW1 1514   1.016   2.679   1.546
  505SOL    HW2 1515   0.917   2.784   1.501
  506SOL     OW 1516   0.992   2.274   1.242
  506SOL    HW1 1517   0.913   2.301   1.287
  506SOL    HW2 1518   0.961   2.225   1.166
  507SOL     OW 1519   1.046   2.562   0.429
  507SOL    HW1 1520   1.060   2.555   0.523
  507SOL    HW2 1521   0.965   2.514   0.413
  508SOL     OW 1522   0.080   2.678   0.786
  508SOL    HW1 1523   0.170   2.660   0.814
  508SOL    HW2 1524   0.068   2.771   0.805
  509SOL     OW 1525   0.131   3.701   1.571
  509SOL    HW1 1526   0.130   3.669   1.661
  509SOL    HW2 1527   0.039   3.702   1.544
  510SOL     OW 1528   0.885   2.205   0.212
  510SOL    HW1 1529   0.916   2.264   0.143
  510SOL    HW2 1530   0.878   2.120   0.170
  511SOL     OW 1531   1.715   2.444   1.829
  511SOL    HW1 1532   1.685   2.526   1.790
  511SOL    HW2 1533   1.725   2.384   1.756
  512SOL     OW 1534   1.369   3.005   0.543
  512SOL    HW1 1535   1.448   2.987   0.492
  512SOL    HW2 1536   1.321   3.068   0.489
  513SOL     OW 1537   0.547   2.051   0.889
  513SOL    HW1 1538   0.549   2.069   0.983
  513SOL    HW2 1539   0.552   2.137   0.848
  514SOL     OW 1540   1.009   3.322   0.477
  514SOL    HW1 1541   0.956   3.395   0.445
  514SOL    HW2 1542   1.006   3.330   0.572
  515SOL     OW 1543   0.357   3.665   0.856
  515SOL    HW1 1544   0.421   3.594   0.853
  515SOL    HW2 1545   0.409   3.745   0.855
  516SOL     OW 1546   1.797   2.926   0.868
  516SOL    HW1 1547   1.735   2.913   0.796
  516SOL    HW2 1548   1.742   2.931   0.946
  517SOL     OW 1549   1.228   3.406   1.508
  517SOL    HW1 1550   1.221   3.332   1.568
  517SOL    HW2 1551   1.171   3.384   1.435
  518SOL     OW 1552   0.318   2.811   0.249
  518SOL    HW1 1553   0.395   2.841   0.202
  518SOL    HW2 1554   0.293   2.729   0.205
  519SOL     OW 1555   1.469   2.595   0.726
  519SOL    HW1 1556   1.456   2.544   0.806
  519SOL    HW2 1557   1.543   2.653   0.746
  520SOL     OW 1558   0.462   3.120   1.735
  520SOL    HW1 1559   0.428   3.131   1.646
  520SOL    HW2 1560   0.384   3.123   1.791
  521SOL     OW 1561   1.110   3.639   0.225
  521SOL    HW1 1562   1.058   3.590   0.289
  521SOL    HW2 1563   1.151   3.571   0.171
  522SOL     OW 1564   0.203   2.154   1.504
  522SOL    HW1 1565   0.114   2.185   1.485
  522SOL    HW2 1566   0.190   2.086   1.571
  523SOL     OW 1567   1.629   3.237   0.099
  523SOL    HW1 1568   1.598   3.324   0.074
  523SOL    HW2 1569   1.559   3.178   0.069
  524SOL     OW 1570   0.477   3.596   0.333
  524SOL    HW1 1571   0.503   3.660   0.399
  524SOL    HW2 1572   0.553   3.590   0.275
  525SOL     OW 1573   1.402   1.969   0.429
  525SOL    HW1 1574   1.386   1.943   0.338
  525SOL    HW2 1575   1.497   1.984   0.433
  526SOL     OW 1576   0.249   3.652   1.238
  526SOL    HW1 1577   0.302   3.588   1.285
  526SOL    HW2 1578   0.237   3.613   1.151
  527SOL     OW 1579   0.939   3.559   0.904
  527SOL    HW1 1580   1.015   3.504   0.921
  527SOL    HW2 1581   0.891   3.514   0.835
  528SOL     OW 1582   0.386   2.559   0.478
  528SOL    HW1 1583   0.421   2.470   0.483
  528SOL    HW2 1584   0.295   2.551   0.505
  529SOL     OW 1585   1.542   2.090   1.725
  529SOL    HW1 1586   1.546   2.112   1.818
  529SOL    HW2 1587   1.476   2.020   1.720
  530SOL     OW 1588   0.616   1.959   0.118
  530SOL    HW1 1589   0.711   1.967   0.124
  530SOL    HW2 1590   0.594   1.984   0.028
  531SOL     OW 1591   0.773   2.131   1.749
  531SOL    HW1 1592   0.841   2.069   1.776
  531SOL    HW2 1593   0.716   2.139   1.825
  532SOL     OW 1594   0.881   3.380   1.193
  532SOL    HW1 1595   0.865   3.347   1.105
  532SOL    HW2 1596   0.945   3.320   1.231
  533SOL     OW 1597   1.344   2.451   1.432
  533SOL    HW1 1598   1.375   2.416   1.516
  533SOL    HW2 1599   1.378   2.541   1.430
  534SOL     OW 1600   0.807   3.265   0.930
  534SOL    HW1 1601   0.891   3.264   0.884
  534SOL    HW2 1602   0.742   3.258   0.860
  535SOL     OW 1603   0.924   2.369   0.903
  535SOL    HW1 1604   0.901   2.358   0.810
  535SOL    HW2 1605   0.963   2.285   0.928
  536SOL     OW 1606   0.549   1.925   0.510
  536SOL    HW1 1607   0.467   1.930   0.559
  536SOL    HW2 1608   0.550   2.005   0.456
  537SOL     OW 1609   1.429   3.062   0.049
  537SOL    HW1 1610   1.459   2.988   0.102
  537SOL    HW2 1611   1.340   3.080   0.081
  538SOL     OW 1612   0.935   2.099   0.472
  538SOL    HW1 1613   0.898   2.143   0.395
  538SOL    HW2 1614   1.030   2.111   0.462
  539SOL     OW 1615   1.079   2.540   1.462
  539SOL    HW1 1616   1.006   2.479   1.467
  539SOL    HW2 1617   1.156   2.485   1.448
  540SOL     OW 1618   1.226   3.430   0.792
  540SOL    HW1 1619   1.247   3.502   0.732
  540SOL    HW2 1620   1.293   3.437   0.861
  541SOL     OW 1621   0.464   3.009   0.744
  541SOL    HW1 1622   0.389   2.989   0.799
  541SOL    HW2 1623   0.434   2.990   0.655
  542SOL     OW 1624   1.272   3.659   0.597
  542SOL    HW1 1625   1.313   3.723   0.539
  542SOL    HW2 1626   1.214   3.712   0.652
  543SOL     OW 1627   1.073   2.437  -0.002
  543SOL    HW1 1628   0.984   2.470   0.006
  543SOL    HW2 1629   1.104   2.428   0.088
  544SOL     OW 1630   0.076   2.427   1.388
  544SOL    HW1 1631   0.165   2.416   1.354
  544SOL    HW2 1632   0.084   2.495   1.455
  545SOL     OW 1633   0.567   2.087   1.157
  545SOL    HW1 1634   0.599   2.004   1.192
  545SOL    HW2 1635   0.476   2.092   1.187
  546SOL     OW 1636   0.871   2.320   0.640
  546SOL    HW1 1637   0.827   2.377   0.577
  546SOL    HW2 1638   0.887   2.239   0.591
  547SOL     OW 1639   1.015   1.911   0.756
  547SOL    HW1 1640   0.952   1.905   0.684
  547SOL    HW2 1641   0.994   1.835   0.811
  548SOL     OW 1642   1.433   3.028   0.861
  548SOL    HW1 1643   1.371   2.956   0.856
  548SOL    HW2 1644   1.454   3.049   0.770
  549SOL     OW 1645   1.471   2.458   0.987
  549SOL    HW1 1646   1.430   2.371   0.995
  549SOL    HW2 1647   1.534   2.461   1.059
  550SOL     OW 1648   1.844   2.684   0.391
  550SOL    HW1 1649   1.902   2.627   0.441
  550SOL    HW2 1650   1.825   2.634   0.311
  551SOL     OW 1651   0.498   3.265   0.180
  551SOL    HW1 1652   0.416   3.235   0.220
  551SOL    HW2 1653   0.480   3.263   0.086
  552SOL     OW 1654   1.665   3.131   0.657
  552SOL    HW1 1655   1.760   3.141   0.664
  552SOL    HW2 1656   1.630   3.218   0.677
  553SOL     OW 1657   1.362   2.413   0.058
  553SOL    HW1 1658   1.309   2.400   0.137
  553SOL    HW2 1659   1.452   2.412   0.089
  554SOL     OW 1660   0.565   2.126   0.327
  554SOL    HW1 1661   0.567   2.066   0.253
  554SOL    HW2 1662   0.531   2.208   0.292
  555SOL     OW 1663   1.754   3.091   1.582
  555SOL    HW1 1664   1.842   3.054   1.577
  555SOL    HW2 1665   1.767   3.181   1.612
  556SOL     OW 1666   1.066   3.214   1.337
  556SOL    HW1 1667   0.990   3.185   1.387
  556SOL    HW2 1668   1.141   3.173   1.381
  557SOL     OW 1669   1.598   3.488   1.643
  557SOL    HW1 1670   1.607   3.521   1.554
  557SOL    HW2 1671   1.682   3.446   1.661
  558SOL     OW 1672   1.117   3.060   1.106
  558SOL    HW1 1673   1.065   3.101   1.175
  558SOL    HW2 1674   1.079   3.093   1.025
  559SOL     OW 1675   1.636   2.965   1.078
  559SOL    HW1 1676   1.632   3.030   1.148
  559SOL    HW2 1677   1.552   2.973   1.033
  560SOL     OW 1678   0.917   1.959   1.403
  560SOL    HW1 1679   0.940   1.939   1.312
  560SOL    HW2 1680   0.995   2.002   1.439
  561SOL     OW 1681   0.983   2.976   1.720
  561SOL    HW1 1682   0.889   2.986   1.733
  561SOL    HW2 1683   0.990   2.898   1.664
  562SOL     OW 1684   0.707   2.919   0.371
  562SOL    HW1 1685   0.693   2.911   0.466
  562SOL    HW2 1686   0.785   2.866   0.354
  563SOL     OW 1687   0.414   2.675   1.251
  563SOL    HW1 1688   0.487   2.684   1.312
  563SOL    HW2 1689   0.378   2.588   1.270
  564SOL     OW 1690   1.272   2.243   1.267
  564SOL    HW1 1691   1.298   2.320   1.318
  564SOL    HW2 1692   1.185   2.266   1.233
  565SOL     OW 1693   0.061   3.437   1.340
  565SOL    HW1 1694   0.044   3.516   1.289
  565SOL    HW2 1695   0.156   3.437   1.352
  566SOL     OW 1696   0.383   2.963   0.493
  566SOL    HW1 1697   0.362   3.039   0.438
  566SOL    HW2 1698   0.370   2.888   0.435
  567SOL     OW 1699   0.560   2.400   0.864
  567SOL    HW1 1700   0.578   2.459   0.790
  567SOL    HW2 1701   0.615   2.434   0.935
  568SOL     OW 1702   1.250   3.210   0.389
  568SOL    HW1 1703   1.300   3.284   0.423
  568SOL    HW2 1704   1.162   3.223   0.424
  569SOL     OW 1705   1.271   3.313   1.144
  569SOL    HW1 1706   1.323   3.317   1.225
  569SOL    HW2 1707   1.215   3.236   1.155
  570SOL     OW 1708   1.581   2.502   0.474
  570SOL    HW1 1709   1.546   2.555   0.545
  570SOL    HW2 1710   1.646   2.558   0.431
  571SOL     OW 1711   0.350   3.380   1.324
  571SOL    HW1 1712   0.338   3.332   1.242
  571SOL    HW2 1713   0.445   3.397   1.327
  572SOL     OW 1714   0.407   2.608   1.600
  572SOL    HW1 1715   0.468   2.656   1.544
  572SOL    HW2 1716   0.450   2.525   1.617
  573SOL     OW 1717   1.590   2.637   1.674
  573SOL    HW1 1718   1.504   2.677   1.666
  573SOL    HW2 1719   1.643   2.681   1.608
  574SOL     OW 1720   1.000   1.971   1.763
  574SOL    HW1 1721   1.035   2.048   1.718
  574SOL    HW2 1722   1.050   1.898   1.726
  575SOL     OW 1723   0.502   1.911   1.741
  575SOL    HW1 1724   0.462   1.854   1.675
  575SOL    HW2 1725   0.435   1.977   1.759
  576SOL     OW 1726   0.580   2.732   1.031
  576SOL    HW1 1727   0.612   2.822   1.024
  576SOL    HW2 1728   0.520   2.734   1.106
  577SOL     OW 1729   1.363   2.723   1.039
  577SOL    HW1 1730   1.285   2.719   0.983
  577SOL    HW2 1731   1.394   2.633   1.044
  578SOL     OW 1732   1.207   2.393   0.276
  578SOL    HW1 1733   1.217   2.313   0.326
  578SOL    HW2 1734   1.169   2.456   0.337
  579SOL     OW 1735   0.314   2.069   1.243
  579SOL    HW1 1736   0.274   2.104   1.323
  579SOL    HW2 1737   0.282   1.979   1.237
  580SOL     OW 1738   0.049   3.163   1.280
  580SOL    HW1 1739   0.088   3.128   1.360
  580SOL    HW2 1740   0.051   3.258   1.292
  581SOL     OW 1741   0.731   2.497   1.064
  581SOL    HW1 1742   0.795   2.474   0.997
  581SOL    HW2 1743   0.702   2.585   1.042
  582SOL     OW 1744   1.733   2.815   1.851
  582SOL    HW1 1745   1.682   2.778   1.779
  582SOL    HW2 1746   1.669   2.831   1.920
  583SOL     OW 1747   0.310   1.929   0.623
  583SOL    HW1 1748   0.291   2.019   0.650
  583SOL    HW2 1749   0.302   1.878   0.704
  584SOL     OW 1750   1.617   2.236   0.371
  584SOL    HW1 1751   1.634   2.167   0.436
  584SOL    HW2 1752   1.579   2.308   0.422
  585SOL     OW 1753   1.025   2.625   0.965
  585SOL    HW1 1754   1.032   2.641   1.059
  585SOL    HW2 1755   0.998   2.533   0.959
  586SOL     OW 1756   0.983   3.429   1.709
  586SOL    HW1 1757   0.965   3.474   1.626
  586SOL    HW2 1758   1.022   3.346   1.683
  587SOL     OW 1759   1.858   3.377   1.606
  587SOL    HW1 1760   1.874   3.402   1.515
  587SOL    HW2 1761   1.938   3.401   1.652
  588SOL     OW 1762   0.350   2.776   1.804
  588SOL    HW1 1763   0.431   2.797   1.850
  588SOL    HW2 1764   0.377   2.716   1.735
  589SOL     OW 1765   1.518   2.161   0.123
  589SOL    HW1 1766   1.484   2.073   0.139
  589SOL    HW2 1767   1.565   2.183   0.203
  590SOL     OW 1768   1.312   2.695   0.037
  590SOL    HW1 1769   1.333   2.603   0.048
  590SOL    HW2 1770   1.301   2.707  -0.057
  591SOL     OW 1771   1.065   3.197   0.849
  591SOL    HW1 1772   1.071   3.121   0.792
  591SOL    HW2 1773   1.130   3.258   0.816
  592SOL     OW 1774   0.315   2.675   0.954
  592SOL    HW1 1775   0.408   2.695   0.947
  592SOL    HW2 1776   0.312   2.587   0.990
  593SOL     OW 1777   0.336   2.376   1.009
  593SOL    HW1 1778   0.296   2.291   0.990
  593SOL    HW2 1779   0.411   2.382   0.949
  594SOL     OW 1780   1.136   2.244   1.676
  594SOL    HW1 1781   1.094   2.299   1.742
  594SOL    HW2 1782   1.225   2.277   1.670
  595SOL     OW 1783   1.159   2.067   1.472
  595SOL    HW1 1784   1.154   2.129   1.545
  595SOL    HW2 1785   1.191   2.119   1.398
  596SOL     OW 1786   4.004   3.186   0.197
  596SOL    HW1 1787   3.910   3.203   0.188
  596SOL    HW2 1788   4.010   3.091   0.210
  597SOL     OW 1789   0.077   3.665   0.906
  597SOL    HW1 1790   0.070   3.569   0.907
  597SOL    HW2 1791   0.171   3.681   0.894
  598SOL     OW 1792   0.504   3.432   0.905
  598SOL    HW1 1793   0.572   3.496   0.927
  598SOL    HW2 1794   0.551   3.361   0.862
  599SOL     OW 1795   0.996   2.659   1.232
  599SOL    HW1 1796   1.041   2.630   1.312
  599SOL    HW2 1797   0.907   2.626   1.241
  600SOL     OW 1798   0.040   2.413   1.113
  600SOL    HW1 1799   0.119   2.378   1.072
  600SOL    HW2 1800   0.059   2.412   1.207
  601SOL     OW 1801   0.198   2.377   1.722
  601SOL    HW1 1802   0.251   2.343   1.650
  601SOL    HW2 1803   0.144   2.446   1.682
  602SOL     OW 1804   1.375   2.807   1.660
  602SOL    HW1 1805   1.397   2.900   1.667
  602SOL    HW2 1806   1.375   2.789   1.566
  603SOL     OW 1807   0.813   2.431   0.352
  603SOL    HW1 1808   0.822   2.356   0.293
  603SOL    HW2 1809   0.734   2.476   0.321
  604SOL     OW 1810   1.645   2.463   1.195
  604SOL    HW1 1811   1.628   2.401   1.266
  604SOL    HW2 1812   1.731   2.438   1.161
  605SOL     OW 1813   0.282   3.415   1.744
  605SOL    HW1 1814   0.229   3.480   1.790
  605SOL    HW2 1815   0.245   3.331   1.772
  606SOL     OW 1816   0.683   2.321   1.268
  606SOL    HW1 1817   0.640   2.243   1.234
  606SOL    HW2 1818   0.691   2.379   1.192
  607SOL     OW 1819   0.935   3.537   1.464
  607SOL    HW1 1820   0.905   3.517   1.375
  607SOL    HW2 1821   0.942   3.633   1.466
  608SOL     OW 1822   0.469   2.358   0.202
  608SOL    HW1 1823   0.529   2.432   0.212
  608SOL    HW2 1824   0.382   2.398   0.192
  609SOL     OW 1825   0.157   2.999   1.467
  609SOL    HW1 1826   0.174   2.943   1.543
  609SOL    HW2 1827   0.174   2.944   1.392
  610SOL     OW 1828   1.338   2.914   1.230
  610SOL    HW1 1829   1.362   2.855   1.158
  610SOL    HW2 1830   1.259   2.958   1.198
  611SOL     OW 1831   1.307   2.715   0.310
  611SOL    HW1 1832   1.225   2.688   0.352
  611SOL    HW2 1833   1.290   2.704   0.217
  612SOL     OW 1834   1.760   3.612   1.147
  612SOL    HW1 1835   1.823   3.636   1.079
  612SOL    HW2 1836   1.737   3.521   1.128
  613SOL     OW 1837   1.246   3.594   1.124
  613SOL    HW1 1838   1.327   3.604   1.074
  613SOL    HW2 1839   1.239   3.500   1.141
  614SOL     OW 1840   0.078   3.082   1.025
  614SOL    HW1 1841   0.078   3.111   1.116
  614SOL    HW2 1842  -0.015   3.080   1.001
  615SOL     OW 1843   0.681   3.523   1.718
  615SOL    HW1 1844   0.632   3.605   1.722
  615SOL    HW2 1845   0.737   3.533   1.640
  616SOL     OW 1846   0.905   1.948   0.124
  616SOL    HW1 1847   0.961   1.937   0.047
  616SOL    HW2 1848   0.954   1.908   0.196
  617SOL     OW 1849   1.722   1.999   0.525
  617SOL    HW1 1850   1.794   1.986   0.463
  617SOL    HW2 1851   1.703   1.912   0.559
  618SOL     OW 1852   1.388   3.431   0.478
  618SOL    HW1 1853   1.451   3.457   0.410
  618SOL    HW2 1854   1.348   3.514   0.506
  619SOL     OW 1855   0.159   3.640   1.832
  619SOL    HW1 1856   0.099   3.588   1.886
  619SOL    HW2 1857   0.202   3.699   1.894
  620SOL     OW 1858   1.277   2.785   0.671
  620SOL    HW1 1859   1.348   2.720   0.673
  620SOL    HW2 1860   1.312   2.857   0.619
  621SOL     OW 1861   0.825   3.132   1.430
  621SOL    HW1 1862   0.807   3.171   1.516
  621SOL    HW2 1863   0.748   3.155   1.378
  622SOL     OW 1864   0.686   3.465   0.159
  622SOL    HW1 1865   0.682   3.481   0.065
  622SOL    HW2 1866   0.627   3.391   0.174
  623SOL     OW 1867   1.646   3.586   1.394
  623SOL    HW1 1868   1.689   3.597   1.310
  623SOL    HW2 1869   1.626   3.676   1.423
  624SOL     OW 1870   1.840   2.035   0.968
  624SOL    HW1 1871   1.870   1.952   0.933
  624SOL    HW2 1872   1.752   2.046   0.931
  625SOL     OW 1873   0.269   2.182   0.722
  625SOL    HW1 1874   0.188   2.223   0.691
  625SOL    HW2 1875   0.257   2.171   0.816
  626SOL     OW 1876   1.211   3.453   0.047
  626SOL    HW1 1877   1.204   3.363   0.080
  626SOL    HW2 1878   1.176   3.449  -0.042
  627SOL     OW 1879   0.825   2.867   1.372
  627SOL    HW1 1880   0.864   2.866   1.285
  627SOL    HW2 1881   0.828   2.958   1.399
  628SOL     OW 1882   0.917   2.775   0.291
  628SOL    HW1 1883   0.978   2.804   0.224
  628SOL    HW2 1884   0.958   2.697   0.329
  629SOL     OW 1885   1.505   3.482   0.047
  629SOL    HW1 1886   1.410   3.491   0.044
  629SOL    HW2 1887   1.533   3.489  -0.045
  630SOL     OW 1888   0.371   3.158   1.491
  630SOL    HW1 1889   0.357   3.241   1.446
  630SOL    HW2 1890   0.292   3.106   1.473
  631SOL     OW 1891   1.611   3.147   1.285
  631SOL    HW1 1892   1.671   3.149   1.360
  631SOL    HW2 1893   1.549   3.218   1.302
  632SOL     OW 1894   1.042   2.963   0.701
  632SOL    HW1 1895   0.974   2.912   0.744
  632SOL    HW2 1896   1.100   2.897   0.662
  633SOL     OW 1897   1.018   2.101   0.966
  633SOL    HW1 1898   1.009   2.055   0.883
  633SOL    HW2 1899   1.012   2.032   1.032
  634SOL     OW 1900   0.600   3.355   0.486
  634SOL    HW1 1901   0.629   3.297   0.415
  634SOL    HW2 1902   0.540   3.415   0.444
  635SOL     OW 1903   1.714   2.250   1.381
  635SOL    HW1 1904   1.785   2.315   1.378
  635SOL    HW2 1905   1.744   2.180   1.323
  636SOL     OW 1906   0.256   3.210   0.291
  636SOL    HW1 1907   0.163   3.214   0.267
  636SOL    HW2 1908   0.260   3.252   0.377
  637SOL     OW 1909   0.103   2.866   1.722
  637SOL    HW1 1910   0.038   2.846   1.789
  637SOL    HW2 1911   0.187   2.843   1.763
  638SOL     OW 1912   0.670   2.060   1.495
  638SOL    HW1 1913   0.755   2.044   1.452
  638SOL    HW2 1914   0.692   2.078   1.586
  639SOL     OW 1915   0.058   2.234   0.038
  639SOL    HW1 1916  -0.020   2.183   0.017
  639SOL    HW2 1917   0.086   2.271  -0.046
  640SOL     OW 1918   1.436   2.720   1.402
  640SOL    HW1 1919   1.387   2.775   1.341
  640SOL    HW2 1920   1.527   2.726   1.373
  641SOL     OW 1921   0.048   2.048   0.339
  641SOL    HW1 1922   0.054   2.127   0.285
  641SOL    HW2 1923   0.139   2.021   0.353
  642SOL     OW 1924   1.199   3.178   0.115
  642SOL    HW1 1925   1.104   3.184   0.124
  642SOL    HW2 1926   1.233   3.191   0.204
  643SOL     OW 1927   0.615   2.698   1.431
  643SOL    HW1 1928   0.670   2.775   1.417
  643SOL    HW2 1929   0.676   2.625   1.437
  644SOL     OW 1930   1.488   3.634   0.967
  644SOL    HW1 1931   1.521   3.689   0.896
  644SOL    HW2 1932   1.563   3.623   1.026
  645SOL     OW 1933   0.715   2.427   1.709
  645SOL    HW1 1934   0.743   2.490   1.775
  645SOL    HW2 1935   0.767   2.349   1.727
  646SOL     OW 1936   1.460   3.072   1.634
  646SOL    HW1 1937   1.451   3.080   1.729
  646SOL    HW2 1938   1.554   3.077   1.618
  647SOL     OW 1939   0.385   3.603   1.560
  647SOL    HW1 1940   0.296   3.639   1.553
  647SOL    HW2 1941   0.372   3.517   1.601
  648SOL     OW 1942   1.675   2.745   1.256
  648SOL    HW1 1943   1.659   2.660   1.215
  648SOL    HW2 1944   1.669   2.808   1.184
  649SOL     OW 1945   1.222   2.183   0.455
  649SOL    HW1 1946   1.288   2.114   0.444
  649SOL    HW2 1947   1.249   2.230   0.534
  650SOL     OW 1948   0.592   2.607   0.662
  650SOL    HW1 1949   0.635   2.690   0.640
  650SOL    HW2 1950   0.517   2.602   0.603
  651SOL     OW 1951   1.771   2.215   1.646
  651SOL    HW1 1952   1.752   2.229   1.553
  651SOL    HW2 1953   1.698   2.163   1.678
  652SOL     OW 1954   1.737   2.796   1.515
  652SOL    HW1 1955   1.757   2.889   1.526
  652SOL    HW2 1956   1.725   2.785   1.420
  653SOL     OW 1957   0.835   3.241   0.003
  653SOL    HW1 1958   0.814   3.232   0.096
  653SOL    HW2 1959   0.896   3.315  -0.000
  654SOL     OW 1960   0.657   3.655   0.951
  654SOL    HW1 1961   0.628   3.744   0.931
  654SOL    HW2 1962   0.752   3.659   0.943
  655SOL     OW 1963   0.863   2.823   0.858
  655SOL    HW1 1964   0.914   2.755   0.903
  655SOL    HW2 1965   0.833   2.881   0.929
  656SOL     OW 1966   1.085   2.852   0.089
  656SOL    HW1 1967   1.060   2.882   0.002
  656SOL    HW2 1968   1.160   2.795   0.075
  657SOL     OW 1969   1.861   3.424   0.847
  657SOL    HW1 1970   1.786   3.412   0.788
  657SOL    HW2 1971   1.852   3.352   0.910
  658SOL     OW 1972   0.222   3.169   1.851
  658SOL    HW1 1973   0.154   3.105   1.829
  658SOL    HW2 1974   0.213   3.183   1.945
  659SOL     OW 1975   0.103   3.127   0.706
  659SOL    HW1 1976   0.088   3.058   0.771
  659SOL    HW2 1977   0.136   3.080   0.629
  660SOL     OW 1978   0.676   3.258   1.622
  660SOL    HW1 1979   0.597   3.214   1.655
  660SOL    HW2 1980   0.671   3.346   1.658
  661SOL     OW 1981   1.816   2.051   1.236
  661SOL    HW1 1982   1.824   1.959   1.260
  661SOL    HW2 1983   1.826   2.052   1.140
  662SOL     OW 1984   0.435   2.293   0.525
  662SOL    HW1 1985   0.452   2.222   0.463
  662SOL    HW2 1986   0.387   2.252   0.597
  663SOL     OW 1987   1.702   3.355   1.106
  663SOL    HW1 1988   1.620   3.324   1.069
  663SOL    HW2 1989   1.724   3.291   1.175
  664SOL     OW 1990   0.323   2.410   1.288
  664SOL    HW1 1991   0.374   2.352   1.345
  664SOL    HW2 1992   0.349   2.386   1.199
  665SOL     OW 1993   0.820   3.439   0.685
  665SOL    HW1 1994   0.828   3.471   0.595
  665SOL    HW2 1995   0.738   3.390   0.686
  666SOL     OW 1996   1.430   2.081   1.117
  666SOL    HW1 1997   1.468   2.011   1.169
  666SOL    HW2 1998   1.378   2.132   1.179
  667SOL     OW 1999   1.005   1.889   1.151
  667SOL    HW1 2000   0.949   1.818   1.117
  667SOL    HW2 2001   1.093   1.852   1.151
  668SOL     OW 2002   0.769   3.190   0.306
  668SOL    HW1 2003   0.728   3.104   0.318
  668SOL    HW2 2004   0.855   3.182   0.346
  669SOL     OW 2005   0.619   3.426   1.282
  669SOL    HW1 2006   0.621   3.505   1.336
  669SOL    HW2 2007   0.706   3.421   1.243
  670SOL     OW 2008   1.356   1.906   0.174
  670SOL    HW1 2009   1.377   1.888   0.083
  670SOL    HW2 2010   1.265   1.879   0.184
  671SOL     OW 2011   1.301   2.320   0.688
  671SOL    HW1 2012   1.242   2.396   0.696
  671SOL    HW2 2013   1.302   2.281   0.775
  672SOL     OW 2014   1.590   2.075   0.879
  672SOL    HW1 2015   1.515   2.086   0.938
  672SOL    HW2 2016   1.590   2.153   0.825
  673SOL     OW 2017   0.031   2.914   0.261
  673SOL    HW1 2018   0.126   2.915   0.264
  673SOL    HW2 2019   0.005   2.842   0.318
  674SOL     OW 2020   0.870   3.514   0.352
  674SOL    HW1 2021   0.798   3.494   0.292
  674SOL    HW2 2022   0.842   3.593   0.397
  675SOL     OW 2023   0.231   2.484   1.982
  675SOL    HW1 2024   0.138   2.493   2.005
  675SOL    HW2 2025   0.230   2.455   1.891
  676SOL     OW 2026   0.228   2.131   2.850
  676SOL    HW1 2027   0.253   2.112   2.941
  676SOL    HW2 2028   0.135   2.108   2.845
  677SOL     OW 2029   4.015   2.234   2.505
  677SOL    HW1 2030   3.932   2.258   2.544
  677SOL    HW2 2031   3.992   2.175   2.432
  678SOL     OW 2032   0.569   3.135   3.032
  678SOL    HW1 2033   0.482   3.139   2.993
  678SOL    HW2 2034   0.583   3.223   3.068
  679SOL     OW 2035   1.554   3.374   2.565
  679SOL    HW1 2036   1.505   3.360   2.646
  679SOL    HW2 2037   1.486   3.381   2.497
  680SOL     OW 2038   1.130   2.563   2.572
  680SOL    HW1 2039   1.183   2.641   2.556
  680SOL    HW2 2040   1.081   2.584   2.652
  681SOL     OW 2041   1.760   2.470   2.095
  681SOL    HW1 2042   1.743   2.458   2.002
  681SOL    HW2 2043   1.727   2.390   2.136
  682SOL     OW 2044   0.764   3.008   2.893
  682SOL    HW1 2045   0.692   3.037   2.948
  682SOL    HW2 2046   0.795   3.088   2.850
  683SOL     OW 2047   0.853   2.655   3.683
  683SOL    HW1 2048   0.851   2.730   3.743
  683SOL    HW2 2049   0.878   2.692   3.599
  684SOL     OW 2050   0.687   2.876   2.517
  684SOL    HW1 2051   0.748   2.856   2.588
  684SOL    HW2 2052   0.616   2.923   2.560
  685SOL     OW 2053   0.699   3.018   3.669
  685SOL    HW1 2054   0.749   3.098   3.683
  685SOL    HW2 2055   0.615   3.048   3.634
  686SOL     OW 2056   0.350   3.273   2.939
  686SOL    HW1 2057   0.268   3.258   2.892
  686SOL    HW2 2058   0.398   3.336   2.884
  687SOL     OW 2059   1.461   3.362   3.206
  687SOL    HW1 2060   1.490   3.451   3.223
  687SOL    HW2 2061   1.430   3.330   3.290
  688SOL     OW 2062   0.446   2.261   3.360
  688SOL    HW1 2063   0.520   2.200   3.362
  688SOL    HW2 2064   0.369   2.204   3.366
  689SOL     OW 2065   1.611   2.312   2.598
  689SOL    HW1 2066   1.536   2.347   2.551
  689SOL    HW2 2067   1.643   2.386   2.651
  690SOL     OW 2068   0.230   3.575   2.338
  690SOL    HW1 2069   0.255   3.649   2.393
  690SOL    HW2 2070   0.293   3.576   2.266
  691SOL     OW 2071   1.133   3.202   3.551
  691SOL    HW1 2072   1.174   3.198   3.638
  691SOL    HW2 2073   1.079   3.123   3.546
  692SOL     OW 2074   0.235   3.301   2.398
  692SOL    HW1 2075   0.212   3.394   2.397
  692SOL    HW2 2076   0.166   3.260   2.451
  693SOL     OW 2077   0.245   2.941   2.745
  693SOL    HW1 2078   0.258   2.861   2.796
  693SOL    HW2 2079   0.194   2.999   2.801
  694SOL     OW 2080   0.619   3.649   3.298
  694SOL    HW1 2081   0.534   3.636   3.339
  694SOL    HW2 2082   0.643   3.739   3.320
  695SOL     OW 2083   0.594   2.836   1.991
  695SOL    HW1 2084   0.627   2.900   1.927
  695SOL    HW2 2085   0.643   2.855   2.071
  696SOL     OW 2086   1.595   1.977   3.336
  696SOL    HW1 2087   1.581   2.051   3.277
  696SOL    HW2 2088   1.590   2.015   3.423
  697SOL     OW 2089   0.137   2.502   2.433
  697SOL    HW1 2090   0.081   2.425   2.438
  697SOL    HW2 2091   0.108   2.558   2.505
  698SOL     OW 2092   1.840   3.626   2.207
  698SOL    HW1 2093   1.893   3.598   2.282
  698SOL    HW2 2094   1.872   3.713   2.186
  699SOL     OW 2095   0.041   3.458   2.000
  699SOL    HW1 2096   0.020   3.365   2.013
  699SOL    HW2 2097  -0.023   3.504   2.055
  700SOL     OW 2098   1.690   2.783   2.490
  700SOL    HW1 2099   1.779   2.749   2.480
  700SOL    HW2 2100   1.674   2.833   2.411
  701SOL     OW 2101   1.644   2.971   2.293
  701SOL    HW1 2102   1.727   2.981   2.247
  701SOL    HW2 2103   1.652   3.028   2.369
  702SOL     OW 2104   0.120   2.606   3.460
  702SOL    HW1 2105   0.212   2.601   3.486
  702SOL    HW2 2106   0.104   2.699   3.444
  703SOL     OW 2107   0.611   3.237   2.595
  703SOL    HW1 2108   0.566   3.153   2.601
  703SOL    HW2 2109   0.593   3.267   2.505
  704SOL     OW 2110   1.292   3.098   3.287
  704SOL    HW1 2111   1.326   3.030   3.230
  704SOL    HW2 2112   1.344   3.091   3.367
  705SOL     OW 2113   0.807   1.860   2.363
  705SOL    HW1 2114   0.849   1.946   2.355
  705SOL    HW2 2115   0.714   1.880   2.375
  706SOL     OW 2116   0.192   2.829   3.132
  706SOL    HW1 2117   0.278   2.791   3.112
  706SOL    HW2 2118   0.130   2.770   3.089
  707SOL     OW 2119   1.532   2.854   2.054
  707SOL    HW1 2120   1.464   2.791   2.077
  707SOL    HW2 2121   1.568   2.881   2.138
  708SOL     OW 2122   1.197   3.658   3.483
  708SOL    HW1 2123   1.204   3.716   3.407
  708SOL    HW2 2124   1.199   3.569   3.446
  709SOL     OW 2125   0.326   2.113   3.662
  709SOL    HW1 2126   0.383   2.188   3.678
  709SOL    HW2 2127   0.240   2.141   3.696
  710SOL     OW 2128   1.464   3.282   2.816
  710SOL    HW1 2129   1.399   3.291   2.885
  710SOL    HW2 2130   1.453   3.192   2.785
  711SOL     OW 2131   1.664   3.585   2.438
  711SOL    HW1 2132   1.633   3.558   2.351
  711SOL    HW2 2133   1.641   3.512   2.495
  712SOL     OW 2134   0.594   2.587   2.125
  712SOL    HW1 2135   0.612   2.663   2.070
  712SOL    HW2 2136   0.529   2.617   2.188
  713SOL     OW 2137   1.282   2.205   2.796
  713SOL    HW1 2138   1.194   2.168   2.799
  713SOL    HW2 2139   1.332   2.155   2.860
  714SOL     OW 2140   1.579   3.529   2.169
  714SOL    HW1 2141   1.667   3.566   2.167
  714SOL    HW2 2142   1.561   3.506   2.079
  715SOL     OW 2143   0.798   2.474   3.319
  715SOL    HW1 2144   0.767   2.457   3.407
  715SOL    HW2 2145   0.752   2.412   3.264
  716SOL     OW 2146   1.394   2.334   3.538
  716SOL    HW1 2147   1.385   2.375   3.624
  716SOL    HW2 2148   1.463   2.268   3.549
  717SOL     OW 2149   0.964   2.752   3.440
  717SOL    HW1 2150   1.016   2.679   3.408
  717SOL    HW2 2151   0.917   2.784   3.362
  718SOL     OW 2152   0.992   2.274   3.104
  718SOL    HW1 2153   0.913   2.301   3.149
  718SOL    HW2 2154   0.960   2.225   3.028
  719SOL     OW 2155   1.047   2.562   2.290
  719SOL    HW1 2156   1.061   2.555   2.385
  719SOL    HW2 2157   0.965   2.514   2.275
  720SOL     OW 2158   0.080   2.678   2.648
  720SOL    HW1 2159   0.170   2.660   2.676
  720SOL    HW2 2160   0.068   2.771   2.667
  721SOL     OW 2161   0.131   3.701   3.434
  721SOL    HW1 2162   0.130   3.670   3.525
  721SOL    HW2 2163   0.039   3.701   3.408
  722SOL     OW 2164   0.874   2.207   2.055
  722SOL    HW1 2165   0.927   2.266   2.002
  722SOL    HW2 2166   0.896   2.119   2.024
  723SOL     OW 2167   1.715   2.446   3.693
  723SOL    HW1 2168   1.685   2.527   3.652
  723SOL    HW2 2169   1.725   2.384   3.620
  724SOL     OW 2170   1.370   3.006   2.406
  724SOL    HW1 2171   1.447   2.986   2.353
  724SOL    HW2 2172   1.320   3.068   2.352
  725SOL     OW 2173   0.547   2.051   2.751
  725SOL    HW1 2174   0.549   2.069   2.845
  725SOL    HW2 2175   0.552   2.137   2.710
  726SOL     OW 2176   1.011   3.312   2.338
  726SOL    HW1 2177   0.966   3.381   2.290
  726SOL    HW2 2178   1.003   3.337   2.430
  727SOL     OW 2179   0.357   3.665   2.717
  727SOL    HW1 2180   0.421   3.594   2.716
  727SOL    HW2 2181   0.409   3.745   2.717
  728SOL     OW 2182   1.797   2.926   2.729
  728SOL    HW1 2183   1.735   2.912   2.658
  728SOL    HW2 2184   1.742   2.931   2.808
  729SOL     OW 2185   1.228   3.406   3.371
  729SOL    HW1 2186   1.221   3.331   3.429
  729SOL    HW2 2187   1.172   3.384   3.296
  730SOL     OW 2188   0.315   2.814   2.102
  730SOL    HW1 2189   0.401   2.837   2.067
  730SOL    HW2 2190   0.296   2.728   2.064
  731SOL     OW 2191   1.468   2.596   2.589
  731SOL    HW1 2192   1.457   2.544   2.669
  731SOL    HW2 2193   1.542   2.652   2.607
  732SOL     OW 2194   0.462   3.119   3.597
  732SOL    HW1 2195   0.428   3.131   3.508
  732SOL    HW2 2196   0.384   3.124   3.652
  733SOL     OW 2197   1.113   3.640   2.090
  733SOL    HW1 2198   1.054   3.588   2.145
  733SOL    HW2 2199   1.138   3.581   2.019
  734SOL     OW 2200   0.203   2.154   3.365
  734SOL    HW1 2201   0.114   2.185   3.347
  734SOL    HW2 2202   0.191   2.086   3.433
  735SOL     OW 2203   1.631   3.239   1.949
  735SOL    HW1 2204   1.593   3.325   1.932
  735SOL    HW2 2205   1.561   3.177   1.929
  736SOL     OW 2206   0.468   3.597   2.184
  736SOL    HW1 2207   0.500   3.655   2.253
  736SOL    HW2 2208   0.542   3.588   2.124
  737SOL     OW 2209   1.401   1.971   2.289
  737SOL    HW1 2210   1.384   1.941   2.200
  737SOL    HW2 2211   1.496   1.979   2.295
  738SOL     OW 2212   0.250   3.652   3.099
  738SOL    HW1 2213   0.302   3.589   3.148
  738SOL    HW2 2214   0.237   3.613   3.013
  739SOL     OW 2215   0.939   3.559   2.766
  739SOL    HW1 2216   1.016   3.504   2.782
  739SOL    HW2 2217   0.891   3.514   2.696
  740SOL     OW 2218   0.386   2.559   2.339
  740SOL    HW1 2219   0.420   2.470   2.346
  740SOL    HW2 2220   0.295   2.551   2.367
  741SOL     OW 2221   1.541   2.091   3.588
  741SOL    HW1 2222   1.546   2.111   3.681
  741SOL    HW2 2223   1.477   2.020   3.582
  742SOL     OW 2224   0.615   1.984   1.971
  742SOL    HW1 2225   0.704   1.949   1.981
  742SOL    HW2 2226   0.586   1.953   1.886
  743SOL     OW 2227   0.772   2.129   3.610
  743SOL    HW1 2228   0.841   2.070   3.640
  743SOL    HW2 2229   0.717   2.142   3.687
  744SOL     OW 2230   0.880   3.380   3.056
  744SOL    HW1 2231   0.866   3.347   2.967
  744SOL    HW2 2232   0.945   3.320   3.093
  745SOL     OW 2233   1.344   2.451   3.294
  745SOL    HW1 2234   1.375   2.416   3.378
  745SOL    HW2 2235   1.378   2.541   3.292
  746SOL     OW 2236   0.807   3.265   2.792
  746SOL    HW1 2237   0.891   3.264   2.746
  746SOL    HW2 2238   0.742   3.258   2.722
  747SOL     OW 2239   0.925   2.369   2.765
  747SOL    HW1 2240   0.901   2.358   2.673
  747SOL    HW2 2241   0.964   2.285   2.790
  748SOL     OW 2242   0.547   1.923   2.369
  748SOL    HW1 2243   0.466   1.929   2.420
  748SOL    HW2 2244   0.550   2.004   2.319
  749SOL     OW 2245   1.430   3.057   1.902
  749SOL    HW1 2246   1.462   2.983   1.954
  749SOL    HW2 2247   1.343   3.076   1.938
  750SOL     OW 2248   0.298   1.909   2.040
  750SOL    HW1 2249   0.361   1.965   1.996
  750SOL    HW2 2250   0.351   1.840   2.080
  751SOL     OW 2251   0.934   2.101   2.335
  751SOL    HW1 2252   0.897   2.143   2.257
  751SOL    HW2 2253   1.029   2.108   2.324
  752SOL     OW 2254   1.079   2.541   3.323
  752SOL    HW1 2255   1.006   2.479   3.329
  752SOL    HW2 2256   1.156   2.485   3.310
  753SOL     OW 2257   1.226   3.431   2.655
  753SOL    HW1 2258   1.247   3.501   2.593
  753SOL    HW2 2259   1.293   3.438   2.723
  754SOL     OW 2260   0.464   3.009   2.606
  754SOL    HW1 2261   0.389   2.989   2.661
  754SOL    HW2 2262   0.433   2.990   2.517
  755SOL     OW 2263   1.273   3.660   2.461
  755SOL    HW1 2264   1.312   3.724   2.401
  755SOL    HW2 2265   1.213   3.711   2.514
  756SOL     OW 2266   1.031   2.411   1.876
  756SOL    HW1 2267   0.990   2.494   1.852
  756SOL    HW2 2268   1.091   2.433   1.948
  757SOL     OW 2269   0.076   2.427   3.250
  757SOL    HW1 2270   0.165   2.416   3.217
  757SOL    HW2 2271   0.084   2.496   3.316
  758SOL     OW 2272   0.567   2.087   3.019
  758SOL    HW1 2273   0.599   2.004   3.054
  758SOL    HW2 2274   0.476   2.092   3.049
  759SOL     OW 2275   0.872   2.320   2.502
  759SOL    HW1 2276   0.827   2.377   2.440
  759SOL    HW2 2277   0.887   2.239   2.454
  760SOL     OW 2278   1.014   1.911   2.618
  760SOL    HW1 2279   0.952   1.904   2.545
  760SOL    HW2 2280   0.995   1.835   2.673
  761SOL     OW 2281   1.434   3.028   2.723
  761SOL    HW1 2282   1.371   2.956   2.718
  761SOL    HW2 2283   1.454   3.049   2.632
  762SOL     OW 2284   1.470   2.458   2.849
  762SOL    HW1 2285   1.430   2.371   2.857
  762SOL    HW2 2286   1.534   2.461   2.921
  763SOL     OW 2287   1.849   2.687   2.242
  763SOL    HW1 2288   1.902   2.630   2.298
  763SOL    HW2 2289   1.821   2.630   2.170
  764SOL     OW 2290   0.493   3.262   2.031
  764SOL    HW1 2291   0.414   3.235   2.078
  764SOL    HW2 2292   0.465   3.267   1.939
  765SOL     OW 2293   1.666   3.131   2.518
  765SOL    HW1 2294   1.760   3.142   2.527
  765SOL    HW2 2295   1.630   3.218   2.539
  766SOL     OW 2296   1.392   2.435   1.934
  766SOL    HW1 2297   1.337   2.416   2.010
  766SOL    HW2 2298   1.478   2.399   1.958
  767SOL     OW 2299   0.571   2.127   2.192
  767SOL    HW1 2300   0.576   2.070   2.116
  767SOL    HW2 2301   0.531   2.208   2.159
  768SOL     OW 2302   1.754   3.091   3.442
  768SOL    HW1 2303   1.842   3.054   3.440
  768SOL    HW2 2304   1.766   3.180   3.475
  769SOL     OW 2305   1.066   3.215   3.199
  769SOL    HW1 2306   0.990   3.184   3.249
  769SOL    HW2 2307   1.140   3.173   3.243
  770SOL     OW 2308   1.598   3.489   3.505
  770SOL    HW1 2309   1.607   3.520   3.416
  770SOL    HW2 2310   1.681   3.446   3.525
  771SOL     OW 2311   1.117   3.060   2.969
  771SOL    HW1 2312   1.065   3.101   3.037
  771SOL    HW2 2313   1.080   3.092   2.887
  772SOL     OW 2314   1.636   2.965   2.941
  772SOL    HW1 2315   1.632   3.030   3.010
  772SOL    HW2 2316   1.552   2.973   2.895
  773SOL     OW 2317   0.917   1.959   3.265
  773SOL    HW1 2318   0.940   1.939   3.174
  773SOL    HW2 2319   0.995   2.002   3.300
  774SOL     OW 2320   0.983   2.975   3.582
  774SOL    HW1 2321   0.889   2.987   3.594
  774SOL    HW2 2322   0.991   2.898   3.525
  775SOL     OW 2323   0.707   2.919   2.234
  775SOL    HW1 2324   0.694   2.911   2.328
  775SOL    HW2 2325   0.784   2.866   2.215
  776SOL     OW 2326   0.414   2.675   3.113
  776SOL    HW1 2327   0.487   2.684   3.174
  776SOL    HW2 2328   0.378   2.588   3.132
  777SOL     OW 2329   1.272   2.243   3.129
  777SOL    HW1 2330   1.298   2.320   3.180
  777SOL    HW2 2331   1.185   2.266   3.095
  778SOL     OW 2332   0.061   3.437   3.202
  778SOL    HW1 2333   0.044   3.517   3.151
  778SOL    HW2 2334   0.156   3.437   3.214
  779SOL     OW 2335   0.381   2.963   2.356
  779SOL    HW1 2336   0.364   3.039   2.300
  779SOL    HW2 2337   0.371   2.888   2.298
  780SOL     OW 2338   0.560   2.400   2.726
  780SOL    HW1 2339   0.578   2.459   2.653
  780SOL    HW2 2340   0.615   2.434   2.797
  781SOL     OW 2341   1.248   3.209   2.251
  781SOL    HW1 2342   1.300   3.283   2.285
  781SOL    HW2 2343   1.160   3.224   2.285
  782SOL     OW 2344   1.271   3.313   3.006
  782SOL    HW1 2345   1.323   3.317   3.086
  782SOL    HW2 2346   1.216   3.236   3.017
  783SOL     OW 2347   1.583   2.495   2.336
  783SOL    HW1 2348   1.547   2.556   2.400
  783SOL    HW2 2349   1.629   2.550   2.273
  784SOL     OW 2350   0.350   3.380   3.185
  784SOL    HW1 2351   0.338   3.332   3.104
  784SOL    HW2 2352   0.445   3.397   3.189
  785SOL     OW 2353   0.407   2.608   3.462
  785SOL    HW1 2354   0.468   2.656   3.406
  785SOL    HW2 2355   0.450   2.525   3.479
  786SOL     OW 2356   1.589   2.636   3.535
  786SOL    HW1 2357   1.503   2.677   3.528
  786SOL    HW2 2358   1.643   2.681   3.470
  787SOL     OW 2359   1.002   1.970   3.626
  787SOL    HW1 2360   1.034   2.048   3.581
  787SOL    HW2 2361   1.050   1.898   3.586
  788SOL     OW 2362   0.502   1.912   3.603
  788SOL    HW1 2363   0.462   1.855   3.538
  788SOL    HW2 2364   0.435   1.977   3.622
  789SOL     OW 2365   0.580   2.732   2.893
  789SOL    HW1 2366   0.612   2.822   2.886
  789SOL    HW2 2367   0.520   2.734   2.968
  790SOL     OW 2368   1.363   2.723   2.902
  790SOL    HW1 2369   1.286   2.719   2.845
  790SOL    HW2 2370   1.394   2.632   2.906
  791SOL     OW 2371   1.211   2.391   2.135
  791SOL    HW1 2372   1.217   2.311   2.188
  791SOL    HW2 2373   1.173   2.456   2.194
  792SOL     OW 2374   0.314   2.069   3.105
  792SOL    HW1 2375   0.274   2.104   3.185
  792SOL    HW2 2376   0.282   1.979   3.100
  793SOL     OW 2377   0.050   3.163   3.141
  793SOL    HW1 2378   0.088   3.128   3.222
  793SOL    HW2 2379   0.051   3.258   3.154
  794SOL     OW 2380   0.731   2.497   2.926
  794SOL    HW1 2381   0.795   2.474   2.859
  794SOL    HW2 2382   0.702   2.585   2.904
  795SOL     OW 2383   1.736   2.811   3.712
  795SOL    HW1 2384   1.682   2.780   3.639
  795SOL    HW2 2385   1.673   2.830   3.782
  796SOL     OW 2386   0.309   1.927   2.485
  796SOL    HW1 2387   0.291   2.018   2.511
  796SOL    HW2 2388   0.303   1.878   2.567
  797SOL     OW 2389   1.610   2.230   2.233
  797SOL    HW1 2390   1.635   2.166   2.300
  797SOL    HW2 2391   1.584   2.308   2.282
  798SOL     OW 2392   1.024   2.625   2.827
  798SOL    HW1 2393   1.032   2.642   2.921
  798SOL    HW2 2394   0.998   2.533   2.821
  799SOL     OW 2395   0.984   3.430   3.571
  799SOL    HW1 2396   0.965   3.474   3.488
  799SOL    HW2 2397   1.021   3.346   3.545
  800SOL     OW 2398   1.858   3.377   3.467
  800SOL    HW1 2399   1.875   3.402   3.377
  800SOL    HW2 2400   1.937   3.401   3.515
  801SOL     OW 2401   0.349   2.773   3.668
  801SOL    HW1 2402   0.431   2.798   3.711
  801SOL    HW2 2403   0.377   2.716   3.597
  802SOL     OW 2404   1.533   2.138   1.988
  802SOL    HW1 2405   1.475   2.068   2.016
  802SOL    HW2 2406   1.565   2.177   2.070
  803SOL     OW 2407   1.299   2.693   1.900
  803SOL    HW1 2408   1.339   2.606   1.905
  803SOL    HW2 2409   1.326   2.726   1.814
  804SOL     OW 2410   1.065   3.196   2.712
  804SOL    HW1 2411   1.070   3.121   2.653
  804SOL    HW2 2412   1.129   3.258   2.677
  805SOL     OW 2413   0.315   2.676   2.816
  805SOL    HW1 2414   0.408   2.695   2.809
  805SOL    HW2 2415   0.312   2.587   2.851
  806SOL     OW 2416   0.336   2.376   2.871
  806SOL    HW1 2417   0.296   2.291   2.852
  806SOL    HW2 2418   0.411   2.382   2.811
  807SOL     OW 2419   1.137   2.242   3.538
  807SOL    HW1 2420   1.094   2.299   3.602
  807SOL    HW2 2421   1.226   2.276   3.531
  808SOL     OW 2422   1.159   2.067   3.334
  808SOL    HW1 2423   1.154   2.129   3.407
  808SOL    HW2 2424   1.191   2.119   3.260
  809SOL     OW 2425   4.001   3.185   2.045
  809SOL    HW1 2426   3.907   3.201   2.047
  809SOL    HW2 2427   4.011   3.094   2.071
  810SOL     OW 2428   0.077   3.664   2.767
  810SOL    HW1 2429   0.070   3.569   2.770
  810SOL    HW2 2430   0.171   3.681   2.757
  811SOL     OW 2431   0.504   3.433   2.767
  811SOL    HW1 2432   0.572   3.496   2.789
  811SOL    HW2 2433   0.551   3.361   2.724
  812SOL     OW 2434   0.996   2.660   3.095
  812SOL    HW1 2435   1.041   2.630   3.174
  812SOL    HW2 2436   0.907   2.625   3.103
  813SOL     OW 2437   0.040   2.413   2.975
  813SOL    HW1 2438   0.119   2.378   2.934
  813SOL    HW2 2439   0.059   2.412   3.069
  814SOL     OW 2440   0.197   2.379   3.584
  814SOL    HW1 2441   0.251   2.342   3.514
  814SOL    HW2 2442   0.145   2.447   3.541
  815SOL     OW 2443   1.374   2.807   3.523
  815SOL    HW1 2444   1.398   2.899   3.530
  815SOL    HW2 2445   1.375   2.789   3.428
  816SOL     OW 2446   0.815   2.431   2.204
  816SOL    HW1 2447   0.817   2.352   2.150
  816SOL    HW2 2448   0.734   2.475   2.180
  817SOL     OW 2449   1.645   2.463   3.057
  817SOL    HW1 2450   1.628   2.401   3.128
  817SOL    HW2 2451   1.731   2.438   3.023
  818SOL     OW 2452   0.282   3.416   3.609
  818SOL    HW1 2453   0.228   3.481   3.654
  818SOL    HW2 2454   0.244   3.332   3.634
  819SOL     OW 2455   0.683   2.321   3.130
  819SOL    HW1 2456   0.640   2.243   3.096
  819SOL    HW2 2457   0.691   2.379   3.053
  820SOL     OW 2458   0.935   3.537   3.326
  820SOL    HW1 2459   0.905   3.517   3.238
  820SOL    HW2 2460   0.942   3.633   3.328
  821SOL     OW 2461   0.470   2.358   2.049
  821SOL    HW1 2462   0.529   2.431   2.066
  821SOL    HW2 2463   0.383   2.397   2.050
  822SOL     OW 2464   0.157   3.000   3.329
  822SOL    HW1 2465   0.173   2.943   3.405
  822SOL    HW2 2466   0.175   2.944   3.254
  823SOL     OW 2467   1.338   2.914   3.092
  823SOL    HW1 2468   1.362   2.855   3.021
  823SOL    HW2 2469   1.259   2.958   3.060
  824SOL     OW 2470   1.305   2.716   2.172
  824SOL    HW1 2471   1.223   2.688   2.213
  824SOL    HW2 2472   1.289   2.705   2.078
  825SOL     OW 2473   1.759   3.612   3.009
  825SOL    HW1 2474   1.823   3.635   2.941
  825SOL    HW2 2475   1.737   3.521   2.991
  826SOL     OW 2476   1.246   3.594   2.986
  826SOL    HW1 2477   1.327   3.604   2.936
  826SOL    HW2 2478   1.239   3.500   3.002
  827SOL     OW 2479   0.078   3.082   2.887
  827SOL    HW1 2480   0.079   3.111   2.978
  827SOL    HW2 2481  -0.015   3.080   2.863
  828SOL     OW 2482   0.683   3.524   3.581
  828SOL    HW1 2483   0.630   3.604   3.583
  828SOL    HW2 2484   0.736   3.533   3.502
  829SOL     OW 2485   1.720   1.999   2.380
  829SOL    HW1 2486   1.793   1.985   2.321
  829SOL    HW2 2487   1.702   1.913   2.418
  830SOL     OW 2488   1.389   3.431   2.341
  830SOL    HW1 2489   1.450   3.457   2.272
  830SOL    HW2 2490   1.347   3.513   2.367
  831SOL     OW 2491   0.154   3.640   3.694
  831SOL    HW1 2492   0.094   3.589   3.748
  831SOL    HW2 2493   0.199   3.698   3.757
  832SOL     OW 2494   1.277   2.785   2.533
  832SOL    HW1 2495   1.348   2.720   2.535
  832SOL    HW2 2496   1.312   2.857   2.481
  833SOL     OW 2497   0.825   3.132   3.293
  833SOL    HW1 2498   0.806   3.171   3.378
  833SOL    HW2 2499   0.748   3.155   3.240
  834SOL     OW 2500   0.674   3.473   2.018
  834SOL    HW1 2501   0.679   3.486   1.923
  834SOL    HW2 2502   0.625   3.392   2.029
  835SOL     OW 2503   1.646   3.586   3.256
  835SOL    HW1 2504   1.689   3.598   3.172
  835SOL    HW2 2505   1.626   3.676   3.285
  836SOL     OW 2506   1.840   2.035   2.829
  836SOL    HW1 2507   1.870   1.951   2.795
  836SOL    HW2 2508   1.752   2.046   2.793
  837SOL     OW 2509   0.270   2.182   2.583
  837SOL    HW1 2510   0.188   2.223   2.553
  837SOL    HW2 2511   0.257   2.171   2.678
  838SOL     OW 2512   1.199   3.473   1.895
  838SOL    HW1 2513   1.197   3.381   1.922
  838SOL    HW2 2514   1.139   3.478   1.821
  839SOL     OW 2515   0.825   2.867   3.234
  839SOL    HW1 2516   0.864   2.866   3.147
  839SOL    HW2 2517   0.828   2.958   3.261
  840SOL     OW 2518   0.916   2.772   2.151
  840SOL    HW1 2519   0.978   2.804   2.086
  840SOL    HW2 2520   0.959   2.697   2.192
  841SOL     OW 2521   1.503   3.485   1.905
  841SOL    HW1 2522   1.407   3.490   1.899
  841SOL    HW2 2523   1.532   3.490   1.814
  842SOL     OW 2524   0.372   3.158   3.353
  842SOL    HW1 2525   0.357   3.241   3.308
  842SOL    HW2 2526   0.293   3.107   3.336
  843SOL     OW 2527   1.611   3.148   3.147
  843SOL    HW1 2528   1.671   3.149   3.222
  843SOL    HW2 2529   1.549   3.218   3.164
  844SOL     OW 2530   1.042   2.963   2.564
  844SOL    HW1 2531   0.973   2.912   2.606
  844SOL    HW2 2532   1.100   2.898   2.524
  845SOL     OW 2533   1.018   2.101   2.828
  845SOL    HW1 2534   1.009   2.055   2.745
  845SOL    HW2 2535   1.012   2.032   2.894
  846SOL     OW 2536   0.598   3.352   2.348
  846SOL    HW1 2537   0.632   3.297   2.278
  846SOL    HW2 2538   0.542   3.416   2.304
  847SOL     OW 2539   1.715   2.250   3.243
  847SOL    HW1 2540   1.785   2.315   3.240
  847SOL    HW2 2541   1.745   2.180   3.185
  848SOL     OW 2542   0.253   3.208   2.149
  848SOL    HW1 2543   0.160   3.218   2.128
  848SOL    HW2 2544   0.262   3.250   2.235
  849SOL     OW 2545   0.103   2.863   3.582
  849SOL    HW1 2546   0.037   2.850   3.651
  849SOL    HW2 2547   0.186   2.844   3.625
  850SOL     OW 2548   0.670   2.060   3.356
  850SOL    HW1 2549   0.755   2.045   3.315
  850SOL    HW2 2550   0.691   2.078   3.448
  851SOL     OW 2551   0.079   2.192   1.894
  851SOL    HW1 2552  -0.016   2.185   1.885
  851SOL    HW2 2553   0.101   2.273   1.847
  852SOL     OW 2554   1.436   2.720   3.264
  852SOL    HW1 2555   1.387   2.775   3.203
  852SOL    HW2 2556   1.527   2.727   3.235
  853SOL     OW 2557   0.038   2.064   2.219
  853SOL    HW1 2558   0.049   2.131   2.152
  853SOL    HW2 2559   0.124   2.021   2.224
  854SOL     OW 2560   1.182   3.206   1.979
  854SOL    HW1 2561   1.090   3.179   1.984
  854SOL    HW2 2562   1.212   3.204   2.070
  855SOL     OW 2563   0.615   2.698   3.293
  855SOL    HW1 2564   0.670   2.775   3.279
  855SOL    HW2 2565   0.676   2.625   3.299
  856SOL     OW 2566   1.488   3.634   2.829
  856SOL    HW1 2567   1.522   3.688   2.758
  856SOL    HW2 2568   1.563   3.623   2.888
  857SOL     OW 2569   0.716   2.427   3.570
  857SOL    HW1 2570   0.742   2.489   3.638
  857SOL    HW2 2571   0.766   2.348   3.589
  858SOL     OW 2572   1.460   3.073   3.495
  858SOL    HW1 2573   1.451   3.078   3.590
  858SOL    HW2 2574   1.555   3.078   3.479
  859SOL     OW 2575   0.384   3.602   3.422
  859SOL    HW1 2576   0.296   3.639   3.416
  859SOL    HW2 2577   0.372   3.517   3.464
  860SOL     OW 2578   1.675   2.745   3.118
  860SOL    HW1 2579   1.659   2.660   3.076
  860SOL    HW2 2580   1.669   2.808   3.046
  861SOL     OW 2581   1.223   2.184   2.316
  861SOL    HW1 2582   1.287   2.113   2.307
  861SOL    HW2 2583   1.249   2.230   2.396
  862SOL     OW 2584   0.593   2.607   2.523
  862SOL    HW1 2585   0.635   2.690   2.502
  862SOL    HW2 2586   0.517   2.603   2.464
  863SOL     OW 2587   1.771   2.216   3.508
  863SOL    HW1 2588   1.753   2.230   3.415
  863SOL    HW2 2589   1.698   2.163   3.539
  864SOL     OW 2590   1.737   2.795   3.377
  864SOL    HW1 2591   1.757   2.888   3.388
  864SOL    HW2 2592   1.725   2.785   3.282
  865SOL     OW 2593   0.864   3.233   1.886
  865SOL    HW1 2594   0.819   3.256   1.967
  865SOL    HW2 2595   0.888   3.317   1.847
  866SOL     OW 2596   0.657   3.655   2.813
  866SOL    HW1 2597   0.628   3.745   2.793
  866SOL    HW2 2598   0.752   3.658   2.805
  867SOL     OW 2599   0.862   2.822   2.720
  867SOL    HW1 2600   0.914   2.755   2.765
  867SOL    HW2 2601   0.833   2.881   2.791
  868SOL     OW 2602   1.080   2.848   1.950
  868SOL    HW1 2603   1.061   2.898   1.871
  868SOL    HW2 2604   1.158   2.797   1.927
  869SOL     OW 2605   1.861   3.423   2.709
  869SOL    HW1 2606   1.786   3.412   2.650
  869SOL    HW2 2607   1.853   3.353   2.772
  870SOL     OW 2608   0.225   3.165   3.714
  870SOL    HW1 2609   0.152   3.108   3.691
  870SOL    HW2 2610   0.210   3.187   3.806
  871SOL     OW 2611   0.104   3.127   2.566
  871SOL    HW1 2612   0.088   3.059   2.632
  871SOL    HW2 2613   0.136   3.078   2.490
  872SOL     OW 2614   0.676   3.257   3.484
  872SOL    HW1 2615   0.597   3.214   3.516
  872SOL    HW2 2616   0.671   3.346   3.520
  873SOL     OW 2617   1.816   2.051   3.097
  873SOL    HW1 2618   1.824   1.959   3.122
  873SOL    HW2 2619   1.826   2.052   3.002
  874SOL     OW 2620   0.439   2.292   2.389
  874SOL    HW1 2621   0.448   2.222   2.325
  874SOL    HW2 2622   0.387   2.254   2.460
  875SOL     OW 2623   1.702   3.355   2.968
  875SOL    HW1 2624   1.620   3.324   2.931
  875SOL    HW2 2625   1.724   3.292   3.036
  876SOL     OW 2626   0.323   2.410   3.150
  876SOL    HW1 2627   0.374   2.352   3.207
  876SOL    HW2 2628   0.349   2.386   3.061
  877SOL     OW 2629   0.820   3.440   2.547
  877SOL    HW1 2630   0.830   3.469   2.456
  877SOL    HW2 2631   0.739   3.390   2.547
  878SOL     OW 2632   1.430   2.081   2.979
  878SOL    HW1 2633   1.468   2.011   3.031
  878SOL    HW2 2634   1.378   2.132   3.041
  879SOL     OW 2635   1.005   1.889   3.013
  879SOL    HW1 2636   0.949   1.818   2.979
  879SOL    HW2 2637   1.093   1.852   3.012
  880SOL     OW 2638   0.770   3.194   2.167
  880SOL    HW1 2639   0.732   3.106   2.177
  880SOL    HW2 2640   0.855   3.187   2.211
  881SOL     OW 2641   0.619   3.426   3.144
  881SOL    HW1 2642   0.621   3.505   3.198
  881SOL    HW2 2643   0.706   3.421   3.105
  882SOL     OW 2644   1.353   1.914   2.027
  882SOL    HW1 2645   1.377   1.866   1.948
  882SOL    HW2 2646   1.267   1.880   2.050
  883SOL     OW 2647   1.300   2.319   2.549
  883SOL    HW1 2648   1.243   2.396   2.558
  883SOL    HW2 2649   1.302   2.281   2.637
  884SOL     OW 2650   1.590   2.075   2.741
  884SOL    HW1 2651   1.515   2.086   2.800
  884SOL    HW2 2652   1.590   2.154   2.687
  885SOL     OW 2653   0.036   2.922   2.114
  885SOL    HW1 2654   0.131   2.914   2.117
  885SOL    HW2 2655   0.004   2.847   2.164
  886SOL     OW 2656   0.875   3.507   2.209
  886SOL    HW1 2657   0.806   3.488   2.146
  886SOL    HW2 2658   0.845   3.586   2.254
  887SOL     OW 2659   0.221   2.480   3.848
  887SOL    HW1 2660   0.127   2.497   3.853
  887SOL    HW2 2661   0.236   2.454   3.757
  888SOL     OW 2662   1.757   2.465   3.958
  888SOL    HW1 2663   1.743   2.465   3.863
  888SOL    HW2 2664   1.725   2.380   3.987
  889SOL     OW 2665   0.230   3.605   0.205
  889SOL    HW1 2666   0.302   3.646   0.254
  889SOL    HW2 2667   0.273   3.568   0.128
  890SOL     OW 2668   0.592   2.838   3.845
  890SOL    HW1 2669   0.628   2.903   3.785
  890SOL    HW2 2670   0.650   2.840   3.921
  891SOL     OW 2671   0.029   3.460   3.847
  891SOL    HW1 2672   0.022   3.366   3.864
  891SOL    HW2 2673   0.004   3.502   3.929
  892SOL     OW 2674   1.543   2.842   3.906
  892SOL    HW1 2675   1.470   2.785   3.927
  892SOL    HW2 2676   1.574   2.873   3.991
  893SOL     OW 2677   0.582   2.585   3.977
  893SOL    HW1 2678   0.613   2.658   3.922
  893SOL    HW2 2679   0.530   2.627   4.045
  894SOL     OW 2680   0.865   2.209   3.906
  894SOL    HW1 2681   0.930   2.268   3.868
  894SOL    HW2 2682   0.898   2.121   3.886
  895SOL     OW 2683   1.004   3.336   0.198
  895SOL    HW1 2684   0.942   3.407   0.179
  895SOL    HW2 2685   1.005   3.330   0.294
  896SOL     OW 2686   0.319   2.806   3.962
  896SOL    HW1 2687   0.401   2.836   3.924
  896SOL    HW2 2688   0.297   2.727   3.912
  897SOL     OW 2689   1.088   3.673   3.929
  897SOL    HW1 2690   1.052   3.616   3.998
  897SOL    HW2 2691   1.120   3.612   3.862
  898SOL     OW 2692   1.632   3.238   3.798
  898SOL    HW1 2693   1.593   3.325   3.791
  898SOL    HW2 2694   1.558   3.178   3.789
  899SOL     OW 2695   0.460   3.602   0.037
  899SOL    HW1 2696   0.494   3.652   0.111
  899SOL    HW2 2697   0.535   3.593  -0.022
  900SOL     OW 2698   0.615   1.980   3.841
  900SOL    HW1 2699   0.708   1.956   3.840
  900SOL    HW2 2700   0.583   1.956   3.754
  901SOL     OW 2701   1.427   3.051   3.758
  901SOL    HW1 2702   1.466   2.985   3.815
  901SOL    HW2 2703   1.346   3.076   3.802
  902SOL     OW 2704   0.301   1.905   3.888
  902SOL    HW1 2705   0.368   1.966   3.858
  902SOL    HW2 2706   0.349   1.839   3.938
  903SOL     OW 2707   1.037   2.415   3.726
  903SOL    HW1 2708   0.989   2.496   3.709
  903SOL    HW2 2709   1.079   2.428   3.811
  904SOL     OW 2710   1.844   2.690   0.099
  904SOL    HW1 2711   1.907   2.636   0.147
  904SOL    HW2 2712   1.820   2.637   0.022
  905SOL     OW 2713   0.489   3.259   3.891
  905SOL    HW1 2714   0.405   3.233   3.930
  905SOL    HW2 2715   0.471   3.270   3.798
  906SOL     OW 2716   1.388   2.431   3.794
  906SOL    HW1 2717   1.346   2.417   3.879
  906SOL    HW2 2718   1.478   2.401   3.806
  907SOL     OW 2719   1.562   2.530   0.182
  907SOL    HW1 2720   1.541   2.570   0.266
  907SOL    HW2 2721   1.625   2.590   0.142
  908SOL     OW 2722   1.535   2.137   3.852
  908SOL    HW1 2723   1.477   2.063   3.871
  908SOL    HW2 2724   1.553   2.176   3.938
  909SOL     OW 2725   1.305   2.696   3.766
  909SOL    HW1 2726   1.335   2.605   3.766
  909SOL    HW2 2727   1.326   2.729   3.679
  910SOL     OW 2728   4.004   3.182   3.900
  910SOL    HW1 2729   3.910   3.200   3.901
  910SOL    HW2 2730   4.012   3.094   3.937
  911SOL     OW 2731   0.806   2.437   0.044
  911SOL    HW1 2732   0.800   2.351   0.003
  911SOL    HW2 2733   0.717   2.474   0.035
  912SOL     OW 2734   0.471   2.359   3.887
  912SOL    HW1 2735   0.530   2.426   3.921
  912SOL    HW2 2736   0.383   2.392   3.909
  913SOL     OW 2737   1.697   1.969   0.218
  913SOL    HW1 2738   1.788   1.979   0.189
  913SOL    HW2 2739   1.700   1.899   0.283
  914SOL     OW 2740   0.674   3.472   3.879
  914SOL    HW1 2741   0.679   3.489   3.785
  914SOL    HW2 2742   0.624   3.391   3.887
  915SOL     OW 2743   1.190   3.473   3.764
  915SOL    HW1 2744   1.200   3.379   3.775
  915SOL    HW2 2745   1.139   3.483   3.684
  916SOL     OW 2746   1.500   3.484   3.767
  916SOL    HW1 2747   1.405   3.494   3.755
  916SOL    HW2 2748   1.536   3.489   3.678
  917SOL     OW 2749   0.251   3.219   0.007
  917SOL    HW1 2750   0.158   3.216  -0.012
  917SOL    HW2 2751   0.257   3.252   0.097
  918SOL     OW 2752   0.081   2.201   3.757
  918SOL    HW1 2753  -0.012   2.182   3.743
  918SOL    HW2 2754   0.100   2.274   3.699
  919SOL     OW 2755   1.178   3.211   3.842
  919SOL    HW1 2756   1.090   3.174   3.841
  919SOL    HW2 2757   1.210   3.195   3.931
  920SOL     OW 2758   0.859   3.232   3.734
  920SOL    HW1 2759   0.827   3.247   3.823
  920SOL    HW2 2760   0.885   3.319   3.703
  921SOL     OW 2761   1.083   2.856   3.812
  921SOL    HW1 2762   1.060   2.897   3.729
  921SOL    HW2 2763   1.155   2.796   3.790
  922SOL     OW 2764   1.357   1.905   3.892
  922SOL    HW1 2765   1.377   1.867   3.806
  922SOL    HW2 2766   1.263   1.891   3.903
  923SOL     OW 2767   0.044   2.922  -0.010
  923SOL    HW1 2768   0.139   2.925   0.001
  923SOL    HW2 2769   0.014   2.862   0.058
  924SOL     OW 2770   0.234   3.980   0.983
  924SOL    HW1 2771   0.253   3.973   1.077
  924SOL    HW2 2772   0.139   3.971   0.978
  925SOL     OW 2773   4.020   0.089   0.646
  925SOL    HW1 2774   3.937   0.109   0.689
  925SOL    HW2 2775   3.995   0.036   0.570
  926SOL     OW 2776   0.436   0.112   1.505
  926SOL    HW1 2777   0.513   0.061   1.480
  926SOL    HW2 2778   0.362   0.053   1.491
  927SOL     OW 2779   1.594   3.837   1.473
  927SOL    HW1 2780   1.584   3.913   1.416
  927SOL    HW2 2781   1.591   3.874   1.562
  928SOL     OW 2782   0.808   3.728   0.500
  928SOL    HW1 2783   0.839   3.818   0.492
  928SOL    HW2 2784   0.713   3.736   0.513
  929SOL     OW 2785   1.274   0.066   0.941
  929SOL    HW1 2786   1.200   0.010   0.918
  929SOL    HW2 2787   1.331   0.011   0.994
  930SOL     OW 2788   0.551   3.912   0.886
  930SOL    HW1 2789   0.546   3.926   0.981
  930SOL    HW2 2790   0.550   4.000   0.849
  931SOL     OW 2791   0.200   3.996   1.499
  931SOL    HW1 2792   0.121   4.049   1.486
  931SOL    HW2 2793   0.182   3.944   1.577
  932SOL     OW 2794   1.402   3.831   0.426
  932SOL    HW1 2795   1.390   3.800   0.336
  932SOL    HW2 2796   1.497   3.843   0.435
  933SOL     OW 2797   1.535   3.951   1.726
  933SOL    HW1 2798   1.557   3.960   1.818
  933SOL    HW2 2799   1.477   3.875   1.722
  934SOL     OW 2800   0.613   3.814   0.121
  934SOL    HW1 2801   0.707   3.831   0.133
  934SOL    HW2 2802   0.596   3.838   0.030
  935SOL     OW 2803   0.775   3.970   1.744
  935SOL    HW1 2804   0.841   3.931   1.801
  935SOL    HW2 2805   0.702   3.991   1.802
  936SOL     OW 2806   0.530   3.787   0.506
  936SOL    HW1 2807   0.469   3.799   0.579
  936SOL    HW2 2808   0.548   3.876   0.475
  937SOL     OW 2809   0.567   3.944   1.157
  937SOL    HW1 2810   0.597   3.863   1.197
  937SOL    HW2 2811   0.476   3.953   1.186
  938SOL     OW 2812   1.016   3.769   0.754
  938SOL    HW1 2813   0.951   3.762   0.684
  938SOL    HW2 2814   0.994   3.697   0.814
  939SOL     OW 2815   0.919   3.807   1.406
  939SOL    HW1 2816   0.943   3.794   1.314
  939SOL    HW2 2817   0.988   3.864   1.440
  940SOL     OW 2818   1.264   0.090   1.263
  940SOL    HW1 2819   1.293   0.160   1.321
  940SOL    HW2 2820   1.189   0.127   1.216
  941SOL     OW 2821   0.504   3.762   1.743
  941SOL    HW1 2822   0.459   3.712   1.675
  941SOL    HW2 2823   0.443   3.833   1.765
  942SOL     OW 2824   0.308   3.931   1.246
  942SOL    HW1 2825   0.276   3.956   1.333
  942SOL    HW2 2826   0.282   3.840   1.236
  943SOL     OW 2827   1.519   3.994   0.104
  943SOL    HW1 2828   1.509   3.907   0.143
  943SOL    HW2 2829   1.591   4.034   0.153
  944SOL     OW 2830   1.162   3.929   1.475
  944SOL    HW1 2831   1.164   3.996   1.544
  944SOL    HW2 2832   1.195   3.974   1.397
  945SOL     OW 2833   0.901   3.800   0.126
  945SOL    HW1 2834   0.959   3.800   0.050
  945SOL    HW2 2835   0.955   3.769   0.198
  946SOL     OW 2836   1.723   3.860   0.529
  946SOL    HW1 2837   1.794   3.845   0.465
  946SOL    HW2 2838   1.703   3.772   0.562
  947SOL     OW 2839   1.836   3.892   0.969
  947SOL    HW1 2840   1.873   3.813   0.931
  947SOL    HW2 2841   1.750   3.901   0.928
  948SOL     OW 2842   0.668   3.915   1.497
  948SOL    HW1 2843   0.751   3.912   1.450
  948SOL    HW2 2844   0.692   3.936   1.587
  949SOL     OW 2845   0.063   0.053   0.033
  949SOL    HW1 2846  -0.021   0.035  -0.008
  949SOL    HW2 2847   0.106   0.116  -0.025
  950SOL     OW 2848   0.093   3.905   0.347
  950SOL    HW1 2849   0.071   3.984   0.298
  950SOL    HW2 2850   0.174   3.874   0.307
  951SOL     OW 2851   1.188   0.019   0.467
  951SOL    HW1 2852   1.265  -0.035   0.451
  951SOL    HW2 2853   1.217   0.084   0.532
  952SOL     OW 2854   1.786   0.057   1.644
  952SOL    HW1 2855   1.762   0.086   1.556
  952SOL    HW2 2856   1.705   0.021   1.680
  953SOL     OW 2857   1.820   3.915   1.236
  953SOL    HW1 2858   1.823   3.824   1.265
  953SOL    HW2 2859   1.827   3.911   1.141
  954SOL     OW 2860   1.431   3.939   1.118
  954SOL    HW1 2861   1.471   3.869   1.169
  954SOL    HW2 2862   1.373   3.983   1.180
  955SOL     OW 2863   1.006   3.749   1.153
  955SOL    HW1 2864   0.948   3.684   1.114
  955SOL    HW2 2865   1.093   3.711   1.148
  956SOL     OW 2866   1.350   3.776   0.172
  956SOL    HW1 2867   1.378   3.743   0.086
  956SOL    HW2 2868   1.266   3.734   0.188
  957SOL     OW 2869   1.295   0.167   0.689
  957SOL    HW1 2870   1.254   0.253   0.695
  957SOL    HW2 2871   1.304   0.138   0.779
  958SOL     OW 2872   1.586   3.936   0.874
  958SOL    HW1 2873   1.517   3.942   0.940
  958SOL    HW2 2874   1.591   4.023   0.836
  959SOL     OW 2875   0.234   3.980   2.845
  959SOL    HW1 2876   0.254   3.974   2.938
  959SOL    HW2 2877   0.139   3.971   2.840
  960SOL     OW 2878   4.020   0.090   2.507
  960SOL    HW1 2879   3.938   0.110   2.551
  960SOL    HW2 2880   3.995   0.034   2.433
  961SOL     OW 2881   1.782   0.325   2.072
  961SOL    HW1 2882   1.726   0.315   1.995
  961SOL    HW2 2883   1.733   0.283   2.143
  962SOL     OW 2884   0.435   0.114   3.360
  962SOL    HW1 2885   0.513   0.061   3.345
  962SOL    HW2 2886   0.362   0.052   3.354
  963SOL     OW 2887   1.594   3.837   3.335
  963SOL    HW1 2888   1.584   3.913   3.278
  963SOL    HW2 2889   1.590   3.873   3.424
  964SOL     OW 2890   0.808   3.727   2.361
  964SOL    HW1 2891   0.840   3.817   2.354
  964SOL    HW2 2892   0.714   3.736   2.374
  965SOL     OW 2893   1.275   0.066   2.802
  965SOL    HW1 2894   1.200   0.010   2.780
  965SOL    HW2 2895   1.330   0.011   2.857
  966SOL     OW 2896   0.551   3.912   2.748
  966SOL    HW1 2897   0.546   3.925   2.843
  966SOL    HW2 2898   0.550   4.001   2.712
  967SOL     OW 2899   0.200   3.996   3.361
  967SOL    HW1 2900   0.121   4.048   3.349
  967SOL    HW2 2901   0.183   3.944   3.439
  968SOL     OW 2902   1.401   3.834   2.285
  968SOL    HW1 2903   1.389   3.798   2.197
  968SOL    HW2 2904   1.496   3.837   2.297
  969SOL     OW 2905   1.535   3.950   3.584
  969SOL    HW1 2906   1.557   3.963   3.676
  969SOL    HW2 2907   1.477   3.874   3.583
  970SOL     OW 2908   0.616   3.846   1.979
  970SOL    HW1 2909   0.707   3.819   1.990
  970SOL    HW2 2910   0.591   3.814   1.893
  971SOL     OW 2911   0.775   3.968   3.603
  971SOL    HW1 2912   0.844   3.931   3.658
  971SOL    HW2 2913   0.702   3.985   3.663
  972SOL     OW 2914   0.528   3.785   2.366
  972SOL    HW1 2915   0.469   3.796   2.440
  972SOL    HW2 2916   0.548   3.874   2.337
  973SOL     OW 2917   0.293   3.756   2.042
  973SOL    HW1 2918   0.342   3.831   2.008
  973SOL    HW2 2919   0.360   3.698   2.079
  974SOL     OW 2920   0.566   3.944   3.018
  974SOL    HW1 2921   0.597   3.863   3.059
  974SOL    HW2 2922   0.476   3.953   3.048
  975SOL     OW 2923   1.015   3.770   2.617
  975SOL    HW1 2924   0.952   3.761   2.545
  975SOL    HW2 2925   0.993   3.697   2.676
  976SOL     OW 2926   0.919   3.807   3.268
  976SOL    HW1 2927   0.943   3.794   3.176
  976SOL    HW2 2928   0.988   3.864   3.302
  977SOL     OW 2929   1.264   0.090   3.124
  977SOL    HW1 2930   1.293   0.159   3.183
  977SOL    HW2 2931   1.189   0.127   3.078
  978SOL     OW 2932   0.505   3.766   3.602
  978SOL    HW1 2933   0.458   3.713   3.538
  978SOL    HW2 2934   0.440   3.830   3.632
  979SOL     OW 2935   0.307   3.932   3.108
  979SOL    HW1 2936   0.277   3.956   3.195
  979SOL    HW2 2937   0.282   3.840   3.098
  980SOL     OW 2938   1.570   3.971   1.987
  980SOL    HW1 2939   1.504   3.911   2.023
  980SOL    HW2 2940   1.581   4.038   2.055
  981SOL     OW 2941   1.162   3.929   3.337
  981SOL    HW1 2942   1.165   3.995   3.406
  981SOL    HW2 2943   1.195   3.974   3.259
  982SOL     OW 2944   0.902   3.813   1.986
  982SOL    HW1 2945   0.961   3.799   1.912
  982SOL    HW2 2946   0.948   3.775   2.061
  983SOL     OW 2947   1.721   3.858   2.382
  983SOL    HW1 2948   1.793   3.844   2.321
  983SOL    HW2 2949   1.704   3.772   2.420
  984SOL     OW 2950   1.836   3.893   2.830
  984SOL    HW1 2951   1.872   3.812   2.793
  984SOL    HW2 2952   1.749   3.901   2.790
  985SOL     OW 2953   0.668   3.915   3.358
  985SOL    HW1 2954   0.752   3.912   3.312
  985SOL    HW2 2955   0.690   3.937   3.448
  986SOL     OW 2956   0.070   0.045   1.851
  986SOL    HW1 2957  -0.022   0.044   1.877
  986SOL    HW2 2958   0.098   0.135   1.864
  987SOL     OW 2959   0.097   3.908   2.217
  987SOL    HW1 2960   0.072   3.983   2.162
  987SOL    HW2 2961   0.171   3.868   2.171
  988SOL     OW 2962   1.187   0.020   2.331
  988SOL    HW1 2963   1.263  -0.036   2.313
  988SOL    HW2 2964   1.219   0.084   2.395
  989SOL     OW 2965   1.786   0.057   3.506
  989SOL    HW1 2966   1.761   0.085   3.418
  989SOL    HW2 2967   1.706   0.021   3.543
  990SOL     OW 2968   1.820   3.915   3.098
  990SOL    HW1 2969   1.822   3.824   3.127
  990SOL    HW2 2970   1.827   3.910   3.003
  991SOL     OW 2971   1.431   3.939   2.980
  991SOL    HW1 2972   1.471   3.868   3.031
  991SOL    HW2 2973   1.373   3.983   3.042
  992SOL     OW 2974   1.006   3.749   3.015
  992SOL    HW1 2975   0.948   3.684   2.976
  992SOL    HW2 2976   1.093   3.711   3.010
  993SOL     OW 2977   1.350   3.778   2.020
  993SOL    HW1 2978   1.379   3.721   1.949
  993SOL    HW2 2979   1.267   3.740   2.050
  994SOL     OW 2980   1.296   0.167   2.551
  994SOL    HW1 2981   1.254   0.253   2.557
  994SOL    HW2 2982   1.304   0.138   2.642
  995SOL     OW 2983   1.586   3.936   2.736
  995SOL    HW1 2984   1.517   3.941   2.802
  995SOL    HW2 2985   1.590   4.024   2.699
  996SOL     OW 2986   1.758   0.343   3.964
  996SOL    HW1 2987   1.739   0.317   3.874
  996SOL    HW2 2988   1.727   0.269   4.018
  997SOL     OW 2989   0.614   3.821   3.847
  997SOL    HW1 2990   0.709   3.813   3.840
  997SOL    HW2 2991   0.582   3.813   3.758
  998SOL     OW 2992   0.295   3.750   3.890
  998SOL    HW1 2993   0.335   3.835   3.873
  998SOL    HW2 2994   0.361   3.702   3.939
  999SOL     OW 2995   1.160   0.258   0.016
  999SOL    HW1 2996   1.223   0.193   0.047
  999SOL    HW2 2997   1.185   0.339   0.060
 1000SOL     OW 2998   1.570   3.974   3.838
 1000SOL    HW1 2999   1.515   3.905   3.874
 1000SOL    HW2 3000   1.593   4.028   3.914
 1001SOL     OW 3001   0.427   0.249   3.947
 1001SOL    HW1 3002   0.504   0.305   3.936
 1001SOL    HW2 3003   0.352   0.306   3.930
 1002SOL     OW 3004   1.705   3.841   0.240
 1002SOL    HW1 3005   1.779   3.840   0.178
 1002SOL    HW2 3006   1.708   3.754   0.281
 1003SOL     OW 3007   0.070   0.048   3.728
 1003SOL    HW1 3008  -0.025   0.047   3.734
 1003SOL    HW2 3009   0.092   0.140   3.715
 1004SOL     OW 3010   1.352   3.773   3.885
 1004SOL    HW1 3011   1.380   3.723   3.808
 1004SOL    HW2 3012   1.263   3.744   3.902
 1005SOL     OW 3013   2.089   0.632   0.122
 1005SOL    HW1 3014   2.005   0.601   0.156
 1005SOL    HW2 3015   2.090   0.604   0.030
 1006SOL     OW 3016   2.080   0.289   0.991
 1006SOL    HW1 3017   2.118   0.257   1.074
 1006SOL    HW2 3018   2.001   0.237   0.979
 1007SOL     OW 3019   1.873   0.385   0.641
 1007SOL    HW1 3020   1.787   0.402   0.680
 1007SOL    HW2 3021   1.859   0.309   0.584
 1008SOL     OW 3022   2.429   1.275   1.168
 1008SOL    HW1 3023   2.341   1.276   1.131
 1008SOL    HW2 3024   2.441   1.363   1.205
 1009SOL     OW 3025   3.416   1.511   0.702
 1009SOL    HW1 3026   3.367   1.498   0.784
 1009SOL    HW2 3027   3.348   1.520   0.635
 1010SOL     OW 3028   2.993   0.701   0.711
 1010SOL    HW1 3029   3.045   0.779   0.694
 1010SOL    HW2 3030   2.943   0.721   0.790
 1011SOL     OW 3031   3.676   0.577   0.233
 1011SOL    HW1 3032   3.629   0.588   0.150
 1011SOL    HW2 3033   3.617   0.526   0.288
 1012SOL     OW 3034   2.626   1.146   1.031
 1012SOL    HW1 3035   2.554   1.174   1.086
 1012SOL    HW2 3036   2.657   1.226   0.989
 1013SOL     OW 3037   2.717   0.791   1.821
 1013SOL    HW1 3038   2.709   0.864   1.883
 1013SOL    HW2 3039   2.739   0.833   1.738
 1014SOL     OW 3040   2.550   1.015   0.655
 1014SOL    HW1 3041   2.610   0.994   0.726
 1014SOL    HW2 3042   2.477   1.061   0.698
 1015SOL     OW 3043   2.561   1.155   1.804
 1015SOL    HW1 3044   2.610   1.236   1.823
 1015SOL    HW2 3045   2.477   1.186   1.772
 1016SOL     OW 3046   2.194   1.435   1.067
 1016SOL    HW1 3047   2.123   1.400   1.013
 1016SOL    HW2 3048   2.248   1.485   1.007
 1017SOL     OW 3049   3.324   1.500   1.343
 1017SOL    HW1 3050   3.352   1.589   1.361
 1017SOL    HW2 3051   3.291   1.468   1.428
 1018SOL     OW 3052   2.301   0.399   1.501
 1018SOL    HW1 3053   2.381   0.346   1.498
 1018SOL    HW2 3054   2.230   0.335   1.502
 1019SOL     OW 3055   3.473   0.450   0.737
 1019SOL    HW1 3056   3.399   0.486   0.689
 1019SOL    HW2 3057   3.507   0.524   0.788
 1020SOL     OW 3058   2.083   1.709   0.488
 1020SOL    HW1 3059   2.118   1.787   0.530
 1020SOL    HW2 3060   2.135   1.698   0.409
 1021SOL     OW 3061   2.995   1.340   1.689
 1021SOL    HW1 3062   3.034   1.338   1.776
 1021SOL    HW2 3063   2.942   1.261   1.685
 1022SOL     OW 3064   2.092   1.437   0.536
 1022SOL    HW1 3065   2.072   1.530   0.542
 1022SOL    HW2 3066   2.024   1.394   0.588
 1023SOL     OW 3067   2.109   1.090   0.888
 1023SOL    HW1 3068   2.111   1.007   0.935
 1023SOL    HW2 3069   2.052   1.146   0.940
 1024SOL     OW 3070   2.481   1.789   1.436
 1024SOL    HW1 3071   2.396   1.774   1.477
 1024SOL    HW2 3072   2.504   1.879   1.459
 1025SOL     OW 3073   2.472   0.975   0.130
 1025SOL    HW1 3074   2.469   1.061   0.088
 1025SOL    HW2 3075   2.512   0.991   0.216
 1026SOL     OW 3076   3.443   0.124   1.466
 1026SOL    HW1 3077   3.445   0.199   1.406
 1026SOL    HW2 3078   3.437   0.162   1.553
 1027SOL     OW 3079   1.978   0.647   0.560
 1027SOL    HW1 3080   1.948   0.558   0.580
 1027SOL    HW2 3081   1.971   0.694   0.644
 1028SOL     OW 3082   3.703   1.769   0.350
 1028SOL    HW1 3083   3.755   1.732   0.422
 1028SOL    HW2 3084   3.746   1.852   0.329
 1029SOL     OW 3085   1.848   1.595   0.114
 1029SOL    HW1 3086   1.867   1.505   0.142
 1029SOL    HW2 3087   1.878   1.649   0.187
 1030SOL     OW 3088   3.550   0.917   0.626
 1030SOL    HW1 3089   3.641   0.887   0.619
 1030SOL    HW2 3090   3.538   0.974   0.550
 1031SOL     OW 3091   3.506   1.108   0.432
 1031SOL    HW1 3092   3.587   1.120   0.384
 1031SOL    HW2 3093   3.513   1.167   0.507
 1032SOL     OW 3094   1.980   0.741   1.588
 1032SOL    HW1 3095   2.068   0.746   1.624
 1032SOL    HW2 3096   1.949   0.831   1.585
 1033SOL     OW 3097   2.474   1.374   0.732
 1033SOL    HW1 3098   2.428   1.291   0.739
 1033SOL    HW2 3099   2.455   1.405   0.644
 1034SOL     OW 3100   3.154   1.237   1.425
 1034SOL    HW1 3101   3.189   1.168   1.368
 1034SOL    HW2 3102   3.206   1.229   1.505
 1035SOL     OW 3103   2.672   0.000   0.507
 1035SOL    HW1 3104   2.714   0.085   0.495
 1035SOL    HW2 3105   2.579   0.020   0.511
 1036SOL     OW 3106   2.057   0.973   1.264
 1036SOL    HW1 3107   2.140   0.928   1.250
 1036SOL    HW2 3108   1.990   0.911   1.236
 1037SOL     OW 3109   3.393   0.989   0.194
 1037SOL    HW1 3110   3.320   0.933   0.221
 1037SOL    HW2 3111   3.430   1.022   0.275
 1038SOL     OW 3112   3.046   1.798   1.616
 1038SOL    HW1 3113   3.070   1.853   1.542
 1038SOL    HW2 3114   3.060   1.709   1.586
 1039SOL     OW 3115   2.191   0.252   1.797
 1039SOL    HW1 3116   2.248   0.328   1.810
 1039SOL    HW2 3117   2.106   0.280   1.831
 1040SOL     OW 3118   3.326   1.420   0.954
 1040SOL    HW1 3119   3.261   1.429   1.023
 1040SOL    HW2 3120   3.315   1.329   0.923
 1041SOL     OW 3121   3.525   1.723   0.576
 1041SOL    HW1 3122   3.495   1.696   0.489
 1041SOL    HW2 3123   3.503   1.650   0.633
 1042SOL     OW 3124   2.454   0.726   0.268
 1042SOL    HW1 3125   2.481   0.803   0.218
 1042SOL    HW2 3126   2.388   0.760   0.329
 1043SOL     OW 3127   3.141   0.353   0.939
 1043SOL    HW1 3128   3.057   0.308   0.938
 1043SOL    HW2 3129   3.198   0.296   0.991
 1044SOL     OW 3130   3.443   1.664   0.309
 1044SOL    HW1 3131   3.532   1.698   0.305
 1044SOL    HW2 3132   3.421   1.644   0.218
 1045SOL     OW 3133   2.662   0.611   1.457
 1045SOL    HW1 3134   2.628   0.595   1.545
 1045SOL    HW2 3135   2.614   0.550   1.402
 1046SOL     OW 3136   3.255   0.472   1.676
 1046SOL    HW1 3137   3.248   0.515   1.761
 1046SOL    HW2 3138   3.325   0.408   1.687
 1047SOL     OW 3139   2.826   0.891   1.578
 1047SOL    HW1 3140   2.878   0.817   1.546
 1047SOL    HW2 3141   2.779   0.922   1.501
 1048SOL     OW 3142   2.853   0.404   1.244
 1048SOL    HW1 3143   2.776   0.439   1.288
 1048SOL    HW2 3144   2.819   0.366   1.163
 1049SOL     OW 3145   2.908   0.700   0.429
 1049SOL    HW1 3146   2.922   0.693   0.523
 1049SOL    HW2 3147   2.827   0.652   0.413
 1050SOL     OW 3148   1.948   0.818   0.775
 1050SOL    HW1 3149   2.033   0.806   0.817
 1050SOL    HW2 3150   1.913   0.899   0.814
 1051SOL     OW 3151   1.992   1.825   1.573
 1051SOL    HW1 3152   1.983   1.811   1.668
 1051SOL    HW2 3153   1.905   1.853   1.545
 1052SOL     OW 3154   2.745   0.346   0.212
 1052SOL    HW1 3155   2.778   0.403   0.143
 1052SOL    HW2 3156   2.740   0.259   0.171
 1053SOL     OW 3157   3.578   0.579   1.828
 1053SOL    HW1 3158   3.548   0.663   1.794
 1053SOL    HW2 3159   3.586   0.523   1.751
 1054SOL     OW 3160   3.231   1.143   0.543
 1054SOL    HW1 3161   3.310   1.125   0.492
 1054SOL    HW2 3162   3.183   1.206   0.490
 1055SOL     OW 3163   2.413   0.196   0.884
 1055SOL    HW1 3164   2.413   0.204   0.979
 1055SOL    HW2 3165   2.414   0.286   0.852
 1056SOL     OW 3166   2.871   1.460   0.477
 1056SOL    HW1 3167   2.818   1.532   0.445
 1056SOL    HW2 3168   2.868   1.468   0.573
 1057SOL     OW 3169   2.214   1.803   0.852
 1057SOL    HW1 3170   2.262   1.720   0.863
 1057SOL    HW2 3171   2.282   1.870   0.860
 1058SOL     OW 3172   3.661   1.063   0.866
 1058SOL    HW1 3173   3.598   1.051   0.795
 1058SOL    HW2 3174   3.608   1.069   0.946
 1059SOL     OW 3175   3.090   1.545   1.509
 1059SOL    HW1 3176   3.083   1.470   1.568
 1059SOL    HW2 3177   3.034   1.522   1.435
 1060SOL     OW 3178   2.188   0.945   0.252
 1060SOL    HW1 3179   2.258   0.980   0.197
 1060SOL    HW2 3180   2.154   0.871   0.202
 1061SOL     OW 3181   3.331   0.733   0.727
 1061SOL    HW1 3182   3.318   0.683   0.807
 1061SOL    HW2 3183   3.405   0.791   0.746
 1062SOL     OW 3184   2.324   1.262   1.736
 1062SOL    HW1 3185   2.290   1.268   1.647
 1062SOL    HW2 3186   2.246   1.258   1.791
 1063SOL     OW 3187   2.967   1.777   0.226
 1063SOL    HW1 3188   2.919   1.724   0.289
 1063SOL    HW2 3189   3.015   1.714   0.172
 1064SOL     OW 3190   2.049   0.284   1.494
 1064SOL    HW1 3191   1.977   0.347   1.494
 1064SOL    HW2 3192   2.051   0.250   1.584
 1065SOL     OW 3193   3.491   1.376   0.100
 1065SOL    HW1 3194   3.459   1.463   0.075
 1065SOL    HW2 3195   3.423   1.316   0.069
 1066SOL     OW 3196   2.337   1.739   0.333
 1066SOL    HW1 3197   2.368   1.797   0.403
 1066SOL    HW2 3198   2.414   1.727   0.278
 1067SOL     OW 3199   3.295   0.149   0.407
 1067SOL    HW1 3200   3.263   0.087   0.341
 1067SOL    HW2 3201   3.386   0.122   0.423
 1068SOL     OW 3202   2.113   1.789   1.237
 1068SOL    HW1 3203   2.167   1.726   1.284
 1068SOL    HW2 3204   2.101   1.752   1.150
 1069SOL     OW 3205   2.802   1.698   0.903
 1069SOL    HW1 3206   2.877   1.642   0.921
 1069SOL    HW2 3207   2.753   1.652   0.835
 1070SOL     OW 3208   2.247   0.697   0.480
 1070SOL    HW1 3209   2.280   0.607   0.483
 1070SOL    HW2 3210   2.155   0.690   0.504
 1071SOL     OW 3211   3.401   0.235   1.725
 1071SOL    HW1 3212   3.403   0.255   1.819
 1071SOL    HW2 3213   3.347   0.157   1.717
 1072SOL     OW 3214   2.478   0.113   0.122
 1072SOL    HW1 3215   2.573   0.100   0.124
 1072SOL    HW2 3216   2.456   0.121   0.029
 1073SOL     OW 3217   2.645   0.278   1.756
 1073SOL    HW1 3218   2.700   0.204   1.782
 1073SOL    HW2 3219   2.575   0.280   1.821
 1074SOL     OW 3220   2.743   1.518   1.193
 1074SOL    HW1 3221   2.727   1.485   1.105
 1074SOL    HW2 3222   2.807   1.458   1.231
 1075SOL     OW 3223   3.208   0.588   1.432
 1075SOL    HW1 3224   3.237   0.556   1.517
 1075SOL    HW2 3225   3.240   0.678   1.428
 1076SOL     OW 3226   2.669   1.404   0.930
 1076SOL    HW1 3227   2.753   1.401   0.884
 1076SOL    HW2 3228   2.604   1.396   0.860
 1077SOL     OW 3229   2.788   0.507   0.902
 1077SOL    HW1 3230   2.763   0.497   0.811
 1077SOL    HW2 3231   2.825   0.423   0.927
 1078SOL     OW 3232   2.410   0.061   0.505
 1078SOL    HW1 3233   2.330   0.064   0.558
 1078SOL    HW2 3234   2.406   0.140   0.451
 1079SOL     OW 3235   3.291   1.199   0.048
 1079SOL    HW1 3236   3.321   1.126   0.102
 1079SOL    HW2 3237   3.203   1.219   0.081
 1080SOL     OW 3238   2.170   0.036   0.184
 1080SOL    HW1 3239   2.216   0.115   0.155
 1080SOL    HW2 3240   2.239  -0.020   0.219
 1081SOL     OW 3241   2.795   0.241   0.473
 1081SOL    HW1 3242   2.762   0.282   0.393
 1081SOL    HW2 3243   2.890   0.240   0.462
 1082SOL     OW 3244   2.941   0.679   1.462
 1082SOL    HW1 3245   2.867   0.618   1.467
 1082SOL    HW2 3246   3.017   0.622   1.447
 1083SOL     OW 3247   3.088   1.569   0.792
 1083SOL    HW1 3248   3.110   1.639   0.731
 1083SOL    HW2 3249   3.155   1.575   0.861
 1084SOL     OW 3250   2.325   1.146   0.742
 1084SOL    HW1 3251   2.252   1.128   0.800
 1084SOL    HW2 3252   2.292   1.127   0.654
 1085SOL     OW 3253   3.133   1.796   0.597
 1085SOL    HW1 3254   3.176   1.859   0.539
 1085SOL    HW2 3255   3.078   1.850   0.653
 1086SOL     OW 3256   2.936   0.575  -0.000
 1086SOL    HW1 3257   2.846   0.607   0.005
 1086SOL    HW2 3258   2.965   0.569   0.091
 1087SOL     OW 3259   1.936   0.556   1.390
 1087SOL    HW1 3260   2.026   0.554   1.357
 1087SOL    HW2 3261   1.935   0.627   1.453
 1088SOL     OW 3262   2.428   0.231   1.160
 1088SOL    HW1 3263   2.456   0.142   1.178
 1088SOL    HW2 3264   2.338   0.235   1.190
 1089SOL     OW 3265   2.735   0.459   0.640
 1089SOL    HW1 3266   2.689   0.515   0.577
 1089SOL    HW2 3267   2.749   0.377   0.592
 1090SOL     OW 3268   2.856   0.050   0.774
 1090SOL    HW1 3269   2.822   0.051   0.685
 1090SOL    HW2 3270   2.861  -0.044   0.796
 1091SOL     OW 3271   3.295   1.166   0.861
 1091SOL    HW1 3272   3.233   1.094   0.856
 1091SOL    HW2 3273   3.316   1.187   0.770
 1092SOL     OW 3274   3.332   0.596   0.988
 1092SOL    HW1 3275   3.293   0.509   0.995
 1092SOL    HW2 3276   3.397   0.600   1.058
 1093SOL     OW 3277   3.715   0.824   0.387
 1093SOL    HW1 3278   3.762   0.763   0.444
 1093SOL    HW2 3279   3.687   0.770   0.313
 1094SOL     OW 3280   2.361   1.403   0.179
 1094SOL    HW1 3281   2.279   1.374   0.220
 1094SOL    HW2 3282   2.342   1.401   0.085
 1095SOL     OW 3283   3.526   1.269   0.658
 1095SOL    HW1 3284   3.621   1.279   0.663
 1095SOL    HW2 3285   3.491   1.356   0.677
 1096SOL     OW 3286   3.225   0.546   0.058
 1096SOL    HW1 3287   3.173   0.540   0.139
 1096SOL    HW2 3288   3.315   0.552   0.089
 1097SOL     OW 3289   2.388   0.261   0.326
 1097SOL    HW1 3290   2.421   0.206   0.255
 1097SOL    HW2 3291   2.381   0.348   0.287
 1098SOL     OW 3292   3.616   1.228   1.585
 1098SOL    HW1 3293   3.704   1.196   1.567
 1098SOL    HW2 3294   3.628   1.319   1.613
 1099SOL     OW 3295   2.928   1.353   1.337
 1099SOL    HW1 3296   2.852   1.322   1.387
 1099SOL    HW2 3297   3.003   1.311   1.381
 1100SOL     OW 3298   3.460   1.627   1.643
 1100SOL    HW1 3299   3.469   1.658   1.553
 1100SOL    HW2 3300   3.544   1.584   1.662
 1101SOL     OW 3301   2.979   1.198   1.106
 1101SOL    HW1 3302   2.927   1.239   1.175
 1101SOL    HW2 3303   2.941   1.230   1.025
 1102SOL     OW 3304   3.499   1.103   1.078
 1102SOL    HW1 3305   3.495   1.168   1.148
 1102SOL    HW2 3306   3.414   1.111   1.033
 1103SOL     OW 3307   2.776   0.101   1.404
 1103SOL    HW1 3308   2.797   0.080   1.313
 1103SOL    HW2 3309   2.854   0.147   1.437
 1104SOL     OW 3310   2.845   1.114   1.720
 1104SOL    HW1 3311   2.751   1.124   1.734
 1104SOL    HW2 3312   2.852   1.036   1.664
 1105SOL     OW 3313   2.569   1.057   0.372
 1105SOL    HW1 3314   2.555   1.049   0.466
 1105SOL    HW2 3315   2.647   1.004   0.354
 1106SOL     OW 3316   2.276   0.813   1.251
 1106SOL    HW1 3317   2.348   0.822   1.312
 1106SOL    HW2 3318   2.239   0.726   1.270
 1107SOL     OW 3319   3.130   0.378   1.272
 1107SOL    HW1 3320   3.162   0.456   1.318
 1107SOL    HW2 3321   3.048   0.406   1.231
 1108SOL     OW 3322   1.928   1.569   1.341
 1108SOL    HW1 3323   1.890   1.645   1.296
 1108SOL    HW2 3324   2.022   1.585   1.340
 1109SOL     OW 3325   2.225   1.102   0.496
 1109SOL    HW1 3326   2.220   1.177   0.437
 1109SOL    HW2 3327   2.225   1.026   0.438
 1110SOL     OW 3328   2.424   0.538   0.863
 1110SOL    HW1 3329   2.441   0.598   0.791
 1110SOL    HW2 3330   2.477   0.572   0.935
 1111SOL     OW 3331   3.112   1.348   0.389
 1111SOL    HW1 3332   3.162   1.422   0.423
 1111SOL    HW2 3333   3.024   1.361   0.424
 1112SOL     OW 3334   3.133   1.451   1.144
 1112SOL    HW1 3335   3.185   1.455   1.224
 1112SOL    HW2 3336   3.078   1.374   1.155
 1113SOL     OW 3337   3.441   0.641   0.473
 1113SOL    HW1 3338   3.408   0.693   0.546
 1113SOL    HW2 3339   3.508   0.695   0.432
 1114SOL     OW 3340   2.213   1.517   1.324
 1114SOL    HW1 3341   2.198   1.475   1.239
 1114SOL    HW2 3342   2.307   1.533   1.326
 1115SOL     OW 3343   2.271   0.748   1.601
 1115SOL    HW1 3344   2.333   0.794   1.544
 1115SOL    HW2 3345   2.311   0.663   1.616
 1116SOL     OW 3346   3.451   0.773   1.671
 1116SOL    HW1 3347   3.366   0.816   1.666
 1116SOL    HW2 3348   3.506   0.819   1.608
 1117SOL     OW 3349   2.888   0.111   1.775
 1117SOL    HW1 3350   2.892   0.190   1.722
 1117SOL    HW2 3351   2.895   0.039   1.711
 1118SOL     OW 3352   2.350   0.044   1.763
 1118SOL    HW1 3353   2.341   0.014   1.673
 1118SOL    HW2 3354   2.294   0.121   1.768
 1119SOL     OW 3355   2.442   0.870   1.031
 1119SOL    HW1 3356   2.473   0.960   1.024
 1119SOL    HW2 3357   2.382   0.871   1.105
 1120SOL     OW 3358   3.225   0.861   1.039
 1120SOL    HW1 3359   3.147   0.857   0.983
 1120SOL    HW2 3360   3.256   0.771   1.044
 1121SOL     OW 3361   3.068   0.530   0.274
 1121SOL    HW1 3362   3.079   0.450   0.327
 1121SOL    HW2 3363   3.031   0.594   0.335
 1122SOL     OW 3364   2.167   0.217   1.238
 1122SOL    HW1 3365   2.141   0.242   1.327
 1122SOL    HW2 3366   2.146   0.124   1.232
 1123SOL     OW 3367   1.906   1.308   1.278
 1123SOL    HW1 3368   1.945   1.261   1.352
 1123SOL    HW2 3369   1.917   1.401   1.300
 1124SOL     OW 3370   2.594   0.636   1.064
 1124SOL    HW1 3371   2.656   0.613   0.995
 1124SOL    HW2 3372   2.563   0.723   1.041
 1125SOL     OW 3373   3.596   0.948   1.854
 1125SOL    HW1 3374   3.545   0.920   1.778
 1125SOL    HW2 3375   3.529   0.970   1.920
 1126SOL     OW 3376   2.179   0.061   0.631
 1126SOL    HW1 3377   2.151   0.151   0.650
 1126SOL    HW2 3378   2.148   0.010   0.706
 1127SOL     OW 3379   3.485   0.379   0.370
 1127SOL    HW1 3380   3.488   0.304   0.429
 1127SOL    HW2 3381   3.440   0.447   0.420
 1128SOL     OW 3382   2.887   0.763   0.965
 1128SOL    HW1 3383   2.894   0.780   1.059
 1128SOL    HW2 3384   2.859   0.672   0.959
 1129SOL     OW 3385   2.844   1.567   1.709
 1129SOL    HW1 3386   2.827   1.611   1.625
 1129SOL    HW2 3387   2.884   1.484   1.683
 1130SOL     OW 3388   3.716   1.516   1.604
 1130SOL    HW1 3389   3.735   1.538   1.513
 1130SOL    HW2 3390   3.797   1.536   1.651
 1131SOL     OW 3391   2.213   0.914   1.805
 1131SOL    HW1 3392   2.295   0.934   1.850
 1131SOL    HW2 3393   2.237   0.854   1.735
 1132SOL     OW 3394   3.384   0.296   0.121
 1132SOL    HW1 3395   3.334   0.217   0.144
 1132SOL    HW2 3396   3.425   0.324   0.203
 1133SOL     OW 3397   3.174   0.833   0.037
 1133SOL    HW1 3398   3.196   0.741   0.047
 1133SOL    HW2 3399   3.163   0.845  -0.057
 1134SOL     OW 3400   2.927   1.335   0.849
 1134SOL    HW1 3401   2.933   1.259   0.792
 1134SOL    HW2 3402   2.992   1.396   0.816
 1135SOL     OW 3403   2.176   0.813   0.952
 1135SOL    HW1 3404   2.269   0.834   0.947
 1135SOL    HW2 3405   2.173   0.725   0.989
 1136SOL     OW 3406   2.200   0.520   1.008
 1136SOL    HW1 3407   2.158   0.436   0.993
 1136SOL    HW2 3408   2.274   0.521   0.947
 1137SOL     OW 3409   2.998   0.384   1.680
 1137SOL    HW1 3410   2.955   0.439   1.745
 1137SOL    HW2 3411   3.087   0.419   1.674
 1138SOL     OW 3412   3.017   0.216   1.482
 1138SOL    HW1 3413   3.010   0.274   1.558
 1138SOL    HW2 3414   3.036   0.275   1.408
 1139SOL     OW 3415   1.867   1.329   0.206
 1139SOL    HW1 3416   1.781   1.343   0.167
 1139SOL    HW2 3417   1.873   1.234   0.219
 1140SOL     OW 3418   1.952   1.795   0.933
 1140SOL    HW1 3419   1.918   1.714   0.894
 1140SOL    HW2 3420   2.041   1.802   0.899
 1141SOL     OW 3421   2.364   1.572   0.905
 1141SOL    HW1 3422   2.434   1.635   0.926
 1141SOL    HW2 3423   2.410   1.500   0.861
 1142SOL     OW 3424   2.859   0.796   1.232
 1142SOL    HW1 3425   2.902   0.768   1.313
 1142SOL    HW2 3426   2.769   0.764   1.241
 1143SOL     OW 3427   1.899   0.543   1.116
 1143SOL    HW1 3428   1.980   0.515   1.072
 1143SOL    HW2 3429   1.924   0.553   1.208
 1144SOL     OW 3430   2.058   0.525   1.721
 1144SOL    HW1 3431   2.112   0.488   1.650
 1144SOL    HW2 3432   2.001   0.587   1.676
 1145SOL     OW 3433   3.238   0.944   1.661
 1145SOL    HW1 3434   3.259   1.037   1.668
 1145SOL    HW2 3435   3.237   0.927   1.566
 1146SOL     OW 3436   2.674   0.570   0.352
 1146SOL    HW1 3437   2.685   0.495   0.293
 1146SOL    HW2 3438   2.596   0.615   0.321
 1147SOL     OW 3439   3.507   0.601   1.195
 1147SOL    HW1 3440   3.491   0.538   1.265
 1147SOL    HW2 3441   3.593   0.577   1.160
 1148SOL     OW 3442   2.114   1.557   1.737
 1148SOL    HW1 3443   2.085   1.616   1.807
 1148SOL    HW2 3444   2.107   1.469   1.775
 1149SOL     OW 3445   2.547   0.461   1.267
 1149SOL    HW1 3446   2.503   0.381   1.238
 1149SOL    HW2 3447   2.552   0.516   1.189
 1150SOL     OW 3448   2.795   1.677   1.464
 1150SOL    HW1 3449   2.767   1.657   1.375
 1150SOL    HW2 3450   2.807   1.772   1.465
 1151SOL     OW 3451   2.333   0.496   0.195
 1151SOL    HW1 3452   2.390   0.572   0.211
 1151SOL    HW2 3453   2.245   0.532   0.196
 1152SOL     OW 3454   2.014   1.138   1.468
 1152SOL    HW1 3455   2.030   1.081   1.543
 1152SOL    HW2 3456   2.030   1.083   1.392
 1153SOL     OW 3457   3.200   1.052   1.230
 1153SOL    HW1 3458   3.224   0.993   1.159
 1153SOL    HW2 3459   3.121   1.097   1.199
 1154SOL     OW 3460   3.169   0.852   0.310
 1154SOL    HW1 3461   3.087   0.827   0.353
 1154SOL    HW2 3462   3.152   0.843   0.217
 1155SOL     OW 3463   3.625   1.750   1.149
 1155SOL    HW1 3464   3.684   1.774   1.077
 1155SOL    HW2 3465   3.600   1.660   1.130
 1156SOL     OW 3466   3.108   1.731   1.124
 1156SOL    HW1 3467   3.189   1.742   1.074
 1156SOL    HW2 3468   3.102   1.637   1.140
 1157SOL     OW 3469   1.946   1.262   1.018
 1157SOL    HW1 3470   1.934   1.268   1.113
 1157SOL    HW2 3471   1.868   1.215   0.987
 1158SOL     OW 3472   2.542   1.661   1.717
 1158SOL    HW1 3473   2.495   1.744   1.721
 1158SOL    HW2 3474   2.600   1.669   1.642
 1159SOL     OW 3475   2.765   0.091   0.123
 1159SOL    HW1 3476   2.832   0.088   0.055
 1159SOL    HW2 3477   2.804   0.047   0.198
 1160SOL     OW 3478   3.559   0.137   0.505
 1160SOL    HW1 3479   3.638   0.136   0.453
 1160SOL    HW2 3480   3.550   0.048   0.539
 1161SOL     OW 3481   3.250   1.569   0.478
 1161SOL    HW1 3482   3.313   1.594   0.410
 1161SOL    HW2 3483   3.210   1.652   0.505
 1162SOL     OW 3484   1.994   1.798   1.845
 1162SOL    HW1 3485   1.948   1.731   1.895
 1162SOL    HW2 3486   2.048   1.843   1.910
 1163SOL     OW 3487   3.139   0.922   0.671
 1163SOL    HW1 3488   3.210   0.858   0.673
 1163SOL    HW2 3489   3.174   0.995   0.619
 1164SOL     OW 3490   2.687   1.271   1.430
 1164SOL    HW1 3491   2.669   1.308   1.516
 1164SOL    HW2 3492   2.610   1.292   1.378
 1165SOL     OW 3493   2.546   1.606   0.159
 1165SOL    HW1 3494   2.545   1.618   0.065
 1165SOL    HW2 3495   2.490   1.529   0.174
 1166SOL     OW 3496   3.506   1.725   1.394
 1166SOL    HW1 3497   3.551   1.735   1.310
 1166SOL    HW2 3498   3.488   1.815   1.422
 1167SOL     OW 3499   3.701   0.172   0.969
 1167SOL    HW1 3500   3.732   0.094   0.923
 1167SOL    HW2 3501   3.612   0.185   0.935
 1168SOL     OW 3502   2.131   0.325   0.721
 1168SOL    HW1 3503   2.046   0.360   0.692
 1168SOL    HW2 3504   2.119   0.308   0.814
 1169SOL     OW 3505   3.071   1.591   0.048
 1169SOL    HW1 3506   3.066   1.501   0.079
 1169SOL    HW2 3507   3.039   1.587  -0.043
 1170SOL     OW 3508   2.687   1.004   1.372
 1170SOL    HW1 3509   2.726   1.005   1.284
 1170SOL    HW2 3510   2.690   1.096   1.400
 1171SOL     OW 3511   2.779   0.913   0.292
 1171SOL    HW1 3512   2.839   0.942   0.224
 1171SOL    HW2 3513   2.820   0.835   0.329
 1172SOL     OW 3514   3.368   1.616   0.046
 1172SOL    HW1 3515   3.274   1.634   0.046
 1172SOL    HW2 3516   3.394   1.628  -0.045
 1173SOL     OW 3517   2.232   1.295   1.492
 1173SOL    HW1 3518   2.218   1.377   1.444
 1173SOL    HW2 3519   2.154   1.243   1.473
 1174SOL     OW 3520   3.470   1.284   1.285
 1174SOL    HW1 3521   3.535   1.288   1.356
 1174SOL    HW2 3522   3.411   1.357   1.303
 1175SOL     OW 3523   2.904   1.101   0.701
 1175SOL    HW1 3524   2.836   1.051   0.744
 1175SOL    HW2 3525   2.962   1.035   0.662
 1176SOL     OW 3526   2.880   0.241   0.966
 1176SOL    HW1 3527   2.866   0.197   0.883
 1176SOL    HW2 3528   2.867   0.173   1.032
 1177SOL     OW 3529   2.463   1.493   0.485
 1177SOL    HW1 3530   2.491   1.434   0.415
 1177SOL    HW2 3531   2.401   1.553   0.444
 1178SOL     OW 3532   3.577   0.386   1.382
 1178SOL    HW1 3533   3.645   0.453   1.376
 1178SOL    HW2 3534   3.607   0.318   1.321
 1179SOL     OW 3535   2.120   1.354   0.288
 1179SOL    HW1 3536   2.027   1.345   0.267
 1179SOL    HW2 3537   2.121   1.390   0.376
 1180SOL     OW 3538   1.971   1.014   1.723
 1180SOL    HW1 3539   1.897   0.987   1.777
 1180SOL    HW2 3540   2.048   0.979   1.769
 1181SOL     OW 3541   2.549   0.226   1.490
 1181SOL    HW1 3542   2.625   0.181   1.452
 1181SOL    HW2 3543   2.562   0.219   1.585
 1182SOL     OW 3544   3.298   0.857   1.402
 1182SOL    HW1 3545   3.248   0.913   1.341
 1182SOL    HW2 3546   3.388   0.864   1.371
 1183SOL     OW 3547   1.960   0.178   0.339
 1183SOL    HW1 3548   1.928   0.241   0.275
 1183SOL    HW2 3549   2.036   0.137   0.297
 1184SOL     OW 3550   3.061   1.316   0.115
 1184SOL    HW1 3551   2.966   1.322   0.124
 1184SOL    HW2 3552   3.095   1.329   0.203
 1185SOL     OW 3553   2.477   0.836   1.430
 1185SOL    HW1 3554   2.533   0.913   1.417
 1185SOL    HW2 3555   2.538   0.763   1.437
 1186SOL     OW 3556   3.351   1.771   0.966
 1186SOL    HW1 3557   3.383   1.828   0.896
 1186SOL    HW2 3558   3.425   1.761   1.026
 1187SOL     OW 3559   2.577   0.566   1.709
 1187SOL    HW1 3560   2.606   0.628   1.776
 1187SOL    HW2 3561   2.627   0.486   1.727
 1188SOL     OW 3562   3.322   1.209   1.634
 1188SOL    HW1 3563   3.313   1.218   1.729
 1188SOL    HW2 3564   3.416   1.216   1.618
 1189SOL     OW 3565   2.248   1.741   1.562
 1189SOL    HW1 3566   2.160   1.777   1.555
 1189SOL    HW2 3567   2.236   1.654   1.599
 1190SOL     OW 3568   3.533   0.883   1.257
 1190SOL    HW1 3569   3.522   0.798   1.215
 1190SOL    HW2 3570   3.532   0.946   1.185
 1191SOL     OW 3571   3.087   0.326   0.451
 1191SOL    HW1 3572   3.154   0.258   0.440
 1191SOL    HW2 3573   3.113   0.373   0.531
 1192SOL     OW 3574   2.455   0.745   0.661
 1192SOL    HW1 3575   2.497   0.828   0.640
 1192SOL    HW2 3576   2.379   0.740   0.603
 1193SOL     OW 3577   3.629   0.362   1.645
 1193SOL    HW1 3578   3.613   0.372   1.551
 1193SOL    HW2 3579   3.560   0.304   1.675
 1194SOL     OW 3580   3.604   0.934   1.515
 1194SOL    HW1 3581   3.617   1.028   1.525
 1194SOL    HW2 3582   3.587   0.922   1.421
 1195SOL     OW 3583   2.696   1.381   0.002
 1195SOL    HW1 3584   2.676   1.370   0.095
 1195SOL    HW2 3585   2.759   1.453  -0.000
 1196SOL     OW 3586   2.520   1.794   0.953
 1196SOL    HW1 3587   2.492   1.883   0.930
 1196SOL    HW2 3588   2.615   1.796   0.943
 1197SOL     OW 3589   2.725   0.961   0.858
 1197SOL    HW1 3590   2.776   0.893   0.903
 1197SOL    HW2 3591   2.695   1.018   0.929
 1198SOL     OW 3592   2.947   0.989   0.090
 1198SOL    HW1 3593   2.922   1.021   0.003
 1198SOL    HW2 3594   3.023   0.933   0.074
 1199SOL     OW 3595   3.724   1.561   0.845
 1199SOL    HW1 3596   3.648   1.549   0.788
 1199SOL    HW2 3597   3.716   1.492   0.911
 1200SOL     OW 3598   2.085   1.308   1.852
 1200SOL    HW1 3599   2.017   1.245   1.828
 1200SOL    HW2 3600   2.074   1.321   1.946
 1201SOL     OW 3601   1.944   1.240   0.659
 1201SOL    HW1 3602   1.944   1.188   0.740
 1201SOL    HW2 3603   2.016   1.204   0.608
 1202SOL     OW 3604   2.538   1.396   1.621
 1202SOL    HW1 3605   2.460   1.352   1.655
 1202SOL    HW2 3606   2.533   1.484   1.659
 1203SOL     OW 3607   3.678   0.186   1.238
 1203SOL    HW1 3608   3.683   0.092   1.254
 1203SOL    HW2 3609   3.691   0.196   1.144
 1204SOL     OW 3610   2.291   0.431   0.521
 1204SOL    HW1 3611   2.318   0.358   0.465
 1204SOL    HW2 3612   2.249   0.389   0.596
 1205SOL     OW 3613   3.564   1.493   1.107
 1205SOL    HW1 3614   3.482   1.461   1.070
 1205SOL    HW2 3615   3.586   1.430   1.175
 1206SOL     OW 3616   2.184   0.549   1.287
 1206SOL    HW1 3617   2.235   0.491   1.345
 1206SOL    HW2 3618   2.211   0.523   1.199
 1207SOL     OW 3619   2.683   1.577   0.685
 1207SOL    HW1 3620   2.689   1.608   0.594
 1207SOL    HW2 3621   2.600   1.528   0.687
 1208SOL     OW 3622   3.316   0.242   1.115
 1208SOL    HW1 3623   3.338   0.159   1.156
 1208SOL    HW2 3624   3.251   0.281   1.173
 1209SOL     OW 3625   2.870   4.032   1.149
 1209SOL    HW1 3626   2.803   3.968   1.127
 1209SOL    HW2 3627   2.951   3.982   1.154
 1210SOL     OW 3628   2.630   1.328   0.306
 1210SOL    HW1 3629   2.590   1.242   0.318
 1210SOL    HW2 3630   2.717   1.320   0.346
 1211SOL     OW 3631   2.480   1.564   1.283
 1211SOL    HW1 3632   2.484   1.643   1.337
 1211SOL    HW2 3633   2.568   1.558   1.243
 1212SOL     OW 3634   3.144   0.073   0.167
 1212SOL    HW1 3635   3.221   0.042   0.119
 1212SOL    HW2 3636   3.105  -0.007   0.203
 1213SOL     OW 3637   3.156   0.459   0.690
 1213SOL    HW1 3638   3.102   0.538   0.697
 1213SOL    HW2 3639   3.166   0.429   0.780
 1214SOL     OW 3640   3.451   0.213   0.871
 1214SOL    HW1 3641   3.385   0.227   0.939
 1214SOL    HW2 3642   3.452   0.296   0.822
 1215SOL     OW 3643   1.903   1.076   0.312
 1215SOL    HW1 3644   1.996   1.066   0.292
 1215SOL    HW2 3645   1.873   0.988   0.334
 1216SOL     OW 3646   2.732   1.651   0.351
 1216SOL    HW1 3647   2.659   1.631   0.292
 1216SOL    HW2 3648   2.703   1.730   0.398
 1217SOL     OW 3649   2.093   0.627   1.980
 1217SOL    HW1 3650   2.003   0.624   2.011
 1217SOL    HW2 3651   2.089   0.595   1.890
 1218SOL     OW 3652   2.081   0.289   2.853
 1218SOL    HW1 3653   2.118   0.257   2.935
 1218SOL    HW2 3654   2.001   0.237   2.841
 1219SOL     OW 3655   1.873   0.386   2.502
 1219SOL    HW1 3656   1.788   0.403   2.542
 1219SOL    HW2 3657   1.860   0.308   2.448
 1220SOL     OW 3658   2.429   1.275   3.030
 1220SOL    HW1 3659   2.341   1.276   2.993
 1220SOL    HW2 3660   2.441   1.363   3.066
 1221SOL     OW 3661   3.416   1.512   2.564
 1221SOL    HW1 3662   3.367   1.498   2.646
 1221SOL    HW2 3663   3.348   1.520   2.497
 1222SOL     OW 3664   2.993   0.701   2.573
 1222SOL    HW1 3665   3.045   0.779   2.556
 1222SOL    HW2 3666   2.943   0.722   2.652
 1223SOL     OW 3667   3.615   0.615   2.096
 1223SOL    HW1 3668   3.605   0.601   2.001
 1223SOL    HW2 3669   3.601   0.529   2.134
 1224SOL     OW 3670   2.626   1.146   2.893
 1224SOL    HW1 3671   2.554   1.174   2.948
 1224SOL    HW2 3672   2.657   1.226   2.850
 1225SOL     OW 3673   2.716   0.792   3.684
 1225SOL    HW1 3674   2.712   0.867   3.743
 1225SOL    HW2 3675   2.739   0.830   3.599
 1226SOL     OW 3676   2.549   1.014   2.517
 1226SOL    HW1 3677   2.611   0.994   2.588
 1226SOL    HW2 3678   2.478   1.061   2.560
 1227SOL     OW 3679   2.561   1.156   3.669
 1227SOL    HW1 3680   2.611   1.236   3.683
 1227SOL    HW2 3681   2.477   1.186   3.634
 1228SOL     OW 3682   2.194   1.435   2.929
 1228SOL    HW1 3683   2.123   1.400   2.875
 1228SOL    HW2 3684   2.248   1.485   2.869
 1229SOL     OW 3685   3.323   1.500   3.205
 1229SOL    HW1 3686   3.353   1.589   3.223
 1229SOL    HW2 3687   3.293   1.468   3.290
 1230SOL     OW 3688   2.302   0.399   3.364
 1230SOL    HW1 3689   2.381   0.346   3.360
 1230SOL    HW2 3690   2.231   0.335   3.364
 1231SOL     OW 3691   3.473   0.450   2.598
 1231SOL    HW1 3692   3.399   0.486   2.550
 1231SOL    HW2 3693   3.507   0.523   2.649
 1232SOL     OW 3694   2.086   1.712   2.341
 1232SOL    HW1 3695   2.116   1.787   2.391
 1232SOL    HW2 3696   2.144   1.709   2.265
 1233SOL     OW 3697   2.995   1.340   3.551
 1233SOL    HW1 3698   3.036   1.336   3.638
 1233SOL    HW2 3699   2.942   1.261   3.546
 1234SOL     OW 3700   2.090   1.437   2.396
 1234SOL    HW1 3701   2.071   1.530   2.404
 1234SOL    HW2 3702   2.025   1.394   2.451
 1235SOL     OW 3703   2.109   1.090   2.750
 1235SOL    HW1 3704   2.111   1.007   2.797
 1235SOL    HW2 3705   2.052   1.146   2.802
 1236SOL     OW 3706   2.481   1.789   3.298
 1236SOL    HW1 3707   2.396   1.774   3.339
 1236SOL    HW2 3708   2.504   1.879   3.321
 1237SOL     OW 3709   2.457   0.973   1.990
 1237SOL    HW1 3710   2.489   1.038   1.927
 1237SOL    HW2 3711   2.505   0.994   2.071
 1238SOL     OW 3712   3.444   0.124   3.327
 1238SOL    HW1 3713   3.445   0.199   3.269
 1238SOL    HW2 3714   3.436   0.162   3.415
 1239SOL     OW 3715   1.979   0.647   2.423
 1239SOL    HW1 3716   1.947   0.559   2.442
 1239SOL    HW2 3717   1.971   0.694   2.506
 1240SOL     OW 3718   3.703   1.763   2.206
 1240SOL    HW1 3719   3.755   1.737   2.282
 1240SOL    HW2 3720   3.731   1.853   2.187
 1241SOL     OW 3721   1.888   1.597   1.984
 1241SOL    HW1 3722   1.873   1.505   2.004
 1241SOL    HW2 3723   1.861   1.643   2.064
 1242SOL     OW 3724   3.552   0.920   2.490
 1242SOL    HW1 3725   3.640   0.885   2.480
 1242SOL    HW2 3726   3.537   0.972   2.411
 1243SOL     OW 3727   3.506   1.108   2.294
 1243SOL    HW1 3728   3.588   1.120   2.247
 1243SOL    HW2 3729   3.513   1.166   2.370
 1244SOL     OW 3730   1.981   0.739   3.452
 1244SOL    HW1 3731   2.070   0.747   3.485
 1244SOL    HW2 3732   1.948   0.829   3.448
 1245SOL     OW 3733   2.474   1.374   2.594
 1245SOL    HW1 3734   2.428   1.291   2.601
 1245SOL    HW2 3735   2.455   1.405   2.506
 1246SOL     OW 3736   3.153   1.236   3.288
 1246SOL    HW1 3737   3.188   1.169   3.230
 1246SOL    HW2 3738   3.206   1.229   3.367
 1247SOL     OW 3739   2.671   0.000   2.369
 1247SOL    HW1 3740   2.714   0.085   2.358
 1247SOL    HW2 3741   2.578   0.021   2.375
 1248SOL     OW 3742   2.057   0.973   3.126
 1248SOL    HW1 3743   2.140   0.928   3.112
 1248SOL    HW2 3744   1.990   0.911   3.098
 1249SOL     OW 3745   3.394   0.992   2.054
 1249SOL    HW1 3746   3.325   0.929   2.078
 1249SOL    HW2 3747   3.430   1.020   2.138
 1250SOL     OW 3748   3.047   1.797   3.480
 1250SOL    HW1 3749   3.070   1.854   3.405
 1250SOL    HW2 3750   3.059   1.708   3.447
 1251SOL     OW 3751   2.181   0.255   3.654
 1251SOL    HW1 3752   2.245   0.325   3.669
 1251SOL    HW2 3753   2.101   0.285   3.697
 1252SOL     OW 3754   3.326   1.419   2.816
 1252SOL    HW1 3755   3.261   1.429   2.885
 1252SOL    HW2 3756   3.315   1.330   2.785
 1253SOL     OW 3757   3.527   1.723   2.437
 1253SOL    HW1 3758   3.495   1.696   2.351
 1253SOL    HW2 3759   3.503   1.650   2.495
 1254SOL     OW 3760   2.457   0.726   2.126
 1254SOL    HW1 3761   2.473   0.801   2.069
 1254SOL    HW2 3762   2.389   0.756   2.187
 1255SOL     OW 3763   3.141   0.353   2.802
 1255SOL    HW1 3764   3.057   0.308   2.800
 1255SOL    HW2 3765   3.198   0.296   2.853
 1256SOL     OW 3766   3.442   1.664   2.170
 1256SOL    HW1 3767   3.529   1.705   2.167
 1256SOL    HW2 3768   3.422   1.645   2.079
 1257SOL     OW 3769   2.662   0.611   3.319
 1257SOL    HW1 3770   2.628   0.594   3.407
 1257SOL    HW2 3771   2.614   0.550   3.263
 1258SOL     OW 3772   3.256   0.473   3.537
 1258SOL    HW1 3773   3.246   0.514   3.623
 1258SOL    HW2 3774   3.324   0.406   3.550
 1259SOL     OW 3775   2.826   0.891   3.440
 1259SOL    HW1 3776   2.878   0.817   3.408
 1259SOL    HW2 3777   2.779   0.922   3.363
 1260SOL     OW 3778   2.853   0.404   3.106
 1260SOL    HW1 3779   2.776   0.439   3.150
 1260SOL    HW2 3780   2.819   0.366   3.025
 1261SOL     OW 3781   2.909   0.699   2.290
 1261SOL    HW1 3782   2.923   0.693   2.385
 1261SOL    HW2 3783   2.827   0.652   2.275
 1262SOL     OW 3784   1.947   0.818   2.637
 1262SOL    HW1 3785   2.033   0.807   2.679
 1262SOL    HW2 3786   1.913   0.899   2.675
 1263SOL     OW 3787   1.992   1.824   3.435
 1263SOL    HW1 3788   1.984   1.811   3.530
 1263SOL    HW2 3789   1.904   1.852   3.408
 1264SOL     OW 3790   2.737   0.345   2.058
 1264SOL    HW1 3791   2.787   0.405   2.002
 1264SOL    HW2 3792   2.756   0.258   2.023
 1265SOL     OW 3793   3.581   0.582   3.691
 1265SOL    HW1 3794   3.549   0.665   3.656
 1265SOL    HW2 3795   3.585   0.524   3.615
 1266SOL     OW 3796   3.231   1.143   2.405
 1266SOL    HW1 3797   3.309   1.124   2.353
 1266SOL    HW2 3798   3.182   1.206   2.352
 1267SOL     OW 3799   2.413   0.196   2.746
 1267SOL    HW1 3800   2.413   0.204   2.841
 1267SOL    HW2 3801   2.414   0.286   2.714
 1268SOL     OW 3802   2.873   1.449   2.338
 1268SOL    HW1 3803   2.829   1.519   2.290
 1268SOL    HW2 3804   2.865   1.475   2.430
 1269SOL     OW 3805   2.214   1.803   2.714
 1269SOL    HW1 3806   2.262   1.720   2.725
 1269SOL    HW2 3807   2.281   1.870   2.722
 1270SOL     OW 3808   3.661   1.064   2.728
 1270SOL    HW1 3809   3.599   1.050   2.657
 1270SOL    HW2 3810   3.607   1.069   2.807
 1271SOL     OW 3811   3.089   1.545   3.372
 1271SOL    HW1 3812   3.084   1.469   3.429
 1271SOL    HW2 3813   3.035   1.522   3.296
 1272SOL     OW 3814   2.183   0.950   2.105
 1272SOL    HW1 3815   2.266   0.974   2.062
 1272SOL    HW2 3816   2.156   0.869   2.063
 1273SOL     OW 3817   3.330   0.733   2.589
 1273SOL    HW1 3818   3.319   0.683   2.670
 1273SOL    HW2 3819   3.404   0.791   2.607
 1274SOL     OW 3820   2.324   1.260   3.598
 1274SOL    HW1 3821   2.290   1.268   3.508
 1274SOL    HW2 3822   2.246   1.259   3.653
 1275SOL     OW 3823   2.980   1.776   2.096
 1275SOL    HW1 3824   2.913   1.726   2.143
 1275SOL    HW2 3825   2.999   1.723   2.019
 1276SOL     OW 3826   2.049   0.284   3.355
 1276SOL    HW1 3827   1.976   0.346   3.355
 1276SOL    HW2 3828   2.052   0.250   3.444
 1277SOL     OW 3829   3.493   1.378   1.950
 1277SOL    HW1 3830   3.454   1.463   1.932
 1277SOL    HW2 3831   3.423   1.315   1.930
 1278SOL     OW 3832   2.328   1.741   2.184
 1278SOL    HW1 3833   2.364   1.791   2.257
 1278SOL    HW2 3834   2.404   1.725   2.127
 1279SOL     OW 3835   3.293   0.143   2.272
 1279SOL    HW1 3836   3.260   0.084   2.205
 1279SOL    HW2 3837   3.383   0.115   2.288
 1280SOL     OW 3838   2.113   1.789   3.099
 1280SOL    HW1 3839   2.167   1.726   3.146
 1280SOL    HW2 3840   2.101   1.751   3.012
 1281SOL     OW 3841   2.802   1.698   2.765
 1281SOL    HW1 3842   2.878   1.642   2.782
 1281SOL    HW2 3843   2.753   1.653   2.696
 1282SOL     OW 3844   2.248   0.697   2.343
 1282SOL    HW1 3845   2.279   0.607   2.345
 1282SOL    HW2 3846   2.155   0.691   2.365
 1283SOL     OW 3847   3.401   0.235   3.586
 1283SOL    HW1 3848   3.402   0.255   3.680
 1283SOL    HW2 3849   3.347   0.157   3.579
 1284SOL     OW 3850   2.490   0.145   1.967
 1284SOL    HW1 3851   2.559   0.084   1.992
 1284SOL    HW2 3852   2.440   0.099   1.900
 1285SOL     OW 3853   2.641   0.274   3.612
 1285SOL    HW1 3854   2.703   0.209   3.644
 1285SOL    HW2 3855   2.580   0.286   3.685
 1286SOL     OW 3856   2.743   1.518   3.055
 1286SOL    HW1 3857   2.727   1.485   2.967
 1286SOL    HW2 3858   2.807   1.458   3.093
 1287SOL     OW 3859   3.208   0.588   3.294
 1287SOL    HW1 3860   3.237   0.556   3.379
 1287SOL    HW2 3861   3.240   0.678   3.290
 1288SOL     OW 3862   2.669   1.403   2.792
 1288SOL    HW1 3863   2.753   1.402   2.746
 1288SOL    HW2 3864   2.604   1.396   2.722
 1289SOL     OW 3865   2.788   0.507   2.765
 1289SOL    HW1 3866   2.763   0.497   2.673
 1289SOL    HW2 3867   2.825   0.423   2.789
 1290SOL     OW 3868   2.409   0.061   2.366
 1290SOL    HW1 3869   2.330   0.063   2.420
 1290SOL    HW2 3870   2.406   0.141   2.314
 1291SOL     OW 3871   3.291   1.194   1.901
 1291SOL    HW1 3872   3.324   1.121   1.954
 1291SOL    HW2 3873   3.205   1.214   1.938
 1292SOL     OW 3874   2.174   0.040   2.056
 1292SOL    HW1 3875   2.210   0.115   2.010
 1292SOL    HW2 3876   2.250  -0.005   2.093
 1293SOL     OW 3877   2.795   0.242   2.336
 1293SOL    HW1 3878   2.762   0.283   2.256
 1293SOL    HW2 3879   2.890   0.239   2.324
 1294SOL     OW 3880   2.941   0.679   3.324
 1294SOL    HW1 3881   2.867   0.618   3.329
 1294SOL    HW2 3882   3.017   0.622   3.310
 1295SOL     OW 3883   3.088   1.570   2.655
 1295SOL    HW1 3884   3.110   1.638   2.593
 1295SOL    HW2 3885   3.155   1.576   2.723
 1296SOL     OW 3886   2.325   1.146   2.604
 1296SOL    HW1 3887   2.252   1.128   2.662
 1296SOL    HW2 3888   2.292   1.127   2.516
 1297SOL     OW 3889   3.135   1.797   2.461
 1297SOL    HW1 3890   3.175   1.859   2.400
 1297SOL    HW2 3891   3.077   1.850   2.515
 1298SOL     OW 3892   2.894   0.549   1.876
 1298SOL    HW1 3893   2.851   0.631   1.852
 1298SOL    HW2 3894   2.952   0.572   1.949
 1299SOL     OW 3895   1.936   0.556   3.252
 1299SOL    HW1 3896   2.026   0.554   3.219
 1299SOL    HW2 3897   1.935   0.627   3.315
 1300SOL     OW 3898   2.428   0.231   3.021
 1300SOL    HW1 3899   2.456   0.142   3.041
 1300SOL    HW2 3900   2.338   0.235   3.052
 1301SOL     OW 3901   2.735   0.459   2.502
 1301SOL    HW1 3902   2.689   0.516   2.440
 1301SOL    HW2 3903   2.749   0.378   2.455
 1302SOL     OW 3904   2.855   0.049   2.636
 1302SOL    HW1 3905   2.823   0.051   2.546
 1302SOL    HW2 3906   2.862  -0.044   2.658
 1303SOL     OW 3907   3.296   1.166   2.723
 1303SOL    HW1 3908   3.233   1.094   2.717
 1303SOL    HW2 3909   3.316   1.187   2.632
 1304SOL     OW 3910   3.332   0.596   2.850
 1304SOL    HW1 3911   3.293   0.509   2.858
 1304SOL    HW2 3912   3.397   0.600   2.920
 1305SOL     OW 3913   3.720   0.826   2.239
 1305SOL    HW1 3914   3.762   0.765   2.300
 1305SOL    HW2 3915   3.682   0.769   2.171
 1306SOL     OW 3916   2.356   1.401   2.030
 1306SOL    HW1 3917   2.277   1.374   2.078
 1306SOL    HW2 3918   2.329   1.402   1.939
 1307SOL     OW 3919   3.526   1.269   2.519
 1307SOL    HW1 3920   3.621   1.280   2.525
 1307SOL    HW2 3921   3.491   1.356   2.539
 1308SOL     OW 3922   3.253   0.570   1.933
 1308SOL    HW1 3923   3.198   0.554   2.010
 1308SOL    HW2 3924   3.341   0.542   1.961
 1309SOL     OW 3925   2.388   0.262   2.188
 1309SOL    HW1 3926   2.422   0.210   2.115
 1309SOL    HW2 3927   2.379   0.350   2.152
 1310SOL     OW 3928   3.615   1.228   3.445
 1310SOL    HW1 3929   3.704   1.196   3.430
 1310SOL    HW2 3930   3.627   1.318   3.476
 1311SOL     OW 3931   2.928   1.353   3.200
 1311SOL    HW1 3932   2.852   1.322   3.249
 1311SOL    HW2 3933   3.002   1.311   3.243
 1312SOL     OW 3934   3.459   1.627   3.505
 1312SOL    HW1 3935   3.470   1.658   3.415
 1312SOL    HW2 3936   3.543   1.584   3.525
 1313SOL     OW 3937   2.979   1.198   2.969
 1313SOL    HW1 3938   2.927   1.239   3.037
 1313SOL    HW2 3939   2.942   1.230   2.887
 1314SOL     OW 3940   3.499   1.103   2.940
 1314SOL    HW1 3941   3.495   1.168   3.010
 1314SOL    HW2 3942   3.415   1.111   2.895
 1315SOL     OW 3943   2.776   0.101   3.266
 1315SOL    HW1 3944   2.797   0.080   3.175
 1315SOL    HW2 3945   2.854   0.147   3.299
 1316SOL     OW 3946   2.845   1.113   3.582
 1316SOL    HW1 3947   2.751   1.125   3.594
 1316SOL    HW2 3948   2.853   1.037   3.525
 1317SOL     OW 3949   2.569   1.057   2.234
 1317SOL    HW1 3950   2.556   1.048   2.328
 1317SOL    HW2 3951   2.646   1.004   2.215
 1318SOL     OW 3952   2.275   0.813   3.113
 1318SOL    HW1 3953   2.348   0.822   3.174
 1318SOL    HW2 3954   2.239   0.726   3.132
 1319SOL     OW 3955   3.130   0.378   3.134
 1319SOL    HW1 3956   3.162   0.456   3.180
 1319SOL    HW2 3957   3.048   0.406   3.093
 1320SOL     OW 3958   1.928   1.569   3.203
 1320SOL    HW1 3959   1.890   1.645   3.158
 1320SOL    HW2 3960   2.022   1.585   3.203
 1321SOL     OW 3961   2.223   1.102   2.358
 1321SOL    HW1 3962   2.222   1.177   2.299
 1321SOL    HW2 3963   2.225   1.026   2.301
 1322SOL     OW 3964   2.424   0.538   2.725
 1322SOL    HW1 3965   2.441   0.598   2.653
 1322SOL    HW2 3966   2.477   0.572   2.797
 1323SOL     OW 3967   3.110   1.347   2.252
 1323SOL    HW1 3968   3.162   1.421   2.284
 1323SOL    HW2 3969   3.022   1.363   2.285
 1324SOL     OW 3970   3.133   1.451   3.006
 1324SOL    HW1 3971   3.185   1.455   3.086
 1324SOL    HW2 3972   3.078   1.374   3.017
 1325SOL     OW 3973   3.445   0.633   2.338
 1325SOL    HW1 3974   3.410   0.697   2.401
 1325SOL    HW2 3975   3.491   0.686   2.273
 1326SOL     OW 3976   2.213   1.516   3.186
 1326SOL    HW1 3977   2.198   1.475   3.101
 1326SOL    HW2 3978   2.307   1.533   3.188
 1327SOL     OW 3979   2.271   0.748   3.464
 1327SOL    HW1 3980   2.332   0.794   3.405
 1327SOL    HW2 3981   2.312   0.662   3.478
 1328SOL     OW 3982   3.451   0.772   3.532
 1328SOL    HW1 3983   3.366   0.816   3.528
 1328SOL    HW2 3984   3.506   0.819   3.470
 1329SOL     OW 3985   2.882   0.110   3.637
 1329SOL    HW1 3986   2.894   0.190   3.587
 1329SOL    HW2 3987   2.897   0.039   3.574
 1330SOL     OW 3988   2.357   0.050   3.623
 1330SOL    HW1 3989   2.339   0.014   3.537
 1330SOL    HW2 3990   2.293   0.121   3.634
 1331SOL     OW 3991   2.443   0.870   2.893
 1331SOL    HW1 3992   2.473   0.960   2.886
 1331SOL    HW2 3993   2.382   0.871   2.967
 1332SOL     OW 3994   3.224   0.861   2.902
 1332SOL    HW1 3995   3.148   0.857   2.845
 1332SOL    HW2 3996   3.256   0.770   2.905
 1333SOL     OW 3997   3.074   0.530   2.135
 1333SOL    HW1 3998   3.079   0.450   2.187
 1333SOL    HW2 3999   3.034   0.594   2.193
 1334SOL     OW 4000   2.166   0.217   3.100
 1334SOL    HW1 4001   2.142   0.242   3.189
 1334SOL    HW2 4002   2.147   0.124   3.094
 1335SOL     OW 4003   1.907   1.308   3.140
 1335SOL    HW1 4004   1.945   1.261   3.214
 1335SOL    HW2 4005   1.917   1.401   3.162
 1336SOL     OW 4006   2.594   0.636   2.926
 1336SOL    HW1 4007   2.656   0.613   2.857
 1336SOL    HW2 4008   2.564   0.723   2.903
 1337SOL     OW 4009   3.598   0.941   3.715
 1337SOL    HW1 4010   3.545   0.923   3.638
 1337SOL    HW2 4011   3.535   0.969   3.782
 1338SOL     OW 4012   2.179   0.061   2.493
 1338SOL    HW1 4013   2.151   0.151   2.512
 1338SOL    HW2 4014   2.149   0.010   2.568
 1339SOL     OW 4015   3.449   0.374   2.247
 1339SOL    HW1 4016   3.466   0.309   2.315
 1339SOL    HW2 4017   3.432   0.455   2.295
 1340SOL     OW 4018   2.887   0.763   2.827
 1340SOL    HW1 4019   2.894   0.780   2.921
 1340SOL    HW2 4020   2.859   0.671   2.821
 1341SOL     OW 4021   2.846   1.568   3.571
 1341SOL    HW1 4022   2.826   1.612   3.488
 1341SOL    HW2 4023   2.884   1.484   3.545
 1342SOL     OW 4024   3.715   1.516   3.465
 1342SOL    HW1 4025   3.736   1.539   3.375
 1342SOL    HW2 4026   3.795   1.536   3.514
 1343SOL     OW 4027   2.212   0.910   3.670
 1343SOL    HW1 4028   2.295   0.935   3.711
 1343SOL    HW2 4029   2.237   0.854   3.597
 1344SOL     OW 4030   3.391   0.272   1.992
 1344SOL    HW1 4031   3.316   0.216   2.014
 1344SOL    HW2 4032   3.406   0.323   2.071
 1345SOL     OW 4033   3.161   0.830   1.900
 1345SOL    HW1 4034   3.201   0.743   1.904
 1345SOL    HW2 4035   3.188   0.865   1.814
 1346SOL     OW 4036   2.928   1.334   2.712
 1346SOL    HW1 4037   2.932   1.259   2.653
 1346SOL    HW2 4038   2.991   1.396   2.677
 1347SOL     OW 4039   2.176   0.813   2.814
 1347SOL    HW1 4040   2.269   0.834   2.809
 1347SOL    HW2 4041   2.174   0.725   2.851
 1348SOL     OW 4042   2.200   0.520   2.870
 1348SOL    HW1 4043   2.158   0.436   2.855
 1348SOL    HW2 4044   2.274   0.521   2.809
 1349SOL     OW 4045   2.999   0.383   3.541
 1349SOL    HW1 4046   2.956   0.439   3.605
 1349SOL    HW2 4047   3.088   0.418   3.535
 1350SOL     OW 4048   3.017   0.216   3.344
 1350SOL    HW1 4049   3.010   0.274   3.419
 1350SOL    HW2 4050   3.036   0.275   3.270
 1351SOL     OW 4051   1.867   1.325   2.058
 1351SOL    HW1 4052   1.779   1.338   2.024
 1351SOL    HW2 4053   1.869   1.233   2.085
 1352SOL     OW 4054   1.952   1.795   2.794
 1352SOL    HW1 4055   1.918   1.714   2.756
 1352SOL    HW2 4056   2.041   1.802   2.762
 1353SOL     OW 4057   2.364   1.572   2.767
 1353SOL    HW1 4058   2.434   1.635   2.787
 1353SOL    HW2 4059   2.410   1.500   2.723
 1354SOL     OW 4060   2.858   0.796   3.094
 1354SOL    HW1 4061   2.902   0.768   3.175
 1354SOL    HW2 4062   2.769   0.764   3.103
 1355SOL     OW 4063   1.899   0.542   2.978
 1355SOL    HW1 4064   1.980   0.515   2.934
 1355SOL    HW2 4065   1.924   0.553   3.070
 1356SOL     OW 4066   2.054   0.519   3.583
 1356SOL    HW1 4067   2.112   0.486   3.514
 1356SOL    HW2 4068   2.000   0.585   3.540
 1357SOL     OW 4069   3.237   0.944   3.523
 1357SOL    HW1 4070   3.259   1.037   3.531
 1357SOL    HW2 4071   3.237   0.928   3.428
 1358SOL     OW 4072   2.677   0.569   2.205
 1358SOL    HW1 4073   2.679   0.491   2.149
 1358SOL    HW2 4074   2.596   0.614   2.180
 1359SOL     OW 4075   3.507   0.601   3.057
 1359SOL    HW1 4076   3.491   0.538   3.127
 1359SOL    HW2 4077   3.593   0.577   3.022
 1360SOL     OW 4078   2.115   1.557   3.600
 1360SOL    HW1 4079   2.085   1.616   3.668
 1360SOL    HW2 4080   2.106   1.469   3.638
 1361SOL     OW 4081   2.547   0.461   3.129
 1361SOL    HW1 4082   2.503   0.381   3.099
 1361SOL    HW2 4083   2.552   0.516   3.051
 1362SOL     OW 4084   2.795   1.677   3.326
 1362SOL    HW1 4085   2.767   1.656   3.237
 1362SOL    HW2 4086   2.806   1.772   3.327
 1363SOL     OW 4087   2.334   0.496   2.052
 1363SOL    HW1 4088   2.389   0.573   2.066
 1363SOL    HW2 4089   2.245   0.530   2.050
 1364SOL     OW 4090   2.014   1.138   3.330
 1364SOL    HW1 4091   2.030   1.081   3.405
 1364SOL    HW2 4092   2.030   1.083   3.254
 1365SOL     OW 4093   3.199   1.052   3.092
 1365SOL    HW1 4094   3.224   0.993   3.021
 1365SOL    HW2 4095   3.121   1.097   3.060
 1366SOL     OW 4096   3.167   0.853   2.172
 1366SOL    HW1 4097   3.085   0.826   2.213
 1366SOL    HW2 4098   3.150   0.844   2.078
 1367SOL     OW 4099   3.625   1.750   3.011
 1367SOL    HW1 4100   3.684   1.774   2.939
 1367SOL    HW2 4101   3.600   1.660   2.992
 1368SOL     OW 4102   3.108   1.731   2.986
 1368SOL    HW1 4103   3.189   1.742   2.936
 1368SOL    HW2 4104   3.101   1.637   3.002
 1369SOL     OW 4105   1.946   1.262   2.880
 1369SOL    HW1 4106   1.934   1.268   2.974
 1369SOL    HW2 4107   1.868   1.215   2.849
 1370SOL     OW 4108   2.543   1.661   3.580
 1370SOL    HW1 4109   2.494   1.744   3.583
 1370SOL    HW2 4110   2.599   1.670   3.503
 1371SOL     OW 4111   3.562   0.136   2.350
 1371SOL    HW1 4112   3.647   0.127   2.307
 1371SOL    HW2 4113   3.548   0.052   2.394
 1372SOL     OW 4114   3.252   1.569   2.342
 1372SOL    HW1 4115   3.312   1.594   2.272
 1372SOL    HW2 4116   3.208   1.650   2.367
 1373SOL     OW 4117   1.993   1.797   3.706
 1373SOL    HW1 4118   1.946   1.731   3.756
 1373SOL    HW2 4119   2.048   1.842   3.770
 1374SOL     OW 4120   3.139   0.922   2.533
 1374SOL    HW1 4121   3.210   0.858   2.534
 1374SOL    HW2 4122   3.174   0.995   2.481
 1375SOL     OW 4123   2.687   1.270   3.293
 1375SOL    HW1 4124   2.668   1.309   3.378
 1375SOL    HW2 4125   2.610   1.292   3.239
 1376SOL     OW 4126   2.534   1.614   2.017
 1376SOL    HW1 4127   2.542   1.622   1.922
 1376SOL    HW2 4128   2.488   1.531   2.030
 1377SOL     OW 4129   3.506   1.725   3.256
 1377SOL    HW1 4130   3.551   1.735   3.172
 1377SOL    HW2 4131   3.488   1.815   3.284
 1378SOL     OW 4132   3.701   0.172   2.831
 1378SOL    HW1 4133   3.732   0.093   2.786
 1378SOL    HW2 4134   3.612   0.185   2.798
 1379SOL     OW 4135   2.131   0.325   2.582
 1379SOL    HW1 4136   2.047   0.361   2.554
 1379SOL    HW2 4137   2.119   0.308   2.676
 1380SOL     OW 4138   3.062   1.611   1.893
 1380SOL    HW1 4139   3.059   1.519   1.922
 1380SOL    HW2 4140   3.000   1.615   1.821
 1381SOL     OW 4141   2.688   1.004   3.234
 1381SOL    HW1 4142   2.726   1.004   3.146
 1381SOL    HW2 4143   2.690   1.096   3.261
 1382SOL     OW 4144   2.778   0.911   2.152
 1382SOL    HW1 4145   2.840   0.942   2.086
 1382SOL    HW2 4146   2.821   0.835   2.192
 1383SOL     OW 4147   3.366   1.622   1.905
 1383SOL    HW1 4148   3.270   1.630   1.901
 1383SOL    HW2 4149   3.394   1.628   1.813
 1384SOL     OW 4150   2.232   1.295   3.354
 1384SOL    HW1 4151   2.218   1.377   3.306
 1384SOL    HW2 4152   2.154   1.243   3.335
 1385SOL     OW 4153   3.470   1.284   3.148
 1385SOL    HW1 4154   3.535   1.288   3.218
 1385SOL    HW2 4155   3.411   1.357   3.165
 1386SOL     OW 4156   2.904   1.101   2.564
 1386SOL    HW1 4157   2.835   1.050   2.606
 1386SOL    HW2 4158   2.962   1.036   2.524
 1387SOL     OW 4159   2.881   0.241   2.828
 1387SOL    HW1 4160   2.866   0.197   2.745
 1387SOL    HW2 4161   2.867   0.173   2.894
 1388SOL     OW 4162   2.460   1.490   2.348
 1388SOL    HW1 4163   2.493   1.435   2.278
 1388SOL    HW2 4164   2.403   1.553   2.304
 1389SOL     OW 4165   3.578   0.385   3.245
 1389SOL    HW1 4166   3.645   0.453   3.238
 1389SOL    HW2 4167   3.607   0.318   3.183
 1390SOL     OW 4168   2.118   1.351   2.147
 1390SOL    HW1 4169   2.024   1.348   2.128
 1390SOL    HW2 4170   2.124   1.388   2.235
 1391SOL     OW 4171   1.972   1.012   3.584
 1391SOL    HW1 4172   1.896   0.988   3.638
 1391SOL    HW2 4173   2.047   0.980   3.632
 1392SOL     OW 4174   2.549   0.226   3.351
 1392SOL    HW1 4175   2.625   0.180   3.314
 1392SOL    HW2 4176   2.562   0.220   3.446
 1393SOL     OW 4177   1.954   0.333   1.864
 1393SOL    HW1 4178   1.858   0.330   1.864
 1393SOL    HW2 4179   1.974   0.420   1.829
 1394SOL     OW 4180   3.298   0.857   3.264
 1394SOL    HW1 4181   3.248   0.913   3.203
 1394SOL    HW2 4182   3.389   0.864   3.233
 1395SOL     OW 4183   1.947   0.159   2.196
 1395SOL    HW1 4184   1.918   0.232   2.140
 1395SOL    HW2 4185   2.027   0.128   2.154
 1396SOL     OW 4186   3.044   1.344   1.979
 1396SOL    HW1 4187   2.952   1.317   1.985
 1396SOL    HW2 4188   3.074   1.343   2.070
 1397SOL     OW 4189   2.477   0.836   3.293
 1397SOL    HW1 4190   2.533   0.913   3.279
 1397SOL    HW2 4191   2.538   0.763   3.299
 1398SOL     OW 4192   3.351   1.771   2.828
 1398SOL    HW1 4193   3.383   1.827   2.759
 1398SOL    HW2 4194   3.425   1.761   2.888
 1399SOL     OW 4195   2.577   0.566   3.571
 1399SOL    HW1 4196   2.605   0.627   3.639
 1399SOL    HW2 4197   2.628   0.486   3.588
 1400SOL     OW 4198   3.322   1.210   3.495
 1400SOL    HW1 4199   3.313   1.217   3.590
 1400SOL    HW2 4200   3.417   1.217   3.479
 1401SOL     OW 4201   2.248   1.740   3.423
 1401SOL    HW1 4202   2.160   1.777   3.417
 1401SOL    HW2 4203   2.235   1.654   3.461
 1402SOL     OW 4204   3.534   0.883   3.119
 1402SOL    HW1 4205   3.522   0.798   3.076
 1402SOL    HW2 4206   3.532   0.946   3.047
 1403SOL     OW 4207   3.087   0.326   2.313
 1403SOL    HW1 4208   3.153   0.258   2.303
 1403SOL    HW2 4209   3.113   0.373   2.392
 1404SOL     OW 4210   2.455   0.745   2.523
 1404SOL    HW1 4211   2.497   0.828   2.502
 1404SOL    HW2 4212   2.380   0.741   2.465
 1405SOL     OW 4213   3.631   0.360   3.509
 1405SOL    HW1 4214   3.615   0.373   3.416
 1405SOL    HW2 4215   3.560   0.303   3.538
 1406SOL     OW 4216   3.604   0.934   3.377
 1406SOL    HW1 4217   3.616   1.028   3.388
 1406SOL    HW2 4218   3.587   0.922   3.283
 1407SOL     OW 4219   2.724   1.371   1.885
 1407SOL    HW1 4220   2.682   1.393   1.968
 1407SOL    HW2 4221   2.750   1.455   1.848
 1408SOL     OW 4222   2.520   1.795   2.815
 1408SOL    HW1 4223   2.492   1.883   2.792
 1408SOL    HW2 4224   2.615   1.796   2.805
 1409SOL     OW 4225   2.724   0.960   2.720
 1409SOL    HW1 4226   2.776   0.893   2.765
 1409SOL    HW2 4227   2.695   1.019   2.791
 1410SOL     OW 4228   2.942   0.986   1.950
 1410SOL    HW1 4229   2.923   1.036   1.871
 1410SOL    HW2 4230   3.020   0.935   1.927
 1411SOL     OW 4231   3.725   1.561   2.707
 1411SOL    HW1 4232   3.648   1.550   2.651
 1411SOL    HW2 4233   3.716   1.492   2.773
 1412SOL     OW 4234   2.087   1.305   3.715
 1412SOL    HW1 4235   2.016   1.247   3.689
 1412SOL    HW2 4236   2.070   1.325   3.807
 1413SOL     OW 4237   1.945   1.240   2.521
 1413SOL    HW1 4238   1.943   1.188   2.602
 1413SOL    HW2 4239   2.017   1.203   2.470
 1414SOL     OW 4240   2.538   1.396   3.483
 1414SOL    HW1 4241   2.459   1.352   3.516
 1414SOL    HW2 4242   2.533   1.484   3.520
 1415SOL     OW 4243   3.679   0.186   3.101
 1415SOL    HW1 4244   3.682   0.092   3.115
 1415SOL    HW2 4245   3.692   0.196   3.006
 1416SOL     OW 4246   2.291   0.430   2.383
 1416SOL    HW1 4247   2.318   0.357   2.328
 1416SOL    HW2 4248   2.249   0.389   2.459
 1417SOL     OW 4249   3.564   1.493   2.968
 1417SOL    HW1 4250   3.482   1.461   2.932
 1417SOL    HW2 4251   3.587   1.430   3.037
 1418SOL     OW 4252   2.185   0.549   3.149
 1418SOL    HW1 4253   2.235   0.491   3.207
 1418SOL    HW2 4254   2.211   0.523   3.061
 1419SOL     OW 4255   2.682   1.578   2.547
 1419SOL    HW1 4256   2.692   1.606   2.456
 1419SOL    HW2 4257   2.601   1.528   2.548
 1420SOL     OW 4258   3.316   0.242   2.977
 1420SOL    HW1 4259   3.337   0.158   3.018
 1420SOL    HW2 4260   3.251   0.282   3.035
 1421SOL     OW 4261   2.870   4.032   3.011
 1421SOL    HW1 4262   2.803   3.968   2.989
 1421SOL    HW2 4263   2.951   3.982   3.016
 1422SOL     OW 4264   2.632   1.332   2.167
 1422SOL    HW1 4265   2.594   1.245   2.176
 1422SOL    HW2 4266   2.717   1.326   2.211
 1423SOL     OW 4267   2.481   1.564   3.145
 1423SOL    HW1 4268   2.484   1.643   3.199
 1423SOL    HW2 4269   2.567   1.558   3.105
 1424SOL     OW 4270   3.183   0.070   2.027
 1424SOL    HW1 4271   3.221   0.020   1.955
 1424SOL    HW2 4272   3.105   0.020   2.053
 1425SOL     OW 4273   3.155   0.459   2.552
 1425SOL    HW1 4274   3.103   0.538   2.559
 1425SOL    HW2 4275   3.166   0.429   2.642
 1426SOL     OW 4276   3.451   0.214   2.732
 1426SOL    HW1 4277   3.386   0.226   2.801
 1426SOL    HW2 4278   3.452   0.297   2.685
 1427SOL     OW 4279   1.904   1.077   2.164
 1427SOL    HW1 4280   1.998   1.065   2.151
 1427SOL    HW2 4281   1.872   0.990   2.189
 1428SOL     OW 4282   2.737   1.644   2.209
 1428SOL    HW1 4283   2.668   1.625   2.146
 1428SOL    HW2 4284   2.707   1.723   2.255
 1429SOL     OW 4285   2.083   0.615   3.846
 1429SOL    HW1 4286   1.989   0.631   3.857
 1429SOL    HW2 4287   2.093   0.595   3.753
 1430SOL     OW 4288   3.615   0.606   3.960
 1430SOL    HW1 4289   3.603   0.609   3.865
 1430SOL    HW2 4290   3.603   0.514   3.983
 1431SOL     OW 4291   2.087   1.736   0.198
 1431SOL    HW1 4292   2.150   1.785   0.251
 1431SOL    HW2 4293   2.137   1.708   0.121
 1432SOL     OW 4294   2.455   0.975   3.845
 1432SOL    HW1 4295   2.491   1.041   3.786
 1432SOL    HW2 4296   2.512   0.979   3.922
 1433SOL     OW 4297   1.884   1.597   3.842
 1433SOL    HW1 4298   1.875   1.503   3.854
 1433SOL    HW2 4299   1.863   1.635   3.927
 1434SOL     OW 4300   3.405   0.980   3.906
 1434SOL    HW1 4301   3.331   0.923   3.928
 1434SOL    HW2 4302   3.436   1.012   3.991
 1435SOL     OW 4303   2.447   0.724   3.978
 1435SOL    HW1 4304   2.474   0.797   3.922
 1435SOL    HW2 4305   2.391   0.765   4.045
 1436SOL     OW 4306   2.724   0.349   3.900
 1436SOL    HW1 4307   2.793   0.407   3.870
 1436SOL    HW2 4308   2.763   0.261   3.895
 1437SOL     OW 4309   2.865   1.473   0.198
 1437SOL    HW1 4310   2.806   1.545   0.179
 1437SOL    HW2 4311   2.868   1.468   0.294
 1438SOL     OW 4312   2.183   0.941   3.965
 1438SOL    HW1 4313   2.263   0.974   3.922
 1438SOL    HW2 4314   2.156   0.867   3.911
 1439SOL     OW 4315   2.945   1.810   3.931
 1439SOL    HW1 4316   2.917   1.749   4.000
 1439SOL    HW2 4317   2.982   1.753   3.864
 1440SOL     OW 4318   3.494   1.376   3.799
 1440SOL    HW1 4319   3.456   1.463   3.791
 1440SOL    HW2 4320   3.420   1.316   3.789
 1441SOL     OW 4321   2.320   1.745   0.034
 1441SOL    HW1 4322   2.354   1.787   0.113
 1441SOL    HW2 4323   2.398   1.730  -0.020
 1442SOL     OW 4324   2.514   0.108   3.839
 1442SOL    HW1 4325   2.604   0.100   3.808
 1442SOL    HW2 4326   2.461   0.096   3.761
 1443SOL     OW 4327   3.288   1.188   3.758
 1443SOL    HW1 4328   3.328   1.124   3.816
 1443SOL    HW2 4329   3.208   1.215   3.803
 1444SOL     OW 4330   2.182   0.020   3.887
 1444SOL    HW1 4331   2.216   0.109   3.879
 1444SOL    HW2 4332   2.226  -0.015   3.965
 1445SOL     OW 4333   2.899   0.553   3.725
 1445SOL    HW1 4334   2.851   0.635   3.710
 1445SOL    HW2 4335   2.941   0.566   3.811
 1446SOL     OW 4336   3.713   0.829   0.096
 1446SOL    HW1 4337   3.767   0.769   0.148
 1446SOL    HW2 4338   3.681   0.776   0.024
 1447SOL     OW 4339   2.352   1.398   3.891
 1447SOL    HW1 4340   2.268   1.372   3.930
 1447SOL    HW2 4341   2.333   1.404   3.797
 1448SOL     OW 4342   3.250   0.569   3.793
 1448SOL    HW1 4343   3.206   0.554   3.877
 1448SOL    HW2 4344   3.340   0.541   3.808
 1449SOL     OW 4345   3.423   0.667   0.183
 1449SOL    HW1 4346   3.403   0.709   0.266
 1449SOL    HW2 4347   3.485   0.727   0.141
 1450SOL     OW 4348   3.390   0.273   3.849
 1450SOL    HW1 4349   3.319   0.211   3.867
 1450SOL    HW2 4350   3.404   0.318   3.932
 1451SOL     OW 4351   3.167   0.834   3.767
 1451SOL    HW1 4352   3.198   0.743   3.766
 1451SOL    HW2 4353   3.188   0.867   3.680
 1452SOL     OW 4354   1.872   1.321   3.907
 1452SOL    HW1 4355   1.780   1.339   3.886
 1452SOL    HW2 4356   1.871   1.233   3.944
 1453SOL     OW 4357   2.668   0.575   0.044
 1453SOL    HW1 4358   2.661   0.489   0.002
 1453SOL    HW2 4359   2.581   0.613   0.035
 1454SOL     OW 4360   2.335   0.505   3.887
 1454SOL    HW1 4361   2.392   0.574   3.920
 1454SOL    HW2 4362   2.247   0.536   3.905
 1455SOL     OW 4363   3.569   0.116   0.225
 1455SOL    HW1 4364   3.659   0.126   0.193
 1455SOL    HW2 4365   3.574   0.043   0.287
 1456SOL     OW 4366   2.534   1.612   3.880
 1456SOL    HW1 4367   2.543   1.626   3.785
 1456SOL    HW2 4368   2.487   1.529   3.887
 1457SOL     OW 4369   3.052   1.611   3.764
 1457SOL    HW1 4370   3.063   1.517   3.775
 1457SOL    HW2 4371   3.000   1.620   3.684
 1458SOL     OW 4372   3.362   1.620   3.767
 1458SOL    HW1 4373   3.268   1.635   3.757
 1458SOL    HW2 4374   3.397   1.627   3.678
 1459SOL     OW 4375   2.116   1.362   0.007
 1459SOL    HW1 4376   2.023   1.349  -0.012
 1459SOL    HW2 4377   2.118   1.387   0.099
 1460SOL     OW 4378   1.943   0.345   3.746
 1460SOL    HW1 4379   1.855   0.325   3.714
 1460SOL    HW2 4380   1.970   0.422   3.697
 1461SOL     OW 4381   1.943   0.169   0.052
 1461SOL    HW1 4382   1.920   0.238  -0.010
 1461SOL    HW2 4383   2.019   0.126   0.013
 1462SOL     OW 4384   3.040   1.349   3.842
 1462SOL    HW1 4385   2.952   1.312   3.841
 1462SOL    HW2 4386   3.072   1.333   3.930
 1463SOL     OW 4387   2.720   1.371   3.734
 1463SOL    HW1 4388   2.690   1.385   3.824
 1463SOL    HW2 4389   2.748   1.457   3.704
 1464SOL     OW 4390   2.946   0.994   3.812
 1464SOL    HW1 4391   2.922   1.036   3.729
 1464SOL    HW2 4392   3.017   0.934   3.789
 1465SOL     OW 4393   3.182   0.067   3.872
 1465SOL    HW1 4394   3.233   0.011   3.814
 1465SOL    HW2 4395   3.110   0.011   3.902
 1466SOL     OW 4396   1.909   1.079   0.013
 1466SOL    HW1 4397   2.002   1.059   0.012
 1466SOL    HW2 4398   1.868   1.001   0.050
 1467SOL     OW 4399   2.088   2.498   0.122
 1467SOL    HW1 4400   2.007   2.460   0.156
 1467SOL    HW2 4401   2.093   2.467   0.032
 1468SOL     OW 4402   2.086   2.138   0.990
 1468SOL    HW1 4403   2.116   2.114   1.077
 1468SOL    HW2 4404   1.998   2.102   0.984
 1469SOL     OW 4405   1.872   2.242   0.639
 1469SOL    HW1 4406   1.790   2.264   0.683
 1469SOL    HW2 4407   1.852   2.162   0.590
 1470SOL     OW 4408   2.429   3.137   1.168
 1470SOL    HW1 4409   2.341   3.139   1.131
 1470SOL    HW2 4410   2.441   3.225   1.204
 1471SOL     OW 4411   3.416   3.374   0.702
 1471SOL    HW1 4412   3.367   3.360   0.784
 1471SOL    HW2 4413   3.348   3.381   0.635
 1472SOL     OW 4414   2.992   2.563   0.710
 1472SOL    HW1 4415   3.045   2.641   0.694
 1472SOL    HW2 4416   2.943   2.583   0.790
 1473SOL     OW 4417   3.675   2.443   0.237
 1473SOL    HW1 4418   3.632   2.452   0.152
 1473SOL    HW2 4419   3.618   2.387   0.288
 1474SOL     OW 4420   2.626   3.008   1.031
 1474SOL    HW1 4421   2.554   3.036   1.086
 1474SOL    HW2 4422   2.657   3.088   0.989
 1475SOL     OW 4423   2.716   2.653   1.821
 1475SOL    HW1 4424   2.709   2.726   1.882
 1475SOL    HW2 4425   2.739   2.695   1.738
 1476SOL     OW 4426   2.550   2.877   0.655
 1476SOL    HW1 4427   2.610   2.856   0.726
 1476SOL    HW2 4428   2.477   2.923   0.698
 1477SOL     OW 4429   2.561   3.017   1.805
 1477SOL    HW1 4430   2.610   3.097   1.823
 1477SOL    HW2 4431   2.477   3.048   1.772
 1478SOL     OW 4432   2.194   3.296   1.067
 1478SOL    HW1 4433   2.123   3.263   1.013
 1478SOL    HW2 4434   2.248   3.347   1.007
 1479SOL     OW 4435   3.323   3.362   1.343
 1479SOL    HW1 4436   3.353   3.451   1.361
 1479SOL    HW2 4437   3.291   3.330   1.428
 1480SOL     OW 4438   2.304   2.259   1.497
 1480SOL    HW1 4439   2.380   2.200   1.500
 1480SOL    HW2 4440   2.229   2.200   1.504
 1481SOL     OW 4441   3.473   2.312   0.736
 1481SOL    HW1 4442   3.397   2.347   0.690
 1481SOL    HW2 4443   3.505   2.385   0.789
 1482SOL     OW 4444   2.082   3.577   0.490
 1482SOL    HW1 4445   2.129   3.646   0.537
 1482SOL    HW2 4446   2.134   3.562   0.411
 1483SOL     OW 4447   2.995   3.202   1.689
 1483SOL    HW1 4448   3.034   3.200   1.776
 1483SOL    HW2 4449   2.942   3.123   1.685
 1484SOL     OW 4450   2.091   3.300   0.536
 1484SOL    HW1 4451   2.070   3.393   0.544
 1484SOL    HW2 4452   2.024   3.256   0.588
 1485SOL     OW 4453   2.109   2.952   0.887
 1485SOL    HW1 4454   2.111   2.869   0.935
 1485SOL    HW2 4455   2.052   3.008   0.940
 1486SOL     OW 4456   2.481   3.649   1.435
 1486SOL    HW1 4457   2.396   3.636   1.477
 1486SOL    HW2 4458   2.506   3.739   1.459
 1487SOL     OW 4459   2.472   2.837   0.130
 1487SOL    HW1 4460   2.469   2.923   0.088
 1487SOL    HW2 4461   2.512   2.853   0.216
 1488SOL     OW 4462   3.459   1.978   1.473
 1488SOL    HW1 4463   3.442   2.052   1.415
 1488SOL    HW2 4464   3.451   2.015   1.561
 1489SOL     OW 4465   1.979   2.509   0.561
 1489SOL    HW1 4466   1.946   2.421   0.580
 1489SOL    HW2 4467   1.970   2.556   0.644
 1490SOL     OW 4468   3.704   3.632   0.351
 1490SOL    HW1 4469   3.755   3.593   0.422
 1490SOL    HW2 4470   3.751   3.713   0.330
 1491SOL     OW 4471   1.846   3.456   0.115
 1491SOL    HW1 4472   1.868   3.367   0.142
 1491SOL    HW2 4473   1.880   3.511   0.186
 1492SOL     OW 4474   3.551   2.780   0.626
 1492SOL    HW1 4475   3.641   2.749   0.619
 1492SOL    HW2 4476   3.538   2.835   0.549
 1493SOL     OW 4477   3.506   2.970   0.432
 1493SOL    HW1 4478   3.588   2.982   0.384
 1493SOL    HW2 4479   3.513   3.029   0.507
 1494SOL     OW 4480   1.981   2.601   1.589
 1494SOL    HW1 4481   2.069   2.608   1.625
 1494SOL    HW2 4482   1.949   2.691   1.586
 1495SOL     OW 4483   2.475   3.236   0.732
 1495SOL    HW1 4484   2.428   3.153   0.739
 1495SOL    HW2 4485   2.455   3.267   0.644
 1496SOL     OW 4486   3.154   3.099   1.425
 1496SOL    HW1 4487   3.188   3.030   1.368
 1496SOL    HW2 4488   3.206   3.091   1.505
 1497SOL     OW 4489   2.669   1.861   0.501
 1497SOL    HW1 4490   2.711   1.947   0.493
 1497SOL    HW2 4491   2.577   1.880   0.514
 1498SOL     OW 4492   2.057   2.835   1.264
 1498SOL    HW1 4493   2.140   2.790   1.250
 1498SOL    HW2 4494   1.990   2.773   1.236
 1499SOL     OW 4495   3.393   2.851   0.193
 1499SOL    HW1 4496   3.320   2.795   0.221
 1499SOL    HW2 4497   3.430   2.884   0.275
 1500SOL     OW 4498   3.057   3.659   1.620
 1500SOL    HW1 4499   3.066   3.715   1.543
 1500SOL    HW2 4500   3.061   3.570   1.586
 1501SOL     OW 4501   2.186   2.114   1.799
 1501SOL    HW1 4502   2.242   2.190   1.813
 1501SOL    HW2 4503   2.101   2.139   1.835
 1502SOL     OW 4504   3.326   3.282   0.953
 1502SOL    HW1 4505   3.261   3.291   1.024
 1502SOL    HW2 4506   3.315   3.192   0.923
 1503SOL     OW 4507   3.524   3.586   0.575
 1503SOL    HW1 4508   3.494   3.557   0.489
 1503SOL    HW2 4509   3.504   3.512   0.634
 1504SOL     OW 4510   2.455   2.589   0.269
 1504SOL    HW1 4511   2.481   2.665   0.217
 1504SOL    HW2 4512   2.388   2.622   0.328
 1505SOL     OW 4513   3.144   2.205   0.934
 1505SOL    HW1 4514   3.056   2.168   0.937
 1505SOL    HW2 4515   3.194   2.155   0.998
 1506SOL     OW 4516   3.442   3.530   0.308
 1506SOL    HW1 4517   3.534   3.556   0.306
 1506SOL    HW2 4518   3.422   3.505   0.218
 1507SOL     OW 4519   2.661   2.474   1.457
 1507SOL    HW1 4520   2.628   2.457   1.545
 1507SOL    HW2 4521   2.614   2.412   1.402
 1508SOL     OW 4522   3.256   2.334   1.677
 1508SOL    HW1 4523   3.249   2.376   1.762
 1508SOL    HW2 4524   3.325   2.268   1.687
 1509SOL     OW 4525   2.826   2.752   1.578
 1509SOL    HW1 4526   2.878   2.679   1.546
 1509SOL    HW2 4527   2.779   2.784   1.501
 1510SOL     OW 4528   2.854   2.274   1.242
 1510SOL    HW1 4529   2.775   2.301   1.287
 1510SOL    HW2 4530   2.822   2.225   1.166
 1511SOL     OW 4531   2.908   2.562   0.429
 1511SOL    HW1 4532   2.922   2.555   0.523
 1511SOL    HW2 4533   2.827   2.514   0.414
 1512SOL     OW 4534   1.948   2.680   0.775
 1512SOL    HW1 4535   2.033   2.669   0.817
 1512SOL    HW2 4536   1.913   2.760   0.813
 1513SOL     OW 4537   1.992   3.686   1.574
 1513SOL    HW1 4538   1.982   3.673   1.668
 1513SOL    HW2 4539   1.906   3.716   1.544
 1514SOL     OW 4540   2.746   2.205   0.212
 1514SOL    HW1 4541   2.777   2.264   0.144
 1514SOL    HW2 4542   2.741   2.119   0.169
 1515SOL     OW 4543   3.579   2.444   1.829
 1515SOL    HW1 4544   3.547   2.526   1.791
 1515SOL    HW2 4545   3.585   2.384   1.755
 1516SOL     OW 4546   3.231   3.005   0.543
 1516SOL    HW1 4547   3.310   2.987   0.492
 1516SOL    HW2 4548   3.183   3.068   0.489
 1517SOL     OW 4549   2.409   2.052   0.889
 1517SOL    HW1 4550   2.411   2.069   0.983
 1517SOL    HW2 4551   2.415   2.138   0.849
 1518SOL     OW 4552   2.871   3.322   0.477
 1518SOL    HW1 4553   2.818   3.395   0.445
 1518SOL    HW2 4554   2.868   3.330   0.572
 1519SOL     OW 4555   2.212   3.665   0.847
 1519SOL    HW1 4556   2.263   3.585   0.861
 1519SOL    HW2 4557   2.276   3.736   0.854
 1520SOL     OW 4558   3.661   2.925   0.866
 1520SOL    HW1 4559   3.598   2.913   0.795
 1520SOL    HW2 4560   3.608   2.931   0.945
 1521SOL     OW 4561   3.090   3.407   1.508
 1521SOL    HW1 4562   3.083   3.332   1.568
 1521SOL    HW2 4563   3.033   3.384   1.435
 1522SOL     OW 4564   2.188   2.806   0.252
 1522SOL    HW1 4565   2.258   2.842   0.197
 1522SOL    HW2 4566   2.154   2.732   0.202
 1523SOL     OW 4567   3.331   2.595   0.726
 1523SOL    HW1 4568   3.318   2.544   0.806
 1523SOL    HW2 4569   3.405   2.653   0.746
 1524SOL     OW 4570   2.324   3.123   1.736
 1524SOL    HW1 4571   2.290   3.130   1.647
 1524SOL    HW2 4572   2.246   3.120   1.791
 1525SOL     OW 4573   2.972   3.639   0.225
 1525SOL    HW1 4574   2.920   3.590   0.289
 1525SOL    HW2 4575   3.013   3.571   0.171
 1526SOL     OW 4576   2.061   2.145   1.498
 1526SOL    HW1 4577   1.982   2.199   1.489
 1526SOL    HW2 4578   2.048   2.095   1.578
 1527SOL     OW 4579   3.490   3.238   0.101
 1527SOL    HW1 4580   3.459   3.325   0.073
 1527SOL    HW2 4581   3.423   3.178   0.069
 1528SOL     OW 4582   2.338   3.595   0.334
 1528SOL    HW1 4583   2.365   3.660   0.399
 1528SOL    HW2 4584   2.413   3.589   0.275
 1529SOL     OW 4585   3.264   1.970   0.429
 1529SOL    HW1 4586   3.248   1.943   0.338
 1529SOL    HW2 4587   3.358   1.983   0.433
 1530SOL     OW 4588   2.112   3.651   1.238
 1530SOL    HW1 4589   2.167   3.587   1.283
 1530SOL    HW2 4590   2.101   3.615   1.150
 1531SOL     OW 4591   2.801   3.559   0.904
 1531SOL    HW1 4592   2.877   3.503   0.921
 1531SOL    HW2 4593   2.753   3.514   0.835
 1532SOL     OW 4594   2.247   2.559   0.481
 1532SOL    HW1 4595   2.280   2.469   0.482
 1532SOL    HW2 4596   2.155   2.552   0.504
 1533SOL     OW 4597   3.404   2.090   1.725
 1533SOL    HW1 4598   3.408   2.112   1.818
 1533SOL    HW2 4599   3.338   2.020   1.720
 1534SOL     OW 4600   2.478   1.964   0.120
 1534SOL    HW1 4601   2.574   1.966   0.124
 1534SOL    HW2 4602   2.457   1.983   0.029
 1535SOL     OW 4603   2.636   2.131   1.749
 1535SOL    HW1 4604   2.703   2.069   1.776
 1535SOL    HW2 4605   2.577   2.138   1.824
 1536SOL     OW 4606   2.743   3.380   1.193
 1536SOL    HW1 4607   2.727   3.347   1.105
 1536SOL    HW2 4608   2.807   3.320   1.231
 1537SOL     OW 4609   3.206   2.451   1.432
 1537SOL    HW1 4610   3.237   2.416   1.516
 1537SOL    HW2 4611   3.240   2.541   1.430
 1538SOL     OW 4612   2.669   3.265   0.930
 1538SOL    HW1 4613   2.753   3.263   0.884
 1538SOL    HW2 4614   2.604   3.258   0.861
 1539SOL     OW 4615   2.787   2.369   0.903
 1539SOL    HW1 4616   2.763   2.358   0.811
 1539SOL    HW2 4617   2.825   2.285   0.928
 1540SOL     OW 4618   2.410   1.926   0.512
 1540SOL    HW1 4619   2.328   1.928   0.562
 1540SOL    HW2 4620   2.406   2.003   0.456
 1541SOL     OW 4621   3.291   3.062   0.049
 1541SOL    HW1 4622   3.321   2.988   0.102
 1541SOL    HW2 4623   3.202   3.080   0.081
 1542SOL     OW 4624   2.796   2.100   0.471
 1542SOL    HW1 4625   2.761   2.143   0.393
 1542SOL    HW2 4626   2.891   2.110   0.463
 1543SOL     OW 4627   2.941   2.540   1.462
 1543SOL    HW1 4628   2.868   2.479   1.466
 1543SOL    HW2 4629   3.018   2.485   1.448
 1544SOL     OW 4630   3.088   3.430   0.792
 1544SOL    HW1 4631   3.109   3.502   0.732
 1544SOL    HW2 4632   3.155   3.437   0.861
 1545SOL     OW 4633   2.325   3.008   0.742
 1545SOL    HW1 4634   2.252   2.990   0.800
 1545SOL    HW2 4635   2.292   2.989   0.654
 1546SOL     OW 4636   3.134   3.659   0.597
 1546SOL    HW1 4637   3.175   3.723   0.539
 1546SOL    HW2 4638   3.076   3.711   0.653
 1547SOL     OW 4639   2.935   2.437  -0.002
 1547SOL    HW1 4640   2.846   2.470   0.006
 1547SOL    HW2 4641   2.966   2.428   0.088
 1548SOL     OW 4642   1.936   2.418   1.389
 1548SOL    HW1 4643   2.027   2.417   1.357
 1548SOL    HW2 4644   1.935   2.488   1.454
 1549SOL     OW 4645   2.427   2.087   1.157
 1549SOL    HW1 4646   2.459   2.004   1.192
 1549SOL    HW2 4647   2.336   2.092   1.188
 1550SOL     OW 4648   2.732   2.320   0.640
 1550SOL    HW1 4649   2.690   2.378   0.577
 1550SOL    HW2 4650   2.750   2.239   0.591
 1551SOL     OW 4651   2.877   1.911   0.756
 1551SOL    HW1 4652   2.814   1.905   0.684
 1551SOL    HW2 4653   2.857   1.836   0.811
 1552SOL     OW 4654   3.295   3.028   0.861
 1552SOL    HW1 4655   3.233   2.956   0.856
 1552SOL    HW2 4656   3.316   3.049   0.770
 1553SOL     OW 4657   3.332   2.458   0.988
 1553SOL    HW1 4658   3.292   2.371   0.995
 1553SOL    HW2 4659   3.396   2.461   1.059
 1554SOL     OW 4660   3.715   2.686   0.388
 1554SOL    HW1 4661   3.763   2.625   0.444
 1554SOL    HW2 4662   3.687   2.633   0.313
 1555SOL     OW 4663   2.361   3.264   0.179
 1555SOL    HW1 4664   2.279   3.237   0.220
 1555SOL    HW2 4665   2.342   3.263   0.085
 1556SOL     OW 4666   3.526   3.131   0.658
 1556SOL    HW1 4667   3.621   3.141   0.663
 1556SOL    HW2 4668   3.492   3.218   0.677
 1557SOL     OW 4669   3.224   2.413   0.058
 1557SOL    HW1 4670   3.171   2.400   0.137
 1557SOL    HW2 4671   3.314   2.412   0.089
 1558SOL     OW 4672   2.390   2.121   0.327
 1558SOL    HW1 4673   2.417   2.066   0.253
 1558SOL    HW2 4674   2.381   2.209   0.288
 1559SOL     OW 4675   3.615   3.090   1.584
 1559SOL    HW1 4676   3.704   3.057   1.567
 1559SOL    HW2 4677   3.629   3.181   1.612
 1560SOL     OW 4678   2.928   3.215   1.337
 1560SOL    HW1 4679   2.852   3.185   1.387
 1560SOL    HW2 4680   3.003   3.173   1.381
 1561SOL     OW 4681   3.460   3.489   1.643
 1561SOL    HW1 4682   3.468   3.520   1.554
 1561SOL    HW2 4683   3.544   3.446   1.661
 1562SOL     OW 4684   2.979   3.060   1.106
 1562SOL    HW1 4685   2.927   3.101   1.175
 1562SOL    HW2 4686   2.941   3.093   1.025
 1563SOL     OW 4687   3.499   2.966   1.077
 1563SOL    HW1 4688   3.495   3.030   1.148
 1563SOL    HW2 4689   3.414   2.972   1.033
 1564SOL     OW 4690   2.779   1.959   1.403
 1564SOL    HW1 4691   2.802   1.939   1.312
 1564SOL    HW2 4692   2.857   2.002   1.439
 1565SOL     OW 4693   2.845   2.976   1.720
 1565SOL    HW1 4694   2.751   2.986   1.733
 1565SOL    HW2 4695   2.852   2.898   1.664
 1566SOL     OW 4696   2.569   2.919   0.372
 1566SOL    HW1 4697   2.556   2.911   0.466
 1566SOL    HW2 4698   2.647   2.866   0.354
 1567SOL     OW 4699   2.276   2.674   1.250
 1567SOL    HW1 4700   2.348   2.685   1.312
 1567SOL    HW2 4701   2.239   2.589   1.271
 1568SOL     OW 4702   3.134   2.243   1.267
 1568SOL    HW1 4703   3.160   2.320   1.318
 1568SOL    HW2 4704   3.047   2.266   1.233
 1569SOL     OW 4705   1.928   3.431   1.342
 1569SOL    HW1 4706   1.890   3.507   1.296
 1569SOL    HW2 4707   2.022   3.447   1.340
 1570SOL     OW 4708   2.225   2.964   0.496
 1570SOL    HW1 4709   2.220   3.039   0.437
 1570SOL    HW2 4710   2.225   2.888   0.438
 1571SOL     OW 4711   2.423   2.400   0.864
 1571SOL    HW1 4712   2.440   2.459   0.791
 1571SOL    HW2 4713   2.477   2.433   0.935
 1572SOL     OW 4714   3.112   3.210   0.389
 1572SOL    HW1 4715   3.162   3.283   0.424
 1572SOL    HW2 4716   3.024   3.222   0.424
 1573SOL     OW 4717   3.133   3.313   1.144
 1573SOL    HW1 4718   3.185   3.317   1.224
 1573SOL    HW2 4719   3.078   3.236   1.155
 1574SOL     OW 4720   3.442   2.502   0.473
 1574SOL    HW1 4721   3.408   2.555   0.545
 1574SOL    HW2 4722   3.508   2.558   0.431
 1575SOL     OW 4723   2.213   3.378   1.324
 1575SOL    HW1 4724   2.198   3.337   1.239
 1575SOL    HW2 4725   2.307   3.395   1.326
 1576SOL     OW 4726   2.271   2.610   1.601
 1576SOL    HW1 4727   2.333   2.656   1.544
 1576SOL    HW2 4728   2.312   2.525   1.617
 1577SOL     OW 4729   3.452   2.636   1.672
 1577SOL    HW1 4730   3.366   2.678   1.666
 1577SOL    HW2 4731   3.506   2.682   1.607
 1578SOL     OW 4732   2.862   1.970   1.763
 1578SOL    HW1 4733   2.897   2.048   1.718
 1578SOL    HW2 4734   2.912   1.898   1.726
 1579SOL     OW 4735   2.364   1.911   1.743
 1579SOL    HW1 4736   2.325   1.856   1.676
 1579SOL    HW2 4737   2.297   1.978   1.761
 1580SOL     OW 4738   2.442   2.732   1.031
 1580SOL    HW1 4739   2.474   2.822   1.024
 1580SOL    HW2 4740   2.382   2.733   1.106
 1581SOL     OW 4741   3.225   2.723   1.039
 1581SOL    HW1 4742   3.147   2.719   0.983
 1581SOL    HW2 4743   3.256   2.633   1.044
 1582SOL     OW 4744   3.069   2.393   0.276
 1582SOL    HW1 4745   3.079   2.313   0.326
 1582SOL    HW2 4746   3.031   2.456   0.337
 1583SOL     OW 4747   2.167   2.069   1.241
 1583SOL    HW1 4748   2.134   2.102   1.325
 1583SOL    HW2 4749   2.142   1.977   1.239
 1584SOL     OW 4750   1.906   3.170   1.278
 1584SOL    HW1 4751   1.945   3.123   1.352
 1584SOL    HW2 4752   1.917   3.263   1.300
 1585SOL     OW 4753   2.593   2.496   1.064
 1585SOL    HW1 4754   2.657   2.475   0.996
 1585SOL    HW2 4755   2.564   2.585   1.042
 1586SOL     OW 4756   3.596   2.812   1.854
 1586SOL    HW1 4757   3.546   2.781   1.778
 1586SOL    HW2 4758   3.529   2.832   1.920
 1587SOL     OW 4759   2.165   1.930   0.622
 1587SOL    HW1 4760   2.150   2.020   0.653
 1587SOL    HW2 4761   2.164   1.877   0.701
 1588SOL     OW 4762   3.480   2.236   0.371
 1588SOL    HW1 4763   3.496   2.167   0.436
 1588SOL    HW2 4764   3.442   2.307   0.422
 1589SOL     OW 4765   2.887   2.625   0.965
 1589SOL    HW1 4766   2.894   2.642   1.059
 1589SOL    HW2 4767   2.860   2.533   0.959
 1590SOL     OW 4768   2.845   3.430   1.709
 1590SOL    HW1 4769   2.827   3.474   1.626
 1590SOL    HW2 4770   2.884   3.346   1.684
 1591SOL     OW 4771   3.716   3.378   1.604
 1591SOL    HW1 4772   3.735   3.401   1.513
 1591SOL    HW2 4773   3.796   3.399   1.651
 1592SOL     OW 4774   2.213   2.775   1.806
 1592SOL    HW1 4775   2.295   2.796   1.850
 1592SOL    HW2 4776   2.237   2.716   1.735
 1593SOL     OW 4777   3.380   2.162   0.123
 1593SOL    HW1 4778   3.347   2.073   0.138
 1593SOL    HW2 4779   3.427   2.184   0.204
 1594SOL     OW 4780   3.174   2.695   0.037
 1594SOL    HW1 4781   3.195   2.602   0.048
 1594SOL    HW2 4782   3.163   2.707  -0.057
 1595SOL     OW 4783   2.927   3.197   0.849
 1595SOL    HW1 4784   2.933   3.121   0.792
 1595SOL    HW2 4785   2.992   3.258   0.816
 1596SOL     OW 4786   2.176   2.675   0.951
 1596SOL    HW1 4787   2.269   2.697   0.947
 1596SOL    HW2 4788   2.174   2.588   0.990
 1597SOL     OW 4789   2.198   2.378   1.008
 1597SOL    HW1 4790   2.159   2.292   0.990
 1597SOL    HW2 4791   2.273   2.382   0.948
 1598SOL     OW 4792   2.998   2.244   1.676
 1598SOL    HW1 4793   2.956   2.299   1.742
 1598SOL    HW2 4794   3.087   2.277   1.670
 1599SOL     OW 4795   3.021   2.067   1.472
 1599SOL    HW1 4796   3.016   2.129   1.544
 1599SOL    HW2 4797   3.053   2.119   1.398
 1600SOL     OW 4798   1.867   3.191   0.206
 1600SOL    HW1 4799   1.781   3.205   0.167
 1600SOL    HW2 4800   1.873   3.096   0.219
 1601SOL     OW 4801   1.953   3.656   0.934
 1601SOL    HW1 4802   1.920   3.575   0.894
 1601SOL    HW2 4803   2.041   3.667   0.897
 1602SOL     OW 4804   2.365   3.433   0.905
 1602SOL    HW1 4805   2.433   3.497   0.926
 1602SOL    HW2 4806   2.411   3.362   0.861
 1603SOL     OW 4807   2.858   2.659   1.232
 1603SOL    HW1 4808   2.903   2.630   1.312
 1603SOL    HW2 4809   2.769   2.626   1.241
 1604SOL     OW 4810   1.899   2.404   1.115
 1604SOL    HW1 4811   1.982   2.380   1.073
 1604SOL    HW2 4812   1.922   2.415   1.208
 1605SOL     OW 4813   2.053   2.379   1.723
 1605SOL    HW1 4814   2.109   2.346   1.653
 1605SOL    HW2 4815   1.998   2.445   1.682
 1606SOL     OW 4816   3.237   2.807   1.661
 1606SOL    HW1 4817   3.259   2.900   1.667
 1606SOL    HW2 4818   3.237   2.789   1.566
 1607SOL     OW 4819   2.674   2.430   0.353
 1607SOL    HW1 4820   2.685   2.357   0.291
 1607SOL    HW2 4821   2.596   2.477   0.321
 1608SOL     OW 4822   3.507   2.463   1.195
 1608SOL    HW1 4823   3.490   2.400   1.265
 1608SOL    HW2 4824   3.593   2.438   1.161
 1609SOL     OW 4825   2.114   3.419   1.737
 1609SOL    HW1 4826   2.085   3.478   1.807
 1609SOL    HW2 4827   2.107   3.331   1.775
 1610SOL     OW 4828   2.546   2.321   1.267
 1610SOL    HW1 4829   2.502   2.243   1.234
 1610SOL    HW2 4830   2.553   2.379   1.192
 1611SOL     OW 4831   2.797   3.537   1.464
 1611SOL    HW1 4832   2.767   3.517   1.375
 1611SOL    HW2 4833   2.804   3.633   1.465
 1612SOL     OW 4834   2.333   2.357   0.201
 1612SOL    HW1 4835   2.389   2.434   0.210
 1612SOL    HW2 4836   2.245   2.393   0.194
 1613SOL     OW 4837   2.014   3.000   1.468
 1613SOL    HW1 4838   2.030   2.943   1.543
 1613SOL    HW2 4839   2.030   2.945   1.392
 1614SOL     OW 4840   3.200   2.914   1.230
 1614SOL    HW1 4841   3.224   2.855   1.158
 1614SOL    HW2 4842   3.121   2.958   1.198
 1615SOL     OW 4843   3.169   2.715   0.310
 1615SOL    HW1 4844   3.087   2.688   0.353
 1615SOL    HW2 4845   3.152   2.705   0.217
 1616SOL     OW 4846   3.624   3.613   1.148
 1616SOL    HW1 4847   3.684   3.635   1.077
 1616SOL    HW2 4848   3.600   3.522   1.130
 1617SOL     OW 4849   3.108   3.594   1.124
 1617SOL    HW1 4850   3.190   3.603   1.074
 1617SOL    HW2 4851   3.101   3.501   1.141
 1618SOL     OW 4852   1.946   3.124   1.018
 1618SOL    HW1 4853   1.934   3.130   1.113
 1618SOL    HW2 4854   1.868   3.077   0.987
 1619SOL     OW 4855   2.542   3.523   1.717
 1619SOL    HW1 4856   2.495   3.605   1.722
 1619SOL    HW2 4857   2.599   3.532   1.641
 1620SOL     OW 4858   2.767   1.948   0.125
 1620SOL    HW1 4859   2.822   1.938   0.047
 1620SOL    HW2 4860   2.817   1.908   0.196
 1621SOL     OW 4861   3.583   1.999   0.522
 1621SOL    HW1 4862   3.657   1.986   0.463
 1621SOL    HW2 4863   3.566   1.912   0.559
 1622SOL     OW 4864   3.250   3.431   0.478
 1622SOL    HW1 4865   3.313   3.457   0.410
 1622SOL    HW2 4866   3.210   3.514   0.506
 1623SOL     OW 4867   1.995   3.659   1.844
 1623SOL    HW1 4868   1.947   3.592   1.894
 1623SOL    HW2 4869   2.047   3.705   1.910
 1624SOL     OW 4870   3.139   2.785   0.671
 1624SOL    HW1 4871   3.210   2.720   0.673
 1624SOL    HW2 4872   3.174   2.857   0.619
 1625SOL     OW 4873   2.687   3.133   1.430
 1625SOL    HW1 4874   2.669   3.170   1.516
 1625SOL    HW2 4875   2.610   3.155   1.378
 1626SOL     OW 4876   2.547   3.466   0.159
 1626SOL    HW1 4877   2.544   3.481   0.065
 1626SOL    HW2 4878   2.489   3.391   0.174
 1627SOL     OW 4879   3.506   3.586   1.394
 1627SOL    HW1 4880   3.551   3.597   1.310
 1627SOL    HW2 4881   3.488   3.676   1.422
 1628SOL     OW 4882   3.699   2.037   0.970
 1628SOL    HW1 4883   3.733   1.955   0.934
 1628SOL    HW2 4884   3.612   2.047   0.931
 1629SOL     OW 4885   2.130   2.183   0.721
 1629SOL    HW1 4886   2.048   2.221   0.691
 1629SOL    HW2 4887   2.118   2.172   0.815
 1630SOL     OW 4888   3.073   3.453   0.047
 1630SOL    HW1 4889   3.067   3.363   0.080
 1630SOL    HW2 4890   3.038   3.449  -0.042
 1631SOL     OW 4891   2.687   2.867   1.372
 1631SOL    HW1 4892   2.726   2.866   1.285
 1631SOL    HW2 4893   2.690   2.958   1.399
 1632SOL     OW 4894   2.779   2.775   0.292
 1632SOL    HW1 4895   2.839   2.804   0.223
 1632SOL    HW2 4896   2.820   2.697   0.329
 1633SOL     OW 4897   3.368   3.483   0.046
 1633SOL    HW1 4898   3.272   3.490   0.044
 1633SOL    HW2 4899   3.395   3.488  -0.045
 1634SOL     OW 4900   2.232   3.157   1.492
 1634SOL    HW1 4901   2.218   3.239   1.444
 1634SOL    HW2 4902   2.154   3.105   1.473
 1635SOL     OW 4903   3.470   3.146   1.285
 1635SOL    HW1 4904   3.535   3.150   1.356
 1635SOL    HW2 4905   3.411   3.219   1.303
 1636SOL     OW 4906   2.904   2.963   0.701
 1636SOL    HW1 4907   2.836   2.913   0.744
 1636SOL    HW2 4908   2.962   2.897   0.662
 1637SOL     OW 4909   2.880   2.101   0.966
 1637SOL    HW1 4910   2.871   2.055   0.883
 1637SOL    HW2 4911   2.874   2.032   1.032
 1638SOL     OW 4912   2.463   3.355   0.485
 1638SOL    HW1 4913   2.491   3.296   0.415
 1638SOL    HW2 4914   2.401   3.415   0.443
 1639SOL     OW 4915   3.577   2.250   1.381
 1639SOL    HW1 4916   3.647   2.316   1.377
 1639SOL    HW2 4917   3.606   2.180   1.323
 1640SOL     OW 4918   2.120   3.215   0.288
 1640SOL    HW1 4919   2.027   3.207   0.267
 1640SOL    HW2 4920   2.121   3.253   0.376
 1641SOL     OW 4921   1.972   2.876   1.723
 1641SOL    HW1 4922   1.897   2.849   1.776
 1641SOL    HW2 4923   2.048   2.841   1.769
 1642SOL     OW 4924   2.532   2.059   1.495
 1642SOL    HW1 4925   2.617   2.044   1.453
 1642SOL    HW2 4926   2.554   2.078   1.586
 1643SOL     OW 4927   1.922   2.222   0.046
 1643SOL    HW1 4928   1.856   2.166   0.005
 1643SOL    HW2 4929   1.972   2.258  -0.027
 1644SOL     OW 4930   3.298   2.720   1.402
 1644SOL    HW1 4931   3.248   2.775   1.341
 1644SOL    HW2 4932   3.389   2.726   1.371
 1645SOL     OW 4933   1.952   2.024   0.319
 1645SOL    HW1 4934   1.929   2.108   0.279
 1645SOL    HW2 4935   2.042   2.008   0.291
 1646SOL     OW 4936   3.061   3.179   0.115
 1646SOL    HW1 4937   2.966   3.184   0.124
 1646SOL    HW2 4938   3.095   3.191   0.204
 1647SOL     OW 4939   2.477   2.698   1.430
 1647SOL    HW1 4940   2.532   2.775   1.417
 1647SOL    HW2 4941   2.539   2.625   1.437
 1648SOL     OW 4942   3.350   3.635   0.967
 1648SOL    HW1 4943   3.384   3.689   0.896
 1648SOL    HW2 4944   3.425   3.622   1.025
 1649SOL     OW 4945   2.577   2.427   1.709
 1649SOL    HW1 4946   2.605   2.490   1.775
 1649SOL    HW2 4947   2.629   2.349   1.727
 1650SOL     OW 4948   3.322   3.072   1.634
 1650SOL    HW1 4949   3.313   3.080   1.729
 1650SOL    HW2 4950   3.416   3.078   1.618
 1651SOL     OW 4951   2.247   3.603   1.561
 1651SOL    HW1 4952   2.158   3.638   1.553
 1651SOL    HW2 4953   2.236   3.516   1.598
 1652SOL     OW 4954   3.533   2.745   1.257
 1652SOL    HW1 4955   3.522   2.660   1.215
 1652SOL    HW2 4956   3.531   2.808   1.185
 1653SOL     OW 4957   3.084   2.183   0.455
 1653SOL    HW1 4958   3.150   2.114   0.444
 1653SOL    HW2 4959   3.111   2.230   0.534
 1654SOL     OW 4960   2.455   2.607   0.662
 1654SOL    HW1 4961   2.497   2.690   0.640
 1654SOL    HW2 4962   2.379   2.603   0.602
 1655SOL     OW 4963   3.633   2.216   1.645
 1655SOL    HW1 4964   3.614   2.229   1.553
 1655SOL    HW2 4965   3.561   2.163   1.678
 1656SOL     OW 4966   3.604   2.796   1.515
 1656SOL    HW1 4967   3.616   2.890   1.525
 1656SOL    HW2 4968   3.587   2.784   1.421
 1657SOL     OW 4969   2.697   3.242   0.003
 1657SOL    HW1 4970   2.675   3.232   0.096
 1657SOL    HW2 4971   2.759   3.315   0.000
 1658SOL     OW 4972   2.520   3.656   0.953
 1658SOL    HW1 4973   2.490   3.744   0.930
 1658SOL    HW2 4974   2.615   3.659   0.943
 1659SOL     OW 4975   2.725   2.823   0.858
 1659SOL    HW1 4976   2.776   2.755   0.903
 1659SOL    HW2 4977   2.695   2.881   0.929
 1660SOL     OW 4978   2.947   2.852   0.089
 1660SOL    HW1 4979   2.922   2.882   0.002
 1660SOL    HW2 4980   3.022   2.795   0.074
 1661SOL     OW 4981   3.724   3.423   0.845
 1661SOL    HW1 4982   3.648   3.411   0.788
 1661SOL    HW2 4983   3.717   3.354   0.911
 1662SOL     OW 4984   2.085   3.170   1.852
 1662SOL    HW1 4985   2.017   3.107   1.828
 1662SOL    HW2 4986   2.074   3.183   1.946
 1663SOL     OW 4987   1.944   3.102   0.659
 1663SOL    HW1 4988   1.944   3.051   0.740
 1663SOL    HW2 4989   2.016   3.066   0.608
 1664SOL     OW 4990   2.538   3.258   1.622
 1664SOL    HW1 4991   2.460   3.214   1.655
 1664SOL    HW2 4992   2.533   3.346   1.659
 1665SOL     OW 4993   3.680   2.050   1.237
 1665SOL    HW1 4994   3.681   1.957   1.258
 1665SOL    HW2 4995   3.689   2.054   1.142
 1666SOL     OW 4996   2.291   2.293   0.522
 1666SOL    HW1 4997   2.319   2.221   0.465
 1666SOL    HW2 4998   2.249   2.249   0.596
 1667SOL     OW 4999   3.564   3.356   1.107
 1667SOL    HW1 5000   3.482   3.323   1.070
 1667SOL    HW2 5001   3.587   3.292   1.175
 1668SOL     OW 5002   2.184   2.410   1.287
 1668SOL    HW1 5003   2.235   2.354   1.345
 1668SOL    HW2 5004   2.212   2.385   1.199
 1669SOL     OW 5005   2.683   3.439   0.685
 1669SOL    HW1 5006   2.689   3.470   0.594
 1669SOL    HW2 5007   2.600   3.390   0.687
 1670SOL     OW 5008   3.292   2.081   1.117
 1670SOL    HW1 5009   3.330   2.011   1.169
 1670SOL    HW2 5010   3.240   2.132   1.179
 1671SOL     OW 5011   2.867   1.889   1.151
 1671SOL    HW1 5012   2.811   1.818   1.117
 1671SOL    HW2 5013   2.955   1.852   1.151
 1672SOL     OW 5014   2.631   3.190   0.306
 1672SOL    HW1 5015   2.590   3.105   0.318
 1672SOL    HW2 5016   2.717   3.182   0.346
 1673SOL     OW 5017   2.481   3.426   1.283
 1673SOL    HW1 5018   2.484   3.505   1.336
 1673SOL    HW2 5019   2.567   3.420   1.243
 1674SOL     OW 5020   3.218   1.906   0.175
 1674SOL    HW1 5021   3.239   1.888   0.083
 1674SOL    HW2 5022   3.127   1.878   0.184
 1675SOL     OW 5023   3.162   2.320   0.687
 1675SOL    HW1 5024   3.104   2.396   0.697
 1675SOL    HW2 5025   3.164   2.280   0.775
 1676SOL     OW 5026   3.451   2.074   0.878
 1676SOL    HW1 5027   3.377   2.086   0.938
 1676SOL    HW2 5028   3.452   2.153   0.825
 1677SOL     OW 5029   1.903   2.938   0.312
 1677SOL    HW1 5030   1.996   2.928   0.292
 1677SOL    HW2 5031   1.873   2.850   0.334
 1678SOL     OW 5032   2.732   3.514   0.351
 1678SOL    HW1 5033   2.659   3.493   0.292
 1678SOL    HW2 5034   2.704   3.593   0.397
 1679SOL     OW 5035   2.093   2.488   1.980
 1679SOL    HW1 5036   2.002   2.487   2.011
 1679SOL    HW2 5037   2.088   2.456   1.890
 1680SOL     OW 5038   2.086   2.138   2.852
 1680SOL    HW1 5039   2.116   2.114   2.939
 1680SOL    HW2 5040   1.998   2.102   2.846
 1681SOL     OW 5041   1.872   2.241   2.500
 1681SOL    HW1 5042   1.790   2.264   2.545
 1681SOL    HW2 5043   1.851   2.162   2.452
 1682SOL     OW 5044   2.429   3.137   3.030
 1682SOL    HW1 5045   2.341   3.139   2.993
 1682SOL    HW2 5046   2.441   3.225   3.066
 1683SOL     OW 5047   3.416   3.374   2.565
 1683SOL    HW1 5048   3.367   3.359   2.646
 1683SOL    HW2 5049   3.348   3.381   2.497
 1684SOL     OW 5050   2.991   2.563   2.572
 1684SOL    HW1 5051   3.045   2.641   2.556
 1684SOL    HW2 5052   2.943   2.584   2.652
 1685SOL     OW 5053   3.622   2.470   2.096
 1685SOL    HW1 5054   3.605   2.459   2.002
 1685SOL    HW2 5055   3.589   2.390   2.136
 1686SOL     OW 5056   2.626   3.008   2.893
 1686SOL    HW1 5057   2.553   3.036   2.948
 1686SOL    HW2 5058   2.657   3.088   2.850
 1687SOL     OW 5059   2.716   2.655   3.684
 1687SOL    HW1 5060   2.712   2.730   3.743
 1687SOL    HW2 5061   2.739   2.692   3.599
 1688SOL     OW 5062   2.549   2.876   2.517
 1688SOL    HW1 5063   2.611   2.856   2.588
 1688SOL    HW2 5064   2.478   2.923   2.560
 1689SOL     OW 5065   2.561   3.018   3.669
 1689SOL    HW1 5066   2.611   3.098   3.683
 1689SOL    HW2 5067   2.476   3.048   3.634
 1690SOL     OW 5068   2.194   3.296   2.929
 1690SOL    HW1 5069   2.123   3.263   2.875
 1690SOL    HW2 5070   2.248   3.347   2.869
 1691SOL     OW 5071   3.323   3.362   3.205
 1691SOL    HW1 5072   3.353   3.451   3.223
 1691SOL    HW2 5073   3.293   3.330   3.290
 1692SOL     OW 5074   2.304   2.259   3.358
 1692SOL    HW1 5075   2.380   2.201   3.363
 1692SOL    HW2 5076   2.229   2.200   3.366
 1693SOL     OW 5077   3.473   2.312   2.599
 1693SOL    HW1 5078   3.398   2.348   2.551
 1693SOL    HW2 5079   3.506   2.385   2.650
 1694SOL     OW 5080   2.084   3.579   2.342
 1694SOL    HW1 5081   2.125   3.644   2.399
 1694SOL    HW2 5082   2.144   3.573   2.267
 1695SOL     OW 5083   2.995   3.202   3.551
 1695SOL    HW1 5084   3.036   3.197   3.638
 1695SOL    HW2 5085   2.941   3.123   3.546
 1696SOL     OW 5086   2.090   3.300   2.395
 1696SOL    HW1 5087   2.070   3.393   2.405
 1696SOL    HW2 5088   2.025   3.256   2.451
 1697SOL     OW 5089   2.109   2.952   2.750
 1697SOL    HW1 5090   2.111   2.869   2.797
 1697SOL    HW2 5091   2.052   3.008   2.802
 1698SOL     OW 5092   2.481   3.649   3.298
 1698SOL    HW1 5093   2.396   3.636   3.339
 1698SOL    HW2 5094   2.506   3.739   3.320
 1699SOL     OW 5095   2.457   2.835   1.990
 1699SOL    HW1 5096   2.489   2.900   1.927
 1699SOL    HW2 5097   2.505   2.856   2.071
 1700SOL     OW 5098   3.459   1.978   3.335
 1700SOL    HW1 5099   3.442   2.052   3.277
 1700SOL    HW2 5100   3.451   2.015   3.423
 1701SOL     OW 5101   1.980   2.508   2.423
 1701SOL    HW1 5102   1.945   2.421   2.442
 1701SOL    HW2 5103   1.970   2.556   2.506
 1702SOL     OW 5104   3.702   3.625   2.208
 1702SOL    HW1 5105   3.756   3.598   2.282
 1702SOL    HW2 5106   3.734   3.713   2.186
 1703SOL     OW 5107   1.886   3.459   1.984
 1703SOL    HW1 5108   1.873   3.367   2.004
 1703SOL    HW2 5109   1.861   3.506   2.064
 1704SOL     OW 5110   3.552   2.782   2.490
 1704SOL    HW1 5111   3.641   2.748   2.480
 1704SOL    HW2 5112   3.537   2.834   2.411
 1705SOL     OW 5113   3.506   2.971   2.294
 1705SOL    HW1 5114   3.588   2.982   2.247
 1705SOL    HW2 5115   3.513   3.028   2.370
 1706SOL     OW 5116   1.981   2.601   3.451
 1706SOL    HW1 5117   2.070   2.609   3.486
 1706SOL    HW2 5118   1.949   2.691   3.448
 1707SOL     OW 5119   2.474   3.236   2.594
 1707SOL    HW1 5120   2.428   3.153   2.601
 1707SOL    HW2 5121   2.455   3.267   2.506
 1708SOL     OW 5122   3.153   3.098   3.288
 1708SOL    HW1 5123   3.188   3.030   3.230
 1708SOL    HW2 5124   3.206   3.091   3.367
 1709SOL     OW 5125   2.669   1.860   2.362
 1709SOL    HW1 5126   2.711   1.946   2.356
 1709SOL    HW2 5127   2.577   1.879   2.376
 1710SOL     OW 5128   2.057   2.835   3.126
 1710SOL    HW1 5129   2.140   2.790   3.112
 1710SOL    HW2 5130   1.990   2.773   3.098
 1711SOL     OW 5131   3.394   2.854   2.054
 1711SOL    HW1 5132   3.325   2.791   2.077
 1711SOL    HW2 5133   3.430   2.882   2.138
 1712SOL     OW 5134   3.059   3.658   3.483
 1712SOL    HW1 5135   3.066   3.715   3.406
 1712SOL    HW2 5136   3.061   3.569   3.447
 1713SOL     OW 5137   2.184   2.117   3.655
 1713SOL    HW1 5138   2.243   2.188   3.680
 1713SOL    HW2 5139   2.102   2.138   3.699
 1714SOL     OW 5140   3.326   3.282   2.816
 1714SOL    HW1 5141   3.261   3.291   2.885
 1714SOL    HW2 5142   3.315   3.192   2.785
 1715SOL     OW 5143   3.525   3.586   2.438
 1715SOL    HW1 5144   3.496   3.557   2.351
 1715SOL    HW2 5145   3.504   3.512   2.495
 1716SOL     OW 5146   2.457   2.588   2.126
 1716SOL    HW1 5147   2.473   2.663   2.069
 1716SOL    HW2 5148   2.389   2.618   2.187
 1717SOL     OW 5149   3.144   2.205   2.796
 1717SOL    HW1 5150   3.056   2.168   2.799
 1717SOL    HW2 5151   3.194   2.155   2.860
 1718SOL     OW 5152   3.441   3.529   2.169
 1718SOL    HW1 5153   3.529   3.566   2.167
 1718SOL    HW2 5154   3.423   3.506   2.079
 1719SOL     OW 5155   2.661   2.474   3.319
 1719SOL    HW1 5156   2.629   2.457   3.407
 1719SOL    HW2 5157   2.614   2.412   3.264
 1720SOL     OW 5158   3.256   2.334   3.537
 1720SOL    HW1 5159   3.247   2.375   3.623
 1720SOL    HW2 5160   3.324   2.268   3.550
 1721SOL     OW 5161   2.826   2.752   3.440
 1721SOL    HW1 5162   2.878   2.679   3.408
 1721SOL    HW2 5163   2.779   2.784   3.362
 1722SOL     OW 5164   2.854   2.274   3.104
 1722SOL    HW1 5165   2.775   2.301   3.149
 1722SOL    HW2 5166   2.822   2.225   3.028
 1723SOL     OW 5167   2.909   2.562   2.290
 1723SOL    HW1 5168   2.923   2.556   2.385
 1723SOL    HW2 5169   2.827   2.514   2.275
 1724SOL     OW 5170   1.948   2.680   2.637
 1724SOL    HW1 5171   2.033   2.669   2.679
 1724SOL    HW2 5172   1.912   2.760   2.675
 1725SOL     OW 5173   1.992   3.687   3.436
 1725SOL    HW1 5174   1.983   3.673   3.530
 1725SOL    HW2 5175   1.905   3.715   3.407
 1726SOL     OW 5176   2.735   2.207   2.055
 1726SOL    HW1 5177   2.788   2.266   2.003
 1726SOL    HW2 5178   2.758   2.119   2.024
 1727SOL     OW 5179   3.579   2.446   3.692
 1727SOL    HW1 5180   3.547   2.527   3.652
 1727SOL    HW2 5181   3.585   2.384   3.619
 1728SOL     OW 5182   3.232   3.006   2.406
 1728SOL    HW1 5183   3.309   2.986   2.353
 1728SOL    HW2 5184   3.182   3.068   2.352
 1729SOL     OW 5185   2.409   2.052   2.751
 1729SOL    HW1 5186   2.411   2.068   2.845
 1729SOL    HW2 5187   2.415   2.139   2.711
 1730SOL     OW 5188   2.873   3.312   2.338
 1730SOL    HW1 5189   2.828   3.381   2.290
 1730SOL    HW2 5190   2.864   3.337   2.430
 1731SOL     OW 5191   2.212   3.664   2.708
 1731SOL    HW1 5192   2.263   3.585   2.723
 1731SOL    HW2 5193   2.276   3.735   2.717
 1732SOL     OW 5194   3.661   2.926   2.728
 1732SOL    HW1 5195   3.599   2.912   2.657
 1732SOL    HW2 5196   3.607   2.931   2.807
 1733SOL     OW 5197   3.089   3.407   3.371
 1733SOL    HW1 5198   3.084   3.331   3.429
 1733SOL    HW2 5199   3.034   3.384   3.296
 1734SOL     OW 5200   2.183   2.812   2.105
 1734SOL    HW1 5201   2.265   2.836   2.062
 1734SOL    HW2 5202   2.156   2.731   2.062
 1735SOL     OW 5203   3.330   2.596   2.589
 1735SOL    HW1 5204   3.319   2.544   2.669
 1735SOL    HW2 5205   3.405   2.652   2.607
 1736SOL     OW 5206   2.324   3.123   3.598
 1736SOL    HW1 5207   2.290   3.130   3.509
 1736SOL    HW2 5208   2.246   3.121   3.653
 1737SOL     OW 5209   2.975   3.640   2.090
 1737SOL    HW1 5210   2.916   3.588   2.145
 1737SOL    HW2 5211   3.000   3.581   2.019
 1738SOL     OW 5212   2.061   2.145   3.359
 1738SOL    HW1 5213   1.982   2.198   3.352
 1738SOL    HW2 5214   2.049   2.095   3.440
 1739SOL     OW 5215   3.493   3.240   1.951
 1739SOL    HW1 5216   3.454   3.325   1.932
 1739SOL    HW2 5217   3.423   3.177   1.930
 1740SOL     OW 5218   2.330   3.596   2.185
 1740SOL    HW1 5219   2.362   3.655   2.254
 1740SOL    HW2 5220   2.403   3.588   2.125
 1741SOL     OW 5221   3.263   1.971   2.289
 1741SOL    HW1 5222   3.246   1.941   2.200
 1741SOL    HW2 5223   3.358   1.979   2.295
 1742SOL     OW 5224   2.113   3.651   3.100
 1742SOL    HW1 5225   2.167   3.587   3.145
 1742SOL    HW2 5226   2.101   3.615   3.012
 1743SOL     OW 5227   2.801   3.559   2.766
 1743SOL    HW1 5228   2.877   3.503   2.782
 1743SOL    HW2 5229   2.753   3.514   2.697
 1744SOL     OW 5230   2.248   2.559   2.343
 1744SOL    HW1 5231   2.279   2.469   2.345
 1744SOL    HW2 5232   2.155   2.553   2.365
 1745SOL     OW 5233   3.403   2.091   3.588
 1745SOL    HW1 5234   3.408   2.111   3.681
 1745SOL    HW2 5235   3.339   2.020   3.582
 1746SOL     OW 5236   2.482   1.988   1.974
 1746SOL    HW1 5237   2.568   1.948   1.981
 1746SOL    HW2 5238   2.447   1.956   1.891
 1747SOL     OW 5239   2.634   2.129   3.610
 1747SOL    HW1 5240   2.703   2.070   3.640
 1747SOL    HW2 5241   2.578   2.142   3.686
 1748SOL     OW 5242   2.743   3.380   3.055
 1748SOL    HW1 5243   2.727   3.347   2.967
 1748SOL    HW2 5244   2.807   3.320   3.093
 1749SOL     OW 5245   3.206   2.451   3.294
 1749SOL    HW1 5246   3.237   2.417   3.378
 1749SOL    HW2 5247   3.240   2.541   3.291
 1750SOL     OW 5248   2.669   3.265   2.792
 1750SOL    HW1 5249   2.753   3.264   2.746
 1750SOL    HW2 5250   2.604   3.258   2.722
 1751SOL     OW 5251   2.787   2.369   2.765
 1751SOL    HW1 5252   2.763   2.358   2.673
 1751SOL    HW2 5253   2.826   2.285   2.790
 1752SOL     OW 5254   2.408   1.924   2.372
 1752SOL    HW1 5255   2.327   1.927   2.423
 1752SOL    HW2 5256   2.405   2.003   2.318
 1753SOL     OW 5257   3.291   3.057   1.901
 1753SOL    HW1 5258   3.324   2.983   1.953
 1753SOL    HW2 5259   3.205   3.076   1.938
 1754SOL     OW 5260   2.157   1.904   2.041
 1754SOL    HW1 5261   2.212   1.975   2.011
 1754SOL    HW2 5262   2.217   1.841   2.080
 1755SOL     OW 5263   2.795   2.101   2.334
 1755SOL    HW1 5264   2.761   2.144   2.256
 1755SOL    HW2 5265   2.891   2.107   2.325
 1756SOL     OW 5266   2.941   2.541   3.323
 1756SOL    HW1 5267   2.868   2.479   3.329
 1756SOL    HW2 5268   3.018   2.485   3.310
 1757SOL     OW 5269   3.088   3.431   2.655
 1757SOL    HW1 5270   3.109   3.501   2.593
 1757SOL    HW2 5271   3.155   3.437   2.723
 1758SOL     OW 5272   2.325   3.008   2.604
 1758SOL    HW1 5273   2.252   2.990   2.662
 1758SOL    HW2 5274   2.292   2.989   2.516
 1759SOL     OW 5275   3.136   3.660   2.460
 1759SOL    HW1 5276   3.174   3.724   2.400
 1759SOL    HW2 5277   3.075   3.711   2.514
 1760SOL     OW 5278   2.893   2.411   1.877
 1760SOL    HW1 5279   2.852   2.494   1.852
 1760SOL    HW2 5280   2.953   2.434   1.948
 1761SOL     OW 5281   1.936   2.418   3.251
 1761SOL    HW1 5282   2.027   2.417   3.219
 1761SOL    HW2 5283   1.935   2.489   3.316
 1762SOL     OW 5284   2.426   2.087   3.019
 1762SOL    HW1 5285   2.459   2.004   3.055
 1762SOL    HW2 5286   2.336   2.092   3.050
 1763SOL     OW 5287   2.732   2.320   2.503
 1763SOL    HW1 5288   2.690   2.378   2.440
 1763SOL    HW2 5289   2.750   2.240   2.454
 1764SOL     OW 5290   2.876   1.911   2.618
 1764SOL    HW1 5291   2.814   1.904   2.545
 1764SOL    HW2 5292   2.857   1.836   2.673
 1765SOL     OW 5293   3.295   3.028   2.723
 1765SOL    HW1 5294   3.233   2.956   2.718
 1765SOL    HW2 5295   3.316   3.049   2.632
 1766SOL     OW 5296   3.332   2.458   2.850
 1766SOL    HW1 5297   3.292   2.371   2.857
 1766SOL    HW2 5298   3.396   2.461   2.921
 1767SOL     OW 5299   3.719   2.687   2.239
 1767SOL    HW1 5300   3.762   2.627   2.300
 1767SOL    HW2 5301   3.683   2.631   2.170
 1768SOL     OW 5302   2.356   3.263   2.030
 1768SOL    HW1 5303   2.277   3.236   2.078
 1768SOL    HW2 5304   2.328   3.264   1.939
 1769SOL     OW 5305   3.526   3.131   2.519
 1769SOL    HW1 5306   3.621   3.142   2.525
 1769SOL    HW2 5307   3.491   3.218   2.539
 1770SOL     OW 5308   3.254   2.435   1.934
 1770SOL    HW1 5309   3.198   2.416   2.010
 1770SOL    HW2 5310   3.340   2.399   1.958
 1771SOL     OW 5311   2.389   2.123   2.188
 1771SOL    HW1 5312   2.420   2.069   2.115
 1771SOL    HW2 5313   2.380   2.211   2.151
 1772SOL     OW 5314   3.615   3.090   3.445
 1772SOL    HW1 5315   3.704   3.058   3.430
 1772SOL    HW2 5316   3.628   3.180   3.476
 1773SOL     OW 5317   2.928   3.215   3.200
 1773SOL    HW1 5318   2.852   3.184   3.249
 1773SOL    HW2 5319   3.003   3.173   3.243
 1774SOL     OW 5320   3.460   3.489   3.506
 1774SOL    HW1 5321   3.469   3.520   3.416
 1774SOL    HW2 5322   3.543   3.446   3.525
 1775SOL     OW 5323   2.979   3.060   2.969
 1775SOL    HW1 5324   2.927   3.101   3.037
 1775SOL    HW2 5325   2.942   3.092   2.887
 1776SOL     OW 5326   3.499   2.965   2.940
 1776SOL    HW1 5327   3.495   3.030   3.010
 1776SOL    HW2 5328   3.414   2.972   2.895
 1777SOL     OW 5329   2.779   1.959   3.265
 1777SOL    HW1 5330   2.802   1.939   3.174
 1777SOL    HW2 5331   2.857   2.002   3.300
 1778SOL     OW 5332   2.845   2.975   3.582
 1778SOL    HW1 5333   2.751   2.987   3.594
 1778SOL    HW2 5334   2.853   2.899   3.525
 1779SOL     OW 5335   2.569   2.919   2.234
 1779SOL    HW1 5336   2.556   2.910   2.328
 1779SOL    HW2 5337   2.646   2.866   2.215
 1780SOL     OW 5338   2.276   2.674   3.112
 1780SOL    HW1 5339   2.348   2.685   3.174
 1780SOL    HW2 5340   2.239   2.588   3.133
 1781SOL     OW 5341   3.134   2.243   3.129
 1781SOL    HW1 5342   3.160   2.320   3.180
 1781SOL    HW2 5343   3.047   2.266   3.095
 1782SOL     OW 5344   1.928   3.431   3.203
 1782SOL    HW1 5345   1.890   3.507   3.158
 1782SOL    HW2 5346   2.022   3.447   3.202
 1783SOL     OW 5347   2.223   2.964   2.358
 1783SOL    HW1 5348   2.222   3.039   2.299
 1783SOL    HW2 5349   2.225   2.888   2.301
 1784SOL     OW 5350   2.423   2.400   2.725
 1784SOL    HW1 5351   2.440   2.460   2.653
 1784SOL    HW2 5352   2.477   2.433   2.797
 1785SOL     OW 5353   3.110   3.209   2.251
 1785SOL    HW1 5354   3.162   3.283   2.285
 1785SOL    HW2 5355   3.022   3.224   2.285
 1786SOL     OW 5356   3.133   3.314   3.006
 1786SOL    HW1 5357   3.185   3.317   3.086
 1786SOL    HW2 5358   3.078   3.236   3.016
 1787SOL     OW 5359   3.445   2.495   2.335
 1787SOL    HW1 5360   3.409   2.556   2.400
 1787SOL    HW2 5361   3.491   2.550   2.273
 1788SOL     OW 5362   2.213   3.378   3.186
 1788SOL    HW1 5363   2.198   3.337   3.101
 1788SOL    HW2 5364   2.307   3.395   3.188
 1789SOL     OW 5365   2.271   2.610   3.463
 1789SOL    HW1 5366   2.332   2.656   3.405
 1789SOL    HW2 5367   2.312   2.525   3.479
 1790SOL     OW 5368   3.451   2.635   3.533
 1790SOL    HW1 5369   3.366   2.677   3.528
 1790SOL    HW2 5370   3.506   2.681   3.470
 1791SOL     OW 5371   2.864   1.970   3.626
 1791SOL    HW1 5372   2.896   2.048   3.581
 1791SOL    HW2 5373   2.912   1.898   3.586
 1792SOL     OW 5374   2.365   1.912   3.604
 1792SOL    HW1 5375   2.324   1.856   3.538
 1792SOL    HW2 5376   2.297   1.977   3.624
 1793SOL     OW 5377   2.442   2.732   2.893
 1793SOL    HW1 5378   2.474   2.822   2.886
 1793SOL    HW2 5379   2.382   2.734   2.968
 1794SOL     OW 5380   3.225   2.723   2.902
 1794SOL    HW1 5381   3.148   2.719   2.845
 1794SOL    HW2 5382   3.256   2.633   2.906
 1795SOL     OW 5383   3.073   2.391   2.135
 1795SOL    HW1 5384   3.079   2.311   2.188
 1795SOL    HW2 5385   3.035   2.456   2.194
 1796SOL     OW 5386   2.167   2.069   3.103
 1796SOL    HW1 5387   2.135   2.102   3.187
 1796SOL    HW2 5388   2.142   1.977   3.102
 1797SOL     OW 5389   1.907   3.170   3.140
 1797SOL    HW1 5390   1.945   3.123   3.214
 1797SOL    HW2 5391   1.917   3.263   3.162
 1798SOL     OW 5392   2.592   2.496   2.926
 1798SOL    HW1 5393   2.657   2.475   2.859
 1798SOL    HW2 5394   2.564   2.585   2.904
 1799SOL     OW 5395   3.598   2.805   3.715
 1799SOL    HW1 5396   3.545   2.783   3.638
 1799SOL    HW2 5397   3.535   2.831   3.782
 1800SOL     OW 5398   2.163   1.929   2.484
 1800SOL    HW1 5399   2.150   2.019   2.515
 1800SOL    HW2 5400   2.164   1.877   2.564
 1801SOL     OW 5401   3.473   2.230   2.233
 1801SOL    HW1 5402   3.497   2.166   2.299
 1801SOL    HW2 5403   3.446   2.307   2.282
 1802SOL     OW 5404   2.886   2.625   2.827
 1802SOL    HW1 5405   2.894   2.642   2.921
 1802SOL    HW2 5406   2.860   2.533   2.821
 1803SOL     OW 5407   2.846   3.430   3.571
 1803SOL    HW1 5408   2.827   3.474   3.488
 1803SOL    HW2 5409   2.883   3.346   3.545
 1804SOL     OW 5410   3.715   3.378   3.465
 1804SOL    HW1 5411   3.736   3.401   3.375
 1804SOL    HW2 5412   3.795   3.398   3.514
 1805SOL     OW 5413   2.212   2.772   3.670
 1805SOL    HW1 5414   2.295   2.797   3.711
 1805SOL    HW2 5415   2.237   2.716   3.597
 1806SOL     OW 5416   3.395   2.138   1.988
 1806SOL    HW1 5417   3.337   2.068   2.016
 1806SOL    HW2 5418   3.427   2.177   2.070
 1807SOL     OW 5419   3.161   2.693   1.900
 1807SOL    HW1 5420   3.201   2.606   1.905
 1807SOL    HW2 5421   3.188   2.726   1.814
 1808SOL     OW 5422   2.928   3.196   2.712
 1808SOL    HW1 5423   2.932   3.121   2.653
 1808SOL    HW2 5424   2.991   3.258   2.677
 1809SOL     OW 5425   2.176   2.675   2.813
 1809SOL    HW1 5426   2.269   2.697   2.809
 1809SOL    HW2 5427   2.174   2.588   2.852
 1810SOL     OW 5428   2.198   2.378   2.870
 1810SOL    HW1 5429   2.159   2.292   2.852
 1810SOL    HW2 5430   2.273   2.382   2.810
 1811SOL     OW 5431   2.999   2.242   3.538
 1811SOL    HW1 5432   2.956   2.299   3.602
 1811SOL    HW2 5433   3.088   2.277   3.531
 1812SOL     OW 5434   3.022   2.067   3.334
 1812SOL    HW1 5435   3.016   2.129   3.407
 1812SOL    HW2 5436   3.053   2.119   3.260
 1813SOL     OW 5437   1.867   3.188   2.059
 1813SOL    HW1 5438   1.779   3.200   2.024
 1813SOL    HW2 5439   1.869   3.096   2.085
 1814SOL     OW 5440   1.952   3.656   2.795
 1814SOL    HW1 5441   1.920   3.575   2.756
 1814SOL    HW2 5442   2.041   3.666   2.759
 1815SOL     OW 5443   2.365   3.433   2.767
 1815SOL    HW1 5444   2.433   3.497   2.788
 1815SOL    HW2 5445   2.411   3.362   2.723
 1816SOL     OW 5446   2.858   2.659   3.095
 1816SOL    HW1 5447   2.903   2.630   3.174
 1816SOL    HW2 5448   2.769   2.626   3.103
 1817SOL     OW 5449   1.899   2.404   2.977
 1817SOL    HW1 5450   1.982   2.380   2.935
 1817SOL    HW2 5451   1.922   2.415   3.070
 1818SOL     OW 5452   2.052   2.380   3.585
 1818SOL    HW1 5453   2.109   2.345   3.516
 1818SOL    HW2 5454   1.998   2.445   3.541
 1819SOL     OW 5455   3.236   2.807   3.523
 1819SOL    HW1 5456   3.260   2.899   3.530
 1819SOL    HW2 5457   3.237   2.789   3.428
 1820SOL     OW 5458   2.676   2.430   2.206
 1820SOL    HW1 5459   2.679   2.353   2.148
 1820SOL    HW2 5460   2.596   2.476   2.180
 1821SOL     OW 5461   3.507   2.463   3.057
 1821SOL    HW1 5462   3.490   2.400   3.127
 1821SOL    HW2 5463   3.593   2.438   3.023
 1822SOL     OW 5464   2.116   3.419   3.600
 1822SOL    HW1 5465   2.084   3.478   3.668
 1822SOL    HW2 5466   2.106   3.331   3.638
 1823SOL     OW 5467   2.546   2.321   3.129
 1823SOL    HW1 5468   2.502   2.243   3.096
 1823SOL    HW2 5469   2.553   2.379   3.053
 1824SOL     OW 5470   2.797   3.538   3.326
 1824SOL    HW1 5471   2.767   3.517   3.238
 1824SOL    HW2 5472   2.804   3.633   3.327
 1825SOL     OW 5473   2.334   2.358   2.052
 1825SOL    HW1 5474   2.389   2.434   2.066
 1825SOL    HW2 5475   2.245   2.392   2.050
 1826SOL     OW 5476   2.015   3.000   3.330
 1826SOL    HW1 5477   2.030   2.943   3.405
 1826SOL    HW2 5478   2.030   2.945   3.254
 1827SOL     OW 5479   3.200   2.914   3.092
 1827SOL    HW1 5480   3.224   2.855   3.021
 1827SOL    HW2 5481   3.121   2.958   3.060
 1828SOL     OW 5482   3.167   2.716   2.172
 1828SOL    HW1 5483   3.085   2.688   2.213
 1828SOL    HW2 5484   3.151   2.705   2.078
 1829SOL     OW 5485   3.624   3.613   3.010
 1829SOL    HW1 5486   3.685   3.635   2.939
 1829SOL    HW2 5487   3.599   3.522   2.992
 1830SOL     OW 5488   3.108   3.595   2.986
 1830SOL    HW1 5489   3.189   3.604   2.936
 1830SOL    HW2 5490   3.101   3.501   3.002
 1831SOL     OW 5491   1.946   3.124   2.880
 1831SOL    HW1 5492   1.934   3.130   2.974
 1831SOL    HW2 5493   1.868   3.077   2.849
 1832SOL     OW 5494   2.544   3.524   3.580
 1832SOL    HW1 5495   2.493   3.605   3.583
 1832SOL    HW2 5496   2.599   3.532   3.502
 1833SOL     OW 5497   3.581   1.999   2.380
 1833SOL    HW1 5498   3.654   1.984   2.320
 1833SOL    HW2 5499   3.565   1.913   2.419
 1834SOL     OW 5500   3.251   3.431   2.341
 1834SOL    HW1 5501   3.312   3.457   2.272
 1834SOL    HW2 5502   3.209   3.512   2.367
 1835SOL     OW 5503   1.994   3.658   3.705
 1835SOL    HW1 5504   1.945   3.592   3.754
 1835SOL    HW2 5505   2.046   3.703   3.771
 1836SOL     OW 5506   3.139   2.785   2.533
 1836SOL    HW1 5507   3.210   2.720   2.535
 1836SOL    HW2 5508   3.174   2.857   2.481
 1837SOL     OW 5509   2.687   3.132   3.293
 1837SOL    HW1 5510   2.668   3.171   3.378
 1837SOL    HW2 5511   2.610   3.154   3.239
 1838SOL     OW 5512   2.536   3.474   2.018
 1838SOL    HW1 5513   2.541   3.485   1.923
 1838SOL    HW2 5514   2.487   3.392   2.029
 1839SOL     OW 5515   3.505   3.586   3.255
 1839SOL    HW1 5516   3.551   3.597   3.172
 1839SOL    HW2 5517   3.488   3.676   3.284
 1840SOL     OW 5518   3.699   2.037   2.832
 1840SOL    HW1 5519   3.732   1.955   2.796
 1840SOL    HW2 5520   3.612   2.047   2.793
 1841SOL     OW 5521   2.130   2.183   2.583
 1841SOL    HW1 5522   2.048   2.222   2.553
 1841SOL    HW2 5523   2.118   2.172   2.677
 1842SOL     OW 5524   3.061   3.473   1.895
 1842SOL    HW1 5525   3.059   3.381   1.922
 1842SOL    HW2 5526   3.001   3.478   1.821
 1843SOL     OW 5527   2.687   2.867   3.234
 1843SOL    HW1 5528   2.726   2.866   3.147
 1843SOL    HW2 5529   2.690   2.958   3.261
 1844SOL     OW 5530   2.778   2.773   2.152
 1844SOL    HW1 5531   2.840   2.804   2.086
 1844SOL    HW2 5532   2.821   2.697   2.192
 1845SOL     OW 5533   3.365   3.486   1.905
 1845SOL    HW1 5534   3.269   3.490   1.899
 1845SOL    HW2 5535   3.394   3.490   1.814
 1846SOL     OW 5536   2.232   3.157   3.354
 1846SOL    HW1 5537   2.218   3.239   3.306
 1846SOL    HW2 5538   2.154   3.105   3.335
 1847SOL     OW 5539   3.470   3.146   3.147
 1847SOL    HW1 5540   3.535   3.150   3.218
 1847SOL    HW2 5541   3.411   3.219   3.165
 1848SOL     OW 5542   2.904   2.963   2.564
 1848SOL    HW1 5543   2.836   2.912   2.606
 1848SOL    HW2 5544   2.962   2.898   2.524
 1849SOL     OW 5545   2.879   2.101   2.828
 1849SOL    HW1 5546   2.871   2.054   2.745
 1849SOL    HW2 5547   2.874   2.032   2.894
 1850SOL     OW 5548   2.460   3.353   2.348
 1850SOL    HW1 5549   2.493   3.297   2.278
 1850SOL    HW2 5550   2.404   3.416   2.303
 1851SOL     OW 5551   3.577   2.250   3.244
 1851SOL    HW1 5552   3.647   2.316   3.238
 1851SOL    HW2 5553   3.606   2.180   3.185
 1852SOL     OW 5554   2.118   3.213   2.147
 1852SOL    HW1 5555   2.024   3.210   2.128
 1852SOL    HW2 5556   2.124   3.250   2.235
 1853SOL     OW 5557   1.971   2.875   3.584
 1853SOL    HW1 5558   1.896   2.850   3.638
 1853SOL    HW2 5559   2.047   2.842   3.632
 1854SOL     OW 5560   2.532   2.060   3.356
 1854SOL    HW1 5561   2.617   2.045   3.315
 1854SOL    HW2 5562   2.553   2.078   3.448
 1855SOL     OW 5563   1.937   2.205   1.898
 1855SOL    HW1 5564   1.851   2.180   1.865
 1855SOL    HW2 5565   1.964   2.278   1.842
 1856SOL     OW 5566   3.298   2.720   3.264
 1856SOL    HW1 5567   3.248   2.774   3.203
 1856SOL    HW2 5568   3.389   2.726   3.233
 1857SOL     OW 5569   1.934   2.023   2.179
 1857SOL    HW1 5570   1.919   2.103   2.127
 1857SOL    HW2 5571   2.020   1.993   2.151
 1858SOL     OW 5572   3.044   3.207   1.979
 1858SOL    HW1 5573   2.952   3.179   1.984
 1858SOL    HW2 5574   3.074   3.204   2.070
 1859SOL     OW 5575   2.477   2.698   3.292
 1859SOL    HW1 5576   2.532   2.775   3.279
 1859SOL    HW2 5577   2.538   2.625   3.299
 1860SOL     OW 5578   3.350   3.635   2.830
 1860SOL    HW1 5579   3.384   3.688   2.758
 1860SOL    HW2 5580   3.425   3.622   2.887
 1861SOL     OW 5581   2.578   2.427   3.570
 1861SOL    HW1 5582   2.604   2.489   3.638
 1861SOL    HW2 5583   2.628   2.348   3.589
 1862SOL     OW 5584   3.322   3.073   3.495
 1862SOL    HW1 5585   3.313   3.078   3.590
 1862SOL    HW2 5586   3.417   3.079   3.479
 1863SOL     OW 5587   2.247   3.603   3.423
 1863SOL    HW1 5588   2.158   3.638   3.416
 1863SOL    HW2 5589   2.235   3.516   3.461
 1864SOL     OW 5590   3.534   2.745   3.119
 1864SOL    HW1 5591   3.522   2.660   3.077
 1864SOL    HW2 5592   3.531   2.808   3.047
 1865SOL     OW 5593   3.084   2.184   2.316
 1865SOL    HW1 5594   3.149   2.113   2.307
 1865SOL    HW2 5595   3.111   2.230   2.396
 1866SOL     OW 5596   2.455   2.606   2.523
 1866SOL    HW1 5597   2.497   2.690   2.503
 1866SOL    HW2 5598   2.379   2.603   2.464
 1867SOL     OW 5599   3.633   2.216   3.508
 1867SOL    HW1 5600   3.615   2.230   3.415
 1867SOL    HW2 5601   3.561   2.163   3.540
 1868SOL     OW 5602   3.604   2.796   3.377
 1868SOL    HW1 5603   3.616   2.890   3.387
 1868SOL    HW2 5604   3.587   2.784   3.283
 1869SOL     OW 5605   2.725   3.233   1.885
 1869SOL    HW1 5606   2.681   3.255   1.967
 1869SOL    HW2 5607   2.750   3.318   1.848
 1870SOL     OW 5608   2.520   3.656   2.815
 1870SOL    HW1 5609   2.491   3.745   2.792
 1870SOL    HW2 5610   2.615   3.659   2.804
 1871SOL     OW 5611   2.724   2.822   2.720
 1871SOL    HW1 5612   2.776   2.755   2.765
 1871SOL    HW2 5613   2.695   2.881   2.791
 1872SOL     OW 5614   2.942   2.848   1.950
 1872SOL    HW1 5615   2.923   2.898   1.871
 1872SOL    HW2 5616   3.020   2.797   1.927
 1873SOL     OW 5617   3.724   3.423   2.707
 1873SOL    HW1 5618   3.648   3.411   2.650
 1873SOL    HW2 5619   3.717   3.354   2.773
 1874SOL     OW 5620   2.087   3.167   3.715
 1874SOL    HW1 5621   2.016   3.109   3.689
 1874SOL    HW2 5622   2.070   3.187   3.807
 1875SOL     OW 5623   1.945   3.102   2.521
 1875SOL    HW1 5624   1.943   3.051   2.602
 1875SOL    HW2 5625   2.017   3.065   2.470
 1876SOL     OW 5626   2.538   3.258   3.483
 1876SOL    HW1 5627   2.459   3.214   3.516
 1876SOL    HW2 5628   2.533   3.346   3.521
 1877SOL     OW 5629   3.680   2.050   3.099
 1877SOL    HW1 5630   3.681   1.957   3.120
 1877SOL    HW2 5631   3.689   2.054   3.004
 1878SOL     OW 5632   2.292   2.292   2.383
 1878SOL    HW1 5633   2.318   2.219   2.327
 1878SOL    HW2 5634   2.249   2.251   2.458
 1879SOL     OW 5635   3.564   3.356   2.968
 1879SOL    HW1 5636   3.482   3.323   2.932
 1879SOL    HW2 5637   3.587   3.292   3.037
 1880SOL     OW 5638   2.184   2.411   3.149
 1880SOL    HW1 5639   2.235   2.354   3.207
 1880SOL    HW2 5640   2.212   2.385   3.061
 1881SOL     OW 5641   2.682   3.440   2.547
 1881SOL    HW1 5642   2.692   3.468   2.455
 1881SOL    HW2 5643   2.601   3.390   2.548
 1882SOL     OW 5644   3.292   2.082   2.979
 1882SOL    HW1 5645   3.330   2.011   3.031
 1882SOL    HW2 5646   3.240   2.132   3.041
 1883SOL     OW 5647   2.867   1.889   3.013
 1883SOL    HW1 5648   2.811   1.818   2.979
 1883SOL    HW2 5649   2.955   1.852   3.012
 1884SOL     OW 5650   2.633   3.194   2.167
 1884SOL    HW1 5651   2.594   3.107   2.176
 1884SOL    HW2 5652   2.717   3.187   2.211
 1885SOL     OW 5653   2.481   3.426   3.145
 1885SOL    HW1 5654   2.484   3.505   3.199
 1885SOL    HW2 5655   2.567   3.420   3.105
 1886SOL     OW 5656   3.215   1.914   2.027
 1886SOL    HW1 5657   3.239   1.866   1.948
 1886SOL    HW2 5658   3.129   1.880   2.050
 1887SOL     OW 5659   3.161   2.319   2.549
 1887SOL    HW1 5660   3.105   2.396   2.559
 1887SOL    HW2 5661   3.164   2.281   2.636
 1888SOL     OW 5662   3.451   2.074   2.740
 1888SOL    HW1 5663   3.377   2.086   2.800
 1888SOL    HW2 5664   3.452   2.154   2.687
 1889SOL     OW 5665   1.904   2.939   2.165
 1889SOL    HW1 5666   1.998   2.927   2.151
 1889SOL    HW2 5667   1.872   2.852   2.189
 1890SOL     OW 5668   2.738   3.508   2.209
 1890SOL    HW1 5669   2.668   3.488   2.146
 1890SOL    HW2 5670   2.707   3.586   2.254
 1891SOL     OW 5671   2.082   2.478   3.846
 1891SOL    HW1 5672   1.988   2.496   3.855
 1891SOL    HW2 5673   2.094   2.455   3.754
 1892SOL     OW 5674   3.621   2.464   3.958
 1892SOL    HW1 5675   3.605   2.465   3.863
 1892SOL    HW2 5676   3.585   2.381   3.987
 1893SOL     OW 5677   2.087   3.596   0.198
 1893SOL    HW1 5678   2.149   3.647   0.250
 1893SOL    HW2 5679   2.137   3.569   0.121
 1894SOL     OW 5680   2.455   2.837   3.845
 1894SOL    HW1 5681   2.491   2.903   3.786
 1894SOL    HW2 5682   2.512   2.840   3.922
 1895SOL     OW 5683   1.883   3.459   3.841
 1895SOL    HW1 5684   1.875   3.365   3.855
 1895SOL    HW2 5685   1.863   3.498   3.927
 1896SOL     OW 5686   3.404   2.843   3.906
 1896SOL    HW1 5687   3.331   2.785   3.928
 1896SOL    HW2 5688   3.436   2.874   3.991
 1897SOL     OW 5689   2.446   2.585   3.978
 1897SOL    HW1 5690   2.474   2.657   3.922
 1897SOL    HW2 5691   2.390   2.627   4.044
 1898SOL     OW 5692   2.728   2.209   3.907
 1898SOL    HW1 5693   2.792   2.268   3.867
 1898SOL    HW2 5694   2.759   2.121   3.885
 1899SOL     OW 5695   2.866   3.337   0.198
 1899SOL    HW1 5696   2.804   3.407   0.180
 1899SOL    HW2 5697   2.867   3.330   0.293
 1900SOL     OW 5698   2.183   2.804   3.964
 1900SOL    HW1 5699   2.263   2.836   3.922
 1900SOL    HW2 5700   2.157   2.728   3.911
 1901SOL     OW 5701   2.950   3.673   3.929
 1901SOL    HW1 5702   2.915   3.616   3.998
 1901SOL    HW2 5703   2.982   3.612   3.862
 1902SOL     OW 5704   3.494   3.238   3.801
 1902SOL    HW1 5705   3.456   3.325   3.790
 1902SOL    HW2 5706   3.420   3.178   3.789
 1903SOL     OW 5707   2.322   3.604   0.035
 1903SOL    HW1 5708   2.355   3.650   0.112
 1903SOL    HW2 5709   2.399   3.593  -0.021
 1904SOL     OW 5710   2.479   1.980   3.842
 1904SOL    HW1 5711   2.571   1.955   3.838
 1904SOL    HW2 5712   2.444   1.957   3.756
 1905SOL     OW 5713   3.289   3.051   3.758
 1905SOL    HW1 5714   3.329   2.986   3.815
 1905SOL    HW2 5715   3.208   3.076   3.802
 1906SOL     OW 5716   2.159   1.900   3.889
 1906SOL    HW1 5717   2.211   1.980   3.878
 1906SOL    HW2 5718   2.214   1.841   3.940
 1907SOL     OW 5719   2.899   2.415   3.726
 1907SOL    HW1 5720   2.851   2.496   3.709
 1907SOL    HW2 5721   2.941   2.428   3.811
 1908SOL     OW 5722   3.712   2.691   0.097
 1908SOL    HW1 5723   3.768   2.632   0.147
 1908SOL    HW2 5724   3.682   2.638   0.022
 1909SOL     OW 5725   2.352   3.260   3.891
 1909SOL    HW1 5726   2.268   3.234   3.930
 1909SOL    HW2 5727   2.333   3.266   3.797
 1910SOL     OW 5728   3.250   2.431   3.794
 1910SOL    HW1 5729   3.208   2.417   3.879
 1910SOL    HW2 5730   3.339   2.400   3.806
 1911SOL     OW 5731   3.425   2.530   0.182
 1911SOL    HW1 5732   3.402   2.570   0.266
 1911SOL    HW2 5733   3.486   2.592   0.142
 1912SOL     OW 5734   3.397   2.137   3.853
 1912SOL    HW1 5735   3.339   2.063   3.870
 1912SOL    HW2 5736   3.414   2.175   3.939
 1913SOL     OW 5737   3.167   2.696   3.767
 1913SOL    HW1 5738   3.197   2.605   3.766
 1913SOL    HW2 5739   3.188   2.729   3.679
 1914SOL     OW 5740   1.872   3.183   3.907
 1914SOL    HW1 5741   1.780   3.201   3.886
 1914SOL    HW2 5742   1.871   3.095   3.944
 1915SOL     OW 5743   2.667   2.436   0.045
 1915SOL    HW1 5744   2.662   2.351   0.003
 1915SOL    HW2 5745   2.580   2.474   0.034
 1916SOL     OW 5746   2.334   2.358   3.890
 1916SOL    HW1 5747   2.391   2.429   3.921
 1916SOL    HW2 5748   2.245   2.389   3.907
 1917SOL     OW 5749   3.554   1.961   0.209
 1917SOL    HW1 5750   3.645   1.983   0.193
 1917SOL    HW2 5751   3.556   1.902   0.284
 1918SOL     OW 5752   2.535   3.473   3.879
 1918SOL    HW1 5753   2.542   3.488   3.785
 1918SOL    HW2 5754   2.487   3.391   3.888
 1919SOL     OW 5755   3.051   3.474   3.764
 1919SOL    HW1 5756   3.062   3.379   3.775
 1919SOL    HW2 5757   3.001   3.483   3.684
 1920SOL     OW 5758   3.361   3.484   3.767
 1920SOL    HW1 5759   3.267   3.494   3.754
 1920SOL    HW2 5760   3.398   3.489   3.679
 1921SOL     OW 5761   2.116   3.224   0.007
 1921SOL    HW1 5762   2.023   3.211  -0.012
 1921SOL    HW2 5763   2.118   3.249   0.099
 1922SOL     OW 5764   1.933   2.214   3.760
 1922SOL    HW1 5765   1.853   2.179   3.720
 1922SOL    HW2 5766   1.964   2.280   3.697
 1923SOL     OW 5767   3.040   3.212   3.842
 1923SOL    HW1 5768   2.952   3.173   3.841
 1923SOL    HW2 5769   3.072   3.194   3.931
 1924SOL     OW 5770   2.721   3.232   3.734
 1924SOL    HW1 5771   2.690   3.247   3.823
 1924SOL    HW2 5772   2.748   3.319   3.704
 1925SOL     OW 5773   2.946   2.856   3.812
 1925SOL    HW1 5774   2.922   2.897   3.729
 1925SOL    HW2 5775   3.017   2.796   3.790
 1926SOL     OW 5776   3.219   1.906   3.892
 1926SOL    HW1 5777   3.239   1.867   3.807
 1926SOL    HW2 5778   3.125   1.891   3.903
 1927SOL     OW 5779   1.909   2.941   0.013
 1927SOL    HW1 5780   2.002   2.920   0.012
 1927SOL    HW2 5781   1.868   2.863   0.050
 1928SOL     OW 5782   2.091   3.993   0.988
 1928SOL    HW1 5783   2.120   3.975   1.077
 1928SOL    HW2 5784   2.003   3.955   0.983
 1929SOL     OW 5785   1.888   0.066   0.692
 1929SOL    HW1 5786   1.818   0.131   0.688
 1929SOL    HW2 5787   1.883   0.019   0.609
 1930SOL     OW 5788   2.294   0.112   1.500
 1930SOL    HW1 5789   2.373   0.061   1.483
 1930SOL    HW2 5790   2.223   0.048   1.492
 1931SOL     OW 5791   3.457   3.837   1.473
 1931SOL    HW1 5792   3.446   3.913   1.416
 1931SOL    HW2 5793   3.453   3.873   1.562
 1932SOL     OW 5794   2.670   3.728   0.499
 1932SOL    HW1 5795   2.701   3.818   0.492
 1932SOL    HW2 5796   2.576   3.736   0.513
 1933SOL     OW 5797   3.136   0.066   0.940
 1933SOL    HW1 5798   3.062   0.010   0.918
 1933SOL    HW2 5799   3.193   0.011   0.994
 1934SOL     OW 5800   2.413   3.912   0.886
 1934SOL    HW1 5801   2.408   3.925   0.981
 1934SOL    HW2 5802   2.412   4.001   0.850
 1935SOL     OW 5803   2.057  -0.010   1.497
 1935SOL    HW1 5804   1.992   0.060   1.486
 1935SOL    HW2 5805   2.037  -0.047   1.583
 1936SOL     OW 5806   3.264   3.832   0.426
 1936SOL    HW1 5807   3.252   3.800   0.336
 1936SOL    HW2 5808   3.359   3.842   0.435
 1937SOL     OW 5809   3.397   3.951   1.726
 1937SOL    HW1 5810   3.419   3.960   1.818
 1937SOL    HW2 5811   3.340   3.874   1.722
 1938SOL     OW 5812   2.475   3.816   0.121
 1938SOL    HW1 5813   2.569   3.830   0.133
 1938SOL    HW2 5814   2.459   3.837   0.029
 1939SOL     OW 5815   2.637   3.970   1.743
 1939SOL    HW1 5816   2.703   3.931   1.802
 1939SOL    HW2 5817   2.564   3.991   1.801
 1940SOL     OW 5818   2.393   3.787   0.507
 1940SOL    HW1 5819   2.333   3.798   0.580
 1940SOL    HW2 5820   2.410   3.876   0.475
 1941SOL     OW 5821   2.427   3.944   1.157
 1941SOL    HW1 5822   2.458   3.863   1.196
 1941SOL    HW2 5823   2.337   3.953   1.188
 1942SOL     OW 5824   2.877   3.769   0.754
 1942SOL    HW1 5825   2.813   3.762   0.684
 1942SOL    HW2 5826   2.856   3.697   0.814
 1943SOL     OW 5827   2.781   3.808   1.405
 1943SOL    HW1 5828   2.805   3.793   1.314
 1943SOL    HW2 5829   2.851   3.863   1.440
 1944SOL     OW 5830   3.126   0.090   1.262
 1944SOL    HW1 5831   3.155   0.160   1.321
 1944SOL    HW2 5832   3.051   0.127   1.216
 1945SOL     OW 5833   2.367   3.763   1.743
 1945SOL    HW1 5834   2.321   3.713   1.675
 1945SOL    HW2 5835   2.305   3.832   1.767
 1946SOL     OW 5836   2.164   3.932   1.246
 1946SOL    HW1 5837   2.133   3.955   1.333
 1946SOL    HW2 5838   2.141   3.839   1.236
 1947SOL     OW 5839   3.376   3.992   0.103
 1947SOL    HW1 5840   3.369   3.905   0.140
 1947SOL    HW2 5841   3.452   4.031   0.146
 1948SOL     OW 5842   3.024   3.929   1.475
 1948SOL    HW1 5843   3.026   3.996   1.544
 1948SOL    HW2 5844   3.057   3.974   1.397
 1949SOL     OW 5845   2.763   3.801   0.126
 1949SOL    HW1 5846   2.821   3.799   0.050
 1949SOL    HW2 5847   2.817   3.768   0.198
 1950SOL     OW 5848   3.587   3.860   0.526
 1950SOL    HW1 5849   3.659   3.843   0.466
 1950SOL    HW2 5850   3.566   3.774   0.562
 1951SOL     OW 5851   3.697   3.895   0.968
 1951SOL    HW1 5852   3.733   3.814   0.933
 1951SOL    HW2 5853   3.610   3.902   0.928
 1952SOL     OW 5854   2.530   3.915   1.497
 1952SOL    HW1 5855   2.613   3.912   1.450
 1952SOL    HW2 5856   2.554   3.936   1.587
 1953SOL     OW 5857   1.961   3.882   0.334
 1953SOL    HW1 5858   1.929   3.961   0.290
 1953SOL    HW2 5859   2.043   3.861   0.289
 1954SOL     OW 5860   3.050   0.019   0.467
 1954SOL    HW1 5861   3.127  -0.036   0.452
 1954SOL    HW2 5862   3.079   0.083   0.532
 1955SOL     OW 5863   3.648   0.058   1.642
 1955SOL    HW1 5864   3.621   0.086   1.554
 1955SOL    HW2 5865   3.569   0.020   1.681
 1956SOL     OW 5866   3.684   3.915   1.237
 1956SOL    HW1 5867   3.679   3.823   1.264
 1956SOL    HW2 5868   3.689   3.912   1.142
 1957SOL     OW 5869   3.294   3.939   1.118
 1957SOL    HW1 5870   3.333   3.868   1.169
 1957SOL    HW2 5871   3.235   3.983   1.180
 1958SOL     OW 5872   2.868   3.749   1.153
 1958SOL    HW1 5873   2.810   3.684   1.115
 1958SOL    HW2 5874   2.955   3.710   1.148
 1959SOL     OW 5875   3.212   3.776   0.172
 1959SOL    HW1 5876   3.240   3.742   0.086
 1959SOL    HW2 5877   3.128   3.733   0.188
 1960SOL     OW 5878   3.156   0.167   0.688
 1960SOL    HW1 5879   3.116   0.253   0.695
 1960SOL    HW2 5880   3.166   0.138   0.779
 1961SOL     OW 5881   3.448   3.936   0.874
 1961SOL    HW1 5882   3.379   3.941   0.940
 1961SOL    HW2 5883   3.452   4.024   0.837
 1962SOL     OW 5884   2.091   3.993   2.850
 1962SOL    HW1 5885   2.120   3.975   2.939
 1962SOL    HW2 5886   2.003   3.955   2.845
 1963SOL     OW 5887   1.887   0.068   2.550
 1963SOL    HW1 5888   1.814   0.131   2.549
 1963SOL    HW2 5889   1.876   0.019   2.468
 1964SOL     OW 5890   3.644   0.325   2.067
 1964SOL    HW1 5891   3.583   0.318   1.994
 1964SOL    HW2 5892   3.597   0.288   2.141
 1965SOL     OW 5893   2.293   0.113   3.358
 1965SOL    HW1 5894   2.373   0.061   3.346
 1965SOL    HW2 5895   2.222   0.048   3.354
 1966SOL     OW 5896   3.457   3.837   3.335
 1966SOL    HW1 5897   3.445   3.913   3.278
 1966SOL    HW2 5898   3.452   3.873   3.424
 1967SOL     OW 5899   2.670   3.727   2.361
 1967SOL    HW1 5900   2.702   3.817   2.354
 1967SOL    HW2 5901   2.576   3.735   2.374
 1968SOL     OW 5902   3.136   0.066   2.802
 1968SOL    HW1 5903   3.062   0.010   2.780
 1968SOL    HW2 5904   3.192   0.011   2.856
 1969SOL     OW 5905   2.412   3.913   2.748
 1969SOL    HW1 5906   2.408   3.925   2.843
 1969SOL    HW2 5907   2.412   4.002   2.712
 1970SOL     OW 5908   2.057  -0.010   3.359
 1970SOL    HW1 5909   1.991   0.059   3.348
 1970SOL    HW2 5910   2.037  -0.048   3.444
 1971SOL     OW 5911   3.263   3.835   2.285
 1971SOL    HW1 5912   3.251   3.797   2.198
 1971SOL    HW2 5913   3.358   3.836   2.297
 1972SOL     OW 5914   3.397   3.951   3.584
 1972SOL    HW1 5915   3.419   3.962   3.677
 1972SOL    HW2 5916   3.340   3.874   3.583
 1973SOL     OW 5917   2.478   3.847   1.979
 1973SOL    HW1 5918   2.569   3.818   1.990
 1973SOL    HW2 5919   2.453   3.814   1.893
 1974SOL     OW 5920   2.637   3.967   3.603
 1974SOL    HW1 5921   2.706   3.931   3.658
 1974SOL    HW2 5922   2.565   3.985   3.664
 1975SOL     OW 5923   2.391   3.785   2.366
 1975SOL    HW1 5924   2.333   3.796   2.441
 1975SOL    HW2 5925   2.409   3.874   2.337
 1976SOL     OW 5926   2.157   3.753   2.038
 1976SOL    HW1 5927   2.204   3.831   2.009
 1976SOL    HW2 5928   2.225   3.699   2.079
 1977SOL     OW 5929   2.427   3.944   3.018
 1977SOL    HW1 5930   2.458   3.863   3.058
 1977SOL    HW2 5931   2.337   3.953   3.050
 1978SOL     OW 5932   2.876   3.770   2.617
 1978SOL    HW1 5933   2.814   3.761   2.545
 1978SOL    HW2 5934   2.856   3.697   2.676
 1979SOL     OW 5935   2.781   3.808   3.268
 1979SOL    HW1 5936   2.805   3.793   3.176
 1979SOL    HW2 5937   2.851   3.863   3.302
 1980SOL     OW 5938   3.126   0.090   3.124
 1980SOL    HW1 5939   3.154   0.160   3.183
 1980SOL    HW2 5940   3.051   0.127   3.078
 1981SOL     OW 5941   2.367   3.766   3.602
 1981SOL    HW1 5942   2.321   3.713   3.537
 1981SOL    HW2 5943   2.302   3.831   3.631
 1982SOL     OW 5944   2.164   3.932   3.107
 1982SOL    HW1 5945   2.134   3.955   3.195
 1982SOL    HW2 5946   2.141   3.839   3.098
 1983SOL     OW 5947   3.433   3.971   1.988
 1983SOL    HW1 5948   3.367   3.911   2.022
 1983SOL    HW2 5949   3.443   4.038   2.056
 1984SOL     OW 5950   3.024   3.929   3.337
 1984SOL    HW1 5951   3.026   3.996   3.406
 1984SOL    HW2 5952   3.057   3.974   3.259
 1985SOL     OW 5953   2.764   3.813   1.986
 1985SOL    HW1 5954   2.823   3.799   1.912
 1985SOL    HW2 5955   2.810   3.774   2.060
 1986SOL     OW 5956   3.585   3.859   2.384
 1986SOL    HW1 5957   3.656   3.843   2.321
 1986SOL    HW2 5958   3.566   3.773   2.420
 1987SOL     OW 5959   3.697   3.895   2.830
 1987SOL    HW1 5960   3.733   3.813   2.795
 1987SOL    HW2 5961   3.610   3.901   2.791
 1988SOL     OW 5962   2.529   3.915   3.358
 1988SOL    HW1 5963   2.613   3.912   3.311
 1988SOL    HW2 5964   2.553   3.937   3.448
 1989SOL     OW 5965   1.923   0.057   1.894
 1989SOL    HW1 5966   1.844   0.041   1.842
 1989SOL    HW2 5967   1.960   0.138   1.858
 1990SOL     OW 5968   1.931   3.878   2.176
 1990SOL    HW1 5969   1.917   3.964   2.137
 1990SOL    HW2 5970   2.019   3.853   2.147
 1991SOL     OW 5971   3.049   0.021   2.331
 1991SOL    HW1 5972   3.125  -0.036   2.313
 1991SOL    HW2 5973   3.081   0.084   2.395
 1992SOL     OW 5974   3.649   0.059   3.505
 1992SOL    HW1 5975   3.622   0.086   3.417
 1992SOL    HW2 5976   3.570   0.020   3.544
 1993SOL     OW 5977   3.684   3.915   3.099
 1993SOL    HW1 5978   3.679   3.823   3.126
 1993SOL    HW2 5979   3.689   3.911   3.003
 1994SOL     OW 5980   3.294   3.940   2.980
 1994SOL    HW1 5981   3.332   3.868   3.030
 1994SOL    HW2 5982   3.235   3.983   3.042
 1995SOL     OW 5983   2.868   3.749   3.015
 1995SOL    HW1 5984   2.810   3.684   2.976
 1995SOL    HW2 5985   2.955   3.710   3.010
 1996SOL     OW 5986   3.212   3.778   2.020
 1996SOL    HW1 5987   3.242   3.721   1.950
 1996SOL    HW2 5988   3.130   3.740   2.050
 1997SOL     OW 5989   3.158   0.167   2.551
 1997SOL    HW1 5990   3.117   0.253   2.557
 1997SOL    HW2 5991   3.166   0.138   2.642
 1998SOL     OW 5992   3.448   3.937   2.736
 1998SOL    HW1 5993   3.379   3.940   2.802
 1998SOL    HW2 5994   3.451   4.025   2.700
 1999SOL     OW 5995   3.631   0.332   3.968
 1999SOL    HW1 5996   3.601   0.315   3.879
 1999SOL    HW2 5997   3.586   0.266   4.022
 2000SOL     OW 5998   2.475   3.821   3.847
 2000SOL    HW1 5999   2.570   3.813   3.841
 2000SOL    HW2 6000   2.445   3.812   3.757
 2001SOL     OW 6001   2.155   3.752   3.893
 2001SOL    HW1 6002   2.199   3.834   3.871
 2001SOL    HW2 6003   2.220   3.701   3.940
 2002SOL     OW 6004   3.024   0.258   0.014
 2002SOL    HW1 6005   3.085   0.193   0.048
 2002SOL    HW2 6006   3.047   0.339   0.060
 2003SOL     OW 6007   3.435   3.974   3.838
 2003SOL    HW1 6008   3.379   3.904   3.871
 2003SOL    HW2 6009   3.450   4.030   3.915
 2004SOL     OW 6010   2.291   0.249   3.944
 2004SOL    HW1 6011   2.367   0.307   3.936
 2004SOL    HW2 6012   2.216   0.306   3.928
 2005SOL     OW 6013   3.558   3.830   0.233
 2005SOL    HW1 6014   3.645   3.838   0.194
 2005SOL    HW2 6015   3.564   3.752   0.289
 2006SOL     OW 6016   1.915   0.066   3.762
 2006SOL    HW1 6017   1.843   0.038   3.705
 2006SOL    HW2 6018   1.961   0.133   3.712
 2007SOL     OW 6019   1.930   3.884   0.044
 2007SOL    HW1 6020   1.915   3.963  -0.009
 2007SOL    HW2 6021   2.010   3.846   0.008
 2008SOL     OW 6022   3.214   3.774   3.884
 2008SOL    HW1 6023   3.242   3.721   3.808
 2008SOL    HW2 6024   3.125   3.744   3.902
 2009SOL     OW 6025   3.947   0.639   0.117
 2009SOL    HW1 6026   3.870   0.600   0.159
 2009SOL    HW2 6027   3.951   0.597   0.031
 2010SOL     OW 6028   3.947   0.288   0.990
 2010SOL    HW1 6029   3.974   0.268   1.079
 2010SOL    HW2 6030   3.864   0.241   0.980
 2011SOL     OW 6031   3.734   0.383   0.641
 2011SOL    HW1 6032   3.651   0.402   0.683
 2011SOL    HW2 6033   3.716   0.307   0.585
 2012SOL     OW 6034   0.025   1.498   1.054
 2012SOL    HW1 6035  -0.015   1.416   1.024
 2012SOL    HW2 6036   0.100   1.512   0.996
 2013SOL     OW 6037   3.941   1.715   0.477
 2013SOL    HW1 6038   3.974   1.788   0.530
 2013SOL    HW2 6039   4.007   1.703   0.408
 2014SOL     OW 6040   3.944   1.437   0.522
 2014SOL    HW1 6041   3.928   1.531   0.532
 2014SOL    HW2 6042   3.883   1.395   0.582
 2015SOL     OW 6043   3.821   0.647   0.557
 2015SOL    HW1 6044   3.808   0.555   0.581
 2015SOL    HW2 6045   3.834   0.692   0.641
 2016SOL     OW 6046   3.721   1.601   0.117
 2016SOL    HW1 6047   3.734   1.510   0.142
 2016SOL    HW2 6048   3.724   1.649   0.200
 2017SOL     OW 6049   3.838   0.740   1.585
 2017SOL    HW1 6050   3.923   0.747   1.628
 2017SOL    HW2 6051   3.805   0.829   1.583
 2018SOL     OW 6052   3.801   0.817   0.776
 2018SOL    HW1 6053   3.893   0.803   0.802
 2018SOL    HW2 6054   3.776   0.897   0.821
 2019SOL     OW 6055   3.852   1.839   1.569
 2019SOL    HW1 6056   3.850   1.808   1.659
 2019SOL    HW2 6057   3.760   1.849   1.544
 2020SOL     OW 6058   3.926   0.300   1.508
 2020SOL    HW1 6059   3.845   0.345   1.484
 2020SOL    HW2 6060   3.901   0.243   1.581
 2021SOL     OW 6061   3.800   0.554   1.387
 2021SOL    HW1 6062   3.893   0.549   1.364
 2021SOL    HW2 6063   3.794   0.627   1.449
 2022SOL     OW 6064   0.276   0.278   0.333
 2022SOL    HW1 6065   0.288   0.215   0.263
 2022SOL    HW2 6066   0.262   0.362   0.289
 2023SOL     OW 6067   3.784   1.570   1.343
 2023SOL    HW1 6068   3.754   1.644   1.291
 2023SOL    HW2 6069   3.880   1.577   1.342
 2024SOL     OW 6070   0.087   1.086   0.517
 2024SOL    HW1 6071   0.081   1.159   0.455
 2024SOL    HW2 6072   0.116   1.012   0.464
 2025SOL     OW 6073   0.023   0.216   1.237
 2025SOL    HW1 6074  -0.003   0.242   1.326
 2025SOL    HW2 6075   0.007   0.122   1.235
 2026SOL     OW 6076   3.758   1.308   1.280
 2026SOL    HW1 6077   3.810   1.264   1.347
 2026SOL    HW2 6078   3.775   1.401   1.294
 2027SOL     OW 6079   3.732   1.330   0.201
 2027SOL    HW1 6080   3.645   1.345   0.165
 2027SOL    HW2 6081   3.734   1.237   0.223
 2028SOL     OW 6082   3.805   1.798   0.930
 2028SOL    HW1 6083   3.781   1.713   0.892
 2028SOL    HW2 6084   3.898   1.808   0.910
 2029SOL     OW 6085   0.220   1.562   0.889
 2029SOL    HW1 6086   0.280   1.635   0.901
 2029SOL    HW2 6087   0.268   1.498   0.837
 2030SOL     OW 6088   3.758   0.537   1.115
 2030SOL    HW1 6089   3.841   0.518   1.071
 2030SOL    HW2 6090   3.782   0.555   1.206
 2031SOL     OW 6091   3.914   0.527   1.720
 2031SOL    HW1 6092   3.959   0.481   1.649
 2031SOL    HW2 6093   3.854   0.586   1.676
 2032SOL     OW 6094   3.951   1.551   1.730
 2032SOL    HW1 6095   3.951   1.613   1.803
 2032SOL    HW2 6096   3.978   1.468   1.769
 2033SOL     OW 6097   3.856   1.116   1.473
 2033SOL    HW1 6098   3.922   1.091   1.538
 2033SOL    HW2 6099   3.898   1.098   1.388
 2034SOL     OW 6100   3.812   1.258   1.018
 2034SOL    HW1 6101   3.795   1.269   1.112
 2034SOL    HW2 6102   3.735   1.212   0.985
 2035SOL     OW 6103   3.837   1.798   1.835
 2035SOL    HW1 6104   3.798   1.726   1.885
 2035SOL    HW2 6105   3.900   1.837   1.895
 2036SOL     OW 6106   3.798   0.171   0.337
 2036SOL    HW1 6107   3.781   0.248   0.282
 2036SOL    HW2 6108   3.891   0.154   0.325
 2037SOL     OW 6109   3.800   1.239   0.657
 2037SOL    HW1 6110   3.801   1.191   0.740
 2037SOL    HW2 6111   3.881   1.213   0.613
 2038SOL     OW 6112   3.756   1.079   0.313
 2038SOL    HW1 6113   3.848   1.077   0.287
 2038SOL    HW2 6114   3.734   0.988   0.333
 2039SOL     OW 6115   3.955   0.628   1.973
 2039SOL    HW1 6116   3.869   0.627   2.014
 2039SOL    HW2 6117   3.941   0.593   1.885
 2040SOL     OW 6118   3.947   0.287   2.851
 2040SOL    HW1 6119   3.975   0.268   2.941
 2040SOL    HW2 6120   3.864   0.241   2.842
 2041SOL     OW 6121   3.735   0.383   2.503
 2041SOL    HW1 6122   3.651   0.403   2.545
 2041SOL    HW2 6123   3.717   0.306   2.449
 2042SOL     OW 6124   0.025   1.498   2.915
 2042SOL    HW1 6125  -0.015   1.416   2.886
 2042SOL    HW2 6126   0.100   1.511   2.857
 2043SOL     OW 6127   3.940   1.717   2.338
 2043SOL    HW1 6128   3.973   1.787   2.394
 2043SOL    HW2 6129   4.010   1.702   2.275
 2044SOL     OW 6130   3.942   1.438   2.381
 2044SOL    HW1 6131   3.927   1.531   2.395
 2044SOL    HW2 6132   3.885   1.394   2.444
 2045SOL     OW 6133   3.823   0.647   2.420
 2045SOL    HW1 6134   3.806   0.556   2.444
 2045SOL    HW2 6135   3.833   0.693   2.503
 2046SOL     OW 6136   3.750   1.597   1.988
 2046SOL    HW1 6137   3.731   1.505   2.005
 2046SOL    HW2 6138   3.716   1.643   2.066
 2047SOL     OW 6139   3.838   0.739   3.450
 2047SOL    HW1 6140   3.925   0.749   3.489
 2047SOL    HW2 6141   3.804   0.828   3.444
 2048SOL     OW 6142   3.801   0.815   2.639
 2048SOL    HW1 6143   3.893   0.803   2.663
 2048SOL    HW2 6144   3.776   0.897   2.682
 2049SOL     OW 6145   3.852   1.840   3.432
 2049SOL    HW1 6146   3.852   1.808   3.522
 2049SOL    HW2 6147   3.760   1.848   3.409
 2050SOL     OW 6148   3.927   0.303   3.372
 2050SOL    HW1 6149   3.845   0.345   3.345
 2050SOL    HW2 6150   3.900   0.240   3.439
 2051SOL     OW 6151   3.800   0.554   3.249
 2051SOL    HW1 6152   3.893   0.549   3.226
 2051SOL    HW2 6153   3.794   0.627   3.311
 2052SOL     OW 6154   0.272   0.276   2.195
 2052SOL    HW1 6155   0.282   0.215   2.122
 2052SOL    HW2 6156   0.261   0.361   2.154
 2053SOL     OW 6157   3.784   1.569   3.204
 2053SOL    HW1 6158   3.754   1.645   3.154
 2053SOL    HW2 6159   3.880   1.577   3.204
 2054SOL     OW 6160   0.084   1.085   2.375
 2054SOL    HW1 6161   0.081   1.158   2.314
 2054SOL    HW2 6162   0.113   1.011   2.323
 2055SOL     OW 6163   0.021   0.216   3.099
 2055SOL    HW1 6164  -0.002   0.242   3.188
 2055SOL    HW2 6165   0.007   0.121   3.097
 2056SOL     OW 6166   3.759   1.308   3.141
 2056SOL    HW1 6167   3.809   1.264   3.210
 2056SOL    HW2 6168   3.775   1.401   3.156
 2057SOL     OW 6169   3.733   1.326   2.052
 2057SOL    HW1 6170   3.643   1.340   2.021
 2057SOL    HW2 6171   3.733   1.237   2.087
 2058SOL     OW 6172   3.804   1.798   2.792
 2058SOL    HW1 6173   3.781   1.713   2.754
 2058SOL    HW2 6174   3.898   1.808   2.772
 2059SOL     OW 6175   0.220   1.562   2.751
 2059SOL    HW1 6176   0.280   1.635   2.763
 2059SOL    HW2 6177   0.269   1.498   2.700
 2060SOL     OW 6178   3.758   0.536   2.977
 2060SOL    HW1 6179   3.841   0.518   2.933
 2060SOL    HW2 6180   3.782   0.555   3.068
 2061SOL     OW 6181   3.911   0.523   3.583
 2061SOL    HW1 6182   3.959   0.481   3.511
 2061SOL    HW2 6183   3.853   0.585   3.539
 2062SOL     OW 6184   3.950   1.551   3.589
 2062SOL    HW1 6185   3.951   1.613   3.662
 2062SOL    HW2 6186   3.974   1.467   3.629
 2063SOL     OW 6187   3.856   1.116   3.334
 2063SOL    HW1 6188   3.922   1.091   3.400
 2063SOL    HW2 6189   3.899   1.098   3.250
 2064SOL     OW 6190   3.812   1.258   2.880
 2064SOL    HW1 6191   3.795   1.269   2.974
 2064SOL    HW2 6192   3.735   1.212   2.847
 2065SOL     OW 6193   3.847   1.802   3.704
 2065SOL    HW1 6194   3.805   1.731   3.753
 2065SOL    HW2 6195   3.904   1.845   3.768
 2066SOL     OW 6196   3.817   0.328   1.858
 2066SOL    HW1 6197   3.722   0.325   1.868
 2066SOL    HW2 6198   3.835   0.416   1.825
 2067SOL     OW 6199   3.792   0.152   2.194
 2067SOL    HW1 6200   3.767   0.227   2.140
 2067SOL    HW2 6201   3.885   0.141   2.178
 2068SOL     OW 6202   3.802   1.240   2.519
 2068SOL    HW1 6203   3.800   1.191   2.601
 2068SOL    HW2 6204   3.882   1.211   2.476
 2069SOL     OW 6205   3.756   1.080   2.167
 2069SOL    HW1 6206   3.849   1.076   2.143
 2069SOL    HW2 6207   3.733   0.990   2.189
 2070SOL     OW 6208   3.949   0.614   3.838
 2070SOL    HW1 6209   3.859   0.636   3.862
 2070SOL    HW2 6210   3.945   0.591   3.746
 2071SOL     OW 6211   3.734   1.599   3.842
 2071SOL    HW1 6212   3.734   1.504   3.856
 2071SOL    HW2 6213   3.723   1.635   3.930
 2072SOL     OW 6214   3.737   1.324   3.904
 2072SOL    HW1 6215   3.645   1.342   3.883
 2072SOL    HW2 6216   3.735   1.237   3.945
 2073SOL     OW 6217   3.806   0.338   3.737
 2073SOL    HW1 6218   3.713   0.326   3.718
 2073SOL    HW2 6219   3.829   0.420   3.693
 2074SOL     OW 6220   3.762   1.083   0.016
 2074SOL    HW1 6221   3.856   1.070   0.006
 2074SOL    HW2 6222   3.729   0.999   0.049
 2075SOL     OW 6223   3.944   2.506   0.118
 2075SOL    HW1 6224   3.871   2.461   0.161
 2075SOL    HW2 6225   3.956   2.460   0.035
 2076SOL     OW 6226   3.955   2.128   0.986
 2076SOL    HW1 6227   3.973   2.126   1.080
 2076SOL    HW2 6228   3.862   2.105   0.979
 2077SOL     OW 6229   3.734   2.241   0.637
 2077SOL    HW1 6230   3.655   2.263   0.686
 2077SOL    HW2 6231   3.712   2.159   0.592
 2078SOL     OW 6232   0.025   3.359   1.055
 2078SOL    HW1 6233  -0.014   3.278   1.023
 2078SOL    HW2 6234   0.099   3.374   0.996
 2079SOL     OW 6235   3.941   3.578   0.477
 2079SOL    HW1 6236   3.976   3.650   0.531
 2079SOL    HW2 6237   4.006   3.567   0.408
 2080SOL     OW 6238   3.943   3.299   0.521
 2080SOL    HW1 6239   3.929   3.393   0.533
 2080SOL    HW2 6240   3.883   3.258   0.582
 2081SOL     OW 6241   3.827   2.508   0.558
 2081SOL    HW1 6242   3.802   2.418   0.582
 2081SOL    HW2 6243   3.832   2.554   0.642
 2082SOL     OW 6244   3.717   3.463   0.118
 2082SOL    HW1 6245   3.734   3.372   0.141
 2082SOL    HW2 6246   3.727   3.511   0.201
 2083SOL     OW 6247   3.839   2.600   1.586
 2083SOL    HW1 6248   3.924   2.608   1.629
 2083SOL    HW2 6249   3.804   2.689   1.583
 2084SOL     OW 6250   3.802   2.678   0.776
 2084SOL    HW1 6251   3.893   2.665   0.802
 2084SOL    HW2 6252   3.775   2.758   0.820
 2085SOL     OW 6253   3.852   3.698   1.568
 2085SOL    HW1 6254   3.851   3.671   1.660
 2085SOL    HW2 6255   3.761   3.712   1.546
 2086SOL     OW 6256   3.929   2.159   1.508
 2086SOL    HW1 6257   3.846   2.200   1.484
 2086SOL    HW2 6258   3.905   2.093   1.573
 2087SOL     OW 6259   0.011   1.863   0.149
 2087SOL    HW1 6260   0.040   1.954   0.148
 2087SOL    HW2 6261   0.083   1.815   0.190
 2088SOL     OW 6262   3.800   2.417   1.385
 2088SOL    HW1 6263   3.893   2.411   1.366
 2088SOL    HW2 6264   3.793   2.488   1.449
 2089SOL     OW 6265   0.288   2.130   0.324
 2089SOL    HW1 6266   0.312   2.093   0.240
 2089SOL    HW2 6267   0.270   2.222   0.306
 2090SOL     OW 6268   3.784   3.431   1.342
 2090SOL    HW1 6269   3.755   3.507   1.292
 2090SOL    HW2 6270   3.880   3.439   1.342
 2091SOL     OW 6271   0.087   2.947   0.517
 2091SOL    HW1 6272   0.081   3.021   0.456
 2091SOL    HW2 6273   0.116   2.874   0.463
 2092SOL     OW 6274   0.023   2.075   1.239
 2092SOL    HW1 6275  -0.001   2.103   1.327
 2092SOL    HW2 6276   0.004   1.981   1.239
 2093SOL     OW 6277   3.758   3.170   1.280
 2093SOL    HW1 6278   3.810   3.126   1.347
 2093SOL    HW2 6279   3.775   3.263   1.294
 2094SOL     OW 6280   0.012   1.925   0.633
 2094SOL    HW1 6281   0.028   2.015   0.661
 2094SOL    HW2 6282   0.031   1.872   0.711
 2095SOL     OW 6283   3.732   3.192   0.201
 2095SOL    HW1 6284   3.645   3.207   0.165
 2095SOL    HW2 6285   3.734   3.099   0.223
 2096SOL     OW 6286   3.805   3.660   0.929
 2096SOL    HW1 6287   3.782   3.575   0.892
 2096SOL    HW2 6288   3.898   3.670   0.911
 2097SOL     OW 6289   0.220   3.423   0.890
 2097SOL    HW1 6290   0.277   3.500   0.898
 2097SOL    HW2 6291   0.270   3.361   0.837
 2098SOL     OW 6292   3.758   2.399   1.115
 2098SOL    HW1 6293   3.843   2.383   1.073
 2098SOL    HW2 6294   3.780   2.416   1.206
 2099SOL     OW 6295   3.910   2.380   1.723
 2099SOL    HW1 6296   3.957   2.338   1.651
 2099SOL    HW2 6297   3.852   2.443   1.680
 2100SOL     OW 6298   3.950   3.413   1.730
 2100SOL    HW1 6299   3.951   3.476   1.802
 2100SOL    HW2 6300   3.978   3.330   1.770
 2101SOL     OW 6301   3.856   2.978   1.473
 2101SOL    HW1 6302   3.921   2.953   1.538
 2101SOL    HW2 6303   3.898   2.960   1.388
 2102SOL     OW 6304   3.812   3.120   1.018
 2102SOL    HW1 6305   3.796   3.131   1.112
 2102SOL    HW2 6306   3.735   3.074   0.985
 2103SOL     OW 6307   3.844   3.660   1.838
 2103SOL    HW1 6308   3.802   3.590   1.888
 2103SOL    HW2 6309   3.900   3.705   1.901
 2104SOL     OW 6310   3.777   2.218   0.043
 2104SOL    HW1 6311   3.710   2.163   0.002
 2104SOL    HW2 6312   3.815   2.267  -0.030
 2105SOL     OW 6313   3.792   2.022   0.315
 2105SOL    HW1 6314   3.784   2.108   0.273
 2105SOL    HW2 6315   3.887   2.007   0.320
 2106SOL     OW 6316   3.800   3.101   0.657
 2106SOL    HW1 6317   3.801   3.053   0.740
 2106SOL    HW2 6318   3.881   3.075   0.613
 2107SOL     OW 6319   3.756   2.941   0.314
 2107SOL    HW1 6320   3.848   2.939   0.287
 2107SOL    HW2 6321   3.734   2.850   0.333
 2108SOL     OW 6322   3.954   2.492   1.972
 2108SOL    HW1 6323   3.868   2.489   2.014
 2108SOL    HW2 6324   3.941   2.452   1.886
 2109SOL     OW 6325   3.955   2.127   2.848
 2109SOL    HW1 6326   3.973   2.126   2.942
 2109SOL    HW2 6327   3.862   2.106   2.841
 2110SOL     OW 6328   3.734   2.240   2.499
 2110SOL    HW1 6329   3.655   2.264   2.548
 2110SOL    HW2 6330   3.712   2.159   2.454
 2111SOL     OW 6331   0.025   3.360   2.916
 2111SOL    HW1 6332  -0.014   3.278   2.885
 2111SOL    HW2 6333   0.100   3.374   2.858
 2112SOL     OW 6334   3.940   3.580   2.340
 2112SOL    HW1 6335   3.974   3.651   2.394
 2112SOL    HW2 6336   4.008   3.566   2.273
 2113SOL     OW 6337   3.941   3.300   2.380
 2113SOL    HW1 6338   3.928   3.393   2.396
 2113SOL    HW2 6339   3.885   3.257   2.444
 2114SOL     OW 6340   3.829   2.508   2.421
 2114SOL    HW1 6341   3.801   2.419   2.444
 2114SOL    HW2 6342   3.832   2.555   2.504
 2115SOL     OW 6343   3.748   3.460   1.988
 2115SOL    HW1 6344   3.731   3.367   2.006
 2115SOL    HW2 6345   3.717   3.505   2.066
 2116SOL     OW 6346   3.839   2.600   3.449
 2116SOL    HW1 6347   3.925   2.610   3.489
 2116SOL    HW2 6348   3.804   2.689   3.445
 2117SOL     OW 6349   3.802   2.677   2.638
 2117SOL    HW1 6350   3.893   2.665   2.663
 2117SOL    HW2 6351   3.775   2.758   2.682
 2118SOL     OW 6352   3.852   3.700   3.431
 2118SOL    HW1 6353   3.853   3.671   3.522
 2118SOL    HW2 6354   3.760   3.711   3.410
 2119SOL     OW 6355   3.929   2.160   3.372
 2119SOL    HW1 6356   3.845   2.199   3.346
 2119SOL    HW2 6357   3.905   2.091   3.434
 2120SOL     OW 6358   0.001   1.876   2.032
 2120SOL    HW1 6359   0.036   1.962   2.007
 2120SOL    HW2 6360   0.074   1.833   2.076
 2121SOL     OW 6361   3.800   2.417   3.247
 2121SOL    HW1 6362   3.893   2.411   3.228
 2121SOL    HW2 6363   3.793   2.488   3.311
 2122SOL     OW 6364   0.307   2.147   2.181
 2122SOL    HW1 6365   0.284   2.077   2.119
 2122SOL    HW2 6366   0.254   2.222   2.154
 2123SOL     OW 6367   3.784   3.431   3.203
 2123SOL    HW1 6368   3.755   3.507   3.154
 2123SOL    HW2 6369   3.880   3.439   3.205
 2124SOL     OW 6370   0.084   2.947   2.375
 2124SOL    HW1 6371   0.081   3.020   2.315
 2124SOL    HW2 6372   0.113   2.873   2.322
 2125SOL     OW 6373   0.022   2.075   3.101
 2125SOL    HW1 6374  -0.001   2.103   3.190
 2125SOL    HW2 6375   0.005   1.981   3.101
 2126SOL     OW 6376   3.759   3.170   3.141
 2126SOL    HW1 6377   3.809   3.126   3.210
 2126SOL    HW2 6378   3.775   3.263   3.156
 2127SOL     OW 6379   0.012   1.923   2.496
 2127SOL    HW1 6380   0.028   2.014   2.521
 2127SOL    HW2 6381   0.031   1.873   2.575
 2128SOL     OW 6382   3.733   3.188   2.052
 2128SOL    HW1 6383   3.643   3.202   2.021
 2128SOL    HW2 6384   3.733   3.099   2.087
 2129SOL     OW 6385   3.805   3.660   2.791
 2129SOL    HW1 6386   3.782   3.575   2.754
 2129SOL    HW2 6387   3.898   3.670   2.773
 2130SOL     OW 6388   0.220   3.423   2.751
 2130SOL    HW1 6389   0.277   3.499   2.760
 2130SOL    HW2 6390   0.271   3.361   2.700
 2131SOL     OW 6391   3.758   2.398   2.977
 2131SOL    HW1 6392   3.843   2.383   2.935
 2131SOL    HW2 6393   3.780   2.416   3.068
 2132SOL     OW 6394   3.911   2.381   3.584
 2132SOL    HW1 6395   3.956   2.338   3.512
 2132SOL    HW2 6396   3.852   2.444   3.541
 2133SOL     OW 6397   3.949   3.413   3.589
 2133SOL    HW1 6398   3.952   3.476   3.662
 2133SOL    HW2 6399   3.975   3.330   3.629
 2134SOL     OW 6400   3.856   2.978   3.334
 2134SOL    HW1 6401   3.921   2.953   3.400
 2134SOL    HW2 6402   3.898   2.960   3.250
 2135SOL     OW 6403   3.812   3.120   2.880
 2135SOL    HW1 6404   3.796   3.131   2.974
 2135SOL    HW2 6405   3.735   3.074   2.847
 2136SOL     OW 6406   3.847   3.665   3.705
 2136SOL    HW1 6407   3.807   3.593   3.754
 2136SOL    HW2 6408   3.905   3.708   3.768
 2137SOL     OW 6409   3.799   2.205   1.897
 2137SOL    HW1 6410   3.713   2.176   1.867
 2137SOL    HW2 6411   3.822   2.278   1.839
 2138SOL     OW 6412   3.782   2.019   2.172
 2138SOL    HW1 6413   3.774   2.103   2.126
 2138SOL    HW2 6414   3.876   2.004   2.178
 2139SOL     OW 6415   3.801   3.102   2.519
 2139SOL    HW1 6416   3.800   3.053   2.601
 2139SOL    HW2 6417   3.882   3.073   2.476
 2140SOL     OW 6418   3.756   2.942   2.168
 2140SOL    HW1 6419   3.849   2.938   2.143
 2140SOL    HW2 6420   3.733   2.852   2.189
 2141SOL     OW 6421   3.949   2.477   3.839
 2141SOL    HW1 6422   3.859   2.501   3.861
 2141SOL    HW2 6423   3.945   2.449   3.747
 2142SOL     OW 6424   3.733   3.461   3.842
 2142SOL    HW1 6425   3.735   3.366   3.856
 2142SOL    HW2 6426   3.724   3.497   3.930
 2143SOL     OW 6427   0.010   1.916   3.884
 2143SOL    HW1 6428   0.074   1.986   3.871
 2143SOL    HW2 6429   0.049   1.859   3.949
 2144SOL     OW 6430   0.300   2.108   0.061
 2144SOL    HW1 6431   0.278   2.048  -0.011
 2144SOL    HW2 6432   0.254   2.189   0.040
 2145SOL     OW 6433   3.737   3.186   3.905
 2145SOL    HW1 6434   3.645   3.204   3.883
 2145SOL    HW2 6435   3.735   3.099   3.944
 2146SOL     OW 6436   3.794   2.216   3.760
 2146SOL    HW1 6437   3.716   2.174   3.723
 2146SOL    HW2 6438   3.821   2.280   3.694
 2147SOL     OW 6439   3.762   2.945   0.017
 2147SOL    HW1 6440   3.856   2.931   0.006
 2147SOL    HW2 6441   3.729   2.861   0.049
 2148SOL     OW 6442   3.954   3.985   0.989
 2148SOL    HW1 6443   3.974   3.979   1.082
 2148SOL    HW2 6444   3.863   3.955   0.982
 2149SOL     OW 6445   3.753   0.072   0.683
 2149SOL    HW1 6446   3.678   0.131   0.690
 2149SOL    HW2 6447   3.733   0.014   0.610
 2150SOL     OW 6448   3.925   0.010   1.501
 2150SOL    HW1 6449   3.843   0.057   1.486
 2150SOL    HW2 6450   3.908  -0.047   1.576
 2151SOL     OW 6451   0.005   3.734   0.163
 2151SOL    HW1 6452   0.041   3.819   0.137
 2151SOL    HW2 6453   0.081   3.683   0.191
 2152SOL     OW 6454   0.013   3.938   1.244
 2152SOL    HW1 6455   0.000   3.953   1.338
 2152SOL    HW2 6456   0.010   3.843   1.235
 2153SOL     OW 6457   0.024   3.784   0.632
 2153SOL    HW1 6458   0.034   3.877   0.655
 2153SOL    HW2 6459   0.035   3.738   0.715
 2154SOL     OW 6460   3.775   0.083   0.043
 2154SOL    HW1 6461   3.717   0.026  -0.006
 2154SOL    HW2 6462   3.819   0.136  -0.024
 2155SOL     OW 6463   3.811   3.882   0.320
 2155SOL    HW1 6464   3.805   3.971   0.284
 2155SOL    HW2 6465   3.903   3.858   0.309
 2156SOL     OW 6466   3.954   3.985   2.851
 2156SOL    HW1 6467   3.974   3.979   2.944
 2156SOL    HW2 6468   3.863   3.955   2.844
 2157SOL     OW 6469   3.753   0.075   2.540
 2157SOL    HW1 6470   3.675   0.129   2.553
 2157SOL    HW2 6471   3.727   0.013   2.471
 2158SOL     OW 6472   3.926   0.013   3.366
 2158SOL    HW1 6473   3.841   0.054   3.348
 2158SOL    HW2 6474   3.908  -0.050   3.436
 2159SOL     OW 6475   0.003   3.743   2.030
 2159SOL    HW1 6476   0.038   3.828   2.002
 2159SOL    HW2 6477   0.075   3.701   2.077
 2160SOL     OW 6478   0.012   3.938   3.106
 2160SOL    HW1 6479   0.002   3.953   3.200
 2160SOL    HW2 6480   0.010   3.843   3.097
 2161SOL     OW 6481   0.023   3.784   2.495
 2161SOL    HW1 6482   0.035   3.876   2.517
 2161SOL    HW2 6483   0.035   3.738   2.578
 2162SOL     OW 6484   3.804   0.060   1.888
 2162SOL    HW1 6485   3.718   0.034   1.857
 2162SOL    HW2 6486   3.814   0.151   1.859
 2163SOL     OW 6487   3.789   3.877   2.175
 2163SOL    HW1 6488   3.781   3.966   2.140
 2163SOL    HW2 6489   3.882   3.856   2.165
 2164SOL     OW 6490   0.010   3.777   3.890
 2164SOL    HW1 6491   0.069   3.851   3.874
 2164SOL    HW2 6492   0.060   3.719   3.947
 2165SOL     OW 6493   3.799   0.067   3.754
 2165SOL    HW1 6494   3.719   0.031   3.715
 2165SOL    HW2 6495   3.809   0.153   3.711
   4.00000   4.00000   4.00000
