Water Box for Fluid Dynamics Phase 2 in water
 6495
    1SOL     OW    1   2.245   0.607   1.248 -0.6084 -0.1077  0.1996
    1SOL    HW1    2   2.180   0.558   1.198 -2.4464  2.8977 -0.6122
    1SOL    HW2    3   2.212   0.605   1.338 -0.9403  0.0610  0.0820
    2SOL     OW    4   3.425   1.799   2.441  0.3012 -0.3265  0.2035
    2SOL    HW1    5   3.499   1.858   2.456 -0.6879  1.1160 -0.3202
    2SOL    HW2    6   3.417   1.795   2.346 -0.9997  0.4801  0.2654
    3SOL     OW    7   2.303   2.670   1.376  0.2701 -0.0626  0.5231
    3SOL    HW1    8   2.397   2.662   1.362  0.3870  1.0928  0.5703
    3SOL    HW2    9   2.288   2.636   1.464  0.6725 -0.0605  0.5931
    4SOL     OW   10   2.048   2.678   2.074  0.0018 -0.4608  0.4566
    4SOL    HW1   11   2.069   2.590   2.044 -0.8683 -1.0199  1.4430
    4SOL    HW2   12   1.958   2.672   2.106  0.2281  0.5734  1.3386
    5SOL     OW   13   0.351   2.825   0.425  0.4171 -0.8437 -0.0938
    5SOL    HW1   14   0.275   2.870   0.462 -0.1378 -1.3126 -0.6375
    5SOL    HW2   15   0.404   2.801   0.501  1.8637  2.5981  0.1639
    6SOL     OW   16   3.573   0.815   2.480  0.4867 -0.2313 -0.1247
    6SOL    HW1   17   3.514   0.824   2.406  1.3470 -1.3908 -0.9947
    6SOL    HW2   18   3.636   0.748   2.453  0.7102 -0.8491  1.7338
    7SOL     OW   19   0.307   1.895   0.693  0.7004 -0.3256  0.7655
    7SOL    HW1   20   0.291   1.966   0.631  0.3270  0.5835  1.8530
    7SOL    HW2   21   0.395   1.911   0.727  0.8634 -0.7531  0.5479
    8SOL     OW   22   3.151   2.868   0.737 -0.0093  0.5112  0.0333
    8SOL    HW1   23   3.151   2.950   0.787 -1.2443  0.4503  0.1586
    8SOL    HW2   24   3.125   2.895   0.649 -1.8988  0.0804  0.4256
    9SOL     OW   25   3.819   3.595   1.878 -0.7344  0.0141  0.2704
    9SOL    HW1   26   3.846   3.556   1.961  0.5068  1.9886  0.8521
    9SOL    HW2   27   3.847   3.532   1.812  2.3685  0.3651  1.0847
   10SOL     OW   28   3.415   1.291   3.590 -0.0210 -0.1711 -0.0040
   10SOL    HW1   29   3.358   1.358   3.552  1.1828  0.6974 -0.3214
   10SOL    HW2   30   3.497   1.299   3.543  0.4326 -1.3153  0.5416
   11SOL     OW   31   3.414   3.645   3.200 -0.0850  0.1231 -0.2720
   11SOL    HW1   32   3.479   3.703   3.161  0.8148  0.9078  2.1663
   11SOL    HW2   33   3.351   3.704   3.242  0.9572 -0.5139  2.4203
   12SOL     OW   34   2.644   0.569   0.286 -0.0557  0.2447  0.4626
   12SOL    HW1   35   2.555   0.562   0.252 -0.5329 -3.4940  2.0099
   12SOL    HW2   36   2.640   0.644   0.346 -2.6790 -0.7391  1.6824
   13SOL     OW   37   1.045   0.672   3.430 -0.1909  0.3042  0.6624
   13SOL    HW1   38   0.956   0.647   3.456 -0.9657  2.1874 -0.0229
   13SOL    HW2   39   1.091   0.685   3.512 -0.9377  0.5993  1.0432
   14SOL     OW   40   3.866   1.848   1.904  0.1217 -0.2611 -0.6193
   14SOL    HW1   41   3.920   1.777   1.939 -2.0032 -0.6991  2.0847
   14SOL    HW2   42   3.902   1.927   1.944  0.6879 -0.1374 -1.3480
   15SOL     OW   43   3.971   1.907   0.259 -0.0336  0.5439  0.0742
   15SOL    HW1   44   3.972   1.847   0.333  1.0405 -0.1375 -0.4747
   15SOL    HW2   45   3.907   1.870   0.198  1.5824 -0.8633 -0.8730
   16SOL     OW   46   1.164   3.519   1.544  0.4495 -0.0930  0.1666
   16SOL    HW1   47   1.140   3.494   1.455 -2.3122  3.1651 -0.1960
   16SOL    HW2   48   1.259   3.521   1.544  0.5281  0.2901 -2.8903
   17SOL     OW   49   2.606   1.649   0.499  0.6453 -0.4612  0.1619
   17SOL    HW1   50   2.534   1.629   0.560 -0.3902  1.6248 -0.2896
   17SOL    HW2   51   2.671   1.693   0.553 -0.5759  2.0322 -0.2399
   18SOL     OW   52   1.309   1.908   1.087  0.1159  0.0506  0.3074
   18SOL    HW1   53   1.326   1.891   0.994  1.8889  0.7164  0.4653
   18SOL    HW2   54   1.326   2.002   1.097  2.7348 -0.4815  1.8091
   19SOL     OW   55   1.053   2.070   0.060 -0.0498  0.3112 -0.1452
   19SOL    HW1   56   1.080   1.978   0.063  0.5806  0.4512 -1.2570
   19SOL    HW2   57   0.957   2.066   0.051  0.1473 -0.3017 -2.5635
   20SOL     OW   58   2.080   0.660   0.830 -0.7183 -0.3480  0.5677
   20SOL    HW1   59   2.152   0.656   0.893 -0.6375 -1.1404  0.4328
   20SOL    HW2   60   2.079   0.751   0.800  2.0143 -0.8653 -1.4946
   21SOL     OW   61   2.516   0.383   3.913 -0.3468 -0.3447 -0.1227
   21SOL    HW1   62   2.456   0.367   3.841 -0.1749 -0.6809 -0.1900
   21SOL    HW2   63   2.580   0.313   3.908 -0.2688 -0.3071  0.2899
   22SOL     OW   64   0.197   3.767   0.189 -0.2452 -0.9063  0.2097
   22SOL    HW1   65   0.154   3.793   0.270 -1.1675  1.4193 -0.9222
   22SOL    HW2   66   0.130   3.719   0.140 -1.0784  1.1313 -0.7760
   23SOL     OW   67   3.995   2.533   0.644 -0.1537  0.0215 -0.5174
   23SOL    HW1   68   4.036   2.571   0.566 -1.3571 -2.0241 -2.2697
   23SOL    HW2   69   3.909   2.504   0.614  0.1074 -2.6421  1.0274
   24SOL     OW   70   2.615   2.502   0.206  0.2266  0.9083 -0.2157
   24SOL    HW1   71   2.587   2.593   0.201 -0.8155  0.6303  0.1398
   24SOL    HW2   72   2.675   2.491   0.133 -0.3625  1.6444 -0.8270
   25SOL     OW   73   1.560   2.948   1.202 -0.1827  0.3692 -0.1399
   25SOL    HW1   74   1.549   2.874   1.142  3.1878 -0.5193  0.1333
   25SOL    HW2   75   1.550   3.025   1.147 -0.8541 -0.3237 -1.0368
   26SOL     OW   76   1.095   1.278   3.800  0.3554  0.1475 -0.4048
   26SOL    HW1   77   1.072   1.186   3.782  3.5410 -0.4687 -2.0179
   26SOL    HW2   78   1.161   1.272   3.869  1.6003  1.0617 -1.4730
   27SOL     OW   79   3.095   0.890   0.022  0.0787 -0.2233 -0.5454
   27SOL    HW1   80   3.005   0.863   0.036 -0.1151  1.0593  0.9723
   27SOL    HW2   81   3.146   0.809   0.030 -0.8455 -0.8096 -0.4913
   28SOL     OW   82   1.314   3.479   3.045 -0.2176 -0.0479  0.4922
   28SOL    HW1   83   1.307   3.485   2.950  0.2753  2.1584  0.5393
   28SOL    HW2   84   1.276   3.561   3.077 -0.0002 -0.5656  2.1798
   29SOL     OW   85   3.288   1.796   1.236  0.2213  0.5257 -0.2148
   29SOL    HW1   86   3.384   1.798   1.236  0.3263 -0.4214  2.5673
   29SOL    HW2   87   3.266   1.707   1.209  0.2015  0.2872  0.5654
   30SOL     OW   88   1.739   2.549   3.087  0.4955 -0.5500 -0.5021
   30SOL    HW1   89   1.755   2.510   3.173 -0.1600 -0.6004 -0.3950
   30SOL    HW2   90   1.715   2.475   3.031  2.2387 -0.7103 -1.0911
   31SOL     OW   91   3.628   0.373   2.208  0.4137  0.5139 -0.0908
   31SOL    HW1   92   3.719   0.400   2.218  0.2548  0.4708  1.7313
   31SOL    HW2   93   3.577   0.446   2.244 -0.2711  0.4055 -0.8124
   32SOL     OW   94   1.195   3.970   2.495 -0.0565  0.2230  0.3229
   32SOL    HW1   95   1.152   3.965   2.410  0.6845  0.3616 -0.0605
   32SOL    HW2   96   1.287   3.951   2.478  0.2714  1.1624  0.9492
   33SOL     OW   97   3.434   2.006   1.635 -0.8422 -0.6338  0.3551
   33SOL    HW1   98   3.345   1.974   1.652 -1.1591  0.1135  0.1169
   33SOL    HW2   99   3.489   1.960   1.699 -1.6045 -0.0215  1.4827
   34SOL     OW  100   2.762   0.486   0.043  0.1467 -0.1159 -0.0602
   34SOL    HW1  101   2.732   0.488   0.134  1.9840  0.1492  0.5881
   34SOL    HW2  102   2.745   0.397   0.013 -0.4521 -0.2094  0.5534
   35SOL     OW  103   2.090   2.845   2.437 -0.2174 -0.8244  0.0452
   35SOL    HW1  104   2.046   2.840   2.352 -1.3268  1.3835  0.3984
   35SOL    HW2  105   2.141   2.765   2.443 -0.2150 -1.1101 -2.6384
   36SOL     OW  106   2.595   0.932   2.443  0.1793  0.2351  0.4011
   36SOL    HW1  107   2.538   1.007   2.458 -2.2450 -0.7615 -2.7661
   36SOL    HW2  108   2.581   0.908   2.351  0.4352 -4.3457  1.2937
   37SOL     OW  109   0.416   0.070   3.020 -0.0482  0.3695  0.1026
   37SOL    HW1  110   0.379   0.121   3.092 -2.2087 -0.0756 -0.6194
   37SOL    HW2  111   0.360   0.090   2.945 -2.5537 -4.5779  0.2472
   38SOL     OW  112   2.698   1.834   1.878  0.5617 -0.1181 -0.5078
   38SOL    HW1  113   2.643   1.834   1.799  0.3249 -1.0827 -0.3536
   38SOL    HW2  114   2.658   1.899   1.935  0.0817 -0.2031 -0.7432
   39SOL     OW  115   2.081   3.659   1.713  0.0349 -0.3226 -0.9219
   39SOL    HW1  116   2.002   3.679   1.764  0.3315 -0.7431 -0.2827
   39SOL    HW2  117   2.125   3.590   1.763  2.5747  2.1797  0.6494
   40SOL     OW  118   3.496   3.249   3.885  0.2004 -0.1255 -0.7250
   40SOL    HW1  119   3.561   3.206   3.829  0.0006 -0.5705 -0.6215
   40SOL    HW2  120   3.424   3.186   3.890 -0.5617  0.6554 -1.4311
   41SOL     OW  121   1.500   3.929   0.934  0.2949  0.5655 -0.4784
   41SOL    HW1  122   1.530   3.884   1.013  1.9323  1.4128 -0.5677
   41SOL    HW2  123   1.575   3.927   0.875 -1.0832 -0.6123 -2.3233
   42SOL     OW  124   1.231   1.751   3.541  0.9261 -0.3872 -0.8687
   42SOL    HW1  125   1.264   1.679   3.594 -1.0368 -1.5282 -1.1247
   42SOL    HW2  126   1.212   1.821   3.604  2.2230 -0.2824 -0.5562
   43SOL     OW  127   1.393   2.991   2.033 -0.5286 -0.0736  0.0966
   43SOL    HW1  128   1.424   2.943   1.956  0.6245  0.1476  0.4000
   43SOL    HW2  129   1.355   3.071   1.997  2.6161  1.4390 -0.1727
   44SOL     OW  130   2.395   2.118   1.135 -0.0558 -0.2716  0.9120
   44SOL    HW1  131   2.418   2.198   1.087  1.2724 -1.6743 -0.9717
   44SOL    HW2  132   2.304   2.100   1.111  0.6638 -1.1211 -1.5564
   45SOL     OW  133   1.078   1.284   0.606  0.2510  0.0819 -0.6266
   45SOL    HW1  134   1.091   1.375   0.632 -1.0098 -0.3893  2.0018
   45SOL    HW2  135   1.162   1.242   0.624  0.2801  0.3694 -0.0765
   46SOL     OW  136   0.134   0.457   2.784  1.0323  0.3288  0.2157
   46SOL    HW1  137   0.168   0.510   2.856  1.3940  0.5498 -0.1121
   46SOL    HW2  138   0.192   0.381   2.781  2.6755  1.5633 -1.4943
   47SOL     OW  139   1.500   0.092   3.795  0.5750  0.1834  0.3090
   47SOL    HW1  140   1.573   0.040   3.761  0.7784  1.4730 -1.3495
   47SOL    HW2  141   1.516   0.180   3.762 -0.5498  1.0017  1.8150
   48SOL     OW  142   2.535   1.130   3.643  0.0705  0.3221  0.3075
   48SOL    HW1  143   2.465   1.099   3.585 -3.2439  1.9643  2.9998
   48SOL    HW2  144   2.600   1.169   3.585 -2.1207  0.2734 -2.3671
   49SOL     OW  145   3.057   1.465   0.370 -0.4979 -0.3060  0.5148
   49SOL    HW1  146   3.045   1.442   0.462 -2.3655 -0.5086  0.2649
   49SOL    HW2  147   2.996   1.538   0.355 -1.9470 -1.7524 -1.0720
   50SOL     OW  148   2.719   1.740   2.374 -0.0060  0.0290  0.2495
   50SOL    HW1  149   2.742   1.833   2.368  0.9851 -0.3073 -2.0892
   50SOL    HW2  150   2.790   1.700   2.423  1.6583 -0.0548 -2.0595
   51SOL     OW  151   1.240   2.464   1.772  0.9356 -0.3931 -0.4362
   51SOL    HW1  152   1.335   2.457   1.759  1.5346  1.0252  2.3871
   51SOL    HW2  153   1.230   2.474   1.867 -1.7911  2.8115 -0.9033
   52SOL     OW  154   1.760   0.387   1.693 -0.2784 -0.5159  0.3227
   52SOL    HW1  155   1.843   0.404   1.736 -0.7741 -0.7776  1.4246
   52SOL    HW2  156   1.734   0.299   1.724 -0.8990 -0.4883 -0.0917
   53SOL     OW  157   0.051   2.970   0.740  0.1026 -0.5510 -0.4972
   53SOL    HW1  158  -0.041   2.998   0.731  0.4657  2.3802  2.7013
   53SOL    HW2  159   0.055   2.930   0.827  1.9268 -0.0497 -0.3168
   54SOL     OW  160   0.202   0.215   1.702  0.4130  0.4982 -0.1430
   54SOL    HW1  161   0.210   0.121   1.712  0.2569  0.6084  1.1703
   54SOL    HW2  162   0.114   0.235   1.734  1.2732  1.3492  1.8712
   55SOL     OW  163   1.994   1.421   2.197 -0.3848  0.3566  0.1466
   55SOL    HW1  164   1.980   1.341   2.146 -0.8189  1.2601 -1.2210
   55SOL    HW2  165   2.008   1.489   2.131  1.7121  1.1297  1.2925
   56SOL     OW  166   3.808   1.382   3.708  0.1774 -0.1126 -0.3151
   56SOL    HW1  167   3.756   1.453   3.745  0.1558  0.8915 -2.1901
   56SOL    HW2  168   3.745   1.310   3.696 -0.1120  0.0469  0.2117
   57SOL     OW  169   2.498   3.083   1.445 -0.3900  0.2426 -0.1536
   57SOL    HW1  170   2.515   3.145   1.375  1.3004 -0.1820 -0.1713
   57SOL    HW2  171   2.407   3.057   1.433  0.2327 -0.9372 -3.1279
   58SOL     OW  172   0.652   1.109   2.871 -0.1310 -0.6168 -0.2777
   58SOL    HW1  173   0.565   1.140   2.848  0.2199  2.2322  1.7727
   58SOL    HW2  174   0.672   1.152   2.954  1.9493 -3.7361  1.0446
   59SOL     OW  175   3.661   1.562   3.879 -0.0974 -0.2164 -0.2893
   59SOL    HW1  176   3.577   1.586   3.840 -0.2454  0.5799  0.5048
   59SOL    HW2  177   3.710   1.644   3.884  1.1168 -0.8048 -1.6044
   60SOL     OW  178   0.183   2.255   3.595  0.1496  0.3132 -0.2772
   60SOL    HW1  179   0.254   2.238   3.657 -0.7102  0.2537  0.7251
   60SOL    HW2  180   0.199   2.195   3.523  0.6742 -0.2689  0.3131
   61SOL     OW  181   0.364   0.090   3.478 -0.3634 -1.2959 -0.0876
   61SOL    HW1  182   0.406   0.147   3.414 -0.3857 -3.7503 -2.4601
   61SOL    HW2  183   0.434   0.067   3.539  1.1148 -2.8637 -2.2077
   62SOL     OW  184   3.383   2.149   1.368 -0.4194 -0.1611 -0.2373
   62SOL    HW1  185   3.382   2.156   1.273  1.0687  1.4099 -0.1846
   62SOL    HW2  186   3.362   2.238   1.399 -0.3537 -0.5210  0.8845
   63SOL     OW  187   2.006   0.317   0.591 -0.0198 -0.2546 -0.5716
   63SOL    HW1  188   1.947   0.385   0.624 -1.0809 -1.7117  0.6796
   63SOL    HW2  189   2.091   0.337   0.631 -0.1412  0.7366 -0.7966
   64SOL     OW  190   3.421   2.312   1.659  0.4762 -0.3641 -0.1862
   64SOL    HW1  191   3.399   2.353   1.575 -2.3571 -0.0148  0.6242
   64SOL    HW2  192   3.412   2.218   1.643  2.6113 -0.5119 -0.8893
   65SOL     OW  193   2.999   1.135   1.193  0.5782  0.6752  0.1913
   65SOL    HW1  194   3.049   1.166   1.268  1.4133 -1.0918  0.4130
   65SOL    HW2  195   3.064   1.092   1.137 -0.3257  0.3734 -0.6494
   66SOL     OW  196   3.475   3.809   2.800  0.2704 -0.1900 -0.1619
   66SOL    HW1  197   3.381   3.827   2.799  0.3583  0.8100 -3.6814
   66SOL    HW2  198   3.481   3.717   2.827 -1.6750 -0.1869  0.4631
   67SOL     OW  199   1.886   1.710   1.688 -0.4266 -0.0604  0.0875
   67SOL    HW1  200   1.953   1.773   1.712  0.6951  0.0289 -2.8302
   67SOL    HW2  201   1.809   1.763   1.667  0.1932  0.3103 -1.3604
   68SOL     OW  202   2.087   0.824   0.503 -0.0005 -0.6438  0.8612
   68SOL    HW1  203   2.165   0.831   0.448  0.2180  1.0511  1.3127
   68SOL    HW2  204   2.117   0.854   0.589 -1.6477  2.4528  0.4896
   69SOL     OW  205   0.144   0.464   0.649  0.2663  0.9893  0.2948
   69SOL    HW1  206   0.115   0.523   0.580 -1.8529  0.3338  0.5531
   69SOL    HW2  207   0.151   0.379   0.607 -0.5860  0.6749  0.7594
   70SOL     OW  208   3.779   3.977   3.850 -0.1464 -0.1916 -0.2715
   70SOL    HW1  209   3.875   3.982   3.857 -0.0924  0.7841 -1.3608
   70SOL    HW2  210   3.758   3.886   3.870  1.0129 -0.4184 -0.0256
   71SOL     OW  211   3.837   1.806   2.812  0.2814  0.2480 -0.0172
   71SOL    HW1  212   3.757   1.833   2.765  1.2807  1.3338 -1.1896
   71SOL    HW2  213   3.805   1.755   2.886 -1.7793  3.4682  1.5923
   72SOL     OW  214   0.207   1.867   0.113 -1.3864  0.3350 -0.4704
   72SOL    HW1  215   0.252   1.842   0.194  1.2769  0.9607 -1.6561
   72SOL    HW2  216   0.116   1.879   0.140 -1.8183 -4.6722  1.3401
   73SOL     OW  217   2.278   2.807   2.118 -0.2155 -0.7456  0.0951
   73SOL    HW1  218   2.329   2.763   2.049 -0.1692  0.4079 -0.6321
   73SOL    HW2  219   2.189   2.775   2.105 -0.1977 -0.5692 -0.4745
   74SOL     OW  220   3.361   0.988   0.230  0.3195  0.0961  0.0415
   74SOL    HW1  221   3.402   1.021   0.151 -0.6897 -0.3697 -0.7071
   74SOL    HW2  222   3.270   1.018   0.225 -0.0039 -0.7478  0.5318
   75SOL     OW  223   0.049   0.699   2.450  0.5220  0.0425 -0.1310
   75SOL    HW1  224   0.076   0.739   2.368  1.0073  0.7570  0.3614
   75SOL    HW2  225   0.085   0.610   2.447  0.3817  0.0048 -0.7589
   76SOL     OW  226   0.663   1.782   1.651 -0.8395  0.3675 -0.0518
   76SOL    HW1  227   0.660   1.755   1.743 -0.0063  0.3023 -0.0399
   76SOL    HW2  228   0.611   1.717   1.605  1.4889 -1.5880 -0.0850
   77SOL     OW  229   2.614   3.474   0.867  0.2215  0.2098  0.5103
   77SOL    HW1  230   2.526   3.469   0.830  0.3374 -0.9128  0.3535
   77SOL    HW2  231   2.648   3.558   0.835 -0.3831  0.1406 -0.3560
   78SOL     OW  232   3.093   2.048   1.245 -0.0349 -0.1555 -0.3788
   78SOL    HW1  233   3.162   1.993   1.209 -0.4810 -0.0357 -1.4421
   78SOL    HW2  234   3.021   1.987   1.263  0.1871 -0.2156  0.3261
   79SOL     OW  235   2.168   2.572   0.287  0.2249  0.1571  0.1906
   79SOL    HW1  236   2.181   2.479   0.269 -0.6948 -0.1076  0.8291
   79SOL    HW2  237   2.119   2.575   0.370  0.6608  1.2195  0.4358
   80SOL     OW  238   1.276   2.759   3.786  0.6338  0.1957 -0.5538
   80SOL    HW1  239   1.344   2.692   3.774 -0.7216 -1.4592  0.5702
   80SOL    HW2  240   1.194   2.711   3.784 -0.3276  1.5234  2.1419
   81SOL     OW  241   0.327   1.643   1.433 -0.5070  0.5405 -0.2504
   81SOL    HW1  242   0.310   1.650   1.527 -0.5494 -1.1816 -0.0890
   81SOL    HW2  243   0.309   1.551   1.412  2.4795  0.0635 -1.3123
   82SOL     OW  244   1.930   1.512   3.565  0.2506 -0.3231 -0.0533
   82SOL    HW1  245   1.929   1.521   3.470  1.5338 -0.6645 -0.1245
   82SOL    HW2  246   1.860   1.569   3.595  0.6542  0.8107 -1.1372
   83SOL     OW  247   1.918   1.920   3.457 -0.0956  0.2181  0.5023
   83SOL    HW1  248   1.895   2.010   3.478  0.1612  1.0876 -2.5338
   83SOL    HW2  249   1.849   1.868   3.498 -2.8338  2.1433 -1.3299
   84SOL     OW  250   2.311   1.359   2.067 -0.4897  0.2823 -0.3245
   84SOL    HW1  251   2.238   1.296   2.065 -1.8183  1.7438 -1.4440
   84SOL    HW2  252   2.352   1.349   1.981  2.0640 -1.9957  1.0280
   85SOL     OW  253   0.247   0.617   1.971 -0.2417  0.0802 -0.6934
   85SOL    HW1  254   0.251   0.524   1.992 -1.0341  0.1758 -0.0595
   85SOL    HW2  255   0.239   0.621   1.876  0.0901 -0.4872 -0.7442
   86SOL     OW  256   2.942   2.913   1.957 -0.4708 -0.3743 -0.3717
   86SOL    HW1  257   2.948   2.818   1.966  0.3875 -0.4053 -1.1211
   86SOL    HW2  258   2.957   2.947   2.045  2.2760 -0.8503 -0.5496
   87SOL     OW  259   1.796   1.536   1.122 -0.4340 -0.2601  0.1044
   87SOL    HW1  260   1.831   1.486   1.196  0.1758  1.5223  1.0647
   87SOL    HW2  261   1.702   1.522   1.126 -0.4672  0.2413  1.5699
   88SOL     OW  262   1.715   2.369   3.287  0.3211 -0.0060 -0.4453
   88SOL    HW1  263   1.642   2.310   3.273  1.3982 -1.8153  1.0454
   88SOL    HW2  264   1.793   2.315   3.275  1.3626  1.0018  1.2781
   89SOL     OW  265   1.459   3.332   0.805  0.4960 -0.2233  0.3188
   89SOL    HW1  266   1.407   3.411   0.817 -2.3920 -2.2141  2.0315
   89SOL    HW2  267   1.544   3.364   0.775 -0.1225  3.5787  2.0482
   90SOL     OW  268   1.979   1.152   2.659 -0.1256 -0.4861 -0.0697
   90SOL    HW1  269   1.956   1.225   2.602  0.1194 -0.0819  0.3402
   90SOL    HW2  270   1.908   1.090   2.647 -1.1940  0.5200  0.7829
   91SOL     OW  271   2.786   2.839   0.309  0.2234  0.6929 -0.1401
   91SOL    HW1  272   2.849   2.894   0.263 -0.0359  0.6705 -0.5193
   91SOL    HW2  273   2.839   2.790   0.372  0.3587  1.9995  0.8051
   92SOL     OW  274   3.277   1.956   0.332  0.6163  0.2341 -0.2801
   92SOL    HW1  275   3.278   1.923   0.242  0.9457 -0.9381  0.1326
   92SOL    HW2  276   3.260   1.879   0.385 -1.8970  1.2574  0.5582
   93SOL     OW  277   0.542   1.866   3.827  0.5997 -0.5040 -0.5265
   93SOL    HW1  278   0.483   1.905   3.892  0.1629 -1.5438 -0.2873
   93SOL    HW2  279   0.518   1.909   3.745  0.1116 -0.2839 -0.2763
   94SOL     OW  280   2.965   1.945   3.919 -0.2747  0.7638 -0.4693
   94SOL    HW1  281   2.892   2.004   3.939 -1.4708 -0.4424 -1.1079
   94SOL    HW2  282   2.957   1.876   3.985 -0.1221  0.2669 -0.9752
   95SOL     OW  283   0.454   3.886   1.319  0.2272  0.0964 -0.1646
   95SOL    HW1  284   0.421   3.887   1.230 -2.1651  1.0039  0.6338
   95SOL    HW2  285   0.521   3.954   1.321  0.6904 -0.3080 -1.3739
   96SOL     OW  286   3.261   2.568   0.407 -0.0570  0.1378  0.2328
   96SOL    HW1  287   3.303   2.487   0.436  0.0431  0.5738  1.3707
   96SOL    HW2  288   3.334   2.622   0.375  0.1634  0.5449  1.3668
   97SOL     OW  289   0.926   1.332   1.106  0.2195  0.2215 -0.5536
   97SOL    HW1  290   0.971   1.407   1.144 -1.3355  0.6850  0.4930
   97SOL    HW2  291   0.988   1.260   1.114  0.8130  0.8367  0.7523
   98SOL     OW  292   3.887   3.344   0.964  0.7720 -0.7910 -0.6511
   98SOL    HW1  293   3.864   3.437   0.954  0.6509 -0.8175 -0.6307
   98SOL    HW2  294   3.910   3.334   1.056 -1.6967 -1.3020 -0.0195
   99SOL     OW  295   0.250   3.330   0.185  0.0636 -0.9651 -0.2774
   99SOL    HW1  296   0.330   3.342   0.236 -0.5955 -0.5868  0.6980
   99SOL    HW2  297   0.279   3.331   0.094  1.5550 -3.7678  0.0827
  100SOL     OW  298   2.204   0.191   3.354 -0.0659  0.2175  0.2971
  100SOL    HW1  299   2.152   0.172   3.276  1.7219  1.9113 -1.4305
  100SOL    HW2  300   2.278   0.131   3.349  0.2456  0.5768  0.4720
  101SOL     OW  301   1.331   2.961   1.358  0.1152  1.1200  0.6701
  101SOL    HW1  302   1.292   2.898   1.298 -1.0406  2.2190  0.2270
  101SOL    HW2  303   1.402   3.002   1.308  1.4527 -0.3735  1.2416
  102SOL     OW  304   2.721   3.167   1.578  0.9213 -0.4389  1.0547
  102SOL    HW1  305   2.756   3.112   1.648  0.1378 -0.9987  1.0190
  102SOL    HW2  306   2.655   3.112   1.535  1.0976  0.0529  0.1493
  103SOL     OW  307   0.381   1.891   2.669 -0.0387 -0.1352  0.6432
  103SOL    HW1  308   0.375   1.796   2.662  0.4259 -0.0950 -0.5446
  103SOL    HW2  309   0.467   1.907   2.709  0.3767 -0.1949 -0.2068
  104SOL     OW  310   1.798   2.295   1.255 -0.5061 -0.1375  0.4699
  104SOL    HW1  311   1.883   2.253   1.271 -1.7281 -2.8384  0.4394
  104SOL    HW2  312   1.766   2.318   1.342  0.5486  1.6298  0.4292
  105SOL     OW  313   0.782   0.744   0.299 -0.1418 -0.6590 -0.4995
  105SOL    HW1  314   0.766   0.656   0.332  2.8291 -0.4718  1.9285
  105SOL    HW2  315   0.797   0.797   0.377 -0.4106  1.6854 -1.9384
  106SOL     OW  316   3.131   1.056   1.786 -0.1264  0.1971 -0.6863
  106SOL    HW1  317   3.139   0.981   1.728 -1.1977  0.5653 -1.3351
  106SOL    HW2  318   3.211   1.106   1.773 -0.8997  0.9814 -2.8937
  107SOL     OW  319   0.361   3.250   1.961 -1.2351 -0.2792 -0.4563
  107SOL    HW1  320   0.373   3.303   2.039  0.0647 -0.5528 -0.4424
  107SOL    HW2  321   0.369   3.312   1.888 -1.4675 -0.1833 -0.4014
  108SOL     OW  322   2.109   3.913   0.814 -0.6468  0.8173 -0.5008
  108SOL    HW1  323   2.062   3.996   0.811 -0.4659  0.9790  0.6379
  108SOL    HW2  324   2.130   3.901   0.907 -1.3615 -0.8880 -0.5298
  109SOL     OW  325   3.522   1.844   3.192  0.5856 -0.1087 -0.0455
  109SOL    HW1  326   3.601   1.897   3.182  0.1408  0.5164 -0.2974
  109SOL    HW2  327   3.450   1.901   3.165 -0.0773 -0.3064  1.2281
  110SOL     OW  328   2.243   1.810   0.336 -0.3684 -1.1508 -0.2638
  110SOL    HW1  329   2.236   1.827   0.242 -1.8866  0.1175  0.0403
  110SOL    HW2  330   2.331   1.841   0.359 -0.0732 -1.2490 -1.2110
  111SOL     OW  331   0.791   3.613   2.450  0.2411 -0.3319 -1.0322
  111SOL    HW1  332   0.850   3.682   2.482  0.5902 -1.2152  0.3062
  111SOL    HW2  333   0.813   3.536   2.503 -1.5354 -0.9222 -1.0998
  112SOL     OW  334   0.056   1.668   4.002 -0.5970  0.7676  0.2894
  112SOL    HW1  335   0.129   1.729   4.003 -1.9086  2.4231  0.3012
  112SOL    HW2  336   0.024   1.670   3.912  0.5888 -1.5440 -0.2429
  113SOL     OW  337   2.761   0.486   3.725  0.3802  0.5858 -0.2937
  113SOL    HW1  338   2.723   0.440   3.800  1.0615 -0.6168 -0.6484
  113SOL    HW2  339   2.845   0.519   3.757 -1.0309  3.6186  0.6178
  114SOL     OW  340   3.747   0.245   3.824  0.4708  0.6517 -0.3278
  114SOL    HW1  341   3.730   0.151   3.819 -1.4301  1.0207 -2.9951
  114SOL    HW2  342   3.672   0.280   3.873 -0.5666  1.0654 -2.1378
  115SOL     OW  343   3.014   3.398   3.124  0.6567 -0.0511 -0.0973
  115SOL    HW1  344   3.046   3.309   3.109 -0.3742 -0.3623 -0.5049
  115SOL    HW2  345   2.943   3.409   3.061  0.3364  0.8325  0.4035
  116SOL     OW  346   0.736   2.159   1.271  0.2317 -0.0005 -0.0301
  116SOL    HW1  347   0.829   2.157   1.250 -0.1195 -0.4016 -1.7364
  116SOL    HW2  348   0.716   2.069   1.298  0.8192  0.6600  2.9511
  117SOL     OW  349   3.179   3.984   3.816  0.4090 -0.1605 -0.2519
  117SOL    HW1  350   3.255   4.015   3.866 -0.8579  1.1540  0.9441
  117SOL    HW2  351   3.196   3.891   3.803  3.1722  0.4198 -1.7804
  118SOL     OW  352   0.975   2.009   1.047 -0.1504 -0.3744 -0.7701
  118SOL    HW1  353   0.969   1.963   1.131  0.5718 -0.3620 -0.7028
  118SOL    HW2  354   1.067   2.038   1.042  0.0233 -1.0590 -1.9287
  119SOL     OW  355   3.481   1.739   1.872 -0.2777 -0.1939  0.3260
  119SOL    HW1  356   3.504   1.831   1.889  0.7359 -0.4696  0.5160
  119SOL    HW2  357   3.402   1.743   1.819  1.1156  0.8525 -1.7917
  120SOL     OW  358   3.150   0.426   2.665  0.2030 -0.1606 -1.3354
  120SOL    HW1  359   3.190   0.508   2.636  0.1051 -0.8393 -3.5895
  120SOL    HW2  360   3.184   0.413   2.753  2.3855  0.9346 -1.9366
  121SOL     OW  361   2.269   3.237   3.221  0.0888  0.1823 -0.0455
  121SOL    HW1  362   2.228   3.245   3.308  2.5943 -2.4492  1.5606
  121SOL    HW2  363   2.363   3.228   3.240  0.6412 -1.2287 -2.9622
  122SOL     OW  364   2.749   1.613   3.798 -0.6750  0.1476  0.0108
  122SOL    HW1  365   2.687   1.624   3.725 -0.0978  0.1456 -0.4897
  122SOL    HW2  366   2.747   1.697   3.843 -2.5264 -0.4745  1.2105
  123SOL     OW  367   1.944   0.196   2.018  0.0253 -0.0042 -0.1095
  123SOL    HW1  368   1.940   0.241   1.934 -1.2271 -0.2897 -0.2342
  123SOL    HW2  369   1.883   0.122   2.009 -0.5513  0.2641  1.1972
  124SOL     OW  370   2.588   2.144   1.313 -0.4932  0.2377 -0.4903
  124SOL    HW1  371   2.497   2.148   1.284 -1.6028  2.5392  2.7373
  124SOL    HW2  372   2.639   2.136   1.232 -3.5036 -2.1687 -2.3592
  125SOL     OW  373   0.246   0.242   3.150  0.0607  0.0424  0.0148
  125SOL    HW1  374   0.283   0.328   3.128 -0.0049  0.2776  0.7896
  125SOL    HW2  375   0.213   0.253   3.239  1.2323 -1.1729  0.6301
  126SOL     OW  376   3.189   3.070   1.726  0.0708 -0.0475  0.2705
  126SOL    HW1  377   3.269   3.059   1.777  0.7389 -0.2798 -0.7902
  126SOL    HW2  378   3.122   3.091   1.791  0.9972  0.2108  1.1760
  127SOL     OW  379   3.538   3.037   3.152  1.2101 -0.0172  0.2453
  127SOL    HW1  380   3.516   2.944   3.158  0.9810  0.0462  0.3996
  127SOL    HW2  381   3.475   3.080   3.210  2.3329  0.0679  1.4293
  128SOL     OW  382   0.862   2.122   1.975 -0.4160  0.7537  0.5597
  128SOL    HW1  383   0.867   2.080   2.061  0.4562 -0.3154  0.0214
  128SOL    HW2  384   0.780   2.091   1.937  1.0449 -2.0429 -0.5593
  129SOL     OW  385   2.742   2.743   1.122 -0.6188 -0.0830 -0.2443
  129SOL    HW1  386   2.749   2.824   1.071 -1.6324  0.5707  0.6235
  129SOL    HW2  387   2.708   2.771   1.207 -0.8050 -1.4031  0.1368
  130SOL     OW  388   0.452   0.356   3.378 -0.3662  0.5171 -0.3062
  130SOL    HW1  389   0.497   0.386   3.457 -1.5537  2.0386 -0.1491
  130SOL    HW2  390   0.377   0.415   3.370  0.4025  1.2408 -3.2913
  131SOL     OW  391   2.005   0.974   3.460 -0.1434  0.3270 -0.1440
  131SOL    HW1  392   1.939   1.042   3.447  0.4031  0.8046 -0.4598
  131SOL    HW2  393   1.992   0.945   3.550  0.9284  2.2718  0.6914
  132SOL     OW  394   2.707   3.991   0.882  0.3896  0.8660 -0.0427
  132SOL    HW1  395   2.645   3.941   0.828  2.4351 -1.1847 -0.6581
  132SOL    HW2  396   2.654   4.061   0.920 -2.0757 -0.1833 -1.2805
  133SOL     OW  397   3.274   3.697   3.910  0.0671 -0.5684 -0.2556
  133SOL    HW1  398   3.224   3.617   3.926 -1.3764  0.5535  1.1532
  133SOL    HW2  399   3.266   3.747   3.991  0.0732  1.4461 -1.4270
  134SOL     OW  400   0.690   3.397   2.776 -0.1511 -0.3835  0.3590
  134SOL    HW1  401   0.764   3.372   2.721  1.4414 -0.9951  2.6610
  134SOL    HW2  402   0.685   3.492   2.769  1.9321 -0.1593  1.4184
  135SOL     OW  403   1.577   3.059   2.642  0.5676  0.1377  0.3542
  135SOL    HW1  404   1.637   2.987   2.624 -0.0878 -0.6812  1.3846
  135SOL    HW2  405   1.631   3.125   2.685  0.8412 -0.4067  0.8560
  136SOL     OW  406   3.916   1.579   0.217  0.5348 -0.0849 -0.0956
  136SOL    HW1  407   3.828   1.612   0.197  0.0093 -1.6185 -0.4010
  136SOL    HW2  408   3.968   1.604   0.141 -0.2695 -1.4185 -1.1319
  137SOL     OW  409   3.135   1.564   1.531 -0.2835 -0.1961  0.4970
  137SOL    HW1  410   3.050   1.520   1.538 -0.4665  0.1084  0.1787
  137SOL    HW2  411   3.115   1.657   1.537 -0.0368 -0.0928 -0.1943
  138SOL     OW  412   0.281   2.366   0.591 -0.6146  0.3072  0.7267
  138SOL    HW1  413   0.196   2.409   0.581 -1.9317 -1.9509  1.4551
  138SOL    HW2  414   0.332   2.427   0.645 -2.3372  1.0301  1.6372
  139SOL     OW  415   1.523   2.764   3.017 -0.4633  0.6095  0.7674
  139SOL    HW1  416   1.614   2.771   2.986 -0.5126  0.5495  0.6099
  139SOL    HW2  417   1.478   2.714   2.949 -1.3034  3.1060 -0.6461
  140SOL     OW  418   1.403   0.918   3.849 -0.3397  0.3498  0.5361
  140SOL    HW1  419   1.383   0.829   3.820 -2.2686  0.6421  0.8770
  140SOL    HW2  420   1.499   0.924   3.842 -0.3411 -1.0056 -1.5860
  141SOL     OW  421   3.419   2.046   3.421 -0.3834 -0.4230  0.3420
  141SOL    HW1  422   3.494   2.016   3.473  1.4680  0.8410 -1.4112
  141SOL    HW2  423   3.425   1.995   3.340 -0.5681  0.6562 -0.3689
  142SOL     OW  424   0.105   1.700   1.084  0.2473  0.2486 -0.1126
  142SOL    HW1  425   0.198   1.708   1.064 -0.0849  0.7187 -1.5965
  142SOL    HW2  426   0.096   1.736   1.172  2.1338 -3.8111  2.0514
  143SOL     OW  427   0.199   3.968   3.751  0.8157  0.4086 -0.3829
  143SOL    HW1  428   0.270   3.962   3.815  0.1304  1.0268  0.4512
  143SOL    HW2  429   0.240   3.942   3.668  1.6624 -0.6012  0.3221
  144SOL     OW  430   2.882   2.906   2.715 -1.2517  0.4309  0.0313
  144SOL    HW1  431   2.940   2.898   2.639 -0.9512  1.2078  0.1697
  144SOL    HW2  432   2.927   2.861   2.786 -0.1592  2.1551  0.4900
  145SOL     OW  433   2.492   2.821   0.788 -0.5226 -0.7594  0.3779
  145SOL    HW1  434   2.408   2.816   0.833 -2.2616 -1.4206 -2.6946
  145SOL    HW2  435   2.510   2.732   0.758  0.8101 -0.4462  0.1568
  146SOL     OW  436   1.011   0.068   1.962 -0.4291  0.0880 -0.2593
  146SOL    HW1  437   0.929   0.018   1.964  0.7373 -1.9269 -0.7388
  146SOL    HW2  438   1.059   0.033   1.887  1.1739  0.7499  0.4119
  147SOL     OW  439   1.510   0.830   2.663 -0.6357 -0.1201  0.1756
  147SOL    HW1  440   1.465   0.746   2.666  0.4461 -0.7165  0.1158
  147SOL    HW2  441   1.515   0.852   2.570 -0.0467 -0.4729  0.1229
  148SOL     OW  442   1.032   3.651   0.383 -0.4131 -0.2966  0.0034
  148SOL    HW1  443   0.991   3.713   0.324  0.4198  0.4349  0.1717
  148SOL    HW2  444   1.123   3.644   0.352 -0.7483 -2.2934 -0.7099
  149SOL     OW  445   0.635   1.876   2.446 -1.0410  0.0988  0.4616
  149SOL    HW1  446   0.574   1.947   2.428 -2.2894 -0.6658  1.4777
  149SOL    HW2  447   0.633   1.866   2.541  1.0376  0.3434  0.5614
  150SOL     OW  448   3.374   2.979   3.878  0.2973  0.9456  0.5230
  150SOL    HW1  449   3.289   3.003   3.915 -0.9027 -1.8728 -0.1090
  150SOL    HW2  450   3.359   2.893   3.838  3.0701  1.0693 -1.0427
  151SOL     OW  451   1.225   2.578   2.005  0.4339 -0.0135  0.1703
  151SOL    HW1  452   1.164   2.537   2.066  0.6436 -1.4158 -0.5089
  151SOL    HW2  453   1.263   2.651   2.053 -1.9707  1.0897  0.5216
  152SOL     OW  454   0.052   1.172   2.275 -0.3175  0.0049 -0.8960
  152SOL    HW1  455   0.102   1.097   2.308 -0.4384  0.7254  1.0396
  152SOL    HW2  456   0.051   1.159   2.180  0.1834 -2.1087 -0.6781
  153SOL     OW  457   0.526   3.472   3.336 -0.8494  0.1336  0.1908
  153SOL    HW1  458   0.544   3.541   3.273  1.3618 -1.8017 -1.4588
  153SOL    HW2  459   0.589   3.486   3.406 -0.6184 -0.0354  0.0156
  154SOL     OW  460   0.469   0.469   3.136 -0.4122  0.9103 -0.4241
  154SOL    HW1  461   0.478   0.412   3.212 -1.6204  0.3296 -0.6827
  154SOL    HW2  462   0.546   0.526   3.138 -0.1284  0.5009  0.8852
  155SOL     OW  463   0.472   0.175   1.206 -0.1820  0.1039 -0.2199
  155SOL    HW1  464   0.384   0.137   1.207 -0.7304  1.2769  1.8896
  155SOL    HW2  465   0.487   0.198   1.114 -1.8993 -0.4773 -0.6902
  156SOL     OW  466   0.515   2.707   0.613  0.5789 -0.7091 -0.3883
  156SOL    HW1  467   0.499   2.613   0.613  0.9432 -0.7722 -0.1782
  156SOL    HW2  468   0.552   2.725   0.699  0.7136 -0.4071 -0.5097
  157SOL     OW  469   3.021   1.281   3.564  0.0889 -0.2963  0.2430
  157SOL    HW1  470   2.999   1.315   3.651 -0.2596 -0.5075  0.2402
  157SOL    HW2  471   3.038   1.188   3.579  0.9337 -0.1470  0.2344
  158SOL     OW  472   0.547   3.713   2.500  0.2168  0.1157  0.2455
  158SOL    HW1  473   0.633   3.687   2.466 -0.0710  0.4925 -0.8119
  158SOL    HW2  474   0.511   3.632   2.536  0.0804 -0.5740 -1.3817
  159SOL     OW  475   1.035   1.073   1.153  0.0523  0.5826  0.2550
  159SOL    HW1  476   1.058   1.047   1.242 -1.0881 -1.3899  0.0411
  159SOL    HW2  477   0.951   1.030   1.136  0.5508  0.3439 -1.9790
  160SOL     OW  478   3.474   3.933   3.388  0.6118 -0.0868 -0.5918
  160SOL    HW1  479   3.488   3.958   3.480 -5.2567  1.5928  0.2665
  160SOL    HW2  480   3.419   3.855   3.392  0.0328  0.1481 -2.6706
  161SOL     OW  481   0.963   1.973   1.630  0.1508  0.2862 -0.1209
  161SOL    HW1  482   1.040   1.934   1.673 -1.2612 -1.2071  1.2149
  161SOL    HW2  483   0.898   1.980   1.700 -0.8932  1.6775 -1.1754
  162SOL     OW  484   2.198   0.142   2.690  0.3610 -0.4601  0.2200
  162SOL    HW1  485   2.281   0.168   2.731  0.2206 -1.1443  0.9664
  162SOL    HW2  486   2.223   0.083   2.620  0.5779  0.3898 -0.4389
  163SOL     OW  487   2.671   3.986   3.685  0.0794 -0.1279  0.6467
  163SOL    HW1  488   2.659   3.892   3.672  1.0312 -0.0220 -1.1697
  163SOL    HW2  489   2.754   3.993   3.733  0.2084 -0.1835  0.4287
  164SOL     OW  490   0.712   2.398   0.316 -0.4181 -0.1825 -0.7846
  164SOL    HW1  491   0.628   2.355   0.330 -0.7881  0.1949 -1.7161
  164SOL    HW2  492   0.735   2.376   0.225  0.0233  0.4822 -0.8418
  165SOL     OW  493   3.057   1.389   3.271  0.4702 -0.1461 -0.6289
  165SOL    HW1  494   3.073   1.325   3.201 -3.8091 -0.2304 -1.7932
  165SOL    HW2  495   3.030   1.336   3.346 -1.9105  0.0899 -1.2349
  166SOL     OW  496   2.496   1.359   2.278  0.0062 -0.1613 -0.2131
  166SOL    HW1  497   2.426   1.358   2.213  1.5529  3.2609 -2.2320
  166SOL    HW2  498   2.545   1.278   2.262 -1.7892 -1.2151 -0.6799
  167SOL     OW  499   3.346   1.515   0.280 -0.7013  0.2064 -0.6680
  167SOL    HW1  500   3.397   1.558   0.349 -0.0670 -0.1764 -0.8917
  167SOL    HW2  501   3.278   1.468   0.328  0.3415 -0.8875 -0.2037
  168SOL     OW  502   2.975   1.127   3.267 -0.3111 -0.1155  0.0354
  168SOL    HW1  503   2.946   1.143   3.177  1.1844  1.9877 -0.1559
  168SOL    HW2  504   2.984   1.032   3.273 -0.6535 -0.3170 -1.9732
  169SOL     OW  505   1.191   0.173   3.678  0.0984 -0.2533  0.4467
  169SOL    HW1  506   1.256   0.102   3.674 -2.0907 -2.3291 -0.2094
  169SOL    HW2  507   1.140   0.155   3.757 -0.5809  0.5261  0.2013
  170SOL     OW  508   1.900   3.847   1.285  0.6796 -0.3906 -0.2554
  170SOL    HW1  509   1.870   3.911   1.350  1.5058 -0.2059 -0.0478
  170SOL    HW2  510   1.961   3.791   1.333  0.1344 -1.2125 -0.4885
  171SOL     OW  511   2.717   1.165   0.862  0.2043 -0.7194  0.0003
  171SOL    HW1  512   2.634   1.181   0.818  0.3905  0.6211  0.1097
  171SOL    HW2  513   2.742   1.249   0.899  1.7991 -1.0089 -0.3308
  172SOL     OW  514   0.360   3.753   2.289 -0.3768 -0.2687 -0.6560
  172SOL    HW1  515   0.298   3.725   2.357 -2.3215  1.0873 -1.7739
  172SOL    HW2  516   0.446   3.730   2.324 -1.4437 -1.5066  1.3267
  173SOL     OW  517   1.772   2.959   0.568  0.0071  0.3780  0.2352
  173SOL    HW1  518   1.793   3.041   0.523  1.6210  0.1364  0.4934
  173SOL    HW2  519   1.790   2.891   0.503 -1.3793  0.2114  0.0033
  174SOL     OW  520   3.719   3.062   1.955 -0.1301 -0.0451  0.8548
  174SOL    HW1  521   3.755   2.974   1.946 -1.7192 -0.6886  0.4267
  174SOL    HW2  522   3.790   3.121   1.930  0.2921 -1.2828 -0.9815
  175SOL     OW  523   1.615   2.693   2.425  0.0772  0.3300 -0.2706
  175SOL    HW1  524   1.565   2.640   2.487 -0.4842  1.2187  0.0699
  175SOL    HW2  525   1.550   2.754   2.389  0.6241  0.5277 -0.9381
  176SOL     OW  526   2.494   2.601   1.178 -0.1028 -0.0414 -0.8461
  176SOL    HW1  527   2.575   2.648   1.158  1.1204 -0.7687  1.8602
  176SOL    HW2  528   2.511   2.560   1.263 -1.8369 -3.6067 -2.0016
  177SOL     OW  529   1.101   3.755   0.882 -0.1280  0.1040 -0.7566
  177SOL    HW1  530   1.045   3.782   0.810 -0.1899 -0.6457 -1.0033
  177SOL    HW2  531   1.081   3.816   0.953 -2.0293 -0.7476 -0.4898
  178SOL     OW  532   3.109   1.376   0.053 -0.0291 -0.6122 -0.4097
  178SOL    HW1  533   3.138   1.461   0.085 -2.0638 -0.3332  0.8850
  178SOL    HW2  534   3.108   1.320   0.130 -0.1731 -1.3784 -0.9509
  179SOL     OW  535   0.582   2.672   0.935 -0.2441 -0.3182 -0.5536
  179SOL    HW1  536   0.622   2.758   0.954 -1.1926 -0.1600  0.9293
  179SOL    HW2  537   0.488   2.688   0.941 -0.5345 -0.9822 -2.6426
  180SOL     OW  538   0.967   1.586   1.785 -0.3313 -0.2115  0.0197
  180SOL    HW1  539   0.960   1.568   1.879  0.2532  1.6780  0.4900
  180SOL    HW2  540   0.899   1.652   1.769 -0.7648 -0.8936 -1.0051
  181SOL     OW  541   1.661   0.269   3.613  0.3044 -0.2428 -0.3106
  181SOL    HW1  542   1.704   0.220   3.683  1.3368  1.1811  0.0960
  181SOL    HW2  543   1.732   0.314   3.567 -0.5064  0.0803 -1.3017
  182SOL     OW  544   1.751   3.588   1.443  0.8842  0.7241  0.0535
  182SOL    HW1  545   1.736   3.545   1.527  0.1969  0.4995 -0.1728
  182SOL    HW2  546   1.815   3.533   1.398 -1.3107 -1.1531 -0.9848
  183SOL     OW  547   0.741   1.860   0.272  1.2180  0.4850 -0.0449
  183SOL    HW1  548   0.704   1.837   0.357  1.3759 -0.4348 -0.2090
  183SOL    HW2  549   0.776   1.777   0.238 -0.3601  0.4621 -1.7550
  184SOL     OW  550   0.548   0.748   1.926 -0.5045 -0.7735  1.1313
  184SOL    HW1  551   0.586   0.796   1.852  1.4945 -1.7635  1.4602
  184SOL    HW2  552   0.479   0.694   1.886 -0.9577  0.3170  0.3621
  185SOL     OW  553   0.030   3.082   2.046  0.7437 -0.2122 -0.1809
  185SOL    HW1  554   0.051   3.004   1.994 -0.5042  2.0442 -4.5341
  185SOL    HW2  555   0.114   3.123   2.064  1.2765 -1.6135  0.7202
  186SOL     OW  556   1.473   2.092   1.413 -0.0471  0.2275 -0.4790
  186SOL    HW1  557   1.487   2.135   1.497 -0.2441 -0.5078 -0.0578
  186SOL    HW2  558   1.395   2.037   1.427  0.3902 -0.5196 -0.8896
  187SOL     OW  559   0.068   1.925   1.250  0.1748 -0.4150 -0.4631
  187SOL    HW1  560   0.085   1.962   1.164  0.5701 -0.6814 -0.4958
  187SOL    HW2  561  -0.022   1.954   1.271 -0.4084 -1.4062 -1.5008
  188SOL     OW  562   1.964   1.445   0.914 -0.0520  0.0125  0.1407
  188SOL    HW1  563   1.928   1.481   0.833 -1.0053 -1.2391 -0.0154
  188SOL    HW2  564   1.893   1.454   0.978  0.6282  0.8132  0.8087
  189SOL     OW  565   0.394   3.801   3.640 -0.0093  0.2147  0.2686
  189SOL    HW1  566   0.381   3.714   3.678 -0.1932  0.5602  1.0067
  189SOL    HW2  567   0.345   3.799   3.558 -3.8812  1.0582  2.3578
  190SOL     OW  568   0.616   1.275   3.781  0.2718  0.1392 -0.6743
  190SOL    HW1  569   0.624   1.205   3.716 -0.7486 -1.0302  0.3980
  190SOL    HW2  570   0.691   1.263   3.839 -0.0978 -0.3251 -0.2791
  191SOL     OW  571   0.556   3.669   2.811 -0.1136  0.1092  0.2653
  191SOL    HW1  572   0.577   3.694   2.901  1.0159  2.5875 -0.5664
  191SOL    HW2  573   0.523   3.750   2.771 -2.7030 -1.4536 -1.0146
  192SOL     OW  574   2.575   3.016   2.479 -0.3791 -0.2161  0.6058
  192SOL    HW1  575   2.519   2.941   2.462 -0.3865 -0.4143  1.4712
  192SOL    HW2  576   2.657   2.996   2.433 -0.7609 -0.2503 -0.0685
  193SOL     OW  577   3.558   0.719   3.239  0.4304 -1.2291 -0.1594
  193SOL    HW1  578   3.548   0.736   3.333 -1.5025 -1.2903 -0.3204
  193SOL    HW2  579   3.653   0.715   3.226  0.8213  1.0910  1.3699
  194SOL     OW  580   1.168   3.822   1.597  0.3681 -0.8819 -0.1317
  194SOL    HW1  581   1.103   3.891   1.611  1.7190  0.1032  1.6477
  194SOL    HW2  582   1.123   3.742   1.623 -0.9945 -0.6392 -1.5696
  195SOL     OW  583   1.229   1.262   1.086 -0.5585 -0.5095 -0.0370
  195SOL    HW1  584   1.212   1.196   1.153 -1.2777  1.6653  2.0411
  195SOL    HW2  585   1.324   1.276   1.089 -0.3526 -1.6571 -0.7460
  196SOL     OW  586   3.052   0.597   0.256  0.0756  0.4272  0.1697
  196SOL    HW1  587   2.965   0.575   0.221  0.2975  0.1821 -0.2359
  196SOL    HW2  588   3.113   0.570   0.187  0.3458  2.8572 -0.6588
  197SOL     OW  589   2.938   0.932   1.946 -0.2724 -0.8594 -0.5909
  197SOL    HW1  590   3.002   0.994   1.911  0.5717  0.1617  2.5107
  197SOL    HW2  591   2.854   0.975   1.932  0.2969  1.1625  1.5531
  198SOL     OW  592   0.277   3.869   1.123 -0.6029 -0.1732  0.2613
  198SOL    HW1  593   0.225   3.796   1.155  0.7801 -0.3068  2.4393
  198SOL    HW2  594   0.220   3.914   1.061 -1.9235 -2.3660 -0.2147
  199SOL     OW  595   2.242   3.953   2.465 -0.6427 -0.4550  0.3180
  199SOL    HW1  596   2.203   3.871   2.435  1.2984 -1.8007  1.3290
  199SOL    HW2  597   2.336   3.940   2.458 -0.2687  1.8233  0.2039
  200SOL     OW  598   1.043   3.574   3.044  0.9066 -0.3783 -0.2893
  200SOL    HW1  599   1.020   3.481   3.053 -0.8182  0.0991  0.6647
  200SOL    HW2  600   1.055   3.587   2.950  0.3439 -1.3818 -0.5116
  201SOL     OW  601   1.489   2.911   0.230 -0.6582 -0.8658 -0.1396
  201SOL    HW1  602   1.446   2.906   0.314  0.1031 -1.3545  0.2358
  201SOL    HW2  603   1.520   3.002   0.224  1.1389 -1.3367  1.0830
  202SOL     OW  604   1.541   1.323   3.139 -0.1174 -0.5781 -0.5543
  202SOL    HW1  605   1.606   1.253   3.133  0.5226 -0.3118  2.1382
  202SOL    HW2  606   1.485   1.297   3.212 -1.8426  0.2043 -1.5433
  203SOL     OW  607   1.392   1.128   3.670  0.2661 -0.3460 -0.0239
  203SOL    HW1  608   1.372   1.064   3.738 -0.4255  0.3616  0.4499
  203SOL    HW2  609   1.400   1.211   3.716 -3.7078  0.8562 -1.0932
  204SOL     OW  610   0.073   2.728   2.296 -0.2241  0.2239 -0.4883
  204SOL    HW1  611   0.137   2.739   2.366  2.2235 -1.1370 -2.3534
  204SOL    HW2  612   0.068   2.814   2.254  0.6549  0.2633 -0.5287
  205SOL     OW  613   2.323   3.647   3.564 -0.1249 -0.1415 -0.2605
  205SOL    HW1  614   2.306   3.680   3.476 -1.6035 -1.5898 -0.5626
  205SOL    HW2  615   2.351   3.556   3.551 -0.9261 -0.5592  0.7635
  206SOL     OW  616   1.876   1.891   0.835  0.6593 -0.9744 -0.7002
  206SOL    HW1  617   1.821   1.924   0.763  0.5495  2.1128  0.6023
  206SOL    HW2  618   1.824   1.909   0.914  2.2378 -0.8377  0.3601
  207SOL     OW  619   1.646   3.342   2.289 -0.2280 -0.5045 -0.1590
  207SOL    HW1  620   1.707   3.284   2.334  0.4571 -1.7551 -2.5271
  207SOL    HW2  621   1.563   3.293   2.288 -0.3545 -0.2945  0.1220
  208SOL     OW  622   2.665   0.428   1.459 -0.2036 -0.2589  0.9207
  208SOL    HW1  623   2.722   0.494   1.422  0.4562 -1.3897 -0.1444
  208SOL    HW2  624   2.634   0.466   1.542  1.9348  0.4486  1.4444
  209SOL     OW  625   1.289   3.383   2.442 -0.0763  0.2502  0.6008
  209SOL    HW1  626   1.300   3.292   2.469  0.0223 -0.4921 -1.7215
  209SOL    HW2  627   1.332   3.388   2.357 -2.3056  1.7743 -0.5474
  210SOL     OW  628   2.881   2.815   0.877 -0.6693  0.2169 -0.3489
  210SOL    HW1  629   2.924   2.857   0.802  0.0019  3.2552  1.5670
  210SOL    HW2  630   2.936   2.740   0.897  1.5502  1.7159 -0.4627
  211SOL     OW  631   1.070   3.126   3.190  0.6382 -0.0869 -0.3051
  211SOL    HW1  632   1.039   3.096   3.104 -1.1269 -1.3154  0.6724
  211SOL    HW2  633   0.991   3.157   3.234  1.5080  0.5147  0.8832
  212SOL     OW  634   3.430   0.226   2.071  0.1277  0.6734  0.2412
  212SOL    HW1  635   3.454   0.159   2.135  0.2272  0.2688 -0.2148
  212SOL    HW2  636   3.506   0.285   2.069  1.1420 -0.5839 -1.1725
  213SOL     OW  637   1.343   2.354   3.497 -0.4758 -0.7631 -0.3161
  213SOL    HW1  638   1.411   2.362   3.564 -0.0049 -2.9012 -0.4886
  213SOL    HW2  639   1.334   2.443   3.462  0.9855 -0.0899  0.8948
  214SOL     OW  640   3.508   1.689   0.943 -0.5976  0.3228  0.0592
  214SOL    HW1  641   3.534   1.597   0.944 -0.1560  0.4239  2.3763
  214SOL    HW2  642   3.588   1.737   0.923 -0.8299  0.2580 -1.1598
  215SOL     OW  643   1.124   2.318   3.989 -0.3969  0.0649  0.1288
  215SOL    HW1  644   1.172   2.270   3.922  2.8881  0.6384  1.8625
  215SOL    HW2  645   1.088   2.250   4.046  0.7764 -0.4313  0.3151
  216SOL     OW  646   1.014   1.971   3.492 -0.1766 -0.0824  0.5340
  216SOL    HW1  647   0.997   2.010   3.407  0.3829  0.9973  0.9005
  216SOL    HW2  648   0.948   2.010   3.550  0.5485  0.5424  0.9576
  217SOL     OW  649   0.094   0.749   2.169  0.6863  0.2092 -0.0070
  217SOL    HW1  650   0.004   0.718   2.157  0.5312  0.1363  1.2490
  217SOL    HW2  651   0.143   0.705   2.099  0.1543 -1.5409  0.6612
  218SOL     OW  652   3.626   2.386   2.973 -0.5210 -0.6854  0.1839
  218SOL    HW1  653   3.592   2.300   2.998  1.7879 -1.8505 -0.4120
  218SOL    HW2  654   3.676   2.415   3.049 -0.8215 -0.1064  0.1668
  219SOL     OW  655   2.549   3.799   2.413 -0.8090 -0.1676 -0.3830
  219SOL    HW1  656   2.521   3.759   2.331  0.5905  0.0548 -0.9921
  219SOL    HW2  657   2.628   3.751   2.437 -0.0431  1.1130 -0.2618
  220SOL     OW  658   0.722   0.500   0.418 -0.1410  1.3017 -0.1378
  220SOL    HW1  659   0.693   0.419   0.376  0.8136  0.2437  1.1390
  220SOL    HW2  660   0.763   0.471   0.499 -1.1428  3.1763  1.1290
  221SOL     OW  661   0.370   1.667   3.046 -0.8251 -0.1851  0.3191
  221SOL    HW1  662   0.392   1.589   3.098  2.6974 -0.1116 -0.7699
  221SOL    HW2  663   0.302   1.637   2.985  0.1233 -2.3206  0.2191
  222SOL     OW  664   0.377   3.075   2.257 -0.5856  0.4974 -0.4507
  222SOL    HW1  665   0.454   3.025   2.283 -2.7295 -4.7726 -2.8260
  222SOL    HW2  666   0.402   3.115   2.173 -0.3633 -1.5804 -1.4581
  223SOL     OW  667   0.785  -0.023   0.854 -0.8171  0.4701 -0.4281
  223SOL    HW1  668   0.871  -0.010   0.894 -0.6637 -1.1218 -0.1914
  223SOL    HW2  669   0.740   0.061   0.866 -0.0274  0.6989  1.2203
  224SOL     OW  670   1.613   1.080   2.861 -0.2598  0.4451 -0.3566
  224SOL    HW1  671   1.542   1.093   2.923  0.0596  0.8035 -0.0564
  224SOL    HW2  672   1.691   1.071   2.915 -0.2604 -1.4859 -0.6045
  225SOL     OW  673   1.537   3.433   3.573  0.1915  0.4866 -0.1374
  225SOL    HW1  674   1.598   3.505   3.555 -1.4578  1.8403 -0.6050
  225SOL    HW2  675   1.471   3.441   3.505 -0.5428 -0.9108  0.3807
  226SOL     OW  676   1.355   1.702   1.576  0.3918 -0.1172  0.2217
  226SOL    HW1  677   1.335   1.637   1.644  1.0282  1.0513  1.5906
  226SOL    HW2  678   1.304   1.779   1.601  2.0366  0.9512  0.4725
  227SOL     OW  679   3.364   1.323   0.600  0.2722 -0.4249  0.0950
  227SOL    HW1  680   3.376   1.242   0.550 -1.1338 -1.5024  1.4367
  227SOL    HW2  681   3.448   1.368   0.592  1.1739 -2.1219 -0.4922
  228SOL     OW  682   1.725   1.926   0.601 -0.1465  0.0899  0.8850
  228SOL    HW1  683   1.636   1.898   0.582 -0.8558  2.1403  0.9085
  228SOL    HW2  684   1.736   2.007   0.551  1.5443  0.1265  1.2408
  229SOL     OW  685   1.373   1.240   3.376 -0.4332 -0.1025 -0.3300
  229SOL    HW1  686   1.409   1.174   3.435  1.8201  0.6174 -0.8350
  229SOL    HW2  687   1.318   1.295   3.433  1.8647  0.7199  1.2412
  230SOL     OW  688   2.849   3.606   2.294 -0.0625 -0.7835  0.3015
  230SOL    HW1  689   2.852   3.683   2.351 -0.7938  0.3128 -1.0601
  230SOL    HW2  690   2.916   3.547   2.329 -0.3504 -0.0908  2.1462
  231SOL     OW  691   3.048   0.894   2.384 -0.1995 -0.1710  0.4048
  231SOL    HW1  692   3.003   0.975   2.357 -0.5751 -0.3658  0.4402
  231SOL    HW2  693   3.056   0.902   2.479  0.5800  0.2373  0.3131
  232SOL     OW  694   1.546   2.153   3.397 -0.4899 -0.2552  0.1480
  232SOL    HW1  695   1.525   2.060   3.406  0.0918 -0.3517  0.5789
  232SOL    HW2  696   1.465   2.198   3.421 -0.7224 -0.6434  0.1108
  233SOL     OW  697   1.622   3.958   1.182  0.0359 -0.6216  0.0956
  233SOL    HW1  698   1.690   4.023   1.201  1.0638 -1.8015  0.5626
  233SOL    HW2  699   1.547   3.986   1.235  0.5580  0.0175  0.5066
  234SOL     OW  700   3.001   0.735   3.773 -0.3563 -0.5604  0.4573
  234SOL    HW1  701   2.929   0.737   3.836 -0.8957  3.7411 -0.0010
  234SOL    HW2  702   3.071   0.785   3.814  0.0708  0.5076 -1.4580
  235SOL     OW  703   2.129   2.027   2.586 -0.2663 -0.5933  0.0698
  235SOL    HW1  704   2.082   2.077   2.519 -0.8934 -0.7298  0.4022
  235SOL    HW2  705   2.067   2.018   2.657  0.1699 -1.0354  0.4008
  236SOL     OW  706   1.029  -0.013   1.002 -0.3189  0.3280 -0.1930
  236SOL    HW1  707   1.018   0.014   1.093 -3.3841  2.0394 -0.9066
  236SOL    HW2  708   1.112   0.025   0.975  0.2568  0.4699  1.6294
  237SOL     OW  709   0.644   0.652   1.101 -0.4923 -0.2531  0.0623
  237SOL    HW1  710   0.639   0.666   1.007  0.3402 -1.4454 -0.1761
  237SOL    HW2  711   0.693   0.727   1.134  2.5271 -1.6306 -0.9829
  238SOL     OW  712   0.167   0.488   3.659  0.1165 -0.4015 -0.8170
  238SOL    HW1  713   0.178   0.395   3.675 -0.3154 -0.7413 -2.3428
  238SOL    HW2  714   0.074   0.504   3.675 -0.2133 -0.6443 -2.4147
  239SOL     OW  715   0.242   0.191   2.793 -0.0026 -0.5147  0.5861
  239SOL    HW1  716   0.319   0.165   2.743 -1.1199 -0.0438 -1.4808
  239SOL    HW2  717   0.168   0.151   2.747 -1.1333  0.3249  1.5915
  240SOL     OW  718   0.702   0.274   2.897  0.4953 -0.0268 -0.0398
  240SOL    HW1  719   0.750   0.206   2.849  1.8971  2.3646 -2.2718
  240SOL    HW2  720   0.767   0.342   2.913 -1.2525  1.6000  0.4376
  241SOL     OW  721   2.486   0.998   2.973  0.0606 -0.3057 -0.1948
  241SOL    HW1  722   2.564   1.047   2.996 -0.4710  0.8159 -0.7350
  241SOL    HW2  723   2.503   0.965   2.885 -0.2547  0.3365 -0.5011
  242SOL     OW  724   1.203   1.850   3.832  0.2909  0.1715 -0.1646
  242SOL    HW1  725   1.162   1.934   3.850 -2.4947 -0.1871 -3.7132
  242SOL    HW2  726   1.137   1.785   3.858  0.6255 -0.6902 -1.3737
  243SOL     OW  727   0.268   1.649   2.646  0.2784  0.0403 -0.1756
  243SOL    HW1  728   0.268   1.612   2.558 -0.6838 -0.1823 -0.0922
  243SOL    HW2  729   0.212   1.727   2.639  0.0138 -0.1023  0.2780
  244SOL     OW  730   0.655   3.248   1.511  0.8748 -0.3903  0.0554
  244SOL    HW1  731   0.728   3.198   1.549 -1.3198 -3.2392  0.8808
  244SOL    HW2  732   0.591   3.181   1.485 -2.0257  1.9678  0.6158
  245SOL     OW  733   3.541   2.394   0.662 -0.2183  0.0869  0.0429
  245SOL    HW1  734   3.510   2.458   0.727  0.0045 -0.2299  0.4635
  245SOL    HW2  735   3.476   2.323   0.666  0.7247 -0.7501  1.1859
  246SOL     OW  736   0.593   2.985   1.727 -0.1121  0.3959  0.7207
  246SOL    HW1  737   0.597   2.918   1.659  0.7757 -1.3706  2.4074
  246SOL    HW2  738   0.671   2.968   1.781 -0.8156  1.6801  2.2063
  247SOL     OW  739   2.587   3.846   0.001 -0.7266  0.2650  0.6296
  247SOL    HW1  740   2.632   3.762   0.008 -0.3613  0.1742 -1.8055
  247SOL    HW2  741   2.633   3.904   0.060  0.6817 -0.6138  0.4281
  248SOL     OW  742   0.611   0.976   1.540 -0.3504  0.4101  0.2053
  248SOL    HW1  743   0.667   1.051   1.521 -0.4035  0.1371 -1.1796
  248SOL    HW2  744   0.654   0.931   1.613  1.5690 -0.0793 -1.1327
  249SOL     OW  745   2.985   2.544   3.078 -0.8668 -0.0629 -0.2104
  249SOL    HW1  746   3.054   2.481   3.054 -1.4332 -0.1355 -1.7645
  249SOL    HW2  747   2.992   2.552   3.173 -0.3220 -1.9470 -0.0480
  250SOL     OW  748   0.756   3.595   0.766  0.4568  0.2364 -0.0742
  250SOL    HW1  749   0.734   3.530   0.699 -0.0173  0.5862 -0.2656
  250SOL    HW2  750   0.807   3.661   0.718  1.0601 -0.0617  0.1497
  251SOL     OW  751   2.351   2.534   3.850  0.1869 -0.4260  0.6189
  251SOL    HW1  752   2.296   2.508   3.776 -2.7404  0.4498  2.3259
  251SOL    HW2  753   2.321   2.623   3.871  1.5101 -0.3493  2.3397
  252SOL     OW  754   2.716   2.679   2.660 -0.2254  0.5304  0.2017
  252SOL    HW1  755   2.729   2.617   2.588  2.2952 -0.7863  1.6522
  252SOL    HW2  756   2.798   2.728   2.665 -0.8750  1.5753  1.3173
  253SOL     OW  757   1.585   0.424   0.803  0.6819  0.1589  0.2841
  253SOL    HW1  758   1.675   0.450   0.787  0.3872  1.6191  0.8621
  253SOL    HW2  759   1.533   0.475   0.741  0.2859 -1.2707 -0.6120
  254SOL     OW  760   3.309   0.637   2.576 -0.5119 -0.2737 -0.8249
  254SOL    HW1  761   3.398   0.623   2.609 -1.0362 -0.9109  0.3717
  254SOL    HW2  762   3.317   0.626   2.481  0.8282  0.4870 -0.8292
  255SOL     OW  763   3.900   3.758   0.674 -0.5156 -0.1045  0.5956
  255SOL    HW1  764   3.986   3.778   0.712  0.1204 -0.2487 -0.7146
  255SOL    HW2  765   3.859   3.843   0.660 -0.0580  0.0353  0.0627
  256SOL     OW  766   2.612   2.191   0.163 -0.4562 -0.0932 -0.2907
  256SOL    HW1  767   2.550   2.263   0.148  1.5954  1.9117  0.2335
  256SOL    HW2  768   2.617   2.185   0.259 -0.8058 -1.1784 -0.3242
  257SOL     OW  769   1.064   2.362   3.645  0.1354 -0.4044  0.3085
  257SOL    HW1  770   1.125   2.392   3.578  0.3075 -0.9995  0.1951
  257SOL    HW2  771   1.112   2.296   3.694 -0.2291 -0.4752  0.5768
  258SOL     OW  772   2.216   0.510   0.587 -0.0401  0.4281  0.5038
  258SOL    HW1  773   2.299   0.513   0.538 -0.5001  1.2909 -0.2446
  258SOL    HW2  774   2.184   0.600   0.586 -0.6635  0.2299  1.3755
  259SOL     OW  775   2.995   1.663   2.554 -0.0783  0.5091 -0.1787
  259SOL    HW1  776   3.090   1.664   2.556 -0.0077  4.2979  0.6023
  259SOL    HW2  777   2.970   1.754   2.536 -3.5715 -0.2160  0.3286
  260SOL     OW  778   2.926   1.342   1.035  0.0937  0.1622  0.1955
  260SOL    HW1  779   2.970   1.417   1.076 -1.1485 -0.6966  3.4603
  260SOL    HW2  780   2.938   1.271   1.098 -1.8143 -1.3902 -1.0938
  261SOL     OW  781   1.342   2.625   2.853 -0.8134 -0.5682 -0.4879
  261SOL    HW1  782   1.272   2.691   2.850 -1.2380 -0.9695  0.1700
  261SOL    HW2  783   1.314   2.565   2.922  0.2100 -0.7148 -0.1910
  262SOL     OW  784   3.231   3.343   1.160  0.3162 -0.2405  0.2665
  262SOL    HW1  785   3.168   3.280   1.194  1.7077 -1.4127  0.7859
  262SOL    HW2  786   3.259   3.394   1.236  1.3041 -0.9421  0.3965
  263SOL     OW  787   1.259   0.874   3.595  0.1713 -0.6037  0.3650
  263SOL    HW1  788   1.279   0.785   3.626  1.6851 -0.7156 -0.8436
  263SOL    HW2  789   1.223   0.918   3.672  0.1562 -2.0190  1.2079
  264SOL     OW  790   1.741   1.657   2.590 -0.5699 -0.3713  0.3207
  264SOL    HW1  791   1.665   1.710   2.564  0.2616  0.5799 -0.2788
  264SOL    HW2  792   1.757   1.682   2.681 -0.5643 -0.0574  0.2356
  265SOL     OW  793   1.702   1.499   2.384  0.3162  0.0637 -0.1785
  265SOL    HW1  794   1.735   1.563   2.447  1.8078  0.3842 -1.2084
  265SOL    HW2  795   1.781   1.460   2.346 -0.4862  0.2090 -2.1474
  266SOL     OW  796   2.251   0.597   2.256 -0.4178 -0.5547 -0.1685
  266SOL    HW1  797   2.345   0.580   2.262 -0.3759 -1.0226 -1.7205
  266SOL    HW2  798   2.244   0.667   2.191 -1.0015  1.4027  1.8722
  267SOL     OW  799   2.125   1.993   2.889  0.5396  0.0689 -0.4066
  267SOL    HW1  800   2.184   1.991   2.964  0.5323  0.9339 -0.3660
  267SOL    HW2  801   2.052   1.936   2.915  0.8973 -0.2383 -0.0681
  268SOL     OW  802   1.944   2.278   1.932 -0.0925 -0.5217 -0.2083
  268SOL    HW1  803   1.894   2.324   1.999  0.4174 -1.4860  0.8502
  268SOL    HW2  804   1.882   2.216   1.893 -0.6616  0.6995 -1.3443
  269SOL     OW  805   2.073   2.253   2.811 -0.8039 -0.2848 -0.2190
  269SOL    HW1  806   1.982   2.242   2.783 -0.0887  0.5587 -3.3370
  269SOL    HW2  807   2.111   2.166   2.805 -0.7026 -0.1551 -2.0671
  270SOL     OW  808   0.960   0.746   3.885 -0.0690  0.2655 -0.4326
  270SOL    HW1  809   0.909   0.738   3.965 -0.5142  2.3303 -0.4423
  270SOL    HW2  810   0.932   0.672   3.831 -0.4808 -0.5959  0.9172
  271SOL     OW  811   3.477   3.436   1.378  1.0929  0.2529 -0.5292
  271SOL    HW1  812   3.388   3.471   1.375  0.3365 -1.5905 -0.5563
  271SOL    HW2  813   3.531   3.510   1.406 -0.8027  0.7683  2.0702
  272SOL     OW  814   2.132   1.644   1.572 -0.0815  0.1800 -0.3958
  272SOL    HW1  815   2.166   1.557   1.595  2.2167  1.8169  3.2999
  272SOL    HW2  816   2.040   1.642   1.599 -0.3174 -1.3127 -1.2050
  273SOL     OW  817   2.066   2.369   0.897 -0.3012 -1.0462  0.5393
  273SOL    HW1  818   1.989   2.408   0.938 -0.0871 -1.2651  1.1572
  273SOL    HW2  819   2.131   2.439   0.893 -1.4753  0.0521 -2.7187
  274SOL     OW  820   1.022   1.560   3.877  0.5877  0.2035 -0.1585
  274SOL    HW1  821   1.075   1.481   3.870  0.6440  0.3479 -1.6336
  274SOL    HW2  822   0.935   1.534   3.848 -0.1968 -0.0017  2.1466
  275SOL     OW  823   1.691   2.915   1.902 -0.4343 -0.1569 -0.1438
  275SOL    HW1  824   1.687   3.010   1.906 -1.3706 -0.2093  1.6721
  275SOL    HW2  825   1.655   2.892   1.817  1.0544  1.1278 -1.1573
  276SOL     OW  826   0.505   0.641   1.670 -0.2126  0.2387 -0.6093
  276SOL    HW1  827   0.492   0.646   1.576 -0.4123 -1.1701 -0.6780
  276SOL    HW2  828   0.435   0.583   1.701 -0.6963  1.3888  0.5320
  277SOL     OW  829   3.169   1.140   3.850  0.0324 -0.1356 -0.8585
  277SOL    HW1  830   3.172   1.065   3.910 -0.1969 -0.5948 -1.4138
  277SOL    HW2  831   3.128   1.209   3.901 -0.7546 -0.7181 -0.6873
  278SOL     OW  832   1.919   2.219   2.527  0.6282 -0.9116  0.4752
  278SOL    HW1  833   1.984   2.283   2.499  0.0847 -0.3213  0.5527
  278SOL    HW2  834   1.862   2.206   2.451 -0.2605 -0.0401  0.9662
  279SOL     OW  835   2.093   3.365   2.127 -0.6141  0.2816  0.5183
  279SOL    HW1  836   2.131   3.295   2.179 -1.2291  0.8995  1.8635
  279SOL    HW2  837   2.144   3.443   2.152 -0.7016  0.5236 -0.0547
  280SOL     OW  838   2.503   0.124   3.131  0.5572 -0.1628  0.4708
  280SOL    HW1  839   2.540   0.037   3.143  2.0480  0.3857  0.0335
  280SOL    HW2  840   2.496   0.160   3.219  0.0041 -0.6766  0.6459
  281SOL     OW  841   2.269   2.707   0.512  0.4037  0.2929 -0.1441
  281SOL    HW1  842   2.189   2.732   0.559 -0.8957 -1.7182 -1.1005
  281SOL    HW2  843   2.244   2.713   0.420  0.4671 -2.6380 -0.4614
  282SOL     OW  844   2.770   3.217   2.069  0.9135 -0.0502  0.1187
  282SOL    HW1  845   2.817   3.224   2.152 -0.7251  3.2858  0.9455
  282SOL    HW2  846   2.768   3.306   2.034  1.5129 -1.3017 -3.6032
  283SOL     OW  847   2.345   1.757   1.027 -0.1871  1.0544 -0.8265
  283SOL    HW1  848   2.413   1.694   1.004  0.4497  1.1492  0.6619
  283SOL    HW2  849   2.277   1.705   1.069  1.1759  1.4536  2.1821
  284SOL     OW  850   3.560   0.832   2.753  0.0210 -0.0824 -0.1460
  284SOL    HW1  851   3.550   0.820   2.659 -1.0789  2.8033 -0.4813
  284SOL    HW2  852   3.526   0.920   2.770  2.3615  0.4387  2.6069
  285SOL     OW  853   1.153   0.441   3.662  0.5214  0.3703 -0.0545
  285SOL    HW1  854   1.182   0.474   3.577 -0.6478 -0.4644 -0.8209
  285SOL    HW2  855   1.165   0.346   3.657  0.6072  0.3278  0.7842
  286SOL     OW  856   0.936   3.753   0.615 -0.1232 -0.1356  0.2624
  286SOL    HW1  857   0.983   3.706   0.547 -1.6491 -1.3825  0.0118
  286SOL    HW2  858   0.885   3.819   0.568  1.2658  1.1917  0.5295
  287SOL     OW  859   3.596   2.092   2.428 -0.1118  0.3266 -0.8389
  287SOL    HW1  860   3.614   2.029   2.358  1.6321  0.4140 -0.5105
  287SOL    HW2  861   3.602   2.177   2.385 -0.4601  0.3411 -0.8631
  288SOL     OW  862   1.064   0.504   0.907 -0.0172 -0.6906  0.3338
  288SOL    HW1  863   1.146   0.541   0.939 -0.9161  0.3903  1.4452
  288SOL    HW2  864   1.025   0.462   0.984 -1.7332  1.0759  0.4827
  289SOL     OW  865   2.562   3.692   3.700 -0.6235  0.2220  0.3669
  289SOL    HW1  866   2.493   3.636   3.736  0.1031 -2.1617 -1.6928
  289SOL    HW2  867   2.524   3.730   3.621  0.0632 -0.2998 -0.2288
  290SOL     OW  868   3.712   1.341   0.692 -0.3139 -0.3360 -0.6270
  290SOL    HW1  869   3.658   1.336   0.771 -0.3421 -0.8753 -0.6805
  290SOL    HW2  870   3.706   1.254   0.653  0.8556 -0.5039 -0.4721
  291SOL     OW  871   0.136   1.224   0.039  0.3571  0.7608  0.1422
  291SOL    HW1  872   0.199   1.239  -0.031 -0.5204  0.9049 -0.6466
  291SOL    HW2  873   0.088   1.146   0.010  0.1111  0.7137  0.6761
  292SOL     OW  874   3.731   0.923   0.802  0.1810  0.2846  0.1695
  292SOL    HW1  875   3.770   0.855   0.858 -0.0032  0.6105  0.7010
  292SOL    HW2  876   3.734   0.886   0.714  0.9217 -0.0422  0.3213
  293SOL     OW  877   2.424   0.607   2.922  0.0134 -0.2203 -0.2616
  293SOL    HW1  878   2.470   0.569   2.847  0.4148 -2.2680  0.9585
  293SOL    HW2  879   2.335   0.622   2.890 -0.1827 -2.2528 -0.8281
  294SOL     OW  880   3.411   0.381   1.788 -0.2394 -0.3016 -0.2490
  294SOL    HW1  881   3.381   0.320   1.855  3.4448 -3.0676 -0.8345
  294SOL    HW2  882   3.500   0.404   1.815 -0.1350  1.7860 -2.1361
  295SOL     OW  883   2.497   0.920   2.718  0.1756 -0.4880 -0.6055
  295SOL    HW1  884   2.551   0.872   2.655 -0.6764  0.6489 -2.2616
  295SOL    HW2  885   2.483   1.006   2.677 -1.2563 -0.0792  0.6720
  296SOL     OW  886   3.055   1.002   0.608 -0.3700 -0.3863 -0.3564
  296SOL    HW1  887   3.005   1.028   0.685  1.0012 -1.8155  1.1030
  296SOL    HW2  888   3.082   1.085   0.568 -3.8733  0.4338 -1.3007
  297SOL     OW  889   2.418   0.547   0.121 -0.0808  0.1156 -0.3492
  297SOL    HW1  890   2.327   0.538   0.090  0.1985 -1.4159 -0.8108
  297SOL    HW2  891   2.469   0.493   0.061  0.6196 -2.1993  2.1131
  298SOL     OW  892   2.155   0.122   2.172  0.3482 -0.5410 -0.2140
  298SOL    HW1  893   2.083   0.176   2.140  0.1042  0.1265  1.3534
  298SOL    HW2  894   2.215   0.185   2.213  1.2973 -1.2063 -0.5535
  299SOL     OW  895   3.439   3.966   3.038  0.6263 -0.3919  0.2066
  299SOL    HW1  896   3.454   3.895   2.975  3.5528  0.5239 -0.2724
  299SOL    HW2  897   3.518   3.965   3.094 -0.1852  1.2253  1.4497
  300SOL     OW  898   3.260   0.655   4.020 -0.2910 -0.3958  0.3130
  300SOL    HW1  899   3.354   0.673   4.016  0.1299 -1.6986  2.5043
  300SOL    HW2  900   3.245   0.588   3.953  0.4508 -0.5607  0.3086
  301SOL     OW  901   2.745   3.617   0.066 -0.1763 -0.0214  0.7386
  301SOL    HW1  902   2.700   3.608   0.150 -1.0504 -2.2435  0.1153
  301SOL    HW2  903   2.827   3.568   0.077 -0.9312 -1.5353 -0.0779
  302SOL     OW  904   2.919   0.189   2.030 -0.6189 -0.0943 -0.1451
  302SOL    HW1  905   2.967   0.224   2.104  0.6663 -0.6619 -0.6704
  302SOL    HW2  906   2.882   0.107   2.062 -0.1146 -0.3082 -0.0924
  303SOL     OW  907   3.172   1.659   0.104  0.1419  0.2762 -0.6095
  303SOL    HW1  908   3.236   1.720   0.067 -0.2707  0.5055 -0.9568
  303SOL    HW2  909   3.215   1.624   0.182  0.5198  0.7549 -0.5943
  304SOL     OW  910   3.568   3.416   1.103  0.4774 -0.0813 -0.2731
  304SOL    HW1  911   3.557   3.405   1.197  0.6812 -2.4273 -0.4480
  304SOL    HW2  912   3.620   3.496   1.094 -0.3415  0.7001  1.5328
  305SOL     OW  913   3.028   3.512   0.446 -0.0322 -0.1324  0.3533
  305SOL    HW1  914   3.027   3.502   0.542 -3.7227  1.5285  0.6723
  305SOL    HW2  915   2.955   3.459   0.416  0.0438  0.6838 -1.3550
  306SOL     OW  916   1.110   1.525   2.038 -0.2587  0.8330 -0.4790
  306SOL    HW1  917   1.178   1.591   2.028  0.2573  0.3683 -0.0634
  306SOL    HW2  918   1.115   1.499   2.130 -0.5619  0.3250 -0.6042
  307SOL     OW  919   0.534   1.043   0.816 -0.0869  0.3210 -0.3203
  307SOL    HW1  920   0.588   1.117   0.789  0.4929 -0.2129 -0.6584
  307SOL    HW2  921   0.499   1.008   0.734  1.1568 -0.9084 -0.3754
  308SOL     OW  922   2.064   0.949   0.819 -0.1513  0.3660 -0.1897
  308SOL    HW1  923   2.101   1.023   0.771 -1.5790  1.0867 -0.2198
  308SOL    HW2  924   2.103   0.955   0.906  3.1603 -1.4640 -1.3619
  309SOL     OW  925   3.254   3.001   0.297  1.1466 -0.2721  0.1195
  309SOL    HW1  926   3.233   2.924   0.245 -0.9027 -0.3415  0.9541
  309SOL    HW2  927   3.337   3.032   0.262  0.9435 -1.6039 -1.6614
  310SOL     OW  928   1.308   0.918   0.978 -0.5733 -0.5767  0.0240
  310SOL    HW1  929   1.334   1.009   0.993 -4.4328  0.5066  1.1119
  310SOL    HW2  930   1.348   0.870   1.051 -0.5274  0.6951  0.8702
  311SOL     OW  931   1.764   3.188   1.215 -0.0818  0.2972  0.0228
  311SOL    HW1  932   1.693   3.188   1.151 -0.0101 -0.7954 -0.0822
  311SOL    HW2  933   1.822   3.117   1.186  0.4124  0.3736  0.7960
  312SOL     OW  934   1.193   0.354   2.808 -0.1221  0.7586  0.1350
  312SOL    HW1  935   1.184   0.434   2.756 -0.1418 -0.1773 -1.3648
  312SOL    HW2  936   1.274   0.313   2.775 -1.0195 -0.6902 -0.3699
  313SOL     OW  937   3.346   3.584   0.944  0.4057 -0.5313 -1.2016
  313SOL    HW1  938   3.355   3.525   1.019 -0.6791  1.2290  0.3815
  313SOL    HW2  939   3.415   3.649   0.956  0.0254 -0.0590 -1.5534
  314SOL     OW  940   3.801   0.145   2.048 -0.2098 -0.1856  0.8709
  314SOL    HW1  941   3.782   0.094   2.126 -2.2213 -0.9334 -0.0600
  314SOL    HW2  942   3.817   0.234   2.081  0.5436 -0.8039  2.2412
  315SOL     OW  943   0.495   3.001   1.002  0.0624  0.0728 -0.1392
  315SOL    HW1  944   0.533   3.037   1.082 -0.0204 -1.9168  0.8624
  315SOL    HW2  945   0.441   2.928   1.032  1.8487 -2.2561 -2.1118
  316SOL     OW  946   3.216   3.752   2.819  0.0612 -0.5048 -0.4020
  316SOL    HW1  947   3.187   3.678   2.873  1.2036 -0.9867 -0.4083
  316SOL    HW2  948   3.161   3.825   2.847 -1.9039 -1.5866 -1.1988
  317SOL     OW  949   0.325   2.410   1.108  0.8028 -0.5451  0.3172
  317SOL    HW1  950   0.420   2.411   1.119  0.7646  0.2263  0.6049
  317SOL    HW2  951   0.293   2.479   1.166  0.1607  0.0348 -0.6982
  318SOL     OW  952   2.483   0.849   2.161 -0.1007 -0.3289  0.0956
  318SOL    HW1  953   2.482   0.938   2.127  2.1521  0.2962  1.4603
  318SOL    HW2  954   2.396   0.814   2.140 -0.9893  2.1090 -0.5975
  319SOL     OW  955   1.823   2.877   2.269  0.2243 -0.0117 -0.3628
  319SOL    HW1  956   1.846   2.800   2.321  1.2613  1.7161  1.8949
  319SOL    HW2  957   1.731   2.894   2.291  0.3538  0.0959  0.1137
  320SOL     OW  958   1.313   0.587   1.020 -0.2855  0.4508  0.6649
  320SOL    HW1  959   1.334   0.534   1.098  0.5050 -1.0260 -0.5020
  320SOL    HW2  960   1.394   0.633   1.000 -1.2531  3.1021  2.3067
  321SOL     OW  961   0.944  -0.004   1.627 -0.4485 -0.1610 -0.0341
  321SOL    HW1  962   0.896   0.077   1.644  0.7065 -0.1597  4.5528
  321SOL    HW2  963   0.878  -0.073   1.640 -0.0995 -0.0427  3.4068
  322SOL     OW  964   2.854   1.175   0.045 -0.1269 -0.3554 -0.1429
  322SOL    HW1  965   2.776   1.132   0.080 -0.0130 -2.0455 -1.7558
  322SOL    HW2  966   2.829   1.266   0.033 -1.1341 -0.4090  1.3414
  323SOL     OW  967   2.098   2.411   2.310  0.2350 -0.2050 -0.2182
  323SOL    HW1  968   2.042   2.478   2.348 -0.8367 -0.7857 -0.7056
  323SOL    HW2  969   2.187   2.443   2.322 -0.2299  1.0185  0.0740
  324SOL     OW  970   3.653   2.996   0.933 -0.6507 -0.3075  0.4159
  324SOL    HW1  971   3.589   3.060   0.962 -0.3181  0.0653  0.3307
  324SOL    HW2  972   3.709   2.981   1.009 -0.8575 -0.6618  0.5025
  325SOL     OW  973   1.644   1.993   1.876 -0.2540 -0.1661  0.3943
  325SOL    HW1  974   1.683   2.033   1.798 -0.1368 -1.1573 -0.0709
  325SOL    HW2  975   1.717   1.948   1.919 -0.6167 -0.9151  0.2392
  326SOL     OW  976   1.702   2.888   3.335  0.3945 -0.6755 -0.3392
  326SOL    HW1  977   1.730   2.875   3.245  2.3466  0.4496  0.0473
  326SOL    HW2  978   1.783   2.899   3.385 -0.6396 -0.9319  1.5062
  327SOL     OW  979   3.752   3.178   3.104  0.4753 -0.4108  0.0566
  327SOL    HW1  980   3.686   3.117   3.136  0.3949 -1.1767 -1.4799
  327SOL    HW2  981   3.797   3.208   3.183 -1.5133 -0.0502  1.1281
  328SOL     OW  982   3.306   1.895   0.068 -0.2453  0.4386  0.6655
  328SOL    HW1  983   3.393   1.861   0.047  1.5344  4.3427  0.9193
  328SOL    HW2  984   3.272   1.926  -0.017 -0.9069 -0.0640  0.7451
  329SOL     OW  985   2.169   0.739   3.415  0.3154 -0.0098  0.0224
  329SOL    HW1  986   2.188   0.831   3.393  0.7751  0.2206  1.2783
  329SOL    HW2  987   2.253   0.694   3.403  0.0422 -0.3140 -0.7851
  330SOL     OW  988   0.684   0.829   3.796  0.7015  0.4670 -0.3204
  330SOL    HW1  989   0.778   0.811   3.802  0.8545  1.4952  0.7198
  330SOL    HW2  990   0.678   0.916   3.758  0.2985  1.4587  1.8481
  331SOL     OW  991   3.424   2.250   4.032 -0.0835 -0.6321  0.1413
  331SOL    HW1  992   3.509   2.225   3.997  0.0103  0.6611 -0.6068
  331SOL    HW2  993   3.367   2.257   3.955  0.8564  5.2920 -0.4677
  332SOL     OW  994   3.682   1.582   2.274 -0.8553  0.2891 -0.5291
  332SOL    HW1  995   3.716   1.603   2.187 -0.4407 -1.0409 -0.7099
  332SOL    HW2  996   3.613   1.518   2.258 -3.2269  2.5912 -0.1296
  333SOL     OW  997   3.683   2.102   0.366 -0.2769  0.0873  0.3669
  333SOL    HW1  998   3.708   2.194   0.375 -1.8259  0.5312  0.5223
  333SOL    HW2  999   3.663   2.092   0.273  0.2010 -0.1777  0.2932
  334SOL     OW 1000   0.093   2.448   2.921 -0.2917  0.7407  0.4606
  334SOL    HW1 1001   0.084   2.541   2.942 -1.7854  0.7815 -0.2278
  334SOL    HW2 1002   0.173   2.443   2.869 -2.6967  2.5473 -3.9648
  335SOL     OW 1003   2.649   3.687   2.144 -0.6865 -0.4339 -0.2108
  335SOL    HW1 1004   2.631   3.594   2.160 -1.0735 -0.1596  1.0761
  335SOL    HW2 1005   2.734   3.702   2.185 -2.1766  0.5290  2.7935
  336SOL     OW 1006   2.871   3.562   1.242 -0.2237 -0.5608 -0.0831
  336SOL    HW1 1007   2.787   3.561   1.289 -0.5514 -3.3142 -0.5983
  336SOL    HW2 1008   2.926   3.500   1.290  0.8359 -0.3044 -0.9410
  337SOL     OW 1009   0.790   0.220   0.962  0.1869 -0.1557  0.4650
  337SOL    HW1 1010   0.880   0.198   0.985 -0.0540 -2.5228 -0.5865
  337SOL    HW2 1011   0.794   0.312   0.934  2.1304 -0.0228  1.0316
  338SOL     OW 1012   3.962   1.889   0.719 -0.0837  0.5155 -0.2641
  338SOL    HW1 1013   4.053   1.874   0.693  0.3119  3.1191 -0.7350
  338SOL    HW2 1014   3.968   1.921   0.809 -0.9822 -3.1933  1.2753
  339SOL     OW 1015   0.456   3.390   2.172  0.3158 -0.7000  0.7025
  339SOL    HW1 1016   0.429   3.337   2.247  2.0228 -2.5806  0.0714
  339SOL    HW2 1017   0.527   3.445   2.206  2.3442 -2.8429  0.1449
  340SOL     OW 1018   0.260   1.820   0.375  0.1561  0.0039 -0.4943
  340SOL    HW1 1019   0.168   1.802   0.391 -0.7155  3.7770 -0.2163
  340SOL    HW2 1020   0.305   1.788   0.454 -1.0980 -0.8026 -0.0868
  341SOL     OW 1021   1.505   1.943   3.605  0.1018 -0.7243  0.1678
  341SOL    HW1 1022   1.422   1.984   3.629  0.3762 -0.3964  0.5545
  341SOL    HW2 1023   1.572   2.007   3.629  0.3467  0.0868 -2.4368
  342SOL     OW 1024   2.116   3.202   0.009  0.0275 -0.6455  0.3301
  342SOL    HW1 1025   2.032   3.160  -0.006 -0.3530  0.1848  0.0942
  342SOL    HW2 1026   2.146   3.165   0.093 -0.6521 -0.8072  0.5094
  343SOL     OW 1027   1.476   1.805   0.570 -0.5044 -0.0645 -0.0241
  343SOL    HW1 1028   1.450   1.787   0.661 -4.4152 -1.1840 -1.1707
  343SOL    HW2 1029   1.406   1.861   0.536  0.3885 -0.4123 -2.6295
  344SOL     OW 1030   1.166   3.774   2.251 -0.3095  1.1730  0.4058
  344SOL    HW1 1031   1.075   3.742   2.246 -0.5633  1.8093  0.8090
  344SOL    HW2 1032   1.199   3.735   2.332  0.5192 -0.8749 -0.8421
  345SOL     OW 1033   0.366   1.748   1.811 -0.1869 -0.2238 -0.4471
  345SOL    HW1 1034   0.300   1.805   1.850 -0.5442 -1.3925  0.7257
  345SOL    HW2 1035   0.445   1.762   1.863  0.7913  1.7175 -2.2954
  346SOL     OW 1036   2.968   1.401   2.581  0.0796 -0.2217 -0.5409
  346SOL    HW1 1037   2.877   1.408   2.554 -0.4696 -2.6877  0.3707
  346SOL    HW2 1038   2.996   1.491   2.598 -1.8827  0.6616 -1.7121
  347SOL     OW 1039   3.232   3.774   0.545 -0.7600  0.1438 -0.1760
  347SOL    HW1 1040   3.232   3.720   0.624 -0.4390 -1.4431 -1.2087
  347SOL    HW2 1041   3.324   3.790   0.526 -0.7945 -0.1949 -0.6678
  348SOL     OW 1042   0.819   0.160   2.699 -0.1578  0.2542  0.3392
  348SOL    HW1 1043   0.819   0.162   2.603 -3.0730  2.7402  0.2233
  348SOL    HW2 1044   0.882   0.093   2.722 -0.4313 -1.4931 -3.3426
  349SOL     OW 1045   2.732   1.286   3.082  0.0452  0.2020  0.3078
  349SOL    HW1 1046   2.731   1.337   3.162 -0.9788  0.8439 -0.0921
  349SOL    HW2 1047   2.810   1.315   3.035 -0.2431  1.0205  0.3268
  350SOL     OW 1048   1.671   3.430   2.781  0.2507  0.0535 -0.0790
  350SOL    HW1 1049   1.744   3.370   2.768 -0.4176 -0.7167 -0.3769
  350SOL    HW2 1050   1.706   3.516   2.759  0.6799 -0.4896 -1.6348
  351SOL     OW 1051   1.191   3.849   2.923 -0.5189  0.2909  0.5480
  351SOL    HW1 1052   1.155   3.784   2.863  0.4538 -0.2485  0.5400
  351SOL    HW2 1053   1.279   3.867   2.890 -0.1727  0.3940  1.4939
  352SOL     OW 1054   1.916   0.598   2.136  0.1258  0.0974 -0.4103
  352SOL    HW1 1055   1.935   0.691   2.128  1.6619 -0.2464 -1.0686
  352SOL    HW2 1056   1.958   0.558   2.059  0.8080 -1.3150  0.6492
  353SOL     OW 1057   3.000   1.772   3.596  0.3905  0.2714 -0.1741
  353SOL    HW1 1058   2.920   1.767   3.649  1.2637 -0.5840  1.1193
  353SOL    HW2 1059   2.999   1.861   3.560 -0.6796  0.5779  0.5474
  354SOL     OW 1060   1.351   1.771   0.829  0.5427  0.2290  0.0645
  354SOL    HW1 1061   1.391   1.686   0.809  0.8012  0.8612 -2.4702
  354SOL    HW2 1062   1.257   1.756   0.824  0.5133 -0.3251  1.7457
  355SOL     OW 1063   0.637   3.934   2.836  0.2641 -0.0922 -0.4908
  355SOL    HW1 1064   0.611   4.023   2.808 -3.1202 -0.6694  0.3565
  355SOL    HW2 1065   0.624   3.934   2.930 -0.7626 -1.7378 -0.6001
  356SOL     OW 1066   3.789   3.544   2.647 -0.5949 -0.1405  0.0308
  356SOL    HW1 1067   3.708   3.576   2.607 -0.6543  0.3218  0.5141
  356SOL    HW2 1068   3.782   3.570   2.739 -0.7097 -1.6712  0.4848
  357SOL     OW 1069   1.281   1.155   0.704  0.2870 -0.3027  0.0079
  357SOL    HW1 1070   1.260   1.068   0.669 -1.6955 -0.5269  1.5774
  357SOL    HW2 1071   1.368   1.144   0.744 -0.3513 -1.8856  1.0565
  358SOL     OW 1072   3.285   0.954   1.247 -0.3799 -0.8624  0.1944
  358SOL    HW1 1073   3.323   1.035   1.282 -0.8416 -0.9561  0.9288
  358SOL    HW2 1074   3.361   0.897   1.233  0.1151  0.1718 -1.6883
  359SOL     OW 1075   0.901   1.674   0.070 -0.4942 -0.8184  0.8050
  359SOL    HW1 1076   0.964   1.653   0.001 -0.3145 -1.4950  1.1700
  359SOL    HW2 1077   0.830   1.612   0.057 -0.9226 -0.2917  0.6197
  360SOL     OW 1078   0.729   0.173   3.451  0.0859 -0.0827  0.1143
  360SOL    HW1 1079   0.684   0.199   3.370  0.8755  1.3335  0.1006
  360SOL    HW2 1080   0.798   0.239   3.462  1.2829 -1.4136  0.8594
  361SOL     OW 1081   3.511   2.091   3.039  0.1424  0.5172  0.8393
  361SOL    HW1 1082   3.602   2.073   3.018 -0.4598 -4.1660  1.1524
  361SOL    HW2 1083   3.468   2.105   2.955  0.6125 -0.9886  0.3179
  362SOL     OW 1084   3.087   2.697   2.628  0.9061 -0.1942  0.2100
  362SOL    HW1 1085   3.027   2.657   2.565  3.7475 -2.3686 -1.3541
  362SOL    HW2 1086   3.137   2.623   2.664  2.3417  1.4417  1.7526
  363SOL     OW 1087   0.101   3.647   1.168  0.0770 -0.1311 -0.4492
  363SOL    HW1 1088   0.085   3.603   1.085  2.1089 -0.0876 -0.8993
  363SOL    HW2 1089   0.123   3.575   1.229 -3.2291 -0.3992  0.6492
  364SOL     OW 1090   1.358   0.597   2.574  0.0493  0.2830  0.3395
  364SOL    HW1 1091   1.385   0.622   2.486 -2.2316 -1.3315 -0.9310
  364SOL    HW2 1092   1.424   0.535   2.603  1.4058  1.6292  0.2747
  365SOL     OW 1093   2.838   1.336   0.614  0.3071 -0.0726  0.4960
  365SOL    HW1 1094   2.767   1.274   0.597 -0.1828  0.4749  0.5021
  365SOL    HW2 1095   2.800   1.399   0.676  0.4525  0.8159 -0.2954
  366SOL     OW 1096   0.453   3.503   3.000 -0.1579  0.7803  0.2643
  366SOL    HW1 1097   0.535   3.454   3.009 -0.6722 -0.0584  0.5941
  366SOL    HW2 1098   0.462   3.552   2.919  0.8371  1.0240  0.5183
  367SOL     OW 1099   3.568   3.667   2.567 -0.3500  0.2520  0.1344
  367SOL    HW1 1100   3.577   3.732   2.497 -0.2731  0.6682  0.5265
  367SOL    HW2 1101   3.492   3.697   2.618 -0.3074  0.0391  0.3237
  368SOL     OW 1102   3.778   1.717   1.150  0.2644 -0.8002 -0.1466
  368SOL    HW1 1103   3.843   1.787   1.151 -0.7995  0.2221 -0.2305
  368SOL    HW2 1104   3.790   1.675   1.065  0.1213  0.0669 -0.6091
  369SOL     OW 1105   3.227   2.696   0.941  0.1350  0.5125 -0.0285
  369SOL    HW1 1106   3.311   2.737   0.964 -0.9309  2.1742  1.0808
  369SOL    HW2 1107   3.201   2.739   0.859  0.7566 -0.6491 -0.8642
  370SOL     OW 1108   2.100   3.380   2.763  0.6773 -0.5858 -0.0816
  370SOL    HW1 1109   2.150   3.461   2.767  0.1638 -0.3137  1.3414
  370SOL    HW2 1110   2.166   3.311   2.762  1.1237 -0.2177  1.4717
  371SOL     OW 1111   1.516   3.092   3.395  1.0217 -0.3414  0.3682
  371SOL    HW1 1112   1.542   3.018   3.341  1.2688 -0.7318  1.0192
  371SOL    HW2 1113   1.479   3.155   3.333 -1.4418 -1.9467  0.0601
  372SOL     OW 1114   0.074   1.858   2.686 -0.3607  0.1669 -0.1370
  372SOL    HW1 1115  -0.012   1.844   2.725 -0.4162 -0.4636 -0.4599
  372SOL    HW2 1116   0.114   1.927   2.738 -1.3937  1.0675 -0.5034
  373SOL     OW 1117   2.057   0.440   1.476 -1.1671  0.2407 -0.4804
  373SOL    HW1 1118   1.973   0.482   1.458 -0.9927 -0.2244 -2.7767
  373SOL    HW2 1119   2.053   0.357   1.428  0.3790 -0.0578 -0.1444
  374SOL     OW 1120   2.339   3.990   0.262  0.5479  0.0198 -0.0241
  374SOL    HW1 1121   2.323   3.969   0.354 -1.4849 -0.0100 -0.3460
  374SOL    HW2 1122   2.310   3.912   0.214  1.2613  0.1741 -0.7342
  375SOL     OW 1123   2.109   1.535   1.294  0.0316  0.1891 -0.0360
  375SOL    HW1 1124   2.053   1.482   1.350  0.3059 -1.4759 -1.2528
  375SOL    HW2 1125   2.101   1.624   1.328 -0.6516 -0.5847  1.9180
  376SOL     OW 1126   0.159   0.112   0.755  0.0844  0.4270  0.0847
  376SOL    HW1 1127   0.162   0.087   0.663  1.0514 -2.4057  0.7763
  376SOL    HW2 1128   0.067   0.105   0.779  0.1931 -2.2562  0.0607
  377SOL     OW 1129   0.235   1.498   2.001  0.3679 -0.1735  0.7792
  377SOL    HW1 1130   0.265   1.409   1.984 -0.0720 -0.1954  0.1163
  377SOL    HW2 1131   0.311   1.540   2.041  0.5630 -0.8561  1.1461
  378SOL     OW 1132   1.146   0.943   3.870 -0.0760 -0.0348  0.7934
  378SOL    HW1 1133   1.235   0.908   3.875  0.0236 -0.0054 -0.4905
  378SOL    HW2 1134   1.089   0.866   3.878  0.1221 -0.3758 -0.7866
  379SOL     OW 1135   2.381   1.225   1.608 -0.0434 -0.1818  0.2763
  379SOL    HW1 1136   2.398   1.290   1.676 -2.1823  1.0514 -0.2427
  379SOL    HW2 1137   2.466   1.210   1.567  0.5785  2.2244  0.5132
  380SOL     OW 1138   3.326   2.424   1.432  0.3256  0.3540  0.0228
  380SOL    HW1 1139   3.239   2.458   1.407  0.4670 -0.2306 -1.3382
  380SOL    HW2 1140   3.388   2.486   1.394  0.5551 -0.7237 -1.4143
  381SOL     OW 1141   0.946   2.978   0.072  0.1897  0.5016 -0.4301
  381SOL    HW1 1142   1.010   2.947   0.136 -1.5927 -0.3819  1.0411
  381SOL    HW2 1143   0.993   3.040   0.018  1.6531  1.8043  2.1685
  382SOL     OW 1144   0.456   2.013   0.298  0.9457  0.3617 -0.4102
  382SOL    HW1 1145   0.407   1.953   0.354  1.2009  1.7385  1.3731
  382SOL    HW2 1146   0.546   1.980   0.301  1.1752  1.0457  0.9368
  383SOL     OW 1147   3.436   0.860   1.733 -0.3092  0.0066 -0.1229
  383SOL    HW1 1148   3.500   0.876   1.664 -0.6066 -1.9228 -0.9077
  383SOL    HW2 1149   3.354   0.895   1.698  0.0479  1.4796  0.4278
  384SOL     OW 1150   1.199   1.612   2.850  0.2204  0.3034  0.0903
  384SOL    HW1 1151   1.210   1.534   2.906 -0.4971  0.9664  1.2034
  384SOL    HW2 1152   1.170   1.578   2.766 -1.2627 -0.5759  0.9232
  385SOL     OW 1153   0.302   2.984   2.714 -0.2789  0.5589  0.1111
  385SOL    HW1 1154   0.391   3.019   2.712  0.0354 -0.2280 -1.2410
  385SOL    HW2 1155   0.272   2.999   2.803  1.0640  1.2030  0.4775
  386SOL     OW 1156   1.662   0.741   0.398 -0.2531  0.4229 -0.1127
  386SOL    HW1 1157   1.691   0.829   0.373  0.6396  0.0979 -0.2496
  386SOL    HW2 1158   1.735   0.684   0.376 -0.1358 -0.1311  1.5887
  387SOL     OW 1159   0.760   3.838   1.837  0.3849 -0.1016  0.1751
  387SOL    HW1 1160   0.822   3.774   1.873  0.2616 -0.4353 -0.2005
  387SOL    HW2 1161   0.731   3.799   1.754 -0.0560  0.2192  0.1777
  388SOL     OW 1162   0.273   3.433   3.402  0.2410 -0.2390 -1.2564
  388SOL    HW1 1163   0.253   3.350   3.445 -0.7400  0.6083 -0.0119
  388SOL    HW2 1164   0.368   3.438   3.402  0.3671 -1.8431 -2.3360
  389SOL     OW 1165   1.891   3.026   3.686 -0.3336  0.4072  0.2133
  389SOL    HW1 1166   1.937   3.015   3.603 -0.2254 -0.9905  0.4399
  389SOL    HW2 1167   1.828   3.096   3.669  0.3293  0.7960 -0.7595
  390SOL     OW 1168   0.543   0.027   3.695  0.5747 -0.4598 -0.2101
  390SOL    HW1 1169   0.580   0.041   3.782 -1.3997  2.1408  0.3227
  390SOL    HW2 1170   0.499  -0.057   3.700  0.7382 -0.4784  1.2234
  391SOL     OW 1171   1.021   0.553   2.017 -0.4162 -0.5892  0.0194
  391SOL    HW1 1172   0.981   0.628   1.973 -1.7289 -0.8348  0.7261
  391SOL    HW2 1173   1.039   0.491   1.947 -2.3611 -0.9324 -0.2252
  392SOL     OW 1174   4.028   0.069   2.642  0.2990  0.2744  0.3916
  392SOL    HW1 1175   3.940   0.099   2.621  0.8048  1.7564  0.3274
  392SOL    HW2 1176   4.015  -0.019   2.679 -1.4239  1.3353  2.5524
  393SOL     OW 1177   0.264   1.045   3.573 -0.5214  0.5152  0.3703
  393SOL    HW1 1178   0.300   0.962   3.604  0.5685 -0.0709 -2.2317
  393SOL    HW2 1179   0.171   1.041   3.596 -0.0073 -0.2657  2.5089
  394SOL     OW 1180   2.512   0.924   3.443  0.6356 -0.0850 -0.5496
  394SOL    HW1 1181   2.572   0.865   3.489 -0.0631 -1.6816 -1.5958
  394SOL    HW2 1182   2.567   0.972   3.382  0.8899 -1.7114 -1.6738
  395SOL     OW 1183   0.942   0.918   1.578 -0.3354 -0.4136 -0.3704
  395SOL    HW1 1184   0.877   0.852   1.600 -0.7490 -0.7296 -2.3564
  395SOL    HW2 1185   0.892   0.998   1.561  0.0299  0.0229  0.5616
  396SOL     OW 1186   1.471   1.258   1.211 -0.6482  0.2777  0.1863
  396SOL    HW1 1187   1.505   1.327   1.267  0.3409 -0.8099  0.9782
  396SOL    HW2 1188   1.489   1.177   1.259 -2.7635 -0.4892 -0.1876
  397SOL     OW 1189   1.741   2.532   2.711  0.5480  0.3868  0.8587
  397SOL    HW1 1190   1.708   2.465   2.771 -1.7767 -0.6346 -1.3600
  397SOL    HW2 1191   1.675   2.602   2.714  0.5520  0.4588 -0.2205
  398SOL     OW 1192   2.204   3.639   2.870 -0.2070 -0.1779 -0.5427
  398SOL    HW1 1193   2.142   3.697   2.914  0.0590 -0.6130  0.4327
  398SOL    HW2 1194   2.266   3.614   2.939 -0.6891 -2.1412 -0.7848
  399SOL     OW 1195   3.152   0.166   2.477  0.7232 -0.1249 -0.6563
  399SOL    HW1 1196   3.192   0.194   2.559 -0.5818  0.6744 -0.2675
  399SOL    HW2 1197   3.222   0.176   2.412  1.1204  1.4167 -0.0388
  400SOL     OW 1198   2.111   1.238   0.234 -0.1915  0.1252  0.4979
  400SOL    HW1 1199   2.171   1.168   0.208 -0.9485 -0.6822  0.9112
  400SOL    HW2 1200   2.139   1.314   0.182  0.2106 -0.6512 -0.4410
  401SOL     OW 1201   4.013   2.416   3.299  0.4085 -0.1663 -0.8130
  401SOL    HW1 1202   3.964   2.416   3.382  0.3295 -3.1841 -0.7486
  401SOL    HW2 1203   4.020   2.509   3.276 -0.1904  0.7505  2.1861
  402SOL     OW 1204   0.725   3.483   0.508  0.8742 -0.2069  0.1254
  402SOL    HW1 1205   0.797   3.455   0.452  0.4596 -0.0959 -0.4696
  402SOL    HW2 1206   0.689   3.560   0.464 -2.2083 -2.5255 -1.8357
  403SOL     OW 1207   2.118   1.164   2.073 -0.1498  0.4945  0.2058
  403SOL    HW1 1208   2.066   1.128   2.001 -1.0101  0.8551  0.6334
  403SOL    HW2 1209   2.094   1.112   2.149 -0.9038  1.5089  0.6911
  404SOL     OW 1210   1.351   0.351   2.254 -0.9250 -0.6845  0.0210
  404SOL    HW1 1211   1.295   0.282   2.218  0.0812 -2.6687  1.9669
  404SOL    HW2 1212   1.433   0.305   2.276  0.6229  1.6203 -0.6055
  405SOL     OW 1213   2.712   2.603   1.875  0.5016 -0.5958 -0.1397
  405SOL    HW1 1214   2.676   2.688   1.902 -0.4071 -1.2164  0.6380
  405SOL    HW2 1215   2.800   2.602   1.912  0.9754  0.4976 -1.1703
  406SOL     OW 1216   1.753   2.870   2.603 -0.3834  0.4729 -0.2807
  406SOL    HW1 1217   1.793   2.842   2.685  1.5244  1.3119 -0.8590
  406SOL    HW2 1218   1.765   2.795   2.544  3.3053  1.7050 -1.3616
  407SOL     OW 1219   0.230   2.587   0.435 -1.0723  0.3926  0.1605
  407SOL    HW1 1220   0.318   2.625   0.436 -0.4087 -1.0625 -0.6762
  407SOL    HW2 1221   0.173   2.660   0.461  0.2052  1.7684 -0.7114
  408SOL     OW 1222   2.872   2.258   0.657 -0.3791 -0.1902  0.5699
  408SOL    HW1 1223   2.963   2.275   0.632 -0.3310  0.5204  1.1800
  408SOL    HW2 1224   2.857   2.316   0.732 -0.6294 -1.9350  1.9318
  409SOL     OW 1225   1.414   2.027   2.026  0.3427 -0.1181  0.1679
  409SOL    HW1 1226   1.387   2.118   2.009 -0.7163 -0.6437 -1.0991
  409SOL    HW2 1227   1.504   2.022   1.993  0.5828  0.5755  0.6808
  410SOL     OW 1228   2.844   2.940   3.158 -0.1373 -0.0915 -0.2130
  410SOL    HW1 1229   2.833   2.868   3.096 -0.5892  0.1922 -0.4677
  410SOL    HW2 1230   2.763   2.940   3.208  0.3911 -0.5780  0.6615
  411SOL     OW 1231   3.839   0.254   2.488 -0.6689 -0.9653 -0.0959
  411SOL    HW1 1232   3.923   0.295   2.508 -0.0927 -0.6913 -2.6901
  411SOL    HW2 1233   3.782   0.278   2.560 -0.2951  4.1740 -1.1801
  412SOL     OW 1234   0.167   0.440   2.313 -0.2863 -0.8227  0.0493
  412SOL    HW1 1235   0.207   0.373   2.368  1.4158  0.7605  0.8752
  412SOL    HW2 1236   0.215   0.437   2.231  1.4501  0.8575  0.9228
  413SOL     OW 1237   1.178   0.312   0.224  0.3695  0.0132 -0.0051
  413SOL    HW1 1238   1.227   0.341   0.148 -1.7673  1.6382 -0.8834
  413SOL    HW2 1239   1.102   0.370   0.227 -0.6979 -1.3451  2.1606
  414SOL     OW 1240   1.117   1.175   1.486 -0.4786 -0.6680 -0.0371
  414SOL    HW1 1241   1.093   1.263   1.456 -1.8322 -0.7282  0.7650
  414SOL    HW2 1242   1.044   1.119   1.459 -0.4595 -1.2030  0.9445
  415SOL     OW 1243   1.268   1.510   1.752 -0.3487 -0.2302  0.3130
  415SOL    HW1 1244   1.273   1.428   1.702 -1.1141  1.0720 -2.0813
  415SOL    HW2 1245   1.185   1.504   1.799 -0.1632 -1.0208  0.5666
  416SOL     OW 1246   3.168   0.654   0.822 -0.8775 -0.1218  0.1167
  416SOL    HW1 1247   3.183   0.571   0.866  1.4425 -1.0166 -2.1025
  416SOL    HW2 1248   3.240   0.711   0.851 -1.1467  0.3373 -0.0952
  417SOL     OW 1249   0.195   3.288   3.033  0.4074 -0.4591  0.0688
  417SOL    HW1 1250   0.280   3.267   3.073  1.6982  2.1792 -1.0557
  417SOL    HW2 1251   0.214   3.360   2.974 -2.6483  0.1496 -0.3066
  418SOL     OW 1252   0.769   1.835   1.055  0.3561 -0.6515 -0.3876
  418SOL    HW1 1253   0.818   1.914   1.031  0.5997 -1.3915 -2.5816
  418SOL    HW2 1254   0.683   1.848   1.016  0.5078 -1.5857 -1.0679
  419SOL     OW 1255   0.433   3.227   2.551  0.9167  0.9495 -0.1189
  419SOL    HW1 1256   0.348   3.202   2.587  0.8804  0.6872 -0.3737
  419SOL    HW2 1257   0.439   3.321   2.564 -0.7640  1.5349 -2.8137
  420SOL     OW 1258   2.030   0.843   1.113 -0.0326 -0.5476  0.2571
  420SOL    HW1 1259   1.950   0.888   1.140  0.6447 -1.1202  3.6221
  420SOL    HW2 1260   1.999   0.765   1.066 -1.2816  1.0560 -1.7375
  421SOL     OW 1261   2.345   0.302   0.730  0.1365 -0.0966  0.2288
  421SOL    HW1 1262   2.318   0.389   0.701  1.2952  1.0386  2.2773
  421SOL    HW2 1263   2.440   0.302   0.719 -0.0207 -1.8290 -1.4546
  422SOL     OW 1264   3.268   2.723   3.469 -0.0938  0.2442  0.2757
  422SOL    HW1 1265   3.295   2.814   3.478 -1.9362  1.2280 -2.6435
  422SOL    HW2 1266   3.172   2.726   3.470 -0.2056 -1.5220 -0.6890
  423SOL     OW 1267   3.711   3.820   3.587  1.0304 -0.1397 -0.1679
  423SOL    HW1 1268   3.627   3.790   3.553  1.7863  0.9365 -3.3782
  423SOL    HW2 1269   3.692   3.849   3.677 -1.7995 -0.7428 -0.4734
  424SOL     OW 1270   3.673   1.354   2.817 -0.6682 -0.2491  0.3392
  424SOL    HW1 1271   3.731   1.369   2.892 -2.5023 -0.0702  1.7972
  424SOL    HW2 1272   3.640   1.441   2.795 -0.0166 -0.2780 -0.8225
  425SOL     OW 1273   0.636   2.080   1.863 -0.4614 -0.4605  0.1261
  425SOL    HW1 1274   0.614   2.085   1.770  0.7384  1.7321 -0.1145
  425SOL    HW2 1275   0.564   2.126   1.907 -1.7770 -2.7538  0.4855
  426SOL     OW 1276   1.097   0.421   1.758  0.1390  0.0336 -0.0913
  426SOL    HW1 1277   1.021   0.376   1.722  0.5207 -0.5670 -0.1537
  426SOL    HW2 1278   1.107   0.499   1.704  0.2418 -0.4603 -0.8034
  427SOL     OW 1279   2.661   1.770   0.032 -0.2299 -1.3195  0.6823
  427SOL    HW1 1280   2.690   1.835   0.095  0.2964 -0.7572 -0.1159
  427SOL    HW2 1281   2.680   1.686   0.074  0.2948 -0.9555  1.1879
  428SOL     OW 1282   2.759   3.236   1.212 -0.4462 -0.0609 -0.5627
  428SOL    HW1 1283   2.797   3.311   1.167 -0.4885  1.0672  1.1680
  428SOL    HW2 1284   2.728   3.272   1.296 -5.2081 -0.8608 -1.6580
  429SOL     OW 1285   1.988   0.269   2.820 -0.0392 -0.0563 -1.0505
  429SOL    HW1 1286   2.042   0.349   2.814 -0.2761  0.2585  0.5299
  429SOL    HW2 1287   2.032   0.207   2.763  1.6129  0.4301 -0.3794
  430SOL     OW 1288   0.033   1.497   2.214  0.0476  0.0679  0.3907
  430SOL    HW1 1289   0.006   1.589   2.212 -0.6108 -0.1128  0.8439
  430SOL    HW2 1290   0.084   1.486   2.133  0.8421  1.0352  0.7283
  431SOL     OW 1291   3.685   3.247   2.693  0.2090 -0.0780  0.2511
  431SOL    HW1 1292   3.645   3.170   2.732  1.4765  0.0015  1.8073
  431SOL    HW2 1293   3.710   3.302   2.768  1.3043  0.8232 -0.7264
  432SOL     OW 1294   1.740   0.143   1.844  0.1954  0.6451 -0.1871
  432SOL    HW1 1295   1.735   0.062   1.894 -0.6504 -0.7128 -2.3350
  432SOL    HW2 1296   1.671   0.199   1.882  0.0073 -0.0821  0.5681
  433SOL     OW 1297   2.469   3.783   1.255 -1.2156  0.3801  0.1182
  433SOL    HW1 1298   2.547   3.812   1.208  0.9430 -5.8112 -0.9829
  433SOL    HW2 1299   2.481   3.817   1.344  0.6969  2.7069 -0.9386
  434SOL     OW 1300   2.263   1.969   0.844 -0.5701  0.3922 -0.5560
  434SOL    HW1 1301   2.318   1.948   0.769 -0.2612 -2.1947  0.3223
  434SOL    HW2 1302   2.278   1.899   0.906 -2.5760  1.2255  0.9944
  435SOL     OW 1303   0.287   1.515   1.718 -0.3366 -0.0265 -0.2155
  435SOL    HW1 1304   0.284   1.587   1.781 -2.6290 -0.6145  0.4201
  435SOL    HW2 1305   0.367   1.467   1.740 -0.1291  0.8528  1.0244
  436SOL     OW 1306   0.570   3.515   1.929 -0.2705 -0.5256 -0.6930
  436SOL    HW1 1307   0.635   3.444   1.926  0.1117 -0.1867 -0.6259
  436SOL    HW2 1308   0.557   3.532   2.022 -0.4400 -0.5748 -0.7071
  437SOL     OW 1309   3.645   0.080   3.208 -0.6384  0.7005 -0.1106
  437SOL    HW1 1310   3.629   0.163   3.253 -1.3724 -0.5402  2.0658
  437SOL    HW2 1311   3.600   0.014   3.262  1.0488 -1.2906 -0.9879
  438SOL     OW 1312   0.768   2.551   3.855  0.6298 -0.3916  1.2649
  438SOL    HW1 1313   0.779   2.623   3.793  0.9779 -2.0575 -0.7286
  438SOL    HW2 1314   0.769   2.472   3.801 -2.8450 -1.7983  2.9121
  439SOL     OW 1315   3.298   1.489   1.922  0.1396 -0.9711  0.5981
  439SOL    HW1 1316   3.360   1.448   1.983  0.4056 -2.3199 -0.5463
  439SOL    HW2 1317   3.340   1.484   1.837 -1.3781 -1.5840 -0.1474
  440SOL     OW 1318   2.415   1.350   0.117 -0.2279 -0.7628  0.5140
  440SOL    HW1 1319   2.392   1.374   0.028  0.7900  1.3748  0.7563
  440SOL    HW2 1320   2.403   1.431   0.168 -0.2369 -1.7747  2.2085
  441SOL     OW 1321   0.881   3.799   2.666 -0.0957  0.0120  0.3328
  441SOL    HW1 1322   0.868   3.837   2.579  0.0797 -1.0143 -0.1590
  441SOL    HW2 1323   0.804   3.825   2.716  0.1993  1.3268  0.1439
  442SOL     OW 1324   2.591   3.377   0.297  0.8470 -0.1952  0.1482
  442SOL    HW1 1325   2.595   3.409   0.387  1.3279  0.2880 -0.0398
  442SOL    HW2 1326   2.609   3.283   0.304  0.5582 -0.2215  0.5879
  443SOL     OW 1327   2.256   1.190   3.119 -0.2672  1.2711  0.5351
  443SOL    HW1 1328   2.289   1.101   3.136 -1.6280  0.9373  1.6398
  443SOL    HW2 1329   2.226   1.187   3.029 -0.6406  0.4762  0.6741
  444SOL     OW 1330   1.211   3.265   3.591 -0.1264  0.1812 -0.7353
  444SOL    HW1 1331   1.231   3.205   3.519  1.2529  0.1448 -0.3562
  444SOL    HW2 1332   1.152   3.330   3.553 -1.4134 -1.2371 -1.2265
  445SOL     OW 1333   0.030   2.760   2.691  0.6966  0.1295  0.0568
  445SOL    HW1 1334   0.040   2.855   2.699 -1.6777  0.5895 -1.5365
  445SOL    HW2 1335  -0.051   2.740   2.738 -0.4402 -0.6281 -2.1323
  446SOL     OW 1336   1.022   2.876   0.391 -0.0623 -0.0908 -0.2406
  446SOL    HW1 1337   1.048   2.785   0.380  2.0433  0.0684  2.1787
  446SOL    HW2 1338   0.927   2.875   0.389 -0.1013 -1.8400 -3.0762
  447SOL     OW 1339   2.034   1.393   3.103  0.2373  0.0095  0.7413
  447SOL    HW1 1340   1.978   1.355   3.036 -0.0957  1.6590  0.0394
  447SOL    HW2 1341   2.108   1.332   3.110  1.5828  0.9877 -2.9551
  448SOL     OW 1342   0.860   1.703   3.665  0.3917  0.0580  0.5211
  448SOL    HW1 1343   0.919   1.634   3.633 -1.3301 -0.7702 -0.9968
  448SOL    HW2 1344   0.802   1.658   3.726 -0.9841  0.0424 -0.7607
  449SOL     OW 1345   0.266   3.830   2.906 -0.1291 -0.1942 -0.2510
  449SOL    HW1 1346   0.262   3.770   2.980  0.8960  0.0173 -0.0034
  449SOL    HW2 1347   0.324   3.900   2.936  1.6102 -0.8908 -1.7809
  450SOL     OW 1348   1.214   2.637   2.443 -0.1717 -0.1956  0.1533
  450SOL    HW1 1349   1.222   2.585   2.363 -1.4983 -2.3967  1.3579
  450SOL    HW2 1350   1.292   2.616   2.493  0.7233  1.2825 -0.5491
  451SOL     OW 1351   2.096   3.133   0.277 -0.6591 -0.4041 -0.0055
  451SOL    HW1 1352   2.065   3.155   0.365  1.5799  1.4668  0.4052
  451SOL    HW2 1353   2.116   3.039   0.282 -1.2356 -0.4849  1.2723
  452SOL     OW 1354   1.830   3.910   3.848 -0.3891 -0.4217 -0.0331
  452SOL    HW1 1355   1.824   3.891   3.941  2.5545  1.9738  0.7890
  452SOL    HW2 1356   1.896   3.850   3.815  2.6255  2.1938  0.7576
  453SOL     OW 1357   3.734   1.076   0.522  0.1898 -0.1235 -0.0421
  453SOL    HW1 1358   3.812   1.024   0.542  0.6706 -0.1518 -1.8139
  453SOL    HW2 1359   3.750   1.111   0.434 -0.7028  1.9747  0.5757
  454SOL     OW 1360   0.534   0.953   3.159  0.3547  0.1685  0.8479
  454SOL    HW1 1361   0.549   0.961   3.065 -3.3699 -0.7217  0.0311
  454SOL    HW2 1362   0.525   0.858   3.174  0.0318  0.3528  1.9108
  455SOL     OW 1363   2.492   3.026   1.033  0.0622 -0.0488  0.5250
  455SOL    HW1 1364   2.422   3.091   1.036  2.1536  2.3921  0.3261
  455SOL    HW2 1365   2.567   3.074   0.997  1.8411 -2.5191  0.6829
  456SOL     OW 1366   2.912   1.720   0.084 -1.0508 -0.2072 -0.3244
  456SOL    HW1 1367   3.006   1.702   0.077 -0.4981  2.3241 -0.1647
  456SOL    HW2 1368   2.873   1.636   0.109  1.2842 -1.0760  0.6168
  457SOL     OW 1369   3.495   0.816   2.057 -0.5393  0.2339  0.9765
  457SOL    HW1 1370   3.450   0.748   2.107 -0.8092  0.2076  0.7031
  457SOL    HW2 1371   3.478   0.794   1.965  0.3509  0.0168  0.8628
  458SOL     OW 1372   1.302   1.367   0.152  0.2348 -0.1174  0.0181
  458SOL    HW1 1373   1.327   1.309   0.080  2.6742  2.0548 -1.0948
  458SOL    HW2 1374   1.309   1.455   0.114  0.2518  1.0636  2.5692
  459SOL     OW 1375   2.406   3.016   0.439 -0.1005  0.0981 -0.9268
  459SOL    HW1 1376   2.371   3.080   0.500 -1.6252  0.8316 -2.5012
  459SOL    HW2 1377   2.344   2.942   0.443 -1.7630  1.2120 -3.3819
  460SOL     OW 1378   3.818   2.621   3.430  0.0485 -0.3626  0.0857
  460SOL    HW1 1379   3.828   2.691   3.365  0.6064  0.2717  0.8381
  460SOL    HW2 1380   3.730   2.588   3.416  0.6175 -1.1895 -1.9216
  461SOL     OW 1381   0.956   2.985   3.402 -0.0177 -0.0276 -0.2225
  461SOL    HW1 1382   1.022   3.037   3.448 -1.3490 -0.6484  2.6354
  461SOL    HW2 1383   1.006   2.937   3.336  1.9513  1.4567  0.0754
  462SOL     OW 1384   1.110   3.068   2.265  0.3243  0.0358  0.3015
  462SOL    HW1 1385   1.070   2.981   2.260  0.2862  0.1114 -1.4301
  462SOL    HW2 1386   1.197   3.052   2.300 -0.9122 -0.2043  3.5655
  463SOL     OW 1387   0.244   1.960   1.606  0.1316 -0.3208 -0.2349
  463SOL    HW1 1388   0.290   1.902   1.665  0.8930 -1.6682 -2.0460
  463SOL    HW2 1389   0.160   1.917   1.589 -0.1213  0.0990 -0.0761
  464SOL     OW 1390   3.914   2.922   1.089 -0.2437  0.6769 -0.3005
  464SOL    HW1 1391   3.922   2.980   1.164  1.1828  0.4537 -0.2456
  464SOL    HW2 1392   3.885   2.839   1.125  2.8029 -0.2001  0.4734
  465SOL     OW 1393   0.062   3.230   2.740  0.3507 -0.5078 -0.8611
  465SOL    HW1 1394   0.029   3.296   2.680 -0.2952  0.0821  0.1093
  465SOL    HW2 1395   0.083   3.279   2.820 -0.2923 -1.4841 -0.0703
  466SOL     OW 1396   2.248   1.493   1.068  0.0825 -0.3023 -0.7213
  466SOL    HW1 1397   2.184   1.485   1.138  0.9462 -0.0309  0.1223
  466SOL    HW2 1398   2.283   1.405   1.056 -1.7087 -0.8530 -2.4612
  467SOL     OW 1399   3.851   0.558   0.389  0.0228 -0.1418 -0.4313
  467SOL    HW1 1400   3.909   0.572   0.315 -0.8978  0.4407 -1.0557
  467SOL    HW2 1401   3.763   0.572   0.355 -0.3519  1.9728  1.1478
  468SOL     OW 1402   3.232   2.943   2.594  0.6248 -0.8712 -0.4068
  468SOL    HW1 1403   3.320   2.907   2.581  1.0216 -0.6816  1.4284
  468SOL    HW2 1404   3.178   2.867   2.616  0.5260 -0.8771 -0.6710
  469SOL     OW 1405   2.564   1.829   1.645  0.4988 -0.5095  0.1922
  469SOL    HW1 1406   2.568   1.781   1.562 -1.2089 -2.7196  1.2861
  469SOL    HW2 1407   2.585   1.920   1.621 -1.5453 -0.7181 -2.9724
  470SOL     OW 1408   0.598   0.931   2.526 -0.4642 -0.1495  0.7301
  470SOL    HW1 1409   0.559   1.018   2.515  0.5225  0.5195  2.1662
  470SOL    HW2 1410   0.535   0.882   2.577  0.8163  1.2386  3.9132
  471SOL     OW 1411   3.348   3.387   2.050  0.5543 -0.3225  0.2362
  471SOL    HW1 1412   3.258   3.419   2.051  0.2469 -1.1327 -0.1783
  471SOL    HW2 1413   3.367   3.372   1.957  1.0471 -0.3415  0.3390
  472SOL     OW 1414   1.444   0.844   3.226  0.0641  0.5437 -0.6430
  472SOL    HW1 1415   1.461   0.751   3.214 -1.2396  0.5324 -3.0268
  472SOL    HW2 1416   1.471   0.862   3.316 -2.2514 -2.7226  0.8859
  473SOL     OW 1417   3.947   1.912   2.419 -0.2688 -0.1792  0.1927
  473SOL    HW1 1418   3.977   1.881   2.505 -1.0915 -0.7445  0.2862
  473SOL    HW2 1419   3.942   2.007   2.429 -0.0379 -0.2122  0.6688
  474SOL     OW 1420   1.013   1.314   2.472 -0.3026  0.4669  0.0410
  474SOL    HW1 1421   1.077   1.323   2.543  0.5761 -0.4179 -0.6092
  474SOL    HW2 1422   0.981   1.224   2.480  0.3282  0.1227 -1.0889
  475SOL     OW 1423   3.704   2.879   2.547  0.3966 -0.0517 -0.1199
  475SOL    HW1 1424   3.732   2.837   2.467  0.4896  3.7731 -2.3238
  475SOL    HW2 1425   3.784   2.917   2.585 -0.0446  0.6775  0.1219
  476SOL     OW 1426   2.130   0.133   3.755 -0.3155 -0.7280 -0.2614
  476SOL    HW1 1427   2.184   0.105   3.682  0.5743 -3.4986  1.3008
  476SOL    HW2 1428   2.183   0.117   3.832 -1.7992  0.5960  1.1201
  477SOL     OW 1429   0.633   3.854   0.650  0.1896 -0.2131 -0.3142
  477SOL    HW1 1430   0.554   3.908   0.638  0.7149  0.8165  0.6379
  477SOL    HW2 1431   0.682   3.900   0.719  1.5398 -0.9314 -0.7788
  478SOL     OW 1432   2.290   2.379   2.595 -0.2791 -0.1687 -0.2710
  478SOL    HW1 1433   2.355   2.383   2.525 -0.3233 -0.4698 -0.3277
  478SOL    HW2 1434   2.300   2.292   2.632 -1.5957 -0.7285 -1.1806
  479SOL     OW 1435   2.301   1.412   2.745  0.2699 -0.3954 -0.0593
  479SOL    HW1 1436   2.337   1.450   2.664 -2.0672 -1.0699 -1.5256
  479SOL    HW2 1437   2.370   1.424   2.810  1.1535  2.8119 -1.4001
  480SOL     OW 1438   1.835   2.810   3.114  0.0059 -0.3566  0.4692
  480SOL    HW1 1439   1.798   2.722   3.101  0.7219 -0.8713  1.7260
  480SOL    HW2 1440   1.917   2.809   3.065  0.7104 -0.8959  1.6285
  481SOL     OW 1441   3.459   0.165   2.350 -0.0524  0.0413 -0.2821
  481SOL    HW1 1442   3.536   0.187   2.297  0.5488  2.3743  1.4141
  481SOL    HW2 1443   3.427   0.249   2.383 -2.0411 -1.0829  0.8287
  482SOL     OW 1444   2.032   3.677   3.408 -0.1631  0.5579  0.5203
  482SOL    HW1 1445   1.955   3.669   3.351  1.7268  0.1588 -2.2025
  482SOL    HW2 1446   2.031   3.598   3.462 -2.0287  0.9362  1.0972
  483SOL     OW 1447   2.991   2.658   1.143  0.0822 -0.1284 -0.7601
  483SOL    HW1 1448   2.923   2.725   1.144 -0.1139 -0.2120 -3.1187
  483SOL    HW2 1449   3.048   2.683   1.070  1.0293 -1.5569 -0.5439
  484SOL     OW 1450   1.784   0.985   1.576  0.5259  0.2523  0.9866
  484SOL    HW1 1451   1.701   0.944   1.599  0.2707  0.3871  0.3415
  484SOL    HW2 1452   1.850   0.931   1.619  0.0754  0.5639  2.0946
  485SOL     OW 1453   2.284   3.461   2.439  0.1736  0.2071 -0.5431
  485SOL    HW1 1454   2.253   3.398   2.504  0.6001 -0.3870 -0.8979
  485SOL    HW2 1455   2.356   3.415   2.395 -0.5368  0.3326 -1.8736
  486SOL     OW 1456   2.540   0.786   0.048 -0.4122 -0.2029  0.0768
  486SOL    HW1 1457   2.596   0.709   0.051  0.2569  0.2763  0.3793
  486SOL    HW2 1458   2.471   0.768   0.112  1.0247  0.3765  1.8833
  487SOL     OW 1459   3.152   3.181   2.477  0.3349  0.0440  0.7206
  487SOL    HW1 1460   3.204   3.125   2.535  1.1946  1.3149  1.2047
  487SOL    HW2 1461   3.217   3.222   2.419 -0.1539  1.3123  1.0384
  488SOL     OW 1462   0.040   2.231   3.082 -0.1259  0.0892  0.2138
  488SOL    HW1 1463   0.034   2.300   3.015  0.2274 -0.3682 -0.2945
  488SOL    HW2 1464   0.023   2.277   3.164 -1.9942  0.4109 -0.3101
  489SOL     OW 1465   3.072   2.207   1.589 -0.4970 -0.3175  0.2467
  489SOL    HW1 1466   3.106   2.284   1.634  0.0769 -0.0477 -0.6208
  489SOL    HW2 1467   3.129   2.136   1.617 -0.6084 -0.2939  0.5307
  490SOL     OW 1468   3.300   0.098   3.247  0.1814  0.7630  0.1646
  490SOL    HW1 1469   3.315   0.061   3.160 -0.1032 -1.2524  0.9223
  490SOL    HW2 1470   3.346   0.039   3.307 -1.0330  1.1396  1.5294
  491SOL     OW 1471   3.795   2.497   1.275 -0.1129  0.2330 -0.2411
  491SOL    HW1 1472   3.722   2.455   1.229 -0.2526 -0.6569  0.7531
  491SOL    HW2 1473   3.848   2.535   1.206 -0.3062 -1.0837 -1.1446
  492SOL     OW 1474   2.272   3.420   1.781 -0.1361 -0.6621 -0.1531
  492SOL    HW1 1475   2.303   3.348   1.835  2.3397 -0.0281 -0.6329
  492SOL    HW2 1476   2.331   3.492   1.800 -0.6350  0.2981 -1.9553
  493SOL     OW 1477   3.106   0.906   3.012  0.2874  0.2591 -0.6745
  493SOL    HW1 1478   3.173   0.888   3.078 -0.4799  0.0315  0.0569
  493SOL    HW2 1479   3.155   0.915   2.930  1.6019  3.5403  0.3333
  494SOL     OW 1480   2.760   1.629   2.952 -0.4464  0.1088  0.1722
  494SOL    HW1 1481   2.796   1.644   3.039 -2.2354  0.4763  0.8896
  494SOL    HW2 1482   2.766   1.714   2.908 -0.7001  0.2448  0.3980
  495SOL     OW 1483   0.970   3.368   0.377  0.0311  0.1929  0.2507
  495SOL    HW1 1484   1.024   3.418   0.438  1.2075 -0.3022 -0.3581
  495SOL    HW2 1485   0.979   3.413   0.293 -1.6837  0.9469  0.4315
  496SOL     OW 1486   2.557   1.829   3.285  0.1553 -0.5348  0.3722
  496SOL    HW1 1487   2.483   1.793   3.334  0.6504  0.1414  1.6538
  496SOL    HW2 1488   2.603   1.885   3.348  1.6913 -0.8425 -0.4273
  497SOL     OW 1489   0.867   2.298   0.772 -0.3503  0.5989 -0.4111
  497SOL    HW1 1490   0.810   2.222   0.783 -0.6436  1.1489  2.5868
  497SOL    HW2 1491   0.945   2.263   0.728 -1.4362 -0.9124 -1.2317
  498SOL     OW 1492   1.578   3.168   0.501 -0.0048  0.2036 -0.5899
  498SOL    HW1 1493   1.482   3.167   0.495  0.0202  2.1216 -2.2222
  498SOL    HW2 1494   1.601   3.078   0.524 -2.1890 -0.3144 -0.1949
  499SOL     OW 1495   2.369   0.976   0.817 -0.6458 -0.0643 -0.1456
  499SOL    HW1 1496   2.355   1.059   0.771 -0.6171 -0.1356 -0.2858
  499SOL    HW2 1497   2.315   0.982   0.895 -0.4452  0.1939 -0.0236
  500SOL     OW 1498   0.106   2.504   0.957 -0.0431  0.3526 -0.7648
  500SOL    HW1 1499   0.186   2.466   0.991 -0.8146  0.4391  1.3087
  500SOL    HW2 1500   0.071   2.438   0.897  1.6668  0.4379 -1.9229
  501SOL     OW 1501   2.256   3.972   0.552 -0.1221  0.9535  0.1994
  501SOL    HW1 1502   2.336   4.013   0.584  1.6226 -2.2115  0.2651
  501SOL    HW2 1503   2.202   3.959   0.630  0.7693  0.1463  0.6973
  502SOL     OW 1504   3.076   3.959   3.526  0.5670  0.4260 -0.0951
  502SOL    HW1 1505   2.993   4.002   3.505 -0.0734  0.3529  2.0514
  502SOL    HW2 1506   3.122   4.021   3.582 -0.4944 -1.6055  3.2985
  503SOL     OW 1507   1.428   0.382   0.001 -0.0918  0.5083 -0.5057
  503SOL    HW1 1508   1.399   0.292  -0.015  0.5004  0.3524 -0.7466
  503SOL    HW2 1509   1.436   0.389   0.096 -1.5815  0.7788 -0.3713
  504SOL     OW 1510   2.332   0.392   1.945 -0.5182 -0.0812  0.3828
  504SOL    HW1 1511   2.374   0.341   2.015  0.7844  0.5029  0.0541
  504SOL    HW2 1512   2.312   0.328   1.877 -0.6872 -0.4573  0.7774
  505SOL     OW 1513   0.053   2.819   3.545 -0.2899  0.2025 -0.6431
  505SOL    HW1 1514   0.098   2.768   3.477 -0.3164  0.0947 -0.5809
  505SOL    HW2 1515   0.096   2.792   3.626  1.2146  1.9063 -0.8125
  506SOL     OW 1516   0.251   3.142   1.413  0.6586  0.7077  0.4426
  506SOL    HW1 1517   0.263   3.223   1.363  0.2038  0.8466  0.5454
  506SOL    HW2 1518   0.303   3.155   1.493 -1.5565  2.0964  1.7805
  507SOL     OW 1519   2.405   1.242   0.730  0.3061 -0.3213 -0.5177
  507SOL    HW1 1520   2.404   1.315   0.792 -1.4220 -0.1915 -0.6542
  507SOL    HW2 1521   2.425   1.282   0.646 -1.0761  0.1050 -0.6726
  508SOL     OW 1522   0.354   2.041   3.948  0.1429  0.7754  0.6881
  508SOL    HW1 1523   0.335   2.126   3.988  0.3747  0.6048  1.1715
  508SOL    HW2 1524   0.308   1.978   4.004 -1.7149  0.7124 -0.7843
  509SOL     OW 1525   0.448   2.102   3.072 -0.2170  0.3003 -0.3215
  509SOL    HW1 1526   0.355   2.081   3.080 -0.4459  0.8016 -1.4910
  509SOL    HW2 1527   0.479   2.108   3.163 -1.3281  0.1706  0.0813
  510SOL     OW 1528   0.768   0.012   0.406 -0.1231  0.4860  0.3863
  510SOL    HW1 1529   0.793   0.062   0.483  0.4398  0.5368  0.1751
  510SOL    HW2 1530   0.839   0.026   0.344 -0.0823 -0.3619  0.2275
  511SOL     OW 1531   2.354   3.924   3.009  0.4164  0.3087 -0.6998
  511SOL    HW1 1532   2.395   4.009   3.029 -0.9319  0.0386  4.8159
  511SOL    HW2 1533   2.267   3.947   2.976  0.3681  1.0968 -0.0530
  512SOL     OW 1534   1.143   0.279   0.735  0.2819 -0.1106 -0.4282
  512SOL    HW1 1535   1.126   0.343   0.804 -0.9479 -1.0210  0.1491
  512SOL    HW2 1536   1.188   0.207   0.780 -0.2260 -0.5639 -0.6366
  513SOL     OW 1537   1.238   2.314   0.885  0.5622  0.1681 -0.4225
  513SOL    HW1 1538   1.146   2.341   0.877  0.5405 -0.3070 -2.6606
  513SOL    HW2 1539   1.253   2.261   0.807  2.1410 -1.6698  1.0488
  514SOL     OW 1540   1.047   1.248   1.944 -0.3926 -0.5825  0.0707
  514SOL    HW1 1541   1.026   1.337   1.972  0.4446 -0.5535  0.6428
  514SOL    HW2 1542   0.981   1.194   1.987 -1.1351 -0.2158 -0.5793
  515SOL     OW 1543   3.564   2.414   0.233 -0.1097 -0.3697  1.1081
  515SOL    HW1 1544   3.486   2.397   0.180  1.6243 -0.8311 -1.4812
  515SOL    HW2 1545   3.554   2.358   0.310 -1.0715 -2.5217 -0.4967
  516SOL     OW 1546   3.893   3.514   3.089  0.7115 -0.7995 -0.3217
  516SOL    HW1 1547   3.873   3.433   3.137 -1.1142  0.2227  0.7614
  516SOL    HW2 1548   3.898   3.581   3.157 -0.4337  0.4296 -1.3954
  517SOL     OW 1549   3.001   2.803   1.635  0.3582 -0.3067  0.3372
  517SOL    HW1 1550   3.076   2.757   1.672  2.2975  0.6954 -2.0775
  517SOL    HW2 1551   2.927   2.744   1.650  1.8037 -1.8711  1.7811
  518SOL     OW 1552   2.104   1.612   0.516  0.3073  0.4279 -0.5198
  518SOL    HW1 1553   2.084   1.629   0.608 -2.6476  0.0240 -0.9916
  518SOL    HW2 1554   2.124   1.699   0.480 -0.8369  0.9488  0.0459
  519SOL     OW 1555   1.165   2.514   1.350  0.2363  0.7831 -0.2987
  519SOL    HW1 1556   1.222   2.565   1.293 -1.3066  1.0726 -1.6915
  519SOL    HW2 1557   1.169   2.557   1.435 -0.0217  2.4741 -1.1049
  520SOL     OW 1558   1.382   2.274   2.563  0.3451 -0.1582  0.0269
  520SOL    HW1 1559   1.345   2.255   2.649  0.8295 -2.5596 -0.2455
  520SOL    HW2 1560   1.334   2.217   2.503  2.4216 -1.1666 -0.7620
  521SOL     OW 1561   3.117   1.429   2.818 -0.1130 -1.1257  0.0249
  521SOL    HW1 1562   3.119   1.398   2.908  0.2001 -0.7939  0.1314
  521SOL    HW2 1563   3.025   1.422   2.792 -0.9697  2.2575  1.5795
  522SOL     OW 1564   2.776   3.445   1.921  0.4762  0.2257 -0.0304
  522SOL    HW1 1565   2.723   3.512   1.878 -0.4298  0.7846  1.8560
  522SOL    HW2 1566   2.833   3.494   1.980  0.2444 -0.6275  0.9165
  523SOL     OW 1567   3.988   1.052   2.049 -0.1508 -0.1469  0.2545
  523SOL    HW1 1568   4.054   1.048   1.980 -0.7297 -3.1131 -0.2819
  523SOL    HW2 1569   3.911   1.089   2.006  0.3548  0.7913  0.1410
  524SOL     OW 1570   3.503   0.060   0.578 -0.5332 -0.7360 -0.0569
  524SOL    HW1 1571   3.433   0.090   0.520  0.2431  2.3157  0.4107
  524SOL    HW2 1572   3.494  -0.036   0.579 -1.6308 -0.8206 -3.7811
  525SOL     OW 1573   3.375   2.556   3.262  0.0586  0.1043 -0.3939
  525SOL    HW1 1574   3.321   2.580   3.186  0.2167  0.9318 -0.2586
  525SOL    HW2 1575   3.319   2.574   3.337  0.5687  1.1431 -0.2444
  526SOL     OW 1576   3.729   1.728   0.784 -0.0217 -0.6014  0.4880
  526SOL    HW1 1577   3.734   1.635   0.806 -0.2859 -0.2866  1.9909
  526SOL    HW2 1578   3.819   1.751   0.760  0.4555 -0.8661  1.8852
  527SOL     OW 1579   0.926   3.355   2.578 -0.1908  0.5217 -0.0603
  527SOL    HW1 1580   0.955   3.358   2.487 -0.5586 -1.0114 -0.2542
  527SOL    HW2 1581   0.855   3.291   2.578 -0.5889  0.9367  1.2080
  528SOL     OW 1582   1.386   1.401   2.926  0.2936  0.2592  0.0794
  528SOL    HW1 1583   1.428   1.477   2.886 -0.7182  1.6706  1.5695
  528SOL    HW2 1584   1.444   1.376   2.997  0.0518  0.3619  0.3125
  529SOL     OW 1585   1.932   0.267   3.419 -0.3470 -0.4875  0.0512
  529SOL    HW1 1586   1.946   0.362   3.420 -0.7925 -0.4122 -0.2364
  529SOL    HW2 1587   2.010   0.232   3.377 -0.3795 -0.2059 -0.2548
  530SOL     OW 1588   0.308   1.512   3.938  0.1325  0.3493  0.0956
  530SOL    HW1 1589   0.262   1.546   3.861  2.4854  0.6503 -1.2915
  530SOL    HW2 1590   0.328   1.421   3.915 -1.9872 -0.6445  1.8101
  531SOL     OW 1591   3.698   1.963   3.500 -0.8529  0.4435 -0.9769
  531SOL    HW1 1592   3.749   2.004   3.429  2.1888 -2.5096 -0.7372
  531SOL    HW2 1593   3.737   1.996   3.580 -0.1996 -0.7582 -0.7762
  532SOL     OW 1594   1.199   1.885   1.744 -0.1512  0.5988 -0.2295
  532SOL    HW1 1595   1.286   1.924   1.739  0.6668 -1.2685 -1.5233
  532SOL    HW2 1596   1.162   1.920   1.826  1.7193  1.5761  0.2584
  533SOL     OW 1597   0.984   3.435   0.816  0.8403  0.0393 -0.5484
  533SOL    HW1 1598   0.920   3.496   0.853  1.3413  1.5868 -2.0771
  533SOL    HW2 1599   1.058   3.438   0.877  0.3515 -0.0449  0.0606
  534SOL     OW 1600   2.009   3.361   1.790 -0.5639 -0.3861  0.4972
  534SOL    HW1 1601   2.019   3.270   1.815 -0.0175 -0.6982 -0.7790
  534SOL    HW2 1602   2.086   3.381   1.738 -1.3064  0.4138 -0.3397
  535SOL     OW 1603   3.612   2.966   1.613 -0.3161 -0.6110  0.5649
  535SOL    HW1 1604   3.608   2.879   1.651  0.0336 -0.3558  1.2003
  535SOL    HW2 1605   3.541   2.968   1.548  0.8501 -1.9960 -0.8313
  536SOL     OW 1606   1.243   3.585   3.726  0.2262 -0.1117 -0.3242
  536SOL    HW1 1607   1.179   3.559   3.659  1.4568 -0.0986 -1.5420
  536SOL    HW2 1608   1.306   3.640   3.680  2.2823 -1.7778  0.3221
  537SOL     OW 1609   1.437   1.902   3.308  0.2309 -0.8687 -0.1048
  537SOL    HW1 1610   1.517   1.849   3.319  0.2342 -0.9352 -0.4483
  537SOL    HW2 1611   1.369   1.837   3.290  0.3760 -0.7057 -1.3053
  538SOL     OW 1612   0.368   0.847   0.672  0.0533  0.4645 -0.4543
  538SOL    HW1 1613   0.396   0.908   0.603 -0.2510  2.2703  0.9318
  538SOL    HW2 1614   0.274   0.859   0.677  0.1009  0.5753  0.4283
  539SOL     OW 1615   0.681   3.230   3.000 -0.1301 -0.2263 -0.1414
  539SOL    HW1 1616   0.677   3.268   2.912  1.0734 -3.4374 -1.7618
  539SOL    HW2 1617   0.774   3.235   3.023 -0.2371 -0.5996  0.3667
  540SOL     OW 1618   3.071   1.808   1.488 -0.7653  0.1454  0.1851
  540SOL    HW1 1619   3.141   1.837   1.430 -0.7212 -1.2482 -0.4997
  540SOL    HW2 1620   2.991   1.843   1.448 -0.5397  1.2741  0.6716
  541SOL     OW 1621   0.878   3.828   0.218  0.0242  0.8587  0.9877
  541SOL    HW1 1622   0.895   3.919   0.197  1.7785  0.2269 -0.6151
  541SOL    HW2 1623   0.844   3.790   0.137  2.4634 -0.5942  0.5570
  542SOL     OW 1624   2.122   0.884   2.552  0.0205  0.6136 -0.0529
  542SOL    HW1 1625   2.066   0.926   2.486  1.6648  1.7065 -0.8144
  542SOL    HW2 1626   2.133   0.951   2.619 -0.8338 -0.1562  0.8928
  543SOL     OW 1627   0.405   0.724   3.324 -0.1815 -0.6041  0.0167
  543SOL    HW1 1628   0.339   0.662   3.353 -0.3192 -0.3202  0.3267
  543SOL    HW2 1629   0.366   0.810   3.340  0.1379 -0.4371 -0.0864
  544SOL     OW 1630   1.189   0.230   2.118  0.6079 -0.4297  0.2332
  544SOL    HW1 1631   1.167   0.163   2.183  1.9212 -1.4684 -0.3418
  544SOL    HW2 1632   1.152   0.197   2.036  0.0198  0.2714  0.2096
  545SOL     OW 1633   3.658   2.404   3.251  0.4342 -0.2439 -0.0852
  545SOL    HW1 1634   3.676   2.357   3.332  0.4444  0.5165  0.3694
  545SOL    HW2 1635   3.603   2.478   3.279 -1.0512 -0.9527 -1.0235
  546SOL     OW 1636   0.518   2.116   2.823  0.0529 -0.4358 -0.2143
  546SOL    HW1 1637   0.499   2.102   2.916 -0.1453  0.9193 -0.0315
  546SOL    HW2 1638   0.583   2.049   2.801  0.4392 -0.4829  1.0202
  547SOL     OW 1639   1.537   0.528   1.363 -0.5784 -0.4160  0.2010
  547SOL    HW1 1640   1.539   0.487   1.276  1.2849  1.2129 -0.5941
  547SOL    HW2 1641   1.450   0.567   1.369 -1.4138 -2.1378 -0.1203
  548SOL     OW 1642   0.652   3.815   2.128 -0.0070  0.2240 -0.2099
  548SOL    HW1 1643   0.707   3.828   2.051  0.4565  3.4728  0.5279
  548SOL    HW2 1644   0.579   3.876   2.116  1.1596  2.4293  2.7497
  549SOL     OW 1645   0.273   0.346   2.035 -0.4009  0.1886 -0.4433
  549SOL    HW1 1646   0.210   0.275   2.052  0.8084 -1.1353 -1.2650
  549SOL    HW2 1647   0.352   0.319   2.082 -0.0520  1.2317 -0.4043
  550SOL     OW 1648   2.626   1.126   0.583  0.4869  0.4522 -0.5465
  550SOL    HW1 1649   2.534   1.133   0.560 -0.1923  0.9996  1.9512
  550SOL    HW2 1650   2.630   1.052   0.643  1.7979  0.0568 -1.0817
  551SOL     OW 1651   3.502   0.755   3.951 -0.2939 -0.9329 -0.3389
  551SOL    HW1 1652   3.545   0.815   4.012 -1.1231  0.1162 -0.7713
  551SOL    HW2 1653   3.543   0.774   3.866 -2.3270  0.9140 -1.0010
  552SOL     OW 1654   0.826   0.268   1.546 -0.9146  0.1351  0.0020
  552SOL    HW1 1655   0.890   0.295   1.480 -0.0074  1.8310  1.4949
  552SOL    HW2 1656   0.781   0.348   1.571 -2.2721 -0.7204  0.4195
  553SOL     OW 1657   2.187   1.808   3.379 -0.2673 -0.0449 -0.3452
  553SOL    HW1 1658   2.243   1.872   3.423 -0.9076 -0.4406  1.1128
  553SOL    HW2 1659   2.100   1.823   3.416 -0.5024 -1.4789 -0.2556
  554SOL     OW 1660   3.288   1.950   2.640  0.0733 -0.5636 -0.1652
  554SOL    HW1 1661   3.335   1.896   2.576  0.0693 -0.6830 -0.0660
  554SOL    HW2 1662   3.227   1.889   2.683  0.5638 -0.6283  0.4390
  555SOL     OW 1663   0.066   0.323   0.444  0.4257  0.3248  0.2063
  555SOL    HW1 1664  -0.026   0.319   0.472  0.4599 -2.9689  0.2546
  555SOL    HW2 1665   0.065   0.381   0.368 -2.3985 -2.0415 -1.8053
  556SOL     OW 1666   0.727   3.580   0.174 -0.2070 -0.6129 -0.0651
  556SOL    HW1 1667   0.690   3.627   0.099  0.1125 -0.7809 -0.3305
  556SOL    HW2 1668   0.753   3.649   0.235 -0.1460 -0.4604 -0.2622
  557SOL     OW 1669   3.024   0.525   3.601  0.0710  0.2272 -0.1442
  557SOL    HW1 1670   3.106   0.479   3.584 -0.1704 -0.9300  1.5558
  557SOL    HW2 1671   3.048   0.595   3.662  0.4132  2.4243 -2.6041
  558SOL     OW 1672   1.785   1.672   0.693  0.2061 -0.2676  0.3201
  558SOL    HW1 1673   1.775   1.728   0.616  0.5726 -1.0249 -0.3043
  558SOL    HW2 1674   1.828   1.727   0.758  0.5113  0.1925 -0.2557
  559SOL     OW 1675   3.301   1.165   3.325  0.7947  0.3578  0.3115
  559SOL    HW1 1676   3.214   1.125   3.331  0.1757  0.8828 -3.0455
  559SOL    HW2 1677   3.294   1.246   3.375 -0.6307  0.3196  0.2138
  560SOL     OW 1678   3.263   0.228   0.412  0.3842  0.3606  0.3577
  560SOL    HW1 1679   3.207   0.299   0.442 -0.4258 -0.5358  1.0163
  560SOL    HW2 1680   3.203   0.165   0.371  0.8166 -0.8595  1.5313
  561SOL     OW 1681   3.000   2.789   2.934 -0.0642  0.2539 -0.0747
  561SOL    HW1 1682   3.042   2.808   3.018 -1.7616  0.1474  0.8530
  561SOL    HW2 1683   2.967   2.700   2.943  1.8542 -0.6933 -1.8183
  562SOL     OW 1684   1.750   2.185   0.308  0.1296  0.9291  0.1576
  562SOL    HW1 1685   1.830   2.198   0.359 -0.7215  2.2241  1.2423
  562SOL    HW2 1686   1.781   2.174   0.218  1.5229  1.8710  0.4778
  563SOL     OW 1687   2.493   2.221   0.648  0.5440 -0.3173 -0.1060
  563SOL    HW1 1688   2.471   2.171   0.727 -1.1307  0.8453  0.2448
  563SOL    HW2 1689   2.495   2.312   0.678  2.4329 -0.0395 -0.9341
  564SOL     OW 1690   3.864   0.448   1.936  0.3727 -1.1192 -0.6007
  564SOL    HW1 1691   3.883   0.421   2.025  0.4453  0.2135 -0.1867
  564SOL    HW2 1692   3.790   0.508   1.944  1.6489  0.6143 -1.1736
  565SOL     OW 1693   2.410   1.008   3.855  0.5861 -0.5544 -0.3669
  565SOL    HW1 1694   2.464   1.054   3.790 -0.4298 -1.2058 -1.7175
  565SOL    HW2 1695   2.434   0.916   3.845  2.1127 -0.4827  1.8527
  566SOL     OW 1696   3.443   2.092   2.796  0.0586 -0.0608  0.0758
  566SOL    HW1 1697   3.392   2.030   2.744  1.6172  0.0567 -1.7027
  566SOL    HW2 1698   3.472   2.158   2.733 -0.0274  1.5090  1.5840
  567SOL     OW 1699   3.576   3.720   1.452  0.3191 -0.4961  0.1794
  567SOL    HW1 1700   3.528   3.752   1.376  0.7307 -2.0809 -0.7835
  567SOL    HW2 1701   3.559   3.786   1.520 -2.2338 -0.3782 -0.4654
  568SOL     OW 1702   2.353   1.628   0.004  0.1934  0.2167 -0.1142
  568SOL    HW1 1703   2.423   1.617   0.068  0.4609 -0.4919 -0.5044
  568SOL    HW2 1704   2.353   1.721  -0.017  0.4105  0.3756  0.5625
  569SOL     OW 1705   1.823   3.204   3.380  0.1462 -0.4707 -0.1163
  569SOL    HW1 1706   1.847   3.165   3.296  0.6260 -0.6395  0.0983
  569SOL    HW2 1707   1.738   3.164   3.400 -2.3561  2.9251 -2.7140
  570SOL     OW 1708   0.243   1.897   2.364 -0.0032 -0.6490  0.1008
  570SOL    HW1 1709   0.155   1.905   2.402  0.6152 -1.9474  1.9521
  570SOL    HW2 1710   0.294   1.851   2.431  2.1956  0.3475 -0.8003
  571SOL     OW 1711   0.172   3.770   2.028 -0.4929 -0.0151 -0.1897
  571SOL    HW1 1712   0.195   3.715   1.953  1.2648  1.8164 -1.0830
  571SOL    HW2 1713   0.209   3.724   2.104  1.4672  0.1433 -0.9840
  572SOL     OW 1714   0.398   2.861   3.634  1.2528 -0.2020  0.1911
  572SOL    HW1 1715   0.452   2.835   3.708  0.2796 -1.9282  0.3466
  572SOL    HW2 1716   0.457   2.863   3.559  1.9410  0.0544  0.7366
  573SOL     OW 1717   1.894   1.444   0.436  0.6562  0.3983 -0.5590
  573SOL    HW1 1718   1.959   1.511   0.456 -0.0690  0.5349  1.5687
  573SOL    HW2 1719   1.815   1.493   0.416  0.7501  0.1972 -1.4702
  574SOL     OW 1720   3.704   1.707   3.478  0.4365 -0.4022  1.1107
  574SOL    HW1 1721   3.698   1.803   3.483 -0.6578 -0.5133  2.1562
  574SOL    HW2 1722   3.795   1.691   3.453  0.3036  0.9417 -0.3746
  575SOL     OW 1723   0.589   2.247   3.825  0.3234 -0.0442  0.0939
  575SOL    HW1 1724   0.572   2.277   3.914 -0.4236 -0.6545  0.1671
  575SOL    HW2 1725   0.684   2.256   3.814  0.4274  0.0139  0.9522
  576SOL     OW 1726   3.261   3.283   3.656  0.0549  0.1098  0.6428
  576SOL    HW1 1727   3.235   3.366   3.615  0.0410 -0.0505  0.3252
  576SOL    HW2 1728   3.350   3.268   3.626 -0.0204 -0.1003  0.5187
  577SOL     OW 1729   2.106   3.692   0.633  0.5000 -0.1576  0.0599
  577SOL    HW1 1730   2.089   3.765   0.693  1.4128  1.0989 -1.1701
  577SOL    HW2 1731   2.094   3.729   0.546  2.7719 -0.9671 -0.6583
  578SOL     OW 1732   1.824   2.133   2.970  0.6337  0.0130  0.8160
  578SOL    HW1 1733   1.742   2.103   3.008  1.3281 -1.8210  0.9778
  578SOL    HW2 1734   1.872   2.173   3.043 -0.4323  1.8987  0.5326
  579SOL     OW 1735   0.983   2.996   2.612 -0.9527  0.0396 -0.1289
  579SOL    HW1 1736   0.971   3.017   2.520 -0.0484 -1.9971 -0.7554
  579SOL    HW2 1737   0.916   2.930   2.631  0.0827 -0.9649  0.1327
  580SOL     OW 1738   3.767   0.629   2.414 -0.1258 -0.4297  0.7299
  580SOL    HW1 1739   3.817   0.658   2.338  0.0484  0.2539  1.0907
  580SOL    HW2 1740   3.833   0.612   2.481 -0.3735  2.9643  2.0615
  581SOL     OW 1741   0.800   2.373   0.068  0.4885 -0.2244  0.2785
  581SOL    HW1 1742   0.778   2.433  -0.004  2.9444  0.1137 -0.2772
  581SOL    HW2 1743   0.825   2.292   0.024  0.4414 -0.5577  0.8595
  582SOL     OW 1744   2.987   0.275   0.123  0.4223  0.4736  0.1780
  582SOL    HW1 1745   2.951   0.246   0.207 -0.7305  1.1520 -0.0691
  582SOL    HW2 1746   3.070   0.227   0.115  0.3558  0.0963  1.5094
  583SOL     OW 1747   2.817   1.089   2.498  0.1318  0.0902 -0.2342
  583SOL    HW1 1748   2.737   1.118   2.454 -0.4745 -1.2839 -0.1085
  583SOL    HW2 1749   2.801   0.996   2.517  1.6663 -0.1439  0.0217
  584SOL     OW 1750   0.023   3.690   0.439  0.2150  0.2089 -0.0000
  584SOL    HW1 1751   0.070   3.618   0.480 -1.5148 -1.6943 -1.1174
  584SOL    HW2 1752  -0.029   3.729   0.509  0.2330 -0.4519  0.3824
  585SOL     OW 1753   3.006   0.383   1.549 -0.1691  0.1528 -0.6942
  585SOL    HW1 1754   2.982   0.369   1.458 -1.2503 -2.0120 -0.1406
  585SOL    HW2 1755   2.929   0.356   1.599  1.2503 -1.1342  0.9242
  586SOL     OW 1756   0.007   2.255   0.096 -0.1442  0.8102 -0.4913
  586SOL    HW1 1757   0.100   2.232   0.107 -0.0788  0.5866 -1.3790
  586SOL    HW2 1758  -0.023   2.277   0.184 -0.3539 -3.2967  0.7072
  587SOL     OW 1759   1.888   2.593   3.773  0.1938  0.3166  0.4367
  587SOL    HW1 1760   1.960   2.655   3.760  0.2254  0.5821  1.7367
  587SOL    HW2 1761   1.809   2.645   3.764  0.1932  0.2665  0.1622
  588SOL     OW 1762   0.215   0.970   2.357 -0.7357  0.5082  0.4077
  588SOL    HW1 1763   0.254   0.921   2.429 -1.0478  0.4478  0.5352
  588SOL    HW2 1764   0.236   0.919   2.278  0.5327  1.1238  0.3239
  589SOL     OW 1765   1.556   1.370   2.122  0.0363 -0.2104 -0.1515
  589SOL    HW1 1766   1.549   1.345   2.030 -0.6804 -1.2178  0.1576
  589SOL    HW2 1767   1.479   1.331   2.163  0.0569  0.6944  0.7767
  590SOL     OW 1768   1.938   3.002   0.929 -0.4004 -0.1002 -0.0251
  590SOL    HW1 1769   2.017   2.993   0.982 -0.2682 -2.1340 -0.4764
  590SOL    HW2 1770   1.940   3.092   0.897  2.6122 -0.5353 -1.3615
  591SOL     OW 1771   3.578   2.704   1.676 -0.2914  0.0500  0.3837
  591SOL    HW1 1772   3.550   2.663   1.758 -2.2086  1.0175  0.2693
  591SOL    HW2 1773   3.580   2.632   1.613 -1.3159 -0.2832  0.7122
  592SOL     OW 1774   3.428   3.969   1.551 -0.5486 -0.2774  1.2388
  592SOL    HW1 1775   3.468   4.039   1.500 -0.7721 -1.1708 -0.2641
  592SOL    HW2 1776   3.458   3.982   1.640  1.8199  0.0112  0.4616
  593SOL     OW 1777   1.838   0.577   1.133 -0.8252  0.8920 -0.0845
  593SOL    HW1 1778   1.851   0.550   1.224 -2.9597  0.2348  0.0870
  593SOL    HW2 1779   1.878   0.507   1.081  1.1904  1.7004  0.2907
  594SOL     OW 1780   0.208   1.012   1.250 -0.3857  0.4783  0.8818
  594SOL    HW1 1781   0.259   0.992   1.171 -1.8353  2.4797 -0.6664
  594SOL    HW2 1782   0.236   0.946   1.313  0.6259 -1.4261 -1.3778
  595SOL     OW 1783   0.361   1.225   3.875  0.1592  0.8310 -0.7208
  595SOL    HW1 1784   0.441   1.243   3.825  0.5931  1.2052  0.0816
  595SOL    HW2 1785   0.363   1.130   3.888 -1.5044  0.2408 -3.9077
  596SOL     OW 1786   1.304   3.774   3.506  0.5888 -0.2513  0.0643
  596SOL    HW1 1787   1.219   3.816   3.498  0.4616 -0.7760 -1.8552
  596SOL    HW2 1788   1.357   3.812   3.436  1.4667 -0.9902  0.3023
  597SOL     OW 1789   2.532   0.775   3.779  1.0741  0.2521  0.0131
  597SOL    HW1 1790   2.549   0.777   3.873 -1.5457  1.1810  0.5450
  597SOL    HW2 1791   2.448   0.729   3.770  0.7787  1.0429 -1.7716
  598SOL     OW 1792   1.327   2.191   0.644  0.2259  0.4623 -0.2386
  598SOL    HW1 1793   1.406   2.227   0.604  1.7871 -1.7922  0.5703
  598SOL    HW2 1794   1.349   2.099   0.660 -2.1741  0.0452  1.0789
  599SOL     OW 1795   1.830   1.793   2.825 -0.0552  0.8467  0.0281
  599SOL    HW1 1796   1.906   1.734   2.822 -1.3848 -0.9887  0.8177
  599SOL    HW2 1797   1.857   1.868   2.772  1.2813 -1.0047 -2.1412
  600SOL     OW 1798   3.603   2.269   2.659  0.1924 -0.3567  0.3290
  600SOL    HW1 1799   3.597   2.203   2.590 -0.4659  1.3100 -1.3068
  600SOL    HW2 1800   3.695   2.272   2.682  0.1592 -2.1881  0.8394
  601SOL     OW 1801   2.497   0.147   2.627 -0.3986  0.0531 -0.5584
  601SOL    HW1 1802   2.530   0.062   2.657 -0.5147 -0.1031 -0.8712
  601SOL    HW2 1803   2.498   0.141   2.531  0.5697  0.7697 -0.6104
  602SOL     OW 1804   2.504   2.589   2.097  0.7740 -0.3179  0.8599
  602SOL    HW1 1805   2.442   2.605   2.026  3.2012  1.6454 -0.9901
  602SOL    HW2 1806   2.552   2.511   2.070  1.6110  0.3547  0.3622
  603SOL     OW 1807   2.152   3.011   1.130  0.1425 -0.2616 -0.1998
  603SOL    HW1 1808   2.210   2.944   1.095  0.7946 -0.2902  0.8956
  603SOL    HW2 1809   2.202   3.054   1.199 -1.4080 -0.8656  1.3895
  604SOL     OW 1810   3.197   2.420   2.997 -0.2340 -1.2854 -0.1937
  604SOL    HW1 1811   3.283   2.379   3.003  0.7180  0.4700 -0.9852
  604SOL    HW2 1812   3.169   2.404   2.907 -0.7023 -1.7764  0.0363
  605SOL     OW 1813   0.817   2.995   1.396  0.4273 -0.4662 -0.8860
  605SOL    HW1 1814   0.742   2.982   1.454  0.8753  3.8331  1.0975
  605SOL    HW2 1815   0.892   2.961   1.445  0.3596  0.0173 -0.4282
  606SOL     OW 1816   1.080   2.224   0.597  0.8373 -0.5631 -0.0027
  606SOL    HW1 1817   1.174   2.219   0.583  0.7832  0.7218 -1.0530
  606SOL    HW2 1818   1.045   2.261   0.515 -0.3740  0.5436  0.9487
  607SOL     OW 1819   2.273   0.716   3.725  0.4315 -0.1499 -0.0794
  607SOL    HW1 1820   2.215   0.791   3.715  0.5954 -0.2636 -2.4696
  607SOL    HW2 1821   2.215   0.640   3.729  0.3180 -0.2478 -2.2921
  608SOL     OW 1822   1.486   2.607   3.878  0.2614 -0.7393 -0.1215
  608SOL    HW1 1823   1.463   2.546   3.948 -2.5451 -0.6417 -0.8484
  608SOL    HW2 1824   1.501   2.690   3.922 -1.6509 -0.6395  0.4100
  609SOL     OW 1825   1.976   1.676   0.210 -0.1000  0.4618  0.3167
  609SOL    HW1 1826   1.990   1.735   0.283 -0.3998 -1.9024  2.4305
  609SOL    HW2 1827   1.882   1.683   0.191  0.0571  1.3974 -0.1672
  610SOL     OW 1828   2.398   1.657   1.758 -0.6590 -0.3605 -0.5946
  610SOL    HW1 1829   2.337   1.703   1.700  0.8767 -0.2412 -2.2126
  610SOL    HW2 1830   2.476   1.714   1.760  0.2789 -1.6108 -0.5109
  611SOL     OW 1831   3.233   3.554   1.442  0.4672 -0.1724  0.3824
  611SOL    HW1 1832   3.198   3.491   1.506  0.9668 -0.1877  0.6497
  611SOL    HW2 1833   3.206   3.639   1.475 -0.3550 -0.2496 -0.0697
  612SOL     OW 1834   3.539   1.820   3.913  0.3578  0.2674 -0.3547
  612SOL    HW1 1835   3.501   1.813   3.826  0.5456  1.3098 -0.5362
  612SOL    HW2 1836   3.591   1.901   3.910 -0.0215  0.5766  0.8638
  613SOL     OW 1837   2.402   3.987   3.834  0.0610  0.3818  0.5762
  613SOL    HW1 1838   2.481   3.941   3.862 -1.3677 -1.3811  1.9991
  613SOL    HW2 1839   2.431   4.043   3.763  2.1827 -1.9061 -0.5381
  614SOL     OW 1840   0.758   2.007   2.211 -0.6372 -0.4009  0.0685
  614SOL    HW1 1841   0.794   1.960   2.286  1.3461 -1.2968 -1.3745
  614SOL    HW2 1842   0.688   2.060   2.248  0.9055 -0.0516  2.7213
  615SOL     OW 1843   1.767   3.679   0.078  0.4634  0.0417 -0.3948
  615SOL    HW1 1844   1.740   3.588   0.092 -1.3212  0.2619 -1.9945
  615SOL    HW2 1845   1.861   3.679   0.095  0.1289 -1.5689  1.9919
  616SOL     OW 1846   1.303   2.915   0.433  0.0391 -0.3579 -0.0221
  616SOL    HW1 1847   1.208   2.909   0.429  0.0638 -1.1205  0.3532
  616SOL    HW2 1848   1.320   2.995   0.482 -0.4013  0.0577 -0.5416
  617SOL     OW 1849   0.193   2.639   1.773  0.3580  0.2396 -0.0776
  617SOL    HW1 1850   0.213   2.685   1.691 -0.3175 -0.9872 -0.9609
  617SOL    HW2 1851   0.211   2.547   1.754 -0.7221 -0.1898  0.8614
  618SOL     OW 1852   2.837   3.758   3.410  0.2378  0.4176  0.5078
  618SOL    HW1 1853   2.893   3.738   3.485  1.1259  1.1904  0.0716
  618SOL    HW2 1854   2.784   3.832   3.440  0.1721  0.3466  0.5689
  619SOL     OW 1855   2.044   0.166   2.447 -0.0976  0.1096  0.3236
  619SOL    HW1 1856   2.100   0.241   2.466  0.9566 -1.1263  2.5559
  619SOL    HW2 1857   2.098   0.108   2.393 -0.0957 -0.0376  0.4827
  620SOL     OW 1858   2.301   0.591   1.541 -0.0883  0.0951 -0.0813
  620SOL    HW1 1859   2.244   0.665   1.562  0.0278  0.1233  0.1367
  620SOL    HW2 1860   2.244   0.529   1.495  0.2822  1.2063 -2.1541
  621SOL     OW 1861   2.884   0.358   2.595  0.2304 -0.0823 -0.2075
  621SOL    HW1 1862   2.970   0.399   2.598  1.0467 -1.7683  1.0439
  621SOL    HW2 1863   2.897   0.272   2.636 -1.6507 -1.1036 -1.6082
  622SOL     OW 1864   3.619   1.545   3.218  0.8000 -0.5066 -0.3140
  622SOL    HW1 1865   3.593   1.526   3.309  0.6388 -1.8503 -0.6178
  622SOL    HW2 1866   3.537   1.574   3.176  0.6957 -0.6818 -0.2332
  623SOL     OW 1867   0.322   2.755   0.953 -0.0241  0.8637  0.0955
  623SOL    HW1 1868   0.293   2.846   0.951 -0.2916  0.8627  2.1902
  623SOL    HW2 1869   0.242   2.704   0.966  0.3513  0.4866  0.9829
  624SOL     OW 1870   1.076   1.798   3.072 -0.1903  0.1140 -0.4287
  624SOL    HW1 1871   1.133   1.777   2.998 -0.8135 -1.2956 -0.5355
  624SOL    HW2 1872   1.084   1.724   3.131 -0.2562  0.8981  0.5934
  625SOL     OW 1873   0.944   0.619   1.328  0.2251  0.2492  0.6944
  625SOL    HW1 1874   0.911   0.709   1.325 -1.6914 -0.3166  2.3308
  625SOL    HW2 1875   0.931   0.592   1.419  3.6326 -0.7247  1.0103
  626SOL     OW 1876   1.124   1.423   1.373 -0.5076  0.4897 -0.1547
  626SOL    HW1 1877   1.149   1.416   1.281  1.0072  1.0547  0.1915
  626SOL    HW2 1878   1.078   1.507   1.379 -0.4388  0.5421 -0.3701
  627SOL     OW 1879   0.438   3.226   3.156  0.3587 -0.2652  0.2545
  627SOL    HW1 1880   0.424   3.288   3.228 -0.4413  2.2784 -1.9254
  627SOL    HW2 1881   0.524   3.248   3.121 -0.2212  0.1428 -0.9796
  628SOL     OW 1882   0.935   2.932   1.793  0.1745  0.3626 -0.1973
  628SOL    HW1 1883   1.022   2.970   1.800  0.5133 -0.4915  0.4787
  628SOL    HW2 1884   0.880   2.985   1.851  0.3241  0.6833 -0.3501
  629SOL     OW 1885   0.468   0.553   0.577  0.0749 -0.3569  0.1562
  629SOL    HW1 1886   0.417   0.624   0.537 -0.6858 -1.8871 -1.7560
  629SOL    HW2 1887   0.526   0.523   0.507  1.3206 -0.7677  1.3388
  630SOL     OW 1888   2.788   1.644   3.277 -0.4458  0.1157  0.3500
  630SOL    HW1 1889   2.720   1.711   3.285 -1.9837 -1.1533 -1.4355
  630SOL    HW2 1890   2.758   1.572   3.332 -1.9763 -1.4680 -2.3501
  631SOL     OW 1891   2.917   3.570   0.960  0.5819 -0.2435  0.0629
  631SOL    HW1 1892   2.873   3.538   1.039  1.1610  0.5884  0.7530
  631SOL    HW2 1893   2.888   3.661   0.952  1.2131 -0.0543 -0.1674
  632SOL     OW 1894   3.950   3.328   1.241 -0.2907  0.3475 -0.3745
  632SOL    HW1 1895   4.034   3.312   1.283 -1.0760 -0.0446  1.0906
  632SOL    HW2 1896   3.899   3.376   1.306 -1.0767  0.9665 -1.4014
  633SOL     OW 1897   3.645   3.409   1.992  0.0160 -0.1409 -0.0814
  633SOL    HW1 1898   3.610   3.323   2.013  1.0103 -0.6679 -0.5498
  633SOL    HW2 1899   3.675   3.403   1.902 -2.0324  1.4126 -0.9613
  634SOL     OW 1900   0.515   1.615   3.293  0.8746 -0.5697  0.0802
  634SOL    HW1 1901   0.570   1.646   3.365  1.0457  1.3356 -0.8087
  634SOL    HW2 1902   0.575   1.604   3.219  0.3179  0.1202 -0.4970
  635SOL     OW 1903   2.018   0.397   0.311 -0.1712 -0.1198 -0.1988
  635SOL    HW1 1904   2.053   0.363   0.393  2.3187 -0.8970 -1.4665
  635SOL    HW2 1905   1.996   0.318   0.260  2.7424  0.0629 -1.9837
  636SOL     OW 1906   2.401   0.944   1.285  0.0304  0.4182 -0.5942
  636SOL    HW1 1907   2.468   0.916   1.347  2.3144  2.8964 -1.7578
  636SOL    HW2 1908   2.439   0.927   1.199 -1.8724 -0.3084 -1.3411
  637SOL     OW 1909   3.405   1.443   1.685 -0.3254  0.2170 -0.2080
  637SOL    HW1 1910   3.408   1.520   1.629  1.3857  1.5534  1.5864
  637SOL    HW2 1911   3.400   1.369   1.624  1.4184  1.5699 -2.1386
  638SOL     OW 1912   2.560   0.209   1.055  0.5849  0.3233 -0.2144
  638SOL    HW1 1913   2.579   0.154   1.131 -1.8131 -1.6504 -0.9312
  638SOL    HW2 1914   2.511   0.153   0.996  0.1672  2.5455 -2.1370
  639SOL     OW 1915   0.454   1.853   2.072 -0.5006  0.7611  1.1009
  639SOL    HW1 1916   0.453   1.921   2.140 -1.8554  0.7648  1.1069
  639SOL    HW2 1917   0.414   1.895   1.995  0.6576  0.6333  0.4166
  640SOL     OW 1918   1.558   2.251   1.669 -0.0894  0.2491 -0.0026
  640SOL    HW1 1919   1.631   2.296   1.712  0.2004  0.0042 -0.2247
  640SOL    HW2 1920   1.518   2.317   1.613 -1.0032  0.7995  1.2730
  641SOL     OW 1921   2.427   1.393   3.843  0.7988 -0.3242 -0.2112
  641SOL    HW1 1922   2.361   1.459   3.821  1.1472  0.3688  0.7564
  641SOL    HW2 1923   2.397   1.314   3.797 -0.4371  0.1005 -0.1897
  642SOL     OW 1924   2.239   3.198   1.530  0.3690 -0.2304 -0.2647
  642SOL    HW1 1925   2.279   3.198   1.617 -4.0333  0.2119  2.0227
  642SOL    HW2 1926   2.200   3.111   1.522  2.0207 -0.8698 -2.6591
  643SOL     OW 1927   2.045   1.991   0.670 -0.6119 -0.3346 -0.5210
  643SOL    HW1 1928   2.122   2.037   0.703 -1.0889  0.2050 -0.1457
  643SOL    HW2 1929   2.015   1.937   0.743 -0.0404 -1.2876 -0.9661
  644SOL     OW 1930   2.487   2.254   2.442 -0.3600 -0.5403 -0.0420
  644SOL    HW1 1931   2.536   2.196   2.384 -1.4622  1.1133 -2.8526
  644SOL    HW2 1932   2.454   2.197   2.512  1.2406 -2.6115 -0.8689
  645SOL     OW 1933   0.519   0.210   0.616 -0.1250 -0.0763 -0.2326
  645SOL    HW1 1934   0.428   0.181   0.628 -0.2102 -0.8413 -2.3142
  645SOL    HW2 1935   0.527   0.225   0.522  1.7084  0.7272  0.0131
  646SOL     OW 1936   1.552   3.595   2.233 -0.0112 -0.4233  0.5407
  646SOL    HW1 1937   1.563   3.505   2.264  0.9103 -0.2113  0.8521
  646SOL    HW2 1938   1.519   3.586   2.143  1.4458 -1.1088  0.0474
  647SOL     OW 1939   2.555   0.815   0.435  0.1350 -0.3629 -0.5886
  647SOL    HW1 1940   2.597   0.862   0.507  1.1030 -0.7178 -0.8931
  647SOL    HW2 1941   2.504   0.882   0.389  0.1220  0.0239 -0.0253
  648SOL     OW 1942   0.838   1.239   3.942 -0.4960  0.4364  1.1513
  648SOL    HW1 1943   0.845   1.146   3.964  0.6448  0.0642 -0.6605
  648SOL    HW2 1944   0.898   1.283   4.003  2.0083 -0.4822 -0.5123
  649SOL     OW 1945   0.792   0.697   1.660  0.7646  0.1611 -0.0893
  649SOL    HW1 1946   0.804   0.653   1.744  0.2567 -0.2869 -0.2490
  649SOL    HW2 1947   0.698   0.693   1.644  0.8505  0.3040 -0.6490
  650SOL     OW 1948   0.979   3.706   3.565  0.1410 -0.4295 -0.3454
  650SOL    HW1 1949   0.925   3.629   3.546  1.1870 -1.5244  0.9142
  650SOL    HW2 1950   1.038   3.714   3.490  0.6375 -1.4282 -0.0747
  651SOL     OW 1951   1.223   0.798   0.773  0.3480  0.0758  0.0952
  651SOL    HW1 1952   1.215   0.706   0.799  0.4100  0.5506  1.9215
  651SOL    HW2 1953   1.240   0.845   0.855  1.9303  1.5312 -0.9865
  652SOL     OW 1954   2.870   2.078   2.965  0.0124  0.2161  0.6836
  652SOL    HW1 1955   2.846   2.038   3.049  1.8760  0.2358  1.2740
  652SOL    HW2 1956   2.831   2.165   2.967 -0.7993 -0.1485  1.0804
  653SOL     OW 1957   0.422   0.655   2.393  0.6495 -0.2386  0.1658
  653SOL    HW1 1958   0.500   0.599   2.383  2.0396  1.6430 -0.0930
  653SOL    HW2 1959   0.408   0.691   2.306  0.5775  0.7986  0.5938
  654SOL     OW 1960   0.406   3.473   3.722  0.0988 -0.0396 -0.1908
  654SOL    HW1 1961   0.478   3.416   3.696  0.4769  0.3099  0.0905
  654SOL    HW2 1962   0.358   3.423   3.788 -0.7389 -0.8442 -1.3770
  655SOL     OW 1963   1.448   0.048   1.357  0.2075 -0.2812  0.1130
  655SOL    HW1 1964   1.369   0.087   1.319  0.3879  0.2274  0.2445
  655SOL    HW2 1965   1.483   0.117   1.415  1.4563  0.0038 -0.9396
  656SOL     OW 1966   1.990   0.300   3.087  0.0397 -0.3409 -0.3512
  656SOL    HW1 1967   1.997   0.266   2.998 -0.3922 -0.1950 -0.4449
  656SOL    HW2 1968   1.955   0.389   3.076  0.7114 -0.0382 -0.0828
  657SOL     OW 1969   2.532   2.775   0.178 -0.6013  0.2242  1.1067
  657SOL    HW1 1970   2.458   2.834   0.166  0.4659  1.5556  0.8397
  657SOL    HW2 1971   2.606   2.832   0.196  0.2323 -1.1112  2.1326
  658SOL     OW 1972   3.932   1.120   0.855 -0.3836 -0.8599 -0.3096
  658SOL    HW1 1973   3.850   1.071   0.852 -0.3841 -0.8083 -1.6643
  658SOL    HW2 1974   3.909   1.204   0.895 -0.5136 -1.6605  1.4021
  659SOL     OW 1975   3.791   1.001   2.202  0.2142  0.5609 -0.0975
  659SOL    HW1 1976   3.870   1.006   2.149 -0.7917  0.5004 -1.6661
  659SOL    HW2 1977   3.822   0.983   2.290  1.8487 -1.0564 -0.9542
  660SOL     OW 1978   2.069   3.717   1.438  0.0470 -0.5396 -0.1269
  660SOL    HW1 1979   2.143   3.770   1.470 -0.3571 -1.1559  2.0216
  660SOL    HW2 1980   2.029   3.682   1.518 -0.6871 -2.7652 -1.3941
  661SOL     OW 1981   3.303   2.221   0.270 -0.0558 -0.0899  0.7425
  661SOL    HW1 1982   3.320   2.127   0.281  0.0822 -0.1687 -0.0758
  661SOL    HW2 1983   3.345   2.243   0.187 -0.4587  0.6037  0.7155
  662SOL     OW 1984   0.743   1.255   0.224 -0.2296  0.2100  0.1804
  662SOL    HW1 1985   0.820   1.293   0.182  0.3976  1.4602  2.3181
  662SOL    HW2 1986   0.769   1.243   0.315 -2.3697  0.0928  0.8269
  663SOL     OW 1987   0.500   0.953   1.239  0.4438  0.4006 -0.0200
  663SOL    HW1 1988   0.513   0.872   1.289  3.9821  1.1569  0.5951
  663SOL    HW2 1989   0.462   0.924   1.156  1.9220 -2.0082  0.0337
  664SOL     OW 1990   3.450   1.500   2.548  0.0766  0.1991 -0.4618
  664SOL    HW1 1991   3.507   1.492   2.472  1.3045  0.0873  0.4379
  664SOL    HW2 1992   3.440   1.411   2.581 -0.3301  0.2665 -0.3921
  665SOL     OW 1993   1.147   0.859   2.539 -0.3990 -0.1022 -0.0794
  665SOL    HW1 1994   1.153   0.881   2.632 -1.3357 -0.8356  0.1670
  665SOL    HW2 1995   1.069   0.906   2.509 -0.3397 -0.2035 -0.3920
  666SOL     OW 1996   3.891   2.964   2.916  0.9271 -0.0174 -0.4382
  666SOL    HW1 1997   3.855   2.981   3.003 -0.8514 -0.1994 -1.1040
  666SOL    HW2 1998   3.857   3.035   2.862  1.4529 -0.2871 -1.1341
  667SOL     OW 1999   0.531   3.200   0.569  0.4607  0.2397  0.0425
  667SOL    HW1 2000   0.582   3.281   0.563 -0.4386  0.7889 -0.5806
  667SOL    HW2 2001   0.539   3.173   0.661  0.3833  1.3114  0.3838
  668SOL     OW 2002   3.560   3.007   2.172 -0.2571  0.2993  0.9159
  668SOL    HW1 2003   3.580   3.073   2.238  2.2955 -0.5218  1.0584
  668SOL    HW2 2004   3.610   3.033   2.095 -1.7032  0.2038 -0.0982
  669SOL     OW 2005   0.197   3.058   2.451  0.8582 -0.4625 -0.1523
  669SOL    HW1 2006   0.269   3.081   2.392  1.0183 -1.7318 -0.4821
  669SOL    HW2 2007   0.237   3.054   2.537  1.2195 -1.2252 -0.3441
  670SOL     OW 2008   2.328   0.718   2.652 -1.1152 -0.5014 -0.6100
  670SOL    HW1 2009   2.392   0.787   2.665 -1.4827 -0.4317  0.9815
  670SOL    HW2 2010   2.246   0.764   2.631 -1.6153 -0.3272  1.4580
  671SOL     OW 2011   0.565   2.584   0.154  0.6243  0.7006  0.1593
  671SOL    HW1 2012   0.569   2.519   0.224 -0.0175  1.0232  0.5016
  671SOL    HW2 2013   0.651   2.626   0.156  0.2363  1.5021  1.5342
  672SOL     OW 2014   0.135  -0.017   3.155  0.4645  0.0767 -0.8200
  672SOL    HW1 2015   0.108  -0.002   3.245  1.5210 -1.2981 -0.2351
  672SOL    HW2 2016   0.199   0.052   3.137 -0.4914  0.9613 -0.8810
  673SOL     OW 2017   3.039   2.420   3.605  0.0944 -0.3731 -0.0943
  673SOL    HW1 2018   3.091   2.339   3.605  4.7712  2.2701 -1.8624
  673SOL    HW2 2019   3.049   2.454   3.694  2.7088  0.6631 -0.6852
  674SOL     OW 2020   0.973   3.550   1.159  0.0565 -0.3267  0.4040
  674SOL    HW1 2021   0.966   3.602   1.239 -0.9196 -0.5287  0.4700
  674SOL    HW2 2022   0.991   3.614   1.090 -2.8618  0.4428  0.1896
  675SOL     OW 2023   3.675   0.306   3.420  0.6084 -0.0210  0.5448
  675SOL    HW1 2024   3.724   0.372   3.372  1.8677 -1.6022 -0.4143
  675SOL    HW2 2025   3.738   0.237   3.440 -1.2613 -2.5044 -1.3891
  676SOL     OW 2026   1.251   1.839   2.616 -0.0249 -0.1636 -0.2630
  676SOL    HW1 2027   1.228   1.821   2.525 -0.7488  1.4650 -0.4230
  676SOL    HW2 2028   1.290   1.757   2.647  0.3024 -0.7281 -2.0440
  677SOL     OW 2029   1.013   1.726   3.339 -0.6633  0.0547  0.3775
  677SOL    HW1 2030   1.097   1.759   3.307 -1.9536  0.0345 -3.5864
  677SOL    HW2 2031   0.981   1.794   3.398  0.5028  1.8455 -0.9625
  678SOL     OW 2032   1.552   2.555   1.755 -0.2073 -0.8439  0.1977
  678SOL    HW1 2033   1.559   2.649   1.737 -2.0279 -0.7784 -0.3949
  678SOL    HW2 2034   1.620   2.515   1.701 -0.5646  0.0069 -0.9264
  679SOL     OW 2035   3.220   0.933   1.516 -0.5065 -0.3568  0.4770
  679SOL    HW1 2036   3.206   0.897   1.429 -0.8369 -1.2145  0.8809
  679SOL    HW2 2037   3.274   1.011   1.501  0.0445 -0.8941 -0.4204
  680SOL     OW 2038   3.574   1.398   0.944 -0.5139 -0.3789 -0.3058
  680SOL    HW1 2039   3.510   1.346   0.993  0.5667 -1.9944 -0.5440
  680SOL    HW2 2040   3.657   1.384   0.989  0.2130 -0.6326 -1.6669
  681SOL     OW 2041   3.891   3.840   3.101 -0.9234 -0.2779 -0.2997
  681SOL    HW1 2042   3.975   3.848   3.147 -0.0683  0.5002 -1.9307
  681SOL    HW2 2043   3.853   3.927   3.106 -1.8468 -0.7138  0.7529
  682SOL     OW 2044   1.348   0.044   0.027 -0.2408  0.3202 -0.2429
  682SOL    HW1 2045   1.375  -0.046   0.044 -1.1737  0.4593  2.4712
  682SOL    HW2 2046   1.400   0.071  -0.048  0.0049 -2.4953 -1.1984
  683SOL     OW 2047   3.461   2.493   2.597  0.0568 -0.3754 -0.1466
  683SOL    HW1 2048   3.493   2.418   2.647 -1.3856  0.1525  1.7048
  683SOL    HW2 2049   3.366   2.477   2.589  0.1305 -0.0994 -2.2145
  684SOL     OW 2050   0.016   3.985   0.311 -0.4348  0.1124 -0.1738
  684SOL    HW1 2051   0.080   3.965   0.379 -0.5325  0.0639 -0.0966
  684SOL    HW2 2052  -0.055   4.030   0.357 -1.2540 -1.3377  0.0464
  685SOL     OW 2053   3.519   1.006   3.408  0.3034  0.3787 -0.6367
  685SOL    HW1 2054   3.486   0.932   3.459  0.0295 -0.2607 -1.7178
  685SOL    HW2 2055   3.443   1.061   3.393  0.5272  0.9537  0.2571
  686SOL     OW 2056   3.054   3.103   0.890  0.6118 -0.0653  0.0633
  686SOL    HW1 2057   3.005   3.074   0.967 -0.5782 -0.4069 -0.7931
  686SOL    HW2 2058   3.060   3.198   0.898  0.9420 -0.1455  0.8194
  687SOL     OW 2059   1.607   0.527   2.582 -0.1066  0.5426  0.0822
  687SOL    HW1 2060   1.669   0.513   2.654 -2.7372 -0.9537  2.2736
  687SOL    HW2 2061   1.624   0.454   2.522  0.4952  0.3833  0.4365
  688SOL     OW 2062   0.172   3.020   2.971 -0.2893 -0.0905 -0.3942
  688SOL    HW1 2063   0.169   3.112   2.995 -0.0905 -0.4065  0.8888
  688SOL    HW2 2064   0.103   3.010   2.905 -0.7232  0.8359 -0.0949
  689SOL     OW 2065   1.550   1.009   3.458 -0.8671  0.0939  0.0692
  689SOL    HW1 2066   1.513   1.018   3.545 -1.0274 -1.0345  0.1368
  689SOL    HW2 2067   1.633   1.058   3.462  1.0594 -2.9781  2.0718
  690SOL     OW 2068   3.688   3.181   1.165  0.2450 -0.1170 -0.2042
  690SOL    HW1 2069   3.782   3.191   1.186  0.0491 -1.4031  1.5666
  690SOL    HW2 2070   3.664   3.264   1.124  2.4829 -0.3010 -2.1065
  691SOL     OW 2071   2.766   3.399   2.984  0.6649 -0.3895  0.6563
  691SOL    HW1 2072   2.726   3.357   3.061 -1.5631  0.8628  0.2738
  691SOL    HW2 2073   2.715   3.366   2.910  0.8700  0.6218  0.0426
  692SOL     OW 2074   0.577   1.284   3.477  0.2167  0.7022 -0.2801
  692SOL    HW1 2075   0.502   1.254   3.529  1.0906  1.0910  1.2708
  692SOL    HW2 2076   0.545   1.363   3.433 -0.5433  0.3671 -0.3530
  693SOL     OW 2077   0.942   2.975   2.963  0.6732 -0.1666 -0.4251
  693SOL    HW1 2078   0.961   2.883   2.981  2.8281 -0.1409 -2.0843
  693SOL    HW2 2079   0.879   2.972   2.891  0.3360 -0.3460 -0.1238
  694SOL     OW 2080   3.805   2.658   3.699 -0.5966  0.6535 -0.1994
  694SOL    HW1 2081   3.845   2.658   3.613  1.9850  0.8089  0.9179
  694SOL    HW2 2082   3.849   2.587   3.746 -2.9321 -0.3590  0.6195
  695SOL     OW 2083   1.424   2.109   0.945 -0.2287 -0.3444 -0.4208
  695SOL    HW1 2084   1.482   2.122   1.021  0.3192  1.3340 -1.0642
  695SOL    HW2 2085   1.381   2.194   0.934 -2.5194 -1.4114 -0.2496
  696SOL     OW 2086   3.583   1.845   2.732  0.0032  0.7137 -0.9013
  696SOL    HW1 2087   3.525   1.836   2.808 -0.0333 -2.3446 -1.1921
  696SOL    HW2 2088   3.524   1.855   2.658 -0.0542  0.6840 -0.8595
  697SOL     OW 2089   0.999   2.016   2.449  0.7604  0.2960 -0.4110
  697SOL    HW1 2090   0.920   2.046   2.496  1.0854 -1.9979  1.8093
  697SOL    HW2 2091   0.976   1.928   2.418  1.2627  1.0040 -3.0150
  698SOL     OW 2092   0.803   3.868   1.289  0.5399 -0.1758 -0.5252
  698SOL    HW1 2093   0.734   3.817   1.245 -1.0411 -1.0356  2.6718
  698SOL    HW2 2094   0.766   3.956   1.297  0.1562 -0.4041  0.3574
  699SOL     OW 2095   1.347   0.658   3.757  0.0967  0.2238  0.4119
  699SOL    HW1 2096   1.292   0.581   3.743  0.9611  0.0721 -3.0000
  699SOL    HW2 2097   1.436   0.623   3.764  0.4999  0.8708 -1.1866
  700SOL     OW 2098   1.681   0.748   3.467  0.1748  0.0795 -0.2258
  700SOL    HW1 2099   1.656   0.839   3.455 -3.0545 -0.2547  2.5399
  700SOL    HW2 2100   1.732   0.747   3.548  1.5831 -0.4305 -1.0809
  701SOL     OW 2101   1.407   1.965   2.993 -0.0397 -0.0865 -0.5076
  701SOL    HW1 2102   1.390   1.964   3.087  0.9710  0.7938 -0.2862
  701SOL    HW2 2103   1.459   1.887   2.977 -0.1862 -0.2207 -0.3260
  702SOL     OW 2104   0.245   2.881   1.523 -0.4953  0.2868  0.3891
  702SOL    HW1 2105   0.221   2.967   1.490  0.1872  0.7876  1.1654
  702SOL    HW2 2106   0.162   2.835   1.534 -0.8435  0.7340 -0.3030
  703SOL     OW 2107   2.526   2.537   3.015  0.1814 -0.1232  0.0026
  703SOL    HW1 2108   2.479   2.456   2.991 -1.8564  0.5626  1.3433
  703SOL    HW2 2109   2.464   2.583   3.072  1.4020  2.2789 -0.5168
  704SOL     OW 2110   2.281   1.941   1.572 -0.2245 -0.3118 -0.2176
  704SOL    HW1 2111   2.261   1.912   1.483  0.9081 -0.9935 -0.2719
  704SOL    HW2 2112   2.376   1.931   1.580 -0.2019  0.5432  0.7932
  705SOL     OW 2113   2.057   0.522   3.506 -0.3114 -0.0566  0.0854
  705SOL    HW1 2114   2.097   0.472   3.435  0.3546  0.1844  0.2901
  705SOL    HW2 2115   2.072   0.614   3.481 -1.1171  0.0452 -0.0548
  706SOL     OW 2116   0.614   0.153   3.198  0.3222 -0.5742 -0.2752
  706SOL    HW1 2117   0.604   0.215   3.126  1.3476 -0.9458 -0.7539
  706SOL    HW2 2118   0.550   0.084   3.180  1.1275 -1.0743 -1.2805
  707SOL     OW 2119   3.724   1.386   1.688  0.4432  0.3396  0.2327
  707SOL    HW1 2120   3.641   1.417   1.722 -0.5212 -1.5212 -0.2964
  707SOL    HW2 2121   3.743   1.444   1.614 -0.0210  1.1999  0.7830
  708SOL     OW 2122   3.789   3.052   0.722  0.3772  0.2924 -0.1215
  708SOL    HW1 2123   3.700   3.073   0.695 -0.9092 -4.7643 -0.8180
  708SOL    HW2 2124   3.783   3.038   0.817  1.1688  2.3666  0.3021
  709SOL     OW 2125   1.772   0.032   2.292 -0.0721  0.0200 -0.3211
  709SOL    HW1 2126   1.840   0.042   2.226  0.4623  2.6444  0.5082
  709SOL    HW2 2127   1.819   0.019   2.374 -0.6270 -0.0133 -0.0013
  710SOL     OW 2128   3.910   1.564   0.959 -0.1168 -0.2383  0.2999
  710SOL    HW1 2129   3.966   1.631   0.997  2.1352 -2.5630  1.4201
  710SOL    HW2 2130   3.970   1.510   0.907 -1.8735 -1.2411 -0.7936
  711SOL     OW 2131   0.223   3.697   3.452  0.4885 -0.4130  0.7909
  711SOL    HW1 2132   0.233   3.603   3.441 -1.9637 -0.6601 -0.0506
  711SOL    HW2 2133   0.136   3.708   3.492  0.5380  1.4950  0.4947
  712SOL     OW 2134   3.099   0.001   2.911 -0.1500  0.0216  0.0859
  712SOL    HW1 2135   3.072   0.000   3.003 -1.4021  2.7853 -0.1643
  712SOL    HW2 2136   3.159   0.076   2.904 -0.2566  0.0047 -1.3940
  713SOL     OW 2137   3.787   0.332   3.127  0.0485  0.0569  0.3803
  713SOL    HW1 2138   3.796   0.238   3.108  3.4342  0.6952 -2.2268
  713SOL    HW2 2139   3.730   0.365   3.057  1.8811  0.4087 -1.0222
  714SOL     OW 2140   2.857   2.826   3.815  0.5572  0.0127 -0.4630
  714SOL    HW1 2141   2.840   2.918   3.835  1.0063 -0.5011  2.9555
  714SOL    HW2 2142   2.772   2.791   3.787 -0.5470  0.7202  1.8129
  715SOL     OW 2143   1.623   3.177   3.647 -1.0311  0.5394  0.1457
  715SOL    HW1 2144   1.559   3.114   3.614 -2.1777  0.9198  1.5253
  715SOL    HW2 2145   1.626   3.246   3.581  2.3040 -2.0851 -2.8221
  716SOL     OW 2146   0.467   0.739   0.132 -0.8499  0.3268  0.8170
  716SOL    HW1 2147   0.497   0.830   0.138 -0.3917  0.2419 -0.0950
  716SOL    HW2 2148   0.377   0.745   0.101 -1.7656  0.5723  3.3236
  717SOL     OW 2149   1.498   1.765   2.235 -0.1117  0.1135 -1.2287
  717SOL    HW1 2150   1.519   1.745   2.326  0.4572  0.4376 -1.2895
  717SOL    HW2 2151   1.516   1.858   2.225  0.0770  0.0260 -1.7460
  718SOL     OW 2152   1.736   1.195   2.212  0.1226 -0.0395 -0.5218
  718SOL    HW1 2153   1.717   1.286   2.186  0.9585  0.0862 -0.7022
  718SOL    HW2 2154   1.673   1.177   2.282  0.5593  0.9922  0.1579
  719SOL     OW 2155   0.095   1.139   2.970 -0.7504 -0.1466 -0.7275
  719SOL    HW1 2156   0.163   1.090   2.924 -1.6246 -0.6053 -1.5843
  719SOL    HW2 2157   0.085   1.094   3.054  0.2864  0.1884 -0.4133
  720SOL     OW 2158   0.057   1.243   1.123 -0.0872  0.0114  0.7703
  720SOL    HW1 2159   0.038   1.171   1.183  0.4702 -1.0491 -0.3037
  720SOL    HW2 2160   0.149   1.233   1.101 -0.4413 -0.0292 -0.7897
  721SOL     OW 2161   2.714   3.697   1.822 -0.7812  0.3949  0.1409
  721SOL    HW1 2162   2.677   3.767   1.876 -0.1773 -0.0892  1.1955
  721SOL    HW2 2163   2.802   3.727   1.800 -1.3141  0.9785 -1.3257
  722SOL     OW 2164   3.544   2.664   1.233 -0.4394 -0.1512 -0.4389
  722SOL    HW1 2165   3.628   2.672   1.279 -0.1998  0.0040 -0.9026
  722SOL    HW2 2166   3.481   2.706   1.291 -0.3461 -1.0114  0.3128
  723SOL     OW 2167   1.622   1.789   2.983  0.8280  0.1293 -0.6841
  723SOL    HW1 2168   1.605   1.704   3.024  1.1514 -0.5432 -1.8722
  723SOL    HW2 2169   1.712   1.783   2.953  0.7801  0.8145 -0.9670
  724SOL     OW 2170   0.354   2.731   0.166 -0.1162 -0.3040  0.2831
  724SOL    HW1 2171   0.440   2.690   0.150  0.7551  1.3487  0.4891
  724SOL    HW2 2172   0.359   2.761   0.257 -1.2030 -0.8315  0.5213
  725SOL     OW 2173   1.882   1.224   3.711  0.2088  0.1957 -0.4067
  725SOL    HW1 2174   1.844   1.308   3.684 -2.6554 -0.6164  0.7115
  725SOL    HW2 2175   1.955   1.249   3.769  0.2182  1.8726 -1.0702
  726SOL     OW 2176   3.605   3.829   0.364  0.6376  0.0420 -0.2588
  726SOL    HW1 2177   3.528   3.789   0.324  0.0260  0.6962  0.2466
  726SOL    HW2 2178   3.676   3.809   0.304  0.1164 -0.7665 -0.6163
  727SOL     OW 2179   1.733   0.983   2.632 -0.3966 -0.2877  0.0169
  727SOL    HW1 2180   1.669   0.968   2.702 -1.1621 -0.0938 -0.6261
  727SOL    HW2 2181   1.766   0.896   2.611 -0.5552 -0.4067  0.2573
  728SOL     OW 2182   3.537   3.571   2.905  0.0961  0.3333 -1.0372
  728SOL    HW1 2183   3.603   3.501   2.911  0.5561  0.3182 -4.1598
  728SOL    HW2 2184   3.460   3.534   2.948  0.9441 -1.2934 -0.8051
  729SOL     OW 2185   1.647   1.146   3.968  0.3177 -0.3657 -0.2579
  729SOL    HW1 2186   1.605   1.110   4.046  0.0109  0.3713 -0.0719
  729SOL    HW2 2187   1.741   1.135   3.984  0.2551 -0.2409  0.2071
  730SOL     OW 2188   3.943   1.388   2.926  0.4258  0.1220 -0.1765
  730SOL    HW1 2189   3.984   1.303   2.942  2.6377  0.8525 -1.4477
  730SOL    HW2 2190   3.941   1.395   2.830 -1.1179  0.8954 -0.1110
  731SOL     OW 2191   3.634   0.566   1.265  0.5237 -0.0032 -0.3040
  731SOL    HW1 2192   3.718   0.595   1.300  0.1098  0.3261  0.4471
  731SOL    HW2 2193   3.654   0.531   1.179  1.3213  0.8022 -0.4596
  732SOL     OW 2194   2.211   3.856   3.326  0.3352 -0.4699  0.2196
  732SOL    HW1 2195   2.167   3.910   3.260  1.3243 -0.0163 -0.1033
  732SOL    HW2 2196   2.143   3.799   3.361 -0.5313  0.3310 -0.1261
  733SOL     OW 2197   1.011   1.997   0.361 -0.0646 -0.0941 -0.2482
  733SOL    HW1 2198   0.952   2.023   0.290 -0.2622  0.3125  0.0586
  733SOL    HW2 2199   0.994   1.904   0.374  0.2346 -0.2587 -0.9749
  734SOL     OW 2200   1.147   3.447   0.582  0.0268 -0.7092  0.1795
  734SOL    HW1 2201   1.104   3.413   0.661  0.1942 -0.0537  0.5561
  734SOL    HW2 2202   1.168   3.538   0.603 -0.3604 -0.3835 -0.7996
  735SOL     OW 2203   0.790   1.170   1.536 -0.5808 -0.0322 -0.0574
  735SOL    HW1 2204   0.750   1.238   1.482  0.6124  1.0900  0.4148
  735SOL    HW2 2205   0.825   1.217   1.612 -0.4134 -1.2896  0.6777
  736SOL     OW 2206   0.702   1.061   3.626  0.6581  0.1528  0.9199
  736SOL    HW1 2207   0.786   1.023   3.599  1.9430  2.6138  1.1844
  736SOL    HW2 2208   0.682   1.126   3.558 -1.0849 -0.4200  0.8469
  737SOL     OW 2209   4.022   1.817   1.562  0.0032  0.2534  0.3771
  737SOL    HW1 2210   4.018   1.817   1.467  0.9239 -1.3504  0.3018
  737SOL    HW2 2211   3.935   1.846   1.590 -0.9817 -1.2475 -0.9743
  738SOL     OW 2212   0.657   0.448   1.344 -0.0901  0.4601 -0.2113
  738SOL    HW1 2213   0.644   0.474   1.253 -2.0770 -0.2987 -0.1811
  738SOL    HW2 2214   0.571   0.421   1.375  0.7807 -0.5851  1.5080
  739SOL     OW 2215   1.125   3.507   3.442 -0.1023  0.3651  0.3847
  739SOL    HW1 2216   1.094   3.570   3.377  2.1453  0.7383 -0.4199
  739SOL    HW2 2217   1.218   3.494   3.420 -0.1644 -2.2603  1.3155
  740SOL     OW 2218   3.116   2.197   3.312  0.4449 -0.1281  0.3759
  740SOL    HW1 2219   3.128   2.132   3.381  2.5330  0.6157  0.8130
  740SOL    HW2 2220   3.201   2.202   3.269  0.0502  1.5707 -0.2964
  741SOL     OW 2221   0.906   2.305   3.442 -0.5627 -0.4390 -0.0692
  741SOL    HW1 2222   0.953   2.341   3.517 -0.6685  0.4575 -0.4119
  741SOL    HW2 2223   0.848   2.377   3.415  0.1327 -0.4151 -1.5660
  742SOL     OW 2224   2.182   0.210   0.948  0.3691 -0.4613 -0.0319
  742SOL    HW1 2225   2.230   0.249   1.021  0.9686 -0.0638 -0.6216
  742SOL    HW2 2226   2.246   0.207   0.876 -0.6767  0.7296 -1.0524
  743SOL     OW 2227   0.558   2.843   3.383  0.7787  0.0294 -0.3620
  743SOL    HW1 2228   0.612   2.912   3.346  1.0339  0.2043  0.3070
  743SOL    HW2 2229   0.561   2.772   3.318  1.5626  0.1589 -0.4823
  744SOL     OW 2230   3.240   1.308   3.062 -0.6523 -0.0445 -0.0825
  744SOL    HW1 2231   3.289   1.383   3.026 -1.2088 -0.8053 -2.6418
  744SOL    HW2 2232   3.304   1.262   3.116  0.2590  1.1963 -0.0435
  745SOL     OW 2233   3.071   0.457   1.242 -0.6146 -0.0246  0.4124
  745SOL    HW1 2234   3.090   0.546   1.272  1.5643  0.2349 -1.4222
  745SOL    HW2 2235   3.002   0.467   1.177  0.0147  0.4352 -0.2013
  746SOL     OW 2236   0.930   0.447   0.215  0.0218  0.6608  0.0289
  746SOL    HW1 2237   0.864   0.472   0.279  1.1329  0.3525  1.3411
  746SOL    HW2 2238   0.927   0.516   0.149 -1.9984  0.3402 -0.2638
  747SOL     OW 2239   0.707   3.525   3.549  0.5147  0.4286 -0.2492
  747SOL    HW1 2240   0.688   3.598   3.607  3.0915  0.2786  0.9505
  747SOL    HW2 2241   0.672   3.448   3.595  0.6047  0.5546  0.0312
  748SOL     OW 2242   1.527   1.316   3.818 -0.7425 -0.1084 -0.1991
  748SOL    HW1 2243   1.570   1.253   3.875 -0.6530 -0.9792 -1.2107
  748SOL    HW2 2244   1.597   1.373   3.787 -0.4041 -1.0249 -1.1983
  749SOL     OW 2245   3.137   3.068   3.697  0.1314 -0.1422  0.3915
  749SOL    HW1 2246   3.186   3.029   3.625 -0.3496 -0.0698  0.0134
  749SOL    HW2 2247   3.176   3.155   3.709  1.4011 -0.8205  1.4345
  750SOL     OW 2248   3.824   1.178   3.173 -0.0369 -0.6447  0.3624
  750SOL    HW1 2249   3.881   1.125   3.117  0.6335 -0.1070  0.5271
  750SOL    HW2 2250   3.880   1.249   3.204 -0.4952 -0.7321  1.4306
  751SOL     OW 2251   1.575   1.995   0.205 -0.0987 -0.2792  0.3792
  751SOL    HW1 2252   1.618   2.045   0.275  0.5509 -3.0574  2.0956
  751SOL    HW2 2253   1.533   1.922   0.250 -3.4587  0.1839 -1.6897
  752SOL     OW 2254   3.567   3.056   3.640  0.5391 -0.5435 -0.1913
  752SOL    HW1 2255   3.560   3.140   3.595 -0.6073 -0.4031  0.2362
  752SOL    HW2 2256   3.655   3.026   3.618  0.5127  0.1620 -1.3910
  753SOL     OW 2257   3.104   2.400   2.168 -0.7734 -0.1453 -0.1194
  753SOL    HW1 2258   3.028   2.352   2.134  0.3593 -0.4118 -2.4586
  753SOL    HW2 2259   3.164   2.331   2.198 -1.2226  0.0486  1.2805
  754SOL     OW 2260   0.010   1.560   1.604  0.1042 -0.0314  0.8838
  754SOL    HW1 2261   0.028   1.652   1.626  0.5828  0.6882 -2.0078
  754SOL    HW2 2262   0.092   1.529   1.566 -0.6629 -1.0150 -0.0258
  755SOL     OW 2263   3.700   0.905   1.620  0.3420 -0.3003 -0.2113
  755SOL    HW1 2264   3.779   0.869   1.579 -0.1489 -0.9396 -0.6179
  755SOL    HW2 2265   3.710   0.884   1.713  1.5208  1.2646  0.0556
  756SOL     OW 2266   0.833   0.978   2.731 -0.3452 -0.0695 -0.3024
  756SOL    HW1 2267   0.761   1.038   2.751 -1.0384 -1.1362  0.4572
  756SOL    HW2 2268   0.839   0.920   2.807 -1.5129 -2.7275 -2.0851
  757SOL     OW 2269   1.436   2.800   2.225  0.4748 -0.2067 -0.6098
  757SOL    HW1 2270   1.401   2.867   2.166  1.0468 -1.3506 -2.3256
  757SOL    HW2 2271   1.501   2.753   2.173 -0.4202 -2.5810  0.2440
  758SOL     OW 2272   0.998   1.113   3.108  0.1027 -0.0396  0.3708
  758SOL    HW1 2273   1.065   1.181   3.115 -1.4447  1.5656  0.2752
  758SOL    HW2 2274   0.949   1.119   3.190 -0.7850 -0.2217 -0.1316
  759SOL     OW 2275   0.931   1.356   2.995  0.1776  0.1129 -0.0612
  759SOL    HW1 2276   0.941   1.276   3.047 -1.1957  1.7973  3.1099
  759SOL    HW2 2277   0.854   1.340   2.940 -0.9018 -0.3492  1.5009
  760SOL     OW 2278   2.742   1.420   1.922  0.3541  0.2098 -0.5264
  760SOL    HW1 2279   2.748   1.457   2.010 -0.2916  0.5372 -0.6139
  760SOL    HW2 2280   2.831   1.425   1.888  0.4855  0.6709 -0.1266
  761SOL     OW 2281   0.398   2.382   2.201 -0.1434  0.8313  0.1937
  761SOL    HW1 2282   0.311   2.422   2.206 -0.9307 -0.0224 -3.5766
  761SOL    HW2 2283   0.381   2.288   2.190  1.3858  0.3210  1.8157
  762SOL     OW 2284   2.051   2.520   2.883  0.8089 -0.2092 -0.1208
  762SOL    HW1 2285   2.068   2.534   2.790  0.3231 -0.4773 -0.2552
  762SOL    HW2 2286   2.069   2.427   2.896  0.0047 -0.3749 -0.1477
  763SOL     OW 2287   3.485   3.662   3.462  0.5972 -0.1455  0.3140
  763SOL    HW1 2288   3.417   3.601   3.488 -0.5703  1.3303  0.9041
  763SOL    HW2 2289   3.492   3.651   3.367 -2.2728  1.3121 -0.1979
  764SOL     OW 2290   2.150   1.478   0.110  0.6566 -0.4942 -0.4163
  764SOL    HW1 2291   2.208   1.549   0.084  1.5170 -1.3141 -0.8074
  764SOL    HW2 2292   2.082   1.520   0.162  1.6691  0.4783  0.1537
  765SOL     OW 2293   1.043   2.620   3.798 -0.0863  0.5933 -0.1078
  765SOL    HW1 2294   1.056   2.543   3.743 -0.4018  0.1281  0.4527
  765SOL    HW2 2295   1.010   2.584   3.881 -0.6452  1.3628  0.0140
  766SOL     OW 2296   2.880   0.752   0.036  0.0563 -0.0980 -0.4598
  766SOL    HW1 2297   2.824   0.675   0.024  0.5005 -0.5127  0.0690
  766SOL    HW2 2298   2.898   0.755   0.130 -1.2950  1.6151 -0.2042
  767SOL     OW 2299   1.304   1.448   3.616  0.2106  0.5920 -0.0085
  767SOL    HW1 2300   1.252   1.381   3.660  2.1611 -0.6955  0.4517
  767SOL    HW2 2301   1.353   1.491   3.687 -0.2433  1.8435 -0.4187
  768SOL     OW 2302   3.188   3.333   1.591  0.0667  1.1952 -0.3709
  768SOL    HW1 2303   3.189   3.237   1.582 -0.5622  0.9704  1.5983
  768SOL    HW2 2304   3.248   3.351   1.663  0.0055  2.2890 -0.5778
  769SOL     OW 2305   0.172   3.737   1.583  0.2035 -0.1117  0.1103
  769SOL    HW1 2306   0.246   3.690   1.544 -0.2689  0.3964 -1.4893
  769SOL    HW2 2307   0.143   3.797   1.515 -1.6308 -0.2294  0.7159
  770SOL     OW 2308   0.683   1.913   1.388  0.2199  0.8057  0.3562
  770SOL    HW1 2309   0.606   1.871   1.349 -0.6691  2.1191  0.6052
  770SOL    HW2 2310   0.692   1.871   1.474  2.4128 -2.3658 -1.2436
  771SOL     OW 2311   1.302   1.145   3.986 -0.0280 -0.3463 -0.1125
  771SOL    HW1 2312   1.246   1.071   3.963 -0.6757 -0.6644  2.1756
  771SOL    HW2 2313   1.388   1.107   4.001  0.6800  0.0136 -2.7530
  772SOL     OW 2314   3.884   3.029   1.558  0.0791  0.3788 -0.1649
  772SOL    HW1 2315   3.927   3.079   1.627 -1.3852  1.0810  0.2915
  772SOL    HW2 2316   3.792   3.026   1.584 -0.1341 -1.3297 -0.9340
  773SOL     OW 2317   1.031   0.040   2.252 -0.2383 -0.1177 -0.4821
  773SOL    HW1 2318   1.003   0.018   2.163 -3.1383 -2.5364  0.8716
  773SOL    HW2 2319   0.956   0.085   2.290  0.8116  0.5082  0.9395
  774SOL     OW 2320   2.464   1.478   2.957 -1.2077  0.6693 -0.3852
  774SOL    HW1 2321   2.479   1.572   2.968 -1.7053  1.0051 -2.2007
  774SOL    HW2 2322   2.451   1.445   3.046  0.1969  2.0776  0.4019
  775SOL     OW 2323   3.988   2.053   2.044 -0.3274 -0.2612  1.0257
  775SOL    HW1 2324   3.928   2.077   2.114 -0.4150 -0.4723  1.0246
  775SOL    HW2 2325   3.970   2.117   1.975 -2.1925 -1.6497  0.1048
  776SOL     OW 2326   2.387   1.508   1.384 -0.5460 -0.2073  0.3203
  776SOL    HW1 2327   2.297   1.528   1.409 -0.4996  0.6932 -0.2238
  776SOL    HW2 2328   2.379   1.445   1.313 -0.7189 -0.7189  0.7789
  777SOL     OW 2329   2.295   0.818   0.208  0.0307 -0.4977 -0.7036
  777SOL    HW1 2330   2.299   0.897   0.154 -1.0425  0.1982  0.1826
  777SOL    HW2 2331   2.231   0.762   0.165 -0.5853 -0.0801 -0.3487
  778SOL     OW 2332   3.588   0.997   0.062  0.8963 -0.3970  0.2990
  778SOL    HW1 2333   3.527   1.058   0.020  0.8653 -1.6487 -1.6052
  778SOL    HW2 2334   3.621   1.045   0.138  2.5212  2.9342 -2.2421
  779SOL     OW 2335   2.089   2.242   0.266 -0.3306 -0.1535 -0.0673
  779SOL    HW1 2336   2.177   2.211   0.289 -0.3269 -0.4499 -0.4651
  779SOL    HW2 2337   2.080   2.221   0.173 -0.9496 -0.4314  0.0477
  780SOL     OW 2338   1.080   2.601   0.223  1.5591  0.3581 -0.4500
  780SOL    HW1 2339   1.140   2.648   0.166  1.8377 -3.0220 -3.2879
  780SOL    HW2 2340   0.994   2.609   0.180  1.3081 -0.3695 -0.0995
  781SOL     OW 2341   0.281   2.970   0.032  0.3143 -0.2555  0.0043
  781SOL    HW1 2342   0.346   3.005   0.093 -1.4721  0.0450  1.8397
  781SOL    HW2 2343   0.271   2.878   0.058 -2.1835  0.4543  1.8631
  782SOL     OW 2344   1.114   2.526   3.414 -0.4449  0.1262 -0.0069
  782SOL    HW1 2345   1.031   2.507   3.369 -2.0998  1.6090  2.1712
  782SOL    HW2 2346   1.106   2.617   3.441 -0.0783 -0.8460  3.9924
  783SOL     OW 2347   2.046   2.030   3.714  0.2403  0.0834  0.6221
  783SOL    HW1 2348   1.983   1.988   3.773 -0.2883 -1.5507 -1.0043
  783SOL    HW2 2349   2.097   1.957   3.679  0.6991  1.0377 -0.7461
  784SOL     OW 2350   2.536   3.148   3.563  0.4608 -0.1268  0.3470
  784SOL    HW1 2351   2.516   3.238   3.588 -2.9356 -1.1265  1.6749
  784SOL    HW2 2352   2.525   3.147   3.468  0.6785  0.8593  0.2939
  785SOL     OW 2353   1.574   3.855   3.048  0.0524 -0.1787  0.1050
  785SOL    HW1 2354   1.535   3.922   3.103  0.8792  1.3891 -1.1288
  785SOL    HW2 2355   1.536   3.870   2.961  0.0929 -1.4545 -0.1531
  786SOL     OW 2356   2.614   0.867   0.702 -0.4630  0.1199  0.6489
  786SOL    HW1 2357   2.681   0.825   0.757  1.5935  2.3464  0.0781
  786SOL    HW2 2358   2.536   0.871   0.758  1.1764  1.2067  3.0662
  787SOL     OW 2359   0.025   0.651   3.936 -0.0398 -0.1889 -0.9702
  787SOL    HW1 2360  -0.064   0.673   3.910  0.7235  1.7868 -2.1455
  787SOL    HW2 2361   0.078   0.664   3.857  1.4048 -0.6846 -0.1422
  788SOL     OW 2362   3.234   3.572   2.611  0.3437  0.2975 -0.6310
  788SOL    HW1 2363   3.276   3.486   2.614 -0.5454 -0.1184  0.4816
  788SOL    HW2 2364   3.278   3.623   2.679 -0.2830  0.1588 -0.1078
  789SOL     OW 2365   2.807   3.422   3.556  0.2095  0.6210  0.3804
  789SOL    HW1 2366   2.753   3.444   3.632  1.3076  2.6423  0.6510
  789SOL    HW2 2367   2.874   3.491   3.554  1.0335 -0.1727 -1.6217
  790SOL     OW 2368   0.280   0.998   2.877  0.0404  0.0425 -0.1622
  790SOL    HW1 2369   0.333   0.921   2.897  1.0645  0.5170 -0.9147
  790SOL    HW2 2370   0.249   0.984   2.788 -1.9412 -0.6612  0.5807
  791SOL     OW 2371   0.509   0.178   2.725  0.0527 -0.9502 -0.0510
  791SOL    HW1 2372   0.529   0.229   2.647 -2.4069  0.6515  0.2684
  791SOL    HW2 2373   0.558   0.220   2.795 -0.0670 -0.5380 -0.2143
  792SOL     OW 2374   2.907   0.954   0.929  0.3013 -0.0660  0.5323
  792SOL    HW1 2375   2.858   1.037   0.931 -1.2686 -0.9567  0.8000
  792SOL    HW2 2376   2.991   0.975   0.968  0.1970  1.5617 -0.0161
  793SOL     OW 2377   1.331   0.599   1.578 -0.9927 -0.1510  0.3498
  793SOL    HW1 2378   1.405   0.604   1.638  0.1743 -2.3633 -0.7761
  793SOL    HW2 2379   1.261   0.647   1.622  0.2440 -0.4057  2.7614
  794SOL     OW 2380   0.514   1.053   2.249  0.3631  0.1846  0.2778
  794SOL    HW1 2381   0.439   1.021   2.199  0.5726  0.1918 -0.0438
  794SOL    HW2 2382   0.477   1.117   2.310  0.4056  1.9605 -1.4754
  795SOL     OW 2383   0.436   3.716   0.761  0.2608 -0.0910 -0.2989
  795SOL    HW1 2384   0.528   3.727   0.738  0.9321  0.2233  2.2311
  795SOL    HW2 2385   0.405   3.805   0.779 -0.7283 -0.1323 -1.6739
  796SOL     OW 2386   3.653   0.593   2.856  0.0226  0.3171  0.0081
  796SOL    HW1 2387   3.609   0.672   2.824 -0.6704 -0.2724 -0.5405
  796SOL    HW2 2388   3.593   0.556   2.921  0.0062 -0.1171 -0.2425
  797SOL     OW 2389   0.124   0.218   3.461  0.1680  0.6886 -0.2772
  797SOL    HW1 2390   0.198   0.158   3.471  0.0205  0.4855 -0.4060
  797SOL    HW2 2391   0.048   0.162   3.451  0.0310  0.8958 -0.4153
  798SOL     OW 2392   0.675   0.410   2.628  0.0722 -0.0785 -0.3692
  798SOL    HW1 2393   0.734   0.485   2.627  0.1298 -0.1223 -0.3171
  798SOL    HW2 2394   0.721   0.345   2.682 -0.3436  0.1396  0.2617
  799SOL     OW 2395   2.593   1.427   1.152  0.0333  0.1145  0.6445
  799SOL    HW1 2396   2.578   1.361   1.220 -0.1611 -1.2143 -0.6467
  799SOL    HW2 2397   2.678   1.465   1.173  0.3329 -0.8331  1.1724
  800SOL     OW 2398   3.911   3.295   1.830  0.6269  0.2709  0.2709
  800SOL    HW1 2399   3.977   3.241   1.787 -1.2976 -2.0384  0.0151
  800SOL    HW2 2400   3.944   3.307   1.919  2.0068  0.3503 -0.2214
  801SOL     OW 2401   3.373   3.390   1.766 -0.9859 -0.1496 -0.4075
  801SOL    HW1 2402   3.455   3.373   1.720 -1.0635  0.6279 -0.8596
  801SOL    HW2 2403   3.369   3.486   1.772 -1.5989 -0.1988  0.0879
  802SOL     OW 2404   3.243   0.424   2.933 -0.2478 -0.2434  0.4105
  802SOL    HW1 2405   3.274   0.335   2.919  2.0103  0.7697 -1.7554
  802SOL    HW2 2406   3.260   0.442   3.025 -1.5006 -2.2380  1.1100
  803SOL     OW 2407   1.410   3.950   3.301  0.5162 -0.3609 -0.0383
  803SOL    HW1 2408   1.497   3.962   3.339  0.3689 -0.6073  0.3952
  803SOL    HW2 2409   1.361   4.027   3.329  0.3595 -0.6215  0.4305
  804SOL     OW 2410   1.866   3.204   2.683  0.2548  0.5215 -0.4116
  804SOL    HW1 2411   1.861   3.161   2.598 -0.6806  1.2620 -0.7421
  804SOL    HW2 2412   1.956   3.237   2.687  1.1150 -1.7128  0.0092
  805SOL     OW 2413   1.516   1.468   1.049  0.5486 -0.5468  0.7224
  805SOL    HW1 2414   1.428   1.506   1.052  0.3220 -0.6099 -2.2694
  805SOL    HW2 2415   1.505   1.381   1.090 -0.7974 -0.5630  0.4021
  806SOL     OW 2416   1.521   0.392   1.079  0.5255 -0.5008  0.5278
  806SOL    HW1 2417   1.590   0.333   1.107 -0.6569 -1.8116  0.7845
  806SOL    HW2 2418   1.515   0.380   0.985  1.5443  0.6411  0.2952
  807SOL     OW 2419   2.848   3.266   0.071  0.7213 -0.2682 -0.3126
  807SOL    HW1 2420   2.894   3.209   0.133  1.3203  0.8709  0.3151
  807SOL    HW2 2421   2.864   3.354   0.103 -0.9594  0.2300 -0.7435
  808SOL     OW 2422   2.960   1.924   2.466 -0.6403  0.2646  0.4236
  808SOL    HW1 2423   2.914   1.981   2.404  0.5053  2.9133  1.8665
  808SOL    HW2 2424   3.039   1.897   2.419 -0.8713  0.3894 -0.0432
  809SOL     OW 2425   2.785   0.133   2.976  0.4214 -0.7364  0.0854
  809SOL    HW1 2426   2.779   0.037   2.974 -0.4416 -0.7545 -3.2397
  809SOL    HW2 2427   2.696   0.163   2.961  1.0040  0.4898 -1.1494
  810SOL     OW 2428   2.333   2.607   3.243  0.7622  0.4783 -0.8407
  810SOL    HW1 2429   2.322   2.699   3.219  2.7467  0.9202 -0.2284
  810SOL    HW2 2430   2.246   2.568   3.230 -0.4200  2.6740  0.0094
  811SOL     OW 2431   1.676   2.908   0.827  0.1783 -0.2465  0.2460
  811SOL    HW1 2432   1.734   2.909   0.903  0.3211 -5.0508  0.4898
  811SOL    HW2 2433   1.732   2.929   0.753  0.6570  1.7139  1.1159
  812SOL     OW 2434   2.739   0.771   3.246 -0.2671  0.1938  0.4136
  812SOL    HW1 2435   2.655   0.727   3.259  0.5625 -1.5594  0.1220
  812SOL    HW2 2436   2.773   0.735   3.164 -0.4936  3.0268 -1.0766
  813SOL     OW 2437   2.480   0.342   0.396 -0.4043  0.3874 -0.9889
  813SOL    HW1 2438   2.546   0.324   0.329 -0.9912 -0.0228 -1.4578
  813SOL    HW2 2439   2.437   0.422   0.366 -2.2358 -1.0285 -2.3483
  814SOL     OW 2440   2.965   0.404   0.655  0.3562  0.3093 -0.1779
  814SOL    HW1 2441   2.980   0.480   0.712  0.7782 -0.5478  0.8859
  814SOL    HW2 2442   2.893   0.431   0.598 -0.8515  0.8337  1.4903
  815SOL     OW 2443   1.353   0.384   3.086  0.0571  0.3352 -0.4256
  815SOL    HW1 2444   1.364   0.391   2.991 -0.6787 -1.5255 -0.6942
  815SOL    HW2 2445   1.415   0.447   3.122  1.8861 -0.3930 -2.1052
  816SOL     OW 2446   2.360   1.274   1.205  0.1817  0.0927 -0.1049
  816SOL    HW1 2447   2.320   1.199   1.161 -0.3932  0.0948  0.3918
  816SOL    HW2 2448   2.424   1.236   1.265  0.4619  0.0486 -0.4326
  817SOL     OW 2449   2.893   2.859   1.389  0.2494  0.6734  0.3396
  817SOL    HW1 2450   2.846   2.777   1.391  1.0408  0.2150  0.8349
  817SOL    HW2 2451   2.930   2.868   1.477  1.7263  0.6178 -0.2460
  818SOL     OW 2452   1.296   2.276   2.032 -0.0850 -0.2252  0.2682
  818SOL    HW1 2453   1.252   2.305   2.112 -1.1610  0.9845 -0.7152
  818SOL    HW2 2454   1.362   2.343   2.015 -1.1223  0.5631 -0.8401
  819SOL     OW 2455   1.913   3.251   0.754  0.7985  0.2708  0.4801
  819SOL    HW1 2456   1.833   3.273   0.708  1.6503  0.4312 -0.9670
  819SOL    HW2 2457   1.969   3.328   0.745  1.3896 -0.0958  0.8734
  820SOL     OW 2458   4.013   0.692   3.248  0.7309  1.1538  0.0425
  820SOL    HW1 2459   4.002   0.619   3.309  2.1442  1.2574  0.4569
  820SOL    HW2 2460   3.950   0.674   3.178  0.0174  0.3249  0.8629
  821SOL     OW 2461   1.581   1.573   3.177  0.7173  0.2243 -0.7146
  821SOL    HW1 2462   1.583   1.478   3.164  0.7394  0.4319 -2.5866
  821SOL    HW2 2463   1.490   1.594   3.197  1.1562 -0.4310  2.4000
  822SOL     OW 2464   0.441   0.167   1.879  0.1515 -0.8196  0.3460
  822SOL    HW1 2465   0.382   0.170   1.804 -1.5525 -0.1252  1.6646
  822SOL    HW2 2466   0.417   0.087   1.927  0.3612 -0.5967  0.8391
  823SOL     OW 2467   2.460   1.788   2.995 -0.2264 -0.1885 -0.1431
  823SOL    HW1 2468   2.409   1.862   3.029 -0.9644 -0.5695 -0.4065
  823SOL    HW2 2469   2.537   1.784   3.053  0.2791  1.3170 -0.6557
  824SOL     OW 2470   3.521   3.338   3.566  0.3267 -0.2679  0.4432
  824SOL    HW1 2471   3.511   3.409   3.630  0.2604 -1.5012  1.8542
  824SOL    HW2 2472   3.611   3.348   3.534  0.0310  0.9836 -0.0765
  825SOL     OW 2473   3.854   0.149   1.348 -0.1020 -0.0751  0.3178
  825SOL    HW1 2474   3.906   0.114   1.276 -1.2166 -0.3204 -0.3956
  825SOL    HW2 2475   3.878   0.096   1.423 -0.1892 -0.9663 -0.2731
  826SOL     OW 2476   0.191   1.556   2.898  0.5334  0.7471  0.5325
  826SOL    HW1 2477   0.212   1.578   2.807  0.8918  0.9497  0.6614
  826SOL    HW2 2478   0.096   1.544   2.898  0.6228 -0.0672 -0.0368
  827SOL     OW 2479   0.267   2.113   0.553 -0.3610 -0.2987 -0.1420
  827SOL    HW1 2480   0.176   2.110   0.523 -1.2377 -0.4592  2.3314
  827SOL    HW2 2481   0.282   2.204   0.576  0.0941 -0.2942 -0.4353
  828SOL     OW 2482   1.004   0.512   2.643 -0.4758 -0.0299  0.1761
  828SOL    HW1 2483   1.075   0.485   2.585  0.0594  0.4799  0.5864
  828SOL    HW2 2484   0.974   0.595   2.607 -0.6811 -0.1067  0.1670
  829SOL     OW 2485   2.307   3.746   0.100  0.0088  0.2081 -0.1536
  829SOL    HW1 2486   2.323   3.778   0.011 -3.8124 -2.2062 -1.9657
  829SOL    HW2 2487   2.362   3.668   0.108  0.1639  0.2822 -0.4834
  830SOL     OW 2488   1.256   2.636   0.520 -0.5481 -0.4312 -0.1533
  830SOL    HW1 2489   1.232   2.705   0.458 -1.2592 -0.4409  0.0947
  830SOL    HW2 2490   1.276   2.561   0.465  1.0843  0.1988 -0.4662
  831SOL     OW 2491   3.888   1.312   2.446 -1.1809 -0.9227  0.6088
  831SOL    HW1 2492   3.924   1.263   2.372 -1.4619  0.5966 -0.5687
  831SOL    HW2 2493   3.878   1.401   2.413  4.3135  1.5410  4.1147
  832SOL     OW 2494   1.933   1.012   2.246  0.4846 -0.5708  0.5671
  832SOL    HW1 2495   1.870   1.084   2.243  0.6487 -0.4600 -0.5770
  832SOL    HW2 2496   1.879   0.934   2.260  0.2282 -0.3192  0.9835
  833SOL     OW 2497   0.563   2.788   1.559 -0.3362  0.3892 -0.4998
  833SOL    HW1 2498   0.502   2.732   1.608  0.4267 -0.7828 -0.8497
  833SOL    HW2 2499   0.543   2.772   1.467 -0.0720  0.6575 -0.6062
  834SOL     OW 2500   2.324   4.010   3.540 -0.4378  0.1581 -0.4723
  834SOL    HW1 2501   2.322   3.947   3.612  1.0840  0.2467 -0.3287
  834SOL    HW2 2502   2.348   3.958   3.464 -2.5030 -0.0221 -1.0502
  835SOL     OW 2503   1.355   1.049   2.528  0.6654 -0.2844  0.3699
  835SOL    HW1 2504   1.335   1.060   2.621 -2.1773 -0.7033 -0.1032
  835SOL    HW2 2505   1.289   0.989   2.496  1.3703  0.1033 -2.0166
  836SOL     OW 2506   1.819   3.373   2.065  0.3124 -0.1209  0.4904
  836SOL    HW1 2507   1.912   3.384   2.085  0.6951  0.9261 -1.5087
  836SOL    HW2 2508   1.774   3.396   2.146  1.7596  1.1530  0.9947
  837SOL     OW 2509   2.322   1.079   0.119  0.0536  0.6087 -0.0961
  837SOL    HW1 2510   2.356   1.049   0.034  1.6281  0.5991  0.4915
  837SOL    HW2 2511   2.374   1.157   0.139 -0.7393  0.9750  0.5830
  838SOL     OW 2512   1.862   3.160   2.391 -1.1811 -1.0949 -0.5938
  838SOL    HW1 2513   1.956   3.149   2.399 -0.8322  1.6549 -0.1440
  838SOL    HW2 2514   1.836   3.096   2.325  1.1366 -1.2326 -1.4518
  839SOL     OW 2515   0.351   2.981   0.723  0.2714 -0.0183  0.4449
  839SOL    HW1 2516   0.256   2.981   0.714  0.3776  1.7339 -1.6226
  839SOL    HW2 2517   0.367   3.004   0.815 -1.2837 -0.1940  0.7780
  840SOL     OW 2518  -0.031   3.279   3.261 -0.2133 -0.4458  0.2845
  840SOL    HW1 2519   0.005   3.290   3.173 -0.7805 -0.1609  0.0847
  840SOL    HW2 2520   0.046   3.267   3.317  0.1289 -1.0127 -0.3008
  841SOL     OW 2521   2.777   2.024   2.304  0.1023  0.6139 -0.1660
  841SOL    HW1 2522   2.753   2.116   2.308 -0.8831  0.3533  0.4258
  841SOL    HW2 2523   2.816   2.013   2.217 -0.4289  1.4447 -0.5244
  842SOL     OW 2524   3.451   2.688   4.005  0.4914  0.4171 -0.0121
  842SOL    HW1 2525   3.487   2.759   3.952  0.7241 -0.2958 -0.8132
  842SOL    HW2 2526   3.510   2.614   3.990 -0.5469 -0.3677 -0.2940
  843SOL     OW 2527   1.807   0.947   3.713  0.3934  0.7988  0.0186
  843SOL    HW1 2528   1.761   0.903   3.785 -1.0860 -0.3159 -1.5473
  843SOL    HW2 2529   1.820   1.037   3.745 -1.6062  0.7688  1.0906
  844SOL     OW 2530   0.999   1.055   0.835  0.0198  0.2559  0.0848
  844SOL    HW1 2531   1.066   1.081   0.772 -0.2823  0.4855 -0.1445
  844SOL    HW2 2532   1.041   1.063   0.920  0.7114 -0.8767 -0.1229
  845SOL     OW 2533   0.662   3.756   0.407 -0.2828 -1.0361 -0.1018
  845SOL    HW1 2534   0.653   3.778   0.500 -0.1932 -1.4731  0.0113
  845SOL    HW2 2535   0.675   3.840   0.364 -0.8185 -0.7805  0.2250
  846SOL     OW 2536   2.255   2.882   1.801 -0.0459  0.3937  0.4903
  846SOL    HW1 2537   2.256   2.889   1.706 -2.2267  0.2862  0.4161
  846SOL    HW2 2538   2.233   2.970   1.831  0.4673  0.3865  0.9085
  847SOL     OW 2539   0.738   2.745   1.842  0.0501  0.5501  0.1126
  847SOL    HW1 2540   0.821   2.764   1.799 -0.8312  1.7992 -1.1630
  847SOL    HW2 2541   0.729   2.650   1.837  1.9483  0.2346  1.4371
  848SOL     OW 2542   0.101   2.833   0.516  0.3399 -0.4805 -0.5538
  848SOL    HW1 2543   0.066   2.880   0.592  0.2969  1.1398 -1.5212
  848SOL    HW2 2544   0.043   2.858   0.445  0.6758 -1.5825 -1.2357
  849SOL     OW 2545   3.911   0.819   1.805  0.8113 -0.0748  0.4860
  849SOL    HW1 2546   3.916   0.914   1.818  0.8334  0.0310 -0.2289
  849SOL    HW2 2547   3.831   0.793   1.851  1.6912  0.0110  2.1546
  850SOL     OW 2548   1.931   2.813   1.199 -1.2025  0.1121  0.1459
  850SOL    HW1 2549   1.912   2.860   1.280  1.2014  1.6521 -0.1165
  850SOL    HW2 2550   1.957   2.880   1.136 -1.5556 -1.1932 -1.4898
  851SOL     OW 2551   0.492   2.299   0.084 -0.7222 -0.0048 -0.5187
  851SOL    HW1 2552   0.470   2.257   0.168  0.2375  1.3951  0.4811
  851SOL    HW2 2553   0.465   2.390   0.096  2.9462  1.1996 -0.1805
  852SOL     OW 2554   3.768   2.824   1.394  0.0836 -0.4205  0.1546
  852SOL    HW1 2555   3.685   2.846   1.352 -1.1743 -1.7675  1.7794
  852SOL    HW2 2556   3.792   2.903   1.442  1.4523  1.0753 -2.7712
  853SOL     OW 2557   1.574   2.115   2.831  0.4266  0.4509  0.0361
  853SOL    HW1 2558   1.485   2.081   2.844  0.4733  1.0627  2.4194
  853SOL    HW2 2559   1.631   2.043   2.858  0.6078  0.7466  0.4448
  854SOL     OW 2560   0.565   3.023   2.782  0.2345  0.5000  0.5747
  854SOL    HW1 2561   0.650   3.003   2.742  0.8220  2.8570  0.4999
  854SOL    HW2 2562   0.584   3.094   2.843 -1.5888  0.5501  1.1352
  855SOL     OW 2563   0.938   1.395   3.599 -0.4968  0.0961  0.5598
  855SOL    HW1 2564   0.872   1.405   3.668 -0.9993 -2.0129  0.4396
  855SOL    HW2 2565   0.974   1.308   3.613 -0.9199 -0.5733 -2.0955
  856SOL     OW 2566   1.080   0.244   1.407 -0.4607 -0.0230 -0.0912
  856SOL    HW1 2567   1.105   0.165   1.360  2.2111  2.1319 -2.6694
  856SOL    HW2 2568   1.142   0.249   1.480 -0.3653 -0.1274 -0.1648
  857SOL     OW 2569   0.542   2.413   0.649  0.2825  0.0118 -0.2945
  857SOL    HW1 2570   0.527   2.353   0.576  1.9983 -0.2594 -0.4815
  857SOL    HW2 2571   0.576   2.357   0.719 -1.8254  0.1812  0.9578
  858SOL     OW 2572   1.520   0.194   2.007 -0.1180  0.2991 -0.0908
  858SOL    HW1 2573   1.563   0.110   2.024  1.5293  0.7301 -1.6845
  858SOL    HW2 2574   1.533   0.245   2.087 -2.0217 -1.2297  1.2871
  859SOL     OW 2575   3.993   1.131   3.632  0.1990  0.1709 -0.3728
  859SOL    HW1 2576   3.900   1.132   3.610  0.2584  1.4881 -0.6573
  859SOL    HW2 2577   4.013   1.222   3.652  1.4254 -0.1079 -0.2878
  860SOL     OW 2578   3.841   0.644   3.546 -0.0637  0.3327  0.3736
  860SOL    HW1 2579   3.863   0.577   3.610  2.5234  1.7906  1.1294
  860SOL    HW2 2580   3.923   0.663   3.501 -1.2330  1.3326 -1.4673
  861SOL     OW 2581   3.920   2.879   0.332  0.6376 -0.5411 -0.8170
  861SOL    HW1 2582   3.908   2.865   0.238  1.3289 -0.9469 -0.8493
  861SOL    HW2 2583   3.856   2.946   0.354  0.4272 -0.4821 -1.5664
  862SOL     OW 2584   0.409   1.226   2.783 -0.7126  0.1449 -0.1715
  862SOL    HW1 2585   0.415   1.256   2.873  1.1685  0.2305 -0.2870
  862SOL    HW2 2586   0.343   1.157   2.785 -0.7392  0.1899  1.2498
  863SOL     OW 2587   0.178   0.737   1.706 -0.7083  0.0325 -0.8030
  863SOL    HW1 2588   0.129   0.809   1.748 -0.5464  0.5734 -1.5233
  863SOL    HW2 2589   0.127   0.659   1.728 -0.3908  0.2250  0.7697
  864SOL     OW 2590   0.666   1.328   0.957  0.4816 -0.3511  0.4212
  864SOL    HW1 2591   0.729   1.360   1.021  0.7638  1.1731 -0.5513
  864SOL    HW2 2592   0.715   1.263   0.906  1.3890  0.9479 -0.4459
  865SOL     OW 2593   1.703   3.662   0.513 -0.0244  0.0545 -0.1149
  865SOL    HW1 2594   1.623   3.707   0.485  0.0673  1.7178  2.0026
  865SOL    HW2 2595   1.771   3.695   0.454 -0.1304  2.1404  0.8462
  866SOL     OW 2596   0.113   3.572   2.249 -0.9096 -0.5042 -0.1699
  866SOL    HW1 2597   0.160   3.598   2.328 -2.0016  0.0904  0.3087
  866SOL    HW2 2598   0.020   3.577   2.273 -1.2461 -1.2323 -1.2067
  867SOL     OW 2599   2.321   2.940   2.820  0.1154  0.1343 -0.0414
  867SOL    HW1 2600   2.238   2.937   2.772 -0.6620 -2.0838  1.2674
  867SOL    HW2 2601   2.382   2.890   2.765  0.0991  0.3046 -0.2125
  868SOL     OW 2602   3.000   2.384   1.858 -0.5310  0.1639  0.5171
  868SOL    HW1 2603   3.022   2.439   1.783  0.1434  2.5652  2.3569
  868SOL    HW2 2604   3.085   2.358   1.894 -0.8446 -0.5733  0.7464
  869SOL     OW 2605   2.764   1.114   3.470 -0.4944  0.6829 -0.0181
  869SOL    HW1 2606   2.758   1.073   3.556 -3.5250  1.0734  0.0319
  869SOL    HW2 2607   2.851   1.089   3.438  0.0028 -0.9568  2.3776
  870SOL     OW 2608   1.141   1.467   2.310 -0.0836  0.6655 -0.1441
  870SOL    HW1 2609   1.094   1.424   2.382  0.8286  0.5413  0.3983
  870SOL    HW2 2610   1.219   1.413   2.297 -0.3332  0.5701 -1.3844
  871SOL     OW 2611   3.647   0.832   3.672  0.4711 -0.2760 -0.0935
  871SOL    HW1 2612   3.706   0.790   3.610  1.0001  1.3127 -0.7274
  871SOL    HW2 2613   3.560   0.797   3.651  0.9400 -1.3233 -0.3125
  872SOL     OW 2614   1.003   0.754   3.147  0.0270  0.1871 -0.0758
  872SOL    HW1 2615   1.022   0.719   3.234 -1.5741  0.3155  0.3558
  872SOL    HW2 2616   1.080   0.732   3.095  0.5940 -0.7606  1.1206
  873SOL     OW 2617   3.843   2.217   2.300  0.2349  0.2723  0.2339
  873SOL    HW1 2618   3.925   2.265   2.290  0.6163 -0.8081 -2.6234
  873SOL    HW2 2619   3.782   2.282   2.335  1.4482  2.0537 -0.7937
  874SOL     OW 2620   2.141   1.929   1.261  0.4786  0.3539 -0.7344
  874SOL    HW1 2621   2.127   1.874   1.183 -2.6900  0.4100 -0.3529
  874SOL    HW2 2622   2.077   2.000   1.251 -0.8580 -0.2354  2.3769
  875SOL     OW 2623   1.533   0.594   3.171  0.4681 -0.5419 -0.8554
  875SOL    HW1 2624   1.565   0.537   3.241 -0.1682 -0.4650 -0.4877
  875SOL    HW2 2625   1.612   0.622   3.125  1.0268  0.2938  0.5227
  876SOL     OW 2626   3.869   0.403   1.432 -0.1040 -0.9369 -0.4120
  876SOL    HW1 2627   3.862   0.317   1.390  0.2241 -1.2875  0.2476
  876SOL    HW2 2628   3.830   0.392   1.518 -0.6048 -0.2594 -0.5345
  877SOL     OW 2629   3.207   0.096   2.036  0.1508 -0.3368  0.1246
  877SOL    HW1 2630   3.143   0.162   2.006  1.1163  0.3213 -0.5434
  877SOL    HW2 2631   3.281   0.148   2.067 -0.2449 -1.0398  2.4544
  878SOL     OW 2632   3.172   1.835   2.337  0.2251  0.1051  0.3183
  878SOL    HW1 2633   3.152   1.793   2.253 -2.0952  1.2441  0.2111
  878SOL    HW2 2634   3.227   1.772   2.383 -0.2263 -1.4892 -1.2040
  879SOL     OW 2635   1.292   3.674   0.682  0.9405 -0.1395  0.7904
  879SOL    HW1 2636   1.381   3.661   0.715  1.5324  1.1450 -0.1989
  879SOL    HW2 2637   1.241   3.698   0.759  0.8320 -3.3094  1.8265
  880SOL     OW 2638   0.685   0.281   3.720 -0.3057 -0.5731  0.6719
  880SOL    HW1 2639   0.664   0.211   3.659 -0.3875 -0.8153  0.9782
  880SOL    HW2 2640   0.602   0.327   3.734 -0.6759 -1.5694  1.9324
  881SOL     OW 2641   0.725   3.744   1.000  0.4403 -0.0970 -0.2246
  881SOL    HW1 2642   0.712   3.672   0.938 -2.3910  0.0702  0.0453
  881SOL    HW2 2643   0.737   3.821   0.944 -0.5951 -0.1854 -0.6026
  882SOL     OW 2644   3.421   3.154   0.938  0.3331 -0.0876  0.5222
  882SOL    HW1 2645   3.434   3.245   0.911 -3.7756  0.5799  0.1953
  882SOL    HW2 2646   3.355   3.159   1.007 -0.3613 -2.8268  0.1616
  883SOL     OW 2647   3.006   0.540   3.245 -0.1893  0.6275 -0.5970
  883SOL    HW1 2648   2.922   0.585   3.259 -1.5256 -1.7236 -0.4886
  883SOL    HW2 2649   3.004   0.513   3.153 -0.0453 -0.3253 -0.3356
  884SOL     OW 2650   1.343   2.391   0.369  0.3879  0.5581 -0.5871
  884SOL    HW1 2651   1.430   2.361   0.395  0.6309  1.0396 -0.8374
  884SOL    HW2 2652   1.303   2.314   0.328  1.5411  0.9195 -2.5629
  885SOL     OW 2653   2.759   2.308   1.604 -0.2191  0.5846 -0.4618
  885SOL    HW1 2654   2.836   2.286   1.552  0.1030  1.2679 -0.2795
  885SOL    HW2 2655   2.788   2.296   1.695  0.4118  3.0773 -0.2794
  886SOL     OW 2656   1.291   1.255   2.188 -0.4864 -0.4912 -0.1374
  886SOL    HW1 2657   1.212   1.228   2.141 -0.0425 -1.2813 -0.4557
  886SOL    HW2 2658   1.323   1.174   2.228 -0.4855  0.0423  0.9873
  887SOL     OW 2659   2.029   1.743   2.456  0.6459 -0.4535 -0.6521
  887SOL    HW1 2660   2.071   1.752   2.542  1.3684 -0.3966 -1.0094
  887SOL    HW2 2661   1.936   1.731   2.477  0.8000 -0.3554  0.1359
  888SOL     OW 2662   3.357   1.735   3.407  0.0902  0.2617  0.4015
  888SOL    HW1 2663   3.276   1.785   3.401  0.2011  0.3451 -0.5430
  888SOL    HW2 2664   3.402   1.753   3.325  1.2467  0.5112  1.0805
  889SOL     OW 2665   0.481   3.434   0.004 -0.2440  0.7736 -0.0938
  889SOL    HW1 2666   0.572   3.434   0.035 -0.4507  1.2176  0.5260
  889SOL    HW2 2667   0.444   3.516   0.037 -0.4670  1.2952 -1.5532
  890SOL     OW 2668   3.754   2.964   0.084  0.3750  0.0708 -0.3353
  890SOL    HW1 2669   3.805   2.930   0.011  2.4868  1.5180  0.3758
  890SOL    HW2 2670   3.770   3.059   0.083 -1.3386  0.4242  0.6880
  891SOL     OW 2671   0.911   0.206   0.564  0.2816 -0.3437  0.3307
  891SOL    HW1 2672   0.833   0.214   0.619  0.2693 -0.3252  0.3108
  891SOL    HW2 2673   0.983   0.234   0.620  0.1879  0.3314  0.1294
  892SOL     OW 2674   2.829   3.096   3.824 -0.4177 -0.2927 -0.0924
  892SOL    HW1 2675   2.749   3.142   3.848 -0.6557 -0.5834 -0.3062
  892SOL    HW2 2676   2.898   3.140   3.873 -0.7470 -0.2159  0.3105
  893SOL     OW 2677   3.532   1.105   2.784 -0.8685  0.4261 -0.4932
  893SOL    HW1 2678   3.474   1.146   2.719  0.1141  0.6071 -1.2689
  893SOL    HW2 2679   3.595   1.174   2.807  0.7058 -0.5546 -1.6872
  894SOL     OW 2680   0.639   3.714   3.064  0.4120 -0.6195  0.1343
  894SOL    HW1 2681   0.555   3.717   3.110 -0.3305  1.6149 -1.2449
  894SOL    HW2 2682   0.703   3.737   3.132  0.1356 -3.3009  1.4481
  895SOL     OW 2683   2.996   1.996   3.470 -0.4188 -0.2486 -0.0163
  895SOL    HW1 2684   2.932   2.063   3.494  1.8357  1.8294  0.6396
  895SOL    HW2 2685   2.981   1.980   3.377 -0.1849  2.2685 -0.5602
  896SOL     OW 2686   2.599   1.746   1.402 -0.2117 -0.6544  0.0987
  896SOL    HW1 2687   2.530   1.690   1.367 -1.4813  1.0779 -0.3218
  896SOL    HW2 2688   2.675   1.727   1.347 -1.0929 -0.7434 -1.1232
  897SOL     OW 2689   1.895   0.578   3.048 -0.2588  0.2804  0.2377
  897SOL    HW1 2690   1.955   0.638   3.003 -0.6041 -0.3358 -1.0951
  897SOL    HW2 2691   1.876   0.621   3.131  1.1529  1.0143  0.2116
  898SOL     OW 2692   3.970   0.234   1.818  0.1946 -0.5494  0.3013
  898SOL    HW1 2693   3.917   0.160   1.849 -1.2129 -1.0874 -3.0066
  898SOL    HW2 2694   3.918   0.311   1.841 -2.2328 -1.0628 -2.7800
  899SOL     OW 2695   1.763   1.498   3.781  0.0844  0.7277 -0.1136
  899SOL    HW1 2696   1.775   1.483   3.875  0.0805 -0.7843 -0.3335
  899SOL    HW2 2697   1.720   1.584   3.776  2.7137  2.2253  1.0872
  900SOL     OW 2698   1.868   2.022   2.728  0.0559  0.1578  0.0934
  900SOL    HW1 2699   1.806   2.069   2.672  1.4015  1.2343 -0.5595
  900SOL    HW2 2700   1.859   2.063   2.814  0.4797  0.9267 -0.2192
  901SOL     OW 2701   2.006   1.541   2.788 -0.0066  0.3347 -0.4737
  901SOL    HW1 2702   1.996   1.514   2.880  1.5530 -2.2080 -0.9587
  901SOL    HW2 2703   1.953   1.479   2.739  0.7361  0.4475 -1.4325
  902SOL     OW 2704   1.992   0.813   1.609  1.0562 -0.2211 -0.2784
  902SOL    HW1 2705   1.995   0.725   1.572 -2.2641 -0.6872  0.2454
  902SOL    HW2 2706   2.020   0.871   1.537  1.9313 -1.5761 -1.0631
  903SOL     OW 2707   0.730   1.185   0.687  0.4649 -0.0235 -0.0297
  903SOL    HW1 2708   0.787   1.164   0.613  1.0306 -1.5206  0.7702
  903SOL    HW2 2709   0.692   1.270   0.666  0.3513 -0.5624 -2.1738
  904SOL     OW 2710   0.627   1.829   3.536 -0.0673  0.1519 -0.1673
  904SOL    HW1 2711   0.639   1.919   3.506 -0.7922  0.4260  0.3625
  904SOL    HW2 2712   0.717   1.795   3.546  0.2011  0.6944 -0.7047
  905SOL     OW 2713   0.121   3.137   1.734  0.1128  0.5256  0.5979
  905SOL    HW1 2714   0.142   3.082   1.809 -0.2987 -0.3595  0.0778
  905SOL    HW2 2715   0.203   3.141   1.684  0.3485  1.0018  1.0138
  906SOL     OW 2716   0.639   3.543   1.534 -0.6489 -0.2853 -0.0483
  906SOL    HW1 2717   0.668   3.560   1.445 -2.0503 -0.6077 -0.5979
  906SOL    HW2 2718   0.654   3.450   1.547 -0.3412 -0.2166  0.1025
  907SOL     OW 2719   3.751   0.659   0.671  0.6050 -0.6264 -0.6620
  907SOL    HW1 2720   3.821   0.657   0.737  0.2919 -1.8635 -0.3322
  907SOL    HW2 2721   3.786   0.608   0.598  0.3585 -0.5759 -0.8158
  908SOL     OW 2722   0.224   0.148   0.003  0.0674  0.3046 -0.3033
  908SOL    HW1 2723   0.146   0.093   0.002 -0.3143  0.8294 -1.4209
  908SOL    HW2 2724   0.201   0.221   0.061 -1.4167  1.9539 -2.7524
  909SOL     OW 2725   1.976   1.037   3.947  0.4224  0.2041  0.3911
  909SOL    HW1 2726   2.013   1.105   4.004  0.4897 -0.6121  1.3635
  909SOL    HW2 2727   1.925   0.982   4.007 -0.4837 -0.0164 -0.5516
  910SOL     OW 2728   3.753   0.582   3.960 -0.1007 -0.4202  0.4900
  910SOL    HW1 2729   3.701   0.662   3.971  0.1339 -0.2168  0.1510
  910SOL    HW2 2730   3.722   0.524   4.029 -1.1497 -0.5014 -0.0162
  911SOL     OW 2731   2.273   3.026   3.530  0.8057  0.3458  0.1604
  911SOL    HW1 2732   2.199   2.986   3.575  2.1045 -0.4460  1.7049
  911SOL    HW2 2733   2.311   3.086   3.595  0.6216  1.9425 -1.1286
  912SOL     OW 2734   2.684   3.216   0.659 -0.3940  0.2691 -0.2498
  912SOL    HW1 2735   2.659   3.197   0.750  4.5913 -1.3355  1.1074
  912SOL    HW2 2736   2.666   3.135   0.612  1.2361 -0.5921  0.5165
  913SOL     OW 2737   2.025   1.322   3.923 -0.2840  0.5825  0.4186
  913SOL    HW1 2738   2.109   1.311   3.877  0.1113  0.8334  1.0605
  913SOL    HW2 2739   2.040   1.397   3.981 -0.7881  0.2976  0.9183
  914SOL     OW 2740   0.637   1.290   1.813 -0.6645 -0.4807  0.4480
  914SOL    HW1 2741   0.705   1.313   1.749 -0.9106  1.4523  0.8151
  914SOL    HW2 2742   0.661   1.339   1.892 -0.7273 -2.3088  1.6588
  915SOL     OW 2743   3.622   1.458   0.366  0.1045  0.3773  0.3909
  915SOL    HW1 2744   3.563   1.384   0.381  2.6472 -1.7854  0.4036
  915SOL    HW2 2745   3.618   1.473   0.271  1.4687 -1.6140 -0.0573
  916SOL     OW 2746   3.479   2.586   1.888  0.0082  0.5638 -0.3256
  916SOL    HW1 2747   3.518   2.500   1.871 -1.0154  0.0927 -0.4161
  916SOL    HW2 2748   3.465   2.589   1.982 -3.2189 -0.9084 -0.6351
  917SOL     OW 2749   2.453   0.531   2.451 -0.3353  0.6204 -0.0830
  917SOL    HW1 2750   2.521   0.499   2.510 -0.8650 -0.5514 -0.0793
  917SOL    HW2 2751   2.430   0.617   2.486 -1.6232 -0.5957  2.3320
  918SOL     OW 2752   0.911   0.818   0.710 -0.4226  0.2589  0.0239
  918SOL    HW1 2753   0.990   0.765   0.706  0.0336  1.0261 -1.6569
  918SOL    HW2 2754   0.935   0.894   0.762 -0.4983 -0.1895  0.7327
  919SOL     OW 2755   1.354   0.971   2.220 -0.6234 -0.1208  0.3978
  919SOL    HW1 2756   1.260   0.981   2.239 -0.2038  1.2742  2.0273
  919SOL    HW2 2757   1.380   0.894   2.271 -1.0145 -0.9852 -0.6785
  920SOL     OW 2758   0.641   2.909   0.099 -0.3151 -0.2162 -0.2442
  920SOL    HW1 2759   0.718   2.965   0.089  0.2645 -0.5032  1.9411
  920SOL    HW2 2760   0.620   2.915   0.192  0.1693 -4.0626  0.2792
  921SOL     OW 2761   3.819   3.782   0.229  0.0047 -0.2158 -0.5250
  921SOL    HW1 2762   3.873   3.728   0.287 -0.2360 -0.7557 -0.8019
  921SOL    HW2 2763   3.854   3.871   0.240  0.3675 -0.4167 -0.0286
  922SOL     OW 2764   0.255   1.996   1.944  0.3433 -0.6935  0.5482
  922SOL    HW1 2765   0.170   1.965   1.976  1.0885 -1.5587  1.7763
  922SOL    HW2 2766   0.279   2.066   2.004 -0.9479  1.8766 -1.7272
  923SOL     OW 2767   1.746   1.114   3.086 -0.2215 -0.6142 -0.6558
  923SOL    HW1 2768   1.714   1.097   3.174 -0.8466  0.5778 -0.6315
  923SOL    HW2 2769   1.812   1.046   3.070 -1.1754 -1.7587  0.1480
  924SOL     OW 2770   3.652   3.341   1.663  0.0255 -0.1794 -0.2248
  924SOL    HW1 2771   3.701   3.358   1.582 -0.2465 -0.9875 -0.5659
  924SOL    HW2 2772   3.677   3.252   1.688  0.8945  0.4224  1.1599
  925SOL     OW 2773   0.783   1.340   1.337  0.2288  0.0143  0.0562
  925SOL    HW1 2774   0.772   1.435   1.334 -0.9098 -0.0938  0.3546
  925SOL    HW2 2775   0.825   1.317   1.254  0.7106  0.7978  0.0813
  926SOL     OW 2776   3.690   0.721   0.231  0.8312 -0.2680  0.4428
  926SOL    HW1 2777   3.596   0.724   0.244  0.4869 -2.5669 -1.0635
  926SOL    HW2 2778   3.718   0.812   0.242 -1.4102  0.3406  1.6940
  927SOL     OW 2779   3.568   3.744   0.919  0.0564  0.5320 -0.0068
  927SOL    HW1 2780   3.640   3.682   0.912 -0.1424  0.4468 -1.4373
  927SOL    HW2 2781   3.598   3.808   0.984  1.1362  0.1328 -0.1024
  928SOL     OW 2782   2.895   2.217   2.096  0.0315  0.2757 -0.4276
  928SOL    HW1 2783   2.925   2.137   2.054 -0.6436 -1.2215  1.7318
  928SOL    HW2 2784   2.830   2.254   2.037  0.7636 -0.4488 -1.7135
  929SOL     OW 2785   1.641   3.245   3.159  0.4144  0.5289  0.9191
  929SOL    HW1 2786   1.548   3.222   3.153  0.0446  1.3115  2.9131
  929SOL    HW2 2787   1.642   3.337   3.186  1.7654  0.5544  0.8605
  930SOL     OW 2788   2.116   1.112   1.574  0.5210 -0.5950 -0.2373
  930SOL    HW1 2789   2.211   1.126   1.578  0.2236  2.1793 -0.8336
  930SOL    HW2 2790   2.106   1.036   1.516  2.3770 -2.2800  1.4671
  931SOL     OW 2791   1.793   2.350   3.722 -0.0292  1.1891  0.1402
  931SOL    HW1 2792   1.825   2.290   3.789  3.9658 -0.3421 -2.7208
  931SOL    HW2 2793   1.843   2.431   3.736 -0.7285  1.6017  0.2609
  932SOL     OW 2794   2.766   1.965   0.192  0.0476 -0.1991  0.2686
  932SOL    HW1 2795   2.770   1.981   0.286 -1.9578 -3.0213  0.9429
  932SOL    HW2 2796   2.777   2.052   0.152 -2.4300  1.6220  3.1808
  933SOL     OW 2797   2.254   3.081   2.175 -0.3841 -0.2639  0.0357
  933SOL    HW1 2798   2.269   2.995   2.137 -1.8001  0.0824 -1.4692
  933SOL    HW2 2799   2.158   3.089   2.177 -0.2981  0.6062  1.7358
  934SOL     OW 2800   3.391   0.271   3.500 -0.6357  0.6992 -0.3303
  934SOL    HW1 2801   3.333   0.277   3.424  0.4104  2.1628 -1.0659
  934SOL    HW2 2802   3.479   0.279   3.464 -0.0746  0.5535  0.9493
  935SOL     OW 2803   0.238   3.209   3.565  0.3317 -0.6530 -0.6506
  935SOL    HW1 2804   0.262   3.167   3.648 -0.5655 -1.2448 -0.6744
  935SOL    HW2 2805   0.245   3.140   3.500  1.4044 -0.0944 -1.1532
  936SOL     OW 2806   2.636   2.985   2.854 -0.6694  0.1460 -0.6201
  936SOL    HW1 2807   2.631   2.903   2.904 -0.7902 -0.1025 -1.0379
  936SOL    HW2 2808   2.723   2.984   2.815 -0.3507  0.6226  0.0607
  937SOL     OW 2809   3.587   3.878   2.418  0.5627 -0.4429  0.5229
  937SOL    HW1 2810   3.589   3.910   2.508 -2.0696  1.8501 -0.1013
  937SOL    HW2 2811   3.633   3.946   2.368 -0.1946 -0.4109 -0.1502
  938SOL     OW 2812   2.621   3.361   3.906 -0.0642 -0.4829  0.0760
  938SOL    HW1 2813   2.704   3.363   3.955  0.8115  1.2662 -1.3709
  938SOL    HW2 2814   2.567   3.298   3.953  2.2326 -1.9973  0.8352
  939SOL     OW 2815   0.053   2.533   0.194 -0.0412 -0.6787  0.1651
  939SOL    HW1 2816   0.058   2.617   0.148 -1.7636 -0.1498  0.8653
  939SOL    HW2 2817   0.143   2.515   0.220  1.0150 -1.0036 -3.3261
  940SOL     OW 2818   1.090   4.007   0.188  0.2289 -0.1416 -0.0624
  940SOL    HW1 2819   1.067   3.940   0.253 -0.3739  1.3029  1.3024
  940SOL    HW2 2820   1.181   4.029   0.208 -0.1644  0.7869  0.7865
  941SOL     OW 2821   1.039   1.284   0.166  0.1836  0.5933 -0.4319
  941SOL    HW1 2822   1.114   1.333   0.200 -0.1093 -0.9499  2.8539
  941SOL    HW2 2823   1.058   1.193   0.189 -2.4727  0.0999  0.1237
  942SOL     OW 2824   1.421   3.171   0.187  0.0451 -0.5441 -0.0681
  942SOL    HW1 2825   1.376   3.201   0.108  0.7380 -1.2061 -0.7386
  942SOL    HW2 2826   1.354   3.173   0.255  0.0055  2.3626 -0.0680
  943SOL     OW 2827   2.077   0.895   3.736  0.9730 -0.4489  0.2062
  943SOL    HW1 2828   2.093   0.944   3.817  2.0959 -1.1248  0.4130
  943SOL    HW2 2829   1.981   0.893   3.728  0.8646  0.2144  1.1525
  944SOL     OW 2830   2.027   1.210   0.469 -0.4456 -0.3489 -0.5953
  944SOL    HW1 2831   2.076   1.212   0.386 -0.8963 -1.2994 -0.9054
  944SOL    HW2 2832   1.977   1.291   0.470 -1.6865 -1.0454 -2.0501
  945SOL     OW 2833   3.022   0.197   1.159  0.3808  0.7715 -0.4422
  945SOL    HW1 2834   2.966   0.272   1.141  0.2720  0.3396 -2.0037
  945SOL    HW2 2835   3.066   0.220   1.241 -1.7119  1.3113  0.5923
  946SOL     OW 2836   1.108   0.427   3.964  0.3292  0.2979 -0.3612
  946SOL    HW1 2837   1.113   0.409   3.870 -1.2674  0.1754 -0.4583
  946SOL    HW2 2838   1.034   0.375   3.994 -0.5852  2.0125  0.5201
  947SOL     OW 2839   0.984   3.954   3.956 -0.3497  0.3170  0.0084
  947SOL    HW1 2840   1.007   3.868   3.921 -2.4983 -0.5462  0.5773
  947SOL    HW2 2841   1.044   3.967   4.029 -0.0632 -0.7339 -0.0268
  948SOL     OW 2842   3.688   1.981   0.611  0.4893  0.6667  0.4318
  948SOL    HW1 2843   3.676   1.987   0.516 -0.8179 -2.3484  0.2874
  948SOL    HW2 2844   3.765   1.925   0.621 -2.0506 -3.1274  0.9037
  949SOL     OW 2845   3.203   1.958   3.824  0.0313  0.4096 -0.2895
  949SOL    HW1 2846   3.198   1.961   3.728 -0.0741  1.5990 -0.2584
  949SOL    HW2 2847   3.111   1.965   3.852  0.0975  0.5180 -0.0995
  950SOL     OW 2848   2.664   2.499   0.496 -0.8102  0.3692 -0.0031
  950SOL    HW1 2849   2.709   2.583   0.486  0.6832 -0.2735  0.9687
  950SOL    HW2 2850   2.653   2.467   0.406 -0.1382  0.9912 -0.3195
  951SOL     OW 2851   0.401   0.940   3.915 -0.6502  0.5232 -0.4234
  951SOL    HW1 2852   0.449   0.873   3.866 -0.1266  1.5823 -1.4118
  951SOL    HW2 2853   0.452   0.952   3.996 -0.3055  0.3037 -0.6074
  952SOL     OW 2854   0.707   3.068   3.338  0.5544 -0.4170  0.3356
  952SOL    HW1 2855   0.706   3.163   3.345 -1.0598 -0.2672 -1.2469
  952SOL    HW2 2856   0.794   3.042   3.369  0.9003  1.5278  1.0991
  953SOL     OW 2857   1.451   2.547   2.591  0.0225  0.6194 -0.2782
  953SOL    HW1 2858   1.442   2.559   2.685  2.1614  1.5769 -0.1560
  953SOL    HW2 2859   1.440   2.452   2.578 -0.6067  0.5204  0.8659
  954SOL     OW 2860   3.399   3.850   1.304  0.7098  0.5974 -1.1194
  954SOL    HW1 2861   3.313   3.849   1.262  0.1275  0.0939  0.0504
  954SOL    HW2 2862   3.387   3.903   1.382  0.3597 -2.5287  1.1708
  955SOL     OW 2863   1.082   1.041   0.261  0.5338 -0.4600  0.2169
  955SOL    HW1 2864   1.170   1.075   0.278  0.4686  0.0222 -0.3578
  955SOL    HW2 2865   1.096   0.948   0.240  0.5412 -1.3239  3.5303
  956SOL     OW 2866   2.758   0.405   0.483 -0.7028  0.5749 -0.0108
  956SOL    HW1 2867   2.665   0.381   0.481 -0.8707  1.1515  0.5233
  956SOL    HW2 2868   2.770   0.460   0.406 -0.5503 -0.3785 -0.6787
  957SOL     OW 2869   3.357   3.139   3.330  0.5569 -0.2699 -0.2647
  957SOL    HW1 2870   3.384   3.229   3.348  0.1613 -0.2747  0.3697
  957SOL    HW2 2871   3.262   3.145   3.320  0.8093 -0.0338 -3.7076
  958SOL     OW 2872   0.192   3.522   0.916 -0.6643  0.4480 -0.4654
  958SOL    HW1 2873   0.163   3.447   0.864  1.8063  1.0307 -2.9594
  958SOL    HW2 2874   0.267   3.489   0.965 -0.7948  0.8149 -0.0120
  959SOL     OW 2875   2.344   0.332   3.063  0.3322 -0.0583 -0.4168
  959SOL    HW1 2876   2.403   0.387   3.012  0.5802 -1.9239 -2.2519
  959SOL    HW2 2877   2.397   0.256   3.089 -0.2085  0.1141  1.3562
  960SOL     OW 2878   1.639   0.336   0.284  0.6880  0.2652  0.4387
  960SOL    HW1 2879   1.707   0.306   0.224 -1.7011 -3.8121 -0.6649
  960SOL    HW2 2880   1.633   0.267   0.350  0.2859  2.5241  2.9385
  961SOL     OW 2881   0.381   0.409   1.428  0.5998  0.0386  0.5590
  961SOL    HW1 2882   0.364   0.396   1.521  1.8879 -1.3337  0.6250
  961SOL    HW2 2883   0.324   0.346   1.384 -1.6794  2.1551  0.2170
  962SOL     OW 2884   1.642   0.770   2.059  0.0797  0.4840  0.3964
  962SOL    HW1 2885   1.723   0.820   2.050  0.7205 -0.3956  1.0186
  962SOL    HW2 2886   1.613   0.754   1.969  2.0439 -1.4304  0.0163
  963SOL     OW 2887   1.695   3.340   0.284  0.4361  0.5897 -0.3683
  963SOL    HW1 2888   1.643   3.419   0.292  0.6162  0.6335  0.5056
  963SOL    HW2 2889   1.631   3.269   0.278  0.2743  0.7985 -1.2306
  964SOL     OW 2890   3.473   1.632   0.593  0.3531 -0.2456 -0.7396
  964SOL    HW1 2891   3.562   1.655   0.568  0.6378 -0.1699  0.2922
  964SOL    HW2 2892   3.450   1.695   0.662  0.3719 -1.6841  0.6537
  965SOL     OW 2893   1.231   3.014   3.833  0.7420  0.2938  0.1682
  965SOL    HW1 2894   1.164   3.037   3.769 -0.3759  1.9191  1.8247
  965SOL    HW2 2895   1.244   2.919   3.821 -0.9951  0.1493 -0.9636
  966SOL     OW 2896   1.249   0.235   1.611 -0.1058  0.8217  0.5484
  966SOL    HW1 2897   1.221   0.299   1.675 -0.0767  2.1759 -0.7359
  966SOL    HW2 2898   1.337   0.263   1.585 -0.7536  1.3110 -1.2722
  967SOL     OW 2899   3.806   0.732   2.107 -0.6428 -0.1026  0.2556
  967SOL    HW1 2900   3.724   0.714   2.060 -0.4040 -0.6646  0.0355
  967SOL    HW2 2901   3.799   0.823   2.134 -0.7775  0.2512 -0.9202
  968SOL     OW 2902   1.972   3.746   2.176  0.2024 -0.3067 -0.0930
  968SOL    HW1 2903   1.908   3.702   2.232 -0.6521 -0.8484 -1.4420
  968SOL    HW2 2904   2.053   3.748   2.228 -0.8453  0.2946  1.6147
  969SOL     OW 2905   1.421   1.417   2.395  0.1917 -0.2269  0.4250
  969SOL    HW1 2906   1.510   1.450   2.412  0.1063  0.0099  0.4201
  969SOL    HW2 2907   1.435   1.331   2.355  0.3814 -1.4248  2.8913
  970SOL     OW 2908   0.408   1.161   2.478  0.2217  0.3625  0.0314
  970SOL    HW1 2909   0.385   1.233   2.420  0.0843  0.7449  0.5474
  970SOL    HW2 2910   0.331   1.148   2.533 -0.4666 -1.4439 -1.2863
  971SOL     OW 2911   1.848   0.543   0.745 -0.1127  0.1814  0.5298
  971SOL    HW1 2912   1.928   0.570   0.791  0.0064  0.9769 -0.1203
  971SOL    HW2 2913   1.859   0.577   0.656 -1.3097  0.5581  0.5162
  972SOL     OW 2914   0.789   0.483   1.826 -0.2791  0.5290  0.2879
  972SOL    HW1 2915   0.793   0.387   1.819  1.1481  0.4457  1.6734
  972SOL    HW2 2916   0.754   0.499   1.914 -1.9068  1.3327 -0.4558
  973SOL     OW 2917   3.122   1.245   1.413 -0.2994  0.4701 -1.0002
  973SOL    HW1 2918   3.205   1.201   1.394 -0.2267 -0.0406  0.4031
  973SOL    HW2 2919   3.147   1.333   1.442 -0.0653 -0.2870  1.3023
  974SOL     OW 2920   2.943   3.157   0.289 -0.6983  0.3053 -0.1094
  974SOL    HW1 2921   2.977   3.150   0.378 -3.9041  0.4775  1.2469
  974SOL    HW2 2922   2.974   3.077   0.246  0.2506 -0.1708  1.3828
  975SOL     OW 2923   0.205   3.532   1.779 -0.1113  0.6645 -0.0900
  975SOL    HW1 2924   0.126   3.481   1.762  1.1132 -0.7813 -1.8421
  975SOL    HW2 2925   0.193   3.614   1.732 -0.7245  0.6386  0.0159
  976SOL     OW 2926   2.663   2.742   2.971 -0.0060  0.3686 -0.4469
  976SOL    HW1 2927   2.613   2.662   2.990  2.6710 -1.1884  0.5562
  976SOL    HW2 2928   2.722   2.717   2.900  0.7678  1.5177 -0.2251
  977SOL     OW 2929   1.859   1.272   2.466 -0.5023 -0.1142  0.5090
  977SOL    HW1 2930   1.830   1.248   2.379 -0.7652  0.1390  0.5272
  977SOL    HW2 2931   1.785   1.318   2.505 -0.3260 -0.0741  0.8026
  978SOL     OW 2932   0.701   0.879   2.274 -0.0148  0.2083 -0.0347
  978SOL    HW1 2933   0.663   0.845   2.354 -0.5595 -0.3731 -0.5278
  978SOL    HW2 2934   0.636   0.943   2.242  0.6848  1.2325  0.5297
  979SOL     OW 2935   1.245   0.780   1.933 -0.9808 -0.4232 -0.3923
  979SOL    HW1 2936   1.268   0.716   2.000 -2.2097  0.6223  1.0900
  979SOL    HW2 2937   1.286   0.861   1.962 -0.5585 -0.1990 -1.5467
  980SOL     OW 2938   3.026   3.984   3.196  0.2117  0.0785 -0.3229
  980SOL    HW1 2939   3.115   3.968   3.226 -0.1058  0.4730  0.8959
  980SOL    HW2 2940   2.970   3.943   3.262 -0.5210  0.1931 -0.8527
  981SOL     OW 2941   2.235   0.360   2.350  0.1937  0.2707 -0.3966
  981SOL    HW1 2942   2.246   0.403   2.435  1.9802 -0.0151 -0.4438
  981SOL    HW2 2943   2.232   0.432   2.287 -0.2007  0.4477 -0.1797
  982SOL     OW 2944   0.882   2.410   1.080  0.3574 -0.2611  0.1050
  982SOL    HW1 2945   0.939   2.368   1.144 -0.9243  0.6699  1.9322
  982SOL    HW2 2946   0.942   2.439   1.011  1.6865 -1.9421  0.4905
  983SOL     OW 2947   2.428   1.414   3.199  0.2797 -0.1462 -0.1463
  983SOL    HW1 2948   2.453   1.440   3.288 -0.6106  0.6541 -0.1174
  983SOL    HW2 2949   2.364   1.345   3.212 -1.1514  1.1399 -0.0996
  984SOL     OW 2950   0.840   3.489   3.861  0.0442  0.2547  0.0212
  984SOL    HW1 2951   0.895   3.567   3.852 -0.0955  0.1805 -1.9497
  984SOL    HW2 2952   0.761   3.521   3.904  0.5813  0.8917  0.5555
  985SOL     OW 2953   0.540   2.797   3.864  0.1164 -0.5639  0.5297
  985SOL    HW1 2954   0.622   2.806   3.814 -0.3681  0.3790 -0.1344
  985SOL    HW2 2955   0.555   2.847   3.944 -1.0842  3.1281 -1.2907
  986SOL     OW 2956   1.396   2.822   0.929  0.2120 -0.0107 -0.2481
  986SOL    HW1 2957   1.393   2.741   0.879  1.3410 -0.8316  0.9695
  986SOL    HW2 2958   1.487   2.851   0.923  1.1707 -1.6368  3.5110
  987SOL     OW 2959   1.070   1.678   1.477 -0.4375  0.4411 -0.2403
  987SOL    HW1 2960   1.072   1.640   1.565 -3.5113 -0.0130 -0.2609
  987SOL    HW2 2961   1.150   1.731   1.472  1.0515 -1.4439  1.8870
  988SOL     OW 2962   2.414   3.707   0.449  0.3050  0.0350 -0.0342
  988SOL    HW1 2963   2.402   3.645   0.521 -1.4247 -1.7244 -1.7263
  988SOL    HW2 2964   2.333   3.703   0.399  2.1497 -0.5288 -3.3112
  989SOL     OW 2965   3.742   3.459   3.753 -0.4363  0.6193  0.4273
  989SOL    HW1 2966   3.654   3.495   3.762  0.6331  3.8005 -0.3374
  989SOL    HW2 2967   3.755   3.449   3.658  0.3650  1.2875  0.4486
  990SOL     OW 2968   0.166   2.039   2.878  0.4617  0.4467 -0.0775
  990SOL    HW1 2969   0.112   2.066   2.952  0.4256  0.8680 -0.2535
  990SOL    HW2 2970   0.234   1.984   2.916 -1.8660 -2.7651 -0.2027
  991SOL     OW 2971   0.541   1.052   0.109  0.4100  0.2032  0.1545
  991SOL    HW1 2972   0.528   1.145   0.128 -1.6985  0.3190 -1.4417
  991SOL    HW2 2973   0.634   1.045   0.088  0.9177  1.6526  1.6914
  992SOL     OW 2974   1.965   2.216   3.241  0.7176 -0.0333  0.1692
  992SOL    HW1 2975   1.991   2.126   3.258  2.5767  0.3497 -0.4822
  992SOL    HW2 2976   2.045   2.260   3.213 -0.0917  1.9037  0.7439
  993SOL     OW 2977   1.513   1.199   0.859  0.7345  0.3819  0.1912
  993SOL    HW1 2978   1.584   1.160   0.909  1.7927  0.4927 -1.1496
  993SOL    HW2 2979   1.542   1.289   0.843  1.3348 -0.1458 -2.1309
  994SOL     OW 2980   2.698   1.395   2.497 -0.1137 -0.2392  0.2782
  994SOL    HW1 2981   2.681   1.431   2.584  1.4825  2.1503 -0.3040
  994SOL    HW2 2982   2.637   1.441   2.439  1.0331  0.6240 -0.2873
  995SOL     OW 2983   1.343   3.027   2.799  1.1107 -0.0920  0.1123
  995SOL    HW1 2984   1.308   3.114   2.820  0.4373 -0.1131 -0.8407
  995SOL    HW2 2985   1.410   3.043   2.733  0.2192 -0.3741 -0.8848
  996SOL     OW 2986   0.365   0.426   0.810  0.1026 -0.5320  0.1707
  996SOL    HW1 2987   0.432   0.480   0.767 -0.0345 -1.6461 -1.5165
  996SOL    HW2 2988   0.283   0.453   0.769 -0.4247  0.2458  1.6511
  997SOL     OW 2989   0.201   2.021   3.357  0.5634  0.3783 -0.1333
  997SOL    HW1 2990   0.236   1.944   3.403 -0.5485 -0.1098 -0.0750
  997SOL    HW2 2991   0.188   1.991   3.267 -1.0180  0.0942  0.1574
  998SOL     OW 2992   2.647   0.676   3.551  0.0343 -0.1267  0.3297
  998SOL    HW1 2993   2.702   0.608   3.590  1.0238  0.9733  0.8844
  998SOL    HW2 2994   2.609   0.723   3.625 -1.9879 -1.0738 -0.0277
  999SOL     OW 2995   0.546   0.295   2.119  0.1424  0.0116  0.4833
  999SOL    HW1 2996   0.603   0.371   2.116 -2.1094  1.7784 -1.3720
  999SOL    HW2 2997   0.530   0.273   2.027 -5.2463  2.2750  0.5244
 1000SOL     OW 2998   0.682   0.577   2.342  0.4632  0.1598  0.1725
 1000SOL    HW1 2999   0.710   0.599   2.431  2.3712  1.7778 -0.7487
 1000SOL    HW2 3000   0.735   0.502   2.318  1.5734  1.0773 -0.3359
 1001SOL     OW 3001   2.805   3.256   2.530  0.8579 -0.3941 -0.2920
 1001SOL    HW1 3002   2.802   3.350   2.549  2.8548 -0.8106  2.6655
 1001SOL    HW2 3003   2.752   3.216   2.599  1.0909 -1.5262 -0.7529
 1002SOL     OW 3004   2.064   0.412   1.116  0.5440  1.5320  0.6470
 1002SOL    HW1 3005   2.069   0.352   1.190 -0.2497  1.3629  0.5786
 1002SOL    HW2 3006   2.137   0.386   1.059  0.8177  1.2995  1.0995
 1003SOL     OW 3007   0.711   2.667   2.502  0.4909  0.0427 -1.0874
 1003SOL    HW1 3008   0.737   2.622   2.421 -0.7897  0.1207 -1.5652
 1003SOL    HW2 3009   0.617   2.650   2.509  0.2280  1.5718 -0.5857
 1004SOL     OW 3010   3.030   1.182   2.303  0.8943 -0.1633 -0.6816
 1004SOL    HW1 3011   3.012   1.274   2.280  0.8895 -0.3343 -1.3602
 1004SOL    HW2 3012   3.125   1.176   2.307  0.8931 -0.1129 -0.5636
 1005SOL     OW 3013   1.480   3.478   1.941 -0.0996  0.2522 -0.6126
 1005SOL    HW1 3014   1.508   3.555   1.891  0.1655 -0.5073 -1.6687
 1005SOL    HW2 3015   1.503   3.404   1.885 -0.0001 -0.6203  0.5549
 1006SOL     OW 3016   0.092   3.764   3.899 -0.0794  0.0633  0.4809
 1006SOL    HW1 3017   0.082   3.682   3.851  1.6442 -0.8572  1.5693
 1006SOL    HW2 3018   0.103   3.831   3.831 -0.4642 -0.7705 -0.4198
 1007SOL     OW 3019   2.679   1.466   2.756 -0.2148  0.0345 -0.4292
 1007SOL    HW1 3020   2.592   1.459   2.794 -0.7428  1.6089 -1.2617
 1007SOL    HW2 3021   2.728   1.520   2.817  0.1213 -0.6437 -0.0860
 1008SOL     OW 3022   1.018   2.343   3.171 -0.0117  0.2853 -0.1091
 1008SOL    HW1 3023   1.088   2.279   3.153  0.2972  0.8884 -1.1162
 1008SOL    HW2 3024   0.981   2.315   3.255  0.6096 -0.7821 -0.1756
 1009SOL     OW 3025   3.565   2.863   3.388  0.1740 -0.7969  0.2659
 1009SOL    HW1 3026   3.607   2.944   3.415  0.5053 -1.1835  0.9433
 1009SOL    HW2 3027   3.580   2.803   3.461  1.1679 -1.8976 -0.8000
 1010SOL     OW 3028   0.522   2.550   2.682 -0.3202 -0.5723  0.1050
 1010SOL    HW1 3029   0.605   2.505   2.699  0.5399 -0.7373 -3.7562
 1010SOL    HW2 3030   0.477   2.495   2.618 -2.4945  0.6195  0.4956
 1011SOL     OW 3031   0.380   1.483   0.446 -0.0922  0.2957 -0.8606
 1011SOL    HW1 3032   0.401   1.537   0.369 -0.5357  0.9435 -0.5392
 1011SOL    HW2 3033   0.290   1.507   0.468 -0.1918 -0.3633 -0.5217
 1012SOL     OW 3034   2.389   0.610   0.392  0.0424  0.1000 -0.2192
 1012SOL    HW1 3035   2.445   0.677   0.431  0.2219 -1.8782  3.2936
 1012SOL    HW2 3036   2.359   0.650   0.310  2.1829  3.3855  0.3766
 1013SOL     OW 3037   3.547   2.541   3.554  0.1210  0.8218 -0.4098
 1013SOL    HW1 3038   3.623   2.542   3.612  2.0532 -3.2013 -2.4505
 1013SOL    HW2 3039   3.480   2.493   3.603  0.4230  0.6895 -0.1212
 1014SOL     OW 3040   2.699   1.154   2.200 -0.4229 -0.0185 -0.2854
 1014SOL    HW1 3041   2.793   1.159   2.214 -0.5055 -0.1927  0.3823
 1014SOL    HW2 3042   2.688   1.094   2.127 -0.1076 -2.0358  1.2282
 1015SOL     OW 3043   1.071   3.949   1.314  0.1890 -0.3547 -0.4637
 1015SOL    HW1 3044   0.988   3.902   1.305  2.4793 -5.1907  0.0875
 1015SOL    HW2 3045   1.075   3.973   1.406 -0.0624 -1.4299 -0.1561
 1016SOL     OW 3046   0.974   1.916   1.340  0.0653  0.2098 -0.6238
 1016SOL    HW1 3047   0.893   1.946   1.382 -0.1101 -0.9091 -0.1302
 1016SOL    HW2 3048   1.003   1.842   1.394  1.4083  0.5819 -0.8180
 1017SOL     OW 3049   2.284   2.212   2.194  0.0821  0.5292  0.7015
 1017SOL    HW1 3050   2.218   2.262   2.242 -0.1266  0.2032  0.7540
 1017SOL    HW2 3051   2.259   2.121   2.206 -0.5447  0.4759 -0.8401
 1018SOL     OW 3052   1.968   2.743   0.464  0.2974  1.1525  0.6708
 1018SOL    HW1 3053   1.990   2.810   0.529 -1.1357 -0.2819  2.7874
 1018SOL    HW2 3054   1.998   2.661   0.504  1.4895  0.3980 -1.5952
 1019SOL     OW 3055   0.219   0.519   3.370  0.5294  0.3315  0.1145
 1019SOL    HW1 3056   0.194   0.495   3.460  2.4345 -1.6696  0.1767
 1019SOL    HW2 3057   0.150   0.481   3.315  0.3860 -0.1214  0.6019
 1020SOL     OW 3058   1.249   0.645   0.053 -0.4396 -0.0823 -0.7812
 1020SOL    HW1 3059   1.310   0.656  -0.020 -0.7693  1.5071 -0.8466
 1020SOL    HW2 3060   1.187   0.578   0.021  1.2272 -1.7609 -0.6856
 1021SOL     OW 3061   3.545   0.514   3.096  0.3588  0.1441  0.1963
 1021SOL    HW1 3062   3.558   0.603   3.130  1.2641  0.7272 -1.5265
 1021SOL    HW2 3063   3.470   0.480   3.144  1.4254  0.9563  2.5511
 1022SOL     OW 3064   2.049   0.045   3.205 -0.4563  0.4962 -0.0040
 1022SOL    HW1 3065   2.014   0.101   3.137  0.1738 -0.5461 -1.2218
 1022SOL    HW2 3066   1.992  -0.032   3.204  0.4291 -0.1703 -0.3851
 1023SOL     OW 3067   1.073   0.648   0.457  0.1207 -0.4125  0.3119
 1023SOL    HW1 3068   1.155   0.600   0.465  0.3580  0.0481  0.6595
 1023SOL    HW2 3069   1.059   0.686   0.544  0.6574  1.3175 -0.3257
 1024SOL     OW 3070   0.746   0.689   2.624  0.0914 -0.0922  0.5615
 1024SOL    HW1 3071   0.740   0.784   2.632 -0.7638  0.3715 -3.5701
 1024SOL    HW2 3072   0.673   0.656   2.677 -1.0329  1.7318  0.2306
 1025SOL     OW 3073   2.257   2.356   3.614  0.5297 -0.4859 -0.3644
 1025SOL    HW1 3074   2.278   2.275   3.660 -0.8841  0.1223  1.4922
 1025SOL    HW2 3075   2.182   2.333   3.558  0.6002 -0.6367 -0.3956
 1026SOL     OW 3076   2.307   1.444   0.478 -0.7443  0.0090 -0.0794
 1026SOL    HW1 3077   2.234   1.504   0.493  0.9295  1.7885  1.4063
 1026SOL    HW2 3078   2.364   1.491   0.418  1.1802  0.5331  2.0320
 1027SOL     OW 3079   3.236   3.555   3.574 -1.1022  0.1669 -0.2688
 1027SOL    HW1 3080   3.146   3.584   3.591 -2.0630 -2.7950  0.1839
 1027SOL    HW2 3081   3.283   3.574   3.655 -0.7868  3.1695 -1.0133
 1028SOL     OW 3082   1.550   0.695   1.035 -0.3077 -0.2297 -0.0444
 1028SOL    HW1 3083   1.584   0.750   0.965  0.3567  0.9418  1.1483
 1028SOL    HW2 3084   1.611   0.622   1.040 -0.6166 -0.5643 -0.9738
 1029SOL     OW 3085   3.493   3.538   0.507 -0.7940  0.3604  0.6747
 1029SOL    HW1 3086   3.577   3.517   0.547  0.1038  1.3502 -0.5990
 1029SOL    HW2 3087   3.434   3.469   0.537  0.7289 -0.9663  0.7594
 1030SOL     OW 3088   3.706   1.124   3.606  0.1753 -0.1499 -0.1751
 1030SOL    HW1 3089   3.687   1.100   3.515 -0.1086 -0.8237  0.0535
 1030SOL    HW2 3090   3.673   1.050   3.658 -1.2549  0.9924  0.6144
 1031SOL     OW 3091   1.992   3.033   2.128 -0.2497  1.1870  0.1005
 1031SOL    HW1 3092   1.978   3.054   2.036 -3.9288  1.1194  0.5047
 1031SOL    HW2 3093   1.908   2.999   2.158  1.7487 -1.9967  2.7123
 1032SOL     OW 3094   3.587   1.965   1.091 -0.4080  0.0325  0.8165
 1032SOL    HW1 3095   3.668   2.016   1.088  0.2906 -1.0559 -1.0617
 1032SOL    HW2 3096   3.612   1.883   1.133 -0.7240 -0.0362  0.8733
 1033SOL     OW 3097   1.518   1.734   0.311 -0.9219  0.5761 -0.7116
 1033SOL    HW1 3098   1.566   1.652   0.300 -1.8768  0.1549 -1.8758
 1033SOL    HW2 3099   1.503   1.740   0.406 -0.7064 -0.5114 -0.5937
 1034SOL     OW 3100   2.141   1.173   0.699  0.1315 -0.2591 -0.2485
 1034SOL    HW1 3101   2.112   1.189   0.609  1.1313  0.4046 -0.4641
 1034SOL    HW2 3102   2.215   1.232   0.712  0.6702 -1.0934  0.6629
 1035SOL     OW 3103   1.224   3.548   0.979 -0.2829  0.0270  0.1484
 1035SOL    HW1 3104   1.238   3.579   1.068 -2.6511  0.0074  0.5784
 1035SOL    HW2 3105   1.186   3.623   0.933  1.9373  0.4077 -1.2210
 1036SOL     OW 3106   1.592   3.192   1.455 -0.0548  0.0650 -0.5172
 1036SOL    HW1 3107   1.534   3.248   1.403 -1.9365 -0.4989  0.8692
 1036SOL    HW2 3108   1.662   3.167   1.394  1.0966  4.1083 -1.1078
 1037SOL     OW 3109   3.390   0.551   2.145 -0.3474 -0.1688 -0.0026
 1037SOL    HW1 3110   3.352   0.568   2.059  1.9995 -2.4585 -1.6457
 1037SOL    HW2 3111   3.320   0.510   2.195 -1.9076  1.6297 -0.5891
 1038SOL     OW 3112   1.263   2.976   2.477 -0.1513  0.6631  0.1216
 1038SOL    HW1 3113   1.190   2.999   2.534  1.4213  0.4953  2.3459
 1038SOL    HW2 3114   1.273   2.881   2.486  0.3709  0.6868 -0.1181
 1039SOL     OW 3115   2.294   0.158   0.038 -0.0941 -1.0493 -0.3483
 1039SOL    HW1 3116   2.333   0.175   0.124 -1.0910 -0.8804  0.0741
 1039SOL    HW2 3117   2.364   0.114  -0.011  0.7700 -0.3938  0.2606
 1040SOL     OW 3118   0.698   3.800   3.701  0.7998  0.0900  0.0455
 1040SOL    HW1 3119   0.763   3.865   3.676  1.2173 -0.6703 -0.8854
 1040SOL    HW2 3120   0.629   3.807   3.635 -1.8211  3.1903  2.7578
 1041SOL     OW 3121   2.886   4.005   3.813 -0.5221  0.3300  0.6167
 1041SOL    HW1 3122   2.979   4.030   3.812 -0.8887  1.7732  0.0588
 1041SOL    HW2 3123   2.881   3.935   3.878  1.2045 -0.7998 -0.3857
 1042SOL     OW 3124   3.571   2.554   2.135  0.3034 -0.5069 -0.7677
 1042SOL    HW1 3125   3.661   2.552   2.169  1.2210  0.8388 -2.9551
 1042SOL    HW2 3126   3.530   2.627   2.182  1.5084  1.2313 -2.2802
 1043SOL     OW 3127   0.540   2.074   1.602  0.0670 -0.4471 -0.6558
 1043SOL    HW1 3128   0.454   2.101   1.633 -0.2229 -1.5706 -0.4374
 1043SOL    HW2 3129   0.560   2.135   1.531 -1.9503 -1.5459 -2.2848
 1044SOL     OW 3130   3.019   1.766   0.921  0.6985 -0.1467 -0.5065
 1044SOL    HW1 3131   3.086   1.697   0.916  1.5716  0.6113  0.2787
 1044SOL    HW2 3132   3.024   1.810   0.837  1.0817 -0.2025 -0.5173
 1045SOL     OW 3133   1.599   0.597   1.732 -0.3377 -0.1330 -0.5149
 1045SOL    HW1 3134   1.537   0.583   1.803  3.3647 -0.2341  3.1262
 1045SOL    HW2 3135   1.661   0.524   1.740  2.9255  2.3623 -0.5126
 1046SOL     OW 3136   1.973   0.528   1.864  0.5839  0.1555  0.2419
 1046SOL    HW1 3137   2.064   0.513   1.839  0.2208  2.0608 -2.6833
 1046SOL    HW2 3138   1.962   0.623   1.861 -2.1561 -0.0834 -2.4683
 1047SOL     OW 3139   3.253   0.632   1.927 -1.1764  0.5718  0.2811
 1047SOL    HW1 3140   3.186   0.683   1.973 -0.4532  0.3331  1.6547
 1047SOL    HW2 3141   3.244   0.657   1.835 -3.0107  0.6933  0.4578
 1048SOL     OW 3142   3.637   3.479   0.106 -0.0825  0.1791  0.4290
 1048SOL    HW1 3143   3.602   3.408   0.160 -0.0398  0.4635  0.8367
 1048SOL    HW2 3144   3.721   3.499   0.146 -1.3422  2.4487  2.1672
 1049SOL     OW 3145   2.770   1.019   1.258 -0.4450 -0.6823  0.3773
 1049SOL    HW1 3146   2.795   0.934   1.295 -0.0688 -0.1194  1.4364
 1049SOL    HW2 3147   2.853   1.059   1.233 -0.6394 -0.7149 -0.3377
 1050SOL     OW 3148   2.607   3.543   3.420  0.1348 -0.3502  0.5041
 1050SOL    HW1 3149   2.693   3.502   3.431  0.6022 -1.2285 -4.2158
 1050SOL    HW2 3150   2.627   3.631   3.389 -0.8048  0.5141  2.2350
 1051SOL     OW 3151   1.987   0.828   1.889 -0.6427  0.2222 -0.2476
 1051SOL    HW1 3152   1.928   0.902   1.902  1.0020  1.3014  1.5506
 1051SOL    HW2 3153   2.006   0.829   1.795  0.6531  3.1990 -0.0572
 1052SOL     OW 3154   2.190   2.384   1.277  0.1451 -0.8990  0.5403
 1052SOL    HW1 3155   2.260   2.449   1.269  0.9006 -1.7236  0.4074
 1052SOL    HW2 3156   2.221   2.308   1.229 -0.0624 -1.9277  1.9651
 1053SOL     OW 3157   0.004   3.994   0.031 -0.2235 -0.7376 -0.0181
 1053SOL    HW1 3158  -0.004   3.913  -0.020  0.0667 -1.0388  0.4079
 1053SOL    HW2 3159   0.018   3.965   0.121 -0.4273 -0.2106  0.1922
 1054SOL     OW 3160   1.864   3.168   1.542 -0.1091  0.4824 -0.7092
 1054SOL    HW1 3161   1.907   3.254   1.535 -2.0185  1.5166 -0.4905
 1054SOL    HW2 3162   1.777   3.188   1.576 -0.7456 -1.5371 -1.0287
 1055SOL     OW 3163   3.910   2.962   2.328 -0.4502  0.8084 -0.4400
 1055SOL    HW1 3164   3.978   2.964   2.395  0.1852 -0.5997 -1.0118
 1055SOL    HW2 3165   3.930   3.037   2.272  0.3177  0.7256 -0.2929
 1056SOL     OW 3166   1.249   1.083   1.848  0.3610 -0.1736  0.0746
 1056SOL    HW1 3167   1.289   1.152   1.795 -1.1420  0.0118 -0.8584
 1056SOL    HW2 3168   1.184   1.128   1.902 -1.3657 -0.9228 -1.2787
 1057SOL     OW 3169   2.524   1.912   0.331  0.2859 -0.3124  0.0958
 1057SOL    HW1 3170   2.558   1.942   0.246 -1.5190 -1.2419 -1.0144
 1057SOL    HW2 3171   2.572   1.831   0.348  0.4532 -0.2753 -0.1875
 1058SOL     OW 3172   0.833   2.798   3.750 -0.1205 -0.2216 -0.4935
 1058SOL    HW1 3173   0.928   2.801   3.748 -0.0456  1.0383  1.7250
 1058SOL    HW2 3174   0.806   2.890   3.742 -1.0826 -0.4213  0.2844
 1059SOL     OW 3175   1.639   3.277   3.938 -0.6417  0.0490 -0.4770
 1059SOL    HW1 3176   1.597   3.362   3.930 -0.0984  0.7162  2.5053
 1059SOL    HW2 3177   1.580   3.216   3.894 -1.9968  1.6937 -1.0045
 1060SOL     OW 3178   3.859   0.364   1.027  0.2368 -0.6633  0.0040
 1060SOL    HW1 3179   3.813   0.413   0.959 -0.8567 -0.5998  0.7635
 1060SOL    HW2 3180   3.906   0.431   1.077 -1.9146 -0.2243  1.5502
 1061SOL     OW 3181   2.704   3.915   1.202 -0.3116  0.0149  0.0288
 1061SOL    HW1 3182   2.781   3.897   1.149 -0.3733  2.7704 -1.1668
 1061SOL    HW2 3183   2.738   3.932   1.289  0.4224  0.7820 -0.3914
 1062SOL     OW 3184   1.571   2.157   1.159  0.2972  0.0490 -0.2685
 1062SOL    HW1 3185   1.518   2.160   1.239 -2.3153 -0.1769 -1.8667
 1062SOL    HW2 3186   1.656   2.190   1.186 -1.0252  1.8165  2.2078
 1063SOL     OW 3187   0.803   1.847   3.036 -0.7847 -0.2246  0.2150
 1063SOL    HW1 3188   0.748   1.802   2.971 -1.9343  1.1417  0.2056
 1063SOL    HW2 3189   0.893   1.831   3.005 -1.1493 -2.1056 -0.0224
 1064SOL     OW 3190   2.457   2.161   3.251 -0.5109  0.1964  0.3902
 1064SOL    HW1 3191   2.549   2.184   3.261 -0.5311  0.5241 -0.1415
 1064SOL    HW2 3192   2.420   2.231   3.197 -1.3655  0.7582  1.6573
 1065SOL     OW 3193   2.765   1.060   2.892  0.7884 -0.3460  0.6561
 1065SOL    HW1 3194   2.762   1.108   2.809  1.2102 -1.6893 -0.1528
 1065SOL    HW2 3195   2.758   1.129   2.959  0.9138  0.8023 -0.4707
 1066SOL     OW 3196   1.503   3.511   3.856  0.5621 -0.1613 -0.1347
 1066SOL    HW1 3197   1.514   3.480   3.766 -0.5186 -1.9417  0.2809
 1066SOL    HW2 3198   1.408   3.515   3.869  0.6615  2.0504  0.3358
 1067SOL     OW 3199   1.759   0.218   2.518 -0.2923 -0.4499  0.2064
 1067SOL    HW1 3200   1.774   0.295   2.463 -0.3779  0.6689  1.6903
 1067SOL    HW2 3201   1.846   0.194   2.550 -0.5767  1.2245  2.5164
 1068SOL     OW 3202   3.048   0.753   2.112 -0.6905 -1.2871 -0.4650
 1068SOL    HW1 3203   3.030   0.775   2.203 -1.1720 -0.9834 -0.6344
 1068SOL    HW2 3204   3.024   0.831   2.062  1.1194 -0.8250 -0.7086
 1069SOL     OW 3205   2.833   2.019   1.074 -0.0874  0.1973 -0.3090
 1069SOL    HW1 3206   2.876   1.935   1.061 -1.8238 -1.0430  1.3082
 1069SOL    HW2 3207   2.740   2.001   1.058 -0.5795  1.6126  0.7322
 1070SOL     OW 3208   3.039   3.905   2.359 -0.3717 -0.0124 -0.3767
 1070SOL    HW1 3209   3.089   3.949   2.428 -1.4919 -1.0432  1.1483
 1070SOL    HW2 3210   3.105   3.855   2.310  0.1778 -1.2366  1.5144
 1071SOL     OW 3211   0.716   2.458   3.608  0.7333 -0.5114 -0.8745
 1071SOL    HW1 3212   0.708   2.520   3.536 -0.4956  1.3555  0.7713
 1071SOL    HW2 3213   0.638   2.403   3.601 -1.4033  2.0301  1.0240
 1072SOL     OW 3214   3.106   0.201   0.786 -0.0340  0.0712  0.2314
 1072SOL    HW1 3215   3.085   0.107   0.787  0.1525  0.0282  0.1342
 1072SOL    HW2 3216   3.039   0.240   0.730  0.0656 -0.0446  0.0341
 1073SOL     OW 3217   1.258   3.202   1.885  0.8279 -0.4150 -0.0352
 1073SOL    HW1 3218   1.234   3.289   1.855  0.6901 -0.3025  0.4113
 1073SOL    HW2 3219   1.324   3.173   1.821  0.2353 -0.3401 -0.6885
 1074SOL     OW 3220   1.717   1.582   2.086  0.1554  0.0632 -0.2005
 1074SOL    HW1 3221   1.701   1.579   2.181  1.8254 -0.5001  0.1034
 1074SOL    HW2 3222   1.683   1.499   2.053  1.0596 -0.4795  0.1921
 1075SOL     OW 3223   1.732   2.003   3.216 -0.0582  0.7525 -0.8705
 1075SOL    HW1 3224   1.785   2.004   3.296  0.1347  1.0049 -1.0000
 1075SOL    HW2 3225   1.658   1.945   3.237 -0.0986  0.9522 -0.4510
 1076SOL     OW 3226   1.839   3.390   0.054  0.4156 -0.0136  0.0362
 1076SOL    HW1 3227   1.762   3.344   0.019 -1.7315  2.5979  0.9374
 1076SOL    HW2 3228   1.842   3.366   0.147  1.7816 -1.4254 -0.3431
 1077SOL     OW 3229   2.748   1.529   0.198 -0.2030 -0.9952 -0.0135
 1077SOL    HW1 3230   2.793   1.445   0.203  0.6631 -0.6009 -0.7943
 1077SOL    HW2 3231   2.663   1.513   0.237  0.0070 -2.1942 -0.0023
 1078SOL     OW 3232   2.918   3.863   0.061  0.9349  0.1124 -0.1026
 1078SOL    HW1 3233   2.988   3.823   0.114  1.6855 -0.6094 -1.5895
 1078SOL    HW2 3234   2.845   3.873   0.123  1.5603 -1.2719  0.9400
 1079SOL     OW 3235   2.890   1.483   1.490 -0.9561  0.0443 -0.5244
 1079SOL    HW1 3236   2.886   1.387   1.488 -0.4883  0.0297 -0.9490
 1079SOL    HW2 3237   2.810   1.509   1.537 -3.2133 -0.4171 -3.7527
 1080SOL     OW 3238   2.075   2.769   3.002  0.0535  0.4477  1.0869
 1080SOL    HW1 3239   2.134   2.835   2.964 -1.3856  1.8136  1.1202
 1080SOL    HW2 3240   2.117   2.686   2.982  1.3110  1.3105 -0.0851
 1081SOL     OW 3241   2.428   1.515   2.508 -0.6398 -0.0081  0.2485
 1081SOL    HW1 3242   2.351   1.555   2.467 -0.0135  0.6840 -0.2928
 1081SOL    HW2 3243   2.451   1.442   2.450  0.0870  0.8077 -0.5210
 1082SOL     OW 3244   3.286   0.363   1.554 -0.4744  0.0091  0.2230
 1082SOL    HW1 3245   3.323   0.386   1.640  0.9397  1.3399 -0.6962
 1082SOL    HW2 3246   3.193   0.386   1.561 -0.3352  0.3017  1.3199
 1083SOL     OW 3247   3.532   3.080   0.673  0.1472 -0.3622 -0.6534
 1083SOL    HW1 3248   3.492   3.103   0.757  0.9690 -2.1482  0.2818
 1083SOL    HW2 3249   3.500   2.992   0.655  1.5966 -0.7943 -1.1907
 1084SOL     OW 3250   0.234   1.590   2.402  0.2026  0.6476 -1.0457
 1084SOL    HW1 3251   0.323   1.611   2.376  0.7792  0.7299  0.8466
 1084SOL    HW2 3252   0.207   1.521   2.341  1.3023  1.0618 -2.0401
 1085SOL     OW 3253   0.142   3.766   0.777 -0.2151 -0.0630  0.6336
 1085SOL    HW1 3254   0.208   3.792   0.714 -2.0916  2.8674 -0.3093
 1085SOL    HW2 3255   0.183   3.694   0.826  3.8170  1.8444  0.4876
 1086SOL     OW 3256   1.244   2.063   3.575 -0.2316  0.1306 -0.0577
 1086SOL    HW1 3257   1.173   1.999   3.567 -0.2083 -0.4580  3.1020
 1086SOL    HW2 3258   1.233   2.120   3.499 -2.2796 -1.6532 -1.2393
 1087SOL     OW 3259   2.142   2.180   3.973  0.1038 -0.2585  0.1975
 1087SOL    HW1 3260   2.172   2.144   3.890  0.2072 -0.5743  0.3700
 1087SOL    HW2 3261   2.117   2.270   3.953 -0.9829 -0.6758 -0.4336
 1088SOL     OW 3262   1.839   1.230   1.477  0.1181 -1.0345 -0.4663
 1088SOL    HW1 3263   1.809   1.144   1.507  0.1284 -0.4640  1.3357
 1088SOL    HW2 3264   1.925   1.241   1.518 -0.5108  0.4098  0.5956
 1089SOL     OW 3265   1.406   1.460   0.561  0.1297  0.0593  0.4089
 1089SOL    HW1 3266   1.479   1.482   0.619  1.1055  2.4014 -1.5163
 1089SOL    HW2 3267   1.327   1.476   0.614  0.9826  0.4984  1.5845
 1090SOL     OW 3268   2.936   1.791   0.341 -0.3749 -0.4324  0.2272
 1090SOL    HW1 3269   2.941   1.877   0.382 -1.5199 -1.4885  2.8245
 1090SOL    HW2 3270   2.929   1.809   0.247  2.1120  2.1607  0.4170
 1091SOL     OW 3271   0.460   2.084   3.616 -0.6639  0.6446  0.2539
 1091SOL    HW1 3272   0.500   2.130   3.690  0.6651  0.5840 -0.4105
 1091SOL    HW2 3273   0.504   2.119   3.539 -0.8626 -0.4856 -0.3936
 1092SOL     OW 3274   1.462  -0.018   2.831  0.0765 -0.6670  0.0599
 1092SOL    HW1 3275   1.459   0.017   2.742  1.7930 -1.4578 -0.3575
 1092SOL    HW2 3276   1.468   0.059   2.888  2.1679 -0.1870 -0.7299
 1093SOL     OW 3277   2.454   0.342   2.779 -0.3481 -0.2360  0.3808
 1093SOL    HW1 3278   2.478   0.259   2.736 -1.9391  0.0370 -1.1789
 1093SOL    HW2 3279   2.510   0.407   2.737 -1.6406 -0.0277 -1.1445
 1094SOL     OW 3280   0.335   0.501   3.901 -0.1611  0.3548  0.0011
 1094SOL    HW1 3281   0.361   0.424   3.850  0.6211 -1.4495  2.8792
 1094SOL    HW2 3282   0.240   0.506   3.889 -0.4004 -1.7927  0.5658
 1095SOL     OW 3283   2.958   3.779   1.767 -0.3232  0.1208  0.2447
 1095SOL    HW1 3284   3.040   3.824   1.790 -0.0304  0.2870 -1.0621
 1095SOL    HW2 3285   2.947   3.796   1.674 -2.6138  1.3029  0.6598
 1096SOL     OW 3286   3.261   0.741   2.319 -0.0329  0.0692 -0.9040
 1096SOL    HW1 3287   3.197   0.795   2.364 -0.0715  0.4604 -1.4096
 1096SOL    HW2 3288   3.218   0.717   2.236 -0.1023 -0.9269 -0.5933
 1097SOL     OW 3289   2.530   0.351   2.188  0.6408 -0.3367 -0.3094
 1097SOL    HW1 3290   2.577   0.434   2.175 -1.2734  0.6350 -1.6473
 1097SOL    HW2 3291   2.486   0.362   2.273  1.8780 -0.7811  0.4039
 1098SOL     OW 3292   1.198   2.642   1.571 -0.0043 -0.2916 -0.0687
 1098SOL    HW1 3293   1.208   2.570   1.634  1.5486  0.0490  0.1311
 1098SOL    HW2 3294   1.214   2.721   1.623  0.1270  0.0650 -0.6441
 1099SOL     OW 3295   2.724   2.339   2.670  0.7793  0.2264  0.2213
 1099SOL    HW1 3296   2.693   2.261   2.622  1.4277 -1.0736  1.8170
 1099SOL    HW2 3297   2.672   2.339   2.750 -1.0695  3.0047 -0.8432
 1100SOL     OW 3298   3.155   1.461   0.624 -0.1938  0.9898 -0.1113
 1100SOL    HW1 3299   3.170   1.486   0.715 -0.7986 -3.1038  1.3581
 1100SOL    HW2 3300   3.232   1.409   0.601 -1.7277 -1.2848 -0.4369
 1101SOL     OW 3301   3.792   2.809   1.814  0.3783  0.0768 -0.0118
 1101SOL    HW1 3302   3.714   2.831   1.762  0.8334 -0.4413 -0.9451
 1101SOL    HW2 3303   3.802   2.714   1.803  1.6123  0.2607 -0.5932
 1102SOL     OW 3304   1.169   3.362   2.769 -0.0084 -0.2088 -0.1054
 1102SOL    HW1 3305   1.128   3.405   2.694  0.2986  1.0428  0.4342
 1102SOL    HW2 3306   1.255   3.403   2.775 -1.3477  2.5274  3.2405
 1103SOL     OW 3307   0.103   0.494   0.172  0.1110  0.1791 -0.1056
 1103SOL    HW1 3308   0.197   0.500   0.156  0.0523  0.7536 -0.2492
 1103SOL    HW2 3309   0.063   0.523   0.089 -0.2098 -2.8705 -1.1384
 1104SOL     OW 3310   3.018   0.880   2.669  0.9829 -0.0170  0.1062
 1104SOL    HW1 3311   3.101   0.873   2.716  0.3490 -0.3506  1.2086
 1104SOL    HW2 3312   3.006   0.974   2.658  0.4097  0.1816  2.0168
 1105SOL     OW 3313   1.951   3.846   2.647  0.9655  0.0761 -0.4194
 1105SOL    HW1 3314   2.044   3.837   2.625  1.7831 -2.4720  3.0161
 1105SOL    HW2 3315   1.907   3.785   2.588  1.2051  2.0017 -2.7399
 1106SOL     OW 3316   3.793   3.365   3.465  1.5008  0.6004 -0.1662
 1106SOL    HW1 3317   3.870   3.328   3.422  0.7825  0.9247 -1.8392
 1106SOL    HW2 3318   3.785   3.453   3.427 -0.1834  0.2505 -0.7297
 1107SOL     OW 3319   3.882   0.521   2.673 -0.2555 -0.4370 -0.8775
 1107SOL    HW1 3320   3.855   0.598   2.722 -0.0288  0.6460 -2.4033
 1107SOL    HW2 3321   3.964   0.494   2.715 -1.6536 -1.5198  1.3743
 1108SOL     OW 3322   1.202   2.166   1.175  0.3089  0.0583 -0.1527
 1108SOL    HW1 3323   1.273   2.224   1.204  0.3297  1.1712 -2.2049
 1108SOL    HW2 3324   1.125   2.194   1.225 -0.0092  2.8792 -2.0122
 1109SOL     OW 3325   2.515   3.915   2.792 -0.6735 -0.3949  0.9068
 1109SOL    HW1 3326   2.454   3.938   2.863 -2.2126 -2.6090  0.4275
 1109SOL    HW2 3327   2.477   3.836   2.754  2.4027 -1.7413  0.3778
 1110SOL     OW 3328   3.364   0.901   3.118  0.0282  0.8092 -0.0144
 1110SOL    HW1 3329   3.389   0.993   3.128 -0.8282  1.0403  0.0959
 1110SOL    HW2 3330   3.444   0.852   3.137 -0.0652  1.4465  2.4459
 1111SOL     OW 3331   1.917   3.387   1.314  0.2675 -0.0092  0.6068
 1111SOL    HW1 3332   1.964   3.404   1.233 -0.2297 -0.5024  0.2097
 1111SOL    HW2 3333   1.868   3.306   1.297 -3.1691  2.0198 -0.0575
 1112SOL     OW 3334   0.343   1.624   0.792  0.2456  0.0432  0.3617
 1112SOL    HW1 3335   0.262   1.586   0.825  0.8166 -1.9578 -0.3268
 1112SOL    HW2 3336   0.317   1.704   0.747 -1.1553  0.1262  1.2893
 1113SOL     OW 3337   2.804   2.558   2.201 -0.1406 -0.3279 -0.0413
 1113SOL    HW1 3338   2.878   2.571   2.141  3.3655 -1.4192  3.6309
 1113SOL    HW2 3339   2.799   2.639   2.251 -0.8190 -0.6631  0.4544
 1114SOL     OW 3340   2.981   0.957   3.588 -0.4099  0.0739 -0.1088
 1114SOL    HW1 3341   2.938   1.012   3.653  4.0437  1.2110  2.2927
 1114SOL    HW2 3342   3.006   0.878   3.636 -0.1164 -0.6946 -1.4668
 1115SOL     OW 3343   2.184   1.789   3.734  0.2095  0.3475  0.9589
 1115SOL    HW1 3344   2.102   1.799   3.782  0.1078  1.8531  0.5329
 1115SOL    HW2 3345   2.168   1.716   3.674 -0.4106 -0.1162  1.6767
 1116SOL     OW 3346   2.823   1.777   0.590 -0.3417  0.3771  0.1716
 1116SOL    HW1 3347   2.888   1.768   0.520  0.6364  0.4120  1.0423
 1116SOL    HW2 3348   2.828   1.869   0.616  0.2280  0.1015  1.1123
 1117SOL     OW 3349   0.559   1.921   0.738  0.2247 -0.5954  0.6457
 1117SOL    HW1 3350   0.561   1.977   0.815 -3.1772 -1.4662  1.5203
 1117SOL    HW2 3351   0.573   1.980   0.664  0.2200  0.7985  1.7336
 1118SOL     OW 3352   2.725   1.526   2.182  0.5753  0.2989 -0.7808
 1118SOL    HW1 3353   2.652   1.477   2.219  1.9790 -0.0658  1.7501
 1118SOL    HW2 3354   2.714   1.615   2.215  1.8453 -0.0281  0.6468
 1119SOL     OW 3355   3.489   0.323   3.925  0.4528 -0.0005  0.2838
 1119SOL    HW1 3356   3.397   0.296   3.926  0.0539  1.2726  2.0513
 1119SOL    HW2 3357   3.499   0.371   3.843  0.3237 -2.5082 -1.2900
 1120SOL     OW 3358   0.593   1.478   3.014 -0.3253 -0.0315  0.3271
 1120SOL    HW1 3359   0.536   1.406   3.041  0.4065 -0.4280  0.8173
 1120SOL    HW2 3360   0.680   1.454   3.044  0.6324 -0.6987 -2.6624
 1121SOL     OW 3361   3.127   1.900   0.690  0.4612 -0.0985 -0.3802
 1121SOL    HW1 3362   3.198   1.953   0.727  0.2716  1.1961 -1.7590
 1121SOL    HW2 3363   3.166   1.857   0.614 -0.0751  0.2148 -0.8427
 1122SOL     OW 3364   0.769   0.455   0.798 -0.2852  0.0916  0.2715
 1122SOL    HW1 3365   0.818   0.531   0.830 -1.2434  0.9135 -0.1831
 1122SOL    HW2 3366   0.682   0.489   0.778 -1.0051 -1.3219  0.9043
 1123SOL     OW 3367   1.626   3.690   1.214 -0.4999 -0.1155 -0.4034
 1123SOL    HW1 3368   1.665   3.776   1.195  0.4984  0.0055  1.8809
 1123SOL    HW2 3369   1.638   3.679   1.308 -3.3166 -1.4760 -0.1283
 1124SOL     OW 3370   2.182   2.732   3.713  0.0418  0.2003  0.0020
 1124SOL    HW1 3371   2.178   2.781   3.795  0.4400  4.5650 -2.2867
 1124SOL    HW2 3372   2.271   2.745   3.681  0.0612 -1.8516 -0.9882
 1125SOL     OW 3373   2.426   1.870   3.779 -0.3615  0.0223  0.3539
 1125SOL    HW1 3374   2.486   1.797   3.767  0.7405  0.9684 -0.1296
 1125SOL    HW2 3375   2.341   1.836   3.752  0.4426 -0.5844 -1.6606
 1126SOL     OW 3376   3.504   0.170   1.388 -0.2039  0.1700 -0.8658
 1126SOL    HW1 3377   3.580   0.172   1.330  0.0728  1.5255 -0.4951
 1126SOL    HW2 3378   3.515   0.247   1.444 -0.8343 -0.6989  0.5111
 1127SOL     OW 3379   2.472   3.518   0.105  0.3037  0.3748 -0.1731
 1127SOL    HW1 3380   2.529   3.495   0.031 -1.9852  0.2721 -2.0377
 1127SOL    HW2 3381   2.488   3.450   0.170  0.5341 -1.0604 -1.6688
 1128SOL     OW 3382   3.895   0.611   1.283 -0.9362 -0.1774  0.2360
 1128SOL    HW1 3383   3.919   0.690   1.332  1.3759 -0.0798 -0.9211
 1128SOL    HW2 3384   3.909   0.539   1.345  0.0169  0.0876  0.3386
 1129SOL     OW 3385   2.306   3.969   1.129 -0.1325 -0.5607  0.0843
 1129SOL    HW1 3386   2.351   3.893   1.166 -0.5159 -0.7388  0.1926
 1129SOL    HW2 3387   2.287   4.025   1.205 -2.1029 -1.5392  0.3948
 1130SOL     OW 3388   0.498   0.770   2.916  0.0280 -0.0013  0.1933
 1130SOL    HW1 3389   0.569   0.716   2.948  0.8494  1.4557  0.9339
 1130SOL    HW2 3390   0.488   0.745   2.824  0.2317 -1.5068  0.5502
 1131SOL     OW 3391   2.080   3.926   2.933  0.5772  0.1714  0.0893
 1131SOL    HW1 3392   2.079   3.959   2.843  0.7488  1.4753  0.5434
 1131SOL    HW2 3393   1.988   3.916   2.956  0.5101  0.7080  0.0693
 1132SOL     OW 3394   2.961   0.703   0.546  0.1412  0.4864 -0.2688
 1132SOL    HW1 3395   3.012   0.623   0.560  0.0813  0.7326  1.6183
 1132SOL    HW2 3396   3.003   0.746   0.472  1.3194 -0.3909 -0.1389
 1133SOL     OW 3397   0.214   0.023   0.513  0.0262  0.2728  0.3915
 1133SOL    HW1 3398   0.287  -0.037   0.505 -0.5912 -0.4353 -0.0840
 1133SOL    HW2 3399   0.212   0.069   0.429  0.5783  1.0774  0.7997
 1134SOL     OW 3400   2.589   3.263   1.790  0.4329  0.1454 -0.1752
 1134SOL    HW1 3401   2.637   3.216   1.722  0.5304 -3.7278  2.2925
 1134SOL    HW2 3402   2.655   3.317   1.833  0.5958  1.7288 -2.2274
 1135SOL     OW 3403   0.915   1.170   0.445  0.4733 -0.1043  0.3174
 1135SOL    HW1 3404   0.968   1.130   0.376  2.3947 -2.0976  2.7431
 1135SOL    HW2 3405   0.979   1.207   0.506 -1.1136  1.0084  1.3765
 1136SOL     OW 3406   1.853   2.560   2.250 -0.5004 -0.1543  0.0475
 1136SOL    HW1 3407   1.803   2.478   2.253  1.5487 -1.4704  2.6520
 1136SOL    HW2 3408   1.858   2.588   2.341  0.0435  2.1447 -0.6353
 1137SOL     OW 3409   1.569   1.798   1.301  0.5103  1.0053  0.3453
 1137SOL    HW1 3410   1.503   1.776   1.236  1.4580  0.8065 -0.5814
 1137SOL    HW2 3411   1.541   1.882   1.337  0.2002  1.3327 -0.6379
 1138SOL     OW 3412   3.426   1.451   2.252  0.3591 -0.0995  0.2744
 1138SOL    HW1 3413   3.351   1.505   2.277  0.2069 -1.0773  2.0925
 1138SOL    HW2 3414   3.390   1.363   2.241  1.3401 -0.8507  2.3831
 1139SOL     OW 3415   3.687   0.561   0.934 -0.7264  0.3077 -0.4810
 1139SOL    HW1 3416   3.698   0.634   0.994 -2.0602  1.2140 -1.2964
 1139SOL    HW2 3417   3.671   0.601   0.849 -1.0712 -0.9416 -1.0311
 1140SOL     OW 3418   2.793   0.365   1.131  0.1371 -1.0656 -0.1722
 1140SOL    HW1 3419   2.740   0.418   1.071 -2.0308  0.9659  3.1473
 1140SOL    HW2 3420   2.756   0.277   1.124  0.8162 -1.2168 -2.6224
 1141SOL     OW 3421   3.162   0.400   3.945  0.1507  0.5772  0.3333
 1141SOL    HW1 3422   3.150   0.365   3.856 -0.0898 -0.0675  0.6192
 1141SOL    HW2 3423   3.104   0.348   4.000  0.1055  1.1474  0.8368
 1142SOL     OW 3424   3.683   1.613   2.013 -0.1827  0.5235  0.2778
 1142SOL    HW1 3425   3.634   1.662   1.947 -3.4918 -0.7704  1.6014
 1142SOL    HW2 3426   3.769   1.599   1.973 -2.1790 -0.8564 -4.1549
 1143SOL     OW 3427   0.129   1.887   3.684  0.2276 -0.3599  0.1514
 1143SOL    HW1 3428   0.224   1.890   3.670  0.7144 -2.0188  2.4531
 1143SOL    HW2 3429   0.110   1.962   3.739  0.2928 -0.3461  0.1551
 1144SOL     OW 3430   0.777   3.027   2.105  0.0446  0.3143  0.0869
 1144SOL    HW1 3431   0.696   3.059   2.066  0.4612  1.1451 -0.1213
 1144SOL    HW2 3432   0.765   2.932   2.111 -0.0186  0.1356 -2.1085
 1145SOL     OW 3433   2.417   2.828   3.050  0.4146 -0.2341  0.2824
 1145SOL    HW1 3434   2.401   2.856   2.960 -0.0003 -0.9782  0.1179
 1145SOL    HW2 3435   2.511   2.812   3.054  0.4814  0.1022  0.0701
 1146SOL     OW 3436   1.799   3.966   2.933 -0.5953  0.2445  0.6490
 1146SOL    HW1 3437   1.817   3.998   2.844  0.2644 -0.3011  0.6143
 1146SOL    HW2 3438   1.706   3.983   2.946 -1.1074 -1.0833 -0.9391
 1147SOL     OW 3439   2.628   3.430   1.391 -0.1583  0.0493 -0.1933
 1147SOL    HW1 3440   2.565   3.454   1.460  0.9883 -1.5228  1.4870
 1147SOL    HW2 3441   2.713   3.441   1.432  0.6201  0.1036 -1.7583
 1148SOL     OW 3442   1.244   1.469   0.795 -0.7917  0.7559 -0.0443
 1148SOL    HW1 3443   1.286   1.385   0.813  1.2629  1.8467  0.5171
 1148SOL    HW2 3444   1.165   1.468   0.848  0.8850  0.4607  2.6208
 1149SOL     OW 3445   1.758   3.992   0.527  0.1907 -0.9101  0.2785
 1149SOL    HW1 3446   1.740   3.901   0.548  1.7060 -1.2549  0.2244
 1149SOL    HW2 3447   1.672   4.034   0.524 -0.4835 -2.2008  0.8888
 1150SOL     OW 3448   3.018   3.279   1.957 -0.2678 -0.0816  0.1415
 1150SOL    HW1 3449   3.033   3.350   2.019  0.3951  1.3330 -1.5597
 1150SOL    HW2 3450   2.929   3.294   1.924 -0.3025 -0.3247  0.1198
 1151SOL     OW 3451   2.079   0.086   1.580 -0.3992  0.7232 -0.0861
 1151SOL    HW1 3452   2.104   0.122   1.665  0.5600 -1.4727  0.6282
 1151SOL    HW2 3453   2.135   0.010   1.569 -0.7462  0.7623 -2.5634
 1152SOL     OW 3454   3.035   3.240   2.808 -1.1364  0.0878 -0.0383
 1152SOL    HW1 3455   3.020   3.176   2.738 -2.2063  0.6451 -0.3496
 1152SOL    HW2 3456   3.028   3.189   2.889  0.1402 -0.5656 -0.3306
 1153SOL     OW 3457   0.910   1.925   2.756 -0.1470 -0.2053 -0.4485
 1153SOL    HW1 3458   0.953   1.958   2.835  0.3358  0.3128 -0.9283
 1153SOL    HW2 3459   0.981   1.893   2.701 -0.1616  2.1263 -1.9580
 1154SOL     OW 3460   1.833   2.468   1.019  1.0731  0.0187  0.6630
 1154SOL    HW1 3461   1.832   2.438   1.110  0.6048 -1.9659  0.0394
 1154SOL    HW2 3462   1.744   2.453   0.988  1.2868  0.4703 -0.2032
 1155SOL     OW 3463   3.745   2.629   0.226 -0.5972 -0.5974 -0.3051
 1155SOL    HW1 3464   3.822   2.643   0.281  0.1851  1.2869 -1.7368
 1155SOL    HW2 3465   3.696   2.560   0.270  2.0204 -2.0603  0.5546
 1156SOL     OW 3466   2.201   1.177   2.851 -0.0547  0.6378  0.5180
 1156SOL    HW1 3467   2.224   1.268   2.832  0.9328  0.1349 -0.8293
 1156SOL    HW2 3468   2.148   1.149   2.775 -0.8433  0.2522  1.1934
 1157SOL     OW 3469   3.609   0.246   0.769 -0.3309  0.4189  0.8121
 1157SOL    HW1 3470   3.576   0.172   0.718  0.2729  0.9094 -0.3325
 1157SOL    HW2 3471   3.531   0.285   0.808 -1.2314  1.7291 -2.0457
 1158SOL     OW 3472   2.346   3.653   3.100 -0.1983 -0.4762 -0.4212
 1158SOL    HW1 3473   2.317   3.682   3.187  1.9237 -0.7258  0.4242
 1158SOL    HW2 3474   2.336   3.731   3.045  1.3356  0.6844  0.8145
 1159SOL     OW 3475   3.114   3.788   1.256 -0.0783 -0.5667 -0.5408
 1159SOL    HW1 3476   3.083   3.828   1.175 -2.1357 -0.8515  0.0545
 1159SOL    HW2 3477   3.079   3.699   1.253 -0.9172 -0.3129  1.0391
 1160SOL     OW 3478   1.108   3.661   2.742 -0.0714 -0.4024  0.3839
 1160SOL    HW1 3479   1.021   3.697   2.724  0.7299  2.6743  2.0382
 1160SOL    HW2 3480   1.154   3.668   2.658 -1.2977 -2.0653 -0.5119
 1161SOL     OW 3481   2.816   0.252   1.780  0.5124 -0.3768  0.9899
 1161SOL    HW1 3482   2.881   0.194   1.741  2.1390  1.0986  1.3579
 1161SOL    HW2 3483   2.842   0.259   1.872 -1.4794 -1.4427  1.6896
 1162SOL     OW 3484   1.506   0.054   1.686 -0.3211 -0.5137 -0.1964
 1162SOL    HW1 3485   1.599   0.068   1.706 -0.6890  1.1364  0.5232
 1162SOL    HW2 3486   1.460   0.090   1.762 -1.5364 -2.3425 -0.0126
 1163SOL     OW 3487   2.364   3.667   0.965 -0.7481  0.3672  0.0887
 1163SOL    HW1 3488   2.446   3.667   1.014 -1.1323 -1.3006  0.8040
 1163SOL    HW2 3489   2.297   3.688   1.030 -0.9180  1.7784 -0.4999
 1164SOL     OW 3490   3.783   0.045   2.298 -0.1362 -0.2904  0.1841
 1164SOL    HW1 3491   3.874   0.019   2.282  0.1056  0.0126  1.0034
 1164SOL    HW2 3492   3.790   0.132   2.337 -0.9380  1.1044 -2.5819
 1165SOL     OW 3493   3.392   2.151   3.756 -0.0650  0.9031 -0.4975
 1165SOL    HW1 3494   3.356   2.207   3.687 -0.6572  3.0002  1.4019
 1165SOL    HW2 3495   3.328   2.081   3.765  0.0184  0.5984 -2.0423
 1166SOL     OW 3496   2.776   2.167   3.955 -0.1612 -0.1333  0.5847
 1166SOL    HW1 3497   2.725   2.178   4.035  2.7333  0.4152  2.4874
 1166SOL    HW2 3498   2.831   2.245   3.951  0.7598 -0.8250 -1.1950
 1167SOL     OW 3499   1.209   0.506   1.331  0.2859 -0.4844  0.3876
 1167SOL    HW1 3500   1.161   0.572   1.281 -2.0489 -1.0334  1.7758
 1167SOL    HW2 3501   1.211   0.540   1.420 -1.2289 -2.3612  1.1940
 1168SOL     OW 3502   3.276   3.432   0.326  0.0834 -0.0558  0.1314
 1168SOL    HW1 3503   3.295   3.360   0.386  0.5635 -0.3282 -0.3437
 1168SOL    HW2 3504   3.206   3.481   0.369 -1.9807 -2.1615 -0.6129
 1169SOL     OW 3505   0.616   2.097   0.953  0.1421 -0.0918 -0.2513
 1169SOL    HW1 3506   0.582   2.184   0.932  1.5638  0.5485 -0.0071
 1169SOL    HW2 3507   0.663   2.110   1.036  0.2053 -1.1304 -0.1203
 1170SOL     OW 3508   3.142   3.797   2.105 -0.2496  0.2749 -0.0253
 1170SOL    HW1 3509   3.216   3.803   2.045  0.8030  2.9001  1.3611
 1170SOL    HW2 3510   3.090   3.875   2.085 -0.9350  0.1286  1.1360
 1171SOL     OW 3511   0.219   0.260   1.085 -0.6682 -0.0293 -0.2617
 1171SOL    HW1 3512   0.252   0.345   1.116  1.5795 -0.7394 -0.5591
 1171SOL    HW2 3513   0.266   0.245   1.003  0.1499 -2.2497  0.5562
 1172SOL     OW 3514   2.849   0.746   0.782 -0.3016  0.8989  0.0865
 1172SOL    HW1 3515   2.909   0.807   0.825  2.2305 -1.5711  0.2918
 1172SOL    HW2 3516   2.884   0.736   0.693 -0.9551  0.1334 -0.0969
 1173SOL     OW 3517   1.215   1.997   1.437 -0.3383  0.1907 -1.0831
 1173SOL    HW1 3518   1.172   2.024   1.519  0.4566  0.5750 -0.7788
 1173SOL    HW2 3519   1.157   2.028   1.368 -0.6577  0.5129 -0.6737
 1174SOL     OW 3520   3.982   3.720   3.573 -0.3716 -0.0099  0.5081
 1174SOL    HW1 3521   3.966   3.657   3.643 -1.3265 -0.5558 -0.1764
 1174SOL    HW2 3522   3.900   3.767   3.563  0.3014  1.3010  0.9367
 1175SOL     OW 3523   1.028   2.874   1.514  0.0021 -0.0878 -0.2760
 1175SOL    HW1 3524   1.020   2.829   1.598  0.1466 -0.3010 -0.3768
 1175SOL    HW2 3525   1.121   2.897   1.509 -0.3471  1.7809  0.5860
 1176SOL     OW 3526   0.748   3.309   1.935  0.3266  0.6946  0.8626
 1176SOL    HW1 3527   0.719   3.240   1.994  0.4641 -2.0779 -2.0344
 1176SOL    HW2 3528   0.844   3.307   1.941  0.3143  1.8799  1.9778
 1177SOL     OW 3529   3.019   1.434   3.802  0.0484  0.1177  0.1875
 1177SOL    HW1 3530   3.055   1.426   3.890 -0.9921  0.1096  0.6273
 1177SOL    HW2 3531   2.939   1.485   3.813 -1.8189 -2.5257 -0.2306
 1178SOL     OW 3532   0.231   1.602   3.701 -0.2497  0.0836 -0.6659
 1178SOL    HW1 3533   0.206   1.692   3.683 -1.6269 -0.4434 -1.5272
 1178SOL    HW2 3534   0.248   1.563   3.615  2.0896 -0.0500 -0.2236
 1179SOL     OW 3535   2.591   3.851   3.137 -0.0446  0.4307 -0.3604
 1179SOL    HW1 3536   2.527   3.781   3.124 -0.1555 -0.2113  2.8170
 1179SOL    HW2 3537   2.662   3.830   3.078  0.0424 -2.6204  0.6643
 1180SOL     OW 3538   3.202   1.644   3.708  0.1586  0.6623 -0.1371
 1180SOL    HW1 3539   3.133   1.703   3.677 -0.2971  0.0161 -0.3905
 1180SOL    HW2 3540   3.156   1.561   3.723  0.4906  0.7768  1.6475
 1181SOL     OW 3541   2.899   2.058   0.442  0.3341 -0.3869  0.7088
 1181SOL    HW1 3542   2.883   2.080   0.534  1.5466  0.8170  0.6598
 1181SOL    HW2 3543   2.957   2.127   0.410  0.1990 -0.9669 -0.8821
 1182SOL     OW 3544   2.883   3.810   2.758 -0.1303 -0.3282  0.2700
 1182SOL    HW1 3545   2.797   3.836   2.792 -0.1845 -0.0272 -0.0931
 1182SOL    HW2 3546   2.915   3.746   2.821 -0.4271 -0.1100  0.6467
 1183SOL     OW 3547   3.273   3.760   2.405 -0.5486 -0.1357 -0.3152
 1183SOL    HW1 3548   3.238   3.705   2.475 -1.7800 -1.4872 -1.8840
 1183SOL    HW2 3549   3.365   3.736   2.398 -0.8879 -1.4741 -0.4449
 1184SOL     OW 3550   1.925   2.567   1.367 -0.6342  0.2727  0.1444
 1184SOL    HW1 3551   2.002   2.522   1.331 -1.4036 -1.5805  0.7201
 1184SOL    HW2 3552   1.893   2.620   1.294  0.0656 -0.4343 -0.7103
 1185SOL     OW 3553   0.168   1.134   2.613 -0.1870  0.4497  0.4825
 1185SOL    HW1 3554   0.099   1.174   2.666 -1.2828  0.5888 -0.9796
 1185SOL    HW2 3555   0.121   1.085   2.546  1.1390  0.4569 -0.4980
 1186SOL     OW 3556   0.235   1.216   2.001 -0.6390  0.4135  0.0623
 1186SOL    HW1 3557   0.274   1.190   1.917  0.4538  0.5288  0.5207
 1186SOL    HW2 3558   0.140   1.209   1.986 -0.4480 -1.0526 -0.7180
 1187SOL     OW 3559   3.151   0.211   3.617  0.2034 -0.8461  0.0512
 1187SOL    HW1 3560   3.087   0.254   3.560 -0.4859 -0.2780  1.2197
 1187SOL    HW2 3561   3.236   0.235   3.580 -0.1638  1.3672  0.5126
 1188SOL     OW 3562   3.227   3.797   3.359  0.1167 -0.2874  0.5877
 1188SOL    HW1 3563   3.185   3.855   3.423 -0.7889  0.3604 -0.5484
 1188SOL    HW2 3564   3.170   3.720   3.356 -1.6899  0.9688 -1.6250
 1189SOL     OW 3565   0.280   1.271   0.932 -0.6881 -0.5856  1.1502
 1189SOL    HW1 3566   0.213   1.271   0.863  0.5614  0.7053 -0.1520
 1189SOL    HW2 3567   0.362   1.252   0.885  0.1471 -0.0291  2.3473
 1190SOL     OW 3568   0.405   1.703   1.057 -0.8367  0.5013  0.2091
 1190SOL    HW1 3569   0.415   1.679   0.965 -2.6943  0.1961  0.0346
 1190SOL    HW2 3570   0.390   1.620   1.102  0.9684  0.5549  0.9604
 1191SOL     OW 3571   0.396   1.117   1.463  0.7358  0.2016  0.2095
 1191SOL    HW1 3572   0.395   1.126   1.368  0.1230  1.0534  0.2903
 1191SOL    HW2 3573   0.452   1.041   1.479  2.1084  0.9747 -0.7558
 1192SOL     OW 3574   3.155   0.976   1.005  0.1491 -0.5267  0.6181
 1192SOL    HW1 3575   3.224   1.032   0.970  0.1684  0.3470  2.0031
 1192SOL    HW2 3576   3.201   0.897   1.034  0.2398 -0.9113 -0.5070
 1193SOL     OW 3577   2.850   0.916   0.322  1.0093  0.2223 -0.2218
 1193SOL    HW1 3578   2.795   0.991   0.298  0.4452 -0.6994 -2.0403
 1193SOL    HW2 3579   2.802   0.872   0.392  1.0513  1.2048  0.4446
 1194SOL     OW 3580   3.586   0.474   2.625 -0.3508  0.1958  0.3241
 1194SOL    HW1 3581   3.613   0.507   2.711 -1.8461  2.5330 -0.0266
 1194SOL    HW2 3582   3.638   0.523   2.562  1.9013 -2.6151 -0.1968
 1195SOL     OW 3583   4.000   1.729   0.462 -0.3606  0.3608  0.1952
 1195SOL    HW1 3584   3.998   1.659   0.396  0.8453 -2.3260  2.7973
 1195SOL    HW2 3585   3.936   1.701   0.528 -0.5182  2.2326  0.8853
 1196SOL     OW 3586   0.257   3.073   3.347  0.2825 -0.0940  0.4630
 1196SOL    HW1 3587   0.209   3.017   3.286  1.0575 -1.0024  0.6587
 1196SOL    HW2 3588   0.344   3.082   3.308  0.4938  0.0834  0.9637
 1197SOL     OW 3589   2.539   3.839   1.525 -0.2679 -0.0617 -0.2462
 1197SOL    HW1 3590   2.634   3.832   1.512 -0.2328 -0.8992  0.4269
 1197SOL    HW2 3591   2.524   3.807   1.614 -1.4338 -2.1324 -1.1168
 1198SOL     OW 3592   2.455   0.483   3.534  0.0833  0.0669 -0.3369
 1198SOL    HW1 3593   2.527   0.542   3.513 -0.3138  0.6442 -0.1117
 1198SOL    HW2 3594   2.389   0.499   3.466 -1.1122  1.7835  1.1244
 1199SOL     OW 3595   3.328   1.138   2.602 -0.3455 -0.1286 -0.2131
 1199SOL    HW1 3596   3.236   1.155   2.586 -0.2898  0.4086 -0.0056
 1199SOL    HW2 3597   3.372   1.164   2.521 -0.2323  1.0248  0.1982
 1200SOL     OW 3598   1.593   2.399   2.937  0.4098 -0.0556  0.0107
 1200SOL    HW1 3599   1.503   2.412   2.968  0.7598 -1.2488  1.7148
 1200SOL    HW2 3600   1.595   2.309   2.905  0.5058  0.6253 -2.0491
 1201SOL     OW 3601   2.104   2.019   2.024  1.0945 -0.0208 -0.3794
 1201SOL    HW1 3602   2.097   1.988   2.114 -2.0736  0.7092 -0.2521
 1201SOL    HW2 3603   2.065   2.107   2.026  1.4932  0.2501 -2.3479
 1202SOL     OW 3604   1.798   2.187   3.495 -0.0767 -0.2117  0.0354
 1202SOL    HW1 3605   1.716   2.200   3.449  0.9975 -3.1421 -3.1539
 1202SOL    HW2 3606   1.808   2.265   3.550 -2.9251  2.2718 -2.5936
 1203SOL     OW 3607   3.365   3.959   0.848  0.8853 -0.4240 -0.1237
 1203SOL    HW1 3608   3.434   3.965   0.915  2.2603  2.2693 -1.6097
 1203SOL    HW2 3609   3.412   3.968   0.765 -1.2144  1.5821 -1.2001
 1204SOL     OW 3610   0.359   0.237   3.755 -0.2319 -0.3554 -0.7366
 1204SOL    HW1 3611   0.360   0.185   3.835 -1.1161  0.3922 -0.2235
 1204SOL    HW2 3612   0.318   0.180   3.690 -0.1062 -0.7304 -0.4876
 1205SOL     OW 3613   1.239   0.240   1.147  0.1384 -0.3575  0.0430
 1205SOL    HW1 3614   1.173   0.294   1.191 -1.3795 -1.7323 -0.4308
 1205SOL    HW2 3615   1.318   0.294   1.147 -0.2164  0.3430  2.9705
 1206SOL     OW 3616   2.277   0.468   3.326 -0.6462  0.0566 -0.3584
 1206SOL    HW1 3617   2.344   0.504   3.267  2.4425 -2.2038  1.4220
 1206SOL    HW2 3618   2.255   0.383   3.287 -0.7325 -0.2082  0.2609
 1207SOL     OW 3619   0.743   0.121   1.816  0.1536 -0.0064  0.6886
 1207SOL    HW1 3620   0.694   0.055   1.867 -0.2521 -0.5165 -0.3228
 1207SOL    HW2 3621   0.679   0.155   1.754  0.6540  0.5671  0.4780
 1208SOL     OW 3622   4.019   3.276   0.753 -0.3337 -1.2388  0.2003
 1208SOL    HW1 3623   3.970   3.290   0.835 -0.9562 -1.9681 -0.0269
 1208SOL    HW2 3624   4.008   3.182   0.736  0.3359 -1.2115 -0.3798
 1209SOL     OW 3625   3.406   0.457   3.701 -0.1897  0.6113  0.0465
 1209SOL    HW1 3626   3.434   0.532   3.649  1.2722  0.0312 -0.0677
 1209SOL    HW2 3627   3.404   0.384   3.638  0.0121  0.2328  0.4711
 1210SOL     OW 3628   2.202   0.452   2.839 -0.1529  0.5157 -0.2613
 1210SOL    HW1 3629   2.270   0.468   2.774 -0.5350 -1.0325 -1.0783
 1210SOL    HW2 3630   2.250   0.438   2.921  0.4563  0.3505 -0.6462
 1211SOL     OW 3631   1.080   2.449   2.224  0.2289 -0.3526 -0.1332
 1211SOL    HW1 3632   1.059   2.357   2.204 -0.2418 -0.0328 -1.1907
 1211SOL    HW2 3633   1.024   2.470   2.298 -1.5160 -0.2267 -1.4167
 1212SOL     OW 3634   0.001   3.337   0.374  0.4250  0.2044 -0.6617
 1212SOL    HW1 3635   0.065   3.313   0.308  0.6828 -1.9578  0.2951
 1212SOL    HW2 3636   0.052   3.372   0.447  0.1521  2.4289 -1.4390
 1213SOL     OW 3637   3.264   1.920   3.131  0.0105 -0.1509  0.3388
 1213SOL    HW1 3638   3.230   1.977   3.063  0.4714  0.1514  0.3536
 1213SOL    HW2 3639   3.245   1.831   3.101  3.1744 -0.2393 -1.8922
 1214SOL     OW 3640   3.366   1.321   1.142  0.0361 -0.2212  0.2127
 1214SOL    HW1 3641   3.307   1.329   1.068 -1.8300 -2.9954  1.2538
 1214SOL    HW2 3642   3.326   1.374   1.211 -0.1066 -0.4509  0.3045
 1215SOL     OW 3643   1.377   0.400   1.859  0.3990 -0.1946  0.8825
 1215SOL    HW1 3644   1.400   0.353   1.938  0.3075 -3.1456 -0.7169
 1215SOL    HW2 3645   1.281   0.404   1.860  0.4015 -0.1593  0.9546
 1216SOL     OW 3646   0.298   2.641   3.443  0.0394  0.2366  0.6599
 1216SOL    HW1 3647   0.383   2.685   3.444 -0.4787  1.3905 -1.1869
 1216SOL    HW2 3648   0.313   2.560   3.492  2.0667  0.6090  0.7680
 1217SOL     OW 3649   0.783   1.338   2.323 -0.6213 -0.7582  0.3391
 1217SOL    HW1 3650   0.866   1.368   2.360  0.3315 -1.9111 -0.7630
 1217SOL    HW2 3651   0.736   1.300   2.397  1.4152 -3.4151  0.4248
 1218SOL     OW 3652   3.118   2.601   1.395 -0.1143 -0.4933  0.0217
 1218SOL    HW1 3653   3.087   2.552   1.319 -1.2433  0.8045 -0.3926
 1218SOL    HW2 3654   3.169   2.673   1.359  1.8103 -1.4430  0.6405
 1219SOL     OW 3655   3.004   2.818   3.448  0.5138 -0.0018  0.3527
 1219SOL    HW1 3656   2.927   2.763   3.464 -0.5199  1.4663  0.6470
 1219SOL    HW2 3657   2.990   2.895   3.503  1.7078  0.7650 -0.3782
 1220SOL     OW 3658   2.564   2.981   3.779  0.0670 -0.2340  0.1340
 1220SOL    HW1 3659   2.562   3.040   3.704 -0.0248  0.2767  0.5259
 1220SOL    HW2 3660   2.528   2.899   3.747  0.9500 -0.3358 -0.6363
 1221SOL     OW 3661   3.088   0.461   2.298  0.6178  0.1236  0.1320
 1221SOL    HW1 3662   3.031   0.536   2.315  0.5727  0.2067 -0.3858
 1221SOL    HW2 3663   3.027   0.387   2.286  0.5110  0.4758 -1.8768
 1222SOL     OW 3664   0.273   1.328   2.279 -0.2671  0.1498 -0.9336
 1222SOL    HW1 3665   0.296   1.288   2.195 -0.1227  0.3537 -0.9940
 1222SOL    HW2 3666   0.191   1.286   2.305 -0.0833 -0.2322 -0.9627
 1223SOL     OW 3667   2.156   0.864   1.362  0.3905  0.6915  0.1515
 1223SOL    HW1 3668   2.113   0.854   1.277  3.3647 -3.7640 -1.1799
 1223SOL    HW2 3669   2.243   0.897   1.341  1.1463 -0.4052  1.3975
 1224SOL     OW 3670   2.679   3.940   0.274  0.0908  0.1471  0.4480
 1224SOL    HW1 3671   2.591   3.906   0.254 -0.5835  2.2377 -0.4292
 1224SOL    HW2 3672   2.724   3.867   0.317 -1.7653 -1.2807  0.0931
 1225SOL     OW 3673   1.834   3.962   3.536 -0.7639  0.3488  0.4832
 1225SOL    HW1 3674   1.877   3.893   3.585 -0.5623 -0.2408 -0.4913
 1225SOL    HW2 3675   1.861   4.043   3.579  1.2907  0.0070 -0.0442
 1226SOL     OW 3676   1.613   1.677   3.606 -0.1331 -0.5090  0.4010
 1226SOL    HW1 3677   1.550   1.610   3.632 -0.2975  0.4320  2.7875
 1226SOL    HW2 3678   1.559   1.755   3.591  0.3258 -0.0062  1.2826
 1227SOL     OW 3679   2.401   2.371   1.101 -0.2918 -0.5078  0.0958
 1227SOL    HW1 3680   2.464   2.443   1.109 -1.8619  0.6602  4.1885
 1227SOL    HW2 3681   2.349   2.394   1.024  0.9378  1.3282 -0.2558
 1228SOL     OW 3682   2.476   1.403   1.841 -0.2569 -0.6360  0.0233
 1228SOL    HW1 3683   2.451   1.496   1.842 -1.2632 -0.8769 -0.8387
 1228SOL    HW2 3684   2.564   1.402   1.878  1.2369  1.1154 -3.0571
 1229SOL     OW 3685   0.052   0.823   2.969  0.1254  0.6857  0.0395
 1229SOL    HW1 3686   0.098   0.739   2.976 -1.6107 -0.4974 -1.6860
 1229SOL    HW2 3687   0.075   0.870   3.049  2.9013 -0.5003  0.0680
 1230SOL     OW 3688   1.877   3.300   3.770 -0.1760  0.5155 -0.1922
 1230SOL    HW1 3689   1.785   3.274   3.766 -0.5392  1.9130 -2.5167
 1230SOL    HW2 3690   1.894   3.312   3.864 -2.5143  0.8020  0.2601
 1231SOL     OW 3691   1.052   2.553   2.655 -0.7139 -0.4387  0.1720
 1231SOL    HW1 3692   1.090   2.558   2.567 -0.0554 -1.2449  0.4127
 1231SOL    HW2 3693   1.123   2.579   2.714 -0.6602 -1.5106  0.5873
 1232SOL     OW 3694   3.475   2.749   0.311  0.3989  0.3506  0.1944
 1232SOL    HW1 3695   3.459   2.832   0.266 -0.9467  0.5708  1.0165
 1232SOL    HW2 3696   3.524   2.696   0.248 -0.2979  1.1234 -1.0216
 1233SOL     OW 3697   2.685   3.648   0.331  0.8461 -0.0546  0.7125
 1233SOL    HW1 3698   2.597   3.620   0.358 -0.0783  0.5721 -1.3863
 1233SOL    HW2 3699   2.743   3.613   0.398 -0.7887 -2.2943  1.0876
 1234SOL     OW 3700   2.691   2.653   3.305 -0.1628  0.4390 -0.4806
 1234SOL    HW1 3701   2.606   2.683   3.335 -0.1988 -0.6633  0.6264
 1234SOL    HW2 3702   2.744   2.646   3.385  1.0636  1.3723 -1.1708
 1235SOL     OW 3703   3.429   3.326   2.647  0.2791  0.4883  0.1186
 1235SOL    HW1 3704   3.377   3.309   2.725 -0.7499  0.1738 -0.6176
 1235SOL    HW2 3705   3.519   3.305   2.673 -0.4141 -2.5911  0.3593
 1236SOL     OW 3706   2.666   1.045   1.938 -0.2138  0.0845 -0.1686
 1236SOL    HW1 3707   2.661   1.075   1.848  1.0133 -1.1832 -0.7023
 1236SOL    HW2 3708   2.575   1.042   1.968 -0.7966 -1.0628 -1.9096
 1237SOL     OW 3709   1.535   1.808   2.561 -0.3965  0.0658  0.6791
 1237SOL    HW1 3710   1.467   1.843   2.619  0.7622 -0.4328  2.4458
 1237SOL    HW2 3711   1.548   1.877   2.495  0.2827  2.0556  2.7436
 1238SOL     OW 3712   2.511   2.281   2.046 -0.0452  0.1189  0.4961
 1238SOL    HW1 3713   2.442   2.257   2.108 -1.9149  0.3913 -1.3454
 1238SOL    HW2 3714   2.524   2.202   1.993 -2.1647  1.2258 -1.9343
 1239SOL     OW 3715   1.306   1.665   3.236  0.7344 -0.3032 -0.4903
 1239SOL    HW1 3716   1.247   1.631   3.168  0.2049 -1.7432  0.6371
 1239SOL    HW2 3717   1.262   1.645   3.318  1.0738  1.9578  0.3097
 1240SOL     OW 3718   1.381   2.432   1.153 -0.5233  0.8005  0.6539
 1240SOL    HW1 3719   1.324   2.441   1.077 -0.3707 -0.7929  0.3177
 1240SOL    HW2 3720   1.458   2.385   1.121 -0.1742  0.6547  1.6562
 1241SOL     OW 3721   2.822   3.810   2.483  0.7079 -0.4046  0.3822
 1241SOL    HW1 3722   2.908   3.834   2.449  0.7582  0.3076  0.9791
 1241SOL    HW2 3723   2.829   3.825   2.578 -0.1655 -0.0278  0.3951
 1242SOL     OW 3724   3.672   0.377   0.178  0.0130 -0.0621 -0.3444
 1242SOL    HW1 3725   3.605   0.339   0.121 -1.3801 -0.5206  1.5114
 1242SOL    HW2 3726   3.628   0.448   0.223  0.8544 -0.1950  0.7090
 1243SOL     OW 3727   2.215   0.895   2.866 -0.0505  0.3708  0.1219
 1243SOL    HW1 3728   2.184   0.985   2.873 -0.1450  0.4197 -0.7769
 1243SOL    HW2 3729   2.306   0.899   2.895  0.1615  0.8981 -0.5767
 1244SOL     OW 3730   2.075   2.215   3.490 -0.3102  0.5247 -0.0920
 1244SOL    HW1 3731   1.987   2.212   3.453 -0.7387 -0.1885  0.9212
 1244SOL    HW2 3732   2.074   2.148   3.559  0.5865  1.4513  0.8714
 1245SOL     OW 3733   1.688   0.025   3.291  0.6410 -0.1724 -0.0505
 1245SOL    HW1 3734   1.729   0.110   3.279  0.3551 -0.2764 -2.1192
 1245SOL    HW2 3735   1.750  -0.024   3.346  0.9099  1.2564  0.9785
 1246SOL     OW 3736   3.201   1.537   2.378  0.1547  0.3560 -0.0664
 1246SOL    HW1 3737   3.118   1.493   2.358 -0.7458  1.4075  1.2324
 1246SOL    HW2 3738   3.239   1.485   2.449  0.1207  0.4562  0.0246
 1247SOL     OW 3739   1.044   1.120   3.575 -0.2160 -0.7613 -0.3995
 1247SOL    HW1 3740   1.037   1.030   3.607  0.1711 -0.8468 -0.5592
 1247SOL    HW2 3741   1.093   1.114   3.493  2.4533 -0.1070  1.0363
 1248SOL     OW 3742   2.347   2.669   1.899 -0.6252  0.6705  1.1134
 1248SOL    HW1 3743   2.335   2.763   1.885 -1.6586  0.8621  2.8978
 1248SOL    HW2 3744   2.349   2.631   1.811 -1.2992  2.2470  0.3819
 1249SOL     OW 3745   3.364   2.878   2.847  0.3369 -0.0366  0.3827
 1249SOL    HW1 3746   3.419   2.800   2.853 -0.9112 -1.0979 -1.2537
 1249SOL    HW2 3747   3.279   2.851   2.881 -0.4866  0.1971 -1.4042
 1250SOL     OW 3748   3.373   0.401   2.433  0.6572 -0.1433 -0.3233
 1250SOL    HW1 3749   3.278   0.404   2.420  0.8406  0.1932 -1.6976
 1250SOL    HW2 3750   3.390   0.467   2.500  0.0001  0.3683 -0.6457
 1251SOL     OW 3751   0.392   2.740   1.970  0.0436 -0.3533  0.1433
 1251SOL    HW1 3752   0.436   2.822   1.950  2.2529 -2.0398 -2.7489
 1251SOL    HW2 3753   0.341   2.721   1.891 -1.8475 -0.9671  1.4539
 1252SOL     OW 3754   0.498   3.010   1.388 -0.5702 -0.7562 -0.0962
 1252SOL    HW1 3755   0.514   2.942   1.454 -1.2535  0.3393  1.2393
 1252SOL    HW2 3756   0.404   3.006   1.373 -0.5846 -0.2187 -0.1480
 1253SOL     OW 3757   3.696   2.249   1.667 -0.0369  0.3838 -0.3708
 1253SOL    HW1 3758   3.723   2.288   1.750  1.5032  1.1360 -1.1903
 1253SOL    HW2 3759   3.605   2.277   1.656 -1.1715 -1.7767  2.2066
 1254SOL     OW 3760   3.857   1.499   0.542  0.3398 -0.8856  0.2598
 1254SOL    HW1 3761   3.803   1.449   0.603  0.0087  0.6407  1.2445
 1254SOL    HW2 3762   3.811   1.491   0.458 -1.5369  0.4641  1.0920
 1255SOL     OW 3763   1.562   0.475   3.452  0.0419  0.1735 -0.3723
 1255SOL    HW1 3764   1.616   0.553   3.462 -0.6100  0.4524  1.2425
 1255SOL    HW2 3765   1.614   0.405   3.491 -1.1902  0.6639  2.3002
 1256SOL     OW 3766   1.040   3.113   2.000 -0.1262  0.6295 -0.0087
 1256SOL    HW1 3767   1.052   3.139   2.092  2.1247  2.1307 -0.6311
 1256SOL    HW2 3768   1.120   3.143   1.956 -1.2872  0.2884 -2.5459
 1257SOL     OW 3769   3.450   2.817   0.999  0.1462 -1.0739  0.7133
 1257SOL    HW1 3770   3.411   2.898   1.031 -2.0873 -1.2578 -1.2737
 1257SOL    HW2 3771   3.493   2.779   1.076 -2.7112 -0.3037  2.8568
 1258SOL     OW 3772   1.860   2.099   1.715  0.4131 -0.0513  0.4322
 1258SOL    HW1 3773   1.899   2.012   1.703  1.6341 -0.1905  4.1185
 1258SOL    HW2 3774   1.914   2.156   1.661  1.2959 -1.2447 -0.0083
 1259SOL     OW 3775   3.237   1.718   0.507 -0.1663 -0.7387  0.0902
 1259SOL    HW1 3776   3.313   1.663   0.528 -1.1376 -2.4074 -0.6002
 1259SOL    HW2 3777   3.161   1.666   0.535 -1.1514  0.0350 -1.0393
 1260SOL     OW 3778   1.190   3.780   1.970 -0.2822 -0.4332  0.3396
 1260SOL    HW1 3779   1.213   3.787   2.062 -1.8450  0.4912  0.7058
 1260SOL    HW2 3780   1.187   3.871   1.939 -1.9173 -0.5599 -0.0041
 1261SOL     OW 3781   2.604   1.695   3.578 -0.4672  0.0392  1.1562
 1261SOL    HW1 3782   2.558   1.661   3.502 -0.5409 -1.3332  1.7744
 1261SOL    HW2 3783   2.660   1.764   3.544 -1.2860  0.1669  0.0397
 1262SOL     OW 3784   0.963   2.352   0.386 -0.9045  0.5833  0.8882
 1262SOL    HW1 3785   1.001   2.388   0.306 -0.7493 -0.5252  0.4407
 1262SOL    HW2 3786   0.871   2.377   0.382 -1.1189 -0.2976 -0.1500
 1263SOL     OW 3787   3.096   2.923   3.905  0.1170 -0.7694  0.6914
 1263SOL    HW1 3788   3.019   2.869   3.888 -0.6609  0.6712 -0.5524
 1263SOL    HW2 3789   3.108   2.974   3.825 -0.8352  2.9011  2.6811
 1264SOL     OW 3790   3.400   0.791   0.964 -0.2783  0.4288  0.8485
 1264SOL    HW1 3791   3.385   0.874   0.918 -2.1255 -0.1489  0.2838
 1264SOL    HW2 3792   3.441   0.734   0.899 -0.8996  0.2847  0.5733
 1265SOL     OW 3793   2.008   0.672   2.807  0.3815  0.4702 -0.6824
 1265SOL    HW1 3794   2.026   0.579   2.799 -0.9358  0.0991  0.3425
 1265SOL    HW2 3795   2.084   0.715   2.767  0.2861 -1.0360 -2.6307
 1266SOL     OW 3796   2.647   0.497   1.720  0.2164  0.1091  0.2255
 1266SOL    HW1 3797   2.715   0.432   1.738 -0.9527 -0.3456  3.5884
 1266SOL    HW2 3798   2.565   0.451   1.737 -0.8389  1.4303 -1.0919
 1267SOL     OW 3799   1.914   2.766   1.739  0.5649  0.2551  0.0176
 1267SOL    HW1 3800   1.863   2.740   1.662 -3.2192  3.1791  1.1795
 1267SOL    HW2 3801   1.986   2.703   1.743 -1.3087 -2.5024 -3.5484
 1268SOL     OW 3802   2.453   2.791   3.610  1.0760  0.1281 -0.2790
 1268SOL    HW1 3803   2.439   2.825   3.522 -5.2916 -2.2782 -0.7212
 1268SOL    HW2 3804   2.519   2.723   3.599  1.3751  0.7273 -2.9332
 1269SOL     OW 3805   0.742   1.069   1.179 -0.0020 -0.0812  1.0354
 1269SOL    HW1 3806   0.728   1.041   1.089 -0.3255 -0.8765  1.3296
 1269SOL    HW2 3807   0.658   1.108   1.206 -0.4854 -1.4275  1.5546
 1270SOL     OW 3808   1.557   2.128   3.813 -0.6157 -1.0430 -0.1708
 1270SOL    HW1 3809   1.542   2.137   3.907  1.2179 -0.0057  0.0543
 1270SOL    HW2 3810   1.544   2.216   3.778 -1.0551 -1.3755 -0.8853
 1271SOL     OW 3811   0.916   1.022   2.490 -0.2834 -0.3227 -0.6618
 1271SOL    HW1 3812   0.883   0.992   2.575  2.8672 -0.5104  0.5985
 1271SOL    HW2 3813   0.860   0.976   2.426 -1.4926 -1.6926  1.2570
 1272SOL     OW 3814   0.235   0.804   1.438 -0.0342  0.3904  0.1891
 1272SOL    HW1 3815   0.239   0.712   1.412  0.4222 -0.1048  1.8588
 1272SOL    HW2 3816   0.265   0.804   1.529 -1.9280  1.9285  0.8796
 1273SOL     OW 3817   0.544   3.276   1.207  0.0751 -0.0498  0.0737
 1273SOL    HW1 3818   0.565   3.240   1.293  0.5266 -1.1724 -0.4823
 1273SOL    HW2 3819   0.614   3.244   1.150 -0.6166  0.0548 -0.8586
 1274SOL     OW 3820   1.133   3.955   3.179 -0.3582  0.3017  0.3560
 1274SOL    HW1 3821   1.051   4.003   3.168  0.3881  1.5064 -0.1532
 1274SOL    HW2 3822   1.159   3.931   3.090  0.7770  1.5877  0.3008
 1275SOL     OW 3823   4.006   0.529   1.692  0.0854  0.5003  0.3971
 1275SOL    HW1 3824   3.953   0.522   1.771  0.5615 -1.4260  0.6044
 1275SOL    HW2 3825   3.963   0.470   1.629 -0.9251  2.8176 -1.2143
 1276SOL     OW 3826   3.625   1.441   3.496  0.0772 -0.6046 -0.5170
 1276SOL    HW1 3827   3.718   1.423   3.506  0.3143  1.1765  1.1943
 1276SOL    HW2 3828   3.617   1.536   3.507 -1.8198 -0.5405 -1.8436
 1277SOL     OW 3829   0.755   1.438   2.019 -0.5682 -0.0026  0.2037
 1277SOL    HW1 3830   0.688   1.503   2.042 -0.7114  0.4266 -1.3284
 1277SOL    HW2 3831   0.767   1.387   2.100 -1.8378  0.6968  0.8764
 1278SOL     OW 3832   1.718   3.842   1.545  0.0721 -0.4384  1.2685
 1278SOL    HW1 3833   1.729   3.754   1.508 -2.0714 -0.6716  1.0627
 1278SOL    HW2 3834   1.623   3.857   1.541  0.2006  1.0847  3.1449
 1279SOL     OW 3835   3.883   0.166   0.852 -0.3684  0.7096 -0.2453
 1279SOL    HW1 3836   3.887   0.210   0.937  1.1219  1.2000 -0.5477
 1279SOL    HW2 3837   3.804   0.201   0.811 -1.6412 -0.2135  1.2591
 1280SOL     OW 3838   1.786   0.249   0.076  0.8627 -0.2330 -0.0666
 1280SOL    HW1 3839   1.874   0.226   0.106  0.8149 -0.4033 -0.0584
 1280SOL    HW2 3840   1.775   0.199  -0.005  0.4453 -0.8791  0.3785
 1281SOL     OW 3841   2.543   3.885   1.924 -0.5314 -0.3335  0.3616
 1281SOL    HW1 3842   2.564   3.976   1.947 -5.2330  0.6739  1.8744
 1281SOL    HW2 3843   2.559   3.836   2.004  3.5785 -1.4460 -0.8914
 1282SOL     OW 3844   3.616   3.163   2.381  0.5424  0.2376 -0.3247
 1282SOL    HW1 3845   3.589   3.175   2.472 -0.4453  0.2861 -0.6145
 1282SOL    HW2 3846   3.681   3.093   2.384 -0.6811 -0.8982  0.2287
 1283SOL     OW 3847   2.789   3.265   3.236 -0.2434  0.0914  0.2762
 1283SOL    HW1 3848   2.774   3.176   3.205 -0.6439 -0.0136  0.7681
 1283SOL    HW2 3849   2.884   3.277   3.228 -0.1854 -0.3801  0.2244
 1284SOL     OW 3850   2.850   3.958   2.168  0.1720  0.1474 -0.2542
 1284SOL    HW1 3851   2.863   4.005   2.250 -1.9172  0.3444  0.0206
 1284SOL    HW2 3852   2.892   3.873   2.181  2.2117  1.1351 -0.0117
 1285SOL     OW 3853   3.184   1.706   2.062  0.0974  0.1873  0.5031
 1285SOL    HW1 3854   3.245   1.668   1.999  0.7791  0.8979  0.7124
 1285SOL    HW2 3855   3.098   1.677   2.034  0.6133 -1.9149  0.9226
 1286SOL     OW 3856   2.287   2.542   0.893 -0.1741 -0.0448 -0.1664
 1286SOL    HW1 3857   2.325   2.552   0.805 -0.5141 -0.3652 -0.3527
 1286SOL    HW2 3858   2.282   2.631   0.927 -0.9043  0.1827 -0.8429
 1287SOL     OW 3859   1.557  -0.007   2.536 -0.1426 -0.1965 -0.1458
 1287SOL    HW1 3860   1.635   0.049   2.541 -1.6130  2.1618 -1.6428
 1287SOL    HW2 3861   1.556  -0.040   2.446 -1.3496  0.6057 -0.4529
 1288SOL     OW 3862   3.709   3.650   1.226 -0.1019  0.4712 -0.0466
 1288SOL    HW1 3863   3.677   3.709   1.293 -1.3490  0.2626 -0.4288
 1288SOL    HW2 3864   3.804   3.664   1.224 -0.4627  3.5268 -1.1169
 1289SOL     OW 3865   3.827   1.590   3.057  0.5197 -0.6871  0.1539
 1289SOL    HW1 3866   3.742   1.575   3.100  1.7312  0.5902  3.3107
 1289SOL    HW2 3867   3.832   1.522   2.990 -1.8390 -2.5385  1.6761
 1290SOL     OW 3868   1.776   0.113   1.495  0.1125  0.0733 -0.5816
 1290SOL    HW1 3869   1.856   0.142   1.537  1.1044 -0.0325 -2.2844
 1290SOL    HW2 3870   1.760   0.025   1.530  1.2917 -0.2876 -0.9060
 1291SOL     OW 3871   2.344   2.148   3.781  0.2828  0.1469  0.6669
 1291SOL    HW1 3872   2.352   2.053   3.779  0.7821  0.1994 -0.6915
 1291SOL    HW2 3873   2.434   2.180   3.783  0.1273  0.6048  0.4818
 1292SOL     OW 3874   3.319   0.180   2.918  0.4593  0.0285 -0.2007
 1292SOL    HW1 3875   3.380   0.172   2.844  0.1805 -1.0147 -0.3410
 1292SOL    HW2 3876   3.354   0.119   2.984  1.0487  1.3776  0.8026
 1293SOL     OW 3877   3.834   3.129   0.459  0.2161  0.6771  0.2396
 1293SOL    HW1 3878   3.899   3.198   0.447  1.5762 -0.5289  0.3973
 1293SOL    HW2 3879   3.841   3.106   0.552  2.1772 -1.9004 -0.4463
 1294SOL     OW 3880   3.740   3.394   0.528  0.0337 -0.8129  0.2231
 1294SOL    HW1 3881   3.799   3.429   0.461 -1.4310  0.8921 -0.2749
 1294SOL    HW2 3882   3.754   3.300   0.527  3.4956 -0.4160  0.9116
 1295SOL     OW 3883   1.644   2.309   2.421  0.3844  0.2291  0.1304
 1295SOL    HW1 3884   1.629   2.395   2.461 -0.2041 -0.1878  0.8334
 1295SOL    HW2 3885   1.631   2.247   2.492 -0.9884 -0.5628 -0.7606
 1296SOL     OW 3886   1.548   1.698   1.797 -0.7370 -0.3757  0.1010
 1296SOL    HW1 3887   1.554   1.711   1.702 -0.7620  2.3428  0.4037
 1296SOL    HW2 3888   1.576   1.781   1.835  0.3044 -1.7234  2.5533
 1297SOL     OW 3889   1.506   2.456   1.998  0.1320  0.5742  0.3370
 1297SOL    HW1 3890   1.541   2.540   2.028 -1.5409  1.2306  0.5396
 1297SOL    HW2 3891   1.478   2.473   1.908 -1.4322  0.6358  0.8099
 1298SOL     OW 3892   1.851   3.238   2.954  0.2524  0.8432  0.3898
 1298SOL    HW1 3893   1.830   3.231   2.861 -0.3153 -4.0420  0.6262
 1298SOL    HW2 3894   1.765   3.241   2.997  0.4917  1.4981  0.8322
 1299SOL     OW 3895   2.649   2.191   0.436  0.4537  0.2795  0.1843
 1299SOL    HW1 3896   2.598   2.216   0.513 -0.1552  0.6746 -0.3433
 1299SOL    HW2 3897   2.740   2.199   0.464  0.2652 -1.7202  1.5541
 1300SOL     OW 3898   0.742   0.918   0.953 -0.7069 -0.5374  0.2712
 1300SOL    HW1 3899   0.669   0.959   0.906  0.2616  0.9117 -0.0402
 1300SOL    HW2 3900   0.815   0.920   0.891  0.6282  1.5062  1.7912
 1301SOL     OW 3901   2.566   3.547   2.781  0.3432 -0.2211  0.5085
 1301SOL    HW1 3902   2.590   3.502   2.701  1.3537  1.0435  0.0593
 1301SOL    HW2 3903   2.515   3.623   2.752  3.3067  2.0426  0.6665
 1302SOL     OW 3904   3.557   1.364   1.975 -0.1019 -0.0271 -0.1672
 1302SOL    HW1 3905   3.606   1.324   2.047  0.4293 -0.0140 -0.5151
 1302SOL    HW2 3906   3.577   1.457   1.981 -2.2279  0.4045  1.3321
 1303SOL     OW 3907   0.377   3.635   1.425  0.3231 -0.0148 -0.0579
 1303SOL    HW1 3908   0.411   3.724   1.412  2.0209 -0.6266 -0.0234
 1303SOL    HW2 3909   0.455   3.582   1.444 -0.8133 -1.2562  1.3603
 1304SOL     OW 3910   0.017   2.134   1.755  0.2757  0.5590  0.0410
 1304SOL    HW1 3911   0.086   2.075   1.726  0.0297 -0.8269  2.0585
 1304SOL    HW2 3912  -0.051   2.128   1.688 -0.2771 -2.4712  0.7258
 1305SOL     OW 3913   3.251   2.997   1.155  0.0378 -0.4261 -0.9006
 1305SOL    HW1 3914   3.258   2.949   1.237 -2.3286 -3.9600 -2.4990
 1305SOL    HW2 3915   3.157   3.007   1.140  0.3376 -0.5033 -3.4283
 1306SOL     OW 3916   2.784   1.721   1.146 -0.2906 -0.0416 -0.0615
 1306SOL    HW1 3917   2.698   1.711   1.106 -0.6161 -1.5574  0.9194
 1306SOL    HW2 3918   2.846   1.700   1.077 -0.6385  1.7938 -0.9916
 1307SOL     OW 3919   2.653   0.605   2.147  0.7494 -0.5307 -0.5237
 1307SOL    HW1 3920   2.628   0.688   2.106 -0.5697 -1.2165 -1.2122
 1307SOL    HW2 3921   2.708   0.629   2.221 -1.3695  1.1045  0.6112
 1308SOL     OW 3922   3.069   2.253   0.411 -0.1164  0.0406  0.5650
 1308SOL    HW1 3923   3.094   2.269   0.502  0.1224  0.4289  0.4351
 1308SOL    HW2 3924   3.152   2.253   0.364 -0.4360  3.3025 -0.1885
 1309SOL     OW 3925   3.400   2.751   1.441 -0.7487 -0.4510 -0.2843
 1309SOL    HW1 3926   3.344   2.828   1.446  0.5374  0.5662 -0.9603
 1309SOL    HW2 3927   3.389   2.708   1.525  0.8457  2.1615  1.3968
 1310SOL     OW 3928   2.923   0.622   1.042  0.2257 -0.5324  0.2719
 1310SOL    HW1 3929   2.974   0.569   0.982  1.3568  0.7715  0.0372
 1310SOL    HW2 3930   2.921   0.709   1.002 -0.4342 -0.0533  1.2988
 1311SOL     OW 3931   3.559   2.424   1.113 -0.2324 -0.1683 -0.4342
 1311SOL    HW1 3932   3.531   2.514   1.127 -0.7677 -0.1894 -1.3035
 1311SOL    HW2 3933   3.515   2.397   1.033  0.2135 -1.0845 -0.3877
 1312SOL     OW 3934   0.586   1.725   2.899  0.4360  0.4937  0.2213
 1312SOL    HW1 3935   0.527   1.759   2.966  0.4384 -0.8419  0.9196
 1312SOL    HW2 3936   0.595   1.632   2.919  0.9454  0.1970 -1.2590
 1313SOL     OW 3937   1.524   2.031   2.338 -0.6783 -0.1081  0.2907
 1313SOL    HW1 3938   1.574   2.104   2.302  1.9405 -1.1503  1.5883
 1313SOL    HW2 3939   1.452   2.073   2.385 -1.2790  1.4469 -1.8431
 1314SOL     OW 3940   1.431   2.014   1.703  0.4816 -0.2931 -0.7152
 1314SOL    HW1 3941   1.464   2.100   1.679 -0.9499  0.2007 -1.0249
 1314SOL    HW2 3942   1.455   2.003   1.795 -2.5908  2.1652  0.5993
 1315SOL     OW 3943   2.854   0.086   3.422  0.7699  0.3022 -0.0313
 1315SOL    HW1 3944   2.871   0.146   3.350  0.5374  0.1834 -0.1853
 1315SOL    HW2 3945   2.797   0.135   3.481 -1.1884 -0.4724 -1.1744
 1316SOL     OW 3946   0.707   3.319   0.214 -0.6568  0.0505 -0.2491
 1316SOL    HW1 3947   0.725   3.412   0.196 -0.8026  0.1917  0.3191
 1316SOL    HW2 3948   0.763   3.297   0.287 -1.5896  0.0611  0.4934
 1317SOL     OW 3949   1.501   3.730   2.630 -0.2178 -0.0656 -0.0573
 1317SOL    HW1 3950   1.536   3.806   2.583 -1.3093  0.1816 -0.5018
 1317SOL    HW2 3951   1.548   3.729   2.713  2.0458 -0.7246 -1.2469
 1318SOL     OW 3952   1.958   1.775   3.881  0.0107  0.3364  0.1472
 1318SOL    HW1 3953   1.949   1.760   3.975  1.1532  2.4238  0.6554
 1318SOL    HW2 3954   1.888   1.836   3.859  1.1708  1.7368  0.1857
 1319SOL     OW 3955   1.647   3.473   1.078 -0.1065 -0.3985  0.4256
 1319SOL    HW1 3956   1.740   3.450   1.073 -0.1832 -0.5396 -0.8393
 1319SOL    HW2 3957   1.643   3.545   1.141  0.8665 -0.3591  0.4558
 1320SOL     OW 3958   0.536   2.853   2.400  1.2094  0.2358 -0.2942
 1320SOL    HW1 3959   0.631   2.855   2.407  1.2757 -1.8577 -0.0004
 1320SOL    HW2 3960   0.518   2.780   2.341 -0.2576 -0.2976  0.7716
 1321SOL     OW 3961   0.954   0.227   3.799  0.3553  0.3033 -0.2835
 1321SOL    HW1 3962   0.865   0.260   3.787  0.7588  1.3682 -0.4423
 1321SOL    HW2 3963   0.943   0.133   3.814 -0.9599  0.7121  1.7326
 1322SOL     OW 3964   1.184   2.848   1.088 -0.0936 -0.5509 -0.0521
 1322SOL    HW1 3965   1.254   2.858   1.024  1.2237  0.0664  1.4192
 1322SOL    HW2 3966   1.104   2.845   1.036  0.8059  1.1301 -1.6508
 1323SOL     OW 3967   3.701   1.762   0.140 -0.0900  0.6896 -0.2796
 1323SOL    HW1 3968   3.619   1.748   0.188  0.2998 -0.1822  0.1369
 1323SOL    HW2 3969   3.674   1.766   0.048 -0.3029 -2.6272 -0.4623
 1324SOL     OW 3970   3.043   3.093   3.016 -0.5178 -0.1339  0.0984
 1324SOL    HW1 3971   3.105   3.032   3.055  0.3088 -2.4769 -4.1880
 1324SOL    HW2 3972   2.966   3.040   2.997 -1.9115  1.5236  0.8088
 1325SOL     OW 3973   3.491   0.491   0.411  0.2549 -0.5991 -0.2177
 1325SOL    HW1 3974   3.444   0.420   0.368 -2.2116 -0.1481  1.4809
 1325SOL    HW2 3975   3.453   0.571   0.374 -1.1704 -0.2174  1.8658
 1326SOL     OW 3976   3.825   1.204   1.879 -0.3781  0.3064 -0.1636
 1326SOL    HW1 3977   3.768   1.280   1.889 -1.8328 -0.7057 -0.5031
 1326SOL    HW2 3978   3.883   1.228   1.806 -1.9730  0.4562 -1.4527
 1327SOL     OW 3979   2.357   3.003   0.137  0.2138 -0.3765  0.3840
 1327SOL    HW1 3980   2.415   3.072   0.105 -1.7746  1.1562 -0.1213
 1327SOL    HW2 3981   2.352   3.018   0.231  0.8944 -0.7356  0.4816
 1328SOL     OW 3982   1.644   2.899  -0.003 -0.4272 -0.0898  0.2433
 1328SOL    HW1 3983   1.628   2.993  -0.011 -0.3314 -0.1981 -1.6496
 1328SOL    HW2 3984   1.592   2.872   0.072  1.1164  1.8096  2.1285
 1329SOL     OW 3985   0.433   2.447   3.607 -0.2044 -0.0627  0.1350
 1329SOL    HW1 3986   0.448   2.463   3.701  0.7465 -3.7468  0.7588
 1329SOL    HW2 3987   0.342   2.419   3.602 -0.0692 -0.4940  0.0672
 1330SOL     OW 3988   1.860   2.186   0.024 -0.2961 -0.8692 -0.2669
 1330SOL    HW1 3989   1.955   2.173   0.028 -0.2714 -0.4019  0.9817
 1330SOL    HW2 3990   1.849   2.281   0.026 -0.7554 -0.8552 -1.8672
 1331SOL     OW 3991   3.909   0.358   2.238  0.6600  0.0538  0.0701
 1331SOL    HW1 3992   3.999   0.387   2.250  0.7034 -0.1765  0.3085
 1331SOL    HW2 3993   3.886   0.316   2.321  0.3904 -0.0408 -0.0509
 1332SOL     OW 3994   3.000   2.666   0.446  0.2520 -0.3233  0.3043
 1332SOL    HW1 3995   3.038   2.752   0.464  1.8615 -0.7387 -0.9213
 1332SOL    HW2 3996   3.068   2.604   0.471  0.6406 -1.0693 -2.3226
 1333SOL     OW 3997   2.541   0.222   3.375 -0.3244  0.1917 -0.0129
 1333SOL    HW1 3998   2.610   0.282   3.404  1.3304 -1.7191  0.1938
 1333SOL    HW2 3999   2.480   0.218   3.449 -0.5731  1.6985 -0.0981
 1334SOL     OW 4000   2.202   1.538   2.353 -0.1272  0.4546 -0.4949
 1334SOL    HW1 4001   2.130   1.494   2.308  1.8294 -1.7468 -1.7043
 1334SOL    HW2 4002   2.163   1.618   2.387 -2.4442  0.9437 -3.7545
 1335SOL     OW 4003   1.530   0.155   3.046 -0.2454  0.0420  0.2227
 1335SOL    HW1 4004   1.608   0.176   3.097 -0.4976  0.5847  0.3900
 1335SOL    HW2 4005   1.469   0.226   3.064 -0.9282 -0.5698  0.3966
 1336SOL     OW 4006   0.346   1.848   3.538  0.0305  0.6856  0.0486
 1336SOL    HW1 4007   0.394   1.773   3.572 -2.0442 -0.1749  1.2638
 1336SOL    HW2 4008   0.401   1.924   3.558  0.6655 -0.1906  1.8245
 1337SOL     OW 4009   0.071   2.861   1.877 -0.0349 -0.0390 -0.2132
 1337SOL    HW1 4010   0.106   2.784   1.833 -0.4696  0.3273 -1.2558
 1337SOL    HW2 4011  -0.024   2.855   1.864 -0.1898  0.0285  0.7959
 1338SOL     OW 4012   3.580   1.160   1.620 -0.2915  0.8041  0.5998
 1338SOL    HW1 4013   3.606   1.068   1.618 -0.2018  0.6362 -4.7615
 1338SOL    HW2 4014   3.660   1.207   1.645  0.8498 -0.4633 -0.4926
 1339SOL     OW 4015   0.785   2.013   0.047 -0.1633 -0.0868 -0.0818
 1339SOL    HW1 4016   0.773   1.934   0.101  0.1109 -1.2125 -1.5882
 1339SOL    HW2 4017   0.699   2.054   0.046 -0.1175  0.1210  1.4074
 1340SOL     OW 4018   1.664   1.900   0.986  0.6118 -0.5964  0.7704
 1340SOL    HW1 4019   1.641   1.862   1.071 -2.2391  0.6670  0.6769
 1340SOL    HW2 4020   1.588   1.952   0.961  2.5237  1.5206 -1.1912
 1341SOL     OW 4021   2.869   1.887   2.767  0.5027 -0.0249 -0.8072
 1341SOL    HW1 4022   2.878   1.959   2.829  0.8096 -0.2025 -0.6461
 1341SOL    HW2 4023   2.794   1.912   2.712 -0.8544 -0.6585  0.6942
 1342SOL     OW 4024   3.449   3.943   3.873  0.3130  0.2561 -0.1470
 1342SOL    HW1 4025   3.516   3.983   3.929  1.0750  1.5326 -1.8653
 1342SOL    HW2 4026   3.456   3.849   3.891  0.2588  0.6328  2.1240
 1343SOL     OW 4027   1.832   0.439   2.385  0.2314  0.3936 -0.5206
 1343SOL    HW1 4028   1.790   0.476   2.307  0.4135  0.2560 -0.6874
 1343SOL    HW2 4029   1.919   0.479   2.385  0.5923 -0.3775 -0.9580
 1344SOL     OW 4030   0.721   0.543   3.099 -0.0018 -0.3878  0.1597
 1344SOL    HW1 4031   0.804   0.589   3.110  0.1679 -0.5363 -0.4397
 1344SOL    HW2 4032   0.742   0.471   3.039  0.2727 -2.6298  2.7475
 1345SOL     OW 4033   1.865   2.625   3.455 -0.1887 -0.4314  0.0689
 1345SOL    HW1 4034   1.853   2.583   3.540 -2.2088 -2.0423 -0.9310
 1345SOL    HW2 4035   1.808   2.577   3.396 -0.0963  1.6767 -1.8902
 1346SOL     OW 4036   1.536   1.444   0.322 -0.0582  0.2318  0.2412
 1346SOL    HW1 4037   1.506   1.442   0.412 -2.5713 -0.7529 -0.5468
 1346SOL    HW2 4038   1.480   1.381   0.276  1.7575  0.0106 -1.8405
 1347SOL     OW 4039   3.879   2.802   3.210  0.0478  0.4373 -0.2393
 1347SOL    HW1 4040   3.871   2.868   3.279 -3.4800 -1.8572  1.8635
 1347SOL    HW2 4041   3.957   2.752   3.235 -0.1357  0.7599  1.0672
 1348SOL     OW 4042   0.627   1.595   0.796  0.1972 -0.3541  0.3359
 1348SOL    HW1 4043   0.532   1.590   0.795  0.0120  0.3197  3.7722
 1348SOL    HW2 4044   0.654   1.531   0.862  2.1179 -0.1177 -0.1571
 1349SOL     OW 4045   0.397   2.564   3.936  0.0936  0.2555 -0.1894
 1349SOL    HW1 4046   0.475   2.607   3.900 -0.3091  2.3173  1.1885
 1349SOL    HW2 4047   0.382   2.608   4.020 -2.2569 -0.4202 -0.1752
 1350SOL     OW 4048   3.791   1.330   2.145  0.4034  0.5887  0.1933
 1350SOL    HW1 4049   3.822   1.251   2.101 -0.5712  0.5564 -0.4862
 1350SOL    HW2 4050   3.870   1.374   2.176  0.8819 -1.7526  2.5786
 1351SOL     OW 4051   3.801   1.222   1.361  0.5143  0.2304  0.1480
 1351SOL    HW1 4052   3.790   1.303   1.411 -0.7704 -0.3906  0.9320
 1351SOL    HW2 4053   3.785   1.248   1.270  3.5833  1.5162 -0.1578
 1352SOL     OW 4054   0.187   2.338   1.812 -0.1283  0.2275 -0.1609
 1352SOL    HW1 4055   0.094   2.321   1.800  0.1348 -0.8481 -0.7431
 1352SOL    HW2 4056   0.214   2.277   1.881  0.3048  0.0270 -0.5062
 1353SOL     OW 4057   3.217   2.766   1.960  0.0506 -0.3565  0.1353
 1353SOL    HW1 4058   3.194   2.859   1.963 -0.1270 -0.3480 -1.1810
 1353SOL    HW2 4059   3.226   2.741   2.052  0.9212  1.1566  0.4874
 1354SOL     OW 4060   3.927   1.100   1.565  0.3383  0.3140 -0.0684
 1354SOL    HW1 4061   3.929   1.007   1.585  3.4911  0.5704  1.4367
 1354SOL    HW2 4062   3.875   1.107   1.485 -0.1782 -2.6624 -0.0850
 1355SOL     OW 4063   2.977   2.625   1.993  0.2329  0.7484 -0.1225
 1355SOL    HW1 4064   2.966   2.541   1.948  0.4034  0.8537 -0.3614
 1355SOL    HW2 4065   3.070   2.646   1.982  0.3015  0.7157  0.3825
 1356SOL     OW 4066   0.755   2.211   2.598 -0.0802 -0.2488 -0.1214
 1356SOL    HW1 4067   0.732   2.137   2.654  0.7482  0.5562  1.3391
 1356SOL    HW2 4068   0.765   2.284   2.659 -2.7985  1.5890 -1.6834
 1357SOL     OW 4069   0.396   3.988   2.141  0.3271  0.1181  0.4875
 1357SOL    HW1 4070   0.411   4.053   2.209  2.6607 -1.3788  1.5350
 1357SOL    HW2 4071   0.383   3.906   2.188  2.8868 -1.1301 -0.7767
 1358SOL     OW 4072   0.544   0.245   0.065  0.4437 -0.1613 -0.6265
 1358SOL    HW1 4073   0.473   0.182   0.061  1.7967 -1.8160 -0.0630
 1358SOL    HW2 4074   0.595   0.230  -0.015 -1.1337  2.7790 -2.3739
 1359SOL     OW 4075   1.976   1.133   1.831 -0.7023 -0.5239 -0.0802
 1359SOL    HW1 4076   1.885   1.154   1.811 -0.5229 -0.6780 -1.1001
 1359SOL    HW2 4077   2.023   1.147   1.749  0.4940  1.1303  0.8188
 1360SOL     OW 4078   1.815   0.515   3.619  0.7123 -0.1539  0.2627
 1360SOL    HW1 4079   1.901   0.532   3.581  0.8369 -1.7402 -0.2499
 1360SOL    HW2 4080   1.831   0.510   3.713  1.5530 -2.1082  0.0766
 1361SOL     OW 4081   0.594   0.224   0.319 -0.3637 -0.2424  0.2240
 1361SOL    HW1 4082   0.671   0.168   0.318 -0.5382 -0.4924 -0.9235
 1361SOL    HW2 4083   0.602   0.277   0.239 -0.4856  0.9795  0.9955
 1362SOL     OW 4084   3.200   2.708   2.230 -0.3648  0.2994 -0.2161
 1362SOL    HW1 4085   3.294   2.719   2.241 -0.5049 -0.7403  3.3852
 1362SOL    HW2 4086   3.182   2.619   2.262 -2.6836  0.9998  0.6844
 1363SOL     OW 4087   3.107   0.360   3.408  0.3211 -0.1426 -0.2630
 1363SOL    HW1 4088   3.072   0.433   3.357 -0.4961  0.0342  0.5254
 1363SOL    HW2 4089   3.099   0.284   3.351  1.8013  0.4743 -1.3546
 1364SOL     OW 4090   0.992   1.592   1.159 -0.1307  0.1076  0.1511
 1364SOL    HW1 4091   0.986   1.646   1.081  0.4334 -0.6900 -0.4510
 1364SOL    HW2 4092   0.904   1.594   1.196  0.4327  3.6881  1.7104
 1365SOL     OW 4093   3.262   2.670   1.730  0.5898 -0.0454  0.0065
 1365SOL    HW1 4094   3.355   2.653   1.744  1.1139  1.8427 -0.8289
 1365SOL    HW2 4095   3.227   2.691   1.817  1.3794  1.0164  0.0875
 1366SOL     OW 4096   2.416   0.703   1.076  0.1123  0.5135 -0.0749
 1366SOL    HW1 4097   2.386   0.676   1.163 -0.4353 -0.7395 -0.6457
 1366SOL    HW2 4098   2.459   0.788   1.092  1.8424 -0.6156  1.7586
 1367SOL     OW 4099   3.544   3.062   1.359 -0.2226 -0.7205 -0.4172
 1367SOL    HW1 4100   3.577   3.111   1.283  0.9990 -2.9109 -1.3928
 1367SOL    HW2 4101   3.456   3.097   1.374  0.0950  0.8266 -1.8766
 1368SOL     OW 4102   0.630   2.391   0.898 -0.7991  0.5757  0.9983
 1368SOL    HW1 4103   0.726   2.391   0.895 -0.7881  1.8897 -0.8814
 1368SOL    HW2 4104   0.607   2.484   0.904 -1.9486  0.3013  0.9995
 1369SOL     OW 4105   1.914   2.154   0.502  0.0438  0.0400  0.3833
 1369SOL    HW1 4106   1.984   2.199   0.455 -0.4412  0.2691 -0.1320
 1369SOL    HW2 4107   1.959   2.097   0.564  0.6780  0.5928  0.4428
 1370SOL     OW 4108   2.396   1.592   0.286  0.1584 -0.1155  0.0757
 1370SOL    HW1 4109   2.465   1.624   0.344  0.2738  0.8758 -0.5765
 1370SOL    HW2 4110   2.317   1.637   0.316  0.0782 -0.1495 -0.0864
 1371SOL     OW 4111   3.949   2.324   1.970  0.1133  0.2034  0.0368
 1371SOL    HW1 4112   4.000   2.381   2.028 -0.6325  0.8959  0.0312
 1371SOL    HW2 4113   3.923   2.381   1.898  0.3616 -0.4538 -0.5816
 1372SOL     OW 4114   1.224   3.049   3.412  0.2723 -0.1829  0.4584
 1372SOL    HW1 4115   1.199   3.065   3.321 -1.2296 -0.5229  0.7784
 1372SOL    HW2 4116   1.316   3.024   3.407  0.5907  1.0886 -0.8163
 1373SOL     OW 4117   0.117   1.054   1.810 -0.5099  0.3463  1.0584
 1373SOL    HW1 4118   0.094   1.132   1.760 -0.8298 -2.3208 -3.5852
 1373SOL    HW2 4119   0.204   1.030   1.780 -0.6297 -1.3622  1.9088
 1374SOL     OW 4120   0.986   3.154   0.584  0.2747 -0.4360  0.2337
 1374SOL    HW1 4121   0.905   3.116   0.549 -0.3222 -0.9133  2.0358
 1374SOL    HW2 4122   1.029   3.192   0.508 -1.7000 -0.0703 -0.7612
 1375SOL     OW 4123   3.121   0.398   1.898  0.0731  1.0403  0.1009
 1375SOL    HW1 4124   3.028   0.418   1.904 -0.1845 -0.1108  0.0387
 1375SOL    HW2 4125   3.162   0.483   1.881 -1.2235  1.2439 -2.6587
 1376SOL     OW 4126   0.927   3.724   2.043 -0.6399 -1.0826 -0.3757
 1376SOL    HW1 4127   0.936   3.641   1.996  0.9331 -0.7868 -0.6546
 1376SOL    HW2 4128   1.008   3.772   2.022 -1.9648  0.9707 -1.1088
 1377SOL     OW 4129   3.329   0.587   1.276  0.4414 -0.3285 -0.1326
 1377SOL    HW1 4130   3.354   0.538   1.354  1.3824 -0.3420 -0.4299
 1377SOL    HW2 4131   3.352   0.529   1.203 -2.0943 -1.0954 -0.4240
 1378SOL     OW 4132   1.575   0.547   3.753 -0.1017  0.2268  0.5919
 1378SOL    HW1 4133   1.658   0.542   3.704  0.9126  1.6198  2.0408
 1378SOL    HW2 4134   1.602   0.553   3.844 -1.8392  0.2778  1.1333
 1379SOL     OW 4135   3.303   3.405   3.336  1.0670  0.8246  0.4484
 1379SOL    HW1 4136   3.231   3.457   3.372 -1.1014 -0.9637 -1.0226
 1379SOL    HW2 4137   3.351   3.466   3.279  0.6452  2.0142  1.3285
 1380SOL     OW 4138   0.427   3.661   0.129 -0.3272  0.3842  0.6575
 1380SOL    HW1 4139   0.345   3.691   0.168  0.1604  1.2189  1.0623
 1380SOL    HW2 4140   0.495   3.691   0.189  0.3559  0.6941 -0.2420
 1381SOL     OW 4141   0.860  -0.009   3.599 -0.3990 -0.6931  0.2090
 1381SOL    HW1 4142   0.812   0.055   3.547  0.6674 -0.0736 -0.0333
 1381SOL    HW2 4143   0.939  -0.028   3.547 -0.6543 -2.1677  0.2969
 1382SOL     OW 4144   1.154   3.163   0.283 -0.2746 -0.7945 -0.0582
 1382SOL    HW1 4145   1.090   3.203   0.342 -1.9703  0.2021 -2.4103
 1382SOL    HW2 4146   1.139   3.206   0.199  2.8273 -1.2943 -0.9994
 1383SOL     OW 4147   1.541   1.302   2.668 -0.0772 -0.3643 -0.2234
 1383SOL    HW1 4148   1.564   1.250   2.591  2.2523  0.5738 -0.2610
 1383SOL    HW2 4149   1.557   1.243   2.742  0.0204 -0.5091 -0.3579
 1384SOL     OW 4150   1.578   1.138   0.409 -0.6215 -0.3354  0.1418
 1384SOL    HW1 4151   1.555   1.217   0.458 -1.4699 -0.5017  0.0204
 1384SOL    HW2 4152   1.656   1.104   0.453  1.5138  2.0879 -1.4518
 1385SOL     OW 4153   1.547   3.648   0.831  0.3037  0.2841  0.1167
 1385SOL    HW1 4154   1.554   3.600   0.914 -1.1006  0.6201  0.4538
 1385SOL    HW2 4155   1.625   3.704   0.830  0.0798  0.6746  1.4978
 1386SOL     OW 4156   1.994   1.743   1.084  0.8040  0.6154  0.5218
 1386SOL    HW1 4157   1.948   1.660   1.095  1.0006  0.7476  2.7770
 1386SOL    HW2 4158   1.944   1.790   1.017 -0.6852 -0.3640  0.9099
 1387SOL     OW 4159   3.236   0.801   0.547 -0.0433  0.7877 -0.1812
 1387SOL    HW1 4160   3.188   0.872   0.588  1.6800  0.8487  1.9209
 1387SOL    HW2 4161   3.255   0.740   0.619 -0.7675 -1.4379 -1.7530
 1388SOL     OW 4162   2.351   3.205   2.868  0.4645  0.5722 -0.8258
 1388SOL    HW1 4163   2.344   3.112   2.847  2.8319  0.2306 -0.3363
 1388SOL    HW2 4164   2.356   3.207   2.964 -0.5091  1.3186 -0.7690
 1389SOL     OW 4165   3.777   2.206   1.064 -0.6023  0.3510 -0.0430
 1389SOL    HW1 4166   3.793   2.256   0.983 -3.9973  0.8534 -0.5535
 1389SOL    HW2 4167   3.731   2.268   1.121 -1.2191 -0.9940  0.9599
 1390SOL     OW 4168   0.097   3.908   1.378 -0.3060  0.1752  0.3049
 1390SOL    HW1 4169   0.192   3.921   1.385 -0.6400  2.2239  3.4354
 1390SOL    HW2 4170   0.072   3.954   1.298  1.4164 -1.7087 -1.4341
 1391SOL     OW 4171   3.931   3.854   1.837 -1.1474  0.7595 -0.1057
 1391SOL    HW1 4172   3.981   3.826   1.914 -1.4534  0.9044  0.1488
 1391SOL    HW2 4173   3.839   3.838   1.861 -1.3447  2.1280  0.1140
 1392SOL     OW 4174   2.422   2.909   3.351 -0.0908  0.1884 -0.4602
 1392SOL    HW1 4175   2.345   2.935   3.401 -0.4757  0.0697 -0.9892
 1392SOL    HW2 4176   2.392   2.903   3.260  0.7549  1.0367 -0.8131
 1393SOL     OW 4177   1.002   0.902   1.916  0.4983 -0.3332 -0.5714
 1393SOL    HW1 4178   1.088   0.863   1.930 -0.0148 -1.6723 -0.9766
 1393SOL    HW2 4179   0.985   0.889   1.822 -0.5297 -0.9427 -0.3186
 1394SOL     OW 4180   1.480   3.751   0.042  0.0825 -0.1868 -0.0483
 1394SOL    HW1 4181   1.569   3.736   0.071  0.1983  0.7901  0.1276
 1394SOL    HW2 4182   1.477   3.715  -0.047  0.8192  0.2898 -0.2765
 1395SOL     OW 4183   1.302   0.264   0.475 -0.2293  0.8601 -0.3967
 1395SOL    HW1 4184   1.247   0.292   0.548  1.9315  0.3458  1.5457
 1395SOL    HW2 4185   1.247   0.276   0.397 -2.4635  1.8807  1.2367
 1396SOL     OW 4186   3.967   3.983   3.391  0.5791  0.4933 -0.8569
 1396SOL    HW1 4187   4.012   3.950   3.468  1.6400 -0.6569 -1.9355
 1396SOL    HW2 4188   3.892   4.031   3.426  0.9330 -0.1526  0.8732
 1397SOL     OW 4189   2.189   3.327   3.765  0.0425 -0.0818  0.8052
 1397SOL    HW1 4190   2.112   3.294   3.719 -1.5498  2.6082  1.3318
 1397SOL    HW2 4191   2.188   3.281   3.849 -0.2836 -0.9391  0.3451
 1398SOL     OW 4192   0.166   1.386   1.399 -0.6994 -0.6406 -0.5971
 1398SOL    HW1 4193   0.153   1.294   1.420  3.7480 -1.6940 -1.4586
 1398SOL    HW2 4194   0.185   1.386   1.305 -2.3029  1.4728 -0.9995
 1399SOL     OW 4195   3.224   2.742   0.148 -0.3757 -0.2307  0.1083
 1399SOL    HW1 4196   3.195   2.659   0.187 -0.5455  0.3305  1.2193
 1399SOL    HW2 4197   3.265   2.716   0.066 -1.4892 -1.3183 -0.1535
 1400SOL     OW 4198   3.733   2.118   0.102  0.4668  0.5068 -0.2628
 1400SOL    HW1 4199   3.712   2.095   0.011  0.8754 -0.1637 -0.1953
 1400SOL    HW2 4200   3.815   2.166   0.097 -0.8604  2.9357 -0.5034
 1401SOL     OW 4201   3.381   1.131   1.826  0.4140  1.1267  0.4910
 1401SOL    HW1 4202   3.461   1.147   1.776  0.4970  0.0796  0.2625
 1401SOL    HW2 4203   3.398   1.172   1.911  1.9060 -0.5309  1.0473
 1402SOL     OW 4204   2.001   2.521   0.596  0.7989  0.1118 -0.2345
 1402SOL    HW1 4205   2.056   2.445   0.574 -0.1544 -0.8883  0.7150
 1402SOL    HW2 4206   1.997   2.521   0.691 -0.5878  0.3458 -0.2716
 1403SOL     OW 4207   0.288   0.239   0.292  0.2232  0.1118  0.2051
 1403SOL    HW1 4208   0.219   0.254   0.356  1.8117  0.0709  2.0257
 1403SOL    HW2 4209   0.346   0.314   0.301  2.4149 -1.5983  1.5160
 1404SOL     OW 4210   0.099   1.295   1.710  0.6447 -0.2441 -0.3842
 1404SOL    HW1 4211   0.170   1.354   1.737 -0.0342  0.5775 -0.3598
 1404SOL    HW2 4212   0.079   1.321   1.620  2.6031 -2.6831 -1.6469
 1405SOL     OW 4213   2.111   2.543   1.720 -0.1225 -0.1418 -0.2472
 1405SOL    HW1 4214   2.179   2.526   1.785  0.9761  1.9764 -0.7517
 1405SOL    HW2 4215   2.138   2.495   1.642  1.4514  1.5482 -0.8004
 1406SOL     OW 4216   2.231   0.611   1.845 -0.3838 -0.6907 -0.2519
 1406SOL    HW1 4217   2.267   0.540   1.898  0.4215  0.1699  0.3923
 1406SOL    HW2 4218   2.282   0.608   1.764 -0.1065 -0.6352 -0.0828
 1407SOL     OW 4219   0.725   0.124   1.336 -0.7571 -0.6094 -0.2523
 1407SOL    HW1 4220   0.679   0.187   1.281 -1.5374 -2.9281 -2.4968
 1407SOL    HW2 4221   0.771   0.177   1.401 -1.3480  2.2127 -1.9586
 1408SOL     OW 4222   2.870   2.528   2.503 -0.1331 -0.7789 -0.5531
 1408SOL    HW1 4223   2.842   2.454   2.557  3.2379 -2.1801 -0.4599
 1408SOL    HW2 4224   2.877   2.491   2.415  1.0844 -0.5101 -0.5946
 1409SOL     OW 4225   1.861   2.919   1.432 -0.2972  0.6339  0.3105
 1409SOL    HW1 4226   1.851   3.005   1.472 -0.3328  1.6192 -1.7030
 1409SOL    HW2 4227   1.775   2.879   1.439 -0.2069  0.6114  1.5233
 1410SOL     OW 4228   1.757   3.690   2.768  0.0472  0.4823 -0.6136
 1410SOL    HW1 4229   1.817   3.757   2.735  0.9716 -1.7215 -3.8861
 1410SOL    HW2 4230   1.798   3.657   2.848  1.4413  1.2651 -0.9851
 1411SOL     OW 4231   2.036   0.134   0.143 -0.0298  0.1547  0.5312
 1411SOL    HW1 4232   2.051   0.088   0.225  0.7129  1.2831  1.0487
 1411SOL    HW2 4233   2.116   0.120   0.093 -0.2604 -0.0642  0.2168
 1412SOL     OW 4234   3.513   2.303   2.018 -0.4641 -0.1263 -0.0654
 1412SOL    HW1 4235   3.536   2.391   2.048 -3.2180  0.8456 -0.5578
 1412SOL    HW2 4236   3.578   2.246   2.059  0.7737  2.0073  1.1039
 1413SOL     OW 4237   1.507   1.037   1.979 -0.0311 -0.0082 -0.3786
 1413SOL    HW1 4238   1.477   1.049   2.070 -1.4476 -1.5535 -0.5936
 1413SOL    HW2 4239   1.427   1.038   1.927  0.7619  0.7647 -1.6424
 1414SOL     OW 4240   3.062   1.163   2.615  0.4281  0.9471 -0.1597
 1414SOL    HW1 4241   3.042   1.252   2.644 -1.1895  0.8630 -0.9331
 1414SOL    HW2 4242   2.989   1.139   2.558  1.7805 -0.1655 -1.5052
 1415SOL     OW 4243   1.616   2.789   1.453  0.2104  0.9401 -0.3124
 1415SOL    HW1 4244   1.529   2.756   1.475  1.3650 -1.4839  0.9755
 1415SOL    HW2 4245   1.623   2.775   1.359 -0.8052  1.2244 -0.4441
 1416SOL     OW 4246   0.797   2.668   0.426  0.1284 -0.3692 -0.2017
 1416SOL    HW1 4247   0.712   2.633   0.451 -0.3433  0.9747  0.1586
 1416SOL    HW2 4248   0.819   2.621   0.345 -2.2211  1.0789 -1.8434
 1417SOL     OW 4249   2.796   2.194   1.848 -0.3079  0.3606  0.3695
 1417SOL    HW1 4250   2.874   2.249   1.848  0.2482 -0.3999 -0.2367
 1417SOL    HW2 4251   2.829   2.104   1.842 -1.1579 -0.1303  2.2711
 1418SOL     OW 4252   1.862   3.530   0.741  0.4638 -0.3885  0.5948
 1418SOL    HW1 4253   1.911   3.561   0.665  0.5884 -0.6635  0.5642
 1418SOL    HW2 4254   1.771   3.530   0.712  0.4680 -0.1017  0.5769
 1419SOL     OW 4255   2.513   3.040   2.006  0.3851 -0.0855  0.2031
 1419SOL    HW1 4256   2.581   3.107   2.005 -0.3418  0.6934  1.1919
 1419SOL    HW2 4257   2.507   3.012   2.097  0.9488 -1.8181 -0.2506
 1420SOL     OW 4258   0.238   1.922   3.103  0.4028 -0.3789  0.3960
 1420SOL    HW1 4259   0.284   1.839   3.088 -0.4935 -0.5257 -1.9468
 1420SOL    HW2 4260   0.146   1.898   3.106  0.1598  0.4813  0.0715
 1421SOL     OW 4261   3.904   3.472   0.156  0.1418 -0.8306  0.8431
 1421SOL    HW1 4262   3.914   3.424   0.238 -1.8214  0.0563  1.6768
 1421SOL    HW2 4263   3.992   3.474   0.118  0.9331 -1.9938  2.4951
 1422SOL     OW 4264   3.795   0.162   0.285 -0.3588 -0.1727 -0.2052
 1422SOL    HW1 4265   3.785   0.203   0.371 -0.2113 -1.3090  0.3825
 1422SOL    HW2 4266   3.772   0.230   0.222 -0.0708  0.8038  0.7211
 1423SOL     OW 4267   0.296   2.586   1.334 -0.3139  0.0680 -0.0583
 1423SOL    HW1 4268   0.261   2.614   1.418 -0.5585 -0.7461  0.1164
 1423SOL    HW2 4269   0.376   2.639   1.323  0.1468 -0.3652  1.0400
 1424SOL     OW 4270   1.643   2.706   3.653 -0.0207 -0.6697 -0.1617
 1424SOL    HW1 4271   1.641   2.730   3.560  0.2488  0.6318  0.1588
 1424SOL    HW2 4272   1.557   2.731   3.686  0.8140  1.4516  0.5389
 1425SOL     OW 4273   3.920   2.456   1.731  0.2040 -0.3976  0.2457
 1425SOL    HW1 4274   4.003   2.466   1.684 -0.3576  1.5153 -0.4092
 1425SOL    HW2 4275   3.871   2.393   1.679 -0.2485  1.3882 -1.5995
 1426SOL     OW 4276   3.741   2.324   3.781  0.0188 -0.3883 -0.3750
 1426SOL    HW1 4277   3.752   2.369   3.865  2.6786 -1.3329 -0.1199
 1426SOL    HW2 4278   3.796   2.373   3.720  1.3292 -2.0039 -0.5643
 1427SOL     OW 4279   4.006   0.389   3.311 -0.3971 -0.0470 -0.2779
 1427SOL    HW1 4280   3.959   0.349   3.238  2.5093 -1.4415 -1.5884
 1427SOL    HW2 4281   4.030   0.315   3.367 -0.3336  0.6940  0.6925
 1428SOL     OW 4282   3.091   2.310   1.306  0.4853 -0.1978 -0.4174
 1428SOL    HW1 4283   3.068   2.311   1.399 -0.3685  0.5846 -0.6217
 1428SOL    HW2 4284   3.099   2.218   1.284  0.1078 -0.4072  0.2980
 1429SOL     OW 4285   2.628   2.210   0.942  0.6429  0.0637 -0.2743
 1429SOL    HW1 4286   2.708   2.175   0.903  0.9198  0.9896 -0.5794
 1429SOL    HW2 4287   2.639   2.305   0.937 -1.1712  0.2397 -1.7781
 1430SOL     OW 4288   2.532   1.469   0.884 -0.0181  0.2774  0.0950
 1430SOL    HW1 4289   2.606   1.527   0.869  0.3620  0.0604  1.0500
 1430SOL    HW2 4290   2.517   1.472   0.978  0.3918 -1.6107  0.2701
 1431SOL     OW 4291   3.204   3.576   0.730 -0.2318 -0.5705  0.4195
 1431SOL    HW1 4292   3.269   3.599   0.796 -2.1839  2.2430  1.5613
 1431SOL    HW2 4293   3.163   3.497   0.765 -0.1425 -0.0393  1.8054
 1432SOL     OW 4294   2.891   3.069   1.760 -0.1740  0.1728  0.1006
 1432SOL    HW1 4295   2.930   3.007   1.698 -0.2192  0.3866 -0.1432
 1432SOL    HW2 4296   2.916   3.036   1.846  0.2720  0.1280 -0.0430
 1433SOL     OW 4297   3.549   0.421   1.482  0.1776  0.1382 -0.3871
 1433SOL    HW1 4298   3.455   0.436   1.484  0.2964  0.9538  2.0672
 1433SOL    HW2 4299   3.579   0.464   1.402 -1.5591 -0.5049 -1.4187
 1434SOL     OW 4300   2.645   2.053   3.741  0.6125  0.2308  0.4624
 1434SOL    HW1 4301   2.698   2.078   3.816 -0.6428  1.2157  1.0505
 1434SOL    HW2 4302   2.578   1.995   3.777 -0.1465  0.9027  0.1812
 1435SOL     OW 4303   2.417   3.284   0.654  0.2304 -0.5974 -0.7896
 1435SOL    HW1 4304   2.508   3.297   0.630  0.7678 -0.6266  1.0774
 1435SOL    HW2 4305   2.381   3.373   0.663  0.5609 -0.5455  0.1219
 1436SOL     OW 4306   3.472   2.754   2.258 -0.5049  0.0559 -0.6892
 1436SOL    HW1 4307   3.473   2.757   2.353 -0.2449 -1.9508 -0.5873
 1436SOL    HW2 4308   3.481   2.846   2.231 -0.7509  0.6747  1.1933
 1437SOL     OW 4309   1.123   0.966   2.826 -0.1583 -0.1046 -0.2567
 1437SOL    HW1 4310   1.159   0.959   2.914  0.6817 -2.2429 -0.7229
 1437SOL    HW2 4311   1.029   0.969   2.838 -0.0851 -1.1843  0.6994
 1438SOL     OW 4312   1.044   3.394   2.342  0.1536 -0.5850  0.3323
 1438SOL    HW1 4313   1.128   3.407   2.385 -0.0792  0.3296  0.5397
 1438SOL    HW2 4314   1.063   3.337   2.268  0.6820 -1.6269  1.2488
 1439SOL     OW 4315   1.339   2.438   0.075  0.4695  0.8611 -0.3885
 1439SOL    HW1 4316   1.317   2.470   0.162  1.0989 -1.2116  0.6133
 1439SOL    HW2 4317   1.256   2.406   0.040  0.5339 -0.1020  0.2955
 1440SOL     OW 4318   0.685   0.050   3.915  0.4263  0.6088 -0.9597
 1440SOL    HW1 4319   0.643  -0.015   3.971  1.3761  0.0140 -0.9122
 1440SOL    HW2 4320   0.778   0.027   3.918  0.6281  1.2750 -1.8636
 1441SOL     OW 4321   3.006   1.437   2.199  0.0976  0.5291 -0.1428
 1441SOL    HW1 4322   2.913   1.439   2.223  0.0076 -0.5390 -0.3503
 1441SOL    HW2 4323   3.007   1.402   2.110  0.6518  1.3742 -0.4871
 1442SOL     OW 4324   0.755   0.914   0.502 -0.0701 -0.0105 -0.3284
 1442SOL    HW1 4325   0.815   0.987   0.483 -1.4772  1.3172  0.0536
 1442SOL    HW2 4326   0.799   0.864   0.570  0.2704  1.4321  0.5683
 1443SOL     OW 4327   2.076   3.118   3.057  0.5680  0.0449  0.1430
 1443SOL    HW1 4328   2.113   3.203   3.082  1.3976 -0.9237  2.5150
 1443SOL    HW2 4329   1.996   3.140   3.009  0.9829  2.1645  0.3174
 1444SOL     OW 4330   3.238   0.157   0.145 -0.2567  1.0592  0.5632
 1444SOL    HW1 4331   3.284   0.074   0.155  3.2176  2.2081 -3.2756
 1444SOL    HW2 4332   3.279   0.215   0.209  2.6761  1.5557 -1.5639
 1445SOL     OW 4333   3.829  -0.000   0.561  0.0531  0.2542  0.0885
 1445SOL    HW1 4334   3.745  -0.020   0.519  0.3997 -1.1222  0.0055
 1445SOL    HW2 4335   3.839   0.095   0.550 -1.3152  0.3841 -0.2173
 1446SOL     OW 4336   0.225   2.164   0.236 -0.0782  0.6369  0.5661
 1446SOL    HW1 4337   0.284   2.097   0.269  0.0819 -0.1375 -1.1728
 1446SOL    HW2 4338   0.142   2.148   0.281  0.4855  0.5127  1.5883
 1447SOL     OW 4339   3.461   1.217   0.024  0.2714 -0.3285  0.0273
 1447SOL    HW1 4340   3.400   1.270  -0.027 -0.2133 -0.8553  0.0480
 1447SOL    HW2 4341   3.540   1.271   0.031 -0.7250  1.0626  1.3628
 1448SOL     OW 4342   3.128   3.960   1.007 -0.5790 -0.6567 -0.2840
 1448SOL    HW1 4343   3.119   4.055   1.010  2.9474 -0.1883  3.5054
 1448SOL    HW2 4344   3.190   3.943   0.936  0.4570  0.1602  0.4039
 1449SOL     OW 4345   2.678   3.447   0.541  0.3107 -0.3469 -0.8568
 1449SOL    HW1 4346   2.688   3.358   0.574 -2.8286 -0.6560 -0.5117
 1449SOL    HW2 4347   2.672   3.501   0.620  0.0237 -0.1092 -1.0409
 1450SOL     OW 4348   1.380   3.358   2.179  1.0195  1.0561 -0.3151
 1450SOL    HW1 4349   1.351   3.267   2.167  1.1012  1.0969 -0.8693
 1450SOL    HW2 4350   1.444   3.372   2.109 -0.6312  2.2279 -1.6670
 1451SOL     OW 4351   1.575   2.279   0.466  0.6165  0.3273  0.1282
 1451SOL    HW1 4352   1.608   2.365   0.492  2.5540  1.0662 -4.0111
 1451SOL    HW2 4353   1.650   2.235   0.426 -0.6504 -2.8513  0.9469
 1452SOL     OW 4354   2.578   0.494   0.757  0.3472 -0.0543  0.2738
 1452SOL    HW1 4355   2.665   0.534   0.748  0.6699 -0.9238 -0.6399
 1452SOL    HW2 4356   2.573   0.469   0.849  0.5109  1.2083  0.6530
 1453SOL     OW 4357   0.489   1.632   2.399 -0.3312 -0.2343  0.0061
 1453SOL    HW1 4358   0.558   1.697   2.414  1.3857 -1.6546 -1.3456
 1453SOL    HW2 4359   0.504   1.565   2.465  1.0688 -1.6441 -1.6517
 1454SOL     OW 4360   0.709   0.597   0.057  0.0592 -0.1099 -0.1792
 1454SOL    HW1 4361   0.737   0.643   0.136  0.5312  1.5282 -1.2601
 1454SOL    HW2 4362   0.618   0.622   0.045  0.6230  1.5305 -1.3814
 1455SOL     OW 4363   0.865   1.185   3.349 -0.2829 -0.2912  0.2330
 1455SOL    HW1 4364   0.908   1.243   3.411  1.5328 -1.1277 -0.1799
 1455SOL    HW2 4365   0.867   1.099   3.390 -0.2200 -0.6178 -0.4373
 1456SOL     OW 4366   0.455   1.585   2.117 -0.6519  0.5974  0.5192
 1456SOL    HW1 4367   0.473   1.578   2.211  1.3591  0.2485  0.1669
 1456SOL    HW2 4368   0.457   1.679   2.100  2.1052  0.6043  0.3787
 1457SOL     OW 4369   3.886   3.048   2.624 -0.6477  0.0417 -0.6814
 1457SOL    HW1 4370   3.964   3.095   2.655  0.2238 -1.2804 -0.7969
 1457SOL    HW2 4371   3.814   3.110   2.637  0.3506  1.1306 -0.1544
 1458SOL     OW 4372   1.339   1.242   1.657 -0.5437  0.6146 -0.3934
 1458SOL    HW1 4373   1.275   1.233   1.586  0.1245 -0.5895 -0.8696
 1458SOL    HW2 4374   1.416   1.280   1.615 -0.3470  0.4371 -0.1961
 1459SOL     OW 4375   2.175   3.693   2.395 -0.4307 -0.6550 -0.5684
 1459SOL    HW1 4376   2.208   3.605   2.413 -0.8989 -0.4367  1.5354
 1459SOL    HW2 4377   2.236   3.727   2.329  3.3408 -0.5035  2.5928
 1460SOL     OW 4378   0.020   3.399   2.075  0.2243  0.2392  0.2411
 1460SOL    HW1 4379   0.008   3.324   2.132  0.5305 -0.4510 -0.5783
 1460SOL    HW2 4380   0.077   3.458   2.124 -0.3207  0.1090  1.0423
 1461SOL     OW 4381   3.487   1.663   3.696 -0.3244 -0.2832 -0.1978
 1461SOL    HW1 4382   3.504   1.683   3.604 -1.6955 -0.0226 -0.4172
 1461SOL    HW2 4383   3.391   1.653   3.702 -0.1570 -1.5527  0.9542
 1462SOL     OW 4384   1.450   2.665   3.426 -0.8261  0.8044  0.0137
 1462SOL    HW1 4385   1.384   2.646   3.359  0.0009 -0.1882 -0.5465
 1462SOL    HW2 4386   1.534   2.652   3.381 -0.0086 -5.2543  2.3889
 1463SOL     OW 4387   2.850   1.100   3.776  0.2080 -0.5274 -0.2972
 1463SOL    HW1 4388   2.768   1.144   3.796 -1.0515 -2.6954 -0.4798
 1463SOL    HW2 4389   2.898   1.100   3.859 -1.3652 -2.0132  0.6849
 1464SOL     OW 4390   2.779   2.166   3.216 -0.4200  0.2758  0.0877
 1464SOL    HW1 4391   2.785   2.228   3.144  2.1274 -0.5071 -0.5011
 1464SOL    HW2 4392   2.771   2.220   3.294 -1.3773  1.1963 -0.6154
 1465SOL     OW 4393   1.461   1.868   3.982  0.0800  0.2988  0.0889
 1465SOL    HW1 4394   1.408   1.889   3.906 -0.9254 -0.8518  0.4394
 1465SOL    HW2 4395   1.507   1.949   4.002 -1.3680  1.2771 -0.3740
 1466SOL     OW 4396   2.995   2.521   1.605 -0.1872  0.1138  0.0349
 1466SOL    HW1 4397   3.063   2.563   1.553 -0.5846  0.4536 -0.2218
 1466SOL    HW2 4398   2.916   2.529   1.551 -0.1748 -1.4083 -0.2393
 1467SOL     OW 4399   1.590   1.153   2.423 -0.7178 -0.2345 -0.0278
 1467SOL    HW1 4400   1.504   1.113   2.438 -0.9956  1.0804  2.3449
 1467SOL    HW2 4401   1.650   1.101   2.476 -0.0407 -0.9567 -1.4380
 1468SOL     OW 4402   3.352   1.018   0.804 -0.0947  0.0844 -0.0797
 1468SOL    HW1 4403   3.421   1.024   0.739 -0.1027 -1.3698 -0.2525
 1468SOL    HW2 4404   3.272   1.003   0.753 -0.1479 -0.7423  0.2309
 1469SOL     OW 4405   2.263   3.910   1.495  0.1225  0.5336 -0.1679
 1469SOL    HW1 4406   2.306   3.981   1.447 -0.3392  3.3978  3.2345
 1469SOL    HW2 4407   2.334   3.849   1.514  1.1616  1.4829 -0.8395
 1470SOL     OW 4408   2.732   1.225   0.316 -0.3320 -0.5061 -0.0974
 1470SOL    HW1 4409   2.804   1.167   0.342 -0.1712 -0.1277  0.3165
 1470SOL    HW2 4410   2.661   1.204   0.377  0.3330  0.9833  1.2530
 1471SOL     OW 4411   3.108   2.245  -0.014 -0.3987 -0.7613 -0.4551
 1471SOL    HW1 4412   3.150   2.161   0.008  2.4746  0.7822  0.3913
 1471SOL    HW2 4413   3.079   2.279   0.071  1.9332  0.7655 -0.1822
 1472SOL     OW 4414   0.168   2.354   1.548 -0.1656 -0.2881 -0.3373
 1472SOL    HW1 4415   0.200   2.348   1.638 -1.7731  1.5420  0.4303
 1472SOL    HW2 4416   0.216   2.286   1.501  3.5835  1.1298  1.0206
 1473SOL     OW 4417   3.631   3.750   1.956  0.0503 -0.4699  0.1008
 1473SOL    HW1 4418   3.688   3.691   1.906  0.1892  1.0630 -1.6609
 1473SOL    HW2 4419   3.601   3.697   2.030  1.7257 -2.1045 -0.3201
 1474SOL     OW 4420   2.962   0.126   2.682 -0.1088  0.2089 -0.3433
 1474SOL    HW1 4421   3.021   0.093   2.613 -0.6368 -0.1916 -0.6089
 1474SOL    HW2 4422   2.954   0.053   2.743 -1.7257 -0.4017 -1.2177
 1475SOL     OW 4423   3.794   3.257   3.982 -0.3851 -0.2242 -0.0454
 1475SOL    HW1 4424   3.737   3.309   3.925  0.6337 -0.9072 -1.7909
 1475SOL    HW2 4425   3.841   3.322   4.034  0.2234  0.6203 -1.5562
 1476SOL     OW 4426   2.921   2.434   0.854  0.4413  0.0884 -0.0752
 1476SOL    HW1 4427   2.929   2.413   0.947 -0.5872  1.8146  0.4377
 1476SOL    HW2 4428   2.875   2.517   0.852 -0.2676 -0.2988 -2.1753
 1477SOL     OW 4429   2.803   0.352   3.483 -0.5216  0.2206  0.6145
 1477SOL    HW1 4430   2.876   0.363   3.422  0.0206 -1.9720  0.7785
 1477SOL    HW2 4431   2.823   0.411   3.556  0.6974  0.1863  0.3193
 1478SOL     OW 4432   1.958   3.023   1.820 -0.4904  0.1596 -0.0588
 1478SOL    HW1 4433   1.895   3.038   1.750  0.4533 -1.7803 -1.3992
 1478SOL    HW2 4434   1.933   2.938   1.857 -0.8422  1.0508  1.8627
 1479SOL     OW 4435   3.356   3.253   0.551 -0.3343 -0.1388  0.0012
 1479SOL    HW1 4436   3.426   3.193   0.578 -1.0203 -1.2174 -0.5382
 1479SOL    HW2 4437   3.350   3.317   0.622  1.3826  0.1490 -0.0786
 1480SOL     OW 4438   0.553   0.675   0.834 -0.7489  0.9551  0.2872
 1480SOL    HW1 4439   0.527   0.691   0.743 -1.1371  0.3653  0.2888
 1480SOL    HW2 4440   0.475   0.697   0.885 -0.4427  1.5629  0.5148
 1481SOL     OW 4441   3.158   2.856   3.163  0.3310  0.0078  0.3326
 1481SOL    HW1 4442   3.240   2.896   3.191 -0.1473  1.0602  0.2906
 1481SOL    HW2 4443   3.101   2.861   3.240  0.4049 -1.0355  0.4703
 1482SOL     OW 4444   3.911   2.319   1.478 -0.9115 -0.0164  0.2548
 1482SOL    HW1 4445   3.880   2.371   1.404 -0.2903 -0.6197 -0.4444
 1482SOL    HW2 4446   4.000   2.349   1.494 -0.6877 -0.5875  0.0993
 1483SOL     OW 4447   0.921   1.480   0.443 -0.0434  0.4083 -0.8917
 1483SOL    HW1 4448   0.828   1.469   0.465  0.2838 -1.5755 -0.2873
 1483SOL    HW2 4449   0.966   1.415   0.498  1.5741  0.4852 -2.0689
 1484SOL     OW 4450   2.854   3.995   1.422 -0.4846  0.0814 -0.0217
 1484SOL    HW1 4451   2.867   4.028   1.510 -1.3244 -1.8084  0.8597
 1484SOL    HW2 4452   2.930   3.939   1.405  0.7209  2.0113 -1.3404
 1485SOL     OW 4453   0.765   1.649   1.251  0.3098  0.8574  0.0137
 1485SOL    HW1 4454   0.828   1.718   1.274  0.9924  0.6652 -1.1931
 1485SOL    HW2 4455   0.699   1.694   1.198  0.5793  0.6484 -0.5001
 1486SOL     OW 4456   2.771   2.303   2.325  0.2545  0.2226  0.4912
 1486SOL    HW1 4457   2.725   2.386   2.313 -0.2750 -0.0142  0.8506
 1486SOL    HW2 4458   2.820   2.290   2.244 -1.4128 -0.2135 -0.4919
 1487SOL     OW 4459   0.865   0.392   2.308 -0.5083 -0.2210  0.6218
 1487SOL    HW1 4460   0.930   0.434   2.365 -0.3459 -1.8318  1.6761
 1487SOL    HW2 4461   0.899   0.405   2.219  1.9248 -2.0390  1.1844
 1488SOL     OW 4462   1.063   0.032   2.761 -0.0794 -0.4784  0.9788
 1488SOL    HW1 4463   1.111   0.021   2.678 -1.7372 -0.9136  0.0368
 1488SOL    HW2 4464   1.106  -0.028   2.822 -0.9847 -2.8242 -0.5510
 1489SOL     OW 4465   1.480   3.365   1.251 -0.6012  0.3585  0.7605
 1489SOL    HW1 4466   1.396   3.335   1.217 -0.1747  0.6113 -0.5940
 1489SOL    HW2 4467   1.529   3.392   1.173  0.1698  1.6666  1.6490
 1490SOL     OW 4468   0.970   3.633   1.426  0.7080  0.8311 -0.2445
 1490SOL    HW1 4469   0.932   3.715   1.458 -2.5238 -0.4111 -0.4174
 1490SOL    HW2 4470   1.035   3.609   1.492 -0.8295  1.7868  1.7362
 1491SOL     OW 4471   3.392   0.789   3.573 -0.0038  0.0890  0.0649
 1491SOL    HW1 4472   3.328   0.820   3.637  1.9618 -0.0045  2.2084
 1491SOL    HW2 4473   3.343   0.782   3.491 -2.2291  1.8745  1.1443
 1492SOL     OW 4474   2.503   3.322   1.109  0.5447 -0.7123  0.0479
 1492SOL    HW1 4475   2.579   3.279   1.148  0.2065 -0.6890  0.7598
 1492SOL    HW2 4476   2.539   3.382   1.044  1.0221 -2.0900 -0.9940
 1493SOL     OW 4477   0.680   2.463   1.755 -0.5453  0.4131  0.9667
 1493SOL    HW1 4478   0.756   2.415   1.789 -0.8229 -0.6596  0.1177
 1493SOL    HW2 4479   0.705   2.486   1.666 -1.9985 -1.8333 -0.0977
 1494SOL     OW 4480   3.959   0.922   0.456  0.2927  0.5526 -0.4889
 1494SOL    HW1 4481   4.024   0.857   0.428 -0.8710 -0.8235 -0.1064
 1494SOL    HW2 4482   3.991   0.952   0.541 -1.3579 -2.9532  1.6274
 1495SOL     OW 4483   0.431   1.432   1.087  0.6467  0.2954  1.0087
 1495SOL    HW1 4484   0.520   1.397   1.079  1.1124  1.6819 -0.4257
 1495SOL    HW2 4485   0.381   1.388   1.019  1.1070  1.9010 -0.4454
 1496SOL     OW 4486   3.482   3.935   1.820  0.0088 -0.1440  0.3969
 1496SOL    HW1 4487   3.477   3.839   1.816  0.7424 -0.3154  2.4472
 1496SOL    HW2 4488   3.510   3.954   1.910  4.0628  1.8538 -1.0429
 1497SOL     OW 4489   0.822   3.824   3.238 -0.2453 -0.0801 -0.5482
 1497SOL    HW1 4490   0.900   3.768   3.235  0.1545  0.4098  0.5122
 1497SOL    HW2 4491   0.854   3.912   3.218 -0.5725  0.0872 -0.3423
 1498SOL     OW 4492   1.927   3.011   3.930 -0.2213  0.7265  0.4106
 1498SOL    HW1 4493   1.878   2.932   3.952  5.1026 -3.0085  0.7774
 1498SOL    HW2 4494   1.911   3.024   3.837 -1.4339 -0.6779  0.3884
 1499SOL     OW 4495   3.874   2.627   1.052 -0.8823 -0.6101 -0.8128
 1499SOL    HW1 4496   3.836   2.662   0.971  2.1005  2.2936 -1.1695
 1499SOL    HW2 4497   3.962   2.598   1.027  0.6297  1.5915  1.4972
 1500SOL     OW 4498   1.079   1.053   2.207  0.3548 -0.4880 -0.0642
 1500SOL    HW1 4499   1.006   1.103   2.242  0.4685  0.1914 -0.7655
 1500SOL    HW2 4500   1.047   1.018   2.124  0.0404 -2.1974  0.7293
 1501SOL     OW 4501   1.689   0.788   3.888  0.0114 -0.1241  0.2602
 1501SOL    HW1 4502   1.742   0.710   3.869 -0.1755 -0.2644  0.3033
 1501SOL    HW2 4503   1.654   0.771   3.976  0.4964  0.3050  0.5421
 1502SOL     OW 4504   2.054   2.992   2.700 -0.5558  0.3936 -0.2733
 1502SOL    HW1 4505   2.046   2.921   2.637  1.7640 -0.4589  0.2702
 1502SOL    HW2 4506   1.994   2.969   2.770 -1.6430  0.2814 -1.2112
 1503SOL     OW 4507   3.793   1.953   1.579 -0.6868 -0.0610  0.7229
 1503SOL    HW1 4508   3.742   1.896   1.523  0.1755 -0.4156  0.2837
 1503SOL    HW2 4509   3.745   2.036   1.580 -0.1432  0.3327 -1.4716
 1504SOL     OW 4510   2.104   2.870   0.279 -0.2165  0.0507  0.3088
 1504SOL    HW1 4511   2.052   2.824   0.345 -1.0628 -1.4546 -1.3250
 1504SOL    HW2 4512   2.106   2.811   0.204  2.3422  0.8558 -0.3693
 1505SOL     OW 4513   1.529   1.574   2.748  0.0763  0.2863  0.0053
 1505SOL    HW1 4514   1.557   1.497   2.698  1.8529 -0.0434  1.4192
 1505SOL    HW2 4515   1.525   1.645   2.683  2.7938 -0.0116 -0.5875
 1506SOL     OW 4516   0.866   0.160   0.196  0.1491 -0.5902  0.2720
 1506SOL    HW1 4517   0.950   0.117   0.180  0.3541 -0.5865  1.2777
 1506SOL    HW2 4518   0.889   0.251   0.213  0.0245 -0.7379  1.2882
 1507SOL     OW 4519   0.755   1.503   3.824 -0.3736 -0.1673 -0.5882
 1507SOL    HW1 4520   0.720   1.554   3.897 -0.5248 -0.0970 -0.7101
 1507SOL    HW2 4521   0.685   1.441   3.802 -0.6211  0.3139 -1.1630
 1508SOL     OW 4522   4.017   2.310   0.796 -0.4406 -0.2985 -0.3316
 1508SOL    HW1 4523   4.015   2.400   0.762 -1.7643 -0.3519 -0.4669
 1508SOL    HW2 4524   3.946   2.265   0.749  0.0730 -1.3628 -0.1169
 1509SOL     OW 4525   3.801   3.603   3.320  0.2891  0.9919 -0.1720
 1509SOL    HW1 4526   3.788   3.677   3.379 -1.0308 -0.1217  1.0052
 1509SOL    HW2 4527   3.730   3.610   3.256  0.8023  1.3274 -0.7152
 1510SOL     OW 4528   0.949   2.819   0.914  0.1507 -0.0057  0.2528
 1510SOL    HW1 4529   0.866   2.838   0.872  0.6286  1.4611 -0.1051
 1510SOL    HW2 4530   1.013   2.818   0.842  0.5695 -0.2525  0.6210
 1511SOL     OW 4531   3.308   1.951   0.901  0.0913 -0.2671 -0.2577
 1511SOL    HW1 4532   3.253   1.890   0.952 -1.2320  1.1651  0.1039
 1511SOL    HW2 4533   3.395   1.941   0.938 -0.9591  1.3409  2.9987
 1512SOL     OW 4534   1.993   0.955   3.155  0.4268  0.8525  0.0481
 1512SOL    HW1 4535   2.043   0.928   3.078 -0.5598 -4.4757  0.8791
 1512SOL    HW2 4536   2.055   0.947   3.228 -0.1716 -0.3087  0.4502
 1513SOL     OW 4537   2.500   0.267   1.732 -0.1118 -1.2553  0.3962
 1513SOL    HW1 4538   2.506   0.172   1.737  0.2798 -1.2624 -0.0720
 1513SOL    HW2 4539   2.591   0.296   1.727  0.0759 -0.5649  4.6723
 1514SOL     OW 4540   3.219   3.502   2.954 -0.4806 -0.2324 -0.7413
 1514SOL    HW1 4541   3.258   3.415   2.951 -0.0275 -0.1933  2.0067
 1514SOL    HW2 4542   3.147   3.494   3.016  0.8825  1.7696  1.2408
 1515SOL     OW 4543   0.059   0.878   3.444  0.1887 -0.7350  0.0997
 1515SOL    HW1 4544  -0.016   0.935   3.461  0.9139  0.4727 -0.6584
 1515SOL    HW2 4545   0.029   0.820   3.374  0.1138  0.0389 -0.5119
 1516SOL     OW 4546   2.085   2.849   0.667 -0.1941 -0.1758  0.1539
 1516SOL    HW1 4547   2.108   2.940   0.647  1.6272 -1.0448 -2.0919
 1516SOL    HW2 4548   2.015   2.856   0.732  0.9487  2.7906  1.2219
 1517SOL     OW 4549   1.839   2.052   2.285  0.5393 -0.6054  0.2235
 1517SOL    HW1 4550   1.870   2.033   2.196  1.0429 -1.1512  0.5043
 1517SOL    HW2 4551   1.869   1.977   2.336  0.2468 -0.2954  0.8525
 1518SOL     OW 4552   0.597   2.402   1.179 -0.1812 -0.1099  0.4603
 1518SOL    HW1 4553   0.621   2.426   1.089 -0.5907  0.7379  0.5671
 1518SOL    HW2 4554   0.659   2.333   1.203 -0.0611 -0.3406 -0.4701
 1519SOL     OW 4555   1.175   3.295   1.300 -0.0502  0.6158 -0.3958
 1519SOL    HW1 4556   1.174   3.219   1.241 -1.8075 -0.4701  0.9554
 1519SOL    HW2 4557   1.123   3.361   1.254  0.1125  0.4296 -0.8559
 1520SOL     OW 4558   3.562   3.949   2.121 -0.0293 -0.0892  1.3765
 1520SOL    HW1 4559   3.603   3.895   2.054 -1.2246 -0.6504  1.0757
 1520SOL    HW2 4560   3.565   3.895   2.200 -0.4016 -0.2229  1.2981
 1521SOL     OW 4561   1.378   0.817   1.224 -0.5885 -0.5515 -0.1469
 1521SOL    HW1 4562   1.433   0.809   1.302  0.2075  2.1453 -0.3332
 1521SOL    HW2 4563   1.430   0.777   1.154 -0.7981 -1.9266  0.4558
 1522SOL     OW 4564   3.007   1.199   2.999 -0.3634  0.2594  0.6028
 1522SOL    HW1 4565   3.029   1.108   2.977 -0.2806  0.6402 -0.9495
 1522SOL    HW2 4566   3.092   1.242   3.009 -0.4086  0.2996  0.8371
 1523SOL     OW 4567   1.317   3.734   3.174  0.1494 -0.5066 -0.2143
 1523SOL    HW1 4568   1.365   3.801   3.222 -1.7614 -0.3214  1.6046
 1523SOL    HW2 4569   1.264   3.782   3.111 -1.5116 -0.1763  1.3503
 1524SOL     OW 4570   0.804   2.456   2.348  0.2027  0.3613  0.1491
 1524SOL    HW1 4571   0.829   2.381   2.402  0.1746 -0.0486 -0.3986
 1524SOL    HW2 4572   0.776   2.417   2.265 -3.3817  0.6603  1.0537
 1525SOL     OW 4573   0.648   1.894   2.722  0.1613 -0.0300 -0.5353
 1525SOL    HW1 4574   0.613   1.827   2.781  0.3969 -0.0578 -0.4234
 1525SOL    HW2 4575   0.743   1.883   2.728  0.2509  0.9927  0.3088
 1526SOL     OW 4576   0.572   1.765   0.479 -0.4267  0.0475  0.5173
 1526SOL    HW1 4577   0.571   1.678   0.440 -0.4790  0.4695 -0.4552
 1526SOL    HW2 4578   0.586   1.750   0.573  1.4424 -0.9200  0.1209
 1527SOL     OW 4579   0.586   1.646   3.995  0.5561  0.1203  0.2177
 1527SOL    HW1 4580   0.506   1.595   3.978  1.0563 -0.9132  0.8402
 1527SOL    HW2 4581   0.600   1.696   3.914 -0.9181  0.6215  0.2350
 1528SOL     OW 4582   1.274   3.303   3.867 -0.0091  0.9240  0.0373
 1528SOL    HW1 4583   1.314   3.360   3.800  0.0966  0.5359 -0.2360
 1528SOL    HW2 4584   1.281   3.215   3.830  0.7354  0.6116  0.8896
 1529SOL     OW 4585   3.214   2.952   1.449 -0.0103 -0.2031 -0.2237
 1529SOL    HW1 4586   3.235   2.972   1.540 -0.6883 -1.0625  0.1400
 1529SOL    HW2 4587   3.118   2.953   1.446  0.0084 -0.1941 -0.9223
 1530SOL     OW 4588   1.514   2.815   0.584  0.4569 -0.0875  0.2352
 1530SOL    HW1 4589   1.555   2.885   0.636  1.1183 -0.2856 -0.0118
 1530SOL    HW2 4590   1.451   2.861   0.528  0.0483  0.1791  0.8911
 1531SOL     OW 4591   3.807   1.272   0.040  0.6776  0.3177 -0.1589
 1531SOL    HW1 4592   3.775   1.360   0.058  0.1977  0.0916  0.1156
 1531SOL    HW2 4593   3.888   1.285  -0.009 -0.4267  0.8776 -1.9020
 1532SOL     OW 4594   1.569   1.039   1.308  0.0295  0.0005 -0.0830
 1532SOL    HW1 4595   1.638   1.042   1.375  1.3930  0.3251 -1.4578
 1532SOL    HW2 4596   1.500   0.986   1.348  0.1745  1.3530  2.1282
 1533SOL     OW 4597   1.869   3.925   2.013  0.4748 -0.0923 -0.0274
 1533SOL    HW1 4598   1.902   3.863   2.077 -1.5063 -2.4568 -1.0877
 1533SOL    HW2 4599   1.897   3.889   1.928  1.4933  1.9463 -0.6156
 1534SOL     OW 4600   3.307   0.447   0.210  0.3200  0.1307 -0.0507
 1534SOL    HW1 4601   3.281   0.532   0.245 -1.9199 -0.1497 -0.8844
 1534SOL    HW2 4602   3.309   0.459   0.115  6.2876  0.8895 -0.2506
 1535SOL     OW 4603   0.497   3.952   0.236  0.0755  0.0181  0.2861
 1535SOL    HW1 4604   0.510   4.043   0.262 -2.4196 -0.0704  2.1517
 1535SOL    HW2 4605   0.403   3.944   0.223  0.2385 -2.3129  0.2049
 1536SOL     OW 4606   2.711   3.038   0.892  0.3448 -0.1243 -0.0110
 1536SOL    HW1 4607   2.631   3.006   0.850  0.8984  0.5598 -1.6657
 1536SOL    HW2 4608   2.766   2.960   0.903  0.3725 -0.2573 -1.0222
 1537SOL     OW 4609   3.720   2.298   3.493  0.4356  0.0027 -0.1709
 1537SOL    HW1 4610   3.782   2.226   3.496 -0.8858 -1.3108 -1.8598
 1537SOL    HW2 4611   3.677   2.297   3.578  2.7882  1.0985  1.1196
 1538SOL     OW 4612   2.446   1.828   2.404 -0.7194  0.4563  1.2930
 1538SOL    HW1 4613   2.451   1.844   2.499 -0.0030 -2.1056  1.7730
 1538SOL    HW2 4614   2.531   1.791   2.382 -1.1754  0.2479 -0.1926
 1539SOL     OW 4615   3.593   1.263   2.471  0.2198 -0.4718  0.1886
 1539SOL    HW1 4616   3.659   1.224   2.528  2.6720 -1.2994 -2.8618
 1539SOL    HW2 4617   3.644   1.295   2.396 -2.6556  1.1491 -1.2353
 1540SOL     OW 4618   2.996   1.551   1.183  0.7733  0.2289  0.7612
 1540SOL    HW1 4619   3.080   1.574   1.221  0.4392  1.6204  0.6856
 1540SOL    HW2 4620   2.932   1.604   1.231 -0.0162 -0.4754  0.5171
 1541SOL     OW 4621   1.805   0.953   0.164  0.1721 -0.7411 -0.0664
 1541SOL    HW1 4622   1.710   0.945   0.152 -0.1124  1.0684  0.6350
 1541SOL    HW2 4623   1.817   0.958   0.259  0.9478 -0.7905 -0.1556
 1542SOL     OW 4624   0.787   1.622   3.194 -0.4174  0.3352  0.0787
 1542SOL    HW1 4625   0.879   1.624   3.217  0.3386 -3.7044 -1.7956
 1542SOL    HW2 4626   0.773   1.702   3.143  1.8988  1.1761  0.6515
 1543SOL     OW 4627   0.223   0.964   0.326  0.7331 -0.6250 -0.6171
 1543SOL    HW1 4628   0.278   1.042   0.322 -1.2399  1.2412  3.3476
 1543SOL    HW2 4629   0.140   0.991   0.287  0.8486 -1.7352 -1.7215
 1544SOL     OW 4630   2.915   3.179   2.296 -0.3343 -0.7909  0.4176
 1544SOL    HW1 4631   2.847   3.192   2.363 -0.3751  0.1196  0.2156
 1544SOL    HW2 4632   2.993   3.156   2.345 -0.4552 -0.4997  0.7482
 1545SOL     OW 4633   3.628   2.467   1.541 -0.1728 -0.2061 -0.3437
 1545SOL    HW1 4634   3.694   2.512   1.488  2.2827  0.4553  2.9873
 1545SOL    HW2 4635   3.629   2.377   1.510  0.6574  0.2883 -1.8407
 1546SOL     OW 4636   3.614   2.722   3.143  0.0689  0.4825 -0.5326
 1546SOL    HW1 4637   3.698   2.762   3.121 -0.5489  1.6216 -0.8722
 1546SOL    HW2 4638   3.600   2.745   3.235 -0.0130  0.5382 -0.5597
 1547SOL     OW 4639   0.961   1.519   0.731 -0.1942  0.6347 -0.1432
 1547SOL    HW1 4640   0.952   1.561   0.816 -0.5483  0.0672  0.1054
 1547SOL    HW2 4641   0.924   1.582   0.669  1.2021  1.5991 -0.0566
 1548SOL     OW 4642   0.195   2.879   3.799 -0.0609 -0.2052 -0.6140
 1548SOL    HW1 4643   0.244   2.925   3.867 -0.1935  1.2511 -1.4590
 1548SOL    HW2 4644   0.255   2.877   3.724 -1.2180  1.5876 -1.6610
 1549SOL     OW 4645   0.537   2.126   2.416  0.2206 -0.5784  0.1502
 1549SOL    HW1 4646   0.601   2.178   2.465 -0.1507 -1.9899  2.2281
 1549SOL    HW2 4647   0.453   2.148   2.455 -0.3953 -0.0604 -1.3992
 1550SOL     OW 4648   2.862   2.443   0.009  0.2342  0.2272 -0.0695
 1550SOL    HW1 4649   2.892   2.458   0.099 -1.2807 -0.0396  0.5050
 1550SOL    HW2 4650   2.935   2.474  -0.046  1.6445 -0.6274  1.2403
 1551SOL     OW 4651   0.431   3.372   0.365  0.3528  0.0053 -0.0637
 1551SOL    HW1 4652   0.448   3.285   0.401 -1.1821 -0.5767 -0.6883
 1551SOL    HW2 4653   0.514   3.397   0.323  1.0019 -0.8735  0.6645
 1552SOL     OW 4654   1.841   3.725   1.036 -0.7758  0.5018  0.0057
 1552SOL    HW1 4655   1.906   3.656   1.025 -0.9156  0.3969 -0.1605
 1552SOL    HW2 4656   1.876   3.781   1.106 -0.4365  0.5302 -0.1893
 1553SOL     OW 4657   1.593   3.935   2.074 -0.1954  0.2088  0.1928
 1553SOL    HW1 4658   1.558   3.912   2.160  0.4259 -0.3823  0.2950
 1553SOL    HW2 4659   1.686   3.913   2.079 -0.0561  0.6021 -0.4809
 1554SOL     OW 4660   0.488   2.314   1.439 -0.2085 -0.2075 -0.0336
 1554SOL    HW1 4661   0.521   2.347   1.356  2.1312 -0.0566  0.8768
 1554SOL    HW2 4662   0.414   2.258   1.415  1.1948 -1.2273 -2.3609
 1555SOL     OW 4663   1.668   1.765   3.355 -0.6019  0.3240 -0.0944
 1555SOL    HW1 4664   1.676   1.702   3.427 -2.4462  0.3037  0.1200
 1555SOL    HW2 4665   1.693   1.715   3.277  0.7222  0.1509  0.3994
 1556SOL     OW 4666   3.697   3.917   2.657 -0.0546  0.1802  0.2058
 1556SOL    HW1 4667   3.694   3.835   2.708 -1.6918  0.2657  0.2935
 1556SOL    HW2 4668   3.670   3.984   2.719 -0.5855  0.5055 -0.3706
 1557SOL     OW 4669   1.401   1.630   3.812  0.7194 -0.7598  0.0482
 1557SOL    HW1 4670   1.389   1.724   3.824 -0.3260 -0.6922 -1.3212
 1557SOL    HW2 4671   1.442   1.601   3.893  0.2193  0.7270  0.8763
 1558SOL     OW 4672   0.428   3.796   3.237  0.5989  0.7602 -0.3356
 1558SOL    HW1 4673   0.461   3.840   3.315 -0.6039  0.4833  0.3455
 1558SOL    HW2 4674   0.343   3.761   3.262  0.3133  0.4063 -1.6865
 1559SOL     OW 4675   2.828   2.567   1.379  0.1177  0.3481  0.4593
 1559SOL    HW1 4676   2.743   2.528   1.356  0.4873 -1.5944  2.0684
 1559SOL    HW2 4677   2.874   2.574   1.296 -0.2126 -2.2206 -0.0415
 1560SOL     OW 4678   0.058   1.026   3.890  0.5489 -0.5036  0.6748
 1560SOL    HW1 4679   0.138   0.977   3.875  0.1912 -1.0734  0.6242
 1560SOL    HW2 4680   0.005   1.012   3.812 -0.7163 -2.3201  1.7632
 1561SOL     OW 4681   1.866   0.518   3.880 -0.2683  0.3915  0.6834
 1561SOL    HW1 4682   1.957   0.491   3.890 -0.0736  0.8813  0.2700
 1561SOL    HW2 4683   1.837   0.541   3.968 -0.5604 -1.5128  1.1347
 1562SOL     OW 4684   3.846   2.637   2.430 -1.2748 -0.9114  0.0029
 1562SOL    HW1 4685   3.859   2.665   2.521 -2.0978  0.3391 -0.2355
 1562SOL    HW2 4686   3.922   2.670   2.383 -3.3218  3.4868 -0.7727
 1563SOL     OW 4687   0.615   2.751   2.939  0.0537  0.1384 -0.3459
 1563SOL    HW1 4688   0.530   2.790   2.920 -0.4881 -0.7128  0.2209
 1563SOL    HW2 4689   0.668   2.770   2.862 -1.5337 -1.8134 -2.0567
 1564SOL     OW 4690   0.886   3.351   3.402 -0.3992 -0.3189  0.1455
 1564SOL    HW1 4691   0.961   3.363   3.460 -1.0078 -4.6075  2.1783
 1564SOL    HW2 4692   0.816   3.403   3.441  0.1044 -0.5255  1.3610
 1565SOL     OW 4693   3.075   1.113   0.203 -0.5798  1.5217 -0.5823
 1565SOL    HW1 4694   3.096   1.062   0.124  0.3765  2.1529 -0.7521
 1565SOL    HW2 4695   2.993   1.075   0.235  1.5383 -2.2816  1.0450
 1566SOL     OW 4696   3.370   3.931   0.166  0.0606 -0.3840  0.1173
 1566SOL    HW1 4697   3.377   3.835   0.162 -0.3029 -0.4148  0.2178
 1566SOL    HW2 4698   3.459   3.962   0.147  0.7116 -0.7940  2.2489
 1567SOL     OW 4699   0.965   0.380   1.167  0.0813 -0.1112  0.4486
 1567SOL    HW1 4700   0.975   0.330   1.248  0.4523  0.6813  0.9093
 1567SOL    HW2 4701   0.953   0.470   1.196  0.7692  0.2685 -0.3861
 1568SOL     OW 4702   1.719   2.497   0.509 -0.3721  0.2000  0.2403
 1568SOL    HW1 4703   1.803   2.508   0.554 -0.8293 -0.4297  1.3033
 1568SOL    HW2 4704   1.695   2.585   0.480 -0.9252  1.0225  2.8845
 1569SOL     OW 4705   3.209   3.960   1.774  0.1396  0.7121  0.1418
 1569SOL    HW1 4706   3.205   4.013   1.854  0.3406  1.2399 -0.1954
 1569SOL    HW2 4707   3.302   3.949   1.756  0.1047  1.6090 -0.6770
 1570SOL     OW 4708   1.265   2.771   0.114 -0.6770  0.3947  0.1829
 1570SOL    HW1 4709   1.263   2.772   0.018  0.6824  1.1704  0.1407
 1570SOL    HW2 4710   1.342   2.821   0.137  0.1220 -1.3846  1.6662
 1571SOL     OW 4711   2.363   1.669   0.681 -0.0954 -0.5517  0.1243
 1571SOL    HW1 4712   2.419   1.601   0.720  2.3288  0.4574 -1.4203
 1571SOL    HW2 4713   2.294   1.681   0.746 -0.5473 -4.2930  0.6008
 1572SOL     OW 4714   2.495   2.724   1.585  0.4462 -0.0953  0.0271
 1572SOL    HW1 4715   2.475   2.651   1.644 -0.6616 -0.8758 -1.2763
 1572SOL    HW2 4716   2.541   2.787   1.641 -3.2135  0.6197  2.6276
 1573SOL     OW 4717   1.444   3.304   1.710 -0.1657 -0.1983  0.5968
 1573SOL    HW1 4718   1.388   3.367   1.665  0.2935  0.1346  0.4900
 1573SOL    HW2 4719   1.523   3.299   1.657  0.9075  1.1134  1.9690
 1574SOL     OW 4720   1.974   3.435   3.537  0.4474 -0.5636 -0.3917
 1574SOL    HW1 4721   1.959   3.405   3.626  2.5912 -1.3324 -0.2292
 1574SOL    HW2 4722   1.890   3.420   3.492 -0.1226 -1.8804  1.0292
 1575SOL     OW 4723   1.817   0.535   1.406 -0.4639  0.3928 -0.1881
 1575SOL    HW1 4724   1.751   0.578   1.351 -0.4383 -0.7496 -1.1467
 1575SOL    HW2 4725   1.784   0.545   1.495 -0.3504  2.5754 -0.3273
 1576SOL     OW 4726   1.396   3.486   2.793 -0.2035  0.5537 -0.2088
 1576SOL    HW1 4727   1.419   3.574   2.763 -1.4229  2.2804  3.4039
 1576SOL    HW2 4728   1.481   3.446   2.813  0.3252  1.1929 -1.0512
 1577SOL     OW 4729   0.688   2.073   0.547 -0.0628 -0.3084  0.3463
 1577SOL    HW1 4730   0.704   2.153   0.496  0.0068  0.1135  1.0214
 1577SOL    HW2 4731   0.737   2.005   0.500  0.1946  0.1189 -0.0156
 1578SOL     OW 4732   3.810   0.284   0.558 -0.2196 -0.1158  0.4982
 1578SOL    HW1 4733   3.760   0.255   0.634  2.7838 -0.0151  2.6614
 1578SOL    HW2 4734   3.796   0.379   0.555  0.7110  0.0911  1.8360
 1579SOL     OW 4735   2.227   2.210   1.633  0.1745  0.1900 -0.0474
 1579SOL    HW1 4736   2.266   2.189   1.718  1.1075 -1.8012 -0.9131
 1579SOL    HW2 4737   2.241   2.132   1.580  0.3762  1.6889 -2.3265
 1580SOL     OW 4738   3.989   1.806   3.191  0.3382  0.0399  0.0139
 1580SOL    HW1 4739   3.952   1.737   3.136  1.3958 -0.0855 -0.5618
 1580SOL    HW2 4740   3.970   1.777   3.280  2.0186 -1.7762 -0.1443
 1581SOL     OW 4741   0.882   0.400   3.460 -0.1263  0.4043  0.1049
 1581SOL    HW1 4742   0.816   0.462   3.431 -0.0398  0.1180 -0.7266
 1581SOL    HW2 4743   0.955   0.412   3.400  0.8851  1.2154  1.4389
 1582SOL     OW 4744   1.715   0.862   2.300 -0.0004 -0.1288 -0.2131
 1582SOL    HW1 4745   1.706   0.836   2.392 -1.7931  1.1833  0.0404
 1582SOL    HW2 4746   1.643   0.817   2.255 -0.1467  0.5289 -0.6490
 1583SOL     OW 4747   1.170   2.455   2.968 -0.1425  0.3097 -0.3365
 1583SOL    HW1 4748   1.097   2.435   3.026 -0.8403  2.2759 -0.4530
 1583SOL    HW2 4749   1.166   2.387   2.900 -0.4577 -0.9102  0.8669
 1584SOL     OW 4750   3.630   2.812   3.849  0.0814  0.2543  0.4621
 1584SOL    HW1 4751   3.624   2.892   3.798 -1.7736  0.4542  0.9393
 1584SOL    HW2 4752   3.699   2.761   3.805  0.5462  1.6280 -0.4730
 1585SOL     OW 4753   1.150   0.900   1.334 -0.1349 -0.4216 -0.0986
 1585SOL    HW1 4754   1.170   0.889   1.428  0.1070 -0.0334 -0.1026
 1585SOL    HW2 4755   1.224   0.860   1.289  0.0142 -0.1267 -0.1193
 1586SOL     OW 4756   3.707   2.743   0.834  0.4596 -0.0290 -0.0570
 1586SOL    HW1 4757   3.667   2.746   0.748 -0.2234  0.3498  0.2596
 1586SOL    HW2 4758   3.704   2.834   0.865  3.4489  0.4511 -0.8353
 1587SOL     OW 4759   2.018   3.769   3.665  0.1872  0.4065  0.0343
 1587SOL    HW1 4760   2.087   3.785   3.601 -0.5815  1.1717 -0.6420
 1587SOL    HW2 4761   2.052   3.700   3.721  1.2158  0.2952 -0.6992
 1588SOL     OW 4762   0.209   3.489   0.537 -0.0817  0.2414  0.3300
 1588SOL    HW1 4763   0.207   3.423   0.606  0.3620 -0.2616 -0.1304
 1588SOL    HW2 4764   0.292   3.475   0.493 -1.5966 -1.4764 -2.2583
 1589SOL     OW 4765   2.018   0.069   0.403  0.5888  0.0130  0.4377
 1589SOL    HW1 4766   1.946   0.124   0.434 -0.5638 -1.6491  0.8034
 1589SOL    HW2 4767   2.055   0.030   0.483  1.3505  0.1735  0.1761
 1590SOL     OW 4768   0.605   3.246   3.660 -0.5546 -0.0345 -0.7201
 1590SOL    HW1 4769   0.574   3.168   3.613  0.7337 -0.6728 -0.5786
 1590SOL    HW2 4770   0.682   3.215   3.708  0.0057  1.3418 -0.6902
 1591SOL     OW 4771   2.033   2.445   0.011 -0.1111 -0.4458  0.3803
 1591SOL    HW1 4772   2.089   2.522   0.001 -0.9965  0.3130  1.1353
 1591SOL    HW2 4773   1.955   2.477   0.055 -0.6159 -1.7334  0.4715
 1592SOL     OW 4774   3.588   1.491   0.109  0.5952 -0.8252  0.1674
 1592SOL    HW1 4775   3.492   1.490   0.104  0.6066  0.9493 -1.7659
 1592SOL    HW2 4776   3.616   1.521   0.023  2.8552 -0.2249  1.0472
 1593SOL     OW 4777   3.056   3.471   2.394 -0.4198 -0.3080  0.4512
 1593SOL    HW1 4778   3.091   3.386   2.420  3.0678  0.5002 -0.9799
 1593SOL    HW2 4779   3.089   3.532   2.460  1.3270  0.5244 -1.0859
 1594SOL     OW 4780   0.922   2.391   1.888  0.3502  0.1586  1.2483
 1594SOL    HW1 4781   0.945   2.298   1.893  0.0822  0.0884  1.1805
 1594SOL    HW2 4782   1.006   2.435   1.874  0.5434 -0.0294  1.7884
 1595SOL     OW 4783   2.579   3.105   4.007  0.0018 -0.0956  0.7231
 1595SOL    HW1 4784   2.658   3.064   4.042 -1.0444 -1.4157  1.6198
 1595SOL    HW2 4785   2.558   3.055   3.928 -1.3298 -1.4217  1.8720
 1596SOL     OW 4786   0.215   0.195   2.462  0.2394  0.2673  0.2760
 1596SOL    HW1 4787   0.161   0.154   2.529  1.0448 -1.6192 -0.1594
 1596SOL    HW2 4788   0.288   0.134   2.450  0.0493  0.4350 -2.4085
 1597SOL     OW 4789   1.807   1.135   0.705 -0.7881 -0.2645  0.6345
 1597SOL    HW1 4790   1.826   1.116   0.796 -3.0030 -1.9216  0.8514
 1597SOL    HW2 4791   1.892   1.155   0.666  0.2530  0.1654  2.9556
 1598SOL     OW 4792   2.531   3.284   3.327  0.7613 -0.1353  0.3561
 1598SOL    HW1 4793   2.507   3.369   3.363  1.9830  0.1680  0.5241
 1598SOL    HW2 4794   2.625   3.276   3.345  0.2893 -2.5537  2.4716
 1599SOL     OW 4795   3.858   1.737   3.780  0.1024 -0.0136  1.3198
 1599SOL    HW1 4796   3.903   1.818   3.756  0.6495 -0.5729  0.3966
 1599SOL    HW2 4797   3.790   1.726   3.713  1.5764 -1.5338 -0.0458
 1600SOL     OW 4798   1.961   1.856   0.431  0.0435  0.0574  0.1946
 1600SOL    HW1 4799   2.037   1.868   0.488 -0.1955  0.5933  0.4034
 1600SOL    HW2 4800   1.909   1.935   0.442 -0.3543 -0.1330 -0.2460
 1601SOL     OW 4801   3.164   0.415   0.988 -0.2189 -0.6029 -0.7547
 1601SOL    HW1 4802   3.141   0.332   0.946  0.4143 -1.1806  0.0057
 1601SOL    HW2 4803   3.135   0.405   1.079 -1.0422  0.4073 -0.8794
 1602SOL     OW 4804   0.104   1.487   0.773 -0.0451 -0.5933  0.3038
 1602SOL    HW1 4805   0.189   1.446   0.763 -0.4149 -1.1117 -0.8959
 1602SOL    HW2 4806   0.052   1.452   0.700 -0.9449  0.5454  0.3779
 1603SOL     OW 4807   1.010   0.803   0.148  0.4024  0.0171 -0.3926
 1603SOL    HW1 4808   0.948   0.758   0.205  1.3809 -0.1798  0.5331
 1603SOL    HW2 4809   1.088   0.748   0.149  1.8001  1.8908  1.1129
 1604SOL     OW 4810   0.959   3.249   3.791  0.9249 -0.8219 -0.1391
 1604SOL    HW1 4811   0.922   3.328   3.831  1.2046 -1.5513  1.6323
 1604SOL    HW2 4812   1.049   3.272   3.768  0.5378 -0.1749 -1.0895
 1605SOL     OW 4813   1.969   2.675   0.889  0.1928 -0.0165 -0.3415
 1605SOL    HW1 4814   1.923   2.609   0.941 -0.5075  0.4097 -0.4015
 1605SOL    HW2 4815   1.985   2.747   0.949 -0.7776  0.5500 -0.7395
 1606SOL     OW 4816   0.961   1.823   1.952 -0.3807 -0.2067  0.2846
 1606SOL    HW1 4817   1.029   1.801   1.888  0.4503 -2.2792  1.7924
 1606SOL    HW2 4818   1.008   1.850   2.030 -1.3820  1.3327  0.4094
 1607SOL     OW 4819   1.667   1.822   1.572 -0.1988 -0.0482 -0.0320
 1607SOL    HW1 4820   1.622   1.902   1.544 -1.1125 -0.8723 -0.9847
 1607SOL    HW2 4821   1.662   1.763   1.497  0.1275 -1.1568  0.7779
 1608SOL     OW 4822   3.171   0.727   1.680 -0.4847  0.6931  0.0846
 1608SOL    HW1 4823   3.174   0.792   1.610 -1.2689 -0.5989 -1.1988
 1608SOL    HW2 4824   3.082   0.691   1.676 -0.2413 -0.0843  1.1118
 1609SOL     OW 4825   1.505   1.404   1.829 -0.6571 -0.3010  0.2942
 1609SOL    HW1 4826   1.548   1.489   1.831 -0.0348 -0.5440 -1.3288
 1609SOL    HW2 4827   1.415   1.424   1.801 -0.8933 -0.0529  1.2089
 1610SOL     OW 4828   2.620   1.512   1.560  0.1413  0.0098  0.3587
 1610SOL    HW1 4829   2.592   1.563   1.636  0.7016 -1.5961  1.7073
 1610SOL    HW2 4830   2.538   1.484   1.519 -0.4977 -3.3310  3.3555
 1611SOL     OW 4831   3.882   1.168   2.687  0.5194 -0.2760  0.0205
 1611SOL    HW1 4832   3.892   1.211   2.602 -1.5085 -0.7460 -0.5153
 1611SOL    HW2 4833   3.799   1.200   2.720  1.6664  0.5574  2.2836
 1612SOL     OW 4834   2.451   1.150   2.578 -0.9818 -0.4431 -0.1621
 1612SOL    HW1 4835   2.500   1.225   2.611 -2.8172  0.7483 -0.0004
 1612SOL    HW2 4836   2.360   1.179   2.577 -1.7775 -2.7280  0.0140
 1613SOL     OW 4837   2.246   2.301   1.903 -0.1327  0.9295 -0.1032
 1613SOL    HW1 4838   2.295   2.344   1.973  1.7095 -1.1121 -0.0024
 1613SOL    HW2 4839   2.157   2.290   1.938  0.6068  0.4598  1.7331
 1614SOL     OW 4840   1.685   1.046   1.037  0.2592  0.4121  0.2967
 1614SOL    HW1 4841   1.676   1.036   1.132 -0.1189  0.1542  0.2383
 1614SOL    HW2 4842   1.665   0.959   1.002  2.6542 -0.1256  0.1043
 1615SOL     OW 4843   3.469   3.519   3.749  0.1173 -0.2105 -0.0974
 1615SOL    HW1 4844   3.439   3.444   3.801  0.4048  0.5721  1.2369
 1615SOL    HW2 4845   3.422   3.594   3.785  2.7272  0.8883  1.3143
 1616SOL     OW 4846   0.485   2.622   2.223 -0.2328  0.0203 -0.5245
 1616SOL    HW1 4847   0.436   2.647   2.145 -1.5945  1.1926  0.6315
 1616SOL    HW2 4848   0.483   2.526   2.222 -4.6592 -0.1411  0.5462
 1617SOL     OW 4849   3.053   1.682   3.354 -0.3194 -0.4635  0.2925
 1617SOL    HW1 4850   3.022   1.701   3.442  2.1074  0.2710  1.0695
 1617SOL    HW2 4851   2.990   1.618   3.320 -1.3072 -0.7915  2.5467
 1618SOL     OW 4852   3.624   3.771   3.114  0.3937 -0.4878  0.2592
 1618SOL    HW1 4853   3.601   3.733   3.029  0.6217 -1.3058  0.5476
 1618SOL    HW2 4854   3.719   3.784   3.110  0.4605 -0.8488  0.4950
 1619SOL     OW 4855   1.019   2.296   1.340 -0.0582  0.1867  0.3410
 1619SOL    HW1 4856   1.057   2.384   1.347  2.2400 -0.6785 -0.4962
 1619SOL    HW2 4857   0.977   2.282   1.425  0.1856  1.7925  0.7663
 1620SOL     OW 4858   2.824   3.671   1.534  0.3797  0.4844 -0.1387
 1620SOL    HW1 4859   2.786   3.675   1.622 -3.4723  0.9911 -1.6138
 1620SOL    HW2 4860   2.843   3.579   1.520 -1.9115 -0.1143  0.2451
 1621SOL     OW 4861   1.057   2.056   2.989 -0.5156 -0.1634 -0.0970
 1621SOL    HW1 4862   1.017   2.057   3.076  1.2731  0.3776  0.7735
 1621SOL    HW2 4863   1.100   1.971   2.984  0.3659  0.2603  0.0482
 1622SOL     OW 4864   0.216   3.696   2.543 -0.2939 -0.2444  1.1139
 1622SOL    HW1 4865   0.130   3.739   2.547 -0.4522 -0.5864  4.2356
 1622SOL    HW2 4866   0.278   3.766   2.566  0.5194  0.2672 -2.1104
 1623SOL     OW 4867   0.322   3.967   1.697 -0.0808  0.5742 -0.0229
 1623SOL    HW1 4868   0.266   3.899   1.659  0.9679  0.2727 -1.0978
 1623SOL    HW2 4869   0.387   3.919   1.748 -1.0936  0.9488  1.7048
 1624SOL     OW 4870   0.002   2.057   3.885 -0.3207 -0.2217  0.3091
 1624SOL    HW1 4871  -0.018   2.130   3.944 -1.8666 -1.0027  0.8188
 1624SOL    HW2 4872   0.065   2.003   3.934 -0.0780  0.1540  0.4170
 1625SOL     OW 4873   0.902   2.054   3.203 -0.7496 -0.1966 -0.1256
 1625SOL    HW1 4874   0.876   2.069   3.293 -0.1674 -0.2108  0.0532
 1625SOL    HW2 4875   0.835   1.996   3.167 -2.2929  1.6950 -0.4361
 1626SOL     OW 4876   3.688   2.058   3.825  0.7330  0.7452  0.4431
 1626SOL    HW1 4877   3.617   2.112   3.790  1.3089 -0.9252 -4.0603
 1626SOL    HW2 4878   3.766   2.114   3.819  0.3941  1.4566  2.1425
 1627SOL     OW 4879   0.678   1.460   0.548 -0.2249 -0.4156 -0.1924
 1627SOL    HW1 4880   0.588   1.465   0.516  0.1855  1.7335 -1.2374
 1627SOL    HW2 4881   0.673   1.497   0.636 -0.2094  0.9155 -0.7257
 1628SOL     OW 4882   3.207   0.152   1.418  0.1547  0.0674 -0.2173
 1628SOL    HW1 4883   3.286   0.102   1.397  0.0327 -1.2957  2.1744
 1628SOL    HW2 4884   3.240   0.233   1.458  0.3282  0.4416 -1.0971
 1629SOL     OW 4885   3.802   2.918   3.652  0.0087  0.3013  0.1759
 1629SOL    HW1 4886   3.891   2.944   3.626 -0.0185 -1.3442 -1.7646
 1629SOL    HW2 4887   3.810   2.826   3.676 -0.9925  0.4311  1.0697
 1630SOL     OW 4888   1.405   2.273   3.133  0.7839  0.0607  0.0634
 1630SOL    HW1 4889   1.373   2.329   3.204 -0.2661  0.5017 -0.7216
 1630SOL    HW2 4890   1.489   2.241   3.164  0.0884 -0.2540  1.7708
 1631SOL     OW 4891   2.202   1.952   2.294 -0.6586  0.0050  0.7542
 1631SOL    HW1 4892   2.172   1.910   2.375 -0.4675  0.9438  1.3313
 1631SOL    HW2 4893   2.298   1.948   2.299 -0.6235  0.8848  1.0431
 1632SOL     OW 4894   1.189   0.968   3.355 -0.4983  0.1458  0.3721
 1632SOL    HW1 4895   1.243   0.932   3.285 -0.1386 -0.3204  0.8737
 1632SOL    HW2 4896   1.224   0.927   3.435 -2.4945 -1.3021  0.5949
 1633SOL     OW 4897   1.519   2.375   3.733 -0.0638 -0.5956  0.2052
 1633SOL    HW1 4898   1.609   2.344   3.721 -0.1011 -1.0364  1.0478
 1633SOL    HW2 4899   1.528   2.458   3.779 -0.0230  0.1812 -1.1264
 1634SOL     OW 4900   1.295   0.851   0.213  0.4465  0.2257  0.2972
 1634SOL    HW1 4901   1.276   0.774   0.159 -0.5118  1.9357 -1.9699
 1634SOL    HW2 4902   1.260   0.828   0.299  0.3670 -1.9266 -0.2414
 1635SOL     OW 4903   1.880   3.897   1.747  0.0622  0.4279  0.3775
 1635SOL    HW1 4904   1.819   3.883   1.675 -0.6758 -0.1060  1.0929
 1635SOL    HW2 4905   1.964   3.915   1.704  0.2804 -2.5464 -0.6458
 1636SOL     OW 4906   1.766   1.963   3.847  0.5440 -0.1251  0.3917
 1636SOL    HW1 4907   1.674   1.968   3.821  0.7735  0.2226 -0.3784
 1636SOL    HW2 4908   1.793   2.055   3.858  0.4181 -0.2437  2.0563
 1637SOL     OW 4909   3.820   1.299   1.039  0.3776  0.2621  0.0400
 1637SOL    HW1 4910   3.847   1.388   1.017  1.0291 -0.0590 -0.4835
 1637SOL    HW2 4911   3.902   1.254   1.061  0.4231 -0.9478 -2.3741
 1638SOL     OW 4912   1.904   3.536   2.924  0.0862  0.0058 -0.4277
 1638SOL    HW1 4913   1.963   3.474   2.879 -1.2870 -1.2981 -0.5054
 1638SOL    HW2 4914   1.925   3.525   3.017  1.8426  1.5758 -0.5727
 1639SOL     OW 4915   1.666   0.536   0.062  0.1095  0.0181  0.2031
 1639SOL    HW1 4916   1.581   0.500   0.036 -0.2138  0.3544  0.7668
 1639SOL    HW2 4917   1.721   0.460   0.078 -0.8790 -0.3060  2.4470
 1640SOL     OW 4918   3.938   2.139   3.542  0.0710  0.4209 -0.1886
 1640SOL    HW1 4919   3.980   2.110   3.460 -1.1003  0.6923 -0.9112
 1640SOL    HW2 4920   4.010   2.146   3.604  0.6968 -2.0399 -0.5335
 1641SOL     OW 4921   2.677   2.380   3.359 -0.1176 -0.0253  0.1413
 1641SOL    HW1 4922   2.604   2.381   3.421  1.3693  0.8608  1.9608
 1641SOL    HW2 4923   2.701   2.472   3.348 -0.3195 -0.1543 -1.8076
 1642SOL     OW 4924   1.431   3.786   1.474 -0.3399  0.4781  0.1806
 1642SOL    HW1 4925   1.458   3.869   1.435 -0.0888  0.3309  0.0411
 1642SOL    HW2 4926   1.351   3.807   1.523  0.2930  1.0189  1.0040
 1643SOL     OW 4927   2.427   0.039   0.906  0.3046 -0.4839 -0.6071
 1643SOL    HW1 4928   2.389   0.077   0.827 -2.1575  2.7350  1.8569
 1643SOL    HW2 4929   2.357  -0.014   0.944  0.7681 -0.4773  0.2997
 1644SOL     OW 4930   1.907   2.609   2.505 -0.4982  0.4376 -0.1876
 1644SOL    HW1 4931   1.855   2.553   2.563  1.4255 -2.1255 -0.8021
 1644SOL    HW2 4932   1.972   2.649   2.562  1.1483 -1.7834 -0.3915
 1645SOL     OW 4933   1.495   0.814   1.471 -0.0313 -0.5859  0.0168
 1645SOL    HW1 4934   1.485   0.724   1.502 -1.1912 -0.1983  0.8804
 1645SOL    HW2 4935   1.486   0.868   1.551 -2.0099  0.3927 -0.7780
 1646SOL     OW 4936   0.495   1.452   2.601  0.2846 -0.8452 -0.1277
 1646SOL    HW1 4937   0.437   1.505   2.655  0.2996 -0.9676  0.0107
 1646SOL    HW2 4938   0.473   1.361   2.624 -2.5161 -1.1372 -3.1416
 1647SOL     OW 4939  -0.029   0.587   0.834  0.5227 -0.1081 -0.0028
 1647SOL    HW1 4940   0.030   0.550   0.769  1.0598  0.8551 -0.0781
 1647SOL    HW2 4941   0.027   0.603   0.910  0.1178 -0.2412  0.3270
 1648SOL     OW 4942   1.211   1.264   3.146 -0.4854 -0.6088  0.5861
 1648SOL    HW1 4943   1.253   1.252   3.231 -0.1034  1.3043  0.7277
 1648SOL    HW2 4944   1.276   1.311   3.093 -0.9390 -1.2308 -0.5722
 1649SOL     OW 4945   0.071   1.233   0.286 -0.4147  0.7097 -0.4301
 1649SOL    HW1 4946  -0.023   1.235   0.265 -0.5272  2.2787  0.1156
 1649SOL    HW2 4947   0.114   1.245   0.201 -0.7685  2.0301 -0.4469
 1650SOL     OW 4948   3.515   1.055   2.146 -0.0435 -0.0313  0.4057
 1650SOL    HW1 4949   3.490   0.969   2.114  0.0127 -0.1478  0.6705
 1650SOL    HW2 4950   3.610   1.049   2.159 -0.2095 -0.3110  1.5584
 1651SOL     OW 4951   1.301   2.523   3.215 -0.0524  0.0834  0.6051
 1651SOL    HW1 4952   1.292   2.519   3.119 -2.1856  0.9925  0.7028
 1651SOL    HW2 4953   1.211   2.530   3.246  0.7088  3.3249  2.4947
 1652SOL     OW 4954   3.435   1.749   2.961  0.0044  0.1978 -0.3481
 1652SOL    HW1 4955   3.461   1.763   3.052  0.2231 -2.0986  0.0091
 1652SOL    HW2 4956   3.357   1.693   2.966  0.3732 -0.4741 -1.5525
 1653SOL     OW 4957   1.761   2.485   0.048 -0.4488  0.0844 -0.4165
 1653SOL    HW1 4958   1.699   2.527   0.107 -0.0405  1.3111 -0.8263
 1653SOL    HW2 4959   1.759   2.540  -0.031  0.4706 -0.3856 -0.7746
 1654SOL     OW 4960   2.725   1.692   0.854  0.8376 -0.3879  0.2657
 1654SOL    HW1 4961   2.724   1.786   0.872 -1.3198 -0.5958  1.5985
 1654SOL    HW2 4962   2.817   1.670   0.841  1.3559  1.9424 -0.3729
 1655SOL     OW 4963   1.341   2.580   0.817  0.0553 -0.1371  0.5352
 1655SOL    HW1 4964   1.328   2.608   0.727  1.9800 -1.8665 -0.3659
 1655SOL    HW2 4965   1.265   2.526   0.837 -0.0413 -0.3236 -0.3131
 1656SOL     OW 4966   1.269   1.617   1.092 -0.8545 -0.5571 -0.2262
 1656SOL    HW1 4967   1.186   1.600   1.135 -0.6347 -0.8825  0.0807
 1656SOL    HW2 4968   1.282   1.711   1.100 -1.7639 -0.3246 -1.3415
 1657SOL     OW 4969   1.265   0.020   1.798 -0.0316 -0.1924 -0.3698
 1657SOL    HW1 4970   1.300  -0.037   1.730  0.7679  0.0653 -0.1804
 1657SOL    HW2 4971   1.282   0.109   1.767  0.0969 -0.0712  0.0397
 1658SOL     OW 4972   3.947   1.474   2.681  0.4264  0.3520  0.9609
 1658SOL    HW1 4973   3.863   1.453   2.639  0.4692 -0.5938  1.3199
 1658SOL    HW2 4974   4.008   1.485   2.608 -0.1119  1.6119  0.6671
 1659SOL     OW 4975   2.333   2.784   1.027 -0.1257  0.2748 -0.2484
 1659SOL    HW1 4976   2.408   2.843   1.024  0.0476  0.0052 -1.4909
 1659SOL    HW2 4977   2.346   2.734   1.109 -0.5514  2.2476  1.0869
 1660SOL     OW 4978   2.222   1.984   3.151  0.0769  0.1517  0.6491
 1660SOL    HW1 4979   2.249   2.046   3.219 -1.8053  0.9564  0.7116
 1660SOL    HW2 4980   2.217   1.900   3.196  0.2458  0.4032  1.1460
 1661SOL     OW 4981   0.007   2.420   3.695  0.3860 -0.4711 -0.6107
 1661SOL    HW1 4982   0.065   2.448   3.766 -1.7497 -1.8355  1.7977
 1661SOL    HW2 4983   0.051   2.344   3.657  1.0702 -0.3347 -0.1122
 1662SOL     OW 4984   1.932   3.432   3.166 -0.9886  0.3208  0.5195
 1662SOL    HW1 4985   1.982   3.413   3.246  0.2788  0.7304 -0.1462
 1662SOL    HW2 4986   1.922   3.346   3.124  1.0641  0.4726 -0.3971
 1663SOL     OW 4987   3.915   0.883   0.114 -0.3412  0.9222  0.0694
 1663SOL    HW1 4988   3.947   0.873   0.025  1.8731 -1.4267  1.0122
 1663SOL    HW2 4989   3.908   0.794   0.148 -0.4947  1.7648  2.4639
 1664SOL     OW 4990   0.307   0.111   1.450  0.2728 -0.5038  0.2086
 1664SOL    HW1 4991   0.310   0.174   1.522 -2.3557  0.7014 -0.6022
 1664SOL    HW2 4992   0.370   0.043   1.475  4.8619  3.2086  0.2726
 1665SOL     OW 4993   0.793   1.118   2.109 -0.4011 -0.2876 -0.3099
 1665SOL    HW1 4994   0.753   1.188   2.160 -0.0531  0.4103 -0.9803
 1665SOL    HW2 4995   0.769   1.038   2.156  0.7845  0.3857  1.5866
 1666SOL     OW 4996   3.852   3.704   2.880  0.3083 -0.0476 -0.4374
 1666SOL    HW1 4997   3.877   3.749   2.960  1.0628 -0.7599 -0.2510
 1666SOL    HW2 4998   3.880   3.613   2.894  2.3159  0.1950 -2.2603
 1667SOL     OW 4999   1.529   2.979   1.601  0.3960 -0.2439 -0.6174
 1667SOL    HW1 5000   1.512   3.056   1.548 -0.2122 -0.6813 -1.0596
 1667SOL    HW2 5001   1.567   2.916   1.541  1.1698 -0.2027 -0.1945
 1668SOL     OW 5002   2.820   2.198   3.524  0.7168  0.2766  0.1876
 1668SOL    HW1 5003   2.867   2.276   3.494 -0.7009  0.8063 -0.7731
 1668SOL    HW2 5004   2.797   2.218   3.615 -1.6210  2.0557 -0.6853
 1669SOL     OW 5005   2.456   2.524   3.479  0.6965 -0.0930  0.3907
 1669SOL    HW1 5006   2.428   2.558   3.394  3.7197 -2.8550 -1.9379
 1669SOL    HW2 5007   2.378   2.485   3.516 -0.3609 -0.3998 -1.9832
 1670SOL     OW 5008   1.279   3.661   2.504  0.2190  0.4672 -0.4169
 1670SOL    HW1 5009   1.357   3.682   2.555  0.8569  1.7714 -1.8187
 1670SOL    HW2 5010   1.289   3.569   2.481  1.0116  0.4449 -0.0045
 1671SOL     OW 5011   0.126   3.519   2.872 -0.1012  0.2778  0.2626
 1671SOL    HW1 5012   0.123   3.586   2.940 -0.4210  0.5567 -0.0205
 1671SOL    HW2 5013   0.162   3.564   2.796  0.5645 -0.1195  0.3368
 1672SOL     OW 5014   2.962   3.544   2.801  0.2851 -0.4949  0.0613
 1672SOL    HW1 5015   2.975   3.450   2.813  0.4985 -0.3626  0.9237
 1672SOL    HW2 5016   3.042   3.574   2.756  0.4712 -0.6265  0.3029
 1673SOL     OW 5017   2.636   2.898   1.790 -0.2986  0.1194  0.4860
 1673SOL    HW1 5018   2.573   2.937   1.851 -1.0446  0.8521 -0.7162
 1673SOL    HW2 5019   2.720   2.932   1.818 -0.4578 -0.5628  1.8789
 1674SOL     OW 5020   3.499   2.803   0.631  0.4593  0.1827 -0.6249
 1674SOL    HW1 5021   3.451   2.724   0.657 -1.3458  0.9577 -1.4242
 1674SOL    HW2 5022   3.495   2.802   0.535 -0.4406  1.7257 -0.6233
 1675SOL     OW 5023   1.050   3.705   3.273 -0.2736  0.1826 -0.5785
 1675SOL    HW1 5024   1.056   3.644   3.200  0.0970  1.2281 -1.4639
 1675SOL    HW2 5025   1.130   3.759   3.265  1.9987 -2.2445  3.0339
 1676SOL     OW 5026   0.480   0.645   3.731 -0.4060  0.5966  0.3454
 1676SOL    HW1 5027   0.559   0.692   3.759 -2.2398  3.1680  1.5378
 1676SOL    HW2 5028   0.450   0.601   3.810  1.5052 -3.3121 -0.8220
 1677SOL     OW 5029   3.096   3.482   2.109 -0.1148 -0.1725 -0.5740
 1677SOL    HW1 5030   3.097   3.461   2.202 -2.0525 -2.8870 -1.0358
 1677SOL    HW2 5031   3.063   3.572   2.105  3.2125  1.3433  1.3742
 1678SOL     OW 5032   1.198   1.896   2.141 -0.8520  0.0349 -0.2687
 1678SOL    HW1 5033   1.269   1.950   2.106 -0.9937 -0.5668 -1.5479
 1678SOL    HW2 5034   1.229   1.806   2.129 -2.6754 -0.3639 -2.9702
 1679SOL     OW 5035   0.656   2.492   3.001 -0.5434 -0.5459  0.6508
 1679SOL    HW1 5036   0.705   2.494   2.919 -0.9502 -0.7727  0.3996
 1679SOL    HW2 5037   0.626   2.583   3.013  0.7184 -0.2035  1.2876
 1680SOL     OW 5038   2.216   1.420   3.634  0.0696 -0.2439 -0.8701
 1680SOL    HW1 5039   2.236   1.332   3.600  0.9179 -0.9684  1.3421
 1680SOL    HW2 5040   2.122   1.430   3.618 -0.0296 -1.5134 -1.2531
 1681SOL     OW 5041   1.187   0.886   1.625 -0.7140  0.4477  0.3140
 1681SOL    HW1 5042   1.214   0.941   1.699 -0.2099  0.0631  0.4208
 1681SOL    HW2 5043   1.110   0.931   1.589 -0.0080  1.5157  0.0666
 1682SOL     OW 5044   2.889   2.312   1.119  0.3891 -0.6125  0.3889
 1682SOL    HW1 5045   2.958   2.316   1.186 -0.6590 -0.7711  1.5188
 1682SOL    HW2 5046   2.863   2.220   1.117  0.2250 -0.5571 -0.0603
 1683SOL     OW 5047   0.481   0.221   0.929  0.0163 -0.0108 -0.4997
 1683SOL    HW1 5048   0.439   0.272   0.859 -1.3070 -1.2750 -0.6962
 1683SOL    HW2 5049   0.574   0.238   0.919 -0.3470  2.1002 -0.7372
 1684SOL     OW 5050   0.679   2.893   1.169  0.0858 -0.0522 -0.1819
 1684SOL    HW1 5051   0.764   2.899   1.125  0.4321  2.0601  0.6560
 1684SOL    HW2 5052   0.694   2.928   1.257 -1.6145  0.2481  0.0362
 1685SOL     OW 5053   3.772   1.546   1.469 -0.0551  0.0969 -0.3207
 1685SOL    HW1 5054   3.777   1.617   1.404  1.0461 -0.5225 -0.9448
 1685SOL    HW2 5055   3.863   1.531   1.494 -0.4293  0.0350  1.0787
 1686SOL     OW 5056   2.039   0.619   2.468  0.0490  0.4875 -0.3408
 1686SOL    HW1 5057   2.090   0.601   2.388  0.4070 -1.5088  0.2977
 1686SOL    HW2 5058   2.062   0.710   2.490  3.0775 -0.1525 -0.3207
 1687SOL     OW 5059   3.831   0.801   2.716 -0.1921  0.8158  0.4592
 1687SOL    HW1 5060   3.867   0.843   2.794 -0.7219 -0.7111  1.5825
 1687SOL    HW2 5061   3.736   0.807   2.727 -0.2999  1.9098 -0.8407
 1688SOL     OW 5062   1.437   3.504   1.480 -0.5101 -0.4547 -0.9440
 1688SOL    HW1 5063   1.469   3.461   1.401 -2.5544 -0.6095 -1.7595
 1688SOL    HW2 5064   1.456   3.597   1.465  0.4608 -0.6337 -0.9083
 1689SOL     OW 5065   1.490   0.321   1.550 -0.1929 -0.2921 -0.0258
 1689SOL    HW1 5066   1.509   0.387   1.484 -1.3429 -0.9281 -1.0272
 1689SOL    HW2 5067   1.571   0.313   1.600  0.6108  0.4091 -1.1794
 1690SOL     OW 5068   0.025   3.516   3.795  0.7115  0.0352 -1.2276
 1690SOL    HW1 5069  -0.070   3.503   3.800  0.7734 -0.0336  0.3876
 1690SOL    HW2 5070   0.063   3.431   3.815  1.0813  0.8326  1.9696
 1691SOL     OW 5071   2.590   0.772   1.434 -0.1153 -0.0695  0.4979
 1691SOL    HW1 5072   2.601   0.696   1.376  0.1886 -0.0111  0.4772
 1691SOL    HW2 5073   2.558   0.735   1.516 -2.2835  0.0147 -0.2456
 1692SOL     OW 5074   3.076   2.942   0.485  0.0454  0.3767 -1.1575
 1692SOL    HW1 5075   3.057   3.027   0.526  0.3493  0.0535 -0.3193
 1692SOL    HW2 5076   3.147   2.960   0.425 -0.5245  0.8998 -1.6932
 1693SOL     OW 5077   1.837   0.176   3.792  0.6389 -0.1414 -0.0930
 1693SOL    HW1 5078   1.822   0.082   3.800 -0.0787  0.1219  2.8605
 1693SOL    HW2 5079   1.930   0.183   3.767  1.5023 -1.6925  2.3032
 1694SOL     OW 5080   2.491   2.488   1.726 -0.2209  0.0458 -0.0326
 1694SOL    HW1 5081   2.573   2.508   1.771  1.7907 -1.0666 -2.8707
 1694SOL    HW2 5082   2.504   2.399   1.691 -2.0020  0.4047 -1.8304
 1695SOL     OW 5083   1.733   3.857   0.801  0.3161 -0.3393 -0.5988
 1695SOL    HW1 5084   1.759   3.829   0.889  0.8904  0.7048 -0.4165
 1695SOL    HW2 5085   1.816   3.874   0.756  0.0641 -1.8400 -1.7009
 1696SOL     OW 5086   0.406   3.910   3.946 -0.5947  0.2201  0.3036
 1696SOL    HW1 5087   0.379   3.819   3.960 -0.1359  0.2619  1.6160
 1696SOL    HW2 5088   0.337   3.962   3.988 -0.1825  0.4215  0.7430
 1697SOL     OW 5089   3.821   2.032   1.277  0.5764 -0.3985 -0.2324
 1697SOL    HW1 5090   3.789   2.079   1.354 -1.1889 -0.2975 -0.9895
 1697SOL    HW2 5091   3.817   2.097   1.206 -0.1763 -1.1848 -0.9150
 1698SOL     OW 5092   0.169   2.967   1.002  0.3218 -0.0113 -0.7253
 1698SOL    HW1 5093   0.171   3.062   0.990 -2.2561  0.1331 -0.6180
 1698SOL    HW2 5094   0.093   2.952   1.058 -0.2237 -2.2324 -1.9470
 1699SOL     OW 5095   2.036   3.368   0.485 -0.5015  0.7113 -0.0705
 1699SOL    HW1 5096   2.001   3.343   0.400 -2.2040  0.1791  0.7423
 1699SOL    HW2 5097   2.064   3.459   0.473  0.1090  0.3646 -1.4199
 1700SOL     OW 5098   0.717   2.918   0.831  0.1852 -0.0189  0.0098
 1700SOL    HW1 5099   0.711   3.010   0.856  1.3572  0.5583 -1.6180
 1700SOL    HW2 5100   0.649   2.907   0.764  1.7726  0.4290 -1.7529
 1701SOL     OW 5101   1.762   3.456   1.665 -0.1471  0.0969 -0.0964
 1701SOL    HW1 5102   1.846   3.419   1.690  0.5271  0.0333 -2.2557
 1701SOL    HW2 5103   1.718   3.476   1.748  2.5612  1.4858  1.1310
 1702SOL     OW 5104   2.707   1.215   1.633 -0.0245  0.0163 -0.2116
 1702SOL    HW1 5105   2.802   1.211   1.641 -0.0788 -0.2842  0.3631
 1702SOL    HW2 5106   2.682   1.288   1.690 -0.0644  0.6822 -1.0718
 1703SOL     OW 5107   0.092   1.079   0.628 -0.3662  0.3635  0.0336
 1703SOL    HW1 5108   0.110   1.156   0.574 -0.1756  0.2838 -0.0189
 1703SOL    HW2 5109   0.030   1.109   0.694 -1.0651  0.3122 -0.5938
 1704SOL     OW 5110   3.111   2.051   1.945 -0.2241  0.1747 -0.1724
 1704SOL    HW1 5111   3.164   2.023   2.020 -1.9487 -3.3140 -0.0517
 1704SOL    HW2 5112   3.146   2.137   1.921  1.6713  0.5718  3.3837
 1705SOL     OW 5113   0.243   0.589   3.067  0.5242 -0.3250 -0.0721
 1705SOL    HW1 5114   0.332   0.569   3.095  0.6259  2.3101  1.9593
 1705SOL    HW2 5115   0.202   0.629   3.143 -1.9708 -0.1604 -1.3749
 1706SOL     OW 5116   2.874   1.901   2.066  0.2371  0.2021 -0.4620
 1706SOL    HW1 5117   2.826   1.878   1.986  2.0229  2.6472 -2.3940
 1706SOL    HW2 5118   2.948   1.840   2.066  0.0415 -0.0377 -0.4800
 1707SOL     OW 5119   1.241   1.927   0.540  0.5201 -0.3543 -0.2770
 1707SOL    HW1 5120   1.181   1.967   0.477  0.3122 -0.8659 -0.4101
 1707SOL    HW2 5121   1.185   1.869   0.592  0.7233 -0.0730  0.2582
 1708SOL     OW 5122   2.414   2.833   2.340 -0.4708  0.3482  0.1831
 1708SOL    HW1 5123   2.348   2.811   2.274 -0.9287 -1.6970  1.2448
 1708SOL    HW2 5124   2.497   2.830   2.292 -0.8278 -0.7558 -0.4148
 1709SOL     OW 5125   2.964   1.209   1.622  0.5153  0.7258 -0.3066
 1709SOL    HW1 5126   3.023   1.214   1.547  0.5416  0.4122 -0.3075
 1709SOL    HW2 5127   3.013   1.157   1.687 -1.0928 -2.6663 -1.5682
 1710SOL     OW 5128   2.391   2.790   2.604 -0.4524  0.2745  0.1336
 1710SOL    HW1 5129   2.473   2.745   2.624 -1.2984 -2.3202 -1.7209
 1710SOL    HW2 5130   2.395   2.807   2.510 -1.6203  1.0364  0.1979
 1711SOL     OW 5131   3.211   2.363   2.530 -0.6398  0.6370 -0.4230
 1711SOL    HW1 5132   3.173   2.315   2.604  0.3076 -0.1968 -0.4491
 1711SOL    HW2 5133   3.183   2.314   2.453 -2.1337  1.8532 -0.6897
 1712SOL     OW 5134   2.837   0.618   1.379  0.2705 -0.3912 -0.2516
 1712SOL    HW1 5135   2.865   0.601   1.289 -0.2392  1.5911 -0.8378
 1712SOL    HW2 5136   2.893   0.689   1.409 -0.2781 -0.3095  0.6282
 1713SOL     OW 5137   2.804   2.341   3.013  0.1659  0.2113  0.9297
 1713SOL    HW1 5138   2.885   2.391   3.011  0.0134  0.7938 -4.5836
 1713SOL    HW2 5139   2.735   2.407   3.023  0.1755  0.2108  1.0046
 1714SOL     OW 5140   2.883   1.886   1.336 -0.5553 -0.0091  0.4321
 1714SOL    HW1 5141   2.831   1.856   1.261 -1.4162 -1.9342  1.6868
 1714SOL    HW2 5142   2.819   1.931   1.392  0.4550  3.1904 -0.7663
 1715SOL     OW 5143   3.123   2.046   2.912  0.0920  0.2901 -0.5615
 1715SOL    HW1 5144   3.142   2.079   2.825 -0.0741  1.3605 -0.2015
 1715SOL    HW2 5145   3.039   2.085   2.935  1.4971  2.5172  1.2615
 1716SOL     OW 5146   3.306   2.280   3.532  1.5488  0.1284 -0.1998
 1716SOL    HW1 5147   3.344   2.195   3.506 -1.3763 -1.0966 -0.9231
 1716SOL    HW2 5148   3.295   2.327   3.450 -0.7743 -0.6360 -0.3951
 1717SOL     OW 5149   0.130   3.250   3.910  0.4318 -0.1881 -0.1925
 1717SOL    HW1 5150   0.044   3.221   3.943  2.0464 -2.3274  2.6332
 1717SOL    HW2 5151   0.190   3.180   3.936  3.7323  2.9773  1.6393
 1718SOL     OW 5152   3.775   2.076   2.987 -0.6432 -0.8655 -0.4366
 1718SOL    HW1 5153   3.838   2.144   2.964 -2.8900  0.7283 -2.5167
 1718SOL    HW2 5154   3.788   2.007   2.922 -0.2672 -1.0832 -0.1298
 1719SOL     OW 5155   1.304   0.515   3.434  0.0400 -0.1605 -0.1722
 1719SOL    HW1 5156   1.393   0.497   3.464 -0.0003  2.8055  2.1382
 1719SOL    HW2 5157   1.316   0.566   3.354  0.2796 -1.9537 -1.3415
 1720SOL     OW 5158   3.915   0.823   1.026 -0.0452  0.3892 -0.1571
 1720SOL    HW1 5159   3.975   0.752   1.050  0.9340  1.6502  1.3781
 1720SOL    HW2 5160   3.970   0.888   0.984 -1.1478 -0.2031 -2.7298
 1721SOL     OW 5161   0.711   3.173   2.536  0.6454  0.4440  0.5936
 1721SOL    HW1 5162   0.623   3.203   2.514 -0.3340  0.1431  3.6847
 1721SOL    HW2 5163   0.721   3.090   2.488 -0.7883  0.4182  0.3066
 1722SOL     OW 5164   3.668   0.099   2.925  0.0078  0.1646  0.1026
 1722SOL    HW1 5165   3.594   0.092   2.864  0.7364 -2.5445 -0.5898
 1722SOL    HW2 5166   3.631   0.074   3.010 -0.4844  1.7177  0.3825
 1723SOL     OW 5167   3.987   2.047   0.937 -0.4499  0.1126  0.5411
 1723SOL    HW1 5168   3.919   2.109   0.960 -1.1604 -0.0618 -0.9491
 1723SOL    HW2 5169   4.068   2.086   0.968 -0.9265  1.6173 -0.0480
 1724SOL     OW 5170   1.457   0.515   0.272 -0.7359  0.2015 -0.5616
 1724SOL    HW1 5171   1.521   0.581   0.299 -1.8442  0.3639  1.9328
 1724SOL    HW2 5172   1.509   0.434   0.265  0.3235  0.9633 -2.0010
 1725SOL     OW 5173   1.462   1.575   0.082 -0.4723  0.2930  0.3424
 1725SOL    HW1 5174   1.464   1.661   0.124 -2.4331  0.9010 -0.6901
 1725SOL    HW2 5175   1.477   1.513   0.153 -0.8094  1.4154  1.4295
 1726SOL     OW 5176   0.397   1.179   1.758  0.4934 -0.1851  0.4201
 1726SOL    HW1 5177   0.487   1.211   1.769  0.0997  0.6913  1.1037
 1726SOL    HW2 5178   0.404   1.118   1.684  1.7892 -0.6942  0.9210
 1727SOL     OW 5179   3.662   3.263   0.284 -0.0170 -0.1326 -0.5164
 1727SOL    HW1 5180   3.588   3.217   0.243  0.8087  0.6106 -3.0863
 1727SOL    HW2 5181   3.706   3.197   0.336 -1.3847 -1.0857 -0.5102
 1728SOL     OW 5182   2.419   0.249   3.672  0.1836 -0.8341  0.6140
 1728SOL    HW1 5183   2.455   0.327   3.629 -1.8226  0.4879  1.1929
 1728SOL    HW2 5184   2.364   0.208   3.605  1.4582 -1.9790  0.2173
 1729SOL     OW 5185   1.727   0.788   0.844 -0.2492 -0.1967 -0.4568
 1729SOL    HW1 5186   1.765   0.859   0.792 -1.9569  0.1067 -1.3270
 1729SOL    HW2 5187   1.787   0.714   0.831  1.4436  0.9820  0.3025
 1730SOL     OW 5188   3.062   3.092   3.318  0.2164 -0.1708  0.4884
 1730SOL    HW1 5189   2.969   3.072   3.334  0.3854 -2.9687 -1.3824
 1730SOL    HW2 5190   3.093   3.127   3.402 -2.7112  1.8635  0.8803
 1731SOL     OW 5191   3.348   3.680   1.721  0.4423  0.4684  0.5656
 1731SOL    HW1 5192   3.407   3.635   1.660  1.2493 -0.7480  2.1667
 1731SOL    HW2 5193   3.280   3.717   1.665  0.6815 -1.2908 -1.0078
 1732SOL     OW 5194   1.461   3.137   2.384 -0.7310  0.1984 -0.1054
 1732SOL    HW1 5195   1.504   3.154   2.467 -4.6543  2.9702  1.6593
 1732SOL    HW2 5196   1.411   3.057   2.398 -1.5419  0.7701  0.2953
 1733SOL     OW 5197   2.369   2.526   2.361 -0.0104  0.5069  0.6746
 1733SOL    HW1 5198   2.427   2.451   2.375  0.0607  0.2900 -0.6432
 1733SOL    HW2 5199   2.398   2.564   2.278  0.9377  2.9347  2.0209
 1734SOL     OW 5200   1.827   1.816   2.011 -0.5226 -0.0783 -0.4937
 1734SOL    HW1 5201   1.916   1.780   2.011 -0.5561 -0.2005  0.4371
 1734SOL    HW2 5202   1.774   1.748   2.052 -1.2279 -0.3837 -1.8515
 1735SOL     OW 5203   3.764   1.121   0.257 -0.2124 -0.4784 -0.2397
 1735SOL    HW1 5204   3.803   1.180   0.193 -0.5891 -1.3043 -1.2529
 1735SOL    HW2 5205   3.801   1.036   0.238 -1.0576 -0.9169  0.0164
 1736SOL     OW 5206   2.220   3.176   2.538 -0.0655  0.5608 -0.1491
 1736SOL    HW1 5207   2.265   3.176   2.454  0.5536 -0.6035  0.1585
 1736SOL    HW2 5208   2.179   3.090   2.543 -0.7471  0.9089  0.4116
 1737SOL     OW 5209   3.779   0.956   3.370  0.6683 -0.4327  0.2617
 1737SOL    HW1 5210   3.802   1.040   3.330 -0.7824 -1.1638 -2.3234
 1737SOL    HW2 5211   3.684   0.961   3.381  0.6993 -1.3636  1.0250
 1738SOL     OW 5212   0.589   3.598   1.214  0.1734  0.6039 -0.1479
 1738SOL    HW1 5213   0.585   3.660   1.141 -0.4355  0.8328  0.0671
 1738SOL    HW2 5214   0.603   3.513   1.173 -2.9597  0.2761 -0.8325
 1739SOL     OW 5215   0.523   3.047   1.973  0.5097 -0.0921  0.2991
 1739SOL    HW1 5216   0.571   3.031   1.892  0.0184 -1.5124  0.2614
 1739SOL    HW2 5217   0.455   3.111   1.949 -0.3066 -1.2895 -0.6944
 1740SOL     OW 5218   0.781   2.508   2.694  0.0358 -0.6365 -0.3206
 1740SOL    HW1 5219   0.755   2.565   2.622  0.4311 -0.7572 -0.5667
 1740SOL    HW2 5220   0.877   2.510   2.692  0.0503 -0.3892  0.4052
 1741SOL     OW 5221   1.726   1.759   0.106  0.2418 -0.2462  0.1647
 1741SOL    HW1 5222   1.690   1.827   0.048  1.7754  0.8546  0.4240
 1741SOL    HW2 5223   1.679   1.772   0.188 -1.2254 -1.1553 -0.4795
 1742SOL     OW 5224   0.423   3.487   2.606 -0.3477  0.3960  0.2036
 1742SOL    HW1 5225   0.464   3.515   2.688 -0.9428 -1.3954  1.1829
 1742SOL    HW2 5226   0.330   3.510   2.616 -0.8073 -1.4916  0.9369
 1743SOL     OW 5227   2.316   3.547   2.079 -0.0459 -0.0675  0.2591
 1743SOL    HW1 5228   2.335   3.466   2.126 -1.8755 -0.1608  0.9264
 1743SOL    HW2 5229   2.380   3.549   2.008 -0.4068 -2.4649 -0.2204
 1744SOL     OW 5230   2.436   3.365   3.666  0.0053 -0.5834  0.1317
 1744SOL    HW1 5231   2.346   3.371   3.696 -0.2916  1.5429 -0.9539
 1744SOL    HW2 5232   2.488   3.361   3.747 -0.9372  1.2287  0.8871
 1745SOL     OW 5233   3.607   0.037   0.113  0.5299  0.1871 -0.8800
 1745SOL    HW1 5234   3.700   0.040   0.091  0.5858  0.1171 -0.6636
 1745SOL    HW2 5235   3.605   0.029   0.209  0.2879  1.0140 -0.8054
 1746SOL     OW 5236   0.145   0.780   3.721  0.3588 -0.3280 -0.0346
 1746SOL    HW1 5237   0.216   0.715   3.721  0.9556  0.1916 -2.7757
 1746SOL    HW2 5238   0.115   0.783   3.630 -1.5392  1.2541  0.5685
 1747SOL     OW 5239   1.543   0.660   0.631 -0.5796  0.1414 -0.2876
 1747SOL    HW1 5240   1.576   0.699   0.550 -1.0762  1.4359  0.1008
 1747SOL    HW2 5241   1.585   0.711   0.700 -1.0917 -0.1615  0.2489
 1748SOL     OW 5242   1.892   2.755   2.799 -1.1613  0.1734  0.1146
 1748SOL    HW1 5243   1.942   2.727   2.876 -0.4091 -0.4645 -0.5870
 1748SOL    HW2 5244   1.865   2.673   2.757 -0.2312  0.4755 -1.1395
 1749SOL     OW 5245   0.693   1.005   1.821  0.7765  0.1242 -0.8125
 1749SOL    HW1 5246   0.682   1.100   1.829 -0.6444 -0.1469  1.4014
 1749SOL    HW2 5247   0.748   0.981   1.895  0.1316 -0.9044 -0.6498
 1750SOL     OW 5248   1.756   3.585   3.748  0.9032 -0.4507 -0.2387
 1750SOL    HW1 5249   1.761   3.654   3.814 -0.2572  0.3031 -0.9171
 1750SOL    HW2 5250   1.675   3.539   3.767 -0.0497  0.5052 -1.8121
 1751SOL     OW 5251   2.411   1.111   2.068 -0.4466  0.5018 -0.3521
 1751SOL    HW1 5252   2.332   1.063   2.093 -0.2083  0.9392  1.4023
 1751SOL    HW2 5253   2.391   1.203   2.089  0.1007  0.7939 -1.0402
 1752SOL     OW 5254   3.806   3.713   2.223 -0.0966  0.4119  0.4962
 1752SOL    HW1 5255   3.724   3.761   2.228  0.1422  0.7481  1.3120
 1752SOL    HW2 5256   3.780   3.621   2.215 -0.5629  0.6985 -1.8298
 1753SOL     OW 5257   2.206   3.591   1.229 -0.9119 -0.6269  0.2387
 1753SOL    HW1 5258   2.287   3.603   1.278 -0.1638 -0.3583 -1.0141
 1753SOL    HW2 5259   2.137   3.619   1.290 -0.0898 -0.9894  1.3666
 1754SOL     OW 5260   1.651   2.695   2.093  0.0306  0.5647  0.2557
 1754SOL    HW1 5261   1.700   2.765   2.050 -0.6266  1.0121  0.2116
 1754SOL    HW2 5262   1.717   2.643   2.139  0.7851 -0.0949 -1.5087
 1755SOL     OW 5263   3.967   3.784   2.631 -0.0498  0.1078  0.1901
 1755SOL    HW1 5264   3.953   3.757   2.721  1.7117 -6.1698 -0.9504
 1755SOL    HW2 5265   3.878   3.793   2.594 -0.7955 -0.6038  1.7405
 1756SOL     OW 5266   0.384   0.503   1.142  0.4296 -0.0244 -0.5255
 1756SOL    HW1 5267   0.412   0.521   1.231 -1.4122 -0.4761  0.2007
 1756SOL    HW2 5268   0.461   0.519   1.088  1.9597 -0.9922  1.2741
 1757SOL     OW 5269   2.199   2.866   3.940 -0.0713 -0.1831  0.7094
 1757SOL    HW1 5270   2.136   2.938   3.950  0.5287  0.4521  0.1151
 1757SOL    HW2 5271   2.263   2.880   4.009  0.7102  0.5947 -0.1348
 1758SOL     OW 5272   0.399   3.143   1.648 -0.3559 -0.2490 -0.3331
 1758SOL    HW1 5273   0.419   3.235   1.667 -0.0496 -0.3888  0.0277
 1758SOL    HW2 5274   0.469   3.094   1.690 -1.5228 -0.7757  1.0961
 1759SOL     OW 5275   3.576   1.091   1.117  0.1407 -0.2264 -0.2295
 1759SOL    HW1 5276   3.661   1.135   1.124  0.4088 -0.4775 -1.7597
 1759SOL    HW2 5277   3.596   0.998   1.129  0.1592 -0.3386 -1.1258
 1760SOL     OW 5278   0.820   2.518   1.528  0.4261 -0.2878  0.6508
 1760SOL    HW1 5279   0.857   2.555   1.448  1.6328  1.8406  2.0911
 1760SOL    HW2 5280   0.847   2.426   1.526  3.7244  0.5615  0.3398
 1761SOL     OW 5281   2.106   2.103   1.032  0.2207 -0.8974  0.2740
 1761SOL    HW1 5282   2.151   2.062   0.958  1.3651 -0.2265  0.5679
 1761SOL    HW2 5283   2.055   2.173   0.992  2.0644  0.4908  0.2233
 1762SOL     OW 5284   2.356   2.020   3.466 -0.2098  0.2757 -0.4099
 1762SOL    HW1 5285   2.442   1.997   3.501  0.1483 -0.3515 -1.6310
 1762SOL    HW2 5286   2.374   2.083   3.396 -0.9162  1.6193  0.5587
 1763SOL     OW 5287   0.353   0.917   1.009  0.3076  0.1679 -0.1230
 1763SOL    HW1 5288   0.294   0.877   0.946  1.0703 -0.7146 -0.3025
 1763SOL    HW2 5289   0.425   0.952   0.956  1.7153 -1.8853  0.2940
 1764SOL     OW 5290   0.790   0.142   2.292  0.2267  0.2031 -0.1360
 1764SOL    HW1 5291   0.815   0.234   2.302 -0.1120  0.1335  1.6586
 1764SOL    HW2 5292   0.700   0.146   2.258  1.4453  0.4510 -3.7626
 1765SOL     OW 5293   0.505   2.185   3.361  0.3142 -0.3499 -0.6767
 1765SOL    HW1 5294   0.430   2.243   3.367 -1.1136 -2.1830  4.1290
 1765SOL    HW2 5295   0.567   2.231   3.305 -1.5219  4.7477  0.9336
 1766SOL     OW 5296   4.002   1.426   3.202  0.4200 -0.5885  0.5941
 1766SOL    HW1 5297   3.919   1.469   3.222  1.0371  0.5170  0.8582
 1766SOL    HW2 5298   4.006   1.424   3.106  0.9262  1.0842  0.5517
 1767SOL     OW 5299   3.493   0.047   3.627  0.4962  0.4638  0.2283
 1767SOL    HW1 5300   3.459   0.031   3.715 -2.5570  1.4710 -0.6326
 1767SOL    HW2 5301   3.438   0.118   3.593  2.6549  1.2247 -1.9227
 1768SOL     OW 5302  -0.027   0.808   1.512 -0.5039  0.3321 -0.0777
 1768SOL    HW1 5303   0.066   0.825   1.495 -0.6114  1.2182  0.1705
 1768SOL    HW2 5304  -0.027   0.751   1.588 -0.1605  0.3061 -0.0946
 1769SOL     OW 5305   0.132   2.192   1.135  0.3251  0.0119  0.1039
 1769SOL    HW1 5306   0.188   2.257   1.093  0.4399  0.5012  0.9854
 1769SOL    HW2 5307   0.166   2.186   1.225  0.4333 -1.4050 -0.0145
 1770SOL     OW 5308   0.275   2.119   2.200 -0.3067  0.0486  0.7996
 1770SOL    HW1 5309   0.253   2.037   2.243  1.4968 -0.3535  1.0629
 1770SOL    HW2 5310   0.224   2.185   2.246  0.9633 -0.4693  3.0988
 1771SOL     OW 5311   2.596   2.437   1.383 -1.0249 -0.3320  0.0960
 1771SOL    HW1 5312   2.567   2.355   1.343 -1.4555  0.2936 -0.9286
 1771SOL    HW2 5313   2.624   2.413   1.471 -1.2795 -1.5499 -0.1419
 1772SOL     OW 5314   2.644   0.496   2.617 -0.8303  0.0764 -0.1904
 1772SOL    HW1 5315   2.714   0.431   2.614  0.0819  0.9076  1.4460
 1772SOL    HW2 5316   2.687   0.577   2.643 -2.4524  0.4804  1.5106
 1773SOL     OW 5317   1.127   2.814   3.232  0.4130 -0.1879  0.0047
 1773SOL    HW1 5318   1.108   2.804   3.139 -1.3994  0.1831  0.3041
 1773SOL    HW2 5319   1.206   2.868   3.235 -0.4850  1.2726 -1.3128
 1774SOL     OW 5320   2.771   0.742   2.692 -0.7218  0.6390 -0.3536
 1774SOL    HW1 5321   2.792   0.718   2.782 -1.1321 -0.4696 -0.5412
 1774SOL    HW2 5322   2.856   0.746   2.648 -0.6478 -0.8340 -0.3880
 1775SOL     OW 5323   2.569   3.863   0.591  0.0186 -0.3350  0.4929
 1775SOL    HW1 5324   2.526   3.949   0.587 -0.9353 -0.7231  1.7871
 1775SOL    HW2 5325   2.522   3.810   0.527 -0.1123 -0.2079  0.4837
 1776SOL     OW 5326   0.413   3.918   2.623 -0.3730  0.7530 -0.1797
 1776SOL    HW1 5327   0.467   3.843   2.598 -2.5342 -0.6583 -0.8902
 1776SOL    HW2 5328   0.458   3.957   2.698  3.3292  1.6721 -2.6446
 1777SOL     OW 5329   1.888   1.505   1.495  0.1354  0.7359  0.3182
 1777SOL    HW1 5330   1.835   1.568   1.542  1.8166  0.5792  2.5963
 1777SOL    HW2 5331   1.842   1.422   1.505  0.2806  0.7775  1.4070
 1778SOL     OW 5332   0.681   1.201   3.151  0.3972  0.0927 -0.1158
 1778SOL    HW1 5333   0.606   1.147   3.176  2.7913 -3.0909  0.8695
 1778SOL    HW2 5334   0.724   1.221   3.234  0.5737  2.1068 -0.6429
 1779SOL     OW 5335   2.439   3.651   1.821 -0.1949 -0.2070  0.4290
 1779SOL    HW1 5336   2.534   3.643   1.810 -0.3694  0.6281 -2.4823
 1779SOL    HW2 5337   2.427   3.737   1.863  0.3037  0.3117 -0.4709
 1780SOL     OW 5338   0.032   3.452   2.555  0.1436  0.4338 -0.6719
 1780SOL    HW1 5339  -0.059   3.482   2.562 -0.3315 -0.4405 -2.5588
 1780SOL    HW2 5340   0.084   3.532   2.562 -0.7626  0.9480  0.4030
 1781SOL     OW 5341   1.075   3.348   0.080 -0.2935 -0.4079 -0.0719
 1781SOL    HW1 5342   1.156   3.346   0.029 -0.2860  1.1659 -0.1637
 1781SOL    HW2 5343   1.006   3.353   0.014 -0.2897  1.5066  0.0131
 1782SOL     OW 5344   3.315   2.204   0.763 -1.1419  0.0247 -0.3365
 1782SOL    HW1 5345   3.366   2.156   0.697 -0.0260 -2.0395  1.8675
 1782SOL    HW2 5346   3.302   2.140   0.833 -2.1539  2.1550  1.5090
 1783SOL     OW 5347   0.581   2.515   3.301 -0.9850  0.2393 -0.5595
 1783SOL    HW1 5348   0.493   2.500   3.266 -1.0292 -0.4149 -0.1657
 1783SOL    HW2 5349   0.634   2.444   3.266 -0.5131  0.8463 -1.1096
 1784SOL     OW 5350   1.261   3.741   0.232  0.5211 -0.6592 -0.0964
 1784SOL    HW1 5351   1.290   3.801   0.300  2.2059 -1.3450 -0.1521
 1784SOL    HW2 5352   1.298   3.777   0.151  0.4834 -1.0749 -0.3023
 1785SOL     OW 5353   1.278   2.910   1.684 -0.0434  0.1164 -0.5614
 1785SOL    HW1 5354   1.367   2.889   1.656 -0.2419 -1.0730 -0.3514
 1785SOL    HW2 5355   1.265   3.001   1.657  2.2980  1.3560  2.0897
 1786SOL     OW 5356   0.084   1.341   0.525 -0.2761 -0.2791 -0.1467
 1786SOL    HW1 5357   0.107   1.291   0.446  1.9218 -0.7878  0.7639
 1786SOL    HW2 5358   0.010   1.395   0.497  0.5313 -0.3064 -2.6149
 1787SOL     OW 5359   1.558   3.133   1.003 -0.3098 -0.2085  0.0346
 1787SOL    HW1 5360   1.515   3.083   0.934  1.3692  0.6035 -1.6868
 1787SOL    HW2 5361   1.534   3.224   0.985 -0.9339 -0.0732  1.3686
 1788SOL     OW 5362   1.162   1.822   0.109  0.1921  0.2573  0.5288
 1788SOL    HW1 5363   1.253   1.828   0.079  0.7224  2.2882  2.2869
 1788SOL    HW2 5364   1.159   1.741   0.160  1.0904  0.3031  0.6735
 1789SOL     OW 5365   3.715   2.056   2.123  0.1700  0.6881 -0.0018
 1789SOL    HW1 5366   3.750   2.116   2.189 -1.1320  0.2550  1.1257
 1789SOL    HW2 5367   3.693   1.977   2.172 -1.7839  0.7040 -0.7495
 1790SOL     OW 5368   3.644   0.207   1.810  0.2255  0.1411  0.6772
 1790SOL    HW1 5369   3.684   0.145   1.872  0.1341  1.8297  2.5087
 1790SOL    HW2 5370   3.552   0.182   1.807  0.0895  0.4546  1.7922
 1791SOL     OW 5371   0.351   1.247   0.265 -0.4153 -0.3107 -0.0118
 1791SOL    HW1 5372   0.356   1.326   0.319  1.3992  0.3632 -1.0723
 1791SOL    HW2 5373   0.281   1.264   0.203 -1.1820 -0.2704  0.8504
 1792SOL     OW 5374   3.995   3.919   2.212 -0.3582  0.1136 -0.6835
 1792SOL    HW1 5375   4.046   3.869   2.148  1.3077 -2.4936  2.4081
 1792SOL    HW2 5376   3.926   3.859   2.239 -1.9898  1.7395 -1.0481
 1793SOL     OW 5377   2.580   1.933   1.010 -0.1416 -0.1768  0.0372
 1793SOL    HW1 5378   2.559   2.026   1.011 -0.5397 -0.2221 -1.5370
 1793SOL    HW2 5379   2.498   1.890   1.032 -0.4814 -0.1932 -1.1790
 1794SOL     OW 5380   2.377   2.288   2.948 -1.2451  0.1079  0.9382
 1794SOL    HW1 5381   2.324   2.238   3.011 -0.0596  0.0956  1.9553
 1794SOL    HW2 5382   2.347   2.257   2.862 -2.3902 -0.4015  1.4956
 1795SOL     OW 5383   0.287   2.133   1.392  0.0629  0.0823 -0.6387
 1795SOL    HW1 5384   0.319   2.057   1.344  1.2165  1.5848 -2.3699
 1795SOL    HW2 5385   0.258   2.098   1.476  0.5233 -2.2499 -1.3845
 1796SOL     OW 5386   3.292   1.454   3.424 -0.0424 -0.2195  0.4345
 1796SOL    HW1 5387   3.287   1.550   3.419  1.1563 -0.1821 -0.7350
 1796SOL    HW2 5388   3.209   1.424   3.388  1.1149  0.4032 -3.1606
 1797SOL     OW 5389   1.872   1.300   2.913  0.3793  0.0954 -0.1516
 1797SOL    HW1 5390   1.877   1.240   2.839 -0.6332  1.5814 -1.4922
 1797SOL    HW2 5391   1.820   1.254   2.978 -0.4306 -0.4564 -1.1709
 1798SOL     OW 5392   3.603   1.983   1.856  0.3051 -0.0019 -0.5711
 1798SOL    HW1 5393   3.690   1.943   1.855  1.3986  2.2057 -0.3153
 1798SOL    HW2 5394   3.601   2.032   1.938 -0.6747  1.0085 -1.1772
 1799SOL     OW 5395   3.501   2.557   0.855 -0.8634 -0.2194  0.2500
 1799SOL    HW1 5396   3.437   2.619   0.890 -0.1395  0.7363 -0.0633
 1799SOL    HW2 5397   3.585   2.604   0.860 -0.4816 -0.6829 -1.1615
 1800SOL     OW 5398   2.602   0.156   2.007 -0.0056 -0.1971  0.3607
 1800SOL    HW1 5399   2.691   0.190   1.997  0.0274  0.2181  1.7759
 1800SOL    HW2 5400   2.557   0.222   2.060 -0.9574 -0.7288  0.2429
 1801SOL     OW 5401   1.297   2.209   2.860 -0.5081  0.0358 -0.5779
 1801SOL    HW1 5402   1.350   2.228   2.938 -1.9052 -0.4799  0.5362
 1801SOL    HW2 5403   1.249   2.130   2.883  0.7726 -1.5315 -2.8871
 1802SOL     OW 5404   0.310   1.323   3.524  0.8864  0.4957 -0.1696
 1802SOL    HW1 5405   0.230   1.366   3.555  0.5870  1.2268 -1.8298
 1802SOL    HW2 5406   0.289   1.230   3.524 -1.3840  0.8038 -3.9802
 1803SOL     OW 5407   0.512   1.038   0.509  1.2820 -0.4208  0.4732
 1803SOL    HW1 5408   0.501   1.026   0.415 -0.0363  0.2877  0.5172
 1803SOL    HW2 5409   0.606   1.032   0.523  1.5773  0.3684 -1.0191
 1804SOL     OW 5410   2.946   1.906   3.214  0.5290  0.0585  0.1635
 1804SOL    HW1 5411   2.974   1.816   3.226  0.9517 -0.2415 -2.4592
 1804SOL    HW2 5412   3.027   1.957   3.216  0.2531  0.4755  2.0570
 1805SOL     OW 5413   3.381   0.739   0.328 -0.3733 -0.6108  0.1753
 1805SOL    HW1 5414   3.336   0.772   0.406 -0.3561 -2.4526  1.0002
 1805SOL    HW2 5415   3.366   0.807   0.262 -2.1061  0.0670  1.1887
 1806SOL     OW 5416   2.110   1.861   1.782 -0.3903  0.0986 -0.5041
 1806SOL    HW1 5417   2.116   1.923   1.854 -0.2297 -0.8340  0.3025
 1806SOL    HW2 5418   2.175   1.890   1.719  0.4033  0.1548  0.3316
 1807SOL     OW 5419   2.500   3.269   2.488  0.1513  0.2343  0.1583
 1807SOL    HW1 5420   2.462   3.296   2.572  2.9607 -0.2820  1.7145
 1807SOL    HW2 5421   2.526   3.179   2.502  0.0078 -0.1091 -1.5849
 1808SOL     OW 5422   3.442   0.624   0.740  0.7421  0.2445 -0.7592
 1808SOL    HW1 5423   3.376   0.556   0.747 -0.1711  1.2761  1.6831
 1808SOL    HW2 5424   3.460   0.631   0.646 -1.2850 -1.3011 -1.3175
 1809SOL     OW 5425   1.625   3.671   1.811  0.1519  0.2759  1.0649
 1809SOL    HW1 5426   1.716   3.695   1.825  1.3025 -1.0744 -2.7015
 1809SOL    HW2 5427   1.589   3.740   1.756 -1.1788  0.8052  2.5176
 1810SOL     OW 5428   3.386   2.275   3.250  0.2835  0.1800 -1.0430
 1810SOL    HW1 5429   3.416   2.366   3.263  0.4685 -0.1008  0.8879
 1810SOL    HW2 5430   3.466   2.226   3.232  0.5346  0.0477  0.3077
 1811SOL     OW 5431   3.427   1.827   2.157 -0.7102 -0.7123 -0.1474
 1811SOL    HW1 5432   3.355   1.791   2.106 -1.2298 -0.7562  0.6061
 1811SOL    HW2 5433   3.501   1.770   2.137 -0.7378 -0.3757 -1.3115
 1812SOL     OW 5434   0.828   0.999   0.094 -0.1982  0.2042 -0.6870
 1812SOL    HW1 5435   0.884   0.925   0.069  2.0043  2.2337 -2.2939
 1812SOL    HW2 5436   0.845   1.011   0.188  0.9386 -0.1791 -0.8221
 1813SOL     OW 5437   1.218   3.140   1.523 -0.0800 -0.6700  1.1222
 1813SOL    HW1 5438   1.178   3.212   1.474  0.2376  1.1186  3.3155
 1813SOL    HW2 5439   1.251   3.081   1.456 -2.0339  0.2497 -0.7798
 1814SOL     OW 5440   3.830   2.530  -0.016 -0.8738 -0.4339  0.0455
 1814SOL    HW1 5441   3.783   2.566   0.060 -1.3038  1.7464 -1.1472
 1814SOL    HW2 5442   3.919   2.514   0.016 -1.5986 -1.6980  1.5457
 1815SOL     OW 5443   0.102   2.511   2.097 -0.1263  0.0699 -0.0264
 1815SOL    HW1 5444   0.151   2.564   2.035 -0.3075 -0.1134 -0.3259
 1815SOL    HW2 5445   0.077   2.573   2.166 -0.6562  0.4609 -0.5568
 1816SOL     OW 5446   2.319   0.929   3.256 -0.3836 -1.0495  0.0587
 1816SOL    HW1 5447   2.366   0.898   3.178  1.5792 -1.9386  1.5073
 1816SOL    HW2 5448   2.383   0.922   3.327 -1.5727  1.2820  1.5018
 1817SOL     OW 5449   2.967   3.754   0.632 -0.2800  0.4886 -0.3390
 1817SOL    HW1 5450   3.000   3.739   0.721 -0.0859  2.4677 -0.0374
 1817SOL    HW2 5451   3.045   3.768   0.579 -0.4093 -0.4494 -0.7911
 1818SOL     OW 5452   1.250   1.704   2.372  0.0858 -0.2376 -0.2861
 1818SOL    HW1 5453   1.308   1.741   2.305 -2.2893 -0.2347 -2.4750
 1818SOL    HW2 5454   1.229   1.617   2.339 -2.0180  0.1848 -0.1726
 1819SOL     OW 5455   0.517   3.004   0.349  0.5288 -0.3791  0.2848
 1819SOL    HW1 5456   0.451   2.937   0.370  0.9752 -0.5118  1.3618
 1819SOL    HW2 5457   0.529   3.051   0.432  1.6554 -0.2431  0.0560
 1820SOL     OW 5458   1.747   0.415   2.859 -0.4472  0.2463 -0.0932
 1820SOL    HW1 5459   1.799   0.453   2.930 -0.4469  0.9885 -0.4869
 1820SOL    HW2 5460   1.805   0.350   2.819  0.1667  1.0231 -0.4903
 1821SOL     OW 5461   1.968   2.903   3.450 -0.1276  0.2527 -0.0985
 1821SOL    HW1 5462   1.958   2.809   3.463  0.9977  0.2971  1.2785
 1821SOL    HW2 5463   2.028   2.911   3.376  0.7639 -0.1368  0.5696
 1822SOL     OW 5464   2.136   2.914   3.220  0.0737  0.3253 -0.2561
 1822SOL    HW1 5465   2.095   2.868   3.146  2.2897 -0.4712 -1.0893
 1822SOL    HW2 5466   2.146   3.004   3.190  0.2435  0.1861 -0.6218
 1823SOL     OW 5467   2.365   1.618   3.449 -0.1320  0.1441  0.5187
 1823SOL    HW1 5468   2.285   1.649   3.406  0.0802  2.2715  1.5424
 1823SOL    HW2 5469   2.338   1.600   3.539  0.3488 -0.0890  0.6195
 1824SOL     OW 5470   2.160   2.619   2.635  0.5115  0.7035 -0.1445
 1824SOL    HW1 5471   2.226   2.687   2.650  0.4155  0.4708  1.5705
 1824SOL    HW2 5472   2.211   2.540   2.614  0.6318  1.2236 -1.9033
 1825SOL     OW 5473   0.388   0.489   0.198 -0.2159  0.2293  0.3304
 1825SOL    HW1 5474   0.424   0.577   0.188 -0.6748  0.2865 -1.0815
 1825SOL    HW2 5475   0.461   0.430   0.181  0.1863  0.3221  1.6687
 1826SOL     OW 5476   3.106   3.750   0.249  0.1278  0.1163  0.0020
 1826SOL    HW1 5477   3.188   3.797   0.265  0.3292 -0.5776  1.0975
 1826SOL    HW2 5478   3.088   3.706   0.331 -0.9099 -0.4265 -0.5062
 1827SOL     OW 5479   3.727   2.533   0.529  0.6779 -0.8493  0.3609
 1827SOL    HW1 5480   3.678   2.615   0.527  1.2418 -0.5152  0.0699
 1827SOL    HW2 5481   3.670   2.472   0.577  0.1717 -0.3482  0.4037
 1828SOL     OW 5482   1.957   0.088   1.042  0.2682 -0.0978  0.1211
 1828SOL    HW1 5483   1.923   0.020   0.985  0.5509 -1.0029  0.9900
 1828SOL    HW2 5484   2.018   0.138   0.988  0.1185 -0.5947 -0.5079
 1829SOL     OW 5485   3.284   2.523   3.679  0.5770  0.6288  0.0410
 1829SOL    HW1 5486   3.337   2.589   3.634  1.0508 -0.2812 -0.7687
 1829SOL    HW2 5487   3.229   2.486   3.611  0.0069  0.4831  0.5807
 1830SOL     OW 5488   1.660   3.209   1.915  0.0552 -0.3782 -0.0223
 1830SOL    HW1 5489   1.730   3.233   1.854 -0.1421 -0.4814 -0.2930
 1830SOL    HW2 5490   1.673   3.266   1.990  0.3404 -0.2923 -0.1347
 1831SOL     OW 5491   0.383   2.526   3.114  0.0563 -0.6536  0.1925
 1831SOL    HW1 5492   0.323   2.597   3.093  1.5634  0.8920  0.8881
 1831SOL    HW2 5493   0.443   2.523   3.039 -0.7696 -2.1028 -0.4431
 1832SOL     OW 5494   2.747   0.227   3.921  0.3901  0.9708 -0.0988
 1832SOL    HW1 5495   2.831   0.211   3.964 -0.4021  0.1235  1.1740
 1832SOL    HW2 5496   2.739   0.157   3.857 -0.4297 -0.4263  1.4709
 1833SOL     OW 5497   1.850   1.200   3.444 -0.3778 -0.2613  0.0603
 1833SOL    HW1 5498   1.864   1.222   3.536 -0.5318  1.9008 -0.3665
 1833SOL    HW2 5499   1.882   1.277   3.396 -0.4547 -1.2637 -1.6905
 1834SOL     OW 5500   2.221   1.705   2.758 -0.3570  0.0185 -0.3010
 1834SOL    HW1 5501   2.207   1.754   2.839  2.1429  0.7686 -0.2554
 1834SOL    HW2 5502   2.159   1.632   2.763 -1.2007  0.8026  1.6275
 1835SOL     OW 5503   3.259   2.280   1.915 -0.3657  0.7379 -0.8126
 1835SOL    HW1 5504   3.295   2.313   1.833  0.5685  4.4674  0.8931
 1835SOL    HW2 5505   3.335   2.263   1.970 -1.0238  0.9624  0.1914
 1836SOL     OW 5506   3.282   0.455   3.208  0.2136  0.2283 -0.4048
 1836SOL    HW1 5507   3.220   0.390   3.241  1.0985  0.7246  2.5695
 1836SOL    HW2 5508   3.256   0.536   3.252  1.0449  1.1628 -1.5996
 1837SOL     OW 5509   2.867   3.824   0.998  0.0100 -0.2576 -0.6355
 1837SOL    HW1 5510   2.817   3.876   0.936 -0.0393  0.5885  0.0931
 1837SOL    HW2 5511   2.946   3.875   1.015 -0.3822 -0.0255  0.6611
 1838SOL     OW 5512   2.653   2.512   3.762  0.4326 -0.2364  0.2029
 1838SOL    HW1 5513   2.710   2.496   3.838 -0.2239 -0.0310  0.7547
 1838SOL    HW2 5514   2.565   2.514   3.799 -0.0396 -1.5411 -0.7656
 1839SOL     OW 5515   1.845   0.911   2.877 -0.2471  0.1724 -0.1117
 1839SOL    HW1 5516   1.872   0.820   2.870 -1.9649 -0.3910  0.1376
 1839SOL    HW2 5517   1.835   0.940   2.786  1.9001  0.6641 -0.2418
 1840SOL     OW 5518   0.839   2.665   0.096 -0.0250 -0.4292  0.9850
 1840SOL    HW1 5519   0.854   2.754   0.062  1.6766 -0.6379  1.0941
 1840SOL    HW2 5520   0.808   2.616   0.020  0.7585 -0.1503  0.4604
 1841SOL     OW 5521   2.543   0.061   2.366  0.8875  0.8724 -0.1049
 1841SOL    HW1 5522   2.555  -0.032   2.381  0.0697  1.0141  1.6644
 1841SOL    HW2 5523   2.597   0.081   2.289  1.7395 -0.8663  0.0149
 1842SOL     OW 5524   0.150   0.678   0.423 -0.3356  0.4616 -0.0333
 1842SOL    HW1 5525   0.129   0.642   0.337  0.9427  1.3695 -0.7560
 1842SOL    HW2 5526   0.178   0.768   0.406  0.0783  0.6235  1.3169
 1843SOL     OW 5527   0.859   2.244   1.556 -0.2027 -0.2709 -0.2397
 1843SOL    HW1 5528   0.765   2.233   1.574 -1.0129 -1.5016 -4.2098
 1843SOL    HW2 5529   0.896   2.157   1.569  0.5114  0.2676  1.5679
 1844SOL     OW 5530   2.611   2.814   1.343 -0.5767  0.2214 -0.1267
 1844SOL    HW1 5531   2.616   2.909   1.345  1.8215  0.1617  1.2428
 1844SOL    HW2 5532   2.553   2.791   1.416 -1.1819  0.6195 -0.4792
 1845SOL     OW 5533   3.652   0.636   1.836  0.1802 -0.0877 -0.6400
 1845SOL    HW1 5534   3.677   0.557   1.788 -0.0214 -0.8048  0.3954
 1845SOL    HW2 5535   3.573   0.667   1.792  1.2286  0.5685 -2.1526
 1846SOL     OW 5536   1.013   2.538   0.865  0.2926 -0.4271 -0.4547
 1846SOL    HW1 5537   0.981   2.618   0.906  0.8885 -0.8102  0.8216
 1846SOL    HW2 5538   0.988   2.547   0.773 -1.2082  0.4178 -0.0157
 1847SOL     OW 5539   3.696   0.199   1.147 -0.4287 -0.0211 -0.7908
 1847SOL    HW1 5540   3.750   0.266   1.105  1.0774 -1.2943 -0.9979
 1847SOL    HW2 5541   3.751   0.167   1.219 -1.5293 -0.3398 -0.0794
 1848SOL     OW 5542   0.547   0.708   1.398 -0.0663 -0.1955 -0.2205
 1848SOL    HW1 5543   0.609   0.635   1.394 -0.1833 -0.2644 -0.8579
 1848SOL    HW2 5544   0.599   0.781   1.433  0.8504  0.2119 -2.3097
 1849SOL     OW 5545   1.347   3.219   3.141  1.0868  0.9258 -0.4352
 1849SOL    HW1 5546   1.342   3.303   3.095  0.0994  0.9495 -0.3071
 1849SOL    HW2 5547   1.264   3.212   3.187  2.2503  1.2179  1.8977
 1850SOL     OW 5548   0.028   2.738   4.001  0.3767 -0.3378 -0.6571
 1850SOL    HW1 5549   0.066   2.778   3.923 -2.6167  0.5573 -1.7871
 1850SOL    HW2 5550  -0.066   2.741   3.986 -0.2178 -2.1740  2.0498
 1851SOL     OW 5551   3.539   0.821   1.191  0.1413  0.0489  0.3257
 1851SOL    HW1 5552   3.520   0.804   1.099  3.3218 -0.6772 -0.3206
 1851SOL    HW2 5553   3.540   0.735   1.232  0.9830  0.1451  0.5183
 1852SOL     OW 5554   1.024   3.323   1.692  0.7106 -0.9148  0.1638
 1852SOL    HW1 5555   0.994   3.357   1.607  1.8721 -0.3525 -0.0396
 1852SOL    HW2 5556   1.095   3.263   1.670  0.7316 -1.0909  0.7099
 1853SOL     OW 5557   0.056   1.756   2.122 -0.0843  0.2762 -0.1623
 1853SOL    HW1 5558  -0.010   1.801   2.175  1.0152 -2.1203  3.6300
 1853SOL    HW2 5559   0.140   1.792   2.153  0.6365  2.0917 -3.7252
 1854SOL     OW 5560   3.327   3.188   2.910  0.1910  0.2743 -0.8749
 1854SOL    HW1 5561   3.245   3.142   2.930 -0.0453  1.8569  2.5976
 1854SOL    HW2 5562   3.395   3.126   2.935 -0.0604  0.2833 -0.1161
 1855SOL     OW 5563   0.021   1.734   3.452 -0.5704 -1.0432  0.0969
 1855SOL    HW1 5564   0.100   1.688   3.423  0.2302  1.8617 -3.0337
 1855SOL    HW2 5565   0.051   1.785   3.527  0.5418 -0.2246 -0.8521
 1856SOL     OW 5566   3.010   2.346   2.764  0.0200 -0.0922  0.1424
 1856SOL    HW1 5567   3.004   2.261   2.720 -0.3849  0.1300 -0.2269
 1856SOL    HW2 5568   2.923   2.384   2.756  0.6915  1.1886 -1.3481
 1857SOL     OW 5569   1.312   3.961   0.406 -0.3560  0.6249 -0.0099
 1857SOL    HW1 5570   1.334   4.053   0.420 -0.6598  0.4120  2.3016
 1857SOL    HW2 5571   1.373   3.913   0.462 -1.0907 -0.4783 -0.1280
 1858SOL     OW 5572   1.068   0.357   3.135 -0.0863 -0.4031  0.4938
 1858SOL    HW1 5573   1.003   0.396   3.076 -0.2605  1.7051  1.9819
 1858SOL    HW2 5574   1.152   0.374   3.092 -0.1710  1.5566  0.9973
 1859SOL     OW 5575   2.714   2.015   0.703 -0.5036  0.2122  0.1202
 1859SOL    HW1 5576   2.769   2.091   0.721 -1.0227  0.4423  0.7727
 1859SOL    HW2 5577   2.645   2.049   0.646 -1.0453  0.3662  0.8515
 1860SOL     OW 5578   3.020   1.792   2.977  0.5201 -0.2323  0.2089
 1860SOL    HW1 5579   2.978   1.778   2.893 -0.5971 -0.2478  0.7532
 1860SOL    HW2 5580   3.038   1.885   2.980 -2.1229  0.3395  1.1218
 1861SOL     OW 5581   2.391   1.924   0.624 -0.4262 -0.2035  0.4382
 1861SOL    HW1 5582   2.400   1.829   0.632 -0.9037 -0.1851  1.3916
 1861SOL    HW2 5583   2.455   1.949   0.558  0.4120 -1.0626  0.9063
 1862SOL     OW 5584   1.481   3.517   0.274  0.7325 -0.0882 -0.0561
 1862SOL    HW1 5585   1.459   3.605   0.246  2.6923 -0.4437 -3.1268
 1862SOL    HW2 5586   1.396   3.477   0.295 -0.5334  1.5328 -1.7709
 1863SOL     OW 5587   1.275   3.157   1.102 -0.3876  0.4615  0.1329
 1863SOL    HW1 5588   1.326   3.076   1.101  0.3443  0.9186 -0.0342
 1863SOL    HW2 5589   1.215   3.148   1.028  0.7206  0.7151 -0.8079
 1864SOL     OW 5590   0.482   3.499   0.924 -0.2509 -0.3459 -0.2064
 1864SOL    HW1 5591   0.549   3.459   0.869  1.8692  2.1202  0.3969
 1864SOL    HW2 5592   0.451   3.573   0.874 -0.8882 -0.1504  0.4663
 1865SOL     OW 5593   2.328   3.846   2.227  0.5123 -0.0623  0.4219
 1865SOL    HW1 5594   2.317   3.932   2.267 -2.0111 -0.1797  0.1870
 1865SOL    HW2 5595   2.319   3.862   2.133  1.7351 -0.3849  0.2350
 1866SOL     OW 5596   2.294   1.631   2.105  0.1663 -0.3194  0.1446
 1866SOL    HW1 5597   2.303   1.648   2.198  0.6626 -1.3875  0.3114
 1866SOL    HW2 5598   2.288   1.535   2.099 -0.4789 -0.2268 -0.8673
 1867SOL     OW 5599   1.380   2.920   3.181 -0.1694 -0.1634 -0.1013
 1867SOL    HW1 5600   1.440   2.846   3.175 -0.8438 -0.8502  1.2333
 1867SOL    HW2 5601   1.388   2.964   3.096  1.9486 -0.4187 -0.1002
 1868SOL     OW 5602   0.292   2.654   2.810 -0.3101 -0.5827 -0.6915
 1868SOL    HW1 5603   0.363   2.619   2.756 -0.0760  0.8707 -1.3757
 1868SOL    HW2 5604   0.227   2.685   2.747  0.2019  1.6386 -0.2074
 1869SOL     OW 5605   2.173   2.925   1.510 -0.4148 -0.3968 -0.0571
 1869SOL    HW1 5606   2.078   2.916   1.506 -0.3002 -1.0571 -1.7074
 1869SOL    HW2 5607   2.208   2.853   1.457  0.9628  0.5777 -0.5561
 1870SOL     OW 5608   0.861   2.240   3.821 -0.1666 -0.0364 -0.0147
 1870SOL    HW1 5609   0.914   2.300   3.769 -3.1216  1.0417 -2.0907
 1870SOL    HW2 5610   0.886   2.153   3.791  0.3107  0.4466 -1.0461
 1871SOL     OW 5611   3.457   3.658   0.236 -0.4235  0.2594  0.4748
 1871SOL    HW1 5612   3.427   3.635   0.324  3.3242  2.2367  2.5044
 1871SOL    HW2 5613   3.490   3.576   0.200  0.3858 -0.1258  2.0119
 1872SOL     OW 5614   2.042   1.667   1.996  0.1123  0.5818 -0.3063
 1872SOL    HW1 5615   2.064   1.709   1.913  0.0999  2.2448  0.4778
 1872SOL    HW2 5616   2.125   1.658   2.042  0.0002  0.6149 -0.0930
 1873SOL     OW 5617   1.607   0.565   2.212  0.0477  0.2631 -0.7349
 1873SOL    HW1 5618   1.628   0.637   2.152 -1.7441 -0.1756 -1.9444
 1873SOL    HW2 5619   1.596   0.489   2.156 -0.5061 -0.4302  0.2840
 1874SOL     OW 5620   2.208   0.106   1.882 -0.2016  0.1596 -0.2814
 1874SOL    HW1 5621   2.251   0.022   1.868  0.6795  0.8448 -2.0112
 1874SOL    HW2 5622   2.182   0.105   1.974  0.8020 -1.5295  0.0206
 1875SOL     OW 5623   0.884   1.966   3.735  0.0665  0.3589 -0.7274
 1875SOL    HW1 5624   0.905   1.879   3.700  1.3647 -0.2948  1.4439
 1875SOL    HW2 5625   0.805   1.952   3.786 -0.3052  0.6985 -1.2052
 1876SOL     OW 5626   1.260   0.087   0.919  0.7253  0.2690 -0.7649
 1876SOL    HW1 5627   1.250   0.138   1.000 -1.4249 -0.6378 -0.4086
 1876SOL    HW2 5628   1.345   0.044   0.929  1.2683  1.4883  0.2142
 1877SOL     OW 5629   3.026   1.232   0.791  0.0543  0.5782  0.0115
 1877SOL    HW1 5630   2.967   1.267   0.724 -1.2676 -1.6367 -0.0817
 1877SOL    HW2 5631   2.975   1.236   0.872  0.6211  0.6635  0.3700
 1878SOL     OW 5632   0.692   0.622   3.452 -0.3818  0.1110 -0.3122
 1878SOL    HW1 5633   0.643   0.639   3.532 -0.6536 -3.2686  0.4151
 1878SOL    HW2 5634   0.625   0.615   3.384 -0.8905 -2.7960  0.3632
 1879SOL     OW 5635   0.648   3.674   3.937 -0.7811 -0.6667 -0.2924
 1879SOL    HW1 5636   0.554   3.682   3.953 -1.0260  1.0889 -2.2282
 1879SOL    HW2 5637   0.660   3.702   3.847  1.6763 -0.3871  0.0421
 1880SOL     OW 5638   3.064   3.593   3.313  0.5100  0.3892 -0.4289
 1880SOL    HW1 5639   3.029   3.517   3.268  0.7336  0.8426 -1.3888
 1880SOL    HW2 5640   2.998   3.661   3.301  0.0921  0.2318  0.8313
 1881SOL     OW 5641   1.920   0.666   3.308 -0.0957  0.0131  0.8827
 1881SOL    HW1 5642   1.839   0.712   3.330 -0.1069  0.8555 -0.7832
 1881SOL    HW2 5643   1.989   0.727   3.333 -0.0501  0.1845  0.3413
 1882SOL     OW 5644   3.923   3.812   0.948 -0.0710  0.0076 -0.0917
 1882SOL    HW1 5645   3.868   3.880   0.908  0.4945  0.7922  0.4487
 1882SOL    HW2 5646   4.006   3.818   0.902  0.5066  0.7565  1.0040
 1883SOL     OW 5647   0.755   2.365   2.121  0.0525 -0.4579  0.2146
 1883SOL    HW1 5648   0.802   2.375   2.039  3.7959 -0.4173  2.1608
 1883SOL    HW2 5649   0.725   2.274   2.120  1.7703 -1.0594 -0.4191
 1884SOL     OW 5650   2.437   1.225   0.389  0.3226 -0.0828 -0.2839
 1884SOL    HW1 5651   2.396   1.302   0.429 -0.4019  0.4410 -1.9606
 1884SOL    HW2 5652   2.428   1.239   0.295 -0.6150 -2.6502 -0.6505
 1885SOL     OW 5653   2.241   1.170   3.487  0.0777  0.3880  0.0847
 1885SOL    HW1 5654   2.164   1.113   3.493 -1.0341  1.7909 -0.3369
 1885SOL    HW2 5655   2.276   1.155   3.400  0.1802 -0.1253  0.2133
 1886SOL     OW 5656   0.300   2.357   3.305  0.1349  0.7117  0.3320
 1886SOL    HW1 5657   0.206   2.351   3.289  0.5895 -1.4262 -2.1510
 1886SOL    HW2 5658   0.331   2.425   3.245  0.4192  0.0640 -0.2632
 1887SOL     OW 5659   1.593   2.512   0.882  0.2568 -0.0237  0.0395
 1887SOL    HW1 5660   1.628   2.545   0.800 -1.1422 -0.2325 -0.6655
 1887SOL    HW2 5661   1.499   2.528   0.877  0.2070  0.5220  1.8738
 1888SOL     OW 5662   2.426   2.552   0.658 -0.1865  0.2034  0.2758
 1888SOL    HW1 5663   2.509   2.541   0.612 -0.2811  1.1130 -0.1162
 1888SOL    HW2 5664   2.373   2.608   0.601 -2.2561 -2.7859 -1.0138
 1889SOL     OW 5665   1.472   3.824   0.557 -0.1159  0.1225  0.5043
 1889SOL    HW1 5666   1.499   3.876   0.633 -0.6837 -1.2134  1.6617
 1889SOL    HW2 5667   1.396   3.774   0.588 -0.8894  0.1625 -1.2033
 1890SOL     OW 5668   1.312   0.184   3.374 -0.6111 -0.2109 -0.4807
 1890SOL    HW1 5669   1.342   0.269   3.406 -0.4897 -1.0576  1.7937
 1890SOL    HW2 5670   1.264   0.205   3.293  1.2064  1.7642 -1.1525
 1891SOL     OW 5671   0.697   2.271   3.166  0.0734 -0.3094  0.3091
 1891SOL    HW1 5672   0.750   2.198   3.133  0.7282  0.7623 -1.1262
 1891SOL    HW2 5673   0.665   2.315   3.087 -0.7025  0.6801  1.1466
 1892SOL     OW 5674   2.801   0.714   2.336  0.4333 -0.4553  0.3540
 1892SOL    HW1 5675   2.873   0.741   2.393  1.3148 -2.3462  0.1970
 1892SOL    HW2 5676   2.726   0.766   2.367  1.4163  0.2066  1.7445
 1893SOL     OW 5677   1.582   0.766   2.905  0.0193  0.2773  0.0700
 1893SOL    HW1 5678   1.622   0.829   2.964  0.4771  0.3021 -0.2561
 1893SOL    HW2 5679   1.552   0.819   2.831  0.0019  0.1692 -0.0000
 1894SOL     OW 5680   0.978   1.741   0.409  0.1339 -0.1621 -0.6820
 1894SOL    HW1 5681   1.061   1.719   0.367 -1.4398 -3.5367 -2.4575
 1894SOL    HW2 5682   0.937   1.656   0.426 -2.5816  1.3450  0.9499
 1895SOL     OW 5683   1.788   1.246   1.208 -0.5685 -0.2247  0.4774
 1895SOL    HW1 5684   1.710   1.191   1.201 -0.7035 -0.3069  2.1413
 1895SOL    HW2 5685   1.805   1.251   1.302  0.8905  0.5658  0.2036
 1896SOL     OW 5686   1.074   1.933   0.787 -0.5176  0.0170 -0.3908
 1896SOL    HW1 5687   1.126   1.997   0.739  2.5521  0.1147  2.7229
 1896SOL    HW2 5688   1.028   1.983   0.854 -1.4787 -0.5801 -0.5767
 1897SOL     OW 5689   3.095   0.772   1.288  0.0324 -0.2692  1.0002
 1897SOL    HW1 5690   3.171   0.716   1.275 -0.0435 -0.1690  0.0783
 1897SOL    HW2 5691   3.128   0.861   1.276 -0.1274 -0.1927  1.1188
 1898SOL     OW 5692   1.239   2.111   2.398 -0.3105 -0.8754  0.4352
 1898SOL    HW1 5693   1.261   2.045   2.333 -2.0017  0.8384 -2.0733
 1898SOL    HW2 5694   1.177   2.069   2.456 -0.7670 -1.7452 -0.6509
 1899SOL     OW 5695   1.802   0.995   2.014 -0.0611  0.4521 -0.6857
 1899SOL    HW1 5696   1.792   1.025   2.104 -0.4695 -0.3028 -0.4674
 1899SOL    HW2 5697   1.752   1.059   1.962  0.2080  0.9103 -0.3869
 1900SOL     OW 5698   2.578   3.891   3.436  0.0811 -0.1213  0.8974
 1900SOL    HW1 5699   2.609   3.981   3.445 -0.8296  0.1663  1.4213
 1900SOL    HW2 5700   2.596   3.867   3.345  0.5541  0.5042  0.8246
 1901SOL     OW 5701   4.003   2.085   0.443 -0.1154 -0.4116  0.4069
 1901SOL    HW1 5702   3.955   2.032   0.507  2.1782 -2.4890  0.5472
 1901SOL    HW2 5703   3.947   2.085   0.365 -0.4455 -2.6487  0.5876
 1902SOL     OW 5704   3.456   1.074   0.494  0.4500  0.5568  0.4288
 1902SOL    HW1 5705   3.434   1.009   0.427  0.3584  1.6296 -0.6186
 1902SOL    HW2 5706   3.551   1.075   0.496  0.4550  0.6202  0.2051
 1903SOL     OW 5707   2.827   3.695   3.786 -0.3816  0.0245  0.4749
 1903SOL    HW1 5708   2.820   3.725   3.876  1.1422 -0.3250  0.7397
 1903SOL    HW2 5709   2.737   3.674   3.760 -0.9519  1.0311  1.5778
 1904SOL     OW 5710   0.430   2.405   2.478 -0.1426  0.4598 -0.6576
 1904SOL    HW1 5711   0.439   2.414   2.383 -0.9707  1.0133 -0.6842
 1904SOL    HW2 5712   0.343   2.437   2.498  0.2670  0.9721  0.3825
 1905SOL     OW 5713   3.021   2.948   0.160  0.1541 -0.6881  0.6375
 1905SOL    HW1 5714   3.054   2.861   0.181  3.7416 -0.2676 -2.1084
 1905SOL    HW2 5715   3.052   2.964   0.070 -2.3269  2.5576  0.1736
 1906SOL     OW 5716   0.886   0.086   3.141 -0.5635 -0.8379  0.3523
 1906SOL    HW1 5717   0.799   0.114   3.113 -0.9440 -0.7576  1.5742
 1906SOL    HW2 5718   0.937   0.167   3.145  0.0375 -1.0288 -1.7853
 1907SOL     OW 5719   1.935   3.385   1.021  0.0831  0.2664  0.0888
 1907SOL    HW1 5720   2.023   3.362   0.993  0.5182  0.7631  0.9887
 1907SOL    HW2 5721   1.881   3.376   0.942  0.8832 -0.3019 -0.4065
 1908SOL     OW 5722   3.243   1.798   1.720 -0.0410  0.3211  0.3480
 1908SOL    HW1 5723   3.169   1.780   1.778  0.2864  0.0212  0.6732
 1908SOL    HW2 5724   3.204   1.804   1.632 -0.1140 -2.4858  0.1180
 1909SOL     OW 5725   3.306   1.524   1.283  0.2137  0.0238 -0.4272
 1909SOL    HW1 5726   3.245   1.500   1.353  0.5758  0.6857  0.1211
 1909SOL    HW2 5727   3.377   1.571   1.327  0.5094  0.3446 -1.2223
 1910SOL     OW 5728   3.069   2.118   2.639  0.0582 -0.5350  0.0770
 1910SOL    HW1 5729   3.021   2.046   2.598 -0.4046 -0.0702 -0.2143
 1910SOL    HW2 5730   3.156   2.083   2.655 -0.6044 -1.6755  1.3709
 1911SOL     OW 5731   1.426   0.731   2.347 -0.3324 -0.2577  0.2991
 1911SOL    HW1 5732   1.495   0.680   2.305 -0.5913  0.1322 -0.6163
 1911SOL    HW2 5733   1.345   0.700   2.306 -0.4329  1.4075 -0.8460
 1912SOL     OW 5734   2.008   2.261   1.468 -0.4462  0.2130  0.3328
 1912SOL    HW1 5735   2.046   2.331   1.415 -0.7260  0.9456  1.0741
 1912SOL    HW2 5736   2.072   2.246   1.538  0.0667 -0.9622 -0.3607
 1913SOL     OW 5737   0.133   2.745   3.279 -0.4524 -0.4014  0.4124
 1913SOL    HW1 5738   0.170   2.779   3.197 -2.1580 -0.5514 -0.4690
 1913SOL    HW2 5739   0.209   2.723   3.332  0.7354 -0.8948 -1.3793
 1914SOL     OW 5740   0.600   3.177   0.835 -0.1963  0.0203  0.5827
 1914SOL    HW1 5741   0.540   3.135   0.896 -0.6364  0.3691  0.3965
 1914SOL    HW2 5742   0.664   3.221   0.890 -1.1561  1.1586  0.8147
 1915SOL     OW 5743   3.772   3.399   1.443 -1.1958 -0.1251  0.3961
 1915SOL    HW1 5744   3.807   3.484   1.470 -0.2564 -0.1537 -0.6485
 1915SOL    HW2 5745   3.717   3.420   1.367 -0.3485 -0.5122 -0.3466
 1916SOL     OW 5746   2.621   1.229   1.346 -0.1684 -0.6053 -0.2819
 1916SOL    HW1 5747   2.645   1.234   1.439  0.3071  0.4176 -0.4538
 1916SOL    HW2 5748   2.668   1.152   1.314  0.4661 -0.3858  0.0980
 1917SOL     OW 5749   2.922   0.239   2.312  0.1498 -0.2460 -0.5032
 1917SOL    HW1 5750   2.961   0.176   2.373 -0.3050  1.0402  1.1808
 1917SOL    HW2 5751   2.867   0.296   2.367 -0.7107  0.6395 -2.1958
 1918SOL     OW 5752   1.640   3.417   0.633 -0.0484  1.0290  0.5897
 1918SOL    HW1 5753   1.627   3.497   0.583 -0.7851  0.2370 -0.5276
 1918SOL    HW2 5754   1.629   3.346   0.570  0.5977  0.0286  1.5448
 1919SOL     OW 5755   3.703   1.855   2.305  0.3290  0.0765 -0.6505
 1919SOL    HW1 5756   3.773   1.893   2.358 -1.2161  1.3506  0.5631
 1919SOL    HW2 5757   3.715   1.760   2.315  1.0855  0.2790  0.6027
 1920SOL     OW 5758   0.948   1.755   2.342 -0.2720 -0.3950 -0.0652
 1920SOL    HW1 5759   1.022   1.694   2.335  0.8792  0.9289 -0.0842
 1920SOL    HW2 5760   0.873   1.707   2.307  1.0128 -1.0966 -2.0888
 1921SOL     OW 5761   0.353   0.445   1.729  0.0998  0.8604  0.3859
 1921SOL    HW1 5762   0.263   0.422   1.707  1.1145 -0.7189 -2.7014
 1921SOL    HW2 5763   0.385   0.371   1.781  1.0636 -1.3278 -3.0281
 1922SOL     OW 5764   2.883   0.526   1.992  0.6676  0.1704  0.0124
 1922SOL    HW1 5765   2.903   0.618   2.004  1.9987 -0.0285 -0.4503
 1922SOL    HW2 5766   2.797   0.514   2.031 -0.2474  1.9310 -1.3118
 1923SOL     OW 5767   1.047   3.719   3.853 -0.1959 -0.0772 -0.2823
 1923SOL    HW1 5768   1.010   3.740   3.767 -0.1311 -1.1011 -0.5741
 1923SOL    HW2 5769   1.133   3.681   3.834 -0.3562 -0.7097  0.1958
 1924SOL     OW 5770   0.976   3.084   1.171 -0.0022 -0.3883 -0.5797
 1924SOL    HW1 5771   1.044   3.021   1.148  2.5162  2.1185 -0.6184
 1924SOL    HW2 5772   0.945   3.056   1.257  2.8243 -0.3983  0.5452
 1925SOL     OW 5773   1.262   1.385   2.613 -0.8177  0.1817  0.0063
 1925SOL    HW1 5774   1.332   1.359   2.553  0.6250  1.8806  0.8586
 1925SOL    HW2 5775   1.302   1.383   2.699 -1.9199  0.8825  0.5630
 1926SOL     OW 5776   1.739   0.279   3.188  0.3222  0.9071  0.7496
 1926SOL    HW1 5777   1.816   0.295   3.133  0.5870 -1.5210  0.3315
 1926SOL    HW2 5778   1.774   0.276   3.277  0.2404  2.5800  0.8646
 1927SOL     OW 5779   2.191   0.456   3.738 -0.2072 -0.0743  0.7185
 1927SOL    HW1 5780   2.133   0.476   3.665 -2.0167 -2.2371  1.4196
 1927SOL    HW2 5781   2.279   0.465   3.703 -0.9022  2.7911 -0.5518
 1928SOL     OW 5782   1.663   3.521   3.231  0.2278  0.2602  0.1604
 1928SOL    HW1 5783   1.675   3.570   3.313  3.4666 -0.3045  0.1422
 1928SOL    HW2 5784   1.751   3.508   3.197 -0.8820 -1.1841 -2.4935
 1929SOL     OW 5785   2.059   2.563   3.212  0.1032  0.1092 -0.5868
 1929SOL    HW1 5786   2.048   2.631   3.278 -1.2070 -1.2541  0.6484
 1929SOL    HW2 5787   1.995   2.585   3.144 -0.7835 -0.2423  0.1238
 1930SOL     OW 5788   0.156   2.286   2.386 -0.7466  0.1970 -0.4979
 1930SOL    HW1 5789   0.153   2.369   2.434  0.7728 -0.5732  1.0262
 1930SOL    HW2 5790   0.156   2.219   2.454  0.3594 -0.9751 -1.6066
 1931SOL     OW 5791   2.312   3.191   1.277 -0.0455  0.2532 -0.2053
 1931SOL    HW1 5792   2.285   3.224   1.363 -1.8496  0.9687 -0.9868
 1931SOL    HW2 5793   2.348   3.267   1.232  0.3956  0.0060 -0.2725
 1932SOL     OW 5794   0.006   3.236   2.323 -0.3793 -0.4449  0.5818
 1932SOL    HW1 5795  -0.004   3.314   2.377  1.5414  0.6885 -0.5870
 1932SOL    HW2 5796   0.069   3.182   2.371  0.1870 -0.1189  0.2175
 1933SOL     OW 5797   0.306   2.332   3.819  0.4671  0.3245 -0.0678
 1933SOL    HW1 5798   0.335   2.413   3.861  0.8695 -0.2875  0.8557
 1933SOL    HW2 5799   0.376   2.269   3.836  0.2583 -0.1655 -0.9631
 1934SOL     OW 5800   1.018   2.804   2.277 -0.1194  0.5385  0.0044
 1934SOL    HW1 5801   0.974   2.728   2.240  0.4393 -0.7943  1.9617
 1934SOL    HW2 5802   1.107   2.774   2.295 -0.0188  1.5023  1.2589
 1935SOL     OW 5803   3.567   1.900   1.412  0.2290  0.6022 -0.0623
 1935SOL    HW1 5804   3.571   1.940   1.325  2.7280  1.8913  0.5392
 1935SOL    HW2 5805   3.506   1.954   1.462 -0.5587  0.3627 -0.7441
 1936SOL     OW 5806   3.746   3.559   0.790  0.5409  0.3278 -0.2155
 1936SOL    HW1 5807   3.782   3.637   0.746 -0.8301  1.2173  0.1720
 1936SOL    HW2 5808   3.762   3.488   0.728 -0.1874  1.3208 -1.6079
 1937SOL     OW 5809   0.689   0.562   2.071  0.3812  0.5584 -0.2004
 1937SOL    HW1 5810   0.668   0.644   2.027 -2.0278  0.3763  0.4793
 1937SOL    HW2 5811   0.701   0.586   2.163  2.2180  0.4690 -0.3722
 1938SOL     OW 5812   0.325   3.274   1.038  0.1650  0.2982 -0.9687
 1938SOL    HW1 5813   0.358   3.316   0.959  0.9544 -0.8567 -1.2717
 1938SOL    HW2 5814   0.403   3.240   1.082  0.0397  2.8548  1.5081
 1939SOL     OW 5815   1.148   3.094   0.877 -0.1324  0.3087  0.4311
 1939SOL    HW1 5816   1.118   3.013   0.835 -1.3012  1.3137 -0.7642
 1939SOL    HW2 5817   1.098   3.163   0.834  0.2819  1.6156  1.9546
 1940SOL     OW 5818   1.318   0.556   0.501  0.4941 -0.6560  0.0612
 1940SOL    HW1 5819   1.401   0.568   0.547 -0.0862  1.9950  0.5405
 1940SOL    HW2 5820   1.343   0.530   0.412  1.7651 -1.1734  0.5544
 1941SOL     OW 5821   2.788   1.449   3.491 -0.3384  0.4774  0.1047
 1941SOL    HW1 5822   2.759   1.424   3.579 -0.3464 -1.1154 -0.3257
 1941SOL    HW2 5823   2.877   1.416   3.485  0.1820  1.8652  0.0161
 1942SOL     OW 5824   3.264   1.619   0.888  0.1919  0.4285 -0.0737
 1942SOL    HW1 5825   3.293   1.528   0.882  1.2561  0.7478 -0.0205
 1942SOL    HW2 5826   3.345   1.669   0.890 -0.2932  1.2516  2.3610
 1943SOL     OW 5827   0.172   0.956   3.205  0.4592 -0.5024  0.2960
 1943SOL    HW1 5828   0.260   0.993   3.210 -0.8852  3.0586  0.6734
 1943SOL    HW2 5829   0.147   0.943   3.297 -0.6121  2.0631  0.4645
 1944SOL     OW 5830   0.241   2.760   3.042  0.2580 -0.2858  0.2502
 1944SOL    HW1 5831   0.213   2.851   3.032  0.3828 -0.2850 -0.0935
 1944SOL    HW2 5832   0.267   2.733   2.954 -1.1465 -1.1090  0.0509
 1945SOL     OW 5833   0.757   3.263   1.067 -0.3287  0.3735  0.0509
 1945SOL    HW1 5834   0.793   3.351   1.074 -2.0509  1.1152  0.0069
 1945SOL    HW2 5835   0.801   3.213   1.136 -0.4217  1.6500  1.0636
 1946SOL     OW 5836   3.510   3.636   2.178 -0.3645  0.3681  0.1148
 1946SOL    HW1 5837   3.562   3.563   2.211  0.5364  1.6577  1.7278
 1946SOL    HW2 5838   3.433   3.595   2.138  0.9889 -1.5112 -0.7011
 1947SOL     OW 5839   0.872   0.918   3.407  0.4581  0.7343  0.3903
 1947SOL    HW1 5840   0.948   0.900   3.351  1.3878  2.9080  0.8519
 1947SOL    HW2 5841   0.805   0.856   3.377  1.2365  1.1330 -2.4665
 1948SOL     OW 5842   1.302   3.113   0.627  0.0589 -0.6203  0.0893
 1948SOL    HW1 5843   1.379   3.164   0.651  0.3431 -0.6079 -0.8154
 1948SOL    HW2 5844   1.246   3.117   0.705  1.2602 -1.2204  1.0252
 1949SOL     OW 5845   3.577   3.063   2.854  0.6231  0.5382  0.0922
 1949SOL    HW1 5846   3.512   2.993   2.854  0.9447  0.2118 -0.8950
 1949SOL    HW2 5847   3.633   3.045   2.929 -0.1711  0.5940  0.7142
 1950SOL     OW 5848   3.290   1.050   3.649  0.2526  0.0766  0.4517
 1950SOL    HW1 5849   3.324   1.136   3.624 -0.4600  0.9043  2.1568
 1950SOL    HW2 5850   3.230   1.069   3.721 -1.4073 -1.6528 -0.3917
 1951SOL     OW 5851   3.339   2.151   2.212  0.3409  0.4726  0.3744
 1951SOL    HW1 5852   3.347   2.075   2.153 -0.8823  0.8845 -0.3511
 1951SOL    HW2 5853   3.380   2.122   2.293 -1.5014 -1.6088  0.6746
 1952SOL     OW 5854   3.222   1.633   3.068 -0.2734  0.5477  0.0627
 1952SOL    HW1 5855   3.148   1.680   3.030 -0.0644  1.2962  0.5547
 1952SOL    HW2 5856   3.190   1.600   3.151  0.3069  2.0236  0.9118
 1953SOL     OW 5857   1.165   2.824   2.813  0.4162 -0.2308  0.1800
 1953SOL    HW1 5858   1.083   2.869   2.833 -0.6509 -0.8726 -2.3106
 1953SOL    HW2 5859   1.223   2.893   2.782 -0.0349 -0.0591 -0.3132
 1954SOL     OW 5860   1.121   1.438   3.403 -0.1942  1.0010  0.2237
 1954SOL    HW1 5861   1.047   1.426   3.462  0.5699  0.4516  1.0991
 1954SOL    HW2 5862   1.195   1.456   3.461  0.9347 -1.2312 -0.4067
 1955SOL     OW 5863   2.600   0.203   0.184  1.0740  1.0445 -1.1830
 1955SOL    HW1 5864   2.656   0.219   0.108  0.7400  0.5429 -1.5365
 1955SOL    HW2 5865   2.622   0.114   0.212  0.0394  0.6054 -1.6923
 1956SOL     OW 5866   3.911   0.951   2.451 -0.1355  0.0736 -0.5944
 1956SOL    HW1 5867   3.890   0.959   2.544 -1.3818 -0.6493 -0.8033
 1956SOL    HW2 5868   3.947   0.863   2.441 -1.2817 -0.3724 -1.0053
 1957SOL     OW 5869   2.628   2.828   2.204 -0.2280 -0.5976 -0.0847
 1957SOL    HW1 5870   2.615   2.750   2.150  0.0667 -0.3099 -0.5808
 1957SOL    HW2 5871   2.722   2.846   2.197 -0.0010 -1.1158  1.3012
 1958SOL     OW 5872   3.069   3.388   0.889  1.0595 -0.4585 -0.6126
 1958SOL    HW1 5873   3.121   3.387   0.969 -0.9115 -1.5513  0.7392
 1958SOL    HW2 5874   3.023   3.472   0.891  1.5294 -0.1895 -0.9686
 1959SOL     OW 5875   2.815   3.056   3.517 -0.3391  0.4245  0.1476
 1959SOL    HW1 5876   2.859   3.102   3.588  0.2790  1.7269 -1.0296
 1959SOL    HW2 5877   2.722   3.066   3.536 -0.2461  2.6256 -0.2835
 1960SOL     OW 5878   1.836   3.109   0.366  0.4110  0.5215  0.0836
 1960SOL    HW1 5879   1.899   3.111   0.294  0.6058 -0.0314  0.2386
 1960SOL    HW2 5880   1.765   3.167   0.338 -0.1478 -0.7188 -1.1343
 1961SOL     OW 5881   2.738   3.683   2.959 -0.3732 -0.0869 -0.2077
 1961SOL    HW1 5882   2.793   3.605   2.953  2.0739  1.6325 -4.5108
 1961SOL    HW2 5883   2.657   3.659   2.914  0.2157 -0.3293 -1.1700
 1962SOL     OW 5884   3.780   2.801   2.133 -0.0599  0.9634 -0.1993
 1962SOL    HW1 5885   3.825   2.852   2.200 -1.6403  1.1024  0.7932
 1962SOL    HW2 5886   3.694   2.842   2.124 -0.7144 -0.4347 -0.6680
 1963SOL     OW 5887   3.366   1.206   2.324 -0.3824  0.1128 -0.1726
 1963SOL    HW1 5888   3.408   1.150   2.258  0.5873  1.3017 -0.6062
 1963SOL    HW2 5889   3.439   1.251   2.367 -0.9964 -0.6038  1.7152
 1964SOL     OW 5890   3.944   1.556   1.897 -0.4398  0.3529 -0.2389
 1964SOL    HW1 5891   4.035   1.535   1.918 -0.3755  0.2471 -0.6033
 1964SOL    HW2 5892   3.932   1.521   1.809 -1.2355 -0.8398  0.3244
 1965SOL     OW 5893   2.706   3.713   0.741  0.2930  0.3330  0.5646
 1965SOL    HW1 5894   2.643   3.762   0.689  0.8905  4.0495  2.9077
 1965SOL    HW2 5895   2.791   3.740   0.707  0.6483  1.0039  1.9263
 1966SOL     OW 5896   2.325   3.471   1.458  0.2815 -1.0692 -0.4502
 1966SOL    HW1 5897   2.288   3.383   1.465  0.1855 -1.0451 -0.6337
 1966SOL    HW2 5898   2.265   3.527   1.507  0.3570 -1.1101 -0.3109
 1967SOL     OW 5899   3.906   4.008   1.563  0.3668 -0.1893 -0.2089
 1967SOL    HW1 5900   3.939   3.999   1.652 -0.5849 -0.2108  0.1578
 1967SOL    HW2 5901   3.961   3.951   1.510  0.8494 -0.2815  0.3940
 1968SOL     OW 5902   0.790   0.852   1.330  0.1965 -0.9645 -0.2194
 1968SOL    HW1 5903   0.838   0.919   1.379  0.8747 -0.0146 -2.0808
 1968SOL    HW2 5904   0.730   0.902   1.275 -0.1903 -1.9675 -0.7273
 1969SOL     OW 5905   1.008   1.730   0.926 -0.1373 -0.4922 -0.0119
 1969SOL    HW1 5906   0.939   1.778   0.972 -0.9980 -1.8842  0.2003
 1969SOL    HW2 5907   1.044   1.794   0.864 -1.6910  0.2317 -0.2049
 1970SOL     OW 5908   1.074   0.640   1.641 -1.1852 -0.9208 -0.6497
 1970SOL    HW1 5909   0.979   0.652   1.638 -1.3804 -1.5142  1.4504
 1970SOL    HW2 5910   1.110   0.728   1.628 -2.0537 -0.5574 -0.6715
 1971SOL     OW 5911   1.724   1.245   1.818 -0.3070 -0.1535 -0.4481
 1971SOL    HW1 5912   1.785   1.312   1.787  1.1164 -0.9133  0.5660
 1971SOL    HW2 5913   1.639   1.287   1.816  0.2223  0.9289 -1.9940
 1972SOL     OW 5914   1.209   3.514   1.868  0.1972 -0.2414  0.3850
 1972SOL    HW1 5915   1.273   3.480   1.931 -0.5442  0.4679  1.5556
 1972SOL    HW2 5916   1.232   3.607   1.859  0.4848 -0.4053 -0.6375
 1973SOL     OW 5917   3.323   2.968   3.536 -0.0952  0.0063 -0.1544
 1973SOL    HW1 5918   3.364   3.001   3.456 -0.3791  1.1635  0.1472
 1973SOL    HW2 5919   3.393   2.967   3.601 -0.3181  1.2021  0.1442
 1974SOL     OW 5920   0.149   2.492   2.577  0.1577  0.2257  0.3357
 1974SOL    HW1 5921   0.117   2.580   2.594  0.6973  0.7555 -1.2486
 1974SOL    HW2 5922   0.174   2.458   2.663  0.0983  1.6842  0.9444
 1975SOL     OW 5923   3.765   2.247   0.699  0.0981  0.4641 -0.4668
 1975SOL    HW1 5924   3.732   2.163   0.666 -0.7126  1.0838 -1.2848
 1975SOL    HW2 5925   3.686   2.299   0.714  0.4430  0.3512  2.1517
 1976SOL     OW 5926   0.838   0.498   3.741 -1.1318 -0.1394 -0.0336
 1976SOL    HW1 5927   0.755   0.456   3.764 -1.9794  0.8291 -1.1803
 1976SOL    HW2 5928   0.878   0.438   3.678 -1.4645 -0.1220 -0.2655
 1977SOL     OW 5929   2.596   2.065   1.566 -0.0417  0.0802 -0.2580
 1977SOL    HW1 5930   2.599   2.099   1.477 -0.1034  0.3308 -0.1665
 1977SOL    HW2 5931   2.636   2.134   1.619 -1.0233  0.4238  0.0543
 1978SOL     OW 5932   1.907   0.606   0.470  0.5120 -0.0411 -0.1211
 1978SOL    HW1 5933   1.924   0.543   0.400  1.0445  0.4118 -0.4061
 1978SOL    HW2 5934   1.982   0.665   0.468 -0.2070  0.8940 -0.1837
 1979SOL     OW 5935   2.033   3.730   0.072 -0.0685  0.4127  0.0060
 1979SOL    HW1 5936   2.054   3.652   0.020  1.7451 -0.7638  2.3260
 1979SOL    HW2 5937   2.108   3.788   0.059  0.7305 -0.1714  1.7106
 1980SOL     OW 5938   2.033   3.563   3.870  0.0462  0.2778  0.8267
 1980SOL    HW1 5939   1.952   3.532   3.831  1.4372  1.2324 -3.3701
 1980SOL    HW2 5940   2.102   3.518   3.822  2.0804  0.3373  3.4579
 1981SOL     OW 5941   0.933   3.316   2.927 -0.0964  0.1523  0.2099
 1981SOL    HW1 5942   0.882   3.359   2.858  1.4282  1.1369 -0.3477
 1981SOL    HW2 5943   1.021   3.311   2.892  0.8285  1.0620  2.2452
 1982SOL     OW 5944   2.897   2.821   2.217 -1.0652  0.3915  0.0449
 1982SOL    HW1 5945   2.983   2.778   2.222 -0.6977  0.7684 -1.9687
 1982SOL    HW2 5946   2.910   2.905   2.259 -1.1989 -0.5440  2.0786
 1983SOL     OW 5947   2.537   0.123   0.570 -0.3455  0.0090 -0.3891
 1983SOL    HW1 5948   2.624   0.143   0.536 -0.0490 -3.0163 -1.6985
 1983SOL    HW2 5949   2.478   0.180   0.520  0.6351 -0.1797 -1.8072
 1984SOL     OW 5950   2.465   1.853   2.671  0.3508 -0.0522  0.6293
 1984SOL    HW1 5951   2.371   1.852   2.689  0.0673  1.5410 -0.5345
 1984SOL    HW2 5952   2.505   1.820   2.751 -1.1875 -0.7738  1.1455
 1985SOL     OW 5953   1.462   3.850   2.307  0.4979  0.3292  0.0890
 1985SOL    HW1 5954   1.507   3.767   2.289  0.7243  0.2737  0.9028
 1985SOL    HW2 5955   1.369   3.830   2.297  0.5289 -0.1174  0.6363
 1986SOL     OW 5956   3.721   0.412   1.679 -0.7127 -0.0043 -0.1457
 1986SOL    HW1 5957   3.688   0.339   1.733 -0.4862 -1.1122 -1.4493
 1986SOL    HW2 5958   3.658   0.417   1.607 -0.4496  0.7923 -0.3214
 1987SOL     OW 5959   3.397   1.174   1.375  0.0469  0.0694 -0.2369
 1987SOL    HW1 5960   3.467   1.145   1.434 -0.1531  3.3996  1.8885
 1987SOL    HW2 5961   3.442   1.200   1.295  0.7985 -0.9346 -0.1596
 1988SOL     OW 5962   2.792   2.617   3.548 -0.5501  0.0871 -0.4689
 1988SOL    HW1 5963   2.728   2.595   3.616 -0.2083  0.0483 -0.1553
 1988SOL    HW2 5964   2.877   2.594   3.587 -0.4377 -1.1566 -1.3938
 1989SOL     OW 5965   0.406   3.844   0.493  0.0363 -0.3374 -0.4027
 1989SOL    HW1 5966   0.487   3.839   0.444 -1.0062  0.0057 -2.2367
 1989SOL    HW2 5967   0.412   3.774   0.558  1.6421 -0.5144 -0.7225
 1990SOL     OW 5968   1.085   0.010   3.469  0.3655 -0.2321  0.2218
 1990SOL    HW1 5969   1.116   0.068   3.399 -3.3574  2.3307  0.4047
 1990SOL    HW2 5970   1.099   0.060   3.549 -2.2315  0.2519  0.4564
 1991SOL     OW 5971   0.764   3.070   3.806 -0.4035  0.0976  0.0526
 1991SOL    HW1 5972   0.736   3.086   3.896  0.9463  1.2165  0.3076
 1991SOL    HW2 5973   0.839   3.128   3.793  1.6652 -2.5287 -0.6467
 1992SOL     OW 5974   3.177   3.428   3.929 -0.0409 -0.4255  0.7419
 1992SOL    HW1 5975   3.122   3.379   3.868  1.0115  0.2920 -0.8597
 1992SOL    HW2 5976   3.220   3.361   3.982  0.4490 -1.2217 -0.5902
 1993SOL     OW 5977   3.909   0.485   3.764  0.6015  0.0839  0.1861
 1993SOL    HW1 5978   3.860   0.514   3.840  2.1864  0.8369  0.9818
 1993SOL    HW2 5979   3.866   0.404   3.736  0.1910 -0.3958  2.0942
 1994SOL     OW 5980   0.043   0.187   3.758  0.2169 -0.0055  0.2200
 1994SOL    HW1 5981   0.121   0.136   3.783 -1.1114 -2.6115 -0.6341
 1994SOL    HW2 5982  -0.008   0.194   3.839  1.9811  3.2455  1.2423
 1995SOL     OW 5983   0.019   0.053   1.155  0.6352 -0.1869  0.2250
 1995SOL    HW1 5984  -0.034   0.039   1.076  0.6602 -0.6084  0.2834
 1995SOL    HW2 5985   0.090   0.110   1.125  1.3057 -1.2869 -0.3415
 1996SOL     OW 5986   0.230   1.595   3.386  0.1294 -0.3748 -0.3438
 1996SOL    HW1 5987   0.309   1.642   3.360  1.3654 -1.2697  1.5780
 1996SOL    HW2 5988   0.257   1.504   3.394 -0.6403 -0.4654  1.9415
 1997SOL     OW 5989   2.961   2.445   0.261  0.3683 -0.6734 -0.9697
 1997SOL    HW1 5990   2.987   2.366   0.309  1.8209  1.2987  1.8004
 1997SOL    HW2 5991   2.999   2.517   0.312 -1.5909  1.8895 -2.8691
 1998SOL     OW 5992   2.022   0.221   1.302  0.6305 -0.3482 -0.5724
 1998SOL    HW1 5993   2.004   0.173   1.221  1.0697  0.2603 -1.0380
 1998SOL    HW2 5994   2.048   0.153   1.365 -1.3800 -1.0478 -0.4014
 1999SOL     OW 5995   3.349   0.382   0.684  0.0779  0.1754 -0.0964
 1999SOL    HW1 5996   3.298   0.303   0.703  0.0817  0.1205 -0.3109
 1999SOL    HW2 5997   3.406   0.356   0.611 -2.5973  1.4576 -2.8779
 2000SOL     OW 5998   4.028   2.722   1.561  0.4171  0.0213 -0.3388
 2000SOL    HW1 5999   3.971   2.698   1.634  0.3935  2.1163  0.4058
 2000SOL    HW2 6000   3.971   2.714   1.484 -1.2847  2.8295  0.4621
 2001SOL     OW 6001   1.865   1.469   3.300  0.0723  0.1430  0.5283
 2001SOL    HW1 6002   1.910   1.463   3.216 -1.5275  0.4162 -0.3840
 2001SOL    HW2 6003   1.772   1.467   3.278 -0.3857  0.3198  2.2881
 2002SOL     OW 6004   0.414  -0.006   0.786  0.3954  0.0230 -0.4673
 2002SOL    HW1 6005   0.326   0.023   0.763  0.2754 -0.0449 -0.0919
 2002SOL    HW2 6006   0.450   0.065   0.840 -0.5972 -1.3161  2.0916
 2003SOL     OW 6007   2.361   0.132   1.356 -0.9754 -0.3033  0.3485
 2003SOL    HW1 6008   2.300   0.205   1.372 -1.1369  0.1060 -1.8205
 2003SOL    HW2 6009   2.439   0.174   1.319 -1.4871 -1.2439 -1.9987
 2004SOL     OW 6010   1.562   2.623   0.161  0.4711 -0.0756  0.0645
 2004SOL    HW1 6011   1.516   2.548   0.199 -1.0382  1.4012  1.3204
 2004SOL    HW2 6012   1.508   2.699   0.186  1.4518  1.3488 -1.9157
 2005SOL     OW 6013   3.773   3.435   2.294 -0.5257 -0.6054  0.5555
 2005SOL    HW1 6014   3.746   3.354   2.249 -0.3635 -0.4602  0.1929
 2005SOL    HW2 6015   3.780   3.410   2.386 -2.1325 -0.5865  0.6990
 2006SOL     OW 6016   0.752   3.057   0.479 -0.3580 -0.3648 -0.2492
 2006SOL    HW1 6017   0.689   3.105   0.533  0.6467  0.7508 -0.0259
 2006SOL    HW2 6018   0.701   3.024   0.405 -0.8815  2.2412 -1.1513
 2007SOL     OW 6019   0.907   1.330   1.719  0.4817  0.1916 -0.7506
 2007SOL    HW1 6020   0.915   1.421   1.747 -1.4410 -0.1215  1.0923
 2007SOL    HW2 6021   0.973   1.283   1.770  1.8369  0.5812 -2.0903
 2008SOL     OW 6022   2.360   2.130   2.696  0.6434  0.5755  0.3894
 2008SOL    HW1 6023   2.302   2.069   2.651  2.1318  0.4456 -1.4703
 2008SOL    HW2 6024   2.439   2.079   2.714  1.1052  1.3848  0.6991
 2009SOL     OW 6025   2.222   3.837   1.951 -0.4844 -0.1385 -0.2622
 2009SOL    HW1 6026   2.197   3.804   1.865  1.1977 -1.3351 -0.3539
 2009SOL    HW2 6027   2.158   3.797   2.011 -2.4818  1.7407 -1.0048
 2010SOL     OW 6028   0.953   3.604   1.730 -0.1252 -0.5122  0.1479
 2010SOL    HW1 6029   1.034   3.555   1.741  0.1577  0.3238  2.4683
 2010SOL    HW2 6030   0.889   3.539   1.702  1.5655 -0.9404 -3.1438
 2011SOL     OW 6031   3.291   3.247   0.118 -0.1203 -0.5282  0.1599
 2011SOL    HW1 6032   3.292   3.320   0.179  0.1893  0.8384 -1.3873
 2011SOL    HW2 6033   3.251   3.175   0.166 -0.0064  0.5188  1.8923
 2012SOL     OW 6034   0.718   2.749   2.130  0.0593  0.0304  0.0684
 2012SOL    HW1 6035   0.636   2.704   2.152  0.9518 -0.6566  2.2433
 2012SOL    HW2 6036   0.724   2.742   2.034 -2.9192  1.0587 -0.3136
 2013SOL     OW 6037   1.256   2.196   3.811  0.2375 -0.8013  0.0781
 2013SOL    HW1 6038   1.276   2.159   3.725  0.0745 -0.9435  0.1003
 2013SOL    HW2 6039   1.336   2.186   3.861  0.8963  0.8230 -0.5859
 2014SOL     OW 6040   3.211   3.075   2.024 -0.2530  0.7204  0.3891
 2014SOL    HW1 6041   3.264   3.110   2.095  0.1316  1.7004 -0.3636
 2014SOL    HW2 6042   3.133   3.130   2.021 -1.0324 -0.3113  1.0689
 2015SOL     OW 6043   2.600   3.260   2.796 -0.5388 -0.4342  0.1994
 2015SOL    HW1 6044   2.508   3.277   2.815 -0.1479  0.7304  1.1822
 2015SOL    HW2 6045   2.615   3.170   2.825 -1.2382 -0.4341  0.5682
 2016SOL     OW 6046   0.434   3.393   1.721 -0.5598  0.0641 -0.5487
 2016SOL    HW1 6047   0.355   3.447   1.714 -0.6193  0.0099 -0.3158
 2016SOL    HW2 6048   0.503   3.454   1.745 -0.8710 -0.1416  0.9521
 2017SOL     OW 6049   0.753   3.935   2.463 -0.5887  0.6635  0.1449
 2017SOL    HW1 6050   0.678   3.893   2.421  0.7327 -1.0324 -0.6716
 2017SOL    HW2 6051   0.776   4.007   2.403 -0.0760 -0.3569 -0.9271
 2018SOL     OW 6052   2.232   0.787   2.036 -0.8480 -0.6198 -0.2025
 2018SOL    HW1 6053   2.151   0.837   2.023 -1.5022 -1.4685  0.4790
 2018SOL    HW2 6054   2.234   0.726   1.963 -1.6049 -1.5950  0.5722
 2019SOL     OW 6055   2.974   2.956   2.463 -0.8967  0.4218  0.0501
 2019SOL    HW1 6056   2.971   3.044   2.502 -3.2061  0.2918  0.2690
 2019SOL    HW2 6057   3.068   2.939   2.452 -0.2988  2.1291  1.7606
 2020SOL     OW 6058   2.230   1.188   3.783  0.4752 -0.0971  0.5151
 2020SOL    HW1 6059   2.244   1.144   3.699 -3.6388 -1.7137  0.4665
 2020SOL    HW2 6060   2.259   1.125   3.849 -0.0891 -0.5466  0.3403
 2021SOL     OW 6061   1.753   2.294   2.150 -1.1221  0.0157 -0.4069
 2021SOL    HW1 6062   1.672   2.337   2.121 -0.3716  1.2165 -0.7832
 2021SOL    HW2 6063   1.730   2.256   2.235 -2.0377  0.5209 -0.4087
 2022SOL     OW 6064   2.409   3.307   2.226 -0.0183 -0.4471  0.2966
 2022SOL    HW1 6065   2.362   3.225   2.213  0.3334 -1.1062  2.7209
 2022SOL    HW2 6066   2.466   3.291   2.301  1.0197  1.6261  0.0402
 2023SOL     OW 6067   2.959   3.167   0.612 -0.8664 -0.2916  0.2624
 2023SOL    HW1 6068   2.863   3.173   0.606 -0.8015  0.1578 -0.5470
 2023SOL    HW2 6069   2.977   3.154   0.705 -1.7391 -0.8141  0.3704
 2024SOL     OW 6070   0.141   0.817   2.715  0.0511 -0.2790  0.3581
 2024SOL    HW1 6071   0.102   0.837   2.801 -0.1996  1.6431 -0.1618
 2024SOL    HW2 6072   0.079   0.756   2.675 -0.5465 -0.0964  0.9825
 2025SOL     OW 6073   3.436   2.139   0.523  0.1789  0.2175 -0.1502
 2025SOL    HW1 6074   3.365   2.096   0.475  0.9358 -2.0637  0.6430
 2025SOL    HW2 6075   3.516   2.111   0.479  0.6837  1.9275 -0.3946
 2026SOL     OW 6076   2.498   0.611   3.184  0.4720  0.0117 -0.7778
 2026SOL    HW1 6077   2.470   0.634   3.096  1.5840 -1.0873 -1.4504
 2026SOL    HW2 6078   2.572   0.552   3.171 -0.7330 -2.0160  0.8590
 2027SOL     OW 6079   1.259   0.615   2.171  0.3930  0.3340 -0.2802
 2027SOL    HW1 6080   1.169   0.604   2.142  0.1199 -0.2037  0.7227
 2027SOL    HW2 6081   1.290   0.526   2.187  1.3340  0.4609 -1.2622
 2028SOL     OW 6082   1.787   0.732   2.553  0.0526  0.6777 -0.0352
 2028SOL    HW1 6083   1.723   0.664   2.572  0.3633  0.6393  0.8848
 2028SOL    HW2 6084   1.865   0.685   2.523  0.2635  0.6269  0.5899
 2029SOL     OW 6085   2.216   3.369   1.027  0.1973  0.2210  0.6573
 2029SOL    HW1 6086   2.214   3.446   1.084 -0.3505  1.6661 -1.1978
 2029SOL    HW2 6087   2.308   3.346   1.020  0.6619  2.1993 -0.5619
 2030SOL     OW 6088   1.247   3.697   1.264  0.3429 -0.1109 -0.0872
 2030SOL    HW1 6089   1.185   3.770   1.269 -0.5774 -0.9461  3.1979
 2030SOL    HW2 6090   1.306   3.711   1.338  1.0871 -1.8571 -0.3070
 2031SOL     OW 6091   2.905   0.688   1.702  0.2149 -0.1708  0.2004
 2031SOL    HW1 6092   2.828   0.653   1.748 -0.7319  0.0176 -1.1828
 2031SOL    HW2 6093   2.911   0.780   1.731 -1.8792  0.7007 -1.8114
 2032SOL     OW 6094   3.278   1.338   0.869 -0.5342  0.6374 -0.0422
 2032SOL    HW1 6095   3.189   1.307   0.857 -0.2254 -1.2437  1.8616
 2032SOL    HW2 6096   3.330   1.285   0.810 -0.4488  0.1294  0.4748
 2033SOL     OW 6097   3.481   2.642   2.921  0.1427  1.0790 -1.1614
 2033SOL    HW1 6098   3.506   2.550   2.911 -2.5815  0.2661 -1.5147
 2033SOL    HW2 6099   3.513   2.666   3.008  0.7612 -0.2672 -0.9857
 2034SOL     OW 6100   2.962   0.219   0.398 -0.3544  0.5695  0.1095
 2034SOL    HW1 6101   2.954   0.315   0.402 -1.7007  0.4210  1.5989
 2034SOL    HW2 6102   2.888   0.186   0.448  1.3882 -1.2356  1.6708
 2035SOL     OW 6103   3.736   3.368   2.916  0.0519 -0.1671  0.2218
 2035SOL    HW1 6104   3.785   3.436   2.962 -0.4354 -0.9251  1.9142
 2035SOL    HW2 6105   3.716   3.303   2.982 -0.8808 -1.2030 -1.0237
 2036SOL     OW 6106   0.295   2.778   2.513 -0.2600 -0.3170  0.1920
 2036SOL    HW1 6107   0.374   2.820   2.480 -1.5987  1.7106 -0.6038
 2036SOL    HW2 6108   0.247   2.848   2.557 -1.2963 -1.6595  1.2900
 2037SOL     OW 6109   2.148   1.699   3.060 -0.2453 -0.0294 -0.5875
 2037SOL    HW1 6110   2.113   1.610   3.067 -1.7172  0.5147 -0.6832
 2037SOL    HW2 6111   2.243   1.687   3.058 -0.4381 -1.7013 -2.0402
 2038SOL     OW 6112   0.431   1.849   1.292  0.2642 -0.4591 -0.2230
 2038SOL    HW1 6113   0.456   1.812   1.207 -0.9439 -2.7981  0.3510
 2038SOL    HW2 6114   0.353   1.800   1.318 -1.1472  2.1962  0.9545
 2039SOL     OW 6115   0.601   1.590   0.278  0.4002 -0.8558  0.3460
 2039SOL    HW1 6116   0.568   1.662   0.225  0.2827 -1.1633 -0.0033
 2039SOL    HW2 6117   0.658   1.541   0.219 -0.2219 -1.5570  0.3125
 2040SOL     OW 6118   3.279   0.892   2.788  0.1407  0.2028 -0.6149
 2040SOL    HW1 6119   3.368   0.864   2.806 -0.5474 -2.1155 -0.5303
 2040SOL    HW2 6120   3.289   0.970   2.732  2.1823  0.3223 -0.1563
 2041SOL     OW 6121   0.647   3.557   2.216 -1.2343 -0.5830 -0.0248
 2041SOL    HW1 6122   0.656   3.647   2.187  0.0158 -0.4679  0.6541
 2041SOL    HW2 6123   0.700   3.551   2.296 -1.1660 -1.9465 -0.1377
 2042SOL     OW 6124   3.485   1.618   1.470 -0.4012 -0.3956  0.1318
 2042SOL    HW1 6125   3.510   1.709   1.486  0.0595 -0.4985  0.0229
 2042SOL    HW2 6126   3.565   1.568   1.486 -0.5085 -0.7233 -0.3401
 2043SOL     OW 6127   1.946   0.116   0.751 -0.0335  0.8470  0.3685
 2043SOL    HW1 6128   1.855   0.114   0.721  0.0689  2.5399 -0.1686
 2043SOL    HW2 6129   1.984   0.191   0.706  1.8851 -0.3443 -0.0972
 2044SOL     OW 6130   2.958   3.501   0.164 -0.2504  1.0830 -0.4074
 2044SOL    HW1 6131   3.002   3.567   0.218  1.0207  0.3823 -0.5398
 2044SOL    HW2 6132   3.025   3.474   0.101 -1.1491  0.5757 -1.1555
 2045SOL     OW 6133   3.864   0.149   3.562 -0.0131  0.1808  0.2253
 2045SOL    HW1 6134   3.788   0.142   3.619 -0.7019 -1.1295 -0.7954
 2045SOL    HW2 6135   3.939   0.149   3.621 -0.6330 -2.4151  1.1215
 2046SOL     OW 6136   2.134   0.636   0.137 -0.0845 -0.2113 -0.4583
 2046SOL    HW1 6137   2.081   0.600   0.208 -2.3946 -0.8793 -2.3588
 2046SOL    HW2 6138   2.138   0.566   0.072 -1.4439  1.5443 -2.6157
 2047SOL     OW 6139   0.131   0.160   2.134 -0.2828  0.0891 -0.7630
 2047SOL    HW1 6140   0.169   0.072   2.131  0.1542  0.1410  1.3072
 2047SOL    HW2 6141   0.043   0.146   2.169  0.8570  0.6283  2.7604
 2048SOL     OW 6142   0.838   2.600   3.379 -0.8643  0.0897  0.1910
 2048SOL    HW1 6143   0.748   2.599   3.346 -0.0457 -1.9600 -2.3236
 2048SOL    HW2 6144   0.843   2.679   3.432 -4.0750  0.3878  0.2740
 2049SOL     OW 6145   0.707   1.727   1.941 -0.1699  0.0632  0.4736
 2049SOL    HW1 6146   0.666   1.791   2.000  1.1469  1.1120  0.2850
 2049SOL    HW2 6147   0.801   1.743   1.950  0.0728  0.1034 -1.7380
 2050SOL     OW 6148   1.774   2.449   1.597 -0.4051  0.2283 -0.2202
 2050SOL    HW1 6149   1.753   2.488   1.512  1.2467  0.8488 -0.3760
 2050SOL    HW2 6150   1.860   2.485   1.620 -0.0334 -1.2766  0.9083
 2051SOL     OW 6151   2.691   2.008   2.591 -0.1143 -0.6244  0.3969
 2051SOL    HW1 6152   2.607   1.962   2.589  0.9174 -2.6381  1.0951
 2051SOL    HW2 6153   2.707   2.032   2.500 -1.2594 -0.5556  0.2012
 2052SOL     OW 6154   1.470   0.482   2.861  0.0262  0.1581  0.1178
 2052SOL    HW1 6155   1.553   0.435   2.871  0.1064  0.2520 -0.0979
 2052SOL    HW2 6156   1.495   0.565   2.821 -0.0210  0.7149  1.2070
 2053SOL     OW 6157   3.724   3.105   3.416  0.6316  0.5625 -0.1126
 2053SOL    HW1 6158   3.789   3.056   3.467  0.5247  0.4797 -0.0556
 2053SOL    HW2 6159   3.732   3.195   3.448  1.2163  0.6929 -0.6089
 2054SOL     OW 6160   0.235   1.543   0.211 -0.5767  0.6580 -0.0008
 2054SOL    HW1 6161   0.298   1.488   0.164  1.5177  1.5053  1.6767
 2054SOL    HW2 6162   0.191   1.593   0.142 -0.3411 -0.8367 -1.3065
 2055SOL     OW 6163   2.342   0.374   1.112 -0.1952 -0.7178  0.1183
 2055SOL    HW1 6164   2.416   0.325   1.078  0.8806 -1.3314  3.0652
 2055SOL    HW2 6165   2.380   0.456   1.143 -1.5752  1.0354 -2.4235
 2056SOL     OW 6166   2.080   3.712   0.358  0.3143  0.5463 -0.6534
 2056SOL    HW1 6167   1.987   3.730   0.350  0.2630  0.0070 -1.5065
 2056SOL    HW2 6168   2.109   3.696   0.267  1.0216 -0.2370 -0.3103
 2057SOL     OW 6169   3.007   0.083   1.623 -0.4146  0.6328  0.5762
 2057SOL    HW1 6170   3.059   0.138   1.565 -0.6733 -1.3416 -1.6775
 2057SOL    HW2 6171   3.071   0.040   1.680  0.0076  1.2802  0.5957
 2058SOL     OW 6172   1.770   3.700   2.381 -0.5540 -0.1502 -0.6108
 2058SOL    HW1 6173   1.683   3.706   2.343 -1.2456 -0.4938  0.8494
 2058SOL    HW2 6174   1.761   3.636   2.452  0.9840 -0.5048 -0.7056
 2059SOL     OW 6175   1.383   1.070   3.039 -0.1718 -0.2805 -0.4683
 2059SOL    HW1 6176   1.380   1.008   3.111 -1.6525 -1.1954 -1.2786
 2059SOL    HW2 6177   1.313   1.132   3.057 -1.1133 -0.9937 -1.4806
 2060SOL     OW 6178   2.896   3.371   1.501 -0.0780  0.5947  0.0329
 2060SOL    HW1 6179   2.976   3.375   1.553 -0.5705  0.5419  0.8185
 2060SOL    HW2 6180   2.850   3.295   1.535  0.7113 -0.9704 -2.1800
 2061SOL     OW 6181   0.964   2.589   0.602 -0.1973 -0.3213 -0.0872
 2061SOL    HW1 6182   1.014   2.512   0.573 -1.5903 -1.7551  1.1557
 2061SOL    HW2 6183   0.922   2.621   0.523  3.0812  1.3722 -1.3550
 2062SOL     OW 6184   3.449   3.378   0.782 -0.1482  0.2296 -0.0861
 2062SOL    HW1 6185   3.522   3.438   0.800 -1.7030  2.0165  0.4909
 2062SOL    HW2 6186   3.371   3.423   0.813 -1.5020 -1.8114 -0.2942
 2063SOL     OW 6187   3.241   0.778   3.343  0.2786  0.2880  0.5279
 2063SOL    HW1 6188   3.145   0.776   3.339  0.1053  2.3494  2.1479
 2063SOL    HW2 6189   3.267   0.819   3.260 -0.2676  0.3322  0.3725
 2064SOL     OW 6190   1.325   0.905   0.547 -0.7491 -0.0115 -0.4622
 2064SOL    HW1 6191   1.392   0.843   0.518 -0.3583  0.1856  0.0149
 2064SOL    HW2 6192   1.300   0.875   0.634  0.1459  1.0494  0.1913
 2065SOL     OW 6193   1.739   3.633   3.476  0.3526  0.2247 -0.1577
 2065SOL    HW1 6194   1.807   3.644   3.543  0.0162 -0.7067  0.3544
 2065SOL    HW2 6195   1.717   3.723   3.449  2.1908  0.5310 -0.7624
 2066SOL     OW 6196   3.064   2.459   3.347 -0.5590  0.2950 -1.2492
 2066SOL    HW1 6197   3.036   2.464   3.438 -2.8366  1.1162 -1.9162
 2066SOL    HW2 6198   3.084   2.366   3.333  2.3493  0.4957  0.6711
 2067SOL     OW 6199   0.283   2.293   2.792 -0.3426  0.4491 -0.0093
 2067SOL    HW1 6200   0.369   2.251   2.786 -0.8366 -0.3853 -1.9988
 2067SOL    HW2 6201   0.244   2.253   2.870  1.0965  0.9703  1.0350
 2068SOL     OW 6202   1.611   0.251   2.263 -0.1318 -0.0048  0.2869
 2068SOL    HW1 6203   1.696   0.293   2.250  0.9493 -1.9331  0.7626
 2068SOL    HW2 6204   1.632   0.163   2.294 -2.2888 -0.9417 -0.7119
 2069SOL     OW 6205   2.843   0.786   2.970 -0.2985  0.3226 -0.9121
 2069SOL    HW1 6206   2.931   0.814   2.995 -0.3293 -1.6565  1.8965
 2069SOL    HW2 6207   2.792   0.867   2.966  1.3231  1.3714 -1.3486
 2070SOL     OW 6208   2.547   0.956   1.062  0.2712 -0.9742 -0.2601
 2070SOL    HW1 6209   2.547   1.034   1.006  1.0134  1.0318  2.2786
 2070SOL    HW2 6210   2.639   0.945   1.087  0.0391 -2.1410  0.1177
 2071SOL     OW 6211   3.855   2.303   2.762  0.1883  0.2660  0.1196
 2071SOL    HW1 6212   3.830   2.395   2.771  0.4876  0.3432  0.2110
 2071SOL    HW2 6213   3.951   2.305   2.763  0.2103 -0.1745  1.5397
 2072SOL     OW 6214   2.414   2.376   0.072  0.7324 -0.0066 -0.2607
 2072SOL    HW1 6215   2.438   2.450   0.129 -0.0630 -0.7857  1.1361
 2072SOL    HW2 6216   2.372   2.416  -0.003  1.3546  1.0276 -0.0798
 2073SOL     OW 6217   2.163   1.629   0.859  0.1245  0.5122 -0.0549
 2073SOL    HW1 6218   2.201   1.574   0.927  2.1702  2.5349  0.5939
 2073SOL    HW2 6219   2.081   1.662   0.897  0.1725 -0.0588  0.5578
 2074SOL     OW 6220   0.789   2.834   2.705 -0.0611 -0.0788 -0.0906
 2074SOL    HW1 6221   0.769   2.802   2.617 -3.0825  0.7392  0.1879
 2074SOL    HW2 6222   0.815   2.756   2.754  2.6666 -0.4139 -1.8369
 2075SOL     OW 6223   3.670   2.393   2.436 -0.5379  0.1638 -0.0726
 2075SOL    HW1 6224   3.601   2.405   2.501  0.0755  0.1828  0.5936
 2075SOL    HW2 6225   3.699   2.482   2.414 -1.1919  0.1892 -0.8798
 2076SOL     OW 6226   3.014   3.695   3.586 -0.3290  0.1209 -1.1988
 2076SOL    HW1 6227   3.047   3.784   3.574  0.9705 -0.1410  0.1162
 2076SOL    HW2 6228   2.947   3.702   3.653  0.8537 -0.0664  0.0466
 2077SOL     OW 6229   0.929   2.707   3.033  0.3329 -0.2852 -0.6241
 2077SOL    HW1 6230   0.956   2.615   3.030 -1.5793 -0.9421  0.2579
 2077SOL    HW2 6231   0.833   2.703   3.032  0.1132  1.5107  2.2672
 2078SOL     OW 6232   0.434   2.532   1.616  0.3321  0.0202  0.0138
 2078SOL    HW1 6233   0.520   2.523   1.658  0.3416 -0.3878 -0.0942
 2078SOL    HW2 6234   0.437   2.473   1.541 -0.7237 -1.4824  1.0884
 2079SOL     OW 6235   2.978   0.860   3.327 -0.3771  0.8210 -0.8201
 2079SOL    HW1 6236   2.890   0.832   3.303 -0.4696 -0.1288  0.5029
 2079SOL    HW2 6237   2.968   0.897   3.415  0.6025  0.2289 -0.4358
 2080SOL     OW 6238   0.243   3.388   1.281 -0.3888  0.5459  0.7343
 2080SOL    HW1 6239   0.283   3.470   1.309  0.5599  0.0154  0.9880
 2080SOL    HW2 6240   0.287   3.366   1.200 -0.4182  0.1308  0.8294
 2081SOL     OW 6241   3.434   2.773   2.530 -0.7957 -0.2299  0.8121
 2081SOL    HW1 6242   3.509   2.817   2.570  0.2525 -0.0957 -1.1897
 2081SOL    HW2 6243   3.444   2.682   2.555 -0.0783 -0.1775  0.7456
 2082SOL     OW 6244   0.834   2.966   2.375 -0.3933  0.1559  0.0757
 2082SOL    HW1 6245   0.818   3.036   2.312  0.1664  0.7372  0.5516
 2082SOL    HW2 6246   0.886   2.902   2.327  1.2497  1.2520  0.3000
 2083SOL     OW 6247   1.450   2.167   0.042 -0.0687  0.6918 -0.2192
 2083SOL    HW1 6248   1.411   2.252   0.059  2.0103  1.7106 -0.2545
 2083SOL    HW2 6249   1.508   2.151   0.116 -0.3818 -0.7057 -0.2287
 2084SOL     OW 6250   2.339   3.558   0.721 -0.2790  0.2889  0.5186
 2084SOL    HW1 6251   2.246   3.570   0.703 -0.1219 -0.6228 -1.1363
 2084SOL    HW2 6252   2.351   3.590   0.810 -2.2506  0.0597  0.9082
 2085SOL     OW 6253   1.826   3.809   0.327  0.4202 -0.0735  0.0498
 2085SOL    HW1 6254   1.776   3.815   0.246 -1.2208  2.8295  1.1441
 2085SOL    HW2 6255   1.834   3.899   0.357 -0.3106 -1.1222  3.8485
 2086SOL     OW 6256   3.584   3.944   1.103 -0.3170 -0.0491 -0.4568
 2086SOL    HW1 6257   3.538   3.928   1.186  0.7522 -1.7160 -0.1354
 2086SOL    HW2 6258   3.621   4.032   1.113  0.1717 -0.3907  1.0424
 2087SOL     OW 6259   2.846   0.062   0.637 -0.6741 -0.1492 -0.6821
 2087SOL    HW1 6260   2.799   0.039   0.717  0.1353  0.7184  0.0719
 2087SOL    HW2 6261   2.842  -0.017   0.583  0.2463 -1.3818  0.9428
 2088SOL     OW 6262   0.209   3.603   3.134  0.1084 -0.4002  1.1401
 2088SOL    HW1 6263   0.261   3.523   3.130 -1.3080 -1.3610  1.0597
 2088SOL    HW2 6264   0.181   3.609   3.225 -1.7299 -1.3433  0.6901
 2089SOL     OW 6265   2.385   3.702   2.679  0.4079 -0.1263 -0.3147
 2089SOL    HW1 6266   2.319   3.673   2.742  1.0541  1.7848  1.3679
 2089SOL    HW2 6267   2.337   3.707   2.595 -1.1651 -0.3400  0.5272
 2090SOL     OW 6268   3.231   1.682   2.679  0.2143 -0.2625  0.4252
 2090SOL    HW1 6269   3.296   1.630   2.631  0.1189  1.3790 -1.6007
 2090SOL    HW2 6270   3.223   1.637   2.764  1.7177 -2.2556 -0.4001
 2091SOL     OW 6271   0.854   0.869   2.976  0.2179  1.4754  0.1306
 2091SOL    HW1 6272   0.833   0.952   3.020 -0.8809  0.7113  1.0882
 2091SOL    HW2 6273   0.914   0.825   3.037 -0.9104  0.6371  0.6623
 2092SOL     OW 6274   3.440   0.433   1.054  0.5045  0.7016  0.7648
 2092SOL    HW1 6275   3.499   0.477   0.994 -0.3743  2.6173  1.2183
 2092SOL    HW2 6276   3.355   0.432   1.009  0.3361  0.1450  1.0758
 2093SOL     OW 6277   0.611   3.883   3.431 -0.3045 -0.4146 -0.5338
 2093SOL    HW1 6278   0.650   3.963   3.466  2.5662 -1.6184 -0.7243
 2093SOL    HW2 6279   0.664   3.861   3.355 -0.9096 -2.5675 -0.4010
 2094SOL     OW 6280   3.076   2.492   3.864 -0.9385 -0.0432  0.1364
 2094SOL    HW1 6281   3.147   2.544   3.826 -0.3808 -0.3304  0.7577
 2094SOL    HW2 6282   3.119   2.413   3.897 -1.5433 -0.2080  0.5528
 2095SOL     OW 6283   0.549   2.710   1.305  0.1446  0.0485  0.9044
 2095SOL    HW1 6284   0.595   2.765   1.241 -0.1023  1.6642  2.0350
 2095SOL    HW2 6285   0.547   2.623   1.266  0.6205  0.8281 -0.9509
 2096SOL     OW 6286   1.256   2.144   0.292 -0.1197 -0.0285 -0.3599
 2096SOL    HW1 6287   1.281   2.095   0.213 -1.3644  0.8654 -1.3615
 2096SOL    HW2 6288   1.167   2.116   0.310  0.9419 -2.0786  2.2807
 2097SOL     OW 6289   1.739   0.267   1.185  0.1083  0.4843  0.0386
 2097SOL    HW1 6290   1.766   0.234   1.271  2.4047  1.1149 -0.3749
 2097SOL    HW2 6291   1.812   0.247   1.127 -1.7639 -0.7979 -2.0674
 2098SOL     OW 6292   2.658   2.605   0.914  0.2101 -0.4411  0.0378
 2098SOL    HW1 6293   2.699   2.624   0.998  0.7032 -1.4347  0.0407
 2098SOL    HW2 6294   2.654   2.690   0.870  0.6040 -0.0248  0.7723
 2099SOL     OW 6295   0.393   1.239   0.668 -0.2101 -0.1138 -0.7858
 2099SOL    HW1 6296   0.417   1.305   0.602 -0.6125 -0.9262 -1.7857
 2099SOL    HW2 6297   0.421   1.156   0.629  1.8058 -0.4168  1.1777
 2100SOL     OW 6298   2.978   3.042   1.175  0.2205  0.0003  0.3376
 2100SOL    HW1 6299   2.907   3.106   1.175  0.4550  0.2713  1.0250
 2100SOL    HW2 6300   2.957   2.982   1.246  0.4793 -0.1456  0.2955
 2101SOL     OW 6301   1.516   0.985   0.158  0.1089 -0.4467 -0.1046
 2101SOL    HW1 6302   1.512   1.040   0.236  0.0248  0.5066 -0.7696
 2101SOL    HW2 6303   1.436   0.932   0.162 -1.4554  1.6963 -1.0371
 2102SOL     OW 6304   2.695   1.362   3.892  0.1834 -0.5532  0.4276
 2102SOL    HW1 6305   2.714   1.456   3.887  0.5729 -0.6705 -0.4860
 2102SOL    HW2 6306   2.601   1.356   3.872  0.3916 -0.4478 -0.6109
 2103SOL     OW 6307   0.017   3.015   1.321 -0.0705 -0.1767 -0.0471
 2103SOL    HW1 6308   0.101   3.053   1.348  0.4465 -0.4775 -1.1870
 2103SOL    HW2 6309  -0.041   3.030   1.396  0.9416  0.2126  0.6784
 2104SOL     OW 6310   0.391   0.748   2.664  0.1671  0.0921  0.4971
 2104SOL    HW1 6311   0.382   0.684   2.594  1.1927 -1.8974  2.0933
 2104SOL    HW2 6312   0.301   0.767   2.691 -0.3052  1.6440 -1.9173
 2105SOL     OW 6313   3.697   0.980   1.886 -0.4536 -0.4093  0.6776
 2105SOL    HW1 6314   3.624   0.987   1.946 -1.3814  2.9041 -0.6095
 2105SOL    HW2 6315   3.744   1.063   1.894  2.4390 -1.8628  0.4598
 2106SOL     OW 6316   1.866   0.980   0.428  0.0111 -0.2979 -0.4016
 2106SOL    HW1 6317   1.926   0.906   0.419  0.7938  0.1694  0.6831
 2106SOL    HW2 6318   1.921   1.052   0.459 -0.9393  0.4204 -0.3234
 2107SOL     OW 6319   0.228   2.121   2.578 -0.3633 -0.2511  0.0752
 2107SOL    HW1 6320   0.247   2.171   2.657  1.1571  0.0509 -0.4334
 2107SOL    HW2 6321   0.274   2.038   2.590  0.6649  0.1463 -0.8286
 2108SOL     OW 6322   2.131   3.108   0.617 -0.3820 -0.0110 -0.2402
 2108SOL    HW1 6323   2.059   3.151   0.662  0.0101 -0.2473  0.6347
 2108SOL    HW2 6324   2.180   3.180   0.576 -0.5636  0.2404 -0.0190
 2109SOL     OW 6325   0.475   2.274   0.383  0.2247 -0.8693 -0.2764
 2109SOL    HW1 6326   0.393   2.302   0.423  0.5742 -0.4889  0.1791
 2109SOL    HW2 6327   0.459   2.184   0.355  0.3593 -1.5969  1.8305
 2110SOL     OW 6328   2.339   2.174   0.379  0.3401  0.0422  0.6403
 2110SOL    HW1 6329   2.374   2.193   0.466  2.1291 -0.4298  0.0751
 2110SOL    HW2 6330   2.407   2.120   0.337  1.2461  3.0900 -2.2732
 2111SOL     OW 6331   1.836   3.762   3.129 -0.2078 -0.0729  0.1827
 2111SOL    HW1 6332   1.810   3.675   3.097 -0.9588 -0.7626  2.4887
 2111SOL    HW2 6333   1.765   3.820   3.103  0.2521 -0.1249 -1.2867
 2112SOL     OW 6334   1.126   0.469   2.402 -0.2816  0.1499  0.6846
 2112SOL    HW1 6335   1.166   0.556   2.410  1.6908 -0.8534  3.0264
 2112SOL    HW2 6336   1.190   0.419   2.352 -2.4377  0.4919 -2.7068
 2113SOL     OW 6337   3.165   3.848   1.533  0.2407  0.3801  1.1523
 2113SOL    HW1 6338   3.176   3.940   1.557 -1.6352  0.6280  1.1963
 2113SOL    HW2 6339   3.153   3.850   1.438  1.9460 -0.0295  0.8957
 2114SOL     OW 6340   2.009   1.209   1.039 -0.1500  0.4678  0.2177
 2114SOL    HW1 6341   1.998   1.288   0.986  0.2164 -0.6898 -1.6743
 2114SOL    HW2 6342   1.928   1.202   1.089 -1.2409  0.7117 -1.4555
 2115SOL     OW 6343   2.680   3.015   0.490 -0.4338 -0.2760  0.1548
 2115SOL    HW1 6344   2.734   2.963   0.430  0.8061 -0.2598  1.2225
 2115SOL    HW2 6345   2.591   3.005   0.456  0.1711 -0.6471 -1.4035
 2116SOL     OW 6346   3.553   3.821   0.662  0.1193 -0.0588  0.0261
 2116SOL    HW1 6347   3.551   3.780   0.749  0.2219 -0.8079 -0.3146
 2116SOL    HW2 6348   3.576   3.750   0.603  0.4461  0.5338 -0.5704
 2117SOL     OW 6349   2.685   1.957   3.493 -0.2886 -0.4255  0.1138
 2117SOL    HW1 6350   2.728   2.035   3.459 -1.3034 -0.1444 -0.5612
 2117SOL    HW2 6351   2.679   1.973   3.588  1.0622 -0.4795  0.2252
 2118SOL     OW 6352   2.948   0.251   3.213 -0.1401 -0.3754  0.1016
 2118SOL    HW1 6353   2.955   0.303   3.133 -1.8287 -1.1490 -0.5833
 2118SOL    HW2 6354   2.985   0.166   3.190  2.6213  0.4002  1.2212
 2119SOL     OW 6355   3.704   3.720  -0.020  0.4016 -0.0092  0.8098
 2119SOL    HW1 6356   3.695   3.624  -0.020  0.2636  0.0019  1.0257
 2119SOL    HW2 6357   3.717   3.742   0.072  2.6904 -0.0142  0.5226
 2120SOL     OW 6358   3.158   2.392   0.647 -0.4616 -0.3307 -0.2766
 2120SOL    HW1 6359   3.122   2.459   0.704 -1.2783 -0.3811 -0.7096
 2120SOL    HW2 6360   3.204   2.332   0.706  1.9246  1.5476 -0.0488
 2121SOL     OW 6361   0.484   2.298   1.810  0.1051 -0.7555 -0.1401
 2121SOL    HW1 6362   0.411   2.352   1.779  0.3513  0.2762  0.9783
 2121SOL    HW2 6363   0.559   2.357   1.810  1.0047 -1.8449 -1.4204
 2122SOL     OW 6364   1.354   1.705   2.009  0.6354 -0.6851  0.6434
 2122SOL    HW1 6365   1.385   1.686   1.920 -0.9102 -3.6451  0.6106
 2122SOL    HW2 6366   1.434   1.716   2.060  1.5728 -0.6840 -0.7635
 2123SOL     OW 6367   3.016   1.423   1.886 -0.9681  0.5316  0.2890
 2123SOL    HW1 6368   3.111   1.417   1.902 -1.1172 -2.3553  0.7021
 2123SOL    HW2 6369   3.008   1.483   1.812  1.2382  0.4640 -0.0814
 2124SOL     OW 6370   0.346   1.347   3.005  0.6643  0.1356 -0.0103
 2124SOL    HW1 6371   0.289   1.411   2.962  0.4235 -0.9523 -1.3849
 2124SOL    HW2 6372   0.295   1.315   3.079 -0.0343  0.0676 -0.5082
 2125SOL     OW 6373   2.637   0.541   1.021  0.7155  0.3226  0.6551
 2125SOL    HW1 6374   2.559   0.593   1.038  1.1849  0.5222  2.3904
 2125SOL    HW2 6375   2.708   0.606   1.017  0.8773  0.0983 -0.4338
 2126SOL     OW 6376   0.764   2.085   3.433 -0.0303 -0.0014 -0.1924
 2126SOL    HW1 6377   0.799   2.169   3.462 -0.4887  0.0370  0.2582
 2126SOL    HW2 6378   0.686   2.109   3.382 -0.5074 -0.1806  0.4487
 2127SOL     OW 6379   0.032   1.433   3.563  0.1985  0.1269 -0.7485
 2127SOL    HW1 6380  -0.049   1.430   3.612  0.6894  0.8115  0.1334
 2127SOL    HW2 6381   0.029   1.516   3.515  1.3606  1.3405  1.1167
 2128SOL     OW 6382   3.801   0.685   3.076  0.3240 -0.0345  0.1037
 2128SOL    HW1 6383   3.787   0.635   2.995  0.3072  0.2153 -0.0484
 2128SOL    HW2 6384   3.841   0.767   3.047  0.4602 -0.0067  0.3649
 2129SOL     OW 6385   1.074   1.530   3.152 -0.0694  0.5757 -0.2810
 2129SOL    HW1 6386   1.022   1.458   3.117  1.6992 -0.8616 -0.0891
 2129SOL    HW2 6387   1.094   1.504   3.242  2.5141  0.1242 -0.8955
 2130SOL     OW 6388   2.959   0.352   2.967 -0.2617 -0.1971 -0.3448
 2130SOL    HW1 6389   3.024   0.377   2.901 -0.7424  0.4083 -0.6011
 2130SOL    HW2 6390   2.912   0.279   2.927 -0.0349 -0.3408 -0.3481
 2131SOL     OW 6391   1.288   0.721   2.949  0.9418  0.5678 -0.1283
 2131SOL    HW1 6392   1.379   0.747   2.937  0.9913  0.0470 -0.9628
 2131SOL    HW2 6393   1.249   0.731   2.862  0.5557 -0.5481 -0.0966
 2132SOL     OW 6394   1.631   2.639   1.192 -0.0479 -0.1573 -0.0772
 2132SOL    HW1 6395   1.657   2.636   1.100 -2.3065  2.1349 -0.9241
 2132SOL    HW2 6396   1.576   2.561   1.204  0.9610 -0.9326 -0.3919
 2133SOL     OW 6397   0.450   3.741   1.859  0.1161 -0.8060  0.0830
 2133SOL    HW1 6398   0.422   3.766   1.947  1.5168  0.6475  0.1680
 2133SOL    HW2 6399   0.495   3.657   1.872 -0.2062 -0.8983  0.6589
 2134SOL     OW 6400   2.215   1.869   0.079 -0.2593  0.1887 -0.1617
 2134SOL    HW1 6401   2.238   1.942   0.022  0.8476  0.3940  0.5179
 2134SOL    HW2 6402   2.120   1.864   0.074 -0.2164  0.5098 -1.6259
 2135SOL     OW 6403   3.912   3.635   1.520  0.3249  0.3221  0.2536
 2135SOL    HW1 6404   3.863   3.665   1.597  1.3640 -0.6015  1.2960
 2135SOL    HW2 6405   3.996   3.680   1.526  0.0480  1.0546 -0.9390
 2136SOL     OW 6406   1.900   3.638   1.920 -0.0081 -0.8009 -0.4262
 2136SOL    HW1 6407   1.889   3.545   1.940 -0.8915 -0.6607 -0.1924
 2136SOL    HW2 6408   1.905   3.681   2.005 -0.9765 -0.5007 -0.5024
 2137SOL     OW 6409   0.733   3.798   1.564 -0.3827 -0.2036 -0.6091
 2137SOL    HW1 6410   0.677   3.721   1.560  2.5456 -2.5863  0.6502
 2137SOL    HW2 6411   0.766   3.809   1.474 -0.6860 -0.5164 -0.7596
 2138SOL     OW 6412   0.936   0.415   2.915  0.0332 -0.3322  0.2365
 2138SOL    HW1 6413   1.013   0.360   2.903  1.0750 -0.0515  4.2391
 2138SOL    HW2 6414   0.941   0.480   2.844  3.6034 -0.2171  0.4453
 2139SOL     OW 6415   2.252   1.048   1.063  0.4853  1.2250 -0.0477
 2139SOL    HW1 6416   2.224   0.968   1.108  1.6879  0.8740  0.1183
 2139SOL    HW2 6417   2.173   1.103   1.060 -0.0780  0.4942  0.8374
 2140SOL     OW 6418   3.343   3.304   2.340 -1.1129  0.3029 -0.2708
 2140SOL    HW1 6419   3.431   3.301   2.379 -1.7151 -0.5632  1.1009
 2140SOL    HW2 6420   3.355   3.354   2.259  0.7123 -0.1049 -0.3092
 2141SOL     OW 6421   1.878   1.491   1.833 -0.0616  0.2110  0.6564
 2141SOL    HW1 6422   1.867   1.561   1.769 -2.3140 -0.2145  0.5004
 2141SOL    HW2 6423   1.878   1.535   1.918 -0.1766  0.5011  0.5053
 2142SOL     OW 6424   1.212   1.631   0.304  0.3301  0.3234 -0.5868
 2142SOL    HW1 6425   1.175   1.544   0.315 -0.4349  0.6726 -0.3601
 2142SOL    HW2 6426   1.304   1.621   0.329  0.9509 -0.9868 -3.0105
 2143SOL     OW 6427   1.417   2.439   1.512 -0.5478  0.3519 -0.0959
 2143SOL    HW1 6428   1.356   2.512   1.501 -1.1835  0.1794  1.8879
 2143SOL    HW2 6429   1.378   2.367   1.462 -0.6743  0.9205 -0.8442
 2144SOL     OW 6430   1.405   3.485   3.333 -0.2252 -0.0467  0.5445
 2144SOL    HW1 6431   1.369   3.574   3.329  1.1762  0.4955 -0.7314
 2144SOL    HW2 6432   1.470   3.482   3.263 -1.5510 -2.6917 -0.7096
 2145SOL     OW 6433   0.387   0.881   2.101  0.0845  0.3123  0.1336
 2145SOL    HW1 6434   0.333   0.829   2.042 -1.6717  0.0288  1.9089
 2145SOL    HW2 6435   0.477   0.862   2.073 -0.6144 -1.0569 -1.3779
 2146SOL     OW 6436   3.508   1.168   3.151  0.9374  0.1673  0.3182
 2146SOL    HW1 6437   3.596   1.203   3.158 -0.0073  2.9055 -0.4795
 2146SOL    HW2 6438   3.471   1.179   3.239  1.2255 -0.6470  0.5563
 2147SOL     OW 6439   3.857   2.371   0.295  0.1929 -0.3359 -0.5477
 2147SOL    HW1 6440   3.872   2.391   0.388 -0.0101 -0.7322 -0.4270
 2147SOL    HW2 6441   3.906   2.438   0.248 -0.3997  0.3921 -0.1496
 2148SOL     OW 6442   0.153   0.642   1.085 -0.0578  0.0276  0.1727
 2148SOL    HW1 6443   0.243   0.613   1.104 -0.4642 -0.8493  0.8122
 2148SOL    HW2 6444   0.101   0.606   1.156 -1.0898 -0.4056 -0.7783
 2149SOL     OW 6445   3.491   2.980   0.146  0.3229 -0.5179  0.1065
 2149SOL    HW1 6446   3.464   2.976   0.055  0.6282  2.7864 -0.2697
 2149SOL    HW2 6447   3.582   2.950   0.146 -0.1717 -2.0798 -0.3464
 2150SOL     OW 6448   3.762   2.692   2.760  0.2257 -0.1219 -0.0956
 2150SOL    HW1 6449   3.707   2.758   2.718  1.6883  0.8198 -0.5789
 2150SOL    HW2 6450   3.718   2.674   2.844 -1.9012 -0.9005 -1.2928
 2151SOL     OW 6451   2.170   0.435   3.994  0.4403 -0.4321  0.2079
 2151SOL    HW1 6452   2.207   0.351   4.020  0.0487 -0.3014  1.2292
 2151SOL    HW2 6453   2.179   0.436   3.898  0.9025 -1.4109  0.2231
 2152SOL     OW 6454   1.535   0.136   0.549 -0.1038 -0.0665  0.1285
 2152SOL    HW1 6455   1.570   0.185   0.624 -0.8328  0.5791  0.0578
 2152SOL    HW2 6456   1.460   0.187   0.520 -0.2276 -0.6670 -0.6346
 2153SOL     OW 6457   2.622   0.199   1.335 -0.0978  0.5651  0.2160
 2153SOL    HW1 6458   2.634   0.288   1.368 -1.3698  0.7678  0.1644
 2153SOL    HW2 6459   2.700   0.152   1.366  0.3782  1.5789  0.6181
 2154SOL     OW 6460   1.428   1.422   1.436 -0.4809 -0.1161 -0.2599
 2154SOL    HW1 6461   1.431   1.509   1.477  1.1026 -0.2640  0.0266
 2154SOL    HW2 6462   1.344   1.419   1.391 -1.1044  1.0835  0.7698
 2155SOL     OW 6463   2.357   1.931   2.006  0.0885  0.6032  0.1598
 2155SOL    HW1 6464   2.280   1.989   2.010 -1.3243 -0.9977 -1.8889
 2155SOL    HW2 6465   2.324   1.846   2.034  2.0894  0.5984  2.9274
 2156SOL     OW 6466   0.003   3.085   3.500 -0.0819  0.6320  0.0001
 2156SOL    HW1 6467   0.028   2.993   3.487  0.0588  0.7571 -0.6400
 2156SOL    HW2 6468   0.086   3.129   3.519 -0.3356  0.3688  1.9304
 2157SOL     OW 6469   3.792   2.014   3.253  0.3548  0.2588  0.5055
 2157SOL    HW1 6470   3.798   2.070   3.175  0.7234 -0.2087  0.1869
 2157SOL    HW2 6471   3.855   1.944   3.236  0.8217  0.4358  1.4656
 2158SOL     OW 6472   3.529   0.184   2.678 -0.1129 -0.0881  0.3117
 2158SOL    HW1 6473   3.549   0.272   2.710 -0.9686  0.0103  0.6081
 2158SOL    HW2 6474   3.521   0.194   2.583 -3.4021  0.8717  0.5700
 2159SOL     OW 6475   1.562   1.536   0.766 -0.5566 -0.4661  0.4219
 2159SOL    HW1 6476   1.634   1.592   0.739 -2.0369  1.5671  0.4627
 2159SOL    HW2 6477   1.566   1.533   0.861  0.0253 -1.1898  0.3882
 2160SOL     OW 6478   2.300   3.179   1.891  0.0084 -0.2927  0.5979
 2160SOL    HW1 6479   2.305   3.148   1.982 -3.6212 -1.8076  0.4641
 2160SOL    HW2 6480   2.386   3.159   1.854  1.3968 -0.2135  3.4906
 2161SOL     OW 6481   2.695   0.429   3.064 -0.0490 -0.5522 -0.2952
 2161SOL    HW1 6482   2.778   0.431   3.016  1.4661 -2.5300  2.0008
 2161SOL    HW2 6483   2.681   0.336   3.083 -2.4751 -0.1849 -0.0275
 2162SOL     OW 6484   1.069   2.906   0.673  0.7061  0.0938  0.0230
 2162SOL    HW1 6485   1.071   2.832   0.613  0.8171  0.6659 -0.6854
 2162SOL    HW2 6486   1.045   2.981   0.619  0.0945  0.4958  0.8284
 2163SOL     OW 6487   1.522   0.983   1.680 -0.6437  0.4461 -0.4091
 2163SOL    HW1 6488   1.464   1.054   1.708 -0.9676  1.3922 -3.1620
 2163SOL    HW2 6489   1.588   0.978   1.749 -0.0800  4.0633 -0.4553
 2164SOL     OW 6490   2.966   1.707   1.814  0.3615 -0.4417  0.0352
 2164SOL    HW1 6491   2.877   1.702   1.850  0.9460  2.7109  2.3571
 2164SOL    HW2 6492   2.957   1.766   1.739  0.4955  0.1750  0.4917
 2165SOL     OW 6493   3.359   1.408   3.832  0.4833  0.0453 -0.2492
 2165SOL    HW1 6494   3.313   1.481   3.789 -0.6444 -0.0219  0.7896
 2165SOL    HW2 6495   3.388   1.352   3.760  0.8807  1.2275 -1.0386
   4.00000   4.00000   4.00000
