Water Box for Fluid Dynamics Phase 2 in water
 6495
    1SOL     OW    1   1.709   0.952   0.866  0.1981 -0.1247 -0.3877
    1SOL    HW1    2   1.717   1.046   0.882  1.0148 -0.1944 -0.3177
    1SOL    HW2    3   1.615   0.934   0.872  0.0227  0.7093 -0.5456
    2SOL     OW    4   3.642   2.958   2.823 -0.1838 -0.6578  0.0258
    2SOL    HW1    5   3.681   3.046   2.821 -0.7593 -0.4026 -0.2194
    2SOL    HW2    6   3.687   2.910   2.754  0.5367 -0.7351  0.5386
    3SOL     OW    7   2.598   0.335   2.159 -0.8464 -0.3514 -0.7738
    3SOL    HW1    8   2.524   0.359   2.215  1.2614  1.9936  1.2689
    3SOL    HW2    9   2.657   0.410   2.164  0.4057 -0.8371 -4.7055
    4SOL     OW   10   2.283   2.473   2.606 -0.3247  0.6260 -0.4784
    4SOL    HW1   11   2.287   2.378   2.621 -1.9095  0.7578  1.1271
    4SOL    HW2   12   2.233   2.483   2.525 -2.7879  0.0665  0.8493
    5SOL     OW   13   0.845   1.241   3.083  0.2398  0.3885  0.0877
    5SOL    HW1   14   0.821   1.238   3.175  0.6458  1.1638  0.2247
    5SOL    HW2   15   0.802   1.320   3.050 -0.6025 -0.3379 -0.5932
    6SOL     OW   16   1.562   2.842   3.928  0.1800  0.0655  0.0267
    6SOL    HW1   17   1.488   2.900   3.946 -0.3249 -0.5709  0.0697
    6SOL    HW2   18   1.521   2.760   3.898  0.6811 -1.5106  3.2252
    7SOL     OW   19   3.856   1.105   3.096 -0.8093  0.4402  0.9853
    7SOL    HW1   20   3.814   1.057   3.024 -0.0772  0.4732  0.5240
    7SOL    HW2   21   3.798   1.091   3.171 -0.8998 -0.7197  0.7266
    8SOL     OW   22   2.632   1.813   2.225 -0.2018  0.7335 -0.4074
    8SOL    HW1   23   2.622   1.736   2.281  0.8399  0.3311 -0.7479
    8SOL    HW2   24   2.542   1.838   2.203 -0.6393  0.8170  1.2925
    9SOL     OW   25   1.944   0.492   3.473 -0.4053 -0.1714 -0.7779
    9SOL    HW1   26   1.934   0.458   3.384  0.2574 -1.0002 -0.5550
    9SOL    HW2   27   2.038   0.483   3.492 -0.4175  0.7043 -0.2716
   10SOL     OW   28   1.688   1.717   3.370 -0.0626 -0.3118  0.4809
   10SOL    HW1   29   1.731   1.642   3.329  1.0078  0.2829  0.4872
   10SOL    HW2   30   1.673   1.690   3.461 -0.8767 -0.9965  0.1461
   11SOL     OW   31   3.521   2.148   3.445 -0.6581  0.0914 -0.1936
   11SOL    HW1   32   3.428   2.143   3.467 -1.2952 -2.1708 -2.7375
   11SOL    HW2   33   3.564   2.089   3.507 -0.9020  1.0328  0.8981
   12SOL     OW   34   1.792   0.914   0.400  0.8974  0.9443 -0.2558
   12SOL    HW1   35   1.816   0.992   0.450  0.2613  2.0615 -1.6418
   12SOL    HW2   36   1.736   0.864   0.460 -0.9714  2.9036 -0.2455
   13SOL     OW   37   1.459   1.979   2.051 -0.3938  0.2969  0.2229
   13SOL    HW1   38   1.381   2.025   2.021 -1.3477 -1.0684  0.4796
   13SOL    HW2   39   1.531   2.018   2.002 -1.4435  0.5480 -1.1724
   14SOL     OW   40   0.770   3.095   1.055 -0.0544  0.1686 -0.1935
   14SOL    HW1   41   0.842   3.044   1.017 -1.4604 -1.6602 -0.5312
   14SOL    HW2   42   0.809   3.138   1.132  1.2913 -1.1610 -0.0930
   15SOL     OW   43   1.655   0.277   1.032  0.1990  0.4360 -0.5544
   15SOL    HW1   44   1.613   0.191   1.025  0.7471  0.0344  0.8883
   15SOL    HW2   45   1.728   0.274   0.970 -1.2454  0.7943 -2.3731
   16SOL     OW   46   2.446   0.782   3.871  0.6385  0.2686  0.7229
   16SOL    HW1   47   2.472   0.833   3.947 -3.5745  3.2956  0.4920
   16SOL    HW2   48   2.388   0.714   3.906  0.3081  0.3832  0.4070
   17SOL     OW   49   2.332   1.565   1.249 -0.3031 -0.0914  0.3685
   17SOL    HW1   50   2.322   1.470   1.259  0.1322 -0.3503 -1.4291
   17SOL    HW2   51   2.356   1.578   1.158  1.7893  1.5774  1.0607
   18SOL     OW   52   2.884   2.314   2.461  0.2476  0.0056  0.3725
   18SOL    HW1   53   2.953   2.376   2.437  1.7179 -1.2119  1.3200
   18SOL    HW2   54   2.904   2.289   2.551 -1.2363 -0.6645  0.5476
   19SOL     OW   55   1.830   3.256   1.504  0.0139 -0.0421 -0.0114
   19SOL    HW1   56   1.862   3.224   1.589 -1.1122 -0.3876  0.3026
   19SOL    HW2   57   1.869   3.343   1.495 -1.7556  1.0859  2.0637
   20SOL     OW   58   3.427   1.687   1.423  0.4738 -0.2772  0.4937
   20SOL    HW1   59   3.476   1.729   1.494  0.0153  1.5289 -0.1981
   20SOL    HW2   60   3.458   1.731   1.344 -0.8080 -0.4899 -0.1510
   21SOL     OW   61   3.338   1.952   3.557 -0.1599 -0.2627  0.4073
   21SOL    HW1   62   3.267   1.895   3.587 -0.6338  0.5288  0.8193
   21SOL    HW2   63   3.407   1.891   3.528 -2.1302 -1.1135 -2.9969
   22SOL     OW   64   3.684   1.450   3.846 -0.4091 -0.8682 -0.3309
   22SOL    HW1   65   3.712   1.512   3.914 -1.5803  0.1282 -0.7270
   22SOL    HW2   66   3.766   1.416   3.810  0.3615  1.6569 -1.1941
   23SOL     OW   67   3.306   1.188   1.956  0.0774 -0.4379  0.5759
   23SOL    HW1   68   3.353   1.112   1.992  1.5964  1.1503  2.1265
   23SOL    HW2   69   3.260   1.225   2.031 -0.8376  0.0594 -0.2182
   24SOL     OW   70   2.470   1.355   2.789 -0.0463  0.5401  0.2691
   24SOL    HW1   71   2.419   1.287   2.833  1.6052 -0.4267  0.7776
   24SOL    HW2   72   2.454   1.341   2.695  0.3839 -0.6654  0.3618
   25SOL     OW   73   3.479   3.726   2.926  0.2861 -0.3235 -0.3659
   25SOL    HW1   74   3.523   3.677   2.857 -1.7305  0.3782 -2.2397
   25SOL    HW2   75   3.525   3.810   2.929  1.3896 -0.9170  0.3183
   26SOL     OW   76   3.649   0.032   2.279  0.1220 -0.0750 -0.8852
   26SOL    HW1   77   3.581  -0.030   2.253  0.1310  0.2415 -1.6807
   26SOL    HW2   78   3.681  -0.002   2.362 -2.2108  0.7353  0.4445
   27SOL     OW   79   1.087   1.800   1.714  0.2650 -0.6982  0.5420
   27SOL    HW1   80   1.055   1.886   1.684  1.2398 -0.6349 -0.3802
   27SOL    HW2   81   1.008   1.754   1.742 -0.3755  0.1996  0.2644
   28SOL     OW   82   1.361   0.022   1.845  0.2551 -0.2353  0.0354
   28SOL    HW1   83   1.403  -0.055   1.808  0.6452 -0.5542  1.1078
   28SOL    HW2   84   1.360   0.086   1.774  1.5976 -0.5927 -0.3198
   29SOL     OW   85   1.105   1.461   1.659 -0.0932  0.2971 -0.2621
   29SOL    HW1   86   1.168   1.462   1.731  1.2955 -0.8194 -1.3952
   29SOL    HW2   87   1.032   1.409   1.692 -0.5606  1.7577  1.1430
   30SOL     OW   88   1.563   3.306   1.491 -0.3849  0.2163  0.2619
   30SOL    HW1   89   1.542   3.213   1.482 -0.2460  0.2736 -0.7262
   30SOL    HW2   90   1.658   3.308   1.505 -0.4476  0.1953  0.7295
   31SOL     OW   91   2.715   3.417   3.778 -0.2633  0.1355 -0.3103
   31SOL    HW1   92   2.787   3.438   3.838  0.2002 -2.7902  0.3243
   31SOL    HW2   93   2.755   3.421   3.691  0.1276  0.5068 -0.1185
   32SOL     OW   94   2.732   2.368   0.836  0.0841 -0.0949 -0.4852
   32SOL    HW1   95   2.818   2.333   0.861  1.0530  1.7355 -1.0353
   32SOL    HW2   96   2.677   2.354   0.913  0.8187 -1.4625 -0.1816
   33SOL     OW   97   2.250   0.927   1.282 -0.5907 -0.4714  0.0493
   33SOL    HW1   98   2.161   0.964   1.283 -0.9764 -1.2536 -1.3513
   33SOL    HW2   99   2.280   0.933   1.372 -1.6920  0.7056  0.3727
   34SOL     OW  100   0.140   1.036   3.146 -0.4943  0.9037  0.5525
   34SOL    HW1  101   0.058   1.076   3.116 -1.0493 -1.9998 -2.4222
   34SOL    HW2  102   0.117   0.992   3.228 -2.0475 -0.0334 -0.3432
   35SOL     OW  103   0.602   3.570   2.631  0.3378 -0.3039 -0.2222
   35SOL    HW1  104   0.685   3.572   2.582  0.4690  2.4287 -0.0619
   35SOL    HW2  105   0.628   3.577   2.723 -0.0443 -0.4035 -0.1059
   36SOL     OW  106   2.728   0.497   0.642  0.2455 -0.3761 -0.4457
   36SOL    HW1  107   2.774   0.413   0.640 -1.1077 -1.1518 -2.6704
   36SOL    HW2  108   2.764   0.546   0.568  1.7471  1.5481  1.3838
   37SOL     OW  109   1.076   1.703   0.518  0.0847  0.3472 -0.0493
   37SOL    HW1  110   1.004   1.731   0.461 -0.3583  0.0290  0.3452
   37SOL    HW2  111   1.140   1.664   0.458 -0.5604 -0.3593 -0.2915
   38SOL     OW  112   0.403   2.879   3.159  0.6169 -0.1688 -0.5422
   38SOL    HW1  113   0.411   2.971   3.187  2.1801 -0.0895 -1.1731
   38SOL    HW2  114   0.309   2.866   3.148  0.4560  2.5862 -4.2712
   39SOL     OW  115   0.992   3.278   0.706  0.6000  0.2459 -0.1998
   39SOL    HW1  116   0.898   3.293   0.714  0.4271 -1.3977  1.3796
   39SOL    HW2  117   1.032   3.349   0.756  0.0004 -1.3104  2.6735
   40SOL     OW  118   1.319   1.761   0.711  0.2950  0.4364 -0.5545
   40SOL    HW1  119   1.410   1.733   0.704  1.3886  3.5872 -0.4387
   40SOL    HW2  120   1.288   1.762   0.620 -0.0936 -1.7289 -0.5137
   41SOL     OW  121   0.533   3.444   0.456 -0.3014  0.1822 -0.0244
   41SOL    HW1  122   0.470   3.406   0.394  1.0962 -2.0180 -0.1910
   41SOL    HW2  123   0.571   3.369   0.501  2.1120  1.4367  0.1837
   42SOL     OW  124   3.097   3.399   1.548 -0.0429  0.3525  0.6734
   42SOL    HW1  125   3.175   3.348   1.527 -0.8960 -1.6129  2.0045
   42SOL    HW2  126   3.122   3.489   1.528  1.5978 -0.5159 -1.5753
   43SOL     OW  127   0.961   3.042   0.228  0.0066 -0.0605  0.3148
   43SOL    HW1  128   0.952   3.018   0.320  0.1601 -0.0977  0.3216
   43SOL    HW2  129   1.056   3.040   0.212 -0.0584 -0.7846 -0.0297
   44SOL     OW  130   3.616   1.969   1.327 -0.7620 -0.2091  0.1848
   44SOL    HW1  131   3.582   1.960   1.416 -0.7932 -1.6911  0.0612
   44SOL    HW2  132   3.541   2.000   1.276 -0.2910  2.3589  0.9393
   45SOL     OW  133   3.894   1.949   1.334  0.1298 -0.2968 -0.0831
   45SOL    HW1  134   3.916   2.011   1.264  0.4018  1.6480  1.6305
   45SOL    HW2  135   3.798   1.943   1.331  0.1534 -0.4529 -0.7786
   46SOL     OW  136   3.820   2.690   0.907 -0.0348 -0.1613  0.0972
   46SOL    HW1  137   3.740   2.738   0.926  0.4750  0.4635  0.7236
   46SOL    HW2  138   3.804   2.649   0.822 -0.2570  1.6885 -0.8188
   47SOL     OW  139   1.705   0.687   0.124  0.7882 -0.2567 -0.9423
   47SOL    HW1  140   1.610   0.672   0.120  0.7453 -0.4662  0.2175
   47SOL    HW2  141   1.715   0.782   0.127  0.5235 -0.2420  0.0541
   48SOL     OW  142   3.304   0.248   1.127  0.0346 -0.1077 -0.3153
   48SOL    HW1  143   3.340   0.323   1.081 -0.3209  1.0077  1.1292
   48SOL    HW2  144   3.238   0.285   1.186  0.4607 -1.4354  1.0681
   49SOL     OW  145   2.078   2.317   1.734 -0.1425  0.7391 -0.4815
   49SOL    HW1  146   2.139   2.386   1.759  0.5175  1.0818 -2.8118
   49SOL    HW2  147   2.059   2.271   1.816 -0.3554  3.4402  1.1079
   50SOL     OW  148   1.739   0.440   2.377 -0.2587 -0.1491 -0.1304
   50SOL    HW1  149   1.727   0.501   2.305 -0.3957  2.1795  1.7228
   50SOL    HW2  150   1.826   0.459   2.412 -1.2376  0.8253  2.0004
   51SOL     OW  151   2.447   3.463   3.520  0.2235 -0.3666 -0.6989
   51SOL    HW1  152   2.436   3.407   3.597 -0.0076 -1.0951 -1.2477
   51SOL    HW2  153   2.360   3.500   3.506  0.2955 -0.1373 -0.5332
   52SOL     OW  154   3.722   1.808   0.809  0.1771 -0.4866  0.1035
   52SOL    HW1  155   3.630   1.809   0.835 -0.3122  1.3424 -1.5137
   52SOL    HW2  156   3.758   1.890   0.842  0.2631  0.5075 -2.2382
   53SOL     OW  157   0.186   0.697   0.423 -0.5344 -0.1475 -0.6064
   53SOL    HW1  158   0.121   0.627   0.422 -1.5020  0.5171  2.5850
   53SOL    HW2  159   0.248   0.674   0.354 -0.1613 -4.8039  0.9656
   54SOL     OW  160   1.157   2.502   3.643  0.3603 -0.6493 -0.1804
   54SOL    HW1  161   1.226   2.517   3.579  1.6062  1.5408  1.5360
   54SOL    HW2  162   1.191   2.435   3.701  1.2362  0.5843  0.7962
   55SOL     OW  163   3.562   0.471   1.853 -0.0370  0.0118 -0.1848
   55SOL    HW1  164   3.523   0.516   1.778  1.0940  0.3229 -0.6127
   55SOL    HW2  165   3.501   0.487   1.925 -0.1392  1.4176 -0.5625
   56SOL     OW  166   3.096   3.520   3.534  0.0744  0.3042 -0.4786
   56SOL    HW1  167   3.132   3.607   3.518  1.5659 -0.5690 -2.2111
   56SOL    HW2  168   3.173   3.466   3.551 -0.9076 -0.4816  1.8635
   57SOL     OW  169   1.467   3.880   2.371 -0.4404  0.1610 -0.4774
   57SOL    HW1  170   1.478   3.785   2.359  1.3278  0.2087  0.5034
   57SOL    HW2  171   1.550   3.917   2.341 -0.4747  1.2548  0.7355
   58SOL     OW  172   1.078   1.429   0.044  0.6037  0.3556 -0.2105
   58SOL    HW1  173   1.038   1.430  -0.043 -3.3355 -3.5746  1.1624
   58SOL    HW2  174   1.165   1.394   0.031  0.8472  1.6855 -2.6826
   59SOL     OW  175   0.071   2.791   2.040  0.2733 -0.0528  0.6844
   59SOL    HW1  176  -0.009   2.830   2.075 -0.1991  0.4712 -0.8914
   59SOL    HW2  177   0.044   2.747   1.959  1.3706 -0.9261  0.7557
   60SOL     OW  178   4.001   3.047   2.473 -0.3938  0.4420  0.0976
   60SOL    HW1  179   3.912   3.050   2.509 -0.7412 -0.0148 -0.6856
   60SOL    HW2  180   4.056   3.017   2.545 -0.6875  1.8053  0.9228
   61SOL     OW  181   1.866   1.541   2.694  0.0359  0.0533 -0.1114
   61SOL    HW1  182   1.807   1.584   2.756  0.5156  0.9846 -0.2694
   61SOL    HW2  183   1.810   1.484   2.642 -0.3081 -1.0804  1.4536
   62SOL     OW  184   2.488   3.089   2.947  0.2440 -0.0101  0.0109
   62SOL    HW1  185   2.406   3.123   2.911  1.1096  0.2226 -1.8523
   62SOL    HW2  186   2.474   2.994   2.953 -0.7728  0.1962  1.4651
   63SOL     OW  187   1.094   3.473   0.856  0.4051 -0.8391  0.1817
   63SOL    HW1  188   1.169   3.417   0.873  0.8578  0.3084  2.2254
   63SOL    HW2  189   1.079   3.520   0.938 -1.1758  0.5863 -0.8466
   64SOL     OW  190   1.709   2.211   1.720  0.6091  0.5075 -0.6935
   64SOL    HW1  191   1.750   2.153   1.783  1.5484  0.6722 -1.1386
   64SOL    HW2  192   1.720   2.299   1.756  0.5715  0.5455 -0.7735
   65SOL     OW  193   2.650   3.251   0.103  0.1819 -0.1646  0.2508
   65SOL    HW1  194   2.698   3.184   0.150  0.8293  1.4537  2.0300
   65SOL    HW2  195   2.616   3.309   0.171  0.1243  1.6167 -1.2032
   66SOL     OW  196   0.132   1.784   1.974  0.1477 -0.0642  0.0066
   66SOL    HW1  197   0.085   1.862   1.945  3.1934  1.2290 -1.8821
   66SOL    HW2  198   0.108   1.717   1.910 -0.1290  0.2023 -0.1705
   67SOL     OW  199   3.560   1.821   1.631 -0.7525  0.4711  0.2170
   67SOL    HW1  200   3.610   1.740   1.642  3.6499  2.6304 -1.5918
   67SOL    HW2  201   3.604   1.885   1.687 -1.4273  2.5737 -1.5145
   68SOL     OW  202   2.950   3.490   0.841 -0.3955 -0.7185 -0.0235
   68SOL    HW1  203   2.883   3.454   0.900  0.1024 -0.3448  0.7865
   68SOL    HW2  204   3.024   3.510   0.898  1.1549 -2.8373 -1.1341
   69SOL     OW  205   3.796   3.196   3.725 -0.0623 -0.0954 -1.0570
   69SOL    HW1  206   3.758   3.124   3.774 -0.6449  1.0637  0.2539
   69SOL    HW2  207   3.857   3.154   3.664  2.7391 -1.5296  2.4135
   70SOL     OW  208   3.373   0.482   2.519 -0.3355 -0.1402  0.1027
   70SOL    HW1  209   3.323   0.511   2.443 -1.5547 -1.9217  0.1520
   70SOL    HW2  210   3.451   0.439   2.482 -0.3235  0.0565 -0.0957
   71SOL     OW  211   0.711   3.254   0.170  0.7892  0.0572  0.2764
   71SOL    HW1  212   0.790   3.258   0.116  0.3312  1.1509 -0.3311
   71SOL    HW2  213   0.744   3.237   0.259  1.6434 -0.2697 -0.0873
   72SOL     OW  214   1.858   0.933   2.954  0.1644 -0.1341 -0.2268
   72SOL    HW1  215   1.824   0.846   2.931 -0.3204  0.2689 -1.0581
   72SOL    HW2  216   1.933   0.946   2.896 -0.2593  0.3346 -0.6819
   73SOL     OW  217   0.424   3.151   1.289 -0.4995  0.0098  0.3489
   73SOL    HW1  218   0.504   3.101   1.306 -1.2014 -1.2758  0.0255
   73SOL    HW2  219   0.385   3.108   1.213 -1.2208  0.9638  0.1610
   74SOL     OW  220   3.747   3.891   0.944 -0.5539 -1.0462 -0.3989
   74SOL    HW1  221   3.778   3.813   0.989 -3.1989 -2.1860 -0.3376
   74SOL    HW2  222   3.769   3.964   1.001  1.5623 -1.7663 -0.2398
   75SOL     OW  223   0.258   2.922   0.357  0.0217 -0.3287  0.2509
   75SOL    HW1  224   0.343   2.965   0.346 -1.5113  2.7538 -0.9178
   75SOL    HW2  225   0.241   2.925   0.451 -1.0928  4.3236  0.1161
   76SOL     OW  226   3.187   1.900   0.850  0.1170  0.6482 -0.2557
   76SOL    HW1  227   3.161   1.957   0.777  0.1946  0.4122 -0.4690
   76SOL    HW2  228   3.115   1.836   0.856  1.2641 -0.8772 -1.7582
   77SOL     OW  229   2.943   0.936   0.956  0.0704  0.5851  0.3776
   77SOL    HW1  230   2.936   1.012   0.898 -0.5237 -0.2349 -0.6696
   77SOL    HW2  231   2.900   0.963   1.037  0.2343  1.4944  0.1725
   78SOL     OW  232   2.793   1.524   1.957 -0.8821 -0.4345  0.7147
   78SOL    HW1  233   2.846   1.483   1.889 -2.6751  0.6153 -1.4520
   78SOL    HW2  234   2.737   1.453   1.989  0.5132 -1.1209  1.7464
   79SOL     OW  235   2.930   3.276   2.678 -0.6545  0.1596 -0.4264
   79SOL    HW1  236   2.852   3.250   2.728 -0.1466 -1.4401 -0.4096
   79SOL    HW2  237   2.947   3.366   2.706  0.2727 -0.9601  3.2092
   80SOL     OW  238   2.158   2.570   2.120  0.1976  0.0754  0.3436
   80SOL    HW1  239   2.222   2.640   2.106  1.0643 -0.6827  0.3592
   80SOL    HW2  240   2.153   2.525   2.035 -0.3909  0.1940  0.3171
   81SOL     OW  241   2.986   0.355   1.560 -0.4507 -0.4197  0.0038
   81SOL    HW1  242   2.928   0.416   1.514 -0.8527  0.0888  1.1534
   81SOL    HW2  243   3.012   0.401   1.639  1.8673 -0.4914 -0.6503
   82SOL     OW  244   2.616   1.361   3.712 -1.1114  0.1546  0.4343
   82SOL    HW1  245   2.711   1.352   3.698 -0.7639  2.2875  0.9827
   82SOL    HW2  246   2.577   1.325   3.633  0.1989  0.0419 -0.1984
   83SOL     OW  247   1.936   3.136   2.017  0.2583 -0.3463 -0.1048
   83SOL    HW1  248   1.996   3.062   2.012 -0.1565 -0.8479  1.7744
   83SOL    HW2  249   1.917   3.146   2.110 -0.4363  1.5376 -0.4042
   84SOL     OW  250   0.339   3.513   2.686  0.0897 -0.1411 -0.0983
   84SOL    HW1  251   0.415   3.524   2.629 -0.0329  1.2859 -0.0330
   84SOL    HW2  252   0.355   3.574   2.758  0.5601 -2.3428  1.8028
   85SOL     OW  253   3.604   2.859   0.978 -0.1168  0.2890  0.0576
   85SOL    HW1  254   3.521   2.842   0.934  0.5150 -1.0939 -0.6897
   85SOL    HW2  255   3.610   2.954   0.982 -1.2389  0.4275 -0.8442
   86SOL     OW  256   2.789   0.233   2.449 -0.5011 -0.2044  0.1300
   86SOL    HW1  257   2.779   0.144   2.418 -0.7209 -0.1506  0.0493
   86SOL    HW2  258   2.732   0.285   2.393 -0.5530 -0.0460  0.3275
   87SOL     OW  259   0.178   0.343   3.025  0.0039 -0.1259 -0.4015
   87SOL    HW1  260   0.086   0.317   3.016 -0.2253 -0.3232  1.9076
   87SOL    HW2  261   0.226   0.260   3.033  0.1615  0.0034  0.0339
   88SOL     OW  262   3.342   0.904   2.428  0.4125  0.3558 -0.2521
   88SOL    HW1  263   3.410   0.971   2.439  0.2334  0.3735  0.9633
   88SOL    HW2  264   3.325   0.873   2.518 -0.3749 -0.4515 -0.6654
   89SOL     OW  265   2.016   1.432   3.216 -0.5769  0.0124  0.0654
   89SOL    HW1  266   1.950   1.365   3.232 -1.3775  0.8269  0.3237
   89SOL    HW2  267   1.974   1.493   3.155  0.8481 -0.7209 -1.7395
   90SOL     OW  268   0.519   3.874   1.029 -0.0776  0.5938 -0.6364
   90SOL    HW1  269   0.489   3.929   0.957  1.5768  1.1295 -0.9534
   90SOL    HW2  270   0.523   3.786   0.992  0.8625  0.8819 -1.2628
   91SOL     OW  271   3.091   0.079   3.965  0.5769  0.0613  0.4020
   91SOL    HW1  272   3.090   0.085   4.061 -0.1706 -0.9326  0.4694
   91SOL    HW2  273   3.007   0.115   3.937  0.7480  0.2494  0.1259
   92SOL     OW  274   0.439   1.803   2.787 -0.0327 -0.4625  0.0383
   92SOL    HW1  275   0.344   1.797   2.775  0.1101 -0.4574 -1.2991
   92SOL    HW2  276   0.455   1.897   2.801 -0.3450 -0.6284  1.6949
   93SOL     OW  277   2.124   0.033   1.149  0.1261  0.2217 -0.2104
   93SOL    HW1  278   2.218   0.016   1.142  0.7189  2.1450  1.9398
   93SOL    HW2  279   2.112   0.061   1.240 -2.0244  2.8993 -1.2149
   94SOL     OW  280   2.889   2.116   1.107 -0.9036 -0.1867 -0.1651
   94SOL    HW1  281   2.904   2.053   1.178 -0.9585  0.4030  0.3850
   94SOL    HW2  282   2.923   2.198   1.141  2.7504 -0.6098 -2.2993
   95SOL     OW  283   3.875   2.806   0.047 -0.5998  0.0034  0.5438
   95SOL    HW1  284   3.804   2.818   0.111 -1.3564 -2.3853  0.2288
   95SOL    HW2  285   3.861   2.877  -0.016  1.2261  3.5803  3.7552
   96SOL     OW  286   3.734   2.106   0.914 -0.1574 -0.4684 -0.8075
   96SOL    HW1  287   3.754   2.156   0.835 -1.5191 -2.1464 -2.3002
   96SOL    HW2  288   3.645   2.133   0.937  0.0827 -0.2861 -0.0489
   97SOL     OW  289   2.373   1.214   1.740  0.2375  0.0125  0.1498
   97SOL    HW1  290   2.294   1.227   1.792 -0.6563 -0.7057 -0.9803
   97SOL    HW2  291   2.371   1.282   1.673  1.2168  0.7323  0.8127
   98SOL     OW  292   0.421   2.917  -0.002 -0.4327  0.1848 -0.4162
   98SOL    HW1  293   0.463   2.943   0.080 -0.5643  0.4198 -0.4247
   98SOL    HW2  294   0.403   2.823   0.009  0.3766  0.0083 -0.5312
   99SOL     OW  295   0.473   0.562   1.844 -0.1116 -1.0424 -0.0592
   99SOL    HW1  296   0.475   0.656   1.828  1.1473 -0.7909  1.4193
   99SOL    HW2  297   0.426   0.526   1.768 -2.1137  0.9127  0.1491
  100SOL     OW  298   1.324   3.884   0.185 -0.0778 -0.1877 -0.3854
  100SOL    HW1  299   1.342   3.819   0.117  2.9987 -2.2756  2.1381
  100SOL    HW2  300   1.408   3.925   0.203 -1.4610  2.7963 -0.0946
  101SOL     OW  301   2.495   1.674   1.060 -0.1065  0.4911  0.2467
  101SOL    HW1  302   2.507   1.620   0.982  0.8294 -2.7587  2.4540
  101SOL    HW2  303   2.449   1.752   1.027  0.0408 -0.7556 -3.4654
  102SOL     OW  304   1.565   3.044   1.359  0.7181 -0.1969 -0.0153
  102SOL    HW1  305   1.608   3.050   1.444 -0.3944  0.9403  0.5070
  102SOL    HW2  306   1.569   2.951   1.336  2.5847 -0.2606  0.4198
  103SOL     OW  307   0.416   0.820   1.063  0.0625  0.2367  0.0047
  103SOL    HW1  308   0.459   0.857   0.986 -0.5980 -1.2122 -1.1210
  103SOL    HW2  309   0.481   0.762   1.102 -0.7689 -2.0875 -1.7935
  104SOL     OW  310   2.955   1.612   0.265 -0.2229 -0.0812 -0.2315
  104SOL    HW1  311   2.943   1.517   0.269  3.1875 -0.6498 -0.2777
  104SOL    HW2  312   3.030   1.624   0.207  1.8547  2.2953  2.6148
  105SOL     OW  313   1.493   3.532   1.702 -0.6553  0.4362  0.6885
  105SOL    HW1  314   1.488   3.506   1.610  0.6016 -0.0844  0.7473
  105SOL    HW2  315   1.574   3.491   1.734 -1.7228 -0.4741  2.3775
  106SOL     OW  316   2.198   3.951   1.707 -0.1642 -0.3042  0.9678
  106SOL    HW1  317   2.155   3.910   1.632 -0.9390 -1.8438  2.1923
  106SOL    HW2  318   2.127   3.972   1.767  0.5494 -0.3444  1.8415
  107SOL     OW  319   0.956   3.007   3.659  0.3828 -1.0076  0.2174
  107SOL    HW1  320   0.960   3.007   3.563  1.8564 -1.3345  0.2390
  107SOL    HW2  321   0.868   3.036   3.680  0.6885  1.1680 -1.2062
  108SOL     OW  322   0.649   2.985   2.528  0.1073  0.6642 -0.0429
  108SOL    HW1  323   0.654   2.990   2.623 -1.9793 -0.4791  0.1871
  108SOL    HW2  324   0.562   3.018   2.506 -0.1339 -0.7279 -1.3795
  109SOL     OW  325   1.176   3.623   1.425 -0.4430 -0.0162  0.6123
  109SOL    HW1  326   1.262   3.580   1.428 -0.8838 -0.9495  0.2118
  109SOL    HW2  327   1.194   3.707   1.383  0.5542  0.5291  2.0611
  110SOL     OW  328   3.062   1.155   2.820  0.3637  0.4595  0.6492
  110SOL    HW1  329   3.021   1.191   2.899 -0.7834 -0.1083  0.3386
  110SOL    HW2  330   3.000   1.089   2.789  1.6049 -0.5536  0.2342
  111SOL     OW  331   3.678   2.099   2.521 -0.7689 -0.0146  0.5997
  111SOL    HW1  332   3.645   2.127   2.436  0.4551 -0.3235  0.0055
  111SOL    HW2  333   3.756   2.152   2.536  0.8989 -2.1512  0.0137
  112SOL     OW  334   2.975   0.520   2.387 -0.7203  0.2678  0.2582
  112SOL    HW1  335   3.067   0.499   2.366 -1.2931 -2.1685 -0.1188
  112SOL    HW2  336   2.955   0.466   2.463 -2.4645 -1.0041 -1.0325
  113SOL     OW  337   2.974   0.054   3.136  0.0299  0.7665 -0.0629
  113SOL    HW1  338   2.965   0.128   3.077 -0.7019  1.0380  0.3804
  113SOL    HW2  339   2.948   0.087   3.221 -1.6416 -0.3422 -0.1021
  114SOL     OW  340   3.808   2.563   3.877 -0.1189 -0.1165 -0.7314
  114SOL    HW1  341   3.870   2.506   3.924  0.0118  0.1040 -0.6320
  114SOL    HW2  342   3.797   2.638   3.936 -0.5883 -0.2214 -0.6879
  115SOL     OW  343   0.065   3.746   1.609  0.0424  0.0681  0.3001
  115SOL    HW1  344   0.117   3.768   1.532  0.8684 -1.1939  0.4624
  115SOL    HW2  345   0.127   3.707   1.670 -0.8522 -0.2247  1.0513
  116SOL     OW  346   3.863   2.882   2.168 -0.0542  0.4707  0.5614
  116SOL    HW1  347   3.841   2.904   2.259 -2.0900 -1.0366  0.4870
  116SOL    HW2  348   3.780   2.861   2.127  0.6815  2.0152 -1.9687
  117SOL     OW  349   0.820   0.023   2.759  0.1314  0.3156  0.6168
  117SOL    HW1  350   0.841   0.115   2.780 -0.6901  0.0561  2.8926
  117SOL    HW2  351   0.875  -0.028   2.819  0.7889 -0.7442 -0.8210
  118SOL     OW  352   2.630   2.687   1.911 -0.0472  0.2638  0.4879
  118SOL    HW1  353   2.644   2.725   1.825  0.4173  3.0235  1.6991
  118SOL    HW2  354   2.584   2.604   1.893 -0.6415  1.0970 -2.3218
  119SOL     OW  355   0.770   1.098   1.042  0.4519 -1.0261  0.2517
  119SOL    HW1  356   0.782   1.060   1.129  1.2115 -1.1587  0.0978
  119SOL    HW2  357   0.798   1.189   1.051 -0.3459 -0.7825  0.3600
  120SOL     OW  358   3.926   1.630   3.312  1.4393 -0.2491 -0.1366
  120SOL    HW1  359   4.009   1.660   3.350  0.5621 -0.4303  2.0550
  120SOL    HW2  360   3.879   1.711   3.291  1.6652 -0.1403 -0.2279
  121SOL     OW  361   1.082   0.671   1.593  0.0724 -0.2425  0.4545
  121SOL    HW1  362   1.077   0.578   1.616  0.6979  0.3243  3.2031
  121SOL    HW2  363   1.128   0.672   1.509 -0.6359 -2.4144 -0.0576
  122SOL     OW  364   0.437   1.934   3.443  0.6636  0.2166  0.2522
  122SOL    HW1  365   0.448   2.012   3.497 -1.0605  0.5798  0.1396
  122SOL    HW2  366   0.420   1.863   3.505 -0.0509  0.3865  0.2557
  123SOL     OW  367   0.346   1.398   0.077  0.9615 -0.0584  0.3974
  123SOL    HW1  368   0.383   1.324   0.126 -0.6248 -1.9023 -1.0235
  123SOL    HW2  369   0.420   1.435   0.029  1.8865 -0.3285  1.5568
  124SOL     OW  370   3.567   1.769   3.783 -0.1756  0.5213  0.5279
  124SOL    HW1  371   3.531   1.832   3.721 -0.6954 -1.6328 -1.5047
  124SOL    HW2  372   3.637   1.725   3.735  2.3670  1.5920  2.9485
  125SOL     OW  373   2.093   1.196   1.912 -0.3125 -0.4248 -0.0782
  125SOL    HW1  374   2.096   1.289   1.889 -1.8151  0.7008  3.5923
  125SOL    HW2  375   2.004   1.182   1.943  0.5556 -2.4257  1.7749
  126SOL     OW  376   2.523   0.550   1.405  0.1836  0.2587  0.2126
  126SOL    HW1  377   2.526   0.638   1.367  3.3311  0.7826  1.3469
  126SOL    HW2  378   2.466   0.559   1.482  0.2121  1.2339  0.1303
  127SOL     OW  379   2.411   2.453   1.225  0.1694 -0.2115  0.1755
  127SOL    HW1  380   2.496   2.485   1.195  0.3731 -1.5072 -0.7321
  127SOL    HW2  381   2.430   2.405   1.306  0.4365 -1.1332 -0.4208
  128SOL     OW  382   2.457   2.817   2.929 -0.1748  0.0844  0.2989
  128SOL    HW1  383   2.416   2.800   3.014  0.8839 -1.3979  0.5480
  128SOL    HW2  384   2.455   2.733   2.884  0.5681  0.5196 -0.5732
  129SOL     OW  385   1.977   3.461   2.357 -0.1631 -0.5358  0.3082
  129SOL    HW1  386   1.921   3.523   2.311  0.8324  0.6922  0.6963
  129SOL    HW2  387   1.948   3.463   2.448 -0.8042 -1.4451  0.1404
  130SOL     OW  388   3.081   1.030   0.546  0.7523 -0.1193  0.6632
  130SOL    HW1  389   2.987   1.046   0.561  0.3168 -2.0331  0.3062
  130SOL    HW2  390   3.123   1.114   0.564 -1.1922  1.2422 -0.7177
  131SOL     OW  391   0.558   3.203   1.819 -0.1435 -0.7018 -0.4986
  131SOL    HW1  392   0.514   3.215   1.903  1.2927 -0.0660  0.2032
  131SOL    HW2  393   0.582   3.291   1.791 -0.0160 -0.9670 -1.2466
  132SOL     OW  394   0.641   0.809   2.370 -0.4958 -0.8331 -0.1001
  132SOL    HW1  395   0.701   0.881   2.392 -2.8558  0.6927  1.8586
  132SOL    HW2  396   0.598   0.838   2.290 -2.9597  1.1284  1.7787
  133SOL     OW  397   2.977   0.638   1.201  0.0650 -0.9431  0.0886
  133SOL    HW1  398   2.973   0.672   1.112  1.8225 -0.5693  0.1038
  133SOL    HW2  399   3.013   0.711   1.252 -0.7634 -1.2066  1.0766
  134SOL     OW  400   1.011   3.964   1.073 -0.1858 -0.1283 -0.5343
  134SOL    HW1  401   0.931   3.913   1.065 -0.3710 -0.2300  1.5507
  134SOL    HW2  402   1.072   3.922   1.012 -0.8867 -1.7336 -0.1651
  135SOL     OW  403   1.554   3.119   3.205 -0.2042 -0.4036  0.1433
  135SOL    HW1  404   1.642   3.081   3.199 -0.4209 -0.6626 -2.4875
  135SOL    HW2  405   1.569   3.211   3.227  0.7371 -0.3953 -0.4751
  136SOL     OW  406   0.753   0.047   3.376  0.3599 -0.1239  0.1257
  136SOL    HW1  407   0.772   0.083   3.462  0.3309 -0.1277  0.1334
  136SOL    HW2  408   0.701   0.114   3.332  0.9059  0.1478 -0.1165
  137SOL     OW  409   0.507   3.131   3.273 -0.3996 -0.3570 -0.6339
  137SOL    HW1  410   0.418   3.165   3.279 -0.6582 -1.1102  0.0220
  137SOL    HW2  411   0.534   3.119   3.364  0.4434  0.0327 -0.8248
  138SOL     OW  412   3.845   2.015   0.450  0.2601  0.6896  0.1265
  138SOL    HW1  413   3.846   2.094   0.505 -2.0207  1.4880 -0.8579
  138SOL    HW2  414   3.795   2.041   0.373  1.2962 -1.1317 -1.2283
  139SOL     OW  415   0.613   2.507   1.370 -0.1567 -0.0604 -0.6554
  139SOL    HW1  416   0.593   2.594   1.403 -0.8979  0.6284 -2.7767
  139SOL    HW2  417   0.692   2.519   1.317 -1.8327  0.0150 -3.3346
  140SOL     OW  418   2.864   0.727   3.010 -0.7756 -0.7380  0.2945
  140SOL    HW1  419   2.888   0.659   3.073  2.5139 -1.6027 -1.6632
  140SOL    HW2  420   2.884   0.809   3.055 -1.7697 -1.1456  1.5458
  141SOL     OW  421   2.370   0.843   2.632  0.0171 -0.2578  0.1244
  141SOL    HW1  422   2.335   0.827   2.545  1.2859 -2.8543 -0.0081
  141SOL    HW2  423   2.297   0.825   2.692 -1.8869  4.5963 -0.2598
  142SOL     OW  424   2.897   1.104   3.404 -0.2429 -0.0039 -0.0409
  142SOL    HW1  425   2.851   1.154   3.337  2.2942 -0.4335 -2.2215
  142SOL    HW2  426   2.985   1.092   3.370  0.5684 -2.0740  2.4590
  143SOL     OW  427   3.442   3.089   2.010  0.3133  0.1515  0.3890
  143SOL    HW1  428   3.410   3.136   1.933  2.8625  0.8595 -0.3346
  143SOL    HW2  429   3.489   3.155   2.060  0.3706 -0.7402  1.5398
  144SOL     OW  430   1.481   2.083   3.776 -0.1025 -0.2227 -0.3557
  144SOL    HW1  431   1.527   2.012   3.730  2.2575  1.3716 -0.6223
  144SOL    HW2  432   1.400   2.042   3.807  2.7553 -4.3057  3.0113
  145SOL     OW  433   0.356   2.822   2.435 -0.6541  0.5999 -0.1705
  145SOL    HW1  434   0.400   2.745   2.470 -0.9338 -0.4544 -1.9985
  145SOL    HW2  435   0.411   2.849   2.361 -1.6172  0.9138 -0.7900
  146SOL     OW  436   2.581   1.811   3.830 -0.2365 -0.5335 -0.3563
  146SOL    HW1  437   2.491   1.817   3.860 -0.4565  0.1446 -1.0987
  146SOL    HW2  438   2.611   1.725   3.858 -0.7686 -0.3471  0.8101
  147SOL     OW  439   3.844   0.629   1.768 -0.0314  0.1678  0.5679
  147SOL    HW1  440   3.750   0.623   1.781 -0.0613 -0.0254  0.2773
  147SOL    HW2  441   3.881   0.629   1.856 -0.2227 -1.1866  0.6701
  148SOL     OW  442   1.846   1.289   0.616 -0.5062 -0.6617 -0.2598
  148SOL    HW1  443   1.902   1.214   0.640  0.8082  0.4003  0.1075
  148SOL    HW2  444   1.907   1.361   0.603 -1.8721  0.8496  1.2506
  149SOL     OW  445   0.498   3.628   0.957 -0.0347  0.4343 -0.3332
  149SOL    HW1  446   0.542   3.569   1.018  1.5414 -0.7135 -2.4666
  149SOL    HW2  447   0.468   3.571   0.886 -2.1298  1.6789 -0.5249
  150SOL     OW  448   2.377   0.391   2.289 -0.0254 -0.2992 -0.8666
  150SOL    HW1  449   2.317   0.421   2.221 -2.2003 -1.1480  0.5535
  150SOL    HW2  450   2.334   0.415   2.371  2.4995  0.6958  0.2743
  151SOL     OW  451   2.315   2.164   3.547  0.0587 -0.1993 -0.3820
  151SOL    HW1  452   2.243   2.183   3.487  0.0800 -0.5085 -0.5083
  151SOL    HW2  453   2.273   2.162   3.634 -0.0343 -0.0928 -0.4244
  152SOL     OW  454   3.756   2.769   0.394 -0.2674  0.1712 -0.1081
  152SOL    HW1  455   3.685   2.787   0.332  0.4240 -0.3602 -1.0772
  152SOL    HW2  456   3.804   2.852   0.400 -0.3654  0.2380 -0.2419
  153SOL     OW  457   1.768   2.762   2.715  0.4688  0.3030  0.0456
  153SOL    HW1  458   1.758   2.753   2.620  0.4061 -0.3240  0.1078
  153SOL    HW2  459   1.814   2.845   2.726 -1.3788  1.4275 -0.4171
  154SOL     OW  460   0.409   1.138   2.788 -0.4817 -0.1888  0.1109
  154SOL    HW1  461   0.413   1.130   2.883 -0.6845  1.3563  0.2743
  154SOL    HW2  462   0.356   1.064   2.760  0.6872 -1.4361  1.0573
  155SOL     OW  463   1.257   0.096   3.212  0.1905  0.0737  0.1833
  155SOL    HW1  464   1.280   0.026   3.273 -0.7613 -2.1030 -1.7584
  155SOL    HW2  465   1.163   0.083   3.196  0.1626  1.3180 -0.8442
  156SOL     OW  466   3.692   3.362   0.541 -0.6138  0.0410 -0.0290
  156SOL    HW1  467   3.628   3.316   0.596 -1.0740 -0.8949 -1.2832
  156SOL    HW2  468   3.772   3.311   0.551 -0.9163 -0.6184 -0.8184
  157SOL     OW  469   3.035   2.866   0.062  0.3438 -0.3566  0.1694
  157SOL    HW1  470   3.109   2.861   0.123  1.2557  0.4977 -0.8262
  157SOL    HW2  471   3.048   2.791   0.003  1.4851  0.8026 -1.1225
  158SOL     OW  472   3.846   1.570   2.798 -0.1507  0.3814  0.3121
  158SOL    HW1  473   3.821   1.646   2.745  0.4134 -0.1945 -0.8081
  158SOL    HW2  474   3.818   1.593   2.887  0.4879  2.1275  0.1110
  159SOL     OW  475   3.875   2.451   1.038  0.3833 -0.0692  0.1485
  159SOL    HW1  476   3.873   2.538   0.997  0.7204 -0.7618 -1.3880
  159SOL    HW2  477   3.805   2.454   1.103 -0.4379  0.9482 -0.7449
  160SOL     OW  478   2.828   1.788   2.018 -0.1528  0.1989 -0.4271
  160SOL    HW1  479   2.830   1.698   1.986 -0.2905 -0.1100  0.4110
  160SOL    HW2  480   2.769   1.785   2.093 -1.1091  1.2359 -1.1120
  161SOL     OW  481   3.908   1.454   0.340 -0.1238  0.3394  0.3327
  161SOL    HW1  482   3.910   1.550   0.344  2.5202  0.3331  2.0835
  161SOL    HW2  483   3.942   1.432   0.253  1.0631  1.0382  0.5962
  162SOL     OW  484   1.613   2.396   2.374 -0.6325 -0.5908 -0.0545
  162SOL    HW1  485   1.587   2.397   2.466  0.6813  1.1623  0.3505
  162SOL    HW2  486   1.701   2.434   2.374 -0.4348 -0.9470 -2.0039
  163SOL     OW  487   0.103   2.795   3.829  0.0181  0.2026 -0.7851
  163SOL    HW1  488   0.178   2.785   3.771 -1.0737 -2.6448 -1.8797
  163SOL    HW2  489   0.130   2.755   3.912 -0.7645 -2.5468 -1.7529
  164SOL     OW  490   2.656   2.497   3.777  0.2359  0.3404  0.5394
  164SOL    HW1  491   2.656   2.577   3.830 -0.9015  1.2249 -0.7148
  164SOL    HW2  492   2.569   2.459   3.791  0.5933 -0.4132  0.7452
  165SOL     OW  493   0.997   2.402   0.987 -0.4582  0.4567 -0.1425
  165SOL    HW1  494   1.034   2.315   0.979 -0.1114  0.6949 -1.2412
  165SOL    HW2  495   1.048   2.444   1.056 -0.5906 -0.1795  0.3517
  166SOL     OW  496   2.645   2.203   0.012  0.3289 -0.3453  0.4416
  166SOL    HW1  497   2.702   2.236   0.081  1.1791  1.8052 -1.1925
  166SOL    HW2  498   2.596   2.131   0.053  1.7989 -0.0646  2.8304
  167SOL     OW  499   2.764   0.711   0.113 -0.8064  0.3019 -0.2156
  167SOL    HW1  500   2.802   0.693   0.026 -2.5042  0.0045 -0.9337
  167SOL    HW2  501   2.810   0.789   0.143  1.2207 -0.7240 -0.4793
  168SOL     OW  502   0.392   3.109   2.512 -0.4455 -0.0014  0.9401
  168SOL    HW1  503   0.434   3.172   2.453 -0.1147 -0.2527  0.9091
  168SOL    HW2  504   0.342   3.051   2.454 -2.0561  1.1764  1.0582
  169SOL     OW  505   0.811   3.488   0.345 -0.1870  0.2896 -0.2770
  169SOL    HW1  506   0.731   3.500   0.293 -1.1363  0.7504  1.2267
  169SOL    HW2  507   0.814   3.564   0.402  1.8336  0.7333 -0.8817
  170SOL     OW  508   3.777   3.037   0.319 -0.2320  0.1426 -0.3677
  170SOL    HW1  509   3.845   3.089   0.362  0.4800 -0.2650 -0.9776
  170SOL    HW2  510   3.699   3.094   0.319  0.3753  0.9937 -0.5269
  171SOL     OW  511   2.899   2.842   3.609  0.1084  0.0978  0.6389
  171SOL    HW1  512   2.988   2.845   3.573 -0.4726  1.1623 -0.7846
  171SOL    HW2  513   2.878   2.748   3.612  0.8806 -0.1076 -0.0278
  172SOL     OW  514   1.798   0.543   2.065 -0.0770  0.0962 -0.0356
  172SOL    HW1  515   1.834   0.506   1.985 -0.7415 -0.5922 -0.0294
  172SOL    HW2  516   1.710   0.572   2.041 -0.1428  0.2295  0.3488
  173SOL     OW  517   0.186   0.248   1.145 -0.0042  0.2703  0.4597
  173SOL    HW1  518   0.094   0.272   1.144 -0.2000 -0.4812  0.0158
  173SOL    HW2  519   0.210   0.238   1.052  1.3861  3.6404  0.3095
  174SOL     OW  520   0.805   1.039   0.221  0.1702  0.2554 -0.5832
  174SOL    HW1  521   0.893   1.076   0.234  1.8639 -3.2364 -1.0118
  174SOL    HW2  522   0.777   1.014   0.309  0.9581 -1.2791 -0.7364
  175SOL     OW  523   1.573   1.162   2.136  0.2627 -1.1882  0.4809
  175SOL    HW1  524   1.542   1.138   2.223 -0.8004  0.8712  0.7357
  175SOL    HW2  525   1.645   1.223   2.152 -1.9999  1.8051  0.0759
  176SOL     OW  526   3.567   1.357   2.248 -0.2990 -0.2473  0.3565
  176SOL    HW1  527   3.513   1.431   2.277  0.8031  0.6157  0.2987
  176SOL    HW2  528   3.657   1.387   2.261  0.2196 -0.7411 -1.6973
  177SOL     OW  529   1.982   0.748   1.474 -0.0097 -0.8493  0.5318
  177SOL    HW1  530   2.011   0.797   1.396  1.4587 -0.5698  1.2131
  177SOL    HW2  531   1.887   0.759   1.476 -0.1023 -1.0178 -1.3162
  178SOL     OW  532   3.419   3.147   3.033 -0.2340 -0.3235 -0.1582
  178SOL    HW1  533   3.446   3.200   2.958 -0.1557  0.3982  0.3678
  178SOL    HW2  534   3.402   3.060   2.997 -1.3070  0.3019 -1.1982
  179SOL     OW  535   0.883   0.136   1.287  0.1503  0.0204 -0.1039
  179SOL    HW1  536   0.926   0.064   1.240  0.5175 -0.7644  1.3976
  179SOL    HW2  537   0.804   0.097   1.324 -0.0547  0.5998  0.0820
  180SOL     OW  538   2.651   0.924   0.906 -0.0872 -0.2903  0.2961
  180SOL    HW1  539   2.623   0.866   0.835  1.3033  1.1743 -1.5653
  180SOL    HW2  540   2.741   0.896   0.926  0.5906  1.1033 -0.5999
  181SOL     OW  541   3.500   2.515   2.647  0.5079 -0.1747 -0.2342
  181SOL    HW1  542   3.497   2.557   2.733  1.2606 -0.6362  0.0243
  181SOL    HW2  543   3.535   2.428   2.664 -1.4925 -1.1129 -0.6927
  182SOL     OW  544   2.199   0.441   1.907 -0.2587  0.1370 -0.3222
  182SOL    HW1  545   2.191   0.455   2.002 -1.2433  0.7316 -0.4805
  182SOL    HW2  546   2.291   0.421   1.894 -0.6974 -3.9791  1.2784
  183SOL     OW  547   2.241   3.614   3.230  0.2437 -0.4316 -0.2347
  183SOL    HW1  548   2.326   3.658   3.222 -0.4770  0.9797 -0.4802
  183SOL    HW2  549   2.213   3.600   3.140  0.5149 -1.5280 -0.1569
  184SOL     OW  550   2.378   0.957   3.693 -0.6335  0.2475  0.1052
  184SOL    HW1  551   2.387   0.909   3.775 -2.7374  1.9222  1.4418
  184SOL    HW2  552   2.348   0.892   3.630  1.1694 -1.1099  0.5629
  185SOL     OW  553   1.028   2.117   0.887  0.6259  0.2121 -0.3366
  185SOL    HW1  554   1.123   2.112   0.877  0.5193  0.5167 -1.7568
  185SOL    HW2  555   0.996   2.033   0.853  0.3684  0.1987 -0.0710
  186SOL     OW  556   3.351   2.370   1.228 -0.0937 -0.3429 -0.0331
  186SOL    HW1  557   3.325   2.462   1.229 -1.4066 -0.5568 -3.0543
  186SOL    HW2  558   3.431   2.367   1.280 -0.7970  2.1948  1.3792
  187SOL     OW  559   3.240   1.122   3.897 -0.1084  0.1068  0.6975
  187SOL    HW1  560   3.173   1.053   3.894  0.4391 -0.4678  1.3024
  187SOL    HW2  561   3.192   1.201   3.921 -0.3955 -0.5740  2.5312
  188SOL     OW  562   2.429   3.010   0.514  0.0186  0.1585  0.3753
  188SOL    HW1  563   2.421   3.085   0.455 -1.0019  0.2714  0.6357
  188SOL    HW2  564   2.379   3.036   0.592  0.4138 -0.4381  0.8322
  189SOL     OW  565   2.791   3.875   3.046  0.2157 -0.0270  0.1632
  189SOL    HW1  566   2.865   3.935   3.057  0.9993 -0.7057 -1.0779
  189SOL    HW2  567   2.773   3.842   3.134  1.6129 -0.0906  0.4494
  190SOL     OW  568   3.044   2.526   1.483  0.3894 -0.0533  0.1932
  190SOL    HW1  569   3.020   2.617   1.501 -0.8747 -0.0307 -1.3517
  190SOL    HW2  570   3.052   2.523   1.387 -1.4809 -1.9673  0.0262
  191SOL     OW  571   2.937   3.747   1.399 -0.4960 -0.5360  0.1185
  191SOL    HW1  572   3.027   3.720   1.419  0.6929 -0.1725 -3.8952
  191SOL    HW2  573   2.892   3.665   1.377 -0.8542 -0.5948  1.0347
  192SOL     OW  574   1.268   3.067   3.292  0.7975 -0.6629  0.2385
  192SOL    HW1  575   1.189   3.058   3.239 -0.2381 -1.6406  1.8681
  192SOL    HW2  576   1.340   3.072   3.229 -0.4245 -1.3443 -1.2401
  193SOL     OW  577   3.949   1.708   2.213 -0.7204 -0.1767 -0.1501
  193SOL    HW1  578   3.926   1.724   2.122 -0.4470 -0.7167 -0.3168
  193SOL    HW2  579   3.909   1.781   2.261 -1.5470 -0.3163 -0.6060
  194SOL     OW  580   2.812   0.514   1.382 -0.0890 -0.2686  0.3730
  194SOL    HW1  581   2.718   0.532   1.382  0.2932  1.9659  1.1972
  194SOL    HW2  582   2.846   0.566   1.309  0.7132  0.2569  1.1078
  195SOL     OW  583   3.265   2.718   3.192  0.4337 -0.1427  0.6714
  195SOL    HW1  584   3.205   2.792   3.194 -0.9866 -1.2058 -0.3642
  195SOL    HW2  585   3.208   2.641   3.191  1.8514 -1.2380  0.8943
  196SOL     OW  586   3.748   1.184   3.912 -0.8163 -0.4868 -0.2235
  196SOL    HW1  587   3.709   1.268   3.891  0.3623  0.0485 -0.3181
  196SOL    HW2  588   3.775   1.192   4.004  2.4215  0.5281 -1.1553
  197SOL     OW  589   2.901   3.196   3.854  0.1570  0.0760  0.1398
  197SOL    HW1  590   2.855   3.281   3.855 -0.5515 -0.1781 -2.7042
  197SOL    HW2  591   2.905   3.170   3.946 -0.7173  2.6047  0.9747
  198SOL     OW  592   1.279   3.893   3.434  0.2283 -0.2630  0.0605
  198SOL    HW1  593   1.285   3.798   3.426  0.0543 -0.2374 -0.4477
  198SOL    HW2  594   1.207   3.909   3.494  0.9700 -0.4676  1.0320
  199SOL     OW  595   3.949   3.035   2.807  0.0615 -0.5064  0.7183
  199SOL    HW1  596   3.888   2.991   2.749 -0.9591  1.5037  0.1966
  199SOL    HW2  597   4.028   2.980   2.805  0.6518  0.1500 -3.7216
  200SOL     OW  598   0.548   1.576   2.576 -0.8501  0.3886  0.0190
  200SOL    HW1  599   0.514   1.517   2.643 -0.9713  0.0574 -0.3253
  200SOL    HW2  600   0.490   1.652   2.580 -1.9508 -0.3606 -0.8632
  201SOL     OW  601   3.893   0.444   3.902  0.0300  0.5652 -0.2962
  201SOL    HW1  602   3.803   0.437   3.935  0.0548  0.8631 -0.1681
  201SOL    HW2  603   3.902   0.369   3.843 -0.8825  1.5021 -1.6836
  202SOL     OW  604   3.728   2.034   2.888  0.7215 -0.3014  1.0983
  202SOL    HW1  605   3.741   1.956   2.834  1.5066 -0.7306  1.8757
  202SOL    HW2  606   3.727   2.000   2.978 -3.4781 -0.0268  1.3467
  203SOL     OW  607   0.832   1.820   2.095 -0.2310 -0.1395 -0.7108
  203SOL    HW1  608   0.741   1.791   2.100 -0.6454  1.2750  0.5465
  203SOL    HW2  609   0.877   1.749   2.048 -1.6938 -1.5091 -0.1438
  204SOL     OW  610   2.191   1.408   2.915  0.1879  0.1805  0.1777
  204SOL    HW1  611   2.162   1.499   2.922 -0.0703  0.1806 -0.7600
  204SOL    HW2  612   2.278   1.414   2.876 -0.2657 -0.0136 -0.8919
  205SOL     OW  613   2.914   0.505   3.516 -0.3566  0.4828 -0.1319
  205SOL    HW1  614   2.965   0.585   3.527 -2.1441  1.7081 -0.4041
  205SOL    HW2  615   2.978   0.440   3.485  1.6088  1.1108  2.2851
  206SOL     OW  616   1.715   0.918   1.210 -0.2544  0.0622  0.5958
  206SOL    HW1  617   1.758   0.960   1.135 -0.1800 -0.3995  0.3753
  206SOL    HW2  618   1.645   0.865   1.171 -1.1678  0.9698  0.9712
  207SOL     OW  619   3.972   3.606   1.261 -0.0500  0.2976 -0.4393
  207SOL    HW1  620   3.905   3.650   1.209 -0.0445 -0.3680 -1.0334
  207SOL    HW2  621   4.055   3.642   1.228 -0.0210 -0.4834 -1.2664
  208SOL     OW  622   3.216   1.325   1.738 -0.0078  0.5219  0.2463
  208SOL    HW1  623   3.282   1.391   1.718 -0.7470  0.8844 -1.1609
  208SOL    HW2  624   3.254   1.273   1.808  2.2730 -0.0096 -1.2759
  209SOL     OW  625   0.621   3.461   1.145 -0.5055 -0.3728  0.4213
  209SOL    HW1  626   0.557   3.447   1.215  0.9021 -4.0837  1.2081
  209SOL    HW2  627   0.693   3.506   1.189 -1.4467  1.5202  0.1324
  210SOL     OW  628   2.900   0.708   3.870  0.3566 -0.3181  0.2130
  210SOL    HW1  629   2.897   0.620   3.832  0.1886  0.0195 -0.5789
  210SOL    HW2  630   2.850   0.762   3.810  0.3821  0.3091  0.7418
  211SOL     OW  631   0.746   2.165   1.420 -0.5527 -0.3411 -0.5135
  211SOL    HW1  632   0.730   2.081   1.463 -0.9882 -0.0855 -0.1654
  211SOL    HW2  633   0.755   2.228   1.492 -1.1758  0.0700 -0.7886
  212SOL     OW  634   2.844   1.417   2.907 -0.2634 -0.2007 -0.1702
  212SOL    HW1  635   2.903   1.431   2.833  0.6671 -1.3188  0.3386
  212SOL    HW2  636   2.781   1.489   2.901 -0.0896 -0.1508 -1.9312
  213SOL     OW  637   3.179   1.752   2.258 -0.0340 -0.1529 -0.1038
  213SOL    HW1  638   3.177   1.793   2.172  1.1498 -1.3348 -0.7419
  213SOL    HW2  639   3.181   1.825   2.319  1.0989  0.7611 -1.1639
  214SOL     OW  640   2.865   0.720   2.019 -0.0349  0.1337 -0.2123
  214SOL    HW1  641   2.849   0.809   2.052 -0.4890  0.6141 -1.6648
  214SOL    HW2  642   2.936   0.730   1.956 -1.2441 -0.2087 -1.6878
  215SOL     OW  643   2.870   1.969   2.462 -0.1909 -0.0933  0.3339
  215SOL    HW1  644   2.832   1.984   2.375 -0.3295  2.7917  0.7793
  215SOL    HW2  645   2.956   2.011   2.458  0.7145 -1.7726  1.0125
  216SOL     OW  646   1.463   0.731   2.305 -0.0105 -0.1691 -0.4400
  216SOL    HW1  647   1.404   0.658   2.319  0.3671 -0.2024  1.3183
  216SOL    HW2  648   1.550   0.695   2.318  0.1475  0.6952  1.4016
  217SOL     OW  649   2.234   1.354   0.586 -0.2275 -0.0356 -0.5216
  217SOL    HW1  650   2.207   1.313   0.503 -4.7385 -2.5620  1.8309
  217SOL    HW2  651   2.288   1.288   0.628 -2.2313 -1.0539  0.5867
  218SOL     OW  652   3.430   2.155   0.719  0.4505 -0.4653  0.1606
  218SOL    HW1  653   3.421   2.148   0.814 -0.9512 -1.5412 -0.0260
  218SOL    HW2  654   3.483   2.078   0.695 -0.8367 -1.3013 -0.1073
  219SOL     OW  655   1.693   0.019   2.641 -0.0788 -0.0914  0.2572
  219SOL    HW1  656   1.629   0.085   2.667  0.7739  0.6130  0.6139
  219SOL    HW2  657   1.708   0.035   2.548 -0.5892 -0.4104  0.1171
  220SOL     OW  658   2.005   0.313   2.294 -0.1309  0.5823  0.5225
  220SOL    HW1  659   1.989   0.313   2.389  1.9003  1.4201  0.9055
  220SOL    HW2  660   1.971   0.229   2.265  0.2778 -0.2103  2.2043
  221SOL     OW  661   0.933   2.278   2.815  0.2125 -0.5424  0.4655
  221SOL    HW1  662   0.911   2.370   2.803 -4.0148 -1.4480 -0.0327
  221SOL    HW2  663   0.909   2.258   2.905 -3.4573 -2.0490 -0.6734
  222SOL     OW  664   0.974   0.577   1.957  0.2273 -0.0355  0.3413
  222SOL    HW1  665   0.894   0.554   2.005 -0.1985  0.6635 -0.0122
  222SOL    HW2  666   0.991   0.668   1.981 -0.2266  0.4732 -1.1175
  223SOL     OW  667   3.587   0.613   3.626  0.1285  0.3914  0.3589
  223SOL    HW1  668   3.513   0.615   3.686 -0.3965 -0.9623 -0.1990
  223SOL    HW2  669   3.555   0.656   3.546  0.3316  0.8330  0.5107
  224SOL     OW  670   3.768   1.037   0.749  0.0727  0.4227 -0.3468
  224SOL    HW1  671   3.842   1.032   0.809  0.5635  2.1663 -0.7394
  224SOL    HW2  672   3.771   1.126   0.715  0.8272 -0.8535 -4.2023
  225SOL     OW  673   2.255   3.457   1.494  0.3022 -0.0921  0.1690
  225SOL    HW1  674   2.219   3.380   1.536 -0.8598  0.3948  0.0866
  225SOL    HW2  675   2.350   3.440   1.490 -0.1463 -2.6757 -2.2503
  226SOL     OW  676   0.225   2.171   1.209  0.4692  0.0359  0.2785
  226SOL    HW1  677   0.176   2.109   1.155 -0.8931  0.5407  0.8669
  226SOL    HW2  678   0.313   2.171   1.173 -0.2296 -0.1135 -1.5162
  227SOL     OW  679   0.226   3.730   0.658  0.1079  0.0133  0.0703
  227SOL    HW1  680   0.197   3.820   0.670  0.1587 -0.1516  1.5651
  227SOL    HW2  681   0.314   3.738   0.621 -0.7397  0.5230 -1.9883
  228SOL     OW  682   1.672   3.327   2.976 -0.3459 -0.5441  0.1607
  228SOL    HW1  683   1.648   3.419   2.965  0.7043 -0.4190 -1.3808
  228SOL    HW2  684   1.604   3.279   2.928  0.2346 -0.4361 -0.7818
  229SOL     OW  685   1.732   0.376   2.913  0.0876 -0.6720  0.2983
  229SOL    HW1  686   1.710   0.426   2.992 -0.8595  1.0509 -0.9985
  229SOL    HW2  687   1.710   0.285   2.936  0.9003 -0.4108  2.3678
  230SOL     OW  688   1.452   1.385   1.139  0.0694  0.7854 -0.5177
  230SOL    HW1  689   1.519   1.358   1.201 -2.0554  0.6108  1.8474
  230SOL    HW2  690   1.400   1.450   1.186 -2.7371 -0.6780 -1.3534
  231SOL     OW  691   1.140   2.637   0.713  0.2994  0.9594 -0.2505
  231SOL    HW1  692   1.119   2.552   0.673  0.9696  0.8498 -0.3782
  231SOL    HW2  693   1.224   2.661   0.674  0.6097  1.1910  0.5603
  232SOL     OW  694   2.078   2.374   0.696 -0.1393 -0.4935  0.3768
  232SOL    HW1  695   2.158   2.418   0.723  2.6735 -4.1488 -1.1641
  232SOL    HW2  696   2.047   2.329   0.775 -1.6928  2.0986  1.3537
  233SOL     OW  697   2.875   1.021   2.690 -0.2352 -0.2500 -0.0568
  233SOL    HW1  698   2.786   0.992   2.672 -1.2425  3.1428 -1.3716
  233SOL    HW2  699   2.926   0.989   2.615 -0.3434 -1.8974  0.5236
  234SOL     OW  700   0.407   2.187   0.958 -0.6245  0.5142 -0.2462
  234SOL    HW1  701   0.417   2.093   0.941 -0.5097  0.3054  0.8441
  234SOL    HW2  702   0.323   2.210   0.918 -0.3143  0.1073 -1.1395
  235SOL     OW  703   2.050   3.537   2.992  0.1545 -0.2434 -0.4459
  235SOL    HW1  704   2.014   3.457   2.954  0.9539 -0.6047 -0.4592
  235SOL    HW2  705   2.137   3.546   2.952  0.2298  0.4172 -0.1503
  236SOL     OW  706   1.046   2.424   0.597 -0.3347 -0.1446 -0.0507
  236SOL    HW1  707   0.975   2.412   0.660 -0.8041  2.0779 -0.0535
  236SOL    HW2  708   1.042   2.347   0.541 -1.0267 -1.3355  1.5595
  237SOL     OW  709   3.642   3.782   0.383  0.3212 -0.1980  0.2939
  237SOL    HW1  710   3.688   3.759   0.464  0.2051 -0.7245  0.2199
  237SOL    HW2  711   3.550   3.766   0.403  0.4276 -1.9441 -0.4376
  238SOL     OW  712   0.985   3.916   2.949  0.6445 -0.2214 -0.1010
  238SOL    HW1  713   1.027   3.869   2.876  0.0707  0.2434 -0.7452
  238SOL    HW2  714   1.001   3.860   3.025  1.0563 -0.8396 -0.6228
  239SOL     OW  715   1.964   2.055   1.566  0.3441 -0.2609  0.1636
  239SOL    HW1  716   1.945   1.980   1.624  0.7186 -1.0142 -0.6671
  239SOL    HW2  717   1.983   2.127   1.626  0.9336 -1.0771  0.9861
  240SOL     OW  718   3.161   0.521   3.064 -0.4879  0.0745 -0.3697
  240SOL    HW1  719   3.081   0.504   3.115 -0.9022  0.3766 -0.9073
  240SOL    HW2  720   3.173   0.616   3.070 -0.9327  0.2107 -1.3922
  241SOL     OW  721   1.671   2.541   0.094 -0.3736  0.0380 -0.0832
  241SOL    HW1  722   1.620   2.617   0.067  1.8370  1.6130 -0.1006
  241SOL    HW2  723   1.613   2.466   0.080 -1.8171  1.4841 -2.3053
  242SOL     OW  724   3.578   2.258   1.579  0.1544  0.0377  0.5490
  242SOL    HW1  725   3.546   2.348   1.568  1.3071  0.3559 -0.3772
  242SOL    HW2  726   3.500   2.209   1.606 -0.7671  1.0771 -0.1015
  243SOL     OW  727   1.261   2.425   0.087  0.3190 -0.4407  0.1325
  243SOL    HW1  728   1.199   2.359   0.055  1.0738 -0.1091 -2.2477
  243SOL    HW2  729   1.226   2.508   0.054  1.8240 -0.2224 -1.0660
  244SOL     OW  730   1.964   0.306   1.230 -0.2449 -0.7521  0.6948
  244SOL    HW1  731   2.015   0.245   1.283  0.7026 -0.4753  0.1193
  244SOL    HW2  732   1.884   0.320   1.281  0.3871 -0.9398  1.7818
  245SOL     OW  733   3.370   0.273   1.724 -0.7323  0.1936  0.1680
  245SOL    HW1  734   3.421   0.206   1.771  1.3063  0.8015 -1.0470
  245SOL    HW2  735   3.347   0.337   1.792 -0.1796 -0.2772  0.8196
  246SOL     OW  736   1.130   0.169   2.838  0.4414 -0.3067 -0.5547
  246SOL    HW1  737   1.065   0.098   2.832  1.0304 -0.9741  0.5337
  246SOL    HW2  738   1.086   0.237   2.889  0.1404 -0.2066 -0.9441
  247SOL     OW  739   2.143   3.415   0.157  0.5368  0.2611  0.0052
  247SOL    HW1  740   2.223   3.361   0.155 -0.9698 -2.1939  0.9091
  247SOL    HW2  741   2.104   3.404   0.071  0.4738  0.3192  0.0260
  248SOL     OW  742   1.745   3.669   1.184  0.2127  0.0468 -0.6053
  248SOL    HW1  743   1.788   3.734   1.130  0.0691 -2.3261 -3.8798
  248SOL    HW2  744   1.815   3.609   1.211 -0.2786 -1.1604 -1.8956
  249SOL     OW  745   3.454   0.412   2.776  0.6454 -0.0606 -0.4553
  249SOL    HW1  746   3.542   0.389   2.747  0.6124  0.0839 -0.6737
  249SOL    HW2  747   3.421   0.471   2.708 -0.8863 -2.6909 -2.1309
  250SOL     OW  748   2.728   1.753   0.297  0.7028 -0.4792  0.1252
  250SOL    HW1  749   2.802   1.700   0.268  1.8100  0.5055  1.0658
  250SOL    HW2  750   2.767   1.835   0.326 -0.7120 -0.1361  1.1567
  251SOL     OW  751   1.482   2.652   1.679  0.0295  0.1205  0.3096
  251SOL    HW1  752   1.542   2.610   1.617  1.6589  0.8805  1.3046
  251SOL    HW2  753   1.480   2.593   1.754 -0.4112  0.1503  0.3233
  252SOL     OW  754   3.042   3.655   2.105 -0.3625 -0.0896  0.6847
  252SOL    HW1  755   3.053   3.672   2.198 -0.0457  0.6051  0.5291
  252SOL    HW2  756   3.052   3.741   2.064  0.2268 -0.4951 -0.0485
  253SOL     OW  757   3.450   3.314   1.070 -0.8491  0.8269 -0.5754
  253SOL    HW1  758   3.496   3.388   1.108 -1.0956  0.3570  0.7067
  253SOL    HW2  759   3.519   3.261   1.030 -0.0834 -0.2533  1.9635
  254SOL     OW  760   0.964   3.558   3.025 -0.0175  0.4747  0.5749
  254SOL    HW1  761   0.954   3.551   2.930  2.2134  1.0484  0.2205
  254SOL    HW2  762   0.882   3.596   3.056 -0.8722  0.0474 -1.0843
  255SOL     OW  763   2.173   2.569   1.276  0.2644 -0.0951  0.7858
  255SOL    HW1  764   2.118   2.521   1.338 -0.3891 -0.8545 -0.3395
  255SOL    HW2  765   2.254   2.517   1.271  0.3274 -0.0181  1.0361
  256SOL     OW  766   2.774   1.328   0.716 -0.5114 -0.5734 -0.4877
  256SOL    HW1  767   2.869   1.331   0.730 -0.3888 -0.5503 -1.2532
  256SOL    HW2  768   2.739   1.288   0.796  0.0478  0.2787  0.1981
  257SOL     OW  769   0.116   3.124   0.201  0.6441  0.2718  0.2757
  257SOL    HW1  770   0.169   3.047   0.222  0.1358 -0.1147  0.1708
  257SOL    HW2  771   0.032   3.107   0.244  0.6536  0.9484  0.5727
  258SOL     OW  772   1.597   0.572   2.600 -0.0020  0.0075 -0.4651
  258SOL    HW1  773   1.503   0.584   2.594 -0.0658 -0.1820  0.0837
  258SOL    HW2  774   1.618   0.509   2.531 -0.3029 -0.0791 -0.4782
  259SOL     OW  775   0.335   2.918   1.512  0.2950 -0.2972 -0.4648
  259SOL    HW1  776   0.342   2.968   1.594  2.0424  0.0290 -0.7700
  259SOL    HW2  777   0.255   2.950   1.471 -1.0806 -1.0541  1.4713
  260SOL     OW  778   2.097   0.850   0.943  0.3208  0.2867 -0.3456
  260SOL    HW1  779   2.153   0.785   0.986  0.9053 -0.9681 -2.8010
  260SOL    HW2  780   2.141   0.867   0.859 -0.8669  2.3836 -0.5985
  261SOL     OW  781   3.963   1.290   1.096  0.1358  0.2726 -0.3492
  261SOL    HW1  782   4.042   1.343   1.105 -1.3320  2.2974  2.9665
  261SOL    HW2  783   3.896   1.353   1.067 -1.0482 -0.4217  0.7696
  262SOL     OW  784   1.014   3.793   3.170 -0.9096 -0.8429  0.1925
  262SOL    HW1  785   0.982   3.801   3.260  1.0752 -2.2438  1.0786
  262SOL    HW2  786   1.019   3.699   3.154  1.8200 -0.7151 -0.1826
  263SOL     OW  787   3.098   1.521   2.425 -0.1732 -0.1357  0.2815
  263SOL    HW1  788   3.102   1.615   2.405 -0.1104  0.5547  3.0353
  263SOL    HW2  789   3.070   1.480   2.344  3.4809  1.7496 -2.2105
  264SOL     OW  790   2.716   1.983   0.904  0.2555  0.2574  0.6948
  264SOL    HW1  791   2.766   1.991   0.985  0.6569  2.1260  0.3083
  264SOL    HW2  792   2.782   1.981   0.835 -0.0347 -2.2593  0.3999
  265SOL     OW  793   0.707   1.256   1.683  0.4689 -0.4998 -0.1304
  265SOL    HW1  794   0.634   1.218   1.634 -0.2932  0.5727  0.1550
  265SOL    HW2  795   0.692   1.350   1.679  1.4125 -0.3063  0.6097
  266SOL     OW  796   3.745   0.314   1.699 -0.4336  0.3460 -0.2470
  266SOL    HW1  797   3.705   0.384   1.751 -0.2145  0.3607 -0.0989
  266SOL    HW2  798   3.683   0.242   1.704 -0.3773  0.3194  0.0987
  267SOL     OW  799   0.014   3.499   2.273  0.7106 -0.4317 -0.0080
  267SOL    HW1  800   0.050   3.422   2.318  0.9193 -0.0207  0.5465
  267SOL    HW2  801   0.089   3.539   2.230  0.3476 -1.3718 -1.5869
  268SOL     OW  802   1.072   1.567   1.081  0.6320  0.2249 -0.8150
  268SOL    HW1  803   1.132   1.590   1.151  0.2311 -1.0070 -0.0295
  268SOL    HW2  804   1.004   1.635   1.083 -0.6186 -0.9661  1.5433
  269SOL     OW  805   3.640   2.724   2.476  0.3108 -0.0719 -1.0704
  269SOL    HW1  806   3.590   2.679   2.544 -1.0453  0.4331 -1.7001
  269SOL    HW2  807   3.581   2.792   2.444  3.3105  4.7472  2.2562
  270SOL     OW  808   1.366   1.288   2.798 -0.4004  0.7357 -0.4222
  270SOL    HW1  809   1.325   1.203   2.783  0.4104  0.1070  0.8258
  270SOL    HW2  810   1.322   1.322   2.876 -0.5512  1.3619 -0.7754
  271SOL     OW  811   0.736   2.232   2.556  0.3239  0.1715  0.2925
  271SOL    HW1  812   0.746   2.319   2.518 -1.6622  0.6109  0.6997
  271SOL    HW2  813   0.713   2.248   2.648  0.3237 -0.7878  0.4682
  272SOL     OW  814   2.596   2.418   2.860  0.2616 -0.2607 -0.1907
  272SOL    HW1  815   2.612   2.339   2.808 -0.0841 -1.1239  0.9973
  272SOL    HW2  816   2.509   2.405   2.898 -0.1296  1.0433 -0.5908
  273SOL     OW  817   2.093   1.922   1.052 -0.3062  0.0745 -0.5284
  273SOL    HW1  818   2.183   1.954   1.056  1.1015 -3.4982  0.8256
  273SOL    HW2  819   2.045   1.979   1.111  1.7584  0.3512  1.0142
  274SOL     OW  820   2.129   3.501   3.673 -0.1063  0.2601  0.1493
  274SOL    HW1  821   2.078   3.516   3.594  1.0794  0.4666 -0.6068
  274SOL    HW2  822   2.192   3.574   3.676  1.7713 -1.2449 -0.3221
  275SOL     OW  823   1.169   3.716   2.518  0.3034  0.2750 -0.2734
  275SOL    HW1  824   1.113   3.782   2.477  0.4118  0.6794  0.2269
  275SOL    HW2  825   1.251   3.720   2.469  1.3073  2.4207  1.4247
  276SOL     OW  826   3.898   0.252   2.424 -0.1872  0.7642 -0.6255
  276SOL    HW1  827   3.916   0.209   2.340  0.9627  1.0962 -0.5644
  276SOL    HW2  828   3.888   0.180   2.486  0.2419  0.5473 -0.8044
  277SOL     OW  829   0.483   0.165   3.582  0.3028 -0.0188  0.5060
  277SOL    HW1  830   0.481   0.251   3.540 -1.2221  0.1670  0.8900
  277SOL    HW2  831   0.508   0.183   3.672  3.1486 -0.3717 -0.1236
  278SOL     OW  832   0.972   3.691   1.619 -0.1368  0.1861  0.3949
  278SOL    HW1  833   1.035   3.658   1.555  1.1545  0.5678  1.4080
  278SOL    HW2  834   0.976   3.787   1.609 -1.9396  0.1833 -0.7636
  279SOL     OW  835   1.212   1.995   1.507 -0.3902  0.0325  0.2254
  279SOL    HW1  836   1.302   2.029   1.510 -0.5366  0.5341 -0.6038
  279SOL    HW2  837   1.216   1.911   1.551  0.1765  0.7327  1.5563
  280SOL     OW  838   1.204   0.194   1.500 -0.1223 -0.7528 -0.3137
  280SOL    HW1  839   1.159   0.140   1.566  0.3193 -1.6306 -0.7226
  280SOL    HW2  840   1.268   0.245   1.550 -1.9711  1.0378  0.3923
  281SOL     OW  841   0.791   0.479   0.341  0.8474 -0.3407  0.3780
  281SOL    HW1  842   0.877   0.515   0.323  0.7548 -0.0368  0.5409
  281SOL    HW2  843   0.736   0.508   0.268  0.5872  0.4982  0.8890
  282SOL     OW  844   2.302   1.101   2.311  0.1138  0.1286 -0.1975
  282SOL    HW1  845   2.322   1.193   2.330  1.5703 -0.6305  2.3035
  282SOL    HW2  846   2.246   1.073   2.383 -0.9630 -0.7975 -1.3401
  283SOL     OW  847   0.339   0.445   0.545  0.2206  0.3786  0.3436
  283SOL    HW1  848   0.270   0.486   0.493 -0.6559 -1.7099 -0.2164
  283SOL    HW2  849   0.353   0.359   0.505 -0.1460 -1.1334  3.2141
  284SOL     OW  850   0.806   2.178   2.283 -0.9995 -0.5141  0.2152
  284SOL    HW1  851   0.779   2.133   2.363  1.4863 -0.5619  1.1207
  284SOL    HW2  852   0.787   2.270   2.300 -0.5619 -0.5347  0.8505
  285SOL     OW  853   2.200   2.843   3.598  0.3122 -0.3294  0.3155
  285SOL    HW1  854   2.170   2.797   3.519 -0.7989  1.5223 -0.3951
  285SOL    HW2  855   2.182   2.935   3.581 -1.7599 -0.0070  3.4756
  286SOL     OW  856   1.027   0.743   3.776  0.4377  0.3384 -0.5171
  286SOL    HW1  857   0.956   0.747   3.839  1.0357 -2.1677  0.4597
  286SOL    HW2  858   1.010   0.814   3.714 -0.6100  2.4089  1.9839
  287SOL     OW  859   3.027   0.108   1.479 -0.4425 -0.3496  0.4769
  287SOL    HW1  860   3.018   0.139   1.389 -1.5718  1.2040  1.0890
  287SOL    HW2  861   3.022   0.187   1.532  4.7682 -0.5452  1.7725
  288SOL     OW  862   0.255   1.122   2.065 -0.9728  0.3268  0.5365
  288SOL    HW1  863   0.318   1.101   2.134 -1.9046 -1.1160  0.9979
  288SOL    HW2  864   0.284   1.070   1.990 -0.9086  0.6147  0.3623
  289SOL     OW  865   3.721   0.817   1.168  0.0820 -0.1916 -0.2080
  289SOL    HW1  866   3.679   0.900   1.144  0.0909  0.8468  2.8997
  289SOL    HW2  867   3.815   0.835   1.160  0.0763 -0.0370  0.0768
  290SOL     OW  868   3.216   3.492   0.527  0.8302  0.3227 -0.1860
  290SOL    HW1  869   3.186   3.410   0.567  2.2951 -0.3724 -0.4672
  290SOL    HW2  870   3.138   3.527   0.484 -0.1131 -0.2997  0.9638
  291SOL     OW  871   2.570   2.909   1.305 -0.2789  0.1646 -0.8207
  291SOL    HW1  872   2.641   2.846   1.295 -0.7037 -0.9323  2.0096
  291SOL    HW2  873   2.518   2.901   1.225  1.3298 -0.8799 -1.8114
  292SOL     OW  874   2.261   1.925   3.189 -0.0514 -0.0886  0.4186
  292SOL    HW1  875   2.332   1.872   3.152  0.2074  0.7324 -0.2969
  292SOL    HW2  876   2.272   1.917   3.284 -0.7298 -2.2518  0.3590
  293SOL     OW  877   3.155   0.381   0.416 -0.5234  0.2169  0.1745
  293SOL    HW1  878   3.190   0.295   0.438 -1.4410 -0.0253  0.7256
  293SOL    HW2  879   3.211   0.443   0.463  0.7510  0.0088 -0.9938
  294SOL     OW  880   0.273   2.239   1.607 -0.0809  0.3670 -0.3106
  294SOL    HW1  881   0.342   2.267   1.546 -0.6780  0.5128 -0.9311
  294SOL    HW2  882   0.317   2.233   1.692  0.4593  1.4835 -0.4941
  295SOL     OW  883   0.195   2.931   2.647 -0.0094  0.1429  0.1035
  295SOL    HW1  884   0.248   2.935   2.727  0.6358 -0.2707 -0.2914
  295SOL    HW2  885   0.250   2.883   2.584 -0.0630  1.3534 -0.9112
  296SOL     OW  886   3.740   0.926   1.949 -0.3304 -0.3163  0.0086
  296SOL    HW1  887   3.723   0.938   1.855  0.0202 -0.6617 -0.1017
  296SOL    HW2  888   3.835   0.934   1.958 -0.1624 -2.0755  0.0536
  297SOL     OW  889   0.902   0.929   0.884  0.7171  0.0743 -0.1201
  297SOL    HW1  890   0.947   0.877   0.952 -0.3326  0.2590  0.7464
  297SOL    HW2  891   0.861   1.000   0.932  0.6242  0.6808 -1.0782
  298SOL     OW  892   3.424   1.471   1.688  0.5697 -0.2006 -0.3124
  298SOL    HW1  893   3.508   1.497   1.650  1.2700  1.4379  2.1055
  298SOL    HW2  894   3.444   1.453   1.780 -1.7089  0.3057  0.3462
  299SOL     OW  895   2.240   0.480   2.510  0.0734 -0.2137 -0.5834
  299SOL    HW1  896   2.256   0.521   2.595  0.1271  0.7170 -1.0360
  299SOL    HW2  897   2.155   0.513   2.483 -0.1924 -0.9330 -0.6551
  300SOL     OW  898   1.664   0.203   2.440 -0.4240 -0.2214  0.1570
  300SOL    HW1  899   1.684   0.285   2.396 -1.5327 -0.6556 -1.2424
  300SOL    HW2  900   1.690   0.135   2.377 -2.6773 -0.8458 -0.2144
  301SOL     OW  901   0.603   2.664   0.997 -0.8222 -0.2977  0.4490
  301SOL    HW1  902   0.599   2.569   1.008 -0.5023 -0.2627  0.9246
  301SOL    HW2  903   0.602   2.677   0.903  1.7768 -0.9395  0.2332
  302SOL     OW  904   3.186   1.019   1.659  0.0107 -0.2918  0.1379
  302SOL    HW1  905   3.103   0.994   1.700 -0.6723 -0.1769 -1.1053
  302SOL    HW2  906   3.197   1.111   1.681  0.1109 -0.4505  0.7806
  303SOL     OW  907   1.303   1.962   0.949 -0.0939 -0.2987 -0.2616
  303SOL    HW1  908   1.271   1.890   0.895  0.1215 -0.3778 -0.2846
  303SOL    HW2  909   1.333   2.027   0.886  0.4779 -0.5356 -0.2374
  304SOL     OW  910   3.080   2.211   0.373 -0.1143 -0.6733  0.0974
  304SOL    HW1  911   3.035   2.292   0.397  0.6005 -0.4475  0.6982
  304SOL    HW2  912   3.017   2.165   0.318 -0.9876 -0.2615  0.7240
  305SOL     OW  913   3.634   0.473   0.034  0.1490  0.0692 -0.1579
  305SOL    HW1  914   3.573   0.483   0.107  0.0126  0.8804 -0.3805
  305SOL    HW2  915   3.660   0.381   0.038 -0.6660 -0.1523  0.2650
  306SOL     OW  916   1.168   1.867   1.968 -0.1831 -1.0588  0.6542
  306SOL    HW1  917   1.139   1.855   1.877  2.8471  0.2830 -0.5935
  306SOL    HW2  918   1.176   1.961   1.979 -1.0495 -1.1624  2.5708
  307SOL     OW  919   2.464   2.303   3.833  0.2233  0.4186 -0.6450
  307SOL    HW1  920   2.526   2.302   3.905 -0.5724  1.0075  0.0786
  307SOL    HW2  921   2.420   2.218   3.837 -0.3387  0.7284  0.0558
  308SOL     OW  922   0.228   3.658   1.177 -0.4419  0.0713 -0.2485
  308SOL    HW1  923   0.191   3.707   1.103  0.1123  1.7026  0.5033
  308SOL    HW2  924   0.269   3.581   1.137  2.6000  2.4009 -2.1269
  309SOL     OW  925   2.957   1.309   0.234 -0.3343 -0.8025 -0.7576
  309SOL    HW1  926   2.950   1.283   0.326 -0.7812 -1.3112 -0.9290
  309SOL    HW2  927   2.893   1.254   0.189 -0.3078 -0.3661 -1.3353
  310SOL     OW  928   2.733   3.343   1.763  0.6290 -0.0347 -0.0068
  310SOL    HW1  929   2.759   3.288   1.836  1.4355  0.1546 -0.1412
  310SOL    HW2  930   2.779   3.306   1.687 -1.0652 -0.9306 -0.6675
  311SOL     OW  931   3.334   2.899   3.543  0.0095 -0.0463  0.5997
  311SOL    HW1  932   3.400   2.930   3.480  0.6366 -5.1968 -1.7547
  311SOL    HW2  933   3.250   2.920   3.502  0.1809  1.9793  1.1494
  312SOL     OW  934   0.518   3.226   2.745 -0.3182  0.2040  0.5472
  312SOL    HW1  935   0.548   3.150   2.794  0.4904 -0.3419 -0.7720
  312SOL    HW2  936   0.448   3.193   2.689  0.3242  0.3327 -0.3401
  313SOL     OW  937   1.339   3.063   2.885 -0.1374  0.9927  0.0949
  313SOL    HW1  938   1.416   3.083   2.938 -0.6009  2.9884  0.0822
  313SOL    HW2  939   1.265   3.093   2.938 -0.8653 -0.0585 -0.2878
  314SOL     OW  940   1.602   1.751   1.759 -0.5110  0.0129 -0.2965
  314SOL    HW1  941   1.612   1.842   1.731 -1.8609 -0.0574 -1.1398
  314SOL    HW2  942   1.511   1.729   1.736  0.1557 -1.9439 -1.3281
  315SOL     OW  943   3.170   2.689   3.637  0.1932  0.3980 -0.5226
  315SOL    HW1  944   3.252   2.715   3.677  1.2810 -1.6558 -1.3038
  315SOL    HW2  945   3.195   2.650   3.553 -1.4231 -1.4623 -0.2128
  316SOL     OW  946   3.206   2.167   3.503  0.1689 -0.5346 -0.5891
  316SOL    HW1  947   3.118   2.165   3.541  0.2881  0.4783 -0.2161
  316SOL    HW2  948   3.245   2.083   3.528 -0.5422 -0.8165 -0.3948
  317SOL     OW  949   2.508   1.759   1.784 -0.2651 -0.0612  0.3561
  317SOL    HW1  950   2.557   1.841   1.800  1.5132 -1.2517  1.4624
  317SOL    HW2  951   2.426   1.787   1.744 -0.7220  2.4903  2.7385
  318SOL     OW  952   0.879   3.536   3.786  0.5042  0.0011 -0.4002
  318SOL    HW1  953   0.794   3.493   3.784  0.5170 -0.3160  2.3085
  318SOL    HW2  954   0.859   3.629   3.797  0.3728 -0.3495  3.4302
  319SOL     OW  955   3.126   0.838   1.297 -0.4443  0.3160 -0.3852
  319SOL    HW1  956   3.217   0.828   1.269 -0.1467  0.6746  0.4197
  319SOL    HW2  957   3.108   0.932   1.286 -0.2410  0.5152  0.8056
  320SOL     OW  958   3.972   1.411   3.156  0.1262 -0.0230 -0.6056
  320SOL    HW1  959   3.894   1.356   3.153  1.3868 -2.5102  3.3765
  320SOL    HW2  960   3.959   1.467   3.232  1.9592 -0.1967 -0.1008
  321SOL     OW  961   0.802   0.116   3.629  0.4131  0.0148  1.0541
  321SOL    HW1  962   0.755   0.116   3.712 -0.6596 -1.3610  0.5011
  321SOL    HW2  963   0.784   0.202   3.591  1.7059  1.0156  2.6307
  322SOL     OW  964   3.977   2.538   3.075 -0.1651 -0.0663  0.1876
  322SOL    HW1  965   3.915   2.585   3.132 -0.0505  2.1346 -1.3538
  322SOL    HW2  966   3.927   2.520   2.996  0.8083  0.7439 -0.6420
  323SOL     OW  967   1.698   1.258   2.632  0.2472  0.2440  0.0269
  323SOL    HW1  968   1.686   1.191   2.700  1.2635 -0.3533 -0.3638
  323SOL    HW2  969   1.610   1.292   2.617  0.1596  1.4876  2.7046
  324SOL     OW  970   1.211   3.766   1.002 -0.6012  0.2852 -0.0829
  324SOL    HW1  971   1.262   3.730   0.929 -2.9177  0.1752 -1.7525
  324SOL    HW2  972   1.205   3.694   1.065  0.4686  0.0047 -0.2828
  325SOL     OW  973   2.726   3.629   1.832 -0.4023 -0.5723 -0.1740
  325SOL    HW1  974   2.734   3.576   1.752  0.4474 -0.0375 -0.4512
  325SOL    HW2  975   2.662   3.581   1.886  0.5401 -2.0415 -0.3013
  326SOL     OW  976   3.195   2.188   1.476 -0.3458  0.4531 -0.5562
  326SOL    HW1  977   3.135   2.118   1.502 -0.4327  0.8013  0.1912
  326SOL    HW2  978   3.280   2.144   1.465 -0.2480  0.3361  0.5807
  327SOL     OW  979   3.540   2.447   2.315  0.6875  0.2817 -0.1110
  327SOL    HW1  980   3.497   2.501   2.248  0.2379 -0.7321 -0.6656
  327SOL    HW2  981   3.507   2.481   2.398 -0.3086  0.2731 -0.4915
  328SOL     OW  982   0.669   1.702   2.891 -0.0546  0.0524 -0.3331
  328SOL    HW1  983   0.726   1.745   2.827  1.3819 -1.3695 -0.0984
  328SOL    HW2  984   0.582   1.704   2.852  0.1588  2.1474 -0.7938
  329SOL     OW  985   1.729   1.892   3.836 -0.2437 -0.3812  0.2191
  329SOL    HW1  986   1.661   1.881   3.903  0.3578  0.6203  1.0200
  329SOL    HW2  987   1.744   1.986   3.832 -0.9222 -0.3096 -2.0305
  330SOL     OW  988   1.268   3.011   3.571  0.6658  0.0777  0.3736
  330SOL    HW1  989   1.174   3.011   3.586  0.6964 -0.0919  0.5665
  330SOL    HW2  990   1.277   3.011   3.475  0.4625 -1.2853  0.3355
  331SOL     OW  991   2.210   3.518   0.929  0.7118  0.0375 -0.9512
  331SOL    HW1  992   2.299   3.533   0.960  0.8925 -2.6479  0.0942
  331SOL    HW2  993   2.202   3.423   0.925 -2.1741  0.1940 -0.8568
  332SOL     OW  994   0.123   2.392   2.131  0.6267 -0.0547  0.1963
  332SOL    HW1  995   0.060   2.414   2.200  1.0961 -0.7884  0.8848
  332SOL    HW2  996   0.071   2.343   2.067  0.0728  1.0820 -0.2530
  333SOL     OW  997   2.725   2.494   0.599 -0.3216  0.7639  0.2660
  333SOL    HW1  998   2.647   2.470   0.550 -0.3750  1.1576  0.1504
  333SOL    HW2  999   2.718   2.446   0.681 -0.3167  0.2328 -0.0455
  334SOL     OW 1000   0.977   0.754   2.292 -0.4251 -0.0397  0.0967
  334SOL    HW1 1001   1.030   0.711   2.359 -1.4565 -0.2585  0.7941
  334SOL    HW2 1002   0.931   0.683   2.248  0.3435  0.0880 -0.9638
  335SOL     OW 1003   2.459   3.954   3.005  0.2613  0.1350 -0.6328
  335SOL    HW1 1004   2.373   3.994   2.990 -1.0424 -1.8204  0.9673
  335SOL    HW2 1005   2.489   3.927   2.919  0.2939  2.6431 -1.5013
  336SOL     OW 1006   3.836   3.829   1.819  0.0519  0.4667  0.5377
  336SOL    HW1 1007   3.899   3.812   1.749  0.9577 -0.0271  1.4424
  336SOL    HW2 1008   3.861   3.915   1.853  1.5599 -0.5493  2.1904
  337SOL     OW 1009   1.395   0.351   2.499 -0.3908  0.4928  0.1422
  337SOL    HW1 1010   1.322   0.289   2.503  0.3874 -0.6429 -1.5873
  337SOL    HW2 1011   1.471   0.296   2.478 -0.1221  2.1452 -4.5819
  338SOL     OW 1012   1.056   0.388   1.766 -0.4467  0.4620 -0.0659
  338SOL    HW1 1013   1.039   0.460   1.826  0.1140 -0.4553  1.2281
  338SOL    HW2 1014   1.152   0.382   1.764 -0.3816  1.2390 -2.0148
  339SOL     OW 1015   1.098   1.927   2.386 -0.3869 -0.5387 -0.7208
  339SOL    HW1 1016   1.113   2.021   2.373  1.9891 -0.3236  2.3558
  339SOL    HW2 1017   1.146   1.885   2.315  0.0547  0.5437 -1.0851
  340SOL     OW 1018   2.114   1.749   0.311 -0.0772 -0.6488 -0.3390
  340SOL    HW1 1019   2.036   1.793   0.343  0.3173  1.9427 -2.6266
  340SOL    HW2 1020   2.088   1.712   0.227  0.5005 -2.1530  0.0960
  341SOL     OW 1021   1.384   3.800   3.890 -0.5712 -0.3909  0.4178
  341SOL    HW1 1022   1.368   3.894   3.883  2.8455  0.3736  0.9918
  341SOL    HW2 1023   1.415   3.774   3.803  2.6726  0.1136  1.2783
  342SOL     OW 1024   3.276   1.210   0.367  0.5094 -0.3812  0.5818
  342SOL    HW1 1025   3.371   1.202   0.355  0.9745  0.4211  3.0991
  342SOL    HW2 1026   3.257   1.159   0.445 -1.2193 -0.7885 -0.0609
  343SOL     OW 1027   0.896   1.302   0.406 -0.2854 -0.6630  0.3285
  343SOL    HW1 1028   0.845   1.382   0.395  3.7725  2.1952 -0.1591
  343SOL    HW2 1029   0.917   1.300   0.500 -0.1896 -1.0112  0.2992
  344SOL     OW 1030   2.374   3.886   1.905  0.3194 -0.5072 -0.1133
  344SOL    HW1 1031   2.433   3.937   1.848  0.2440  0.0981  0.3383
  344SOL    HW2 1032   2.297   3.871   1.851  0.2344  0.0935 -0.1658
  345SOL     OW 1033   2.192   3.889   2.493  0.6420  0.4949  0.5536
  345SOL    HW1 1034   2.109   3.933   2.511  0.5793  0.2862  0.7909
  345SOL    HW2 1035   2.251   3.959   2.464  0.6186  0.7787  1.1652
  346SOL     OW 1036   1.520   2.294   0.852  0.7343  0.5611 -0.0511
  346SOL    HW1 1037   1.560   2.207   0.855  2.0943  1.1160 -0.9933
  346SOL    HW2 1038   1.565   2.339   0.780 -1.0428  1.5310 -0.6263
  347SOL     OW 1039   3.665   2.689   2.873 -0.4521  0.1185 -0.3590
  347SOL    HW1 1040   3.669   2.779   2.839 -1.5573  0.1019 -0.5948
  347SOL    HW2 1041   3.603   2.695   2.946 -0.0738 -0.3448  0.0008
  348SOL     OW 1042   1.334   3.896   2.936  0.0893  0.6505  0.0681
  348SOL    HW1 1043   1.280   3.958   2.985 -0.1380  0.1902  0.3985
  348SOL    HW2 1044   1.346   3.938   2.850  0.5854  1.5066  0.5391
  349SOL     OW 1045   1.640   3.886   0.217  0.4204 -0.6440  0.7400
  349SOL    HW1 1046   1.689   3.806   0.198 -0.4645 -1.1739  0.6302
  349SOL    HW2 1047   1.646   3.938   0.137 -1.2296 -1.7865 -0.1778
  350SOL     OW 1048   0.162   0.991   1.602  0.0941  0.3370  0.0018
  350SOL    HW1 1049   0.219   1.056   1.643  0.4264  0.1393 -0.1449
  350SOL    HW2 1050   0.073   1.022   1.620  0.2511  0.8049 -0.0261
  351SOL     OW 1051   3.235   3.714   3.020  0.4916 -0.5530  0.2475
  351SOL    HW1 1052   3.315   3.712   2.967  1.0316  1.4541  0.8637
  351SOL    HW2 1053   3.229   3.627   3.060  2.6780 -0.6052  0.5824
  352SOL     OW 1054   1.438   1.198   3.405 -0.2199 -0.0603  0.3957
  352SOL    HW1 1055   1.487   1.243   3.336 -0.2442  0.4619  0.7098
  352SOL    HW2 1056   1.467   1.107   3.400  0.4780  0.1613  0.3128
  353SOL     OW 1057   0.526   1.221   0.262  0.0054  0.5150  0.2610
  353SOL    HW1 1058   0.490   1.170   0.191 -0.2661  1.3402 -0.2046
  353SOL    HW2 1059   0.606   1.174   0.287  0.8358  0.9235 -1.4818
  354SOL     OW 1060   1.888   0.337   2.702  0.2068 -0.3328 -0.8328
  354SOL    HW1 1061   1.819   0.341   2.768 -0.6847 -2.2132 -1.6004
  354SOL    HW2 1062   1.842   0.345   2.618  0.5614 -3.5953 -1.4667
  355SOL     OW 1063   1.360   0.743   0.329 -0.1201 -0.8373  1.0193
  355SOL    HW1 1064   1.387   0.768   0.241 -0.5394  1.4103  1.4650
  355SOL    HW2 1065   1.408   0.663   0.348  1.2537 -0.4410 -0.6140
  356SOL     OW 1066   0.489   2.647   3.830  0.0778  0.0777 -0.5903
  356SOL    HW1 1067   0.439   2.667   3.908 -2.5773 -0.7515 -1.9583
  356SOL    HW2 1068   0.514   2.555   3.841  0.9762  0.3722 -0.0962
  357SOL     OW 1069   2.964   3.153   3.066 -0.1394 -0.5365 -0.3972
  357SOL    HW1 1070   2.893   3.125   3.123 -1.6630  1.2273 -1.2785
  357SOL    HW2 1071   2.921   3.171   2.982  1.3123  0.6906 -0.9317
  358SOL     OW 1072   0.631   1.870   0.607  0.3676  0.2404  0.1341
  358SOL    HW1 1073   0.557   1.868   0.546 -0.0096  0.7857  0.5520
  358SOL    HW2 1074   0.686   1.796   0.581 -0.8686 -0.8492  0.4721
  359SOL     OW 1075   2.602   0.918   1.648 -0.2255 -0.5237  0.2150
  359SOL    HW1 1076   2.571   0.954   1.731  1.3308  1.3432  0.0715
  359SOL    HW2 1077   2.638   0.832   1.672 -1.0647 -0.6175  1.2145
  360SOL     OW 1078   2.808   0.956   1.185 -0.5135  0.5906  0.4486
  360SOL    HW1 1079   2.847   0.952   1.272 -0.7574  1.6752  0.6289
  360SOL    HW2 1080   2.729   1.010   1.196 -0.0422  1.5472 -0.6008
  361SOL     OW 1081   3.478   1.784   0.363  0.3500 -0.8954  0.1153
  361SOL    HW1 1082   3.422   1.826   0.298  2.1492 -1.0160 -1.6365
  361SOL    HW2 1083   3.537   1.728   0.311  1.5167 -1.4311  1.9110
  362SOL     OW 1084   2.121   3.866   3.943  0.3757  0.4256 -0.8664
  362SOL    HW1 1085   2.167   3.924   4.004 -1.8877  1.3527  0.0906
  362SOL    HW2 1086   2.083   3.798   3.998  1.2398 -0.7982 -1.7333
  363SOL     OW 1087   3.272   1.245   0.647  0.1426 -0.2321  0.3003
  363SOL    HW1 1088   3.306   1.203   0.726  1.9896  0.2765 -0.1627
  363SOL    HW2 1089   3.337   1.313   0.627 -0.7892  0.2772 -1.1075
  364SOL     OW 1090   0.902   2.747   0.785 -0.7038  0.2609  0.1915
  364SOL    HW1 1091   0.981   2.733   0.733 -2.0791  1.2142 -2.3290
  364SOL    HW2 1092   0.866   2.659   0.798  0.2052 -0.0860  0.4702
  365SOL     OW 1093   2.927   2.432   0.411 -0.0376 -0.7961 -0.4351
  365SOL    HW1 1094   2.861   2.456   0.476 -1.4259  0.3091 -2.1403
  365SOL    HW2 1095   2.904   2.484   0.334  1.0968 -2.5854 -2.0561
  366SOL     OW 1096   2.426   0.961   2.912  0.2547 -0.4283  0.3971
  366SOL    HW1 1097   2.396   0.951   2.822  0.2198 -0.6219  0.4303
  366SOL    HW2 1098   2.388   1.044   2.941 -0.5404 -0.8391  0.5562
  367SOL     OW 1099   1.782   1.768   0.110  0.1094  0.5197 -0.6528
  367SOL    HW1 1100   1.698   1.765   0.064  0.1022 -0.3229 -0.6018
  367SOL    HW2 1101   1.763   1.810   0.193  0.0517  1.7420 -1.2658
  368SOL     OW 1102   0.980   2.478   3.922  0.0866 -0.0486 -0.0240
  368SOL    HW1 1103   0.939   2.522   3.996 -2.2148  0.6686 -1.6185
  368SOL    HW2 1104   1.041   2.542   3.886 -1.2961  0.8776 -0.7531
  369SOL     OW 1105   1.580   3.234   2.377 -0.6450  0.1805 -0.4344
  369SOL    HW1 1106   1.505   3.208   2.430 -1.1240  0.0717 -1.1513
  369SOL    HW2 1107   1.555   3.318   2.339  0.3294  1.0484  0.7377
  370SOL     OW 1108   0.949   2.082   2.065  0.1034  0.5327 -0.5615
  370SOL    HW1 1109   0.959   1.988   2.082 -3.2957 -0.3687 -2.7041
  370SOL    HW2 1110   0.905   2.116   2.143 -2.3009 -0.5846 -1.3351
  371SOL     OW 1111   3.485   1.367   0.187  0.1177 -0.2214 -0.4187
  371SOL    HW1 1112   3.492   1.280   0.146 -0.4821 -0.7412  0.5485
  371SOL    HW2 1113   3.535   1.359   0.268  0.1302  0.3673 -0.3687
  372SOL     OW 1114   0.970   1.221   2.137 -1.2013 -0.1537 -0.4629
  372SOL    HW1 1115   0.944   1.237   2.046 -0.5923  0.3085 -0.5555
  372SOL    HW2 1116   0.893   1.246   2.188 -1.6223 -0.6157 -0.8629
  373SOL     OW 1117   1.354   0.365   1.784  0.5061 -0.2536  0.3573
  373SOL    HW1 1118   1.428   0.363   1.723 -0.1510 -2.1890 -0.4609
  373SOL    HW2 1119   1.392   0.394   1.867  1.9269  0.0263 -0.3577
  374SOL     OW 1120   2.817   0.172   3.426  0.3876  0.4071  0.2253
  374SOL    HW1 1121   2.779   0.259   3.437  1.7384  0.8666  1.7484
  374SOL    HW2 1122   2.878   0.163   3.499  2.6289 -0.5841 -1.6298
  375SOL     OW 1123   0.676   2.142   3.339  0.7037 -0.6611 -0.0223
  375SOL    HW1 1124   0.581   2.137   3.334  0.5044  0.7601  1.4985
  375SOL    HW2 1125   0.696   2.236   3.343  2.1070 -0.9387  0.3524
  376SOL     OW 1126   0.401   1.952   3.828 -0.2041  0.0944  0.1275
  376SOL    HW1 1127   0.482   1.912   3.796  0.7326 -0.1765  2.5553
  376SOL    HW2 1128   0.359   1.883   3.880 -1.2577  0.6839  0.0987
  377SOL     OW 1129   2.196   0.695   3.195  0.3156  0.4273  0.0239
  377SOL    HW1 1130   2.257   0.629   3.227 -0.0548 -1.0979 -2.2047
  377SOL    HW2 1131   2.111   0.653   3.197  0.0669  0.8079 -1.4165
  378SOL     OW 1132   0.998   1.935   3.642 -0.4826  0.2932 -0.0283
  378SOL    HW1 1133   0.972   2.016   3.599  0.0452  0.3118 -0.3282
  378SOL    HW2 1134   0.992   1.868   3.574  0.6633  0.3783 -0.2451
  379SOL     OW 1135   1.309   1.944   3.193  0.1336 -0.2497 -0.3080
  379SOL    HW1 1136   1.214   1.933   3.188  0.1688 -0.5908 -0.2225
  379SOL    HW2 1137   1.337   1.959   3.103  0.0517 -0.5920 -0.3914
  380SOL     OW 1138   2.563   2.948   2.024 -0.0089 -0.3330  0.1106
  380SOL    HW1 1139   2.611   2.866   2.013  0.1062 -0.1698 -0.6457
  380SOL    HW2 1140   2.526   2.942   2.112  1.9260 -0.1768  0.9976
  381SOL     OW 1141   0.424   3.336   2.008  0.1070  0.1172  0.6487
  381SOL    HW1 1142   0.334   3.318   1.980 -0.5318 -0.7778  2.9952
  381SOL    HW2 1143   0.426   3.431   2.018 -0.6276  0.1430  0.6663
  382SOL     OW 1144   1.214   1.152   2.237 -0.1874  0.0963  0.1325
  382SOL    HW1 1145   1.146   1.194   2.186 -1.0831  1.1859  2.0976
  382SOL    HW2 1146   1.228   1.210   2.312  0.1807 -1.9492  1.7716
  383SOL     OW 1147   3.022   3.477   3.827  0.0463 -1.3190  1.1124
  383SOL    HW1 1148   3.099   3.472   3.883  1.9426 -1.4673 -1.3287
  383SOL    HW2 1149   3.056   3.501   3.741 -2.8363  0.2916  0.2606
  384SOL     OW 1150   3.957   0.528   0.156  0.0794 -0.0502  0.4731
  384SOL    HW1 1151   3.953   0.439   0.193  0.3670  0.2366  1.2277
  384SOL    HW2 1152   3.951   0.515   0.062  0.4577 -0.8992  0.5522
  385SOL     OW 1153   2.868   0.312   0.837  0.4403 -0.2733 -0.3651
  385SOL    HW1 1154   2.922   0.319   0.759  1.8163  3.8181  0.6637
  385SOL    HW2 1155   2.929   0.289   0.907 -0.2020 -0.8954  0.0131
  386SOL     OW 1156   0.035   2.380   1.482 -0.9161 -0.0967  0.4757
  386SOL    HW1 1157   0.098   2.311   1.501 -0.1875 -0.1410 -1.7204
  386SOL    HW2 1158  -0.040   2.334   1.443 -0.9391  0.2240  0.1306
  387SOL     OW 1159   2.793   1.801   2.860  0.4286 -0.0408 -0.7880
  387SOL    HW1 1160   2.734   1.726   2.854 -0.8654  0.8054  0.6144
  387SOL    HW2 1161   2.740   1.875   2.833  0.9007  0.7178  0.3021
  388SOL     OW 1162   1.847   1.249   3.302  0.3730 -0.0078 -0.3841
  388SOL    HW1 1163   1.860   1.227   3.395  0.3447  0.7235 -0.2040
  388SOL    HW2 1164   1.754   1.233   3.287 -0.0332  1.6262  0.2062
  389SOL     OW 1165   1.100   2.946   1.378 -0.4604  0.5909  0.7922
  389SOL    HW1 1166   1.194   2.955   1.389 -0.4384  1.5798 -0.0278
  389SOL    HW2 1167   1.086   2.853   1.364  0.4318  0.4675  0.6782
  390SOL     OW 1168   1.631   2.293   1.468 -0.1521  0.4564  0.2278
  390SOL    HW1 1169   1.663   2.242   1.542 -1.1000  0.6241  0.7764
  390SOL    HW2 1170   1.662   2.382   1.485 -1.0183  0.6532  0.8463
  391SOL     OW 1171   0.220   3.250   3.228 -0.2208 -0.3282 -0.1195
  391SOL    HW1 1172   0.191   3.174   3.176  1.5992 -0.0767 -1.6007
  391SOL    HW2 1173   0.211   3.324   3.167 -0.6721  0.4415  0.8639
  392SOL     OW 1174   3.133   3.686   2.385 -0.2328 -0.3360  0.1900
  392SOL    HW1 1175   3.219   3.662   2.348  0.5976  1.3501  0.9242
  392SOL    HW2 1176   3.154   3.743   2.458 -2.0155  0.2534  0.2777
  393SOL     OW 1177   2.637   1.696   1.280  0.2144  0.3702  0.1020
  393SOL    HW1 1178   2.588   1.729   1.356  0.3312  1.0440 -0.1123
  393SOL    HW2 1179   2.571   1.689   1.211 -0.1154 -1.2420  0.5323
  394SOL     OW 1180   0.000   1.052   1.906 -0.6938  0.7387 -0.2150
  394SOL    HW1 1181   0.048   1.116   1.959 -1.0423  2.2670 -1.6291
  394SOL    HW2 1182   0.057   0.975   1.904  0.5364  1.5964  0.1906
  395SOL     OW 1183   3.956   3.852   0.131  0.3662 -0.5440 -0.5283
  395SOL    HW1 1184   3.877   3.864   0.184  2.1225  1.8096  1.8178
  395SOL    HW2 1185   3.963   3.932   0.079  1.5418 -0.4017 -0.1795
  396SOL     OW 1186   3.880   0.917   0.067 -0.3914 -0.4311  0.1625
  396SOL    HW1 1187   3.906   0.999   0.109  3.8671 -1.3005 -0.3122
  396SOL    HW2 1188   3.904   0.848   0.129 -0.8092 -1.4487 -0.7581
  397SOL     OW 1189   3.412   1.075   2.975 -0.5161  0.5139 -0.4483
  397SOL    HW1 1190   3.358   1.130   3.032 -1.3659 -0.1254 -0.6004
  397SOL    HW2 1191   3.394   0.986   3.005  0.4774  0.2782 -0.5057
  398SOL     OW 1192   0.790   2.551   2.038  0.3253  0.3766  0.0186
  398SOL    HW1 1193   0.818   2.559   1.946 -2.7167  1.2142 -0.9641
  398SOL    HW2 1194   0.848   2.610   2.086  3.1615 -1.3843 -0.9539
  399SOL     OW 1195   3.235   0.277   1.959  0.2827  0.4405 -0.0014
  399SOL    HW1 1196   3.254   0.189   1.928 -0.5822  0.6704 -1.2036
  399SOL    HW2 1197   3.266   0.277   2.050 -1.2029 -1.6092  0.5588
  400SOL     OW 1198   1.568   2.176   0.235  0.0650 -0.2292  0.8527
  400SOL    HW1 1199   1.599   2.246   0.176  0.0214  1.7791  3.0860
  400SOL    HW2 1200   1.646   2.123   0.251  0.2620 -0.3365 -0.3360
  401SOL     OW 1201   2.120   1.178   3.233  0.5173 -0.4320 -0.5980
  401SOL    HW1 1202   2.066   1.246   3.273 -0.2715 -1.1815 -0.3567
  401SOL    HW2 1203   2.064   1.139   3.166  0.1631 -2.2034  0.6286
  402SOL     OW 1204   3.863   3.314   0.958 -0.1210 -1.0459 -0.1252
  402SOL    HW1 1205   3.946   3.353   0.985 -0.8927 -0.9736  2.3815
  402SOL    HW2 1206   3.834   3.369   0.885  1.2887 -0.1360 -0.0443
  403SOL     OW 1207   0.836   2.419   1.232 -0.3306  0.3368  0.0876
  403SOL    HW1 1208   0.870   2.442   1.145  2.9745 -0.0424  1.1270
  403SOL    HW2 1209   0.844   2.324   1.236 -0.6589  0.3301  0.7488
  404SOL     OW 1210   1.906   1.776   0.810  0.2848  0.5159  0.9262
  404SOL    HW1 1211   1.983   1.720   0.804  0.5916  1.1220 -1.4790
  404SOL    HW2 1212   1.834   1.716   0.832  0.8113 -0.6618 -0.4343
  405SOL     OW 1213   1.524   0.016   3.735  0.0920  0.2419 -0.1063
  405SOL    HW1 1214   1.481   0.101   3.720  0.3242  0.1951 -1.1139
  405SOL    HW2 1215   1.468  -0.047   3.689 -0.0486 -0.1548  0.5971
  406SOL     OW 1216   2.787   3.098   3.290 -0.3791 -0.0751 -0.3367
  406SOL    HW1 1217   2.771   3.078   3.383  1.0845  1.2784  0.2578
  406SOL    HW2 1218   2.727   3.170   3.271 -0.0971  0.2065 -0.1802
  407SOL     OW 1219   2.603   1.963   2.772 -0.1525  0.0521  0.2593
  407SOL    HW1 1220   2.515   1.928   2.764 -0.2492  0.2749  0.3349
  407SOL    HW2 1221   2.594   2.055   2.748  0.4547 -0.4150 -1.9625
  408SOL     OW 1222   2.851   1.264   1.261 -0.2345  0.1777 -0.3313
  408SOL    HW1 1223   2.822   1.325   1.193 -0.6393  0.6221  0.2267
  408SOL    HW2 1224   2.771   1.221   1.291  0.1926 -1.6105 -1.6221
  409SOL     OW 1225   3.306   2.674   2.497 -0.3367 -0.1091 -0.5840
  409SOL    HW1 1226   3.316   2.666   2.592 -2.8683 -0.6757 -0.2917
  409SOL    HW2 1227   3.322   2.767   2.479  0.5948 -0.0813  0.3139
  410SOL     OW 1228   3.831   0.573   2.379 -0.0401  0.3357 -0.0942
  410SOL    HW1 1229   3.869   0.490   2.349 -0.2200 -0.8224  2.5542
  410SOL    HW2 1230   3.750   0.582   2.330 -1.0848 -2.2131  1.0094
  411SOL     OW 1231   1.187   1.828   1.206  0.0170 -0.3196  0.6885
  411SOL    HW1 1232   1.229   1.911   1.183 -1.1453  0.1725  0.2219
  411SOL    HW2 1233   1.099   1.835   1.167  0.1267 -2.0536  0.0386
  412SOL     OW 1234   1.495   1.355   3.186 -0.1975 -0.9316  0.4112
  412SOL    HW1 1235   1.558   1.373   3.116  0.0588  2.8596  1.4115
  412SOL    HW2 1236   1.411   1.385   3.151 -0.6948 -2.0057  0.6306
  413SOL     OW 1237   0.813   1.005   1.706  0.0069  0.0268  0.6518
  413SOL    HW1 1238   0.767   1.075   1.660 -3.3417 -1.7181  0.9940
  413SOL    HW2 1239   0.802   1.026   1.799  0.0174 -0.3391  0.7375
  414SOL     OW 1240   1.564   1.516   2.611  0.0212  0.4142  0.2857
  414SOL    HW1 1241   1.537   1.441   2.663  2.3739 -0.1061  0.8393
  414SOL    HW2 1242   1.516   1.507   2.529 -1.1097 -0.6608  1.0369
  415SOL     OW 1243   2.076   3.255   3.154 -0.6246 -0.7402  0.0882
  415SOL    HW1 1244   2.129   3.329   3.184  1.8857 -2.6239  0.7163
  415SOL    HW2 1245   1.988   3.273   3.188  0.6921  0.2152  3.4630
  416SOL     OW 1246   3.003   0.139   3.635 -0.1516 -0.3630 -0.8412
  416SOL    HW1 1247   3.056   0.218   3.651 -1.1230 -0.2959  2.8901
  416SOL    HW2 1248   3.068   0.070   3.620  1.0805  0.1014  1.6941
  417SOL     OW 1249   2.594   3.305   3.071  0.0472 -0.1773  0.1957
  417SOL    HW1 1250   2.569   3.286   3.161  3.0433 -2.3743  0.7400
  417SOL    HW2 1251   2.562   3.230   3.020 -2.8799  1.6938 -0.9967
  418SOL     OW 1252   2.990   0.358   3.937  0.2537  0.0070 -0.0922
  418SOL    HW1 1253   3.076   0.377   3.901  0.2027  1.5349  0.4941
  418SOL    HW2 1254   2.929   0.381   3.867  0.2655  0.4034  0.0254
  419SOL     OW 1255   1.996   3.849   1.354 -0.3491 -0.0444 -0.1983
  419SOL    HW1 1256   2.037   3.795   1.422 -2.5534 -2.9380 -0.9716
  419SOL    HW2 1257   2.035   3.818   1.272  1.0609  2.2608 -0.4978
  420SOL     OW 1258   0.252   3.151   2.913  0.2958 -0.0219  0.0901
  420SOL    HW1 1259   0.205   3.165   2.831  0.2627  1.5032  0.3271
  420SOL    HW2 1260   0.295   3.067   2.903  0.8406  0.4343 -1.7522
  421SOL     OW 1261   2.235   0.584   2.779 -0.0935  0.0742 -0.3282
  421SOL    HW1 1262   2.146   0.578   2.814 -0.2152  4.1631  0.5493
  421SOL    HW2 1263   2.292   0.567   2.854 -0.0586 -2.2210 -0.8179
  422SOL     OW 1264   3.250   2.870   2.047  0.3959 -0.8036  0.7907
  422SOL    HW1 1265   3.323   2.823   2.007 -0.5961  0.3109 -2.7423
  422SOL    HW2 1266   3.274   2.962   2.039 -1.5004 -0.3804 -0.9395
  423SOL     OW 1267   0.996   0.964   0.612  1.0941 -0.5022 -0.7304
  423SOL    HW1 1268   0.958   0.894   0.558  2.0575 -1.0958 -0.6679
  423SOL    HW2 1269   0.971   0.942   0.701  1.5514 -0.8827 -0.6911
  424SOL     OW 1270   1.501   3.039   2.674 -0.3636 -0.4343  0.5545
  424SOL    HW1 1271   1.586   3.054   2.716 -0.1049  0.3440 -0.2220
  424SOL    HW2 1272   1.439   3.037   2.747  0.1159  0.6446  1.0167
  425SOL     OW 1273   3.920   0.335   1.110 -0.4156 -0.4464  0.4202
  425SOL    HW1 1274   3.856   0.322   1.181 -0.6791  2.4984  0.8389
  425SOL    HW2 1275   3.877   0.398   1.051 -0.4788 -3.2315 -2.8231
  426SOL     OW 1276   2.887   2.703   0.796 -0.7845  0.2957 -0.5824
  426SOL    HW1 1277   2.912   2.734   0.709 -0.2147  1.6096  0.0171
  426SOL    HW2 1278   2.797   2.672   0.786 -0.7961  0.6303 -1.5913
  427SOL     OW 1279   2.130   3.131   0.277  0.2787 -0.8578  0.0040
  427SOL    HW1 1280   2.206   3.189   0.283  1.9900 -3.1244  2.3237
  427SOL    HW2 1281   2.074   3.172   0.211  1.4337  3.2285  1.2593
  428SOL     OW 1282   2.570   2.594   0.025  0.1756 -0.4464  0.4863
  428SOL    HW1 1283   2.503   2.661   0.040  1.1592  0.5375  0.6142
  428SOL    HW2 1284   2.529   2.513   0.055 -0.9727  0.1182  0.5195
  429SOL     OW 1285   0.065   0.113   2.729 -0.1276 -0.3184 -0.0112
  429SOL    HW1 1286   0.072   0.204   2.700 -1.3714  0.1821  1.1587
  429SOL    HW2 1287  -0.002   0.075   2.673  0.4030 -0.5249 -0.5103
  430SOL     OW 1288   0.899   1.708   3.367  0.3355  0.4366  0.2345
  430SOL    HW1 1289   0.944   1.665   3.439 -0.3300 -1.5139 -0.4573
  430SOL    HW2 1290   0.854   1.638   3.321 -0.5863  1.8516 -1.1359
  431SOL     OW 1291   1.577   2.825   3.029  0.3756  1.0309  0.0053
  431SOL    HW1 1292   1.562   2.851   3.120 -0.3643  0.2974  0.1001
  431SOL    HW2 1293   1.667   2.853   3.011  2.4813 -3.0947  2.5196
  432SOL     OW 1294   3.981   3.613   0.330  0.2657  0.5709  0.2880
  432SOL    HW1 1295   4.015   3.611   0.241 -1.0839 -2.4392 -0.2669
  432SOL    HW2 1296   3.959   3.706   0.345  0.3863  1.1296 -2.5375
  433SOL     OW 1297   1.257   3.576   1.816 -0.1105  0.5755  0.3235
  433SOL    HW1 1298   1.337   3.574   1.765  1.7832 -2.0830  3.0608
  433SOL    HW2 1299   1.199   3.513   1.773  1.2433 -1.2161  0.9949
  434SOL     OW 1300   2.899   2.658   0.241  0.1985  0.3889 -0.2648
  434SOL    HW1 1301   2.915   2.635   0.149  0.7791  1.3913 -0.4273
  434SOL    HW2 1302   2.847   2.738   0.237 -0.0354  0.2656  0.2827
  435SOL     OW 1303   2.856   2.718   0.513 -0.1336  0.1153 -1.3720
  435SOL    HW1 1304   2.837   2.705   0.420 -0.1860  0.1405 -1.3647
  435SOL    HW2 1305   2.782   2.679   0.559 -0.6615  1.0803 -1.3623
  436SOL     OW 1306   3.255   1.506   0.287 -0.1897 -0.0465  0.4030
  436SOL    HW1 1307   3.240   1.415   0.262 -2.2380 -0.1503  1.7335
  436SOL    HW2 1308   3.316   1.501   0.361  1.4107 -0.1385 -0.8807
  437SOL     OW 1309   0.439   0.102   0.867  0.5740 -0.1627 -0.1057
  437SOL    HW1 1310   0.505   0.149   0.918  0.6140 -1.3543  0.9928
  437SOL    HW2 1311   0.440   0.144   0.781  0.5130  1.9110  0.8486
  438SOL     OW 1312   1.745   3.434   1.759 -0.2494  0.1087 -0.3068
  438SOL    HW1 1313   1.824   3.464   1.804 -0.9914  0.0960  1.0546
  438SOL    HW2 1314   1.738   3.342   1.784 -0.9230  0.2234 -0.0612
  439SOL     OW 1315   1.009   1.167   2.873 -0.5582  0.1534  0.2779
  439SOL    HW1 1316   1.043   1.245   2.829 -0.4551 -0.6888 -1.2053
  439SOL    HW2 1317   0.939   1.199   2.930  1.1546  1.6344  1.6631
  440SOL     OW 1318   2.595   0.514   0.067 -0.0870 -0.5525 -0.0306
  440SOL    HW1 1319   2.652   0.591   0.076  1.2751 -1.6764  1.5912
  440SOL    HW2 1320   2.517   0.548   0.024  0.5909  1.6842  0.3410
  441SOL     OW 1321   2.192   3.116   2.888 -0.3290 -0.3067  0.4749
  441SOL    HW1 1322   2.165   3.155   2.805  1.0894  0.0465  0.1572
  441SOL    HW2 1323   2.154   3.173   2.955 -0.3583  0.1705  0.0539
  442SOL     OW 1324   3.413   0.355   0.699 -0.4620 -0.6744  0.0716
  442SOL    HW1 1325   3.473   0.337   0.772 -0.6572 -3.2840 -0.3348
  442SOL    HW2 1326   3.450   0.308   0.625 -0.5691  1.4944 -1.4473
  443SOL     OW 1327   1.300   2.345   2.680 -0.2293  0.3399  0.2144
  443SOL    HW1 1328   1.365   2.278   2.702 -0.8298  0.5901  3.0724
  443SOL    HW2 1329   1.347   2.407   2.624  1.8732  0.2326  1.7693
  444SOL     OW 1330   0.148   1.637   0.825 -0.0584 -0.0737  0.4179
  444SOL    HW1 1331   0.141   1.624   0.731  0.1979 -0.6197  0.4672
  444SOL    HW2 1332   0.150   1.548   0.861 -0.6551  0.1354  0.9752
  445SOL     OW 1333   0.818   0.557   3.262 -0.6631  0.1551 -0.4911
  445SOL    HW1 1334   0.730   0.523   3.274 -0.1700 -1.2797 -0.7770
  445SOL    HW2 1335   0.806   0.635   3.207 -1.6393 -0.7453 -1.6122
  446SOL     OW 1336   0.894   2.121   3.485  0.0146 -0.9515  0.3261
  446SOL    HW1 1337   0.978   2.138   3.442  0.4341 -0.4064  1.3107
  446SOL    HW2 1338   0.830   2.124   3.414  0.7962 -1.1133 -0.4045
  447SOL     OW 1339   1.131   2.221   3.949  0.9699 -0.0547 -0.1378
  447SOL    HW1 1340   1.040   2.251   3.955  1.1614  0.7512 -0.9836
  447SOL    HW2 1341   1.128   2.130   3.977 -0.6200 -0.9655 -2.8613
  448SOL     OW 1342   2.026   1.303   2.669  0.2566  0.4797  0.1990
  448SOL    HW1 1343   1.977   1.371   2.623  0.4653  1.0349  0.7889
  448SOL    HW2 1344   1.993   1.305   2.759 -1.6371 -1.9982 -0.3355
  449SOL     OW 1345   0.432   1.214   0.850  0.9834  0.3571 -0.4602
  449SOL    HW1 1346   0.441   1.119   0.847  2.9153  0.5059 -0.8543
  449SOL    HW2 1347   0.516   1.247   0.815 -0.8273  2.1804 -3.5728
  450SOL     OW 1348   1.555   0.875   3.007 -0.1961  0.0773  0.2384
  450SOL    HW1 1349   1.540   0.830   2.924  1.9578 -2.1591  0.9265
  450SOL    HW2 1350   1.476   0.928   3.021 -0.2838  1.2570 -3.5928
  451SOL     OW 1351   0.588   0.665   0.497 -0.0333  0.6643 -0.1925
  451SOL    HW1 1352   0.585   0.569   0.488 -2.3325  0.5803  0.6887
  451SOL    HW2 1353   0.540   0.697   0.420  3.2097  1.3438 -2.0935
  452SOL     OW 1354   0.933   0.204   0.945  0.9276  0.4085 -0.0579
  452SOL    HW1 1355   1.016   0.241   0.913  1.0290 -0.6526 -1.1036
  452SOL    HW2 1356   0.959   0.125   0.992  0.5618  0.4877  0.2797
  453SOL     OW 1357   0.665   0.289   2.383 -0.1244  0.2427 -0.2334
  453SOL    HW1 1358   0.619   0.373   2.387 -0.3029  0.1086  1.8935
  453SOL    HW2 1359   0.757   0.313   2.377 -0.2078  0.5982 -0.1589
  454SOL     OW 1360   0.150   0.657   3.858  0.5426 -0.5468  0.0534
  454SOL    HW1 1361   0.220   0.604   3.895  1.6226 -0.1395 -1.3144
  454SOL    HW2 1362   0.073   0.600   3.857  1.0630 -1.2725  0.8072
  455SOL     OW 1363   1.849   3.565   3.155 -0.6353 -0.2306 -0.6775
  455SOL    HW1 1364   1.855   3.480   3.199 -0.1428  0.5308  0.7667
  455SOL    HW2 1365   1.930   3.571   3.104 -0.8324 -0.7681 -1.0638
  456SOL     OW 1366   3.701   1.688   3.051 -0.6448 -0.5573 -0.2338
  456SOL    HW1 1367   3.653   1.731   2.980 -1.7916 -2.3204 -0.6200
  456SOL    HW2 1368   3.725   1.758   3.111 -0.8436  0.8032 -1.6946
  457SOL     OW 1369   1.682   0.660   3.088  0.8869  0.4641  0.1729
  457SOL    HW1 1370   1.628   0.738   3.083 -1.5727 -1.0163  1.7174
  457SOL    HW2 1371   1.731   0.670   3.170  1.3129  0.7825 -0.1125
  458SOL     OW 1372   3.545   3.254   0.034  0.1435 -0.0128 -0.7013
  458SOL    HW1 1373   3.562   3.346   0.014  0.5485  0.1887  0.4713
  458SOL    HW2 1374   3.539   3.251   0.130 -2.5583 -0.7269 -0.7849
  459SOL     OW 1375   1.530   1.809   0.024 -0.5063 -0.4142  1.1190
  459SOL    HW1 1376   1.517   1.714   0.026  1.6150 -0.7623  3.3322
  459SOL    HW2 1377   1.464   1.844   0.082  0.9216 -0.9735  3.1822
  460SOL     OW 1378   3.242   0.297   2.908  0.0669 -0.0545  0.1789
  460SOL    HW1 1379   3.320   0.331   2.864 -0.6156 -0.0953 -1.1036
  460SOL    HW2 1380   3.207   0.371   2.957  0.4754  0.1716  0.1241
  461SOL     OW 1381   2.449   1.719   3.059  0.0436  0.5321  0.0500
  461SOL    HW1 1382   2.421   1.659   3.129  1.1762  2.6240  2.4437
  461SOL    HW2 1383   2.514   1.776   3.101  0.7232  1.9623 -2.7320
  462SOL     OW 1384   1.132   3.143   3.050  0.2797  0.8002 -0.2661
  462SOL    HW1 1385   1.085   3.204   3.107 -0.1115 -0.6144  0.9910
  462SOL    HW2 1386   1.063   3.092   3.007  0.6076  0.8075 -0.8092
  463SOL     OW 1387   1.994   1.262   1.506  0.1369  0.0200 -0.1629
  463SOL    HW1 1388   1.927   1.270   1.575 -1.2519 -2.1723 -1.1588
  463SOL    HW2 1389   2.057   1.200   1.542 -1.0000 -1.7550 -1.0455
  464SOL     OW 1390   0.723   0.529   2.579 -1.0363 -0.4061  0.5393
  464SOL    HW1 1391   0.712   0.623   2.592 -1.7421 -0.7938  3.2764
  464SOL    HW2 1392   0.695   0.514   2.488 -5.0109  1.4642  1.2543
  465SOL     OW 1393   0.490   1.967   3.183 -0.6783 -0.1545 -0.6399
  465SOL    HW1 1394   0.450   1.998   3.264  2.5064  0.8175  0.7078
  465SOL    HW2 1395   0.487   1.871   3.190 -1.1525 -0.0868  0.2299
  466SOL     OW 1396   0.473   0.502   3.035 -0.3943  0.4675  0.1789
  466SOL    HW1 1397   0.386   0.468   3.015 -1.8577  2.6603  2.2503
  466SOL    HW2 1398   0.509   0.528   2.950 -1.5110 -0.9541 -0.7721
  467SOL     OW 1399   1.526   0.129   3.284  0.4296  0.1152  0.1111
  467SOL    HW1 1400   1.577   0.091   3.212 -0.3800 -2.0259  0.5923
  467SOL    HW2 1401   1.435   0.126   3.254  0.3171  1.5911  0.2377
  468SOL     OW 1402   1.409   3.117   2.020 -0.0124  0.1966 -0.0464
  468SOL    HW1 1403   1.381   3.095   2.109 -2.1715  0.4034 -0.6075
  468SOL    HW2 1404   1.385   3.209   2.009  2.6050  0.9520 -0.0311
  469SOL     OW 1405   1.509   3.564   1.135 -0.0874 -0.1958 -0.2129
  469SOL    HW1 1406   1.597   3.591   1.163 -0.3096  0.6606 -0.3036
  469SOL    HW2 1407   1.521   3.475   1.101  0.5330 -0.5245  0.8049
  470SOL     OW 1408   0.696   2.582   0.566 -0.9155  0.0656  0.7568
  470SOL    HW1 1409   0.745   2.528   0.628 -1.0658  1.1703  1.8578
  470SOL    HW2 1410   0.629   2.625   0.619 -0.8550  1.2789 -0.1227
  471SOL     OW 1411   1.567   3.840   1.734 -0.2392 -0.0453  0.0278
  471SOL    HW1 1412   1.544   3.757   1.777  0.1482  0.1988  0.7100
  471SOL    HW2 1413   1.568   3.818   1.641 -2.0627 -0.3560  0.0422
  472SOL     OW 1414   0.550   3.241   0.996 -0.7963  0.5941  0.1611
  472SOL    HW1 1415   0.622   3.177   0.997 -0.3723  1.0689  0.5501
  472SOL    HW2 1416   0.591   3.323   1.023 -1.7881  0.5492  1.9562
  473SOL     OW 1417   2.617   3.289   2.749 -0.2059  0.2742  0.6550
  473SOL    HW1 1418   2.562   3.323   2.678  1.7526 -0.0484 -1.1207
  473SOL    HW2 1419   2.587   3.336   2.827 -0.8436  2.5056 -0.8257
  474SOL     OW 1420   0.015   1.772   1.057 -1.0674  0.4434 -0.1132
  474SOL    HW1 1421   0.011   1.867   1.060 -3.1283  0.5283 -2.7456
  474SOL    HW2 1422   0.061   1.752   0.976 -2.0939 -0.7629 -0.4309
  475SOL     OW 1423   3.116   2.424   2.520 -0.3196  0.2871  0.9907
  475SOL    HW1 1424   3.153   2.366   2.587 -0.3460 -1.1877 -0.1961
  475SOL    HW2 1425   3.177   2.497   2.515  2.4406 -1.9100 -0.6858
  476SOL     OW 1426   3.092   1.761   3.282 -0.6692  0.3212 -0.1317
  476SOL    HW1 1427   3.020   1.779   3.343 -1.9868  2.5699 -2.1584
  476SOL    HW2 1428   3.121   1.673   3.304 -1.4395  0.7901  3.3086
  477SOL     OW 1429   1.932   2.827   0.168 -0.1257 -0.0414  0.0414
  477SOL    HW1 1430   2.021   2.859   0.153  1.1453 -1.5105  3.3343
  477SOL    HW2 1431   1.875   2.900   0.144  2.1841  2.2363  1.0342
  478SOL     OW 1432   2.499   0.208   1.360  0.4376 -0.2308  0.9309
  478SOL    HW1 1433   2.429   0.219   1.296  2.2278  0.1610 -1.0630
  478SOL    HW2 1434   2.521   0.297   1.388 -2.0067 -0.4425  4.2073
  479SOL     OW 1435   2.540   3.867   0.992  0.1329 -0.3400 -0.0943
  479SOL    HW1 1436   2.592   3.930   1.042 -1.9315  0.0727  1.6499
  479SOL    HW2 1437   2.503   3.918   0.920  0.3398 -0.1089 -0.0390
  480SOL     OW 1438   2.369   2.042   3.895  0.3712 -0.6917  0.3332
  480SOL    HW1 1439   2.343   1.982   3.825 -1.1485 -0.0710  0.3316
  480SOL    HW2 1440   2.352   1.993   3.976  1.9963 -1.3576  0.2954
  481SOL     OW 1441   2.882   0.273   0.500 -0.0595  0.0666 -0.6376
  481SOL    HW1 1442   2.955   0.318   0.457  0.2423  0.2800  0.0804
  481SOL    HW2 1443   2.851   0.210   0.436  0.4527  0.3082 -1.1278
  482SOL     OW 1444   0.392   0.653   3.253  0.1856 -0.4401  0.7856
  482SOL    HW1 1445   0.297   0.642   3.243 -0.1198  1.2108  1.5082
  482SOL    HW2 1446   0.429   0.612   3.175 -1.1860 -0.4419  0.0973
  483SOL     OW 1447   0.683   2.285   1.979 -0.1199  0.2708  0.7915
  483SOL    HW1 1448   0.682   2.381   1.971  0.3988  0.4298  2.2999
  483SOL    HW2 1449   0.772   2.264   2.007 -0.9361 -0.3669  3.1594
  484SOL     OW 1450   3.662   1.340   0.387 -0.0491 -0.0664 -0.9594
  484SOL    HW1 1451   3.735   1.401   0.378  0.3741 -0.1947  0.9886
  484SOL    HW2 1452   3.642   1.341   0.481 -2.2231 -0.4359 -1.3603
  485SOL     OW 1453   0.359   1.110   1.806 -0.7571 -0.2989 -0.2378
  485SOL    HW1 1454   0.367   1.204   1.789 -0.4726  0.1446  2.0712
  485SOL    HW2 1455   0.446   1.075   1.787 -0.3839  0.2007  0.5241
  486SOL     OW 1456   1.406   1.261   0.891 -0.3822 -0.6319 -0.4242
  486SOL    HW1 1457   1.335   1.197   0.886 -0.0823 -0.9646 -0.4979
  486SOL    HW2 1458   1.430   1.263   0.984 -0.7135 -0.2647 -0.3430
  487SOL     OW 1459   3.088   0.173   0.966  0.0419 -0.3071  0.4885
  487SOL    HW1 1460   3.133   0.185   1.049  0.1767 -2.2555  0.7467
  487SOL    HW2 1461   3.037   0.092   0.978 -0.1702 -0.4620 -1.2181
  488SOL     OW 1462   3.646   2.862   1.538  0.2138 -0.7222  0.3195
  488SOL    HW1 1463   3.611   2.902   1.458 -1.1314 -0.1333  1.1780
  488SOL    HW2 1464   3.741   2.858   1.522 -0.1873 -3.4103 -2.5547
  489SOL     OW 1465   0.931   0.984   3.651  0.0632  0.0194 -0.3458
  489SOL    HW1 1466   0.839   1.010   3.654 -0.3184 -1.2688 -0.3837
  489SOL    HW2 1467   0.973   1.036   3.719 -1.1206 -0.9468  1.1952
  490SOL     OW 1468   3.068   0.188   2.291 -0.9080  0.0573 -0.3491
  490SOL    HW1 1469   3.004   0.217   2.355  0.5268  0.3255  1.0087
  490SOL    HW2 1470   3.032   0.216   2.207 -2.2627  0.7325  0.4268
  491SOL     OW 1471   1.966   2.016   3.305 -0.6544  0.1052 -0.4272
  491SOL    HW1 1472   2.027   1.975   3.244  2.6784  3.1056  0.5053
  491SOL    HW2 1473   1.985   1.977   3.390  0.1401  1.1220 -0.1133
  492SOL     OW 1474   3.014   3.884   1.096  0.4469  0.3323  0.0327
  492SOL    HW1 1475   3.046   3.921   1.178 -1.2375 -0.6682  1.1831
  492SOL    HW2 1476   2.970   3.803   1.121 -1.1532  0.5981 -1.6956
  493SOL     OW 1477   1.430   2.618   3.852  0.4414  0.3241 -0.0468
  493SOL    HW1 1478   1.441   2.530   3.888 -0.7263 -0.2474 -1.0066
  493SOL    HW2 1479   1.464   2.612   3.763  0.4745  0.8835 -0.0758
  494SOL     OW 1480   1.266   2.738   1.280 -0.9073 -0.2448 -0.3576
  494SOL    HW1 1481   1.234   2.705   1.364 -2.1864  0.1887 -0.6517
  494SOL    HW2 1482   1.232   2.676   1.215 -1.0855  0.1806 -0.6754
  495SOL     OW 1483   2.623   2.223   2.669  0.6217  0.1450 -0.5760
  495SOL    HW1 1484   2.717   2.207   2.658  0.6849 -0.2866  0.4978
  495SOL    HW2 1485   2.595   2.259   2.585  1.1417 -2.4979 -1.9696
  496SOL     OW 1486   2.537   3.272   3.328  0.4963 -0.1186 -0.7665
  496SOL    HW1 1487   2.522   3.187   3.370  0.4280 -0.1732 -0.9017
  496SOL    HW2 1488   2.497   3.335   3.388 -1.9782 -0.3980 -1.9931
  497SOL     OW 1489   0.192   0.011   0.738 -0.0743 -0.1364  0.2097
  497SOL    HW1 1490   0.272   0.020   0.790 -1.2779 -0.4226  2.2375
  497SOL    HW2 1491   0.142   0.090   0.758 -0.6167 -0.3122 -0.4339
  498SOL     OW 1492   1.080   3.777   1.855  0.1099 -0.5573 -0.3839
  498SOL    HW1 1493   1.005   3.793   1.797  0.5081 -2.2414 -1.4087
  498SOL    HW2 1494   1.141   3.727   1.802  2.5059  1.6716  0.0751
  499SOL     OW 1495   0.379   1.072   0.069  0.3172 -0.0478  0.3968
  499SOL    HW1 1496   0.289   1.101   0.054  0.4488 -0.3470 -1.1331
  499SOL    HW2 1497   0.382   0.984   0.033  0.8873 -0.5910  1.6927
  500SOL     OW 1498   1.063   3.036   3.894  0.2323 -0.8730 -0.2844
  500SOL    HW1 1499   0.992   2.979   3.921  0.3394 -1.6295 -1.5130
  500SOL    HW2 1500   1.051   3.047   3.800 -0.1163  1.6271 -0.0069
  501SOL     OW 1501   3.707   0.380   2.640 -0.1640  0.7673  0.0433
  501SOL    HW1 1502   3.791   0.361   2.598 -1.1522  0.1879 -1.7955
  501SOL    HW2 1503   3.692   0.473   2.623  0.4982  1.1094  1.1936
  502SOL     OW 1504   3.051   1.714   2.823  0.1278 -0.0318  0.0083
  502SOL    HW1 1505   2.956   1.730   2.819  0.1817  1.2176  2.1264
  502SOL    HW2 1506   3.080   1.719   2.732 -1.7974 -0.1114 -0.6481
  503SOL     OW 1507   2.294   2.934   0.788 -0.1102 -0.6334 -0.2619
  503SOL    HW1 1508   2.262   2.885   0.864 -1.3394 -2.2891 -1.7421
  503SOL    HW2 1509   2.225   2.999   0.770  0.5118  0.2338  0.4309
  504SOL     OW 1510   1.745   1.790   2.427  0.3519  0.2670 -0.3952
  504SOL    HW1 1511   1.802   1.839   2.486 -0.6797 -0.4255  1.2291
  504SOL    HW2 1512   1.773   1.817   2.339  0.3346  3.2241  0.3957
  505SOL     OW 1513   0.462   1.047   1.276  0.0027 -0.2520 -0.5270
  505SOL    HW1 1514   0.442   0.996   1.198  1.5349  1.2521 -2.0129
  505SOL    HW2 1515   0.556   1.032   1.291 -0.3904 -1.0655  1.5101
  506SOL     OW 1516   1.816   2.210   3.878 -0.7114 -0.5096 -0.1807
  506SOL    HW1 1517   1.844   2.295   3.844 -1.9328 -1.2525 -3.3334
  506SOL    HW2 1518   1.876   2.193   3.951  0.7643  2.1808 -0.6363
  507SOL     OW 1519   3.006   2.817   2.344  0.3118 -0.0765 -0.1741
  507SOL    HW1 1520   2.930   2.821   2.402  0.9406  1.1085  0.6164
  507SOL    HW2 1521   3.073   2.869   2.389  0.0961  3.0676 -3.0504
  508SOL     OW 1522   2.592   1.082   3.916  0.2531 -0.2625 -0.0576
  508SOL    HW1 1523   2.653   1.135   3.967  0.2596 -0.9209  0.6314
  508SOL    HW2 1524   2.533   1.043   3.981 -1.4473  0.9847 -0.7559
  509SOL     OW 1525   0.153   1.461   2.939  0.0325 -0.5649  0.7325
  509SOL    HW1 1526   0.088   1.451   3.008  0.1152 -0.4583  0.8264
  509SOL    HW2 1527   0.102   1.473   2.859 -0.0663 -0.0217  0.8719
  510SOL     OW 1528   3.547   1.934   0.601 -0.5706 -0.0177  0.0627
  510SOL    HW1 1529   3.525   1.935   0.508  1.4342  1.4241 -0.4458
  510SOL    HW2 1530   3.609   1.861   0.610 -0.5148  0.0483  0.2122
  511SOL     OW 1531   1.215   3.435   2.615  0.1208  0.1118  1.0939
  511SOL    HW1 1532   1.216   3.420   2.710 -0.6382 -0.8787  0.9572
  511SOL    HW2 1533   1.175   3.522   2.606  1.7766  0.9865  1.7469
  512SOL     OW 1534   1.254   0.257   1.072 -0.0986 -0.4439 -0.1706
  512SOL    HW1 1535   1.176   0.270   1.126  0.7554  0.3084  0.9140
  512SOL    HW2 1536   1.262   0.162   1.064  0.4770 -0.6590  2.1713
  513SOL     OW 1537   1.227   0.901   2.211 -0.6825 -0.0684 -0.0959
  513SOL    HW1 1538   1.145   0.851   2.209 -0.0735 -1.0632 -1.0948
  513SOL    HW2 1539   1.199   0.992   2.202 -1.7600 -0.2650  0.9611
  514SOL     OW 1540   2.352   0.881   1.533 -0.2665 -0.4473 -0.0223
  514SOL    HW1 1541   2.333   0.793   1.566 -0.5900  0.1171  1.3616
  514SOL    HW2 1542   2.442   0.898   1.561  0.7317 -1.2661 -2.4560
  515SOL     OW 1543   2.155   3.683   0.630 -0.2659  0.2185 -0.0522
  515SOL    HW1 1544   2.233   3.627   0.634 -0.4674  0.0184  1.7283
  515SOL    HW2 1545   2.160   3.724   0.543 -0.1855 -2.6112 -1.4857
  516SOL     OW 1546   1.933   0.565   2.526  0.2164  0.1176 -0.1601
  516SOL    HW1 1547   1.958   0.656   2.511 -0.0659  0.2646  0.2468
  516SOL    HW2 1548   1.914   0.560   2.620 -0.3219 -0.2245 -0.2811
  517SOL     OW 1549   3.469   1.927   3.235  0.5989  0.2528 -0.3539
  517SOL    HW1 1550   3.493   1.983   3.309  0.4484 -0.6518  0.4065
  517SOL    HW2 1551   3.378   1.950   3.216  1.0537  1.4414 -1.1548
  518SOL     OW 1552   2.381   2.236   0.846  0.2527 -0.0089 -0.6408
  518SOL    HW1 1553   2.384   2.175   0.772  0.2370  1.4874 -1.9345
  518SOL    HW2 1554   2.403   2.183   0.922 -0.1874 -1.7081 -1.6475
  519SOL     OW 1555   0.203   2.144   2.926 -0.0472 -0.2532 -0.6054
  519SOL    HW1 1556   0.121   2.131   2.879 -0.5235 -0.6805  0.3037
  519SOL    HW2 1557   0.238   2.226   2.892 -0.9728  0.0576 -0.8392
  520SOL     OW 1558   1.031   3.297   1.903 -0.3409  0.2342  0.5458
  520SOL    HW1 1559   0.951   3.267   1.860 -0.6408  0.4392  0.9578
  520SOL    HW2 1560   1.067   3.363   1.843 -1.1562  1.0680  0.9479
  521SOL     OW 1561   3.441   2.697   2.175  0.1171 -0.1201 -0.1828
  521SOL    HW1 1562   3.373   2.730   2.234 -1.9380 -1.4325 -1.6779
  521SOL    HW2 1563   3.393   2.652   2.106  2.5391 -1.0104 -1.4065
  522SOL     OW 1564   3.139   1.562   3.014 -0.0937  0.2448  0.1565
  522SOL    HW1 1565   3.203   1.532   2.949 -2.1099 -1.5821 -1.1196
  522SOL    HW2 1566   3.091   1.632   2.969 -1.9497 -1.4795 -0.7197
  523SOL     OW 1567   3.032   3.142   1.930 -0.2444  0.1756 -0.0627
  523SOL    HW1 1568   2.987   3.226   1.920  0.2522  0.4135 -0.3598
  523SOL    HW2 1569   3.023   3.120   2.022 -3.4597 -1.2101 -0.5578
  524SOL     OW 1570   1.311   1.588   2.447  0.2321  0.2876 -0.7709
  524SOL    HW1 1571   1.291   1.630   2.364  0.2882  2.4981  0.2450
  524SOL    HW2 1572   1.253   1.632   2.510  0.4079 -1.1037  0.4032
  525SOL     OW 1573   2.096   1.589   0.789  0.2918 -0.2231  0.2459
  525SOL    HW1 1574   2.080   1.503   0.828  1.7555  0.5949  2.9426
  525SOL    HW2 1575   2.168   1.575   0.728 -0.6321 -1.1727 -0.6735
  526SOL     OW 1576   2.278   0.030   3.659  0.2119  0.7346 -0.6665
  526SOL    HW1 1577   2.259  -0.017   3.578  1.2460 -0.1531 -0.4158
  526SOL    HW2 1578   2.337   0.101   3.631  1.7662 -0.4434 -0.5245
  527SOL     OW 1579   3.320   0.110   3.107 -0.2700 -0.1265  0.1705
  527SOL    HW1 1580   3.326   0.177   3.175 -0.9872 -0.9679  1.1010
  527SOL    HW2 1581   3.339   0.156   3.026  1.7416  0.6970  1.0298
  528SOL     OW 1582   2.193   2.805   1.421 -0.0001 -0.0699  0.6283
  528SOL    HW1 1583   2.105   2.794   1.457  0.6438  0.4970  2.4775
  528SOL    HW2 1584   2.200   2.736   1.355 -1.0818 -1.5325  1.9348
  529SOL     OW 1585   1.899   3.194   0.165  0.3952 -0.3295 -0.0435
  529SOL    HW1 1586   1.875   3.120   0.109  0.5507 -0.4892  0.1041
  529SOL    HW2 1587   1.817   3.242   0.178  0.3323 -0.3689 -0.2961
  530SOL     OW 1588   1.986   2.729   1.007 -0.8593  0.9500 -0.1636
  530SOL    HW1 1589   2.063   2.706   1.057 -1.1544  1.9171  0.7651
  530SOL    HW2 1590   1.919   2.749   1.072 -2.4003 -1.3418 -0.9195
  531SOL     OW 1591   1.173   0.932   1.723  0.0457  0.3988 -0.2813
  531SOL    HW1 1592   1.140   0.853   1.681 -0.8488  0.1926  0.7465
  531SOL    HW2 1593   1.248   0.958   1.671  1.6868 -2.3159  0.5468
  532SOL     OW 1594   1.279   2.538   0.487  0.2404  0.0027 -0.4569
  532SOL    HW1 1595   1.228   2.465   0.521  0.8498 -0.0090  0.4637
  532SOL    HW2 1596   1.318   2.503   0.406  0.1932 -0.5525 -0.2480
  533SOL     OW 1597   0.434   0.910   2.229  0.0668 -0.2973  0.4064
  533SOL    HW1 1598   0.368   0.840   2.238 -1.7346  1.1880 -0.5138
  533SOL    HW2 1599   0.405   0.978   2.290  0.0845  0.8539 -0.8358
  534SOL     OW 1600   2.801   0.963   2.044 -0.0355  0.0654  0.1139
  534SOL    HW1 1601   2.750   1.039   2.073 -1.8034 -1.1894  0.4785
  534SOL    HW2 1602   2.762   0.939   1.960 -1.0672 -1.7700  1.0655
  535SOL     OW 1603   3.941   3.663   3.233 -0.6416 -0.2848 -0.9713
  535SOL    HW1 1604   4.020   3.667   3.286 -1.8004  0.4455  0.7875
  535SOL    HW2 1605   3.954   3.588   3.176  0.1846 -1.8453  1.1616
  536SOL     OW 1606   0.998   3.309   2.241  0.4670  0.0672 -0.5505
  536SOL    HW1 1607   1.008   3.265   2.157 -2.7598 -0.3263 -0.8623
  536SOL    HW2 1608   0.933   3.256   2.288  0.0560  1.8406  1.0006
  537SOL     OW 1609   2.224   3.858   3.430 -0.5437 -0.0800  0.4639
  537SOL    HW1 1610   2.310   3.857   3.390 -1.6162  0.4049 -2.0474
  537SOL    HW2 1611   2.172   3.796   3.378 -1.7996 -0.1542  1.7256
  538SOL     OW 1612   3.530   1.482   3.618  0.1445 -0.1866 -0.7522
  538SOL    HW1 1613   3.481   1.402   3.600 -0.9863  0.1646  0.5764
  538SOL    HW2 1614   3.567   1.468   3.705  0.1832  0.6251 -0.6304
  539SOL     OW 1615   0.986   2.548   3.368 -0.0902 -0.0416  0.4512
  539SOL    HW1 1616   1.077   2.571   3.350 -0.4387  1.4322  0.4940
  539SOL    HW2 1617   0.989   2.501   3.451  0.9504 -2.6128 -0.9180
  540SOL     OW 1618   2.933   1.411   2.211 -0.4260  0.1620  0.0136
  540SOL    HW1 1619   2.862   1.474   2.197 -0.6524 -0.6231 -2.8456
  540SOL    HW2 1620   2.888   1.330   2.235 -0.5747 -0.3535 -1.8636
  541SOL     OW 1621   2.203   2.429   0.443  0.3672 -0.1002 -0.0500
  541SOL    HW1 1622   2.159   2.386   0.516 -1.3754  2.0362  0.2915
  541SOL    HW2 1623   2.146   2.503   0.421  3.7808  2.9462  0.3840
  542SOL     OW 1624   3.438   1.793   0.844 -0.5261 -0.5475 -0.0376
  542SOL    HW1 1625   3.360   1.846   0.832  0.1930  0.5052 -0.2358
  542SOL    HW2 1626   3.443   1.739   0.765  0.5157  1.5201 -1.5077
  543SOL     OW 1627   2.980   2.292   0.743  0.7711 -0.1790  0.0920
  543SOL    HW1 1628   2.924   2.308   0.668  0.0975  1.2186  0.8472
  543SOL    HW2 1629   3.020   2.207   0.727  0.2884 -0.1038 -1.6098
  544SOL     OW 1630   0.364   2.515   1.181  0.4513 -0.1522  0.6959
  544SOL    HW1 1631   0.286   2.472   1.147 -0.2885  1.3601  0.3709
  544SOL    HW2 1632   0.430   2.502   1.114 -0.0677  0.1051  0.1242
  545SOL     OW 1633   2.564   0.643   0.813 -0.5915  1.0556 -0.3124
  545SOL    HW1 1634   2.627   0.594   0.760 -0.5254  1.0664 -0.2426
  545SOL    HW2 1635   2.528   0.578   0.873 -0.0633  1.2233  0.1899
  546SOL     OW 1636   3.005   2.653   1.783 -0.1175  0.0714 -0.7012
  546SOL    HW1 1637   3.043   2.703   1.710  0.0156  0.8191 -0.1383
  546SOL    HW2 1638   3.009   2.713   1.857 -3.2134  0.5374 -0.7857
  547SOL     OW 1639   1.936   3.335   2.832  0.2340  0.1100 -0.0841
  547SOL    HW1 1640   1.884   3.311   2.755  2.9485 -3.7594 -1.0384
  547SOL    HW2 1641   1.873   3.332   2.905 -1.8128  0.8263 -1.7290
  548SOL     OW 1642   1.189   3.659   0.315 -0.1312 -0.1355 -0.2318
  548SOL    HW1 1643   1.247   3.586   0.338  0.1578  0.0397 -0.4022
  548SOL    HW2 1644   1.246   3.736   0.316 -1.0412  0.6913  3.3559
  549SOL     OW 1645   1.796   3.075   2.734 -0.1073 -0.2172  0.0949
  549SOL    HW1 1646   1.865   3.041   2.677 -0.3732 -1.3580  0.4188
  549SOL    HW2 1647   1.757   3.147   2.685  1.6584  0.8173  0.1298
  550SOL     OW 1648   2.369   0.257   0.135  0.5945 -0.3653 -0.3120
  550SOL    HW1 1649   2.425   0.199   0.084  2.4012  1.4262 -0.4988
  550SOL    HW2 1650   2.401   0.345   0.115 -1.6793  0.6813  0.3718
  551SOL     OW 1651   1.385   3.483   0.411  0.6011  0.0233  0.4286
  551SOL    HW1 1652   1.462   3.459   0.359  0.6665 -1.3504  1.1054
  551SOL    HW2 1653   1.417   3.485   0.501  0.0034  0.1421  0.6422
  552SOL     OW 1654   2.025   0.030   3.735 -0.2659  0.9291  0.1034
  552SOL    HW1 1655   2.033  -0.029   3.810 -0.0227  1.6960  0.6865
  552SOL    HW2 1656   2.114   0.035   3.700 -0.5166 -0.0733 -0.7622
  553SOL     OW 1657   3.238   0.644   2.311 -1.2007 -0.2626 -0.1462
  553SOL    HW1 1658   3.285   0.717   2.350 -2.4063 -0.1926  1.2774
  553SOL    HW2 1659   3.161   0.684   2.270 -0.9550 -0.5583 -0.9188
  554SOL     OW 1660   1.506   1.762   1.017  0.0403  0.0816  0.2830
  554SOL    HW1 1661   1.458   1.685   0.987  2.0478 -1.1071 -0.0594
  554SOL    HW2 1662   1.453   1.836   0.989 -0.8643 -1.1259 -1.3325
  555SOL     OW 1663   3.793   0.580   1.055  1.3078 -0.2997  0.1480
  555SOL    HW1 1664   3.760   0.649   1.113  0.1876  0.1592 -1.0050
  555SOL    HW2 1665   3.874   0.616   1.019  0.5433  0.5913 -0.7246
  556SOL     OW 1666   2.704   2.182   0.592  0.1337  0.6514 -0.7997
  556SOL    HW1 1667   2.769   2.113   0.598  1.4312  1.7980 -1.1326
  556SOL    HW2 1668   2.702   2.221   0.680 -0.8417  0.0224 -0.5149
  557SOL     OW 1669   3.449   2.179   0.976  0.2362 -0.1585  0.3127
  557SOL    HW1 1670   3.406   2.264   0.990 -2.4587 -0.9844 -1.9047
  557SOL    HW2 1671   3.473   2.149   1.063  0.4720  2.4633  1.2359
  558SOL     OW 1672   0.355   2.857   3.694 -0.1331  0.0112  0.0055
  558SOL    HW1 1673   0.391   2.772   3.719  0.7987 -0.4193 -2.5183
  558SOL    HW2 1674   0.428   2.918   3.701 -0.1922  0.1298 -0.3620
  559SOL     OW 1675   1.836   2.205   2.398  0.2741  0.0339  0.1884
  559SOL    HW1 1676   1.894   2.188   2.473 -0.1705 -0.7997  0.3565
  559SOL    HW2 1677   1.748   2.188   2.431  0.1492 -1.5034 -0.8150
  560SOL     OW 1678   1.371   3.990   2.640  0.4013  0.2591 -0.3080
  560SOL    HW1 1679   1.393   3.922   2.576 -0.9887 -1.1564  0.6375
  560SOL    HW2 1680   1.302   4.041   2.597  0.2688  0.0202 -0.3805
  561SOL     OW 1681   2.481   2.200   1.750  0.2303  0.2985  0.0495
  561SOL    HW1 1682   2.511   2.154   1.828 -1.3719  2.6459  2.2365
  561SOL    HW2 1683   2.557   2.250   1.721  1.6180 -2.5312 -1.6318
  562SOL     OW 1684   1.002   3.503   0.148 -0.0408  0.3226  0.0600
  562SOL    HW1 1685   1.028   3.594   0.141  0.7855  0.1517  0.7004
  562SOL    HW2 1686   0.962   3.496   0.235  0.1694  0.0175  0.1355
  563SOL     OW 1687   2.093   1.713   2.010  0.1876 -0.9857  0.7633
  563SOL    HW1 1688   2.127   1.624   2.007 -2.2494 -2.0183  1.4088
  563SOL    HW2 1689   2.042   1.717   2.090 -1.5302  0.2847 -0.3168
  564SOL     OW 1690   0.184   3.082   2.281 -0.7406 -0.5747 -0.1510
  564SOL    HW1 1691   0.171   3.000   2.233  0.2531 -2.3704  2.4271
  564SOL    HW2 1692   0.116   3.082   2.348 -1.3561  1.2731 -0.7174
  565SOL     OW 1693   0.387   1.616   3.290  0.2855 -0.1592 -0.1840
  565SOL    HW1 1694   0.473   1.651   3.313 -1.2846  2.8168  1.8630
  565SOL    HW2 1695   0.390   1.605   3.195  3.1045 -0.9285 -0.1121
  566SOL     OW 1696   0.969   3.055   3.404  0.3653 -0.2626 -0.0187
  566SOL    HW1 1697   0.893   3.111   3.391  0.3179 -0.3305 -0.0338
  566SOL    HW2 1698   0.959   2.986   3.338  0.3440 -0.3744  0.1019
  567SOL     OW 1699   1.373   3.590   2.400 -0.4880 -0.1925 -0.0321
  567SOL    HW1 1700   1.459   3.560   2.368  0.9581  0.6799  2.7287
  567SOL    HW2 1701   1.344   3.521   2.459 -0.1272  0.8883  1.4717
  568SOL     OW 1702   0.089   3.383   0.053  0.2860 -0.0218  0.2587
  568SOL    HW1 1703   0.089   3.301   0.003  0.8300  0.4489 -0.5520
  568SOL    HW2 1704   0.067   3.357   0.142  2.8114 -1.4144  0.5988
  569SOL     OW 1705   3.419   2.909   0.447 -0.0778 -0.4107 -0.1942
  569SOL    HW1 1706   3.404   2.963   0.525  0.8144  2.1400 -1.6769
  569SOL    HW2 1707   3.474   2.837   0.478 -2.2452 -1.2162  2.1012
  570SOL     OW 1708   2.771   1.921   1.515 -0.7298 -0.5051  0.3440
  570SOL    HW1 1709   2.827   1.875   1.453 -0.3046  0.8888 -0.3515
  570SOL    HW2 1710   2.685   1.925   1.473 -0.4815  0.2987 -0.1171
  571SOL     OW 1711   3.622   1.651   2.436 -0.5940  0.8053 -0.2853
  571SOL    HW1 1712   3.578   1.587   2.492  0.0488  1.6089  1.2006
  571SOL    HW2 1713   3.698   1.604   2.401  2.0769  1.5885  3.7556
  572SOL     OW 1714   2.041   1.780   1.521 -0.0791 -0.3943  0.1618
  572SOL    HW1 1715   2.027   1.715   1.451 -2.5804  0.5204 -0.2911
  572SOL    HW2 1716   1.953   1.806   1.547  0.8139  0.3315  2.7413
  573SOL     OW 1717   3.034   0.753   1.812 -0.4948 -0.3638 -0.4391
  573SOL    HW1 1718   3.015   0.753   1.719  0.8698 -1.0809 -0.7359
  573SOL    HW2 1719   3.111   0.809   1.821 -1.8815  1.5407  0.5814
  574SOL     OW 1720   0.690   1.952   1.564  0.2724 -0.1058 -0.0449
  574SOL    HW1 1721   0.741   1.871   1.572 -1.9162 -1.6340 -0.5974
  574SOL    HW2 1722   0.661   1.970   1.654 -1.7000 -1.7125 -0.2870
  575SOL     OW 1723   1.055   0.844   1.955  0.0773 -0.0895  0.1696
  575SOL    HW1 1724   1.028   0.929   1.990 -0.0004 -0.3716  0.8162
  575SOL    HW2 1725   1.103   0.865   1.876  0.0592  0.5606  0.3231
  576SOL     OW 1726   3.478   0.490   0.272  0.6864 -0.2472 -0.8902
  576SOL    HW1 1727   3.499   0.462   0.361 -3.6017  0.5580  0.6288
  576SOL    HW2 1728   3.472   0.586   0.278 -0.9994 -0.2713 -1.5880
  577SOL     OW 1729   0.448   3.453   0.160  0.2729  0.3385 -0.1152
  577SOL    HW1 1730   0.383   3.443   0.229  0.3862 -0.4242 -0.1102
  577SOL    HW2 1731   0.428   3.384   0.097  2.4693 -1.4864  1.0252
  578SOL     OW 1732   2.214   3.254   0.928 -0.0507  0.1666  0.0686
  578SOL    HW1 1733   2.303   3.237   0.899 -0.3016 -0.1758 -0.5225
  578SOL    HW2 1734   2.198   3.190   0.997 -0.1974 -0.4823 -0.5557
  579SOL     OW 1735   2.458   1.126   2.606 -0.1724  0.2451 -0.1392
  579SOL    HW1 1736   2.507   1.177   2.542 -0.6456  0.7084 -0.1481
  579SOL    HW2 1737   2.490   1.037   2.596 -0.6401  0.1999 -1.4155
  580SOL     OW 1738   3.283   2.888   0.197 -0.1655 -0.0229  0.2543
  580SOL    HW1 1739   3.324   2.880   0.283 -2.0495 -0.5757  1.1463
  580SOL    HW2 1740   3.350   2.930   0.142  1.3660 -0.4207  1.7524
  581SOL     OW 1741   3.732   0.987   1.627  0.2186 -0.0763  0.8036
  581SOL    HW1 1742   3.709   0.910   1.576 -2.1790 -0.2653  2.0181
  581SOL    HW2 1743   3.742   1.057   1.563  0.1694 -0.9077 -0.1319
  582SOL     OW 1744   2.828   3.489   1.366  0.5560 -0.2846 -0.3683
  582SOL    HW1 1745   2.819   3.425   1.437 -0.4455  1.1876  0.8998
  582SOL    HW2 1746   2.765   3.461   1.299 -2.8060  1.3479  1.8087
  583SOL     OW 1747   0.643   2.399   3.736  0.3098  0.2451  0.2749
  583SOL    HW1 1748   0.687   2.399   3.821 -0.2931 -0.1719  0.5981
  583SOL    HW2 1749   0.646   2.307   3.707  2.4121  0.7091 -1.1792
  584SOL     OW 1750   3.981   1.010   0.971 -0.6245  0.1063 -0.2195
  584SOL    HW1 1751   3.991   0.963   1.054  0.2424  0.2881 -0.2085
  584SOL    HW2 1752   4.003   1.101   0.993 -0.5787  0.1898 -0.6041
  585SOL     OW 1753   0.220   0.539   0.779 -0.8849 -0.1835 -0.0650
  585SOL    HW1 1754   0.274   0.508   0.706 -1.2957  0.9957 -0.8952
  585SOL    HW2 1755   0.281   0.544   0.853 -0.5834 -1.9567 -0.1344
  586SOL     OW 1756   2.332   2.768   2.053  0.2060 -0.5345 -0.4438
  586SOL    HW1 1757   2.399   2.789   1.988  1.0586  1.1066  0.8694
  586SOL    HW2 1758   2.368   2.801   2.136 -1.4863 -1.1784  0.6058
  587SOL     OW 1759   2.622   1.596   2.806 -0.3522  0.5974  0.4701
  587SOL    HW1 1760   2.543   1.625   2.851  0.5978  0.9324  1.9651
  587SOL    HW2 1761   2.607   1.503   2.788 -0.9877  0.6102  0.9394
  588SOL     OW 1762   1.863   3.720   1.874 -0.3514  0.5627 -0.3629
  588SOL    HW1 1763   1.820   3.647   1.829 -2.0942  0.7089  0.9192
  588SOL    HW2 1764   1.950   3.687   1.895 -0.7560 -0.8079 -0.6917
  589SOL     OW 1765   1.531   3.198   3.882  0.9247  0.0602 -0.6177
  589SOL    HW1 1766   1.517   3.225   3.973 -1.7332  2.4288 -1.5924
  589SOL    HW2 1767   1.478   3.119   3.872  0.3835  0.3882 -0.3686
  590SOL     OW 1768   3.162   1.499   3.269  0.4698 -0.2603  0.4085
  590SOL    HW1 1769   3.128   1.530   3.185 -0.4136  0.3987  0.9917
  590SOL    HW2 1770   3.256   1.492   3.256  0.3985  0.3062 -0.4903
  591SOL     OW 1771   3.724   2.506   0.299  0.6279 -0.1104 -0.1249
  591SOL    HW1 1772   3.631   2.528   0.292  0.5995  1.1413  2.9160
  591SOL    HW2 1773   3.763   2.580   0.345  3.5673  0.2551 -2.8645
  592SOL     OW 1774   3.429   3.565   1.282  0.0161  0.3871 -0.1108
  592SOL    HW1 1775   3.505   3.514   1.311 -1.1761  0.5888  4.0778
  592SOL    HW2 1776   3.463   3.654   1.273  0.5782  0.2451  0.4909
  593SOL     OW 1777   1.572   1.697   0.702  0.5683 -0.2806 -0.9275
  593SOL    HW1 1778   1.567   1.619   0.757 -1.3567 -0.2732 -1.0306
  593SOL    HW2 1779   1.639   1.676   0.637  0.6710 -1.5226 -0.4435
  594SOL     OW 1780   0.688   2.092   3.675 -0.1226  0.2687 -0.1326
  594SOL    HW1 1781   0.668   1.999   3.684  3.1316 -0.3561  2.7058
  594SOL    HW2 1782   0.753   2.095   3.605  0.0794  0.3409  0.0575
  595SOL     OW 1783   0.450   3.170   0.339  0.1041 -0.3851 -0.3790
  595SOL    HW1 1784   0.457   3.247   0.283 -0.4569  0.3774  0.5633
  595SOL    HW2 1785   0.488   3.099   0.287  2.8235  0.9455 -0.4153
  596SOL     OW 1786   2.958   0.705   2.732  0.1763 -0.6223  0.4538
  596SOL    HW1 1787   2.921   0.699   2.820  1.3060 -0.8258  0.9407
  596SOL    HW2 1788   2.883   0.717   2.674 -0.6859 -1.5912  1.3338
  597SOL     OW 1789   2.159   3.840   0.401 -0.4316  0.7949 -0.0079
  597SOL    HW1 1790   2.119   3.785   0.333 -1.1220 -0.1909  1.1619
  597SOL    HW2 1791   2.086   3.874   0.452  0.1226  0.4334  1.0589
  598SOL     OW 1792   3.461   0.965   3.249 -0.1503  0.7825  0.0820
  598SOL    HW1 1793   3.537   0.914   3.222  0.2403  0.7307  1.2290
  598SOL    HW2 1794   3.497   1.048   3.281 -0.5619  0.7401  0.6802
  599SOL     OW 1795   1.958   1.870   0.525  0.3455 -0.8417  0.2514
  599SOL    HW1 1796   1.874   1.915   0.536  0.5251  0.0929 -1.8017
  599SOL    HW2 1797   2.011   1.902   0.598 -0.5275 -0.0989  0.5864
  600SOL     OW 1798   3.604   2.943   1.263 -0.5163 -0.3094 -0.3958
  600SOL    HW1 1799   3.601   2.879   1.192  0.0658 -1.4083  0.5316
  600SOL    HW2 1800   3.520   2.989   1.258  0.1889  0.9404 -2.9038
  601SOL     OW 1801   1.098   1.235   3.675 -0.1450  0.3468  0.1515
  601SOL    HW1 1802   1.171   1.172   3.676  2.7825  3.3949  1.5126
  601SOL    HW2 1803   1.108   1.282   3.592  0.6233  1.8875  1.0631
  602SOL     OW 1804   3.750   3.128   2.568  0.2362  0.6736 -0.5041
  602SOL    HW1 1805   3.743   3.224   2.564  0.7028  0.8700  1.9381
  602SOL    HW2 1806   3.681   3.097   2.510 -0.3281  2.4772 -0.8815
  603SOL     OW 1807   0.940   3.708   0.454 -0.0846 -0.1901 -0.3510
  603SOL    HW1 1808   0.963   3.790   0.497  0.1897 -0.9872  1.0535
  603SOL    HW2 1809   1.015   3.688   0.398  0.4856 -0.2295  0.4187
  604SOL     OW 1810   1.410   3.489   0.683  0.2012 -0.0253  0.0645
  604SOL    HW1 1811   1.412   3.535   0.767  0.1024 -1.7969  1.0796
  604SOL    HW2 1812   1.443   3.401   0.702 -0.0747 -0.5649 -1.7001
  605SOL     OW 1813   0.879   0.139   3.969 -0.1277 -0.5937 -0.2653
  605SOL    HW1 1814   0.920   0.068   3.920  1.2025 -1.4425  1.9249
  605SOL    HW2 1815   0.791   0.147   3.931  0.5373 -1.7196 -2.1722
  606SOL     OW 1816   2.832   3.098   0.218 -0.1701  0.7945  1.1941
  606SOL    HW1 1817   2.827   3.043   0.296  1.0051  0.8385  1.3139
  606SOL    HW2 1818   2.802   3.041   0.147 -1.2938  0.7694  1.6584
  607SOL     OW 1819   2.667   1.225   0.955 -0.1613 -0.7461 -0.9320
  607SOL    HW1 1820   2.676   1.248   1.048 -1.5802  0.1646 -0.9911
  607SOL    HW2 1821   2.662   1.129   0.954  1.4025 -0.8655 -0.2373
  608SOL     OW 1822   0.791   3.253   0.472  0.1152  0.2872  0.2240
  608SOL    HW1 1823   0.811   3.334   0.424 -0.4643  0.2747 -0.0550
  608SOL    HW2 1824   0.768   3.283   0.560 -1.2434  0.5554 -0.1921
  609SOL     OW 1825   0.202   3.811   1.401 -0.0622  0.9604 -0.1325
  609SOL    HW1 1826   0.218   3.764   1.319 -0.4168  0.8318 -0.1315
  609SOL    HW2 1827   0.218   3.903   1.380  1.6388  0.7509  0.1226
  610SOL     OW 1828   3.078   2.513   1.206  0.7522 -0.6758  0.4934
  610SOL    HW1 1829   3.131   2.584   1.170  0.6061 -1.4103 -1.2644
  610SOL    HW2 1830   3.019   2.489   1.134  1.0300 -2.7944  0.9081
  611SOL     OW 1831   2.603   0.346   0.865  0.0468  0.0323  0.0109
  611SOL    HW1 1832   2.564   0.278   0.809 -0.2226 -1.5719  2.0433
  611SOL    HW2 1833   2.697   0.340   0.847 -0.1713  0.8218 -1.5799
  612SOL     OW 1834   3.819   2.829   2.663 -0.4347  0.1745  0.5779
  612SOL    HW1 1835   3.902   2.782   2.661 -0.9110 -0.8067  1.9681
  612SOL    HW2 1836   3.766   2.787   2.595 -0.4712 -0.5822  1.0609
  613SOL     OW 1837   0.982   3.951   1.592  0.0110 -0.1253 -0.0268
  613SOL    HW1 1838   0.911   3.968   1.531  1.5842  0.8839 -1.6968
  613SOL    HW2 1839   0.980   4.026   1.652  1.4116  1.5565 -1.9111
  614SOL     OW 1840   1.411   1.174   1.913 -0.1201  0.2825 -0.0605
  614SOL    HW1 1841   1.448   1.086   1.915  0.9365  0.7077  0.2228
  614SOL    HW2 1842   1.442   1.215   1.994 -2.1956  0.3207  0.7762
  615SOL     OW 1843   1.880   2.849   2.154 -0.5712  0.3564 -0.0792
  615SOL    HW1 1844   1.855   2.761   2.125 -1.9052 -0.5810  3.3545
  615SOL    HW2 1845   1.808   2.905   2.126  0.5598  0.5578 -2.8027
  616SOL     OW 1846   0.787   3.394   1.999 -0.2871 -0.1391  0.0706
  616SOL    HW1 1847   0.744   3.466   1.951  0.5074  0.4668  0.2378
  616SOL    HW2 1848   0.880   3.407   1.981 -0.1423 -1.2151  0.0056
  617SOL     OW 1849   1.869   3.948   0.443  0.4533 -0.6840  0.2588
  617SOL    HW1 1850   1.890   4.004   0.518 -1.5461 -0.3391  0.5996
  617SOL    HW2 1851   1.887   3.859   0.474  3.0898 -0.3515 -0.0949
  618SOL     OW 1852   0.813   3.767   2.152  0.2550  0.4960  0.0489
  618SOL    HW1 1853   0.759   3.691   2.130  0.1949 -0.7162  3.6227
  618SOL    HW2 1854   0.765   3.842   2.117 -1.4406 -0.8584 -0.6819
  619SOL     OW 1855   1.504   3.060   0.943 -0.3688 -0.2345 -0.2198
  619SOL    HW1 1856   1.599   3.061   0.936 -0.2139  1.2728  1.3246
  619SOL    HW2 1857   1.478   2.974   0.911  1.4568 -0.4876 -1.1286
  620SOL     OW 1858   1.540   3.454   2.240 -0.4207  0.2598 -0.1134
  620SOL    HW1 1859   1.500   3.434   2.155  0.2601 -2.3227  0.1109
  620SOL    HW2 1860   1.612   3.514   2.219 -1.8808  1.7927 -0.9851
  621SOL     OW 1861   1.243   1.035   2.759 -0.0212 -0.4388  0.1384
  621SOL    HW1 1862   1.156   1.039   2.718 -0.1316  0.1058  0.4116
  621SOL    HW2 1863   1.226   1.017   2.851  0.2063 -1.2173  0.0333
  622SOL     OW 1864   1.237   2.138   2.008 -0.4457  0.4746 -0.0435
  622SOL    HW1 1865   1.216   2.193   2.084  0.9455  1.5469 -0.3932
  622SOL    HW2 1866   1.254   2.199   1.937  1.1786 -0.3800 -0.4433
  623SOL     OW 1867   2.132   1.470   1.790  0.3574  0.1198  0.1457
  623SOL    HW1 1868   2.173   1.551   1.760  0.1198  0.3781  0.5110
  623SOL    HW2 1869   2.150   1.406   1.720  1.0499  0.3285  0.1310
  624SOL     OW 1870   2.721   2.754   2.568 -0.0963 -0.4019  0.1396
  624SOL    HW1 1871   2.744   2.713   2.651 -2.5555 -2.5580 -0.1314
  624SOL    HW2 1872   2.659   2.823   2.592  1.8057  1.3526  0.3129
  625SOL     OW 1873   2.952   1.731   0.811 -0.0747  0.0107 -0.4839
  625SOL    HW1 1874   2.908   1.702   0.891  1.5688  0.4732  0.6349
  625SOL    HW2 1875   2.930   1.663   0.746 -1.0479 -0.6219  0.4681
  626SOL     OW 1876   2.590   3.781   2.601 -0.1072 -0.2000 -0.7528
  626SOL    HW1 1877   2.555   3.747   2.683 -1.9119  2.4728 -0.3033
  626SOL    HW2 1878   2.616   3.871   2.621  2.0116 -0.3437 -2.4862
  627SOL     OW 1879   0.064   2.129   1.749 -0.2828 -0.0965  0.0998
  627SOL    HW1 1880   0.056   2.053   1.692  1.9650 -0.9692  0.8325
  627SOL    HW2 1881   0.117   2.191   1.698  1.4915 -0.7683  1.0411
  628SOL     OW 1882   2.059   1.014   2.808 -0.2802 -0.4786  0.2613
  628SOL    HW1 1883   2.039   1.094   2.857 -2.3148 -0.5880 -0.2982
  628SOL    HW2 1884   2.082   1.045   2.721  1.1945 -0.4117  0.6457
  629SOL     OW 1885   2.946   3.534   0.585 -0.0528 -0.6327 -0.2834
  629SOL    HW1 1886   2.945   3.499   0.674 -1.7601 -1.2148 -0.4998
  629SOL    HW2 1887   2.954   3.629   0.597  0.2896 -0.7494  0.4641
  630SOL     OW 1888   3.277   1.995   3.913 -0.1922 -0.0298 -0.1518
  630SOL    HW1 1889   3.224   1.935   3.859  0.7074  1.0352 -2.3653
  630SOL    HW2 1890   3.347   1.940   3.948 -1.2329 -0.9104  0.5915
  631SOL     OW 1891   1.233   0.711   3.202 -0.1153 -0.3892  0.2763
  631SOL    HW1 1892   1.289   0.645   3.161 -1.8167 -0.2972 -2.4337
  631SOL    HW2 1893   1.171   0.660   3.254 -1.0277 -0.9597 -1.2989
  632SOL     OW 1894   0.568   3.798   2.351 -0.2074 -0.2220 -0.4228
  632SOL    HW1 1895   0.620   3.736   2.299  0.4734 -0.0358  0.0339
  632SOL    HW2 1896   0.629   3.868   2.373 -1.3137  1.3565 -2.1433
  633SOL     OW 1897   0.670   1.628   0.840  0.2697  0.0254  0.3690
  633SOL    HW1 1898   0.673   1.544   0.885  0.5445 -0.0979  0.1190
  633SOL    HW2 1899   0.732   1.619   0.768  0.3197  0.4540  0.3606
  634SOL     OW 1900   2.376   1.247   3.319  0.4929 -0.1793  0.3436
  634SOL    HW1 1901   2.378   1.197   3.401 -3.3284  0.4521  1.0381
  634SOL    HW2 1902   2.295   1.219   3.276  1.0473  1.4317 -1.9289
  635SOL     OW 1903   1.550   0.868   2.099  0.4731  0.2243 -0.3680
  635SOL    HW1 1904   1.520   0.793   2.151  0.0641  0.2028 -0.6362
  635SOL    HW2 1905   1.554   0.940   2.162  2.1741 -0.3157  0.2061
  636SOL     OW 1906   1.211   2.764   2.271 -0.8266  0.0443  0.8374
  636SOL    HW1 1907   1.216   2.772   2.367 -1.7154 -0.1912  0.9119
  636SOL    HW2 1908   1.256   2.842   2.239  0.7988 -0.6096  1.4181
  637SOL     OW 1909   2.425   3.079   1.784 -0.8993 -0.0418 -0.3187
  637SOL    HW1 1910   2.367   3.129   1.842 -1.3106 -1.3725  0.4702
  637SOL    HW2 1911   2.485   3.033   1.844 -0.1504 -0.0374 -1.0473
  638SOL     OW 1912   3.749   2.256   3.337 -0.3991  0.0015 -0.0785
  638SOL    HW1 1913   3.676   2.215   3.384 -0.5869  0.1495 -0.2358
  638SOL    HW2 1914   3.747   2.347   3.365 -2.1778  0.7613 -2.3085
  639SOL     OW 1915   2.337   0.189   0.398 -0.0461  0.0334 -0.3858
  639SOL    HW1 1916   2.352   0.217   0.308  1.3128 -0.5494 -0.3627
  639SOL    HW2 1917   2.408   0.228   0.448 -0.6167  0.1035  0.3896
  640SOL     OW 1918   0.501   0.271   2.698  0.3417  0.0201 -0.0920
  640SOL    HW1 1919   0.467   0.359   2.718  1.7139  0.6857 -0.5190
  640SOL    HW2 1920   0.593   0.276   2.723  0.8971 -0.7044 -1.8716
  641SOL     OW 1921   1.692   3.243   3.668  0.5252 -0.0662  0.2664
  641SOL    HW1 1922   1.605   3.278   3.654  0.7242  0.0383 -0.7787
  641SOL    HW2 1923   1.700   3.235   3.763 -1.4663 -2.2211  0.3485
  642SOL     OW 1924   3.794   1.708   3.613  0.5495 -0.5582  0.1930
  642SOL    HW1 1925   3.840   1.669   3.539 -1.9400  0.1785 -1.9141
  642SOL    HW2 1926   3.809   1.802   3.603  0.3565 -0.4685  0.7290
  643SOL     OW 1927   1.508   2.433   1.105  0.6883  0.0520 -0.0487
  643SOL    HW1 1928   1.540   2.423   1.016 -1.9354 -1.2664 -0.9532
  643SOL    HW2 1929   1.467   2.349   1.126 -1.0082  1.1522  1.3930
  644SOL     OW 1930   3.665   2.334   0.706 -0.1956 -0.0839 -0.3271
  644SOL    HW1 1931   3.695   2.425   0.702  3.2400 -0.9089  2.0291
  644SOL    HW2 1932   3.570   2.340   0.715 -0.1208  3.2468 -0.6984
  645SOL     OW 1933   1.658   2.647   2.137  0.1762 -0.0819  0.3428
  645SOL    HW1 1934   1.597   2.714   2.106  1.7984  0.0978 -2.9785
  645SOL    HW2 1935   1.603   2.580   2.178 -2.1414  0.5818 -1.4704
  646SOL     OW 1936   1.751   0.229   3.466 -0.0124  0.3925  0.2309
  646SOL    HW1 1937   1.843   0.242   3.487 -0.4084  3.2573  0.6141
  646SOL    HW2 1938   1.751   0.173   3.389  1.9447 -0.9270  1.1106
  647SOL     OW 1939   3.757   3.876   3.299  0.9568  0.6408  0.0419
  647SOL    HW1 1940   3.723   3.886   3.388 -1.8704  1.2922 -0.9793
  647SOL    HW2 1941   3.811   3.798   3.302  1.3875  0.9707  2.4395
  648SOL     OW 1942   3.121   3.003   0.758  0.3871 -0.0350 -0.4164
  648SOL    HW1 1943   3.031   3.033   0.772  0.8511  1.5701 -0.6338
  648SOL    HW2 1944   3.113   2.930   0.697 -0.6485  1.3634 -2.0492
  649SOL     OW 1945   0.346   3.062   1.750 -0.2674  0.2154 -0.0920
  649SOL    HW1 1946   0.295   3.066   1.831 -1.1291 -1.3052 -0.5235
  649SOL    HW2 1947   0.424   3.115   1.768  1.6404 -3.2731  3.2482
  650SOL     OW 1948   3.567   3.576   1.007  0.5663 -0.3349 -0.6030
  650SOL    HW1 1949   3.636   3.587   0.941  2.0519 -0.3024  0.8955
  650SOL    HW2 1950   3.486   3.583   0.957  1.5627  2.4649 -2.0560
  651SOL     OW 1951   0.018   1.139   1.320  1.2498  0.3482  0.1153
  651SOL    HW1 1952   0.093   1.173   1.369  1.7894  0.8324 -1.0067
  651SOL    HW2 1953   0.010   1.197   1.244 -0.2183  0.2524  0.1663
  652SOL     OW 1954   1.120   3.789   2.768 -0.0921  0.2220  0.0076
  652SOL    HW1 1955   1.199   3.842   2.755 -0.4543  0.7285 -0.1283
  652SOL    HW2 1956   1.109   3.742   2.686  1.3407 -1.5840  0.7838
  653SOL     OW 1957   0.031   2.470   1.857 -0.2887 -0.0540 -0.4024
  653SOL    HW1 1958   0.018   2.562   1.877 -0.1580 -0.1805  0.3012
  653SOL    HW2 1959   0.087   2.469   1.779  0.6985  0.4645  0.2849
  654SOL     OW 1960   0.918   3.051   1.543  0.1201  0.1982 -0.2822
  654SOL    HW1 1961   0.988   2.998   1.504  0.6443  0.7055 -0.0545
  654SOL    HW2 1962   0.851   3.057   1.475  0.9363  0.9090 -1.0431
  655SOL     OW 1963   2.942   0.867   3.554 -0.3968  0.2768  0.1007
  655SOL    HW1 1964   2.924   0.945   3.500  0.2720  0.8024  0.6143
  655SOL    HW2 1965   2.865   0.859   3.610 -0.5564  0.4487 -0.0874
  656SOL     OW 1966   0.133   2.907   3.153  0.2938  0.6879  0.0873
  656SOL    HW1 1967   0.127   2.857   3.071  4.0709 -1.4242  0.8541
  656SOL    HW2 1968   0.100   2.847   3.220 -0.7021  1.5708  0.4113
  657SOL     OW 1969   0.618   1.212   2.427  0.2602 -0.1113  0.4673
  657SOL    HW1 1970   0.525   1.190   2.417  0.6440 -1.0491 -1.6600
  657SOL    HW2 1971   0.653   1.145   2.486 -0.1044 -0.7185  0.0033
  658SOL     OW 1972   1.888   1.868   2.209  0.6557  0.7030  0.5165
  658SOL    HW1 1973   1.830   1.941   2.187  1.1881  1.1360  0.5128
  658SOL    HW2 1974   1.976   1.905   2.200  0.9465 -0.1458 -0.1879
  659SOL     OW 1975   1.198   0.164   2.514 -0.3660  0.8407  0.0725
  659SOL    HW1 1976   1.151   0.130   2.438 -0.5596  3.0625 -0.8878
  659SOL    HW2 1977   1.132   0.208   2.567 -0.1318 -0.1727  1.2416
  660SOL     OW 1978   1.715   3.786   2.768 -0.6730 -0.1760 -0.3589
  660SOL    HW1 1979   1.680   3.865   2.726 -2.2738 -0.5361  0.2400
  660SOL    HW2 1980   1.788   3.817   2.821 -1.3410  0.9143 -0.0572
  661SOL     OW 1981   2.952   0.682   1.540 -0.0541  0.6827 -0.5757
  661SOL    HW1 1982   3.032   0.673   1.490  0.2520  0.1820 -0.0072
  661SOL    HW2 1983   2.898   0.608   1.514  0.7024 -0.4368  0.8897
  662SOL     OW 1984   0.425   2.573   0.306  0.6294  0.5313  0.9155
  662SOL    HW1 1985   0.511   2.537   0.287  0.2916  0.3763 -0.4641
  662SOL    HW2 1986   0.417   2.570   0.401  0.8477 -2.5109  0.9140
  663SOL     OW 1987   3.374   3.487   2.762  0.2232 -0.4420 -0.3493
  663SOL    HW1 1988   3.394   3.416   2.824  2.5849  0.5748  0.1665
  663SOL    HW2 1989   3.278   3.488   2.757 -0.1411 -0.3750  3.5826
  664SOL     OW 1990   1.685   1.448   2.270 -0.3751  0.9208 -0.1842
  664SOL    HW1 1991   1.693   1.513   2.340 -0.7569 -0.2302  0.9783
  664SOL    HW2 1992   1.633   1.377   2.309  0.4262 -0.3018 -1.2401
  665SOL     OW 1993   0.313   2.575   1.440  0.2309  0.0590 -0.1737
  665SOL    HW1 1994   0.232   2.527   1.457 -0.5923  0.3989 -2.6506
  665SOL    HW2 1995   0.330   2.561   1.346  0.6298  3.4761 -0.7432
  666SOL     OW 1996   3.722   2.663   0.656  0.4299  0.2962 -0.3893
  666SOL    HW1 1997   3.742   2.699   0.570 -0.4735 -2.5317 -1.9406
  666SOL    HW2 1998   3.628   2.647   0.654  0.6352 -1.2204  0.5050
  667SOL     OW 1999   1.466   3.698   3.643 -0.3188 -0.9085  0.0663
  667SOL    HW1 2000   1.387   3.661   3.605 -0.1394  0.5213 -1.8877
  667SOL    HW2 2001   1.511   3.740   3.569  3.3177 -3.3312  0.6351
  668SOL     OW 2002   2.829   0.903   1.449 -0.5800  0.0474  0.1508
  668SOL    HW1 2003   2.748   0.897   1.499 -0.0058 -0.3179  1.0758
  668SOL    HW2 2004   2.887   0.837   1.489 -0.2788 -0.6389 -1.3631
  669SOL     OW 2005   0.686   1.860   1.038  0.1505  0.0992 -0.1502
  669SOL    HW1 2006   0.670   1.773   1.002  1.1501 -0.9262  1.7392
  669SOL    HW2 2007   0.628   1.918   0.988 -1.3426 -1.7925 -0.7241
  670SOL     OW 2008   0.133   0.601   3.149 -0.0728  0.1344 -0.4509
  670SOL    HW1 2009   0.052   0.619   3.100 -0.4506  1.5092  0.6228
  670SOL    HW2 2010   0.177   0.533   3.098 -0.3896  1.5552 -2.7860
  671SOL     OW 2011   2.992   2.275   0.047 -0.8569  0.2993  0.0863
  671SOL    HW1 2012   2.954   2.362   0.060 -2.3872 -0.2487 -0.4431
  671SOL    HW2 2013   2.944   2.239  -0.028  0.6442 -0.5121 -0.5236
  672SOL     OW 2014   0.727   1.046   3.956  0.4944  0.5467 -0.3843
  672SOL    HW1 2015   0.714   1.054   4.051  0.4314  1.4729 -0.4559
  672SOL    HW2 2016   0.817   1.077   3.942  0.5694  0.2266 -0.6051
  673SOL     OW 2017   1.992   2.272   0.940  0.6354 -0.1479 -0.3231
  673SOL    HW1 2018   1.914   2.297   0.991 -0.3733 -2.5958 -0.5538
  673SOL    HW2 2019   2.047   2.224   1.002 -1.4695 -4.8675 -1.6876
  674SOL     OW 2020   2.293   0.394   1.250 -0.0669  0.5125  0.2773
  674SOL    HW1 2021   2.206   0.423   1.223 -0.0338  0.6075  0.2711
  674SOL    HW2 2022   2.302   0.425   1.340 -0.0322  0.5196  0.2715
  675SOL     OW 2023   2.334   3.982   1.307  0.2746 -0.2030 -0.4959
  675SOL    HW1 2024   2.327   3.894   1.345 -0.0089  0.1813  0.3735
  675SOL    HW2 2025   2.410   4.020   1.349  0.2675  0.0521 -0.7118
  676SOL     OW 2026   2.039   0.187   2.540  0.3819  0.5762  0.7281
  676SOL    HW1 2027   2.015   0.253   2.605 -1.5770 -0.3457  1.0201
  676SOL    HW2 2028   2.029   0.104   2.585  1.9554  0.0156  0.1090
  677SOL     OW 2029   3.616   2.939   0.664  0.3112 -0.2004 -0.1222
  677SOL    HW1 2030   3.615   2.845   0.682 -0.4563 -0.4884 -1.5753
  677SOL    HW2 2031   3.697   2.953   0.614  0.9654  0.1211  0.9722
  678SOL     OW 2032   2.957   3.966   1.943  0.0782 -0.1888 -1.1110
  678SOL    HW1 2033   2.972   3.920   1.860  1.1475  1.3969 -1.8533
  678SOL    HW2 2034   2.875   4.013   1.929  0.2594  0.0799 -1.2809
  679SOL     OW 2035   0.007   1.522   1.771 -0.3589 -0.0836  0.2840
  679SOL    HW1 2036  -0.013   1.444   1.823 -0.2637  0.6206  1.4329
  679SOL    HW2 2037   0.027   1.489   1.684  1.1278 -1.4868  1.1043
  680SOL     OW 2038   2.925   3.925   2.679  0.2039  0.0702  0.3007
  680SOL    HW1 2039   3.015   3.902   2.703 -0.3402 -0.6751  1.8004
  680SOL    HW2 2040   2.923   3.920   2.584  2.0923  1.4544  0.1128
  681SOL     OW 2041   0.470   2.418   3.530  0.2585 -0.6517  0.5999
  681SOL    HW1 2042   0.529   2.407   3.455 -0.1919 -0.6673  0.2428
  681SOL    HW2 2043   0.528   2.430   3.605  0.7182 -0.9958  0.3024
  682SOL     OW 2044   1.780   0.182   3.752 -0.7474 -0.4876 -0.3121
  682SOL    HW1 2045   1.863   0.139   3.731 -1.4205 -0.7326 -2.6633
  682SOL    HW2 2046   1.714   0.113   3.744 -1.4168  0.1660 -0.5546
  683SOL     OW 2047   1.929   3.434   0.362  0.2680 -0.2800 -0.1860
  683SOL    HW1 2048   1.903   3.344   0.382 -0.7235 -0.4320 -1.9228
  683SOL    HW2 2049   2.003   3.424   0.302 -1.2222 -0.0563 -2.1759
  684SOL     OW 2050   0.533   1.355   1.442  0.1136 -0.2240 -0.4082
  684SOL    HW1 2051   0.491   1.410   1.375  0.2456  1.0845  0.5478
  684SOL    HW2 2052   0.578   1.417   1.499 -0.0169 -1.3104  0.9151
  685SOL     OW 2053   1.659   1.295   1.844  0.5411  0.2223 -0.0433
  685SOL    HW1 2054   1.601   1.219   1.849  0.6984  0.0493 -0.7015
  685SOL    HW2 2055   1.606   1.368   1.873  0.3229 -0.1041  0.3963
  686SOL     OW 2056   1.234   3.015   0.242 -0.0766  0.2502 -0.3372
  686SOL    HW1 2057   1.280   3.091   0.279 -0.2952  0.6837 -0.9467
  686SOL    HW2 2058   1.197   2.970   0.319  0.2348  0.6384  0.0445
  687SOL     OW 2059   1.668   2.046   2.624  0.0266 -0.3346 -0.2270
  687SOL    HW1 2060   1.583   2.047   2.579  0.1629  2.5091 -0.6065
  687SOL    HW2 2061   1.649   2.078   2.712  0.6713  0.1728 -0.2658
  688SOL     OW 2062   1.804   3.673   0.203  0.7958  0.3158  0.2127
  688SOL    HW1 2063   1.859   3.693   0.279  0.2684  2.4159  0.1135
  688SOL    HW2 2064   1.866   3.662   0.130  1.1922  0.3961  0.5350
  689SOL     OW 2065   0.340   0.205   2.483  0.0110  0.2795  0.0934
  689SOL    HW1 2066   0.401   0.214   2.556 -0.9592 -0.8923  1.0935
  689SOL    HW2 2067   0.258   0.242   2.515 -1.5436 -3.5164  1.1283
  690SOL     OW 2068   2.686   1.239   3.274 -0.0716  0.4584 -0.2260
  690SOL    HW1 2069   2.596   1.271   3.290 -0.9179 -1.7606 -0.2843
  690SOL    HW2 2070   2.681   1.192   3.191  1.3743  1.0007 -0.6506
  691SOL     OW 2071   2.095   2.995   1.039 -1.1757  0.1832 -0.4009
  691SOL    HW1 2072   2.023   3.059   1.039 -1.3307  0.1582  2.8253
  691SOL    HW2 2073   2.056   2.915   1.003 -2.5243  0.4438  0.4248
  692SOL     OW 2074   2.666   0.023   2.662  0.4730 -0.1919  0.3430
  692SOL    HW1 2075   2.667   0.119   2.673 -1.2722 -0.3226  2.1035
  692SOL    HW2 2076   2.752  -0.005   2.692  1.3635  0.8522 -1.0580
  693SOL     OW 2077   3.522   1.115   2.358 -0.6981  0.0801  0.4324
  693SOL    HW1 2078   3.544   1.149   2.444 -0.8899 -1.5277  1.1459
  693SOL    HW2 2079   3.532   1.190   2.299 -1.7387  1.5254  2.0136
  694SOL     OW 2080   2.795   3.071   2.831 -0.1491 -0.3536  0.1187
  694SOL    HW1 2081   2.733   3.142   2.849  0.0745  0.4366 -1.9249
  694SOL    HW2 2082   2.757   3.026   2.755  0.8466 -1.0148  0.0017
  695SOL     OW 2083   3.409   1.898   2.413  0.0627 -0.5352  0.1581
  695SOL    HW1 2084   3.458   1.832   2.461  1.1582 -0.3026 -0.5985
  695SOL    HW2 2085   3.456   1.907   2.330 -0.3190  0.8570  0.0632
  696SOL     OW 2086   2.427   1.512   3.240 -0.3508  0.2485 -0.8259
  696SOL    HW1 2087   2.357   1.452   3.266  1.5117 -1.4665  0.5648
  696SOL    HW2 2088   2.505   1.478   3.284  1.2089  2.5697 -1.6191
  697SOL     OW 2089   1.119   1.950   0.097  0.5778 -0.4147 -0.0333
  697SOL    HW1 2090   1.112   1.862   0.061  0.7793 -0.6725  0.5572
  697SOL    HW2 2091   1.206   1.954   0.136  0.3177 -0.1820  0.5377
  698SOL     OW 2092   3.012   3.788   3.949  0.0568  0.9326 -0.5175
  698SOL    HW1 2093   3.090   3.843   3.945  0.0425  0.9063 -1.2569
  698SOL    HW2 2094   3.033   3.721   4.014  0.8552  0.5991 -1.1132
  699SOL     OW 2095   2.866   3.728   3.742  0.5696  0.5813  0.0684
  699SOL    HW1 2096   2.922   3.774   3.805 -0.1110  1.0787  0.3361
  699SOL    HW2 2097   2.894   3.637   3.745  0.2491  0.5057  1.4509
  700SOL     OW 2098   2.260   0.851   0.743 -0.7004  0.6120  0.2186
  700SOL    HW1 2099   2.336   0.850   0.801 -0.5042 -1.0788 -0.0358
  700SOL    HW2 2100   2.290   0.810   0.662 -1.6549  0.6774 -0.1802
  701SOL     OW 2101   1.634   3.814   0.790  0.0898  0.2391  0.8592
  701SOL    HW1 2102   1.685   3.750   0.840 -2.1513 -1.3177  1.2841
  701SOL    HW2 2103   1.624   3.775   0.703 -0.9999  0.1297  1.0168
  702SOL     OW 2104   1.696   1.472   1.594 -0.3745  0.0681 -0.3395
  702SOL    HW1 2105   1.687   1.378   1.611  0.5940 -0.3531 -1.9520
  702SOL    HW2 2106   1.750   1.504   1.667 -1.0973 -0.5039  0.4784
  703SOL     OW 2107   0.984   0.445   2.908  0.5165  0.4069 -0.4273
  703SOL    HW1 2108   0.986   0.539   2.927  0.6288  0.2897  0.1558
  703SOL    HW2 2109   1.027   0.404   2.984  0.8007 -0.0877 -0.8489
  704SOL     OW 2110   3.838   3.624   3.943  0.3703  0.0289  0.3632
  704SOL    HW1 2111   3.792   3.560   3.890 -0.1929  2.2783 -2.0391
  704SOL    HW2 2112   3.773   3.655   4.006 -0.4043  0.7018 -0.7431
  705SOL     OW 2113   1.666   0.964   0.170 -0.1795  0.1128 -0.1024
  705SOL    HW1 2114   1.694   0.942   0.259  0.6395  1.6073  0.0442
  705SOL    HW2 2115   1.748   0.976   0.122 -0.6139  0.0720 -0.8683
  706SOL     OW 2116   3.713   3.083   1.893 -0.2328  0.1534  0.1139
  706SOL    HW1 2117   3.783   3.141   1.923  1.1275 -0.7642 -1.1546
  706SOL    HW2 2118   3.651   3.081   1.965 -0.1781  2.8969  0.3533
  707SOL     OW 2119   1.141   2.032   2.812  0.9370  0.5052  0.3082
  707SOL    HW1 2120   1.111   2.113   2.852 -1.6357 -1.2683  2.3475
  707SOL    HW2 2121   1.103   2.032   2.725  2.6264  2.2993 -0.4904
  708SOL     OW 2122   3.111   3.052   1.420 -0.6149 -0.3383  0.4121
  708SOL    HW1 2123   3.035   3.001   1.393  0.1970 -0.6915 -1.3080
  708SOL    HW2 2124   3.102   3.135   1.375  0.2447 -0.5549 -0.1777
  709SOL     OW 2125   3.654   3.128   0.958 -0.3928  0.7534 -0.1572
  709SOL    HW1 2126   3.747   3.148   0.948 -0.2224  0.4462  0.7415
  709SOL    HW2 2127   3.620   3.127   0.869  0.9499 -1.4042 -0.7094
  710SOL     OW 2128   3.163   3.439   1.809 -0.4364  0.2085  0.8410
  710SOL    HW1 2129   3.079   3.469   1.845 -0.2817  1.5029  0.2018
  710SOL    HW2 2130   3.141   3.403   1.723 -0.3480  0.6100  0.6444
  711SOL     OW 2131   0.484   0.408   3.819  0.0392  0.7989  0.2797
  711SOL    HW1 2132   0.430   0.404   3.740  0.2545  0.2071  0.1587
  711SOL    HW2 2133   0.555   0.468   3.796 -1.0756  2.4061  0.7747
  712SOL     OW 2134   3.162   2.082   0.660 -0.0851 -0.7773 -0.4787
  712SOL    HW1 2135   3.143   2.086   0.566 -0.5152 -0.5999 -0.3873
  712SOL    HW2 2136   3.255   2.104   0.667 -0.1946 -0.1696 -0.8136
  713SOL     OW 2137   1.344   3.255   0.181 -0.2934  0.1063 -0.4279
  713SOL    HW1 2138   1.310   3.287   0.264 -1.8115 -1.3349 -0.4446
  713SOL    HW2 2139   1.299   3.309   0.115  1.2842  1.5919 -0.3614
  714SOL     OW 2140   1.282   1.646   2.826  0.5491 -0.3632  0.2386
  714SOL    HW1 2141   1.243   1.713   2.882 -0.2687  0.7432 -1.5424
  714SOL    HW2 2142   1.232   1.652   2.744  1.0431 -2.5704 -0.2872
  715SOL     OW 2143   0.716   3.379   0.699  0.5858  0.0984 -0.3301
  715SOL    HW1 2144   0.663   3.348   0.772  1.1215 -1.0450 -0.4013
  715SOL    HW2 2145   0.730   3.472   0.716 -0.4594  0.1492  0.2839
  716SOL     OW 2146   2.135   3.683   0.171  0.0930 -0.5150 -0.1630
  716SOL    HW1 2147   2.226   3.696   0.146 -0.0263  0.7682  0.0126
  716SOL    HW2 2148   2.125   3.588   0.177  1.0333 -0.7418 -1.5819
  717SOL     OW 2149   0.445   1.647   0.651 -0.0114  0.2797 -0.5438
  717SOL    HW1 2150   0.422   1.579   0.714  1.7364 -0.4371 -0.6119
  717SOL    HW2 2151   0.527   1.684   0.685  0.5735  0.3743 -1.9976
  718SOL     OW 2152   2.106   1.672   2.899  0.5155 -0.3906 -0.8982
  718SOL    HW1 2153   2.030   1.649   2.846  0.7515  0.2677 -1.5521
  718SOL    HW2 2154   2.085   1.758   2.936  1.1146  0.0084 -1.4564
  719SOL     OW 2155   3.220   2.958   2.440 -0.3549  0.2226 -0.2814
  719SOL    HW1 2156   3.174   2.952   2.524 -0.6299  0.7669 -0.3827
  719SOL    HW2 2157   3.244   3.051   2.433  0.7627 -0.0514 -0.2400
  720SOL     OW 2158   1.128   3.397   1.636 -0.5089  0.6810 -0.1497
  720SOL    HW1 2159   1.037   3.405   1.607 -0.2423  0.0037 -1.2319
  720SOL    HW2 2160   1.180   3.438   1.566  0.0509  0.5647  0.1895
  721SOL     OW 2161   3.225   3.286   2.603  0.0733  0.0067  0.2810
  721SOL    HW1 2162   3.220   3.271   2.509  2.4273 -0.3960  0.1495
  721SOL    HW2 2163   3.137   3.266   2.635 -0.5179 -0.8486 -1.6985
  722SOL     OW 2164   3.431   3.017   3.283 -0.0891 -0.2082  0.4238
  722SOL    HW1 2165   3.418   3.072   3.205 -0.1349  0.7338  1.0774
  722SOL    HW2 2166   3.422   2.927   3.251 -1.4443  0.1994 -0.4078
  723SOL     OW 2167   2.854   1.181   3.662 -0.1332  0.9134  0.0380
  723SOL    HW1 2168   2.848   1.145   3.573  0.2035  0.2906  0.2636
  723SOL    HW2 2169   2.785   1.136   3.711  1.2091 -0.5491  0.6859
  724SOL     OW 2170   2.423   1.300   0.922 -0.0641 -0.1419 -0.5532
  724SOL    HW1 2171   2.511   1.268   0.940  0.1539  0.7458  0.0117
  724SOL    HW2 2172   2.373   1.283   1.002 -1.0331 -2.6181 -1.5871
  725SOL     OW 2173   3.946   2.977   0.537 -0.3816 -0.5121 -0.1538
  725SOL    HW1 2174   3.950   3.057   0.589  1.5122 -0.6567  0.0121
  725SOL    HW2 2175   4.022   2.927   0.565 -1.0134 -1.9500 -0.9289
  726SOL     OW 2176   0.166   3.287   1.904 -0.0239 -0.1745  0.1001
  726SOL    HW1 2177   0.158   3.264   1.812 -0.8753  1.9017 -0.3967
  726SOL    HW2 2178   0.081   3.264   1.942 -0.8952  1.9443 -0.4083
  727SOL     OW 2179   2.240   1.590   3.765  0.3773  0.2755  0.1955
  727SOL    HW1 2180   2.263   1.518   3.707  0.2608  1.5149 -1.4718
  727SOL    HW2 2181   2.294   1.577   3.843  2.4937 -0.0532 -1.2496
  728SOL     OW 2182   2.958   1.043   1.804  0.5562 -0.5666 -0.2723
  728SOL    HW1 2183   2.960   0.994   1.886 -2.2506  1.3970  1.1401
  728SOL    HW2 2184   2.952   1.135   1.831  1.2200  0.2690 -2.7114
  729SOL     OW 2185   2.869   1.986   0.327 -0.4314 -0.8447 -0.1115
  729SOL    HW1 2186   2.875   1.979   0.232  1.7459 -0.2526 -0.0810
  729SOL    HW2 2187   2.816   2.065   0.342  2.5970  1.5828 -1.0037
  730SOL     OW 2188   0.468   3.683   0.318 -0.1248  0.1750 -0.7714
  730SOL    HW1 2189   0.481   3.635   0.236  0.9340 -0.3933 -0.2839
  730SOL    HW2 2190   0.517   3.633   0.383  1.9417  2.4870 -0.4371
  731SOL     OW 2191   1.864   3.282   3.297  0.3400  0.6716  0.0100
  731SOL    HW1 2192   1.774   3.307   3.317  0.2247 -0.6549  1.2695
  731SOL    HW2 2193   1.859   3.192   3.268  1.0515  1.2225 -1.9862
  732SOL     OW 2194   2.660   2.612   1.063 -0.4834 -0.2637 -0.0448
  732SOL    HW1 2195   2.703   2.541   1.111  1.2870  0.4129 -0.5442
  732SOL    HW2 2196   2.605   2.567   0.999  1.5607 -1.2595 -1.1990
  733SOL     OW 2197   0.367   0.128   3.061 -0.0578 -0.4920 -0.1772
  733SOL    HW1 2198   0.316   0.060   3.106 -3.4838  1.4839 -0.6980
  733SOL    HW2 2199   0.335   0.125   2.971  0.8741  0.7982 -0.5754
  734SOL     OW 2200   3.944   3.438   2.792  0.2568 -0.4235  0.6384
  734SOL    HW1 2201   3.990   3.517   2.764  0.4350 -0.7617 -0.0389
  734SOL    HW2 2202   3.992   3.366   2.751  0.3505 -0.9205  1.5876
  735SOL     OW 2203   1.519   2.012   1.525  0.5132 -0.1818  0.2990
  735SOL    HW1 2204   1.570   1.991   1.448  2.8169 -0.5594  1.8206
  735SOL    HW2 2205   1.551   2.099   1.552 -1.6772  0.8559 -0.2376
  736SOL     OW 2206   1.421   0.313   3.863 -0.3202  0.2512  0.5697
  736SOL    HW1 2207   1.383   0.395   3.895 -0.8089 -0.2191  1.2270
  736SOL    HW2 2208   1.505   0.307   3.908 -0.1531  0.5366  0.2957
  737SOL     OW 2209   1.289   3.425   3.708  0.2789 -0.2287  0.3991
  737SOL    HW1 2210   1.360   3.366   3.685 -0.8398 -1.6182  0.3856
  737SOL    HW2 2211   1.246   3.444   3.625 -0.7442 -1.2627  0.6661
  738SOL     OW 2212   0.777   1.637   0.555  0.0021  0.3466 -0.2274
  738SOL    HW1 2213   0.838   1.577   0.597  0.5139  1.1067  0.1444
  738SOL    HW2 2214   0.750   1.593   0.474  0.3436 -0.3807  0.0537
  739SOL     OW 2215   1.311   0.648   2.597 -0.3986 -0.7630 -0.1879
  739SOL    HW1 2216   1.224   0.687   2.607  0.0718  1.2230 -2.7877
  739SOL    HW2 2217   1.307   0.601   2.514  0.8720 -1.1392 -0.0601
  740SOL     OW 2218   1.176   3.192   0.955 -0.9156  0.5418  0.8724
  740SOL    HW1 2219   1.208   3.102   0.956  0.1528  0.8798 -0.2205
  740SOL    HW2 2220   1.093   3.188   1.003 -1.0101 -1.0657  0.6495
  741SOL     OW 2221   2.429   0.708   3.004  0.6576 -0.0469  0.0410
  741SOL    HW1 2222   2.347   0.710   3.054 -0.3055 -0.6545 -1.4467
  741SOL    HW2 2223   2.437   0.797   2.969 -0.2505 -0.3873 -1.1167
  742SOL     OW 2224   0.073   1.154   3.635 -0.3065  0.3498 -0.3782
  742SOL    HW1 2225   0.063   1.238   3.681  0.8322 -0.0882  0.7008
  742SOL    HW2 2226   0.038   1.089   3.696 -2.5570  0.1325 -1.7901
  743SOL     OW 2227   3.949   1.744   0.303  0.0402 -0.2728  0.1016
  743SOL    HW1 2228   3.926   1.790   0.222  0.0987 -0.5677 -0.0884
  743SOL    HW2 2229   3.917   1.800   0.373 -1.9224 -0.9936 -0.1525
  744SOL     OW 2230   0.886   0.843   2.750 -0.0934 -0.0393 -0.1604
  744SOL    HW1 2231   0.794   0.819   2.756 -0.1364 -0.3791 -1.8242
  744SOL    HW2 2232   0.923   0.816   2.834 -1.9809  2.4521  1.6228
  745SOL     OW 2233   2.242   0.364   3.747 -0.1283  0.1463 -0.0889
  745SOL    HW1 2234   2.164   0.314   3.772 -1.2958  0.6131 -2.4427
  745SOL    HW2 2235   2.220   0.455   3.766 -0.8587  0.4575 -2.0973
  746SOL     OW 2236   3.137   1.684   1.640 -0.0846 -0.0604 -0.4659
  746SOL    HW1 2237   3.055   1.635   1.651 -1.4882  2.4500  1.2369
  746SOL    HW2 2238   3.192   1.627   1.587 -2.3154 -2.5672 -0.2894
  747SOL     OW 2239   2.124   3.892   0.848  0.2442  0.4629  0.2091
  747SOL    HW1 2240   2.137   3.828   0.778  1.1289  1.6207 -0.7274
  747SOL    HW2 2241   2.212   3.911   0.879 -0.1557 -0.1857  1.8057
  748SOL     OW 2242   0.278   0.344   3.292 -0.4151  0.1879 -0.2182
  748SOL    HW1 2243   0.198   0.369   3.339 -1.1425 -1.2762 -0.5818
  748SOL    HW2 2244   0.247   0.281   3.226  0.9173  0.3551 -1.0280
  749SOL     OW 2245   2.165   1.154   3.744 -0.8959  0.4264  0.5901
  749SOL    HW1 2246   2.234   1.090   3.725  0.3960  2.0746 -0.6140
  749SOL    HW2 2247   2.144   1.140   3.836  1.2721  0.0601  1.0872
  750SOL     OW 2248   2.713   2.233   0.281 -0.1640  0.2703  0.5769
  750SOL    HW1 2249   2.710   2.276   0.366 -0.5491 -0.3478  0.8902
  750SOL    HW2 2250   2.632   2.182   0.278  0.0227  0.0023 -0.0082
  751SOL     OW 2251   1.906   1.563   2.408  0.0951  0.4784 -0.0845
  751SOL    HW1 2252   1.857   1.628   2.460  0.2670  0.8456 -0.3761
  751SOL    HW2 2253   1.950   1.508   2.473 -1.6197 -0.5978  0.2325
  752SOL     OW 2254   2.539   2.447   2.057 -0.0051  0.1012 -0.0122
  752SOL    HW1 2255   2.597   2.398   1.998 -1.1178  1.9634 -2.8972
  752SOL    HW2 2256   2.597   2.505   2.105  0.8770 -0.8130  0.0638
  753SOL     OW 2257   3.731   3.719   1.158 -0.3093 -0.4225 -0.1689
  753SOL    HW1 2258   3.669   3.663   1.111  0.9364 -0.1425 -2.2439
  753SOL    HW2 2259   3.676   3.771   1.216 -1.6011 -3.0533  1.1572
  754SOL     OW 2260   2.743   3.949   2.197 -0.3123  0.3672  0.3139
  754SOL    HW1 2261   2.737   3.941   2.101 -0.7135  0.6932  0.3098
  754SOL    HW2 2262   2.829   3.913   2.218 -0.5099 -0.3813 -0.0999
  755SOL     OW 2263   3.380   2.046   1.615 -0.0764  0.1051  0.2663
  755SOL    HW1 2264   3.433   1.967   1.615  1.1999  0.9377  0.5283
  755SOL    HW2 2265   3.326   2.038   1.694  0.7919 -0.0308  0.8564
  756SOL     OW 2266   1.518   1.128   0.575  0.3018 -0.8322 -0.0659
  756SOL    HW1 2267   1.572   1.051   0.594  0.0536 -0.9513  0.1666
  756SOL    HW2 2268   1.447   1.124   0.639  0.5406 -0.1541  0.2570
  757SOL     OW 2269   0.471   2.071   0.220 -0.2515 -0.0480 -0.4691
  757SOL    HW1 2270   0.523   2.065   0.140  0.2269  1.1082 -0.2656
  757SOL    HW2 2271   0.417   2.149   0.207 -1.4130 -0.8144 -0.3648
  758SOL     OW 2272   3.368   0.377   1.460 -0.0135  0.2737  0.3793
  758SOL    HW1 2273   3.436   0.320   1.424  2.0896  3.2676 -0.8198
  758SOL    HW2 2274   3.346   0.338   1.545  3.0392 -1.0334  0.6931
  759SOL     OW 2275   2.291   2.705   1.041  0.1499 -0.0014  0.2324
  759SOL    HW1 2276   2.341   2.650   0.981 -0.2936  0.0631 -0.2014
  759SOL    HW2 2277   2.268   2.648   1.114 -0.2608 -0.3801 -0.1874
  760SOL     OW 2278   1.032   3.018   0.707  0.3401  0.3875 -0.0382
  760SOL    HW1 2279   1.031   3.114   0.713  0.6693  0.4986 -1.3523
  760SOL    HW2 2280   1.026   2.988   0.798  1.1261  1.6648  0.4713
  761SOL     OW 2281   1.558   1.434   3.556 -0.2797 -0.4575 -0.1812
  761SOL    HW1 2282   1.497   1.507   3.547 -0.1446 -0.5105 -1.9976
  761SOL    HW2 2283   1.510   1.358   3.523  1.0091 -0.3026 -2.7291
  762SOL     OW 2284   0.179   1.373   0.867 -0.0062 -0.6669  0.6573
  762SOL    HW1 2285   0.141   1.341   0.785  1.6785  1.0072 -0.8956
  762SOL    HW2 2286   0.267   1.336   0.868  0.3052  0.0743  1.2191
  763SOL     OW 2287   1.582   2.331   2.633  0.1204 -0.1717  0.3810
  763SOL    HW1 2288   1.658   2.374   2.671 -0.2889  2.5453 -1.6181
  763SOL    HW2 2289   1.544   2.282   2.706 -0.1257  3.9635  3.3985
  764SOL     OW 2290   3.710   1.119   3.557  0.6452 -0.0512  0.2433
  764SOL    HW1 2291   3.642   1.135   3.491  1.0495 -0.3786 -0.2611
  764SOL    HW2 2292   3.662   1.108   3.639  0.2703  3.3751  0.6419
  765SOL     OW 2293   3.818   0.671   0.350  0.2060  0.3051 -0.2093
  765SOL    HW1 2294   3.799   0.605   0.416  0.1655  1.3744  0.8747
  765SOL    HW2 2295   3.820   0.622   0.267 -1.7690 -0.7415  0.2995
  766SOL     OW 2296   0.632   3.030   3.522 -0.2841 -0.1434  0.0296
  766SOL    HW1 2297   0.585   3.066   3.598  1.9834  3.3228 -0.0098
  766SOL    HW2 2298   0.679   2.955   3.557 -0.7586  0.2613  1.6349
  767SOL     OW 2299   0.197   2.922   3.493 -0.3730 -0.4247 -0.9954
  767SOL    HW1 2300   0.245   2.913   3.575 -1.2160  1.5558 -0.2321
  767SOL    HW2 2301   0.233   2.853   3.437  0.1854 -1.8753  1.0242
  768SOL     OW 2302   1.522   2.698   2.804  0.6385  0.3258  0.1471
  768SOL    HW1 2303   1.599   2.710   2.749  1.2142  0.6382  1.0061
  768SOL    HW2 2304   1.546   2.736   2.889 -0.6038  0.7999  0.3077
  769SOL     OW 2305   1.363   2.000   0.218  0.0824  0.1174 -0.3101
  769SOL    HW1 2306   1.397   1.976   0.305  0.8608 -0.4518 -0.7586
  769SOL    HW2 2307   1.412   2.078   0.193 -0.2072  0.3359 -0.2093
  770SOL     OW 2308   1.143   1.072   1.215 -0.5532 -0.4017  0.8772
  770SOL    HW1 2309   1.183   0.986   1.230 -0.1655 -0.6844 -1.4122
  770SOL    HW2 2310   1.195   1.132   1.268  3.9926 -0.5499 -2.8420
  771SOL     OW 2311   0.044   2.390   2.483  0.0816  0.2699  0.5605
  771SOL    HW1 2312   0.127   2.343   2.487 -0.5046 -0.7159  2.5165
  771SOL    HW2 2313   0.066   2.476   2.448  1.6495 -0.5195 -0.4649
  772SOL     OW 2314   2.183   2.490   3.935 -0.0980 -0.3649  0.0917
  772SOL    HW1 2315   2.173   2.555   3.866  1.3112 -1.2494 -0.9926
  772SOL    HW2 2316   2.262   2.516   3.982  1.2546 -1.9406 -1.1788
  773SOL     OW 2317   3.645   1.483   3.367 -0.0304 -0.7910 -0.2739
  773SOL    HW1 2318   3.735   1.503   3.392 -0.1776 -1.3853  0.8068
  773SOL    HW2 2319   3.596   1.487   3.449 -0.9377 -0.7965 -0.7968
  774SOL     OW 2320   1.917   0.938   0.064  0.4727 -0.0453 -1.0192
  774SOL    HW1 2321   1.950   0.849   0.058 -0.2002 -0.4989  1.1234
  774SOL    HW2 2322   1.995   0.993   0.061  1.4238 -1.0027  2.1206
  775SOL     OW 2323   0.340   0.534   1.065 -0.4155  0.4896 -0.0303
  775SOL    HW1 2324   0.328   0.629   1.068 -0.7278  0.4348  1.4135
  775SOL    HW2 2325   0.326   0.506   1.156  0.3302 -0.8540 -0.3053
  776SOL     OW 2326   2.031   0.248   3.947  0.1631  0.5189  0.1926
  776SOL    HW1 2327   1.982   0.227   4.027 -1.2885 -0.1943 -0.8436
  776SOL    HW2 2328   2.029   0.167   3.896  0.9803  0.9921 -0.6172
  777SOL     OW 2329   0.143   3.766   2.947 -0.3206  0.0620  0.3760
  777SOL    HW1 2330   0.168   3.840   2.891  1.9171  0.0417  1.2334
  777SOL    HW2 2331   0.225   3.719   2.961 -0.8028 -0.0537  3.4434
  778SOL     OW 2332   2.262   0.018   0.580  0.7011 -0.1637  0.0507
  778SOL    HW1 2333   2.261  -0.061   0.526  0.8955  0.7221 -1.2787
  778SOL    HW2 2334   2.283   0.089   0.520  1.3522  0.8105  1.3648
  779SOL     OW 2335   1.337   2.701   3.497 -0.3653  0.4360  0.5763
  779SOL    HW1 2336   1.392   2.653   3.558 -0.8482 -1.0397 -0.1197
  779SOL    HW2 2337   1.289   2.763   3.552  0.7502  0.5949  1.3981
  780SOL     OW 2338   1.905   2.468   2.485  0.1105 -0.5410 -0.2394
  780SOL    HW1 2339   1.868   2.466   2.573  2.8053  1.0835  1.0671
  780SOL    HW2 2340   1.897   2.378   2.453  1.2454 -1.8180  2.7052
  781SOL     OW 2341   1.712   2.596   0.724 -0.1654 -0.1700  0.0262
  781SOL    HW1 2342   1.789   2.575   0.671  0.4806 -0.3149  1.0015
  781SOL    HW2 2343   1.658   2.652   0.667  0.7573  0.1087 -0.5910
  782SOL     OW 2344   0.657   1.316   2.778 -0.0657  0.4545  0.3744
  782SOL    HW1 2345   0.732   1.276   2.733 -0.1388  1.2798 -0.4952
  782SOL    HW2 2346   0.580   1.277   2.738 -0.2204 -2.5053  3.1075
  783SOL     OW 2347   3.500   0.197   3.459 -0.2313 -0.0808  0.0808
  783SOL    HW1 2348   3.485   0.104   3.477  0.7621 -0.0155  1.4165
  783SOL    HW2 2349   3.425   0.224   3.407 -1.0554 -1.3851  0.5454
  784SOL     OW 2350   2.455   0.293   1.933 -0.3804  0.5476 -0.1029
  784SOL    HW1 2351   2.523   0.331   1.877 -0.2069 -1.6215 -1.4689
  784SOL    HW2 2352   2.487   0.307   2.022  1.5102  0.2443 -0.6957
  785SOL     OW 2353   2.580   1.408   0.224  0.2501 -0.2919 -0.2686
  785SOL    HW1 2354   2.620   1.360   0.296 -1.2287 -1.1159  0.0523
  785SOL    HW2 2355   2.496   1.438   0.260 -0.1007  0.0845 -1.3690
  786SOL     OW 2356   2.003   1.887   3.847 -0.4388 -0.0418 -0.2843
  786SOL    HW1 2357   1.909   1.871   3.851 -0.7003  1.5616  1.7617
  786SOL    HW2 2358   2.033   1.879   3.937  1.3198 -0.0796 -0.8343
  787SOL     OW 2359   2.161   2.505   2.381 -0.7598 -0.3493 -0.4134
  787SOL    HW1 2360   2.067   2.517   2.398 -0.9151 -1.2568 -0.5371
  787SOL    HW2 2361   2.174   2.542   2.294 -1.2552 -1.2169 -0.8784
  788SOL     OW 2362   2.425   1.358   3.939 -0.0499  0.1690  0.3275
  788SOL    HW1 2363   2.461   1.345   3.851 -1.0800 -1.9768  0.1556
  788SOL    HW2 2364   2.495   1.329   3.997  0.4657  1.1617  0.2207
  789SOL     OW 2365   1.711   1.983   0.590  0.3371  0.0811 -0.5148
  789SOL    HW1 2366   1.660   2.050   0.635  3.7497  1.7119  1.3060
  789SOL    HW2 2367   1.686   1.991   0.498 -0.6823  2.6578 -0.0986
  790SOL     OW 2368   0.102   3.777   0.972 -0.0796  0.4905 -0.3239
  790SOL    HW1 2369   0.048   3.851   1.001  1.1727  1.1992  0.2800
  790SOL    HW2 2370   0.158   3.814   0.904  0.4688  0.0519 -0.1149
  791SOL     OW 2371   1.830   1.623   1.782 -0.2123 -0.0944  0.7244
  791SOL    HW1 2372   1.741   1.660   1.788 -0.2591 -0.2921  1.3861
  791SOL    HW2 2373   1.849   1.594   1.872 -0.6040 -2.6877  0.0506
  792SOL     OW 2374   0.836   1.574   2.546 -0.5393  0.1416 -0.4504
  792SOL    HW1 2375   0.856   1.584   2.639  0.4827 -1.6376 -0.4352
  792SOL    HW2 2376   0.745   1.603   2.538 -0.8617 -0.2964  1.2246
  793SOL     OW 2377   3.676   3.413   2.562 -0.0924  0.2686 -0.5721
  793SOL    HW1 2378   3.751   3.453   2.518  1.7797 -0.4804  1.7654
  793SOL    HW2 2379   3.643   3.481   2.620  0.6672 -0.2931  0.5539
  794SOL     OW 2380   2.128   3.294   2.649 -0.4836 -0.4909 -0.1263
  794SOL    HW1 2381   2.090   3.235   2.583 -0.2152 -2.5294  1.4170
  794SOL    HW2 2382   2.054   3.318   2.704 -0.3130 -0.8416  0.2662
  795SOL     OW 2383   0.067   2.338   3.702  0.2459  0.4199 -0.4825
  795SOL    HW1 2384   0.090   2.384   3.621 -0.4613  0.3482 -0.7336
  795SOL    HW2 2385   0.089   2.246   3.684  1.1260  0.5667 -0.1865
  796SOL     OW 2386   3.535   0.521   3.212 -0.3167 -0.2179 -0.3077
  796SOL    HW1 2387   3.487   0.562   3.140 -0.5448 -0.4383 -0.2847
  796SOL    HW2 2388   3.497   0.559   3.291 -2.5800 -2.5382 -0.1426
  797SOL     OW 2389   1.688   2.072   0.842 -0.0996 -0.5635  0.2073
  797SOL    HW1 2390   1.717   2.002   0.784 -1.2430 -0.3193 -0.6991
  797SOL    HW2 2391   1.708   2.041   0.930  0.8329 -1.3435 -0.2637
  798SOL     OW 2392   3.825   3.973   3.033  0.1943  0.1496 -0.0439
  798SOL    HW1 2393   3.841   3.924   3.113  1.8558 -0.2069 -0.5645
  798SOL    HW2 2394   3.825   4.065   3.060 -0.1783 -0.0041  0.4928
  799SOL     OW 2395   3.283   3.327   3.391 -0.5737 -0.2647 -0.5985
  799SOL    HW1 2396   3.320   3.396   3.336  1.2009 -1.5092 -1.0449
  799SOL    HW2 2397   3.355   3.266   3.405 -0.9230 -0.0182  3.1845
  800SOL     OW 2398   2.165   0.078   0.164 -0.4346  0.7450 -0.0225
  800SOL    HW1 2399   2.211   0.156   0.134  0.3590  1.0239  1.8323
  800SOL    HW2 2400   2.085   0.110   0.205 -1.1142  0.4168 -1.0398
  801SOL     OW 2401   0.050   2.251   0.255 -0.3143 -0.6935 -0.0921
  801SOL    HW1 2402  -0.046   2.253   0.262 -0.3437  0.0193 -0.5346
  801SOL    HW2 2403   0.068   2.288   0.168  0.2648 -3.4568 -1.2341
  802SOL     OW 2404   1.759   1.882   1.085  0.1040 -0.1948  0.2680
  802SOL    HW1 2405   1.821   1.843   1.023  0.2719  1.8778 -0.9603
  802SOL    HW2 2406   1.681   1.827   1.078 -0.7655  1.2139 -3.6605
  803SOL     OW 2407   0.334   2.451   1.987 -0.3279 -0.0397  0.4492
  803SOL    HW1 2408   0.263   2.428   2.047  0.5321 -1.3080  1.0251
  803SOL    HW2 2409   0.291   2.460   1.901 -0.8061 -4.2939  0.0342
  804SOL     OW 2410   3.541   0.071   1.840 -0.4006  0.3878  0.2489
  804SOL    HW1 2411   3.631   0.100   1.859 -0.4318  0.1821  0.7078
  804SOL    HW2 2412   3.541  -0.022   1.859 -0.4534  0.1810 -0.6950
  805SOL     OW 2413   1.211   3.524   1.107  0.0158 -0.0237 -0.8325
  805SOL    HW1 2414   1.156   3.502   1.182 -0.5886  0.0854 -1.2332
  805SOL    HW2 2415   1.266   3.447   1.094  3.8021  1.7138  2.8224
  806SOL     OW 2416   0.812   2.260   0.045 -0.5884 -0.5113  0.2964
  806SOL    HW1 2417   0.845   2.244   0.134 -2.0729 -1.4681  0.7108
  806SOL    HW2 2418   0.876   2.319   0.006  0.1570 -0.1476  1.9743
  807SOL     OW 2419   3.085   2.938   3.398 -0.4306  0.4194 -0.1181
  807SOL    HW1 2420   3.017   2.916   3.334  1.8178  1.7188 -3.2005
  807SOL    HW2 2421   3.072   3.031   3.416  0.5526  0.7080 -0.8302
  808SOL     OW 2422   1.779   3.539   0.850 -0.6183  0.0409 -0.5522
  808SOL    HW1 2423   1.850   3.499   0.800  0.3399 -1.8651  2.0740
  808SOL    HW2 2424   1.822   3.574   0.928 -2.5147 -1.7214  1.4325
  809SOL     OW 2425   1.386   0.986   1.077 -0.4224  0.3212  0.0402
  809SOL    HW1 2426   1.436   0.962   1.154  0.8150  0.9280 -0.5530
  809SOL    HW2 2427   1.307   1.028   1.111 -1.2195 -1.8066  1.0202
  810SOL     OW 2428   3.629   0.155   3.739 -0.2882  0.4307  0.3751
  810SOL    HW1 2429   3.647   0.061   3.746  2.1740  0.8919  1.0245
  810SOL    HW2 2430   3.559   0.171   3.802  0.6783 -0.6441  1.7674
  811SOL     OW 2431   1.398   1.120   0.298 -0.0131  0.1808 -0.2205
  811SOL    HW1 2432   1.319   1.149   0.345  0.6762 -3.2213  3.6249
  811SOL    HW2 2433   1.469   1.134   0.360  1.6461 -1.0534 -1.7462
  812SOL     OW 2434   0.944   0.911   1.451  0.5756  0.7927 -0.6052
  812SOL    HW1 2435   0.907   0.986   1.404 -1.6088  0.2517  0.1605
  812SOL    HW2 2436   0.943   0.938   1.543  1.1276  0.3393 -0.4598
  813SOL     OW 2437   2.645   3.513   2.238 -0.4259 -0.1476  0.2013
  813SOL    HW1 2438   2.729   3.513   2.283 -0.3898 -0.1223  0.1347
  813SOL    HW2 2439   2.612   3.603   2.248 -1.4178 -0.6728  2.0225
  814SOL     OW 2440   1.069   2.432   0.294  0.0057  0.5770 -0.0710
  814SOL    HW1 2441   1.154   2.475   0.300  1.5187 -1.5786 -3.1157
  814SOL    HW2 2442   1.014   2.493   0.245  0.9122  0.6890 -0.9933
  815SOL     OW 2443   3.488   1.732   3.500 -0.4444 -0.5123 -0.0249
  815SOL    HW1 2444   3.511   1.661   3.560  0.0820 -0.6481 -0.3819
  815SOL    HW2 2445   3.539   1.714   3.421 -0.9108 -0.1732 -0.4056
  816SOL     OW 2446   1.607   3.780   1.477  0.0573 -0.3032  0.2497
  816SOL    HW1 2447   1.659   3.735   1.411  1.8872  1.9620  0.0135
  816SOL    HW2 2448   1.558   3.846   1.428  0.8478  0.8833  0.9981
  817SOL     OW 2449   0.717   1.034   1.975 -0.4975  0.8795 -0.0874
  817SOL    HW1 2450   0.667   0.953   1.964  2.3701 -1.1408  0.6987
  817SOL    HW2 2451   0.748   1.032   2.066  3.0549  0.6090 -1.1333
  818SOL     OW 2452   0.288   2.740   1.821  0.5362  0.2032  0.3457
  818SOL    HW1 2453   0.334   2.746   1.904 -0.7953  0.4417  1.0814
  818SOL    HW2 2454   0.264   2.830   1.800  1.5956  0.2613 -0.7499
  819SOL     OW 2455   2.925   1.617   1.360  0.1482 -0.0685  0.4106
  819SOL    HW1 2456   2.869   1.560   1.413  1.1685 -0.5761  0.9772
  819SOL    HW2 2457   3.009   1.616   1.405  0.6482  0.5979 -0.4788
  820SOL     OW 2458   1.401   3.477   1.397 -0.5917 -0.6081 -0.9051
  820SOL    HW1 2459   1.415   3.524   1.314  0.4971 -0.0409 -0.4259
  820SOL    HW2 2460   1.474   3.415   1.402 -0.4593 -0.4043 -0.2190
  821SOL     OW 2461   3.115   1.838   2.570  0.0863  0.7175  0.0331
  821SOL    HW1 2462   3.048   1.900   2.540  0.0481 -0.1283 -1.7831
  821SOL    HW2 2463   3.191   1.857   2.515 -0.1774 -1.2973 -1.1151
  822SOL     OW 2464   2.667   3.314   0.770 -0.4387  0.4794  0.2316
  822SOL    HW1 2465   2.601   3.270   0.823 -0.2044  1.3524  1.2654
  822SOL    HW2 2466   2.673   3.402   0.807  2.3097  0.0165  1.0788
  823SOL     OW 2467   3.547   3.202   0.688 -0.0910  0.6924 -0.0251
  823SOL    HW1 2468   3.457   3.223   0.663 -0.5707  0.8843  1.7674
  823SOL    HW2 2469   3.559   3.112   0.657 -0.7110  0.8424 -0.7372
  824SOL     OW 2470   3.440   1.627   3.193  0.8498  0.4360  0.1111
  824SOL    HW1 2471   3.404   1.713   3.216 -0.4757 -0.6024  2.1645
  824SOL    HW2 2472   3.531   1.646   3.167  0.0717  2.6374 -1.3359
  825SOL     OW 2473   1.195   3.510   2.212  0.3920 -0.4008 -0.3718
  825SOL    HW1 2474   1.256   3.560   2.266 -0.3978  1.1234 -0.8323
  825SOL    HW2 2475   1.155   3.447   2.273 -0.6116  1.3908  0.9268
  826SOL     OW 2476   3.799   2.255   1.416 -0.2337  0.4687 -0.4398
  826SOL    HW1 2477   3.767   2.184   1.359 -1.9929  0.3677  0.5875
  826SOL    HW2 2478   3.728   2.268   1.479  2.2760 -0.6222  2.8848
  827SOL     OW 2479   2.590   3.475   1.993 -0.3175  0.2072 -0.2362
  827SOL    HW1 2480   2.633   3.390   1.983 -0.0256  0.4360 -0.9979
  827SOL    HW2 2481   2.622   3.507   2.077  0.6146  0.1345 -0.5451
  828SOL     OW 2482   2.931   1.911   1.269  0.2082  0.5341 -0.2219
  828SOL    HW1 2483   2.911   1.820   1.243  2.8117 -0.3030  0.4880
  828SOL    HW2 2484   3.025   1.911   1.286  0.7235  3.9031 -2.2471
  829SOL     OW 2485   1.763   4.009   2.273 -0.5838 -0.0980  0.3006
  829SOL    HW1 2486   1.849   3.967   2.274 -1.0510 -1.0625  0.4730
  829SOL    HW2 2487   1.723   3.981   2.191 -0.6089  0.6322  0.0529
  830SOL     OW 2488   1.237   3.608   3.468  0.8218  0.7041 -0.0884
  830SOL    HW1 2489   1.154   3.622   3.515  1.0643  1.5652  0.0841
  830SOL    HW2 2490   1.225   3.523   3.425 -0.8506  1.6150 -1.5219
  831SOL     OW 2491   3.152   1.536   1.164  0.0236 -0.3163 -0.2028
  831SOL    HW1 2492   3.168   1.513   1.256  0.5731 -1.4820 -0.5679
  831SOL    HW2 2493   3.236   1.569   1.133 -0.2439  0.3569 -0.2075
  832SOL     OW 2494   0.172   0.354   2.630 -0.4940  0.5187  0.2681
  832SOL    HW1 2495   0.239   0.395   2.684 -0.1594  0.7484 -0.3145
  832SOL    HW2 2496   0.103   0.420   2.625  0.0433  1.0222 -0.6679
  833SOL     OW 2497   2.303   3.208   1.185 -0.1709  0.0791 -0.4635
  833SOL    HW1 2498   2.289   3.205   1.280 -2.3545 -0.0379 -0.7325
  833SOL    HW2 2499   2.332   3.120   1.162 -1.6601 -0.5367 -0.1292
  834SOL     OW 2500   1.971   0.560   3.179 -0.3399 -0.3306  0.1371
  834SOL    HW1 2501   1.905   0.490   3.182 -0.6291 -0.1633 -1.6132
  834SOL    HW2 2502   1.938   0.621   3.114  0.7672  0.5793  0.4115
  835SOL     OW 2503   2.029   1.889   1.781  0.5449 -0.2429  0.6327
  835SOL    HW1 2504   2.051   1.845   1.864  1.2510 -0.1943  0.4795
  835SOL    HW2 2505   2.041   1.821   1.715  0.3646 -0.1725  0.5278
  836SOL     OW 2506   0.063   2.633   0.074 -0.1897 -0.1010 -0.0230
  836SOL    HW1 2507   0.050   2.629   0.168  0.8701  3.4870  0.4233
  836SOL    HW2 2508  -0.005   2.692   0.043  0.2735 -0.2165 -1.3192
  837SOL     OW 2509   0.042   3.501   0.852  0.1458 -0.8240 -0.0008
  837SOL    HW1 2510  -0.036   3.547   0.883 -0.4373 -0.3014 -2.0757
  837SOL    HW2 2511   0.109   3.569   0.845 -0.3684 -0.4616 -1.9094
  838SOL     OW 2512   2.166   1.988   2.387 -0.1417 -0.1632 -0.0689
  838SOL    HW1 2513   2.222   2.055   2.425  1.9970 -0.6261 -2.1878
  838SOL    HW2 2514   2.163   1.918   2.452 -0.8793  1.1445  1.3705
  839SOL     OW 2515   2.320   0.361   0.680  0.2123  0.0698  0.1000
  839SOL    HW1 2516   2.252   0.316   0.730 -1.5337 -1.5203 -3.3486
  839SOL    HW2 2517   2.378   0.291   0.649  1.6395  1.0711  0.3835
  840SOL     OW 2518   0.858   3.794   0.872 -0.1934  0.3574 -0.0204
  840SOL    HW1 2519   0.864   3.715   0.819  0.9537  0.0947  0.4644
  840SOL    HW2 2520   0.817   3.859   0.815  0.2954 -0.1381 -0.9585
  841SOL     OW 2521   1.804   3.411   3.863  0.2437 -0.0569  0.1382
  841SOL    HW1 2522   1.754   3.363   3.929  0.9969  0.5754  1.1886
  841SOL    HW2 2523   1.741   3.473   3.826  0.1739  0.6045  1.3192
  842SOL     OW 2524   1.689   3.439   0.610  0.6616 -0.1349 -0.5717
  842SOL    HW1 2525   1.696   3.438   0.705  0.5841  0.9534 -0.5425
  842SOL    HW2 2526   1.780   3.434   0.579  0.8022  1.0069 -0.4006
  843SOL     OW 2527   3.943   3.318   3.414 -0.0499  0.1118 -0.1281
  843SOL    HW1 2528   3.974   3.228   3.411 -1.3459 -0.3272 -1.8804
  843SOL    HW2 2529   3.864   3.319   3.359 -0.8948  1.9993  1.0036
  844SOL     OW 2530   2.814   0.462   3.758 -0.1120  0.6593 -0.6686
  844SOL    HW1 2531   2.721   0.443   3.768 -0.1404 -0.0907 -2.1364
  844SOL    HW2 2532   2.836   0.433   3.669  1.6067  0.4459 -0.2249
  845SOL     OW 2533   0.780   3.644   1.835  0.3892  0.1798  0.5929
  845SOL    HW1 2534   0.858   3.632   1.781  1.3795 -0.3044  2.0577
  845SOL    HW2 2535   0.771   3.739   1.844  0.4709  0.2517 -0.0453
  846SOL     OW 2536   0.772   1.384   3.969  0.7600  0.7240 -0.0125
  846SOL    HW1 2537   0.838   1.323   3.936  0.9554  0.5488  0.6903
  846SOL    HW2 2538   0.820   1.445   4.025  0.3511  0.6913  0.3808
  847SOL     OW 2539   3.550   3.959   3.027 -0.2367  0.0397  0.2443
  847SOL    HW1 2540   3.632   3.955   3.076 -0.4040  0.4254  0.5645
  847SOL    HW2 2541   3.511   4.043   3.052 -0.3718  0.1985 -0.4782
  848SOL     OW 2542   0.703   3.683   3.105 -0.1495  0.1718 -0.1294
  848SOL    HW1 2543   0.652   3.756   3.070  0.0525  0.1948 -0.3769
  848SOL    HW2 2544   0.645   3.607   3.099 -0.4700  0.3711  0.4112
  849SOL     OW 2545   1.978   1.233   2.970  0.2122  1.0522 -0.0314
  849SOL    HW1 2546   1.914   1.303   2.980  0.0815  1.2677 -1.8944
  849SOL    HW2 2547   2.063   1.275   2.984  0.0596  1.2784  0.2078
  850SOL     OW 2548   2.440   3.376   3.800 -0.7956 -0.3999  0.2223
  850SOL    HW1 2549   2.532   3.377   3.826 -0.6967 -3.2130  0.3239
  850SOL    HW2 2550   2.408   3.464   3.821  2.0752  1.0353 -0.8015
  851SOL     OW 2551   0.813   3.177   1.784  0.1395  0.3187  0.1607
  851SOL    HW1 2552   0.718   3.179   1.791  0.0929 -0.6407 -0.0989
  851SOL    HW2 2553   0.830   3.121   1.708  0.8948  1.1518 -0.3098
  852SOL     OW 2554   3.408   0.246   0.175 -0.0725  0.2953  0.1105
  852SOL    HW1 2555   3.394   0.168   0.229 -0.1296  0.7838  0.8122
  852SOL    HW2 2556   3.424   0.316   0.238  0.8990  0.6724 -0.5382
  853SOL     OW 2557   2.408   2.767   0.381 -0.4810  0.7457  0.2361
  853SOL    HW1 2558   2.423   2.853   0.420 -0.1386  0.7889  0.0180
  853SOL    HW2 2559   2.386   2.785   0.290 -3.2207  0.7608  0.8406
  854SOL     OW 2560   2.949   0.506   3.210 -0.4390 -0.7344  0.0314
  854SOL    HW1 2561   2.865   0.461   3.198 -1.2870  1.3349 -2.9884
  854SOL    HW2 2562   2.951   0.530   3.303 -2.1580 -2.6757  0.6326
  855SOL     OW 2563   3.752   0.907   3.361  0.6030  0.0183  0.0187
  855SOL    HW1 2564   3.836   0.866   3.379 -0.7730 -2.2045  1.9317
  855SOL    HW2 2565   3.728   0.950   3.443 -0.7911 -0.7264  0.0378
  856SOL     OW 2566   2.870   1.416   3.399  0.4431 -0.0515 -0.3508
  856SOL    HW1 2567   2.797   1.363   3.367  0.6022  1.2797 -3.1536
  856SOL    HW2 2568   2.930   1.422   3.325  2.3449  0.7740  1.1602
  857SOL     OW 2569   1.269   3.144   1.623 -0.5863 -0.5424 -0.2245
  857SOL    HW1 2570   1.354   3.170   1.660 -1.3995  1.1893  0.5515
  857SOL    HW2 2571   1.219   3.225   1.620 -2.9502 -1.8248  1.2721
  858SOL     OW 2572   2.574   2.034   1.941 -0.9719  0.2606  0.3658
  858SOL    HW1 2573   2.530   1.968   1.995 -0.0714  0.1559  0.9903
  858SOL    HW2 2574   2.666   2.027   1.966 -0.8168  1.5141  0.1792
  859SOL     OW 2575   0.912   3.521   2.780  0.2064 -0.8576 -0.2281
  859SOL    HW1 2576   0.908   3.426   2.768  0.2661 -0.7501 -1.1460
  859SOL    HW2 2577   0.889   3.557   2.694 -0.1201 -0.0359  0.1973
  860SOL     OW 2578   2.586   3.404   1.223  0.0837  0.6557  0.3411
  860SOL    HW1 2579   2.539   3.329   1.260  1.1359  0.2072  0.7991
  860SOL    HW2 2580   2.520   3.451   1.173 -0.1563 -1.7034 -1.7080
  861SOL     OW 2581   3.790   0.701   3.787 -0.5730  0.0218  0.1214
  861SOL    HW1 2582   3.840   0.627   3.820 -1.2568  0.1546  1.5376
  861SOL    HW2 2583   3.737   0.665   3.715  0.0145 -0.5690 -0.0200
  862SOL     OW 2584   1.078   0.116   0.363 -0.5420  0.4697 -0.1090
  862SOL    HW1 2585   1.133   0.105   0.286  0.0911 -0.6813  0.4879
  862SOL    HW2 2586   1.111   0.052   0.426 -1.2058  1.2123  1.0325
  863SOL     OW 2587   3.977   2.041   1.049  0.4276  0.2837  0.4659
  863SOL    HW1 2588   4.028   2.087   0.982 -2.1113  3.7298  0.6294
  863SOL    HW2 2589   3.886   2.052   1.022 -0.5942  0.0752  3.3917
  864SOL     OW 2590   1.810   1.050   3.775 -0.1580  0.4365  0.2704
  864SOL    HW1 2591   1.816   0.999   3.855 -0.9265  0.5946  0.4344
  864SOL    HW2 2592   1.853   0.996   3.709 -1.8303 -0.9104  0.2183
  865SOL     OW 2593   1.374   3.026   0.574  0.2520  0.1978  0.8707
  865SOL    HW1 2594   1.333   2.943   0.552 -0.5357  0.5351  1.0325
  865SOL    HW2 2595   1.303   3.091   0.567 -0.0005  0.4131  3.9486
  866SOL     OW 2596   1.289   2.804   2.826 -0.0504 -0.1616  0.2753
  866SOL    HW1 2597   1.372   2.773   2.789  0.5990  0.8079  0.8908
  866SOL    HW2 2598   1.302   2.897   2.840 -1.1260 -0.0683  0.7300
  867SOL     OW 2599   1.529   1.502   0.879 -0.1860 -0.0670 -0.3082
  867SOL    HW1 2600   1.605   1.461   0.921 -0.0347 -0.8793 -1.3460
  867SOL    HW2 2601   1.463   1.433   0.877 -0.7891  0.4835  0.1282
  868SOL     OW 2602   2.172   1.541   2.475  0.4417 -0.2169  0.4175
  868SOL    HW1 2603   2.203   1.621   2.517 -1.7625  0.6301  0.5252
  868SOL    HW2 2604   2.088   1.565   2.436  0.2988 -2.1732 -0.6010
  869SOL     OW 2605   1.738   1.499   1.311 -0.2695  0.2490  0.1758
  869SOL    HW1 2606   1.704   1.573   1.362  1.6444  0.4474  1.2733
  869SOL    HW2 2607   1.728   1.423   1.369 -0.4976 -0.0173 -0.2083
  870SOL     OW 2608   2.553   2.398   1.450  0.2488 -0.4713  0.3826
  870SOL    HW1 2609   2.609   2.474   1.460 -0.2835  0.2983 -1.9287
  870SOL    HW2 2610   2.612   2.327   1.425  0.4529 -0.2073  0.1191
  871SOL     OW 2611   2.962   3.916   2.404 -0.4721 -0.1261 -0.1365
  871SOL    HW1 2612   2.999   3.827   2.396 -1.1913 -0.8878  3.3006
  871SOL    HW2 2613   3.031   3.973   2.369  0.5554 -1.9375 -1.2604
  872SOL     OW 2614   3.833   3.948   2.107  0.0627 -0.0993 -0.1928
  872SOL    HW1 2615   3.861   4.020   2.050  1.8142  0.2103  0.9623
  872SOL    HW2 2616   3.768   3.988   2.165  0.0855  0.2376 -0.3928
  873SOL     OW 2617   2.737   1.551   3.865 -0.7592  0.6307  0.2074
  873SOL    HW1 2618   2.808   1.569   3.804 -1.2587  1.5522 -0.1023
  873SOL    HW2 2619   2.679   1.492   3.817  0.6632 -1.6165  1.0798
  874SOL     OW 2620   0.326   2.670   0.060  0.0647  0.6464 -0.0665
  874SOL    HW1 2621   0.231   2.661   0.069  0.0323  0.3721 -0.6496
  874SOL    HW2 2622   0.360   2.640   0.144 -0.2493 -1.5316 -0.6488
  875SOL     OW 2623   3.790   1.477   2.307 -0.7232  0.2208 -0.3191
  875SOL    HW1 2624   3.801   1.413   2.378  0.0829  1.1835  0.4561
  875SOL    HW2 2625   3.876   1.481   2.265  0.3307  3.1833  1.7696
  876SOL     OW 2626   1.802   1.363   3.646 -0.1036  0.2707 -0.0223
  876SOL    HW1 2627   1.861   1.432   3.678 -0.1842  0.1255  0.4552
  876SOL    HW2 2628   1.717   1.406   3.637  0.1250  0.5512 -0.9844
  877SOL     OW 2629   1.850   2.916   1.774  0.0043  0.1476  0.1601
  877SOL    HW1 2630   1.870   2.995   1.724  2.4807  0.7393  1.8699
  877SOL    HW2 2631   1.801   2.948   1.850 -0.6372 -0.2473 -0.0810
  878SOL     OW 2632   3.983   2.756   3.335 -0.3338 -0.1761  0.3444
  878SOL    HW1 2633   4.018   2.719   3.416 -0.2170 -0.8927 -0.0256
  878SOL    HW2 2634   3.906   2.703   3.314 -0.5752  0.2318  0.1768
  879SOL     OW 2635   1.959   0.680   2.219 -0.2621 -0.2751  0.0232
  879SOL    HW1 2636   1.890   0.726   2.266 -0.1950 -0.6896  0.5414
  879SOL    HW2 2637   1.913   0.622   2.159 -0.3573 -0.2306  0.0542
  880SOL     OW 2638   3.829   2.303   2.629  0.0979  0.0249 -0.2822
  880SOL    HW1 2639   3.910   2.310   2.579  2.2989 -0.8020  2.8765
  880SOL    HW2 2640   3.848   2.347   2.711 -1.9893 -1.8392  1.3161
  881SOL     OW 2641   0.864   3.011   0.498  0.3892  0.1660 -0.2669
  881SOL    HW1 2642   0.809   3.083   0.468 -1.7161 -1.9414 -1.8692
  881SOL    HW2 2643   0.913   3.047   0.572 -0.4578  3.2165 -1.0400
  882SOL     OW 2644   2.890   1.534   3.644 -0.1100 -0.1739 -0.4997
  882SOL    HW1 2645   2.899   1.501   3.555  0.4008 -1.7117  0.0674
  882SOL    HW2 2646   2.980   1.537   3.678 -0.4250 -1.5396  0.5686
  883SOL     OW 2647   3.917   3.190   2.054 -0.8236 -0.1082 -0.2103
  883SOL    HW1 2648   3.856   3.264   2.059 -1.8083 -0.5904 -3.2140
  883SOL    HW2 2649   3.869   3.117   2.093  0.2103  0.7099  2.9169
  884SOL     OW 2650   0.261   3.445   0.347 -0.1910 -0.5152  0.2580
  884SOL    HW1 2651   0.266   3.539   0.363  0.1717 -0.7566  1.7093
  884SOL    HW2 2652   0.169   3.424   0.356 -0.1716 -0.4173  0.6951
  885SOL     OW 2653   2.446   3.849   3.248 -0.2461  0.3514 -0.0861
  885SOL    HW1 2654   2.448   3.896   3.165 -0.3562  1.7932  0.6943
  885SOL    HW2 2655   2.528   3.800   3.250  0.0558  0.8092 -0.7665
  886SOL     OW 2656   3.150   1.714   0.458  0.7367  0.5588  0.1064
  886SOL    HW1 2657   3.177   1.790   0.406  0.1264  1.7571  1.4635
  886SOL    HW2 2658   3.075   1.678   0.412  0.7219  1.1001 -0.3029
  887SOL     OW 2659   1.472   2.086   1.153  0.2756 -0.3053 -0.3839
  887SOL    HW1 2660   1.407   2.036   1.104 -0.9823  1.4561 -0.5930
  887SOL    HW2 2661   1.516   2.021   1.208 -1.7079 -1.5617 -0.1957
  888SOL     OW 2662   3.134   1.021   0.172 -0.3864 -0.1673  0.4448
  888SOL    HW1 2663   3.134   1.103   0.221  1.9554 -0.1154  0.4736
  888SOL    HW2 2664   3.171   0.957   0.233  1.5718 -0.3354 -0.8169
  889SOL     OW 2665   3.906   0.731   2.942 -0.3764 -0.0678  0.2948
  889SOL    HW1 2666   3.837   0.710   3.004 -1.4712 -1.5452 -1.3029
  889SOL    HW2 2667   3.879   0.814   2.902 -2.1611 -1.3705 -1.4161
  890SOL     OW 2668   3.179   0.805   2.877  0.7858  1.0357 -0.1288
  890SOL    HW1 2669   3.095   0.781   2.838  0.1336 -0.6008  2.0454
  890SOL    HW2 2670   3.160   0.815   2.970  2.7062  2.3381  0.1832
  891SOL     OW 2671   3.413   1.709   1.111 -0.5845  0.0296  1.0073
  891SOL    HW1 2672   3.507   1.692   1.118 -0.8435 -2.6559 -0.4928
  891SOL    HW2 2673   3.404   1.766   1.035 -0.1623  0.4700  1.2858
  892SOL     OW 2674   1.293   0.182   2.048  0.2543  0.1132 -0.9803
  892SOL    HW1 2675   1.329   0.122   1.983  1.1147 -0.4138 -0.0460
  892SOL    HW2 2676   1.351   0.174   2.124 -0.8412  0.5475 -0.0521
  893SOL     OW 2677   1.544   2.259   3.536 -0.0814 -0.2781  0.2282
  893SOL    HW1 2678   1.510   2.188   3.591 -0.5070 -2.6142 -2.8130
  893SOL    HW2 2679   1.518   2.235   3.447  2.2800  2.2464 -1.2848
  894SOL     OW 2680   3.593   3.184   1.609  0.3583  0.4456 -0.1184
  894SOL    HW1 2681   3.587   3.159   1.701  0.7813  0.7234 -0.0127
  894SOL    HW2 2682   3.683   3.164   1.584  1.3791  3.6150  0.5306
  895SOL     OW 2683   1.993   3.470   0.701  1.0608 -0.3827  0.5080
  895SOL    HW1 2684   2.018   3.378   0.693  1.3569 -0.3505  1.0721
  895SOL    HW2 2685   2.066   3.511   0.747  1.1547  0.2344 -0.1777
  896SOL     OW 2686   2.445   0.029   2.452 -0.6893 -0.1668 -0.1828
  896SOL    HW1 2687   2.466   0.019   2.359  1.0095  2.1512 -0.1475
  896SOL    HW2 2688   2.530   0.027   2.496 -1.2377  1.0496  1.0164
  897SOL     OW 2689   2.419   1.616  -0.024  0.1998  0.1084  0.0903
  897SOL    HW1 2690   2.468   1.535  -0.035  0.9137  0.6849 -1.1419
  897SOL    HW2 2691   2.376   1.606   0.061  0.8660 -1.2385  0.3003
  898SOL     OW 2692   3.574   3.238   0.319 -0.3397  0.3218  0.3543
  898SOL    HW1 2693   3.595   3.301   0.388 -0.7619  0.2468  0.5511
  898SOL    HW2 2694   3.481   3.218   0.331 -0.5537  0.7183 -0.5665
  899SOL     OW 2695   2.680   2.816   0.300 -0.0869  0.3092  0.0834
  899SOL    HW1 2696   2.591   2.780   0.298  0.0456 -0.2415  1.8792
  899SOL    HW2 2697   2.675   2.886   0.366  0.6911  0.6628 -0.2261
  900SOL     OW 2698   1.490   2.085   2.312 -0.2489  0.0319  0.1953
  900SOL    HW1 2699   1.516   2.158   2.257 -1.3522  1.9955  2.0712
  900SOL    HW2 2700   1.464   2.016   2.251 -0.2416  1.6181 -1.6984
  901SOL     OW 2701   0.885   1.383   0.994 -0.1680 -0.3587 -0.1957
  901SOL    HW1 2702   0.927   1.447   1.052  0.4875  1.3128 -2.4018
  901SOL    HW2 2703   0.957   1.331   0.959 -0.5906 -1.5579  0.6192
  902SOL     OW 2704   3.730   0.365   3.630 -0.2471 -0.0992  0.5004
  902SOL    HW1 2705   3.677   0.443   3.649 -0.4238  0.7220 -2.6540
  902SOL    HW2 2706   3.674   0.291   3.654 -3.0717  0.7234 -2.6277
  903SOL     OW 2707   3.152   2.049   3.246 -0.4456  0.4562  0.0290
  903SOL    HW1 2708   3.178   2.103   3.321  1.0510  0.2332 -0.2935
  903SOL    HW2 2709   3.112   1.971   3.285 -1.7307  1.3250  0.5190
  904SOL     OW 2710   1.235   0.339   3.606  0.2604 -0.0997  0.3776
  904SOL    HW1 2711   1.326   0.337   3.579 -0.1736 -1.8826 -1.2553
  904SOL    HW2 2712   1.218   0.430   3.630  1.9236  0.6856 -1.2268
  905SOL     OW 2713   0.644   3.592   0.034 -0.0489  0.5876 -0.4435
  905SOL    HW1 2714   0.580   3.525   0.057 -1.1945  2.2316  1.6051
  905SOL    HW2 2715   0.729   3.552   0.049 -0.7028 -0.4351  0.7251
  906SOL     OW 2716   3.325   2.393   1.826 -0.4047  0.5203 -0.8652
  906SOL    HW1 2717   3.322   2.402   1.730 -2.6794  0.1142 -0.8913
  906SOL    HW2 2718   3.255   2.331   1.846  0.5834 -0.0544  1.0312
  907SOL     OW 2719   3.406   0.714   3.846  0.4186  0.5823 -0.2833
  907SOL    HW1 2720   3.472   0.777   3.818  0.5317  1.4425  1.7428
  907SOL    HW2 2721   3.400   0.725   3.941 -0.2563 -1.8173  0.0338
  908SOL     OW 2722   2.659   2.820   3.792  0.3909  0.1808  0.1200
  908SOL    HW1 2723   2.714   2.822   3.714 -0.6962  2.3939 -0.6787
  908SOL    HW2 2724   2.574   2.790   3.761  0.3634 -0.4337  0.7678
  909SOL     OW 2725   2.381   3.277   0.339  0.2746  0.0030  0.7821
  909SOL    HW1 2726   2.399   3.247   0.250  0.8253  1.2767  0.4420
  909SOL    HW2 2727   2.447   3.344   0.356 -1.4125  1.6881  1.1358
  910SOL     OW 2728   1.643   0.466   1.397 -0.6089  0.0297  0.6718
  910SOL    HW1 2729   1.655   0.539   1.338 -0.4667  1.9727  2.9537
  910SOL    HW2 2730   1.583   0.407   1.351  1.6553 -0.0234 -2.5221
  911SOL     OW 2731   2.234   0.747   3.524  0.5766 -0.7740 -0.5443
  911SOL    HW1 2732   2.211   0.654   3.526 -2.2025 -0.1632  1.4339
  911SOL    HW2 2733   2.159   0.789   3.483  1.5253  0.6764 -0.8375
  912SOL     OW 2734   2.969   1.908   0.072  0.1921 -0.1213 -0.2577
  912SOL    HW1 2735   3.039   1.952   0.023 -0.1010  1.3056  0.5473
  912SOL    HW2 2736   3.008   1.825   0.098  0.6527 -0.5378 -2.1102
  913SOL     OW 2737   1.273   2.321   3.003  0.0852 -0.2427  0.7249
  913SOL    HW1 2738   1.348   2.378   3.020 -1.2898  1.8681 -0.0095
  913SOL    HW2 2739   1.272   2.310   2.908 -0.1237 -0.9000  0.7949
  914SOL     OW 2740   1.809   3.644   2.268  0.0086  0.2472 -0.0635
  914SOL    HW1 2741   1.882   3.685   2.223  0.0318 -1.6383 -1.9157
  914SOL    HW2 2742   1.736   3.705   2.258  0.9353  1.5126  0.6067
  915SOL     OW 2743   0.294   0.666   2.152  0.0899  0.2040  0.9095
  915SOL    HW1 2744   0.305   0.620   2.235 -0.9089 -0.9427  0.4266
  915SOL    HW2 2745   0.310   0.600   2.085  1.2510  1.2005  0.1557
  916SOL     OW 2746   2.124   3.400   2.127 -0.0346  0.4758  0.4797
  916SOL    HW1 2747   2.088   3.385   2.215  0.6656  0.1374  0.7162
  916SOL    HW2 2748   2.218   3.406   2.141  0.1712 -0.5078 -0.3657
  917SOL     OW 2749   0.972   2.923   0.976 -0.4841  0.3281  0.0319
  917SOL    HW1 2750   0.954   2.849   0.918  0.6865  0.1854 -0.1777
  917SOL    HW2 2751   1.057   2.903   1.016 -0.7797  0.9247  0.9996
  918SOL     OW 2752   0.267   3.390   1.029 -0.0205 -0.7084  0.3653
  918SOL    HW1 2753   0.331   3.320   1.031  2.6352  1.5135 -0.9042
  918SOL    HW2 2754   0.209   3.368   0.957 -0.4078 -2.4575  1.1589
  919SOL     OW 2755   0.740   3.440   2.290  0.6871  0.2580  0.4589
  919SOL    HW1 2756   0.688   3.475   2.218  1.2412 -0.0452 -0.0886
  919SOL    HW2 2757   0.826   3.422   2.252  0.6201 -1.0730  0.8754
  920SOL     OW 2758   3.050   2.447   2.017  0.0261  0.2099  0.0012
  920SOL    HW1 2759   3.037   2.498   1.937  2.2392 -0.0126 -0.5597
  920SOL    HW2 2760   3.085   2.509   2.081 -0.3389  0.0727  0.3393
  921SOL     OW 2761   2.802   3.036   0.503 -0.3304 -0.3690 -0.8745
  921SOL    HW1 2762   2.838   3.125   0.497  0.8671 -0.3810  3.2380
  921SOL    HW2 2763   2.879   2.979   0.499 -0.5297 -0.8405  1.1794
  922SOL     OW 2764   3.652   3.642   3.153  0.0348 -0.1160 -0.5925
  922SOL    HW1 2765   3.746   3.656   3.159  0.2233 -0.4935 -2.2252
  922SOL    HW2 2766   3.625   3.691   3.075 -1.4354  1.3747  0.7618
  923SOL     OW 2767   3.019   2.934   2.728 -0.2145  0.0548  0.3946
  923SOL    HW1 2768   2.978   2.848   2.715 -1.8117  0.9428 -0.8025
  923SOL    HW2 2769   2.955   2.983   2.779  1.2355  0.1801  2.1695
  924SOL     OW 2770   3.219   1.879   3.005  0.4928 -0.1191 -0.0997
  924SOL    HW1 2771   3.168   1.899   3.083  0.4446 -0.7013  0.0205
  924SOL    HW2 2772   3.160   1.829   2.949  1.5547 -2.8242  1.0129
  925SOL     OW 2773   2.710   0.183   1.589  0.5091 -0.2306 -0.1690
  925SOL    HW1 2774   2.637   0.181   1.527 -1.1882 -2.2667  1.7234
  925SOL    HW2 2775   2.788   0.168   1.535 -0.7723 -1.0452 -1.9066
  926SOL     OW 2776   0.707   0.840   1.264  0.5336 -0.2181  0.3083
  926SOL    HW1 2777   0.651   0.821   1.340 -1.7663  0.9744 -0.9698
  926SOL    HW2 2778   0.794   0.852   1.301 -0.4751  0.2319  2.7686
  927SOL     OW 2779   3.295   2.660   1.142  0.3528 -0.3327 -0.2254
  927SOL    HW1 2780   3.269   2.748   1.167 -2.0189 -1.0525  0.1231
  927SOL    HW2 2781   3.334   2.669   1.056 -0.3360  1.0021 -0.4135
  928SOL     OW 2782   0.762   0.305   2.755  0.4660 -0.1822 -0.2650
  928SOL    HW1 2783   0.819   0.325   2.829 -0.0589 -1.4729  0.5342
  928SOL    HW2 2784   0.758   0.387   2.705  0.9815  0.6762  1.0274
  929SOL     OW 2785   3.432   2.693   0.648  0.2434  0.0858 -0.0390
  929SOL    HW1 2786   3.421   2.603   0.678  0.6790 -0.0272 -0.2090
  929SOL    HW2 2787   3.353   2.738   0.677 -1.0316 -0.8385 -1.8552
  930SOL     OW 2788   2.812   2.776   1.269  0.4452 -0.1337  0.7254
  930SOL    HW1 2789   2.760   2.714   1.219 -1.2284  2.3128 -0.8137
  930SOL    HW2 2790   2.890   2.791   1.215 -0.5965  1.2932 -0.4621
  931SOL     OW 2791   1.179   1.061   0.852 -0.7519  0.5112  0.2828
  931SOL    HW1 2792   1.117   0.989   0.860 -0.0402 -0.2327 -0.6630
  931SOL    HW2 2793   1.125   1.136   0.828 -1.3251 -0.0755 -0.3145
  932SOL     OW 2794   0.745   1.136   1.373  0.4591 -0.2079  0.7051
  932SOL    HW1 2795   0.690   1.205   1.409 -1.0812 -0.7763 -0.4712
  932SOL    HW2 2796   0.830   1.179   1.359  0.0740  0.9371  1.6794
  933SOL     OW 2797   4.001   0.212   0.746  0.4165 -0.8323  0.0045
  933SOL    HW1 2798   3.914   0.185   0.720 -0.0120  1.5039 -1.2891
  933SOL    HW2 2799   3.987   0.291   0.799  1.7143 -0.5021 -0.0969
  934SOL     OW 2800   1.076   3.857   2.098 -0.0286  0.0924 -0.4383
  934SOL    HW1 2801   1.002   3.798   2.116  2.9182 -3.8017  0.1593
  934SOL    HW2 2802   1.084   3.858   2.003 -0.2757 -0.1738 -0.4628
  935SOL     OW 2803   3.112   3.759   0.326  0.0745 -0.2928  0.2085
  935SOL    HW1 2804   3.063   3.685   0.292  1.0308 -1.8428  2.0335
  935SOL    HW2 2805   3.047   3.826   0.343 -0.9502 -1.0775 -0.5240
  936SOL     OW 2806   0.358   3.039   1.052 -0.5836 -0.5825 -0.8767
  936SOL    HW1 2807   0.435   3.093   1.034 -0.5655 -1.0148 -2.1759
  936SOL    HW2 2808   0.356   2.975   0.981 -2.8724  0.2386 -1.6444
  937SOL     OW 2809   0.589   1.497   2.319  0.2980  0.4226 -0.2446
  937SOL    HW1 2810   0.576   1.527   2.409  0.2506 -0.8502  0.1854
  937SOL    HW2 2811   0.594   1.402   2.325  1.7573  0.3890 -1.4128
  938SOL     OW 2812   2.069   0.189   3.482  0.8542 -0.5524  0.2313
  938SOL    HW1 2813   2.162   0.167   3.472  1.0567 -0.1943  1.2154
  938SOL    HW2 2814   2.041   0.141   3.560  0.6854  0.7303  0.9968
  939SOL     OW 2815   2.339   1.824   2.835  0.4305 -0.3945  0.2311
  939SOL    HW1 2816   2.252   1.783   2.834 -0.3278  1.1701 -0.6292
  939SOL    HW2 2817   2.381   1.786   2.912 -0.8385 -1.5316  0.4162
  940SOL     OW 2818   1.642   3.084   0.637 -0.2799 -0.2188 -0.3351
  940SOL    HW1 2819   1.551   3.075   0.607 -0.5028 -2.5975  0.8574
  940SOL    HW2 2820   1.637   3.074   0.732  1.2691 -0.6504 -0.2756
  941SOL     OW 2821   2.072   2.863   2.359 -0.0028  0.3204 -0.2191
  941SOL    HW1 2822   1.999   2.860   2.297  0.9851 -0.3474 -1.3943
  941SOL    HW2 2823   2.150   2.848   2.305  0.8508 -0.9031  1.2619
  942SOL     OW 2824   2.121   2.933   1.954 -1.0436  0.4101  0.6497
  942SOL    HW1 2825   2.142   2.850   1.996  0.5449  0.2827 -0.2975
  942SOL    HW2 2826   2.146   2.920   1.862 -1.0409  1.8358  0.4247
  943SOL     OW 2827   1.829   3.204   2.277 -0.0766 -0.4422 -0.4095
  943SOL    HW1 2828   1.863   3.292   2.287  0.3108 -0.6267 -0.0926
  943SOL    HW2 2829   1.737   3.211   2.304 -1.0231  0.5486 -3.3875
  944SOL     OW 2830   3.826   3.802   1.449 -0.2112  0.5376  0.2317
  944SOL    HW1 2831   3.804   3.789   1.357 -0.4922  0.7395  0.2723
  944SOL    HW2 2832   3.900   3.742   1.464  1.1737  1.9537 -0.6506
  945SOL     OW 2833   0.864   1.349   2.375 -0.0158 -0.0720 -0.1017
  945SOL    HW1 2834   0.777   1.315   2.396 -0.5506  0.8042 -0.8589
  945SOL    HW2 2835   0.875   1.423   2.434 -0.4385  0.7760 -1.0687
  946SOL     OW 2836   1.924   2.806   3.427 -0.4108  0.0614 -0.2384
  946SOL    HW1 2837   1.916   2.729   3.372 -0.4564 -0.2026  0.1372
  946SOL    HW2 2838   1.893   2.778   3.513  0.4624  0.2252  0.1391
  947SOL     OW 2839   2.549   2.203   3.103  0.5931  0.0850  0.4031
  947SOL    HW1 2840   2.606   2.280   3.106  1.9256 -0.8749  0.6737
  947SOL    HW2 2841   2.577   2.150   3.178  0.2161 -1.0128 -0.2143
  948SOL     OW 2842   0.161   1.990   3.534 -0.1175 -0.0174  0.3545
  948SOL    HW1 2843   0.230   2.049   3.566  0.1773 -0.0880 -0.1439
  948SOL    HW2 2844   0.125   2.034   3.458 -0.1952 -0.2746  0.2412
  949SOL     OW 2845   2.577   1.471   0.597 -0.4674 -0.3330  0.1422
  949SOL    HW1 2846   2.626   1.429   0.668 -0.9136 -0.3924  0.4238
  949SOL    HW2 2847   2.552   1.399   0.539  1.7489 -0.0437 -1.2615
  950SOL     OW 2848   3.216   2.592   0.099  0.6729 -0.2058  0.0661
  950SOL    HW1 2849   3.213   2.596   0.195 -1.4163 -1.1790  0.0976
  950SOL    HW2 2850   3.226   2.499   0.079 -0.8652 -0.2563 -0.6230
  951SOL     OW 2851   3.521   3.834   1.340 -0.5683 -0.5272  0.7634
  951SOL    HW1 2852   3.495   3.926   1.335 -1.0707 -0.7323 -1.3287
  951SOL    HW2 2853   3.487   3.804   1.424 -1.3610  0.9132  0.9886
  952SOL     OW 2854   3.634   0.885   2.423 -0.1647 -0.6890  0.1105
  952SOL    HW1 2855   3.643   0.824   2.350  2.7974 -1.2174  0.7741
  952SOL    HW2 2856   3.603   0.967   2.383  0.8257 -1.1294 -1.6429
  953SOL     OW 2857   2.423   2.387   0.176  0.2453  0.6855  0.0824
  953SOL    HW1 2858   2.380   2.305   0.200 -0.0861  0.2475 -1.8530
  953SOL    HW2 2859   2.496   2.395   0.237  0.3807 -1.1436  0.2125
  954SOL     OW 2860   3.946   1.979   3.064  0.5559  0.2611 -0.6173
  954SOL    HW1 2861   4.012   1.912   3.081  0.8417  0.7400  0.1668
  954SOL    HW2 2862   3.964   2.007   2.974  2.6638  1.7264  0.1826
  955SOL     OW 2863   1.940   2.738   1.502 -0.1955 -0.1346  0.1048
  955SOL    HW1 2864   1.848   2.743   1.476  0.1420  1.3723 -0.9105
  955SOL    HW2 2865   1.937   2.724   1.597 -1.4995  1.3729  0.3232
  956SOL     OW 2866   0.198   1.399   3.293  1.0957 -0.0152 -0.5169
  956SOL    HW1 2867   0.268   1.464   3.283  0.5314  0.3921 -1.9281
  956SOL    HW2 2868   0.166   1.383   3.205  0.7392 -1.7098 -0.1246
  957SOL     OW 2869   3.281   2.187   2.989  0.6086 -0.5314 -0.8115
  957SOL    HW1 2870   3.259   2.103   3.029 -0.4954 -0.6543 -1.6371
  957SOL    HW2 2871   3.329   2.235   3.057 -1.6963 -0.4783  0.8896
  958SOL     OW 2872   2.831   1.628   0.588  0.5589  0.6878 -0.1757
  958SOL    HW1 2873   2.864   1.553   0.538  0.8167 -1.1513  2.5075
  958SOL    HW2 2874   2.736   1.616   0.590  0.5992  0.3900  0.2441
  959SOL     OW 2875   2.777   3.637   0.133  0.9263  0.4579  0.0781
  959SOL    HW1 2876   2.869   3.627   0.109  1.5406 -0.7380  2.6354
  959SOL    HW2 2877   2.738   3.683   0.059  3.8124  2.1031 -0.5722
  960SOL     OW 2878   0.627   0.782   3.892 -0.1904 -0.5994 -0.3707
  960SOL    HW1 2879   0.683   0.720   3.844  2.1728 -0.1584  1.6498
  960SOL    HW2 2880   0.686   0.852   3.918 -1.8913  0.3434  1.1331
  961SOL     OW 2881   3.069   2.253   1.251  0.1340  0.0555  0.1388
  961SOL    HW1 2882   3.103   2.342   1.240 -2.1397  0.9968  0.2509
  961SOL    HW2 2883   3.111   2.221   1.331  1.5519  0.6951 -0.2991
  962SOL     OW 2884   3.518   0.019   0.610 -0.3136  0.4362 -0.6273
  962SOL    HW1 2885   3.610  -0.009   0.613 -0.6565 -0.6852  0.2961
  962SOL    HW2 2886   3.496   0.038   0.701 -0.9041  1.0468 -0.8887
  963SOL     OW 2887   2.261   1.361   3.571  0.0717  0.4904 -0.6759
  963SOL    HW1 2888   2.352   1.351   3.544 -0.9064 -3.0514 -3.3957
  963SOL    HW2 2889   2.247   1.293   3.637 -0.1899  2.4220  1.3951
  964SOL     OW 2890   1.557   2.742   1.259  0.0923  0.3335 -0.3469
  964SOL    HW1 2891   1.549   2.664   1.204  1.1731 -0.5583  0.6964
  964SOL    HW2 2892   1.468   2.759   1.290  0.2028 -2.3389  1.8229
  965SOL     OW 2893   1.707   1.788   3.040  0.3512  0.3669  0.5074
  965SOL    HW1 2894   1.682   1.803   2.948  2.3736 -0.4347 -0.2189
  965SOL    HW2 2895   1.787   1.839   3.052 -1.0801  2.3268  2.5687
  966SOL     OW 2896   1.559   2.996   0.339 -0.6792  0.0228 -0.3099
  966SOL    HW1 2897   1.621   3.058   0.302  0.6766 -0.1674  1.5176
  966SOL    HW2 2898   1.514   3.045   0.407  0.5334 -0.9952  1.2751
  967SOL     OW 2899   3.953   2.255   0.644 -0.4357 -0.4242 -0.5528
  967SOL    HW1 2900   3.998   2.327   0.600  0.0037 -1.1055 -1.2321
  967SOL    HW2 2901   3.866   2.291   0.665  0.8367  1.4490  2.1852
  968SOL     OW 2902   0.816   0.701   1.690 -0.4621 -0.0767 -0.3212
  968SOL    HW1 2903   0.908   0.689   1.667 -1.0504 -2.0284 -1.9802
  968SOL    HW2 2904   0.818   0.752   1.771  2.1576 -1.8148  0.8780
  969SOL     OW 2905   1.343   4.012   1.035 -0.5241  0.2118  0.5336
  969SOL    HW1 2906   1.318   3.920   1.041 -1.3073  0.4591  1.3943
  969SOL    HW2 2907   1.437   4.013   1.054 -0.4881 -0.4176  0.4043
  970SOL     OW 2908   0.191   1.910   0.867  0.5714  0.1131  0.6439
  970SOL    HW1 2909   0.182   1.816   0.853 -1.6014 -0.1167  2.8833
  970SOL    HW2 2910   0.236   1.918   0.951 -2.3229  0.8896  2.2453
  971SOL     OW 2911   1.113   2.189   3.351 -0.2843 -0.2029 -0.5863
  971SOL    HW1 2912   1.190   2.140   3.323 -1.2550 -0.8222 -2.3936
  971SOL    HW2 2913   1.117   2.271   3.302 -0.0792  0.3354  0.3324
  972SOL     OW 2914   3.710   0.778   1.453 -0.2265  0.5121  0.1154
  972SOL    HW1 2915   3.802   0.762   1.477  0.1493  2.5264  0.2070
  972SOL    HW2 2916   3.715   0.819   1.367 -1.2598 -1.8174 -1.1290
  973SOL     OW 2917   0.015   0.785   3.339  0.0696  0.0663 -0.5221
  973SOL    HW1 2918   0.023   0.728   3.415 -0.8430  0.4505 -0.1234
  973SOL    HW2 2919   0.061   0.739   3.269  0.2180 -0.6694  0.0517
  974SOL     OW 2920   1.726   1.986   1.337 -0.1244  0.0819  0.1082
  974SOL    HW1 2921   1.744   1.953   1.249 -1.7080  0.5595 -0.4209
  974SOL    HW2 2922   1.806   2.032   1.362  0.2283  0.2349 -1.2173
  975SOL     OW 2923   0.152   0.271   0.382 -0.3212  0.5905  0.4784
  975SOL    HW1 2924   0.208   0.207   0.427 -0.2482 -0.0480 -0.5094
  975SOL    HW2 2925   0.181   0.268   0.291 -1.3517  0.9330  0.1364
  976SOL     OW 2926   2.531   3.172   1.416  0.8268 -0.2343 -0.5252
  976SOL    HW1 2927   2.553   3.080   1.398  2.7076 -0.2245  1.3595
  976SOL    HW2 2928   2.502   3.172   1.507  3.1486  1.3223  0.2908
  977SOL     OW 2929   3.669   1.437   3.104  0.0708 -0.0272  0.3193
  977SOL    HW1 2930   3.663   1.528   3.075 -2.0168 -0.2242 -0.0902
  977SOL    HW2 2931   3.667   1.441   3.199  1.8326  0.4126  0.3565
  978SOL     OW 2932   1.160   0.619   0.804  0.5169  0.2235  0.4811
  978SOL    HW1 2933   1.096   0.569   0.856  0.3180 -0.6423 -0.5514
  978SOL    HW2 2934   1.119   0.626   0.717  2.7077 -2.3250 -0.9128
  979SOL     OW 2935   2.294   1.669   1.581  0.1693 -0.6791 -1.2134
  979SOL    HW1 2936   2.357   1.702   1.517  0.0847 -1.2441 -1.6011
  979SOL    HW2 2937   2.213   1.716   1.561  0.7028  0.7956 -0.0613
  980SOL     OW 2938   0.078   3.107   1.126 -0.0636 -0.1259 -0.2040
  980SOL    HW1 2939   0.166   3.073   1.113  0.0206 -0.0899  0.2488
  980SOL    HW2 2940   0.022   3.047   1.076  0.1178 -0.7517  0.3287
  981SOL     OW 2941   1.501   0.384   2.166  0.3498  0.0960  0.2353
  981SOL    HW1 2942   1.512   0.303   2.115 -0.3961 -0.1875  0.5090
  981SOL    HW2 2943   1.501   0.354   2.257  0.1573  0.4156  0.3398
  982SOL     OW 2944   1.001   0.241   3.402  0.7305 -0.3006 -0.3175
  982SOL    HW1 2945   1.008   0.200   3.316  1.0708  2.7217 -1.8822
  982SOL    HW2 2946   1.086   0.227   3.443  0.4093 -2.1733 -0.2218
  983SOL     OW 2947   0.490   3.734   0.693  0.4863 -0.1003  1.1083
  983SOL    HW1 2948   0.548   3.744   0.617 -0.0058 -0.0541  0.7325
  983SOL    HW2 2949   0.547   3.703   0.763  1.1770  0.9779  1.0401
  984SOL     OW 2950   0.295   3.192   3.563  0.4550  0.4990  0.5485
  984SOL    HW1 2951   0.248   3.271   3.538  1.1581  0.7536 -0.0126
  984SOL    HW2 2952   0.280   3.131   3.490 -1.2296 -0.4174  1.5905
  985SOL     OW 2953   3.706   0.514   0.635  0.6802  0.4031 -0.6018
  985SOL    HW1 2954   3.746   0.447   0.690  0.7359  1.2764  0.4685
  985SOL    HW2 2955   3.768   0.587   0.637 -0.4303  1.3717  0.2009
  986SOL     OW 2956   0.350   3.728   3.883 -0.0745 -0.2730 -0.5845
  986SOL    HW1 2957   0.275   3.693   3.933 -0.8312  0.0982 -1.4366
  986SOL    HW2 2958   0.378   3.654   3.829  2.7748 -1.7308  2.5325
  987SOL     OW 2959   2.443   0.059   3.899 -0.7499  0.0989  0.5818
  987SOL    HW1 2960   2.537   0.059   3.878 -0.8181  1.6904  0.2006
  987SOL    HW2 2961   2.399   0.055   3.815 -1.0647 -1.7626  0.7934
  988SOL     OW 2962   0.416   3.686   2.935  0.3757  0.2364  0.3248
  988SOL    HW1 2963   0.471   3.737   2.876  0.4757  0.3804  0.5418
  988SOL    HW2 2964   0.465   3.605   2.949 -1.0796 -1.2724 -2.3729
  989SOL     OW 2965   2.067   3.365   1.170 -0.0816 -0.0483  0.1275
  989SOL    HW1 2966   2.020   3.332   1.093  0.7979 -0.2293 -0.3620
  989SOL    HW2 2967   2.159   3.344   1.151  0.0780 -0.7136  1.5457
  990SOL     OW 2968   1.103   2.619   2.792  0.9121 -0.0615  1.0410
  990SOL    HW1 2969   1.161   2.690   2.819 -1.0177  1.1719  2.1656
  990SOL    HW2 2970   1.158   2.540   2.794  3.1638  1.3658 -0.4346
  991SOL     OW 2971   2.877   2.989   1.701  0.0044 -0.5969  0.1076
  991SOL    HW1 2972   2.907   3.020   1.787 -1.1195 -0.7235  0.5642
  991SOL    HW2 2973   2.858   3.069   1.652 -2.2904 -0.4734  1.0667
  992SOL     OW 2974   2.148   0.498   2.173  0.1163  0.3196  0.1403
  992SOL    HW1 2975   2.096   0.579   2.176 -0.4282  0.0718 -1.6580
  992SOL    HW2 2976   2.088   0.431   2.206  0.1644  0.4490  0.4962
  993SOL     OW 2977   0.442   1.474   3.526  0.5545  0.2455  0.8125
  993SOL    HW1 2978   0.361   1.450   3.571  0.1065 -1.9698 -0.9959
  993SOL    HW2 2979   0.414   1.527   3.452  0.3837 -2.4875 -1.2091
  994SOL     OW 2980   1.914   2.504   3.326  0.0177  0.1388 -0.3110
  994SOL    HW1 2981   1.883   2.444   3.394 -1.6158  1.0464 -0.2009
  994SOL    HW2 2982   2.001   2.532   3.356 -0.9002  0.9760  1.7487
  995SOL     OW 2983   2.717   2.392   1.717  0.0279  0.2567  0.2638
  995SOL    HW1 2984   2.788   2.351   1.669 -1.6691 -1.3221 -1.0666
  995SOL    HW2 2985   2.729   2.363   1.808  0.2707 -1.2172 -0.2179
  996SOL     OW 2986   0.488   0.978   0.596 -0.5646  0.2883  0.6230
  996SOL    HW1 2987   0.402   0.936   0.589 -1.5998  2.2237  0.9915
  996SOL    HW2 2988   0.518   0.958   0.684 -0.9434  0.1550  0.7219
  997SOL     OW 2989   2.470   1.233   1.428  0.5315  0.2831 -0.0470
  997SOL    HW1 2990   2.389   1.272   1.459  0.3245 -1.4449  1.7711
  997SOL    HW2 2991   2.489   1.164   1.491  2.1945 -0.8873 -1.7302
  998SOL     OW 2992   2.197   1.399   0.107  0.0415  0.4556 -1.0999
  998SOL    HW1 2993   2.205   1.494   0.095  1.5012  0.4871 -0.0879
  998SOL    HW2 2994   2.252   1.362   0.038  1.2616  0.4308 -0.1545
  999SOL     OW 2995   3.448   1.032   3.763  0.0990  0.4044  0.0088
  999SOL    HW1 2996   3.385   1.083   3.814 -0.6445 -0.6293  0.1720
  999SOL    HW2 2997   3.530   1.040   3.812 -0.5661 -0.4482  1.3368
 1000SOL     OW 2998   0.834   0.766   0.552 -0.3767 -0.6664 -0.3540
 1000SOL    HW1 2999   0.908   0.704   0.551  0.3179  0.1320 -1.7461
 1000SOL    HW2 3000   0.759   0.714   0.524  0.0069 -1.1134 -0.5682
 1001SOL     OW 3001   0.145   3.295   2.654 -0.2704 -0.5585  0.3148
 1001SOL    HW1 3002   0.221   3.346   2.624  1.7173 -0.9650  4.1003
 1001SOL    HW2 3003   0.150   3.214   2.604  0.9614  0.0043 -0.5409
 1002SOL     OW 3004   1.039   1.848   0.792  0.6110 -0.2227  0.1294
 1002SOL    HW1 3005   1.105   1.805   0.738 -0.1533 -1.1147 -0.1219
 1002SOL    HW2 3006   0.962   1.853   0.736  0.1281 -0.1952  0.7839
 1003SOL     OW 3007   1.076   1.652   3.548 -0.6091 -0.0771 -0.1471
 1003SOL    HW1 3008   1.139   1.581   3.542  0.0960  0.3456  1.6226
 1003SOL    HW2 3009   1.129   1.732   3.546 -1.0483  0.2850  1.3496
 1004SOL     OW 3010   3.224   0.430   0.135  0.3410  0.9295  0.3945
 1004SOL    HW1 3011   3.224   0.454   0.227 -0.4319  0.2986  0.5639
 1004SOL    HW2 3012   3.297   0.369   0.125  0.1373  0.6407  0.6826
 1005SOL     OW 3013   3.072   3.568   0.116  0.3724 -0.5539  0.8958
 1005SOL    HW1 3014   3.058   3.474   0.114  1.1739 -0.6767  0.6518
 1005SOL    HW2 3015   3.161   3.580   0.081  0.2414  0.2940  0.8240
 1006SOL     OW 3016   2.479   0.689   2.230 -0.5074 -0.0804 -0.3176
 1006SOL    HW1 3017   2.429   0.643   2.297  0.0468  0.9189  0.8255
 1006SOL    HW2 3018   2.566   0.648   2.231 -0.4169  0.1123 -0.2330
 1007SOL     OW 3019   2.013   1.498   0.471 -0.6790 -0.4280 -0.0543
 1007SOL    HW1 3020   2.033   1.581   0.428 -0.3378 -1.3276 -1.7293
 1007SOL    HW2 3021   2.095   1.472   0.513 -1.5067  1.4215  3.0423
 1008SOL     OW 3022   0.264   3.205   0.631 -0.1864 -0.0099 -0.4513
 1008SOL    HW1 3023   0.308   3.184   0.549 -1.1038 -0.3187 -0.8668
 1008SOL    HW2 3024   0.200   3.273   0.608 -2.4148 -2.0303 -0.5808
 1009SOL     OW 3025   1.783   0.344   3.204 -0.4737  0.4760 -0.7813
 1009SOL    HW1 3026   1.688   0.331   3.206 -0.4327  0.2041 -0.1257
 1009SOL    HW2 3027   1.819   0.261   3.236 -0.1222  1.4083  1.4527
 1010SOL     OW 3028   3.657   2.096   3.714 -0.2202  0.0660 -0.3812
 1010SOL    HW1 3029   3.713   2.081   3.790  0.7638  0.3877 -1.0171
 1010SOL    HW2 3030   3.589   2.156   3.745  0.5608  0.7334  0.0748
 1011SOL     OW 3031   3.538   0.764   0.335 -0.7429  0.4960  0.2750
 1011SOL    HW1 3032   3.497   0.845   0.366 -0.5722  0.8724 -0.4539
 1011SOL    HW2 3033   3.632   0.786   0.329 -0.4103 -0.3536  1.9266
 1012SOL     OW 3034   1.558   3.529   0.191 -0.4895 -0.2721  0.1146
 1012SOL    HW1 3035   1.523   3.568   0.111  0.8103  0.2164 -0.2292
 1012SOL    HW2 3036   1.640   3.575   0.207 -0.4280 -0.7727  1.4089
 1013SOL     OW 3037   0.803   2.723   1.212  0.0009  0.0753  0.6356
 1013SOL    HW1 3038   0.762   2.725   1.126 -0.7327  2.0065  0.9904
 1013SOL    HW2 3039   0.751   2.783   1.266  1.9724  0.9281  1.7013
 1014SOL     OW 3040   3.527   2.454   3.789 -0.0953 -0.0238 -0.2272
 1014SOL    HW1 3041   3.593   2.518   3.817  1.2523 -1.0680 -0.8907
 1014SOL    HW2 3042   3.503   2.482   3.700 -1.5308  1.0812  0.4680
 1015SOL     OW 3043   0.692   2.091   1.801  0.2793  0.4512 -0.3159
 1015SOL    HW1 3044   0.771   2.093   1.747  0.9981 -2.1916  0.4628
 1015SOL    HW2 3045   0.710   2.149   1.874  1.2279  0.4249 -0.5195
 1016SOL     OW 3046   1.155   2.877   0.499  0.1928 -0.4212 -0.3971
 1016SOL    HW1 3047   1.091   2.913   0.560  0.5246  0.4211 -0.5341
 1016SOL    HW2 3048   1.170   2.787   0.530  1.1922  0.3271  1.4664
 1017SOL     OW 3049   1.740   1.692   3.637  0.0071  0.4144 -0.4142
 1017SOL    HW1 3050   1.830   1.660   3.634 -0.0113  0.3550 -0.3243
 1017SOL    HW2 3051   1.744   1.771   3.691 -0.0952  0.0819  0.0926
 1018SOL     OW 3052   2.718   3.912   3.577  0.3187  0.1603 -0.3054
 1018SOL    HW1 3053   2.719   3.982   3.642  1.2615  0.2768 -0.4377
 1018SOL    HW2 3054   2.771   3.842   3.615 -1.0975 -0.7507  0.0867
 1019SOL     OW 3055   1.219   3.260   0.499  0.0306 -0.3955  0.1267
 1019SOL    HW1 3056   1.145   3.280   0.556  3.0941 -0.9824  4.9288
 1019SOL    HW2 3057   1.260   3.345   0.481 -1.4739 -0.0927 -2.3619
 1020SOL     OW 3058   0.656   3.388   3.856  0.0917 -0.3913 -0.2270
 1020SOL    HW1 3059   0.561   3.378   3.862 -0.1610  0.0089 -2.4864
 1020SOL    HW2 3060   0.691   3.301   3.872 -0.6364 -0.5242  0.7147
 1021SOL     OW 3061   3.917   2.192   2.318 -0.3776 -0.5480 -0.2446
 1021SOL    HW1 3062   3.963   2.251   2.377 -0.0261  1.7308 -2.6421
 1021SOL    HW2 3063   3.831   2.233   2.306  0.0430 -0.1760 -2.3271
 1022SOL     OW 3064   3.014   2.761   2.052 -0.2300  0.6034  0.0386
 1022SOL    HW1 3065   2.974   2.806   2.126  1.3962 -0.3558  1.5765
 1022SOL    HW2 3066   3.101   2.801   2.043  0.7454 -1.2665  0.6198
 1023SOL     OW 3067   1.902   0.470   1.820 -0.5384  0.6693  0.1207
 1023SOL    HW1 3068   1.865   0.416   1.749 -1.1650  2.2223 -0.7983
 1023SOL    HW2 3069   1.988   0.432   1.837  0.2278  1.0316 -2.4635
 1024SOL     OW 3070   3.510   3.890   3.453  0.4239  0.4090  0.2117
 1024SOL    HW1 3071   3.519   3.795   3.461 -1.8565  0.2367  1.4582
 1024SOL    HW2 3072   3.473   3.903   3.366  1.4914  0.2605 -0.2862
 1025SOL     OW 3073   2.335   3.070   2.548  0.3299 -0.4119  0.4864
 1025SOL    HW1 3074   2.250   3.113   2.538  0.0044 -1.5215 -2.5524
 1025SOL    HW2 3075   2.314   2.978   2.565  0.9801 -0.3521  1.7322
 1026SOL     OW 3076   3.832   3.844   0.609 -0.6845  0.9168  0.1078
 1026SOL    HW1 3077   3.851   3.861   0.701 -0.7545  0.1673  0.2703
 1026SOL    HW2 3078   3.904   3.886   0.561 -1.5186  2.7393  0.3937
 1027SOL     OW 3079   1.124   1.743   2.595  0.3436 -0.2827 -0.2835
 1027SOL    HW1 3080   1.055   1.721   2.657 -1.1201 -2.8256 -2.5875
 1027SOL    HW2 3081   1.082   1.806   2.535  1.2527  0.9818  0.3692
 1028SOL     OW 3082   2.150   1.111   0.025 -0.2126 -0.4876 -0.2248
 1028SOL    HW1 3083   2.195   1.068   0.098 -0.7964 -0.9152 -0.1030
 1028SOL    HW2 3084   2.161   1.205   0.041  1.4142 -0.5813 -0.7039
 1029SOL     OW 3085   2.645   0.306   0.229 -0.0760 -0.4508 -0.1138
 1029SOL    HW1 3086   2.628   0.376   0.165 -1.9965 -1.1790 -0.4600
 1029SOL    HW2 3087   2.695   0.349   0.298  1.5010  0.5133 -1.7620
 1030SOL     OW 3088   1.235   0.597   3.665  0.2334 -0.1459  0.1287
 1030SOL    HW1 3089   1.307   0.654   3.693 -0.0767  0.3913 -0.1343
 1030SOL    HW2 3090   1.156   0.645   3.692 -0.0745  0.2602 -1.3986
 1031SOL     OW 3091   0.544   0.230   0.197 -0.5010 -0.3164 -0.1484
 1031SOL    HW1 3092   0.609   0.214   0.266 -2.2159  0.1012  1.6334
 1031SOL    HW2 3093   0.570   0.314   0.159 -0.6052  0.3997  1.2959
 1032SOL     OW 3094   2.252   1.393   1.553 -0.1378  0.2589  0.3950
 1032SOL    HW1 3095   2.170   1.392   1.503 -0.0288  2.3108  0.1148
 1032SOL    HW2 3096   2.282   1.483   1.549  0.8344  0.1146  2.6393
 1033SOL     OW 3097   2.034   2.754   3.009 -0.2268 -0.0115 -0.7397
 1033SOL    HW1 3098   2.087   2.676   2.994 -0.6217 -0.4450 -0.0141
 1033SOL    HW2 3099   2.044   2.807   2.930 -0.8724 -1.3466 -1.7502
 1034SOL     OW 3100   3.267   2.795   1.397  0.1089  0.7494  0.0901
 1034SOL    HW1 3101   3.223   2.866   1.352  0.2735  1.3911  0.9195
 1034SOL    HW2 3102   3.283   2.828   1.486  0.6949 -0.1070  0.3234
 1035SOL     OW 3103   3.748   1.193   1.484 -0.0489 -0.2141 -0.0059
 1035SOL    HW1 3104   3.708   1.226   1.564  0.1282 -0.3524  0.1399
 1035SOL    HW2 3105   3.753   1.270   1.426  0.7465  0.1204  0.4862
 1036SOL     OW 3106   3.155   3.975   2.857 -0.1136 -0.4165  0.2759
 1036SOL    HW1 3107   3.164   3.923   2.937  0.2040 -1.6453 -0.5348
 1036SOL    HW2 3108   3.213   4.050   2.871 -0.9281  0.0033  1.6523
 1037SOL     OW 3109   2.003   3.865   2.229 -0.1341 -0.9903  0.3123
 1037SOL    HW1 3110   2.027   3.940   2.173  1.6621 -1.6170  0.1751
 1037SOL    HW2 3111   2.066   3.869   2.301 -0.8264 -1.6579  0.9558
 1038SOL     OW 3112   1.937   1.316   1.119  0.6182 -0.7663  0.3452
 1038SOL    HW1 3113   1.899   1.398   1.086  1.6564 -0.7380 -0.8624
 1038SOL    HW2 3114   1.891   1.248   1.071  1.0743 -0.7922 -0.0664
 1039SOL     OW 3115   1.064   0.088   2.268 -0.3696  0.1003 -0.3459
 1039SOL    HW1 3116   0.971   0.080   2.248  0.1202 -1.0005 -2.4974
 1039SOL    HW2 3117   1.108   0.034   2.201  1.8591  1.3010  0.0454
 1040SOL     OW 3118   0.706   0.982   0.463  0.1811  0.4219 -0.3225
 1040SOL    HW1 3119   0.746   0.903   0.498  2.6703  2.1324  0.9712
 1040SOL    HW2 3120   0.618   0.982   0.499  0.5044 -1.1734  0.5768
 1041SOL     OW 3121   3.208   2.540   0.388  0.1067  0.1911  0.3975
 1041SOL    HW1 3122   3.238   2.449   0.397 -0.1159 -0.0323 -0.9441
 1041SOL    HW2 3123   3.113   2.534   0.398  0.1227  0.3358  0.6482
 1042SOL     OW 3124   1.082   0.399   2.619  0.4069 -0.1619  0.0637
 1042SOL    HW1 3125   1.138   0.477   2.621 -2.3750  1.9957 -0.3479
 1042SOL    HW2 3126   1.035   0.401   2.702 -1.3410 -0.0500 -0.8893
 1043SOL     OW 3127   3.250   3.711   3.410 -0.7541 -0.0487 -0.1587
 1043SOL    HW1 3128   3.244   3.789   3.356 -0.3232  0.2404  0.2023
 1043SOL    HW2 3129   3.300   3.649   3.357 -0.0787  0.3358  0.0170
 1044SOL     OW 3130   3.055   3.217   3.391 -0.3255  0.6484 -0.4667
 1044SOL    HW1 3131   3.005   3.266   3.326  0.3602 -3.1498 -4.2462
 1044SOL    HW2 3132   3.140   3.259   3.392 -1.2942  2.7436  0.5978
 1045SOL     OW 3133   1.663   0.335   3.972  0.6437  0.3037  0.0903
 1045SOL    HW1 3134   1.723   0.369   4.038  0.9804 -1.0958  0.5280
 1045SOL    HW2 3135   1.716   0.325   3.893  0.3434  1.5628 -0.2896
 1046SOL     OW 3136   3.380   2.283   0.425  0.0729 -0.0389 -0.0106
 1046SOL    HW1 3137   3.354   2.210   0.369 -0.4413  1.1588 -1.4004
 1046SOL    HW2 3138   3.444   2.246   0.485  0.1092 -1.5383 -0.9289
 1047SOL     OW 3139   3.328   1.073   2.713 -0.5892  0.4206 -0.9027
 1047SOL    HW1 3140   3.238   1.103   2.701 -0.6876  0.1461 -0.8719
 1047SOL    HW2 3141   3.340   1.070   2.808 -0.2903  1.1963 -0.9061
 1048SOL     OW 3142   3.784   1.411   1.331  0.2979  0.5123  0.0715
 1048SOL    HW1 3143   3.855   1.397   1.269 -0.1976 -0.4020 -0.3093
 1048SOL    HW2 3144   3.795   1.501   1.361  0.6197  0.9321 -1.2493
 1049SOL     OW 3145   2.811   3.342   1.039  0.1389 -0.1311  0.2635
 1049SOL    HW1 3146   2.830   3.250   1.020  0.4170  0.1300 -0.8089
 1049SOL    HW2 3147   2.742   3.339   1.106 -1.9711 -1.1912 -1.7910
 1050SOL     OW 3148   1.745   3.754   3.887  0.1717  0.0737 -0.2164
 1050SOL    HW1 3149   1.775   3.717   3.804 -0.2088 -1.4553  0.3004
 1050SOL    HW2 3150   1.651   3.736   3.889  0.2313 -0.1812  0.6819
 1051SOL     OW 3151   2.575   1.305   2.433  0.2636  0.3996 -0.0494
 1051SOL    HW1 3152   2.636   1.377   2.417 -0.7182  1.5024  0.8997
 1051SOL    HW2 3153   2.502   1.322   2.373  0.4011 -0.3009 -0.4236
 1052SOL     OW 3154   0.184   3.294   1.605  0.2441  0.2961 -0.0536
 1052SOL    HW1 3155   0.131   3.288   1.525 -0.8397  0.9655  0.5934
 1052SOL    HW2 3156   0.250   3.226   1.594  0.6104  0.8852 -1.8700
 1053SOL     OW 3157   2.211   3.215   1.602  0.0349  0.2116  0.0390
 1053SOL    HW1 3158   2.297   3.186   1.634  0.8446  1.1797 -1.1526
 1053SOL    HW2 3159   2.176   3.140   1.555  0.3128 -0.1218  0.3521
 1054SOL     OW 3160   0.642   3.444   1.717 -0.3326 -0.0182  0.8025
 1054SOL    HW1 3161   0.722   3.428   1.666 -0.0102 -1.3319  1.6450
 1054SOL    HW2 3162   0.662   3.520   1.770 -0.8747  1.7322 -1.3643
 1055SOL     OW 3163   0.701   2.834   3.776 -0.0357  0.1734  0.1047
 1055SOL    HW1 3164   0.691   2.914   3.828  2.0202  1.3466 -1.1382
 1055SOL    HW2 3165   0.637   2.773   3.812 -1.2995  2.1855  1.4737
 1056SOL     OW 3166   3.023   1.420   0.557 -0.3358 -0.1110  0.5871
 1056SOL    HW1 3167   3.063   1.504   0.536 -0.2840 -0.4230 -0.6572
 1056SOL    HW2 3168   3.096   1.367   0.590 -0.4061  0.3793  1.5434
 1057SOL     OW 3169   0.068   3.370   1.364  0.9430  0.3060  0.2740
 1057SOL    HW1 3170   0.075   3.311   1.289  2.0000  1.3859 -0.5114
 1057SOL    HW2 3171   0.068   3.457   1.326 -2.0237  0.8678  1.2953
 1058SOL     OW 3172   0.967   3.533   1.291 -0.4547 -0.1631 -0.0042
 1058SOL    HW1 3173   1.039   3.580   1.332  0.8165 -0.6557 -1.5446
 1058SOL    HW2 3174   0.942   3.587   1.216  0.5076 -1.4556 -1.3408
 1059SOL     OW 3175   3.917   2.690   3.661 -0.0038  0.0393 -0.4346
 1059SOL    HW1 3176   3.997   2.732   3.695  0.1857 -0.7626  0.1448
 1059SOL    HW2 3177   3.881   2.644   3.737 -0.6505 -0.1616 -0.8628
 1060SOL     OW 3178   1.443   2.814   0.886 -0.3857 -0.1949 -0.3841
 1060SOL    HW1 3179   1.502   2.749   0.925 -0.3184  0.5443  0.8081
 1060SOL    HW2 3180   1.417   2.776   0.802  0.2500 -1.4095 -0.0551
 1061SOL     OW 3181   0.249   2.041   1.433 -0.3834  0.3131 -0.3554
 1061SOL    HW1 3182   0.241   2.084   1.347  4.1041  0.1022 -1.1092
 1061SOL    HW2 3183   0.280   2.111   1.491 -0.6041 -0.1886  0.3715
 1062SOL     OW 3184   1.795   1.081   2.424  0.0070 -0.3118 -0.9348
 1062SOL    HW1 3185   1.773   1.141   2.495  2.7204 -2.5234  2.0759
 1062SOL    HW2 3186   1.844   1.135   2.361 -1.6149  1.5033 -0.7337
 1063SOL     OW 3187   0.536   0.397   3.284 -0.6490  0.4830  0.2112
 1063SOL    HW1 3188   0.526   0.409   3.190  1.0171 -1.1306 -0.2379
 1063SOL    HW2 3189   0.448   0.375   3.315 -1.4262  2.0897 -0.7499
 1064SOL     OW 3190   1.375   2.565   2.512 -0.3512  0.9411 -0.3391
 1064SOL    HW1 3191   1.379   2.649   2.557 -1.8612 -0.8264  3.5587
 1064SOL    HW2 3192   1.282   2.549   2.499 -0.2892 -1.1927  1.3982
 1065SOL     OW 3193   2.336   1.841   3.429  0.8299  0.4996  0.4625
 1065SOL    HW1 3194   2.325   1.856   3.523  0.9694 -2.3688  1.0411
 1065SOL    HW2 3195   2.278   1.767   3.410 -1.3996  2.7532 -2.3980
 1066SOL     OW 3196   0.240   1.189   0.626 -0.5444 -0.1399  0.2421
 1066SOL    HW1 3197   0.303   1.254   0.596  1.0627 -1.8684 -0.3397
 1066SOL    HW2 3198   0.293   1.127   0.678 -2.5624  0.7242  3.6352
 1067SOL     OW 3199   3.550   0.450   1.108 -0.8501  0.0110  0.3719
 1067SOL    HW1 3200   3.645   0.463   1.104 -0.7945 -0.4998 -0.1001
 1067SOL    HW2 3201   3.513   0.527   1.065 -0.6601  0.2934  0.7057
 1068SOL     OW 3202   1.592   0.670   1.184 -0.5296 -0.0521  0.3201
 1068SOL    HW1 3203   1.654   0.610   1.143  0.0604  2.1299 -2.3050
 1068SOL    HW2 3204   1.513   0.665   1.130 -1.9086 -1.1331  2.3011
 1069SOL     OW 3205   2.325   2.180   2.569  0.3022  0.0033 -0.3385
 1069SOL    HW1 3206   2.389   2.159   2.637 -0.9852 -0.4450  0.7790
 1069SOL    HW2 3207   2.377   2.211   2.495  1.9108 -1.7616 -0.0036
 1070SOL     OW 3208   3.504   2.798   3.713  0.2917 -0.4502 -0.4070
 1070SOL    HW1 3209   3.448   2.780   3.789  1.5032 -1.4176  0.2936
 1070SOL    HW2 3210   3.443   2.828   3.645 -0.9033 -0.1965  0.7291
 1071SOL     OW 3211   1.078   0.775   2.572 -0.2602  0.0904 -0.0665
 1071SOL    HW1 3212   1.010   0.803   2.632 -0.6494  2.2565 -1.4032
 1071SOL    HW2 3213   1.103   0.855   2.524 -1.3217 -1.7011 -4.0731
 1072SOL     OW 3214   3.252   2.440   3.487  0.0050 -0.5549  0.1894
 1072SOL    HW1 3215   3.229   2.350   3.511  0.2444  0.0203  2.8449
 1072SOL    HW2 3216   3.346   2.446   3.503  0.0114  0.1547 -0.0855
 1073SOL     OW 3217   2.926   0.297   2.086  0.8373 -0.3826  0.0978
 1073SOL    HW1 3218   2.838   0.263   2.066 -1.0613  1.9136  3.5373
 1073SOL    HW2 3219   2.939   0.368   2.024 -0.2075 -0.1104  0.1742
 1074SOL     OW 3220   3.769   1.867   3.272  0.2128 -0.1550 -0.5560
 1074SOL    HW1 3221   3.836   1.890   3.336 -0.7124 -2.5114  1.3934
 1074SOL    HW2 3222   3.759   1.946   3.219  2.4994  1.2025  0.8587
 1075SOL     OW 3223   2.376   1.865   2.101  0.2625 -0.5881 -0.8239
 1075SOL    HW1 3224   2.314   1.930   2.068  2.0161  0.8134 -1.5156
 1075SOL    HW2 3225   2.344   1.782   2.066 -0.9247  0.1644 -1.5963
 1076SOL     OW 3226   3.342   0.089   3.817  0.2829 -0.2982 -0.3139
 1076SOL    HW1 3227   3.257   0.081   3.858  0.2828  0.5292 -0.1490
 1076SOL    HW2 3228   3.361   0.000   3.785 -1.7481 -0.0166 -2.5789
 1077SOL     OW 3229   2.062   3.095   1.387 -0.3495 -0.6410  0.0542
 1077SOL    HW1 3230   2.063   3.056   1.300 -2.0780  1.5395 -1.0412
 1077SOL    HW2 3231   1.981   3.146   1.390 -0.0651 -0.1823  2.7512
 1078SOL     OW 3232   0.840   1.531   2.016 -0.3509 -0.5952  0.1772
 1078SOL    HW1 3233   0.832   1.447   1.971  3.5873 -1.7401  1.2857
 1078SOL    HW2 3234   0.802   1.516   2.102 -0.0638 -1.1298  0.2145
 1079SOL     OW 3235   2.032   1.009   0.594 -0.0394 -0.3254  0.7770
 1079SOL    HW1 3236   2.035   0.974   0.505  0.2890 -2.2198  1.4911
 1079SOL    HW2 3237   2.112   0.978   0.635 -0.4384  0.0627  1.8913
 1080SOL     OW 3238   0.918   1.777   3.867  0.2839 -0.8578 -0.3571
 1080SOL    HW1 3239   0.952   1.821   3.789  0.6471  1.5919  1.0461
 1080SOL    HW2 3240   0.997   1.748   3.914  0.1488 -1.0019 -0.2214
 1081SOL     OW 3241   1.071   3.923   0.565 -0.3526 -1.3844 -0.1000
 1081SOL    HW1 3242   1.005   3.993   0.573  1.8928  1.0192 -1.1319
 1081SOL    HW2 3243   1.113   3.920   0.651  0.3414 -0.5396 -0.3883
 1082SOL     OW 3244   2.112   3.692   1.145  0.8999  0.1397 -0.6596
 1082SOL    HW1 3245   2.193   3.723   1.184  0.3208  0.7012  0.1291
 1082SOL    HW2 3246   2.139   3.649   1.063  1.9177  0.8310 -0.6975
 1083SOL     OW 3247   1.197   2.341   1.830 -0.4472  0.3625  0.5066
 1083SOL    HW1 3248   1.150   2.424   1.828  0.9637  1.2973 -3.5523
 1083SOL    HW2 3249   1.166   2.294   1.752  0.3119 -2.0127  1.5530
 1084SOL     OW 3250   2.474   1.825   1.456 -0.2708  0.3635  0.0201
 1084SOL    HW1 3251   2.476   1.891   1.387  0.3901 -0.4340 -0.7427
 1084SOL    HW2 3252   2.412   1.860   1.520  0.7288  2.1442  0.0806
 1085SOL     OW 3253   0.506   2.664   1.667 -0.1308 -0.2432  0.0481
 1085SOL    HW1 3254   0.440   2.698   1.728 -0.5796  1.3333 -1.2452
 1085SOL    HW2 3255   0.456   2.638   1.589  0.5277 -1.3381 -0.0292
 1086SOL     OW 3256   3.959   0.965   2.398  0.1029  0.2623 -0.1722
 1086SOL    HW1 3257   4.013   1.031   2.353 -0.2069  1.3437  0.9751
 1086SOL    HW2 3258   3.869   0.994   2.382 -0.0177  0.5055  0.8901
 1087SOL     OW 3259   2.388   2.670   1.733 -0.1752 -0.0291  0.3124
 1087SOL    HW1 3260   2.324   2.739   1.743  2.6981  2.8455  0.4685
 1087SOL    HW2 3261   2.464   2.712   1.692  1.1034 -3.5516 -1.4147
 1088SOL     OW 3262   0.835   2.212   0.300 -0.1029 -0.6358  0.1305
 1088SOL    HW1 3263   0.789   2.174   0.374 -0.3742  0.7020  0.6760
 1088SOL    HW2 3264   0.923   2.231   0.334 -0.4472  0.6630  0.3748
 1089SOL     OW 3265   2.735   0.117   0.026 -0.4479 -0.2874 -0.2188
 1089SOL    HW1 3266   2.765   0.066   0.101 -0.5717  1.0008  0.7368
 1089SOL    HW2 3267   2.714   0.203   0.062  1.0339  0.8947 -1.9864
 1090SOL     OW 3268   3.816   1.281   2.501 -0.0493 -0.0409  0.0909
 1090SOL    HW1 3269   3.852   1.233   2.576  0.1338 -0.0323  0.0091
 1090SOL    HW2 3270   3.724   1.293   2.523  0.1174  0.4366  0.5696
 1091SOL     OW 3271   3.017   0.926   2.469  0.5187 -0.0016 -0.4169
 1091SOL    HW1 3272   3.033   0.903   2.377 -1.5138  1.3419 -1.1926
 1091SOL    HW2 3273   3.005   0.842   2.513  0.3356 -0.6474 -1.6451
 1092SOL     OW 3274   1.398   0.743   0.040 -0.8015 -0.2132  0.7891
 1092SOL    HW1 3275   1.334   0.676   0.064 -1.8694 -0.0143 -1.2265
 1092SOL    HW2 3276   1.448   0.704  -0.031  0.8872 -0.0973  1.8746
 1093SOL     OW 3277   2.664   2.059   3.313 -0.0725  0.3697  0.3779
 1093SOL    HW1 3278   2.663   1.981   3.258 -0.9269  0.6915 -0.0843
 1093SOL    HW2 3279   2.626   2.031   3.396  0.9180 -0.0368  0.7117
 1094SOL     OW 3280   0.590   0.770   0.228 -0.1714 -0.6517 -0.1279
 1094SOL    HW1 3281   0.608   0.851   0.274 -0.5055  0.8363 -2.4551
 1094SOL    HW2 3282   0.592   0.793   0.135 -1.7555 -2.9786 -0.8619
 1095SOL     OW 3283   1.785   2.576   0.347 -0.2201  0.6865 -0.2468
 1095SOL    HW1 3284   1.718   2.635   0.382  0.7248  1.6011  0.0520
 1095SOL    HW2 3285   1.762   2.567   0.254 -1.8752 -0.5825  0.2350
 1096SOL     OW 3286   2.231   0.809   2.405 -0.6190 -0.2109  0.2418
 1096SOL    HW1 3287   2.206   0.818   2.313 -0.2453  2.4436  0.3452
 1096SOL    HW2 3288   2.150   0.823   2.454 -0.5393 -0.2108  0.3733
 1097SOL     OW 3289   2.985   2.481   0.956  0.5173 -0.2005 -0.2057
 1097SOL    HW1 3290   2.961   2.556   0.902 -0.4424 -0.9028 -0.7961
 1097SOL    HW2 3291   2.995   2.409   0.894 -0.5127 -1.0004  0.5081
 1098SOL     OW 3292   3.379   2.314   3.258  0.5587 -0.2012 -0.4381
 1098SOL    HW1 3293   3.436   2.281   3.328  1.1672  0.8372 -0.4329
 1098SOL    HW2 3294   3.319   2.374   3.303 -0.2421 -0.9173 -0.5246
 1099SOL     OW 3295   1.645   2.677   0.976  0.2349  0.0699 -0.1807
 1099SOL    HW1 3296   1.664   2.615   1.047  0.1078  0.6901  0.3973
 1099SOL    HW2 3297   1.695   2.643   0.901  0.7443 -0.3247  0.3305
 1100SOL     OW 3298   1.986   0.873   3.535  0.0012 -0.0586 -0.1969
 1100SOL    HW1 3299   1.931   0.807   3.493  0.5854 -0.2768 -0.6389
 1100SOL    HW2 3300   1.955   0.956   3.500 -0.3886 -0.1370 -0.0435
 1101SOL     OW 3301   2.704   1.809   3.157 -0.0124  0.6095  0.3606
 1101SOL    HW1 3302   2.717   1.775   3.068  1.3042  2.6188 -0.3031
 1101SOL    HW2 3303   2.763   1.757   3.212  1.0383  0.9711 -0.3981
 1102SOL     OW 3304   2.490   0.531   0.385  0.1129  0.2856  0.2053
 1102SOL    HW1 3305   2.442   0.502   0.307  1.2809  0.3624 -0.5701
 1102SOL    HW2 3306   2.576   0.556   0.352  0.6555  0.2617  1.5430
 1103SOL     OW 3307   1.264   0.491   0.068 -0.0073 -0.6260 -0.0167
 1103SOL    HW1 3308   1.172   0.464   0.067 -0.3857  0.5568  0.9748
 1103SOL    HW2 3309   1.289   0.488   0.160  1.1831 -1.6319 -0.3446
 1104SOL     OW 3310   0.065   1.466   2.207 -0.4188  0.7038  0.4329
 1104SOL    HW1 3311   0.157   1.465   2.232 -0.7289 -1.4867  1.7443
 1104SOL    HW2 3312   0.043   1.558   2.197  1.3025  1.3931  2.4682
 1105SOL     OW 3313   3.780   3.456   2.145  0.0644  0.1490 -0.1105
 1105SOL    HW1 3314   3.735   3.540   2.131  0.4381  0.4619  0.5081
 1105SOL    HW2 3315   3.857   3.479   2.196 -0.2590 -0.6818  0.7889
 1106SOL     OW 3316   3.711   3.616   2.760 -0.1472  0.1179  0.3105
 1106SOL    HW1 3317   3.771   3.549   2.793  2.0238  0.9251 -1.7758
 1106SOL    HW2 3318   3.761   3.697   2.764 -1.0884  0.8375 -1.4787
 1107SOL     OW 3319   3.503   3.671   2.579  0.2799  0.2737  0.4402
 1107SOL    HW1 3320   3.573   3.693   2.641  0.5669 -1.4778  0.7823
 1107SOL    HW2 3321   3.435   3.631   2.632  0.3138 -0.7868 -0.2710
 1108SOL     OW 3322   1.636   1.541   3.880  0.2153  0.0464 -0.0469
 1108SOL    HW1 3323   1.671   1.598   3.811 -0.6897 -0.1335 -0.6752
 1108SOL    HW2 3324   1.711   1.488   3.908  0.5751  0.0428 -0.9846
 1109SOL     OW 3325   3.777   1.456   0.997 -0.0518  0.2762  0.3933
 1109SOL    HW1 3326   3.797   1.514   0.924  1.9667 -0.4887  0.2702
 1109SOL    HW2 3327   3.694   1.415   0.973 -0.4068  1.4645 -0.5334
 1110SOL     OW 3328   3.683   3.432   1.372 -0.5308 -0.9991  0.1979
 1110SOL    HW1 3329   3.726   3.435   1.457 -1.0784 -1.1135  0.4820
 1110SOL    HW2 3330   3.746   3.390   1.314 -0.4228 -1.5389  0.7048
 1111SOL     OW 3331   3.848   0.364   1.411 -0.4303  0.8014 -0.1253
 1111SOL    HW1 3332   3.826   0.339   1.501  0.3162  1.5506  0.2758
 1111SOL    HW2 3333   3.861   0.458   1.415  2.2704  0.5149 -0.4358
 1112SOL     OW 3334   0.933   2.699   3.665 -0.0670  0.0447  0.4610
 1112SOL    HW1 3335   0.882   2.750   3.728  1.3572 -0.3590  2.0245
 1112SOL    HW2 3336   0.980   2.635   3.718  0.3158 -1.0908 -1.1628
 1113SOL     OW 3337   1.288   0.180   0.150  0.7125 -0.0480 -0.1981
 1113SOL    HW1 3338   1.302   0.120   0.077  2.2100  0.5499 -0.4372
 1113SOL    HW2 3339   1.262   0.262   0.108  0.1299 -0.0970  0.0472
 1114SOL     OW 3340   3.178   0.072   2.527 -0.0118 -0.5866 -0.1841
 1114SOL    HW1 3341   3.200   0.133   2.457 -2.7354 -1.5805 -2.0634
 1114SOL    HW2 3342   3.125   0.124   2.588  1.6284  0.0418  0.8012
 1115SOL     OW 3343   3.831   4.005   2.545  0.0111 -0.4446  0.3047
 1115SOL    HW1 3344   3.869   3.926   2.508 -1.3536 -1.2984  0.6524
 1115SOL    HW2 3345   3.745   3.978   2.576  0.3535  0.6512  2.4160
 1116SOL     OW 3346   1.829   0.723   0.822 -0.2763 -0.4101  0.1022
 1116SOL    HW1 3347   1.753   0.781   0.836 -0.0490 -0.2515  0.7263
 1116SOL    HW2 3348   1.905   0.778   0.842  0.3556  0.7211 -4.3919
 1117SOL     OW 3349   3.745   0.198   2.891  0.1811 -0.9834  0.2798
 1117SOL    HW1 3350   3.729   0.225   2.801 -2.5454  2.4788  1.5703
 1117SOL    HW2 3351   3.708   0.109   2.897 -0.3638 -0.9372 -1.7865
 1118SOL     OW 3352   3.427   0.610   0.908  0.0496 -0.4434 -0.4867
 1118SOL    HW1 3353   3.453   0.696   0.872 -0.9967  0.5963  1.1381
 1118SOL    HW2 3354   3.408   0.557   0.830  1.3785  0.5502 -1.5508
 1119SOL     OW 3355   1.092   0.121   3.691 -0.3117  0.4227  0.2741
 1119SOL    HW1 3356   1.015   0.116   3.634 -1.3056  1.3450  1.4789
 1119SOL    HW2 3357   1.134   0.204   3.667 -1.3442  1.3647  1.5662
 1120SOL     OW 3358   2.075   3.085   0.718  0.5060  0.1960 -0.3498
 1120SOL    HW1 3359   1.988   3.116   0.694  0.7655  0.6099 -0.7660
 1120SOL    HW2 3360   2.135   3.151   0.683  0.9082  0.7992  1.3700
 1121SOL     OW 3361   2.886   0.953   0.146 -0.3704  0.6088  0.9470
 1121SOL    HW1 3362   2.979   0.976   0.153 -0.0641 -0.3341  0.1809
 1121SOL    HW2 3363   2.858   0.991   0.063  0.0028 -1.2245 -0.0655
 1122SOL     OW 3364   3.896   1.263   2.760  0.2181 -0.4024  0.1464
 1122SOL    HW1 3365   3.828   1.328   2.774  0.4680 -0.4372  1.6589
 1122SOL    HW2 3366   3.938   1.252   2.845  0.0906 -2.6597 -0.0206
 1123SOL     OW 3367   3.834   3.157   1.474 -0.7466 -0.0876  0.8098
 1123SOL    HW1 3368   3.828   3.163   1.379 -1.6753 -0.9958  0.7938
 1123SOL    HW2 3369   3.816   3.246   1.505 -2.7749 -0.2597  0.2136
 1124SOL     OW 3370   1.618   0.084   1.337 -0.8109  0.3569  0.4093
 1124SOL    HW1 3371   1.569   0.008   1.305 -1.9976  0.9044  0.8607
 1124SOL    HW2 3372   1.656   0.123   1.258  0.8243 -1.3632  0.2969
 1125SOL     OW 3373   0.535   3.845   2.666  0.2399 -0.3761  0.2135
 1125SOL    HW1 3374   0.558   3.764   2.621  1.2795 -0.0066  0.0346
 1125SOL    HW2 3375   0.582   3.913   2.618 -1.4190  0.4838 -0.2690
 1126SOL     OW 3376   3.338   3.316   1.388  0.1913  0.8877 -0.7060
 1126SOL    HW1 3377   3.340   3.382   1.319 -0.9940  0.6028 -1.0391
 1126SOL    HW2 3378   3.345   3.366   1.470 -1.3405  1.5083 -0.9298
 1127SOL     OW 3379   1.894   3.221   0.990 -0.0313  0.8884 -0.2346
 1127SOL    HW1 3380   1.843   3.262   0.920 -1.3288 -0.2780 -0.0211
 1127SOL    HW2 3381   1.833   3.211   1.062 -0.3072 -2.7032 -0.7521
 1128SOL     OW 3382   0.133   3.694   3.568 -0.5791  0.3374 -0.0330
 1128SOL    HW1 3383   0.163   3.606   3.543  0.1518  0.5716 -0.0123
 1128SOL    HW2 3384   0.064   3.678   3.632 -1.1926 -0.2374 -0.8202
 1129SOL     OW 3385   0.789   0.313   2.102 -0.3436 -0.2331  0.2341
 1129SOL    HW1 3386   0.749   0.269   2.177  0.9437 -1.3757  0.2795
 1129SOL    HW2 3387   0.796   0.245   2.035 -2.4226  1.0029 -1.3721
 1130SOL     OW 3388   0.649   0.930   3.593  0.4388  0.1959 -0.1232
 1130SOL    HW1 3389   0.588   0.914   3.521  0.6973  1.8389 -0.7457
 1130SOL    HW2 3390   0.595   0.921   3.672 -0.1340 -0.3477 -0.5663
 1131SOL     OW 3391   3.296   2.994   2.785  0.1916  0.4830  0.0044
 1131SOL    HW1 3392   3.201   3.003   2.781 -0.0386 -0.2775  2.2069
 1131SOL    HW2 3393   3.311   2.899   2.780  0.8265  0.5932 -0.2595
 1132SOL     OW 3394   2.813   1.131   0.468  0.1347  0.3833 -0.6940
 1132SOL    HW1 3395   2.734   1.076   0.469  0.3242  0.1112 -0.2880
 1132SOL    HW2 3396   2.785   1.212   0.510  0.1396  0.1821 -0.2950
 1133SOL     OW 3397   2.488   2.484   0.435 -0.4282 -0.3804  0.3880
 1133SOL    HW1 3398   2.397   2.453   0.439 -0.4546 -0.4441 -0.4450
 1133SOL    HW2 3399   2.480   2.579   0.426 -0.3810 -0.2670  1.4982
 1134SOL     OW 3400   0.355   1.110   2.395  0.5301 -0.4294 -0.3582
 1134SOL    HW1 3401   0.350   1.061   2.478  0.8307 -1.1362 -0.7503
 1134SOL    HW2 3402   0.266   1.145   2.383 -0.3748 -2.7856 -1.1963
 1135SOL     OW 3403   0.681   3.970   0.756 -0.1759 -0.1939 -0.4435
 1135SOL    HW1 3404   0.693   3.953   0.663 -2.2268  0.2845 -0.8466
 1135SOL    HW2 3405   0.598   4.017   0.761  1.8123  3.6201  1.2018
 1136SOL     OW 3406   1.268   1.453   1.888 -0.0139 -0.0872  0.4457
 1136SOL    HW1 3407   1.217   1.457   1.969  0.1666 -1.4190  0.6404
 1136SOL    HW2 3408   1.353   1.419   1.915  0.2437  0.0280 -0.2136
 1137SOL     OW 3409   0.802   2.612   1.740 -0.5996  0.1890  1.1844
 1137SOL    HW1 3410   0.820   2.706   1.734 -0.0128 -0.0194 -1.1249
 1137SOL    HW2 3411   0.707   2.607   1.754 -1.3322  1.1989 -2.3140
 1138SOL     OW 3412   2.412   1.527   1.904 -0.3536  0.1817 -0.5436
 1138SOL    HW1 3413   2.494   1.478   1.903 -0.2339  0.3534 -2.0307
 1138SOL    HW2 3414   2.435   1.612   1.867 -0.4325  1.6562  2.5313
 1139SOL     OW 3415   1.776   2.992   3.987 -0.2893 -0.1671 -0.1281
 1139SOL    HW1 3416   1.825   2.986   3.905 -0.4940 -1.3213 -0.1790
 1139SOL    HW2 3417   1.712   2.921   3.982 -0.6143  0.0452  0.8289
 1140SOL     OW 3418   2.217   2.891   1.685  0.2916 -0.5561  0.0541
 1140SOL    HW1 3419   2.290   2.953   1.686 -0.3279  0.2133 -0.8059
 1140SOL    HW2 3420   2.207   2.868   1.592 -1.8567  0.9318 -0.1411
 1141SOL     OW 3421   2.862   0.167   2.916  0.1880 -0.3712  0.1752
 1141SOL    HW1 3422   2.884   0.093   2.860  1.8773 -0.2969  0.6663
 1141SOL    HW2 3423   2.788   0.209   2.873  0.8639 -0.8433 -1.5237
 1142SOL     OW 3424   2.715   0.359   3.152 -0.0761 -0.1580 -0.5563
 1142SOL    HW1 3425   2.723   0.325   3.062 -2.2647  1.0147 -1.2788
 1142SOL    HW2 3426   2.649   0.302   3.193  2.0661 -1.7195  0.9356
 1143SOL     OW 3427   2.291   0.631   1.647 -0.4434  0.0381 -0.6051
 1143SOL    HW1 3428   2.207   0.591   1.625 -0.2731 -0.6301 -0.0666
 1143SOL    HW2 3429   2.275   0.679   1.728 -0.1806 -0.5354 -0.2081
 1144SOL     OW 3430   3.021   3.690   3.279  0.2334  0.4431  0.1880
 1144SOL    HW1 3431   2.975   3.773   3.296 -0.0312  0.1801  0.7809
 1144SOL    HW2 3432   3.109   3.704   3.314  0.0089  0.2715  0.8315
 1145SOL     OW 3433   1.280   3.631   3.047  0.3525  0.4613  0.4403
 1145SOL    HW1 3434   1.303   3.708   2.995  0.4015 -0.6767 -1.2995
 1145SOL    HW2 3435   1.190   3.648   3.077 -1.2309 -0.3719 -3.2384
 1146SOL     OW 3436   2.019   2.175   2.641 -0.1764  0.3591  0.6229
 1146SOL    HW1 3437   2.109   2.184   2.608 -0.8720  1.1835 -1.1778
 1146SOL    HW2 3438   2.027   2.191   2.735  1.8699 -1.8444  0.9325
 1147SOL     OW 3439   0.481   1.759   1.241  0.5161  0.2548  0.4707
 1147SOL    HW1 3440   0.450   1.695   1.176 -0.6985  2.4014 -1.1764
 1147SOL    HW2 3441   0.551   1.806   1.197  0.5552  0.9051  1.2096
 1148SOL     OW 3442   0.780   3.740   1.123 -0.0581 -0.1608 -0.1796
 1148SOL    HW1 3443   0.686   3.727   1.112  0.0474 -1.4245  0.1734
 1148SOL    HW2 3444   0.813   3.752   1.034 -0.5880  0.5811 -0.2787
 1149SOL     OW 3445   1.176   3.879   1.335 -0.3117 -0.0551  0.0682
 1149SOL    HW1 3446   1.150   3.932   1.260 -0.1055  2.1295  1.4408
 1149SOL    HW2 3447   1.107   3.893   1.400  0.8863  0.3860  1.2924
 1150SOL     OW 3448   1.558   1.945   3.289 -0.0571 -0.2839  0.2432
 1150SOL    HW1 3449   1.588   1.855   3.292  1.8097  0.2374 -1.0147
 1150SOL    HW2 3450   1.467   1.940   3.259 -0.0951 -1.7394  0.5610
 1151SOL     OW 3451   3.933   2.639   2.453  0.1363 -0.7030 -0.2818
 1151SOL    HW1 3452   4.002   2.639   2.387  1.3179  0.6130  0.8984
 1151SOL    HW2 3453   3.853   2.657   2.404  0.8913 -0.4521 -1.4501
 1152SOL     OW 3454   2.635   1.793   3.537 -0.3339 -0.6619  0.0239
 1152SOL    HW1 3455   2.642   1.784   3.632  1.1806  1.1819  0.1472
 1152SOL    HW2 3456   2.556   1.847   3.524  0.6102  0.8899  0.4245
 1153SOL     OW 3457   0.781   2.767   2.486  0.4056 -0.1361 -0.9178
 1153SOL    HW1 3458   0.862   2.818   2.489  0.5132 -0.2635  2.0315
 1153SOL    HW2 3459   0.712   2.831   2.504  0.0646 -0.3579 -1.4313
 1154SOL     OW 3460   0.152   2.041   2.176 -0.0769 -0.3178 -0.8577
 1154SOL    HW1 3461   0.080   2.082   2.223 -0.4574 -1.2281 -0.6166
 1154SOL    HW2 3462   0.126   2.045   2.084 -0.0258  0.1392 -0.8519
 1155SOL     OW 3463   3.000   0.687   0.410 -0.3666 -0.2166  0.0376
 1155SOL    HW1 3464   3.057   0.726   0.343  0.7788 -0.2488  0.9538
 1155SOL    HW2 3465   3.060   0.664   0.481 -1.3592 -1.5049  0.4815
 1156SOL     OW 3466   2.452   0.500   1.027  0.2240 -0.0935  0.4160
 1156SOL    HW1 3467   2.507   0.448   0.969 -2.9382  1.1397 -4.3222
 1156SOL    HW2 3468   2.420   0.439   1.093  1.2553 -2.6464 -1.3196
 1157SOL     OW 3469   2.497   3.012   3.396  0.1385  0.2970 -0.0199
 1157SOL    HW1 3470   2.510   2.921   3.371  1.4512  0.5430 -0.3295
 1157SOL    HW2 3471   2.551   3.022   3.475  0.8414  1.0463 -0.5740
 1158SOL     OW 3472   3.893   3.810   2.828  0.2246 -0.1946  0.2169
 1158SOL    HW1 3473   3.961   3.755   2.868 -0.5353  0.0605  1.9268
 1158SOL    HW2 3474   3.876   3.878   2.892 -2.4058 -0.8602  0.3246
 1159SOL     OW 3475   3.944   2.035   1.958 -0.4880  0.1088  0.0887
 1159SOL    HW1 3476   3.882   2.107   1.962 -0.1738  0.4750 -1.2210
 1159SOL    HW2 3477   4.001   2.056   1.885 -1.3344 -2.2307 -1.3553
 1160SOL     OW 3478   3.740   2.067   0.204 -0.4516 -0.2357 -0.2041
 1160SOL    HW1 3479   3.719   2.154   0.170  1.3894  0.3230  0.0098
 1160SOL    HW2 3480   3.679   2.008   0.157  0.2695  0.8132 -2.5945
 1161SOL     OW 3481   1.992   0.847   2.552  0.2097  0.3195  0.0487
 1161SOL    HW1 3482   1.932   0.868   2.623 -0.1303  0.1003 -0.1709
 1161SOL    HW2 3483   2.016   0.932   2.516  1.0967  0.4886  0.9987
 1162SOL     OW 3484   3.466   3.532   0.158  0.1588  0.4597 -0.0561
 1162SOL    HW1 3485   3.471   3.523   0.254  1.8277  0.5168 -0.1070
 1162SOL    HW2 3486   3.548   3.574   0.134  1.3714 -2.6057 -1.8514
 1163SOL     OW 3487   0.827   2.470   3.095 -0.1263 -0.7726  0.0683
 1163SOL    HW1 3488   0.798   2.382   3.071 -0.7502 -0.9505  1.3909
 1163SOL    HW2 3489   0.910   2.456   3.140  0.0210 -0.6341 -0.1583
 1164SOL     OW 3490   2.028   3.098   2.486 -0.2609  0.3158  0.5711
 1164SOL    HW1 3491   2.044   3.015   2.442 -0.2220 -0.3441  1.7867
 1164SOL    HW2 3492   1.959   3.140   2.434 -1.8748 -1.4625  1.1390
 1165SOL     OW 3493   1.753   0.469   3.674 -0.1492  0.0387  0.9942
 1165SOL    HW1 3494   1.743   0.374   3.686  1.7551 -0.0913  1.9982
 1165SOL    HW2 3495   1.836   0.478   3.626 -1.3264  1.1504 -0.9590
 1166SOL     OW 3496   1.910   3.790   1.000  0.4053  0.1893  0.1584
 1166SOL    HW1 3497   1.977   3.750   1.054  0.1016 -0.2405  0.2240
 1166SOL    HW2 3498   1.957   3.850   0.943  0.7472  0.5202  0.7810
 1167SOL     OW 3499   2.572   2.831   0.711  0.4252 -0.6682 -0.1044
 1167SOL    HW1 3500   2.609   2.881   0.638 -0.5731 -1.7188 -1.3733
 1167SOL    HW2 3501   2.486   2.871   0.726  0.3244 -0.9282  0.0187
 1168SOL     OW 3502   1.809   1.535   3.068 -0.8891  0.7270  0.0138
 1168SOL    HW1 3503   1.780   1.625   3.081 -1.9017  0.0245  3.6832
 1168SOL    HW2 3504   1.735   1.493   3.023 -1.3068  1.2212  0.2357
 1169SOL     OW 3505   0.711   0.426   1.707  0.5168  0.4488 -0.0259
 1169SOL    HW1 3506   0.635   0.462   1.753  0.9052  2.2393 -0.7011
 1169SOL    HW2 3507   0.768   0.502   1.693  2.8490 -0.9445  1.2036
 1170SOL     OW 3508   3.368   1.244   3.590  0.2213  0.8090 -0.5477
 1170SOL    HW1 3509   3.273   1.247   3.575 -0.0466  0.5674  0.9896
 1170SOL    HW2 3510   3.381   1.165   3.642  1.1138  1.5003  0.2979
 1171SOL     OW 3511   1.583   3.871   3.446 -0.3862  0.0487 -0.0008
 1171SOL    HW1 3512   1.498   3.887   3.405 -1.4388  1.9498  2.5808
 1171SOL    HW2 3513   1.617   3.959   3.466  0.4996 -0.6960  2.1153
 1172SOL     OW 3514   1.508   2.189   2.841  0.5747  0.1969  0.1582
 1172SOL    HW1 3515   1.454   2.112   2.859 -0.2912  0.6076 -0.5861
 1172SOL    HW2 3516   1.564   2.198   2.918 -0.5172 -0.1671  1.0253
 1173SOL     OW 3517   1.915   2.408   0.090 -0.0135 -0.3335 -0.3592
 1173SOL    HW1 3518   1.952   2.442   0.008  1.0368 -1.3917 -0.3680
 1173SOL    HW2 3519   1.849   2.472   0.115  2.0168  1.8487 -0.2210
 1174SOL     OW 3520   3.997   0.588   2.587 -0.5465  0.5876  0.3738
 1174SOL    HW1 3521   3.955   0.596   2.501  1.6133  0.5159 -0.7452
 1174SOL    HW2 3522   3.968   0.666   2.635 -1.4536  0.8478 -0.5550
 1175SOL     OW 3523   2.901   3.429   3.273  0.7740 -0.0822  0.2173
 1175SOL    HW1 3524   2.933   3.514   3.302 -3.1039  1.1908  1.4119
 1175SOL    HW2 3525   2.888   3.440   3.179  0.9975  0.3819  0.2342
 1176SOL     OW 3526   2.648   0.535   2.872 -0.3070 -0.4359  0.1523
 1176SOL    HW1 3527   2.580   0.591   2.910  1.1624  3.3340 -2.1582
 1176SOL    HW2 3528   2.729   0.570   2.908  0.6789 -1.5946 -0.8873
 1177SOL     OW 3529   0.191   1.709   2.827  0.6629  0.0965  0.1090
 1177SOL    HW1 3530   0.230   1.623   2.835  2.2951  0.6644 -1.2637
 1177SOL    HW2 3531   0.119   1.698   2.765  0.6033 -0.3498  0.2564
 1178SOL     OW 3532   1.549   1.579   0.352  0.4088  0.6414 -0.4466
 1178SOL    HW1 3533   1.503   1.508   0.307 -1.4289  0.3694  1.6596
 1178SOL    HW2 3534   1.609   1.535   0.412  1.2982  0.9595 -1.0786
 1179SOL     OW 3535   3.266   3.977   1.933 -0.5011 -0.6437 -0.1541
 1179SOL    HW1 3536   3.181   3.986   1.976  0.1476  1.1486  0.8353
 1179SOL    HW2 3537   3.276   3.883   1.921 -2.0665 -0.9812  0.8354
 1180SOL     OW 3538   3.362   2.753   3.927  0.4707 -0.0769 -0.2838
 1180SOL    HW1 3539   3.307   2.704   3.989  0.1726 -0.7185 -1.0319
 1180SOL    HW2 3540   3.352   2.844   3.953  0.7844 -0.3740  0.9518
 1181SOL     OW 3541   1.951   1.636   1.286  0.0835 -0.2423  0.6957
 1181SOL    HW1 3542   1.892   1.560   1.280 -0.7422  0.3988  0.4936
 1181SOL    HW2 3543   1.996   1.639   1.202  0.4591 -0.7738  0.8743
 1182SOL     OW 3544   0.756   3.113   3.085  0.3474 -0.6471 -0.2871
 1182SOL    HW1 3545   0.665   3.090   3.105  0.4966 -1.2874 -0.3316
 1182SOL    HW2 3546   0.780   3.177   3.153  0.2387 -1.3747  0.4488
 1183SOL     OW 3547   0.300   0.819   0.630 -0.2259 -0.2114  0.0362
 1183SOL    HW1 3548   0.251   0.775   0.561  0.0422 -2.5304  1.2315
 1183SOL    HW2 3549   0.257   0.794   0.711  0.0728  1.6325  0.8188
 1184SOL     OW 3550   3.050   0.868   2.203 -0.7881 -0.0855  0.3103
 1184SOL    HW1 3551   2.997   0.930   2.153 -1.2366 -1.4162 -0.9384
 1184SOL    HW2 3552   3.120   0.843   2.143 -0.3548 -0.4550  0.9631
 1185SOL     OW 3553   3.129   3.265   2.360  0.4071  0.2500 -0.3891
 1185SOL    HW1 3554   3.149   3.294   2.271 -1.1715  1.3211 -0.4477
 1185SOL    HW2 3555   3.033   3.266   2.364  0.4090 -1.0578  0.9339
 1186SOL     OW 3556   2.751   2.349   3.220  0.5872 -0.3564  0.3296
 1186SOL    HW1 3557   2.729   2.258   3.239 -1.4892 -0.3744 -1.7124
 1186SOL    HW2 3558   2.835   2.344   3.174  1.9229 -0.9202  2.6997
 1187SOL     OW 3559   0.651   1.296   3.575  0.1034  0.5774 -0.0418
 1187SOL    HW1 3560   0.591   1.353   3.527  0.2868  1.8779  1.2009
 1187SOL    HW2 3561   0.601   1.269   3.653 -0.3048 -1.7446 -1.0121
 1188SOL     OW 3562   1.854   2.457   3.009 -0.1415  0.0341  0.9553
 1188SOL    HW1 3563   1.812   2.528   3.057  0.4310  0.7781  0.3779
 1188SOL    HW2 3564   1.839   2.380   3.063  0.3389  0.8129  2.2648
 1189SOL     OW 3565   0.196   0.860   0.886 -0.2357  0.7328  0.1111
 1189SOL    HW1 3566   0.267   0.877   0.948 -0.2414  0.7114  0.1237
 1189SOL    HW2 3567   0.121   0.908   0.923 -0.2302  0.7477  0.1028
 1190SOL     OW 3568   3.575   3.932   2.581 -0.6233 -0.0911  0.7958
 1190SOL    HW1 3569   3.514   3.859   2.570 -1.7369  1.0748 -1.7347
 1190SOL    HW2 3570   3.522   4.010   2.565  0.9120  1.1634  1.5777
 1191SOL     OW 3571   1.882   2.248   0.507 -0.2335  0.4781  0.1186
 1191SOL    HW1 3572   1.944   2.241   0.580 -1.6937  0.1120  1.3756
 1191SOL    HW2 3573   1.931   2.293   0.438  1.5402 -0.1410  0.9159
 1192SOL     OW 3574   2.592   3.668   0.463  0.0817  0.5420 -0.7782
 1192SOL    HW1 3575   2.617   3.735   0.399 -2.4021  1.0306 -1.3441
 1192SOL    HW2 3576   2.632   3.697   0.545  1.9062  0.8267 -1.7166
 1193SOL     OW 3577   0.564   2.688   2.723  0.3746  0.0106 -0.1032
 1193SOL    HW1 3578   0.650   2.684   2.682 -1.0784  0.5927 -3.5308
 1193SOL    HW2 3579   0.534   2.597   2.725 -0.0887  0.0907 -1.7920
 1194SOL     OW 3580   3.171   1.503   1.432 -0.8914 -0.6203 -0.7478
 1194SOL    HW1 3581   3.267   1.508   1.435 -0.9423  2.9012  1.4740
 1194SOL    HW2 3582   3.149   1.432   1.492  0.3931  0.1211  0.6985
 1195SOL     OW 3583   0.235   1.432   0.379  0.5508  0.0049 -0.1582
 1195SOL    HW1 3584   0.294   1.392   0.443  0.6490 -0.3773 -0.4854
 1195SOL    HW2 3585   0.181   1.360   0.347 -0.3399  0.4020  0.3917
 1196SOL     OW 3586   1.740   3.298   2.602  0.1789 -0.5094 -0.7493
 1196SOL    HW1 3587   1.664   3.275   2.549 -1.0554 -0.4503  0.9009
 1196SOL    HW2 3588   1.727   3.390   2.624 -0.0193 -0.8262  0.6174
 1197SOL     OW 3589   2.473   3.599   1.059  0.1486  0.3088  0.9844
 1197SOL    HW1 3590   2.558   3.592   1.103 -0.3593 -0.0442  1.9536
 1197SOL    HW2 3591   2.458   3.694   1.052  0.4322  0.3706  1.1894
 1198SOL     OW 3592   1.382   0.468   2.997  0.1881 -1.0856 -0.1546
 1198SOL    HW1 3593   1.438   0.462   2.919  0.0421  2.7686 -0.7866
 1198SOL    HW2 3594   1.313   0.404   2.982  1.2441 -1.8508 -2.2317
 1199SOL     OW 3595   0.046   3.937   0.512  0.0394 -0.1259  1.2731
 1199SOL    HW1 3596   0.107   3.908   0.444 -1.0032 -1.0022  0.6738
 1199SOL    HW2 3597   0.102   3.972   0.582  1.1578  0.4039  0.1589
 1200SOL     OW 3598   2.027   2.102   2.188 -0.0356 -0.1354 -0.3764
 1200SOL    HW1 3599   2.078   2.043   2.245 -1.0814  0.2939  1.0688
 1200SOL    HW2 3600   1.967   2.147   2.248 -1.3484  0.1832 -1.8603
 1201SOL     OW 3601   3.160   3.579   1.106  0.0588 -0.6541  0.1506
 1201SOL    HW1 3602   3.170   3.488   1.080 -2.1793 -0.8889 -0.1125
 1201SOL    HW2 3603   3.169   3.578   1.201 -0.0877 -1.1705  0.1592
 1202SOL     OW 3604   2.771   3.770   0.693 -0.7344  0.4328 -0.1358
 1202SOL    HW1 3605   2.830   3.774   0.768  0.6914 -1.2988 -1.0885
 1202SOL    HW2 3606   2.761   3.861   0.666  1.6440  0.8032  0.0029
 1203SOL     OW 3607   3.434   0.824   2.725  0.1896  0.0736  0.2441
 1203SOL    HW1 3608   3.356   0.775   2.753  0.3854 -1.4086 -1.5881
 1203SOL    HW2 3609   3.416   0.914   2.750 -1.6956 -0.3821  0.7048
 1204SOL     OW 3610   1.186   2.685   3.983 -0.4891 -0.5577  0.3657
 1204SOL    HW1 3611   1.165   2.772   3.950 -1.2358 -1.0959 -0.6705
 1204SOL    HW2 3612   1.279   2.674   3.966 -0.6659 -0.4578 -0.7489
 1205SOL     OW 3613   0.564   0.549   2.361 -0.4981  0.0087  0.0192
 1205SOL    HW1 3614   0.471   0.549   2.384  0.0919  0.8722  2.7698
 1205SOL    HW2 3615   0.587   0.641   2.349 -0.4675 -0.2950 -3.3434
 1206SOL     OW 3616   2.713   1.513   1.483 -0.7172 -0.1255 -0.1862
 1206SOL    HW1 3617   2.702   1.536   1.391 -0.2429 -0.1226 -0.2430
 1206SOL    HW2 3618   2.679   1.589   1.531 -1.3874 -0.3172 -0.3512
 1207SOL     OW 3619   3.036   0.452   1.848  0.1879  0.2524  0.5247
 1207SOL    HW1 3620   3.040   0.528   1.907 -0.2902  1.2988 -0.7298
 1207SOL    HW2 3621   3.115   0.402   1.868  0.7042  1.2793  1.1517
 1208SOL     OW 3622   1.920   2.963   3.752  0.5719  0.6349  0.1796
 1208SOL    HW1 3623   2.012   2.940   3.764  0.5915 -0.2407 -1.4350
 1208SOL    HW2 3624   1.919   3.022   3.677 -0.3182 -0.6776 -0.8866
 1209SOL     OW 3625   3.140   0.668   3.397  0.5332  0.0895  0.0292
 1209SOL    HW1 3626   3.192   0.601   3.441 -0.5201 -0.1584  0.9316
 1209SOL    HW2 3627   3.140   0.742   3.459  1.4979  0.8805 -0.8548
 1210SOL     OW 3628   3.300   3.183   0.575 -0.3823  0.0200 -0.4407
 1210SOL    HW1 3629   3.269   3.134   0.651 -0.2306  1.8670  0.8591
 1210SOL    HW2 3630   3.222   3.224   0.538 -0.0548  1.7497  0.6931
 1211SOL     OW 3631   2.047   3.716   1.621  0.3122  0.3441 -0.2241
 1211SOL    HW1 3632   2.083   3.633   1.651 -1.9099 -0.1827  1.3211
 1211SOL    HW2 3633   2.032   3.766   1.702 -2.0233  0.6059 -0.7302
 1212SOL     OW 3634   2.212   2.101   1.991  0.5297  0.4399 -0.4854
 1212SOL    HW1 3635   2.210   2.184   1.943 -1.0956 -0.0034 -1.2363
 1212SOL    HW2 3636   2.131   2.100   2.042  0.2731 -0.9052 -0.8840
 1213SOL     OW 3637   1.940   3.823   2.904  0.4008 -0.6350 -0.2743
 1213SOL    HW1 3638   2.011   3.881   2.877 -1.3438  3.2702  2.4579
 1213SOL    HW2 3639   1.979   3.737   2.911  3.9094  0.6252 -2.2590
 1214SOL     OW 3640   3.100   1.310   3.591  0.2216  0.4656 -0.0174
 1214SOL    HW1 3641   3.050   1.343   3.517 -1.8216 -2.5254 -0.1620
 1214SOL    HW2 3642   3.034   1.276   3.651  1.9628 -2.2008  0.5720
 1215SOL     OW 3643   1.075   0.618   0.304  0.2443 -0.9885  0.4188
 1215SOL    HW1 3644   1.115   0.705   0.295 -1.9782  0.1601  0.6602
 1215SOL    HW2 3645   1.067   0.606   0.399 -2.6380  0.2545  0.4484
 1216SOL     OW 3646   2.636   1.545   3.465 -0.2562 -0.3981  0.3366
 1216SOL    HW1 3647   2.654   1.636   3.489  0.5796 -0.0727 -1.3527
 1216SOL    HW2 3648   2.722   1.506   3.451 -0.5794 -1.6630  1.6920
 1217SOL     OW 3649   3.620   2.169   2.272 -0.1489  0.0841  0.4535
 1217SOL    HW1 3650   3.576   2.132   2.195 -0.0262 -2.9638  1.6789
 1217SOL    HW2 3651   3.578   2.254   2.285 -0.9935  0.1737 -2.2544
 1218SOL     OW 3652   2.009   0.237   2.940  0.6824  0.0207 -0.4943
 1218SOL    HW1 3653   1.927   0.225   2.987  1.3819 -1.6224  0.3975
 1218SOL    HW2 3654   1.983   0.266   2.853 -0.8855 -1.1633 -0.4631
 1219SOL     OW 3655   0.596   1.429   1.018 -0.7090 -0.0287 -0.1681
 1219SOL    HW1 3656   0.690   1.412   1.006 -0.6779  1.0651 -1.6784
 1219SOL    HW2 3657   0.559   1.344   1.039  0.7332 -0.3495  1.3685
 1220SOL     OW 3658   1.110   2.141   0.464  0.4940 -0.7992  0.3523
 1220SOL    HW1 3659   1.052   2.065   0.457 -0.7572  0.2121 -0.8442
 1220SOL    HW2 3660   1.196   2.109   0.437 -0.1684 -1.6402 -0.8266
 1221SOL     OW 3661   3.537   0.652   1.641 -0.4482  0.6984  0.4534
 1221SOL    HW1 3662   3.475   0.604   1.587  0.3691 -1.0240  0.9515
 1221SOL    HW2 3663   3.607   0.678   1.580  0.0264 -0.4387  0.4858
 1222SOL     OW 3664   2.355   1.139   0.691  0.1986 -0.2029 -0.5303
 1222SOL    HW1 3665   2.397   1.066   0.647  0.2232  0.0550 -0.9466
 1222SOL    HW2 3666   2.400   1.148   0.775  1.6407  0.6830 -1.3663
 1223SOL     OW 3667   2.738   0.878   3.745  0.1045 -0.1578 -0.1894
 1223SOL    HW1 3668   2.689   0.929   3.811  0.4055 -0.1111  0.0011
 1223SOL    HW2 3669   2.693   0.896   3.663 -1.1635 -1.3446  0.2022
 1224SOL     OW 3670   1.290   3.161   1.264  0.4121 -0.2626  0.6640
 1224SOL    HW1 3671   1.373   3.154   1.312  1.9303  0.1372 -1.7016
 1224SOL    HW2 3672   1.300   3.100   1.191 -2.1304 -1.4446  1.2130
 1225SOL     OW 3673   0.905   0.245   1.598  0.3439 -0.7900 -0.4293
 1225SOL    HW1 3674   0.969   0.315   1.611 -0.7279  0.1601 -0.0902
 1225SOL    HW2 3675   0.870   0.261   1.510 -1.3518  0.3721  0.4025
 1226SOL     OW 3676   2.005   1.635   0.092 -0.3827 -0.0697 -0.4829
 1226SOL    HW1 3677   1.929   1.693   0.084 -1.5040 -1.6327 -1.7735
 1226SOL    HW2 3678   1.971   1.556   0.134  0.7933 -0.3535 -0.0228
 1227SOL     OW 3679   2.142   2.192   1.384  0.7814 -0.0102  0.3396
 1227SOL    HW1 3680   2.211   2.223   1.442  1.1230  1.1265 -0.6206
 1227SOL    HW2 3681   2.107   2.115   1.427  1.4282  0.4421  1.7375
 1228SOL     OW 3682   0.217   3.021   1.987  0.5792  0.7000  0.4141
 1228SOL    HW1 3683   0.170   2.940   2.011  0.2422  1.1200  1.2224
 1228SOL    HW2 3684   0.193   3.083   2.056  0.8731  1.4789 -0.1748
 1229SOL     OW 3685   1.627   0.062   3.991  0.0397  0.1373  0.1805
 1229SOL    HW1 3686   1.615   0.157   3.984 -1.8484 -0.1404 -1.5416
 1229SOL    HW2 3687   1.582   0.027   3.914  2.4474 -2.0668 -0.3548
 1230SOL     OW 3688   0.868   0.493   1.299 -0.6269  0.0768  0.5664
 1230SOL    HW1 3689   0.815   0.420   1.268  0.4997 -0.4431 -0.2312
 1230SOL    HW2 3690   0.958   0.465   1.284 -0.1574  2.0906 -0.9563
 1231SOL     OW 3691   0.976   2.481   2.352  0.2030  0.3553  0.6509
 1231SOL    HW1 3692   1.031   2.447   2.281 -0.5089  1.0156 -0.2370
 1231SOL    HW2 3693   1.008   2.436   2.430 -0.5306 -2.2222 -0.4051
 1232SOL     OW 3694   1.044   0.123   1.836 -0.5194  0.1030 -0.0513
 1232SOL    HW1 3695   1.004   0.202   1.799 -1.4448 -0.5902 -0.5569
 1232SOL    HW2 3696   1.125   0.155   1.876 -0.9518  1.3369 -0.1009
 1233SOL     OW 3697   0.195   1.079   2.612 -0.2565  0.6410  0.1611
 1233SOL    HW1 3698   0.128   1.138   2.648 -0.0389  0.0034  1.6988
 1233SOL    HW2 3699   0.168   0.992   2.640  0.1957  0.1640 -0.8531
 1234SOL     OW 3700   0.033   3.086   0.809  0.5010 -0.1272  0.0129
 1234SOL    HW1 3701   0.114   3.036   0.811  0.1663 -0.6615  0.5941
 1234SOL    HW2 3702  -0.018   3.051   0.882 -0.8408 -0.7895 -1.2047
 1235SOL     OW 3703   1.104   0.375   2.152 -0.6148  0.3118  0.1254
 1235SOL    HW1 3704   1.147   0.296   2.121 -0.4861  0.3923  0.0987
 1235SOL    HW2 3705   1.044   0.399   2.081  0.1127  0.8350 -0.3346
 1236SOL     OW 3706   2.349   1.372   2.313  0.0040 -0.3374  0.2185
 1236SOL    HW1 3707   2.302   1.369   2.230 -0.6715 -2.1278  0.6243
 1236SOL    HW2 3708   2.299   1.434   2.366  1.3160  2.0259 -1.1634
 1237SOL     OW 3709   1.493   0.168   0.712 -0.2051  0.4120  1.1259
 1237SOL    HW1 3710   1.486   0.086   0.662  0.8511 -0.3981  2.2218
 1237SOL    HW2 3711   1.576   0.206   0.684  0.2957  0.0548  2.0679
 1238SOL     OW 3712   0.428   2.209   1.834 -0.3072  0.1807  0.6513
 1238SOL    HW1 3713   0.439   2.288   1.886 -0.4650  0.2529  0.5777
 1238SOL    HW2 3714   0.516   2.172   1.827  0.3307  1.9385 -1.8273
 1239SOL     OW 3715   0.607   2.643   2.254  0.1161 -0.2894  0.4884
 1239SOL    HW1 3716   0.650   2.714   2.302  0.3656  1.4900 -2.1340
 1239SOL    HW2 3717   0.670   2.619   2.185 -0.9649 -1.3626 -0.1776
 1240SOL     OW 3718   3.544   1.006   0.496  0.0140  0.0074  0.5730
 1240SOL    HW1 3719   3.562   0.989   0.589  0.1819 -0.3323  0.4824
 1240SOL    HW2 3720   3.630   1.016   0.457 -0.0712  0.5028  0.5170
 1241SOL     OW 3721   1.297   3.067   2.266 -0.1136 -0.5117  0.4870
 1241SOL    HW1 3722   1.278   3.111   2.349  0.8632 -2.4830  1.8474
 1241SOL    HW2 3723   1.210   3.049   2.228 -0.5452  2.7819 -0.3544
 1242SOL     OW 3724   0.880   2.611   0.149 -0.2519  0.2910 -0.0405
 1242SOL    HW1 3725   0.799   2.561   0.159 -0.4372  0.6199  0.1341
 1242SOL    HW2 3726   0.882   2.670   0.225 -0.0407  0.5492 -0.2418
 1243SOL     OW 3727   3.326   1.411   2.849 -0.1655  0.1407 -0.7124
 1243SOL    HW1 3728   3.318   1.336   2.790  0.0932  0.6032 -1.3464
 1243SOL    HW2 3729   3.374   1.476   2.799 -0.9960  0.9996 -0.4340
 1244SOL     OW 3730   2.786   2.315   1.973  0.7103  0.1338 -0.0369
 1244SOL    HW1 3731   2.879   2.338   1.985  1.0638 -1.1415 -0.1731
 1244SOL    HW2 3732   2.772   2.241   2.033 -0.3714  0.6430  0.3701
 1245SOL     OW 3733   2.519   0.650   3.526  0.4741  0.3809  0.0534
 1245SOL    HW1 3734   2.436   0.667   3.482  0.4580 -1.9920 -0.9372
 1245SOL    HW2 3735   2.495   0.602   3.605  0.8568  0.4283  0.2019
 1246SOL     OW 3736   1.627   3.704   0.527 -0.4133 -0.2267 -0.3293
 1246SOL    HW1 3737   1.587   3.667   0.448 -0.9290  0.3385 -0.3401
 1246SOL    HW2 3738   1.659   3.627   0.575  0.7266 -0.5266 -1.5068
 1247SOL     OW 3739   3.016   2.618   2.695 -0.7144 -0.3645  0.1087
 1247SOL    HW1 3740   2.961   2.574   2.760  0.7668 -2.4664  0.0402
 1247SOL    HW2 3741   2.991   2.578   2.612 -0.7307  0.3715 -0.2407
 1248SOL     OW 3742   1.387   0.206   0.425  0.0168 -0.2526 -0.6142
 1248SOL    HW1 3743   1.448   0.133   0.415  0.6042  0.4408 -2.4966
 1248SOL    HW2 3744   1.361   0.227   0.336 -2.5841 -0.1603  0.0975
 1249SOL     OW 3745   2.338   1.907   0.113  0.0701  0.7209 -0.6792
 1249SOL    HW1 3746   2.293   1.956   0.182 -0.3400 -1.4115  0.6598
 1249SOL    HW2 3747   2.329   1.815   0.139 -1.4603 -0.3734 -4.3633
 1250SOL     OW 3748   0.355   1.406   2.706 -0.4240 -0.5248 -0.3668
 1250SOL    HW1 3749   0.266   1.422   2.675 -0.3106  2.0605  0.4588
 1250SOL    HW2 3750   0.355   1.314   2.731 -2.9763 -0.5040 -0.0436
 1251SOL     OW 3751   2.954   2.255   2.715 -0.6351  0.4185 -0.1005
 1251SOL    HW1 3752   2.948   2.299   2.799  1.8010  1.5183 -0.4245
 1251SOL    HW2 3753   3.048   2.245   2.699 -1.0250 -0.2872 -2.4199
 1252SOL     OW 3754   4.010   0.298   3.311 -0.5322  0.0411 -0.8858
 1252SOL    HW1 3755   3.955   0.358   3.262 -1.7083  0.2177  0.5831
 1252SOL    HW2 3756   4.021   0.339   3.397 -0.4325 -1.3040 -0.2235
 1253SOL     OW 3757   2.390   3.639   0.134  0.2955  0.0800  0.1629
 1253SOL    HW1 3758   2.438   3.590   0.200  1.2754  0.3539 -0.3265
 1253SOL    HW2 3759   2.415   3.731   0.149 -1.6229  0.4923  1.1627
 1254SOL     OW 3760   0.373   0.017   2.810  0.1855  0.1953 -0.0788
 1254SOL    HW1 3761   0.412  -0.063   2.775 -1.4088 -0.2494 -0.9555
 1254SOL    HW2 3762   0.435   0.086   2.786  1.1680 -0.6586 -0.0778
 1255SOL     OW 3763   3.138   1.531   3.759  0.0555  0.0784 -0.1808
 1255SOL    HW1 3764   3.167   1.459   3.702  1.3004 -0.2496  0.8142
 1255SOL    HW2 3765   3.218   1.560   3.803  0.3250  4.2037 -2.7992
 1256SOL     OW 3766   0.571   0.976   0.862  0.0596  0.1256  0.0321
 1256SOL    HW1 3767   0.646   0.998   0.918 -1.1204 -0.4776  1.9281
 1256SOL    HW2 3768   0.598   0.897   0.816  0.1535 -0.8232  1.6542
 1257SOL     OW 3769   2.290   2.153   0.280  0.4411  0.3410  0.4530
 1257SOL    HW1 3770   2.259   2.227   0.334  1.0684 -0.0888  1.4353
 1257SOL    HW2 3771   2.377   2.134   0.315  0.5347 -0.4666 -0.2128
 1258SOL     OW 3772   2.344   3.586   1.854  0.1732 -0.3143 -0.3790
 1258SOL    HW1 3773   2.382   3.669   1.882 -1.2236 -0.3148  1.6749
 1258SOL    HW2 3774   2.411   3.520   1.875  0.5983  0.0923 -0.4506
 1259SOL     OW 3775   2.207   0.270   1.650 -0.1995  0.0337 -0.4435
 1259SOL    HW1 3776   2.300   0.265   1.675 -0.2149 -0.3750 -0.4724
 1259SOL    HW2 3777   2.189   0.364   1.648 -0.2612  0.0910  1.3174
 1260SOL     OW 3778   3.241   0.877   3.572  0.4904 -0.0389  0.1119
 1260SOL    HW1 3779   3.157   0.911   3.602  0.7691  0.6259  0.1813
 1260SOL    HW2 3780   3.303   0.903   3.641  0.8118 -0.1802 -0.1207
 1261SOL     OW 3781   3.359   3.496   2.408  0.5029 -0.1777 -0.3403
 1261SOL    HW1 3782   3.282   3.461   2.454 -0.7210  2.1284 -0.4734
 1261SOL    HW2 3783   3.425   3.506   2.476  0.0438 -0.4088  0.1515
 1262SOL     OW 3784   0.305   2.284   2.483  0.1233 -0.1058 -0.0695
 1262SOL    HW1 3785   0.338   2.356   2.428 -1.2498  0.8613  0.2964
 1262SOL    HW2 3786   0.353   2.207   2.454  2.4352  1.1319  0.2527
 1263SOL     OW 3787   1.522   3.556   3.188 -0.5334  0.3622  0.1645
 1263SOL    HW1 3788   1.444   3.607   3.163 -0.7425  0.7841  1.6078
 1263SOL    HW2 3789   1.588   3.581   3.123 -0.3382  3.2639  1.3219
 1264SOL     OW 3790   2.274   1.857   3.691  1.0451 -0.0312 -0.2004
 1264SOL    HW1 3791   2.187   1.884   3.720  1.9757  2.1496  0.7955
 1264SOL    HW2 3792   2.287   1.771   3.731 -1.5103 -1.5809 -2.3371
 1265SOL     OW 3793   3.957   0.101   3.987 -0.1561 -0.0608  0.2219
 1265SOL    HW1 3794   4.051   0.088   4.000  0.2561  0.2443 -2.1024
 1265SOL    HW2 3795   3.942   0.083   3.895 -2.3755  0.0959  0.4845
 1266SOL     OW 3796   3.720   2.556   1.605  0.1386 -0.0114 -0.0314
 1266SOL    HW1 3797   3.773   2.489   1.649 -2.5714 -2.2738  0.1129
 1266SOL    HW2 3798   3.770   2.580   1.527  1.5516 -1.6629  0.3145
 1267SOL     OW 3799   2.365   0.767   0.442 -0.1760 -0.2336  0.8511
 1267SOL    HW1 3800   2.378   0.672   0.442 -0.4980 -0.2887  1.5791
 1267SOL    HW2 3801   2.276   0.779   0.410  0.9840  0.0498 -2.5961
 1268SOL     OW 3802   2.605   2.230   1.054 -0.2293  0.8149  0.9283
 1268SOL    HW1 3803   2.567   2.245   1.140 -1.6933  1.2226  0.2536
 1268SOL    HW2 3804   2.649   2.145   1.061 -1.3315  0.2887  1.7605
 1269SOL     OW 3805   3.349   1.331   1.383  0.4192 -0.2857 -0.8773
 1269SOL    HW1 3806   3.298   1.299   1.309 -0.9021  0.5340 -0.3733
 1269SOL    HW2 3807   3.410   1.261   1.403 -1.6322 -2.0728 -0.4778
 1270SOL     OW 3808   3.028   0.710   0.735 -0.5545 -0.7085 -1.0116
 1270SOL    HW1 3809   3.023   0.805   0.746  0.1976 -0.7914  0.2946
 1270SOL    HW2 3810   2.976   0.676   0.807 -0.2214 -1.2909 -1.0451
 1271SOL     OW 3811   0.509   2.801   1.345 -0.3514 -0.0440  0.0049
 1271SOL    HW1 3812   0.448   2.751   1.291 -0.1232 -1.4814  1.0158
 1271SOL    HW2 3813   0.458   2.823   1.424  0.0541 -0.1884  0.3129
 1272SOL     OW 3814   1.317   1.857   3.475 -0.7162 -0.0412  0.0878
 1272SOL    HW1 3815   1.351   1.904   3.398 -2.1191  1.1261  0.1371
 1272SOL    HW2 3816   1.351   1.906   3.550  0.9855 -1.4156  0.2738
 1273SOL     OW 3817   3.680   1.124   1.195  0.3018  0.2685 -0.1294
 1273SOL    HW1 3818   3.727   1.200   1.159  1.4775  0.8488  2.3851
 1273SOL    HW2 3819   3.709   1.119   1.286 -0.3692 -2.7347  0.0350
 1274SOL     OW 3820   2.852   3.409   3.546  0.2476 -0.0756  0.0541
 1274SOL    HW1 3821   2.844   3.363   3.462  0.5752  0.9370 -0.5452
 1274SOL    HW2 3822   2.945   3.428   3.554  0.3697 -1.0143  1.1325
 1275SOL     OW 3823   0.241   0.760   2.636  0.1419 -0.5265  0.4926
 1275SOL    HW1 3824   0.258   0.822   2.707  1.6553 -0.5753  0.2114
 1275SOL    HW2 3825   0.148   0.737   2.645 -0.7802  2.5687 -0.0488
 1276SOL     OW 3826   0.940   2.882   1.756 -0.4624  0.1062  0.5124
 1276SOL    HW1 3827   1.031   2.896   1.782  0.2606 -1.5116 -0.9973
 1276SOL    HW2 3828   0.924   2.946   1.687 -0.5410  0.4878  0.8773
 1277SOL     OW 3829   0.288   0.442   3.622  0.5082  0.3114 -0.5196
 1277SOL    HW1 3830   0.220   0.378   3.602  0.7247 -0.5491  1.3032
 1277SOL    HW2 3831   0.242   0.526   3.626 -0.2924 -0.1466 -0.0971
 1278SOL     OW 3832   1.435   0.515   0.452 -0.0273 -0.3727  0.1127
 1278SOL    HW1 3833   1.493   0.439   0.455  1.2431  0.5837  1.0641
 1278SOL    HW2 3834   1.417   0.535   0.544 -0.7634  0.1683 -0.1413
 1279SOL     OW 3835   3.421   1.023   1.245 -0.1509  0.5218 -0.2788
 1279SOL    HW1 3836   3.509   1.057   1.258 -0.7531  2.0059  0.0939
 1279SOL    HW2 3837   3.400   0.978   1.327  0.0771  0.5810 -0.1882
 1280SOL     OW 3838   2.524   0.177   3.586 -0.0255  0.1108 -0.3452
 1280SOL    HW1 3839   2.560   0.265   3.580 -0.6283  0.4546  0.8053
 1280SOL    HW2 3840   2.595   0.125   3.624 -0.0864  0.3804  0.1522
 1281SOL     OW 3841   1.757   3.933   2.017  0.0977 -0.5075 -0.4572
 1281SOL    HW1 3842   1.770   3.998   1.948  2.9768 -0.7917 -0.3126
 1281SOL    HW2 3843   1.796   3.853   1.981  0.7915 -0.9054  1.1124
 1282SOL     OW 3844   1.723   0.764   1.465  0.2107  0.3806  0.6012
 1282SOL    HW1 3845   1.630   0.760   1.491  0.1547  0.0687  0.3510
 1282SOL    HW2 3846   1.721   0.807   1.380  0.2584 -0.0250  0.3954
 1283SOL     OW 3847   3.730   0.108   0.793  0.5744 -0.0865  0.0702
 1283SOL    HW1 3848   3.768   0.037   0.845  2.2159  0.7757  0.1396
 1283SOL    HW2 3849   3.676   0.157   0.855 -0.1839 -0.9691  0.1344
 1284SOL     OW 3850   0.977   2.791   3.214  0.0930 -0.1459 -0.1510
 1284SOL    HW1 3851   0.956   2.724   3.279 -0.2587  0.2823  0.1783
 1284SOL    HW2 3852   1.060   2.762   3.176  0.1900 -0.5120  0.3380
 1285SOL     OW 3853   3.306   0.060   1.514  0.0395  0.3717 -0.2261
 1285SOL    HW1 3854   3.211   0.049   1.521  0.3830 -2.8673  1.4837
 1285SOL    HW2 3855   3.331   0.104   1.595  0.0201  0.9409 -0.5306
 1286SOL     OW 3856   2.757   2.622   2.158  0.0108 -0.2391 -0.8902
 1286SOL    HW1 3857   2.851   2.615   2.142 -0.0819 -2.1436 -0.8871
 1286SOL    HW2 3858   2.721   2.660   2.078  0.5892 -1.2029 -1.6240
 1287SOL     OW 3859   2.347   3.248   0.071  0.5943 -0.2424 -0.3177
 1287SOL    HW1 3860   2.353   3.178   0.006  1.4972 -0.2091 -0.2907
 1287SOL    HW2 3861   2.395   3.321   0.031  0.0856  0.1957 -0.1351
 1288SOL     OW 3862   3.601   3.642   3.444  0.8170  0.2584 -0.3077
 1288SOL    HW1 3863   3.642   3.566   3.485  2.1606  0.1655 -1.7050
 1288SOL    HW2 3864   3.612   3.627   3.350  1.3168  2.2879 -0.6182
 1289SOL     OW 3865   1.416   0.342   1.267  0.1705 -0.1518  0.0637
 1289SOL    HW1 3866   1.341   0.354   1.207  0.9447 -1.0358 -1.1248
 1289SOL    HW2 3867   1.484   0.303   1.212  1.8617  1.5123  0.8724
 1290SOL     OW 3868   2.418   2.723   3.731  0.5075  0.5358 -0.0541
 1290SOL    HW1 3869   2.373   2.687   3.808 -1.2195  0.0994 -1.2248
 1290SOL    HW2 3870   2.348   2.751   3.673  1.7920  1.6981 -1.1213
 1291SOL     OW 3871   0.670   1.809   3.707 -0.2240 -0.0111 -0.1871
 1291SOL    HW1 3872   0.754   1.820   3.752  0.5051 -0.5151 -1.3758
 1291SOL    HW2 3873   0.649   1.717   3.718  0.2818 -0.2849 -1.3837
 1292SOL     OW 3874   2.974   0.001   0.661  0.6308 -0.1346  0.1069
 1292SOL    HW1 3875   3.014   0.088   0.654  0.9928 -0.1920  1.2165
 1292SOL    HW2 3876   2.978  -0.035   0.573  0.3107  1.0438 -0.3980
 1293SOL     OW 3877   2.640   3.857   0.265  0.0754 -0.0816 -0.1680
 1293SOL    HW1 3878   2.562   3.890   0.219  1.1449  1.4338 -0.9905
 1293SOL    HW2 3879   2.682   3.798   0.202  0.4996  0.4666 -0.4093
 1294SOL     OW 3880   1.441   2.768   2.064 -0.3381 -0.6098  0.1259
 1294SOL    HW1 3881   1.389   2.835   2.020 -0.2354 -0.5244  0.1373
 1294SOL    HW2 3882   1.423   2.688   2.014 -1.4816 -0.8555  0.8808
 1295SOL     OW 3883   2.340   3.704   3.776  0.5149 -0.2344  0.7183
 1295SOL    HW1 3884   2.358   3.744   3.691 -1.8562 -0.4657  0.0397
 1295SOL    HW2 3885   2.300   3.773   3.828 -0.1078 -0.6822  0.8525
 1296SOL     OW 3886   3.238   0.306   3.696  0.2876 -0.1675 -0.1941
 1296SOL    HW1 3887   3.233   0.377   3.760 -0.2899  0.3271 -0.7787
 1296SOL    HW2 3888   3.300   0.243   3.735 -0.3816 -0.0872  1.0446
 1297SOL     OW 3889   1.027   0.316   0.140  0.3487 -0.1349  0.4432
 1297SOL    HW1 3890   0.956   0.262   0.105  0.2728 -0.2523  0.7726
 1297SOL    HW2 3891   1.019   0.308   0.235  0.1404  0.7131  0.5026
 1298SOL     OW 3892   2.334   3.724   2.208  0.7806  0.5180 -0.0721
 1298SOL    HW1 3893   2.297   3.811   2.198 -1.8247 -0.5734 -0.5816
 1298SOL    HW2 3894   2.426   3.734   2.182  0.0166  2.6546 -2.3001
 1299SOL     OW 3895   1.758   3.687   3.619 -0.1271 -0.4391  0.0141
 1299SOL    HW1 3896   1.682   3.635   3.594 -0.3721  0.0133 -0.2125
 1299SOL    HW2 3897   1.742   3.773   3.579 -0.1072  0.0499  1.0158
 1300SOL     OW 3898   2.003   1.609   3.652  0.1064  0.4106 -0.9235
 1300SOL    HW1 3899   2.043   1.637   3.570 -0.6078  1.4618 -0.9246
 1300SOL    HW2 3900   2.076   1.611   3.715  0.3119  1.1793 -1.1775
 1301SOL     OW 3901   2.348   2.297   1.549  0.8423  0.1985  0.3744
 1301SOL    HW1 3902   2.364   2.264   1.637  0.6777  1.1424  0.7641
 1301SOL    HW2 3903   2.412   2.367   1.536  1.0542 -0.1149 -0.3666
 1302SOL     OW 3904   3.396   2.853   1.680 -0.1218 -0.4292  0.0863
 1302SOL    HW1 3905   3.374   2.946   1.691  1.5160  0.2599 -1.8391
 1302SOL    HW2 3906   3.469   2.853   1.618  1.7844 -2.8268  2.1066
 1303SOL     OW 3907   0.409   1.938   1.920 -0.2629 -0.0403 -0.6526
 1303SOL    HW1 3908   0.428   2.024   1.883 -0.4709  0.6411  0.7525
 1303SOL    HW2 3909   0.389   1.956   2.012 -0.9794 -1.5204 -0.5019
 1304SOL     OW 3910   1.152   3.024   1.844  0.8832 -0.0068 -0.3156
 1304SOL    HW1 3911   1.235   3.054   1.806  1.3962 -1.0277 -0.0596
 1304SOL    HW2 3912   1.089   3.093   1.823  2.1862  1.7068  1.0524
 1305SOL     OW 3913   0.182   2.400   3.959  0.4492 -0.0223 -0.3742
 1305SOL    HW1 3914   0.117   2.462   3.991  1.0404  0.3542  0.1472
 1305SOL    HW2 3915   0.165   2.392   3.865  0.6772  1.3414 -0.5601
 1306SOL     OW 3916   2.257   2.434   1.924 -0.3104 -0.2939  0.1948
 1306SOL    HW1 3917   2.285   2.497   1.858 -2.9219  0.9913  0.2215
 1306SOL    HW2 3918   2.333   2.426   1.982  0.6606  1.5458 -0.7216
 1307SOL     OW 3919   0.323   3.697   2.243 -1.0810  0.3564 -0.6405
 1307SOL    HW1 3920   0.269   3.738   2.176 -0.2715  2.0519 -0.3397
 1307SOL    HW2 3921   0.360   3.772   2.291  1.2090 -0.7307 -0.6073
 1308SOL     OW 3922   0.153   2.832   0.652 -0.2141 -0.4235  0.5070
 1308SOL    HW1 3923   0.180   2.740   0.655  0.5260 -0.2229  0.2659
 1308SOL    HW2 3924   0.206   2.875   0.718  0.9821  0.2000 -0.8076
 1309SOL     OW 3925   0.183   0.715   1.672  0.1285  1.4719 -0.1752
 1309SOL    HW1 3926   0.174   0.754   1.759 -0.9697  3.2928 -1.0397
 1309SOL    HW2 3927   0.181   0.789   1.612 -0.3325  0.1882 -1.8268
 1310SOL     OW 3928   2.949   3.682   2.899 -0.9583 -0.2638 -1.2207
 1310SOL    HW1 3929   2.889   3.750   2.929 -0.6681 -0.3059 -0.5304
 1310SOL    HW2 3930   3.026   3.692   2.955 -1.2846 -1.7591 -0.4752
 1311SOL     OW 3931   3.824   1.603   0.032 -0.8294 -0.0388 -0.5787
 1311SOL    HW1 3932   3.848   1.687  -0.006  1.4802 -1.3407 -2.2746
 1311SOL    HW2 3933   3.902   1.574   0.078 -2.3237 -0.3056  1.9836
 1312SOL     OW 3934   2.756   3.339   0.503 -0.1053 -0.1176 -0.6053
 1312SOL    HW1 3935   2.722   3.339   0.593 -0.8110  0.9322 -0.8551
 1312SOL    HW2 3936   2.817   3.413   0.500  0.0869 -0.2855 -0.9380
 1313SOL     OW 3937   0.491   2.273   1.436  0.5873  0.1014 -0.0753
 1313SOL    HW1 3938   0.512   2.365   1.421 -0.5328  0.2891 -0.6472
 1313SOL    HW2 3939   0.552   2.224   1.381  2.6861  0.3612  1.8772
 1314SOL     OW 3940   1.183   0.327   0.554 -0.1099 -0.9922  0.1171
 1314SOL    HW1 3941   1.262   0.317   0.501 -1.0614  0.1464 -1.6346
 1314SOL    HW2 3942   1.129   0.251   0.532 -0.1915 -0.9084  0.0270
 1315SOL     OW 3943   3.978   3.123   3.066 -0.5549  0.3606  0.1629
 1315SOL    HW1 3944   4.024   3.041   3.084  0.5718  0.9827  0.2322
 1315SOL    HW2 3945   3.942   3.112   2.978  1.9141  0.7669 -0.9887
 1316SOL     OW 3946   1.530   0.448   3.247  0.6426  0.1743  0.5488
 1316SOL    HW1 3947   1.526   0.477   3.156 -0.7463  1.2876  0.9154
 1316SOL    HW2 3948   1.480   0.367   3.249  0.0588  0.5234  0.4288
 1317SOL     OW 3949   3.368   3.059   1.286  0.5490 -0.0553 -0.7632
 1317SOL    HW1 3950   3.390   3.146   1.320  0.9725  0.6382 -2.6905
 1317SOL    HW2 3951   3.289   3.035   1.333  1.6804  0.3240  1.5055
 1318SOL     OW 3952   2.357   0.210   2.685  0.0293 -0.9523  0.3045
 1318SOL    HW1 3953   2.434   0.167   2.647 -0.4210 -3.0256  1.5433
 1318SOL    HW2 3954   2.286   0.192   2.623  0.1674 -0.5798  0.0342
 1319SOL     OW 3955   2.381   2.974   1.092 -0.0344  0.7398 -0.1102
 1319SOL    HW1 3956   2.296   2.981   1.048 -0.4029 -2.4914 -0.1296
 1319SOL    HW2 3957   2.398   2.880   1.097  3.3520  1.2648  0.3481
 1320SOL     OW 3958   3.235   1.194   1.133 -0.6081  0.1940  0.9562
 1320SOL    HW1 3959   3.150   1.163   1.163  0.4639 -1.5482  2.3724
 1320SOL    HW2 3960   3.298   1.149   1.189  1.3148  0.4579 -0.8862
 1321SOL     OW 3961   3.487   2.978   0.024  0.3192 -0.5854  0.2381
 1321SOL    HW1 3962   3.493   3.071  -0.001 -1.7084  0.3792  2.8793
 1321SOL    HW2 3963   3.577   2.954   0.047  0.9695  0.5522 -0.9159
 1322SOL     OW 3964   3.938   1.391   3.755 -0.0508  0.3195 -0.4792
 1322SOL    HW1 3965   3.947   1.385   3.660  1.5560  0.8629 -0.3973
 1322SOL    HW2 3966   3.991   1.468   3.779  1.2158 -0.9570  1.0428
 1323SOL     OW 3967   1.836   1.152   1.985 -0.7244  0.4000 -0.4585
 1323SOL    HW1 3968   1.789   1.211   1.926 -3.0271 -1.4576 -0.6305
 1323SOL    HW2 3969   1.780   1.075   1.991  1.0269 -0.8152  1.6084
 1324SOL     OW 3970   0.580   2.402   0.007  0.0320 -0.4128 -0.3656
 1324SOL    HW1 3971   0.656   2.352   0.036 -0.2694  0.2844  1.7806
 1324SOL    HW2 3972   0.511   2.379   0.069 -1.1567 -0.0472 -1.4990
 1325SOL     OW 3973   3.217   1.928   0.281  0.7033 -0.0198  0.5081
 1325SOL    HW1 3974   3.283   1.944   0.213 -0.4821 -1.2637 -1.0188
 1325SOL    HW2 3975   3.148   1.992   0.264  0.0972 -0.7664  0.0848
 1326SOL     OW 3976   3.076   2.501   3.112 -0.4650 -0.4315  0.1934
 1326SOL    HW1 3977   3.041   2.431   3.167  0.6392 -0.3807  0.9892
 1326SOL    HW2 3978   3.016   2.506   3.038 -0.1596 -2.7308 -0.2701
 1327SOL     OW 3979   2.762   0.112   3.763  0.1294 -0.2063  0.3063
 1327SOL    HW1 3980   2.853   0.127   3.739  0.6627 -3.1889  0.0665
 1327SOL    HW2 3981   2.761   0.115   3.859  0.2071  1.0280  0.2766
 1328SOL     OW 3982   1.362   1.094   1.623 -0.0225  0.1847  0.1032
 1328SOL    HW1 3983   1.350   1.173   1.676  1.0339 -0.3076  1.1096
 1328SOL    HW2 3984   1.444   1.055   1.655  1.0293  0.2102 -2.3399
 1329SOL     OW 3985   2.250   1.024   0.263  0.1433  0.4735  0.1797
 1329SOL    HW1 3986   2.219   1.099   0.314  1.3814  1.4936 -0.4951
 1329SOL    HW2 3987   2.185   0.956   0.278 -1.7506  2.0977 -0.2129
 1330SOL     OW 3988   1.963   0.041   0.681  0.7136 -0.2564  0.1296
 1330SOL    HW1 3989   1.923  -0.013   0.750  0.5851  1.7877  1.7760
 1330SOL    HW2 3990   2.048   0.066   0.717  0.8050  0.5357 -0.6217
 1331SOL     OW 3991   0.994   0.534   0.573  0.0927 -0.7530  0.1823
 1331SOL    HW1 3992   0.907   0.495   0.576  0.0760 -2.0277 -5.2222
 1331SOL    HW2 3993   1.054   0.459   0.583  0.4124 -0.5040  0.1566
 1332SOL     OW 3994   1.597   0.831   0.574  0.6197  0.1405  0.1540
 1332SOL    HW1 3995   1.509   0.798   0.559  0.2910  1.1284 -0.1329
 1332SOL    HW2 3996   1.605   0.835   0.670  0.2223  0.3975  0.1777
 1333SOL     OW 3997   0.102   0.766   3.611  0.5948  0.3374  0.3186
 1333SOL    HW1 3998   0.102   0.724   3.697  3.1538 -1.0839 -0.2739
 1333SOL    HW2 3999   0.101   0.859   3.630 -0.0359  0.0557  1.8251
 1334SOL     OW 4000   3.279   3.890   3.226  0.0453  0.0074 -0.7406
 1334SOL    HW1 4001   3.267   3.839   3.145  0.9904 -0.3473 -0.6691
 1334SOL    HW2 4002   3.298   3.978   3.195 -2.0566  0.4832 -0.8627
 1335SOL     OW 4003   1.365   0.561   1.415 -0.2199 -0.4528 -0.8625
 1335SOL    HW1 4004   1.296   0.518   1.366 -0.4393 -1.1510  0.0352
 1335SOL    HW2 4005   1.445   0.514   1.391 -0.3954 -1.0975 -0.2105
 1336SOL     OW 4006   3.935   0.618   2.042 -0.3186  0.4659 -0.1555
 1336SOL    HW1 4007   4.004   0.570   2.089  0.0041  0.7328 -0.3533
 1336SOL    HW2 4008   3.871   0.640   2.110 -0.2800  0.0906  0.0036
 1337SOL     OW 4009   0.973   2.962   2.874 -0.3083 -0.6220  0.1899
 1337SOL    HW1 4010   0.950   2.899   2.805  0.8693  1.0808 -1.8826
 1337SOL    HW2 4011   0.900   2.958   2.935 -0.4850 -3.6538 -0.0491
 1338SOL     OW 4012   1.965   0.590   0.157  0.2308  0.2979 -0.3588
 1338SOL    HW1 4013   1.874   0.620   0.152  0.2518  0.2141 -2.2472
 1338SOL    HW2 4014   1.959   0.495   0.143  0.4875 -0.0339  1.5235
 1339SOL     OW 4015   3.061   1.010   3.136  0.1817 -0.1359 -0.3844
 1339SOL    HW1 4016   3.123   1.071   3.175 -0.4336  0.5352 -0.4524
 1339SOL    HW2 4017   2.975   1.046   3.155 -0.2392 -1.4714  0.3932
 1340SOL     OW 4018   3.755   2.329   0.095  0.0286  0.1470 -0.0438
 1340SOL    HW1 4019   3.739   2.402   0.154 -0.9355  1.2943 -1.6485
 1340SOL    HW2 4020   3.677   2.325   0.040 -0.6544 -3.1337  0.9776
 1341SOL     OW 4021   3.383   4.022   0.352 -0.3491  0.3178  0.3918
 1341SOL    HW1 4022   3.439   4.036   0.428 -1.7250  0.8176  1.3596
 1341SOL    HW2 4023   3.337   3.940   0.371 -0.8588  0.5562  0.2067
 1342SOL     OW 4024   1.241   2.671   1.565 -0.0787  0.0997  0.3562
 1342SOL    HW1 4025   1.215   2.586   1.528 -1.1639  0.7217 -0.3802
 1342SOL    HW2 4026   1.326   2.655   1.606 -0.1062 -1.2562 -0.0734
 1343SOL     OW 4027   0.401   0.525   2.714  0.3465 -0.2382 -0.1535
 1343SOL    HW1 4028   0.356   0.600   2.676  1.7527 -0.2423 -1.9884
 1343SOL    HW2 4029   0.487   0.559   2.740  0.7638 -1.0479 -0.4070
 1344SOL     OW 4030   3.192   0.784   3.146  0.5046  0.5152 -0.5199
 1344SOL    HW1 4031   3.147   0.869   3.153 -1.7700 -0.6279 -0.1757
 1344SOL    HW2 4032   3.179   0.744   3.232  0.7192 -0.5579 -0.9788
 1345SOL     OW 4033   2.404   0.710   1.957  0.3098 -0.1428 -0.0888
 1345SOL    HW1 4034   2.420   0.718   2.051 -0.0228  0.5662 -0.0933
 1345SOL    HW2 4035   2.344   0.781   1.936  2.4423  1.4184 -1.3408
 1346SOL     OW 4036   0.806   3.787   3.358  0.5031  0.0346  0.6753
 1346SOL    HW1 4037   0.764   3.750   3.280 -0.3093 -1.5233  1.8003
 1346SOL    HW2 4038   0.776   3.877   3.362  0.9470  0.2924 -1.0672
 1347SOL     OW 4039   0.929   3.290   3.964 -0.0867 -0.5073  0.6444
 1347SOL    HW1 4040   0.925   3.376   4.006 -1.4252  0.0644 -0.5613
 1347SOL    HW2 4041   1.012   3.252   3.993 -0.3621  0.3630  2.7625
 1348SOL     OW 4042   0.798   2.146   1.160 -0.2293 -0.1805  0.1110
 1348SOL    HW1 4043   0.772   2.141   1.252  0.4146 -0.0378  0.3059
 1348SOL    HW2 4044   0.857   2.071   1.148  0.2712  0.2236  0.0118
 1349SOL     OW 4045   1.876   3.601   2.616 -0.6470 -0.3377  0.4606
 1349SOL    HW1 4046   1.805   3.655   2.651 -0.3616  0.2413  0.1516
 1349SOL    HW2 4047   1.956   3.641   2.648 -0.1113  2.3984 -3.5396
 1350SOL     OW 4048   2.155   2.565   3.443  0.4803  0.2103 -0.5986
 1350SOL    HW1 4049   2.235   2.605   3.407  0.9132 -1.3753 -1.4777
 1350SOL    HW2 4050   2.187   2.505   3.510 -0.1346  0.9296  0.3656
 1351SOL     OW 4051   3.902   3.310   0.283  0.1960 -0.1147  0.2286
 1351SOL    HW1 4052   3.830   3.272   0.232  0.4106 -3.1678  1.9870
 1351SOL    HW2 4053   3.862   3.385   0.328 -1.6476 -1.1248  0.3859
 1352SOL     OW 4054   1.787   2.548   1.223  0.1739 -0.7147  0.1011
 1352SOL    HW1 4055   1.861   2.494   1.194  0.3867 -0.6484  0.5125
 1352SOL    HW2 4056   1.711   2.492   1.211  0.4064 -1.1518  0.6224
 1353SOL     OW 4057   0.142   3.898   2.597  0.6454  0.4735  0.0929
 1353SOL    HW1 4058   0.225   3.912   2.552  1.3672 -1.2360  0.8397
 1353SOL    HW2 4059   0.134   3.974   2.656  1.6447  0.6715 -0.0140
 1354SOL     OW 4060   0.673   0.035   2.532 -0.1782  0.2671 -0.0701
 1354SOL    HW1 4061   0.650   0.128   2.530 -1.1924  0.1036  1.7808
 1354SOL    HW2 4062   0.736   0.028   2.603 -0.4994 -0.5263  0.1453
 1355SOL     OW 4063   2.647   2.872   1.000  0.7114  0.2156  0.2600
 1355SOL    HW1 4064   2.669   2.781   1.020  0.6862 -0.0908 -1.0168
 1355SOL    HW2 4065   2.612   2.869   0.910  0.0116  1.3758  0.4728
 1356SOL     OW 4066   3.577   1.876   2.166  0.6901  0.2284 -0.3082
 1356SOL    HW1 4067   3.657   1.827   2.146  0.4388 -0.4987  0.4213
 1356SOL    HW2 4068   3.544   1.903   2.080  0.4985 -1.4337 -0.8019
 1357SOL     OW 4069   3.370   2.676   1.900 -1.0589 -0.0878  0.0238
 1357SOL    HW1 4070   3.409   2.722   1.825 -0.7056 -0.9614 -0.3369
 1357SOL    HW2 4071   3.336   2.595   1.863 -0.3302 -0.8157  0.9078
 1358SOL     OW 4072   3.616   3.251   2.155  0.3933  0.6258 -0.4916
 1358SOL    HW1 4073   3.679   3.323   2.149 -0.4131  1.3231 -1.0210
 1358SOL    HW2 4074   3.568   3.268   2.236  0.0357  0.8341 -0.7443
 1359SOL     OW 4075   2.624   3.574   3.149  0.2699 -0.3853  0.0161
 1359SOL    HW1 4076   2.593   3.484   3.157  1.4805 -0.7612  0.7047
 1359SOL    HW2 4077   2.641   3.602   3.239  0.4854  0.3187 -0.2335
 1360SOL     OW 4078   3.079   3.450   2.849 -0.2647 -0.2955 -0.2909
 1360SOL    HW1 4079   3.046   3.540   2.845  0.2703 -0.0916 -0.1705
 1360SOL    HW2 4080   3.029   3.409   2.920 -0.8460 -0.2387 -0.6574
 1361SOL     OW 4081   2.573   1.369   1.222  0.4131 -0.2080 -0.2376
 1361SOL    HW1 4082   2.516   1.446   1.217 -0.1358 -0.6524 -1.0954
 1361SOL    HW2 4083   2.537   1.316   1.293 -0.8219 -0.9150 -1.3500
 1362SOL     OW 4084   0.572   0.670   2.838 -0.4609 -0.3509  0.0941
 1362SOL    HW1 4085   0.567   0.743   2.776  0.2704 -2.2620 -2.3898
 1362SOL    HW2 4086   0.567   0.711   2.924 -0.2832  2.5871 -1.1769
 1363SOL     OW 4087   3.082   2.276   2.246  0.5994  0.5020  0.2740
 1363SOL    HW1 4088   3.082   2.309   2.156  1.4086  1.2556  0.5367
 1363SOL    HW2 4089   3.116   2.348   2.298 -1.0381  0.5245  1.3747
 1364SOL     OW 4090   0.335   3.940   2.410 -0.1167  0.6410  0.4925
 1364SOL    HW1 4091   0.346   4.032   2.433  0.7892  0.6359  0.1521
 1364SOL    HW2 4092   0.425   3.906   2.406 -0.1537  0.6016 -2.7245
 1365SOL     OW 4093   3.920   3.826   3.789  0.9777 -0.2929 -0.0288
 1365SOL    HW1 4094   3.829   3.843   3.763  0.4749  2.0638  2.7209
 1365SOL    HW2 4095   3.917   3.738   3.827 -0.2544 -0.1381  0.2864
 1366SOL     OW 4096   1.349   0.846   1.308  0.4129  0.1470 -0.6734
 1366SOL    HW1 4097   1.368   0.861   1.401 -1.8956 -0.6896  0.0050
 1366SOL    HW2 4098   1.361   0.752   1.297 -0.6437  0.0238 -0.8592
 1367SOL     OW 4099   0.197   3.347   2.349 -0.7353 -0.2699 -0.1146
 1367SOL    HW1 4100   0.177   3.260   2.314  1.8427 -0.7000 -0.7558
 1367SOL    HW2 4101   0.293   3.351   2.349 -0.7698  2.5521 -0.0121
 1368SOL     OW 4102   1.323   2.315   3.787 -0.2272  0.2235  0.5041
 1368SOL    HW1 4103   1.269   2.281   3.858  0.4571 -0.1509  0.8647
 1368SOL    HW2 4104   1.393   2.249   3.777 -0.5748  0.0359 -0.8390
 1369SOL     OW 4105   1.115   1.137   1.883  0.2796  0.5743 -0.2193
 1369SOL    HW1 4106   1.134   1.064   1.825 -0.2424 -0.8888  1.3558
 1369SOL    HW2 4107   1.194   1.148   1.936 -0.2797 -0.1080  0.7956
 1370SOL     OW 4108   2.081   1.670   1.047  0.2516 -0.0249  0.1580
 1370SOL    HW1 4109   2.117   1.755   1.025  2.1367 -0.9684 -0.6602
 1370SOL    HW2 4110   2.089   1.618   0.967  0.7749 -1.4714  1.0923
 1371SOL     OW 4111   0.633   1.770   3.343  0.0333  0.4623 -0.1671
 1371SOL    HW1 4112   0.717   1.750   3.384 -0.3651 -1.4080 -0.1602
 1371SOL    HW2 4113   0.624   1.865   3.351  3.4761  1.2093 -2.7298
 1372SOL     OW 4114   0.725   1.736   0.113 -0.0329  0.3687 -0.9298
 1372SOL    HW1 4115   0.786   1.766   0.045  0.7991  1.9204  0.4265
 1372SOL    HW2 4116   0.663   1.808   0.124 -0.1286  0.1651 -0.0236
 1373SOL     OW 4117   0.481   1.943   0.819  0.4992 -0.4644  0.5355
 1373SOL    HW1 4118   0.408   1.887   0.796 -0.2586  0.4344  0.6749
 1373SOL    HW2 4119   0.550   1.922   0.756 -0.8374  0.5785 -1.3589
 1374SOL     OW 4120   3.399   2.440   0.712 -0.2254 -0.8057 -0.0468
 1374SOL    HW1 4121   3.349   2.432   0.793 -1.4042  0.0838 -0.6473
 1374SOL    HW2 4122   3.356   2.379   0.652 -0.9441  0.3174 -0.7172
 1375SOL     OW 4123   3.759   2.918   3.795  0.3312 -0.2482 -0.8445
 1375SOL    HW1 4124   3.831   2.896   3.737  0.1407 -0.6742 -0.9265
 1375SOL    HW2 4125   3.683   2.876   3.756 -0.0192  0.4274 -0.9072
 1376SOL     OW 4126   0.296   0.057   1.326  0.1000 -0.5431  0.3010
 1376SOL    HW1 4127   0.386   0.069   1.295 -0.7690  0.6680 -2.0106
 1376SOL    HW2 4128   0.243   0.114   1.270 -2.3311 -2.4897  0.4095
 1377SOL     OW 4129   0.076   3.781   2.100  0.5292 -0.3644  0.8069
 1377SOL    HW1 4130   0.007   3.840   2.071  2.0919  0.6734 -0.9678
 1377SOL    HW2 4131   0.041   3.693   2.085  0.6365  0.0980 -3.0196
 1378SOL     OW 4132   1.896   3.842   3.391  0.1836  0.0255  0.2464
 1378SOL    HW1 4133   1.874   3.752   3.415  0.6856 -0.2968 -0.4803
 1378SOL    HW2 4134   1.987   3.854   3.420  0.0819  0.3467  0.4506
 1379SOL     OW 4135   3.832   1.568   0.694 -0.3981 -0.4128 -0.0765
 1379SOL    HW1 4136   3.799   1.654   0.721  1.1017  0.1185  0.1617
 1379SOL    HW2 4137   3.926   1.581   0.683 -0.1070 -2.0951  0.2004
 1380SOL     OW 4138   3.470   2.615   0.356 -0.5006 -0.3936 -0.5811
 1380SOL    HW1 4139   3.382   2.585   0.335 -1.6772  1.7864  0.9325
 1380SOL    HW2 4140   3.469   2.630   0.450  1.9192 -1.4785 -0.3004
 1381SOL     OW 4141   1.370   3.390   2.033 -0.5537 -0.3019  0.4353
 1381SOL    HW1 4142   1.371   3.450   1.959 -1.2919 -0.8069 -0.0045
 1381SOL    HW2 4143   1.300   3.423   2.090  0.1561  0.2096  1.0199
 1382SOL     OW 4144   0.401   3.666   1.893 -0.4529 -1.2089 -0.0520
 1382SOL    HW1 4145   0.324   3.625   1.855 -0.4043 -1.4121  0.0671
 1382SOL    HW2 4146   0.458   3.684   1.818 -1.5345  0.9607 -0.4289
 1383SOL     OW 4147   1.067   1.889   3.047 -0.1032 -0.5870  0.8724
 1383SOL    HW1 4148   1.072   1.940   2.966  0.9329 -2.7530 -0.5198
 1383SOL    HW2 4149   0.978   1.904   3.079 -0.7184 -0.0753 -0.9590
 1384SOL     OW 4150   3.376   2.083   1.260  0.4305  1.0223  0.9254
 1384SOL    HW1 4151   3.334   2.169   1.254  2.6969  2.2043  1.2966
 1384SOL    HW2 4152   3.303   2.021   1.253 -1.0497  2.8393 -2.3361
 1385SOL     OW 4153   0.400   0.106   0.409 -0.1337 -0.2774  0.1907
 1385SOL    HW1 4154   0.457   0.133   0.337 -0.0584  0.2525  0.4440
 1385SOL    HW2 4155   0.362   0.023   0.380  0.7746 -0.6434  0.0290
 1386SOL     OW 4156   0.193   3.553   1.782  0.1790 -0.0180 -0.1144
 1386SOL    HW1 4157   0.215   3.485   1.718  0.1075 -0.8511  0.7214
 1386SOL    HW2 4158   0.115   3.519   1.827 -0.0992  0.8077  0.0417
 1387SOL     OW 4159   3.730   0.705   3.151 -0.1649  0.2889  0.1943
 1387SOL    HW1 4160   3.756   0.729   3.241 -1.4224 -0.3311  0.7360
 1387SOL    HW2 4161   3.676   0.627   3.161  1.1437 -0.8809 -1.2747
 1388SOL     OW 4162   2.585   0.942   3.229  0.0577 -0.3567  0.3087
 1388SOL    HW1 4163   2.597   0.918   3.137  0.3864  0.1124  0.2273
 1388SOL    HW2 4164   2.490   0.939   3.243  0.0035 -0.3448 -0.0643
 1389SOL     OW 4165   2.997   0.303   2.595  0.1320 -0.5593  0.2358
 1389SOL    HW1 4166   2.978   0.334   2.683 -0.0388  1.3236 -0.4197
 1389SOL    HW2 4167   2.911   0.286   2.556  0.1045  0.4988 -0.1910
 1390SOL     OW 4168   3.680   3.728   2.093  0.0333  0.7854  0.0122
 1390SOL    HW1 4169   3.628   3.713   2.172 -0.5686  0.5427 -0.4197
 1390SOL    HW2 4170   3.711   3.819   2.102 -0.0659  0.7767  0.4978
 1391SOL     OW 4171   3.046   0.937   3.895  0.0690 -0.0804 -0.4015
 1391SOL    HW1 4172   3.062   0.939   3.990 -0.0283 -1.2165 -0.3442
 1391SOL    HW2 4173   2.987   0.863   3.883 -2.2666  1.7720 -1.0329
 1392SOL     OW 4174   3.590   0.295   2.360  0.0587  0.1636 -0.4133
 1392SOL    HW1 4175   3.624   0.228   2.300  0.1648  1.3798 -1.7697
 1392SOL    HW2 4176   3.669   0.339   2.393 -0.0721  0.8214 -0.9704
 1393SOL     OW 4177   2.664   1.794   2.547  0.3356  0.2904  0.5483
 1393SOL    HW1 4178   2.733   1.855   2.520 -1.8951  2.5405 -0.4169
 1393SOL    HW2 4179   2.659   1.805   2.642  0.4757  1.0494  0.4773
 1394SOL     OW 4180   0.581   3.376   3.177  0.2311  0.0655 -0.2674
 1394SOL    HW1 4181   0.496   3.418   3.165  0.8897  2.1313  1.6634
 1394SOL    HW2 4182   0.567   3.313   3.247  0.3968  0.8129  0.4480
 1395SOL     OW 4183   1.611   1.774   2.744  0.4728 -0.2887 -0.3885
 1395SOL    HW1 4184   1.574   1.686   2.731 -0.4287  0.0355 -0.0997
 1395SOL    HW2 4185   1.622   1.808   2.655  0.4398 -0.5439 -0.4929
 1396SOL     OW 4186   2.965   1.356   1.813  0.2528  0.0616 -0.0118
 1396SOL    HW1 4187   3.060   1.349   1.813  0.2276 -1.8121  2.4992
 1396SOL    HW2 4188   2.940   1.342   1.722  2.3073 -1.9573 -0.3584
 1397SOL     OW 4189   3.393   1.562   3.920 -0.2293 -0.2280  0.3913
 1397SOL    HW1 4190   3.470   1.596   3.876 -0.6197  0.4525  0.2169
 1397SOL    HW2 4191   3.427   1.514   3.995  0.7474 -4.2494 -2.2669
 1398SOL     OW 4192   2.431   2.628   3.392 -0.2071  0.0451  0.1736
 1398SOL    HW1 4193   2.506   2.618   3.333  0.7728 -0.9248  1.5202
 1398SOL    HW2 4194   2.453   2.574   3.467 -2.0265  0.1959  0.8576
 1399SOL     OW 4195   3.522   1.421   1.165  0.5013  0.2730  0.3317
 1399SOL    HW1 4196   3.572   1.423   1.246 -0.6843  1.1927  1.0699
 1399SOL    HW2 4197   3.459   1.492   1.174  0.1232  0.1690 -1.2541
 1400SOL     OW 4198   2.382   1.532   0.808 -0.3730  0.0734  0.1259
 1400SOL    HW1 4199   2.426   1.530   0.723 -0.4239  1.2213  0.0581
 1400SOL    HW2 4200   2.374   1.440   0.833  1.3330 -0.2070 -0.2382
 1401SOL     OW 4201   3.949   3.006   3.522  0.4547  0.3346 -0.8025
 1401SOL    HW1 4202   4.017   2.943   3.501  0.1941  0.2700 -1.4831
 1401SOL    HW2 4203   3.896   3.012   3.442 -0.7589 -0.1441 -0.0641
 1402SOL     OW 4204   1.623   3.994   1.036  0.6196  0.4601  0.3964
 1402SOL    HW1 4205   1.636   3.928   0.968  2.4524  0.7143  0.4436
 1402SOL    HW2 4206   1.710   4.003   1.077 -0.1017  1.3628  1.7932
 1403SOL     OW 4207   0.821   1.717   1.788 -0.6468 -0.4134 -0.0167
 1403SOL    HW1 4208   0.840   1.652   1.856  0.9943  0.2255  0.1671
 1403SOL    HW2 4209   0.801   1.797   1.837 -2.3871 -0.6525 -0.2521
 1404SOL     OW 4210   2.260   3.201   1.973  0.2239 -0.0344  0.4203
 1404SOL    HW1 4211   2.237   3.153   2.052 -1.5752 -0.0688 -0.0850
 1404SOL    HW2 4212   2.208   3.282   1.978  1.7736  1.0037  0.3453
 1405SOL     OW 4213   3.231   3.826   2.577 -0.3717 -0.2785  0.7394
 1405SOL    HW1 4214   3.226   3.917   2.547 -0.5722 -0.3446  0.5699
 1405SOL    HW2 4215   3.236   3.833   2.673 -2.0833 -0.1265  0.8616
 1406SOL     OW 4216   1.993   0.640   1.183 -0.3438 -0.3019 -0.5401
 1406SOL    HW1 4217   1.934   0.594   1.243  0.1576  2.6805  2.4977
 1406SOL    HW2 4218   1.936   0.671   1.113 -1.2092 -2.5912 -0.9590
 1407SOL     OW 4219   3.489   1.398   1.941 -0.3657 -0.4292 -0.1101
 1407SOL    HW1 4220   3.447   1.426   2.023 -0.0240 -0.3796  0.0481
 1407SOL    HW2 4221   3.458   1.308   1.929  1.7070 -1.4472  1.5313
 1408SOL     OW 4222   1.079   0.535   3.320  0.0450 -0.1805 -0.2794
 1408SOL    HW1 4223   0.985   0.551   3.312  0.0565  0.6860  0.9368
 1408SOL    HW2 4224   1.087   0.469   3.389  0.3614  1.2250  1.1118
 1409SOL     OW 4225   0.487   1.029   1.565  0.0003  0.5260  0.6599
 1409SOL    HW1 4226   0.407   0.980   1.549  0.1670 -0.2342  2.0267
 1409SOL    HW2 4227   0.486   1.099   1.500 -2.5288  1.4433  1.5776
 1410SOL     OW 4228   3.415   1.595   2.236  0.6623 -0.6512 -0.1639
 1410SOL    HW1 4229   3.340   1.654   2.249 -0.2879 -1.7498 -0.4821
 1410SOL    HW2 4230   3.490   1.654   2.227 -0.5666  0.6953 -2.9864
 1411SOL     OW 4231   0.834   3.574   2.500 -0.4800  0.1259 -0.0895
 1411SOL    HW1 4232   0.791   3.533   2.426 -1.1264  0.9766 -0.1987
 1411SOL    HW2 4233   0.893   3.639   2.462  0.1896 -0.3553  0.0994
 1412SOL     OW 4234   2.502   0.985   1.887 -0.3935 -0.2018 -0.1521
 1412SOL    HW1 4235   2.409   0.965   1.892 -0.9770  1.6514 -2.0857
 1412SOL    HW2 4236   2.519   1.039   1.964 -1.0843  0.0324 -0.1562
 1413SOL     OW 4237   2.660   0.401   3.475 -0.3187 -0.2130 -0.4650
 1413SOL    HW1 4238   2.592   0.463   3.448  0.4586 -0.1642 -2.4470
 1413SOL    HW2 4239   2.737   0.455   3.493 -0.4837 -0.3603  0.7397
 1414SOL     OW 4240   0.701   2.404   3.348  0.7230  0.5253  0.2493
 1414SOL    HW1 4241   0.748   2.466   3.403  0.6063  1.5853 -0.7974
 1414SOL    HW2 4242   0.710   2.439   3.259 -2.5484  1.1810  0.0367
 1415SOL     OW 4243   0.159   3.685   0.069  0.6102 -0.0852  0.2224
 1415SOL    HW1 4244   0.142   3.591   0.061 -2.3729  0.2317  1.6806
 1415SOL    HW2 4245   0.073   3.726   0.064  1.6807  2.4919  1.0646
 1416SOL     OW 4246   3.161   3.103   3.978  0.3469  0.5271 -0.0895
 1416SOL    HW1 4247   3.162   3.110   3.882 -0.0642 -1.9937 -0.3502
 1416SOL    HW2 4248   3.101   3.031   3.996 -1.5841  2.5645  2.2646
 1417SOL     OW 4249   0.792   2.756   2.995 -0.1799 -0.7461  0.4577
 1417SOL    HW1 4250   0.719   2.716   3.043 -0.6713 -0.6296 -0.1869
 1417SOL    HW2 4251   0.863   2.759   3.059 -0.3489 -1.9975  0.7306
 1418SOL     OW 4252   1.218   0.010   0.787 -0.2273 -0.1271 -0.3052
 1418SOL    HW1 4253   1.262  -0.013   0.869 -0.7883  0.4206  0.1635
 1418SOL    HW2 4254   1.230   0.104   0.779  0.8366 -0.3358 -1.4761
 1419SOL     OW 4255   3.979   0.016   1.047 -0.2676  0.6763 -0.0787
 1419SOL    HW1 4256   3.966   0.107   1.021 -0.2463  1.0062  0.9980
 1419SOL    HW2 4257   3.969   0.017   1.142 -1.1216 -0.6022 -0.1377
 1420SOL     OW 4258   0.778   1.020   2.542  0.0435 -0.5758 -0.6733
 1420SOL    HW1 4259   0.855   1.032   2.487 -0.1982  0.0103 -0.8946
 1420SOL    HW2 4260   0.811   0.981   2.623  0.4797 -0.9274 -1.0207
 1421SOL     OW 4261   0.367   0.803   3.976 -0.5707  0.2209 -0.4632
 1421SOL    HW1 4262   0.308   0.759   3.914  0.4572 -1.5103 -0.2646
 1421SOL    HW2 4263   0.454   0.794   3.936 -0.1721  1.0068  0.2048
 1422SOL     OW 4264   3.248   3.704   0.874  0.1104 -0.2185 -0.1730
 1422SOL    HW1 4265   3.228   3.672   0.962  2.8023 -3.1182 -0.4188
 1422SOL    HW2 4266   3.162   3.715   0.832 -1.1686 -0.7188  2.1583
 1423SOL     OW 4267   2.261   1.745   0.534 -0.2476 -0.2725  0.5742
 1423SOL    HW1 4268   2.217   1.760   0.450  0.3896 -1.2755  0.0256
 1423SOL    HW2 4269   2.351   1.724   0.509 -0.1441 -0.9709  1.4845
 1424SOL     OW 4270   3.485   1.108   0.092 -0.2133  0.0165  0.1990
 1424SOL    HW1 4271   3.556   1.044   0.090  1.6031  1.8049  2.4674
 1424SOL    HW2 4272   3.411   1.062   0.051  1.3306 -3.0297  0.5216
 1425SOL     OW 4273   0.996   3.173   1.221 -0.4236  0.2179 -0.8191
 1425SOL    HW1 4274   0.986   3.098   1.280  1.7885  0.7556  0.3405
 1425SOL    HW2 4275   1.090   3.192   1.221 -0.7830  2.3581 -1.8889
 1426SOL     OW 4276   3.789   3.243   1.219  0.2284 -0.0517  0.4863
 1426SOL    HW1 4277   3.714   3.187   1.196  0.3326 -0.6357  1.4801
 1426SOL    HW2 4278   3.831   3.262   1.135 -0.7082 -0.1813 -0.0316
 1427SOL     OW 4279   1.035   2.593   1.340 -0.7172  0.5129  0.6400
 1427SOL    HW1 4280   1.046   2.508   1.297 -2.8057  0.6623 -0.3154
 1427SOL    HW2 4281   0.941   2.612   1.332 -0.6363  2.0287  2.5323
 1428SOL     OW 4282   1.524   2.547   3.610  0.4071  0.3904 -0.4855
 1428SOL    HW1 4283   1.616   2.576   3.610  0.6115 -0.1992  0.3676
 1428SOL    HW2 4284   1.526   2.464   3.564  0.5049 -0.1667  0.4958
 1429SOL     OW 4285   0.732   0.244   0.446 -0.1226  0.2468  0.2049
 1429SOL    HW1 4286   0.815   0.197   0.454 -0.2021  0.3114  1.6960
 1429SOL    HW2 4287   0.758   0.332   0.419  0.4682  0.6699  1.9552
 1430SOL     OW 4288   2.312   0.944   3.221  0.7337  0.0991 -0.4814
 1430SOL    HW1 4289   2.273   0.857   3.211 -0.8068  0.4637  1.7766
 1430SOL    HW2 4290   2.238   1.004   3.223  1.7151  1.3699 -0.9402
 1431SOL     OW 4291   1.431   0.586   0.707 -0.3424  0.1240 -0.0645
 1431SOL    HW1 4292   1.450   0.537   0.787 -0.8036  1.3110  0.8038
 1431SOL    HW2 4293   1.348   0.631   0.726 -0.4522  0.4283 -1.2116
 1432SOL     OW 4294   0.819   3.810   3.799 -0.8066  0.2063 -0.5972
 1432SOL    HW1 4295   0.829   3.795   3.893 -0.3216 -1.0815 -0.8273
 1432SOL    HW2 4296   0.739   3.863   3.791 -0.6581  0.6405  0.5471
 1433SOL     OW 4297   0.879   0.835   0.022  0.3387  0.8780 -0.0192
 1433SOL    HW1 4298   0.866   0.915   0.073  0.9510  0.8037  0.2710
 1433SOL    HW2 4299   0.925   0.776   0.082  2.1516  1.2087 -1.0037
 1434SOL     OW 4300   1.696   0.538   0.609  0.3526 -0.1240  0.0424
 1434SOL    HW1 4301   1.701   0.633   0.615  0.9910 -0.0847 -0.9769
 1434SOL    HW2 4302   1.608   0.517   0.642  0.5351  0.7241  1.1256
 1435SOL     OW 4303   0.646   0.320   1.443 -0.0875 -0.2256  0.3465
 1435SOL    HW1 4304   0.662   0.353   1.531  1.7675 -1.4350  0.5105
 1435SOL    HW2 4305   0.658   0.225   1.450 -0.1507 -0.3756 -1.1593
 1436SOL     OW 4306   0.835   2.708   0.389  0.5891 -0.1742  0.7983
 1436SOL    HW1 4307   0.810   2.794   0.423  1.2079 -0.0166  0.8546
 1436SOL    HW2 4308   0.795   2.646   0.450  1.2638  0.0979  1.5329
 1437SOL     OW 4309   0.124   1.195   0.281 -0.4612 -0.3630  0.0038
 1437SOL    HW1 4310   0.150   1.106   0.306 -0.5770 -0.6153 -0.7275
 1437SOL    HW2 4311   0.125   1.193   0.185 -0.0552  0.5504 -0.0136
 1438SOL     OW 4312   1.440   0.893   0.828  0.1046 -0.5494  0.0029
 1438SOL    HW1 4313   1.363   0.848   0.793  0.1957 -0.6002 -0.1338
 1438SOL    HW2 4314   1.408   0.940   0.904 -0.1295 -0.3113 -0.2413
 1439SOL     OW 4315   1.354   1.685   1.720 -0.2161  0.2165  0.5041
 1439SOL    HW1 4316   1.356   1.605   1.773  0.1913 -0.2666 -0.2235
 1439SOL    HW2 4317   1.262   1.709   1.717 -0.4619 -0.7540 -0.0346
 1440SOL     OW 4318   3.389   0.930   1.485  0.1511  0.3021 -0.5152
 1440SOL    HW1 4319   3.332   0.990   1.533  0.1157 -0.5094  0.4952
 1440SOL    HW2 4320   3.358   0.843   1.509  2.2978 -0.1941  0.6971
 1441SOL     OW 4321   2.491   2.895   0.121  0.5071  0.4922 -0.1435
 1441SOL    HW1 4322   2.472   2.926   0.032  1.9527  1.6203 -0.1050
 1441SOL    HW2 4323   2.587   2.889   0.124  0.4338 -0.5119  1.0330
 1442SOL     OW 4324   3.164   1.294   2.159 -0.3598 -0.0191 -0.2630
 1442SOL    HW1 4325   3.184   1.268   2.249 -0.7473  0.1595 -0.1241
 1442SOL    HW2 4326   3.092   1.357   2.167 -0.0971  0.3424 -0.6652
 1443SOL     OW 4327   3.500   2.501   3.531  0.4573  0.2870  1.0124
 1443SOL    HW1 4328   3.590   2.469   3.535  0.5214  0.4765  1.1131
 1443SOL    HW2 4329   3.509   2.593   3.507  0.1644 -0.3425 -1.8313
 1444SOL     OW 4330   0.507   2.934   2.230  0.2431 -0.1202 -0.4559
 1444SOL    HW1 4331   0.448   2.928   2.155 -2.0386  1.5328  1.0598
 1444SOL    HW2 4332   0.554   3.016   2.217 -0.2988  0.2686 -0.0251
 1445SOL     OW 4333   2.406   0.493   3.211 -0.0937 -0.3834  0.9072
 1445SOL    HW1 4334   2.359   0.455   3.136 -0.4199 -4.0643  2.7487
 1445SOL    HW2 4335   2.498   0.477   3.192 -0.0088  0.6288  0.3911
 1446SOL     OW 4336   0.729   0.185   1.826  0.5506  0.8034  0.4751
 1446SOL    HW1 4337   0.801   0.173   1.764 -0.5084  1.1028 -0.8395
 1446SOL    HW2 4338   0.699   0.275   1.811 -0.0417  0.7118  1.0791
 1447SOL     OW 4339   0.110   1.955   0.447  0.4159  0.0461  0.3027
 1447SOL    HW1 4340   0.018   1.982   0.449  0.4644  0.7596 -2.4647
 1447SOL    HW2 4341   0.154   2.027   0.403  1.6180 -1.8998 -1.8617
 1448SOL     OW 4342   0.532   1.623   3.968 -0.3879  0.3524 -0.6202
 1448SOL    HW1 4343   0.572   1.562   3.905  0.9776  2.0500 -1.5013
 1448SOL    HW2 4344   0.606   1.656   4.019 -1.1326  1.0356  0.0434
 1449SOL     OW 4345   0.543   0.542   3.539  0.7473  0.0382  0.0453
 1449SOL    HW1 4346   0.527   0.636   3.549 -0.1999 -0.1567  0.4870
 1449SOL    HW2 4347   0.457   0.505   3.517  1.3658 -0.5607 -1.4569
 1450SOL     OW 4348   1.028   1.480   3.779 -0.4572 -0.1891  0.0161
 1450SOL    HW1 4349   1.013   1.545   3.709  2.5567  0.6546  0.0229
 1450SOL    HW2 4350   1.030   1.396   3.733 -0.8176  0.0977 -0.5401
 1451SOL     OW 4351   0.270   1.407   3.783  0.5612  0.3066 -0.4250
 1451SOL    HW1 4352   0.274   1.392   3.878 -0.5256 -0.0811 -0.4224
 1451SOL    HW2 4353   0.200   1.472   3.773  0.1440 -0.2201 -1.0144
 1452SOL     OW 4354   2.529   0.162   3.207 -0.0773 -0.0914  0.4859
 1452SOL    HW1 4355   2.579   0.092   3.251 -0.3363 -0.8342 -0.3719
 1452SOL    HW2 4356   2.503   0.123   3.124  1.9670  1.8754 -1.2036
 1453SOL     OW 4357   3.102   0.373   1.277  0.3001 -0.0852 -0.1174
 1453SOL    HW1 4358   3.155   0.397   1.353  1.6213  0.6018 -1.2240
 1453SOL    HW2 4359   3.041   0.446   1.266 -1.3551 -1.1338  1.5028
 1454SOL     OW 4360   1.288   2.768   3.106  0.1212 -0.2933 -0.4051
 1454SOL    HW1 4361   1.265   2.788   3.016 -0.6228  1.5965  0.1488
 1454SOL    HW2 4362   1.348   2.838   3.132 -0.2541 -0.3820  0.7856
 1455SOL     OW 4363   1.458   0.833   2.757 -0.1574 -0.2587  0.5700
 1455SOL    HW1 4364   1.412   0.758   2.719  1.1091  0.5538 -2.8947
 1455SOL    HW2 4365   1.395   0.905   2.753  0.1576 -0.0393 -0.5977
 1456SOL     OW 4366   1.915   1.043   1.055  0.5878  0.1036 -0.1351
 1456SOL    HW1 4367   1.956   1.056   1.140 -0.8452 -1.1096  0.7842
 1456SOL    HW2 4368   1.964   0.971   1.015 -0.3280 -1.0637  0.7854
 1457SOL     OW 4369   2.334   1.969   1.649 -0.0906  0.0906 -0.1815
 1457SOL    HW1 4370   2.249   1.955   1.691 -0.1330 -0.1962 -0.3546
 1457SOL    HW2 4371   2.353   2.062   1.663 -0.0618 -0.0178  0.5359
 1458SOL     OW 4372   0.312   3.958   1.658  0.1750 -0.1354 -0.3323
 1458SOL    HW1 4373   0.363   4.017   1.602 -1.7043  2.6646  0.6698
 1458SOL    HW2 4374   0.242   3.926   1.601 -0.1678  0.5237 -0.2845
 1459SOL     OW 4375   2.014   3.426   1.864 -0.0288  0.1352 -0.6632
 1459SOL    HW1 4376   2.073   3.494   1.831 -1.3420  1.8698  0.3956
 1459SOL    HW2 4377   2.029   3.425   1.959  2.0435 -3.1791 -0.8348
 1460SOL     OW 4378   2.739   3.044   3.553  0.2838  0.0604 -0.8346
 1460SOL    HW1 4379   2.738   3.092   3.636 -0.2782 -0.0455 -0.7742
 1460SOL    HW2 4380   2.803   2.975   3.566 -0.3097 -0.3975 -0.2238
 1461SOL     OW 4381   1.543   0.539   1.958 -0.9014  0.2647 -0.3654
 1461SOL    HW1 4382   1.511   0.491   2.034  0.0168  3.4015  2.2544
 1461SOL    HW2 4383   1.497   0.623   1.962  1.2080  1.5822 -1.5954
 1462SOL     OW 4384   0.599   3.475   2.901  0.0081 -0.1059  0.2447
 1462SOL    HW1 4385   0.655   3.434   2.968  2.3043  0.6449 -1.0869
 1462SOL    HW2 4386   0.612   3.421   2.823 -1.7559 -0.3257  0.0798
 1463SOL     OW 4387   0.954   0.068   3.202 -0.3958  0.0928 -0.3736
 1463SOL    HW1 4388   0.893   0.033   3.267  1.0383  1.2908  1.7718
 1463SOL    HW2 4389   0.943   0.012   3.125 -4.0482  0.2171 -0.0749
 1464SOL     OW 4390   1.353   2.294   3.278 -0.1250 -0.3740 -0.1605
 1464SOL    HW1 4391   1.368   2.383   3.311 -1.2946  0.4459 -1.6936
 1464SOL    HW2 4392   1.333   2.306   3.185 -3.6616 -1.8425  0.2438
 1465SOL     OW 4393   1.410   1.697   3.107  0.1017  0.1999  0.0085
 1465SOL    HW1 4394   1.406   1.783   3.150  1.5442  0.6195 -0.6088
 1465SOL    HW2 4395   1.468   1.711   3.032 -1.2769 -0.8409 -1.3092
 1466SOL     OW 4396   2.886   1.843   3.425  0.2340 -0.2596  0.4662
 1466SOL    HW1 4397   2.894   1.933   3.394  0.9365 -0.4114  0.1919
 1466SOL    HW2 4398   2.798   1.838   3.461  0.5979  0.9060  1.6321
 1467SOL     OW 4399   3.121   0.346   3.449 -0.3730 -0.6758  0.2215
 1467SOL    HW1 4400   3.180   0.303   3.388  0.0884  0.1897  0.0389
 1467SOL    HW2 4401   3.160   0.332   3.535 -0.5354 -1.1142  0.2239
 1468SOL     OW 4402   1.997   1.030   1.317 -0.0008  0.2637  0.1292
 1468SOL    HW1 4403   1.910   1.012   1.353 -0.3944  2.4108  0.3965
 1468SOL    HW2 4404   2.028   1.106   1.366  1.5869  0.1896 -0.6929
 1469SOL     OW 4405   0.487   0.137   2.240 -0.5873 -0.0333 -0.1919
 1469SOL    HW1 4406   0.399   0.134   2.277 -0.9808 -1.0262 -1.1347
 1469SOL    HW2 4407   0.542   0.171   2.310 -1.5339 -0.5062  0.8038
 1470SOL     OW 4408   3.005   2.245   3.148  0.0324  0.3700  0.1435
 1470SOL    HW1 4409   2.968   2.202   3.071  0.2160  3.1285 -1.6264
 1470SOL    HW2 4410   3.075   2.187   3.178  1.3204  0.1222 -3.0384
 1471SOL     OW 4411   2.771   2.424   1.195  0.0752  0.4503 -0.0570
 1471SOL    HW1 4412   2.861   2.408   1.165  0.8300 -2.2901  2.9957
 1471SOL    HW2 4413   2.766   2.379   1.279 -4.1643  0.6380  0.0096
 1472SOL     OW 4414   0.703   1.522   0.315  0.0777 -0.8752 -0.0062
 1472SOL    HW1 4415   0.672   1.462   0.247 -1.1921 -0.6278  0.3328
 1472SOL    HW2 4416   0.752   1.589   0.268 -0.7362 -0.7428 -0.6730
 1473SOL     OW 4417   1.490   0.202   1.578  0.1323 -0.2773  0.7570
 1473SOL    HW1 4418   1.500   0.162   1.492 -2.8911 -2.0019  1.0608
 1473SOL    HW2 4419   1.550   0.153   1.635  0.1440 -0.9796  0.1519
 1474SOL     OW 4420   3.539   1.399   0.641  0.4470  0.5354  0.4854
 1474SOL    HW1 4421   3.578   1.399   0.729 -0.5450 -1.7685  0.9828
 1474SOL    HW2 4422   3.486   1.479   0.638 -1.2150 -0.3888  2.8187
 1475SOL     OW 4423   1.867   0.023   1.197 -0.4669 -0.0107  0.0270
 1475SOL    HW1 4424   1.900  -0.038   1.263  2.2918  1.9361  0.6077
 1475SOL    HW2 4425   1.936   0.026   1.131 -0.7754  2.0184 -0.2574
 1476SOL     OW 4426   0.844   0.958   2.189 -0.3728  0.2897  0.0218
 1476SOL    HW1 4427   0.902   0.893   2.228  0.8642  0.7363 -1.0139
 1476SOL    HW2 4428   0.900   1.035   2.176 -0.4687 -0.0841 -3.3302
 1477SOL     OW 4429   3.220   1.849   1.304  0.3428  0.1775  0.3323
 1477SOL    HW1 4430   3.260   1.807   1.228 -1.7984 -0.5585 -0.4600
 1477SOL    HW2 4431   3.248   1.796   1.378  3.1935  1.4193  0.2746
 1478SOL     OW 4432   0.043   0.034   3.387  0.5024  0.0959 -0.1983
 1478SOL    HW1 4433   0.050   0.117   3.339  0.4349  0.3150  0.1670
 1478SOL    HW2 4434  -0.046   0.034   3.422  0.0551 -0.7411 -1.2968
 1479SOL     OW 4435   2.445   2.188   2.170  0.5103 -0.2973  0.4388
 1479SOL    HW1 4436   2.417   2.147   2.087 -1.7078  1.5488  0.1695
 1479SOL    HW2 4437   2.449   2.282   2.150  0.5741  0.1156  2.2594
 1480SOL     OW 4438   0.110   1.892   1.630  0.6394  0.3755  0.7089
 1480SOL    HW1 4439   0.176   1.954   1.600  0.3322  0.5395  0.3678
 1480SOL    HW2 4440   0.151   1.806   1.619  1.2800  0.5318  1.7146
 1481SOL     OW 4441   0.039   3.504   0.560 -0.3685 -0.4830  0.7403
 1481SOL    HW1 4442   0.110   3.560   0.590 -0.0322 -1.0630  1.0353
 1481SOL    HW2 4443   0.004   3.550   0.483  1.5350 -1.0745 -0.5594
 1482SOL     OW 4444   3.968   3.490   3.693  0.6027 -0.0505 -0.0140
 1482SOL    HW1 4445   3.932   3.448   3.615 -1.1029 -0.3625  0.9042
 1482SOL    HW2 4446   3.967   3.421   3.760 -0.2958  0.8637  0.9433
 1483SOL     OW 4447   2.499   1.150   3.551 -0.1042 -0.3399 -0.0686
 1483SOL    HW1 4448   2.460   1.101   3.623 -2.0534  0.3265 -0.5972
 1483SOL    HW2 4449   2.559   1.088   3.510  0.8714 -0.7971  1.9478
 1484SOL     OW 4450   1.146   1.446   2.130 -0.6368  0.5188  0.0149
 1484SOL    HW1 4451   1.077   1.385   2.105 -2.3294  2.3495 -0.1362
 1484SOL    HW2 4452   1.099   1.527   2.152  1.5305  2.2188 -1.1416
 1485SOL     OW 4453   3.520   2.597   1.375 -0.2281 -0.0774  0.0791
 1485SOL    HW1 4454   3.451   2.659   1.352 -0.7691 -0.6934  0.0140
 1485SOL    HW2 4455   3.567   2.640   1.446  1.8218  2.0892 -2.4279
 1486SOL     OW 4456   2.411   0.023   0.810 -0.0466 -0.0926  0.4001
 1486SOL    HW1 4457   2.347   0.086   0.844 -0.3412  0.4152 -1.0060
 1486SOL    HW2 4458   2.385   0.011   0.718  0.8738 -1.1785  0.2641
 1487SOL     OW 4459   3.406   0.711   1.171  0.2079 -0.6652  0.1751
 1487SOL    HW1 4460   3.391   0.666   1.088 -1.1520  0.6864 -0.3447
 1487SOL    HW2 4461   3.474   0.775   1.151  0.2345 -0.6764  0.2304
 1488SOL     OW 4462   3.258   0.588   0.590  0.1064 -0.0154  0.3873
 1488SOL    HW1 4463   3.191   0.600   0.657  0.4512 -0.5329  0.8273
 1488SOL    HW2 4464   3.334   0.637   0.622  0.9488 -1.8983  1.3694
 1489SOL     OW 4465   2.372   1.202   3.023  0.4319 -0.4298 -1.1584
 1489SOL    HW1 4466   2.451   1.221   3.075  1.2542  0.5232 -2.6617
 1489SOL    HW2 4467   2.305   1.259   3.061  0.5123 -1.0712 -0.0106
 1490SOL     OW 4468   1.640   2.795   0.501  0.4538 -0.2972  0.7337
 1490SOL    HW1 4469   1.587   2.859   0.455  0.2708 -0.4392  0.7444
 1490SOL    HW2 4470   1.730   2.827   0.493  0.6172 -1.0415 -0.9595
 1491SOL     OW 4471   1.430   3.656   0.893 -0.0860 -0.1534 -0.5349
 1491SOL    HW1 4472   1.464   3.610   0.970 -0.9170 -0.6456 -0.4455
 1491SOL    HW2 4473   1.503   3.711   0.864  0.0951  0.4289  0.8972
 1492SOL     OW 4474   3.433   3.931   2.168  0.1318  0.0041 -0.1847
 1492SOL    HW1 4475   3.427   3.835   2.167 -0.3038 -0.0222  1.2901
 1492SOL    HW2 4476   3.386   3.959   2.090 -2.6740 -0.9266  1.0039
 1493SOL     OW 4477   2.822   2.500   4.021  0.3074  0.1618  0.4616
 1493SOL    HW1 4478   2.736   2.539   4.039  0.7285  1.3139  0.0674
 1493SOL    HW2 4479   2.833   2.509   3.927  0.6819 -0.3679  0.4512
 1494SOL     OW 4480   0.562   3.616   2.136  0.0144  0.5567  0.3970
 1494SOL    HW1 4481   0.526   3.633   2.049 -0.0112  0.3151  0.3611
 1494SOL    HW2 4482   0.490   3.637   2.196 -1.4214 -3.1507  0.2082
 1495SOL     OW 4483   0.642   2.034   3.996 -0.0273  0.3156  0.5187
 1495SOL    HW1 4484   0.697   2.113   3.986 -2.0260  1.9383  1.5397
 1495SOL    HW2 4485   0.591   2.029   3.915  1.7988 -1.4527 -0.6255
 1496SOL     OW 4486   2.147   0.561   0.533 -0.0371  0.2774  0.4333
 1496SOL    HW1 4487   2.212   0.526   0.595  0.0211  2.8082  1.9478
 1496SOL    HW2 4488   2.063   0.550   0.578 -0.3680 -0.4955 -0.3421
 1497SOL     OW 4489   2.602   1.974   0.164  0.4531  0.6488 -0.1362
 1497SOL    HW1 4490   2.629   1.888   0.197  2.0948 -0.2178 -3.3067
 1497SOL    HW2 4491   2.514   1.961   0.130  1.2462 -0.2616 -1.9465
 1498SOL     OW 4492   2.214   0.940   1.895  0.3204  0.2568  0.1050
 1498SOL    HW1 4493   2.160   1.011   1.930 -0.1691 -0.2437  0.3639
 1498SOL    HW2 4494   2.152   0.874   1.865  0.7768 -0.1953  0.1332
 1499SOL     OW 4495   0.467   3.413   1.400  0.7431 -0.1641 -0.2554
 1499SOL    HW1 4496   0.471   3.413   1.495  0.9655 -0.5139 -0.2608
 1499SOL    HW2 4497   0.450   3.321   1.377 -0.2234  0.0678 -0.5171
 1500SOL     OW 4498   2.372   2.667   2.395 -0.7817  0.0338  0.3038
 1500SOL    HW1 4499   2.306   2.602   2.370 -0.4230  0.5115 -2.0916
 1500SOL    HW2 4500   2.450   2.615   2.416 -0.6760 -0.3618 -1.0158
 1501SOL     OW 4501   1.878   2.901   0.460  0.2181 -0.0833 -0.1171
 1501SOL    HW1 4502   1.911   2.890   0.371  1.0565  3.2545 -0.3645
 1501SOL    HW2 4503   1.957   2.898   0.515 -0.2995 -2.2149  0.6012
 1502SOL     OW 4504   2.314   0.155   3.398 -0.2370 -0.3019 -0.2160
 1502SOL    HW1 4505   2.348   0.224   3.341 -2.2307  1.7743  0.9188
 1502SOL    HW2 4506   2.392   0.122   3.444  0.7016  2.0225  0.0097
 1503SOL     OW 4507   0.819   3.259   2.822 -1.1703  0.4744 -0.0414
 1503SOL    HW1 4508   0.819   3.193   2.753 -0.6663  0.9601 -0.5221
 1503SOL    HW2 4509   0.827   3.209   2.904 -0.0434 -0.0346 -0.4391
 1504SOL     OW 4510   3.360   1.129   0.884 -0.3022  0.6721 -0.2502
 1504SOL    HW1 4511   3.411   1.048   0.887  0.0636  0.7803 -2.1318
 1504SOL    HW2 4512   3.323   1.138   0.971  1.0792 -0.5996  0.5027
 1505SOL     OW 4513   0.882   2.772   2.217 -0.2549 -0.3812  0.1015
 1505SOL    HW1 4514   0.976   2.767   2.199  0.2140  0.0914  2.0801
 1505SOL    HW2 4515   0.877   2.813   2.304 -2.3746  1.7014 -0.8903
 1506SOL     OW 4516   3.780   3.064   3.311  0.2366 -0.9457  0.3779
 1506SOL    HW1 4517   3.817   3.075   3.224 -0.6112  0.7459  0.1808
 1506SOL    HW2 4518   3.695   3.108   3.307  0.0070 -1.1760  1.9422
 1507SOL     OW 4519   1.151   0.284   0.810  0.1241  0.7475 -0.8308
 1507SOL    HW1 4520   1.140   0.318   0.721  0.5163  2.3407 -0.3034
 1507SOL    HW2 4521   1.236   0.318   0.838  1.4160 -2.1448 -0.8576
 1508SOL     OW 4522   0.333   2.164   3.650 -0.1331 -0.2030  0.3470
 1508SOL    HW1 4523   0.381   2.108   3.712  0.3938  1.4025  1.4443
 1508SOL    HW2 4524   0.381   2.246   3.650 -0.0520 -0.1804 -2.3571
 1509SOL     OW 4525   3.914   0.101   1.882  0.1939  0.0360  0.1539
 1509SOL    HW1 4526   3.869   0.159   1.820  0.9712  1.4532  0.8516
 1509SOL    HW2 4527   4.001   0.140   1.892  0.3913 -0.6825  1.4401
 1510SOL     OW 4528   2.047   2.918   2.775 -0.1831  0.0593  0.5294
 1510SOL    HW1 4529   2.102   2.870   2.714  0.3326  1.2440  0.0426
 1510SOL    HW2 4530   2.106   2.982   2.815 -0.1228 -1.6138  3.3880
 1511SOL     OW 4531   3.302   3.235   0.230  1.4607 -0.1270  0.5511
 1511SOL    HW1 4532   3.258   3.266   0.309  0.1186 -0.6617  0.0395
 1511SOL    HW2 4533   3.252   3.159   0.202  1.6694  0.2694 -1.0321
 1512SOL     OW 4534   0.730   2.957   0.085  0.4076  0.0397 -0.0853
 1512SOL    HW1 4535   0.809   2.992   0.125  0.3122  1.0719 -0.7598
 1512SOL    HW2 4536   0.680   3.034   0.058 -0.5420 -0.6017 -0.2197
 1513SOL     OW 4537   0.617   1.039   2.978  0.0237 -0.0104  0.4120
 1513SOL    HW1 4538   0.534   1.066   3.017 -0.4044 -0.1959 -0.3417
 1513SOL    HW2 4539   0.672   1.117   2.981 -1.4110  1.2612 -2.3508
 1514SOL     OW 4540   2.294   3.737   1.395 -0.2153  0.6575 -0.5971
 1514SOL    HW1 4541   2.249   3.654   1.411  0.6462  0.1380 -0.8218
 1514SOL    HW2 4542   2.375   3.731   1.445 -0.3492  1.5679 -0.2341
 1515SOL     OW 4543   0.307   0.507   1.616 -0.4574  0.0518  0.4630
 1515SOL    HW1 4544   0.247   0.445   1.575 -0.9188  0.2449  0.8381
 1515SOL    HW2 4545   0.251   0.581   1.642  0.0328  0.4826  0.3039
 1516SOL     OW 4546   2.970   1.404   0.962 -0.9401  0.1204 -0.1504
 1516SOL    HW1 4547   3.047   1.422   1.016  1.3220  0.9505 -3.3518
 1516SOL    HW2 4548   2.914   1.480   0.975  0.3371  1.1072 -0.1971
 1517SOL     OW 4549   2.936   2.073   2.936  0.7519  0.5893 -0.2699
 1517SOL    HW1 4550   2.897   2.100   2.853 -0.5630  0.6007  0.3293
 1517SOL    HW2 4551   2.923   1.978   2.939  0.2006  0.6793  0.2222
 1518SOL     OW 4552   2.527   3.646   0.787  0.0162 -0.8336 -0.0258
 1518SOL    HW1 4553   2.605   3.695   0.761 -0.8537  1.0520  0.7069
 1518SOL    HW2 4554   2.514   3.669   0.879 -2.5797  0.6481 -0.6615
 1519SOL     OW 4555   1.040   0.987   3.092 -0.1702 -0.1196 -0.2230
 1519SOL    HW1 4556   0.953   0.974   3.129 -0.0133 -1.9031 -0.3992
 1519SOL    HW2 4557   1.027   1.050   3.021 -1.1164  0.4702  0.4504
 1520SOL     OW 4558   0.569   3.871   4.006 -0.6329 -0.5810 -0.1789
 1520SOL    HW1 4559   0.491   3.861   3.951 -1.1403 -1.7511  0.7062
 1520SOL    HW2 4560   0.597   3.781   4.024 -0.4065 -0.2351  1.3529
 1521SOL     OW 4561   2.219   3.279   0.592 -0.3998  0.3998 -0.2277
 1521SOL    HW1 4562   2.223   3.256   0.499  0.9593 -1.5797  0.2536
 1521SOL    HW2 4563   2.299   3.329   0.608  0.9507 -1.7999  0.4091
 1522SOL     OW 4564   3.066   1.105   1.350 -0.3881 -0.0891 -0.3345
 1522SOL    HW1 4565   2.990   1.147   1.311 -0.5020  0.5144  0.5049
 1522SOL    HW2 4566   3.031   1.047   1.417 -0.0937  0.8271  0.6432
 1523SOL     OW 4567   3.138   1.174   2.430  0.3521  0.9668 -0.8121
 1523SOL    HW1 4568   3.051   1.191   2.466  0.9286  1.2673  0.5279
 1523SOL    HW2 4569   3.141   1.079   2.421  0.9064  0.5985  2.1036
 1524SOL     OW 4570   3.914   1.329   3.485  0.0374  0.0760  0.0640
 1524SOL    HW1 4571   3.853   1.263   3.517  1.5156 -1.0028  0.7716
 1524SOL    HW2 4572   3.973   1.282   3.426  0.4484  0.9920 -0.2804
 1525SOL     OW 4573   2.856   2.568   3.574 -0.0377 -0.1764  0.4967
 1525SOL    HW1 4574   2.801   2.533   3.644 -2.3844 -1.3712 -1.7353
 1525SOL    HW2 4575   2.880   2.491   3.523  0.7318  0.7457 -0.5798
 1526SOL     OW 4576   0.596   0.756   1.497 -1.0882 -0.0445 -0.0733
 1526SOL    HW1 4577   0.570   0.826   1.556 -0.4013  0.3558 -0.2438
 1526SOL    HW2 4578   0.657   0.703   1.547 -0.7253  0.1317 -0.3263
 1527SOL     OW 4579   0.408   2.716   2.059  0.0290  0.4081 -0.5900
 1527SOL    HW1 4580   0.474   2.712   2.128  0.7633  2.0279 -1.1456
 1527SOL    HW2 4581   0.370   2.629   2.057 -0.8054  0.6038  2.6048
 1528SOL     OW 4582   1.123   1.360   0.878  0.4219 -0.2712  0.6357
 1528SOL    HW1 4583   1.149   1.377   0.787 -0.8864  0.0634  0.3067
 1528SOL    HW2 4584   1.170   1.425   0.929 -1.2142  1.6196 -0.1511
 1529SOL     OW 4585   2.870   0.232   1.205  0.4757 -0.0273 -0.1333
 1529SOL    HW1 4586   2.822   0.306   1.168  0.5279 -0.6900 -1.6377
 1529SOL    HW2 4587   2.961   0.261   1.207  0.4385  0.1093 -0.3473
 1530SOL     OW 4588   2.303   0.589   0.001  0.2485 -0.4029  0.1859
 1530SOL    HW1 4589   2.281   0.558   0.088 -0.8235 -3.3485 -1.0100
 1530SOL    HW2 4590   2.221   0.581  -0.049  0.6728  1.7816 -1.0116
 1531SOL     OW 4591   3.774   1.696   1.989 -0.2039  1.3341 -0.4396
 1531SOL    HW1 4592   3.751   1.604   1.976 -0.9324  1.4888 -0.2877
 1531SOL    HW2 4593   3.788   1.730   1.901  0.2452  1.0365 -0.4853
 1532SOL     OW 4594   2.111   3.734   2.727 -0.6059 -0.2885  0.3044
 1532SOL    HW1 4595   2.152   3.816   2.700 -1.6633 -0.0267 -0.5768
 1532SOL    HW2 4596   2.185   3.674   2.741  0.1454  0.6036  0.2891
 1533SOL     OW 4597   2.363   1.013   1.049 -0.0403  0.6784 -0.3164
 1533SOL    HW1 4598   2.326   0.946   0.992 -0.3683  0.2806  0.3571
 1533SOL    HW2 4599   2.336   0.988   1.138  0.2766  1.4069 -0.0010
 1534SOL     OW 4600   3.655   2.770   2.073 -0.4395  0.3320  0.4924
 1534SOL    HW1 4601   3.647   2.750   1.979 -2.3503  0.9542  0.4675
 1534SOL    HW2 4602   3.568   2.751   2.108  0.2320  0.1782  2.1519
 1535SOL     OW 4603   2.278   0.374   2.967  0.5350  0.3022 -0.1157
 1535SOL    HW1 4604   2.206   0.313   2.981  2.1005 -1.3124  1.3999
 1535SOL    HW2 4605   2.336   0.330   2.905  0.5410  1.2832 -0.8166
 1536SOL     OW 4606   2.528   1.045   2.167 -0.9421 -0.3837  0.0358
 1536SOL    HW1 4607   2.535   0.954   2.194 -0.5882  0.1081  1.7756
 1536SOL    HW2 4608   2.452   1.079   2.215 -0.2405  0.5646  0.5184
 1537SOL     OW 4609   3.084   3.858   3.580 -0.3457 -0.3308 -0.5507
 1537SOL    HW1 4610   3.169   3.830   3.545  0.1345  0.7059 -0.2385
 1537SOL    HW2 4611   3.043   3.776   3.608  0.2451 -0.9261 -1.3562
 1538SOL     OW 4612   2.927   1.341   1.545 -0.1796 -0.2626 -0.1780
 1538SOL    HW1 4613   2.850   1.391   1.519  0.7111  1.1176 -0.2632
 1538SOL    HW2 4614   2.945   1.283   1.471 -1.3696 -0.9262  0.0238
 1539SOL     OW 4615   0.537   2.912   0.252  0.4370 -0.0096 -0.2225
 1539SOL    HW1 4616   0.615   2.883   0.204  1.4822 -0.4817  1.6658
 1539SOL    HW2 4617   0.554   2.888   0.343 -1.9817 -0.2091  0.2445
 1540SOL     OW 4618   0.348   2.901   2.882  0.2386 -1.1283  0.4894
 1540SOL    HW1 4619   0.294   2.824   2.899  1.6649 -2.5454 -0.9045
 1540SOL    HW2 4620   0.427   2.887   2.935  0.6663 -0.8289 -0.0548
 1541SOL     OW 4621   2.110   0.857   3.770 -0.2676  0.0591  0.5573
 1541SOL    HW1 4622   2.197   0.848   3.729 -0.3800 -0.5234  0.4399
 1541SOL    HW2 4623   2.052   0.880   3.697 -0.3726 -0.4621  0.4688
 1542SOL     OW 4624   3.965   1.020   3.834  0.1279  0.3039 -0.2801
 1542SOL    HW1 4625   3.884   1.068   3.848 -0.4617  0.1993 -2.8078
 1542SOL    HW2 4626   3.959   0.944   3.892 -1.2737  0.6452  0.0578
 1543SOL     OW 4627   2.939   2.156   3.565 -0.5087  0.1711  0.3042
 1543SOL    HW1 4628   2.877   2.218   3.524 -0.7372  0.2299  0.7319
 1543SOL    HW2 4629   2.904   2.142   3.653  0.8465  1.2915  1.0583
 1544SOL     OW 4630   0.825   3.382   1.508  0.5328 -0.2128  0.3894
 1544SOL    HW1 4631   0.828   3.292   1.475 -0.2941  0.0387 -0.3852
 1544SOL    HW2 4632   0.842   3.437   1.432  1.8789  0.2858  1.0145
 1545SOL     OW 4633   2.875   1.943   1.772  0.3272  0.2545 -0.2001
 1545SOL    HW1 4634   2.817   1.936   1.696 -1.6251  0.7143  1.1636
 1545SOL    HW2 4635   2.852   1.869   1.827  0.4272  0.9099  0.7530
 1546SOL     OW 4636   2.311   2.624   0.131  0.3902 -0.5270  0.1770
 1546SOL    HW1 4637   2.305   2.541   0.178  0.4612 -0.6672 -0.0600
 1546SOL    HW2 4638   2.246   2.680   0.173  1.5151 -0.1445  1.4539
 1547SOL     OW 4639   2.139   2.298   3.738 -0.3938 -0.5447 -0.4115
 1547SOL    HW1 4640   2.098   2.363   3.796  0.1685 -1.1661  0.7139
 1547SOL    HW2 4641   2.230   2.327   3.732  0.1666 -1.8511  1.0849
 1548SOL     OW 4642   2.131   3.674   1.976 -1.4043  0.5057 -0.2096
 1548SOL    HW1 4643   2.214   3.651   1.933 -0.4161  1.5863  1.0412
 1548SOL    HW2 4644   2.156   3.700   2.064 -2.8895  2.3303 -0.2608
 1549SOL     OW 4645   0.719   3.903   0.477 -0.0284 -0.1600 -0.0707
 1549SOL    HW1 4646   0.651   3.921   0.413  1.1275  0.3064 -1.2112
 1549SOL    HW2 4647   0.783   3.850   0.430 -0.0023 -1.3475  1.2324
 1550SOL     OW 4648   0.197   2.087   3.203 -0.2309 -0.7885  0.4423
 1550SOL    HW1 4649   0.205   2.095   3.108  3.2999 -0.8269  0.6040
 1550SOL    HW2 4650   0.215   1.995   3.221 -2.6419 -1.1984  1.1225
 1551SOL     OW 4651   1.819   2.482   2.723  0.4057  0.3308 -0.1860
 1551SOL    HW1 4652   1.771   2.559   2.751 -2.5793 -1.5003  0.1643
 1551SOL    HW2 4653   1.860   2.448   2.803 -0.1560  0.3365  0.1071
 1552SOL     OW 4654   1.920   1.386   0.173  0.3196 -0.7427  0.2463
 1552SOL    HW1 4655   1.965   1.357   0.094 -1.4385  2.8881 -2.4471
 1552SOL    HW2 4656   1.828   1.394   0.146 -0.1414  1.9162  2.1649
 1553SOL     OW 4657   0.031   1.231   1.710 -0.3079 -0.0639  0.0999
 1553SOL    HW1 4658  -0.020   1.151   1.724  0.5763 -0.6567 -0.0365
 1553SOL    HW2 4659   0.058   1.258   1.798  1.5409 -1.3498 -0.0316
 1554SOL     OW 4660   1.357   0.664   1.082  0.2862  0.0020 -0.2086
 1554SOL    HW1 4661   1.313   0.620   1.009  0.8634 -0.2829 -0.3928
 1554SOL    HW2 4662   1.314   0.749   1.088  1.0910  0.5713 -1.7400
 1555SOL     OW 4663   1.010   3.747   3.554  0.0624 -0.1588  0.0038
 1555SOL    HW1 4664   0.936   3.743   3.493 -0.1789 -4.3032  0.2866
 1555SOL    HW2 4665   0.970   3.766   3.639 -0.6693 -1.6813  0.0339
 1556SOL     OW 4666   0.340   3.504   3.685  0.3027 -0.5889  0.0802
 1556SOL    HW1 4667   0.411   3.564   3.663  1.8267 -1.2648  2.7097
 1556SOL    HW2 4668   0.284   3.503   3.607  1.9494  1.6973 -1.2460
 1557SOL     OW 4669   2.358   2.306   2.987 -0.4102 -0.1308  0.0135
 1557SOL    HW1 4670   2.302   2.299   3.064 -0.7431  2.6838  0.1332
 1557SOL    HW2 4671   2.438   2.259   3.012 -0.0463  1.6456  2.6109
 1558SOL     OW 4672   3.551   3.247   3.412  0.7451 -0.0131  0.8324
 1558SOL    HW1 4673   3.590   3.267   3.327  1.7674 -0.6876  1.1222
 1558SOL    HW2 4674   3.514   3.159   3.401 -2.2291  1.2190  0.0693
 1559SOL     OW 4675   1.106   2.627   2.060  0.1484 -0.0294 -0.9548
 1559SOL    HW1 4676   1.113   2.670   1.974 -1.1178  0.8071 -0.6531
 1559SOL    HW2 4677   1.178   2.665   2.111  2.4785 -2.2719 -2.2993
 1560SOL     OW 4678   2.022   2.056   3.598  0.0487 -0.3803 -0.3815
 1560SOL    HW1 4679   2.066   2.123   3.651 -0.9213  0.1971 -0.2897
 1560SOL    HW2 4680   1.953   2.022   3.654  0.3711 -1.2854 -0.5255
 1561SOL     OW 4681   3.367   3.670   0.395  0.2656 -0.2540 -0.1959
 1561SOL    HW1 4682   3.319   3.589   0.408  0.3028 -0.1120  0.8914
 1561SOL    HW2 4683   3.302   3.739   0.408  0.5427 -0.0808  0.2858
 1562SOL     OW 4684   0.739   0.353   3.519 -0.4697  0.0834  0.0428
 1562SOL    HW1 4685   0.807   0.377   3.457 -1.5118  1.1954 -0.7247
 1562SOL    HW2 4686   0.667   0.413   3.500 -1.2520 -0.3105  1.5730
 1563SOL     OW 4687   2.820   3.626   2.652 -0.3359 -0.2593 -0.0233
 1563SOL    HW1 4688   2.849   3.677   2.728 -0.5836 -0.7568  0.4105
 1563SOL    HW2 4689   2.742   3.671   2.622  1.0562  1.3482 -1.4636
 1564SOL     OW 4690   0.645   2.253   2.839 -0.4712  0.4797 -0.4385
 1564SOL    HW1 4691   0.576   2.190   2.862  1.5526 -1.4764  0.6754
 1564SOL    HW2 4692   0.704   2.252   2.914  0.4986  2.5537 -1.1066
 1565SOL     OW 4693   3.503   0.909   0.819  0.0055 -0.0388  0.0471
 1565SOL    HW1 4694   3.491   0.838   0.756  0.7826 -2.6907  2.6293
 1565SOL    HW2 4695   3.597   0.912   0.835 -0.1005  1.0232  0.5846
 1566SOL     OW 4696   2.136   1.051   1.612 -0.7172  0.5952  0.4655
 1566SOL    HW1 4697   2.220   1.006   1.604 -1.1990 -0.2421 -0.0073
 1566SOL    HW2 4698   2.120   1.057   1.706 -0.7934 -0.5195  0.5366
 1567SOL     OW 4699   2.062   2.652   0.348 -0.2527  0.3485 -0.1813
 1567SOL    HW1 4700   2.053   2.728   0.291 -1.1535 -0.0694 -0.6198
 1567SOL    HW2 4701   1.973   2.619   0.359  0.2424 -1.4305 -1.0879
 1568SOL     OW 4702   0.165   3.431   3.472 -0.3517  0.4336 -0.1642
 1568SOL    HW1 4703   0.199   3.436   3.383  0.2996 -1.4571 -0.0763
 1568SOL    HW2 4704   0.073   3.406   3.461  0.0378 -1.0520 -0.3394
 1569SOL     OW 4705   0.148   2.113   3.971 -0.0846 -0.1826 -0.6334
 1569SOL    HW1 4706   0.210   2.086   4.038  2.2429  2.4230 -1.5571
 1569SOL    HW2 4707   0.179   2.199   3.943 -3.0365  0.3979 -2.5633
 1570SOL     OW 4708   1.775   1.591   1.030  0.0226  0.2340  0.3790
 1570SOL    HW1 4709   1.766   1.554   1.117  0.9024  2.4022  1.4607
 1570SOL    HW2 4710   1.689   1.628   1.010 -0.2151 -0.3789  0.2598
 1571SOL     OW 4711   1.864   2.213   3.140 -0.2103  0.3193  0.8615
 1571SOL    HW1 4712   1.895   2.160   3.213 -2.2814 -1.5787  0.4480
 1571SOL    HW2 4713   1.771   2.194   3.134 -0.1219  0.4314 -2.2479
 1572SOL     OW 4714   0.293   0.469   4.010  0.4427 -0.4433 -0.6419
 1572SOL    HW1 4715   0.341   0.437   3.934  1.0272  0.3959 -0.6358
 1572SOL    HW2 4716   0.241   0.394   4.039 -0.8728 -0.4112 -2.6949
 1573SOL     OW 4717   1.592   3.075   1.646 -0.1465  0.1273 -0.1626
 1573SOL    HW1 4718   1.640   3.124   1.712  1.5369 -1.0104 -0.4917
 1573SOL    HW2 4719   1.530   3.022   1.696 -1.9851  2.4236  0.1995
 1574SOL     OW 4720   0.798   1.916   3.052  0.0005 -0.1084  0.0887
 1574SOL    HW1 4721   0.735   1.906   3.123 -0.3308  0.2564 -0.1458
 1574SOL    HW2 4722   0.792   1.835   3.002 -1.9176  0.7534 -1.2174
 1575SOL     OW 4723   0.463   2.688   0.700 -0.3681  0.2710  0.2110
 1575SOL    HW1 4724   0.403   2.702   0.774  0.0652  0.2689  0.5704
 1575SOL    HW2 4725   0.422   2.619   0.648 -0.9910  0.7165  0.1072
 1576SOL     OW 4726   0.014   1.534   1.246 -0.5518  0.5017  0.6003
 1576SOL    HW1 4727  -0.003   1.597   1.176 -1.4013  1.7909  1.9331
 1576SOL    HW2 4728   0.104   1.552   1.273 -0.0205 -0.3760 -0.4918
 1577SOL     OW 4729   0.554   0.885   2.694 -0.2976 -0.8917 -0.3414
 1577SOL    HW1 4730   0.541   0.971   2.734  3.4603  0.2229 -1.1131
 1577SOL    HW2 4731   0.581   0.903   2.604 -1.3996 -3.0296 -1.1896
 1578SOL     OW 4732   0.713   1.916   2.399 -0.1178 -0.3732 -0.4544
 1578SOL    HW1 4733   0.625   1.943   2.372 -0.7098 -2.3593 -0.6584
 1578SOL    HW2 4734   0.767   1.932   2.322 -0.6246 -0.5547 -0.8587
 1579SOL     OW 4735   3.767   1.415   1.934 -0.3110  0.6365 -1.0158
 1579SOL    HW1 4736   3.816   1.343   1.974 -0.9055 -0.4861 -2.2439
 1579SOL    HW2 4737   3.677   1.404   1.966 -0.2321  1.3547 -0.5322
 1580SOL     OW 4738   2.873   0.584   0.935  0.2972  0.0355  0.0316
 1580SOL    HW1 4739   2.888   0.491   0.951  0.8192  0.1301  0.1263
 1580SOL    HW2 4740   2.808   0.586   0.865  1.4912 -0.4323 -1.1484
 1581SOL     OW 4741   2.675   2.603   3.266  0.0968 -0.1018  0.5190
 1581SOL    HW1 4742   2.668   2.534   3.200 -1.1708 -0.1453  0.6782
 1581SOL    HW2 4743   2.732   2.566   3.333 -1.4459 -1.4528  1.1382
 1582SOL     OW 4744   1.383   2.838   2.532  0.2858  0.3506  0.1366
 1582SOL    HW1 4745   1.396   2.884   2.615  0.7799  1.1782 -0.3749
 1582SOL    HW2 4746   1.471   2.834   2.493 -0.0555  0.6923 -0.7022
 1583SOL     OW 4747   1.427   2.180   0.495  0.5898 -0.4265 -0.0616
 1583SOL    HW1 4748   1.485   2.219   0.561 -1.3030  1.1757  0.7700
 1583SOL    HW2 4749   1.453   2.221   0.413 -0.1411  1.2896  0.5087
 1584SOL     OW 4750   2.721   1.169   2.995 -0.3012  0.2100 -0.0224
 1584SOL    HW1 4751   2.678   1.139   2.915  2.5662 -1.6675 -1.0252
 1584SOL    HW2 4752   2.747   1.259   2.977 -3.1517  1.2576  0.4631
 1585SOL     OW 4753   0.575   3.913   3.031 -0.9951 -0.1489  1.4127
 1585SOL    HW1 4754   0.518   3.948   2.963  1.2288  0.3346 -0.3141
 1585SOL    HW2 4755   0.626   3.989   3.061  1.5137 -1.1466  0.0121
 1586SOL     OW 4756   0.400   2.487   2.353 -0.0815 -0.0562 -0.3737
 1586SOL    HW1 4757   0.325   2.519   2.303  1.0634 -0.3684 -2.3966
 1586SOL    HW2 4758   0.473   2.541   2.322  0.6710 -0.2091  1.0591
 1587SOL     OW 4759   0.988   1.620   2.294  0.1799 -0.4549  0.2713
 1587SOL    HW1 4760   1.013   1.623   2.386 -0.7569 -0.1178  0.5308
 1587SOL    HW2 4761   0.972   1.712   2.270  0.8900 -0.4853 -0.3749
 1588SOL     OW 4762   3.475   1.885   2.867 -0.4206  0.1700  0.1807
 1588SOL    HW1 4763   3.500   1.964   2.819  2.1041  0.1317  1.2730
 1588SOL    HW2 4764   3.394   1.909   2.912 -0.6058  1.5727 -0.8290
 1589SOL     OW 4765   3.549   3.773   1.840  0.0426 -0.1515 -0.4319
 1589SOL    HW1 4766   3.587   3.763   1.927 -0.4767  2.4306  0.1639
 1589SOL    HW2 4767   3.616   3.738   1.780  2.3749  1.9805  0.7352
 1590SOL     OW 4768   1.415   1.062   0.037 -0.0372  0.9076 -0.0013
 1590SOL    HW1 4769   1.403   1.087   0.128  2.0931  1.6474  0.1358
 1590SOL    HW2 4770   1.466   0.981   0.040 -0.4346  0.6266 -0.5398
 1591SOL     OW 4771   1.667   3.609   2.957  0.2105  0.0122  0.4727
 1591SOL    HW1 4772   1.681   3.653   2.873  0.3041  0.3598  0.6704
 1591SOL    HW2 4773   1.751   3.613   3.001  0.1418 -0.1062  0.6168
 1592SOL     OW 4774   3.222   0.857   0.369  0.4578 -0.2450 -0.4074
 1592SOL    HW1 4775   3.178   0.921   0.424  2.0337  1.3365 -0.8800
 1592SOL    HW2 4776   3.255   0.791   0.430  2.2021  1.4866  0.6385
 1593SOL     OW 4777   1.354   1.207   1.360  0.1216  1.1471 -0.2796
 1593SOL    HW1 4778   1.293   1.281   1.365 -1.1626  0.0475  1.9064
 1593SOL    HW2 4779   1.357   1.172   1.450 -0.3416 -2.2037 -1.4183
 1594SOL     OW 4780   3.298   3.849   0.589 -0.3457  0.1145  0.1569
 1594SOL    HW1 4781   3.386   3.887   0.594  0.0090 -0.6682 -0.0335
 1594SOL    HW2 4782   3.268   3.846   0.679 -0.2165  0.4654  0.2142
 1595SOL     OW 4783   0.257   3.882   0.322 -0.1326  0.4324  0.9451
 1595SOL    HW1 4784   0.207   3.884   0.240  1.1184  2.2943  0.1452
 1595SOL    HW2 4785   0.325   3.816   0.307  1.8568  2.7106 -0.7282
 1596SOL     OW 4786   4.006   2.024   2.792 -0.2438  0.1215  0.4085
 1596SOL    HW1 4787   3.922   2.049   2.751 -0.4699  0.3894  1.0226
 1596SOL    HW2 4788   4.043   1.960   2.732 -0.3072  0.9097 -0.5098
 1597SOL     OW 4789   1.590   3.757   2.155 -0.2506  0.3193  0.3693
 1597SOL    HW1 4790   1.503   3.750   2.115  0.6418  1.2835 -1.9061
 1597SOL    HW2 4791   1.638   3.815   2.096  2.2173 -0.8866  1.1047
 1598SOL     OW 4792   1.681   3.215   1.157 -0.2411 -0.1694 -0.6401
 1598SOL    HW1 4793   1.693   3.169   1.240  1.3890 -2.2420 -1.9028
 1598SOL    HW2 4794   1.588   3.238   1.155 -0.5995 -1.2957  1.1504
 1599SOL     OW 4795   1.946   2.363   1.516  0.2920 -0.8313 -0.5629
 1599SOL    HW1 4796   1.975   2.305   1.446  1.6255  0.5408 -1.2059
 1599SOL    HW2 4797   2.006   2.345   1.589 -0.1545 -1.2117 -0.2871
 1600SOL     OW 4798   0.305   1.786   2.172  0.6556  0.3046  1.2265
 1600SOL    HW1 4799   0.241   1.773   2.102  2.4144  0.3616 -0.4796
 1600SOL    HW2 4800   0.288   1.874   2.204 -0.5681  0.0555  1.3440
 1601SOL     OW 4801   3.944   0.818   0.695  0.2366 -0.1344 -0.6136
 1601SOL    HW1 4802   3.989   0.866   0.766  0.3314 -0.5388 -0.3939
 1601SOL    HW2 4803   3.898   0.886   0.646  1.6409  0.3973 -1.2644
 1602SOL     OW 4804   2.079   3.333   3.891  0.5841 -0.6955 -0.4873
 1602SOL    HW1 4805   1.988   3.314   3.867  0.3664 -0.8459  0.4181
 1602SOL    HW2 4806   2.109   3.395   3.824 -0.7144  0.6866  0.1427
 1603SOL     OW 4807   2.238   2.785   2.610  0.2351  0.2370  0.0813
 1603SOL    HW1 4808   2.157   2.735   2.596 -0.3908  0.4801  2.3292
 1603SOL    HW2 4809   2.307   2.729   2.575 -0.7100 -1.0446  0.1789
 1604SOL     OW 4810   3.715   1.702   1.119  0.1683  0.1624 -0.2333
 1604SOL    HW1 4811   3.803   1.727   1.090  0.7640  0.7382  1.8785
 1604SOL    HW2 4812   3.705   1.611   1.091  0.8383  0.5353 -1.7680
 1605SOL     OW 4813   2.996   3.798   0.848  0.2402  0.1087 -0.9975
 1605SOL    HW1 4814   3.015   3.823   0.938  2.4665 -1.1012 -1.0469
 1605SOL    HW2 4815   2.984   3.881   0.802  2.1274  0.9010 -0.1546
 1606SOL     OW 4816   1.531   3.516   3.839  0.3113  0.6051  0.4014
 1606SOL    HW1 4817   1.452   3.494   3.888  1.1905 -2.0909  0.8215
 1606SOL    HW2 4818   1.501   3.563   3.762 -1.9829 -2.0780 -0.5018
 1607SOL     OW 4819   3.828   2.300   1.965 -0.0962 -0.1245  0.2038
 1607SOL    HW1 4820   3.820   2.373   2.027  1.2620 -0.8308  1.2747
 1607SOL    HW2 4821   3.905   2.322   1.912  1.2847 -1.4401  1.5604
 1608SOL     OW 4822   2.470   3.817   3.557  0.3423 -0.0703  0.1565
 1608SOL    HW1 4823   2.539   3.883   3.561 -0.5077  0.8516  0.2863
 1608SOL    HW2 4824   2.509   3.743   3.512  1.3089  0.5553 -0.0608
 1609SOL     OW 4825   1.839   0.330   0.189  0.6624 -0.3672 -0.2214
 1609SOL    HW1 4826   1.811   0.355   0.277  1.3503  0.9070 -0.3339
 1609SOL    HW2 4827   1.819   0.237   0.182 -1.1220 -0.0886  0.6133
 1610SOL     OW 4828   2.778   1.249   0.023  0.0299  0.1813  0.2903
 1610SOL    HW1 4829   2.749   1.321   0.079  2.1849 -0.1913  2.0015
 1610SOL    HW2 4830   2.814   1.293  -0.054 -3.1987  0.6912 -1.0909
 1611SOL     OW 4831   2.842   1.266   2.510  0.1202  0.4625 -0.1527
 1611SOL    HW1 4832   2.862   1.252   2.603 -1.0593  2.9119  0.5613
 1611SOL    HW2 4833   2.746   1.269   2.506  0.1338  4.0247 -0.7049
 1612SOL     OW 4834   3.696   0.701   2.145 -0.0254  0.1486 -0.2161
 1612SOL    HW1 4835   3.706   0.792   2.115 -0.4443 -0.7321 -3.4422
 1612SOL    HW2 4836   3.619   0.669   2.099  1.1436 -2.3574 -0.6165
 1613SOL     OW 4837   2.530   3.183   2.421 -1.2461 -0.5321  0.4081
 1613SOL    HW1 4838   2.460   3.162   2.484 -0.2349 -0.6737  1.5118
 1613SOL    HW2 4839   2.494   3.255   2.369 -3.4389 -2.5835 -1.1441
 1614SOL     OW 4840   3.160   3.288   1.052 -0.0850  0.8391 -0.3820
 1614SOL    HW1 4841   3.183   3.306   0.961  1.6372 -2.2315 -0.6848
 1614SOL    HW2 4842   3.241   3.260   1.093 -1.3116 -0.4058  1.3827
 1615SOL     OW 4843   0.166   2.459   0.991  0.6180  0.1969  0.1757
 1615SOL    HW1 4844   0.088   2.424   1.035  0.6342  1.3887  1.2145
 1615SOL    HW2 4845   0.176   2.405   0.913 -2.1604  0.9475 -0.8353
 1616SOL     OW 4846   3.641   3.354   2.887  0.7305  0.0962  0.0003
 1616SOL    HW1 4847   3.622   3.298   2.812  1.9100 -0.0292 -0.2344
 1616SOL    HW2 4848   3.737   3.358   2.889  0.7125  0.2499  1.3805
 1617SOL     OW 4849   3.097   3.254   0.452 -0.4781 -0.1191 -0.3238
 1617SOL    HW1 4850   3.059   3.181   0.402 -1.1568  0.2343 -0.3382
 1617SOL    HW2 4851   3.045   3.330   0.427 -0.5421  0.1511  0.5886
 1618SOL     OW 4852   1.631   2.328   0.591 -0.5659  0.2510 -0.3295
 1618SOL    HW1 4853   1.721   2.297   0.581 -1.7344 -2.9501 -2.4627
 1618SOL    HW2 4854   1.624   2.402   0.530  0.9221  1.4613  0.9063
 1619SOL     OW 4855   2.937   3.084   2.220  0.1504  0.8578 -0.6177
 1619SOL    HW1 4856   2.874   3.102   2.289 -1.9332 -1.8693 -1.6331
 1619SOL    HW2 4857   3.003   3.028   2.261 -0.7029 -0.1812 -0.6494
 1620SOL     OW 4858   1.612   3.268   0.207  0.6422  0.0304 -0.6184
 1620SOL    HW1 4859   1.518   3.266   0.188  0.5116  1.0411 -0.1459
 1620SOL    HW2 4860   1.633   3.361   0.215  2.1143 -0.0566 -2.7471
 1621SOL     OW 4861   1.048   2.107   1.345 -0.1891 -0.2857 -0.3927
 1621SOL    HW1 4862   1.107   2.047   1.391  0.4811  1.8528  1.7184
 1621SOL    HW2 4863   0.963   2.064   1.350  0.4760 -1.6462 -0.0978
 1622SOL     OW 4864   1.038   1.074   2.431 -0.8087 -0.1175 -0.2624
 1622SOL    HW1 4865   1.043   1.169   2.438  1.5240 -0.2729  1.3046
 1622SOL    HW2 4866   1.121   1.048   2.390 -1.2560 -1.4905 -0.3559
 1623SOL     OW 4867   3.025   0.202   0.218 -0.7519  0.5851  0.8973
 1623SOL    HW1 4868   3.089   0.265   0.251  1.1185 -0.9483  0.3695
 1623SOL    HW2 4869   2.988   0.244   0.140 -0.4687  1.5449  1.2696
 1624SOL     OW 4870   0.304   0.219   0.139 -0.1543  0.2467  0.2030
 1624SOL    HW1 4871   0.398   0.203   0.151 -0.1295  0.0114 -0.2657
 1624SOL    HW2 4872   0.268   0.133   0.119 -0.1040  0.6342 -1.8308
 1625SOL     OW 4873   3.968   0.832   2.673  0.5561  0.8607 -0.1351
 1625SOL    HW1 4874   3.911   0.901   2.707  1.7556  2.3023 -0.9347
 1625SOL    HW2 4875   3.980   0.854   2.581  1.9304  0.2768 -0.1173
 1626SOL     OW 4876   2.955   2.772   1.532  0.4646 -0.0447 -0.1876
 1626SOL    HW1 4877   2.891   2.774   1.460 -0.0105 -1.8761  0.1224
 1626SOL    HW2 4878   2.943   2.855   1.577 -1.4618 -0.1756 -0.3734
 1627SOL     OW 4879   0.966   1.265   1.261  0.7611 -0.4552  0.1907
 1627SOL    HW1 4880   1.012   1.343   1.291  0.1503  1.0586 -2.4925
 1627SOL    HW2 4881   1.035   1.210   1.222  0.9539 -0.4512  0.5273
 1628SOL     OW 4882   2.957   1.487   2.666  0.2613 -0.8173  0.1963
 1628SOL    HW1 4883   3.031   1.477   2.727  0.9204 -0.3938 -0.5233
 1628SOL    HW2 4884   2.998   1.491   2.580 -0.6691 -1.3747 -0.2822
 1629SOL     OW 4885   0.245   0.090   1.936  0.2951 -0.7760  0.3529
 1629SOL    HW1 4886   0.335   0.111   1.962  0.7023 -0.3359 -1.3193
 1629SOL    HW2 4887   0.255   0.025   1.866 -0.7123 -1.0992  0.4932
 1630SOL     OW 4888   0.151   0.398   1.424  0.1801  0.2192 -0.0383
 1630SOL    HW1 4889   0.056   0.389   1.434  0.1433 -0.1136 -0.5920
 1630SOL    HW2 4890   0.171   0.345   1.346  0.9554 -0.5120  0.6383
 1631SOL     OW 4891   2.899   3.535   2.369  0.5874  0.0709 -0.1933
 1631SOL    HW1 4892   2.872   3.519   2.459 -0.0999 -0.0584 -0.4175
 1631SOL    HW2 4893   2.986   3.574   2.377  0.8042 -0.5335  0.4979
 1632SOL     OW 4894   1.609   0.159   2.987  0.7841 -0.4706 -0.3711
 1632SOL    HW1 4895   1.626   0.066   3.004 -2.2675 -1.0508  0.0986
 1632SOL    HW2 4896   1.538   0.159   2.923  1.2163  1.5628 -0.9043
 1633SOL     OW 4897   2.238   0.484   0.254  0.3580 -0.2035  0.0732
 1633SOL    HW1 4898   2.153   0.459   0.218 -0.8143  3.4403 -0.0903
 1633SOL    HW2 4899   2.223   0.492   0.348  1.2464 -1.8291  0.3990
 1634SOL     OW 4900   3.610   1.647   0.190 -0.6576  0.2538 -0.0299
 1634SOL    HW1 4901   3.591   1.555   0.204  0.3679  0.3029  2.2411
 1634SOL    HW2 4902   3.696   1.648   0.149 -0.2618  0.1838  0.7756
 1635SOL     OW 4903   1.290   0.095   3.867 -0.0496 -0.0569 -0.1650
 1635SOL    HW1 4904   1.326   0.183   3.863  3.5177 -1.3803 -0.8009
 1635SOL    HW2 4905   1.215   0.097   3.807 -0.0114  2.4766 -0.2245
 1636SOL     OW 4906   1.235   2.142   2.328  0.2494  0.1547  0.1926
 1636SOL    HW1 4907   1.330   2.152   2.330  0.1817  1.5565 -1.1654
 1636SOL    HW2 4908   1.202   2.229   2.303 -1.1969 -0.9702 -2.2272
 1637SOL     OW 4909   1.941   0.607   2.874  0.5060 -0.4983  0.4820
 1637SOL    HW1 4910   1.873   0.545   2.903  0.8121 -1.6050 -0.9952
 1637SOL    HW2 4911   1.897   0.692   2.873 -0.6146 -1.0556  0.3664
 1638SOL     OW 4912   0.689   2.988   0.768 -0.5990 -0.2615 -0.4618
 1638SOL    HW1 4913   0.769   2.950   0.732 -1.6950 -3.5629  0.2359
 1638SOL    HW2 4914   0.698   2.977   0.862 -1.8454 -0.6722 -0.3760
 1639SOL     OW 4915   3.513   0.725   0.616  0.6001 -0.1314  0.6112
 1639SOL    HW1 4916   3.558   0.643   0.639 -0.3156 -0.5378  1.0195
 1639SOL    HW2 4917   3.538   0.742   0.526 -0.3425 -1.6518  0.0345
 1640SOL     OW 4918   0.460   2.052   2.908 -0.6056 -0.7393 -0.5258
 1640SOL    HW1 4919   0.499   2.050   2.995 -0.3813  1.3557 -0.5190
 1640SOL    HW2 4920   0.366   2.042   2.923 -0.5297 -0.7772 -0.0626
 1641SOL     OW 4921   0.583   2.400   1.019  0.4096  0.1270 -0.1926
 1641SOL    HW1 4922   0.551   2.323   0.973  1.4756  0.2021 -1.1099
 1641SOL    HW2 4923   0.593   2.372   1.110  3.3339 -1.6923 -0.9524
 1642SOL     OW 4924   0.959   1.818   1.057  1.0743 -0.2664 -0.1996
 1642SOL    HW1 4925   0.984   1.835   0.966 -0.8303  0.5421 -0.6164
 1642SOL    HW2 4926   0.866   1.840   1.061  1.1254 -0.2354  1.9742
 1643SOL     OW 4927   2.850   3.406   2.969 -0.1258  0.1164  0.1169
 1643SOL    HW1 4928   2.815   3.461   2.898  0.1252 -1.5825 -1.4040
 1643SOL    HW2 4929   2.773   3.377   3.017 -0.3788  0.5758 -0.0021
 1644SOL     OW 4930   3.963   3.603   1.915 -0.0885  0.1470 -0.4182
 1644SOL    HW1 4931   3.941   3.689   1.879 -0.4888  0.7965  1.2772
 1644SOL    HW2 4932   3.880   3.554   1.912  0.1915 -0.2981 -1.6000
 1645SOL     OW 4933   3.767   1.690   1.411  0.4121  0.0729  0.1045
 1645SOL    HW1 4934   3.740   1.725   1.326  1.3845  0.2193 -0.1477
 1645SOL    HW2 4935   3.818   1.760   1.451  1.0716 -0.4785  0.2480
 1646SOL     OW 4936   1.877   0.065   0.196 -0.0023  0.3589  0.2259
 1646SOL    HW1 4937   1.847   0.017   0.119  2.2047 -0.8307  0.0428
 1646SOL    HW2 4938   1.867   0.003   0.269 -1.5955  1.3018  0.8640
 1647SOL     OW 4939   3.551   2.170   1.979  0.0466  0.1366 -0.1594
 1647SOL    HW1 4940   3.499   2.245   1.949 -0.1837 -0.1294 -0.4421
 1647SOL    HW2 4941   3.639   2.187   1.948 -0.0953  0.0862 -0.6036
 1648SOL     OW 4942   3.491   3.882   0.852 -0.0943  0.0268  0.0707
 1648SOL    HW1 4943   3.443   3.812   0.897 -0.2500  1.3879  2.1364
 1648SOL    HW2 4944   3.580   3.876   0.888  0.2325  0.0879 -0.7155
 1649SOL     OW 4945   3.058   1.964   1.527  0.4242  0.1843 -1.0510
 1649SOL    HW1 4946   2.965   1.968   1.549  0.6489  0.2718 -0.0542
 1649SOL    HW2 4947   3.091   1.888   1.576  0.9907  0.5026 -0.9251
 1650SOL     OW 4948   1.545   0.629   3.846  0.0022  0.1059  0.4264
 1650SOL    HW1 4949   1.600   0.551   3.851  2.6363  1.8342  0.1648
 1650SOL    HW2 4950   1.539   0.649   3.752 -1.4581 -0.2458  0.4120
 1651SOL     OW 4951   0.078   1.660   1.483  0.1599 -0.8424 -0.4318
 1651SOL    HW1 4952   0.059   1.751   1.462  1.1190 -0.4685  0.2490
 1651SOL    HW2 4953   0.026   1.609   1.421 -3.0809  0.0631  1.3482
 1652SOL     OW 4954   3.400   0.878   1.821  0.1579 -0.0492 -0.3765
 1652SOL    HW1 4955   3.384   0.937   1.747 -0.7823  0.2495  0.0571
 1652SOL    HW2 4956   3.470   0.820   1.790 -0.1352  0.1498 -1.4569
 1653SOL     OW 4957   3.396   3.801   3.799 -0.4459 -0.8021  0.2054
 1653SOL    HW1 4958   3.361   3.774   3.883  1.2761 -3.6123  0.1315
 1653SOL    HW2 4959   3.358   3.740   3.736  1.4333 -1.3856 -0.4194
 1654SOL     OW 4960   3.143   0.266   0.707 -0.3208  0.2924  0.0372
 1654SOL    HW1 4961   3.151   0.218   0.790 -1.0891 -1.6648 -0.9608
 1654SOL    HW2 4962   3.228   0.308   0.696  0.0513 -0.0260  1.4523
 1655SOL     OW 4963   0.417   1.624   1.021 -0.0750 -0.2947 -1.4834
 1655SOL    HW1 4964   0.465   1.541   1.024 -0.7866 -0.6950 -0.8386
 1655SOL    HW2 4965   0.438   1.661   0.935  1.5280 -0.3670 -1.1530
 1656SOL     OW 4966   1.897   2.688   3.916  0.0803 -0.6218  0.1363
 1656SOL    HW1 4967   1.895   2.714   4.008 -0.6682 -0.6946  0.1525
 1656SOL    HW2 4968   1.989   2.696   3.890 -0.1359  2.6156 -0.0516
 1657SOL     OW 4969   3.247   3.409   3.993 -0.2699  0.8459  0.0707
 1657SOL    HW1 4970   3.300   3.382   4.068  1.9048  1.9127 -0.9971
 1657SOL    HW2 4971   3.278   3.353   3.921 -2.7473 -0.5910  0.0106
 1658SOL     OW 4972   3.797   0.107   3.473  0.1241  0.2829  0.1377
 1658SOL    HW1 4973   3.703   0.095   3.482  0.3543 -1.0640  0.9251
 1658SOL    HW2 4974   3.821   0.166   3.545 -0.2264  1.3786 -0.6117
 1659SOL     OW 4975   2.197   2.891   0.172  1.0807 -0.0840 -0.2438
 1659SOL    HW1 4976   2.163   2.958   0.231  1.9998 -1.8056  2.4402
 1659SOL    HW2 4977   2.273   2.931   0.130  0.9422  0.9234  0.4491
 1660SOL     OW 4978   3.721   4.009   1.589 -0.7548 -0.4579 -0.0564
 1660SOL    HW1 4979   3.731   3.948   1.662  3.0610 -0.9464 -0.8219
 1660SOL    HW2 4980   3.735   3.956   1.511  0.4329  0.9522 -0.8557
 1661SOL     OW 4981   2.980   2.796   1.043 -0.1446 -0.3308 -0.1750
 1661SOL    HW1 4982   2.927   2.740   0.986 -0.6893  0.2587 -0.2593
 1661SOL    HW2 4983   2.972   2.883   1.005 -0.3897  0.0395  0.7053
 1662SOL     OW 4984   0.652   1.533   1.604  0.3164 -0.4064  0.2537
 1662SOL    HW1 4985   0.583   1.591   1.636  0.2560 -1.2774  1.7911
 1662SOL    HW2 4986   0.731   1.566   1.647  0.0845 -2.1710  2.1926
 1663SOL     OW 4987   0.781   2.206   3.075  0.1900 -0.0637  0.7548
 1663SOL    HW1 4988   0.770   2.215   3.170  0.8068 -0.4543  0.8717
 1663SOL    HW2 4989   0.787   2.111   3.061 -0.0065 -0.0103  0.3157
 1664SOL     OW 4990   3.735   3.419   1.835  0.2506 -0.1863  0.0772
 1664SOL    HW1 4991   3.763   3.426   1.743  2.6981  0.6053  0.8131
 1664SOL    HW2 4992   3.816   3.416   1.885 -1.0072 -1.2612  2.2300
 1665SOL     OW 4993   3.447   3.213   2.727 -0.4938  0.2114 -0.5145
 1665SOL    HW1 4994   3.374   3.256   2.682 -1.4873 -0.7006  0.1558
 1665SOL    HW2 4995   3.419   3.122   2.736 -0.0441  0.2150  1.3226
 1666SOL     OW 4996   1.176   1.452   0.627  0.2727 -0.2409  0.2795
 1666SOL    HW1 4997   1.252   1.461   0.571  0.2425 -0.0407  0.2689
 1666SOL    HW2 4998   1.120   1.525   0.603 -0.9723 -1.6354 -1.3340
 1667SOL     OW 4999   1.712   2.566   1.501  0.0093 -0.5229  0.3101
 1667SOL    HW1 5000   1.702   2.594   1.410 -0.0001 -0.7766  0.2335
 1667SOL    HW2 5001   1.803   2.538   1.507 -0.3821 -1.9588 -0.0258
 1668SOL     OW 5002   0.376   1.361   1.754 -0.2550 -0.5620  0.5738
 1668SOL    HW1 5003   0.363   1.396   1.666  1.2166 -2.5962 -0.5361
 1668SOL    HW2 5004   0.299   1.391   1.803 -2.2074 -1.0952 -1.9611
 1669SOL     OW 5005   0.112   2.166   0.830  0.6831  0.4683 -0.3563
 1669SOL    HW1 5006   0.055   2.193   0.757 -0.6830 -1.4450 -0.0667
 1669SOL    HW2 5007   0.141   2.078   0.806  0.5250 -0.0358  1.2178
 1670SOL     OW 5008   2.025   2.201   0.220 -0.0243  0.1804  0.8536
 1670SOL    HW1 5009   2.009   2.267   0.152 -1.0328  0.3532  1.2320
 1670SOL    HW2 5010   2.119   2.184   0.216  0.0742  0.8517  0.0255
 1671SOL     OW 5011   2.179   1.570   3.391  1.4417 -0.2107  0.4464
 1671SOL    HW1 5012   2.194   1.486   3.434 -0.5494  0.4076  2.5636
 1671SOL    HW2 5013   2.104   1.554   3.333  2.1524 -0.2873 -0.4657
 1672SOL     OW 5014   2.340   3.154   3.643  0.6634 -0.1203 -0.5928
 1672SOL    HW1 5015   2.342   3.235   3.693  0.1359 -0.4429 -0.0444
 1672SOL    HW2 5016   2.286   3.174   3.566 -0.9398 -0.4407  0.4180
 1673SOL     OW 5017   0.358   0.605   0.221  0.2968  0.3032 -0.2479
 1673SOL    HW1 5018   0.427   0.666   0.198 -0.3497  0.8985 -0.6358
 1673SOL    HW2 5019   0.355   0.544   0.148  0.3960  0.2833 -0.2362
 1674SOL     OW 5020   1.969   3.955   2.635 -0.7856 -0.0192  0.0502
 1674SOL    HW1 5021   1.877   3.979   2.647 -0.8801 -0.9802  1.3680
 1674SOL    HW2 5022   1.981   3.878   2.689  0.8301  0.1270 -0.0629
 1675SOL     OW 5023   3.758   3.535   0.764 -0.3616 -0.0950 -1.4296
 1675SOL    HW1 5024   3.684   3.583   0.727 -0.8805  0.1066 -0.1595
 1675SOL    HW2 5025   3.784   3.474   0.694 -1.8552 -0.3266 -1.8186
 1676SOL     OW 5026   2.159   1.096   2.574 -0.6486 -0.1483 -0.9710
 1676SOL    HW1 5027   2.248   1.109   2.607 -0.5711  0.3907 -1.3650
 1676SOL    HW2 5028   2.114   1.177   2.596 -1.2086 -0.6494 -0.2644
 1677SOL     OW 5029   1.306   1.286   3.936  0.1014  0.5472 -0.2565
 1677SOL    HW1 5030   1.262   1.260   3.855 -1.1502 -1.2427  0.9398
 1677SOL    HW2 5031   1.324   1.203   3.981  0.5927  1.5150  1.3893
 1678SOL     OW 5032   0.260   3.934   3.203  1.1562  0.0384  0.5979
 1678SOL    HW1 5033   0.187   3.953   3.262  1.7059  1.0832  0.9832
 1678SOL    HW2 5034   0.219   3.900   3.124  0.2981 -0.0009  1.0493
 1679SOL     OW 5035   1.910   1.274   2.272  0.1728 -0.1107  0.5575
 1679SOL    HW1 5036   1.884   1.365   2.258  3.1361  0.6789 -0.5218
 1679SOL    HW2 5037   1.906   1.234   2.184  0.3269 -0.5973  0.7690
 1680SOL     OW 5038   0.421   3.439   0.751 -0.0233  0.4406  0.0016
 1680SOL    HW1 5039   0.386   3.350   0.746 -1.4459  0.9404  0.8525
 1680SOL    HW2 5040   0.394   3.480   0.669  4.0701 -1.0253 -2.3836
 1681SOL     OW 5041   0.267   1.888   1.126  0.3124  0.2916  0.9097
 1681SOL    HW1 5042   0.197   1.824   1.138 -0.2508  0.6746 -0.1925
 1681SOL    HW2 5043   0.340   1.853   1.176 -0.3347 -0.6541  1.2224
 1682SOL     OW 5044   3.222   3.329   3.084 -0.0596 -0.0297 -0.2617
 1682SOL    HW1 5045   3.297   3.274   3.103 -0.0907  0.6139  2.0062
 1682SOL    HW2 5046   3.153   3.268   3.057  0.0435 -1.1125  1.7417
 1683SOL     OW 5047   1.003   3.335   3.680 -0.3988  0.2766  0.7031
 1683SOL    HW1 5048   0.990   3.430   3.688 -1.1641  0.2108  0.3285
 1683SOL    HW2 5049   0.963   3.298   3.758  2.5392  0.4253  2.4433
 1684SOL     OW 5050   0.345   1.143   3.597  0.0880 -0.6093  0.0957
 1684SOL    HW1 5051   0.361   1.175   3.686  0.0880  0.2520 -0.2102
 1684SOL    HW2 5052   0.250   1.141   3.589  0.0791 -1.1666  0.2784
 1685SOL     OW 5053   1.828   0.031   1.501 -0.0021 -0.4824 -0.2432
 1685SOL    HW1 5054   1.758   0.037   1.437  0.3141  0.1850 -0.5358
 1685SOL    HW2 5055   1.869  -0.054   1.483  0.2598 -0.1829 -1.1201
 1686SOL     OW 5056   2.759   2.920   4.016  0.5386 -0.0569  0.6013
 1686SOL    HW1 5057   2.740   2.919   3.923 -0.6131  0.3909  0.8217
 1686SOL    HW2 5058   2.846   2.880   4.023  0.7215  0.0852 -0.6723
 1687SOL     OW 5059   0.800   0.558   2.191 -0.5539  0.1399 -0.1878
 1687SOL    HW1 5060   0.834   0.470   2.178 -0.8408  0.2867 -2.3623
 1687SOL    HW2 5061   0.711   0.546   2.222 -0.1761 -0.2973  0.7572
 1688SOL     OW 5062   1.934   3.518   3.485  0.2916 -0.0365  0.4158
 1688SOL    HW1 5063   1.887   3.570   3.550  0.7263  0.0909  0.6331
 1688SOL    HW2 5064   1.865   3.476   3.433 -0.0588  0.2261  0.6637
 1689SOL     OW 5065   0.793   2.407   1.562  1.0972  0.1723 -0.3715
 1689SOL    HW1 5066   0.709   2.419   1.517  0.3520 -2.2319  0.2100
 1689SOL    HW2 5067   0.802   2.485   1.616 -0.5547  0.6971 -0.7688
 1690SOL     OW 5068   1.297   2.162   0.732  0.2986 -0.5046  0.6072
 1690SOL    HW1 5069   1.320   2.157   0.640  2.2103 -0.7641  1.0580
 1690SOL    HW2 5070   1.352   2.232   0.767 -1.8709  1.0019  1.1663
 1691SOL     OW 5071   0.935   0.359   2.379 -0.1414  0.5343  0.4860
 1691SOL    HW1 5072   1.003   0.323   2.322 -0.7166 -3.0758  1.8334
 1691SOL    HW2 5073   0.983   0.394   2.454  0.3458  0.3049  0.2863
 1692SOL     OW 5074   2.650   3.922   1.692  0.2198 -0.2473 -0.1068
 1692SOL    HW1 5075   2.684   4.006   1.661 -0.4184  0.2591  0.5161
 1692SOL    HW2 5076   2.727   3.873   1.719  0.5122  0.6893  0.8197
 1693SOL     OW 5077   0.476   1.357   0.508 -0.3884 -0.6940 -0.1041
 1693SOL    HW1 5078   0.501   1.450   0.509  0.6420 -0.9548  0.9181
 1693SOL    HW2 5079   0.513   1.324   0.426 -0.4448 -0.2835 -0.2991
 1694SOL     OW 5080   1.427   2.513   2.194  0.1873  0.2799 -0.4808
 1694SOL    HW1 5081   1.478   2.458   2.253  1.0746  0.7026 -0.8453
 1694SOL    HW2 5082   1.384   2.577   2.251  0.1579 -0.0045 -0.1830
 1695SOL     OW 5083   2.546   0.959   0.457 -0.0452  0.1679 -0.1308
 1695SOL    HW1 5084   2.630   0.913   0.468 -0.2610 -0.2391 -0.1853
 1695SOL    HW2 5085   2.481   0.890   0.451 -0.0496  0.3083 -3.2806
 1696SOL     OW 5086   2.593   0.776   1.252  0.1689 -1.0586 -0.1743
 1696SOL    HW1 5087   2.672   0.811   1.211 -1.3848 -0.1890 -2.7168
 1696SOL    HW2 5088   2.523   0.797   1.190 -1.9963 -2.2597  1.6929
 1697SOL     OW 5089   0.622   3.364   3.560  0.4453  0.6926 -0.0238
 1697SOL    HW1 5090   0.628   3.364   3.656 -0.3697  0.8665  0.0331
 1697SOL    HW2 5091   0.579   3.447   3.538 -1.6268 -0.4097 -0.3640
 1698SOL     OW 5092   1.424   2.891   1.768 -0.3504 -0.0200  0.7314
 1698SOL    HW1 5093   1.467   2.806   1.757 -2.9315 -1.2290 -0.7962
 1698SOL    HW2 5094   1.365   2.898   1.693 -1.7167  2.2092  1.9125
 1699SOL     OW 5095   1.577   1.908   3.566 -0.3979 -0.4987  0.2205
 1699SOL    HW1 5096   1.600   1.918   3.473 -2.1240  0.3627 -0.1475
 1699SOL    HW2 5097   1.590   1.815   3.584  0.8070 -0.5214 -0.6268
 1700SOL     OW 5098   2.148   0.480   1.021 -0.1511  0.2882 -0.2093
 1700SOL    HW1 5099   2.066   0.507   1.064  0.1784  1.3694 -0.2348
 1700SOL    HW2 5100   2.197   0.561   1.009  1.5906 -0.4947  1.1298
 1701SOL     OW 5101   0.107   2.678   0.356 -0.0286  0.0094  0.3816
 1701SOL    HW1 5102   0.046   2.739   0.398 -0.7906 -1.0617  0.8785
 1701SOL    HW2 5103   0.174   2.734   0.316  0.2520  1.1025  2.2887
 1702SOL     OW 5104   0.664   3.013   1.377 -0.1360 -0.3502 -0.0196
 1702SOL    HW1 5105   0.650   2.991   1.469 -0.8995 -2.1406 -0.5361
 1702SOL    HW2 5106   0.617   2.945   1.328  0.3335  0.5131 -1.7364
 1703SOL     OW 5107   0.708   2.429   2.377 -0.0061  0.1635  0.3743
 1703SOL    HW1 5108   0.798   2.453   2.354 -0.4818 -0.8132 -3.0730
 1703SOL    HW2 5109   0.656   2.505   2.351 -0.4322 -0.3523 -0.3006
 1704SOL     OW 5110   0.831   2.439   0.762 -0.3795 -0.0636  0.1914
 1704SOL    HW1 5111   0.864   2.461   0.850 -3.9267  0.3954  1.5583
 1704SOL    HW2 5112   0.806   2.347   0.769 -0.3505 -0.1237 -0.4853
 1705SOL     OW 5113   0.098   2.726   2.926 -0.4226  0.4779  0.1335
 1705SOL    HW1 5114   0.063   2.675   2.853  0.6971  0.4780 -0.4204
 1705SOL    HW2 5115   0.100   2.665   3.000 -0.2026  0.0589 -0.2140
 1706SOL     OW 5116   3.509   2.621   3.087  0.0207  0.4600 -0.0163
 1706SOL    HW1 5117   3.449   2.674   3.139  0.3478  0.2041  0.6275
 1706SOL    HW2 5118   3.456   2.548   3.057  0.2854 -0.4389  1.5900
 1707SOL     OW 5119   1.389   1.986   2.555  0.1174  0.2583 -0.3049
 1707SOL    HW1 5120   1.427   2.035   2.482 -1.5111  0.9671 -0.7268
 1707SOL    HW2 5121   1.326   1.927   2.514 -1.1870  1.0136  0.5314
 1708SOL     OW 5122   0.632   0.157   3.854  0.6535 -0.0744  0.2061
 1708SOL    HW1 5123   0.565   0.090   3.841  1.2179 -0.5441 -0.3494
 1708SOL    HW2 5124   0.588   0.225   3.905  0.0206 -0.7910  0.6416
 1709SOL     OW 5125   0.242   2.415   2.825  0.5865 -0.1155  0.0093
 1709SOL    HW1 5126   0.155   2.429   2.788 -0.3173  1.8325  2.5667
 1709SOL    HW2 5127   0.301   2.463   2.767 -0.3371  0.3029 -0.6070
 1710SOL     OW 5128   3.059   1.323   3.969  0.0324  0.4024 -0.2518
 1710SOL    HW1 5129   3.044   1.346   4.061  0.7216  0.6230 -0.1882
 1710SOL    HW2 5130   3.082   1.405   3.927 -0.2670  0.2970 -0.6183
 1711SOL     OW 5131   0.670   3.138   2.145  0.6704 -0.7800  0.2830
 1711SOL    HW1 5132   0.712   3.090   2.074  0.2039 -0.1276 -0.4569
 1711SOL    HW2 5133   0.644   3.221   2.105 -0.2885 -0.7107  1.0118
 1712SOL     OW 5134   1.032   2.266   1.608 -0.2535  0.0456 -0.3293
 1712SOL    HW1 5135   1.018   2.234   1.519  0.4047 -0.0131 -0.4108
 1712SOL    HW2 5136   0.950   2.312   1.630 -0.4990 -0.1251 -0.8782
 1713SOL     OW 5137   2.709   2.773   2.894  0.0410  0.4038 -0.2643
 1713SOL    HW1 5138   2.616   2.792   2.904 -0.3208 -0.2227 -2.0543
 1713SOL    HW2 5139   2.751   2.858   2.887 -0.4860  0.6754 -0.1255
 1714SOL     OW 5140   3.365   3.501   3.676  0.0142 -0.3791  0.8870
 1714SOL    HW1 5141   3.445   3.512   3.625  0.3213  0.3731  1.5014
 1714SOL    HW2 5142   3.354   3.406   3.683  0.3676 -0.4855  0.0576
 1715SOL     OW 5143   3.324   1.374   2.530  0.3641  0.0622 -0.1251
 1715SOL    HW1 5144   3.296   1.296   2.483 -0.8220  0.0275  0.6105
 1715SOL    HW2 5145   3.255   1.438   2.513  0.1105  0.1676  1.2435
 1716SOL     OW 5146   1.928   3.152   3.561 -0.9865  0.7149 -0.2171
 1716SOL    HW1 5147   1.950   3.180   3.472 -1.9035 -2.0954 -1.4627
 1716SOL    HW2 5148   1.895   3.231   3.604 -2.2545  1.8451 -2.9858
 1717SOL     OW 5149   2.516   2.266   2.416 -0.7507  0.0779  0.3884
 1717SOL    HW1 5150   2.507   2.220   2.332 -0.9212  0.4545  0.1940
 1717SOL    HW2 5151   2.560   2.348   2.393  2.9681 -1.4951  1.2346
 1718SOL     OW 5152   0.330   2.955   0.790  0.0822  0.2300 -0.0840
 1718SOL    HW1 5153   0.412   2.930   0.747  1.0766  1.3206  1.1044
 1718SOL    HW2 5154   0.321   3.049   0.772 -1.5243 -0.0698 -1.1373
 1719SOL     OW 5155   2.270   2.549   2.867 -0.2433 -0.1510  0.1234
 1719SOL    HW1 5156   2.302   2.479   2.924  0.1016 -1.5574 -1.7324
 1719SOL    HW2 5157   2.274   2.513   2.779 -1.5180  1.6882 -0.7526
 1720SOL     OW 5158   0.993   0.717   1.295  0.3305  0.2029  0.1197
 1720SOL    HW1 5159   0.927   0.648   1.306 -1.9568  1.6605 -2.7860
 1720SOL    HW2 5160   0.978   0.777   1.367 -1.7689  0.5787 -0.5589
 1721SOL     OW 5161   3.580   1.340   2.596 -0.0873  0.0317  0.0746
 1721SOL    HW1 5162   3.491   1.363   2.572 -0.3297 -2.5225 -1.8944
 1721SOL    HW2 5163   3.577   1.332   2.692 -1.3007  2.2541  0.2876
 1722SOL     OW 5164   0.902   0.540   0.041 -0.6808 -0.2777  0.0667
 1722SOL    HW1 5165   0.905   0.518  -0.052 -2.0090 -2.2770  0.4461
 1722SOL    HW2 5166   0.940   0.464   0.085  0.4357  0.8608  1.1754
 1723SOL     OW 5167   0.732   2.132   0.544  0.0499 -0.0707 -1.1542
 1723SOL    HW1 5168   0.696   2.044   0.537  0.2022 -0.1302 -1.1877
 1723SOL    HW2 5169   0.750   2.143   0.637  0.6091 -0.3046 -1.2318
 1724SOL     OW 5170   2.383   3.392   2.288  0.0187  0.2997  0.2298
 1724SOL    HW1 5171   2.460   3.391   2.231 -0.2773  0.4350 -0.1841
 1724SOL    HW2 5172   2.381   3.480   2.325 -0.5943  0.6918 -0.6924
 1725SOL     OW 5173   3.124   2.808   0.563  0.3387 -0.6398 -0.2562
 1725SOL    HW1 5174   3.049   2.757   0.533 -0.3173  0.7005 -1.0190
 1725SOL    HW2 5175   3.199   2.750   0.555 -0.5604 -1.8846  0.1445
 1726SOL     OW 5176   0.284   0.558   2.402 -0.0678  0.2593 -0.2989
 1726SOL    HW1 5177   0.242   0.574   2.486 -1.3951  1.8321 -1.1996
 1726SOL    HW2 5178   0.254   0.471   2.376  2.6282 -1.5829  2.0475
 1727SOL     OW 5179   2.793   0.856   0.436  0.0426 -0.2089 -0.7760
 1727SOL    HW1 5180   2.815   0.909   0.359  2.6393  0.3708  0.2528
 1727SOL    HW2 5181   2.849   0.779   0.428  2.0709  0.8904  1.5561
 1728SOL     OW 5182   0.477   0.855   3.402  0.7064 -0.2519  0.1421
 1728SOL    HW1 5183   0.419   0.930   3.387  0.3567 -0.1846  1.6098
 1728SOL    HW2 5184   0.438   0.784   3.351 -0.4177 -0.0791  0.7143
 1729SOL     OW 5185   0.155   2.669   2.299  0.0862 -0.3228  0.2983
 1729SOL    HW1 5186   0.143   2.697   2.208 -1.3782  0.3125  0.6593
 1729SOL    HW2 5187   0.219   2.730   2.335 -0.3006  0.2345  0.0446
 1730SOL     OW 5188   1.246   2.950   1.063 -0.2917  0.8134  0.2568
 1730SOL    HW1 5189   1.324   2.910   1.024  1.1497  2.9044  0.8288
 1730SOL    HW2 5190   1.225   2.893   1.137  2.1179  1.3509  1.4711
 1731SOL     OW 5191   2.197   1.354   1.149  0.0429  0.1531  0.1005
 1731SOL    HW1 5192   2.122   1.296   1.162  0.3299 -0.0189  1.0755
 1731SOL    HW2 5193   2.161   1.442   1.156 -0.4507  0.1256 -1.6880
 1732SOL     OW 5194   0.566   1.769   2.038 -0.8141  0.2589 -0.7818
 1732SOL    HW1 5195   0.494   1.742   2.095  0.8172 -0.9875  0.7774
 1732SOL    HW2 5196   0.525   1.782   1.953 -2.5836 -2.4887 -0.4751
 1733SOL     OW 5197   1.001   3.330   3.191  0.4470 -0.1635  0.2376
 1733SOL    HW1 5198   0.953   3.392   3.136 -2.0475 -2.9457 -1.0209
 1733SOL    HW2 5199   0.940   3.309   3.262  0.7386 -1.9834 -0.0128
 1734SOL     OW 5200   3.283   3.725   1.899 -0.7594 -0.2095  0.7240
 1734SOL    HW1 5201   3.255   3.635   1.886  0.3562 -0.6249  1.0725
 1734SOL    HW2 5202   3.378   3.723   1.888 -0.5762  0.7009  1.8911
 1735SOL     OW 5203   1.132   0.340   3.111 -0.0936 -0.0382 -0.5109
 1735SOL    HW1 5204   1.188   0.279   3.159  0.0061  0.1773 -0.3526
 1735SOL    HW2 5205   1.093   0.396   3.178  0.1971  0.3873 -0.6923
 1736SOL     OW 5206   2.517   1.684   0.421 -1.0766 -0.4784 -0.0540
 1736SOL    HW1 5207   2.548   1.612   0.475 -0.9284 -0.2703  0.1387
 1736SOL    HW2 5208   2.596   1.726   0.389 -0.9129  2.4828  3.5779
 1737SOL     OW 5209   1.328   2.978   3.968 -0.1531  0.3058 -0.5232
 1737SOL    HW1 5210   1.303   2.993   4.060 -1.5335 -2.8397 -0.2389
 1737SOL    HW2 5211   1.256   3.016   3.917  0.3768  1.6272 -0.3294
 1738SOL     OW 5212   1.488   2.483   3.008 -0.4014 -0.9253  0.3296
 1738SOL    HW1 5213   1.485   2.542   2.932 -0.9206  0.5803  1.4544
 1738SOL    HW2 5214   1.564   2.512   3.058  0.8180 -2.8683 -0.3061
 1739SOL     OW 5215   2.178   0.015   2.912  0.0087  0.2973 -0.2831
 1739SOL    HW1 5216   2.127   0.095   2.901  0.2343  0.4966  0.1203
 1739SOL    HW2 5217   2.167  -0.008   3.004  1.1142  0.6636 -0.0507
 1740SOL     OW 5218   0.945   0.149   0.650  0.3986 -0.0496  0.5428
 1740SOL    HW1 5219   0.865   0.177   0.694  0.3117 -0.0630  0.3899
 1740SOL    HW2 5220   1.015   0.179   0.709  0.2946  0.2460  0.5164
 1741SOL     OW 5221   1.300   1.080   3.600 -0.7302 -0.1825  0.1735
 1741SOL    HW1 5222   1.376   1.079   3.658 -1.0735 -1.9768  0.6659
 1741SOL    HW2 5223   1.329   1.129   3.523  1.1594 -1.2991  0.0924
 1742SOL     OW 5224   1.132   1.698   4.011  0.2984  0.6276 -0.8445
 1742SOL    HW1 5225   1.108   1.606   4.003  0.5406  0.1023  2.8847
 1742SOL    HW2 5226   1.223   1.702   3.982  0.6152 -0.5628 -0.0928
 1743SOL     OW 5227   2.215   2.208   1.102  0.5384 -0.0236 -0.3387
 1743SOL    HW1 5228   2.258   2.294   1.094  0.5623  0.1312  1.1900
 1743SOL    HW2 5229   2.182   2.206   1.192 -0.6322 -1.0904 -0.7624
 1744SOL     OW 5230   1.636   3.378   3.367  0.1445 -0.1632 -0.0914
 1744SOL    HW1 5231   1.606   3.453   3.316  1.1108  0.0125 -0.4324
 1744SOL    HW2 5232   1.557   3.343   3.408 -0.8067 -0.7786 -2.2981
 1745SOL     OW 5233   3.844   2.082   3.914  1.1117  0.5299  0.2767
 1745SOL    HW1 5234   3.932   2.055   3.888  1.1585 -1.4611  2.1585
 1745SOL    HW2 5235   3.858   2.147   3.983  0.9990  3.2835 -2.1237
 1746SOL     OW 5236   1.974   1.176   3.553 -0.2969  0.3028 -0.8997
 1746SOL    HW1 5237   1.904   1.226   3.596  0.3489  1.7541 -1.4648
 1746SOL    HW2 5238   2.048   1.181   3.613  0.1192  1.0105 -1.4499
 1747SOL     OW 5239   0.879   3.848   1.330  0.3273 -0.6948 -0.2914
 1747SOL    HW1 5240   0.859   3.823   1.239 -1.1127  0.9868 -0.4945
 1747SOL    HW2 5241   0.814   3.802   1.382  2.1512 -2.9686  0.1447
 1748SOL     OW 5242   1.665   3.010   3.504 -0.4527 -0.0508  0.3594
 1748SOL    HW1 5243   1.742   2.956   3.484 -0.6350 -0.3880  0.5656
 1748SOL    HW2 5244   1.693   3.064   3.578 -0.3114  0.0526  0.2325
 1749SOL     OW 5245   1.294   2.560   3.271  0.8623 -0.0400 -0.3551
 1749SOL    HW1 5246   1.323   2.627   3.333  0.0233  0.4789 -0.4952
 1749SOL    HW2 5247   1.281   2.608   3.189 -0.1327 -0.2847 -0.3527
 1750SOL     OW 5248   2.661   0.284   2.779  0.0421 -0.4113 -0.1529
 1750SOL    HW1 5249   2.571   0.261   2.757 -0.4317  1.8398 -0.8884
 1750SOL    HW2 5250   2.655   0.373   2.814  1.8473 -0.6928  1.0419
 1751SOL     OW 5251   0.440   3.756   3.259  0.2960 -0.0817 -0.3238
 1751SOL    HW1 5252   0.383   3.830   3.239 -0.5463 -0.1096  1.7192
 1751SOL    HW2 5253   0.518   3.770   3.205 -0.6119  1.2888 -1.3412
 1752SOL     OW 5254   1.474   1.283   2.410  0.0258 -0.6047  0.4012
 1752SOL    HW1 5255   1.447   1.191   2.403 -0.2808 -0.4552 -0.3672
 1752SOL    HW2 5256   1.414   1.331   2.354  2.2833 -0.3462 -2.0024
 1753SOL     OW 5257   2.722   3.096   1.171 -0.0363  0.0542 -0.4811
 1753SOL    HW1 5258   2.764   3.037   1.110  2.1296  0.5074  0.4687
 1753SOL    HW2 5259   2.654   3.043   1.214  0.6650 -1.2142 -0.8982
 1754SOL     OW 5260   0.172   2.365   3.456 -0.0526 -0.3744 -0.0493
 1754SOL    HW1 5261   0.260   2.359   3.494 -0.5884  1.3733  1.6255
 1754SOL    HW2 5262   0.185   2.414   3.375  0.2041  3.3190  1.9883
 1755SOL     OW 5263   1.428   0.797   1.570  0.4588  0.0762 -0.3283
 1755SOL    HW1 5264   1.490   0.771   1.638 -0.5108  0.6930  0.8290
 1755SOL    HW2 5265   1.393   0.715   1.536 -0.8212 -0.2282  1.6245
 1756SOL     OW 5266   3.219   1.183   3.316 -0.0944  0.5848  0.2549
 1756SOL    HW1 5267   3.265   1.267   3.322  2.0018 -0.5242  0.3725
 1756SOL    HW2 5268   3.251   1.132   3.391 -0.3791 -0.7671 -0.5133
 1757SOL     OW 5269   1.672   1.123   2.872 -0.4465 -0.3199 -0.1995
 1757SOL    HW1 5270   1.614   1.049   2.853 -0.8673  0.3165 -1.5703
 1757SOL    HW2 5271   1.747   1.084   2.917 -1.3720 -1.3389  0.5021
 1758SOL     OW 5272   1.804   2.939   2.962  0.0093  0.3063  0.8401
 1758SOL    HW1 5273   1.880   2.880   2.958 -0.2448  0.0563 -1.5489
 1758SOL    HW2 5274   1.809   2.990   2.882 -1.1404  1.8748  1.7196
 1759SOL     OW 5275   0.793   1.196   3.362 -0.0145 -0.0256  0.3483
 1759SOL    HW1 5276   0.754   1.211   3.448  0.8770  0.2974  0.7100
 1759SOL    HW2 5277   0.808   1.101   3.358  0.2636  0.0030  0.6949
 1760SOL     OW 5278   0.281   3.418   2.969 -0.2193 -0.4554  0.3652
 1760SOL    HW1 5279   0.296   3.458   2.884 -1.1066 -1.1182 -0.1178
 1760SOL    HW2 5280   0.292   3.324   2.955  1.2059 -0.4721  1.3473
 1761SOL     OW 5281   2.518   1.232   0.445  0.2083 -0.2854  0.2713
 1761SOL    HW1 5282   2.526   1.137   0.432 -1.1749 -0.2780 -0.8118
 1761SOL    HW2 5283   2.434   1.243   0.490 -0.0391  0.4762 -0.3631
 1762SOL     OW 5284   1.308   0.691   2.022  0.6700  0.7563  0.0159
 1762SOL    HW1 5285   1.238   0.733   1.973 -0.2621 -0.7758 -0.0408
 1762SOL    HW2 5286   1.287   0.710   2.114 -0.2463 -0.2621  0.0403
 1763SOL     OW 5287   1.560   1.673   1.467  0.9315  0.4661  0.3178
 1763SOL    HW1 5288   1.603   1.612   1.527 -0.3039 -1.2924 -0.5019
 1763SOL    HW2 5289   1.503   1.725   1.523  0.6733 -0.3538  0.8416
 1764SOL     OW 5290   2.740   3.872   3.300 -0.1441  0.2851  0.4414
 1764SOL    HW1 5291   2.732   3.796   3.357 -3.1084  1.3559  1.6801
 1764SOL    HW2 5292   2.772   3.942   3.357  1.4268  0.3012 -0.4086
 1765SOL     OW 5293   1.060   2.735   2.536  0.2052  0.1482  0.3481
 1765SOL    HW1 5294   1.073   2.717   2.630  1.0180 -0.9729  0.0356
 1765SOL    HW2 5295   1.010   2.660   2.504  1.9842 -0.6831 -0.5920
 1766SOL     OW 5296   0.814   1.159   0.690 -1.3474 -0.2734  0.5048
 1766SOL    HW1 5297   0.894   1.111   0.667 -0.3091  1.2726  0.7813
 1766SOL    HW2 5298   0.744   1.111   0.645 -0.3099 -1.7529  0.3820
 1767SOL     OW 5299   1.342   3.195   2.502 -0.1473 -0.4091 -0.5037
 1767SOL    HW1 5300   1.280   3.254   2.545  0.7730 -0.4247  0.9127
 1767SOL    HW2 5301   1.374   3.139   2.573  0.4278 -1.3301 -1.4724
 1768SOL     OW 5302   1.265   1.582   0.353  0.5816  0.3579  0.5520
 1768SOL    HW1 5303   1.267   1.515   0.285  0.1791  0.9977 -0.1050
 1768SOL    HW2 5304   1.355   1.614   0.357  0.3838  1.1036 -0.4959
 1769SOL     OW 5305   2.208   3.038   3.854  0.2716  0.2689 -0.4994
 1769SOL    HW1 5306   2.262   3.074   3.783 -0.8026  0.0988 -1.4431
 1769SOL    HW2 5307   2.168   3.115   3.894 -2.0608  0.2462 -2.5465
 1770SOL     OW 5308   1.599   0.970   1.867 -0.3279 -0.1084  0.2715
 1770SOL    HW1 5309   1.599   0.896   1.807 -0.5300  0.1042  0.0045
 1770SOL    HW2 5310   1.579   0.932   1.953 -2.6618 -0.1013 -0.2100
 1771SOL     OW 5311   1.356   1.598   1.275 -0.1856  0.1112 -0.0339
 1771SOL    HW1 5312   1.323   1.684   1.249 -1.3142  0.7263  2.9793
 1771SOL    HW2 5313   1.432   1.617   1.331 -1.0665 -0.7087  1.5283
 1772SOL     OW 5314   0.676   2.435   0.307  0.2962 -0.1527  0.4914
 1772SOL    HW1 5315   0.695   2.455   0.399  1.0070  1.4702  0.0246
 1772SOL    HW2 5316   0.703   2.344   0.296 -1.1998 -0.8884  2.2466
 1773SOL     OW 5317  -0.005   0.877   1.210 -0.0282  0.3702 -0.1604
 1773SOL    HW1 5318   0.046   0.804   1.245 -0.4044  0.7754  1.3189
 1773SOL    HW2 5319  -0.010   0.939   1.282  1.4884  2.5568 -1.8229
 1774SOL     OW 5320   0.089   2.416   0.475 -0.1233 -0.1505 -0.0290
 1774SOL    HW1 5321   0.082   2.351   0.405  0.6196 -0.6296  0.3257
 1774SOL    HW2 5322   0.102   2.499   0.429  0.4707 -0.4754 -0.4631
 1775SOL     OW 5323   1.935   1.946   2.931  0.4673  0.1437  0.0061
 1775SOL    HW1 5324   1.954   2.037   2.952 -0.3103  0.5194 -0.8671
 1775SOL    HW2 5325   1.942   1.942   2.835  2.0179 -1.0718  0.1269
 1776SOL     OW 5326   1.191   0.995   3.899  0.1893  0.5823 -0.8008
 1776SOL    HW1 5327   1.272   0.992   3.951  0.9633 -1.2808 -2.0222
 1776SOL    HW2 5328   1.198   0.921   3.840 -2.8322 -0.1539 -0.3848
 1777SOL     OW 5329   3.677   3.726   0.120  0.1384  0.1081 -0.0500
 1777SOL    HW1 5330   3.656   3.813   0.085 -0.2603  0.2417  0.5064
 1777SOL    HW2 5331   3.674   3.737   0.215  2.0226 -0.0432  0.0670
 1778SOL     OW 5332   1.386   0.129   2.304 -0.2517 -0.1346 -0.2701
 1778SOL    HW1 5333   1.291   0.134   2.314 -0.2951 -0.3612 -0.5641
 1778SOL    HW2 5334   1.408   0.038   2.325  0.0377  0.1931  0.9182
 1779SOL     OW 5335   1.776   0.525   1.038  0.2191  0.0453 -0.3000
 1779SOL    HW1 5336   1.781   0.576   0.957  0.2764  0.5423  0.0097
 1779SOL    HW2 5337   1.738   0.442   1.012 -0.9108  0.6466 -0.6352
 1780SOL     OW 5338   1.776   1.600   2.076  0.3565 -0.0170 -0.0952
 1780SOL    HW1 5339   1.733   1.538   2.135 -1.0082 -0.2123 -1.2295
 1780SOL    HW2 5340   1.835   1.650   2.132 -1.7763  0.6552  1.6736
 1781SOL     OW 5341   3.994   0.343   3.577 -0.0405  0.2020  0.4152
 1781SOL    HW1 5342   3.900   0.359   3.578 -0.2427 -0.6724 -1.1198
 1781SOL    HW2 5343   4.006   0.271   3.639 -0.7873 -1.3705 -1.1737
 1782SOL     OW 5344   0.607   2.682   3.224  0.2336 -0.2747  0.0124
 1782SOL    HW1 5345   0.633   2.731   3.302 -0.0615 -0.6599  0.3577
 1782SOL    HW2 5346   0.529   2.727   3.192  0.4111 -0.0578 -0.1181
 1783SOL     OW 5347   2.783   0.526   0.329  0.4100 -0.0742  0.4370
 1783SOL    HW1 5348   2.769   0.574   0.247  1.9895 -0.1063  0.1112
 1783SOL    HW2 5349   2.872   0.549   0.355 -0.2768  0.4092  2.4957
 1784SOL     OW 5350   0.887   1.416   0.666 -0.3149 -0.5687 -0.7313
 1784SOL    HW1 5351   0.977   1.433   0.693 -0.8108  1.8246 -0.3762
 1784SOL    HW2 5352   0.871   1.326   0.693  1.9066 -1.0167 -0.6873
 1785SOL     OW 5353   0.162   0.914   0.229 -0.3367  0.1921  0.1545
 1785SOL    HW1 5354   0.200   0.870   0.153  0.2015 -0.4623  0.7937
 1785SOL    HW2 5355   0.187   0.860   0.303 -1.9340  0.1144  0.6789
 1786SOL     OW 5356   3.411   3.427   1.625 -0.1481 -0.5870 -0.0400
 1786SOL    HW1 5357   3.493   3.388   1.594 -0.6455 -0.3645 -1.7582
 1786SOL    HW2 5358   3.397   3.388   1.711  2.8561  1.0209  1.3217
 1787SOL     OW 5359   1.032   2.328   2.553 -0.0858 -0.6066  0.4546
 1787SOL    HW1 5360   0.976   2.263   2.596  1.1994 -1.7521  0.4365
 1787SOL    HW2 5361   1.113   2.328   2.603 -0.2850  1.5221  0.8831
 1788SOL     OW 5362   1.410   2.518   1.933 -0.4340  0.0150  0.6524
 1788SOL    HW1 5363   1.360   2.451   1.886  0.9112  0.3399 -1.4010
 1788SOL    HW2 5364   1.419   2.485   2.022 -2.1928 -1.1757  0.4255
 1789SOL     OW 5365   3.512   3.227   2.428 -0.1235  0.0686 -0.2283
 1789SOL    HW1 5366   3.467   3.224   2.512 -1.0148 -0.6401 -0.7093
 1789SOL    HW2 5367   3.558   3.311   2.428 -1.3553  0.7782  0.3412
 1790SOL     OW 5368   1.150   1.354   2.433  0.1504  0.2372  0.6715
 1790SOL    HW1 5369   1.189   1.442   2.433 -0.2342  0.4302  1.8823
 1790SOL    HW2 5370   1.062   1.368   2.398  0.4418  0.1577 -0.0980
 1791SOL     OW 5371   3.332   0.642   1.431 -0.0203  0.4804 -0.2604
 1791SOL    HW1 5372   3.377   0.665   1.350 -2.7494  0.2516 -1.9499
 1791SOL    HW2 5373   3.342   0.547   1.438  0.8529  0.5852  0.1358
 1792SOL     OW 5374   0.670  -0.002   2.100 -0.0494 -0.1075 -0.5933
 1792SOL    HW1 5375   0.610   0.038   2.162  1.2465  1.1218 -0.0678
 1792SOL    HW2 5376   0.656   0.047   2.019 -1.7841 -1.7510 -1.3710
 1793SOL     OW 5377   2.753   0.292   1.845  0.0454  0.1164  0.3756
 1793SOL    HW1 5378   2.740   0.385   1.829  1.4323  0.1727 -0.6608
 1793SOL    HW2 5379   2.757   0.253   1.758 -2.9820 -1.3548  0.7690
 1794SOL     OW 5380   3.665   3.407   3.606 -0.3634  0.3205 -0.3260
 1794SOL    HW1 5381   3.617   3.353   3.544  0.2295  0.8121 -1.2425
 1794SOL    HW2 5382   3.723   3.346   3.651  1.2297  0.3011 -2.2427
 1795SOL     OW 5383   0.594   0.443   1.206  0.6416  0.2974 -0.3603
 1795SOL    HW1 5384   0.506   0.469   1.235  0.1236 -0.8094 -0.8673
 1795SOL    HW2 5385   0.615   0.367   1.260  1.2530  0.4942 -0.3202
 1796SOL     OW 5386   2.124   2.401   3.147 -0.4818  0.4403  0.0287
 1796SOL    HW1 5387   2.101   2.464   3.079 -0.1167  0.2668 -0.2535
 1796SOL    HW2 5388   2.059   2.416   3.216 -0.3221  1.2108  0.0189
 1797SOL     OW 5389   2.464   3.998   2.169  0.1248 -0.3274 -0.1928
 1797SOL    HW1 5390   2.429   3.985   2.081 -1.3399 -1.1134  0.4634
 1797SOL    HW2 5391   2.559   3.998   2.158 -0.0338 -0.4036 -1.7647
 1798SOL     OW 5392   0.220   3.107   3.893  0.0907  0.2108  0.6913
 1798SOL    HW1 5393   0.290   3.052   3.927 -0.3724  0.4518  2.1310
 1798SOL    HW2 5394   0.162   3.046   3.846  0.6697 -0.1694  0.4674
 1799SOL     OW 5395   0.487   1.720   1.733  0.3676  0.1803  0.2014
 1799SOL    HW1 5396   0.459   1.784   1.799 -1.7971  0.3763 -0.8278
 1799SOL    HW2 5397   0.446   1.750   1.652  0.6378 -1.6325 -0.6475
 1800SOL     OW 5398   3.314   3.322   0.818 -0.3138 -0.3241  0.1024
 1800SOL    HW1 5399   3.389   3.295   0.871  0.0849  0.6236  0.0303
 1800SOL    HW2 5400   3.347   3.392   0.763 -1.4056  0.5482  0.5142
 1801SOL     OW 5401   1.606   0.262   1.930 -0.8026  0.2880  0.0468
 1801SOL    HW1 5402   1.650   0.345   1.912  0.4506  0.5902  3.5856
 1801SOL    HW2 5403   1.626   0.207   1.854  0.3812  2.4309 -1.3060
 1802SOL     OW 5404   0.443   3.698   1.471 -0.2192 -0.6976 -0.0822
 1802SOL    HW1 5405   0.437   3.617   1.421 -0.4607 -1.3434  0.9771
 1802SOL    HW2 5406   0.369   3.750   1.440  0.6199 -0.3486 -1.6422
 1803SOL     OW 5407   1.282   0.940   3.344  0.1291 -0.5983  0.4541
 1803SOL    HW1 5408   1.232   0.930   3.426  2.8326 -2.3847  2.0162
 1803SOL    HW2 5409   1.246   0.873   3.286 -0.4283 -0.7060  0.9051
 1804SOL     OW 5410   2.608   3.002   2.646 -0.1881  0.1709  0.0969
 1804SOL    HW1 5411   2.519   3.028   2.671 -0.6390 -1.0427 -0.1242
 1804SOL    HW2 5412   2.619   3.035   2.557  0.4459  2.2475  0.8881
 1805SOL     OW 5413   0.935   1.907   0.326  0.0938 -0.2515 -0.5970
 1805SOL    HW1 5414   0.973   1.927   0.240  0.5854  1.6866  0.0288
 1805SOL    HW2 5415   0.842   1.926   0.316 -0.4180 -2.7634 -1.4545
 1806SOL     OW 5416   1.476   2.757   0.187 -0.1925 -0.4782  0.3289
 1806SOL    HW1 5417   1.541   2.827   0.192 -0.2915 -0.1503 -1.8365
 1806SOL    HW2 5418   1.393   2.802   0.171 -0.0006 -1.0055 -2.9515
 1807SOL     OW 5419   0.422   0.589   1.382  0.1456  0.5899  0.0950
 1807SOL    HW1 5420   0.502   0.633   1.412 -0.8078  2.3882  0.0982
 1807SOL    HW2 5421   0.378   0.563   1.463  0.0442  0.8679  0.1302
 1808SOL     OW 5422   3.751   0.997   2.656  0.2086  0.5115 -0.1701
 1808SOL    HW1 5423   3.711   0.991   2.743  0.4057  0.6401 -0.0726
 1808SOL    HW2 5424   3.681   0.970   2.596  0.2805 -0.2703  0.0775
 1809SOL     OW 5425   0.105   1.630   3.792 -0.1073 -0.1365 -0.6252
 1809SOL    HW1 5426   0.165   1.667   3.856 -0.1431  0.8029 -1.1080
 1809SOL    HW2 5427   0.027   1.684   3.798 -0.3217 -0.3874 -1.0651
 1810SOL     OW 5428   1.848   2.078   1.922  0.0090 -0.6435 -0.0499
 1810SOL    HW1 5429   1.891   2.006   1.878  0.4698 -0.1710 -0.3823
 1810SOL    HW2 5430   1.908   2.104   1.992  0.1805 -0.1169 -0.3863
 1811SOL     OW 5431   3.279   2.418   1.582 -0.0847  0.7839 -0.2308
 1811SOL    HW1 5432   3.212   2.479   1.551  0.8373  1.3693 -1.1120
 1811SOL    HW2 5433   3.258   2.336   1.539  0.4241  1.2609 -1.4385
 1812SOL     OW 5434   3.553   1.215   3.304  0.2431  0.3469  0.3200
 1812SOL    HW1 5435   3.514   1.248   3.223  0.2494 -0.2018  0.0929
 1812SOL    HW2 5436   3.581   1.294   3.351 -0.8494  0.7241  0.3445
 1813SOL     OW 5437   0.058   1.913   3.797 -0.6248  0.2583 -0.0872
 1813SOL    HW1 5438   0.119   1.980   3.828  1.0348 -1.6791  1.0730
 1813SOL    HW2 5439   0.063   1.919   3.702  3.8652 -1.7038 -0.2587
 1814SOL     OW 5440   1.622   1.354   0.477 -0.8233 -0.1404  0.0069
 1814SOL    HW1 5441   1.694   1.351   0.539  0.4330 -0.4126 -1.4119
 1814SOL    HW2 5442   1.580   1.268   0.484  1.0182 -1.2284 -1.4228
 1815SOL     OW 5443   3.205   3.639   1.464  0.0437 -0.3649 -0.0998
 1815SOL    HW1 5444   3.261   3.707   1.501 -0.6167  0.5386 -0.7120
 1815SOL    HW2 5445   3.263   3.589   1.406  0.4889 -0.1885  0.1890
 1816SOL     OW 5446   1.772   2.274   1.127  0.4144 -0.6116 -0.1977
 1816SOL    HW1 5447   1.687   2.244   1.094  0.4989  1.4285 -2.5938
 1816SOL    HW2 5448   1.788   2.221   1.205 -3.3177 -0.6940  0.6965
 1817SOL     OW 5449   3.620   0.321   0.449  0.3435 -0.3931  0.0202
 1817SOL    HW1 5450   3.668   0.380   0.508  0.6507  0.1164 -0.7296
 1817SOL    HW2 5451   3.685   0.258   0.420  0.6271  0.4119 -1.1467
 1818SOL     OW 5452   0.383   1.115   3.078 -1.0471  0.1726  0.1879
 1818SOL    HW1 5453   0.295   1.089   3.105 -0.8215  1.1090  1.9137
 1818SOL    HW2 5454   0.420   1.159   3.154  0.6731  0.4189 -0.7444
 1819SOL     OW 5455   0.765   2.164   0.827 -0.3282  0.4534  0.0003
 1819SOL    HW1 5456   0.847   2.154   0.874 -0.3096  1.3928  0.1812
 1819SOL    HW2 5457   0.699   2.173   0.896 -0.4975  0.3797 -0.1503
 1820SOL     OW 5458   0.069   1.328   1.964 -0.4101  0.3313  0.8959
 1820SOL    HW1 5459   0.142   1.270   1.983 -1.5214 -1.2281  0.5709
 1820SOL    HW2 5460   0.071   1.392   2.036  0.8645 -0.0638  1.2464
 1821SOL     OW 5461   0.515   0.196   0.629  0.3098 -0.0405  0.1807
 1821SOL    HW1 5462   0.473   0.156   0.553  1.0369  0.4524 -0.5014
 1821SOL    HW2 5463   0.592   0.241   0.593  0.6756  0.1899  1.2109
 1822SOL     OW 5464   3.463   3.388   1.919  0.5803 -0.0980 -0.4905
 1822SOL    HW1 5465   3.532   3.430   1.868  0.2097  0.3605 -0.6240
 1822SOL    HW2 5466   3.509   3.337   1.985  1.0961 -1.2034 -1.6609
 1823SOL     OW 5467   1.712   0.975   3.226 -0.2841 -0.2702 -0.5757
 1823SOL    HW1 5468   1.626   0.959   3.187  0.3291 -0.2829 -1.9900
 1823SOL    HW2 5469   1.772   0.975   3.151  0.8876  0.1600  0.3422
 1824SOL     OW 5470   1.222   1.348   3.468 -0.2192 -0.0122 -0.8262
 1824SOL    HW1 5471   1.271   1.289   3.411  0.8038 -1.0054  0.9530
 1824SOL    HW2 5472   1.257   1.435   3.450  3.9647 -0.8814  1.8205
 1825SOL     OW 5473  -0.017   1.083   0.546  0.1954 -0.0954 -0.1019
 1825SOL    HW1 5474  -0.040   1.172   0.570 -1.4953 -0.3993 -0.4317
 1825SOL    HW2 5475   0.077   1.086   0.527  0.7091  1.0746  2.1987
 1826SOL     OW 5476   3.390   0.593   2.052 -0.3111 -0.2176 -0.2912
 1826SOL    HW1 5477   3.347   0.677   2.068  1.1473  0.2984  1.2933
 1826SOL    HW2 5478   3.330   0.528   2.087 -1.7595  0.0638 -2.1348
 1827SOL     OW 5479   3.942   3.441   3.070 -0.1103  0.0876 -0.5414
 1827SOL    HW1 5480   3.955   3.469   2.979  3.3364  0.3018 -0.1169
 1827SOL    HW2 5481   3.983   3.355   3.075  1.0410  0.6767  1.0726
 1828SOL     OW 5482   2.747   3.169   2.008  0.5357  0.0660 -0.4186
 1828SOL    HW1 5483   2.805   3.132   2.074 -0.4547  0.1912  0.5453
 1828SOL    HW2 5484   2.660   3.137   2.032 -0.3215  2.6512  0.2068
 1829SOL     OW 5485   2.498   2.927   2.266 -0.0469  0.1599 -0.1131
 1829SOL    HW1 5486   2.530   3.002   2.315  2.2186  0.0851 -1.3978
 1829SOL    HW2 5487   2.462   2.869   2.334 -0.5133  1.7119  1.0312
 1830SOL     OW 5488   3.977   2.111   3.375 -0.7658  0.1668 -0.3663
 1830SOL    HW1 5489   4.045   2.138   3.313 -0.0777  1.0197  0.7314
 1830SOL    HW2 5490   3.899   2.160   3.347 -0.8151 -0.4482 -1.3373
 1831SOL     OW 5491   1.577   2.282   3.989  0.5531 -0.8787  0.0365
 1831SOL    HW1 5492   1.663   2.269   3.949  0.1012 -1.8785 -0.6654
 1831SOL    HW2 5493   1.518   2.231   3.934 -0.5760  0.2260  0.2016
 1832SOL     OW 5494   2.523   3.723   1.551 -0.1098 -0.1518 -0.6695
 1832SOL    HW1 5495   2.540   3.803   1.601  0.4855  0.6668 -2.1218
 1832SOL    HW2 5496   2.610   3.689   1.530 -0.3316  0.0235 -1.9189
 1833SOL     OW 5497   3.451   0.655   2.990 -0.2363  0.3540 -0.0114
 1833SOL    HW1 5498   3.427   0.583   2.932  0.5915  0.8629 -1.0040
 1833SOL    HW2 5499   3.371   0.708   2.995 -0.7834 -0.4983  0.5544
 1834SOL     OW 5500   1.779   2.682   2.443  0.6846 -0.2933 -0.1413
 1834SOL    HW1 5501   1.850   2.618   2.441  0.0471 -1.0043 -1.5126
 1834SOL    HW2 5502   1.768   2.709   2.352  0.4127  1.2101  0.3050
 1835SOL     OW 5503   2.670   0.023   1.921 -0.1333  0.1270 -0.1404
 1835SOL    HW1 5504   2.637   0.003   1.833 -0.2013 -1.1354  0.1541
 1835SOL    HW2 5505   2.674   0.119   1.924 -2.2700  0.2853 -0.7546
 1836SOL     OW 5506   3.833   2.503   2.191 -0.4481 -0.0005 -0.0396
 1836SOL    HW1 5507   3.806   2.581   2.141 -2.4941 -1.3172 -1.1580
 1836SOL    HW2 5508   3.755   2.478   2.240  0.4121 -0.9353  0.9060
 1837SOL     OW 5509   2.171   0.191   0.933  0.4833  0.7092 -0.0979
 1837SOL    HW1 5510   2.176   0.283   0.959 -1.8834  1.4346 -1.8218
 1837SOL    HW2 5511   2.125   0.148   1.005 -0.1789  1.2988 -0.1606
 1838SOL     OW 5512   3.188   2.581   2.260  0.0795 -0.2640  0.5109
 1838SOL    HW1 5513   3.224   2.575   2.349 -2.4869 -1.1420  1.6005
 1838SOL    HW2 5514   3.130   2.657   2.263 -1.6294 -1.4948  0.2849
 1839SOL     OW 5515   1.895   2.659   1.781  0.1025 -0.0739  0.5963
 1839SOL    HW1 5516   1.871   2.752   1.785 -0.9496 -0.2551 -0.8012
 1839SOL    HW2 5517   1.991   2.659   1.789  0.0843  1.0832  1.0724
 1840SOL     OW 5518   0.650   0.199   1.022  0.0391 -0.2071  0.1461
 1840SOL    HW1 5519   0.628   0.276   0.969  1.2269  1.5398  2.0069
 1840SOL    HW2 5520   0.736   0.173   0.991  0.7227  0.7988  1.1151
 1841SOL     OW 5521   3.933   2.705   1.831  0.4621  0.4775  0.5246
 1841SOL    HW1 5522   3.897   2.670   1.749  1.2340 -0.5314  0.5981
 1841SOL    HW2 5523   3.869   2.769   1.860 -0.9248 -0.7633  0.2902
 1842SOL     OW 5524   3.432   3.563   0.691  0.5050  0.3521 -0.2359
 1842SOL    HW1 5525   3.375   3.543   0.616 -0.8693 -0.1314  0.8840
 1842SOL    HW2 5526   3.386   3.633   0.737  2.8044  2.7920 -1.3944
 1843SOL     OW 5527   2.012   2.793   0.732 -0.0883 -0.1435 -0.2332
 1843SOL    HW1 5528   2.001   2.763   0.822  1.4555 -0.3944 -0.1040
 1843SOL    HW2 5529   2.022   2.888   0.740 -0.2877 -0.1272 -0.1738
 1844SOL     OW 5530   3.773   0.234   0.133  0.2863 -0.1525  0.1589
 1844SOL    HW1 5531   3.821   0.168   0.082  2.4012  2.3838 -1.3577
 1844SOL    HW2 5532   3.789   0.210   0.224  1.2772 -1.5382 -0.3446
 1845SOL     OW 5533   0.105   1.620   0.577 -0.5135  0.7984 -0.0421
 1845SOL    HW1 5534   0.148   1.553   0.524  2.6387  1.1531  1.8470
 1845SOL    HW2 5535   0.126   1.702   0.532  0.7238  0.9484  0.7468
 1846SOL     OW 5536   1.132   1.248   0.240 -0.0123 -0.3487  0.1638
 1846SOL    HW1 5537   1.059   1.243   0.301  1.1979  1.3467  1.8415
 1846SOL    HW2 5538   1.120   1.331   0.194  1.2352  0.3423  1.0294
 1847SOL     OW 5539   2.059   0.171   1.455 -0.4544 -0.6077  0.6080
 1847SOL    HW1 5540   2.109   0.187   1.534 -2.4050  1.5523  1.5376
 1847SOL    HW2 5541   1.982   0.123   1.485 -0.6118 -0.8667 -0.1907
 1848SOL     OW 5542   1.287   3.428   3.975  0.8824  0.3481 -0.6240
 1848SOL    HW1 5543   1.213   3.488   3.982 -1.7937 -2.5995 -1.2977
 1848SOL    HW2 5544   1.296   3.411   3.881  1.5638 -0.3190 -0.4530
 1849SOL     OW 5545   1.542   3.459   2.769  0.4903  0.0128  0.2101
 1849SOL    HW1 5546   1.478   3.409   2.718  2.0506 -2.9705  0.9048
 1849SOL    HW2 5547   1.491   3.502   2.837 -1.1700  0.9127 -1.5109
 1850SOL     OW 5548   0.324   1.515   2.191  0.0227 -0.2190 -0.1484
 1850SOL    HW1 5549   0.414   1.493   2.215  0.6449  1.0663 -1.1987
 1850SOL    HW2 5550   0.321   1.610   2.190 -2.5558  0.0339  4.0940
 1851SOL     OW 5551   0.749   0.841   3.093 -0.0334 -0.2613  0.3450
 1851SOL    HW1 5552   0.745   0.846   3.188 -1.1182  0.2819  0.2917
 1851SOL    HW2 5553   0.690   0.911   3.063  1.3327  0.4713 -0.7345
 1852SOL     OW 5554   0.354   1.718   3.649 -0.1290  0.1903  0.3844
 1852SOL    HW1 5555   0.281   1.693   3.705  0.4526  0.5732  1.3268
 1852SOL    HW2 5556   0.432   1.697   3.699  0.3928  1.9113  0.3527
 1853SOL     OW 5557   0.616   2.917   1.628 -0.0960 -1.0481 -0.3276
 1853SOL    HW1 5558   0.605   2.822   1.635  0.3274 -1.2244 -1.8015
 1853SOL    HW2 5559   0.541   2.953   1.675 -0.0697 -2.0902  0.5740
 1854SOL     OW 5560   0.647   0.768   0.740  0.4241 -0.2872 -0.3954
 1854SOL    HW1 5561   0.732   0.790   0.701  1.3330 -1.1598  1.0279
 1854SOL    HW2 5562   0.593   0.744   0.665  1.1588  1.0688 -1.4169
 1855SOL     OW 5563   2.315   1.768   2.559 -0.1481  0.2279 -0.0826
 1855SOL    HW1 5564   2.395   1.799   2.516  0.0405  1.4681  1.0986
 1855SOL    HW2 5565   2.315   1.813   2.644 -1.1677 -1.1568  0.6836
 1856SOL     OW 5566   1.432   2.480   0.279 -0.4293 -0.2390  0.2434
 1856SOL    HW1 5567   1.486   2.544   0.233 -0.7254 -1.8871 -2.6646
 1856SOL    HW2 5568   1.361   2.460   0.218 -1.4163 -1.9223  1.8211
 1857SOL     OW 5569   0.964   1.603   2.853 -0.1932 -0.7413 -0.3624
 1857SOL    HW1 5570   0.883   1.558   2.878 -0.0705  0.0070  1.5410
 1857SOL    HW2 5571   1.030   1.569   2.914  0.3232  0.5926 -0.1404
 1858SOL     OW 5572   1.662   3.185   1.880 -1.0140 -0.5100  0.2321
 1858SOL    HW1 5573   1.592   3.135   1.924 -0.0203 -1.1375  1.1471
 1858SOL    HW2 5574   1.718   3.214   1.951 -0.2891 -0.0853 -0.5052
 1859SOL     OW 5575   3.839   1.183   0.215  0.2975  0.0764 -0.2242
 1859SOL    HW1 5576   3.921   1.172   0.263  0.1916  1.0262  0.2155
 1859SOL    HW2 5577   3.775   1.203   0.284  0.3245  2.4228 -0.8005
 1860SOL     OW 5578   1.737   2.752   3.666  0.2759  0.0218  0.2963
 1860SOL    HW1 5579   1.675   2.825   3.662  0.4452  0.1444 -0.1887
 1860SOL    HW2 5580   1.786   2.767   3.747  0.3140  0.4515  0.1954
 1861SOL     OW 5581   0.241   1.698   0.256  0.0263  0.5746 -0.2744
 1861SOL    HW1 5582   0.208   1.761   0.319  0.2173  0.4422 -0.0404
 1861SOL    HW2 5583   0.256   1.618   0.307  3.3094  1.3837  0.2508
 1862SOL     OW 5584   0.837   0.925   3.357  0.3816 -0.2535 -0.6304
 1862SOL    HW1 5585   0.924   0.925   3.396  0.0638  1.3785  0.1539
 1862SOL    HW2 5586   0.777   0.917   3.431 -0.1682  0.1681 -1.0195
 1863SOL     OW 5587   3.136   1.813   3.681  0.3689 -0.1746  0.3157
 1863SOL    HW1 5588   3.067   1.847   3.623  0.1796  1.3689  1.3677
 1863SOL    HW2 5589   3.108   1.724   3.702 -0.0329 -0.4291 -1.1986
 1864SOL     OW 5590   1.454   3.859   1.264 -0.3585  0.5706 -0.0180
 1864SOL    HW1 5591   1.364   3.867   1.294 -0.1389 -2.2326  1.6867
 1864SOL    HW2 5592   1.450   3.795   1.192  0.5870 -3.0149  2.8250
 1865SOL     OW 5593   3.219   3.075   1.753  0.5352 -0.0758  0.2442
 1865SOL    HW1 5594   3.168   3.085   1.673  3.6844 -0.0133 -1.8881
 1865SOL    HW2 5595   3.159   3.104   1.823 -1.7071  1.6666 -2.2170
 1866SOL     OW 5596   0.514   2.112   2.429  0.0434 -0.2448 -0.2879
 1866SOL    HW1 5597   0.581   2.161   2.478  1.6494 -3.7696  1.3801
 1866SOL    HW2 5598   0.543   2.118   2.338  0.5803  1.2293 -0.0546
 1867SOL     OW 5599   0.157   0.061   2.201  0.4516  0.3105 -0.3733
 1867SOL    HW1 5600   0.164   0.055   2.105 -1.8004  0.1881 -0.5688
 1867SOL    HW2 5601   0.164  -0.030   2.230  0.2314  0.2564 -0.4894
 1868SOL     OW 5602   1.345   1.577   3.409  0.6829 -0.0693  0.1689
 1868SOL    HW1 5603   1.319   1.668   3.422 -0.2810 -0.1695 -0.8633
 1868SOL    HW2 5604   1.369   1.572   3.316 -2.5927 -1.5684 -0.7446
 1869SOL     OW 5605   0.231   2.465   3.184 -0.9071 -0.6262 -0.0741
 1869SOL    HW1 5606   0.148   2.470   3.136 -0.6440 -0.2333 -0.5036
 1869SOL    HW2 5607   0.290   2.420   3.123 -0.1611  1.1515 -0.7375
 1870SOL     OW 5608   0.370   1.609   3.028 -0.1960  0.0152  0.2034
 1870SOL    HW1 5609   0.292   1.563   2.999 -0.2982 -0.0727  0.6128
 1870SOL    HW2 5610   0.423   1.619   2.948  1.0081 -3.0935  0.4809
 1871SOL     OW 5611   0.169   1.845   3.054 -0.4144  0.1824  0.1191
 1871SOL    HW1 5612   0.188   1.785   3.126 -2.1154 -0.0434  0.4406
 1871SOL    HW2 5613   0.171   1.791   2.975  1.7980  0.4999 -0.0864
 1872SOL     OW 5614   1.093   0.808   1.054 -0.1710  0.5785  0.0191
 1872SOL    HW1 5615   1.086   0.719   1.019  0.3370  0.1370  0.9925
 1872SOL    HW2 5616   1.060   0.801   1.143 -1.5352  1.6953 -0.3650
 1873SOL     OW 5617   0.204   3.954   3.592 -0.5733 -0.3553  0.2218
 1873SOL    HW1 5618   0.167   3.978   3.507 -0.1469 -0.5061 -0.0103
 1873SOL    HW2 5619   0.214   3.859   3.588  2.5468 -0.1080 -0.8868
 1874SOL     OW 5620   1.876   3.192   0.551  0.4381 -0.5124 -0.4126
 1874SOL    HW1 5621   1.890   3.125   0.484  2.6888 -1.1019  0.5685
 1874SOL    HW2 5622   1.803   3.158   0.603  0.7374 -1.5921 -0.6714
 1875SOL     OW 5623   0.291   1.217   1.375  0.2523 -0.2747 -0.4575
 1875SOL    HW1 5624   0.351   1.153   1.337 -0.4882 -0.9378 -0.5387
 1875SOL    HW2 5625   0.334   1.244   1.456  1.3895  0.4372 -1.2653
 1876SOL     OW 5626   1.939   3.680   0.474  0.5570  0.8380 -0.7669
 1876SOL    HW1 5627   1.993   3.643   0.544  0.2684  0.9498 -0.4837
 1876SOL    HW2 5628   1.914   3.605   0.420 -0.6760  0.4842  0.2477
 1877SOL     OW 5629   2.272   0.486   3.476  0.0811  0.0364 -0.2094
 1877SOL    HW1 5630   2.290   0.414   3.536  0.3552 -0.2785 -0.6576
 1877SOL    HW2 5631   2.317   0.461   3.395  0.7202  1.0180 -0.1724
 1878SOL     OW 5632   2.924   3.465   1.965 -0.4271 -0.1829 -0.3959
 1878SOL    HW1 5633   2.963   3.509   2.041 -0.5157 -0.5160 -0.1520
 1878SOL    HW2 5634   2.854   3.523   1.936 -1.6855 -0.9243  0.9738
 1879SOL     OW 5635   0.842   3.126   2.343 -0.1908  0.6438  0.0378
 1879SOL    HW1 5636   0.785   3.138   2.267  0.8782  0.6575 -0.7880
 1879SOL    HW2 5637   0.787   3.081   2.407 -0.6491 -0.9049 -1.3723
 1880SOL     OW 5638   1.583   0.650   3.576  0.0440 -0.1793 -0.1574
 1880SOL    HW1 5639   1.517   0.621   3.512 -0.4477 -0.3095  0.3920
 1880SOL    HW2 5640   1.643   0.576   3.583 -1.4308 -1.3072  1.5313
 1881SOL     OW 5641   0.964   1.163   3.891  0.4481 -0.2797  0.6189
 1881SOL    HW1 5642   0.996   1.191   3.805 -0.4752  2.1969  0.9942
 1881SOL    HW2 5643   1.017   1.086   3.913  1.0398 -0.6832 -1.9194
 1882SOL     OW 5644   0.413   1.936   0.451 -0.3342 -0.0867 -0.1223
 1882SOL    HW1 5645   0.320   1.916   0.463 -0.2625 -0.2640  0.1415
 1882SOL    HW2 5646   0.421   1.953   0.357 -0.4210 -1.1992 -0.3483
 1883SOL     OW 5647   2.385   2.438   3.591  0.2336 -0.0490 -0.0313
 1883SOL    HW1 5648   2.425   2.358   3.556  0.9081  0.6571 -0.9054
 1883SOL    HW2 5649   2.418   2.444   3.681  1.7307  0.2756 -0.5855
 1884SOL     OW 5650   2.512   2.065   1.250 -0.1951  0.3088 -0.1704
 1884SOL    HW1 5651   2.426   2.107   1.253 -0.0855  0.7927 -2.4279
 1884SOL    HW2 5652   2.501   1.991   1.191  1.3008  1.4283 -1.9947
 1885SOL     OW 5653   0.564   0.437   0.886  0.3273 -0.2067  0.1829
 1885SOL    HW1 5654   0.604   0.504   0.941  0.6207 -0.2076 -0.0260
 1885SOL    HW2 5655   0.470   0.451   0.895  0.3741  1.6061 -1.5179
 1886SOL     OW 5656   0.536   3.630   3.536 -0.2019 -0.4156  0.6008
 1886SOL    HW1 5657   0.542   3.714   3.582 -1.3564  0.2116 -0.3366
 1886SOL    HW2 5658   0.515   3.654   3.446  0.7838 -1.6736  0.0048
 1887SOL     OW 5659   1.620   1.386   2.935  0.0123  0.2420 -0.6091
 1887SOL    HW1 5660   1.527   1.385   2.911 -0.5347 -0.1927  1.2815
 1887SOL    HW2 5661   1.656   1.307   2.895 -0.7823 -0.3377 -0.2123
 1888SOL     OW 5662   2.931  -0.033   0.364  1.0018  0.4016  0.3141
 1888SOL    HW1 5663   2.838  -0.008   0.358  0.7042 -0.1964  1.9853
 1888SOL    HW2 5664   2.978   0.045   0.333 -0.0354  0.5213 -1.1183
 1889SOL     OW 5665   3.691   3.323   3.178  0.5930  0.5647 -0.0218
 1889SOL    HW1 5666   3.755   3.388   3.149  2.4283 -1.3655 -0.5584
 1889SOL    HW2 5667   3.655   3.288   3.097  0.5377  0.0462  0.2262
 1890SOL     OW 5668   2.854   3.106   0.844 -0.1063 -0.4778  0.0636
 1890SOL    HW1 5669   2.783   3.043   0.851  0.3544 -0.9702  0.4172
 1890SOL    HW2 5670   2.822   3.172   0.783 -0.5572 -1.1095 -0.4008
 1891SOL     OW 5671   0.575   2.055   2.153 -0.6272  0.1600 -0.0505
 1891SOL    HW1 5672   0.653   2.101   2.121 -0.3879 -0.0159  0.2731
 1891SOL    HW2 5673   0.571   1.976   2.100 -0.3699 -0.0132  0.1878
 1892SOL     OW 5674   2.231   2.623   0.697 -0.1951 -0.0523  0.1838
 1892SOL    HW1 5675   2.276   2.630   0.612  1.0611 -0.0037  0.8286
 1892SOL    HW2 5676   2.158   2.685   0.690 -2.0557 -2.2514 -1.9776
 1893SOL     OW 5677   1.167   3.309   3.483 -0.0614  0.0029 -0.3489
 1893SOL    HW1 5678   1.111   3.312   3.561  0.2888  0.2878 -0.1032
 1893SOL    HW2 5679   1.121   3.251   3.423  0.0101 -0.7891  0.3423
 1894SOL     OW 5680   3.809   1.958   3.548 -0.1800 -0.2503 -0.2384
 1894SOL    HW1 5681   3.872   2.019   3.509 -0.6794  0.8694  0.6450
 1894SOL    HW2 5682   3.764   2.010   3.614 -1.3602 -1.3110 -0.1829
 1895SOL     OW 5683   3.678   0.953   2.928 -0.0163  0.3616 -0.3499
 1895SOL    HW1 5684   3.691   0.882   2.990 -2.1388  1.0318  0.9768
 1895SOL    HW2 5685   3.585   0.948   2.905  0.6988  0.0010 -3.7251
 1896SOL     OW 5686   1.802   2.068   0.332  0.1808 -0.4544 -0.0977
 1896SOL    HW1 5687   1.825   2.103   0.418  1.6615 -1.3031 -0.1106
 1896SOL    HW2 5688   1.839   2.130   0.269 -1.2185  0.3586 -0.1434
 1897SOL     OW 5689   0.963   2.049   1.763 -0.4306 -0.1453 -0.2140
 1897SOL    HW1 5690   0.982   2.058   1.857  0.8125 -0.2824 -0.4351
 1897SOL    HW2 5691   1.016   2.117   1.721  1.3638 -1.9593 -1.0482
 1898SOL     OW 5692   1.409   0.365   0.871  0.1258  0.1057 -0.0180
 1898SOL    HW1 5693   1.388   0.307   0.944  2.7168  0.2331  0.9248
 1898SOL    HW2 5694   1.444   0.308   0.803  0.5416  0.3169  0.0176
 1899SOL     OW 5695   3.889   1.762   1.753 -0.9167 -0.4982  0.2771
 1899SOL    HW1 5696   3.939   1.836   1.718  0.8941  1.6347  6.1924
 1899SOL    HW2 5697   3.952   1.690   1.758 -0.7088 -0.3012  0.5413
 1900SOL     OW 5698   0.326   2.467   0.591  0.4200 -0.2032 -0.5038
 1900SOL    HW1 5699   0.239   2.457   0.553  0.5425  0.2369 -0.9075
 1900SOL    HW2 5700   0.365   2.379   0.584 -0.1023 -0.4709 -0.0348
 1901SOL     OW 5701   3.020   2.700   3.869  0.4690 -0.3813  0.3316
 1901SOL    HW1 5702   2.974   2.741   3.796  1.0412 -0.1119  0.1167
 1901SOL    HW2 5703   3.098   2.660   3.830  1.0031  0.1297  0.8473
 1902SOL     OW 5704   1.229   2.020   3.756 -0.2821 -0.4883 -0.1042
 1902SOL    HW1 5705   1.143   1.983   3.736  0.3103 -1.7029 -0.5123
 1902SOL    HW2 5706   1.215   2.114   3.758 -1.5470 -0.6537 -0.5251
 1903SOL     OW 5707   1.460   1.004   2.377 -0.2180  0.2123  0.6739
 1903SOL    HW1 5708   1.478   0.910   2.373 -0.0311  0.2106  1.3688
 1903SOL    HW2 5709   1.385   1.017   2.319  1.8280  0.1801 -2.1938
 1904SOL     OW 5710   1.354   1.545   3.905  0.2731 -0.2008  0.3732
 1904SOL    HW1 5711   1.327   1.454   3.910 -2.0765  0.2316 -1.8530
 1904SOL    HW2 5712   1.434   1.544   3.851  0.1941 -0.9324  0.2675
 1905SOL     OW 5713   3.032   3.254   1.281  0.5101 -0.3440 -0.2064
 1905SOL    HW1 5714   3.065   3.236   1.194  0.1843  1.6209 -0.7791
 1905SOL    HW2 5715   2.978   3.332   1.271 -0.4054 -0.6890  1.5667
 1906SOL     OW 5716   1.417   3.317   0.995  0.3517  0.3937  0.3945
 1906SOL    HW1 5717   1.491   3.256   0.998  1.6368  1.8443 -0.1045
 1906SOL    HW2 5718   1.343   3.264   0.965  1.6141 -0.7427 -0.8718
 1907SOL     OW 5719   1.480   1.859   0.407 -0.2295 -1.2898 -0.4843
 1907SOL    HW1 5720   1.494   1.843   0.501 -0.7853  0.3035 -0.1026
 1907SOL    HW2 5721   1.530   1.789   0.364  2.8516 -0.1579  0.9316
 1908SOL     OW 5722   2.991   3.318   0.179 -0.6423  0.3459 -0.4424
 1908SOL    HW1 5723   3.050   3.285   0.112 -1.2699  1.2273 -1.4679
 1908SOL    HW2 5724   2.938   3.242   0.204 -2.1005  0.4872 -2.7878
 1909SOL     OW 5725   0.217   3.971   4.017  0.0982  0.5139 -0.0239
 1909SOL    HW1 5726   0.218   3.878   4.041 -0.0857  0.2142 -1.1521
 1909SOL    HW2 5727   0.273   3.977   3.940  0.5888  1.4490  0.3850
 1910SOL     OW 5728   3.667   0.655   2.605  0.1044  0.1135 -0.1134
 1910SOL    HW1 5729   3.666   0.685   2.514 -1.2802  0.3731 -0.0318
 1910SOL    HW2 5730   3.605   0.712   2.650  2.5477  1.6456  1.5681
 1911SOL     OW 5731   2.876   1.940   0.683  0.3052 -0.3172  0.5664
 1911SOL    HW1 5732   2.900   1.863   0.733 -0.4527 -0.4736  0.6922
 1911SOL    HW2 5733   2.899   1.918   0.592 -0.2412 -0.8289  0.5498
 1912SOL     OW 5734   2.076   2.043   0.794 -0.0444  0.6788  0.1456
 1912SOL    HW1 5735   2.031   2.107   0.848  1.5926  0.1331  2.2759
 1912SOL    HW2 5736   2.023   1.963   0.801 -1.3101  1.3214 -1.3705
 1913SOL     OW 5737   2.638   0.911   3.494 -0.2795  0.0540  0.0074
 1913SOL    HW1 5738   2.615   0.819   3.484  2.3710 -0.6159 -0.6601
 1913SOL    HW2 5739   2.631   0.947   3.405 -3.0893  1.0463  0.5340
 1914SOL     OW 5740   2.548   0.474   2.522 -0.7829 -0.6334  0.5248
 1914SOL    HW1 5741   2.475   0.417   2.498 -0.1903 -1.6926  1.1630
 1914SOL    HW2 5742   2.516   0.524   2.597 -1.1224 -0.5051  0.2966
 1915SOL     OW 5743   1.860   0.059   3.248  0.3188  0.0736 -0.0872
 1915SOL    HW1 5744   1.797   0.039   3.178 -1.4171 -0.8270  1.6096
 1915SOL    HW2 5745   1.870  -0.024   3.295  2.2960  0.3851  0.1010
 1916SOL     OW 5746   1.671   3.908   3.101  0.7496  0.6105 -0.3954
 1916SOL    HW1 5747   1.645   3.862   3.021 -1.6237  0.6836  0.2620
 1916SOL    HW2 5748   1.658   3.844   3.171 -1.3334  1.7918  0.3795
 1917SOL     OW 5749   1.592   3.979   0.521  0.1326  0.1693  0.0881
 1917SOL    HW1 5750   1.655   3.986   0.450 -1.2292 -0.8328 -1.2883
 1917SOL    HW2 5751   1.601   3.889   0.553 -0.8770 -0.1436 -0.4453
 1918SOL     OW 5752   0.851   3.322   3.397  0.3339  0.6442 -0.4911
 1918SOL    HW1 5753   0.918   3.353   3.458 -0.7567  0.6615  0.7463
 1918SOL    HW2 5754   0.768   3.347   3.438 -0.4330  0.7727 -2.0654
 1919SOL     OW 5755   2.689   0.102   0.390  0.0100  0.0894 -0.1434
 1919SOL    HW1 5756   2.666   0.174   0.332 -1.0789 -0.3431 -0.2728
 1919SOL    HW2 5757   2.639   0.028   0.357  0.1536 -0.4149  0.7422
 1920SOL     OW 5758   0.249   2.665   3.420  0.1394 -0.0651 -0.3886
 1920SOL    HW1 5759   0.282   2.613   3.493 -0.9841  0.0287  0.2059
 1920SOL    HW2 5760   0.246   2.604   3.346 -0.9792 -0.8067  0.2488
 1921SOL     OW 5761   1.696   2.609   3.162  0.0717 -0.5676  0.1557
 1921SOL    HW1 5762   1.762   2.588   3.228 -1.0336 -0.3537  1.3979
 1921SOL    HW2 5763   1.632   2.662   3.210 -0.5528 -0.0292 -1.2224
 1922SOL     OW 5764   3.354   0.262   2.204 -0.4479 -0.3817 -0.1371
 1922SOL    HW1 5765   3.272   0.229   2.241 -0.4000 -0.0983  0.2331
 1922SOL    HW2 5766   3.413   0.268   2.280 -0.7573  1.5025 -0.0128
 1923SOL     OW 5767   1.559   2.824   3.351  0.6963 -0.0874 -0.0596
 1923SOL    HW1 5768   1.567   2.898   3.412 -1.8905  0.0529  0.2073
 1923SOL    HW2 5769   1.489   2.770   3.387  0.6832 -1.2430 -1.6905
 1924SOL     OW 5770   2.812   3.159   2.439 -0.0303  0.5867  0.4457
 1924SOL    HW1 5771   2.836   3.206   2.519 -1.1787  0.8323  0.6667
 1924SOL    HW2 5772   2.718   3.176   2.429  0.4140  2.1083 -1.9625
 1925SOL     OW 5773   2.559   0.263   0.577  0.4634 -0.0797 -0.1884
 1925SOL    HW1 5774   2.555   0.355   0.601  0.4344  0.0045 -0.5199
 1925SOL    HW2 5775   2.634   0.256   0.519  0.8678 -0.3855  0.3586
 1926SOL     OW 5776   0.570   0.808   2.018 -0.0695  0.0070  0.1733
 1926SOL    HW1 5777   0.571   0.717   2.048 -1.9144  0.2638  1.1701
 1926SOL    HW2 5778   0.502   0.850   2.071  1.1742  2.1451  0.1994
 1927SOL     OW 5779   2.991   1.295   3.092  0.1595  0.1684  0.3166
 1927SOL    HW1 5780   3.059   1.363   3.092  0.1467  0.1987 -0.8053
 1927SOL    HW2 5781   2.922   1.331   3.036 -0.6410 -0.0039  1.1807
 1928SOL     OW 5782   3.553   2.229   2.744 -0.3293  0.2011  0.1065
 1928SOL    HW1 5783   3.574   2.224   2.838  0.2092 -0.8873 -0.0552
 1928SOL    HW2 5784   3.638   2.222   2.700 -0.4326  2.0670 -0.4542
 1929SOL     OW 5785   3.524   0.173   0.946  0.3739  0.4342  0.3994
 1929SOL    HW1 5786   3.459   0.123   0.997 -0.1733  0.5789 -0.1439
 1929SOL    HW2 5787   3.535   0.254   0.995  2.6860 -0.9013  2.3460
 1930SOL     OW 5788   1.942   3.176   1.740 -0.1193 -0.5450  0.7847
 1930SOL    HW1 5789   1.926   3.158   1.833 -1.2522  2.3593  1.2517
 1930SOL    HW2 5790   2.023   3.227   1.739 -2.4290  3.5614  0.8820
 1931SOL     OW 5791   3.487   2.341   0.041  0.0664  0.5110 -0.2427
 1931SOL    HW1 5792   3.457   2.392  -0.035 -0.5588 -1.2482 -1.2231
 1931SOL    HW2 5793   3.406   2.314   0.085  0.4136  0.9614  0.7038
 1932SOL     OW 5794   2.706   2.345   3.563  0.3031 -0.5872  0.1268
 1932SOL    HW1 5795   2.691   2.382   3.650 -0.7184 -0.0930 -0.2425
 1932SOL    HW2 5796   2.649   2.269   3.559  0.4605 -0.6950 -0.0607
 1933SOL     OW 5797   1.658   1.239   0.195 -0.0437  0.5384 -0.0770
 1933SOL    HW1 5798   1.664   1.143   0.196 -3.3653  0.2521  1.2764
 1933SOL    HW2 5799   1.689   1.266   0.281  0.4614  0.6714 -0.2959
 1934SOL     OW 5800   3.932   2.919   1.021  0.2365  0.3648 -0.2612
 1934SOL    HW1 5801   3.955   2.841   0.970  0.8175 -0.9437  1.8864
 1934SOL    HW2 5802   3.853   2.894   1.069  0.1100  1.3026  0.0442
 1935SOL     OW 5803   3.779   2.034   1.654 -0.6937  0.2062 -0.0501
 1935SOL    HW1 5804   3.842   2.034   1.582 -2.1368 -0.6109 -1.3678
 1935SOL    HW2 5805   3.804   2.110   1.707  2.0112 -0.6439  0.0796
 1936SOL     OW 5806   2.574   3.767   2.321 -0.0713 -0.0380 -0.0060
 1936SOL    HW1 5807   2.635   3.835   2.291  0.2947  0.0936  1.0107
 1936SOL    HW2 5808   2.555   3.790   2.412  2.7955 -3.1718  1.6026
 1937SOL     OW 5809   0.656   2.937   2.796 -0.2353  0.0609  0.0545
 1937SOL    HW1 5810   0.747   2.924   2.822  0.1362 -0.5056 -1.4316
 1937SOL    HW2 5811   0.625   2.850   2.770 -0.5905  0.5426 -1.2418
 1938SOL     OW 5812   1.660   0.073   1.736  0.1344 -1.1720  0.1112
 1938SOL    HW1 5813   1.743   0.052   1.693  0.0166 -1.6827  0.1302
 1938SOL    HW2 5814   1.615  -0.011   1.744 -0.3105 -0.9229  0.2594
 1939SOL     OW 5815   2.316   0.715   1.068  0.3816 -0.1091 -0.1484
 1939SOL    HW1 5816   2.387   0.651   1.063 -0.6301 -1.3081  0.2868
 1939SOL    HW2 5817   2.302   0.728   1.162 -0.0837 -0.0143 -0.2283
 1940SOL     OW 5818   1.214   2.432   1.136  0.0862  0.5768 -0.4251
 1940SOL    HW1 5819   1.293   2.467   1.095  0.8238  2.3318  2.2347
 1940SOL    HW2 5820   1.246   2.370   1.201 -0.7850  0.5762  0.0147
 1941SOL     OW 5821   0.481   3.133   3.744  0.6839  0.7234  0.3729
 1941SOL    HW1 5822   0.435   3.171   3.819 -0.0486  0.2097  0.1866
 1941SOL    HW2 5823   0.425   3.153   3.669 -0.9709 -2.7482  0.5415
 1942SOL     OW 5824   0.108   0.797   1.921 -0.3972 -0.1429  0.6232
 1942SOL    HW1 5825   0.025   0.756   1.946 -1.2195  1.5153  0.7526
 1942SOL    HW2 5826   0.169   0.772   1.991  0.0372 -3.5507 -0.7464
 1943SOL     OW 5827   3.800   0.958   0.379  0.8288  0.1456 -0.2475
 1943SOL    HW1 5828   3.863   0.994   0.441 -0.3372  0.7613  0.6377
 1943SOL    HW2 5829   3.824   0.866   0.370  0.4385 -0.2218  1.9300
 1944SOL     OW 5830   1.279   0.523   2.357 -0.9853 -0.4129 -0.1411
 1944SOL    HW1 5831   1.254   0.483   2.273 -0.7044 -1.4054  0.2370
 1944SOL    HW2 5832   1.323   0.453   2.405 -0.3612  0.3967  0.4966
 1945SOL     OW 5833   3.638   2.281   3.007 -0.2843 -0.4572  0.0462
 1945SOL    HW1 5834   3.640   2.297   3.101 -1.6491  0.5036 -0.0497
 1945SOL    HW2 5835   3.671   2.192   2.997 -0.4880 -0.7216  1.4785
 1946SOL     OW 5836   3.428   1.648   2.731 -0.3047 -1.0185  0.2946
 1946SOL    HW1 5837   3.360   1.706   2.768 -0.7836 -0.9345 -0.6790
 1946SOL    HW2 5838   3.510   1.691   2.754 -0.6241 -0.4180  0.3511
 1947SOL     OW 5839   3.927   1.855   0.052 -0.0581 -0.0271 -0.4550
 1947SOL    HW1 5840   3.899   1.946   0.048 -1.0246 -0.3177 -0.5790
 1947SOL    HW2 5841   3.990   1.846  -0.019 -0.8723  0.2524 -1.2306
 1948SOL     OW 5842   1.885   2.439   3.776  0.4831  0.5422  0.3220
 1948SOL    HW1 5843   1.898   2.444   3.682  1.3063 -0.6905  0.3547
 1948SOL    HW2 5844   1.865   2.529   3.802 -2.7010  0.4809 -1.4085
 1949SOL     OW 5845   2.807   2.828   3.203 -0.0332 -0.3059 -0.6782
 1949SOL    HW1 5846   2.767   2.913   3.223  0.3909  0.1530 -1.7383
 1949SOL    HW2 5847   2.737   2.764   3.219 -0.0630  0.1095  1.1442
 1950SOL     OW 5848   0.804   1.471   3.286  0.5522 -0.3666  1.1073
 1950SOL    HW1 5849   0.710   1.452   3.279  0.2937  1.2157 -0.3952
 1950SOL    HW2 5850   0.842   1.390   3.321 -1.1403 -1.6559  0.1422
 1951SOL     OW 5851   3.226   2.271   2.729 -0.0874  0.1224  0.5502
 1951SOL    HW1 5852   3.229   2.224   2.813 -0.4002 -0.8189  0.0509
 1951SOL    HW2 5853   3.296   2.230   2.677  1.2962  1.8848  0.9228
 1952SOL     OW 5854   3.575   2.719   0.114  0.0277 -0.4580 -0.1656
 1952SOL    HW1 5855   3.528   2.675   0.185 -1.0729 -2.1690 -1.8808
 1952SOL    HW2 5856   3.508   2.736   0.048  1.2108  0.1697 -1.2463
 1953SOL     OW 5857   4.017   2.537   2.702  0.2899 -0.6034 -0.2853
 1953SOL    HW1 5858   3.930   2.512   2.735  0.3206 -1.8641 -1.1048
 1953SOL    HW2 5859   4.002   2.559   2.610  0.8438 -0.9210 -0.4560
 1954SOL     OW 5860   1.797   1.299   3.958  0.4721 -0.1051  0.2022
 1954SOL    HW1 5861   1.791   1.244   3.879  0.9213  1.2950 -0.8566
 1954SOL    HW2 5862   1.717   1.279   4.006  0.3317 -1.2304 -0.4496
 1955SOL     OW 5863   2.945   2.300   1.609 -0.2038  0.4503 -0.8168
 1955SOL    HW1 5864   2.994   2.256   1.679 -2.1182  1.6825  1.4237
 1955SOL    HW2 5865   3.009   2.361   1.570  0.6052  0.5921  0.6593
 1956SOL     OW 5866   2.293   1.839   1.221 -0.0226  1.0111  0.4520
 1956SOL    HW1 5867   2.214   1.845   1.168 -0.8617  1.2365  1.6812
 1956SOL    HW2 5868   2.302   1.746   1.242 -0.1390  1.0252  0.5652
 1957SOL     OW 5869   2.492   3.064   3.893  0.1887 -0.1507 -1.1111
 1957SOL    HW1 5870   2.532   3.014   3.822  0.8814 -0.6152 -0.4008
 1957SOL    HW2 5871   2.560   3.127   3.919  0.7114 -1.3149  0.4787
 1958SOL     OW 5872   2.378   3.912   0.173  0.1435 -0.4614  0.1869
 1958SOL    HW1 5873   2.344   3.983   0.119 -0.7097 -2.5411 -2.1935
 1958SOL    HW2 5874   2.312   3.901   0.242 -1.1824 -0.7266 -1.0694
 1959SOL     OW 5875   3.542   0.128   1.394 -0.6655 -0.2961 -0.0050
 1959SOL    HW1 5876   3.601   0.109   1.466 -1.0548  0.4561  0.5224
 1959SOL    HW2 5877   3.456   0.098   1.424 -0.8944  0.3462 -0.0058
 1960SOL     OW 5878   1.852   0.359   0.461 -0.9042  0.0545 -0.1292
 1960SOL    HW1 5879   1.932   0.351   0.512  0.2582 -0.9552 -2.0012
 1960SOL    HW2 5880   1.793   0.410   0.516  0.6537 -0.0437  1.7194
 1961SOL     OW 5881   1.734   2.946   0.894 -0.0377 -0.6038 -0.4283
 1961SOL    HW1 5882   1.672   2.881   0.861  0.6250 -1.0818 -0.7533
 1961SOL    HW2 5883   1.747   2.923   0.986  0.1618 -0.9048 -0.5317
 1962SOL     OW 5884   0.549   2.893   0.531  0.4754  1.0232  0.3717
 1962SOL    HW1 5885   0.530   2.825   0.596  0.6414 -0.6011 -1.1884
 1962SOL    HW2 5886   0.608   2.953   0.576 -0.3855  0.6497  2.0983
 1963SOL     OW 5887   3.358   3.263   3.755  0.4735 -0.2924 -0.3994
 1963SOL    HW1 5888   3.283   3.215   3.719 -0.2146  0.0392  0.5660
 1963SOL    HW2 5889   3.410   3.196   3.799  0.1472 -0.3400 -0.0875
 1964SOL     OW 5890   2.539   0.382   3.791 -0.1421 -0.3985  0.3991
 1964SOL    HW1 5891   2.553   0.392   3.885  0.0869 -0.3593  0.3610
 1964SOL    HW2 5892   2.444   0.384   3.780 -0.1557 -0.0966  0.5930
 1965SOL     OW 5893   0.600   1.535   3.739 -0.0534 -0.2417 -0.1809
 1965SOL    HW1 5894   0.639   1.450   3.760  0.0509 -0.1816 -0.1293
 1965SOL    HW2 5895   0.546   1.518   3.662  0.7998 -0.1421 -0.8216
 1966SOL     OW 5896   2.100   0.592   3.828 -0.2340 -0.4809  0.0474
 1966SOL    HW1 5897   2.008   0.564   3.827 -0.1780 -0.6958 -1.4338
 1966SOL    HW2 5898   2.097   0.685   3.806 -0.0916 -0.4478  0.1641
 1967SOL     OW 5899   0.148   0.683   1.339  0.2859  0.2744  0.2546
 1967SOL    HW1 5900   0.240   0.662   1.323  1.0895  0.5777  3.6789
 1967SOL    HW2 5901   0.114   0.606   1.384 -1.0989  0.2829 -0.7319
 1968SOL     OW 5902   1.449   3.263   3.508 -0.5840  0.1832 -1.1908
 1968SOL    HW1 5903   1.354   3.271   3.514 -0.4163  1.4405  0.6967
 1968SOL    HW2 5904   1.465   3.170   3.492 -2.0483 -0.8278  2.3214
 1969SOL     OW 5905   3.184   2.668   0.811 -0.7951 -0.2042  0.4273
 1969SOL    HW1 5906   3.124   2.719   0.867 -1.8971 -0.0031 -0.8770
 1969SOL    HW2 5907   3.171   2.577   0.838 -2.7739 -0.3287 -0.7272
 1970SOL     OW 5908   2.162   0.034   3.191  0.7716  0.6278 -0.1340
 1970SOL    HW1 5909   2.226   0.025   3.261  0.3090 -1.0040  0.1301
 1970SOL    HW2 5910   2.083   0.065   3.235  1.4090  3.0177 -0.5165
 1971SOL     OW 5911   3.671   0.146   3.203  0.0912  0.0801 -0.3373
 1971SOL    HW1 5912   3.699   0.061   3.238 -3.1878 -0.4427  1.4210
 1971SOL    HW2 5913   3.670   0.203   3.279  0.7612  1.3040 -1.2228
 1972SOL     OW 5914   0.740   2.728   3.475 -0.2360  0.7390  0.7918
 1972SOL    HW1 5915   0.672   2.730   3.542  0.8074 -0.1926  1.9373
 1972SOL    HW2 5916   0.821   2.712   3.524  0.4600 -0.7970 -0.7446
 1973SOL     OW 5917   0.714   0.549   3.760  0.4642  0.3999  0.2172
 1973SOL    HW1 5918   0.800   0.509   3.777 -0.2361 -1.1002  0.4136
 1973SOL    HW2 5919   0.715   0.566   3.666  1.5397  1.8214  0.4584
 1974SOL     OW 5920   0.943   3.836   2.391  0.0466 -0.4056 -0.5074
 1974SOL    HW1 5921   0.918   3.800   2.306 -0.2682 -0.4853 -0.3813
 1974SOL    HW2 5922   0.896   3.920   2.396 -0.3340 -0.6354 -0.1979
 1975SOL     OW 5923   2.586   1.091   1.198 -0.1581 -0.2997 -0.2272
 1975SOL    HW1 5924   2.534   1.119   1.274  0.3777  1.3634 -0.4217
 1975SOL    HW2 5925   2.523   1.086   1.127 -0.2432  0.7850 -0.2519
 1976SOL     OW 5926   0.353   1.786   1.495  0.4255 -0.1284  0.0696
 1976SOL    HW1 5927   0.295   1.853   1.460 -1.2421 -0.9916  1.0501
 1976SOL    HW2 5928   0.428   1.786   1.436 -0.6046  0.9685 -1.3028
 1977SOL     OW 5929   3.417   0.729   3.386  0.2282  0.2401 -0.1706
 1977SOL    HW1 5930   3.356   0.767   3.448 -1.1441 -1.5258 -0.3533
 1977SOL    HW2 5931   3.434   0.799   3.323 -0.4851  1.2109  0.6852
 1978SOL     OW 5932   1.669   1.252   0.901 -0.3188 -0.0372 -0.2373
 1978SOL    HW1 5933   1.575   1.241   0.885  0.0616 -1.4070 -1.8464
 1978SOL    HW2 5934   1.701   1.299   0.824  0.0296  2.4512  1.3003
 1979SOL     OW 5935   0.908   3.597   0.716  0.6042  0.4558  0.2769
 1979SOL    HW1 5936   0.988   3.567   0.760  0.2427 -1.8102 -0.4710
 1979SOL    HW2 5937   0.934   3.610   0.625  0.1051 -0.5484 -0.0265
 1980SOL     OW 5938   3.226   0.480   3.886  0.0938  0.0689  0.3382
 1980SOL    HW1 5939   3.259   0.569   3.872  1.0257 -0.2839  0.2007
 1980SOL    HW2 5940   3.232   0.466   3.980  2.0956 -0.6209  0.1547
 1981SOL     OW 5941   1.815   2.322   3.522  0.2851  0.2234  0.0321
 1981SOL    HW1 5942   1.880   2.253   3.503 -0.1977  0.0512 -1.0728
 1981SOL    HW2 5943   1.733   2.274   3.534  0.5205  0.3137  2.7125
 1982SOL     OW 5944   1.949   3.517   1.381 -0.3516  0.0604  0.4105
 1982SOL    HW1 5945   2.020   3.580   1.392 -0.7197  0.3447  1.2218
 1982SOL    HW2 5946   1.983   3.453   1.318 -0.0057  1.0976 -0.4737
 1983SOL     OW 5947   3.925   0.063   1.319 -0.2833  0.2941  0.4938
 1983SOL    HW1 5948   3.947  -0.016   1.368 -0.2954  0.4877  0.8144
 1983SOL    HW2 5949   3.887   0.121   1.384 -3.7415 -0.7806 -0.3234
 1984SOL     OW 5950   0.906   3.771   0.044  0.0354 -0.6609 -0.4692
 1984SOL    HW1 5951   0.995   3.805   0.048  0.8122 -2.6399  0.4348
 1984SOL    HW2 5952   0.861   3.813   0.117 -0.1136  1.1235 -1.5380
 1985SOL     OW 5953   3.176   1.674   0.084  0.3005  0.5457 -0.9256
 1985SOL    HW1 5954   3.256   1.687   0.034  0.6346 -1.9139 -1.1204
 1985SOL    HW2 5955   3.202   1.620   0.158 -1.0680  0.2185 -0.6571
 1986SOL     OW 5956   2.950   3.900   1.666  0.5064 -0.3716  0.4758
 1986SOL    HW1 5957   2.972   3.969   1.604 -1.3354 -0.2830 -0.1265
 1986SOL    HW2 5958   2.935   3.823   1.612 -3.2308  0.2035  0.4592
 1987SOL     OW 5959   3.794   1.291   0.662 -0.6753  0.6029 -0.2957
 1987SOL    HW1 5960   3.703   1.306   0.689  0.0431  1.6898  1.6519
 1987SOL    HW2 5961   3.835   1.377   0.666  0.4749  0.1090 -1.0739
 1988SOL     OW 5962   2.068   0.803   0.344  0.7537  0.9743  0.2038
 1988SOL    HW1 5963   2.054   0.728   0.287  0.9409  1.4099 -0.4332
 1988SOL    HW2 5964   1.982   0.823   0.379  0.9899 -0.6219  1.7889
 1989SOL     OW 5965   0.785   1.848   2.695 -0.1518  0.6227 -0.3334
 1989SOL    HW1 5966   0.771   1.848   2.601  0.2485  0.0253 -0.3981
 1989SOL    HW2 5967   0.745   1.929   2.726 -1.8612 -0.0071 -0.7814
 1990SOL     OW 5968   3.657   0.899   3.910 -0.1308  0.1522 -0.3937
 1990SOL    HW1 5969   3.721   0.921   3.977 -0.1551 -2.5835  0.6381
 1990SOL    HW2 5970   3.702   0.838   3.852 -1.0176  0.2378 -1.2026
 1991SOL     OW 5971   1.075   3.024   2.147 -0.0982 -0.0296  0.1432
 1991SOL    HW1 5972   0.982   3.027   2.171  0.4155 -0.0007  2.3498
 1991SOL    HW2 5973   1.075   3.030   2.052 -2.2618  2.2440  0.1765
 1992SOL     OW 5974   2.466   2.535   0.888  0.0847 -0.4136 -0.1425
 1992SOL    HW1 5975   2.456   2.442   0.865  0.6866 -0.4828 -0.1464
 1992SOL    HW2 5976   2.450   2.581   0.806  0.6526 -0.5710 -0.3523
 1993SOL     OW 5977   1.344   3.710   2.050  0.2156 -0.3156  0.1692
 1993SOL    HW1 5978   1.324   3.666   1.968  0.2547 -2.6803  1.3432
 1993SOL    HW2 5979   1.263   3.753   2.075 -1.0778 -2.8860  0.7760
 1994SOL     OW 5980   1.399   2.744   0.601  0.4454  0.1680  0.8564
 1994SOL    HW1 5981   1.491   2.754   0.574  0.8347 -0.1883  1.9871
 1994SOL    HW2 5982   1.367   2.671   0.548  0.4966  0.9592 -0.2972
 1995SOL     OW 5983   0.329   2.686   0.935 -0.0625  0.0847 -0.3709
 1995SOL    HW1 5984   0.391   2.694   1.007 -2.2078  1.3900  1.4939
 1995SOL    HW2 5985   0.277   2.608   0.956 -0.8664  0.6162 -0.3181
 1996SOL     OW 5986   1.067   2.561   1.738  0.0166  0.9586  0.1941
 1996SOL    HW1 5987   0.982   2.605   1.736  0.9614  2.8632 -0.2385
 1996SOL    HW2 5988   1.123   2.614   1.682  1.9170  0.6593  1.7129
 1997SOL     OW 5989   0.794   2.944   2.009 -0.1073 -0.9036  0.1187
 1997SOL    HW1 5990   0.848   2.919   1.934 -0.2861 -0.9660  0.0089
 1997SOL    HW2 5991   0.804   2.872   2.072 -0.9227 -1.4516 -0.3531
 1998SOL     OW 5992   2.854   2.141   2.230 -0.2262  0.3489  0.0138
 1998SOL    HW1 5993   2.924   2.195   2.267  0.3217  0.8874 -1.7193
 1998SOL    HW2 5994   2.780   2.154   2.289  1.7967 -2.3768  3.5403
 1999SOL     OW 5995   3.267   2.420   0.961  0.2779 -0.3894  0.7917
 1999SOL    HW1 5996   3.280   2.432   1.055 -3.5657  0.3401  1.4219
 1999SOL    HW2 5997   3.207   2.346   0.954 -0.8408  0.6085 -0.9216
 2000SOL     OW 5998   0.567   0.055   1.238 -0.1007  0.4397  0.0129
 2000SOL    HW1 5999   0.625   0.106   1.182 -2.4803  2.5278 -0.7680
 2000SOL    HW2 6000   0.540  -0.019   1.184 -0.4195  1.0674 -0.7036
 2001SOL     OW 6001   0.071   3.019   1.388  0.0321  0.4864 -1.0435
 2001SOL    HW1 6002   0.073   3.044   1.296 -1.6973 -0.7126 -1.4668
 2001SOL    HW2 6003   0.001   3.072   1.426  0.3103  0.5123 -0.5570
 2002SOL     OW 6004   2.591   3.794   3.942  0.3218  0.4556 -0.0770
 2002SOL    HW1 6005   2.567   3.743   3.865 -0.1424 -0.5555  0.7191
 2002SOL    HW2 6006   2.522   3.860   3.951 -0.8762 -0.8550  0.7547
 2003SOL     OW 6007   3.405   1.353   3.125  0.6591  0.0243 -0.6160
 2003SOL    HW1 6008   3.459   1.431   3.142  0.3503 -0.1209  1.2443
 2003SOL    HW2 6009   3.379   1.362   3.034  2.9423  0.6528 -1.2911
 2004SOL     OW 6010   3.091   2.183   1.800  0.1697  0.0257 -0.0903
 2004SOL    HW1 6011   3.148   2.110   1.775 -1.1712 -1.3869  0.7706
 2004SOL    HW2 6012   3.034   2.146   1.867 -2.0357  1.2402 -1.2063
 2005SOL     OW 6013   2.590   3.711   2.916 -0.3904  0.0183  0.7552
 2005SOL    HW1 6014   2.607   3.650   2.988  0.4183 -2.2221 -1.2093
 2005SOL    HW2 6015   2.657   3.778   2.926  2.5924 -2.5448 -0.2344
 2006SOL     OW 6016   2.732   1.535   2.411 -0.6084 -0.2125 -0.8131
 2006SOL    HW1 6017   2.684   1.575   2.483 -0.8205  0.2415 -1.1957
 2006SOL    HW2 6018   2.808   1.494   2.452 -1.8231 -1.8045 -0.0821
 2007SOL     OW 6019   0.673   4.020   1.467 -0.3063 -0.6462 -0.3662
 2007SOL    HW1 6020   0.677   3.927   1.491 -2.5102 -0.3923  1.3368
 2007SOL    HW2 6021   0.601   4.025   1.404 -1.7513  0.1069  1.2264
 2008SOL     OW 6022   2.634   0.909   2.600  0.4510  0.2658  0.9956
 2008SOL    HW1 6023   2.684   0.834   2.568 -0.0386  0.5588 -0.5068
 2008SOL    HW2 6024   2.546   0.876   2.613  0.2755  0.5348  0.4980
 2009SOL     OW 6025   2.124   1.284   0.330  0.0641 -0.4341  1.1996
 2009SOL    HW1 6026   2.176   1.329   0.263  1.8345  1.6521  3.7542
 2009SOL    HW2 6027   2.034   1.315   0.315  0.5420  0.5720  0.2322
 2010SOL     OW 6028   1.745   0.822   2.376 -0.8104  0.0222 -0.5531
 2010SOL    HW1 6029   1.795   0.821   2.458  0.5665 -0.1442 -1.3595
 2010SOL    HW2 6030   1.745   0.914   2.349 -1.0623  0.0429 -0.4798
 2011SOL     OW 6031   2.373   3.401   2.649 -0.0423 -0.1349 -0.5497
 2011SOL    HW1 6032   2.369   3.477   2.591 -2.1994 -0.3475 -0.7713
 2011SOL    HW2 6033   2.295   3.350   2.627  2.0801 -3.2352 -1.4682
 2012SOL     OW 6034   0.513   3.282   2.372  0.1731  0.2438  0.3216
 2012SOL    HW1 6035   0.551   3.370   2.381 -1.1752  0.6687  2.7012
 2012SOL    HW2 6036   0.561   3.243   2.298 -0.4417  3.5964 -2.0980
 2013SOL     OW 6037   0.972   0.448   3.777  0.3573 -0.0015 -0.3307
 2013SOL    HW1 6038   1.032   0.374   3.782  0.4216 -0.1055 -1.9691
 2013SOL    HW2 6039   1.027   0.523   3.756  0.1639  0.3246  0.2994
 2014SOL     OW 6040   2.193   1.390   2.086  0.1022  0.6619  0.3870
 2014SOL    HW1 6041   2.253   1.441   2.032  1.6483 -0.4975  0.9371
 2014SOL    HW2 6042   2.168   1.316   2.030 -0.3939  0.8619  0.3429
 2015SOL     OW 6043   1.671   2.956   2.055  0.8573 -0.2900  0.4789
 2015SOL    HW1 6044   1.588   2.925   2.020  1.0194  1.0452 -1.2414
 2015SOL    HW2 6045   1.650   2.989   2.143 -0.4822  0.2052 -0.0109
 2016SOL     OW 6046   2.742   0.668   2.534  0.0576 -0.0228 -0.3807
 2016SOL    HW1 6047   2.797   0.642   2.460  0.8346  0.0915  0.1499
 2016SOL    HW2 6048   2.670   0.605   2.533  0.9420 -1.0623 -0.2359
 2017SOL     OW 6049   2.309   3.629   2.449  0.5531 -0.0004 -0.4526
 2017SOL    HW1 6050   2.361   3.694   2.402  1.8744  1.7698  3.0493
 2017SOL    HW2 6051   2.222   3.669   2.456  0.8815  0.6378  0.1710
 2018SOL     OW 6052   2.842   2.531   2.925 -0.4916 -0.1675  0.1385
 2018SOL    HW1 6053   2.824   2.617   2.964 -0.3091 -0.7136  1.4710
 2018SOL    HW2 6054   2.756   2.495   2.905 -0.5626  0.4065 -0.6327
 2019SOL     OW 6055   3.929   3.268   0.655  0.1246 -0.4454 -0.1277
 2019SOL    HW1 6056   3.961   3.216   0.729 -1.0052  1.9610  2.1874
 2019SOL    HW2 6057   3.964   3.356   0.669 -0.4900  0.2143 -2.2457
 2020SOL     OW 6058   3.697   2.826   1.809 -0.5998 -0.4115 -0.1490
 2020SOL    HW1 6059   3.714   2.920   1.818 -0.4373 -0.4192 -0.3892
 2020SOL    HW2 6060   3.674   2.814   1.717  0.9302 -0.8552 -0.4994
 2021SOL     OW 6061   0.572   3.887   3.570  0.1737  0.2304 -0.2903
 2021SOL    HW1 6062   0.520   3.961   3.603 -0.2391  0.8867 -2.2870
 2021SOL    HW2 6063   0.655   3.927   3.543 -0.3547  0.1411 -2.1338
 2022SOL     OW 6064   2.318   1.970   0.705 -0.5240 -0.1444  0.3904
 2022SOL    HW1 6065   2.237   1.985   0.753 -0.9354  2.4171 -0.9422
 2022SOL    HW2 6066   2.300   1.894   0.650 -1.1347 -1.0972  1.8447
 2023SOL     OW 6067   1.795   1.626   0.574  0.7927  0.4158 -0.0417
 2023SOL    HW1 6068   1.849   1.612   0.496  0.5832  1.7581 -0.4638
 2023SOL    HW2 6069   1.843   1.690   0.626 -0.2491  1.4627 -0.3174
 2024SOL     OW 6070   3.808   0.108   0.385 -0.2072 -0.3737  0.3498
 2024SOL    HW1 6071   3.883   0.069   0.430  1.1601  1.2408 -0.4490
 2024SOL    HW2 6072   3.738   0.043   0.396  1.2670 -1.9228  1.1369
 2025SOL     OW 6073   1.561   2.965   2.304 -0.0738  0.1139 -0.1962
 2025SOL    HW1 6074   1.472   2.940   2.278  0.1430 -1.8326  0.7847
 2025SOL    HW2 6075   1.559   3.061   2.306 -1.8367  0.1331 -1.2290
 2026SOL     OW 6076   0.079   0.060   3.003  0.0422  0.4181 -0.7012
 2026SOL    HW1 6077   0.096   0.070   2.910 -0.2248  1.4222 -0.6586
 2026SOL    HW2 6078  -0.016   0.047   3.009  0.2380 -1.1150 -0.6621
 2027SOL     OW 6079   1.852   0.257   0.863  0.6947  0.0762 -0.3184
 2027SOL    HW1 6080   1.895   0.204   0.796 -0.0822  1.0843 -1.6905
 2027SOL    HW2 6081   1.916   0.324   0.886  1.4546 -1.0469  0.9746
 2028SOL     OW 6082   0.961   0.722   2.975  0.2451  0.2245  0.0686
 2028SOL    HW1 6083   1.033   0.773   3.013  0.1741 -0.1984  0.7929
 2028SOL    HW2 6084   0.882   0.759   3.015 -0.1929  2.1150 -2.2924
 2029SOL     OW 6085   3.904   3.505   1.607  0.0034  0.6344  0.3045
 2029SOL    HW1 6086   3.931   3.587   1.648 -0.4059  1.2100 -0.5411
 2029SOL    HW2 6087   3.965   3.493   1.534  1.1589 -0.7329  1.4213
 2030SOL     OW 6088   0.401   3.982   3.779  0.3599  0.2562 -0.1651
 2030SOL    HW1 6089   0.380   3.892   3.805 -1.0501  1.2110  2.3610
 2030SOL    HW2 6090   0.348   3.998   3.701 -1.6216 -0.2512  1.0182
 2031SOL     OW 6091   2.742   2.580   1.538  0.2232 -0.2829 -0.4758
 2031SOL    HW1 6092   2.747   2.519   1.611 -0.0573  0.6028  0.3022
 2031SOL    HW2 6093   2.834   2.600   1.516  0.3586 -1.9543 -1.6040
 2032SOL     OW 6094   2.625   3.438   0.291  0.8481  0.0602  0.4465
 2032SOL    HW1 6095   2.683   3.400   0.357  2.1275 -1.3399 -1.3741
 2032SOL    HW2 6096   2.677   3.507   0.251  0.5863 -0.0061 -0.0118
 2033SOL     OW 6097   3.573   1.277   2.870  0.0573 -0.1618  0.0807
 2033SOL    HW1 6098   3.607   1.320   2.949 -1.0208  0.9223 -0.0062
 2033SOL    HW2 6099   3.544   1.191   2.901  1.1927 -0.4123  0.5036
 2034SOL     OW 6100   3.377   3.509   3.222  0.3540  0.0375  0.1352
 2034SOL    HW1 6101   3.336   3.456   3.153  2.7315 -1.8375  0.0509
 2034SOL    HW2 6102   3.453   3.549   3.180  1.2314 -0.2563  1.3948
 2035SOL     OW 6103   3.390   2.126   2.547 -0.1925  0.0178 -0.3941
 2035SOL    HW1 6104   3.418   2.043   2.508 -0.8509 -0.4637  0.1191
 2035SOL    HW2 6105   3.469   2.165   2.583  0.6916  1.0564 -3.1715
 2036SOL     OW 6106   3.471   1.004   2.107 -0.0061  0.7621  0.4432
 2036SOL    HW1 6107   3.496   1.031   2.195  1.0567  0.4780  0.2334
 2036SOL    HW2 6108   3.553   1.000   2.058 -0.2945 -1.2642  0.0477
 2037SOL     OW 6109   2.199   0.108   2.191 -0.3869 -0.5718 -0.3181
 2037SOL    HW1 6110   2.290   0.094   2.217 -0.1061 -2.4096 -2.0281
 2037SOL    HW2 6111   2.176   0.193   2.229  2.3489  0.4459 -0.6906
 2038SOL     OW 6112   0.475   2.432   2.696 -0.4276  0.0580 -0.0013
 2038SOL    HW1 6113   0.425   2.373   2.639  1.4819 -1.8438  0.1698
 2038SOL    HW2 6114   0.518   2.374   2.759  0.6129  1.7635  0.9369
 2039SOL     OW 6115   3.930   2.818   1.520  0.5180  0.0696 -0.1092
 2039SOL    HW1 6116   3.977   2.764   1.584  0.4271  1.0825  0.8329
 2039SOL    HW2 6117   3.996   2.841   1.455  0.8963  0.0299  0.2601
 2040SOL     OW 6118   2.000   0.775   1.755  0.1897 -0.0858  0.0553
 2040SOL    HW1 6119   2.006   0.768   1.660  0.3577 -0.7840  0.1149
 2040SOL    HW2 6120   1.941   0.704   1.781 -1.1413  1.0778  0.3332
 2041SOL     OW 6121   1.540   1.559   1.964  0.0318 -0.3168 -0.0763
 2041SOL    HW1 6122   1.627   1.569   2.004  0.0392 -2.2590  0.5095
 2041SOL    HW2 6123   1.520   1.645   1.928  1.3138  0.7256  1.5655
 2042SOL     OW 6124   2.099   2.224   2.899 -0.0658 -0.8482  0.9318
 2042SOL    HW1 6125   2.035   2.248   2.965 -0.1466  2.2465 -0.1375
 2042SOL    HW2 6126   2.177   2.276   2.920  0.2772 -0.6210 -0.7364
 2043SOL     OW 6127   1.289   1.428   3.040 -0.3570 -0.0742 -0.1304
 2043SOL    HW1 6128   1.322   1.517   3.029  0.5017 -0.2530  0.8001
 2043SOL    HW2 6129   1.193   1.437   3.039 -0.3569  1.2816  2.6521
 2044SOL     OW 6130   3.580   0.002   0.069  0.1694  0.4589 -0.1021
 2044SOL    HW1 6131   3.511   0.007   0.004  0.5343 -0.7342 -0.6039
 2044SOL    HW2 6132   3.566   0.079   0.125 -1.0511  0.6728 -0.6754
 2045SOL     OW 6133   1.120   0.970   0.213  0.3305  0.2473  0.2587
 2045SOL    HW1 6134   1.204   0.928   0.229  0.3346 -1.0121 -2.5270
 2045SOL    HW2 6135   1.142   1.061   0.189  0.9606 -0.1405 -0.6944
 2046SOL     OW 6136   2.570   1.323   2.007  0.1911  0.1202 -0.4975
 2046SOL    HW1 6137   2.537   1.280   2.086  1.1076  0.0486 -0.1347
 2046SOL    HW2 6138   2.519   1.285   1.936 -1.8138  1.3939  0.1916
 2047SOL     OW 6139   2.756   0.551   2.222 -0.5069 -0.1570 -0.0633
 2047SOL    HW1 6140   2.795   0.597   2.147 -0.2043 -1.9957 -1.0861
 2047SOL    HW2 6141   2.828   0.536   2.282 -0.6472  0.8416  0.3800
 2048SOL     OW 6142   3.667   1.565   1.636  0.0651  0.1752  0.6032
 2048SOL    HW1 6143   3.676   1.605   1.550 -0.9347  0.2293  0.5067
 2048SOL    HW2 6144   3.752   1.575   1.677  0.9089 -0.8570 -0.8050
 2049SOL     OW 6145   0.377   3.350   3.889  0.0850  0.2520 -1.0338
 2049SOL    HW1 6146   0.353   3.384   3.802 -2.8744 -0.5643 -0.6574
 2049SOL    HW2 6147   0.309   3.285   3.908  0.7222  0.3304  1.8575
 2050SOL     OW 6148   1.728   2.921   1.163  0.3205 -0.0465  0.0100
 2050SOL    HW1 6149   1.638   2.953   1.163 -0.0238 -0.9453 -1.0070
 2050SOL    HW2 6150   1.723   2.835   1.204  1.4016  1.4839  3.7297
 2051SOL     OW 6151   0.746   1.470   2.984 -0.2215 -0.2552  0.5987
 2051SOL    HW1 6152   0.694   1.425   2.917 -1.7490 -0.8762  2.1305
 2051SOL    HW2 6153   0.717   1.561   2.979 -0.8058 -0.4249  0.8391
 2052SOL     OW 6154   0.950   0.524   0.959  0.6305  0.4292 -0.1375
 2052SOL    HW1 6155   0.901   0.452   0.920 -0.0966  0.0396  1.4247
 2052SOL    HW2 6156   0.883   0.582   0.995  1.2668  1.0366  0.0873
 2053SOL     OW 6157   1.904   1.927   2.649 -0.3563 -0.4455  0.2346
 2053SOL    HW1 6158   1.814   1.950   2.628  0.6345  0.8962 -3.1974
 2053SOL    HW2 6159   1.954   2.005   2.627  2.0232 -2.2983 -1.3882
 2054SOL     OW 6160   3.411   3.786   1.577 -0.0969  0.1422 -0.1226
 2054SOL    HW1 6161   3.439   3.747   1.660  0.5716  0.3476 -0.2467
 2054SOL    HW2 6162   3.366   3.866   1.602  0.8905  0.6731  0.0148
 2055SOL     OW 6163   1.080   0.329   1.291  0.8632  0.2910  0.3869
 2055SOL    HW1 6164   1.012   0.261   1.298  1.3926 -0.4504 -1.2132
 2055SOL    HW2 6165   1.147   0.302   1.354  1.6996 -1.5079 -1.1635
 2056SOL     OW 6166   0.042   1.778   2.570  0.1982 -0.0109  0.7941
 2056SOL    HW1 6167   0.126   1.806   2.535  0.3795 -2.4711 -0.9815
 2056SOL    HW2 6168  -0.023   1.822   2.515  0.4026 -0.4259  0.2162
 2057SOL     OW 6169   0.440   2.224   0.531 -0.0808 -0.4717 -0.0135
 2057SOL    HW1 6170   0.402   2.160   0.471  1.2392  0.6991 -2.2424
 2057SOL    HW2 6171   0.522   2.184   0.560  0.9229  0.2559 -1.6901
 2058SOL     OW 6172   3.259   2.218   0.096  0.3412 -0.3674  0.4868
 2058SOL    HW1 6173   3.169   2.237   0.070  1.1280  0.9225 -1.5621
 2058SOL    HW2 6174   3.291   2.158   0.028  2.4749  3.0904 -1.8993
 2059SOL     OW 6175   3.690   1.825   2.652 -0.6477  0.9082  0.4958
 2059SOL    HW1 6176   3.687   1.762   2.580 -0.4182  0.8938  0.4968
 2059SOL    HW2 6177   3.651   1.904   2.616  1.6260  1.6853 -0.4494
 2060SOL     OW 6178   0.391   1.215   3.340 -0.1133 -0.0849  0.0129
 2060SOL    HW1 6179   0.414   1.208   3.432  1.1004  0.4511 -0.2294
 2060SOL    HW2 6180   0.306   1.258   3.339  0.8081  1.8604  0.8437
 2061SOL     OW 6181   2.610   2.816   1.657 -0.0897 -0.0455  0.5778
 2061SOL    HW1 6182   2.660   2.777   1.585 -1.1537  0.6634 -0.5969
 2061SOL    HW2 6183   2.658   2.896   1.678 -1.6809  1.7244 -1.9380
 2062SOL     OW 6184   2.681   3.613   3.406 -0.0196  0.1476  0.4069
 2062SOL    HW1 6185   2.768   3.580   3.429 -0.2822 -0.9378 -0.0918
 2062SOL    HW2 6186   2.621   3.559   3.458 -0.4205  0.6206  0.4445
 2063SOL     OW 6187   2.465   2.154   0.485  0.1165  1.0183 -0.0939
 2063SOL    HW1 6188   2.545   2.158   0.538  0.5951 -0.2646 -0.6758
 2063SOL    HW2 6189   2.398   2.123   0.547  0.5716 -0.0261 -0.0925
 2064SOL     OW 6190   0.747   0.483   0.696  0.0710 -0.1229 -0.1985
 2064SOL    HW1 6191   0.717   0.574   0.697 -0.3134 -0.2441 -0.3902
 2064SOL    HW2 6192   0.681   0.436   0.748  1.0057 -0.0761  1.0855
 2065SOL     OW 6193   2.874   3.224   1.555 -0.2532 -0.4316 -0.2249
 2065SOL    HW1 6194   2.864   3.190   1.467 -1.4210  0.2569 -0.3884
 2065SOL    HW2 6195   2.955   3.275   1.553 -0.5638  0.0301 -1.0500
 2066SOL     OW 6196   0.083   1.530   0.095  0.8087 -0.0854 -0.6992
 2066SOL    HW1 6197   0.157   1.477   0.066 -0.1668 -1.5352 -0.6832
 2066SOL    HW2 6198   0.122   1.600   0.148  2.2967  0.3623 -2.3127
 2067SOL     OW 6199   0.626   0.177   3.146 -0.3624 -0.5298 -0.0675
 2067SOL    HW1 6200   0.629   0.253   3.205 -1.7551 -1.5598  1.4061
 2067SOL    HW2 6201   0.534   0.174   3.117 -0.1293 -1.1891 -0.7408
 2068SOL     OW 6202   2.072   0.135   1.890 -0.9459  0.4905  0.5297
 2068SOL    HW1 6203   2.114   0.185   1.820 -1.9485 -0.9099 -1.1487
 2068SOL    HW2 6204   2.135   0.137   1.962 -0.0964  2.4101 -0.1940
 2069SOL     OW 6205   3.662   3.741   2.377 -0.1218  0.6466  0.5050
 2069SOL    HW1 6206   3.754   3.746   2.404  0.1372  1.2774 -0.4308
 2069SOL    HW2 6207   3.616   3.706   2.454  0.7170  1.4801  1.4254
 2070SOL     OW 6208   1.143   1.394   1.414 -0.3555 -0.4061 -0.0225
 2070SOL    HW1 6209   1.187   1.465   1.368 -2.7734  0.8300 -0.5749
 2070SOL    HW2 6210   1.114   1.432   1.497  1.0912 -1.6996  1.1449
 2071SOL     OW 6211   1.795   0.358   1.596  0.0325 -0.0341 -0.1681
 2071SOL    HW1 6212   1.733   0.404   1.539  0.8860 -0.8888 -1.8638
 2071SOL    HW2 6213   1.788   0.267   1.569  0.2738 -0.5081  1.3200
 2072SOL     OW 6214   0.503   2.396   3.102  0.5019 -0.1671  0.1423
 2072SOL    HW1 6215   0.465   2.437   3.024  1.3071 -1.0834 -0.7541
 2072SOL    HW2 6216   0.553   2.466   3.144 -2.4081  1.2275  1.6146
 2073SOL     OW 6217   0.077   1.228   2.352 -0.1609  0.1776  0.3536
 2073SOL    HW1 6218   0.089   1.303   2.293  0.7441 -0.2207  0.0152
 2073SOL    HW2 6219  -0.017   1.226   2.369 -0.3940  0.5065 -0.8040
 2074SOL     OW 6220   3.072   1.909   2.068  0.0817 -0.0095 -0.5069
 2074SOL    HW1 6221   2.991   1.857   2.072  0.7621 -1.1003 -0.5376
 2074SOL    HW2 6222   3.053   1.987   2.121 -1.0193 -0.2056 -0.5880
 2075SOL     OW 6223   1.778   0.763   3.378 -0.0733 -0.0768 -0.0505
 2075SOL    HW1 6224   1.700   0.731   3.423 -0.5633 -0.6857 -1.2876
 2075SOL    HW2 6225   1.749   0.842   3.332 -0.4136 -1.1926 -1.8306
 2076SOL     OW 6226   3.279   0.816   2.046 -0.7957 -0.4023 -0.1108
 2076SOL    HW1 6227   3.307   0.851   1.961 -0.8270  1.4371  0.5916
 2076SOL    HW2 6228   3.341   0.854   2.109  0.5039 -3.3442  0.5374
 2077SOL     OW 6229   1.427   1.420   0.194  0.0532 -0.2259  0.0899
 2077SOL    HW1 6230   1.413   1.326   0.181 -1.6515  0.0205 -0.0820
 2077SOL    HW2 6231   1.435   1.455   0.105 -3.0366  0.2537 -0.1194
 2078SOL     OW 6232   1.765   2.455   1.866 -0.0701  0.4157  0.3107
 2078SOL    HW1 6233   1.808   2.519   1.809 -1.2933  2.0785  1.1682
 2078SOL    HW2 6234   1.722   2.507   1.933 -3.1825 -1.1192 -0.3050
 2079SOL     OW 6235   3.883   0.389   3.066  0.1426 -0.3983 -0.8574
 2079SOL    HW1 6236   3.827   0.466   3.054 -1.6212 -1.3806  0.5858
 2079SOL    HW2 6237   3.836   0.319   3.022  0.5315 -1.1369 -0.1090
 2080SOL     OW 6238   3.067   2.976   0.362 -0.3122 -0.2712  0.2820
 2080SOL    HW1 6239   3.096   2.908   0.423 -2.3560 -2.1948 -0.7668
 2080SOL    HW2 6240   3.108   2.951   0.279  2.4518  2.3270  0.6971
 2081SOL     OW 6241   1.305   2.341   1.421  0.2378 -0.2433 -0.1353
 2081SOL    HW1 6242   1.245   2.268   1.433  2.1686 -2.0477 -0.8569
 2081SOL    HW2 6243   1.392   2.304   1.436  1.3191  1.8123 -0.9143
 2082SOL     OW 6244   0.309   1.512   1.527 -0.1035  0.1714  0.2852
 2082SOL    HW1 6245   0.227   1.558   1.547 -0.0887  0.6226 -0.6491
 2082SOL    HW2 6246   0.368   1.580   1.495 -0.4289 -0.5897 -2.1604
 2083SOL     OW 6247   3.934   0.651   1.506 -0.3983  0.8755 -0.5489
 2083SOL    HW1 6248   4.010   0.709   1.507 -1.6380  2.5985 -0.3748
 2083SOL    HW2 6249   3.904   0.648   1.597 -0.2153 -0.2559 -0.5154
 2084SOL     OW 6250   3.636   3.444   3.878  0.9199 -0.1008  0.1156
 2084SOL    HW1 6251   3.624   3.358   3.839  0.6642  0.2667 -0.6397
 2084SOL    HW2 6252   3.582   3.502   3.824  1.0341  0.5166  0.6584
 2085SOL     OW 6253   2.801   2.078   3.810  0.5298 -0.1958  0.1031
 2085SOL    HW1 6254   2.819   2.000   3.863  2.3799  0.0709 -0.0686
 2085SOL    HW2 6255   2.727   2.120   3.855  1.9072 -0.0633  2.4574
 2086SOL     OW 6256   2.491   0.906   0.142 -0.1518  0.5765 -0.1090
 2086SOL    HW1 6257   2.417   0.962   0.165 -0.7669  0.1186 -0.8830
 2086SOL    HW2 6258   2.511   0.858   0.222 -1.1103  0.2655 -0.0368
 2087SOL     OW 6259   2.754   2.214   1.428  0.2414  0.3424 -0.5084
 2087SOL    HW1 6260   2.738   2.125   1.458  1.3427 -0.1298 -1.2453
 2087SOL    HW2 6261   2.830   2.242   1.479  0.4766  0.5101 -0.9474
 2088SOL     OW 6262   3.310   0.323   3.259 -0.3099 -0.3081  0.2671
 2088SOL    HW1 6263   3.399   0.358   3.253 -0.9426  1.9874  2.5915
 2088SOL    HW2 6264   3.262   0.368   3.188  0.3046 -1.5201 -0.9632
 2089SOL     OW 6265   0.262   3.546   3.232 -0.3052  0.2110  0.2866
 2089SOL    HW1 6266   0.266   3.565   3.138 -1.5564 -0.2169  0.1322
 2089SOL    HW2 6267   0.308   3.619   3.273 -2.4191  2.1013 -0.4848
 2090SOL     OW 6268   3.842   1.894   2.350 -0.3821 -0.3048 -0.1278
 2090SOL    HW1 6269   3.849   1.987   2.330  0.5839  0.0693  1.7156
 2090SOL    HW2 6270   3.749   1.881   2.369 -0.5129  0.2904 -0.3248
 2091SOL     OW 6271   1.743   0.765   2.748 -0.3603 -0.2820  0.3959
 2091SOL    HW1 6272   1.724   0.685   2.700  1.8898 -0.3665 -0.4761
 2091SOL    HW2 6273   1.662   0.817   2.744 -1.0467 -1.4320 -1.1712
 2092SOL     OW 6274   0.773   3.915   1.850 -0.6012  0.1593 -0.1871
 2092SOL    HW1 6275   0.854   3.928   1.899 -1.2097  0.6239  0.7506
 2092SOL    HW2 6276   0.757   3.999   1.807  0.9604 -0.8165 -2.9084
 2093SOL     OW 6277   3.967   0.539   0.687  0.5008  0.1871  0.1500
 2093SOL    HW1 6278   3.961   0.634   0.689 -0.1237  0.1779  3.3954
 2093SOL    HW2 6279   4.059   0.520   0.706  0.4620  0.1234  0.2722
 2094SOL     OW 6280   3.153   2.115   0.994 -0.0231 -0.5446  0.0384
 2094SOL    HW1 6281   3.164   2.032   0.947 -0.1913 -0.3927 -0.2702
 2094SOL    HW2 6282   3.070   2.105   1.040  1.1575 -1.5680  2.1150
 2095SOL     OW 6283   2.305   2.762   3.151 -0.3946  0.0369  0.6759
 2095SOL    HW1 6284   2.307   2.733   3.242 -0.0709  3.4869  1.8946
 2095SOL    HW2 6285   2.212   2.776   3.133 -0.7496 -3.1815 -0.5329
 2096SOL     OW 6286   0.248   1.953   2.495  0.0872  0.0241  0.3925
 2096SOL    HW1 6287   0.213   1.989   2.413 -0.4153 -1.5076 -0.1019
 2096SOL    HW2 6288   0.329   2.001   2.510 -0.3533  1.0657 -0.4324
 2097SOL     OW 6289   0.274   1.747  -0.017  0.6677 -0.1646  0.1401
 2097SOL    HW1 6290   0.259   1.763   0.076  3.3424 -0.1003  0.6479
 2097SOL    HW2 6291   0.361   1.706  -0.020  0.8223  0.2268 -2.3598
 2098SOL     OW 6292   3.505   1.871   0.026  0.5718 -0.0556  0.1902
 2098SOL    HW1 6293   3.543   1.808   0.088 -0.2028 -1.5602 -0.8130
 2098SOL    HW2 6294   3.513   1.829  -0.059 -2.7303 -0.1896 -0.1595
 2099SOL     OW 6295   3.763   2.455   3.572 -0.0660  0.0340  0.1355
 2099SOL    HW1 6296   3.775   2.542   3.610 -1.5797  0.2559  0.1452
 2099SOL    HW2 6297   3.808   2.396   3.633  2.9057  0.9487 -0.9899
 2100SOL     OW 6298   1.488   0.208   2.730 -0.4578  0.2242 -0.4747
 2100SOL    HW1 6299   1.449   0.288   2.694 -3.0563  0.5896  2.6952
 2100SOL    HW2 6300   1.439   0.136   2.690 -2.2045  0.5576  0.9285
 2101SOL     OW 6301   3.298   2.693   2.771 -0.2575 -0.2976  1.0799
 2101SOL    HW1 6302   3.204   2.692   2.789 -0.6092  0.7836 -0.4440
 2101SOL    HW2 6303   3.331   2.611   2.807 -1.8637 -0.9081  1.2361
 2102SOL     OW 6304   2.149   2.749   3.850 -0.1458  0.0001  0.3283
 2102SOL    HW1 6305   2.177   2.805   3.922  0.0135  1.4080 -0.7949
 2102SOL    HW2 6306   2.158   2.803   3.772 -2.1017 -0.8605 -0.5645
 2103SOL     OW 6307   3.115   3.161   3.658 -0.0424  0.2629  0.0156
 2103SOL    HW1 6308   3.048   3.180   3.724 -1.1957 -0.2664 -0.9635
 2103SOL    HW2 6309   3.075   3.188   3.575  0.8417 -0.3305 -0.6213
 2104SOL     OW 6310   2.431   1.912   0.938 -0.3762  0.1360 -0.1553
 2104SOL    HW1 6311   2.525   1.908   0.922 -0.5580 -0.2375 -1.2286
 2104SOL    HW2 6312   2.393   1.930   0.852 -1.5185 -2.8680 -0.3958
 2105SOL     OW 6313   1.274   1.773   2.218  0.4036 -0.8405 -0.0480
 2105SOL    HW1 6314   1.368   1.765   2.233  0.5797 -0.5547 -0.9564
 2105SOL    HW2 6315   1.265   1.784   2.124 -0.6830 -2.9194 -0.2344
 2106SOL     OW 6316   3.335   2.937   0.918  0.1979  0.2156  0.2152
 2106SOL    HW1 6317   3.268   2.964   0.855 -0.7335 -0.9933  0.6474
 2106SOL    HW2 6318   3.312   2.984   0.998 -0.8909 -1.0898  0.7097
 2107SOL     OW 6319   3.198   1.939   1.800  0.5170  0.4146 -0.3246
 2107SOL    HW1 6320   3.196   1.944   1.896  1.4332  0.4935 -0.3004
 2107SOL    HW2 6321   3.139   1.867   1.779  0.8808 -0.0914  0.3462
 2108SOL     OW 6322  -0.005   0.080   3.719  0.6018  0.4883  0.4333
 2108SOL    HW1 6323   0.081   0.047   3.692  0.9292  1.3404  0.3862
 2108SOL    HW2 6324  -0.060   0.002   3.725  1.8361 -0.3072  2.2544
 2109SOL     OW 6325   0.425   2.236   3.300  0.1129  0.2866  0.4138
 2109SOL    HW1 6326   0.437   2.289   3.222 -0.3146  0.8399  0.7238
 2109SOL    HW2 6327   0.338   2.198   3.291  1.5260 -2.9897 -1.3778
 2110SOL     OW 6328   3.700   0.042   1.168 -0.4894  0.2648 -0.0942
 2110SOL    HW1 6329   3.785   0.051   1.210 -0.2530 -0.0050 -0.5087
 2110SOL    HW2 6330   3.645   0.108   1.210 -0.7475 -1.1137  1.8446
 2111SOL     OW 6331   3.585   2.955   2.334  0.1292  0.6212  0.5437
 2111SOL    HW1 6332   3.555   3.045   2.345  0.9458  1.2930 -2.1146
 2111SOL    HW2 6333   3.566   2.934   2.243  1.2887 -1.4032  0.7022
 2112SOL     OW 6334   2.507   3.190   0.948 -0.2470  0.4626  0.3341
 2112SOL    HW1 6335   2.502   3.095   0.936  1.4897  0.5321 -1.3139
 2112SOL    HW2 6336   2.499   3.202   1.043  2.1069 -1.5658  0.8728
 2113SOL     OW 6337   3.377   1.608   0.544  0.2220  0.8497 -0.4386
 2113SOL    HW1 6338   3.444   1.646   0.489  0.0520  0.9823 -0.5533
 2113SOL    HW2 6339   3.299   1.662   0.530 -0.9105 -1.1860 -2.8359
 2114SOL     OW 6340   2.572   2.098   3.595 -0.0787  0.1013 -0.2743
 2114SOL    HW1 6341   2.477   2.107   3.588 -0.1938  3.1420  2.5797
 2114SOL    HW2 6342   2.586   2.060   3.682  1.3467 -1.1647 -1.0173
 2115SOL     OW 6343   0.925   1.303   1.854 -0.4787  0.4654  0.0057
 2115SOL    HW1 6344   0.848   1.260   1.816 -1.5998  0.2642  2.3072
 2115SOL    HW2 6345   0.992   1.234   1.856 -0.9180  0.0282 -0.0986
 2116SOL     OW 6346   2.377   3.526   0.581 -0.2857  0.9514 -0.1930
 2116SOL    HW1 6347   2.442   3.528   0.511 -0.1195  0.5124 -0.0537
 2116SOL    HW2 6348   2.418   3.571   0.655 -0.3722  1.2073 -0.2994
 2117SOL     OW 6349   3.329   2.461   2.953 -0.5386  0.5345 -0.0682
 2117SOL    HW1 6350   3.246   2.480   2.997 -1.1200 -0.2937 -0.7966
 2117SOL    HW2 6351   3.321   2.370   2.925  2.3482 -1.2142  3.7920
 2118SOL     OW 6352   2.089   0.493   1.539  0.6494 -0.5451 -0.8364
 2118SOL    HW1 6353   2.021   0.427   1.529  1.2158 -1.4320  0.6883
 2118SOL    HW2 6354   2.053   0.572   1.498 -0.9860 -1.1795 -0.7008
 2119SOL     OW 6355   3.403   3.626   2.168  0.0859  0.0365  0.6074
 2119SOL    HW1 6356   3.352   3.577   2.103  1.5100 -3.0898  1.6742
 2119SOL    HW2 6357   3.402   3.571   2.246  4.3175  0.1832  0.9586
 2120SOL     OW 6358   3.241   3.368   2.118  0.3067  0.3155  0.3494
 2120SOL    HW1 6359   3.174   3.406   2.063  1.9549  0.2182 -1.8612
 2120SOL    HW2 6360   3.318   3.360   2.061  1.9608 -0.3212  2.5147
 2121SOL     OW 6361   2.339   3.541   2.886  0.1176  0.2445 -0.6121
 2121SOL    HW1 6362   2.420   3.592   2.886 -1.1971  2.4598 -1.4940
 2121SOL    HW2 6363   2.347   3.484   2.810  1.1741 -0.1574 -0.2187
 2122SOL     OW 6364   0.055   0.640   0.990 -0.8313 -0.2067  0.3812
 2122SOL    HW1 6365   0.116   0.714   0.991 -0.4943 -0.4511 -0.8283
 2122SOL    HW2 6366   0.096   0.576   0.932 -1.9278 -0.6480  0.0694
 2123SOL     OW 6367   0.755  -0.031   0.207 -0.5408 -0.5914  0.2550
 2123SOL    HW1 6368   0.810   0.047   0.202 -0.1447 -0.9311 -2.7150
 2123SOL    HW2 6369   0.681  -0.013   0.149 -1.0978 -1.9438  0.5018
 2124SOL     OW 6370   0.157   0.362   2.255 -0.0024 -0.1338 -0.0382
 2124SOL    HW1 6371   0.077   0.346   2.305 -0.1777 -2.5369 -0.9241
 2124SOL    HW2 6372   0.173   0.279   2.211  1.7544  1.0047 -1.6568
 2125SOL     OW 6373   2.699   0.556   1.871 -0.5604  0.4957 -0.2080
 2125SOL    HW1 6374   2.777   0.598   1.907 -0.3030 -1.6704  2.0335
 2125SOL    HW2 6375   2.626   0.596   1.918 -0.5832  0.6375 -0.3627
 2126SOL     OW 6376   0.666   0.660   1.077 -0.3604 -0.1298 -0.3693
 2126SOL    HW1 6377   0.681   0.734   1.136 -0.8531 -0.2934 -0.0301
 2126SOL    HW2 6378   0.633   0.590   1.134 -0.5222 -0.4007 -0.7860
 2127SOL     OW 6379   0.140   1.739   3.443  0.2335  0.1415  0.0558
 2127SOL    HW1 6380   0.228   1.713   3.470  0.0795  0.5968  1.0082
 2127SOL    HW2 6381   0.125   1.823   3.485 -0.0000  0.9107 -1.4782
 2128SOL     OW 6382   3.177   2.977   3.154  0.2584  0.1052  0.0097
 2128SOL    HW1 6383   3.178   3.032   3.232  3.5636  0.3541 -0.0668
 2128SOL    HW2 6384   3.128   3.028   3.089  3.0614  3.0652 -0.0225
 2129SOL     OW 6385   2.346   1.634   0.238  0.1294  0.1382 -0.5622
 2129SOL    HW1 6386   2.284   1.669   0.301  0.5672  0.8636 -0.5142
 2129SOL    HW2 6387   2.430   1.634   0.284 -0.0204 -2.0318 -0.1885
 2130SOL     OW 6388   1.601   2.136   3.115 -0.2678 -0.0994 -0.5220
 2130SOL    HW1 6389   1.526   2.188   3.143 -0.1941 -0.1716 -0.1867
 2130SOL    HW2 6390   1.603   2.061   3.175 -0.1270 -0.2739 -0.7392
 2131SOL     OW 6391   3.927   3.744   2.454 -0.4598  0.0251 -0.2343
 2131SOL    HW1 6392   3.987   3.783   2.517 -0.6854 -0.1317  0.0832
 2131SOL    HW2 6393   3.976   3.673   2.414 -0.0522  0.6102 -0.8015
 2132SOL     OW 6394   3.818   2.458   2.868  0.5526  0.0252  0.2790
 2132SOL    HW1 6395   3.768   2.540   2.870  0.8077  0.2829  4.0454
 2132SOL    HW2 6396   3.757   2.392   2.902  2.0838  0.0340  3.3846
 2133SOL     OW 6397   0.705   3.758   1.532  0.3333 -1.2865  0.1403
 2133SOL    HW1 6398   0.757   3.692   1.577  0.8216 -0.3146  1.0473
 2133SOL    HW2 6399   0.616   3.721   1.528  0.5605 -1.9112  0.7920
 2134SOL     OW 6400   0.107   1.184   4.008 -0.4633  0.3766 -0.5894
 2134SOL    HW1 6401   0.090   1.267   3.964 -2.6068  0.4906  0.3289
 2134SOL    HW2 6402   0.106   1.119   3.938  3.7297  1.2183 -1.7234
 2135SOL     OW 6403   1.828   3.038   3.209 -0.1267 -0.4284  0.1100
 2135SOL    HW1 6404   1.834   2.964   3.269 -1.3048 -1.8963 -1.4866
 2135SOL    HW2 6405   1.824   2.999   3.122 -0.8422  1.5129 -0.8006
 2136SOL     OW 6406   1.557   1.126   3.722  0.1712  0.2036 -0.2982
 2136SOL    HW1 6407   1.645   1.090   3.714  0.1431  0.3244 -1.2054
 2136SOL    HW2 6408   1.566   1.195   3.788  0.6210 -0.1882  0.0617
 2137SOL     OW 6409   1.371   1.916   2.921 -0.5146  0.4311 -0.2775
 2137SOL    HW1 6410   1.421   1.859   2.862  1.1885  0.8131  0.7495
 2137SOL    HW2 6411   1.292   1.938   2.871  0.5596  0.2247 -2.1622
 2138SOL     OW 6412   0.653   1.282   2.071 -0.6571 -0.0092 -0.5207
 2138SOL    HW1 6413   0.622   1.237   2.149  0.3522 -0.6391 -0.4588
 2138SOL    HW2 6414   0.600   1.247   1.999 -1.7902  0.7853 -0.1014
 2139SOL     OW 6415   2.812   1.615   1.082  0.4972  0.2806 -0.1450
 2139SOL    HW1 6416   2.742   1.658   1.131 -0.9254 -1.4740 -0.4969
 2139SOL    HW2 6417   2.872   1.583   1.149 -1.5840 -2.3656  0.6753
 2140SOL     OW 6418   1.499   0.346   3.510  0.2042  0.5591  0.7279
 2140SOL    HW1 6419   1.527   0.366   3.420 -2.2732  0.7657 -0.1022
 2140SOL    HW2 6420   1.572   0.298   3.548  0.8877 -0.6299 -1.8354
 2141SOL     OW 6421   1.263   0.797   0.587 -0.2154 -0.0380  0.2922
 2141SOL    HW1 6422   1.219   0.882   0.591 -1.0116 -0.4847  1.6316
 2141SOL    HW2 6423   1.280   0.783   0.494 -2.4939  0.3738 -0.2273
 2142SOL     OW 6424   3.698   2.818   3.394  0.3118 -0.2580 -0.8879
 2142SOL    HW1 6425   3.739   2.903   3.380  0.2863  0.1271  1.1703
 2142SOL    HW2 6426   3.737   2.785   3.475 -1.9639 -0.7568  0.0812
 2143SOL     OW 6427   1.325   1.027   3.052 -0.8181  0.1643  0.3919
 2143SOL    HW1 6428   1.361   1.068   3.131  0.3040 -2.2666  1.2292
 2143SOL    HW2 6429   1.238   0.998   3.078 -0.7108 -0.0317  0.5397
 2144SOL     OW 6430   0.587   1.236   3.825  0.8971  0.2338 -0.3108
 2144SOL    HW1 6431   0.631   1.299   3.882  0.0348  0.2738  0.3276
 2144SOL    HW2 6432   0.609   1.151   3.861  0.2006  0.2656  0.2114
 2145SOL     OW 6433   1.183   2.376   2.174  0.0879  0.6055 -0.7229
 2145SOL    HW1 6434   1.143   2.447   2.124 -0.2740  1.1430  0.2931
 2145SOL    HW2 6435   1.270   2.409   2.196 -0.9140  1.8328  1.8275
 2146SOL     OW 6436   1.039   1.507   3.109 -0.6058 -0.5136  0.1925
 2146SOL    HW1 6437   0.947   1.496   3.132 -0.5386  0.2568  0.8688
 2146SOL    HW2 6438   1.073   1.568   3.175  0.7432 -1.9272  0.8838
 2147SOL     OW 6439   0.090   1.501   2.623 -0.7214  0.5729  0.0404
 2147SOL    HW1 6440   0.101   1.551   2.542  0.2572  0.9775  0.4093
 2147SOL    HW2 6441  -0.004   1.508   2.643 -0.9433  0.6128 -0.9582
 2148SOL     OW 6442   3.577   1.327   0.927  1.0972 -0.2407  0.7122
 2148SOL    HW1 6443   3.546   1.339   1.017  0.3060 -1.0912  0.5687
 2148SOL    HW2 6444   3.531   1.249   0.896  0.2368  0.8684 -0.9241
 2149SOL     OW 6445   2.614   2.541   2.396 -1.3700 -0.0865 -0.7149
 2149SOL    HW1 6446   2.651   2.592   2.467  1.0856 -1.1956 -1.1071
 2149SOL    HW2 6447   2.657   2.575   2.317 -2.6396 -0.1539 -1.4739
 2150SOL     OW 6448   3.138   2.079   2.435 -0.0784  0.1885 -0.6660
 2150SOL    HW1 6449   3.120   2.149   2.372 -0.1553 -0.7479 -1.7132
 2150SOL    HW2 6450   3.224   2.101   2.471 -0.5916  1.4159 -0.1498
 2151SOL     OW 6451   0.342   2.297   0.179 -0.3689  0.2419 -0.3501
 2151SOL    HW1 6452   0.343   2.371   0.239 -0.6127  0.5070 -0.6666
 2151SOL    HW2 6453   0.296   2.329   0.101  2.2198  0.7814 -1.7865
 2152SOL     OW 6454   3.018   1.150   0.838 -0.0176  0.1722  0.7984
 2152SOL    HW1 6455   3.107   1.127   0.812 -0.3204  1.1176 -1.3527
 2152SOL    HW2 6456   3.026   1.235   0.880  0.0163  0.8700 -0.5473
 2153SOL     OW 6457   3.741   2.613   3.216 -0.2415  0.1808  0.0728
 2153SOL    HW1 6458   3.713   2.692   3.264  3.4251  2.1918 -0.7118
 2153SOL    HW2 6459   3.674   2.601   3.149 -2.2929  0.9618  1.8310
 2154SOL     OW 6460   1.077   1.374   2.742  0.0659  0.2101  0.7034
 2154SOL    HW1 6461   1.057   1.467   2.728  2.7407  0.7656  0.0130
 2154SOL    HW2 6462   1.153   1.357   2.686  0.3203 -2.1285  1.6454
 2155SOL     OW 6463   1.617   0.717   1.736 -0.4091 -0.1313 -0.1746
 2155SOL    HW1 6464   1.594   0.652   1.802 -0.8036 -0.5172 -0.6857
 2155SOL    HW2 6465   1.688   0.676   1.686  0.4617  0.4891  0.5085
 2156SOL     OW 6466   3.639   3.893   3.708  0.1594  0.3147  0.0464
 2156SOL    HW1 6467   3.612   3.877   3.618  0.1833 -1.6407  0.3323
 2156SOL    HW2 6468   3.567   3.858   3.761  0.6216  0.4673  0.7900
 2157SOL     OW 6469   2.228   3.121   3.372  0.1255  0.3193  0.0670
 2157SOL    HW1 6470   2.312   3.084   3.345  0.1867  1.1021 -0.8638
 2157SOL    HW2 6471   2.180   3.133   3.291 -1.1025 -0.5802  0.6298
 2158SOL     OW 6472   3.306   3.843   0.079 -0.2816 -0.0625  0.0081
 2158SOL    HW1 6473   3.305   3.755   0.117 -1.2650 -0.3533 -0.6656
 2158SOL    HW2 6474   3.357   3.895   0.141  0.6386 -1.1873  0.2247
 2159SOL     OW 6475   0.832   2.590   2.799  0.0494 -0.1375  0.6279
 2159SOL    HW1 6476   0.812   2.631   2.883 -0.0204  0.7215  0.2008
 2159SOL    HW2 6477   0.925   2.607   2.786  0.3333 -1.2839  1.0710
 2160SOL     OW 6478   1.244   3.387   2.914 -0.6548 -1.0912  0.3508
 2160SOL    HW1 6479   1.216   3.326   2.982 -0.2793 -1.3813  0.2490
 2160SOL    HW2 6480   1.234   3.474   2.953 -0.5028 -1.2519  0.7496
 2161SOL     OW 6481   0.098   3.602   2.617  0.1086 -0.6609  0.3696
 2161SOL    HW1 6482   0.141   3.686   2.634 -1.2355 -0.1416  1.2933
 2161SOL    HW2 6483   0.170   3.544   2.594  1.1528  0.5465  0.4452
 2162SOL     OW 6484   0.650   0.467   0.100  0.3178  0.7412 -0.1783
 2162SOL    HW1 6485   0.585   0.514   0.047  0.4195  0.6700 -0.3691
 2162SOL    HW2 6486   0.730   0.518   0.089  0.0825  1.3363  0.7793
 2163SOL     OW 6487   1.598   2.239   2.070  0.0031  0.5636 -0.2023
 2163SOL    HW1 6488   1.687   2.212   2.047 -0.4375  1.1265 -2.8261
 2163SOL    HW2 6489   1.581   2.315   2.015 -3.1283 -1.2367 -2.0051
 2164SOL     OW 6490   0.223   0.867   2.879 -0.0837 -0.1801  0.2441
 2164SOL    HW1 6491   0.233   0.932   2.948 -1.2504 -0.4889  0.7233
 2164SOL    HW2 6492   0.164   0.801   2.916 -0.4876 -0.5058 -0.9434
 2165SOL     OW 6493   3.680   2.429   1.234 -0.7019 -0.5214  1.1771
 2165SOL    HW1 6494   3.612   2.484   1.273 -1.3678 -0.0654 -0.5601
 2165SOL    HW2 6495   3.737   2.406   1.308 -1.9668  0.1933  2.4308
   4.00000   4.00000   4.00000
