Water Box for Fluid Dynamics Phase 2 in water
 6495
    1SOL     OW    1   0.619   0.596   2.585  0.3694 -0.6494  0.6219
    1SOL    HW1    2   0.615   0.529   2.517  0.7036  0.8675 -0.9239
    1SOL    HW2    3   0.684   0.658   2.555 -0.2071  0.5947  1.8334
    2SOL     OW    4   3.304   0.985   3.218 -0.0541 -0.3482 -0.0366
    2SOL    HW1    5   3.341   1.074   3.215  0.0500 -0.3751 -3.1526
    2SOL    HW2    6   3.375   0.931   3.250  1.3015  0.2105 -1.9071
    3SOL     OW    7   2.884   1.668   0.943 -0.1395  0.4220  0.2760
    3SOL    HW1    8   2.821   1.625   1.001  0.0396 -0.1804  0.0337
    3SOL    HW2    9   2.883   1.760   0.970 -1.1062  0.4229  0.2894
    4SOL     OW   10   0.713   2.787   0.996 -0.5318  0.4058 -0.3097
    4SOL    HW1   11   0.784   2.799   0.933  0.8746  1.9204  1.4566
    4SOL    HW2   12   0.722   2.861   1.057 -2.4605 -0.4104  1.0650
    5SOL     OW   13   2.610   3.804   0.184  0.2832  0.3688  0.7120
    5SOL    HW1   14   2.683   3.753   0.218 -0.5952 -0.1203  1.9433
    5SOL    HW2   15   2.551   3.739   0.146 -0.1957  0.6073  1.0443
    6SOL     OW   16   3.057   2.606   2.418 -0.1168  0.0474  0.5376
    6SOL    HW1   17   3.086   2.522   2.381  0.4623 -0.1237  1.3403
    6SOL    HW2   18   2.971   2.587   2.455 -0.3719  0.0333 -0.0488
    7SOL     OW   19   2.319   1.670   0.994 -0.5003  0.2084 -0.4223
    7SOL    HW1   20   2.275   1.754   0.991 -0.0955  0.4607  0.3679
    7SOL    HW2   21   2.407   1.687   0.960 -1.0797 -0.3645 -2.3198
    8SOL     OW   22   3.734   0.797   2.077 -0.1451  0.2633 -0.2384
    8SOL    HW1   23   3.741   0.702   2.075 -1.2605  0.1698 -1.2477
    8SOL    HW2   24   3.643   0.814   2.102 -0.0784  1.0496 -0.4905
    9SOL     OW   25   1.111   2.370   1.989 -0.3223 -0.0354  0.2575
    9SOL    HW1   26   1.196   2.345   2.025 -0.0496 -2.0461 -1.6127
    9SOL    HW2   27   1.068   2.287   1.970 -1.4711  0.9387 -1.5803
   10SOL     OW   28   1.316   3.015   2.081  0.8383  0.4250  0.2049
   10SOL    HW1   29   1.289   3.076   2.012 -2.4596 -1.7756 -0.7326
   10SOL    HW2   30   1.407   2.994   2.061  0.4727  1.0793 -2.6042
   11SOL     OW   31   2.762   1.077   2.882 -0.1754  0.2432  0.4900
   11SOL    HW1   32   2.819   1.064   2.958  0.4280  1.5908  0.2976
   11SOL    HW2   33   2.768   0.994   2.834  0.6741 -0.0671  1.0962
   12SOL     OW   34   0.813   0.693   3.990  0.1114 -0.4091 -0.6719
   12SOL    HW1   35   0.875   0.701   3.917  0.8029  0.4924 -0.0023
   12SOL    HW2   36   0.866   0.659   4.062 -0.3000 -0.1772 -0.2601
   13SOL     OW   37   3.847   0.612   2.386 -0.5074 -0.4360  0.8138
   13SOL    HW1   38   3.757   0.642   2.376 -0.0070  0.9009  0.0196
   13SOL    HW2   39   3.840   0.517   2.392 -1.7651 -0.6609 -2.3408
   14SOL     OW   40   3.252   1.764   0.662 -0.3950  0.3487  0.1280
   14SOL    HW1   41   3.329   1.748   0.717 -2.6463  0.0878  3.5218
   14SOL    HW2   42   3.222   1.677   0.636 -0.2239  0.3909 -0.2235
   15SOL     OW   43   2.102   2.049   0.703  0.1448  0.0882 -0.0045
   15SOL    HW1   44   2.193   2.074   0.714  0.9276 -3.1119  2.2416
   15SOL    HW2   45   2.105   1.971   0.648 -1.4261  0.7455 -1.0958
   16SOL     OW   46   1.376   2.563   2.493 -0.7137 -0.4630  0.4179
   16SOL    HW1   47   1.371   2.477   2.453  0.6499  0.2976 -1.5217
   16SOL    HW2   48   1.362   2.625   2.421  0.0035  0.9531  1.4335
   17SOL     OW   49   2.415   1.039   0.900  0.1885 -0.5887  0.2765
   17SOL    HW1   50   2.500   0.996   0.887 -0.0383 -0.6017 -1.3351
   17SOL    HW2   51   2.416   1.112   0.839 -0.2763  0.4840  1.5057
   18SOL     OW   52   1.708   1.616   3.906 -0.0298 -0.0886  0.8556
   18SOL    HW1   53   1.721   1.692   3.963 -4.1025  4.0777 -2.9385
   18SOL    HW2   54   1.768   1.630   3.833 -0.8586 -0.4499  0.0897
   19SOL     OW   55   3.694   1.609   3.379  0.1974  0.6358 -0.0909
   19SOL    HW1   56   3.699   1.574   3.469 -1.2047  0.7641  0.0717
   19SOL    HW2   57   3.756   1.681   3.378  1.3303 -0.3035  0.3203
   20SOL     OW   58   2.816   2.178   0.122  0.5754 -0.1150 -0.2202
   20SOL    HW1   59   2.848   2.117   0.055 -0.5692 -2.1838  1.0176
   20SOL    HW2   60   2.724   2.155   0.133  0.4949  0.8290  1.3955
   21SOL     OW   61   0.412   2.210   0.053 -0.2477 -0.2886  0.1159
   21SOL    HW1   62   0.374   2.284   0.007 -1.3067 -0.6748  0.3389
   21SOL    HW2   63   0.436   2.244   0.139 -3.9307 -0.8992  1.5640
   22SOL     OW   64   1.524   3.163   3.430  0.0846 -0.4781 -0.1418
   22SOL    HW1   65   1.565   3.243   3.462 -1.4499 -0.2857  1.5524
   22SOL    HW2   66   1.499   3.182   3.340  0.6273  0.5823 -0.0738
   23SOL     OW   67   1.747   3.874   1.990 -0.2435  0.0403 -0.3263
   23SOL    HW1   68   1.764   3.885   2.084 -0.7450  0.2998 -0.2622
   23SOL    HW2   69   1.803   3.939   1.948 -0.3795  0.2560 -0.1765
   24SOL     OW   70   3.335   2.209   3.137 -0.2917 -0.0687 -0.0638
   24SOL    HW1   71   3.375   2.296   3.130 -0.4603  0.1137  1.0689
   24SOL    HW2   72   3.406   2.148   3.116  0.5243  0.2567  1.6077
   25SOL     OW   73   1.092   0.558   0.979  0.0168 -0.0357  0.1209
   25SOL    HW1   74   1.058   0.558   1.069 -0.4245 -0.0810 -0.0440
   25SOL    HW2   75   1.135   0.643   0.970 -1.5663  0.7820 -0.2193
   26SOL     OW   76   1.226   0.623   3.255 -0.6221  0.3315  0.6913
   26SOL    HW1   77   1.203   0.562   3.325 -2.6414  1.2847  0.9500
   26SOL    HW2   78   1.272   0.694   3.300  0.1056 -0.1237  0.6770
   27SOL     OW   79   0.093   1.967   1.645 -0.2819  1.0488 -0.3151
   27SOL    HW1   80   0.139   1.939   1.566  1.7440  1.7068  0.5561
   27SOL    HW2   81   0.146   1.932   1.717 -0.5328  2.7370  0.7456
   28SOL     OW   82   3.206   4.009   2.302  0.7262 -0.2073  0.1213
   28SOL    HW1   83   3.270   4.049   2.361 -1.3488 -0.4203  2.6509
   28SOL    HW2   84   3.197   3.919   2.333 -0.6902 -0.2195 -0.2847
   29SOL     OW   85   1.675   2.476   0.792 -0.0390 -0.0880  0.1533
   29SOL    HW1   86   1.697   2.387   0.818  1.8395  0.3256  0.1005
   29SOL    HW2   87   1.668   2.524   0.874  1.8796  0.3264  0.1198
   30SOL     OW   88   3.640   0.764   0.548  0.0981  0.2748 -0.3934
   30SOL    HW1   89   3.551   0.750   0.579  0.0107 -0.5599 -0.9866
   30SOL    HW2   90   3.653   0.859   0.554 -0.9883  0.4563 -0.7330
   31SOL     OW   91   2.040   2.661   2.254 -0.3615 -0.3747  0.5695
   31SOL    HW1   92   2.123   2.623   2.281 -0.2822  0.5245  1.7080
   31SOL    HW2   93   1.995   2.681   2.337 -1.4607 -0.3258 -0.0210
   32SOL     OW   94   1.606   3.831   2.444  0.5291  0.2806 -0.3364
   32SOL    HW1   95   1.584   3.924   2.453 -1.9835 -0.3186  0.6354
   32SOL    HW2   96   1.527   3.791   2.406  1.3564 -1.5281 -0.2817
   33SOL     OW   97   1.198   1.776   2.609  0.0850 -0.1214 -0.3654
   33SOL    HW1   98   1.188   1.823   2.692  2.0025  1.3521 -0.9002
   33SOL    HW2   99   1.125   1.808   2.556  0.4291  1.0905 -0.1569
   34SOL     OW  100   0.199   1.075   2.840 -0.4690  0.1440  0.5122
   34SOL    HW1  101   0.228   1.163   2.816  1.2367 -0.2402  1.0829
   34SOL    HW2  102   0.194   1.028   2.756  2.9069 -0.4344  0.5266
   35SOL     OW  103   1.594   3.820   0.085  0.4277 -0.1136 -0.1711
   35SOL    HW1  104   1.589   3.903   0.037 -0.1168  0.5440  0.9740
   35SOL    HW2  105   1.503   3.797   0.102  0.6056 -0.0324  1.0120
   36SOL     OW  106   1.734   1.470   2.885 -0.0223 -0.1654 -0.5131
   36SOL    HW1  107   1.767   1.419   2.811 -0.6359 -1.2032 -0.0835
   36SOL    HW2  108   1.810   1.482   2.942  0.0657 -0.8637 -0.4783
   37SOL     OW  109   0.643   1.517   0.511  0.1140 -0.1232 -0.2756
   37SOL    HW1  110   0.603   1.430   0.504  0.3592 -0.1474 -1.5186
   37SOL    HW2  111   0.729   1.500   0.549  0.7560 -0.6206 -1.8871
   38SOL     OW  112   3.437   2.279   2.045 -0.1403  0.1049 -0.0529
   38SOL    HW1  113   3.522   2.307   2.011 -0.8789 -0.1308 -2.2088
   38SOL    HW2  114   3.385   2.360   2.049 -0.0410  0.1430  0.6493
   39SOL     OW  115   2.924   2.224   1.266  0.1872 -0.2798 -0.8543
   39SOL    HW1  116   2.908   2.149   1.324 -0.7409 -1.4022 -2.5083
   39SOL    HW2  117   3.014   2.250   1.285 -0.2299 -0.2616  1.4382
   40SOL     OW  118   3.004   1.345   2.913  0.4049  0.3407  0.3213
   40SOL    HW1  119   2.966   1.428   2.883 -0.0931 -0.2743 -0.7907
   40SOL    HW2  120   3.097   1.365   2.924  0.6561  0.5835 -1.8063
   41SOL     OW  121   1.459   0.499   1.229 -0.1839 -0.0268 -0.3937
   41SOL    HW1  122   1.426   0.536   1.147  0.4076 -0.6200 -0.9148
   41SOL    HW2  123   1.553   0.518   1.228  0.0015 -0.8907 -0.3377
   42SOL     OW  124   1.796   0.768   0.264  0.2338  0.8205  0.4140
   42SOL    HW1  125   1.845   0.704   0.315 -0.0094  0.9422  0.8067
   42SOL    HW2  126   1.858   0.800   0.199  0.1669 -0.3148 -0.2369
   43SOL     OW  127   1.323   0.643   2.108 -0.6007  0.3666  0.1419
   43SOL    HW1  128   1.297   0.587   2.181  0.7285  1.0853  1.2204
   43SOL    HW2  129   1.417   0.629   2.100 -0.3394  2.0369  0.0898
   44SOL     OW  130   1.999   2.212   1.702 -0.0371 -0.5785 -0.5519
   44SOL    HW1  131   1.924   2.191   1.758 -1.4170 -0.8408 -2.4141
   44SOL    HW2  132   1.986   2.158   1.624  1.6005  0.0765 -1.3115
   45SOL     OW  133   2.494   3.856   2.463 -0.2560 -0.2065 -0.0197
   45SOL    HW1  134   2.510   3.850   2.557 -1.0759  1.7475  0.2818
   45SOL    HW2  135   2.424   3.793   2.447 -1.6214  0.9656  1.1026
   46SOL     OW  136   2.642   2.532   3.848  1.0338  0.0037 -0.0902
   46SOL    HW1  137   2.723   2.525   3.797  0.3863  0.0545 -1.1376
   46SOL    HW2  138   2.617   2.442   3.867  0.3738 -0.0901 -1.3270
   47SOL     OW  139   0.788   3.207   3.882  0.8013  0.1135 -0.0008
   47SOL    HW1  140   0.881   3.209   3.860  0.2208  2.0331 -2.8837
   47SOL    HW2  141   0.756   3.126   3.843  0.8717  0.6250 -1.1559
   48SOL     OW  142   0.345   0.671   3.780  0.5570  0.2025  0.6317
   48SOL    HW1  143   0.421   0.624   3.815  0.9351  0.5449  0.2864
   48SOL    HW2  144   0.306   0.609   3.717  1.4415  0.5754 -0.3188
   49SOL     OW  145   2.489   2.468   2.675 -0.2213 -0.3905  0.5601
   49SOL    HW1  146   2.583   2.460   2.692 -0.0695 -0.1958 -0.1623
   49SOL    HW2  147   2.467   2.557   2.703  0.5695  0.9149 -2.5792
   50SOL     OW  148   0.733   0.804   2.689 -1.1808  0.0195 -0.1099
   50SOL    HW1  149   0.651   0.840   2.656 -0.9787  1.3590  0.7959
   50SOL    HW2  150   0.794   0.878   2.687 -0.1511 -0.8083 -0.2122
   51SOL     OW  151   2.643   1.364   3.956  0.1485 -0.2250 -0.0571
   51SOL    HW1  152   2.650   1.272   3.931 -0.7869  0.2364 -2.2552
   51SOL    HW2  153   2.687   1.412   3.886 -0.4989  1.0716  0.3824
   52SOL     OW  154   1.670   1.319   3.501  0.6570  0.2759  0.1774
   52SOL    HW1  155   1.624   1.358   3.575 -0.8999  0.5916 -0.9167
   52SOL    HW2  156   1.697   1.233   3.533  0.8580  0.7580  1.3989
   53SOL     OW  157   2.819   3.704   2.647  0.4698  0.2401 -0.1718
   53SOL    HW1  158   2.738   3.737   2.608 -0.0212 -0.6825  0.0581
   53SOL    HW2  159   2.810   3.724   2.740  1.1139  1.3594 -0.3376
   54SOL     OW  160   1.453   2.758   1.089  0.2029  0.0283 -0.5931
   54SOL    HW1  161   1.534   2.791   1.127  1.6637 -1.3395 -2.3241
   54SOL    HW2  162   1.413   2.706   1.159  0.7290  0.8348  0.3317
   55SOL     OW  163   2.896   0.804   3.443 -0.3701 -0.4392  0.1642
   55SOL    HW1  164   2.859   0.856   3.514  1.5938  2.0506 -0.4546
   55SOL    HW2  165   2.823   0.789   3.383 -0.8604  3.1106 -0.3663
   56SOL     OW  166   2.560   0.871   3.385 -0.0386 -0.1903 -0.1960
   56SOL    HW1  167   2.522   0.862   3.472  0.6461 -0.7289  0.0615
   56SOL    HW2  168   2.490   0.907   3.331 -0.0914  1.3199  0.8490
   57SOL     OW  169   3.711   2.030   3.715  0.3676 -0.5191  0.2426
   57SOL    HW1  170   3.742   2.085   3.787  3.0049  0.4616 -1.4927
   57SOL    HW2  171   3.684   1.948   3.757  0.5637  0.4712  2.4313
   58SOL     OW  172   3.906   0.198   1.579  0.6133  0.2328 -0.2149
   58SOL    HW1  173   3.909   0.217   1.485  0.8026  0.1360 -0.2286
   58SOL    HW2  174   3.972   0.255   1.617  1.4623 -0.6738 -0.3043
   59SOL     OW  175   0.583   0.610   3.532  0.5525 -0.3363  0.2405
   59SOL    HW1  176   0.599   0.632   3.440 -0.2201 -1.6278 -0.2170
   59SOL    HW2  177   0.598   0.693   3.579  1.1268  0.2956 -1.0129
   60SOL     OW  178   0.171   0.034   0.404 -0.2816 -0.3590  0.5941
   60SOL    HW1  179   0.138   0.113   0.448 -1.3449 -0.3783 -0.1320
   60SOL    HW2  180   0.261   0.025   0.436 -1.2925 -1.0109  3.6318
   61SOL     OW  181   3.842   0.656   3.564  0.0951  0.3673  0.1734
   61SOL    HW1  182   3.777   0.711   3.520  1.0343  1.2315 -0.1864
   61SOL    HW2  183   3.859   0.701   3.646  0.3826  0.2442  0.1807
   62SOL     OW  184   0.329   0.537   3.474  0.2285 -0.0656 -0.7195
   62SOL    HW1  185   0.348   0.453   3.517  0.2791  0.2457 -0.1266
   62SOL    HW2  186   0.405   0.591   3.492  0.2839  0.0506 -1.2741
   63SOL     OW  187   3.167   0.503   3.015  0.3283  0.1937  0.2987
   63SOL    HW1  188   3.116   0.423   2.997  1.0078 -0.2152  0.1669
   63SOL    HW2  189   3.234   0.476   3.077  1.0835  0.4564 -0.3760
   64SOL     OW  190   1.518   3.014   0.864  0.7095  0.6294 -0.2859
   64SOL    HW1  191   1.466   3.050   0.936  0.5760  0.4910 -0.3111
   64SOL    HW2  192   1.594   2.975   0.906 -0.4389 -1.4220  0.0132
   65SOL     OW  193   3.458   3.833   3.249  0.4828  0.2606  0.3512
   65SOL    HW1  194   3.467   3.841   3.343  4.6214 -0.3312  0.1836
   65SOL    HW2  195   3.468   3.922   3.215  3.0663  0.0626  0.4015
   66SOL     OW  196   2.157   1.600   1.599 -0.1824  0.6381 -0.0121
   66SOL    HW1  197   2.173   1.665   1.667  0.6657  3.3494 -2.5623
   66SOL    HW2  198   2.192   1.640   1.519 -2.1156 -1.8256 -2.2866
   67SOL     OW  199   2.457   0.342   0.405  0.6268 -0.1569 -0.2468
   67SOL    HW1  200   2.442   0.335   0.311  0.5948  1.6232 -0.4059
   67SOL    HW2  201   2.551   0.325   0.416  0.2851 -2.4495 -0.3023
   68SOL     OW  202   2.984   3.004   0.909  0.3547 -0.1357 -0.9254
   68SOL    HW1  203   3.001   2.909   0.907  1.5278  0.0639 -1.1433
   68SOL    HW2  204   2.889   3.011   0.914  0.3177 -1.3365  0.9539
   69SOL     OW  205   0.704   2.314   3.525 -0.1573  0.0137  0.4989
   69SOL    HW1  206   0.753   2.242   3.486  1.0456  0.3886  1.2474
   69SOL    HW2  207   0.612   2.292   3.510  0.2340 -0.3165 -1.6304
   70SOL     OW  208   2.477   1.300   2.076  0.5682  0.2310  0.6472
   70SOL    HW1  209   2.437   1.379   2.039 -1.0368 -1.4972 -1.5819
   70SOL    HW2  210   2.410   1.232   2.065  0.7450 -0.9576  5.0388
   71SOL     OW  211   2.357   3.747   1.080  0.1670 -0.3151 -0.4928
   71SOL    HW1  212   2.277   3.790   1.110  0.8538  1.2523 -0.8441
   71SOL    HW2  213   2.327   3.686   1.012 -0.4180  2.9991 -3.5056
   72SOL     OW  214   0.811   2.278   1.190  0.4932  0.2247 -0.4010
   72SOL    HW1  215   0.864   2.358   1.185  0.0773  0.4340 -1.5912
   72SOL    HW2  216   0.836   2.227   1.113 -0.3904 -0.0771 -0.4957
   73SOL     OW  217   0.808   2.304   0.911 -0.4857  0.2071 -0.3655
   73SOL    HW1  218   0.738   2.345   0.961 -0.7220  1.2423 -1.5015
   73SOL    HW2  219   0.787   2.210   0.913 -1.3654  0.4009  0.1166
   74SOL     OW  220   2.882   2.491   1.425 -0.7121 -0.2360  0.0760
   74SOL    HW1  221   2.845   2.512   1.339 -1.6911 -0.1855  0.4987
   74SOL    HW2  222   2.941   2.418   1.407  0.0661  0.5853 -0.8339
   75SOL     OW  223   3.676   0.559   3.304  0.3065  0.8381 -0.1947
   75SOL    HW1  224   3.662   0.471   3.271 -1.6685  1.3543 -0.8918
   75SOL    HW2  225   3.707   0.609   3.228  0.5360  0.9406 -0.0345
   76SOL     OW  226   1.872   2.586   0.618 -0.5727 -0.2958 -0.4322
   76SOL    HW1  227   1.820   2.549   0.689  0.2767 -0.6047  0.0539
   76SOL    HW2  228   1.942   2.521   0.604 -1.1020 -0.5601 -2.0021
   77SOL     OW  229   1.686   0.808   3.751  0.1200 -0.0555  0.2855
   77SOL    HW1  230   1.688   0.876   3.684  2.3002  0.6858  1.0046
   77SOL    HW2  231   1.721   0.730   3.708  0.0221 -0.0266  0.1539
   78SOL     OW  232   0.892   1.849   3.480 -0.3950 -0.1769  0.1055
   78SOL    HW1  233   0.923   1.759   3.487 -0.5505 -0.1318  1.8489
   78SOL    HW2  234   0.925   1.879   3.396 -1.4692 -2.2838 -1.1654
   79SOL     OW  235   2.144   1.804   2.171 -0.4845  0.4123  0.9426
   79SOL    HW1  236   2.107   1.864   2.235 -1.6514  0.1999  0.4876
   79SOL    HW2  237   2.112   1.835   2.086 -0.3881 -0.3356  0.6205
   80SOL     OW  238   1.966   3.471   3.590 -0.0825 -0.1205  0.0270
   80SOL    HW1  239   1.901   3.510   3.648  0.3319 -0.5387  0.7863
   80SOL    HW2  240   2.018   3.545   3.558 -1.7905  0.3987 -1.7255
   81SOL     OW  241   3.048   3.784   2.524 -0.1268  0.4293  0.1569
   81SOL    HW1  242   2.961   3.771   2.561 -0.4390 -3.0840 -1.3611
   81SOL    HW2  243   3.107   3.737   2.583  0.9976  3.4267  1.6014
   82SOL     OW  244   0.757   0.125   1.900 -0.2832 -0.3049 -0.0203
   82SOL    HW1  245   0.840   0.119   1.947 -0.0103 -0.8198 -0.5504
   82SOL    HW2  246   0.706   0.050   1.931  0.0757 -0.9173 -0.8593
   83SOL     OW  247   3.312   2.976   1.348  0.8272 -0.1749  0.4421
   83SOL    HW1  248   3.296   3.048   1.408 -0.0958 -1.1541  1.4179
   83SOL    HW2  249   3.243   2.984   1.281 -0.3428 -1.0825  1.4838
   84SOL     OW  250   0.124   2.009   3.763 -0.2242 -0.8069 -0.6411
   84SOL    HW1  251   0.094   2.017   3.672  0.7729 -1.7654 -1.0782
   84SOL    HW2  252   0.164   2.094   3.782 -2.3628  0.1938 -0.3231
   85SOL     OW  253   2.553   0.178   2.691 -0.4159 -0.4789  0.4527
   85SOL    HW1  254   2.518   0.154   2.606  1.2796  0.0925 -0.4586
   85SOL    HW2  255   2.497   0.133   2.754 -0.1100 -3.0771 -1.0140
   86SOL     OW  256   1.404   2.388   1.952  0.2236 -0.0154 -0.1720
   86SOL    HW1  257   1.361   2.431   1.878 -0.1966  0.9247  0.5864
   86SOL    HW2  258   1.495   2.380   1.925  0.0474  0.1843 -0.8474
   87SOL     OW  259   3.140   2.456   3.158 -0.0869  0.3362 -0.3612
   87SOL    HW1  260   3.048   2.457   3.131 -0.8738  2.5429  1.9691
   87SOL    HW2  261   3.170   2.367   3.138 -2.5205 -0.2776 -1.7230
   88SOL     OW  262   0.483   3.263   2.544 -0.5536 -0.1115 -0.0141
   88SOL    HW1  263   0.560   3.318   2.557 -1.7834  2.4708 -2.5283
   88SOL    HW2  264   0.410   3.324   2.538 -2.8549 -2.4101  1.8153
   89SOL     OW  265   1.358   0.757   3.834 -0.5050 -0.5216  0.7271
   89SOL    HW1  266   1.278   0.720   3.797  0.6775 -1.1229 -1.3798
   89SOL    HW2  267   1.427   0.730   3.774  0.7161  3.8132 -0.1291
   90SOL     OW  268   3.475   0.929   2.103  0.2064  0.0502 -0.0093
   90SOL    HW1  269   3.517   1.006   2.142 -1.1875  0.6830  0.2808
   90SOL    HW2  270   3.400   0.964   2.055  0.2910 -1.0137 -0.9587
   91SOL     OW  271   3.641   0.502  -0.000  0.8875 -0.1099 -0.6529
   91SOL    HW1  272   3.734   0.519  -0.016  0.7836 -0.7516 -2.0768
   91SOL    HW2  273   3.639   0.417   0.042  1.0220  0.6044  0.8550
   92SOL     OW  274   0.758   2.691   3.786  0.9539  0.1887  0.5177
   92SOL    HW1  275   0.836   2.733   3.820  1.6267 -0.2289 -0.4801
   92SOL    HW2  276   0.778   2.597   3.787  1.8384  0.2043 -2.8438
   93SOL     OW  277   2.418   0.184   2.445  0.5869  0.7620 -0.2665
   93SOL    HW1  278   2.374   0.152   2.366  1.8482  0.0570 -0.7038
   93SOL    HW2  279   2.506   0.208   2.416  2.9195 -4.1114  1.6392
   94SOL     OW  280   1.428   2.204   1.386 -0.1710 -0.0244 -0.2591
   94SOL    HW1  281   1.425   2.163   1.473 -0.1112  0.8416  0.1582
   94SOL    HW2  282   1.382   2.287   1.397  0.8895  0.6383 -0.7637
   95SOL     OW  283   2.086   2.362   0.620 -0.7312  0.3007  0.0998
   95SOL    HW1  284   2.136   2.283   0.641 -2.2267 -0.6693  0.1908
   95SOL    HW2  285   2.114   2.386   0.532 -0.0608 -0.1711  0.1808
   96SOL     OW  286   1.075   0.413   1.450  0.2871 -0.0660  0.5146
   96SOL    HW1  287   1.134   0.487   1.437 -0.7696  0.4634 -1.7381
   96SOL    HW2  288   1.091   0.355   1.375 -1.7110 -0.0898  0.0346
   97SOL     OW  289   1.351   3.382   3.906  0.1119 -0.7070  0.1068
   97SOL    HW1  290   1.379   3.305   3.857  2.2931 -0.8201  1.3837
   97SOL    HW2  291   1.258   3.391   3.888  0.0788 -2.9311 -1.0216
   98SOL     OW  292   3.561   0.710   2.730 -0.4770 -0.6239  0.4059
   98SOL    HW1  293   3.583   0.632   2.679  1.5160 -1.2312  2.0293
   98SOL    HW2  294   3.506   0.763   2.672  1.0924 -1.5672 -2.0941
   99SOL     OW  295   1.105   0.835   1.034 -0.8529 -0.2373 -0.2438
   99SOL    HW1  296   1.046   0.910   1.047 -1.6852 -1.0749  1.1406
   99SOL    HW2  297   1.152   0.855   0.954 -0.3214  2.2458  0.5879
  100SOL     OW  298   1.957   1.456   3.092  0.1515  0.3528  0.3566
  100SOL    HW1  299   2.022   1.388   3.075 -0.4081  0.3708 -2.3386
  100SOL    HW2  300   2.008   1.537   3.094  0.7298  0.0009  2.8966
  101SOL     OW  301   1.916   0.946   1.233  0.0400  0.3766  0.2131
  101SOL    HW1  302   1.961   0.891   1.169  0.5295 -1.6534  2.1835
  101SOL    HW2  303   1.933   1.036   1.203  1.8734 -0.4342 -1.4126
  102SOL     OW  304   1.037   3.956   3.072 -0.6739 -0.3338 -0.4713
  102SOL    HW1  305   0.995   3.919   3.150 -2.4948  3.7118  0.7249
  102SOL    HW2  306   1.130   3.962   3.096 -0.7704 -1.5541  0.2901
  103SOL     OW  307   1.863   2.158   0.753 -0.9998  0.4506 -0.5252
  103SOL    HW1  308   1.943   2.115   0.722 -0.5905  0.6207  0.2638
  103SOL    HW2  309   1.822   2.094   0.811 -1.9554 -0.0122 -1.6523
  104SOL     OW  310   3.345   0.189   1.621  1.0773 -0.9606 -0.5796
  104SOL    HW1  311   3.385   0.274   1.639  2.2929 -1.7815  0.8474
  104SOL    HW2  312   3.257   0.210   1.590  1.3288  0.8022 -0.2198
  105SOL     OW  313   3.713   3.052   3.766  0.8347 -0.0370 -0.2691
  105SOL    HW1  314   3.689   3.118   3.831 -1.9327 -0.3942 -0.8004
  105SOL    HW2  315   3.726   3.102   3.685 -0.4953 -0.0160 -0.4936
  106SOL     OW  316   3.302   3.123   2.253 -0.2722  0.1111 -0.1061
  106SOL    HW1  317   3.247   3.093   2.325  0.5263 -2.0305 -0.3254
  106SOL    HW2  318   3.280   3.066   2.180  1.1454  0.2006 -0.6352
  107SOL     OW  319   1.031   0.088   2.832 -0.4326 -0.6988 -0.3506
  107SOL    HW1  320   1.024   0.021   2.901  1.4941 -1.5321 -0.9030
  107SOL    HW2  321   1.053   0.168   2.880 -2.4206 -0.4506  0.2807
  108SOL     OW  322   3.231   0.455   1.235  0.2444  0.3761 -0.3727
  108SOL    HW1  323   3.267   0.368   1.217 -0.9688  0.3522 -3.2228
  108SOL    HW2  324   3.171   0.441   1.308  0.1243 -1.2156 -0.7277
  109SOL     OW  325   2.612   3.903   3.900 -0.4924  0.7688  0.2077
  109SOL    HW1  326   2.518   3.917   3.897 -0.5734  0.1811 -0.5826
  109SOL    HW2  327   2.631   3.880   3.991 -1.0896  1.0405  0.3994
  110SOL     OW  328   2.061   1.122   1.565 -0.3202 -0.1389  0.3727
  110SOL    HW1  329   2.088   1.188   1.501  0.2265  0.1514  0.8881
  110SOL    HW2  330   2.143   1.086   1.599 -0.2715  2.8192  4.1156
  111SOL     OW  331   0.105   3.066   1.605 -0.2086 -0.2336  0.5850
  111SOL    HW1  332   0.197   3.092   1.609  0.3293 -1.3545 -1.9865
  111SOL    HW2  333   0.107   2.971   1.612 -1.0255 -0.3486 -0.4270
  112SOL     OW  334   0.725   1.373   0.143 -0.6061  0.7062 -0.4859
  112SOL    HW1  335   0.782   1.337   0.211 -0.8527 -0.3343 -0.7947
  112SOL    HW2  336   0.695   1.295   0.094  0.4669  1.4722 -2.4904
  113SOL     OW  337   2.517   2.706   3.704  0.2405 -0.2383  0.2134
  113SOL    HW1  338   2.536   2.651   3.779  0.3838  1.8548  1.8171
  113SOL    HW2  339   2.563   2.788   3.722  0.4430  0.2851 -2.2789
  114SOL     OW  340   1.727   2.338   3.966  0.4976 -0.0439 -0.2889
  114SOL    HW1  341   1.793   2.294   3.913  1.0811  0.0115  0.3907
  114SOL    HW2  342   1.732   2.296   4.051  0.5991  0.8864  0.1751
  115SOL     OW  343   2.947   0.764   2.389  0.3869 -0.3435 -0.1662
  115SOL    HW1  344   2.966   0.815   2.310  0.8102 -1.2786 -0.6788
  115SOL    HW2  345   2.965   0.825   2.462 -0.9552  0.8466 -0.7786
  116SOL     OW  346   2.697   1.707   1.983 -0.0435 -0.7235 -0.5140
  116SOL    HW1  347   2.610   1.733   1.950 -1.2457 -1.4648  1.8236
  116SOL    HW2  348   2.691   1.722   2.077  2.9851  0.7576 -0.4505
  117SOL     OW  349   1.589   3.500   2.541 -0.0732  0.0321 -0.6216
  117SOL    HW1  350   1.599   3.595   2.551  0.9660 -0.2380  1.5130
  117SOL    HW2  351   1.665   3.463   2.587 -0.9923 -1.8611 -0.5316
  118SOL     OW  352   2.310   3.145   0.280  0.2753 -0.1308  0.2924
  118SOL    HW1  353   2.231   3.167   0.230  1.0921 -1.8538 -1.9158
  118SOL    HW2  354   2.307   3.204   0.355 -4.2142 -1.5065  1.5207
  119SOL     OW  355   3.371   0.348   3.629 -0.2407  0.1617 -0.0963
  119SOL    HW1  356   3.319   0.358   3.549  1.0634 -0.6128 -1.1043
  119SOL    HW2  357   3.436   0.281   3.606 -0.1751 -0.4802  1.8094
  120SOL     OW  358   0.796   3.481   3.468 -0.3971 -0.3174  0.5424
  120SOL    HW1  359   0.851   3.409   3.500 -0.1519 -1.3460 -1.9590
  120SOL    HW2  360   0.708   3.444   3.465 -0.3897 -0.3014 -0.0632
  121SOL     OW  361   3.577   0.097   2.640 -0.1792 -0.5341 -0.2218
  121SOL    HW1  362   3.522   0.068   2.568  0.4101 -0.6130 -0.6509
  121SOL    HW2  363   3.626   0.018   2.665  1.7983  0.1542 -1.7185
  122SOL     OW  364   1.971   2.948   2.714  0.6828 -0.4736 -0.2004
  122SOL    HW1  365   1.955   3.025   2.659  1.1903  0.9100  1.4845
  122SOL    HW2  366   2.047   2.972   2.767 -1.4697 -0.5002  3.1850
  123SOL     OW  367   3.113   0.548   0.589  0.0934  0.2009 -0.1889
  123SOL    HW1  368   3.052   0.622   0.589  0.6380  0.6676  0.7618
  123SOL    HW2  369   3.080   0.491   0.659  0.7253  0.4568  0.3342
  124SOL     OW  370   1.695   2.122   1.948 -0.7574 -0.4038  0.0754
  124SOL    HW1  371   1.786   2.093   1.941 -0.6708  0.0589 -0.7847
  124SOL    HW2  372   1.682   2.137   2.042  1.3135  3.4833 -0.0456
  125SOL     OW  373   2.628   1.046   1.785  0.4434 -0.6467  0.3875
  125SOL    HW1  374   2.621   1.043   1.881  0.6236  2.6565  0.6274
  125SOL    HW2  375   2.588   0.965   1.755  0.1949 -1.6907  3.2442
  126SOL     OW  376   0.754   2.470   1.735  0.3355  0.2785 -0.2317
  126SOL    HW1  377   0.723   2.550   1.692 -2.0527  0.4052  1.5465
  126SOL    HW2  378   0.682   2.445   1.794  2.0618 -1.7706  1.1366
  127SOL     OW  379   0.845   3.045   0.511 -0.1395  1.2638 -0.0532
  127SOL    HW1  380   0.892   3.088   0.583 -0.2562 -0.2959  1.0065
  127SOL    HW2  381   0.876   3.090   0.432  2.2764  1.0806  0.7041
  128SOL     OW  382   1.131   3.294   0.142 -0.5068 -0.6032 -0.0407
  128SOL    HW1  383   1.089   3.360   0.086 -0.9993 -1.8332 -1.1932
  128SOL    HW2  384   1.199   3.342   0.189 -2.0158  1.0836  0.5339
  129SOL     OW  385   0.220   2.694   0.284  0.3934  0.5192 -0.6650
  129SOL    HW1  386   0.176   2.767   0.327  0.3966 -0.4502  1.0571
  129SOL    HW2  387   0.156   2.662   0.220 -1.4286 -0.7288  1.6373
  130SOL     OW  388   3.646   2.868   1.725 -0.7306  0.3229 -0.1750
  130SOL    HW1  389   3.702   2.877   1.647 -2.2057  2.3678 -1.1052
  130SOL    HW2  390   3.558   2.884   1.693 -1.3446  1.6830  1.9823
  131SOL     OW  391   2.569   2.448   0.475  0.1164 -0.5826 -0.0210
  131SOL    HW1  392   2.566   2.503   0.396 -2.3044 -1.6911 -0.8098
  131SOL    HW2  393   2.494   2.478   0.526 -0.1350 -1.8950  0.4070
  132SOL     OW  394   3.518   3.622   1.170 -0.2112 -0.1994 -0.6002
  132SOL    HW1  395   3.501   3.716   1.158 -1.3487 -0.1397  1.0987
  132SOL    HW2  396   3.540   3.590   1.083  0.9356  1.7787 -1.0911
  133SOL     OW  397   3.803   0.305   2.376  0.6997  0.7213 -0.4641
  133SOL    HW1  398   3.820   0.217   2.344  0.3829 -0.6265  2.7388
  133SOL    HW2  399   3.710   0.320   2.356  0.2219 -0.5212  0.6713
  134SOL     OW  400   0.989   0.091   1.634  0.2267 -0.6655 -0.3414
  134SOL    HW1  401   0.969   0.119   1.723  0.3368 -2.1580  0.1961
  134SOL    HW2  402   1.085   0.093   1.629  0.6060 -4.6452  1.1442
  135SOL     OW  403   2.808   3.782   2.895  0.2047  0.2856  0.8249
  135SOL    HW1  404   2.742   3.714   2.902  0.1473  0.1345 -0.7691
  135SOL    HW2  405   2.841   3.793   2.984  0.4601 -2.0568  1.0803
  136SOL     OW  406   3.937   0.367   3.482 -0.0961  0.3281  0.0499
  136SOL    HW1  407   3.906   0.458   3.488 -0.3229  0.1887  1.3756
  136SOL    HW2  408   3.861   0.318   3.450  0.1658  0.6596 -1.1177
  137SOL     OW  409   0.667   0.894   2.221 -0.3398  0.6484 -0.5706
  137SOL    HW1  410   0.657   0.800   2.237 -2.0981  0.9764  0.5213
  137SOL    HW2  411   0.637   0.906   2.131 -3.2229  0.5316  0.2802
  138SOL     OW  412   3.764   3.055   0.656  0.0215 -0.6381 -0.8627
  138SOL    HW1  413   3.814   3.024   0.580 -1.3349 -0.1718 -2.0007
  138SOL    HW2  414   3.696   2.989   0.668 -0.7259  0.0676 -1.0739
  139SOL     OW  415   2.134   1.899   1.436 -0.2642 -0.3191 -0.0858
  139SOL    HW1  416   2.142   1.898   1.341 -0.4362  1.8022 -0.1716
  139SOL    HW2  417   2.080   1.976   1.454  1.0341  0.1980  1.8143
  140SOL     OW  418   2.088   1.325   2.661 -0.3606  0.1072 -0.0434
  140SOL    HW1  419   2.159   1.338   2.599  0.0754 -0.7108  0.2622
  140SOL    HW2  420   2.008   1.332   2.609 -0.0688  1.1151 -0.3755
  141SOL     OW  421   3.340   3.281   1.844  0.5528 -0.2577  0.3085
  141SOL    HW1  422   3.396   3.204   1.833 -0.8197 -1.1177 -1.0469
  141SOL    HW2  423   3.348   3.329   1.761 -1.6406 -1.0784 -0.4558
  142SOL     OW  424   3.740   0.722   2.970  0.4719 -0.0047 -0.0376
  142SOL    HW1  425   3.695   0.730   2.886 -0.3422 -1.1927  0.2477
  142SOL    HW2  426   3.698   0.787   3.027  0.4830  0.2605 -0.3351
  143SOL     OW  427   3.008   2.961   0.539 -0.6654 -0.4677  0.1260
  143SOL    HW1  428   3.006   2.881   0.591  2.3961 -0.7634 -0.0282
  143SOL    HW2  429   3.017   3.032   0.603  0.2169 -0.5917  0.1559
  144SOL     OW  430   0.163   2.177   1.973  0.1119  0.1034 -0.1658
  144SOL    HW1  431   0.071   2.148   1.973 -0.5693  2.0493 -1.1648
  144SOL    HW2  432   0.209   2.111   2.024 -2.1760  0.0763  2.0821
  145SOL     OW  433   0.363   2.587   2.614 -0.2954 -0.3686 -0.0055
  145SOL    HW1  434   0.409   2.630   2.542  0.8593 -1.4583  0.0451
  145SOL    HW2  435   0.271   2.610   2.600 -0.3644 -1.8848 -2.8270
  146SOL     OW  436   1.617   3.175   2.628  0.2517 -0.5954  0.1196
  146SOL    HW1  437   1.700   3.128   2.626  0.2892 -0.5041 -0.8674
  146SOL    HW2  438   1.636   3.255   2.675  1.2896  0.4172 -1.8889
  147SOL     OW  439   2.519   0.139   1.865  0.1828 -0.0207  0.2200
  147SOL    HW1  440   2.573   0.073   1.908  0.5592 -0.1529 -0.4335
  147SOL    HW2  441   2.529   0.218   1.919  0.0909 -0.3719  0.7492
  148SOL     OW  442   0.989   3.145   0.752 -0.0961  0.1737  0.5197
  148SOL    HW1  443   1.066   3.133   0.807 -0.0735  2.4501  1.1046
  148SOL    HW2  444   1.022   3.188   0.673 -0.5314 -0.4278  0.0006
  149SOL     OW  445   1.510   2.173   0.623  0.4572  0.0778 -0.7031
  149SOL    HW1  446   1.489   2.107   0.690  0.0924 -1.9121 -2.6530
  149SOL    HW2  447   1.528   2.253   0.672 -0.6532 -1.0616  1.7076
  150SOL     OW  448   0.131   1.939   0.125  0.6118  0.1746 -0.2865
  150SOL    HW1  449   0.088   2.010   0.173  2.4682  1.3577 -0.2711
  150SOL    HW2  450   0.108   1.954   0.034 -1.0691 -0.7425 -0.0488
  151SOL     OW  451   1.558   0.475   0.317 -0.2194  0.3293 -0.4426
  151SOL    HW1  452   1.555   0.451   0.410  2.1512 -0.1488 -0.4130
  151SOL    HW2  453   1.490   0.541   0.307 -0.2660  0.6905  1.7261
  152SOL     OW  454   2.526   3.997   1.146  0.4184  0.6990 -0.4272
  152SOL    HW1  455   2.461   4.034   1.086 -0.1795 -0.0008 -0.2199
  152SOL    HW2  456   2.476   3.944   1.207  1.0369  1.2691  0.6120
  153SOL     OW  457   3.397   0.888   1.100 -0.3092 -0.1457  0.1010
  153SOL    HW1  458   3.346   0.817   1.138 -0.2663 -0.9729 -1.3038
  153SOL    HW2  459   3.457   0.845   1.039  0.1559  1.0325 -0.3108
  154SOL     OW  460   3.308   2.448   1.556 -0.5693 -0.2455  0.3923
  154SOL    HW1  461   3.387   2.431   1.607 -0.2673 -2.4604 -0.7281
  154SOL    HW2  462   3.257   2.507   1.611  0.1585 -1.7602  2.8467
  155SOL     OW  463   1.657   2.937   2.779  0.0741 -0.5072 -0.0976
  155SOL    HW1  464   1.677   3.021   2.820  1.5079 -1.0369  0.3409
  155SOL    HW2  465   1.648   2.876   2.852 -4.0072 -0.2316 -0.1776
  156SOL     OW  466   2.713   2.748   1.106 -0.0667  0.4580 -0.2246
  156SOL    HW1  467   2.660   2.710   1.177 -0.1015  0.3837 -0.2900
  156SOL    HW2  468   2.707   2.842   1.120  0.9909  0.4174  0.6446
  157SOL     OW  469   1.448   1.638   3.374  0.2457  0.2964 -0.2033
  157SOL    HW1  470   1.502   1.630   3.453  3.8640  2.8071 -2.0804
  157SOL    HW2  471   1.370   1.685   3.403  3.1058  4.6107  1.5579
  158SOL     OW  472   0.586   0.668   0.737  0.1310  0.4363  0.0093
  158SOL    HW1  473   0.498   0.639   0.713 -0.0981  2.4433 -1.8409
  158SOL    HW2  474   0.575   0.709   0.823 -0.5423 -0.0930  0.1910
  159SOL     OW  475   0.579   3.163   1.228  0.0614 -0.2172 -0.0919
  159SOL    HW1  476   0.536   3.092   1.180 -2.9936  0.5101  1.3216
  159SOL    HW2  477   0.672   3.153   1.208 -0.5405 -2.9646 -2.0474
  160SOL     OW  478   3.291   1.501   1.933 -0.4645 -0.0708 -0.3210
  160SOL    HW1  479   3.328   1.450   2.006  0.6633  1.1624  0.0239
  160SOL    HW2  480   3.287   1.591   1.967 -0.8795  0.3502 -1.4476
  161SOL     OW  481   0.833   2.649   2.619  0.1340 -0.1144 -0.5860
  161SOL    HW1  482   0.766   2.624   2.683  0.1047  1.0080 -0.1686
  161SOL    HW2  483   0.846   2.569   2.567 -1.0921 -0.5255 -0.3028
  162SOL     OW  484   0.280   1.280   2.470 -0.6265 -0.3345  0.1795
  162SOL    HW1  485   0.267   1.343   2.400 -0.8748  0.5800  1.0206
  162SOL    HW2  486   0.196   1.277   2.515 -1.5149 -3.2939 -1.4091
  163SOL     OW  487   3.602   1.493   2.402 -0.2741 -0.2585  0.2813
  163SOL    HW1  488   3.595   1.569   2.459 -1.6065 -0.1750  0.0550
  163SOL    HW2  489   3.598   1.529   2.313 -2.3030 -0.6418  0.1684
  164SOL     OW  490   0.167   2.063   0.927  0.4932  0.2734  0.1687
  164SOL    HW1  491   0.162   2.032   0.837 -0.9272  1.3461 -0.1504
  164SOL    HW2  492   0.181   1.983   0.979  1.2679 -0.3622 -0.9679
  165SOL     OW  493   0.538   3.027   0.977  0.2010  0.7043  0.1961
  165SOL    HW1  494   0.633   3.022   0.967  0.3200 -0.5445  1.6731
  165SOL    HW2  495   0.508   3.072   0.898  2.1032  2.0829  0.1820
  166SOL     OW  496   1.855   2.535   1.653 -0.5443 -0.2590 -0.4692
  166SOL    HW1  497   1.945   2.543   1.623 -0.3464  0.2555  0.2175
  166SOL    HW2  498   1.811   2.612   1.618  0.5821  2.5109  3.4746
  167SOL     OW  499   1.304   2.057   3.692 -0.2873 -0.2515 -0.1559
  167SOL    HW1  500   1.349   2.130   3.733  3.3882 -2.3395 -0.0296
  167SOL    HW2  501   1.283   1.998   3.765 -0.4750 -0.6775 -0.5495
  168SOL     OW  502   3.193   3.518   3.479 -0.0995  0.5384 -0.0438
  168SOL    HW1  503   3.279   3.548   3.447 -0.5826 -0.5044 -2.5601
  168SOL    HW2  504   3.166   3.452   3.415 -2.7478  0.7663  0.7457
  169SOL     OW  505   2.486   0.202   1.324  0.1620  0.2305 -0.1898
  169SOL    HW1  506   2.510   0.123   1.276  0.0080  0.0781 -0.0189
  169SOL    HW2  507   2.483   0.174   1.415 -0.4000  0.3136 -0.1827
  170SOL     OW  508   3.896   0.919   0.314  0.1694  0.5244 -0.8209
  170SOL    HW1  509   3.832   0.944   0.381  0.1712 -1.1996 -0.1533
  170SOL    HW2  510   3.913   1.001   0.267 -0.5662  1.5656  0.6426
  171SOL     OW  511   1.498   1.593   2.871  0.4096 -0.9645  0.2467
  171SOL    HW1  512   1.521   1.656   2.803  1.4356  0.4099  1.8171
  171SOL    HW2  513   1.581   1.553   2.895  0.0649 -1.3584  0.7904
  172SOL     OW  514   2.980   1.316   3.269  0.1520  0.3977  0.3455
  172SOL    HW1  515   2.940   1.255   3.331  0.1424  0.0592  0.0074
  172SOL    HW2  516   3.054   1.269   3.233 -0.3334  0.2743 -0.5245
  173SOL     OW  517   3.853   3.865   0.344  0.5262 -0.3802  0.5729
  173SOL    HW1  518   3.889   3.937   0.396 -0.8131  0.5874  0.2069
  173SOL    HW2  519   3.823   3.802   0.409 -0.5325  0.5186  0.9827
  174SOL     OW  520   3.558   1.947   0.407  0.4055 -0.4907 -0.3989
  174SOL    HW1  521   3.489   1.988   0.459  0.9628  0.7826 -0.6107
  174SOL    HW2  522   3.639   1.975   0.449  0.8273 -0.7284 -1.0361
  175SOL     OW  523   3.074   0.841   2.118  0.5742 -0.1323 -0.2587
  175SOL    HW1  524   3.083   0.933   2.143  1.7284 -0.1959 -0.3861
  175SOL    HW2  525   3.052   0.844   2.025  3.8137  0.0339 -1.1564
  176SOL     OW  526   1.377   3.740   1.222 -0.4493  0.9095 -0.1563
  176SOL    HW1  527   1.388   3.762   1.314 -0.1576  0.7912 -0.1636
  176SOL    HW2  528   1.402   3.820   1.175 -2.1581  1.5278 -0.0825
  177SOL     OW  529   3.436   0.648   3.911  0.6035  0.5441 -0.1761
  177SOL    HW1  530   3.522   0.608   3.903  1.3080  2.1163 -0.9289
  177SOL    HW2  531   3.454   0.739   3.936 -0.9133  0.4997  1.2573
  178SOL     OW  532   0.976   0.719   2.144  0.1784 -0.2183 -0.7124
  178SOL    HW1  533   0.988   0.765   2.227 -2.1478 -0.0594 -0.3973
  178SOL    HW2  534   0.923   0.779   2.092  1.0473 -0.6082 -2.0869
  179SOL     OW  535   0.461   3.100   0.711 -0.6533  0.0068  0.1528
  179SOL    HW1  536   0.501   3.176   0.753 -0.7229 -1.3924  2.9735
  179SOL    HW2  537   0.374   3.131   0.684 -0.9010  0.8332  1.7618
  180SOL     OW  538   1.261   0.649   2.786 -0.6150  0.0612 -0.1021
  180SOL    HW1  539   1.179   0.655   2.737 -1.1328  0.0421  0.7397
  180SOL    HW2  540   1.251   0.713   2.857 -0.1466 -0.3607  0.3546
  181SOL     OW  541   1.296   2.756   2.671 -0.3232  0.2835 -0.4093
  181SOL    HW1  542   1.221   2.799   2.630 -0.2185  3.3008  2.1533
  181SOL    HW2  543   1.326   2.692   2.606 -4.5492 -0.5327 -1.8454
  182SOL     OW  544   3.394   2.749   1.095 -0.1326 -0.4591 -0.4534
  182SOL    HW1  545   3.426   2.760   1.185  2.6085 -1.3341 -1.2207
  182SOL    HW2  546   3.405   2.835   1.055 -1.0979 -0.1401 -0.0685
  183SOL     OW  547   1.627   0.289   0.033 -0.0265  0.5524  0.2220
  183SOL    HW1  548   1.569   0.357  -0.001  1.8865  0.3257 -4.1330
  183SOL    HW2  549   1.569   0.215   0.051 -1.6170  1.9292  1.1359
  184SOL     OW  550   2.407   1.044   0.118  0.0447  0.3910  0.0823
  184SOL    HW1  551   2.404   0.970   0.179  1.7915  1.1132  1.1184
  184SOL    HW2  552   2.422   1.004   0.032  1.1147 -0.4640  0.6437
  185SOL     OW  553   0.968   1.530   1.943  0.2121  0.1661 -0.0487
  185SOL    HW1  554   1.051   1.577   1.930  0.3312 -0.1098 -0.2856
  185SOL    HW2  555   0.936   1.513   1.855  0.2317 -0.3066  0.0344
  186SOL     OW  556   1.811   3.953   1.010 -0.3878 -0.4715  0.2865
  186SOL    HW1  557   1.894   3.989   0.981 -0.9023 -0.3119 -1.0154
  186SOL    HW2  558   1.807   3.866   0.970 -0.5916 -0.7189  0.8276
  187SOL     OW  559   2.686   0.118   0.906  0.1022  0.6188 -0.3841
  187SOL    HW1  560   2.645   0.103   0.991  0.1121  1.7233 -0.1704
  187SOL    HW2  561   2.751   0.186   0.923  1.4392 -0.4746 -0.8944
  188SOL     OW  562   3.124   1.211   3.510  0.0737 -0.0127 -1.3146
  188SOL    HW1  563   3.128   1.116   3.523 -0.4377  0.1856  0.7152
  188SOL    HW2  564   3.206   1.244   3.546 -1.5959  0.6150  2.4842
  189SOL     OW  565   3.591   3.970   0.804 -0.9407  0.0652  0.1375
  189SOL    HW1  566   3.634   3.984   0.719 -2.0217  0.8700 -0.3000
  189SOL    HW2  567   3.527   3.900   0.787  1.4425 -2.5697  1.2621
  190SOL     OW  568   0.059   2.563   1.873 -0.1486 -0.2767 -0.1285
  190SOL    HW1  569  -0.037   2.568   1.870 -0.1671 -0.6914 -0.3779
  190SOL    HW2  570   0.077   2.501   1.944  0.0551  2.5565  2.5430
  191SOL     OW  571   2.713   2.919   3.771  0.1718 -0.2125  0.3018
  191SOL    HW1  572   2.665   2.937   3.852 -1.0064 -2.2435  0.1115
  191SOL    HW2  573   2.805   2.911   3.799 -0.1844 -0.6495  1.3954
  192SOL     OW  574   1.692   1.502   1.302  0.7346  0.4069  0.1748
  192SOL    HW1  575   1.641   1.583   1.299  0.9245  0.5006 -0.9872
  192SOL    HW2  576   1.670   1.458   1.220  1.4835 -0.1951  0.2942
  193SOL     OW  577   1.231   1.845   0.783  0.0845  0.2180 -0.1158
  193SOL    HW1  578   1.156   1.814   0.835 -0.0253  2.0307  0.8704
  193SOL    HW2  579   1.204   1.829   0.692  0.4034 -3.2977  0.2491
  194SOL     OW  580   2.153   1.015   3.184  0.4137  0.3957 -0.4179
  194SOL    HW1  581   2.150   1.082   3.115 -0.8019  1.3135  0.4849
  194SOL    HW2  582   2.078   1.035   3.240  1.1849 -0.5262  0.9950
  195SOL     OW  583   1.757   1.785   2.983  0.0414  0.6974 -0.1147
  195SOL    HW1  584   1.674   1.790   3.029 -1.4019 -1.7244 -2.1653
  195SOL    HW2  585   1.800   1.708   3.020  0.0749  0.3090 -0.9465
  196SOL     OW  586   3.671   0.389   2.720 -0.6926  0.0444 -0.5614
  196SOL    HW1  587   3.679   0.295   2.705 -0.4561 -0.3399  1.6942
  196SOL    HW2  588   3.756   0.425   2.694 -0.8460 -0.3062 -1.6070
  197SOL     OW  589   3.507   3.788   2.598 -0.2284  0.2654  0.4617
  197SOL    HW1  590   3.574   3.807   2.664  0.4341  0.4900 -0.2601
  197SOL    HW2  591   3.456   3.717   2.635 -0.5841  1.1393  1.7205
  198SOL     OW  592   1.147   2.545   3.888 -0.3605 -0.0022  0.6277
  198SOL    HW1  593   1.093   2.603   3.942  0.3239 -0.5685  1.9659
  198SOL    HW2  594   1.118   2.457   3.911 -1.3352 -0.2657 -1.3291
  199SOL     OW  595   0.319   3.728   2.077 -0.1464  0.3456  0.1179
  199SOL    HW1  596   0.388   3.724   2.010  0.6995  0.1186  0.9692
  199SOL    HW2  597   0.251   3.784   2.039 -0.8056 -1.6719 -1.9183
  200SOL     OW  598   1.637   0.904   2.761 -1.1305  0.5154 -0.1538
  200SOL    HW1  599   1.628   0.991   2.800 -1.8951 -1.0688  3.6582
  200SOL    HW2  600   1.550   0.886   2.725 -1.4270  0.7325  0.4400
  201SOL     OW  601   3.954   3.281   3.854  0.3539  0.0156 -0.0730
  201SOL    HW1  602   3.880   3.341   3.862  1.8539  1.8159  1.1665
  201SOL    HW2  603   3.997   3.285   3.939  0.1445 -3.4775  0.3386
  202SOL     OW  604   3.970   3.484   2.305  0.2901 -0.1437 -0.2452
  202SOL    HW1  605   3.979   3.506   2.398  1.9949 -0.4510 -0.3015
  202SOL    HW2  606   4.017   3.553   2.259 -0.3713 -0.1004 -0.8751
  203SOL     OW  607   1.737   1.275   1.766  0.2165 -0.2605  0.1879
  203SOL    HW1  608   1.722   1.366   1.741 -1.0967 -0.2656  0.8506
  203SOL    HW2  609   1.691   1.265   1.849 -0.8858 -1.8734 -0.5512
  204SOL     OW  610   3.454   2.475   2.990 -0.1426 -0.1516  0.4524
  204SOL    HW1  611   3.365   2.479   2.953  0.2835  0.0111 -0.5805
  204SOL    HW2  612   3.484   2.565   2.989 -0.0152 -0.1857  0.9546
  205SOL     OW  613   1.114   0.293   0.868 -0.1859 -0.0170 -0.2003
  205SOL    HW1  614   1.090   0.384   0.888  1.2496  0.2122  0.6040
  205SOL    HW2  615   1.164   0.299   0.787  1.3640  0.1487  0.7413
  206SOL     OW  616   0.170   0.957   1.401  0.5404 -0.0549  0.1195
  206SOL    HW1  617   0.241   0.998   1.352 -0.2216  2.3540  0.9159
  206SOL    HW2  618   0.093   1.009   1.381 -0.1679 -0.0949  2.4290
  207SOL     OW  619   3.088   3.582   1.976 -0.3428  0.1671  0.0601
  207SOL    HW1  620   3.170   3.550   2.014 -2.0519 -4.8362  0.3205
  207SOL    HW2  621   3.056   3.647   2.038  1.1675 -1.3361  2.5906
  208SOL     OW  622   1.901   2.646   2.478 -0.3603 -0.8459  0.4270
  208SOL    HW1  623   1.807   2.659   2.473 -0.4598 -1.1200  1.3243
  208SOL    HW2  624   1.920   2.645   2.572  0.6992  0.3189  0.2430
  209SOL     OW  625   0.880   2.638   0.547 -0.5901  0.8661 -0.4252
  209SOL    HW1  626   0.820   2.628   0.473  2.4799  0.2097 -3.0928
  209SOL    HW2  627   0.866   2.560   0.600 -0.1999 -0.7522 -2.5606
  210SOL     OW  628   1.750   3.454   1.975  0.2777  0.0050 -0.1859
  210SOL    HW1  629   1.811   3.438   2.047  0.4287 -1.7551 -0.6823
  210SOL    HW2  630   1.765   3.384   1.913 -0.5615  0.9188 -1.4913
  211SOL     OW  631   3.909   0.990   0.684  0.2884 -0.1042 -0.0137
  211SOL    HW1  632   3.844   1.024   0.624 -0.0741  0.1396  0.5110
  211SOL    HW2  633   3.945   1.068   0.727  0.5588 -0.2735  0.0704
  212SOL     OW  634   3.852   3.067   2.494 -0.2435  0.7395  0.8271
  212SOL    HW1  635   3.846   3.055   2.399 -0.6238  0.6419  0.8648
  212SOL    HW2  636   3.907   3.145   2.504 -1.0220  1.3364  0.5031
  213SOL     OW  637   0.526   0.302   3.054 -0.4996 -0.3338  0.5879
  213SOL    HW1  638   0.532   0.372   2.989  2.2661  1.7407  2.7976
  213SOL    HW2  639   0.616   0.276   3.070 -1.1370 -1.3590  2.9475
  214SOL     OW  640   2.969   1.171   2.673  0.4498 -0.9218 -0.3098
  214SOL    HW1  641   2.961   1.261   2.642 -1.2264 -0.7387  0.5552
  214SOL    HW2  642   2.954   1.177   2.767  0.3262 -2.1023 -0.2435
  215SOL     OW  643   2.887   3.327   1.471  0.0009 -0.2238  0.0686
  215SOL    HW1  644   2.820   3.361   1.412 -0.6728  0.6614  1.2902
  215SOL    HW2  645   2.969   3.342   1.424 -0.6265 -1.5026 -1.5335
  216SOL     OW  646   0.229   3.715   1.338  0.0272 -0.3258 -0.4045
  216SOL    HW1  647   0.187   3.668   1.265 -0.1217  2.2074 -2.0786
  216SOL    HW2  648   0.320   3.687   1.335  0.4627  1.0313 -2.8520
  217SOL     OW  649   2.942   2.632   3.965 -0.0133 -0.1072 -0.1407
  217SOL    HW1  650   3.007   2.618   3.895  0.7692  0.5441  0.4368
  217SOL    HW2  651   2.858   2.636   3.920  0.3559 -0.8570 -0.9201
  218SOL     OW  652   0.671   1.347   3.246  0.2417  0.0024  0.4316
  218SOL    HW1  653   0.709   1.295   3.175 -0.5067 -1.7502  1.2567
  218SOL    HW2  654   0.745   1.366   3.303  0.2772 -1.7502  1.0436
  219SOL     OW  655   0.916   0.052   2.279 -0.3597  0.2383  0.2549
  219SOL    HW1  656   0.840   0.084   2.328 -0.6942 -0.3961  0.1561
  219SOL    HW2  657   0.879   0.009   2.202  0.1152  0.1932  0.0466
  220SOL     OW  658   3.159   0.189   0.095  0.1345  0.0818  0.2075
  220SOL    HW1  659   3.151   0.093   0.096  0.9066  0.0147  1.3761
  220SOL    HW2  660   3.227   0.207   0.030  0.3873 -0.1992  0.3935
  221SOL     OW  661   0.835   1.339   1.209 -0.7336 -0.2618 -0.4705
  221SOL    HW1  662   0.856   1.373   1.296  3.8112 -2.4687 -0.4227
  221SOL    HW2  663   0.753   1.292   1.221 -0.4099 -0.2428  2.5601
  222SOL     OW  664   0.915   2.853   0.774  0.0711 -0.4945 -0.1020
  222SOL    HW1  665   0.883   2.816   0.691  2.3921 -0.0962 -1.2488
  222SOL    HW2  666   0.925   2.946   0.756 -0.9118 -0.1253  1.1708
  223SOL     OW  667   1.831   0.129   0.520 -0.4473 -0.4211 -0.0523
  223SOL    HW1  668   1.770   0.179   0.467  0.5084  1.3478  0.4569
  223SOL    HW2  669   1.876   0.193   0.575  0.3590 -1.9045  1.1302
  224SOL     OW  670   1.441   0.657   1.816 -0.2163  0.3234 -0.5950
  224SOL    HW1  671   1.431   0.591   1.748  1.5302 -0.2915 -0.2841
  224SOL    HW2  672   1.390   0.624   1.890 -1.2528  0.4911 -1.2032
  225SOL     OW  673   1.391   2.535   2.226 -0.6124 -0.2562 -0.3414
  225SOL    HW1  674   1.393   2.483   2.145 -1.3765  1.6200 -1.6484
  225SOL    HW2  675   1.418   2.623   2.199  1.7389 -0.1527  2.0085
  226SOL     OW  676   0.226   1.295   3.428 -0.1911  0.5806 -0.0476
  226SOL    HW1  677   0.131   1.283   3.438 -0.2057  1.2409  0.7025
  226SOL    HW2  678   0.257   1.212   3.392 -0.9738  0.1478  0.2529
  227SOL     OW  679   1.553   0.259   2.657 -0.2687  0.2056 -0.1210
  227SOL    HW1  680   1.598   0.337   2.623  0.5201 -0.1210  0.1406
  227SOL    HW2  681   1.468   0.259   2.613 -1.4109  2.7058  1.8471
  228SOL     OW  682   2.878   1.493   2.624  0.1727  0.7144  0.4242
  228SOL    HW1  683   2.858   1.576   2.666  2.6064  1.8078 -0.4261
  228SOL    HW2  684   2.938   1.515   2.553  0.3930 -1.6936 -0.2371
  229SOL     OW  685   1.324   1.918   1.213 -0.0248 -0.0482  0.2524
  229SOL    HW1  686   1.253   1.882   1.160  1.4701 -1.5427 -0.8348
  229SOL    HW2  687   1.348   1.999   1.168 -0.3799 -0.0576  0.0404
  230SOL     OW  688   0.983   0.484   2.467 -0.0182  0.0872 -0.1811
  230SOL    HW1  689   0.976   0.396   2.504  1.0054 -0.0345 -0.2355
  230SOL    HW2  690   1.006   0.539   2.542 -0.8124  0.3398 -0.1186
  231SOL     OW  691   0.053   3.509   2.984  0.2137  0.4465  0.6307
  231SOL    HW1  692   0.092   3.442   2.928  0.6370  2.1999 -1.2911
  231SOL    HW2  693   0.069   3.478   3.073  1.5603 -1.3229 -0.1686
  232SOL     OW  694   1.154   3.829   3.766  0.2338 -0.1642 -0.0320
  232SOL    HW1  695   1.110   3.806   3.684  0.8470  0.8807 -0.6713
  232SOL    HW2  696   1.243   3.852   3.740  0.4019  0.2838  0.9139
  233SOL     OW  697   1.509   0.018   2.982  0.0151 -0.2759 -0.2464
  233SOL    HW1  698   1.499   0.103   2.938 -0.2341 -1.1750 -2.0444
  233SOL    HW2  699   1.428   0.008   3.033 -0.6838 -0.1068 -1.2837
  234SOL     OW  700   3.095   2.130   3.055  0.8541  0.6045 -0.7851
  234SOL    HW1  701   3.092   2.104   2.963  0.0090 -1.0316 -0.3233
  234SOL    HW2  702   3.185   2.159   3.068  1.9211 -2.2038 -1.3629
  235SOL     OW  703   1.958   0.145   2.945 -1.0773 -0.0736 -0.2251
  235SOL    HW1  704   1.881   0.162   3.000 -0.8423  2.3104 -0.5245
  235SOL    HW2  705   1.978   0.229   2.904  1.3633 -0.7469 -0.6140
  236SOL     OW  706   0.575   1.574   0.984  0.5895  0.3003 -0.2378
  236SOL    HW1  707   0.601   1.503   0.924 -0.6752  0.2350 -0.7294
  236SOL    HW2  708   0.518   1.629   0.931  0.9543  1.2801  0.3766
  237SOL     OW  709   0.509   3.751   3.544  0.1964 -0.0890  0.0980
  237SOL    HW1  710   0.516   3.657   3.527  0.0043 -0.2423  0.8211
  237SOL    HW2  711   0.554   3.764   3.628 -0.8642  0.2439  0.6380
  238SOL     OW  712   2.051   1.337   1.812  0.0408  0.3692  0.3163
  238SOL    HW1  713   2.087   1.337   1.723  0.6734 -0.4894  0.5587
  238SOL    HW2  714   1.957   1.323   1.799 -0.2934  2.7711 -0.3260
  239SOL     OW  715   2.227   1.161   1.946  0.0843 -0.1172  0.6180
  239SOL    HW1  716   2.149   1.111   1.924  0.7819 -0.7467 -0.4775
  239SOL    HW2  717   2.212   1.247   1.907 -0.5756  0.1622  1.4522
  240SOL     OW  718   1.238   2.152   2.135 -0.4979  0.8411  0.0388
  240SOL    HW1  719   1.252   2.060   2.112 -3.3445 -0.2279  1.8361
  240SOL    HW2  720   1.322   2.182   2.170  0.2707 -1.4049  0.2752
  241SOL     OW  721   1.272   0.567   0.700  0.4873  0.2885 -0.5070
  241SOL    HW1  722   1.202   0.577   0.635  0.3724  0.8135 -0.3106
  241SOL    HW2  723   1.348   0.537   0.650  0.0630 -0.4943 -0.6890
  242SOL     OW  724   2.227   2.903   1.900  0.9154 -0.2091  0.3925
  242SOL    HW1  725   2.319   2.887   1.920  0.7759 -1.6352  0.0083
  242SOL    HW2  726   2.203   2.834   1.838 -0.6935 -0.5443  1.3237
  243SOL     OW  727   3.658   0.210   0.903  0.6685 -0.0519 -0.7048
  243SOL    HW1  728   3.626   0.218   0.993 -1.2634  1.5198 -1.4498
  243SOL    HW2  729   3.645   0.118   0.881  1.7532 -0.5956  0.8019
  244SOL     OW  730   0.713   1.051   3.317 -0.1252 -0.0645 -0.0736
  244SOL    HW1  731   0.764   1.019   3.391  0.0285 -1.1749 -0.6263
  244SOL    HW2  732   0.687   1.139   3.341  0.1510 -0.3112  1.1767
  245SOL     OW  733   2.510   1.269   0.762 -0.4624  0.3290 -0.3049
  245SOL    HW1  734   2.593   1.316   0.773 -0.8565  0.9026  0.3047
  245SOL    HW2  735   2.447   1.337   0.738 -0.8342 -0.0393 -0.3799
  246SOL     OW  736   0.869   2.034   1.012  0.0478  0.2846 -0.3819
  246SOL    HW1  737   0.791   1.981   1.025  0.9565 -1.3681 -1.3476
  246SOL    HW2  738   0.942   1.976   1.038  0.9672  1.8508  0.7234
  247SOL     OW  739   1.981   0.578   0.373 -0.3582  0.8067 -0.0083
  247SOL    HW1  740   2.006   0.486   0.386 -0.8119  0.4226 -1.5872
  247SOL    HW2  741   2.040   0.627   0.430 -2.3919 -0.5911  3.6355
  248SOL     OW  742   1.172   0.405   3.460  0.2125  0.8182 -0.2792
  248SOL    HW1  743   1.240   0.341   3.478  0.2740  0.7026 -0.8965
  248SOL    HW2  744   1.090   0.357   3.470  0.2611 -0.1926 -3.4742
  249SOL     OW  745   1.008   3.522   0.043  0.2773  0.7614 -0.1639
  249SOL    HW1  746   1.019   3.548  -0.049 -0.4187 -0.4443 -0.6103
  249SOL    HW2  747   0.926   3.563   0.070  0.2519  0.7432 -0.2148
  250SOL     OW  748   0.507   2.101   3.533  0.0944  0.8979 -0.2571
  250SOL    HW1  749   0.428   2.154   3.528 -0.9818 -0.7333 -1.4510
  250SOL    HW2  750   0.477   2.014   3.557  1.5023  0.1993 -0.8778
  251SOL     OW  751   0.665   2.925   0.327 -0.9779 -0.4540  0.3901
  251SOL    HW1  752   0.727   2.980   0.375  0.9557 -0.6969 -1.6306
  251SOL    HW2  753   0.591   2.983   0.309  0.8255  1.4892 -1.3184
  252SOL     OW  754   3.295   1.760   3.625  0.1292 -0.1578 -0.2559
  252SOL    HW1  755   3.361   1.763   3.555  0.1112 -0.6987 -0.2965
  252SOL    HW2  756   3.240   1.837   3.609  0.9897  0.5386  0.0161
  253SOL     OW  757   0.221   0.427   2.990 -0.1084  0.0025  0.4596
  253SOL    HW1  758   0.136   0.464   3.011 -0.6522 -1.5988  1.2576
  253SOL    HW2  759   0.284   0.490   3.024 -0.9834  0.5765  1.0440
  254SOL     OW  760   1.447   0.952   3.603  0.2764  0.7730  0.0361
  254SOL    HW1  761   1.462   1.026   3.662 -0.0964  1.2422 -0.4506
  254SOL    HW2  762   1.534   0.922   3.580  0.4641  1.7949 -0.6677
  255SOL     OW  763   1.340   2.739   3.839  0.0003  0.3359  0.2740
  255SOL    HW1  764   1.280   2.677   3.880 -0.6314  1.1040  0.5481
  255SOL    HW2  765   1.288   2.782   3.772  0.4885  0.4256 -0.0527
  256SOL     OW  766   1.131   1.187   2.557 -0.4736 -0.2995 -0.2427
  256SOL    HW1  767   1.108   1.207   2.466  0.0898  1.1478 -0.0942
  256SOL    HW2  768   1.189   1.111   2.551  0.7014  0.6309 -1.2321
  257SOL     OW  769   0.196   1.259   2.142 -0.5434  0.3066 -0.1936
  257SOL    HW1  770   0.219   1.179   2.188 -0.9319 -0.5921 -1.5197
  257SOL    HW2  771   0.279   1.304   2.127 -0.3406  0.2351  0.6760
  258SOL     OW  772   2.906   1.166   2.290  0.1154 -0.2824  0.6167
  258SOL    HW1  773   2.854   1.101   2.337  0.2559  0.0611  1.2527
  258SOL    HW2  774   2.930   1.231   2.356 -1.7645  1.5616 -0.3626
  259SOL     OW  775   3.436   1.898   1.769 -0.1428  0.0164 -0.2551
  259SOL    HW1  776   3.500   1.868   1.834 -0.0109  2.2947  0.7680
  259SOL    HW2  777   3.477   1.879   1.684  1.9215  1.3623  0.3771
  260SOL     OW  778   0.062   3.197   2.349 -0.4541  0.2184  0.0449
  260SOL    HW1  779   0.075   3.285   2.312 -2.2616  1.3009  1.7488
  260SOL    HW2  780   0.011   3.150   2.282  0.9781  0.2437 -1.1095
  261SOL     OW  781   0.464   0.800   0.091 -0.9073 -0.2468  0.4011
  261SOL    HW1  782   0.381   0.757   0.112 -1.5020  1.4622  1.8274
  261SOL    HW2  783   0.451   0.835   0.002 -1.7591  0.0627  0.6363
  262SOL     OW  784   1.853   0.291   1.310 -0.0954 -0.4197 -0.0042
  262SOL    HW1  785   1.935   0.251   1.339 -0.5224 -2.4267 -1.3612
  262SOL    HW2  786   1.875   0.384   1.298  1.0803 -0.2254  2.7859
  263SOL     OW  787   0.686   2.484   0.156  0.2049  0.5083  0.1715
  263SOL    HW1  788   0.651   2.400   0.185 -0.5598  0.6640 -0.2576
  263SOL    HW2  789   0.760   2.462   0.100  1.1952  0.1875  1.5664
  264SOL     OW  790   1.725   3.112   1.565  0.6827 -0.7057  0.3014
  264SOL    HW1  791   1.651   3.083   1.618  1.6853  0.6954  2.5945
  264SOL    HW2  792   1.684   3.152   1.488 -0.9397 -0.5320  1.2038
  265SOL     OW  793   1.051   3.751   2.781  0.0332 -0.4072 -0.0840
  265SOL    HW1  794   0.991   3.729   2.709 -0.1823 -1.2905  0.3463
  265SOL    HW2  795   1.122   3.800   2.740 -1.1808  1.0469 -0.5538
  266SOL     OW  796   0.925   2.443   2.413  0.7754 -0.1275 -0.5596
  266SOL    HW1  797   0.960   2.354   2.400  0.0877 -0.2607 -1.6792
  266SOL    HW2  798   0.931   2.483   2.326 -1.8818 -0.1862 -0.8441
  267SOL     OW  799   1.729   0.959   0.568  0.3737  0.1658 -0.7432
  267SOL    HW1  800   1.677   0.928   0.494  0.2967 -1.9184  0.1185
  267SOL    HW2  801   1.802   1.007   0.528 -2.0383  3.1248 -1.9887
  268SOL     OW  802   2.876   1.049   1.022 -0.2285 -0.3030  0.1295
  268SOL    HW1  803   2.968   1.024   1.033 -0.7169 -1.6047  1.8162
  268SOL    HW2  804   2.850   1.080   1.108 -0.5980  3.1204 -1.0748
  269SOL     OW  805   2.647   2.994   3.283 -0.1453 -0.7825 -0.1182
  269SOL    HW1  806   2.628   2.996   3.376 -0.6104  1.1073 -0.2187
  269SOL    HW2  807   2.567   3.025   3.241  1.7659  4.1146 -0.7489
  270SOL     OW  808   3.377   0.972   3.712  0.3421 -0.1859 -0.4271
  270SOL    HW1  809   3.403   1.064   3.701  1.7962 -0.5270 -0.0634
  270SOL    HW2  810   3.369   0.961   3.807  0.1244 -0.4300 -0.4731
  271SOL     OW  811   3.753   0.192   3.324  0.3750  0.3426  0.4171
  271SOL    HW1  812   3.828   0.137   3.302  0.2624  1.1791 -2.3446
  271SOL    HW2  813   3.683   0.130   3.344  1.0333 -0.4670  0.2630
  272SOL     OW  814   1.178   3.549   1.526 -0.1322 -0.3712  0.8266
  272SOL    HW1  815   1.215   3.554   1.614 -0.0343  2.5452  0.7221
  272SOL    HW2  816   1.119   3.624   1.520 -1.6473 -1.6016 -0.9739
  273SOL     OW  817   3.346   0.454   0.851  0.2442 -0.6357  0.2189
  273SOL    HW1  818   3.437   0.459   0.821 -0.1905 -0.7308 -1.2144
  273SOL    HW2  819   3.335   0.363   0.879  0.2358 -0.9928 -0.8943
  274SOL     OW  820   1.926   3.124   3.868  0.8438  0.3358  0.0363
  274SOL    HW1  821   1.884   3.044   3.836  2.7116 -0.3221 -0.8972
  274SOL    HW2  822   1.877   3.148   3.947  0.6903 -2.1341  0.7525
  275SOL     OW  823   3.009   1.694   2.395 -0.1989 -0.0602  0.0348
  275SOL    HW1  824   2.956   1.619   2.368  0.2207 -0.1221 -0.6487
  275SOL    HW2  825   3.071   1.659   2.458  0.4816 -0.4529 -0.8345
  276SOL     OW  826   0.866   3.251   1.215  0.5675 -0.0776  1.0637
  276SOL    HW1  827   0.950   3.297   1.223  0.5323  0.6320 -1.7878
  276SOL    HW2  828   0.801   3.320   1.229  0.5111  0.1695 -0.2846
  277SOL     OW  829   0.544   3.581   3.060  0.4290 -0.1899 -0.2270
  277SOL    HW1  830   0.558   3.672   3.085  2.8555 -0.1513 -1.5059
  277SOL    HW2  831   0.606   3.531   3.113  1.9951 -0.6172 -2.3413
  278SOL     OW  832   0.233   0.936   3.541 -0.1918  0.1351 -0.9347
  278SOL    HW1  833   0.176   0.866   3.511  0.7082 -0.6457 -0.8804
  278SOL    HW2  834   0.265   0.977   3.461 -0.2751  0.1211 -0.9752
  279SOL     OW  835   2.119   0.450   0.797 -0.1323  0.6163  0.0346
  279SOL    HW1  836   2.208   0.417   0.805 -0.0952  1.0222  1.6170
  279SOL    HW2  837   2.126   0.522   0.733  0.6788  0.6794  0.1825
  280SOL     OW  838   0.334   3.328   0.459  0.1031  0.0020  0.7733
  280SOL    HW1  839   0.333   3.243   0.503  0.4774 -0.8709 -0.8140
  280SOL    HW2  840   0.386   3.313   0.380 -1.2362  1.2576 -0.4104
  281SOL     OW  841   0.410   0.337   3.616 -0.2435  0.2916 -0.3955
  281SOL    HW1  842   0.478   0.395   3.649  0.1227  0.2957 -1.1504
  281SOL    HW2  843   0.451   0.288   3.545 -1.0442  0.3611 -0.9301
  282SOL     OW  844   1.345   4.010   2.323  0.7929 -0.7237  0.4846
  282SOL    HW1  845   1.261   3.967   2.310  0.3611  0.4346 -0.8653
  282SOL    HW2  846   1.405   3.965   2.264  0.0164  1.2991 -1.9982
  283SOL     OW  847   0.261   1.261   0.541  0.1256  0.1049  0.3798
  283SOL    HW1  848   0.328   1.290   0.602  0.3495 -0.4283  0.3971
  283SOL    HW2  849   0.295   1.179   0.505 -0.4451 -0.0943  0.2736
  284SOL     OW  850   3.838   0.427   1.164  1.2061 -0.2711 -0.1753
  284SOL    HW1  851   3.859   0.481   1.241 -1.3372  0.0505  0.3825
  284SOL    HW2  852   3.860   0.483   1.090  0.4095  0.8047  0.3751
  285SOL     OW  853   0.607   2.939   3.960  0.1863  0.4454  0.6258
  285SOL    HW1  854   0.633   2.882   3.888  2.6528  2.0846  0.0811
  285SOL    HW2  855   0.638   2.895   4.039  1.4010  0.6221  0.2695
  286SOL     OW  856   2.412   3.191   0.917  0.3738  0.4271 -0.0965
  286SOL    HW1  857   2.321   3.206   0.891  1.0464  0.3325 -2.7803
  286SOL    HW2  858   2.409   3.187   1.012 -2.1772  1.9902 -0.0226
  287SOL     OW  859   2.949   3.198   3.647  0.1516  0.7205  0.6039
  287SOL    HW1  860   2.982   3.160   3.728  0.5550  0.4920  0.3358
  287SOL    HW2  861   2.945   3.292   3.664  2.3090  0.9313  0.1865
  288SOL     OW  862   3.199   0.216   0.923  0.1523  0.1726  0.1529
  288SOL    HW1  863   3.213   0.125   0.898 -3.1727 -0.6619  0.8810
  288SOL    HW2  864   3.179   0.213   1.016  0.5115  1.7320  0.3076
  289SOL     OW  865   0.313   0.414   0.473  0.4544 -0.0049 -0.3236
  289SOL    HW1  866   0.271   0.496   0.446  0.7190  0.9320  1.8456
  289SOL    HW2  867   0.406   0.438   0.482  0.4823 -0.4391  0.6318
  290SOL     OW  868   0.591   1.245   2.919 -0.1385 -0.0584  0.3239
  290SOL    HW1  869   0.593   1.333   2.884 -0.3860  0.1452  0.8003
  290SOL    HW2  870   0.624   1.189   2.849 -1.6842  0.1893 -0.6484
  291SOL     OW  871   1.260   3.936   2.715 -0.2681 -0.0918  0.3014
  291SOL    HW1  872   1.203   3.993   2.767  1.1006 -0.5674  2.4801
  291SOL    HW2  873   1.299   3.994   2.650 -1.8829  0.5903 -0.0945
  292SOL     OW  874   1.442   0.197   1.169 -0.3450 -0.3940  0.0303
  292SOL    HW1  875   1.446   0.195   1.074 -0.9817  1.8738 -0.1148
  292SOL    HW2  876   1.506   0.264   1.195 -0.8530 -0.2886  1.1007
  293SOL     OW  877   2.429   3.618   0.666  0.7396  0.6989  0.6457
  293SOL    HW1  878   2.424   3.658   0.579  1.5765  1.4257  0.9145
  293SOL    HW2  879   2.521   3.623   0.690  0.2467  2.5031  2.4551
  294SOL     OW  880   1.161   3.239   2.609  0.1716 -0.4978 -0.0325
  294SOL    HW1  881   1.225   3.297   2.570 -1.3882  1.4809  0.1715
  294SOL    HW2  882   1.212   3.165   2.642  2.1688  0.4429 -0.8608
  295SOL     OW  883   1.729   1.440   2.169 -0.1011  0.1016  0.6385
  295SOL    HW1  884   1.671   1.364   2.161  0.0410  0.0498  0.0861
  295SOL    HW2  885   1.801   1.422   2.108 -0.1593  0.7661  0.3673
  296SOL     OW  886   1.010   2.572   0.814 -0.1534 -1.0272 -0.3321
  296SOL    HW1  887   1.104   2.581   0.802 -0.4292 -1.9752 -5.3644
  296SOL    HW2  888   0.974   2.654   0.780 -1.2502 -0.1791  2.6176
  297SOL     OW  889   1.347   0.226   2.492 -0.1524  0.2387 -0.3109
  297SOL    HW1  890   1.341   0.144   2.442 -1.7906 -0.5600  1.0862
  297SOL    HW2  891   1.324   0.294   2.428  1.8447 -0.2660 -1.6564
  298SOL     OW  892   2.362   3.367   0.408  0.8126 -0.2028  0.2051
  298SOL    HW1  893   2.373   3.449   0.360  0.2664 -0.1601  0.1531
  298SOL    HW2  894   2.401   3.384   0.494 -0.3883  0.5074  0.6168
  299SOL     OW  895   0.917   2.056   1.582  1.0983  0.3993 -0.0873
  299SOL    HW1  896   0.854   2.122   1.552  1.1621  0.7553  0.5467
  299SOL    HW2  897   0.990   2.107   1.618  0.6652  0.0120  1.4232
  300SOL     OW  898   0.592   3.816   1.294  0.1979 -0.2124  0.0455
  300SOL    HW1  899   0.510   3.854   1.260 -0.0794 -0.2147  0.6996
  300SOL    HW2  900   0.566   3.731   1.329  0.4969 -0.2438  0.1885
  301SOL     OW  901   0.543   1.237   2.402 -0.6449 -0.3334  0.3821
  301SOL    HW1  902   0.576   1.320   2.438 -1.8801 -0.1012  1.0430
  301SOL    HW2  903   0.454   1.230   2.437 -0.6963 -1.7577  0.0166
  302SOL     OW  904   1.210   0.339   2.765  0.6359  1.0336 -0.1089
  302SOL    HW1  905   1.207   0.314   2.673 -0.2252  2.6917 -0.5614
  302SOL    HW2  906   1.252   0.424   2.765  0.9189  0.9061  1.0805
  303SOL     OW  907   1.998   0.128  -0.009 -0.1479  0.1101 -0.0875
  303SOL    HW1  908   1.962   0.060   0.049 -1.0235  0.8498  0.2477
  303SOL    HW2  909   2.050   0.183   0.049 -0.9493  0.7972 -0.0022
  304SOL     OW  910   2.385   0.573   1.096 -0.2089  1.2526  0.3374
  304SOL    HW1  911   2.394   0.635   1.024 -0.1998  1.4409  0.5001
  304SOL    HW2  912   2.453   0.508   1.080 -0.3007  1.2166  0.0971
  305SOL     OW  913   2.286   0.124   2.959 -0.3771  0.0518 -0.0410
  305SOL    HW1  914   2.258   0.215   2.955 -2.0473 -0.4027  0.5045
  305SOL    HW2  915   2.242   0.082   2.885 -0.4480 -0.5163  0.3186
  306SOL     OW  916   2.986   3.090   2.697  0.0969  0.1738 -0.2400
  306SOL    HW1  917   2.929   3.067   2.624 -0.5187  0.9854 -0.0312
  306SOL    HW2  918   3.059   3.137   2.657 -0.8298  1.6725 -0.2447
  307SOL     OW  919   0.818   0.050   3.650  0.0435  0.1740  0.5638
  307SOL    HW1  920   0.897   0.020   3.696 -0.2900  1.5038  2.0961
  307SOL    HW2  921   0.760   0.080   3.720 -1.8148 -0.6701 -0.5350
  308SOL     OW  922   0.105   0.917   2.566  0.7053 -0.1919 -0.5971
  308SOL    HW1  923   0.121   0.824   2.580  0.0980 -0.0875  1.0411
  308SOL    HW2  924   0.142   0.936   2.480  0.8577 -1.9352 -0.9381
  309SOL     OW  925   1.704   3.553   1.186 -0.2758  0.1131 -0.2506
  309SOL    HW1  926   1.698   3.610   1.262 -2.5870 -0.6358  0.2026
  309SOL    HW2  927   1.679   3.608   1.112 -1.8170 -0.0861  0.0921
  310SOL     OW  928   2.440   1.844   3.281  0.0928  0.0954 -0.1671
  310SOL    HW1  929   2.507   1.777   3.271 -1.5066 -1.5815 -0.1374
  310SOL    HW2  930   2.405   1.829   3.369  1.8602  3.1126  1.2193
  311SOL     OW  931   2.134   1.271   3.584  0.1181 -0.0405 -0.1078
  311SOL    HW1  932   2.161   1.203   3.646 -0.5822  0.4334  0.7355
  311SOL    HW2  933   2.093   1.223   3.513  1.2199 -0.6142 -0.3772
  312SOL     OW  934   2.198   3.830   0.431  0.0976  0.1133  0.9831
  312SOL    HW1  935   2.112   3.839   0.473 -0.1347 -2.4287  1.2383
  312SOL    HW2  936   2.244   3.911   0.451 -1.5825  0.7673  2.4174
  313SOL     OW  937   0.176   3.966   0.708 -0.1450  0.4587  0.0667
  313SOL    HW1  938   0.118   3.989   0.636 -0.6001  0.0501  0.2980
  313SOL    HW2  939   0.141   3.883   0.741  1.5082 -0.6513 -0.8242
  314SOL     OW  940   0.591   2.590   1.127  0.3355  0.0990  0.5052
  314SOL    HW1  941   0.610   2.579   1.220  0.8628  0.2499  0.4200
  314SOL    HW2  942   0.663   2.644   1.094 -0.4280  0.9808  0.2304
  315SOL     OW  943   2.772   1.725   2.745  0.5906 -0.4139 -0.1987
  315SOL    HW1  944   2.689   1.694   2.781 -1.3147  2.9590 -1.2817
  315SOL    HW2  945   2.824   1.749   2.822 -0.0609 -1.0617  0.4579
  316SOL     OW  946   3.879   0.636   1.649 -0.2106 -0.1480 -0.1806
  316SOL    HW1  947   3.916   0.722   1.666  2.8889 -1.4470  0.3980
  316SOL    HW2  948   3.901   0.619   1.557 -1.0347 -0.2402 -0.3660
  317SOL     OW  949   3.604   2.894   0.327  0.7193  0.5661 -0.5333
  317SOL    HW1  950   3.654   2.885   0.246  2.1511  1.5791  0.1965
  317SOL    HW2  951   3.559   2.978   0.318  2.3140  1.5760  0.4168
  318SOL     OW  952   3.469   1.671   0.788 -0.1035 -0.3760 -0.6249
  318SOL    HW1  953   3.547   1.659   0.734 -0.0703 -2.0893 -0.2729
  318SOL    HW2  954   3.496   1.732   0.857  0.8854 -0.8022 -0.6119
  319SOL     OW  955   3.659   1.985   3.452  0.2679  0.1747  0.3896
  319SOL    HW1  956   3.690   2.014   3.538  2.8852  1.7157 -0.9306
  319SOL    HW2  957   3.738   1.952   3.408 -0.5959  1.1141 -2.0323
  320SOL     OW  958   3.444   1.291   2.476  0.0508 -0.6682  0.0248
  320SOL    HW1  959   3.522   1.342   2.455 -0.6787  0.2447 -0.5899
  320SOL    HW2  960   3.414   1.327   2.559 -0.1049 -0.5121 -0.0954
  321SOL     OW  961   0.697   3.298   2.171  0.0661 -0.4695  0.5740
  321SOL    HW1  962   0.727   3.379   2.130 -0.2947  0.9888  2.9971
  321SOL    HW2  963   0.626   3.267   2.115  0.2821  0.8334 -0.4520
  322SOL     OW  964   0.790   0.668   1.077  0.4413 -0.2137  0.1497
  322SOL    HW1  965   0.815   0.676   0.985  0.2834 -1.6112 -0.0357
  322SOL    HW2  966   0.872   0.684   1.126  0.5983  0.1797 -0.2365
  323SOL     OW  967   0.353   1.829   3.127 -0.8004 -0.5441 -0.0060
  323SOL    HW1  968   0.289   1.845   3.196  0.1882 -0.3118  0.8869
  323SOL    HW2  969   0.435   1.811   3.174  0.0690  0.3373 -1.1046
  324SOL     OW  970   1.519   1.658   2.493 -0.2406 -0.3478  0.0447
  324SOL    HW1  971   1.436   1.704   2.510 -1.1419 -1.7225 -0.4805
  324SOL    HW2  972   1.578   1.689   2.562 -1.4969 -0.1023  1.0477
  325SOL     OW  973   0.408   1.572   2.967 -0.8296 -0.5490 -0.2332
  325SOL    HW1  974   0.398   1.661   3.001  0.8872 -0.3295 -0.2278
  325SOL    HW2  975   0.439   1.584   2.877 -3.1722 -1.1540 -1.1877
  326SOL     OW  976   1.652  -0.000   1.311 -0.4437  0.4367  0.1043
  326SOL    HW1  977   1.584  -0.056   1.348 -3.3914  1.4998 -3.1723
  326SOL    HW2  978   1.640   0.084   1.354 -0.8464  0.4741 -0.0788
  327SOL     OW  979   1.533   3.725   3.531  0.0295 -0.4617 -0.8891
  327SOL    HW1  980   1.584   3.783   3.476  0.8304  2.8987  2.9196
  327SOL    HW2  981   1.445   3.763   3.531  0.1748 -0.0737  0.4790
  328SOL     OW  982   3.104   3.382   0.811 -0.0042 -0.6734  0.0968
  328SOL    HW1  983   3.111   3.371   0.905 -0.7374  2.0192  0.5472
  328SOL    HW2  984   3.010   3.378   0.792  0.0629 -0.1925 -0.3694
  329SOL     OW  985   1.427   2.439   3.067  0.3943  0.1073 -0.1521
  329SOL    HW1  986   1.334   2.447   3.045  0.2593 -0.2521  0.2903
  329SOL    HW2  987   1.448   2.521   3.113  0.0152 -0.2930  0.7545
  330SOL     OW  988   2.296   2.802   2.942  0.1130 -0.1768 -0.4383
  330SOL    HW1  989   2.246   2.723   2.925 -1.8264  1.0056 -0.4485
  330SOL    HW2  990   2.335   2.788   3.028 -2.6183 -0.0080  0.9106
  331SOL     OW  991   3.832   1.882   0.181 -0.0229  0.3926 -0.5088
  331SOL    HW1  992   3.849   1.806   0.238 -0.7785  0.5798 -0.0273
  331SOL    HW2  993   3.895   1.872   0.109 -1.3122 -1.6906 -1.4356
  332SOL     OW  994  -0.013   3.359   1.000  0.2535  0.3233  0.3724
  332SOL    HW1  995   0.052   3.289   1.013 -1.7381 -1.5702  0.6864
  332SOL    HW2  996  -0.016   3.370   0.905  1.2522  0.7006  0.3669
  333SOL     OW  997   3.370   2.595   1.825 -0.6718 -0.6240  0.1555
  333SOL    HW1  998   3.414   2.629   1.903  1.4955 -1.3653 -0.6550
  333SOL    HW2  999   3.440   2.551   1.776 -1.9193  0.0147 -2.3219
  334SOL     OW 1000   0.980   0.071   3.331  0.3443 -0.8216  0.9063
  334SOL    HW1 1001   0.905   0.012   3.319 -0.8778  0.6753  0.9578
  334SOL    HW2 1002   0.945   0.145   3.381  1.4486  0.6629 -0.4110
  335SOL     OW 1003   2.274   3.592   1.609  0.5673 -0.3668  0.5224
  335SOL    HW1 1004   2.224   3.519   1.645  1.0863 -1.3748 -0.7173
  335SOL    HW2 1005   2.260   3.587   1.514  0.7922  1.0244  0.3886
  336SOL     OW 1006   1.786   2.977   1.053 -0.3487  1.0155  0.1834
  336SOL    HW1 1007   1.777   2.910   1.122  1.0950  0.5000 -0.0736
  336SOL    HW2 1008   1.801   2.926   0.973 -1.6942  1.6182 -0.4740
  337SOL     OW 1009   1.019   0.128   1.960  0.3951  0.3309 -0.2156
  337SOL    HW1 1010   1.047   0.186   2.031 -0.2989 -0.9451  1.1644
  337SOL    HW2 1011   1.069   0.047   1.974 -1.6472 -0.9004  0.4910
  338SOL     OW 1012   3.178   3.345   2.622  0.3629 -0.9048  0.3776
  338SOL    HW1 1013   3.200   3.365   2.531 -2.4344 -2.4797 -0.7614
  338SOL    HW2 1014   3.096   3.392   2.637 -0.1967 -2.1562  1.4216
  339SOL     OW 1015   3.349   3.466   0.669 -0.1768  0.3008 -0.2388
  339SOL    HW1 1016   3.270   3.428   0.708  0.5790 -1.0445  0.0290
  339SOL    HW2 1017   3.324   3.486   0.579 -0.2065 -2.3022 -0.8966
  340SOL     OW 1018   3.468   0.979   0.365  0.0657  0.5263 -0.4374
  340SOL    HW1 1019   3.489   0.889   0.338  0.3716  0.1464  0.9975
  340SOL    HW2 1020   3.372   0.980   0.370  0.1128 -0.6730  2.4597
  341SOL     OW 1021   0.950   1.524   2.581 -1.2845  0.4180  0.0707
  341SOL    HW1 1022   1.043   1.502   2.568 -1.7219 -0.8932 -1.1213
  341SOL    HW2 1023   0.949   1.575   2.662  0.3211 -0.7290  0.8877
  342SOL     OW 1024   2.571   2.344   0.762 -0.3669 -0.2623  0.2310
  342SOL    HW1 1025   2.646   2.391   0.724 -0.7719  1.1670  1.1372
  342SOL    HW2 1026   2.533   2.406   0.824 -1.7410 -1.3250  0.4855
  343SOL     OW 1027   0.055   2.605   0.627  0.1904 -0.0805  0.0007
  343SOL    HW1 1028   0.070   2.652   0.709  1.0193  1.7231 -1.1181
  343SOL    HW2 1029  -0.034   2.630   0.601  0.3002  0.1485 -0.1526
  344SOL     OW 1030   0.539   3.921   1.574 -0.1663 -0.0653  0.2165
  344SOL    HW1 1031   0.634   3.922   1.560 -0.3436  1.5062 -1.1327
  344SOL    HW2 1032   0.512   3.833   1.548  0.8505 -0.3714  0.1405
  345SOL     OW 1033   0.075   2.953   2.916 -0.1383 -0.0111 -0.0338
  345SOL    HW1 1034   0.011   3.024   2.916  0.1666  0.3754  2.6872
  345SOL    HW2 1035   0.119   2.960   3.001  1.9730 -1.6472 -0.8878
  346SOL     OW 1036   0.631   3.403   3.687  0.1902 -0.3540 -0.1973
  346SOL    HW1 1037   0.587   3.471   3.738  0.5425  0.3249 -0.7868
  346SOL    HW2 1038   0.650   3.334   3.751 -0.1372  0.1163  0.4179
  347SOL     OW 1039   2.289   0.819   2.884  0.4419  0.5215  0.0153
  347SOL    HW1 1040   2.249   0.904   2.863 -0.7738 -0.1523 -0.5061
  347SOL    HW2 1041   2.337   0.796   2.804 -0.0306  0.2795 -0.2030
  348SOL     OW 1042   2.681   3.616   0.768 -0.0469  0.2399  0.0465
  348SOL    HW1 1043   2.673   3.534   0.817 -0.6345  0.1439 -0.2022
  348SOL    HW2 1044   2.694   3.683   0.835  0.8700 -0.1038  0.2279
  349SOL     OW 1045   1.692   1.786   0.184 -0.2271 -0.5387  0.4545
  349SOL    HW1 1046   1.614   1.772   0.238 -0.2314 -1.0731  0.3117
  349SOL    HW2 1047   1.667   1.858   0.125  0.4766  1.5393  2.5088
  350SOL     OW 1048   2.488   1.233   3.592  0.2190 -0.6498  0.2900
  350SOL    HW1 1049   2.427   1.197   3.528 -1.4369  1.4156  0.6034
  350SOL    HW2 1050   2.478   1.328   3.584  1.6199 -0.2902  2.0730
  351SOL     OW 1051   3.655   1.383   0.958 -0.5473 -0.7315 -0.4089
  351SOL    HW1 1052   3.565   1.414   0.953 -0.4056 -0.2505 -0.0176
  351SOL    HW2 1053   3.652   1.294   0.923 -1.9746 -2.3435  3.3126
  352SOL     OW 1054   2.091   0.655   2.582  0.2676 -0.2261  0.5389
  352SOL    HW1 1055   2.185   0.646   2.566  0.0214 -1.3130 -0.4047
  352SOL    HW2 1056   2.074   0.601   2.660  0.2296 -1.0721 -0.0421
  353SOL     OW 1057   0.865   3.715   1.336 -0.0283  0.3787 -0.3707
  353SOL    HW1 1058   0.947   3.757   1.308 -0.8241  1.8899 -0.5174
  353SOL    HW2 1059   0.812   3.787   1.370 -1.1603 -0.6445  0.0788
  354SOL     OW 1060   1.502   0.664   0.060  0.8666  0.7056 -0.2764
  354SOL    HW1 1061   1.438   0.688  -0.006  1.3668  0.4356 -0.8684
  354SOL    HW2 1062   1.558   0.742   0.067  0.6269  0.8499  0.0603
  355SOL     OW 1063   0.739   3.508   1.918 -0.7249 -0.2956 -0.0611
  355SOL    HW1 1064   0.739   3.493   1.824  0.9087 -0.0413 -0.1328
  355SOL    HW2 1065   0.716   3.601   1.928  2.2113  0.5795 -0.4672
  356SOL     OW 1066   3.229   3.334   0.196  0.2560 -0.3312  0.1866
  356SOL    HW1 1067   3.176   3.403   0.237  1.2583  0.4687  0.1600
  356SOL    HW2 1068   3.218   3.258   0.254 -0.5904 -0.0563  0.3971
  357SOL     OW 1069   3.815   1.933   1.643  0.3331 -1.2896 -0.0602
  357SOL    HW1 1070   3.757   2.005   1.619 -0.2635 -1.5149  0.6665
  357SOL    HW2 1071   3.903   1.967   1.626  0.2372  0.5835  2.5045
  358SOL     OW 1072   1.374   1.359   1.506  0.5469 -0.2973 -0.5671
  358SOL    HW1 1073   1.441   1.386   1.444 -0.7655  1.8223 -1.1595
  358SOL    HW2 1074   1.327   1.288   1.463  0.2463  0.5267 -1.6283
  359SOL     OW 1075   3.954   0.364   3.769  0.2367  0.0278  0.4913
  359SOL    HW1 1076   3.915   0.428   3.828  1.1848  0.9409  0.1528
  359SOL    HW2 1077   3.959   0.409   3.684 -2.0560 -1.6027 -0.6002
  360SOL     OW 1078   0.969   2.787   1.227 -0.4250  0.3298  0.8249
  360SOL    HW1 1079   1.008   2.816   1.144  0.3992 -0.1682  1.0249
  360SOL    HW2 1080   0.929   2.703   1.207 -1.3854  0.8263  0.6286
  361SOL     OW 1081   0.180   1.522   3.918 -0.3670 -0.2450 -0.0741
  361SOL    HW1 1082   0.215   1.611   3.917 -2.1481  0.4843 -0.8833
  361SOL    HW2 1083   0.238   1.474   3.977  1.4877  1.0736 -0.7408
  362SOL     OW 1084   2.882   2.881   2.476  0.3251 -0.1293 -0.0128
  362SOL    HW1 1085   2.797   2.864   2.436 -0.9810  0.7441  2.2386
  362SOL    HW2 1086   2.915   2.794   2.498 -1.4898 -0.4058  1.9396
  363SOL     OW 1087   3.534   3.670   3.609  0.2458  0.4359  0.1798
  363SOL    HW1 1088   3.494   3.586   3.632  2.5423 -0.6209  0.5146
  363SOL    HW2 1089   3.520   3.724   3.687 -0.5142  0.0922  0.2938
  364SOL     OW 1090   2.415   1.627   0.625  0.4540 -0.8123 -0.5250
  364SOL    HW1 1091   2.444   1.671   0.705 -0.7336 -1.2850  0.1935
  364SOL    HW2 1092   2.459   1.675   0.555  1.9007 -0.6850  0.4154
  365SOL     OW 1093   1.488   0.261   2.919  0.0599 -0.8348 -0.3407
  365SOL    HW1 1094   1.451   0.341   2.955  1.1123 -0.0473 -0.9590
  365SOL    HW2 1095   1.471   0.266   2.825 -2.1672 -2.6136 -0.1357
  366SOL     OW 1096   1.708   2.614   3.804 -0.1690  0.3669 -0.1690
  366SOL    HW1 1097   1.631   2.576   3.761  1.4727 -1.5994 -1.5863
  366SOL    HW2 1098   1.782   2.581   3.754  1.6407  2.1580  1.1568
  367SOL     OW 1099   2.603   2.165   2.324  1.0847 -0.2944 -0.2356
  367SOL    HW1 1100   2.655   2.190   2.401  0.0476 -1.4126  0.8835
  367SOL    HW2 1101   2.523   2.217   2.332  1.5117  0.5358 -1.2853
  368SOL     OW 1102   3.624   2.334   1.002  0.0111 -0.2226 -0.3541
  368SOL    HW1 1103   3.699   2.294   1.046 -0.3655 -0.9754 -0.3768
  368SOL    HW2 1104   3.638   2.428   1.012 -0.0611 -0.3528  1.3882
  369SOL     OW 1105   1.979   1.166   3.353 -0.0599  0.7996  0.1663
  369SOL    HW1 1106   1.930   1.149   3.433 -1.0582  1.7154 -0.2334
  369SOL    HW2 1107   1.913   1.189   3.288  0.3886 -2.6862 -1.7849
  370SOL     OW 1108   1.223   1.518   2.530 -0.5140 -0.3771 -0.1046
  370SOL    HW1 1109   1.256   1.529   2.441  2.3728  0.1732  0.9050
  370SOL    HW2 1110   1.201   1.607   2.558  2.2672  0.1039  0.9016
  371SOL     OW 1111   2.308   1.094   3.417  0.6337  0.2675  0.4453
  371SOL    HW1 1112   2.271   1.174   3.380 -2.2232 -0.6796  0.9794
  371SOL    HW2 1113   2.269   1.024   3.365 -0.9515 -0.9607  3.0902
  372SOL     OW 1114   0.062   0.631   2.889 -0.6220  0.3685  0.0176
  372SOL    HW1 1115   0.004   0.664   2.820 -0.7888  1.1959  0.5289
  372SOL    HW2 1116   0.149   0.632   2.851 -0.7958  0.2169 -0.3857
  373SOL     OW 1117   2.389   3.097   3.163  0.4601 -0.1525  0.6360
  373SOL    HW1 1118   2.447   3.085   3.088  2.0721 -0.4316  1.8599
  373SOL    HW2 1119   2.383   3.192   3.173 -3.4298  0.1887 -2.4433
  374SOL     OW 1120   1.429   1.126   3.178 -0.1838 -0.3353  0.4874
  374SOL    HW1 1121   1.350   1.079   3.152 -0.2292  0.5776 -1.1492
  374SOL    HW2 1122   1.403   1.218   3.178  0.8038 -0.0488  0.2373
  375SOL     OW 1123   0.419   0.592   3.068 -0.0255  0.7875  0.1656
  375SOL    HW1 1124   0.451   0.570   2.981  1.1792  0.2738  0.7152
  375SOL    HW2 1125   0.494   0.577   3.126 -0.7724  1.2002  1.2816
  376SOL     OW 1126   3.658   1.002   1.871 -0.6538  0.3399 -0.1680
  376SOL    HW1 1127   3.635   1.023   1.962 -1.0987  1.9580 -0.6151
  376SOL    HW2 1128   3.622   0.914   1.857 -0.7091  0.1272  1.1649
  377SOL     OW 1129   1.304   3.056   0.123 -0.4813 -0.2708  0.2469
  377SOL    HW1 1130   1.221   3.103   0.117 -0.8977 -1.1164 -0.9890
  377SOL    HW2 1131   1.370   3.125   0.127 -1.1072  0.4528 -1.1371
  378SOL     OW 1132   0.637   2.134   0.396  0.9800  0.0316 -0.5617
  378SOL    HW1 1133   0.567   2.071   0.412  0.5413  0.9513  1.4266
  378SOL    HW2 1134   0.593   2.217   0.380  1.5771  0.1464 -1.6979
  379SOL     OW 1135   3.885   0.903   1.706  0.6364 -0.2236  0.4911
  379SOL    HW1 1136   3.960   0.948   1.746 -0.0966  2.0753 -0.5603
  379SOL    HW2 1137   3.810   0.932   1.758  0.1018  0.0524 -0.4191
  380SOL     OW 1138   2.478   2.977   1.983 -0.5035 -0.0489  0.1297
  380SOL    HW1 1139   2.451   3.052   2.036 -1.4603 -0.5429  0.3649
  380SOL    HW2 1140   2.507   2.912   2.047 -2.1929 -0.8566  0.1009
  381SOL     OW 1141   1.488   1.669   0.877  0.0249 -0.6720 -0.1343
  381SOL    HW1 1142   1.456   1.655   0.966 -0.9756 -0.5080 -0.4542
  381SOL    HW2 1143   1.416   1.714   0.832  0.7945 -0.0994 -0.8250
  382SOL     OW 1144   1.368   0.817   3.378  0.6391 -0.2169 -0.0694
  382SOL    HW1 1145   1.383   0.866   3.459  1.1830 -0.3446 -0.0877
  382SOL    HW2 1146   1.452   0.819   3.332 -0.0202  1.0045 -1.2791
  383SOL     OW 1147   3.078   1.843   1.525  0.3433  0.0306 -0.9001
  383SOL    HW1 1148   3.144   1.798   1.578  0.7628  2.5969  0.9638
  383SOL    HW2 1149   3.103   1.824   1.434  1.9413 -1.3514 -0.2230
  384SOL     OW 1150   0.818   1.355   3.493  0.1472  0.7973 -0.4302
  384SOL    HW1 1151   0.822   1.329   3.585 -2.3201  0.4141 -0.3637
  384SOL    HW2 1152   0.840   1.449   3.494  0.5006  0.7140  0.4918
  385SOL     OW 1153   1.899   0.065   1.812  0.3761  0.2864  0.2177
  385SOL    HW1 1154   1.947   0.126   1.869 -2.8316  2.8225  0.4705
  385SOL    HW2 1155   1.924   0.091   1.723 -1.8147  3.0172  0.2549
  386SOL     OW 1156   3.716   0.022   1.582 -0.0135 -0.1967 -0.4744
  386SOL    HW1 1157   3.769   0.098   1.605 -1.2815  0.4724  0.3694
  386SOL    HW2 1158   3.780  -0.048   1.565  1.1281  0.5327  0.6082
  387SOL     OW 1159   2.875   2.543   3.083  0.2003 -0.0291  0.2335
  387SOL    HW1 1160   2.837   2.571   3.166 -0.8531 -0.4087 -0.1045
  387SOL    HW2 1161   2.873   2.622   3.029  0.6930  0.1665  0.4956
  388SOL     OW 1162   3.719   2.377   1.485 -0.1268 -0.1615 -0.4685
  388SOL    HW1 1163   3.814   2.384   1.485 -0.1255 -0.1782 -0.5256
  388SOL    HW2 1164   3.701   2.289   1.519 -0.1398  0.0585  0.1031
  389SOL     OW 1165   1.487   1.603   0.231  0.1074  0.7044 -0.6420
  389SOL    HW1 1166   1.394   1.622   0.243 -0.2977 -0.8785 -0.9269
  389SOL    HW2 1167   1.526   1.615   0.317 -0.1889  2.2183 -0.7070
  390SOL     OW 1168   1.243   3.155   0.878 -0.5617  0.3223  0.1635
  390SOL    HW1 1169   1.287   3.153   0.963 -1.6352  0.0714  0.7381
  390SOL    HW2 1170   1.253   3.245   0.848 -0.8761  0.6338  0.9525
  391SOL     OW 1171   4.019   1.427   1.848  0.0138 -0.0535  0.2454
  391SOL    HW1 1172   4.000   1.375   1.926  0.9172  0.3452  0.7492
  391SOL    HW2 1173   3.934   1.463   1.822  0.0858  2.3771  2.9076
  392SOL     OW 1174   1.670   1.719   2.081  0.4628 -0.2374 -0.6135
  392SOL    HW1 1175   1.720   1.643   2.110  1.3845  0.6442  0.2038
  392SOL    HW2 1176   1.725   1.794   2.105 -0.7981  0.7219 -0.6235
  393SOL     OW 1177   1.801   2.011   0.990  0.4300 -0.2917  0.1146
  393SOL    HW1 1178   1.888   2.006   1.029  0.5544 -0.0568 -0.1268
  393SOL    HW2 1179   1.762   1.926   1.006  0.6057 -0.3057  0.4588
  394SOL     OW 1180   3.289   2.474   1.104  0.6506 -0.6312 -0.0069
  394SOL    HW1 1181   3.371   2.461   1.151  0.9507  0.5627 -0.1519
  394SOL    HW2 1182   3.298   2.561   1.065 -0.9520 -0.1801  0.5425
  395SOL     OW 1183   2.245   2.488   2.347  0.0730 -0.5406  0.1022
  395SOL    HW1 1184   2.322   2.431   2.359 -0.1884 -1.0887 -0.7431
  395SOL    HW2 1185   2.185   2.436   2.294  0.0756  0.7486 -1.2264
  396SOL     OW 1186   2.083   1.801   0.879  0.9045  0.2015  0.1457
  396SOL    HW1 1187   2.086   1.882   0.929  0.4872 -0.1170  0.6951
  396SOL    HW2 1188   2.044   1.826   0.795  3.3084  1.1133 -0.7900
  397SOL     OW 1189   1.340   2.228   0.136  0.6299  0.0211  0.6416
  397SOL    HW1 1190   1.416   2.233   0.195  0.4999  1.0239  0.7427
  397SOL    HW2 1191   1.265   2.240   0.194  0.4880  0.7310  0.3232
  398SOL     OW 1192   1.856   2.878   3.045  0.0008 -0.3310 -0.0281
  398SOL    HW1 1193   1.888   2.951   3.099  0.9282  1.8112 -3.1498
  398SOL    HW2 1194   1.772   2.908   3.013 -0.3312 -1.3560 -0.1447
  399SOL     OW 1195   0.798   2.311   2.918 -0.4760  0.5243 -0.6078
  399SOL    HW1 1196   0.766   2.387   2.968  0.4860  2.5171 -2.8373
  399SOL    HW2 1197   0.724   2.250   2.918 -1.8942  2.1550 -0.1094
  400SOL     OW 1198   3.396   2.053   3.524 -0.1146  0.9580  0.2245
  400SOL    HW1 1199   3.473   1.997   3.508  0.6981  2.3561 -0.9791
  400SOL    HW2 1200   3.431   2.142   3.523 -1.8680  1.6889 -1.1448
  401SOL     OW 1201   1.277   2.919   3.465  0.1356 -0.4131  0.1544
  401SOL    HW1 1202   1.274   2.929   3.370 -0.2621 -3.9070 -0.3432
  401SOL    HW2 1203   1.344   2.852   3.480 -2.2587 -2.6453  1.8937
  402SOL     OW 1204   2.679   2.773   0.782 -0.1407 -0.3585 -0.0536
  402SOL    HW1 1205   2.601   2.828   0.788  0.0248 -0.1205 -0.0346
  402SOL    HW2 1206   2.701   2.752   0.872 -1.2840 -2.0237 -0.1318
  403SOL     OW 1207   3.194   0.928   2.382  0.5222  0.3190  0.5486
  403SOL    HW1 1208   3.185   0.986   2.458  1.4227  1.1352  0.0604
  403SOL    HW2 1209   3.271   0.875   2.401 -1.3398 -2.1611  1.8578
  404SOL     OW 1210   1.419   0.562   0.947  0.0311  0.0092  0.6953
  404SOL    HW1 1211   1.355   0.566   0.876  0.4909  0.2376  0.2858
  404SOL    HW2 1212   1.496   0.522   0.907  0.1307 -0.2949  1.1931
  405SOL     OW 1213   3.032   2.867   1.511 -0.2454 -0.0521  0.3068
  405SOL    HW1 1214   3.052   2.802   1.444  0.8169  1.1123 -0.5389
  405SOL    HW2 1215   3.086   2.841   1.586 -1.9367 -1.7462  1.0183
  406SOL     OW 1216   3.716   1.091   2.483 -0.4339 -0.6704 -0.6896
  406SOL    HW1 1217   3.762   1.038   2.549  0.2232  0.2686 -0.3762
  406SOL    HW2 1218   3.751   1.060   2.399 -0.9019 -1.5199 -0.5821
  407SOL     OW 1219   0.700   0.798   0.518 -0.1552  0.7855  0.5890
  407SOL    HW1 1220   0.686   0.772   0.610  0.5365 -1.2990  0.1591
  407SOL    HW2 1221   0.642   0.740   0.468 -1.0829  2.4184 -0.2741
  408SOL     OW 1222   1.434   2.684   1.747 -0.5718 -0.0201 -0.5643
  408SOL    HW1 1223   1.432   2.602   1.698 -0.9299  0.4000 -1.2687
  408SOL    HW2 1224   1.365   2.674   1.812  2.3843 -2.1918  2.6131
  409SOL     OW 1225   1.137   2.271   3.912 -0.1224 -0.4636  0.8073
  409SOL    HW1 1226   1.231   2.262   3.894 -0.0020 -0.9880  1.6449
  409SOL    HW2 1227   1.096   2.207   3.854 -0.1808  1.3538 -1.2508
  410SOL     OW 1228   2.684   2.218   1.551  0.2373  0.4157  0.5403
  410SOL    HW1 1229   2.732   2.166   1.487  0.9191  1.7816 -0.0994
  410SOL    HW2 1230   2.648   2.153   1.613 -0.1023 -0.8974 -0.9656
  411SOL     OW 1231   3.582   1.224   1.690 -0.3425 -0.3030 -0.2855
  411SOL    HW1 1232   3.586   1.317   1.713  2.3886 -0.1120 -1.2133
  411SOL    HW2 1233   3.557   1.180   1.772  0.6194  1.0464  0.7778
  412SOL     OW 1234   0.710   0.164   0.445 -0.5250 -0.1835  0.3655
  412SOL    HW1 1235   0.670   0.135   0.527 -0.9893  0.4249  0.3608
  412SOL    HW2 1236   0.723   0.258   0.457 -0.2565 -0.1543 -0.1244
  413SOL     OW 1237   1.568   0.867   0.343 -0.2193  0.4530 -0.7396
  413SOL    HW1 1238   1.491   0.816   0.316 -0.2867  0.5179 -0.6692
  413SOL    HW2 1239   1.642   0.820   0.304 -0.0590 -1.0229  1.2034
  414SOL     OW 1240   2.881   2.329   1.995 -0.5569 -0.7328 -0.4641
  414SOL    HW1 1241   2.961   2.380   1.983 -1.8422  0.7277 -3.9615
  414SOL    HW2 1242   2.834   2.373   2.066  0.9528 -0.6496  0.5235
  415SOL     OW 1243   2.041   1.721   3.111  0.8643  0.0856  0.6121
  415SOL    HW1 1244   1.978   1.768   3.164  0.5328 -0.8509  1.0707
  415SOL    HW2 1245   2.068   1.784   3.044 -0.9533  0.3467  0.0782
  416SOL     OW 1246   0.543   1.528   1.732 -0.1320 -0.1244  0.5749
  416SOL    HW1 1247   0.549   1.433   1.736 -0.7397 -0.3017 -1.5734
  416SOL    HW2 1248   0.502   1.546   1.647  0.7739  2.0707  0.5369
  417SOL     OW 1249   2.685   2.250   2.601 -0.5796  0.3266 -0.6189
  417SOL    HW1 1250   2.774   2.223   2.622 -0.6420  0.2809 -0.4018
  417SOL    HW2 1251   2.630   2.177   2.632 -0.5647 -0.5208 -2.4778
  418SOL     OW 1252   3.968   3.400   0.699  0.0787  0.0384 -0.6628
  418SOL    HW1 1253   3.874   3.406   0.714 -0.4086 -1.0934 -2.7973
  418SOL    HW2 1254   3.977   3.395   0.603  2.3803  1.0768 -0.5823
  419SOL     OW 1255   1.144   2.461   2.612 -0.7434  0.7218 -0.0221
  419SOL    HW1 1256   1.189   2.539   2.579  1.1795  0.3232  1.4831
  419SOL    HW2 1257   1.062   2.458   2.563 -1.0703  3.8999  0.1370
  420SOL     OW 1258   3.964   0.656   0.246  0.5137 -0.1105  0.1323
  420SOL    HW1 1259   3.922   0.611   0.319 -0.3596 -0.0486 -0.3220
  420SOL    HW2 1260   3.942   0.749   0.258  0.1071 -0.1376 -0.3771
  421SOL     OW 1261   3.604   1.765   1.954 -0.1807  0.2322 -0.0865
  421SOL    HW1 1262   3.628   1.695   2.014  0.5588  2.0584  1.9099
  421SOL    HW2 1263   3.685   1.815   1.942 -0.7238  0.8689 -1.2930
  422SOL     OW 1264   3.313   1.419   2.923  0.2195 -0.5736 -0.5457
  422SOL    HW1 1265   3.313   1.474   3.002  0.1980 -0.3368 -0.7093
  422SOL    HW2 1266   3.381   1.354   2.940  2.5205  1.3780 -1.6155
  423SOL     OW 1267   3.743   0.924   1.107 -0.1871  0.0619 -0.1610
  423SOL    HW1 1268   3.688   0.988   1.151 -0.9325  0.0266 -1.0089
  423SOL    HW2 1269   3.740   0.847   1.164  0.4803  0.6720  0.7163
  424SOL     OW 1270   1.809   1.638   0.769  0.1548 -0.9865 -0.2181
  424SOL    HW1 1271   1.722   1.668   0.795  0.3647 -0.6127  0.0670
  424SOL    HW2 1272   1.851   1.716   0.732  0.5752 -1.0183  0.1881
  425SOL     OW 1273   1.461   0.194   2.012  0.4214 -0.0617 -0.2888
  425SOL    HW1 1274   1.442   0.272   2.065  2.2463 -0.9037  1.7609
  425SOL    HW2 1275   1.517   0.227   1.941  0.1303  0.6788 -0.1851
  426SOL     OW 1276   3.164   2.340   0.383  1.0535  0.4815  0.1739
  426SOL    HW1 1277   3.139   2.382   0.300 -1.5939  0.8765  1.1115
  426SOL    HW2 1278   3.114   2.259   0.385  0.4454  0.8650  1.7344
  427SOL     OW 1279   2.302   1.964   3.089  0.7454 -0.2159 -0.3598
  427SOL    HW1 1280   2.369   1.912   3.132  1.3493  0.4917 -0.4365
  427SOL    HW2 1281   2.265   1.905   3.023 -0.6191 -1.5455  1.4633
  428SOL     OW 1282   1.675   0.078   1.628  0.0600 -0.0689  0.2863
  428SOL    HW1 1283   1.642   0.014   1.692 -0.2975 -0.0728  0.1002
  428SOL    HW2 1284   1.753   0.036   1.591  2.0729  1.1567  2.8399
  429SOL     OW 1285   1.283   0.195   0.656  0.2444  0.6583  0.7597
  429SOL    HW1 1286   1.329   0.118   0.689 -0.7954 -1.1125 -1.6171
  429SOL    HW2 1287   1.327   0.218   0.574 -0.8524  1.1436  0.2709
  430SOL     OW 1288   0.885   0.612   2.933  0.2121 -0.1002 -0.0033
  430SOL    HW1 1289   0.906   0.606   3.026 -0.7533 -1.0652  0.1659
  430SOL    HW2 1290   0.807   0.668   2.929  1.8896  2.3623 -0.5159
  431SOL     OW 1291   3.811   3.562   3.644  0.0383  0.3755  1.0665
  431SOL    HW1 1292   3.719   3.591   3.637 -0.2361 -0.7951 -1.2698
  431SOL    HW2 1293   3.841   3.597   3.728 -1.2612  4.4257  0.0903
  432SOL     OW 1294   1.852   0.400   2.950  0.1456 -0.7851  0.5264
  432SOL    HW1 1295   1.865   0.477   3.005 -0.3664 -1.0426  1.0140
  432SOL    HW2 1296   1.797   0.342   3.003 -0.7255 -0.8499 -0.4393
  433SOL     OW 1297   2.314   0.221   3.908  0.7417 -0.0651 -0.2431
  433SOL    HW1 1298   2.265   0.250   3.985  0.6247 -2.4489  0.6677
  433SOL    HW2 1299   2.373   0.294   3.887 -1.1548  1.7293  0.3695
  434SOL     OW 1300   3.028   0.202   1.693  0.7667  0.3015 -0.3335
  434SOL    HW1 1301   3.033   0.236   1.782  3.8808  0.8669 -0.6119
  434SOL    HW2 1302   3.031   0.107   1.704  0.4053  0.3457  0.1861
  435SOL     OW 1303   3.013   1.322   1.358  0.3558 -0.3762  0.1154
  435SOL    HW1 1304   3.066   1.354   1.285 -0.0904  0.4689  0.1465
  435SOL    HW2 1305   2.927   1.361   1.343 -0.4131 -2.1249 -0.2181
  436SOL     OW 1306   1.666   1.927   3.658  0.8013 -0.0420 -0.5008
  436SOL    HW1 1307   1.581   1.883   3.657  0.7485 -0.0675  1.5305
  436SOL    HW2 1308   1.661   1.988   3.731  2.8997 -0.8136  0.3668
  437SOL     OW 1309   1.466   1.988   0.834  0.6518 -0.7142 -0.3004
  437SOL    HW1 1310   1.384   1.941   0.819  0.1028  0.1772 -0.1310
  437SOL    HW2 1311   1.457   2.025   0.922  0.2298  1.3821 -1.1812
  438SOL     OW 1312   0.224   2.261   3.762  0.0770  0.8451 -0.4975
  438SOL    HW1 1313   0.226   2.328   3.694 -0.3144 -0.3456 -1.7419
  438SOL    HW2 1314   0.230   2.309   3.844  2.0790  2.2655 -1.3798
  439SOL     OW 1315   0.035   3.784   3.011  0.0951  0.2412 -0.2905
  439SOL    HW1 1316   0.067   3.696   3.031 -0.9334  0.2959  1.9744
  439SOL    HW2 1317   0.018   3.822   3.097 -2.3539  1.5459 -1.2735
  440SOL     OW 1318   0.065   1.596   0.663 -0.0226 -0.1680  0.2314
  440SOL    HW1 1319   0.028   1.509   0.681  1.4755 -0.4832  2.1357
  440SOL    HW2 1320   0.123   1.582   0.588 -1.2552 -0.3616 -0.7135
  441SOL     OW 1321   3.133   2.141   3.363  0.1674  0.1451 -0.2771
  441SOL    HW1 1322   3.224   2.144   3.395 -0.6313 -1.9047  2.5480
  441SOL    HW2 1323   3.128   2.061   3.312 -0.9177 -2.2464  3.2087
  442SOL     OW 1324   2.471   3.351   3.278  0.2604  0.4323  0.4970
  442SOL    HW1 1325   2.401   3.334   3.340  0.4358  0.9075  0.8362
  442SOL    HW2 1326   2.546   3.376   3.333  0.4337  0.8024  0.1021
  443SOL     OW 1327   3.410   2.551   3.699 -0.0666 -0.1289 -0.0846
  443SOL    HW1 1328   3.488   2.566   3.751 -0.7524  1.0933  0.6618
  443SOL    HW2 1329   3.420   2.610   3.624 -0.1086 -0.2379 -0.1766
  444SOL     OW 1330   3.152   3.654   1.388 -0.9247 -0.2661 -0.3640
  444SOL    HW1 1331   3.157   3.673   1.482 -1.1750  0.1469 -0.4320
  444SOL    HW2 1332   3.200   3.727   1.347  1.6558 -1.8613 -0.4168
  445SOL     OW 1333   3.043   3.184   1.662 -0.3325 -0.2449 -0.6555
  445SOL    HW1 1334   3.101   3.179   1.586  0.6832  0.4786  0.0538
  445SOL    HW2 1335   2.990   3.262   1.645  0.3530  0.3017 -0.3132
  446SOL     OW 1336   2.772   0.022   0.440  0.5591  0.3348  0.3441
  446SOL    HW1 1337   2.676   0.024   0.440  0.3050 -2.5666 -2.1808
  446SOL    HW2 1338   2.796   0.003   0.530 -1.3201  0.0253  0.8283
  447SOL     OW 1339   3.944   1.781   0.421  0.2022  0.2943 -0.1980
  447SOL    HW1 1340   3.898   1.825   0.492  3.0535  0.4546  1.7344
  447SOL    HW2 1341   4.009   1.725   0.465  0.6809 -1.2903 -2.6681
  448SOL     OW 1342   2.607   3.581   2.924  0.3531  0.1204  0.3907
  448SOL    HW1 1343   2.633   3.516   2.859 -0.5630 -1.1865  1.2881
  448SOL    HW2 1344   2.524   3.549   2.959 -0.4464  2.1146  0.4306
  449SOL     OW 1345   2.828   3.065   1.940 -0.3030  0.1355  0.3606
  449SOL    HW1 1346   2.830   2.971   1.921 -0.8910  0.5053 -1.8421
  449SOL    HW2 1347   2.883   3.075   2.018 -1.0886 -2.1407  1.2834
  450SOL     OW 1348   2.407   1.563   0.284  0.2647 -0.4137 -0.2583
  450SOL    HW1 1349   2.320   1.593   0.259  0.9353  0.9762 -1.0849
  450SOL    HW2 1350   2.423   1.486   0.230 -0.4757 -0.7341 -0.0288
  451SOL     OW 1351   3.001   1.684   3.870  0.1939 -0.1840  0.3032
  451SOL    HW1 1352   3.025   1.605   3.918 -1.1317 -0.2201  0.9535
  451SOL    HW2 1353   3.069   1.694   3.804  1.0222 -1.2026  0.9715
  452SOL     OW 1354   2.453   1.019   2.423 -1.1430  0.6004  0.0975
  452SOL    HW1 1355   2.439   0.924   2.419  1.5801  0.0591  1.0854
  452SOL    HW2 1356   2.516   1.037   2.353 -1.4420  1.6398  0.0795
  453SOL     OW 1357   2.993   2.074   0.640 -0.1216 -0.3135  0.4070
  453SOL    HW1 1358   3.088   2.068   0.637 -0.0538  0.2030  1.2041
  453SOL    HW2 1359   2.963   1.983   0.629  0.5125 -0.6868  1.6055
  454SOL     OW 1360   0.030   1.613   0.156  0.1766 -0.9453 -0.2296
  454SOL    HW1 1361   0.089   1.601   0.082  1.2720 -1.8225  0.7400
  454SOL    HW2 1362   0.086   1.646   0.227 -1.2507  2.0707 -0.3778
  455SOL     OW 1363   2.753   0.718   1.821  0.0299 -0.2404  0.8730
  455SOL    HW1 1364   2.732   0.727   1.729 -3.4333  1.5563  1.6926
  455SOL    HW2 1365   2.847   0.737   1.826  0.5878 -1.5937 -2.3394
  456SOL     OW 1366   1.182   3.229   3.561  0.5818 -0.4765 -0.5320
  456SOL    HW1 1367   1.270   3.193   3.574  0.8209 -1.0208 -3.0131
  456SOL    HW2 1368   1.172   3.231   3.465 -1.4130  1.2900 -0.3544
  457SOL     OW 1369   3.572   3.119   1.829  0.1327 -0.3193  0.2458
  457SOL    HW1 1370   3.632   3.044   1.835  0.5546 -0.0006  0.0565
  457SOL    HW2 1371   3.628   3.195   1.842 -0.6655 -0.1060  3.2188
  458SOL     OW 1372   3.043   0.787   1.849 -0.1156 -0.2495 -0.4159
  458SOL    HW1 1373   3.077   0.835   1.773 -2.2645  0.5675 -0.9427
  458SOL    HW2 1374   3.038   0.696   1.820  0.1801 -0.1418 -0.8226
  459SOL     OW 1375   1.473   3.670   0.403  0.5951 -0.2091  0.7826
  459SOL    HW1 1376   1.543   3.731   0.426 -0.6912  0.7198  2.3731
  459SOL    HW2 1377   1.415   3.669   0.479 -1.9257  0.1798 -1.0063
  460SOL     OW 1378   0.759   0.993   3.599 -0.2957 -0.4540  0.1142
  460SOL    HW1 1379   0.804   0.983   3.683 -1.3932 -0.5988  0.6927
  460SOL    HW2 1380   0.675   0.948   3.611 -0.9338  0.4989 -0.6918
  461SOL     OW 1381   2.051   2.138   0.127  0.4285  0.5487  0.3226
  461SOL    HW1 1382   1.971   2.099   0.092  1.1963 -1.2018  0.4172
  461SOL    HW2 1383   2.026   2.228   0.147 -0.2042  1.6530 -4.2884
  462SOL     OW 1384   3.862   2.506   3.191  0.3861 -0.3595  0.3587
  462SOL    HW1 1385   3.904   2.516   3.105  0.4991 -1.6896  0.2424
  462SOL    HW2 1386   3.772   2.534   3.176  0.9724  1.7089  0.4051
  463SOL     OW 1387   3.374   0.767   0.694 -0.2034  0.6228  0.1719
  463SOL    HW1 1388   3.300   0.828   0.700 -0.1252  0.6072  2.5549
  463SOL    HW2 1389   3.375   0.724   0.780  0.6001 -1.7531 -0.9516
  464SOL     OW 1390   1.744   3.647   1.467  0.1315  0.2781  0.5789
  464SOL    HW1 1391   1.801   3.572   1.484  0.2466  0.6383  1.8463
  464SOL    HW2 1392   1.769   3.712   1.532 -1.0541  0.8171  0.5242
  465SOL     OW 1393   0.285   1.378   0.173  0.2007  0.5189 -0.1108
  465SOL    HW1 1394   0.357   1.429   0.137  0.6071 -0.4748 -0.7722
  465SOL    HW2 1395   0.321   1.289   0.181 -1.1870 -0.1957 -1.2693
  466SOL     OW 1396   0.254   3.683   3.334  0.4671  0.2967 -0.6382
  466SOL    HW1 1397   0.275   3.664   3.426  3.3731 -0.7916 -1.4418
  466SOL    HW2 1398   0.252   3.778   3.329  0.0904  0.3747  0.5570
  467SOL     OW 1399   2.909   2.035   2.006 -0.5680 -0.4195  0.0352
  467SOL    HW1 1400   2.869   2.113   1.968  1.6850  0.8622  0.1955
  467SOL    HW2 1401   2.862   2.022   2.089 -0.1220  1.5818  0.6578
  468SOL     OW 1402   2.512   3.247   2.136 -0.0317 -0.2413  0.0928
  468SOL    HW1 1403   2.554   3.183   2.194  0.3746  1.0024  1.2253
  468SOL    HW2 1404   2.569   3.249   2.059 -0.5610 -1.8982 -0.3753
  469SOL     OW 1405   0.219   2.459   0.394  0.1095 -0.8941  0.2371
  469SOL    HW1 1406   0.181   2.504   0.469  2.8649  0.0395  1.2135
  469SOL    HW2 1407   0.247   2.530   0.336  3.3095 -1.2103  1.1798
  470SOL     OW 1408   3.984   2.276   3.973 -0.1960  0.4414 -0.1485
  470SOL    HW1 1409   3.937   2.359   3.981  0.8780  0.9594  1.0789
  470SOL    HW2 1410   4.076   2.300   3.963 -0.1602 -0.5535 -3.0275
  471SOL     OW 1411   2.605   2.021   2.079 -0.1216 -0.1824 -0.1646
  471SOL    HW1 1412   2.570   2.082   2.143 -2.2680 -0.4000 -1.0156
  471SOL    HW2 1413   2.564   1.937   2.102 -1.0139 -0.2414 -1.8192
  472SOL     OW 1414   1.840   1.073   3.630 -0.2594  0.6230  0.1768
  472SOL    HW1 1415   1.885   0.989   3.631  0.7992  1.0688 -2.3805
  472SOL    HW2 1416   1.865   1.115   3.712  0.5829 -0.8360  0.6976
  473SOL     OW 1417   1.765   0.785   1.594 -0.1501  0.3178 -0.2810
  473SOL    HW1 1418   1.839   0.778   1.535  0.0438  0.3350 -0.0432
  473SOL    HW2 1419   1.773   0.872   1.633  0.3445 -0.0941  0.5734
  474SOL     OW 1420   1.620   0.384   0.866 -0.1802  0.2272  0.1024
  474SOL    HW1 1421   1.616   0.306   0.810 -0.2086  0.8649 -0.8024
  474SOL    HW2 1422   1.681   0.359   0.935 -0.0918 -0.5635 -0.2390
  475SOL     OW 1423   1.634   2.996   2.287 -0.0014  0.0962 -0.4770
  475SOL    HW1 1424   1.703   2.962   2.344 -0.1643 -2.4644 -1.6589
  475SOL    HW2 1425   1.564   3.022   2.347  0.1599 -1.7188  0.5712
  476SOL     OW 1426   1.016   0.622   1.242  1.0966 -0.3572  0.2242
  476SOL    HW1 1427   1.074   0.695   1.262  0.5443 -0.1681  1.2130
  476SOL    HW2 1428   1.002   0.578   1.326  2.3018 -2.2938 -0.5234
  477SOL     OW 1429   1.175   3.551   2.540 -0.2505 -0.7840 -0.1225
  477SOL    HW1 1430   1.082   3.552   2.560 -0.2461  1.3641 -0.0444
  477SOL    HW2 1431   1.181   3.590   2.453  0.6805  0.6181  0.5367
  478SOL     OW 1432   2.770   1.694   0.626 -0.1097 -0.5125  0.2920
  478SOL    HW1 1433   2.853   1.725   0.588 -0.7617 -0.0168 -0.7796
  478SOL    HW2 1434   2.707   1.762   0.603 -1.1548 -1.6615 -0.3210
  479SOL     OW 1435   3.656   2.800   2.500  0.2649  0.5813 -0.5026
  479SOL    HW1 1436   3.586   2.758   2.549  1.2679  0.5354  0.9869
  479SOL    HW2 1437   3.703   2.851   2.566  2.9026 -1.0673 -0.9340
  480SOL     OW 1438   2.709   0.170   2.320  0.3713  0.1754  0.0370
  480SOL    HW1 1439   2.692   0.252   2.275 -1.4343  0.4506  1.1460
  480SOL    HW2 1440   2.775   0.192   2.386 -1.7223  1.3432  1.8617
  481SOL     OW 1441   0.142   1.564   0.979  0.2192  0.0607  0.7364
  481SOL    HW1 1442   0.077   1.603   0.922 -1.2128 -0.4320  1.9594
  481SOL    HW2 1443   0.224   1.606   0.955 -1.0552  3.1753  1.3528
  482SOL     OW 1444   2.436   2.941   0.786 -0.1685  0.2342  0.0501
  482SOL    HW1 1445   2.393   2.980   0.710  2.2171 -0.8281 -2.0028
  482SOL    HW2 1446   2.466   3.016   0.837 -0.7954  1.0020 -0.6655
  483SOL     OW 1447   0.261   1.822   3.898 -0.0019 -0.2240 -0.4920
  483SOL    HW1 1448   0.318   1.862   3.963  1.2726 -1.5522 -0.7241
  483SOL    HW2 1449   0.226   1.895   3.848 -0.2657  0.7588  1.0750
  484SOL     OW 1450   3.871   2.164   3.096 -0.1724  0.4566 -0.3978
  484SOL    HW1 1451   3.948   2.215   3.121 -0.6547  0.7973  0.4414
  484SOL    HW2 1452   3.894   2.125   3.011  1.9501 -1.5928  0.9807
  485SOL     OW 1453   3.193   2.135   2.385 -0.5796 -0.1295 -0.2393
  485SOL    HW1 1454   3.286   2.156   2.392 -0.3977 -0.9600 -0.0381
  485SOL    HW2 1455   3.182   2.099   2.297 -0.7759  0.2502 -0.3743
  486SOL     OW 1456   1.476   1.106   1.095 -0.3144 -0.7720 -0.3389
  486SOL    HW1 1457   1.471   1.022   1.049 -0.6335 -1.0857  0.2560
  486SOL    HW2 1458   1.533   1.089   1.169  1.7576  0.2150 -1.6115
  487SOL     OW 1459   0.126   0.438   3.273 -0.0420  0.2579 -0.1777
  487SOL    HW1 1460   0.067   0.417   3.346 -0.2271 -0.6958 -0.5903
  487SOL    HW2 1461   0.214   0.429   3.309 -0.0855  2.7607  0.7544
  488SOL     OW 1462   1.717   2.511   0.381  0.7387 -0.0962 -0.1875
  488SOL    HW1 1463   1.667   2.576   0.333 -0.9103 -1.5771 -0.5966
  488SOL    HW2 1464   1.712   2.540   0.472  1.5836  1.2906 -0.5651
  489SOL     OW 1465   1.165   3.041   3.215  0.1670 -0.2753  0.8480
  489SOL    HW1 1466   1.195   3.090   3.138 -2.0175  2.4496  1.5609
  489SOL    HW2 1467   1.080   3.005   3.188  1.6639 -3.8559  0.3710
  490SOL     OW 1468   3.425   1.860   1.295 -0.3625 -0.1226 -0.6456
  490SOL    HW1 1469   3.456   1.951   1.290 -0.4130  0.0836  1.6263
  490SOL    HW2 1470   3.342   1.866   1.344  0.4530 -1.5229  1.0064
  491SOL     OW 1471   1.101   2.886   2.548 -0.2227 -0.5415  0.2910
  491SOL    HW1 1472   1.116   2.840   2.465  1.1189  1.8157 -0.8825
  491SOL    HW2 1473   1.007   2.904   2.548 -0.2600 -0.6582 -0.6826
  492SOL     OW 1474   1.362   2.001   2.379 -0.3315 -0.4343 -0.0600
  492SOL    HW1 1475   1.308   1.931   2.341 -0.4038 -0.6025  0.3467
  492SOL    HW2 1476   1.306   2.040   2.446  0.1352 -0.7751  0.5388
  493SOL     OW 1477   0.234   0.610   0.905  0.1061 -0.6282 -0.6202
  493SOL    HW1 1478   0.223   0.690   0.956  0.3320 -0.2523 -1.1407
  493SOL    HW2 1479   0.307   0.564   0.947  0.3601 -0.2709 -0.6637
  494SOL     OW 1480   3.971   0.171   2.118  0.0666 -0.4216 -0.0731
  494SOL    HW1 1481   3.954   0.252   2.070 -1.8072 -0.1563  0.9104
  494SOL    HW2 1482   4.060   0.179   2.149  0.1856  0.8932 -0.6871
  495SOL     OW 1483   1.804   0.593   3.668  0.6796 -0.8121 -0.1529
  495SOL    HW1 1484   1.778   0.589   3.576 -1.1208 -1.2912  0.3385
  495SOL    HW2 1485   1.877   0.532   3.674 -2.0114 -4.4124 -0.4514
  496SOL     OW 1486   3.154   3.814   1.081 -0.4616  0.3290  0.1701
  496SOL    HW1 1487   3.201   3.817   1.165  1.9953 -0.8646 -1.0608
  496SOL    HW2 1488   3.217   3.778   1.019 -2.7970 -0.6374 -1.8294
  497SOL     OW 1489   2.420   3.617   2.329  0.5501  0.3767 -0.0087
  497SOL    HW1 1490   2.404   3.522   2.332 -1.0555  0.5544 -1.6316
  497SOL    HW2 1491   2.480   3.629   2.256  1.0462  0.5939  0.4278
  498SOL     OW 1492   2.988   3.120   2.996  0.5868 -0.1498  0.0803
  498SOL    HW1 1493   3.068   3.173   2.990  1.9538 -1.9851  0.9192
  498SOL    HW2 1494   2.977   3.086   2.907 -0.3672  1.5431 -0.4933
  499SOL     OW 1495   3.108   1.453   3.941  0.1709  0.0327  0.0022
  499SOL    HW1 1496   3.145   1.394   3.875 -0.4244 -0.6852  0.2977
  499SOL    HW2 1497   3.119   1.407   4.024 -1.0167 -0.0193  0.1451
  500SOL     OW 1498   1.773   2.163   3.486  0.4256  0.2932 -0.2579
  500SOL    HW1 1499   1.786   2.142   3.579 -0.2028  1.4841  0.1202
  500SOL    HW2 1500   1.860   2.187   3.455  0.5347  0.4851  0.1880
  501SOL     OW 1501   3.301   0.719   2.233 -0.0243 -0.1885  0.0127
  501SOL    HW1 1502   3.379   0.773   2.248  0.6368 -1.1202 -0.0072
  501SOL    HW2 1503   3.230   0.782   2.223  0.8102  0.6982 -0.4801
  502SOL     OW 1504   1.415   1.949   0.007  0.3556 -0.2363  0.4484
  502SOL    HW1 1505   1.372   1.895   0.073 -2.6403  0.4328 -0.8111
  502SOL    HW2 1506   1.392   2.039   0.030  1.9194  0.2514  0.2419
  503SOL     OW 1507   2.876   0.238   2.531  0.2838 -0.2893  0.5741
  503SOL    HW1 1508   2.835   0.209   2.612 -1.4601  1.0177  0.2033
  503SOL    HW2 1509   2.963   0.196   2.532  0.7271  0.4945  3.5804
  504SOL     OW 1510   0.602   0.033   0.182  0.2252  0.1218  0.6161
  504SOL    HW1 1511   0.657  -0.022   0.237 -0.0618 -1.7783 -0.9139
  504SOL    HW2 1512   0.576   0.106   0.239  1.9328 -0.4645  2.2103
  505SOL     OW 1513   1.026   1.210   3.881  0.4666  0.0207  0.6102
  505SOL    HW1 1514   1.100   1.185   3.825  1.9420 -0.7414  2.7891
  505SOL    HW2 1515   1.061   1.278   3.938  0.3716 -2.0943  3.4063
  506SOL     OW 1516   2.132   2.435   0.358 -0.2056 -0.1638  0.2248
  506SOL    HW1 1517   2.047   2.438   0.314  0.4662 -1.2465 -1.2320
  506SOL    HW2 1518   2.172   2.519   0.337 -0.5734  0.0106  0.2085
  507SOL     OW 1519   0.831   3.520   1.053 -0.2494  0.3676 -0.3419
  507SOL    HW1 1520   0.910   3.572   1.039 -0.8149  1.4145  0.2214
  507SOL    HW2 1521   0.767   3.582   1.089 -0.2086 -1.1720  2.7481
  508SOL     OW 1522   1.840   1.111   2.227 -0.1695 -0.8171  0.0304
  508SOL    HW1 1523   1.867   1.197   2.257  1.5621 -0.8043 -1.4105
  508SOL    HW2 1524   1.775   1.129   2.159 -0.9398 -0.7225  0.7760
  509SOL     OW 1525   0.416   0.824   2.372  0.5300  0.0354 -0.2192
  509SOL    HW1 1526   0.476   0.754   2.346 -0.0441 -1.1599  1.5103
  509SOL    HW2 1527   0.473   0.898   2.393  1.2916 -0.5925 -0.0438
  510SOL     OW 1528   0.212   3.192   0.717 -0.4895 -0.0945 -0.6165
  510SOL    HW1 1529   0.168   3.276   0.707 -3.1599 -1.5181 -1.6546
  510SOL    HW2 1530   0.148   3.136   0.761  1.9288 -1.1196  1.9533
  511SOL     OW 1531   3.041   0.692   3.871 -0.0054  0.4211 -0.0786
  511SOL    HW1 1532   3.062   0.785   3.861 -0.4213  0.4503 -0.7209
  511SOL    HW2 1533   3.126   0.648   3.871  0.1217  0.5297 -2.6681
  512SOL     OW 1534   0.474   2.177   2.077  0.1397 -0.3288 -0.1247
  512SOL    HW1 1535   0.512   2.215   2.156  0.1936 -0.9449  0.1504
  512SOL    HW2 1536   0.391   2.141   2.105  0.0862 -0.4085 -0.3850
  513SOL     OW 1537   1.908   1.988   1.881  0.3666  0.2689 -0.1109
  513SOL    HW1 1538   1.916   1.894   1.866 -0.1063 -0.0748  1.5648
  513SOL    HW2 1539   1.997   2.017   1.901  0.4058  0.0445  0.0452
  514SOL     OW 1540   3.793   1.542   0.316 -0.6422  0.4517 -0.1856
  514SOL    HW1 1541   3.852   1.603   0.273 -0.0500  0.1558  0.1935
  514SOL    HW2 1542   3.759   1.487   0.245  1.7470 -1.2527 -0.1513
  515SOL     OW 1543   3.596   2.016   0.137  0.6163 -0.4000  0.4212
  515SOL    HW1 1544   3.649   1.947   0.097  0.0591 -0.7571  0.2823
  515SOL    HW2 1545   3.605   2.002   0.231  1.7590  0.3092  0.4348
  516SOL     OW 1546   0.949   0.962   2.655  0.2296  0.0235 -0.5679
  516SOL    HW1 1547   0.989   1.047   2.671 -0.9483  0.5996 -0.6002
  516SOL    HW2 1548   0.981   0.936   2.568  1.7664 -0.2737  0.0675
  517SOL     OW 1549   3.857   2.379   0.692  0.1983  0.5714  0.4931
  517SOL    HW1 1550   3.929   2.373   0.754  1.8568  1.5725 -1.2209
  517SOL    HW2 1551   3.898   2.406   0.610 -1.8704 -0.7029 -1.0774
  518SOL     OW 1552   0.597   0.294   3.418  0.5296 -0.3149 -0.1580
  518SOL    HW1 1553   0.643   0.321   3.497 -0.0978 -0.9716  0.4548
  518SOL    HW2 1554   0.639   0.342   3.347  0.7097  0.7555  0.6477
  519SOL     OW 1555   3.121   3.556   3.993 -0.3317  0.1393  0.0529
  519SOL    HW1 1556   3.128   3.492   3.922 -0.5815 -0.1354  0.2730
  519SOL    HW2 1557   3.039   3.533   4.037 -1.8945  2.3175 -1.5441
  520SOL     OW 1558   2.325   2.432   1.566 -0.1076  0.3787 -0.1447
  520SOL    HW1 1559   2.297   2.409   1.654  0.9613  2.0102  0.6745
  520SOL    HW2 1560   2.421   2.427   1.569 -0.0564  0.2604 -1.2842
  521SOL     OW 1561   0.464   2.235   0.632  0.7448 -0.1477  0.1718
  521SOL    HW1 1562   0.451   2.248   0.726  0.1763  2.8770 -0.2128
  521SOL    HW2 1563   0.413   2.157   0.611 -1.2440  0.5727  1.9774
  522SOL     OW 1564   1.088   0.093   1.061  0.2133 -0.1099 -0.0271
  522SOL    HW1 1565   1.006   0.065   1.019  0.0821 -1.5936  1.1379
  522SOL    HW2 1566   1.111   0.174   1.016 -1.8891  0.3409 -0.4083
  523SOL     OW 1567   3.465   1.627   1.126  0.0275  0.2225  0.0232
  523SOL    HW1 1568   3.502   1.615   1.214 -0.6613  0.1099  0.3056
  523SOL    HW2 1569   3.438   1.719   1.125 -0.5622  0.0578  0.1729
  524SOL     OW 1570   0.261   2.719   3.783 -0.5281  0.8275 -0.4299
  524SOL    HW1 1571   0.300   2.712   3.696 -0.6470  0.2743 -0.4446
  524SOL    HW2 1572   0.330   2.688   3.842 -0.3036  1.5840 -0.2839
  525SOL     OW 1573   1.718   2.209   1.176 -0.1380  0.4151 -0.0163
  525SOL    HW1 1574   1.694   2.123   1.143 -0.5654  0.4677  0.1448
  525SOL    HW2 1575   1.770   2.248   1.106  0.4559 -0.1503  0.0955
  526SOL     OW 1576   0.091   2.293   3.226 -0.2014  0.4145  0.5046
  526SOL    HW1 1577   0.072   2.376   3.269  1.3678  0.8642  0.3889
  526SOL    HW2 1578   0.151   2.316   3.155 -0.3847 -0.7146 -0.0397
  527SOL     OW 1579   1.654   2.804   1.270 -0.4340 -0.3378 -0.2597
  527SOL    HW1 1580   1.604   2.885   1.286 -2.1062 -1.1836 -0.8980
  527SOL    HW2 1581   1.611   2.739   1.326  0.3062 -0.9983 -0.4443
  528SOL     OW 1582   1.690   2.432   1.885  0.7545  0.7193 -0.1451
  528SOL    HW1 1583   1.738   2.467   1.810 -0.3961  0.4296 -1.0450
  528SOL    HW2 1584   1.730   2.346   1.902  1.1623  0.8821 -0.2750
  529SOL     OW 1585   2.138   2.766   1.321 -0.3775 -0.2806  0.5255
  529SOL    HW1 1586   2.079   2.841   1.321  0.2831  0.2674  2.0425
  529SOL    HW2 1587   2.224   2.802   1.301 -0.5950 -1.1971 -2.5720
  530SOL     OW 1588   0.210   1.405   3.096  0.2147 -0.0654 -0.8829
  530SOL    HW1 1589   0.276   1.363   3.152  0.6094 -0.7742 -1.8498
  530SOL    HW2 1590   0.260   1.466   3.042  0.0466 -0.4260 -1.4510
  531SOL     OW 1591   1.834   3.663   3.755 -0.5419 -0.0829  0.0284
  531SOL    HW1 1592   1.891   3.696   3.824 -1.1125  1.9416 -0.3715
  531SOL    HW2 1593   1.850   3.722   3.681 -0.3593 -1.8466 -1.4070
  532SOL     OW 1594   0.377   0.199   0.010  0.1356 -0.3618  0.3196
  532SOL    HW1 1595   0.338   0.124   0.055 -1.6810  0.9619  1.0432
  532SOL    HW2 1596   0.317   0.220  -0.061  1.6302 -0.7629 -1.1402
  533SOL     OW 1597   1.843   0.530   0.099  0.3245 -0.3651 -0.1006
  533SOL    HW1 1598   1.814   0.439   0.104 -2.0111  0.2286 -1.3220
  533SOL    HW2 1599   1.777   0.579   0.147 -0.0422  0.9323 -1.8266
  534SOL     OW 1600   3.935   0.538   0.951  0.3502 -0.0539 -0.4219
  534SOL    HW1 1601   3.906   0.614   0.900 -0.2698 -0.1707 -0.2507
  534SOL    HW2 1602   4.028   0.555   0.967  0.5604 -0.0206 -1.5854
  535SOL     OW 1603   3.670   1.644   0.547 -0.4526 -0.2936 -0.0535
  535SOL    HW1 1604   3.709   1.632   0.460  0.2003 -1.7228  0.4000
  535SOL    HW2 1605   3.706   1.727   0.578  1.8071 -1.2335  0.0625
  536SOL     OW 1606   0.114   3.243   3.636  0.0251 -0.4265 -0.0129
  536SOL    HW1 1607   0.171   3.318   3.650 -1.9020  1.4305 -1.4690
  536SOL    HW2 1608   0.057   3.241   3.713 -2.5731  2.2440 -1.6765
  537SOL     OW 1609   0.428   3.918   3.360 -0.0758 -0.5422  0.0491
  537SOL    HW1 1610   0.465   3.861   3.428  0.2060  1.1363  1.3782
  537SOL    HW2 1611   0.459   3.880   3.278  0.6979 -1.8751  0.8994
  538SOL     OW 1612   0.345   3.102   2.231 -0.2360 -0.4916  0.1930
  538SOL    HW1 1613   0.269   3.045   2.226 -0.8659  0.3425  0.0753
  538SOL    HW2 1614   0.310   3.186   2.259  0.4551  0.2476 -1.0882
  539SOL     OW 1615   0.384   2.916   3.288  0.2615 -0.9925 -0.0219
  539SOL    HW1 1616   0.371   2.833   3.334 -0.0405 -0.4219  0.9569
  539SOL    HW2 1617   0.428   2.972   3.352 -1.7419  0.4050  0.2248
  540SOL     OW 1618   0.698   0.822   0.216  0.0215 -0.1118  0.3626
  540SOL    HW1 1619   0.710   0.727   0.223  0.8010 -0.0421  0.0741
  540SOL    HW2 1620   0.619   0.832   0.164 -0.1871 -0.6029  0.5744
  541SOL     OW 1621   0.498   1.514   0.027  0.3951  0.0394  0.0845
  541SOL    HW1 1622   0.529   1.595   0.066  1.3598 -0.4213  0.3050
  541SOL    HW2 1623   0.554   1.446   0.065 -0.7412 -0.7995  0.3244
  542SOL     OW 1624   3.546   2.420   1.674 -0.3483  0.0508  0.6500
  542SOL    HW1 1625   3.532   2.330   1.706  0.7245 -0.0204  0.9659
  542SOL    HW2 1626   3.631   2.417   1.631 -0.0699  1.0311  1.1000
  543SOL     OW 1627   2.834   1.161   0.735  0.3226 -0.5991  0.1784
  543SOL    HW1 1628   2.834   1.256   0.724  1.5212 -0.6894 -0.7232
  543SOL    HW2 1629   2.885   1.146   0.814  0.5804 -0.5195  0.0273
  544SOL     OW 1630   2.186   1.136   0.647  0.2933 -0.3962  1.5467
  544SOL    HW1 1631   2.203   1.229   0.627 -0.4560 -0.4688  0.4598
  544SOL    HW2 1632   2.135   1.105   0.572  3.4303 -2.6111  0.0572
  545SOL     OW 1633   2.486   0.369   0.133 -0.2573 -0.1214  0.0469
  545SOL    HW1 1634   2.580   0.369   0.116 -0.0765  0.1802  0.9565
  545SOL    HW2 1635   2.468   0.458   0.164  0.0028 -1.2074  3.9601
  546SOL     OW 1636   0.022   3.901   2.754 -0.0746 -0.1621 -0.1559
  546SOL    HW1 1637   0.003   3.869   2.842  1.6890  2.5814  1.3533
  546SOL    HW2 1638   0.109   3.868   2.734 -1.1963 -2.4346 -1.8578
  547SOL     OW 1639   0.385   2.138   1.361  0.3901 -0.5630  0.1052
  547SOL    HW1 1640   0.294   2.164   1.343  0.4926 -0.5092 -0.3543
  547SOL    HW2 1641   0.413   2.196   1.432 -0.2277 -1.2041  0.8953
  548SOL     OW 1642   2.739   1.267   3.433  0.1990  0.1976  0.1863
  548SOL    HW1 1643   2.740   1.361   3.451  0.5633  0.4823 -1.1982
  548SOL    HW2 1644   2.658   1.236   3.472  0.0733  1.0775  0.6645
  549SOL     OW 1645   1.792   3.418   2.734  0.0675  0.2054 -0.1588
  549SOL    HW1 1646   1.741   3.477   2.789 -2.0782 -1.1254 -0.5800
  549SOL    HW2 1647   1.883   3.442   2.751 -0.5768  1.2577  2.3403
  550SOL     OW 1648   1.885   1.732   3.683  0.6286 -0.2878  0.0853
  550SOL    HW1 1649   1.823   1.798   3.652  0.7235  0.3986  1.3110
  550SOL    HW2 1650   1.970   1.759   3.649  0.7289  0.4431  0.9019
  551SOL     OW 1651   3.416   0.182   0.468  0.2978  0.8282  0.9518
  551SOL    HW1 1652   3.380   0.271   0.460  0.1144  1.0026  3.1292
  551SOL    HW2 1653   3.339   0.127   0.486 -0.1153 -0.4527 -3.4687
  552SOL     OW 1654   2.839   0.305   1.011 -0.4163 -0.6852  0.5514
  552SOL    HW1 1655   2.924   0.343   0.990 -1.2452  1.1146  0.3423
  552SOL    HW2 1656   2.855   0.255   1.091  0.4459  1.2798  1.6800
  553SOL     OW 1657   1.345   1.247   3.884 -0.0000  0.8787 -1.0618
  553SOL    HW1 1658   1.388   1.302   3.950  1.8788  0.1415 -1.6105
  553SOL    HW2 1659   1.326   1.165   3.931 -2.1912  1.6534 -0.4341
  554SOL     OW 1660   0.118   2.153   3.469  0.6605  0.0671  0.2895
  554SOL    HW1 1661   0.148   2.219   3.532  3.5882 -1.8528  1.0499
  554SOL    HW2 1662   0.101   2.203   3.389  4.1164  1.6782  0.3948
  555SOL     OW 1663   2.442   2.746   2.707 -0.4726 -0.3908 -0.7984
  555SOL    HW1 1664   2.388   2.761   2.785 -0.4083  1.8339 -1.1167
  555SOL    HW2 1665   2.530   2.774   2.733 -0.4487  0.3606 -1.6355
  556SOL     OW 1666   2.394   1.565   1.988  1.1073 -0.3644 -0.2857
  556SOL    HW1 1667   2.315   1.605   2.026  0.3805 -1.7226 -0.3142
  556SOL    HW2 1668   2.412   1.618   1.911 -0.2052 -0.4425 -0.6760
  557SOL     OW 1669   3.210   0.712   1.222  0.1497  0.0772  0.5409
  557SOL    HW1 1670   3.189   0.619   1.229  0.2268  0.1909  3.9690
  557SOL    HW2 1671   3.143   0.747   1.163 -0.2609 -1.9969 -0.3349
  558SOL     OW 1672   1.808   1.395   0.985  0.4086  0.5521 -0.2509
  558SOL    HW1 1673   1.855   1.315   0.963  0.8454  0.4733  0.8787
  558SOL    HW2 1674   1.872   1.465   0.975  0.6088  0.5169  0.6968
  559SOL     OW 1675   2.349   3.870   3.710  0.1585 -0.0576 -0.3914
  559SOL    HW1 1676   2.356   3.776   3.693  3.2752 -0.0663  0.4180
  559SOL    HW2 1677   2.276   3.878   3.772  0.1050 -1.9958 -0.1456
  560SOL     OW 1678   0.707   3.387   2.492  0.3054 -0.0035 -0.4236
  560SOL    HW1 1679   0.763   3.312   2.508  1.5116  0.7776 -0.8334
  560SOL    HW2 1680   0.706   3.397   2.397 -0.0173  0.3793 -0.3850
  561SOL     OW 1681   2.075   3.000   1.651 -0.1897 -0.7827  1.1583
  561SOL    HW1 1682   2.084   3.040   1.737  1.4717 -1.3195  1.2775
  561SOL    HW2 1683   2.084   2.906   1.667 -2.8199 -1.1608  0.7339
  562SOL     OW 1684   3.433   0.482   1.531 -0.5590 -0.7977 -0.1738
  562SOL    HW1 1685   3.402   0.446   1.614  0.2017 -0.2095  0.3734
  562SOL    HW2 1686   3.384   0.563   1.520  0.9781  0.3376  0.8863
  563SOL     OW 1687   2.078   1.535   0.826 -0.0505 -0.2576  0.2013
  563SOL    HW1 1688   2.119   1.621   0.831 -0.0767 -0.0575 -2.1738
  563SOL    HW2 1689   1.985   1.554   0.815  0.0292 -0.5552 -1.0716
  564SOL     OW 1690   3.278   3.877   1.316 -0.6522 -0.0466  0.3019
  564SOL    HW1 1691   3.369   3.904   1.317 -0.5469 -0.3940  0.2466
  564SOL    HW2 1692   3.232   3.942   1.368 -0.7801  1.5978 -1.7382
  565SOL     OW 1693   3.456   2.238   2.494 -0.4275  0.1591 -0.3958
  565SOL    HW1 1694   3.478   2.322   2.534  0.4082 -1.2018  2.2587
  565SOL    HW2 1695   3.520   2.177   2.531 -2.9021 -2.2207  0.2837
  566SOL     OW 1696   2.888   0.674   3.187 -0.1557  0.5979  0.2063
  566SOL    HW1 1697   2.953   0.743   3.179  1.2069 -0.8265 -3.5950
  566SOL    HW2 1698   2.816   0.702   3.129  0.4030 -1.0182 -1.3604
  567SOL     OW 1699   1.332   0.330   0.281  0.4595  0.2491  0.7347
  567SOL    HW1 1700   1.333   0.235   0.288 -0.2198 -0.0957 -2.2809
  567SOL    HW2 1701   1.425   0.354   0.276  0.6184 -0.5030 -0.3727
  568SOL     OW 1702   0.590   3.942   2.444  0.0534 -0.5743 -0.1629
  568SOL    HW1 1703   0.615   3.938   2.536 -2.2500 -5.1077  0.5627
  568SOL    HW2 1704   0.648   3.879   2.400  1.1656  1.5540 -1.9790
  569SOL     OW 1705   2.016   2.337   3.468 -0.9691  0.3749 -0.1882
  569SOL    HW1 1706   2.088   2.275   3.476 -2.0137 -0.6824  2.1386
  569SOL    HW2 1707   2.054   2.421   3.493 -0.0740  0.2661 -1.1069
  570SOL     OW 1708   2.135   3.272   1.571 -0.4959 -0.0777 -0.4692
  570SOL    HW1 1709   2.211   3.264   1.513 -1.5237 -1.3924 -1.7009
  570SOL    HW2 1710   2.141   3.196   1.629 -1.6515 -1.0544 -1.5773
  571SOL     OW 1711   1.999   0.123   2.523 -0.4001 -0.0586 -0.2231
  571SOL    HW1 1712   1.909   0.108   2.551  0.0719 -0.0515  1.3596
  571SOL    HW2 1713   2.053   0.074   2.584  0.7590  1.4156  0.0144
  572SOL     OW 1714   3.809   0.436   1.915 -0.3917  0.0802  0.2905
  572SOL    HW1 1715   3.784   0.517   1.871  0.5188 -0.2952 -0.9806
  572SOL    HW2 1716   3.843   0.464   2.000 -1.3779  0.8995  0.4286
  573SOL     OW 1717   3.625   2.052   3.193  0.6046  0.2887 -0.6572
  573SOL    HW1 1718   3.635   2.045   3.288 -3.5943 -1.3072 -0.0888
  573SOL    HW2 1719   3.708   2.088   3.162  2.2747  0.5999  3.5389
  574SOL     OW 1720   3.736   3.396   1.499 -0.7226 -0.2405  0.3568
  574SOL    HW1 1721   3.740   3.399   1.595 -2.2594 -1.4636  0.4917
  574SOL    HW2 1722   3.763   3.307   1.477 -0.7817 -0.0929 -0.3148
  575SOL     OW 1723   3.332   3.154   0.387  0.5167  0.1207 -0.0505
  575SOL    HW1 1724   3.371   3.137   0.473 -1.9093  1.3032  1.3736
  575SOL    HW2 1725   3.365   3.241   0.363  0.0361  0.4311  0.3984
  576SOL     OW 1726   0.736   1.035   1.192 -0.5181 -0.0768  0.8282
  576SOL    HW1 1727   0.753   1.102   1.126  0.4114  0.8371  1.9543
  576SOL    HW2 1728   0.822   0.999   1.213 -1.0052 -1.6827  0.2182
  577SOL     OW 1729   2.155   1.518   2.204 -0.5937  0.4282 -0.6668
  577SOL    HW1 1730   2.109   1.598   2.177 -0.9900  0.8766  1.2163
  577SOL    HW2 1731   2.206   1.545   2.280  1.2414 -0.5561 -1.4996
  578SOL     OW 1732   1.144   2.208   1.691  0.1585  0.0299  0.4480
  578SOL    HW1 1733   1.233   2.173   1.695  0.2093 -0.0979 -1.2701
  578SOL    HW2 1734   1.152   2.298   1.723  0.7578 -0.2063  0.9834
  579SOL     OW 1735   1.809   1.764   1.758  1.0605  0.0004 -0.3854
  579SOL    HW1 1736   1.750   1.689   1.767  1.9268 -0.7802 -1.0845
  579SOL    HW2 1737   1.830   1.768   1.665 -0.3217  2.1957 -0.6776
  580SOL     OW 1738   2.598   3.979   3.185  0.0725  0.7715  0.3255
  580SOL    HW1 1739   2.584   3.885   3.196 -0.5139  0.9598  1.3934
  580SOL    HW2 1740   2.667   4.000   3.247 -0.1550  1.1290  0.4592
  581SOL     OW 1741   3.377   2.243   3.907 -0.2535  0.2453 -0.4599
  581SOL    HW1 1742   3.322   2.165   3.908 -0.8914  0.6862  0.8971
  581SOL    HW2 1743   3.338   2.298   3.838  0.0878 -0.5235 -1.2939
  582SOL     OW 1744   3.609   0.346   1.749 -0.4568  0.7487  0.4604
  582SOL    HW1 1745   3.699   0.330   1.777 -0.2299 -3.8256 -1.8958
  582SOL    HW2 1746   3.555   0.311   1.820 -0.1393 -1.2176 -0.2057
  583SOL     OW 1747   3.110   1.869   0.285  0.3270  0.3535 -0.3014
  583SOL    HW1 1748   3.128   1.780   0.256 -1.4872 -0.4857  0.9518
  583SOL    HW2 1749   3.174   1.923   0.238  1.3138 -1.5545 -1.2757
  584SOL     OW 1750   1.774   3.892   3.127  0.1695 -0.3166 -0.0610
  584SOL    HW1 1751   1.864   3.924   3.134  1.1442 -2.7370 -0.4096
  584SOL    HW2 1752   1.743   3.926   3.043  1.4020 -0.8326 -0.7558
  585SOL     OW 1753   3.398   2.272   0.690  0.2744  0.1518  0.1661
  585SOL    HW1 1754   3.367   2.204   0.629 -0.6734  1.0069 -0.3322
  585SOL    HW2 1755   3.434   2.340   0.634 -1.1970  1.2445  0.4900
  586SOL     OW 1756   1.633   1.065   1.324 -0.3106 -0.8871 -0.3191
  586SOL    HW1 1757   1.717   1.046   1.366  0.4257  2.4456  0.0173
  586SOL    HW2 1758   1.567   1.043   1.390  0.6306  0.7993  1.2681
  587SOL     OW 1759   2.994   3.662   2.259 -0.0437 -0.6843 -0.8378
  587SOL    HW1 1760   3.058   3.639   2.327 -1.2608  0.8823  0.9586
  587SOL    HW2 1761   2.946   3.736   2.296 -0.4514  0.5958 -3.6695
  588SOL     OW 1762   0.038   0.022   0.022 -0.1495  0.0324 -0.4580
  588SOL    HW1 1763   0.054  -0.047   0.086  3.9777  0.2414 -0.9694
  588SOL    HW2 1764   0.039   0.103   0.073  0.0798  0.0083 -0.4230
  589SOL     OW 1765   1.193   0.304   1.235 -0.7059 -0.1827  0.1429
  589SOL    HW1 1766   1.175   0.231   1.177 -1.9070 -0.5589  0.9723
  589SOL    HW2 1767   1.278   0.338   1.205 -0.1831 -1.8216 -0.3295
  590SOL     OW 1768   0.364   0.838   2.087  0.0207 -0.0404  1.0716
  590SOL    HW1 1769   0.269   0.825   2.088 -0.1009  0.4421 -0.9690
  590SOL    HW2 1770   0.388   0.842   2.180 -2.2927  2.2621  1.6831
  591SOL     OW 1771   0.458   3.528   3.876  0.2830  0.8143 -0.1257
  591SOL    HW1 1772   0.449   3.623   3.885 -2.3907  0.5789  0.4804
  591SOL    HW2 1773   0.473   3.497   3.966  2.5634  0.6910 -0.4737
  592SOL     OW 1774   3.180   3.739   3.240 -0.1296  0.2170  0.2910
  592SOL    HW1 1775   3.254   3.800   3.238 -0.3676  0.5004  0.0135
  592SOL    HW2 1776   3.175   3.712   3.332 -0.9344  1.7701  0.7534
  593SOL     OW 1777   2.066   1.213   0.081  0.3911  0.3331  0.4109
  593SOL    HW1 1778   2.064   1.120   0.104 -1.4623  0.7317  2.2044
  593SOL    HW2 1779   2.020   1.256   0.154 -0.8755  2.3835 -1.4797
  594SOL     OW 1780   2.731   0.285   0.477  0.1612 -0.5581  0.8960
  594SOL    HW1 1781   2.762   0.354   0.419 -0.1780 -1.0511  0.1224
  594SOL    HW2 1782   2.784   0.209   0.455 -1.4995 -1.3956 -0.3978
  595SOL     OW 1783   0.355   3.364   1.047 -0.6016 -0.4014 -0.0008
  595SOL    HW1 1784   0.309   3.281   1.035  1.3662 -1.3802 -1.1621
  595SOL    HW2 1785   0.438   3.353   1.001  0.3276  1.7062  1.0307
  596SOL     OW 1786   3.920   0.779   3.824  0.2889  0.4742 -0.2567
  596SOL    HW1 1787   3.870   0.857   3.848  1.1216 -0.1419  4.6423
  596SOL    HW2 1788   4.010   0.799   3.850  0.7044 -1.6749  0.1613
  597SOL     OW 1789   2.594   1.425   2.544  0.4556 -0.1857  0.1136
  597SOL    HW1 1790   2.606   1.461   2.456  1.4962  0.3691  0.4657
  597SOL    HW2 1791   2.678   1.438   2.587  0.0139 -0.6101  1.1432
  598SOL     OW 1792   1.129   0.994   3.668  0.4475  0.0212  0.4006
  598SOL    HW1 1793   1.078   0.992   3.749  1.0003 -0.2604  0.7457
  598SOL    HW2 1794   1.215   0.960   3.693 -0.2225 -2.9347 -0.8957
  599SOL     OW 1795   0.198   0.213   3.804 -0.4765 -0.8212  0.8016
  599SOL    HW1 1796   0.230   0.239   3.718 -1.9084 -1.6392 -0.0241
  599SOL    HW2 1797   0.109   0.248   3.808 -0.0432  0.2235  2.4590
  600SOL     OW 1798   1.522   2.572   0.130  0.0935  0.8659 -0.5752
  600SOL    HW1 1799   1.459   2.643   0.129 -0.1916  0.6157 -0.5739
  600SOL    HW2 1800   1.593   2.601   0.073  0.6035  1.7122  0.4580
  601SOL     OW 1801   0.166   0.386   2.074 -0.6356  0.3981 -1.6032
  601SOL    HW1 1802   0.201   0.318   2.132 -1.3084  2.5046  1.5265
  601SOL    HW2 1803   0.244   0.431   2.042 -0.2339 -1.0631 -2.8020
  602SOL     OW 1804   3.730   3.677   1.381  0.2065 -0.3099 -0.2163
  602SOL    HW1 1805   3.759   3.585   1.382  1.2362 -0.0021 -0.2330
  602SOL    HW2 1806   3.680   3.685   1.300 -0.2543 -0.9558 -0.0075
  603SOL     OW 1807   2.614   0.544   3.322  0.6739 -0.5539 -0.4931
  603SOL    HW1 1808   2.574   0.473   3.270 -0.8046  0.2278 -0.4792
  603SOL    HW2 1809   2.586   0.624   3.278  0.3306  0.0885  0.8526
  604SOL     OW 1810   1.804   2.616   3.155 -0.8317  0.4178 -0.0064
  604SOL    HW1 1811   1.751   2.676   3.102 -1.3076 -0.6187 -0.7374
  604SOL    HW2 1812   1.893   2.652   3.150 -1.3626  1.9838  0.9457
  605SOL     OW 1813   3.293   1.326   0.294  0.3435 -0.3031 -0.2062
  605SOL    HW1 1814   3.205   1.287   0.299  0.1942  0.1430  1.3972
  605SOL    HW2 1815   3.289   1.384   0.218 -0.7659 -0.2825 -0.1560
  606SOL     OW 1816   2.672   0.924   0.837  0.1555  0.1456  0.0593
  606SOL    HW1 1817   2.685   0.948   0.745  0.1510 -2.0139 -0.5577
  606SOL    HW2 1818   2.742   0.969   0.884  1.2711 -0.1228 -1.2789
  607SOL     OW 1819   2.659   0.415   3.048 -0.4050 -0.5925  0.9823
  607SOL    HW1 1820   2.581   0.397   2.997  0.4046 -1.9591  0.1716
  607SOL    HW2 1821   2.682   0.506   3.026 -1.8046 -0.1214  1.3424
  608SOL     OW 1822   3.428   2.753   2.989 -0.1641 -0.2032 -0.1305
  608SOL    HW1 1823   3.467   2.836   3.014  0.7758 -0.5134 -0.5267
  608SOL    HW2 1824   3.335   2.764   3.008  0.0427  0.6982  0.4397
  609SOL     OW 1825   3.683   0.922   3.161  0.5743 -0.3716  0.6966
  609SOL    HW1 1826   3.778   0.921   3.176  0.4930 -1.3483  1.2925
  609SOL    HW2 1827   3.650   0.850   3.216 -0.7503  1.2272  2.1131
  610SOL     OW 1828   1.564   1.409   3.746  0.9497 -1.0453  1.4247
  610SOL    HW1 1829   1.475   1.392   3.777 -1.1676  1.3734 -2.4538
  610SOL    HW2 1830   1.596   1.479   3.803 -0.4022 -0.6554  1.7463
  611SOL     OW 1831   0.849   0.015   0.009  0.5700 -0.0894 -0.3364
  611SOL    HW1 1832   0.761  -0.015   0.033  0.4838 -0.1329 -0.6996
  611SOL    HW2 1833   0.882   0.059   0.087  1.2296 -2.3114  0.7274
  612SOL     OW 1834   3.424   0.812   1.754  0.3187  0.5846 -0.1311
  612SOL    HW1 1835   3.404   0.809   1.661 -0.4484 -0.9997  0.0419
  612SOL    HW2 1836   3.487   0.741   1.767  1.8061  1.9312  0.2867
  613SOL     OW 1837   3.063   1.099   3.127  0.1353 -0.1966  0.3420
  613SOL    HW1 1838   3.123   1.033   3.162 -1.1894 -0.2989  2.5736
  613SOL    HW2 1839   2.977   1.055   3.125 -0.3571  0.7537 -0.3204
  614SOL     OW 1840   3.128   1.995   3.639 -0.5750  0.2297 -0.0591
  614SOL    HW1 1841   3.105   1.927   3.575 -1.9627 -1.0817  1.7366
  614SOL    HW2 1842   3.208   2.034   3.604 -0.2802 -1.6442 -1.6651
  615SOL     OW 1843   0.058   2.015   0.488  0.3660  0.2378 -0.3292
  615SOL    HW1 1844  -0.005   2.087   0.481  0.3816  0.2186 -0.6875
  615SOL    HW2 1845   0.029   1.952   0.422  0.8933  0.3356 -0.6594
  616SOL     OW 1846   1.396   0.040   0.837 -0.6475  0.3295  0.2728
  616SOL    HW1 1847   1.414  -0.008   0.918  0.9082 -1.1480 -0.8947
  616SOL    HW2 1848   1.482   0.073   0.809 -0.9012 -0.4641 -1.5553
  617SOL     OW 1849   0.249   2.386   3.009 -0.2614 -0.1132  1.0613
  617SOL    HW1 1850   0.297   2.343   2.938 -1.0165  0.1799  0.3554
  617SOL    HW2 1851   0.254   2.479   2.989 -0.4806 -0.0270  1.3957
  618SOL     OW 1852   3.042   0.548   1.741  0.1013 -0.1001  0.1597
  618SOL    HW1 1853   3.018   0.472   1.795 -0.8107 -1.5420 -2.1353
  618SOL    HW2 1854   2.985   0.542   1.665 -0.7373  3.5199  0.3094
  619SOL     OW 1855   3.161   1.515   1.591  0.7121 -0.2548  0.1777
  619SOL    HW1 1856   3.145   1.518   1.685  2.5965  0.9575  0.5083
  619SOL    HW2 1857   3.073   1.518   1.552 -0.0596  1.8752  1.8642
  620SOL     OW 1858   3.809   2.042   0.893 -0.0348 -0.3378 -0.1856
  620SOL    HW1 1859   3.781   2.130   0.917  0.1050 -0.5321  0.7313
  620SOL    HW2 1860   3.883   2.024   0.952  0.7459 -0.5933 -1.2138
  621SOL     OW 1861   2.167   3.312   0.915 -0.0165 -0.2589  0.7752
  621SOL    HW1 1862   2.093   3.352   0.869  1.2684  1.4355  0.0771
  621SOL    HW2 1863   2.135   3.299   1.004 -0.8745  1.3933  0.7586
  622SOL     OW 1864   0.286   1.622   1.331  0.0070  0.3105  0.0483
  622SOL    HW1 1865   0.373   1.583   1.342 -0.7902 -1.5120  0.1240
  622SOL    HW2 1866   0.247   1.573   1.259 -1.4575  0.2149  0.8794
  623SOL     OW 1867   3.090   3.690   0.751  0.5523 -0.2704 -0.3135
  623SOL    HW1 1868   3.088   3.597   0.775 -1.4996 -0.5683 -1.4105
  623SOL    HW2 1869   3.062   3.736   0.830 -1.5863 -0.8791 -0.6602
  624SOL     OW 1870   2.965   1.260   0.069  1.3527  0.0566 -0.1427
  624SOL    HW1 1871   2.932   1.324   0.132  0.0359 -1.2173  0.5194
  624SOL    HW2 1872   2.886   1.218   0.034  2.0685  0.2491 -2.1613
  625SOL     OW 1873   0.591   3.627   0.426  0.1772  0.0773  0.3029
  625SOL    HW1 1874   0.548   3.693   0.372  0.6286 -0.7277 -1.0645
  625SOL    HW2 1875   0.536   3.622   0.505  1.5189  3.9698  1.7492
  626SOL     OW 1876   3.134   2.641   0.230  0.0715 -0.5721  0.5237
  626SOL    HW1 1877   3.055   2.601   0.194 -0.7938  1.5534 -0.0801
  626SOL    HW2 1878   3.197   2.637   0.159 -0.6110  0.7133 -0.2020
  627SOL     OW 1879   3.481   3.640   1.542  0.0839 -0.8194  0.0737
  627SOL    HW1 1880   3.529   3.612   1.620 -0.0007 -1.6447 -0.1715
  627SOL    HW2 1881   3.512   3.730   1.527 -0.3945 -0.3844  1.4520
  628SOL     OW 1882   1.712   0.704   3.031 -0.6920 -1.4308  0.6997
  628SOL    HW1 1883   1.729   0.785   2.981 -0.7715 -2.2783 -0.7645
  628SOL    HW2 1884   1.796   0.685   3.073 -0.4052 -1.0706  0.3117
  629SOL     OW 1885   2.826   3.401   1.867 -0.1531 -0.4864 -0.6372
  629SOL    HW1 1886   2.745   3.351   1.853 -1.7639  1.4672  1.1057
  629SOL    HW2 1887   2.886   3.338   1.907 -0.9999 -1.8151 -1.3633
  630SOL     OW 1888   0.829   2.117   0.642 -0.2634 -0.2491  0.1702
  630SOL    HW1 1889   0.788   2.116   0.555  1.2171 -1.5617 -0.5679
  630SOL    HW2 1890   0.757   2.097   0.702 -0.8824 -1.9457 -1.0188
  631SOL     OW 1891   2.964   3.988   0.961  0.6363  0.5110  0.3110
  631SOL    HW1 1892   2.940   4.043   1.035 -1.3128 -2.7272  2.3548
  631SOL    HW2 1893   3.028   3.926   0.997 -0.0826 -0.9161 -0.7505
  632SOL     OW 1894   2.673   3.058   3.555  0.6025  0.2869 -0.6927
  632SOL    HW1 1895   2.688   3.017   3.641  2.6360  1.4867 -0.4284
  632SOL    HW2 1896   2.664   3.151   3.574 -0.5719  0.3925 -1.6502
  633SOL     OW 1897   3.659   3.211   0.344 -0.2236 -0.0184  0.3718
  633SOL    HW1 1898   3.754   3.222   0.351 -0.3506  0.0918  3.3789
  633SOL    HW2 1899   3.635   3.163   0.424 -2.8730  1.2756  0.4412
  634SOL     OW 1900   3.872   2.174   2.583  0.6356 -0.1317 -1.2710
  634SOL    HW1 1901   3.912   2.179   2.670  1.0209 -3.0249 -1.1791
  634SOL    HW2 1902   3.779   2.190   2.598  0.8191  0.2001 -0.4474
  635SOL     OW 1903   2.508   2.421   2.410  0.1087 -0.3719 -0.6211
  635SOL    HW1 1904   2.532   2.513   2.405 -1.5819  0.1661  0.2610
  635SOL    HW2 1905   2.505   2.402   2.504 -1.6324 -0.7017 -0.7070
  636SOL     OW 1906   2.930   1.226   1.618  0.3500  0.5591 -0.4728
  636SOL    HW1 1907   2.969   1.222   1.530  1.3316  1.0480 -0.0669
  636SOL    HW2 1908   2.971   1.302   1.659  0.8861 -0.4332  0.8826
  637SOL     OW 1909   3.491   1.550   0.249 -0.2444  0.3733  0.3142
  637SOL    HW1 1910   3.503   1.530   0.157  0.6659  0.5510  0.3863
  637SOL    HW2 1911   3.573   1.523   0.291 -0.7031  0.1518  1.0950
  638SOL     OW 1912   1.690   3.892   0.356  0.6736  0.2358  0.5194
  638SOL    HW1 1913   1.783   3.910   0.367  1.3535 -3.1134  1.3322
  638SOL    HW2 1914   1.684   3.842   0.275 -0.4049  0.2813  0.5510
  639SOL     OW 1915   1.632   1.062   3.351  0.3346  0.2166 -0.2759
  639SOL    HW1 1916   1.577   1.052   3.273 -0.3785 -0.7957  0.3326
  639SOL    HW2 1917   1.681   1.142   3.335  0.0068  0.1761 -1.6473
  640SOL     OW 1918   2.569   0.641   0.107  0.3660  0.1071  0.6537
  640SOL    HW1 1919   2.664   0.629   0.107  0.2968 -0.5125  1.3355
  640SOL    HW2 1920   2.547   0.659   0.016  0.9158 -1.6465  0.1331
  641SOL     OW 1921   0.722   0.196   1.032  0.0150 -0.4893 -0.9537
  641SOL    HW1 1922   0.632   0.183   1.003  0.2421  0.4222 -2.1352
  641SOL    HW2 1923   0.748   0.281   0.995  0.6977  0.2510  1.0561
  642SOL     OW 1924   0.378   2.710   0.971 -0.2927 -0.0592  0.5388
  642SOL    HW1 1925   0.366   2.647   0.900 -1.3339 -0.0725  0.7226
  642SOL    HW2 1926   0.469   2.697   0.999 -0.4481 -1.3870  0.4887
  643SOL     OW 1927   0.775   3.536   1.648  0.2010  0.0696  0.8664
  643SOL    HW1 1928   0.789   3.452   1.605 -0.3242 -0.6127  2.0023
  643SOL    HW2 1929   0.695   3.571   1.609 -1.5285 -1.5648  2.7782
  644SOL     OW 1930   1.328   3.550   0.597 -0.3122  0.3743 -0.1060
  644SOL    HW1 1931   1.326   3.473   0.540  0.5162 -0.1733  0.5891
  644SOL    HW2 1932   1.273   3.527   0.671 -1.4108  1.0984 -0.6631
  645SOL     OW 1933   0.855   1.829   1.735 -0.1843 -0.2014  0.7195
  645SOL    HW1 1934   0.793   1.865   1.798  0.6445 -0.4571  1.7100
  645SOL    HW2 1935   0.888   1.905   1.688  1.0526  0.3153  2.3391
  646SOL     OW 1936   0.159   3.520   1.167  0.3002 -0.0503  0.5987
  646SOL    HW1 1937   0.104   3.445   1.146 -0.0592 -0.3301  2.4460
  646SOL    HW2 1938   0.248   3.489   1.149  0.0516 -0.4078 -0.0633
  647SOL     OW 1939   3.348   3.240   2.821  0.0017 -0.0184 -0.9434
  647SOL    HW1 1940   3.286   3.278   2.759 -0.7264  0.6557  0.1467
  647SOL    HW2 1941   3.311   3.262   2.907  1.3199 -0.3512 -0.2715
  648SOL     OW 1942   3.380   3.893   3.508  0.3891  0.9061  0.2855
  648SOL    HW1 1943   3.288   3.918   3.507 -0.7155 -2.7016 -0.9687
  648SOL    HW2 1944   3.384   3.814   3.562  2.5196  0.2760 -0.6722
  649SOL     OW 1945   2.103   2.444   2.601  0.4844  0.5751  1.0537
  649SOL    HW1 1946   2.169   2.445   2.531  0.0710  2.2750  0.6421
  649SOL    HW2 1947   2.038   2.508   2.573 -0.3541  0.3350  2.3905
  650SOL     OW 1948   1.117   0.433   2.033 -0.1514 -0.0211  0.0382
  650SOL    HW1 1949   1.033   0.440   2.079 -0.4552 -0.7162 -0.3877
  650SOL    HW2 1950   1.158   0.518   2.045 -1.0928  0.4606 -0.0793
  651SOL     OW 1951   2.176   0.893   0.915  0.1847  0.1271 -0.2906
  651SOL    HW1 1952   2.266   0.926   0.909  0.0484  1.2016  2.2775
  651SOL    HW2 1953   2.136   0.919   0.832  2.4161 -1.1071 -1.8631
  652SOL     OW 1954   1.256   2.906   0.411 -0.1275 -0.3660 -0.1765
  652SOL    HW1 1955   1.250   2.964   0.487 -0.6071 -1.6037  0.7715
  652SOL    HW2 1956   1.310   2.954   0.348 -1.4323  1.5778  0.1074
  653SOL     OW 1957   1.072   2.181   2.810 -0.0242  0.5670  0.9055
  653SOL    HW1 1958   1.010   2.239   2.854  0.0803  0.9755  0.5307
  653SOL    HW2 1959   1.142   2.168   2.874 -0.5478 -0.0011  1.3761
  654SOL     OW 1960   1.898   0.812   2.201  0.0715 -0.2870  0.9057
  654SOL    HW1 1961   1.877   0.905   2.203  1.3495  0.0858 -0.5260
  654SOL    HW2 1962   1.974   0.803   2.259  0.3008 -0.3060  0.6111
  655SOL     OW 1963   2.817   0.222   2.949 -0.2344  0.2362  0.5619
  655SOL    HW1 1964   2.767   0.182   2.878  0.8936  1.7444 -1.1469
  655SOL    HW2 1965   2.759   0.291   2.983  0.2856  1.3969 -0.8289
  656SOL     OW 1966   2.772   0.892   3.704  0.5132 -0.1314  0.0645
  656SOL    HW1 1967   2.864   0.889   3.730  0.1603  1.2587  1.6598
  656SOL    HW2 1968   2.735   0.810   3.735  0.9825 -0.2181  0.4025
  657SOL     OW 1969   2.411   3.238   1.210 -0.0666  0.4377 -0.1980
  657SOL    HW1 1970   2.373   3.234   1.298 -0.8893 -0.8959 -0.5922
  657SOL    HW2 1971   2.454   3.324   1.206  1.0793  0.0228  1.9395
  658SOL     OW 1972   3.663   2.120   1.512 -0.5131 -0.1441  0.6272
  658SOL    HW1 1973   3.574   2.131   1.479 -0.1350 -0.4361 -0.5309
  658SOL    HW2 1974   3.714   2.093   1.436  0.6940  0.6212  1.1274
  659SOL     OW 1975   1.855   2.273   2.340 -0.3180 -0.4388 -0.0032
  659SOL    HW1 1976   1.790   2.338   2.312 -0.4177 -0.5569 -0.0465
  659SOL    HW2 1977   1.842   2.265   2.435 -1.1442 -1.3118 -0.1831
  660SOL     OW 1978   2.373   2.740   1.496 -0.6503 -0.3682  0.1785
  660SOL    HW1 1979   2.282   2.766   1.510 -0.5446  0.3891 -0.4733
  660SOL    HW2 1980   2.404   2.713   1.582 -2.1386 -2.8469  0.0523
  661SOL     OW 1981   2.265   3.576   0.897  0.2170  0.2735  0.1875
  661SOL    HW1 1982   2.235   3.485   0.897 -1.1325  0.5737 -3.4788
  661SOL    HW2 1983   2.317   3.584   0.817  0.4623  2.6941  0.5244
  662SOL     OW 1984   1.349   0.471   3.022  0.3006  0.1637 -0.1628
  662SOL    HW1 1985   1.359   0.546   2.965  1.0539  0.5324  0.4418
  662SOL    HW2 1986   1.324   0.508   3.107  2.6045 -0.0830  0.6776
  663SOL     OW 1987   1.999   1.163   0.844  0.6682  0.1644  0.5327
  663SOL    HW1 1988   2.074   1.153   0.786  0.2350  1.3292 -0.2738
  663SOL    HW2 1989   1.941   1.225   0.798  0.3930  1.2782  2.2650
  664SOL     OW 1990   3.116   3.395   1.284  0.1896  0.8827 -0.3144
  664SOL    HW1 1991   3.160   3.469   1.326  0.4519 -0.1569  1.3098
  664SOL    HW2 1992   3.094   3.427   1.197  3.2128  1.8130 -0.8460
  665SOL     OW 1993   0.506   1.758   2.657 -0.1597  0.2537 -0.0388
  665SOL    HW1 1994   0.541   1.845   2.677 -1.3744  1.0434 -1.2051
  665SOL    HW2 1995   0.439   1.744   2.724 -2.2503  1.6787 -1.7083
  666SOL     OW 1996   0.102   0.581   0.679 -0.5882 -0.2202 -0.6371
  666SOL    HW1 1997   0.168   0.592   0.747 -1.3593 -0.9663  0.2521
  666SOL    HW2 1998   0.023   0.622   0.715 -1.1001 -0.9395 -0.9251
  667SOL     OW 1999   0.101   2.365   0.872 -0.5007 -0.3624 -0.1177
  667SOL    HW1 2000   0.178   2.420   0.858 -1.4164  1.2010  0.6713
  667SOL    HW2 2001   0.132   2.275   0.857  1.1993  0.3018 -0.8253
  668SOL     OW 2002   0.680   0.771   1.517 -0.2628 -0.2054 -0.3423
  668SOL    HW1 2003   0.770   0.769   1.485 -0.1770 -0.0902 -0.1127
  668SOL    HW2 2004   0.685   0.734   1.605  0.1418  2.8541  1.0503
  669SOL     OW 2005   1.952   3.448   0.819 -0.1217  0.0338 -0.7526
  669SOL    HW1 2006   1.946   3.516   0.752  1.3578 -2.0071 -3.1447
  669SOL    HW2 2007   1.879   3.389   0.799 -0.6620  0.2379  0.5287
  670SOL     OW 2008   3.406   1.050   1.510 -0.8215 -0.3022 -0.2194
  670SOL    HW1 2009   3.451   0.982   1.560  1.3287  2.0132  1.2672
  670SOL    HW2 2010   3.388   1.118   1.575 -0.8629  1.4686 -2.0121
  671SOL     OW 2011   0.035   2.858   2.598 -0.2604  0.1020  0.1189
  671SOL    HW1 2012   0.043   2.880   2.691  1.5609  2.2043 -0.4675
  671SOL    HW2 2013  -0.038   2.912   2.567  0.6982  1.2513 -0.1669
  672SOL     OW 2014   3.594   2.473   0.739  0.5417  0.4598  0.0244
  672SOL    HW1 2015   3.629   2.411   0.803  0.8262 -0.6945 -1.1982
  672SOL    HW2 2016   3.657   2.471   0.667 -1.0470 -0.2575 -1.4167
  673SOL     OW 2017   0.012   1.324   0.633 -0.0254  0.5888 -0.2020
  673SOL    HW1 2018   0.008   1.269   0.712  1.3945 -1.9402 -1.7684
  673SOL    HW2 2019   0.094   1.299   0.590 -1.5858  0.5008 -3.4172
  674SOL     OW 2020   3.939   2.507   2.197  0.0487 -0.0176  0.6315
  674SOL    HW1 2021   4.024   2.473   2.168  1.3543  0.7105  3.2625
  674SOL    HW2 2022   3.961   2.572   2.264 -2.6399 -1.5925  3.2546
  675SOL     OW 2023   0.101   3.561   2.592 -0.4504 -0.6000 -0.4096
  675SOL    HW1 2024   0.073   3.472   2.613  0.9292 -1.5116 -2.2376
  675SOL    HW2 2025   0.020   3.611   2.590 -1.1875 -1.6058  1.3798
  676SOL     OW 2026   0.361   1.369   2.739  0.6770 -0.1769  0.1556
  676SOL    HW1 2027   0.431   1.384   2.676  1.2176 -0.5149  0.6688
  676SOL    HW2 2028   0.304   1.304   2.697  1.9715 -1.7235  0.7067
  677SOL     OW 2029   2.551   0.840   2.606  0.6090 -0.2036 -0.2623
  677SOL    HW1 2030   2.553   0.929   2.572  2.2167 -0.0236  0.2192
  677SOL    HW2 2031   2.634   0.830   2.654 -0.8389 -0.9759  2.2566
  678SOL     OW 2032   0.673   2.153   2.405 -0.1614  0.2132 -0.2962
  678SOL    HW1 2033   0.664   2.247   2.418  2.2008  0.6768 -1.3832
  678SOL    HW2 2034   0.711   2.145   2.317 -1.1148 -1.8198 -0.5706
  679SOL     OW 2035   1.698   3.689   0.910  1.1302 -0.3872  0.0576
  679SOL    HW1 2036   1.759   3.678   0.837  0.7790  1.3871 -0.5595
  679SOL    HW2 2037   1.612   3.680   0.870  0.9314 -2.3260  0.8265
  680SOL     OW 2038   2.370   2.605   0.525  0.5509  0.2730 -0.0230
  680SOL    HW1 2039   2.300   2.625   0.587  1.8780  3.4257  0.6451
  680SOL    HW2 2040   2.343   2.645   0.443  1.1173  0.6942 -0.0141
  681SOL     OW 2041   3.304   1.464   2.655  0.1516 -0.0580  0.1736
  681SOL    HW1 2042   3.223   1.430   2.615  0.6517 -0.5469 -0.4352
  681SOL    HW2 2043   3.306   1.424   2.742 -1.0965  1.2421  0.8626
  682SOL     OW 2044   3.181   3.745   2.817  0.3479  0.4525  0.2320
  682SOL    HW1 2045   3.221   3.829   2.838 -0.1304  0.6343  0.4189
  682SOL    HW2 2046   3.112   3.734   2.882  0.2946 -0.0032  0.1009
  683SOL     OW 2047   1.109  -0.024   2.448 -0.1662  0.5419  0.3296
  683SOL    HW1 2048   1.044  -0.020   2.377  0.3691 -0.3887 -0.2391
  683SOL    HW2 2049   1.136   0.067   2.461  0.0979  0.6801 -1.0250
  684SOL     OW 2050   1.410   1.414   3.198 -0.4743  0.3790  0.2446
  684SOL    HW1 2051   1.435   1.460   3.278  0.6785  1.2926 -0.6155
  684SOL    HW2 2052   1.361   1.479   3.147 -3.2394 -0.8456  1.1106
  685SOL     OW 2053   1.353   0.684   0.282  0.3311 -0.5427 -0.4563
  685SOL    HW1 2054   1.398   0.659   0.201  1.6772 -1.2044  0.4586
  685SOL    HW2 2055   1.276   0.627   0.284 -0.4808  0.4337 -1.9236
  686SOL     OW 2056   1.881   3.412   0.110 -0.0609  0.5127 -0.0986
  686SOL    HW1 2057   1.844   3.338   0.157 -1.5345  0.0922 -1.8025
  686SOL    HW2 2058   1.805   3.458   0.073  0.9576  1.4766 -1.0814
  687SOL     OW 2059   1.798   3.043   3.503  0.4653 -0.3061 -0.0915
  687SOL    HW1 2060   1.707   3.071   3.513  0.0776 -2.2219  3.5923
  687SOL    HW2 2061   1.793   2.948   3.490  1.7934 -0.9650  3.1163
  688SOL     OW 2062   0.848   2.943   2.638  0.6292 -0.0743 -0.1289
  688SOL    HW1 2063   0.761   2.977   2.615  0.4659  1.7322  2.6615
  688SOL    HW2 2064   0.834   2.848   2.649 -0.4107 -0.1727 -1.9099
  689SOL     OW 2065   1.264   0.650   1.401 -0.5596 -0.3285 -0.1994
  689SOL    HW1 2066   1.339   0.640   1.458 -0.3382 -0.5446 -0.5270
  689SOL    HW2 2067   1.297   0.699   1.325 -0.8718  0.0427 -0.1003
  690SOL     OW 2068   0.296   0.370   1.715 -0.5084  0.5534  0.5983
  690SOL    HW1 2069   0.269   0.351   1.626 -0.3952 -1.4149  0.9513
  690SOL    HW2 2070   0.213   0.386   1.762 -0.8344 -1.3162  0.7480
  691SOL     OW 2071   1.888   1.134   2.801 -1.0323  0.5510  0.4110
  691SOL    HW1 2072   1.794   1.149   2.804 -1.4928 -1.3349 -1.6884
  691SOL    HW2 2073   1.906   1.115   2.708  1.9117  3.6617  0.1386
  692SOL     OW 2074   3.077   0.371   2.318  0.0847 -0.1108  0.3654
  692SOL    HW1 2075   3.027   0.448   2.293  0.9155  0.2680 -0.2047
  692SOL    HW2 2076   3.162   0.382   2.274 -0.2023 -1.9581 -0.7800
  693SOL     OW 2077   1.665   3.020   0.062 -0.1206  0.8614 -0.4608
  693SOL    HW1 2078   1.578   3.061   0.060 -0.4292  0.2190 -2.1355
  693SOL    HW2 2079   1.680   2.992  -0.028  1.6970  0.6500 -0.1316
  694SOL     OW 2080   0.278   0.312   2.763  0.3886  0.1762  0.4666
  694SOL    HW1 2081   0.268   0.361   2.845 -0.2283 -0.0721  0.5477
  694SOL    HW2 2082   0.206   0.248   2.765 -0.4689  1.0437 -0.8881
  695SOL     OW 2083   1.858   3.657   0.682 -0.4214 -0.6671  0.1464
  695SOL    HW1 2084   1.903   3.742   0.673 -1.1815 -0.1124  1.3146
  695SOL    HW2 2085   1.809   3.647   0.601 -1.3508  0.6592  0.5077
  696SOL     OW 2086   1.601   3.290   1.319  0.0269  0.3128 -0.5959
  696SOL    HW1 2087   1.510   3.316   1.312 -0.1487 -0.5428 -1.7097
  696SOL    HW2 2088   1.651   3.366   1.290 -0.3862  0.2613 -1.4479
  697SOL     OW 2089   2.777   1.536   3.462 -0.8239  0.3760  0.4044
  697SOL    HW1 2090   2.775   1.574   3.550 -1.6785 -1.8046  1.3783
  697SOL    HW2 2091   2.870   1.526   3.443 -0.6373 -0.0635  1.4947
  698SOL     OW 2092   1.346   0.007   1.349 -0.0828 -0.4832 -0.2390
  698SOL    HW1 2093   1.326   0.067   1.421  2.3876 -2.8134  2.6120
  698SOL    HW2 2094   1.397   0.060   1.288 -3.3881  1.9329 -1.2498
  699SOL     OW 2095   0.161   0.649   1.802 -0.0976  0.7064  0.8517
  699SOL    HW1 2096   0.157   0.739   1.834  0.4498  0.6449  1.1177
  699SOL    HW2 2097   0.252   0.622   1.819  0.9457  1.4133 -2.7564
  700SOL     OW 2098   3.522   2.863   0.730  0.1087  0.4859  0.9434
  700SOL    HW1 2099   3.490   2.773   0.728  0.7459  0.2473 -0.6259
  700SOL    HW2 2100   3.474   2.904   0.801 -0.9807 -0.8117  1.0122
  701SOL     OW 2101   0.785   1.284   3.771 -0.1016 -0.0971 -0.0190
  701SOL    HW1 2102   0.740   1.206   3.801 -0.4938  1.1005  2.8939
  701SOL    HW2 2103   0.876   1.271   3.796 -0.0535  0.1306 -0.0663
  702SOL     OW 2104   1.070   1.937   3.877  0.0771 -0.0043  0.0980
  702SOL    HW1 2105   1.101   1.980   3.957  1.0504  1.1680 -0.8563
  702SOL    HW2 2106   0.991   1.986   3.854  0.6736  0.7156 -0.4864
  703SOL     OW 2107  -0.019   2.282   1.582  0.4969 -0.2382 -0.1003
  703SOL    HW1 2108   0.046   2.298   1.650  2.2862  0.2447 -1.8537
  703SOL    HW2 2109   0.021   2.219   1.523 -1.3282 -1.2425 -0.3533
  704SOL     OW 2110   0.622   0.286   2.161  0.0531 -0.0192  0.0181
  704SOL    HW1 2111   0.650   0.346   2.092  0.6596  0.1519  0.4012
  704SOL    HW2 2112   0.546   0.241   2.125 -0.1570  0.6854 -0.4320
  705SOL     OW 2113   1.894   2.396   0.219 -0.1986  0.0449 -0.3511
  705SOL    HW1 2114   1.818   2.419   0.272 -0.8226 -0.7384 -0.8727
  705SOL    HW2 2115   1.909   2.472   0.163 -1.6570 -0.3981 -1.4146
  706SOL     OW 2116   2.208   3.014   2.818 -0.7585 -0.2851  0.3523
  706SOL    HW1 2117   2.277   3.048   2.760 -0.2143 -3.5182 -1.0839
  706SOL    HW2 2118   2.254   2.954   2.877 -2.1686 -1.7177  0.0526
  707SOL     OW 2119   1.810   3.972   2.268 -0.2756  0.0940  0.9538
  707SOL    HW1 2120   1.771   3.889   2.296 -0.3809 -0.0030  0.5392
  707SOL    HW2 2121   1.766   4.039   2.322  0.5761 -0.2038  2.0421
  708SOL     OW 2122   1.204   3.243   1.409 -0.8620  0.1664 -0.5234
  708SOL    HW1 2123   1.189   3.336   1.426 -1.3669 -0.0632  0.3588
  708SOL    HW2 2124   1.189   3.233   1.315  3.4439  1.7930 -1.6321
  709SOL     OW 2125   2.597   1.665   1.605 -0.1421 -0.6400  0.4065
  709SOL    HW1 2126   2.680   1.627   1.575 -0.7422 -0.9557 -0.9370
  709SOL    HW2 2127   2.550   1.685   1.524 -0.1408  2.4083  1.0589
  710SOL     OW 2128   0.262   1.751   1.694 -0.4769 -0.1292  0.1752
  710SOL    HW1 2129   0.284   1.672   1.744  0.5208 -0.8026 -1.2693
  710SOL    HW2 2130   0.208   1.720   1.622 -0.2210  0.5157 -0.3074
  711SOL     OW 2131   1.838   0.204   3.563  0.0861 -0.3362 -0.0469
  711SOL    HW1 2132   1.918   0.165   3.597  0.8493  1.0451 -0.1617
  711SOL    HW2 2133   1.803   0.254   3.636  0.3083  0.4963 -0.4910
  712SOL     OW 2134   3.171   2.239   1.840  0.1600 -0.0349 -0.0922
  712SOL    HW1 2135   3.095   2.237   1.782 -2.1444  0.7412  2.6667
  712SOL    HW2 2136   3.185   2.331   1.858  2.6409 -0.0651 -1.4783
  713SOL     OW 2137   2.319   3.875   3.400  0.8343 -0.3937  0.2764
  713SOL    HW1 2138   2.296   3.885   3.492  2.6741 -1.0642  0.8487
  713SOL    HW2 2139   2.373   3.951   3.381 -0.1601  0.1484 -0.5001
  714SOL     OW 2140   1.057   1.646   0.899  0.4041  0.6219 -0.2492
  714SOL    HW1 2141   1.105   1.608   0.825  2.7125  0.8979  0.9979
  714SOL    HW2 2142   0.985   1.585   0.915  1.0597 -0.5208 -1.4328
  715SOL     OW 2143   0.798   3.022   1.057 -0.1975 -0.4312  0.0027
  715SOL    HW1 2144   0.829   3.082   1.125 -1.3456  1.6834 -1.2483
  715SOL    HW2 2145   0.851   3.044   0.980  0.4117 -2.1205 -0.1070
  716SOL     OW 2146   1.294   0.035   0.305 -0.4016 -0.4162 -0.2122
  716SOL    HW1 2147   1.293  -0.031   0.236  1.3822 -1.2564  0.5060
  716SOL    HW2 2148   1.211   0.022   0.352  0.4543 -3.0824  0.7248
  717SOL     OW 2149   3.060   0.046   1.432  0.1957 -0.2057 -0.4052
  717SOL    HW1 2150   3.029   0.125   1.477 -0.2926 -0.5373 -0.1545
  717SOL    HW2 2151   2.987  -0.015   1.437  0.3842 -0.4911 -1.0584
  718SOL     OW 2152   1.355   3.052   2.712 -0.7663 -0.6568 -0.0488
  718SOL    HW1 2153   1.345   2.958   2.720  1.9131 -1.0743 -0.6255
  718SOL    HW2 2154   1.444   3.070   2.742 -0.9082  1.5738 -0.7378
  719SOL     OW 2155   3.657   3.362   1.960 -0.0010 -0.1962  0.4142
  719SOL    HW1 2156   3.749   3.378   1.979 -0.5064  2.3342  1.0275
  719SOL    HW2 2157   3.624   3.317   2.038 -0.4016  3.6331  2.6721
  720SOL     OW 2158   2.829   3.254   1.142  0.0995  0.3173 -0.0945
  720SOL    HW1 2159   2.889   3.206   1.198 -0.6639 -0.4776  0.0690
  720SOL    HW2 2160   2.821   3.340   1.183  2.4970  1.1097 -1.1014
  721SOL     OW 2161   2.266   1.378   3.853  0.1378 -0.1498 -0.1022
  721SOL    HW1 2162   2.273   1.341   3.941  1.1063  0.2940  0.0176
  721SOL    HW2 2163   2.261   1.301   3.796 -1.9492 -0.4600  0.4010
  722SOL     OW 2164   3.089   3.260   1.922  0.1064 -0.1611  0.0813
  722SOL    HW1 2165   3.181   3.287   1.922 -0.0957  0.5696 -0.4780
  722SOL    HW2 2166   3.067   3.251   1.829  0.5457 -3.7049  0.1695
  723SOL     OW 2167   2.677   0.638   3.790  0.0436  0.6436 -0.2042
  723SOL    HW1 2168   2.709   0.581   3.860  1.2109  1.2895 -0.1788
  723SOL    HW2 2169   2.612   0.585   3.743 -0.0406 -0.1372  0.7682
  724SOL     OW 2170   0.366   0.113   1.443 -0.3429  0.3974 -0.2483
  724SOL    HW1 2171   0.396   0.033   1.486 -2.6577  0.4921  1.7642
  724SOL    HW2 2172   0.436   0.177   1.459  1.5814 -1.1422 -1.9553
  725SOL     OW 2173   3.902   1.171   0.870 -0.6800 -0.0968  0.0059
  725SOL    HW1 2174   3.928   1.136   0.956  1.1012  0.8353 -0.1104
  725SOL    HW2 2175   3.806   1.161   0.869 -0.7459 -0.2425  2.0474
  726SOL     OW 2176   3.945   0.043   3.648 -0.2027 -0.4724 -0.3349
  726SOL    HW1 2177   3.963   0.137   3.638 -0.0108 -0.4223  0.4053
  726SOL    HW2 2178   3.926   0.013   3.559  0.7015  0.0698 -0.7293
  727SOL     OW 2179   2.571   1.326   1.812 -0.0002 -0.1185  0.0592
  727SOL    HW1 2180   2.573   1.337   1.907 -1.6428 -2.1344  0.3778
  727SOL    HW2 2181   2.622   1.247   1.796  2.2215  1.4290 -1.0392
  728SOL     OW 2182   0.398   0.197   0.332 -0.0768 -0.0686 -0.1895
  728SOL    HW1 2183   0.375   0.264   0.396  1.8481 -0.0010  0.4815
  728SOL    HW2 2184   0.412   0.245   0.251  0.3806  0.2327  0.0643
  729SOL     OW 2185   0.979   1.980   3.251 -0.4529 -0.4394  0.0429
  729SOL    HW1 2186   0.891   2.017   3.242  0.0602  0.2650 -4.6030
  729SOL    HW2 2187   1.026   2.043   3.305 -1.6069  1.7800 -1.3800
  730SOL     OW 2188   0.309   3.471   3.129 -0.4829  0.7821 -0.1362
  730SOL    HW1 2189   0.286   3.543   3.188 -1.1391  1.9698 -1.7924
  730SOL    HW2 2190   0.379   3.507   3.074 -1.9592  0.7962 -2.1099
  731SOL     OW 2191   1.772   2.097   0.145 -0.6707 -0.2215 -0.3670
  731SOL    HW1 2192   1.698   2.050   0.183  0.8699 -2.4127  0.1556
  731SOL    HW2 2193   1.800   2.158   0.213 -0.3030 -1.3862  0.5525
  732SOL     OW 2194   0.665   3.800   3.781  0.3599 -0.2553 -0.5374
  732SOL    HW1 2195   0.748   3.847   3.776  1.1493 -1.5881 -0.5187
  732SOL    HW2 2196   0.682   3.728   3.842 -0.3478 -1.4155 -1.6626
  733SOL     OW 2197   2.020   1.496   4.022  0.1498  0.3187  0.3521
  733SOL    HW1 2198   1.992   1.515   3.932  1.4640  0.3992 -0.0572
  733SOL    HW2 2199   2.057   1.408   4.017  0.0549  0.2501  0.8571
  734SOL     OW 2200   0.787   0.500   1.473 -0.4558  0.0822  0.6897
  734SOL    HW1 2201   0.734   0.539   1.542 -0.8960 -0.6010  0.7428
  734SOL    HW2 2202   0.800   0.409   1.500 -0.1370 -0.0383  0.1595
  735SOL     OW 2203   3.288   0.664   3.421 -0.1879 -0.1110 -0.1589
  735SOL    HW1 2204   3.302   0.663   3.515  0.1467  1.1078 -0.1898
  735SOL    HW2 2205   3.196   0.639   3.410 -0.0895 -0.7645  0.4468
  736SOL     OW 2206   2.973   2.389   2.718  0.5203  0.8171 -0.0974
  736SOL    HW1 2207   3.040   2.411   2.783 -0.3882 -0.6686  1.4423
  736SOL    HW2 2208   3.011   2.317   2.667  0.7662  1.1517 -0.3844
  737SOL     OW 2209   0.407   2.154   3.214 -0.2005 -0.1443 -0.5389
  737SOL    HW1 2210   0.434   2.070   3.253  2.0079 -0.9998 -3.5778
  737SOL    HW2 2211   0.325   2.175   3.259 -0.2502 -3.3182  1.1887
  738SOL     OW 2212   2.938   2.916   3.509 -0.0753 -0.0730  0.1543
  738SOL    HW1 2213   2.844   2.912   3.491  0.2221 -0.9082 -1.3189
  738SOL    HW2 2214   2.948   2.995   3.562 -1.3667  1.0582 -1.2009
  739SOL     OW 2215   0.143   2.982   3.553  0.9578 -0.1778  0.1063
  739SOL    HW1 2216   0.154   2.960   3.646 -2.8663  0.3881  0.8532
  739SOL    HW2 2217   0.154   3.077   3.550 -0.5630  0.0444  0.3959
  740SOL     OW 2218   3.477   3.783   0.102 -0.1189  0.5095 -0.4603
  740SOL    HW1 2219   3.492   3.762   0.194  1.1931 -1.1812 -1.0018
  740SOL    HW2 2220   3.385   3.763   0.087 -0.3476  0.8149  0.4825
  741SOL     OW 2221   1.012   2.536   2.180  0.0259  0.0330 -0.1027
  741SOL    HW1 2222   1.056   2.619   2.196  1.8103 -0.9301  0.1387
  741SOL    HW2 2223   1.069   2.489   2.120 -1.3346 -0.7379 -0.8518
  742SOL     OW 2224   2.343   3.867   0.729  0.2832 -0.0968 -0.1021
  742SOL    HW1 2225   2.376   3.779   0.711 -0.7220 -0.4629 -0.2270
  742SOL    HW2 2226   2.364   3.917   0.650 -0.7169 -0.7032 -0.7765
  743SOL     OW 2227   2.250   2.777   3.883 -0.1071  0.5372  0.3811
  743SOL    HW1 2228   2.268   2.862   3.924  1.0916  0.2626  0.4756
  743SOL    HW2 2229   2.214   2.800   3.797 -3.0510  1.1121  1.6419
  744SOL     OW 2230   1.097   2.206   0.644  0.4868  0.3912 -0.1401
  744SOL    HW1 2231   1.117   2.272   0.710  0.5376  0.2309  0.0076
  744SOL    HW2 2232   1.007   2.179   0.664  0.7465 -0.1764  0.3215
  745SOL     OW 2233   3.499   3.096   0.581  0.4991 -0.1655 -0.0367
  745SOL    HW1 2234   3.448   3.132   0.653 -0.5115  1.5634 -1.4969
  745SOL    HW2 2235   3.531   3.012   0.613  0.3036  0.6304  2.4703
  746SOL     OW 2236   0.641   2.479   2.402 -0.5115  0.5030 -0.1085
  746SOL    HW1 2237   0.603   2.566   2.412  1.1751  1.1432  1.3609
  746SOL    HW2 2238   0.730   2.495   2.369 -0.5615 -0.7518 -0.9443
  747SOL     OW 2239   1.959   2.194   2.585 -0.0292 -0.1572 -0.5649
  747SOL    HW1 2240   1.913   2.186   2.668 -0.4969 -0.4040 -0.8443
  747SOL    HW2 2241   2.029   2.257   2.603 -0.2634 -0.0354 -0.0443
  748SOL     OW 2242   3.632   0.068   3.735 -0.9066  0.1971 -0.0949
  748SOL    HW1 2243   3.666  -0.020   3.755  1.3319  0.7001 -1.3693
  748SOL    HW2 2244   3.662   0.122   3.808 -0.4527  0.3041 -0.3585
  749SOL     OW 2245   3.875   1.256   3.435  0.7642  0.2121  0.4463
  749SOL    HW1 2246   3.894   1.168   3.467  0.8722  0.1140  0.1117
  749SOL    HW2 2247   3.880   1.311   3.513 -0.2369 -0.2118  0.8154
  750SOL     OW 2248   1.158   2.650   0.495  0.3146  0.2480  0.3676
  750SOL    HW1 2249   1.082   2.666   0.549  1.9379 -0.1565  2.9572
  750SOL    HW2 2250   1.192   2.737   0.473  0.7882  0.4658  1.8350
  751SOL     OW 2251   1.064   3.282   3.818  0.2509 -0.5037 -0.5824
  751SOL    HW1 2252   1.068   3.196   3.860  1.5836 -0.9876 -1.6212
  751SOL    HW2 2253   1.113   3.271   3.737 -0.6194  0.9158 -1.3454
  752SOL     OW 2254   2.558   0.131   0.642 -0.1687 -0.0026  0.0174
  752SOL    HW1 2255   2.589   0.214   0.605 -2.0136 -0.0958 -1.9662
  752SOL    HW2 2256   2.519   0.155   0.726  0.9258  0.8281  0.3050
  753SOL     OW 2257   3.069   2.338   3.512 -0.1330 -0.0614 -0.4758
  753SOL    HW1 2258   2.978   2.367   3.505 -0.6245 -1.0944  1.1078
  753SOL    HW2 2259   3.076   2.268   3.446 -0.1190  0.7804 -1.4032
  754SOL     OW 2260   3.278   2.568   2.595 -0.0802  0.4293 -0.0588
  754SOL    HW1 2261   3.298   2.510   2.521  3.5510  0.8213  0.4298
  754SOL    HW2 2262   3.220   2.635   2.558 -0.9811 -1.1487 -1.6698
  755SOL     OW 2263   0.069   1.025   1.875 -0.1259 -0.3526 -0.4104
  755SOL    HW1 2264   0.012   1.098   1.899 -1.0105 -1.2664  0.3558
  755SOL    HW2 2265   0.126   1.061   1.807  0.3386  1.4232  0.8326
  756SOL     OW 2266   3.145   0.010   3.553 -0.6170 -0.3413 -0.6304
  756SOL    HW1 2267   3.124   0.053   3.471 -2.5594 -0.6712 -0.3574
  756SOL    HW2 2268   3.104   0.065   3.620 -1.7410 -1.6985 -0.1573
  757SOL     OW 2269   1.409   2.810   2.322 -0.4276  0.8584  0.0415
  757SOL    HW1 2270   1.495   2.823   2.282  0.2168  0.5955  1.3066
  757SOL    HW2 2271   1.389   2.893   2.365 -0.3197  0.5838  0.6330
  758SOL     OW 2272   2.396   1.841   0.101 -0.1430  0.3440  0.1347
  758SOL    HW1 2273   2.314   1.810   0.138 -0.2935 -0.2764 -0.6736
  758SOL    HW2 2274   2.432   1.764   0.055  0.9009  0.5939  0.5025
  759SOL     OW 2275   0.158   1.275   1.667  0.0254  0.1696  0.4428
  759SOL    HW1 2276   0.097   1.242   1.601 -0.2395 -0.3474  0.9365
  759SOL    HW2 2277   0.112   1.347   1.709  0.8568  1.6435 -1.0804
  760SOL     OW 2278   2.472   0.492   1.558 -0.4640  0.4645 -0.0874
  760SOL    HW1 2279   2.459   0.405   1.520 -0.7104 -0.0183  1.0340
  760SOL    HW2 2280   2.514   0.474   1.642  1.9877  1.6208 -0.9973
  761SOL     OW 2281   3.910   2.281   1.075  0.4898 -0.1984  0.1840
  761SOL    HW1 2282   3.984   2.285   1.015 -0.5519  0.9313 -1.0690
  761SOL    HW2 2283   3.933   2.342   1.145  0.1867  1.2156 -0.8992
  762SOL     OW 2284   2.184   0.150   3.528  0.0646 -0.2147 -0.7794
  762SOL    HW1 2285   2.142   0.127   3.444 -1.7001  0.1029 -0.0336
  762SOL    HW2 2286   2.156   0.240   3.544  1.0348 -0.0056 -0.2033
  763SOL     OW 2287   3.352   2.578   2.291 -0.5755 -0.3570 -0.8504
  763SOL    HW1 2288   3.332   2.671   2.298 -0.2774 -0.3442 -0.0698
  763SOL    HW2 2289   3.269   2.536   2.268 -0.1954  0.3863 -4.0438
  764SOL     OW 2290   2.879   0.545   1.538 -0.3693 -0.0024  0.7740
  764SOL    HW1 2291   2.787   0.556   1.516 -0.1249  1.0186  0.2043
  764SOL    HW2 2292   2.926   0.595   1.471  0.5496  0.4442  1.7290
  765SOL     OW 2293   0.934   0.621   3.502  0.3753 -1.0896  0.5279
  765SOL    HW1 2294   1.004   0.558   3.518 -0.5047 -2.1090  0.4557
  765SOL    HW2 2295   0.931   0.629   3.406  0.2554 -1.2022  0.5225
  766SOL     OW 2296   3.296   1.257   1.212 -0.0163 -0.6240 -0.0992
  766SOL    HW1 2297   3.267   1.262   1.304  1.1337 -1.7564  0.3577
  766SOL    HW2 2298   3.383   1.217   1.217 -0.4924 -1.9443 -1.7842
  767SOL     OW 2299   0.513   2.608   3.945 -0.0682 -0.0478 -0.5412
  767SOL    HW1 2300   0.518   2.613   4.041  0.7301 -0.6887 -0.5332
  767SOL    HW2 2301   0.605   2.611   3.916 -0.3577  1.6918 -1.3912
  768SOL     OW 2302   3.226   3.299   3.034 -0.0076  0.4471 -0.1608
  768SOL    HW1 2303   3.244   3.266   3.122  1.0030 -0.4832 -0.6947
  768SOL    HW2 2304   3.166   3.372   3.048 -1.5330 -0.9629  1.1524
  769SOL     OW 2305   0.376   1.653   2.093 -0.6807 -0.3569 -0.0743
  769SOL    HW1 2306   0.448   1.707   2.125 -1.7324  0.5785  0.8410
  769SOL    HW2 2307   0.406   1.563   2.104  1.1636 -0.0085 -1.7535
  770SOL     OW 2308   1.612   1.969   3.341 -0.0607 -0.5163  0.4028
  770SOL    HW1 2309   1.623   2.062   3.321  0.9586 -0.9560 -1.2451
  770SOL    HW2 2310   1.624   1.964   3.436  1.1462  0.8608  0.3616
  771SOL     OW 2311   0.361   1.898   2.864  0.1650 -0.7304 -0.0011
  771SOL    HW1 2312   0.363   1.992   2.847 -1.7260 -0.5080  0.8248
  771SOL    HW2 2313   0.326   1.889   2.953  0.7291 -2.2046  0.1125
  772SOL     OW 2314   3.595   2.008   2.877 -0.1800 -0.1732  0.3010
  772SOL    HW1 2315   3.603   1.932   2.820  1.6293 -0.1812  0.5060
  772SOL    HW2 2316   3.680   2.016   2.919 -0.3741  1.8680  0.4245
  773SOL     OW 2317   3.016   2.164   0.919 -0.0562 -0.0389 -0.7412
  773SOL    HW1 2318   3.093   2.220   0.917 -0.6005  0.7673  0.0316
  773SOL    HW2 2319   3.009   2.129   0.830  0.3264  1.0783 -1.2233
  774SOL     OW 2320   2.955   3.472   2.692  0.1795  0.1774  0.3636
  774SOL    HW1 2321   2.927   3.547   2.640 -0.4819  1.6238  2.6743
  774SOL    HW2 2322   2.878   3.415   2.697  0.4528 -0.3222 -0.7446
  775SOL     OW 2323   0.771   3.539   0.185  0.7251 -0.2083 -0.0964
  775SOL    HW1 2324   0.713   3.586   0.245  1.0436  0.6475 -0.4454
  775SOL    HW2 2325   0.712   3.485   0.132  0.4648 -1.2317  1.1851
  776SOL     OW 2326   2.906   2.835   0.261  0.4716  0.1662 -0.5041
  776SOL    HW1 2327   2.979   2.806   0.206  1.2907 -0.5233  0.8860
  776SOL    HW2 2328   2.907   2.775   0.335 -0.4810  1.1765  0.3526
  777SOL     OW 2329   3.247   0.174   1.225 -0.3421  0.0457 -0.1891
  777SOL    HW1 2330   3.324   0.144   1.273  0.6403  0.2095 -1.6027
  777SOL    HW2 2331   3.176   0.117   1.255  0.7570 -1.4511 -0.2993
  778SOL     OW 2332   2.655   0.981   2.214 -0.1463  0.2411  0.0099
  778SOL    HW1 2333   2.610   0.909   2.171  0.2744  0.0850 -0.1738
  778SOL    HW2 2334   2.722   1.009   2.152 -0.8870  1.3909 -0.2957
  779SOL     OW 2335   2.714   3.396   3.384 -0.4789  0.3022 -0.3632
  779SOL    HW1 2336   2.782   3.362   3.325 -1.5120 -2.6552 -0.0273
  779SOL    HW2 2337   2.743   3.485   3.405  0.8777  0.8610 -3.8568
  780SOL     OW 2338   2.599   3.025   1.206 -0.3606  0.0635  0.4308
  780SOL    HW1 2339   2.617   3.006   1.298 -1.1476  0.4173  0.6730
  780SOL    HW2 2340   2.526   3.087   1.209 -1.7461 -1.4584 -0.4666
  781SOL     OW 2341   2.178   3.602   2.188 -0.3015  0.1719  0.3387
  781SOL    HW1 2342   2.135   3.640   2.112  1.1054  0.5980 -0.2724
  781SOL    HW2 2343   2.247   3.664   2.211 -0.5085 -0.0880  1.8001
  782SOL     OW 2344   0.159   2.962   3.820 -0.1451  0.3303 -0.3015
  782SOL    HW1 2345   0.091   2.948   3.886 -0.8991  2.1637 -0.6224
  782SOL    HW2 2346   0.191   2.874   3.800 -1.6306 -0.4911  0.6867
  783SOL     OW 2347   1.943   3.900   0.250  1.1575  0.2788  0.1763
  783SOL    HW1 2348   2.031   3.933   0.263  1.2148 -0.0506  0.6269
  783SOL    HW2 2349   1.948   3.808   0.274  0.1959  0.7410  2.3629
  784SOL     OW 2350   3.873   0.983   2.264  0.8105 -0.3531 -0.4528
  784SOL    HW1 2351   3.956   1.010   2.224  0.0412  0.8361 -1.3089
  784SOL    HW2 2352   3.843   0.911   2.208  1.6089 -1.2953  0.3024
  785SOL     OW 2353   3.140   1.475   1.166 -0.3651 -0.0567 -0.4398
  785SOL    HW1 2354   3.197   1.399   1.163 -0.6646 -0.2808 -0.4986
  785SOL    HW2 2355   3.187   1.539   1.220  2.3113  1.7089 -4.3981
  786SOL     OW 2356   1.967   1.081   0.487  0.1608 -0.0495 -0.4463
  786SOL    HW1 2357   1.938   1.151   0.547  0.2436 -0.6964  0.3747
  786SOL    HW2 2358   1.994   1.127   0.408  0.7289  0.9056  0.2748
  787SOL     OW 2359   1.361   3.027   2.447 -0.2807  0.2549 -0.1383
  787SOL    HW1 2360   1.402   3.111   2.426 -0.0305 -0.1520 -1.3907
  787SOL    HW2 2361   1.338   3.033   2.539  2.3772  0.5970  0.5910
  788SOL     OW 2362   0.091   0.812   2.107 -0.4181  0.2496 -0.5216
  788SOL    HW1 2363   0.076   0.864   2.028 -0.7764  0.6412 -0.2010
  788SOL    HW2 2364   0.018   0.750   2.109 -2.5692  2.6060  1.4074
  789SOL     OW 2365   0.817   1.087   0.519 -0.0295 -0.2976 -0.5746
  789SOL    HW1 2366   0.878   1.074   0.592 -1.6863 -0.1754  0.9063
  789SOL    HW2 2367   0.768   1.005   0.514 -3.5269  1.3182  2.0725
  790SOL     OW 2368   0.584   0.923   1.970  0.2979 -0.2891  0.3344
  790SOL    HW1 2369   0.500   0.884   1.995  0.4426 -1.2148 -0.5571
  790SOL    HW2 2370   0.570   0.956   1.881  0.1082  1.9988  1.1491
  791SOL     OW 2371   0.826   3.492   0.562  0.4231 -0.3069 -0.0707
  791SOL    HW1 2372   0.896   3.522   0.505  2.1557 -1.3383  1.3768
  791SOL    HW2 2373   0.752   3.551   0.545  2.0727  1.6560 -0.7247
  792SOL     OW 2374   2.442   1.609   3.940  0.1660  0.1757 -0.3440
  792SOL    HW1 2375   2.526   1.563   3.949  0.5526  0.8044 -0.6486
  792SOL    HW2 2376   2.378   1.539   3.925  0.6712 -0.2961 -0.3479
  793SOL     OW 2377   1.495   0.315   2.247 -0.6668  0.0622  0.0706
  793SOL    HW1 2378   1.577   0.335   2.203  0.6449 -1.2792  1.7622
  793SOL    HW2 2379   1.467   0.398   2.285 -1.8114  1.2424 -3.0803
  794SOL     OW 2380   3.166   3.109   0.719 -0.5905  0.2032 -0.4222
  794SOL    HW1 2381   3.104   3.078   0.784 -3.0730 -1.1345 -3.1595
  794SOL    HW2 2382   3.160   3.204   0.722 -1.7040  0.1133  0.3429
  795SOL     OW 2383   0.558   3.290   3.983  0.2924  0.4114 -0.2408
  795SOL    HW1 2384   0.647   3.262   3.964  0.8267  2.1022 -0.4433
  795SOL    HW2 2385   0.502   3.226   3.940  1.3956 -0.9558  0.3000
  796SOL     OW 2386   2.669   1.992  -0.003  0.5083  0.0481 -0.0249
  796SOL    HW1 2387   2.608   1.981   0.070 -2.1570  2.1641 -1.7349
  796SOL    HW2 2388   2.656   1.915  -0.057  0.5131 -0.2264  0.3575
  797SOL     OW 2389   2.818   0.080   3.838  0.1538  0.9703  0.2014
  797SOL    HW1 2390   2.753   0.010   3.839 -1.1542  2.1444  1.3877
  797SOL    HW2 2391   2.801   0.129   3.919  0.3551  3.2727 -1.0919
  798SOL     OW 2392   3.619   2.549   3.958  0.3470  0.2805  0.4662
  798SOL    HW1 2393   3.672   2.520   4.032 -0.4924  0.1136  1.0104
  798SOL    HW2 2394   3.683   2.574   3.891  1.1416  1.5404  1.6548
  799SOL     OW 2395   1.035   1.072   0.661  0.4172 -0.1880  0.5058
  799SOL    HW1 2396   1.108   1.055   0.601 -0.2714  0.5047 -0.5772
  799SOL    HW2 2397   1.075   1.081   0.747  1.7381  1.0756 -0.2036
  800SOL     OW 2398   3.060   2.954   1.835 -0.2871 -1.2331 -0.1238
  800SOL    HW1 2399   3.154   2.960   1.850 -0.5047 -2.3496  2.1791
  800SOL    HW2 2400   3.035   3.040   1.801  1.0493  0.3659  2.6231
  801SOL     OW 2401   2.625   3.292   1.564 -0.4349  0.1083 -0.1182
  801SOL    HW1 2402   2.711   3.278   1.523  1.0114 -0.4264  2.8190
  801SOL    HW2 2403   2.635   3.257   1.652 -3.5226  0.6487  0.5432
  802SOL     OW 2404   2.342   0.595   3.557 -0.5957  0.1874 -0.1385
  802SOL    HW1 2405   2.420   0.575   3.505 -0.1929  0.5299  0.3131
  802SOL    HW2 2406   2.344   0.690   3.567 -1.0476  0.1933 -0.0818
  803SOL     OW 2407   0.725   0.253   1.662 -0.2163 -0.4133 -0.3317
  803SOL    HW1 2408   0.710   0.227   1.753 -1.8301 -1.6014 -0.9062
  803SOL    HW2 2409   0.788   0.189   1.628  1.4959  0.8605  0.2974
  804SOL     OW 2410   2.841   1.733   3.625  0.5680 -0.0725  0.9839
  804SOL    HW1 2411   2.825   1.754   3.717  0.9462  1.4786  0.7238
  804SOL    HW2 2412   2.923   1.779   3.604  0.0078  0.3390 -0.3614
  805SOL     OW 2413   3.141   2.146   2.099  0.2725 -0.5705 -0.0208
  805SOL    HW1 2414   3.050   2.125   2.081  0.1418  0.2785 -0.4519
  805SOL    HW2 2415   3.183   2.144   2.013  0.4726 -0.1372  0.0637
  806SOL     OW 2416   3.575   0.610   2.347  0.0854  0.1353  0.4684
  806SOL    HW1 2417   3.555   0.590   2.256  0.2294 -0.6458  0.5983
  806SOL    HW2 2418   3.496   0.586   2.395 -0.9801  2.9665  0.2906
  807SOL     OW 2419   0.150   1.627   2.652 -0.1467 -0.7693  0.4495
  807SOL    HW1 2420   0.224   1.590   2.699  3.2954 -0.5092 -4.0496
  807SOL    HW2 2421   0.167   1.721   2.650 -1.6775 -0.4459  0.8163
  808SOL     OW 2422   0.833   2.941   1.397 -0.9849  0.5295  0.5114
  808SOL    HW1 2423   0.902   2.980   1.452 -2.2013  0.4609  2.1521
  808SOL    HW2 2424   0.877   2.868   1.353  1.0661  2.9436 -1.7999
  809SOL     OW 2425   1.927   1.599   2.614  0.0234  0.0829 -0.6537
  809SOL    HW1 2426   1.899   1.579   2.524  0.2149 -0.2022 -0.6529
  809SOL    HW2 2427   1.893   1.687   2.631 -3.2278 -1.2153  0.3023
  810SOL     OW 2428   3.027   2.773   2.032 -0.1349 -0.3853  0.3519
  810SOL    HW1 2429   2.933   2.788   2.021 -0.3560 -1.2629  0.8771
  810SOL    HW2 2430   3.069   2.845   1.985 -1.0508 -0.7746 -1.1436
  811SOL     OW 2431   2.072   0.527   2.309 -0.9305  0.0770  0.5977
  811SOL    HW1 2432   2.067   0.490   2.397 -0.6118 -0.3646  0.4355
  811SOL    HW2 2433   1.992   0.580   2.300 -0.3353  1.1778  1.6109
  812SOL     OW 2434   0.027   0.410   1.738  0.0744  0.1580 -0.1044
  812SOL    HW1 2435  -0.040   0.389   1.803  0.2656  0.7590  0.2923
  812SOL    HW2 2436   0.042   0.504   1.748 -1.2866  0.7105 -2.3185
  813SOL     OW 2437   3.024   0.258   3.435  0.6332  0.4860  0.9057
  813SOL    HW1 2438   2.950   0.222   3.485 -0.6374  0.6888 -0.7152
  813SOL    HW2 2439   2.982   0.302   3.361  2.4145  0.2479 -0.2959
  814SOL     OW 2440   0.181   3.634   3.933  0.3996 -0.1011 -0.6349
  814SOL    HW1 2441   0.187   3.588   4.017 -0.7370 -0.9191 -0.9775
  814SOL    HW2 2442   0.261   3.687   3.929 -1.1808  3.0365  2.7584
  815SOL     OW 2443   3.782   1.328   2.626  0.3494  0.2464  0.1832
  815SOL    HW1 2444   3.722   1.380   2.572 -0.0612  0.7440  1.0996
  815SOL    HW2 2445   3.747   1.239   2.623  0.3916  0.2450 -0.4433
  816SOL     OW 2446   2.831   1.577   1.711  0.1656 -0.0467 -0.4212
  816SOL    HW1 2447   2.757   1.584   1.772  0.0508 -0.7988 -0.4582
  816SOL    HW2 2448   2.830   1.485   1.683  1.1645 -0.0918 -0.3564
  817SOL     OW 2449   3.918   2.874   3.703  0.1948  0.3830 -0.3377
  817SOL    HW1 2450   3.977   2.916   3.641 -0.1671  1.9596  0.3332
  817SOL    HW2 2451   3.847   2.937   3.714 -0.7630 -0.7498  0.1527
  818SOL     OW 2452   0.270   1.509   2.304  0.3255 -0.0510 -0.0802
  818SOL    HW1 2453   0.250   1.566   2.379 -1.4463  0.0960 -0.6024
  818SOL    HW2 2454   0.303   1.569   2.237  0.8201 -0.0076  0.2029
  819SOL     OW 2455   3.783   2.763   0.853  0.2827 -0.0682  0.2330
  819SOL    HW1 2456   3.766   2.760   0.759  0.3183  0.2935  0.2159
  819SOL    HW2 2457   3.871   2.727   0.863 -0.9212 -3.2663  0.4508
  820SOL     OW 2458   2.715   1.982   0.527  0.4419 -0.4855  0.2010
  820SOL    HW1 2459   2.681   1.941   0.447 -0.5672  0.1020  0.3057
  820SOL    HW2 2460   2.746   2.068   0.498  0.6750 -0.5259  0.3312
  821SOL     OW 2461   3.191   1.025   0.408  0.7231 -0.4724  0.9835
  821SOL    HW1 2462   3.180   1.035   0.313  2.7848  1.9078  0.8826
  821SOL    HW2 2463   3.102   1.021   0.442 -0.1759  1.3888 -0.8853
  822SOL     OW 2464   1.379   3.583   2.897 -1.1560  0.3719 -0.7445
  822SOL    HW1 2465   1.284   3.573   2.891 -1.0997  0.2607 -1.6260
  822SOL    HW2 2466   1.405   3.617   2.811 -0.2806 -0.6055 -0.8955
  823SOL     OW 2467  -0.026   3.187   3.296 -0.1408 -0.4505  0.0377
  823SOL    HW1 2468   0.013   3.273   3.311 -0.4384 -0.1805 -0.6953
  823SOL    HW2 2469   0.047   3.126   3.300  0.3233  0.0188 -1.0308
  824SOL     OW 2470   2.128   0.139   0.393  0.6354 -0.5285 -0.9433
  824SOL    HW1 2471   2.189   0.127   0.466 -0.1940  1.7118  0.1766
  824SOL    HW2 2472   2.044   0.108   0.426  0.4891 -0.6040 -1.3789
  825SOL     OW 2473   3.631   3.788   3.852  0.3052 -0.1940  0.2322
  825SOL    HW1 2474   3.584   3.758   3.929 -1.1150  0.6010 -0.2984
  825SOL    HW2 2475   3.723   3.771   3.872 -0.1413 -1.1956  1.5508
  826SOL     OW 2476   0.039   3.662   0.989 -0.1122  0.5499 -0.1317
  826SOL    HW1 2477   0.021   3.753   1.010  0.7249  0.4243  1.2649
  826SOL    HW2 2478   0.078   3.626   1.069 -0.4922 -1.0518 -0.6269
  827SOL     OW 2479   0.079   3.917   1.506 -0.4197 -0.4189 -0.1867
  827SOL    HW1 2480   0.135   3.868   1.446  0.5634  1.1880 -0.6356
  827SOL    HW2 2481   0.013   3.957   1.449  1.2462  2.1436 -0.4913
  828SOL     OW 2482   2.444   0.106   3.358 -0.0920 -0.5404 -0.2287
  828SOL    HW1 2483   2.496   0.109   3.438  0.8745  2.4750 -0.8614
  828SOL    HW2 2484   2.497   0.053   3.298  0.4600 -0.5861  0.2887
  829SOL     OW 2485   0.470   2.809   3.050 -0.0297 -0.1629 -0.0391
  829SOL    HW1 2486   0.459   2.844   3.139 -0.0243 -1.6003  0.5501
  829SOL    HW2 2487   0.540   2.863   3.013 -1.8490  2.2726 -0.1854
  830SOL     OW 2488   1.941   0.615   3.125  0.7790 -0.5650  0.9186
  830SOL    HW1 2489   2.009   0.637   3.188 -0.6008  1.6047  1.7271
  830SOL    HW2 2490   1.984   0.627   3.040  1.7685 -0.4969  1.4076
  831SOL     OW 2491   0.568   1.259   1.746 -0.0279 -0.8938  0.5619
  831SOL    HW1 2492   0.540   1.173   1.715 -0.1727 -0.3963 -0.7785
  831SOL    HW2 2493   0.649   1.243   1.794 -0.2726 -1.8166  0.6808
  832SOL     OW 2494   0.836   2.184   1.912  0.1951 -0.1255  0.7307
  832SOL    HW1 2495   0.822   2.115   1.847  1.4404  1.3285 -1.1846
  832SOL    HW2 2496   0.809   2.265   1.868 -0.3380  0.7604  2.5751
  833SOL     OW 2497   2.327   3.517   3.799  0.8177 -0.1068 -0.0744
  833SOL    HW1 2498   2.238   3.511   3.836  1.0650 -1.9898  0.3123
  833SOL    HW2 2499   2.341   3.432   3.757  2.5571  0.0507  0.1216
  834SOL     OW 2500   1.911   3.824   2.502 -0.9188 -0.1096  0.2606
  834SOL    HW1 2501   1.900   3.901   2.447  0.5329 -1.3160 -1.8847
  834SOL    HW2 2502   1.866   3.754   2.455 -1.0914 -0.8669  1.4941
  835SOL     OW 2503   2.147   3.959   2.787 -0.3387  0.4565 -0.1767
  835SOL    HW1 2504   2.069   3.936   2.837 -0.0383  0.6200  0.3758
  835SOL    HW2 2505   2.197   3.878   2.781  1.7515  1.2554  3.5902
  836SOL     OW 2506   0.407   1.370   3.755 -0.1608 -0.3576 -0.3024
  836SOL    HW1 2507   0.417   1.431   3.828 -0.2600 -0.1867 -0.4297
  836SOL    HW2 2508   0.394   1.426   3.679  1.1914 -0.5105 -0.6593
  837SOL     OW 2509   1.275   2.415   0.808 -0.0427 -0.2930  0.1898
  837SOL    HW1 2510   1.286   2.425   0.713 -0.3145  0.5485  0.2341
  837SOL    HW2 2511   1.354   2.454   0.845  0.2480 -0.9848  0.3005
  838SOL     OW 2512   1.827   0.293   3.839  0.5835 -0.9927 -0.4511
  838SOL    HW1 2513   1.744   0.291   3.887  0.2489 -4.0937 -0.9419
  838SOL    HW2 2514   1.879   0.222   3.877  2.3065 -0.2708 -1.3586
  839SOL     OW 2515   3.470   2.704   2.730 -0.3881  0.1258  0.1295
  839SOL    HW1 2516   3.395   2.659   2.692  0.0049 -1.1667  0.8406
  839SOL    HW2 2517   3.442   2.726   2.819 -0.4085  0.8779 -0.0592
  840SOL     OW 2518   3.334   3.343   1.030 -0.2423 -0.3873 -0.2422
  840SOL    HW1 2519   3.427   3.337   1.010  0.2406  0.9867  1.3454
  840SOL    HW2 2520   3.330   3.346   1.126 -1.6197  2.7602 -0.2665
  841SOL     OW 2521   2.831   1.418   3.799  0.4878 -0.5409  0.1563
  841SOL    HW1 2522   2.860   1.330   3.775  0.7568 -0.3784 -0.1271
  841SOL    HW2 2523   2.901   1.476   3.766 -0.0672 -0.1541 -0.3758
  842SOL     OW 2524   1.236   0.930   1.725 -0.2132  0.5843  0.0377
  842SOL    HW1 2525   1.294   0.853   1.722  0.7977  1.2662  1.2843
  842SOL    HW2 2526   1.196   0.927   1.812  0.4948  1.9163  0.4383
  843SOL     OW 2527   1.007   0.202   2.567  0.5582 -0.5812  0.6528
  843SOL    HW1 2528   0.932   0.160   2.525  1.4860 -1.3362 -0.3253
  843SOL    HW2 2529   1.005   0.170   2.657  1.4108 -3.0878 -0.1304
  844SOL     OW 2530   0.953   0.690   0.540  0.4360  0.1276  0.0467
  844SOL    HW1 2531   0.881   0.748   0.516  1.3256  2.5054  2.5503
  844SOL    HW2 2532   1.025   0.717   0.483  0.5938  0.9367  0.6095
  845SOL     OW 2533   3.903   0.553   3.976 -0.6867 -0.2500 -0.1993
  845SOL    HW1 2534   3.960   0.577   4.049 -0.8185  2.5278 -0.8965
  845SOL    HW2 2535   3.918   0.621   3.911 -0.1971 -2.8974 -3.0559
  846SOL     OW 2536   3.885   2.879   3.098  0.8687 -0.6523 -0.4747
  846SOL    HW1 2537   3.974   2.910   3.117  0.1515 -0.2014  2.5696
  846SOL    HW2 2538   3.829   2.952   3.122 -0.4276 -1.4639 -0.9423
  847SOL     OW 2539   0.697   0.433   0.905  0.0210 -0.0004  0.2704
  847SOL    HW1 2540   0.639   0.475   0.969 -0.2087  0.7525 -0.4075
  847SOL    HW2 2541   0.759   0.501   0.882  1.7297 -1.0323  1.5906
  848SOL     OW 2542   3.415   1.326   2.078 -0.8092  0.3915 -0.0558
  848SOL    HW1 2543   3.496   1.306   2.031 -0.4966  1.5716 -0.0565
  848SOL    HW2 2544   3.418   1.271   2.156 -0.1465  0.2131 -0.2038
  849SOL     OW 2545   3.550   2.891   1.300  0.9046 -0.4839 -0.1088
  849SOL    HW1 2546   3.461   2.924   1.309  0.7667 -0.8376 -0.1550
  849SOL    HW2 2547   3.604   2.969   1.291  0.2904 -0.2894 -3.1465
  850SOL     OW 2548   1.247   2.761   2.958 -0.3351 -0.1060 -0.2120
  850SOL    HW1 2549   1.259   2.742   2.865  2.1031  1.5839 -0.3534
  850SOL    HW2 2550   1.162   2.805   2.963 -0.9970 -1.1672 -1.4310
  851SOL     OW 2551   1.741   2.801   0.818 -0.0363 -0.6511  0.8398
  851SOL    HW1 2552   1.805   2.760   0.759 -2.7989 -3.9743 -0.1940
  851SOL    HW2 2553   1.696   2.727   0.859 -2.8954  1.4675  1.8474
  852SOL     OW 2554   0.088   3.680   3.671 -0.5484 -0.1752  0.5687
  852SOL    HW1 2555  -0.006   3.682   3.651 -0.5928  4.0727  0.3256
  852SOL    HW2 2556   0.100   3.748   3.737  2.4740 -0.0032 -0.0341
  853SOL     OW 2557   3.816   2.866   1.535 -0.2282  1.1599 -0.2237
  853SOL    HW1 2558   3.805   2.798   1.469 -1.3771 -0.5250  1.6182
  853SOL    HW2 2559   3.910   2.864   1.556 -0.2408  0.2011 -0.2459
  854SOL     OW 2560   0.658   3.120   3.532  0.5023 -0.0805 -0.1009
  854SOL    HW1 2561   0.729   3.180   3.555  0.6837  0.5152 -2.0422
  854SOL    HW2 2562   0.701   3.037   3.511  0.2544 -0.9892  2.5413
  855SOL     OW 2563   2.562   2.480   2.039  0.2155  0.2798 -0.4924
  855SOL    HW1 2564   2.571   2.431   1.957  1.4069  0.0599 -0.2531
  855SOL    HW2 2565   2.541   2.413   2.105  2.2132 -0.0325 -0.0952
  856SOL     OW 2566   1.774   1.288   2.570 -0.0460  0.6498  0.1735
  856SOL    HW1 2567   1.820   1.357   2.523  1.4620  0.5217  1.3732
  856SOL    HW2 2568   1.754   1.222   2.504 -0.2328  1.5846 -0.7242
  857SOL     OW 2569   1.093   3.876   1.271  0.4516  0.3606 -0.3019
  857SOL    HW1 2570   1.083   3.966   1.240  0.9980  1.3940  2.2428
  857SOL    HW2 2571   1.181   3.873   1.309 -0.5237 -0.3349  2.1566
  858SOL     OW 2572   2.571   2.155   2.886  0.1794 -0.3189  0.5942
  858SOL    HW1 2573   2.629   2.205   2.829 -0.1486 -0.6681 -0.0588
  858SOL    HW2 2574   2.630   2.095   2.933  0.3998 -0.3881  0.2364
  859SOL     OW 2575   1.022   2.820   2.055  0.3440  0.2666 -0.1401
  859SOL    HW1 2576   1.028   2.913   2.033  1.3066  0.5771  1.3123
  859SOL    HW2 2577   0.942   2.813   2.108 -0.8883 -0.1422 -1.9475
  860SOL     OW 2578   2.580   3.054   2.976  0.8202 -0.2771  0.1518
  860SOL    HW1 2579   2.580   2.981   2.914  0.5650 -0.6384  0.5666
  860SOL    HW2 2580   2.639   3.119   2.938 -0.4155  0.1165 -1.1829
  861SOL     OW 2581   3.065   1.524   3.432 -0.3084  0.6266 -0.0990
  861SOL    HW1 2582   3.053   1.452   3.370  3.3123  1.3922 -1.9675
  861SOL    HW2 2583   3.139   1.497   3.487  0.0752  2.2078  0.2160
  862SOL     OW 2584   1.413   2.147   1.123  0.0377 -0.2341 -0.2866
  862SOL    HW1 2585   1.417   2.173   1.215  1.8984 -0.0235 -0.3792
  862SOL    HW2 2586   1.343   2.201   1.085 -1.6771 -1.2756  1.2487
  863SOL     OW 2587   1.150   1.616   3.329  0.0894  0.0025 -0.0984
  863SOL    HW1 2588   1.117   1.697   3.291 -0.1965  0.0877  0.3250
  863SOL    HW2 2589   1.215   1.585   3.266 -1.6566 -0.8173 -1.6295
  864SOL     OW 2590   1.496   1.131   2.218 -0.4200 -0.2923  0.2744
  864SOL    HW1 2591   1.415   1.100   2.259 -1.5433  1.8082 -0.2202
  864SOL    HW2 2592   1.533   1.193   2.281 -0.4325  0.5078 -0.4982
  865SOL     OW 2593   3.756   0.149   1.309 -0.0680 -0.1759  0.7812
  865SOL    HW1 2594   3.724   0.145   1.399 -1.7551 -0.5522  0.2080
  865SOL    HW2 2595   3.735   0.237   1.279 -0.7007 -0.4647  0.3557
  866SOL     OW 2596   0.913   1.702   4.012  0.1833  1.3246 -0.0332
  866SOL    HW1 2597   0.845   1.683   3.948 -0.9562  3.0428  0.6030
  866SOL    HW2 2598   0.941   1.791   3.992  1.1639  1.2024  0.6952
  867SOL     OW 2599   2.055   2.074   1.043  0.0229  0.3663 -0.1004
  867SOL    HW1 2600   2.069   2.129   1.120  1.6329  1.8031 -1.3294
  867SOL    HW2 2601   2.070   2.133   0.969 -0.9154 -1.0964 -1.5180
  868SOL     OW 2602   2.689   1.870   1.293  0.2361 -0.1474 -0.3153
  868SOL    HW1 2603   2.660   1.868   1.202  2.0687  2.3785 -1.0620
  868SOL    HW2 2604   2.607   1.868   1.344 -0.9764  0.7281 -2.1093
  869SOL     OW 2605   1.262   3.695   3.473 -0.4567  0.1367  0.0622
  869SOL    HW1 2606   1.228   3.605   3.475 -0.0862 -0.0076  2.2212
  869SOL    HW2 2607   1.262   3.719   3.380 -1.1481 -1.8653 -0.4981
  870SOL     OW 2608   1.789   1.896   2.259 -0.3910 -0.2942  0.1286
  870SOL    HW1 2609   1.839   1.938   2.329  1.8485  0.1055 -1.6031
  870SOL    HW2 2610   1.713   1.954   2.247  1.2314  1.8636 -0.3695
  871SOL     OW 2611   3.364   3.807   1.953  0.2454  0.0980 -0.3239
  871SOL    HW1 2612   3.406   3.865   1.889  3.8094 -1.6658  0.1442
  871SOL    HW2 2613   3.421   3.812   2.030 -0.6640 -2.1728  0.5673
  872SOL     OW 2614   3.917   0.690   2.661 -0.6795 -0.2482  0.1568
  872SOL    HW1 2615   3.904   0.597   2.647 -0.1037 -0.3401  0.2266
  872SOL    HW2 2616   3.905   0.730   2.575 -0.7350 -0.4032  0.0938
  873SOL     OW 2617   1.398   0.472   1.627 -0.6263  0.1067  0.2936
  873SOL    HW1 2618   1.441   0.432   1.552  2.0761 -0.3225  1.9479
  873SOL    HW2 2619   1.387   0.401   1.690  0.1824  1.0489  1.5486
  874SOL     OW 2620   2.033   2.512   1.983 -0.4642  0.6846 -0.5784
  874SOL    HW1 2621   2.096   2.571   2.023 -0.9254  1.0846 -0.4250
  874SOL    HW2 2622   1.948   2.554   1.998 -0.7426  0.2907 -1.0113
  875SOL     OW 2623   0.446   2.762   3.536 -0.0928  0.4131 -0.5911
  875SOL    HW1 2624   0.539   2.783   3.547  0.2574 -1.6027  0.7222
  875SOL    HW2 2625   0.445   2.688   3.476 -0.7417 -0.2546  0.2127
  876SOL     OW 2626   3.739   2.483   0.185 -0.2474 -1.3794 -0.0405
  876SOL    HW1 2627   3.687   2.402   0.180  0.8040 -2.1993  1.4862
  876SOL    HW2 2628   3.783   2.478   0.270 -1.1108  1.4261  0.6674
  877SOL     OW 2629   3.456   1.790   3.388 -0.0501 -0.5718 -1.1815
  877SOL    HW1 2630   3.541   1.750   3.403  0.3490  1.0496  1.3809
  877SOL    HW2 2631   3.476   1.875   3.347 -0.3878 -0.0564 -0.2978
  878SOL     OW 2632   1.038   0.801   1.486  0.9494 -0.1019  0.1503
  878SOL    HW1 2633   1.044   0.890   1.452 -0.2841  0.0051  0.1804
  878SOL    HW2 2634   1.125   0.764   1.470  0.5748  0.0639 -2.7702
  879SOL     OW 2635   1.492   2.206   3.184 -0.1687 -0.3907 -0.1424
  879SOL    HW1 2636   1.582   2.221   3.154  0.2087  1.6029  1.6680
  879SOL    HW2 2637   1.448   2.290   3.170 -1.5027 -1.0780 -0.1943
  880SOL     OW 2638   2.965   0.569   2.142 -0.4176 -0.2597 -0.9206
  880SOL    HW1 2639   2.890   0.601   2.192 -0.9146 -0.4517 -1.5301
  880SOL    HW2 2640   3.028   0.641   2.146  0.7418 -1.3406  2.3594
  881SOL     OW 2641   3.420   0.353   3.345 -0.1109  0.5850 -0.5378
  881SOL    HW1 2642   3.469   0.274   3.368 -0.0178  0.7450 -0.1877
  881SOL    HW2 2643   3.335   0.321   3.315  0.7984  0.1583 -2.9133
  882SOL     OW 2644   0.710   0.132   1.301 -0.0197  0.1609  0.2287
  882SOL    HW1 2645   0.647   0.192   1.340  0.2264  0.0281  0.8506
  882SOL    HW2 2646   0.715   0.158   1.209  0.3105  1.3015  0.5504
  883SOL     OW 2647   0.643   0.504   1.232 -0.3678 -0.1146 -0.4985
  883SOL    HW1 2648   0.719   0.520   1.176  0.8422 -1.4090  0.6942
  883SOL    HW2 2649   0.680   0.490   1.319 -2.2125  2.0613  0.7474
  884SOL     OW 2650   2.337   0.876   3.590  0.2241  0.5680  0.4061
  884SOL    HW1 2651   2.323   0.969   3.571  1.2195  0.4916 -0.8862
  884SOL    HW2 2652   2.258   0.849   3.636 -0.9481  1.6147 -0.8738
  885SOL     OW 2653   2.943   2.203   1.703  0.1236 -0.8149  0.7162
  885SOL    HW1 2654   2.886   2.140   1.660  0.6724 -0.4770 -0.5513
  885SOL    HW2 2655   2.888   2.280   1.718  0.4299 -0.1759 -1.2650
  886SOL     OW 2656   1.045   3.037   1.542  0.3242 -0.8296  0.7602
  886SOL    HW1 2657   1.122   3.089   1.520  0.1926 -1.1275 -0.4530
  886SOL    HW2 2658   1.079   2.963   1.592  0.7938 -0.8479  0.4172
  887SOL     OW 2659   0.462   1.894   0.359 -0.0682 -0.2017 -0.3105
  887SOL    HW1 2660   0.471   1.804   0.390  0.3856 -0.2441 -0.5603
  887SOL    HW2 2661   0.466   1.887   0.264  0.2842  0.1129 -0.3213
  888SOL     OW 2662   3.182   3.407   3.785 -0.4691  0.1111  0.1433
  888SOL    HW1 2663   3.231   3.336   3.828  0.0572 -0.4928 -1.3763
  888SOL    HW2 2664   3.235   3.428   3.708 -0.5330  2.3102  0.6514
  889SOL     OW 2665   1.245   0.958   2.023 -0.8348 -0.4364 -1.2334
  889SOL    HW1 2666   1.218   0.881   2.074  0.6928 -0.3675 -0.2445
  889SOL    HW2 2667   1.335   0.939   1.998  0.3355  1.8567  0.8089
  890SOL     OW 2668   1.639   0.123   2.409 -0.3409  0.4503  0.1917
  890SOL    HW1 2669   1.561   0.151   2.361 -2.1424 -1.2828  1.9123
  890SOL    HW2 2670   1.641   0.180   2.486  1.4166  1.9121 -0.8365
  891SOL     OW 2671   0.590   1.515   2.547  0.1931 -0.1393 -1.1181
  891SOL    HW1 2672   0.543   1.592   2.579  1.5660  0.4865 -0.5085
  891SOL    HW2 2673   0.645   1.549   2.476  0.6976 -0.5845 -0.9487
  892SOL     OW 2674   2.551   0.352   1.093 -0.4433  0.8777  0.0196
  892SOL    HW1 2675   2.638   0.320   1.068 -0.4720  1.3288 -0.6915
  892SOL    HW2 2676   2.521   0.290   1.160  0.0420  0.1872 -0.3856
  893SOL     OW 2677   1.846   2.357   2.861 -0.6672  0.6182 -0.5796
  893SOL    HW1 2678   1.802   2.390   2.783  0.2517  0.7318 -1.0732
  893SOL    HW2 2679   1.910   2.426   2.883 -0.1058  0.0627 -0.4355
  894SOL     OW 2680   1.893   2.178   0.397 -0.3889  0.0823  0.3114
  894SOL    HW1 2681   1.907   2.191   0.491  2.9927 -0.5053  0.0052
  894SOL    HW2 2682   1.932   2.256   0.356 -2.4320  0.6738 -0.6611
  895SOL     OW 2683   3.937   0.381   2.630 -0.5428 -1.1162 -0.2079
  895SOL    HW1 2684   3.908   0.334   2.552  0.0921 -1.6749 -0.1235
  895SOL    HW2 2685   3.970   0.313   2.689 -4.1828 -1.1631  2.0759
  896SOL     OW 2686   1.738   1.349   4.014  0.2824 -0.2387  0.1647
  896SOL    HW1 2687   1.747   1.419   3.949  1.7363  0.3066  0.9109
  896SOL    HW2 2688   1.796   1.280   3.982 -0.5020 -0.7760 -0.1236
  897SOL     OW 2689   1.807   3.244   1.801 -1.0993 -0.5366 -0.3656
  897SOL    HW1 2690   1.894   3.217   1.830 -1.8557 -0.3261  2.3192
  897SOL    HW2 2691   1.813   3.245   1.705  2.3202  1.0136 -0.2739
  898SOL     OW 2692   0.817   2.418   3.764 -0.6645  0.4103  0.3104
  898SOL    HW1 2693   0.765   2.401   3.685 -1.9793  0.6400  1.0820
  898SOL    HW2 2694   0.906   2.395   3.740 -0.8042  1.6565 -1.6349
  899SOL     OW 2695   1.303   1.205   1.901  0.5894  0.1167  0.0813
  899SOL    HW1 2696   1.393   1.220   1.874 -0.3222 -0.9146 -4.1657
  899SOL    HW2 2697   1.295   1.110   1.909  0.1070  0.2541  1.6528
  900SOL     OW 2698   2.619   2.473   1.499  0.1445  0.1168  0.1958
  900SOL    HW1 2699   2.711   2.490   1.479  0.5722 -1.6291  0.5088
  900SOL    HW2 2700   2.615   2.379   1.517 -1.7227  0.1394  0.1157
  901SOL     OW 2701   2.734   1.043   1.540  0.1161  0.7077  0.5847
  901SOL    HW1 2702   2.677   1.057   1.616 -1.8753  2.2913 -1.0719
  901SOL    HW2 2703   2.799   1.113   1.545 -0.0325  0.8297  0.8146
  902SOL     OW 2704   0.962   3.693   1.950 -0.2523 -0.0351 -0.3451
  902SOL    HW1 2705   0.954   3.601   1.975 -0.3327  0.1088  0.1784
  902SOL    HW2 2706   1.042   3.722   1.994 -0.5535  0.3019 -0.0170
  903SOL     OW 2707   0.977   1.564   0.401  0.5470 -0.6968 -0.7646
  903SOL    HW1 2708   0.960   1.542   0.492 -0.5239 -0.1987 -0.8309
  903SOL    HW2 2709   0.939   1.491   0.352 -1.0026  0.1363 -0.8866
  904SOL     OW 2710   0.093   2.608   2.573 -0.1958  0.9311 -0.6865
  904SOL    HW1 2711   0.006   2.569   2.569 -0.2321  0.8215  0.8268
  904SOL    HW2 2712   0.078   2.702   2.560 -0.8452  1.2325  1.8309
  905SOL     OW 2713   2.516   2.242   3.647 -0.1932  0.2895  0.3489
  905SOL    HW1 2714   2.569   2.206   3.718  2.0132  2.0367 -0.2999
  905SOL    HW2 2715   2.524   2.179   3.575 -0.9598 -0.5935  1.0130
  906SOL     OW 2716   1.496   3.935   2.092 -0.3970 -0.1835  0.2827
  906SOL    HW1 2717   1.465   4.020   2.061 -3.4086 -1.0298  0.6775
  906SOL    HW2 2718   1.564   3.911   2.029 -1.1999  1.4174 -1.3257
  907SOL     OW 2719   2.070   3.481   3.895  0.2228 -0.0273 -0.2118
  907SOL    HW1 2720   2.023   3.484   3.978  1.0767 -2.9449  0.5046
  907SOL    HW2 2721   2.033   3.405   3.849  2.6871 -1.1806 -0.4935
  908SOL     OW 2722   1.707   2.055   1.399 -0.0242  0.4199 -0.0415
  908SOL    HW1 2723   1.639   2.102   1.351 -2.8564 -1.7889  1.5207
  908SOL    HW2 2724   1.674   2.049   1.489  2.2230 -0.8290  0.7994
  909SOL     OW 2725   1.624   2.415   2.302  0.4980  0.2370  0.4173
  909SOL    HW1 2726   1.538   2.454   2.288 -0.4380 -1.2746  1.6840
  909SOL    HW2 2727   1.633   2.410   2.397  1.0309 -1.6277  0.3017
  910SOL     OW 2728   1.062   3.696   2.248 -0.1479 -0.2380 -0.2943
  910SOL    HW1 2729   1.118   3.755   2.299  1.5161  0.2112 -2.5195
  910SOL    HW2 2730   1.103   3.610   2.257 -0.2381 -0.2872 -0.3551
  911SOL     OW 2731   0.475   3.594   1.365 -0.0700  0.9385  0.1489
  911SOL    HW1 2732   0.447   3.568   1.453  3.1482  0.5698  1.2008
  911SOL    HW2 2733   0.463   3.516   1.311  2.3992 -0.4898  1.4871
  912SOL     OW 2734   1.174   0.589   0.069 -0.0773  0.1288 -0.2087
  912SOL    HW1 2735   1.080   0.570   0.075 -0.2423  0.6618 -0.9829
  912SOL    HW2 2736   1.202   0.544  -0.010  0.5369 -0.8186  0.5227
  913SOL     OW 2737   2.655   1.554   1.100 -0.4244 -0.5709 -0.5366
  913SOL    HW1 2738   2.596   1.498   1.050 -1.3271  0.9798 -1.3020
  913SOL    HW2 2739   2.616   1.558   1.187  1.0103 -3.0670  0.3195
  914SOL     OW 2740   0.922   1.269   0.311  0.1902 -0.7467  0.2247
  914SOL    HW1 2741   0.885   1.195   0.359  1.3822  0.4485  3.2770
  914SOL    HW2 2742   1.013   1.245   0.296  0.3432 -0.2934  0.3887
  915SOL     OW 2743   3.519   3.787   0.416 -0.2174 -0.6695 -0.0424
  915SOL    HW1 2744   3.570   3.863   0.446 -0.3126 -0.6294  0.0188
  915SOL    HW2 2745   3.432   3.801   0.454 -0.3189 -0.6559 -0.2797
  916SOL     OW 2746   2.886   2.586   0.441 -0.5389 -0.6673  0.1040
  916SOL    HW1 2747   2.921   2.537   0.366 -1.1081 -0.6650 -0.1633
  916SOL    HW2 2748   2.923   2.541   0.518 -0.3268 -0.9530 -0.1614
  917SOL     OW 2749   1.260   0.196   1.531 -0.6341 -0.2342  0.1018
  917SOL    HW1 2750   1.235   0.263   1.468 -4.4746 -1.4329  0.1239
  917SOL    HW2 2751   1.256   0.240   1.616  0.8730  0.4191 -0.1227
  918SOL     OW 2752   3.197   3.815   0.076  0.3271 -0.2581 -0.5017
  918SOL    HW1 2753   3.141   3.744   0.044  1.1802 -0.0088 -2.7408
  918SOL    HW2 2754   3.201   3.876   0.002  0.7669  1.4326  0.8707
  919SOL     OW 2755   2.644   3.310   2.784  0.7017 -0.4557 -0.6793
  919SOL    HW1 2756   2.627   3.223   2.746  2.1029 -0.5098 -1.2250
  919SOL    HW2 2757   2.574   3.365   2.748 -1.5629 -1.7741  1.4000
  920SOL     OW 2758   0.702   1.987   2.638 -0.2327  0.4583  0.0404
  920SOL    HW1 2759   0.787   1.952   2.612  0.6308  1.3755  1.4958
  920SOL    HW2 2760   0.680   2.051   2.570  0.2644  0.2433 -0.3209
  921SOL     OW 2761   0.547   1.502   1.338  0.6366 -0.1678  0.9319
  921SOL    HW1 2762   0.567   1.446   1.414 -1.0577  1.7737  2.9354
  921SOL    HW2 2763   0.627   1.552   1.325  1.2095 -1.0547  0.9037
  922SOL     OW 2764   3.021   0.346   1.927  0.1976  0.3294 -0.3902
  922SOL    HW1 2765   3.045   0.406   1.998 -0.8223  2.1585 -1.5167
  922SOL    HW2 2766   2.977   0.274   1.971  0.9149  0.6771  0.9661
  923SOL     OW 2767   2.303   2.130   2.178  0.5578 -0.3695  0.0413
  923SOL    HW1 2768   2.334   2.076   2.250 -1.0620 -0.8361  0.4228
  923SOL    HW2 2769   2.233   2.183   2.216  0.8328  0.6239 -0.7911
  924SOL     OW 2770   0.886   0.618   0.796  0.4833  0.5721  0.1447
  924SOL    HW1 2771   0.922   0.645   0.712 -1.2136  0.1793 -0.7470
  924SOL    HW2 2772   0.962   0.587   0.846  1.4130  0.0179 -1.5422
  925SOL     OW 2773   2.818   1.824   0.267  0.1356 -0.0181 -0.4609
  925SOL    HW1 2774   2.894   1.796   0.319  0.7627 -2.7045 -2.5563
  925SOL    HW2 2775   2.843   1.909   0.232  0.8118  0.5982  1.4136
  926SOL     OW 2776   0.466   2.154   1.789  0.7264  0.6507 -1.2235
  926SOL    HW1 2777   0.442   2.064   1.770 -1.5437  0.7947  0.5052
  926SOL    HW2 2778   0.478   2.156   1.884  1.3130  2.0503 -1.2950
  927SOL     OW 2779   2.357   2.155   0.695  0.2543  0.4174  0.3409
  927SOL    HW1 2780   2.372   2.104   0.775  0.7444  0.4870  0.2990
  927SOL    HW2 2781   2.432   2.215   0.691  0.1388  0.5372 -0.0735
  928SOL     OW 2782   0.351   2.513   0.775  0.1052 -0.1181  0.6800
  928SOL    HW1 2783   0.441   2.486   0.759 -0.4708 -0.6904 -2.2039
  928SOL    HW2 2784   0.326   2.561   0.696 -1.9684  0.4047  1.5957
  929SOL     OW 2785   0.420   1.819   3.644 -0.1984  0.4711  0.1026
  929SOL    HW1 2786   0.378   1.751   3.696  2.2314 -1.1688  0.0618
  929SOL    HW2 2787   0.495   1.846   3.696  0.6383  0.8824 -1.2611
  930SOL     OW 2788   3.176   0.103   0.584 -0.0021  0.3399 -0.0513
  930SOL    HW1 2789   3.153   0.073   0.496  0.3004 -1.0114  0.3063
  930SOL    HW2 2790   3.094   0.138   0.619 -0.0831  1.0477 -0.9204
  931SOL     OW 2791   1.932   3.400   3.343 -0.4214  0.1198  0.4852
  931SOL    HW1 2792   1.941   3.415   3.437  1.3717  0.9279  0.2207
  931SOL    HW2 2793   1.911   3.486   3.307 -0.8403 -0.1361  0.0944
  932SOL     OW 2794   0.432   1.008   0.486 -0.1349 -0.0882 -0.2071
  932SOL    HW1 2795   0.451   0.921   0.449  3.7872  1.2318 -1.8666
  932SOL    HW2 2796   0.420   1.064   0.409  0.5816  1.3646  0.6909
  933SOL     OW 2797   3.225   2.813   2.217 -0.4159  0.3170 -0.3016
  933SOL    HW1 2798   3.285   2.838   2.148  0.1926 -0.9035 -0.2383
  933SOL    HW2 2799   3.150   2.774   2.172  0.0134 -0.5472 -0.3026
  934SOL     OW 2800   1.722   1.295   3.165  0.8369  0.3085  1.2294
  934SOL    HW1 2801   1.794   1.347   3.130  0.2198  0.0935 -0.4752
  934SOL    HW2 2802   1.644   1.347   3.148  0.2439 -0.9707 -0.1821
  935SOL     OW 2803   2.503   1.163   2.650 -0.4519 -1.1209 -1.0635
  935SOL    HW1 2804   2.544   1.243   2.616 -0.4506  0.4205  2.1965
  935SOL    HW2 2805   2.451   1.130   2.577 -3.1293  3.7128 -1.7649
  936SOL     OW 2806   0.950   1.370   0.945 -0.0771 -0.1360 -0.0526
  936SOL    HW1 2807   0.909   1.354   1.030 -0.7952 -1.6702 -0.6572
  936SOL    HW2 2808   1.042   1.385   0.965 -0.0024 -1.7279  0.9014
  937SOL     OW 2809   0.406   1.647   0.578  0.1914  0.4130 -0.3056
  937SOL    HW1 2810   0.485   1.606   0.544  1.0314  1.4746  0.3014
  937SOL    HW2 2811   0.408   1.629   0.672  0.0932  1.0425 -0.1765
  938SOL     OW 2812   2.822   0.119   1.194 -0.0223 -0.1885 -0.7557
  938SOL    HW1 2813   2.839   0.118   1.289 -0.1023  0.7306 -0.7150
  938SOL    HW2 2814   2.746   0.062   1.182  1.9890 -3.0795 -0.7309
  939SOL     OW 2815   0.392   3.031   1.601  0.2411 -0.1150  0.5826
  939SOL    HW1 2816   0.447   2.980   1.541 -0.4481  0.5855 -0.6942
  939SOL    HW2 2817   0.398   2.984   1.684 -0.2632 -2.2137 -0.4985
  940SOL     OW 2818   0.431   3.621   1.639 -0.3844 -0.3219 -0.0187
  940SOL    HW1 2819   0.336   3.626   1.635 -0.3875  0.1376  0.5429
  940SOL    HW2 2820   0.452   3.626   1.732  0.3391  2.6722 -0.2576
  941SOL     OW 2821   0.051   2.638   3.018  0.2091  0.4860  0.1792
  941SOL    HW1 2822   0.018   2.728   3.023  0.0927  0.4499  0.0799
  941SOL    HW2 2823   0.145   2.647   3.005  0.2818  0.5917  0.7647
  942SOL     OW 2824   0.653   0.542   2.013 -0.1220  0.5995  0.3031
  942SOL    HW1 2825   0.686   0.563   1.926  0.2055 -1.2461 -0.0682
  942SOL    HW2 2826   0.730   0.516   2.063 -0.6615 -1.5431  0.1108
  943SOL     OW 2827   0.915   3.546   3.788  0.3943  0.4527 -0.0123
  943SOL    HW1 2828   0.949   3.457   3.784  0.9078  0.6629 -0.4716
  943SOL    HW2 2829   0.900   3.570   3.696  1.4364  1.2783  0.0118
  944SOL     OW 2830   0.741   1.575   2.105  0.3233  0.3298  0.2240
  944SOL    HW1 2831   0.822   1.572   2.055  1.0021  0.2599  1.2971
  944SOL    HW2 2832   0.686   1.638   2.059  0.4235 -0.6471 -1.3094
  945SOL     OW 2833   0.025   0.654   3.166  0.9764 -0.4263  0.2297
  945SOL    HW1 2834   0.040   0.562   3.186 -1.8598 -1.3304 -1.2510
  945SOL    HW2 2835   0.039   0.660   3.071 -0.2368  0.3141  0.0788
  946SOL     OW 2836   3.287   3.446   1.621  0.5333 -0.0198 -0.2696
  946SOL    HW1 2837   3.199   3.469   1.651  0.5785 -2.4837  2.1674
  946SOL    HW2 2838   3.320   3.525   1.578 -1.7695  1.9337  1.3269
  947SOL     OW 2839   1.985   0.031   1.488 -0.6701 -0.4092  0.1335
  947SOL    HW1 2840   1.950   0.007   1.403  2.2780 -1.9270 -0.8007
  947SOL    HW2 2841   2.073   0.063   1.469 -1.4071  3.5037  2.2347
  948SOL     OW 2842   3.630   1.420   2.889  0.2220 -0.3571 -0.3801
  948SOL    HW1 2843   3.659   1.395   2.977 -0.0442 -0.4904 -0.3296
  948SOL    HW2 2844   3.657   1.347   2.834 -0.6066 -0.7862 -0.2234
  949SOL     OW 2845   2.862   1.474   2.292  0.1275 -0.3167  0.2603
  949SOL    HW1 2846   2.786   1.417   2.281  1.3050 -1.9577  0.3051
  949SOL    HW2 2847   2.889   1.496   2.203 -0.0573 -0.1770  0.2374
  950SOL     OW 2848   1.236   0.132   3.494  0.3396 -0.3332  0.0396
  950SOL    HW1 2849   1.205   0.128   3.584 -0.7681  0.3488 -0.2951
  950SOL    HW2 2850   1.191   0.061   3.449 -0.1997  0.1975 -0.2794
  951SOL     OW 2851   0.815   0.961   3.853  0.2616  0.2144  0.0920
  951SOL    HW1 2852   0.868   0.982   3.930 -0.3985  1.3772  0.2557
  951SOL    HW2 2853   0.766   0.882   3.878 -0.6250  1.0854  1.2353
  952SOL     OW 2854   2.206   1.658   2.442  0.3112 -0.4995 -0.0827
  952SOL    HW1 2855   2.253   1.703   2.513  0.6801 -1.5419  0.3525
  952SOL    HW2 2856   2.119   1.698   2.441  0.9748  1.0089 -0.4643
  953SOL     OW 2857   0.475   1.353   1.113 -0.8206 -0.3171  0.0056
  953SOL    HW1 2858   0.507   1.403   1.189 -0.6335  0.3952 -0.5267
  953SOL    HW2 2859   0.528   1.384   1.040 -2.8678  1.1239 -0.9664
  954SOL     OW 2860   2.319   2.119   2.798 -0.2115  0.2206  0.2619
  954SOL    HW1 2861   2.260   2.160   2.862 -1.8407  4.2301 -3.3497
  954SOL    HW2 2862   2.403   2.115   2.842 -1.3610  2.0895  2.8915
  955SOL     OW 2863   1.867   1.882   0.380  0.6124  0.2599  0.2472
  955SOL    HW1 2864   1.926   1.956   0.366  0.4764  0.6090  1.4237
  955SOL    HW2 2865   1.815   1.877   0.300  0.0332  1.9873  0.4741
  956SOL     OW 2866   3.511   2.546   3.359 -0.0407  0.2785 -0.0476
  956SOL    HW1 2867   3.418   2.525   3.349  0.1113  0.1073 -1.3573
  956SOL    HW2 2868   3.530   2.605   3.286  0.2122  2.8181  1.9316
  957SOL     OW 2869   0.407   2.228   0.961 -0.3164 -0.4757  0.0032
  957SOL    HW1 2870   0.370   2.294   1.020  3.7151  0.3345  1.9944
  957SOL    HW2 2871   0.351   2.151   0.972 -1.5328  0.6650  2.5225
  958SOL     OW 2872   2.649   3.453   0.237  0.0501  0.3384 -0.0055
  958SOL    HW1 2873   2.693   3.442   0.322 -1.1998  0.5650  0.6983
  958SOL    HW2 2874   2.720   3.465   0.175  1.0513 -0.9101  0.8358
  959SOL     OW 2875   1.127   1.373   1.183  0.3974 -0.4672  0.0602
  959SOL    HW1 2876   1.099   1.341   1.269 -0.0350 -1.4218 -0.4203
  959SOL    HW2 2877   1.190   1.307   1.152  1.9809  0.8045  0.4108
  960SOL     OW 2878   2.437   1.865   1.438  0.3077 -0.5164 -0.1854
  960SOL    HW1 2879   2.389   1.945   1.459 -0.3802 -0.9159 -0.1649
  960SOL    HW2 2880   2.368   1.800   1.420  0.8530 -0.8105 -1.3220
  961SOL     OW 2881   1.669   3.150   2.967  0.7616 -0.1780  0.2718
  961SOL    HW1 2882   1.708   3.147   3.055  2.6046  0.7184 -0.4504
  961SOL    HW2 2883   1.618   3.232   2.967 -0.3550 -0.8489  0.9015
  962SOL     OW 2884   1.038   0.955   3.419  0.2103  0.3287 -0.0738
  962SOL    HW1 2885   1.066   0.953   3.510 -2.2476  0.0112  0.7343
  962SOL    HW2 2886   0.986   1.035   3.412 -0.1010  0.0520 -1.0491
  963SOL     OW 2887   0.425   2.509   1.369 -0.2041  0.7342  0.6902
  963SOL    HW1 2888   0.400   2.452   1.296 -1.5304  1.8025  0.2650
  963SOL    HW2 2889   0.487   2.457   1.419  2.1399  0.5751 -2.1076
  964SOL     OW 2890   1.109   2.834   1.730 -0.3334 -0.2732  0.8083
  964SOL    HW1 2891   1.180   2.837   1.794 -0.3436  0.8876  0.7962
  964SOL    HW2 2892   1.039   2.787   1.774  0.7321 -2.3039  0.4757
  965SOL     OW 2893   3.894   3.718   3.899  0.6437  0.0519 -0.2115
  965SOL    HW1 2894   3.863   3.744   3.986 -1.3887  0.1066 -0.8972
  965SOL    HW2 2895   3.988   3.701   3.911  0.2386 -0.9472  2.2069
  966SOL     OW 2896   2.565   2.001   2.626 -0.3632 -0.2890 -0.5107
  966SOL    HW1 2897   2.535   1.922   2.580  1.9842 -1.9750  0.5807
  966SOL    HW2 2898   2.597   1.968   2.710  2.4647  1.4707 -0.7504
  967SOL     OW 2899   2.193   2.063   1.946 -0.8615  0.1898  0.1060
  967SOL    HW1 2900   2.203   2.151   1.910  0.1269 -0.3293 -0.9567
  967SOL    HW2 2901   2.233   2.067   2.032 -0.2946  0.6473 -0.1760
  968SOL     OW 2902   1.547   1.376   1.038  0.4103  0.6111  0.5658
  968SOL    HW1 2903   1.635   1.370   1.001  0.7562  1.2540  1.2811
  968SOL    HW2 2904   1.519   1.285   1.046  0.1848  0.4395 -1.5802
  969SOL     OW 2905   0.629   3.602   2.273  0.5520  0.1251 -0.3990
  969SOL    HW1 2906   0.626   3.563   2.185 -0.4295  0.7633 -0.6650
  969SOL    HW2 2907   0.537   3.609   2.299  0.8579 -0.7826  1.0267
  970SOL     OW 2908   1.145   2.845   1.020 -0.2746 -0.5140 -0.2676
  970SOL    HW1 2909   1.220   2.799   0.983  0.5943  0.7470 -0.0850
  970SOL    HW2 2910   1.078   2.840   0.951  0.5720 -0.1142 -1.1353
  971SOL     OW 2911   3.028   2.122   0.293  0.2468  0.4637  0.0559
  971SOL    HW1 2912   3.040   2.030   0.267 -0.7604 -0.3128  2.0957
  971SOL    HW2 2913   2.940   2.144   0.261  0.6513  0.8863 -0.8010
  972SOL     OW 2914   2.702   3.805   0.971  0.7071  0.2080  0.3639
  972SOL    HW1 2915   2.702   3.897   0.944 -0.1197  0.0312 -0.2729
  972SOL    HW2 2916   2.642   3.802   1.045  2.7227  0.6312  2.1464
  973SOL     OW 2917   0.064   3.286   2.651  0.3540  0.5051 -0.0705
  973SOL    HW1 2918   0.087   3.235   2.573  0.0235  0.4853 -0.1591
  973SOL    HW2 2919   0.135   3.269   2.713  0.9513  1.0273 -0.5925
  974SOL     OW 2920   3.382   0.926  -0.026  0.0777 -0.7103 -0.4172
  974SOL    HW1 2921   3.449   0.964   0.031 -0.5355  0.8707 -0.7258
  974SOL    HW2 2922   3.326   0.876   0.033  0.0330  0.0783  0.2225
  975SOL     OW 2923   3.963   3.068   0.832  0.7982 -0.3801  0.0422
  975SOL    HW1 2924   3.915   3.012   0.893  0.2212 -1.2893 -1.1916
  975SOL    HW2 2925   3.902   3.083   0.760  1.8664 -0.3838 -0.8990
  976SOL     OW 2926   2.706   3.339   3.943 -0.0043  0.3933  0.4054
  976SOL    HW1 2927   2.639   3.324   4.010  0.2357  0.4869  0.6666
  976SOL    HW2 2928   2.788   3.314   3.985  0.1025  0.0600  0.0081
  977SOL     OW 2929   3.549   1.449   3.859 -0.2965  0.0431 -0.2581
  977SOL    HW1 2930   3.598   1.483   3.934 -0.2524 -0.2648 -0.1498
  977SOL    HW2 2931   3.475   1.401   3.897  0.1465 -0.7564 -0.3963
  978SOL     OW 2932   0.429   1.255   3.175  0.0838  0.6208 -0.5138
  978SOL    HW1 2933   0.509   1.293   3.211  1.1585 -0.7505 -1.3229
  978SOL    HW2 2934   0.455   1.223   3.088 -1.3952  0.2922 -0.8675
  979SOL     OW 2935   0.173   0.585   2.313 -0.7565  0.9945  0.0991
  979SOL    HW1 2936   0.176   0.504   2.261  0.3325  1.4849 -0.6549
  979SOL    HW2 2937   0.181   0.556   2.403 -1.3402  0.2039 -0.0873
  980SOL     OW 2938   0.444   2.723   0.529 -0.3005  0.1103  0.1670
  980SOL    HW1 2939   0.496   2.798   0.558  1.6049  0.1580 -2.8458
  980SOL    HW2 2940   0.498   2.647   0.548  0.0225 -0.0209 -1.1542
  981SOL     OW 2941   0.761   3.835   1.057  0.4033 -0.2743 -0.0803
  981SOL    HW1 2942   0.840   3.868   1.099 -1.0636  2.5398  0.7757
  981SOL    HW2 2943   0.696   3.831   1.128 -0.1137 -3.2908 -0.5816
  982SOL     OW 2944   3.514   0.763   3.311 -0.4008  0.4803  0.9619
  982SOL    HW1 2945   3.439   0.719   3.352  0.0340  0.8489  2.1999
  982SOL    HW2 2946   3.582   0.695   3.308 -0.4380  0.4489  0.8454
  983SOL     OW 2947   3.855   0.151   3.020 -0.1157 -0.4099 -0.3820
  983SOL    HW1 2948   3.785   0.209   3.050 -1.6964 -2.8687  0.9650
  983SOL    HW2 2949   3.869   0.090   3.092  2.3581 -0.9739 -1.2518
  984SOL     OW 2950   0.026   0.163   2.791 -0.4190 -0.3432  0.2220
  984SOL    HW1 2951  -0.045   0.164   2.856 -2.5900  2.7521 -1.8890
  984SOL    HW2 2952   0.038   0.071   2.769 -2.6815 -1.1105  1.8610
  985SOL     OW 2953   1.522   1.734   1.274 -0.3304  0.5008  0.4485
  985SOL    HW1 2954   1.473   1.815   1.261  3.1759  2.4200 -3.1585
  985SOL    HW2 2955   1.479   1.670   1.217 -1.3747  0.6528  1.0422
  986SOL     OW 2956   2.059   0.395   1.476  0.1546  0.9918 -0.1388
  986SOL    HW1 2957   2.036   0.466   1.535 -1.0632 -0.0539  0.6850
  986SOL    HW2 2958   2.110   0.437   1.407 -0.5136  2.6540  0.3370
  987SOL     OW 2959   1.482   3.341   0.856 -0.3215 -0.3783 -0.0940
  987SOL    HW1 2960   1.452   3.431   0.862  2.5284  0.6856 -0.1173
  987SOL    HW2 2961   1.458   3.301   0.939 -1.6961  0.3506 -0.1233
  988SOL     OW 2962   2.649   1.090   0.254  0.5680 -0.2566 -0.2919
  988SOL    HW1 2963   2.555   1.101   0.240  0.3569 -1.0688  0.3707
  988SOL    HW2 2964   2.684   1.069   0.168  0.1859  0.3232 -0.5918
  989SOL     OW 2965   2.083   0.128   2.264  0.4500  0.0065 -0.5561
  989SOL    HW1 2966   2.080   0.142   2.358 -0.8631  3.6970 -0.9707
  989SOL    HW2 2967   2.023   0.055   2.248  1.7808 -1.6414  1.4823
  990SOL     OW 2968   1.717   1.769   1.092 -0.1222  0.4673 -0.0418
  990SOL    HW1 2969   1.651   1.745   1.028 -0.7046 -0.9301  1.0406
  990SOL    HW2 2970   1.673   1.762   1.176  1.2000  0.1961  0.6557
  991SOL     OW 2971   0.273   2.729   1.387 -0.3818  0.0769  0.6259
  991SOL    HW1 2972   0.322   2.647   1.385 -0.6220 -0.0566 -0.8884
  991SOL    HW2 2973   0.340   2.798   1.385 -0.2158 -0.0997 -0.1669
  992SOL     OW 2974   3.516   3.986   2.408  0.5262 -0.1837 -0.1569
  992SOL    HW1 2975   3.506   3.899   2.444 -0.1859  0.6185  1.6891
  992SOL    HW2 2976   3.610   4.005   2.415  0.5322 -0.4096  0.3584
  993SOL     OW 2977   0.338   2.135   2.540  0.2848 -0.1313  0.8871
  993SOL    HW1 2978   0.414   2.161   2.489 -0.2832  0.1707  0.1792
  993SOL    HW2 2979   0.272   2.201   2.519 -0.4995 -0.9644  0.7014
  994SOL     OW 2980   0.494   3.457   0.184  0.1933  0.4693 -0.5465
  994SOL    HW1 2981   0.510   3.386   0.121 -1.5994 -0.4727 -0.0234
  994SOL    HW2 2982   0.518   3.419   0.269 -0.8470  0.4209 -0.2566
  995SOL     OW 2983   2.261   3.328   3.474 -0.1972  0.6391 -0.0786
  995SOL    HW1 2984   2.249   3.418   3.504 -1.6426  0.5445 -0.3019
  995SOL    HW2 2985   2.249   3.275   3.552  2.0125  0.6580  0.3488
  996SOL     OW 2986   3.845   0.961   1.434 -0.1389  0.0537 -0.0955
  996SOL    HW1 2987   3.844   1.057   1.428  0.5442  0.0061 -1.1872
  996SOL    HW2 2988   3.845   0.944   1.528  0.3649  1.1444  0.1281
  997SOL     OW 2989   3.887   3.170   2.863  0.1041  0.3264 -0.6316
  997SOL    HW1 2990   3.946   3.175   2.789  1.8699  1.9653  0.7850
  997SOL    HW2 2991   3.803   3.200   2.829  0.1356 -1.5647 -2.5724
  998SOL     OW 2992   2.921   3.171   0.126 -0.1312 -0.5436  0.3595
  998SOL    HW1 2993   2.991   3.200   0.184  0.5887 -2.2962  0.4367
  998SOL    HW2 2994   2.858   3.129   0.185  1.1992 -3.4872 -0.1144
  999SOL     OW 2995   2.271   2.759   3.566  0.0367  0.6048  0.0356
  999SOL    HW1 2996   2.341   2.760   3.631  1.0231 -0.8749 -0.9427
  999SOL    HW2 2997   2.305   2.808   3.492  0.5682 -1.0645 -0.8901
 1000SOL     OW 2998   3.693   3.597   0.310  0.0219 -0.1877  0.3569
 1000SOL    HW1 2999   3.680   3.670   0.249 -0.1175 -1.7359 -1.5437
 1000SOL    HW2 3000   3.614   3.543   0.301  0.2442 -0.7525  1.5322
 1001SOL     OW 3001   2.190   0.673   0.673  0.0160 -0.1752 -0.8608
 1001SOL    HW1 3002   2.138   0.749   0.699 -0.2855 -0.5694 -0.2968
 1001SOL    HW2 3003   2.277   0.709   0.656  0.1081  0.1640  0.2526
 1002SOL     OW 3004   2.094   1.131   1.104 -0.5846  0.7287 -0.1644
 1002SOL    HW1 3005   2.174   1.080   1.095 -1.0986 -0.4378  1.4990
 1002SOL    HW2 3006   2.058   1.136   1.015  0.7594  0.3447 -0.7437
 1003SOL     OW 3007   2.371   3.878   1.351 -0.0974  0.8078  0.1721
 1003SOL    HW1 3008   2.277   3.882   1.368 -0.5136 -0.0294 -1.7261
 1003SOL    HW2 3009   2.409   3.850   1.435 -1.5393  0.9473  0.9081
 1004SOL     OW 3010   2.754   0.102   1.686 -0.0278 -0.3604  0.0893
 1004SOL    HW1 3011   2.834   0.154   1.694 -0.3821  0.0917  0.9023
 1004SOL    HW2 3012   2.744   0.061   1.772 -1.4501  0.7932  0.5263
 1005SOL     OW 3013   3.352   0.426   1.802  0.0010 -0.2588  0.6871
 1005SOL    HW1 3014   3.312   0.497   1.853 -1.7845 -0.7465  0.0505
 1005SOL    HW2 3015   3.357   0.352   1.863  0.9417  0.1061  1.0674
 1006SOL     OW 3016   0.975   1.890   1.374 -0.6188  0.5390  0.1941
 1006SOL    HW1 3017   0.952   1.952   1.444  1.0833  0.5786  0.7632
 1006SOL    HW2 3018   1.010   1.814   1.421  0.3489  0.4790 -0.5946
 1007SOL     OW 3019   3.731   0.711   1.288  0.1541 -0.0450  0.3273
 1007SOL    HW1 3020   3.651   0.670   1.257 -2.1501  3.7773  0.6495
 1007SOL    HW2 3021   3.735   0.690   1.381 -1.3151  0.8596  0.6228
 1008SOL     OW 3022   2.151   1.300   1.367  0.3292  0.1774  0.6456
 1008SOL    HW1 3023   2.095   1.268   1.297  1.2958  0.3034 -0.2129
 1008SOL    HW2 3024   2.146   1.396   1.360  0.8811  0.1922  0.3529
 1009SOL     OW 3025   3.901  -0.021   0.808 -0.7688  0.2351  0.6976
 1009SOL    HW1 3026   3.933   0.019   0.888  0.4732 -0.2674  0.4910
 1009SOL    HW2 3027   3.911   0.046   0.741 -0.6307  0.2488  0.7325
 1010SOL     OW 3028   0.090   3.425   3.390 -0.0244 -0.7393  0.0334
 1010SOL    HW1 3029   0.061   3.422   3.481 -0.1993 -2.7414 -0.0338
 1010SOL    HW2 3030   0.182   3.449   3.394  0.4416 -2.5031  0.9085
 1011SOL     OW 3031   3.371   3.379   3.307 -0.3900  0.3024  1.5244
 1011SOL    HW1 3032   3.441   3.384   3.241 -2.7416 -1.6490 -1.4193
 1011SOL    HW2 3033   3.416   3.355   3.388  2.4629  0.4644  0.1119
 1012SOL     OW 3034   0.696   0.274   2.757  0.3018 -0.2932  0.3272
 1012SOL    HW1 3035   0.690   0.180   2.737 -0.9553 -0.2951  0.5942
 1012SOL    HW2 3036   0.708   0.316   2.672  1.1068 -0.6997  0.2290
 1013SOL     OW 3037   2.879   0.690   0.655  0.1673 -0.2791  0.2433
 1013SOL    HW1 3038   2.831   0.727   0.728  3.8636  2.3212  1.6662
 1013SOL    HW2 3039   2.843   0.734   0.578 -1.4966 -0.5282  0.8364
 1014SOL     OW 3040   3.278   0.639   1.948  0.1737 -0.4270  0.5679
 1014SOL    HW1 3041   3.299   0.697   1.875  0.5222 -1.0188  0.1846
 1014SOL    HW2 3042   3.270   0.697   2.023  0.7990  0.0862  0.2503
 1015SOL     OW 3043   3.751   1.645   1.581 -1.1126 -0.1743  0.3094
 1015SOL    HW1 3044   3.748   1.740   1.594 -3.9957 -0.1481  0.0987
 1015SOL    HW2 3045   3.662   1.622   1.554 -0.2257 -2.8257 -0.6280
 1016SOL     OW 3046   2.635   2.447   2.995 -0.2938  0.8334  1.0517
 1016SOL    HW1 3047   2.726   2.473   3.010 -0.1007  0.9371 -0.1674
 1016SOL    HW2 3048   2.618   2.378   3.059  1.4517 -0.9566 -0.3139
 1017SOL     OW 3049   2.063   2.020   2.329  0.0448 -0.0553 -0.0778
 1017SOL    HW1 3050   2.039   2.107   2.363  1.7520  0.2557  0.4478
 1017SOL    HW2 3051   2.113   1.980   2.400 -0.7759 -1.5210 -0.2951
 1018SOL     OW 3052   3.734   2.728   0.566  0.0082  0.2976  0.2890
 1018SOL    HW1 3053   3.702   2.746   0.477 -0.8148  1.8609  0.8649
 1018SOL    HW2 3054   3.663   2.756   0.623 -0.1205 -2.1527  1.4292
 1019SOL     OW 3055   1.540   1.717   1.627  0.5231  0.3890 -0.0221
 1019SOL    HW1 3056   1.480   1.755   1.563  0.4264  0.1426 -0.0780
 1019SOL    HW2 3057   1.522   1.765   1.708 -1.0113 -0.8553  0.4347
 1020SOL     OW 3058   2.174   1.862   1.742  0.1770 -0.7611 -0.5835
 1020SOL    HW1 3059   2.178   1.925   1.814  1.6411 -2.5761  1.0150
 1020SOL    HW2 3060   2.138   1.912   1.669  0.4030  1.6626  0.8596
 1021SOL     OW 3061   2.463   2.319   0.005  0.2654  0.0565 -0.5921
 1021SOL    HW1 3062   2.373   2.329   0.034  0.0104 -0.4432 -1.1953
 1021SOL    HW2 3063   2.515   2.329   0.085 -0.3533 -0.1726 -0.1552
 1022SOL     OW 3064   1.505   0.090   0.466  0.5456  0.0171 -0.0052
 1022SOL    HW1 3065   1.435   0.059   0.407  1.7659  0.5910 -1.8521
 1022SOL    HW2 3066   1.580   0.035   0.445  0.7601 -0.4188  1.7796
 1023SOL     OW 3067   2.170   1.939   0.258  0.4274 -0.2468  0.1518
 1023SOL    HW1 3068   2.148   2.008   0.195  4.1183  0.5205 -0.5177
 1023SOL    HW2 3069   2.215   1.984   0.329  2.6809 -1.8528 -0.1560
 1024SOL     OW 3070   3.590   3.509   0.915 -0.3785  0.5283  0.2773
 1024SOL    HW1 3071   3.641   3.586   0.892  0.0335  0.3940  0.7232
 1024SOL    HW2 3072   3.594   3.454   0.836  0.3569  0.4214  0.3788
 1025SOL     OW 3073   1.030   1.530   3.554  0.3255  0.9310 -0.0990
 1025SOL    HW1 3074   1.042   1.553   3.462 -1.6238  0.6995 -0.4454
 1025SOL    HW2 3075   1.097   1.463   3.571 -0.3125 -0.2006 -1.8059
 1026SOL     OW 3076   2.148   0.736   3.296 -0.1616  0.1174 -0.1593
 1026SOL    HW1 3077   2.163   0.819   3.251  2.3420  0.0012  0.2793
 1026SOL    HW2 3078   2.208   0.675   3.253  1.4257 -0.2975  2.4365
 1027SOL     OW 3079   3.218   2.378   3.737  0.5756  0.5062 -0.1620
 1027SOL    HW1 3080   3.179   2.349   3.654 -0.7150  1.0151  0.2299
 1027SOL    HW2 3081   3.285   2.442   3.711 -0.5171  1.4427 -0.8095
 1028SOL     OW 3082   1.148   2.519   3.062 -0.0835 -0.6016  0.4137
 1028SOL    HW1 3083   1.094   2.512   2.983 -0.5192  0.3662  0.6093
 1028SOL    HW2 3084   1.200   2.599   3.048  1.6849 -1.7711  0.0097
 1029SOL     OW 3085   1.495   1.866   3.093 -0.3150 -0.1702 -0.1058
 1029SOL    HW1 3086   1.434   1.804   3.131  1.7949 -2.3944 -0.0682
 1029SOL    HW2 3087   1.533   1.912   3.168 -0.5110 -0.2154  0.0197
 1030SOL     OW 3088   2.259   0.946   1.621 -0.3485 -0.1750  0.3909
 1030SOL    HW1 3089   2.327   0.967   1.556  0.0998  0.4456  1.0520
 1030SOL    HW2 3090   2.207   0.878   1.578 -0.2779  0.4631 -0.7693
 1031SOL     OW 3091   3.050   3.220   0.370  0.8972  0.1069  0.2481
 1031SOL    HW1 3092   2.985   3.150   0.378  1.0032 -0.2191 -1.4157
 1031SOL    HW2 3093   3.113   3.203   0.439 -0.5793  0.2181  1.6718
 1032SOL     OW 3094   1.008   2.479   2.842  0.0508  0.4019  0.2955
 1032SOL    HW1 3095   1.056   2.457   2.762 -0.2388  2.5339 -0.5242
 1032SOL    HW2 3096   0.938   2.413   2.846 -0.2112  0.5298 -1.4784
 1033SOL     OW 3097   1.918   0.917   1.768 -0.3883 -0.1599 -0.5606
 1033SOL    HW1 3098   1.901   0.875   1.852  1.6878 -1.1375 -0.5688
 1033SOL    HW2 3099   2.001   0.880   1.739  0.2193  2.0188 -1.8483
 1034SOL     OW 3100   0.201   0.969   0.144  0.5263 -0.2739  0.5103
 1034SOL    HW1 3101   0.205   0.993   0.051 -0.9256  0.0436  0.5126
 1034SOL    HW2 3102   0.209   0.874   0.145  0.3862 -0.2910  0.0436
 1035SOL     OW 3103   2.101   3.456   3.121 -0.1828  0.5582 -0.3881
 1035SOL    HW1 3104   2.068   3.446   3.211 -1.3447  3.3675 -0.4087
 1035SOL    HW2 3105   2.108   3.366   3.089 -1.6373 -0.4585  1.8443
 1036SOL     OW 3106   1.498   3.854   1.728  0.3784 -0.0763 -0.1324
 1036SOL    HW1 3107   1.408   3.888   1.732  0.3105 -0.3277  0.7545
 1036SOL    HW2 3108   1.506   3.800   1.806  1.8831  1.4010  0.7983
 1037SOL     OW 3109   0.229   1.907   2.610 -0.1362 -0.1125  0.6457
 1037SOL    HW1 3110   0.272   1.983   2.571  2.7312 -1.5604  0.6416
 1037SOL    HW2 3111   0.282   1.888   2.688 -0.5514 -2.2721  0.4609
 1038SOL     OW 3112   1.969   1.572   1.358 -0.0459 -0.2516  0.0093
 1038SOL    HW1 3113   1.896   1.514   1.336 -1.3752  1.4719 -0.3851
 1038SOL    HW2 3114   1.956   1.593   1.450 -2.7357  3.4273 -0.9843
 1039SOL     OW 3115   0.252   1.923   3.410 -0.1154  0.2512  0.4879
 1039SOL    HW1 3116   0.277   1.890   3.496 -1.4314 -0.1703  0.7238
 1039SOL    HW2 3117   0.171   1.972   3.426 -0.5643 -0.1335 -0.5696
 1040SOL     OW 3118   1.471   2.587   1.393  0.8815 -0.4663  0.8932
 1040SOL    HW1 3119   1.556   2.549   1.370  1.4281  0.2981  1.5588
 1040SOL    HW2 3120   1.416   2.512   1.413  1.9971 -0.9376  2.3993
 1041SOL     OW 3121   2.980   0.289   0.670  0.4227 -0.6293 -0.3518
 1041SOL    HW1 3122   2.891   0.254   0.675 -1.3492  3.2709 -0.2617
 1041SOL    HW2 3123   2.993   0.307   0.577  0.1252  0.8155 -0.1439
 1042SOL     OW 3124   1.346   2.432   0.519  0.5646 -0.2123  0.1397
 1042SOL    HW1 3125   1.340   2.346   0.479  2.9577 -0.3404 -0.1167
 1042SOL    HW2 3126   1.278   2.484   0.477 -2.0748 -2.3415  1.4774
 1043SOL     OW 3127   2.230   2.488   3.546  0.7173 -0.2815  0.0671
 1043SOL    HW1 3128   2.246   2.582   3.534  1.0805 -0.4286 -0.6201
 1043SOL    HW2 3129   2.316   2.451   3.562  0.5771 -0.5051  0.2977
 1044SOL     OW 3130   1.547   1.460   1.853  0.3327  0.4878 -0.1835
 1044SOL    HW1 3131   1.551   1.555   1.842 -0.5990  0.4450 -1.0416
 1044SOL    HW2 3132   1.522   1.427   1.766  0.2768 -0.5075  0.1992
 1045SOL     OW 3133   1.601   0.863   2.333  0.5647  0.2868 -0.0007
 1045SOL    HW1 3134   1.696   0.871   2.327  0.6247 -0.5930 -0.3401
 1045SOL    HW2 3135   1.577   0.803   2.262 -0.2234  0.3747  0.1795
 1046SOL     OW 3136   1.215   3.261   3.010 -0.0942  0.6960  0.0403
 1046SOL    HW1 3137   1.161   3.321   3.061 -0.3045  1.2132 -0.7745
 1046SOL    HW2 3138   1.292   3.312   2.986 -0.3375  0.7069 -0.7715
 1047SOL     OW 3139   0.016   1.328   0.127 -0.4453  0.0353  0.5002
 1047SOL    HW1 3140  -0.013   1.419   0.133  0.7538  0.5678 -1.0705
 1047SOL    HW2 3141   0.111   1.332   0.138 -0.3764 -1.0203  0.3717
 1048SOL     OW 3142   2.028   2.936   0.295  0.2363  0.3864 -0.4565
 1048SOL    HW1 3143   1.938   2.943   0.262 -0.4963  1.8438  1.6003
 1048SOL    HW2 3144   2.022   2.874   0.367  1.5566 -1.8113 -2.1165
 1049SOL     OW 3145   0.200   2.361   2.493  0.1104  0.9208 -0.0429
 1049SOL    HW1 3146   0.131   2.330   2.434  0.7723  1.7958 -1.3169
 1049SOL    HW2 3147   0.182   2.454   2.505  2.0344  1.6171 -1.8840
 1050SOL     OW 3148   0.923   0.546   0.173  0.1492  0.4937  0.3673
 1050SOL    HW1 3149   0.982   0.508   0.238 -0.2355 -1.4937 -0.3808
 1050SOL    HW2 3150   0.836   0.518   0.200 -0.1671  0.9233 -0.1830
 1051SOL     OW 3151   0.782   3.923   2.075 -1.1756  0.0342 -0.4083
 1051SOL    HW1 3152   0.861   3.880   2.042 -1.1886  0.2015 -0.6612
 1051SOL    HW2 3153   0.763   3.878   2.157 -0.2167  0.6873  0.2019
 1052SOL     OW 3154   2.253   1.547   3.227  0.3756  0.2155 -0.0498
 1052SOL    HW1 3155   2.223   1.532   3.317  0.9494  1.5690  0.3989
 1052SOL    HW2 3156   2.186   1.604   3.189  0.6192  0.4305 -0.1594
 1053SOL     OW 3157   0.118   0.698   3.505  0.0644  0.0682  0.4184
 1053SOL    HW1 3158   0.182   0.631   3.479 -0.0114 -0.6858  2.0514
 1053SOL    HW2 3159   0.033   0.660   3.483  0.1142  1.1058 -1.8307
 1054SOL     OW 3160   2.940   2.763   0.705 -0.0331 -0.1602 -0.3255
 1054SOL    HW1 3161   2.845   2.753   0.712 -0.4235  2.2417 -1.1457
 1054SOL    HW2 3162   2.971   2.761   0.795 -1.0144  0.1390  0.0408
 1055SOL     OW 3163   1.606   2.744   2.953 -0.1188 -0.5254 -0.1982
 1055SOL    HW1 3164   1.645   2.681   2.893  0.7693 -0.5365  0.3715
 1055SOL    HW2 3165   1.517   2.712   2.968 -0.7235  0.0336 -2.2930
 1056SOL     OW 3166   0.039   2.624   3.539 -0.2277  0.3569  0.9409
 1056SOL    HW1 3167   0.039   2.691   3.607 -0.6315  1.7999 -0.4526
 1056SOL    HW2 3168  -0.053   2.613   3.515 -0.0246  0.3481  0.1497
 1057SOL     OW 3169   0.243   1.890   1.417  0.1345  0.4530 -0.9344
 1057SOL    HW1 3170   0.322   1.943   1.430  0.7972 -0.7691  0.3518
 1057SOL    HW2 3171   0.277   1.803   1.392 -0.8867  0.3895 -2.2122
 1058SOL     OW 3172   2.782   2.795   1.928  0.2183  0.2178  1.0908
 1058SOL    HW1 3173   2.755   2.795   1.836  0.1881  0.8983  1.0993
 1058SOL    HW2 3174   2.727   2.728   1.969 -0.9057  1.0359  0.9502
 1059SOL     OW 3175   1.396   3.708   2.678 -0.4704  0.3745 -0.5100
 1059SOL    HW1 3176   1.349   3.788   2.700  0.8075  0.4500  2.3861
 1059SOL    HW2 3177   1.331   3.653   2.635 -2.5991  1.3190  1.3144
 1060SOL     OW 3178   2.297   2.607   2.048  0.2367 -0.5202  0.6019
 1060SOL    HW1 3179   2.358   2.538   2.021  2.0252  1.8361 -1.9300
 1060SOL    HW2 3180   2.346   2.656   2.114 -0.4192 -0.7453  1.2658
 1061SOL     OW 3181  -0.006   1.837   2.994 -0.7682  0.0878  0.2159
 1061SOL    HW1 3182  -0.032   1.782   2.920 -0.4090  1.3977 -0.9196
 1061SOL    HW2 3183   0.078   1.801   3.021  1.0353  1.8574 -2.5359
 1062SOL     OW 3184   2.217   1.792   2.882  0.2439 -0.3558  0.0706
 1062SOL    HW1 3185   2.255   1.861   2.829 -0.5182  0.4326  0.5199
 1062SOL    HW2 3186   2.216   1.715   2.825  1.3984 -0.0854 -0.3218
 1063SOL     OW 3187   1.377   1.177   3.448 -0.0797  0.2750 -0.6120
 1063SOL    HW1 3188   1.388   1.175   3.353 -0.4651  1.9096 -0.7118
 1063SOL    HW2 3189   1.454   1.131   3.481  0.0117 -0.4050 -1.7049
 1064SOL     OW 3190   2.673   0.692   3.019  0.5782 -0.2603  0.4199
 1064SOL    HW1 3191   2.635   0.772   3.054  1.4882  1.0417 -1.3896
 1064SOL    HW2 3192   2.736   0.722   2.954  0.6769 -2.4685 -0.5996
 1065SOL     OW 3193   2.214   0.370   2.844  0.9683  0.5952 -0.9449
 1065SOL    HW1 3194   2.145   0.435   2.859 -1.6214 -2.1353 -0.2467
 1065SOL    HW2 3195   2.224   0.367   2.749  1.2243  2.0104 -0.9928
 1066SOL     OW 3196   0.805   1.625   3.692  0.3396  0.4178 -0.3232
 1066SOL    HW1 3197   0.772   1.538   3.711 -1.4201  0.4418 -2.7949
 1066SOL    HW2 3198   0.880   1.611   3.635  0.6307  0.5223  0.0273
 1067SOL     OW 3199   3.307   1.229   3.926  0.3035  0.4814 -0.1928
 1067SOL    HW1 3200   3.352   1.222   3.842  0.7795  0.0919  0.0850
 1067SOL    HW2 3201   3.335   1.150   3.974 -2.4308 -0.9918 -0.8447
 1068SOL     OW 3202   0.907   2.999   3.294  0.4632  0.5424  1.0163
 1068SOL    HW1 3203   0.949   2.949   3.364  1.4303 -0.9979 -0.5563
 1068SOL    HW2 3204   0.858   2.934   3.244  2.7174  0.7573 -1.8044
 1069SOL     OW 3205   2.242   3.696   2.627 -0.2749 -0.4479 -0.3591
 1069SOL    HW1 3206   2.161   3.672   2.672 -0.1478 -1.2178 -0.5302
 1069SOL    HW2 3207   2.229   3.667   2.536  1.0367 -2.6362  0.0848
 1070SOL     OW 3208   2.745   2.516   2.767 -0.3120 -0.0062 -0.0174
 1070SOL    HW1 3209   2.711   2.516   2.857 -2.6315 -0.2943 -0.8110
 1070SOL    HW2 3210   2.818   2.454   2.769 -3.0189 -3.5514  0.8380
 1071SOL     OW 3211   2.048   0.954   3.906  0.0762 -0.1358 -0.0644
 1071SOL    HW1 3212   1.954   0.969   3.917  0.0745  0.3034 -0.6449
 1071SOL    HW2 3213   2.084   0.960   3.994 -0.6675 -1.9510  0.4081
 1072SOL     OW 3214   1.555   2.489   2.802 -0.4975  0.5290  0.1176
 1072SOL    HW1 3215   1.484   2.470   2.740 -1.3557  1.9542  0.5936
 1072SOL    HW2 3216   1.525   2.452   2.885 -1.2527  2.0339  0.5743
 1073SOL     OW 3217   1.682   3.552   4.014  0.1964 -0.3654 -0.5137
 1073SOL    HW1 3218   1.646   3.538   3.926  0.2029  1.1468 -0.7829
 1073SOL    HW2 3219   1.625   3.619   4.052 -0.0391 -1.2820  0.7987
 1074SOL     OW 3220   1.607   0.174   0.703 -0.4951 -0.3870  0.3130
 1074SOL    HW1 3221   1.686   0.130   0.670 -0.4798 -0.0325 -0.1413
 1074SOL    HW2 3222   1.547   0.173   0.629 -0.7827 -0.3375  0.5469
 1075SOL     OW 3223   1.945   2.392   0.905 -0.2207  0.7401  0.2148
 1075SOL    HW1 3224   1.943   2.331   0.831 -0.7829 -0.3935  1.1401
 1075SOL    HW2 3225   2.005   2.462   0.876 -2.3728  1.7033 -2.3513
 1076SOL     OW 3226   2.084   3.141   1.878  0.0099  0.0332 -0.2955
 1076SOL    HW1 3227   2.100   3.183   1.962 -1.4329 -1.2194  0.6687
 1076SOL    HW2 3228   2.116   3.052   1.889 -1.9840 -0.7457 -0.3287
 1077SOL     OW 3229   1.544   2.926   2.014 -0.3551  0.0584  0.2696
 1077SOL    HW1 3230   1.589   2.880   2.085  1.3972  1.9364  0.4883
 1077SOL    HW2 3231   1.608   2.930   1.943 -1.9239 -1.3886 -1.3184
 1078SOL     OW 3232   3.884   1.716   2.766 -0.1223 -0.6238 -0.2932
 1078SOL    HW1 3233   3.797   1.679   2.753  0.7114 -2.3399 -1.4094
 1078SOL    HW2 3234   3.896   1.775   2.691  0.2470 -1.6062 -1.0327
 1079SOL     OW 3235   2.308   2.025   3.920 -0.1842 -0.5577 -0.1994
 1079SOL    HW1 3236   2.352   1.995   4.000  1.3261  0.0346 -0.7691
 1079SOL    HW2 3237   2.218   2.042   3.947  0.4185  0.1504  1.5197
 1080SOL     OW 3238   3.665   1.147   2.100  0.0592  0.0921 -0.7844
 1080SOL    HW1 3239   3.722   1.097   2.159 -0.1530  0.5175 -0.2133
 1080SOL    HW2 3240   3.726   1.194   2.043  0.3600  1.6283  0.7118
 1081SOL     OW 3241   1.154   2.637   1.549 -0.3136 -0.0670  0.4601
 1081SOL    HW1 3242   1.124   2.718   1.590 -0.2289  1.0121 -1.5430
 1081SOL    HW2 3243   1.079   2.578   1.556 -0.0273 -0.2498  2.8762
 1082SOL     OW 3244   3.892   1.512   3.848  0.0357 -0.4577  0.6389
 1082SOL    HW1 3245   3.978   1.498   3.888  2.4604  0.2056 -3.7307
 1082SOL    HW2 3246   3.847   1.428   3.859  1.1221 -0.8182  3.0536
 1083SOL     OW 3247   1.960   1.817   0.630 -1.1848  0.4997  0.0101
 1083SOL    HW1 3248   1.910   1.873   0.570 -1.2325 -0.6216 -1.0379
 1083SOL    HW2 3249   1.982   1.740   0.578  1.3140  0.7604  0.5382
 1084SOL     OW 3250   0.397   1.936   0.103 -0.4029  0.3374 -0.7143
 1084SOL    HW1 3251   0.417   2.027   0.083  1.5578  0.0991 -0.0382
 1084SOL    HW2 3252   0.321   1.940   0.162  1.2622  1.7708  1.5229
 1085SOL     OW 3253   1.570   3.601   3.777  0.6493 -0.1860  0.1035
 1085SOL    HW1 3254   1.512   3.649   3.718  0.6518 -2.5050 -1.9357
 1085SOL    HW2 3255   1.656   3.643   3.766  0.1348  1.0177  0.4792
 1086SOL     OW 3256   0.800   3.793   2.324  0.1223  0.7176  0.1120
 1086SOL    HW1 3257   0.895   3.781   2.326  0.1440  0.8634  1.9261
 1086SOL    HW2 3258   0.764   3.706   2.341 -0.0745  0.6909 -0.4183
 1087SOL     OW 3259   1.333   3.919   3.163  0.1498  1.5074 -0.6823
 1087SOL    HW1 3260   1.409   3.915   3.221 -0.9719 -0.4937  0.7719
 1087SOL    HW2 3261   1.317   3.828   3.137 -0.9865  2.0345 -2.0233
 1088SOL     OW 3262   1.564   3.372   1.744 -0.5940  0.0276  0.1060
 1088SOL    HW1 3263   1.646   3.323   1.742 -0.5659 -0.0272  1.6626
 1088SOL    HW2 3264   1.574   3.434   1.816 -1.4410  0.8946 -0.4902
 1089SOL     OW 3265   1.090   3.024   2.891  0.1177  0.2397 -0.1111
 1089SOL    HW1 3266   1.094   3.014   2.796  1.5669  0.0599 -0.0616
 1089SOL    HW2 3267   1.108   3.116   2.907  1.1259  0.0301  0.0256
 1090SOL     OW 3268   1.014   2.320   3.590 -0.1835 -0.8123  0.2653
 1090SOL    HW1 3269   0.987   2.333   3.499  2.4080 -0.8025 -0.5849
 1090SOL    HW2 3270   1.017   2.224   3.600  0.9652 -0.8316 -0.1592
 1091SOL     OW 3271   3.730   1.616   2.156 -0.1724  0.6862 -0.1336
 1091SOL    HW1 3272   3.755   1.530   2.189  2.0607  0.8824 -1.1326
 1091SOL    HW2 3273   3.769   1.678   2.217  1.5098  0.9995 -1.4676
 1092SOL     OW 3274   1.289   0.932   2.793  0.0022 -0.3920  0.6527
 1092SOL    HW1 3275   1.330   0.914   2.877  0.2349  3.2128  1.4466
 1092SOL    HW2 3276   1.280   1.027   2.790 -1.9996 -0.5363 -2.4866
 1093SOL     OW 3277   4.014   1.493   2.900 -0.0207 -0.0360  0.6257
 1093SOL    HW1 3278   3.949   1.564   2.909 -0.3472  0.0118 -1.4791
 1093SOL    HW2 3279   4.008   1.445   2.982 -1.0645  1.3394  1.4126
 1094SOL     OW 3280   2.084   2.274   1.251  0.8062 -0.4697 -0.0905
 1094SOL    HW1 3281   2.027   2.316   1.186  1.2208  0.8173  0.3454
 1094SOL    HW2 3282   2.162   2.330   1.254  0.9868 -0.7529  1.1832
 1095SOL     OW 3283   1.993   0.314   2.059 -0.4309  0.3724 -0.4133
 1095SOL    HW1 3284   2.056   0.386   2.065 -0.2334  0.1733  0.0168
 1095SOL    HW2 3285   2.020   0.254   2.129  0.5700 -1.0474 -1.9657
 1096SOL     OW 3286   3.055   0.876   2.888  0.6060 -0.5778 -0.4323
 1096SOL    HW1 3287   3.071   0.850   2.978  1.3435 -0.8725 -0.6433
 1096SOL    HW2 3288   3.119   0.946   2.871  0.5737 -0.6278 -0.7703
 1097SOL     OW 3289   2.659   3.654   3.577 -0.2780 -0.0503  0.3219
 1097SOL    HW1 3290   2.728   3.710   3.612  0.5568  0.5615 -2.0786
 1097SOL    HW2 3291   2.682   3.566   3.606  0.0251  0.4764  1.7314
 1098SOL     OW 3292   2.263   0.677   1.518 -0.1595 -0.1424  0.0962
 1098SOL    HW1 3293   2.354   0.646   1.524 -1.5055 -4.7978  0.2402
 1098SOL    HW2 3294   2.213   0.614   1.569 -3.5719  2.1966 -0.0730
 1099SOL     OW 3295   2.786   1.487   3.144  0.1566  0.1674 -0.1792
 1099SOL    HW1 3296   2.749   1.449   3.065  0.1627  1.3272 -0.7567
 1099SOL    HW2 3297   2.849   1.422   3.174  0.3218 -0.1908 -1.2583
 1100SOL     OW 3298   3.145   3.013   1.149 -0.4266  0.8591 -0.3555
 1100SOL    HW1 3299   3.086   2.949   1.109  0.2411 -1.7151  2.3346
 1100SOL    HW2 3300   3.088   3.072   1.197 -1.0874 -1.8389  2.5557
 1101SOL     OW 3301   2.602   1.135   3.206  0.6440  0.5340  0.1413
 1101SOL    HW1 3302   2.523   1.130   3.153  0.0060 -0.9986  1.1673
 1101SOL    HW2 3303   2.631   1.226   3.198  0.2810  0.5129 -2.3474
 1102SOL     OW 3304   0.607   2.992   2.491 -0.0610 -0.1890  0.3290
 1102SOL    HW1 3305   0.667   3.012   2.419  1.2882  0.7954  1.6772
 1102SOL    HW2 3306   0.549   3.068   2.497 -3.0292 -1.9910 -2.3479
 1103SOL     OW 3307   1.765   0.659   0.897  0.0823 -0.1399  0.2742
 1103SOL    HW1 3308   1.740   0.579   0.943 -0.4957  0.0760  0.3528
 1103SOL    HW2 3309   1.853   0.679   0.928  0.1668 -0.6545  0.3748
 1104SOL     OW 3310   3.057   0.049   2.534 -0.1463  0.2137 -0.0589
 1104SOL    HW1 3311   3.124   0.019   2.472  1.6718  0.1839  1.8026
 1104SOL    HW2 3312   3.017  -0.031   2.567 -0.2913  0.1789 -0.3163
 1105SOL     OW 3313   0.469   3.689   2.575 -0.7870 -0.2119 -0.2119
 1105SOL    HW1 3314   0.424   3.661   2.496  1.5723 -2.6513 -0.8400
 1105SOL    HW2 3315   0.434   3.632   2.644  0.6305 -1.5550 -0.5472
 1106SOL     OW 3316   2.366   2.873   1.174 -0.5049  0.0635 -0.1557
 1106SOL    HW1 3317   2.445   2.923   1.197 -0.2646 -0.1552 -0.4823
 1106SOL    HW2 3318   2.390   2.829   1.092 -1.4599  1.1365 -1.0353
 1107SOL     OW 3319   1.699   2.777   1.598 -0.6147  0.0815 -0.1684
 1107SOL    HW1 3320   1.701   2.848   1.533  0.7450  0.3502  0.1206
 1107SOL    HW2 3321   1.611   2.780   1.634 -2.8601 -2.5087 -4.5438
 1108SOL     OW 3322   0.480   1.387   0.788  0.2263 -0.5701 -0.2278
 1108SOL    HW1 3323   0.529   1.330   0.728  0.8284 -1.7699  1.3437
 1108SOL    HW2 3324   0.419   1.329   0.833  2.3650 -0.5356  3.0197
 1109SOL     OW 3325   1.326   1.888   1.500 -0.1377  0.4542  0.6748
 1109SOL    HW1 3326   1.236   1.861   1.519  0.3676 -1.4502  0.5590
 1109SOL    HW2 3327   1.322   1.923   1.411 -0.5073 -1.1331  0.0310
 1110SOL     OW 3328   2.391   0.747   2.333 -0.4369 -0.5696 -0.0735
 1110SOL    HW1 3329   2.395   0.679   2.266  1.0696 -1.0592  0.4562
 1110SOL    HW2 3330   2.409   0.700   2.415 -0.4297  0.2981  0.4331
 1111SOL     OW 3331   3.842   3.217   3.561 -0.2256 -0.2671  0.4783
 1111SOL    HW1 3332   3.886   3.208   3.476  0.4177 -1.9421  0.9457
 1111SOL    HW2 3333   3.911   3.245   3.621 -0.6894  0.9549  0.4751
 1112SOL     OW 3334   3.111   1.869   3.149 -0.0282  0.2344  0.4738
 1112SOL    HW1 3335   3.207   1.868   3.143  0.0607  2.4826  0.5823
 1112SOL    HW2 3336   3.086   1.953   3.109 -2.1375 -1.2089 -1.4803
 1113SOL     OW 3337   3.801   3.703   0.808  0.1080 -0.2944  0.3286
 1113SOL    HW1 3338   3.889   3.698   0.845 -0.1870 -1.7325  0.9271
 1113SOL    HW2 3339   3.783   3.796   0.800  2.1294  0.0233 -0.9277
 1114SOL     OW 3340   2.037   0.501   3.782  0.3573  0.3910 -0.0639
 1114SOL    HW1 3341   1.966   0.463   3.835  0.0657  1.5629  0.4211
 1114SOL    HW2 3342   2.117   0.475   3.828  0.1948 -0.0541 -0.0232
 1115SOL     OW 3343   0.747   2.204   1.436 -0.0350 -0.3978  0.1233
 1115SOL    HW1 3344   0.754   2.255   1.355  0.3205 -1.0768 -0.2837
 1115SOL    HW2 3345   0.679   2.248   1.486 -0.0797  0.1864 -0.4360
 1116SOL     OW 3346   0.551   3.226   1.772 -0.2536  0.2980 -0.5669
 1116SOL    HW1 3347   0.629   3.181   1.740 -0.4845  1.3016 -2.7357
 1116SOL    HW2 3348   0.484   3.208   1.706 -1.2667  1.1342  0.1895
 1117SOL     OW 3349   3.033   2.707   1.294  0.4405  0.3954 -0.2631
 1117SOL    HW1 3350   2.981   2.635   1.328  2.5059 -0.6930  0.8327
 1117SOL    HW2 3351   3.040   2.690   1.200  0.0959 -0.3042 -0.1658
 1118SOL     OW 3352   3.450   2.847   3.983 -0.3104 -0.5211 -0.6755
 1118SOL    HW1 3353   3.413   2.919   4.034  0.6184 -1.0809  0.8655
 1118SOL    HW2 3354   3.420   2.863   3.894  0.7541  2.3632 -0.6098
 1119SOL     OW 3355   2.956   0.184   2.132 -0.1345  0.1894  0.5917
 1119SOL    HW1 3356   3.042   0.201   2.172  0.1201 -0.8875  0.5220
 1119SOL    HW2 3357   2.912   0.126   2.193 -0.1659 -0.5970 -0.1675
 1120SOL     OW 3358   0.385   3.255   1.435 -0.4283  0.4860  1.1206
 1120SOL    HW1 3359   0.453   3.226   1.375 -1.4766  2.1531 -1.0135
 1120SOL    HW2 3360   0.381   3.186   1.502  1.1708 -1.2076 -0.4079
 1121SOL     OW 3361   1.252   3.956   1.673  1.0315  0.1337  0.2308
 1121SOL    HW1 3362   1.250   4.009   1.593  3.8354 -0.6395 -0.4350
 1121SOL    HW2 3363   1.189   3.885   1.655  3.6159 -1.7010 -2.6413
 1122SOL     OW 3364   2.392   2.323   0.269 -0.3321 -0.2264  0.2409
 1122SOL    HW1 3365   2.466   2.370   0.308  0.5816 -2.2356  1.1357
 1122SOL    HW2 3366   2.316   2.378   0.287  0.7391  1.1895  0.6396
 1123SOL     OW 3367   1.575   0.533   3.822  0.2976  0.3733 -0.8569
 1123SOL    HW1 3368   1.552   0.593   3.893 -0.1914 -0.0448 -0.6514
 1123SOL    HW2 3369   1.663   0.559   3.795  0.0128  1.3138 -0.9146
 1124SOL     OW 3370   2.738   3.408   0.519  0.3250  0.3501 -0.6609
 1124SOL    HW1 3371   2.796   3.457   0.578  0.6471 -0.8629  0.0496
 1124SOL    HW2 3372   2.674   3.366   0.576  1.4020 -1.8797 -0.9926
 1125SOL     OW 3373   0.459   0.242   1.893  0.3826  0.2531  0.2619
 1125SOL    HW1 3374   0.373   0.277   1.867 -0.6701 -3.0342 -1.3507
 1125SOL    HW2 3375   0.505   0.228   1.810  0.6362 -2.0960  0.7251
 1126SOL     OW 3376   0.137   2.765   1.135  0.2084 -0.2926  0.1055
 1126SOL    HW1 3377   0.173   2.734   1.218 -1.4571  0.1543  1.0572
 1126SOL    HW2 3378   0.213   2.779   1.079  1.5290  0.8830  2.0530
 1127SOL     OW 3379   1.809   3.196   0.535  0.4969 -0.1153  0.1164
 1127SOL    HW1 3380   1.758   3.116   0.520  0.5804 -0.0858 -0.3387
 1127SOL    HW2 3381   1.768   3.236   0.612 -0.0396 -0.2041 -0.1120
 1128SOL     OW 3382   0.483   0.910   3.690  0.1891 -0.5432 -0.6479
 1128SOL    HW1 3383   0.420   0.940   3.625  0.3044 -2.0168 -1.4861
 1128SOL    HW2 3384   0.440   0.836   3.734  0.8707 -0.8144 -0.4222
 1129SOL     OW 3385   2.223   0.690   2.004 -0.0964 -0.7399  0.6996
 1129SOL    HW1 3386   2.132   0.660   2.003 -0.3089 -0.3912  3.1199
 1129SOL    HW2 3387   2.217   0.785   2.008  0.4328 -0.6412 -0.4469
 1130SOL     OW 3388   2.092   0.614   2.909  0.3681  0.3929 -0.2200
 1130SOL    HW1 3389   2.168   0.671   2.919  0.8728 -0.2820 -0.1149
 1130SOL    HW2 3390   2.037   0.659   2.846  2.2317 -0.4810 -2.6209
 1131SOL     OW 3391   1.698   1.971   2.533 -0.6519 -0.7672 -0.0403
 1131SOL    HW1 3392   1.649   2.042   2.574 -0.4081 -0.7128  0.1600
 1131SOL    HW2 3393   1.687   1.985   2.439  0.3818  0.2401 -0.0328
 1132SOL     OW 3394   1.519   0.109   3.471  0.3613  0.1221  0.2222
 1132SOL    HW1 3395   1.578   0.175   3.435 -0.6717  0.2676 -1.3126
 1132SOL    HW2 3396   1.433   0.152   3.472 -0.1068 -0.7887  0.3647
 1133SOL     OW 3397   2.596   1.647   3.201  0.3552  0.1114 -0.4328
 1133SOL    HW1 3398   2.516   1.598   3.183  0.8641 -0.7732 -0.3487
 1133SOL    HW2 3399   2.667   1.586   3.181  0.9955  0.6130  0.2276
 1134SOL     OW 3400   2.183   3.351   2.600  0.0076 -0.5105 -0.7004
 1134SOL    HW1 3401   2.191   3.414   2.529  1.1079 -0.9847 -1.0211
 1134SOL    HW2 3402   2.177   3.405   2.679 -0.2557  0.0082 -1.0664
 1135SOL     OW 3403   2.457   1.030   2.910 -0.3766  0.4115 -0.3054
 1135SOL    HW1 3404   2.537   1.033   2.858 -0.2464  0.9475 -0.0847
 1135SOL    HW2 3405   2.418   0.945   2.890  2.0715 -1.5029  2.2650
 1136SOL     OW 3406   0.544   0.319   1.407 -0.3904 -0.0984 -0.0351
 1136SOL    HW1 3407   0.513   0.369   1.332 -0.6097  2.5683  1.7097
 1136SOL    HW2 3408   0.541   0.380   1.481  2.8669 -1.5844  1.5573
 1137SOL     OW 3409   0.413   2.617   3.277  0.4934  0.3404 -0.2828
 1137SOL    HW1 3410   0.330   2.623   3.230 -0.2828  0.1673  1.0148
 1137SOL    HW2 3411   0.473   2.574   3.215 -1.4400 -3.2429  0.0515
 1138SOL     OW 3412   2.236   1.114   3.769  0.6149 -0.1418  0.2460
 1138SOL    HW1 3413   2.325   1.077   3.765  0.4602 -0.4186 -1.4796
 1138SOL    HW2 3414   2.185   1.046   3.812  0.7825 -1.0237 -0.9051
 1139SOL     OW 3415   0.856   1.967   0.278 -0.0070  0.2525  0.2600
 1139SOL    HW1 3416   0.783   2.023   0.303 -0.0091 -0.0248  0.8969
 1139SOL    HW2 3417   0.875   1.915   0.356  1.3832  0.8670  0.3725
 1140SOL     OW 3418   3.318   1.875   2.548 -0.2819 -0.3392  0.0862
 1140SOL    HW1 3419   3.270   1.835   2.475 -1.0491 -0.0691  0.4386
 1140SOL    HW2 3420   3.287   1.965   2.551  2.0164  0.5730 -1.2130
 1141SOL     OW 3421   3.003   2.293   3.859  0.3130  0.3508  0.4988
 1141SOL    HW1 3422   3.059   2.366   3.833 -0.1656  0.0930 -1.4580
 1141SOL    HW2 3423   3.062   2.220   3.872  0.6659  0.7414  1.1605
 1142SOL     OW 3424   2.802   2.413   2.290  0.2272  0.1388  0.2641
 1142SOL    HW1 3425   2.719   2.371   2.313 -0.4516  0.7639 -0.9315
 1142SOL    HW2 3426   2.860   2.341   2.266 -0.6137 -0.1983 -0.8358
 1143SOL     OW 3427   2.969   2.738   0.982 -0.0342 -0.4041  0.3679
 1143SOL    HW1 3428   2.906   2.670   1.008  0.0205 -1.6498 -2.4122
 1143SOL    HW2 3429   3.048   2.689   0.957  0.3434  0.7526 -0.7797
 1144SOL     OW 3430   2.457   1.682   2.582  0.2382 -0.7606 -0.1982
 1144SOL    HW1 3431   2.418   1.697   2.669 -0.1943 -0.3439 -0.4561
 1144SOL    HW2 3432   2.510   1.603   2.592 -0.1212 -0.9357  0.3468
 1145SOL     OW 3433   1.375   3.469   1.344 -1.0060  0.3076 -0.2786
 1145SOL    HW1 3434   1.347   3.486   1.434  1.6546  1.1694  0.4881
 1145SOL    HW2 3435   1.420   3.549   1.317 -2.4178  0.3743 -2.7307
 1146SOL     OW 3436   1.585   0.904   1.868  0.8051 -0.5630  0.0439
 1146SOL    HW1 3437   1.577   0.815   1.900 -1.2065  0.2596  2.1126
 1146SOL    HW2 3438   1.597   0.894   1.773  1.0111 -2.9948  0.2632
 1147SOL     OW 3439   1.676   2.381   2.571  0.1059  0.9026 -0.8099
 1147SOL    HW1 3440   1.644   2.456   2.621  0.5752  0.2847  0.4660
 1147SOL    HW2 3441   1.636   2.305   2.614  2.0299  0.2203 -0.1138
 1148SOL     OW 3442   2.538   3.805   2.726 -0.6234 -0.8318 -0.6995
 1148SOL    HW1 3443   2.539   3.882   2.784  3.1143 -0.6079 -0.8078
 1148SOL    HW2 3444   2.537   3.730   2.785 -2.7087 -0.7267 -0.5558
 1149SOL     OW 3445   3.046   1.873   1.833  0.1096  0.2684 -0.0618
 1149SOL    HW1 3446   3.011   1.904   1.917 -2.0534 -1.0780 -0.3801
 1149SOL    HW2 3447   2.992   1.917   1.767  1.6813  1.1832 -0.7920
 1150SOL     OW 3448   3.905   2.730   0.289  0.6118  0.0244  0.3677
 1150SOL    HW1 3449   3.863   2.678   0.358  1.3463 -1.7523 -0.4426
 1150SOL    HW2 3450   3.836   2.740   0.223 -0.0049  1.4806  1.2024
 1151SOL     OW 3451   0.797   2.047   2.174 -0.3564  0.4809 -0.3192
 1151SOL    HW1 3452   0.730   1.979   2.174  0.8223 -0.7307 -1.3283
 1151SOL    HW2 3453   0.862   2.017   2.112 -0.3157  3.0923 -1.6841
 1152SOL     OW 3454   2.681   0.418   3.568  0.8839 -1.0972  1.0660
 1152SOL    HW1 3455   2.769   0.455   3.577 -0.1321  1.8059  0.1150
 1152SOL    HW2 3456   2.650   0.449   3.484 -2.3142  0.9200  2.7907
 1153SOL     OW 3457   3.236   3.464   2.363 -0.5117 -0.1608 -0.5720
 1153SOL    HW1 3458   3.213   3.422   2.281 -1.0458  0.2530 -0.6344
 1153SOL    HW2 3459   3.315   3.515   2.343  0.0068 -0.9357 -0.5503
 1154SOL     OW 3460   1.277   3.162   1.851 -0.6747 -0.4139  0.1120
 1154SOL    HW1 3461   1.211   3.148   1.783 -1.9475  2.2967  0.6725
 1154SOL    HW2 3462   1.353   3.196   1.805 -1.1811  0.4539 -0.1041
 1155SOL     OW 3463   0.654   3.089   3.033  0.0362 -0.1426 -0.1942
 1155SOL    HW1 3464   0.590   3.097   2.963 -0.8859 -0.6660  0.5579
 1155SOL    HW2 3465   0.608   3.121   3.111  1.2884  1.1657  0.0478
 1156SOL     OW 3466   1.213   1.645   3.981  0.6342  0.6579 -0.4042
 1156SOL    HW1 3467   1.121   1.655   3.959  0.3831  0.9208  0.7273
 1156SOL    HW2 3468   1.259   1.685   3.907 -0.1983  2.2153 -0.1347
 1157SOL     OW 3469   1.974   2.717   3.644 -0.1337  0.4108  0.2464
 1157SOL    HW1 3470   2.069   2.711   3.637 -0.0948  1.7523 -0.8101
 1157SOL    HW2 3471   1.942   2.639   3.598  0.4472  0.5332 -0.3871
 1158SOL     OW 3472   2.851   0.695   0.092  0.9732 -0.2943  0.1411
 1158SOL    HW1 3473   2.922   0.689   0.156  1.7656  0.9057 -0.5775
 1158SOL    HW2 3474   2.893   0.732   0.014 -0.9191  3.0731  0.5240
 1159SOL     OW 3475   0.738   2.328   2.153  0.0584 -0.0997  0.6780
 1159SOL    HW1 3476   0.743   2.253   2.093 -0.5311 -0.3020  0.8736
 1159SOL    HW2 3477   0.822   2.327   2.199 -0.7164 -1.9288  2.1797
 1160SOL     OW 3478   2.929   3.678   1.106 -0.1675  0.2136 -0.2634
 1160SOL    HW1 3479   2.872   3.717   1.039 -0.8797 -0.5779 -0.1308
 1160SOL    HW2 3480   3.005   3.737   1.110  0.5523 -0.4176 -2.7547
 1161SOL     OW 3481   0.166   0.283   1.465  0.0376  0.3169 -0.0230
 1161SOL    HW1 3482   0.151   0.319   1.378  1.4169 -1.0334 -0.8756
 1161SOL    HW2 3483   0.230   0.213   1.451  0.7493  0.4687  2.1673
 1162SOL     OW 3484   3.355   2.604   0.068  0.0172 -0.1460  0.3313
 1162SOL    HW1 3485   3.401   2.688   0.067 -1.1459  0.5217 -1.5706
 1162SOL    HW2 3486   3.425   2.539   0.058  1.1955  0.3198  3.8939
 1163SOL     OW 3487   2.096   3.454   0.552  0.1352 -0.8374 -0.4728
 1163SOL    HW1 3488   2.108   3.360   0.541  1.7956 -0.5091 -1.9356
 1163SOL    HW2 3489   2.185   3.490   0.551 -0.4256  0.7013  0.7005
 1164SOL     OW 3490  -0.005   3.729   3.311  0.1969  0.1347 -0.0461
 1164SOL    HW1 3491  -0.059   3.685   3.377 -0.5796  0.6028 -0.3467
 1164SOL    HW2 3492   0.080   3.685   3.315 -0.4099 -1.0586 -0.0214
 1165SOL     OW 3493   1.097   1.785   2.242  0.3177  0.2435  0.5322
 1165SOL    HW1 3494   1.058   1.802   2.157  2.1810  2.6771  0.0316
 1165SOL    HW2 3495   1.178   1.738   2.222  0.7099  0.7329  0.9387
 1166SOL     OW 3496   2.515   3.302   0.637 -0.4352 -0.3911  0.2466
 1166SOL    HW1 3497   2.524   3.309   0.732 -2.9116  0.0782  0.5131
 1166SOL    HW2 3498   2.475   3.216   0.624 -1.5415  0.1782 -0.2169
 1167SOL     OW 3499   4.016   0.762   1.265  0.1582  0.4310  0.2396
 1167SOL    HW1 3500   3.976   0.808   1.339 -0.0739  1.1313 -0.3076
 1167SOL    HW2 3501   3.943   0.715   1.224 -0.3583  2.3833 -1.2654
 1168SOL     OW 3502   1.856   0.783   2.474 -0.1295  0.0998  0.5025
 1168SOL    HW1 3503   1.802   0.763   2.550 -0.9971 -1.1328 -0.3868
 1168SOL    HW2 3504   1.906   0.703   2.457 -0.7798 -0.0577 -0.8471
 1169SOL     OW 3505   1.756   0.587   3.350 -0.2614 -0.0350  0.2257
 1169SOL    HW1 3506   1.792   0.626   3.271  0.0719 -0.5734  0.1015
 1169SOL    HW2 3507   1.710   0.658   3.394 -2.2558 -0.1876 -1.4813
 1170SOL     OW 3508   2.694   2.791   0.097 -0.3948 -0.1503 -0.2226
 1170SOL    HW1 3509   2.628   2.855   0.125 -0.3270 -0.2517  0.1754
 1170SOL    HW2 3510   2.766   2.802   0.158 -0.6270 -1.0125  0.2342
 1171SOL     OW 3511   2.312   1.258   2.863  0.4520  0.4217  0.7080
 1171SOL    HW1 3512   2.361   1.176   2.858  0.4855  0.5190 -2.1732
 1171SOL    HW2 3513   2.336   1.306   2.784 -0.9396  2.4425  1.4162
 1172SOL     OW 3514   3.201   0.170   2.747 -0.0210 -0.4261  0.0979
 1172SOL    HW1 3515   3.138   0.127   2.689 -2.4934  2.4945  0.3775
 1172SOL    HW2 3516   3.246   0.234   2.692  1.3521 -1.1354  0.3479
 1173SOL     OW 3517   3.322   3.009   3.148  0.1912 -0.8233  0.2839
 1173SOL    HW1 3518   3.231   2.983   3.134  0.8821 -4.3327  1.3529
 1173SOL    HW2 3519   3.326   3.037   3.240  0.0612  0.2148 -0.0125
 1174SOL     OW 3520   1.510   0.766   1.493  0.6971 -0.0962 -0.4982
 1174SOL    HW1 3521   1.605   0.771   1.505  0.7485  0.4658 -1.0840
 1174SOL    HW2 3522   1.499   0.710   1.416  0.5567 -0.0423 -0.5173
 1175SOL     OW 3523   0.279   2.437   3.985  0.8937 -0.2638  0.4946
 1175SOL    HW1 3524   0.338   2.486   3.927 -1.2394 -0.7611 -2.3799
 1175SOL    HW2 3525   0.217   2.503   4.016  0.1104 -0.4816 -0.5288
 1176SOL     OW 3526   3.770   2.701   1.299 -0.2402 -0.4482 -0.2049
 1176SOL    HW1 3527   3.759   2.624   1.354  0.2377  0.7249  1.6498
 1176SOL    HW2 3528   3.681   2.727   1.275 -0.5005 -0.6029  0.5743
 1177SOL     OW 3529   3.910   0.995   2.782  0.0654  0.2367  0.6561
 1177SOL    HW1 3530   3.918   0.954   2.868  1.9064  0.8673  0.8255
 1177SOL    HW2 3531   3.952   0.932   2.722  1.4038  1.0956  0.6699
 1178SOL     OW 3532   3.666   3.304   2.777 -0.0706  0.6801 -0.3583
 1178SOL    HW1 3533   3.662   3.276   2.686 -0.0982  0.7462 -0.3778
 1178SOL    HW2 3534   3.661   3.400   2.773  0.4334  0.7111 -0.3179
 1179SOL     OW 3535   3.305   0.559   2.456  0.3728 -0.1116 -0.8386
 1179SOL    HW1 3536   3.262   0.620   2.396 -0.4728  0.2188  0.0729
 1179SOL    HW2 3537   3.276   0.586   2.543  5.5424  2.7697  0.4279
 1180SOL     OW 3538   1.499   1.726   3.683 -0.3791  0.3253 -0.4037
 1180SOL    HW1 3539   1.406   1.703   3.679 -0.4667 -0.0453  2.2805
 1180SOL    HW2 3540   1.538   1.661   3.742  0.9300  2.3322  1.0861
 1181SOL     OW 3541   2.354   0.352   3.263  0.1734 -0.2777  0.2637
 1181SOL    HW1 3542   2.400   0.268   3.269 -0.0914 -0.4790 -0.4444
 1181SOL    HW2 3543   2.262   0.330   3.279  0.1248 -0.0946  0.2383
 1182SOL     OW 3544   3.108   1.525   0.886 -0.2481  1.0840 -0.6371
 1182SOL    HW1 3545   3.127   1.486   0.972 -1.7789 -2.3729 -1.6889
 1182SOL    HW2 3546   3.037   1.586   0.903 -0.7545  0.2118  0.5695
 1183SOL     OW 3547   2.436   2.450   3.303 -0.1172 -0.2489  0.1936
 1183SOL    HW1 3548   2.524   2.462   3.340  1.1933  0.0718 -2.7170
 1183SOL    HW2 3549   2.428   2.355   3.292  0.7729 -0.1975 -1.3116
 1184SOL     OW 3550   3.619   0.959   0.111 -0.2335  0.3456  0.3455
 1184SOL    HW1 3551   3.605   0.885   0.171  0.5596 -1.6846 -1.7865
 1184SOL    HW2 3552   3.663   1.025   0.164 -2.2971 -0.0441  2.7346
 1185SOL     OW 3553   1.315   3.042   0.659  0.2852  0.1786 -0.3081
 1185SOL    HW1 3554   1.373   2.969   0.681 -0.2352 -0.1192  0.1053
 1185SOL    HW2 3555   1.313   3.096   0.738  1.2081  1.0307 -0.8308
 1186SOL     OW 3556   3.789   3.762   1.636 -0.0974 -0.4251 -0.1639
 1186SOL    HW1 3557   3.746   3.691   1.684 -1.6473  0.9788  0.6309
 1186SOL    HW2 3558   3.775   3.739   1.544 -1.0991 -0.8859  0.0823
 1187SOL     OW 3559   1.243   1.693   3.678  0.6943  0.2546  0.0810
 1187SOL    HW1 3560   1.191   1.625   3.635  1.0750 -0.3777  0.6033
 1187SOL    HW2 3561   1.183   1.765   3.691  0.1294 -0.2065  0.0520
 1188SOL     OW 3562   3.299   2.062   0.166 -0.5544  0.2265 -0.0656
 1188SOL    HW1 3563   3.323   2.152   0.147 -0.9518  0.3591  0.0545
 1188SOL    HW2 3564   3.380   2.012   0.150 -0.5966  0.4627 -1.1156
 1189SOL     OW 3565   3.996   3.239   1.264 -0.2140  0.6565 -0.8089
 1189SOL    HW1 3566   3.951   3.323   1.256  0.8207  1.4919  1.1471
 1189SOL    HW2 3567   3.955   3.197   1.340 -0.8797 -0.7449 -1.9060
 1190SOL     OW 3568   1.240   3.434   1.095  0.0943  0.1213  0.2859
 1190SOL    HW1 3569   1.147   3.427   1.116 -0.0466  2.1438  0.6279
 1190SOL    HW2 3570   1.283   3.438   1.181  0.4679 -0.5040  0.1292
 1191SOL     OW 3571   1.394   3.188   3.753  0.0305  0.8553 -0.4407
 1191SOL    HW1 3572   1.430   3.102   3.774 -0.8609  0.4958 -0.3409
 1191SOL    HW2 3573   1.470   3.243   3.737  0.6249  0.1855  0.0428
 1192SOL     OW 3574   3.499   0.608   1.186 -0.1051 -1.0216 -0.2923
 1192SOL    HW1 3575   3.495   0.604   1.091 -1.1472  0.8643 -0.3648
 1192SOL    HW2 3576   3.408   0.600   1.214  0.0770 -0.4519  0.4859
 1193SOL     OW 3577   3.925   3.853   1.854 -0.2456  0.4449  0.2196
 1193SOL    HW1 3578   3.990   3.793   1.818 -2.1943 -0.4925 -2.0160
 1193SOL    HW2 3579   3.857   3.858   1.787 -1.0727  3.7715  1.1033
 1194SOL     OW 3580   3.802   0.039   2.326 -0.1237 -0.4083  0.4303
 1194SOL    HW1 3581   3.878  -0.011   2.355  0.4145 -0.4257 -0.9529
 1194SOL    HW2 3582   3.810   0.043   2.231 -1.6356 -0.0506  0.2842
 1195SOL     OW 3583   2.520   1.564   3.576  0.1345 -0.7260 -0.2279
 1195SOL    HW1 3584   2.523   1.619   3.655  1.7416 -1.2575  0.1236
 1195SOL    HW2 3585   2.572   1.612   3.512 -0.2716 -0.8075 -0.6192
 1196SOL     OW 3586   3.089   1.722   2.680  0.0582  0.1733 -0.2981
 1196SOL    HW1 3587   3.077   1.807   2.722 -3.0913 -0.9430  1.3698
 1196SOL    HW2 3588   3.137   1.670   2.744 -2.6381 -0.7883  1.1028
 1197SOL     OW 3589   1.759   2.800   0.171  0.0838  0.4075  0.1496
 1197SOL    HW1 3590   1.754   2.882   0.122  1.0893 -0.0002 -0.6863
 1197SOL    HW2 3591   1.822   2.747   0.122  0.4342 -0.3756  1.3997
 1198SOL     OW 3592   1.229   2.488   1.790 -0.1710 -0.4679 -0.7116
 1198SOL    HW1 3593   1.163   2.497   1.721 -0.7742 -3.5337 -0.6743
 1198SOL    HW2 3594   1.179   2.472   1.869  0.4353 -4.2524 -0.9141
 1199SOL     OW 3595   1.813   2.502   3.531  0.4629  0.2652 -0.3364
 1199SOL    HW1 3596   1.819   2.552   3.449  2.0006  0.0959 -0.3437
 1199SOL    HW2 3597   1.870   2.426   3.517  0.1422 -0.1692  0.6264
 1200SOL     OW 3598   1.275   2.752   1.953  0.0222 -0.2677 -0.6121
 1200SOL    HW1 3599   1.184   2.767   1.980 -0.1304  0.5429 -1.5259
 1200SOL    HW2 3600   1.323   2.826   1.989  0.1581 -0.2190 -0.8939
 1201SOL     OW 3601   2.231   1.536   3.496  0.1638  0.3246  0.0823
 1201SOL    HW1 3602   2.195   1.488   3.570  0.0994  0.1872 -0.0371
 1201SOL    HW2 3603   2.319   1.562   3.524  0.2393  0.0391  0.1039
 1202SOL     OW 3604   3.265   2.005   0.538  0.5962  0.3300  0.0590
 1202SOL    HW1 3605   3.259   1.998   0.443  0.0617 -0.6081  0.1461
 1202SOL    HW2 3606   3.262   1.914   0.568  0.4048  0.6390  0.9890
 1203SOL     OW 3607   2.821   3.240   2.360  0.3916 -0.3348  0.1761
 1203SOL    HW1 3608   2.859   3.298   2.293  2.1431 -0.6919  0.8052
 1203SOL    HW2 3609   2.790   3.299   2.428  1.6178 -0.0825  0.5363
 1204SOL     OW 3610   1.406   3.674   2.271 -0.0163 -0.2617  0.0811
 1204SOL    HW1 3611   1.432   3.704   2.184  1.7568 -0.9720  0.3198
 1204SOL    HW2 3612   1.342   3.605   2.254 -1.4936  1.1732 -0.5464
 1205SOL     OW 3613   1.655   1.651   0.450 -0.6679  0.0028  0.4073
 1205SOL    HW1 3614   1.675   1.657   0.544 -0.6128  0.6119  0.3612
 1205SOL    HW2 3615   1.715   1.713   0.409  1.3795 -2.3524 -0.3679
 1206SOL     OW 3616   0.170   0.055   3.394 -0.4438  0.3382  0.4339
 1206SOL    HW1 3617   0.210   0.131   3.353  0.1163 -0.1198  0.1212
 1206SOL    HW2 3618   0.227  -0.018   3.371 -0.7538 -0.1153  1.0643
 1207SOL     OW 3619   3.329   0.084   3.886  0.9060  0.1118  0.5036
 1207SOL    HW1 3620   3.403   0.104   3.829 -0.2079  1.6635 -0.4773
 1207SOL    HW2 3621   3.252   0.096   3.831 -0.1194 -2.0052  1.3299
 1208SOL     OW 3622   3.242   3.031   3.419 -0.8654  0.4403 -0.4279
 1208SOL    HW1 3623   3.176   2.962   3.415  1.7254 -2.2021 -1.3451
 1208SOL    HW2 3624   3.194   3.109   3.449 -4.2973 -1.2734 -0.9509
 1209SOL     OW 3625   3.842   3.666   0.537  0.5811  0.2920 -0.0080
 1209SOL    HW1 3626   3.810   3.679   0.626  1.8700  0.6597  0.4367
 1209SOL    HW2 3627   3.768   3.630   0.489  0.0164 -0.4255  1.3473
 1210SOL     OW 3628   3.295   0.429   2.127  0.0018  0.5217  0.1971
 1210SOL    HW1 3629   3.265   0.516   2.155  1.9730  1.0196  0.9043
 1210SOL    HW2 3630   3.374   0.446   2.076 -1.6215 -0.6285 -2.9833
 1211SOL     OW 3631   2.503   1.008   3.764 -0.3555 -0.3609 -0.0642
 1211SOL    HW1 3632   2.525   1.062   3.688  1.4252 -0.3989  0.3836
 1211SOL    HW2 3633   2.490   0.920   3.727  2.6608 -0.8724 -0.1729
 1212SOL     OW 3634   3.226   1.090   2.614 -0.0394  0.1678  0.1593
 1212SOL    HW1 3635   3.294   1.066   2.676  0.0751 -0.3870 -0.1768
 1212SOL    HW2 3636   3.156   1.127   2.668  0.3839  0.4171  0.5362
 1213SOL     OW 3637   2.967   0.996   0.565 -0.4243  0.0259 -0.2524
 1213SOL    HW1 3638   2.883   0.985   0.520 -0.8217 -0.2760  0.5440
 1213SOL    HW2 3639   2.950   1.065   0.629  0.5341  1.4950 -1.4956
 1214SOL     OW 3640   0.765   2.601   2.065 -0.0235  0.2333 -1.0262
 1214SOL    HW1 3641   0.812   2.544   2.126  1.5782  0.7381 -1.7414
 1214SOL    HW2 3642   0.760   2.685   2.110  0.6091  0.4325 -1.3077
 1215SOL     OW 3643   2.740   1.810   3.363  0.5885 -0.1818  0.4032
 1215SOL    HW1 3644   2.681   1.754   3.313  0.7063  1.3738 -1.6404
 1215SOL    HW2 3645   2.768   1.757   3.437 -1.8631 -1.6199  0.3962
 1216SOL     OW 3646   1.226   2.111   3.049 -0.6190 -0.6431  0.2596
 1216SOL    HW1 3647   1.322   2.115   3.055 -0.5632  2.1526 -0.9110
 1216SOL    HW2 3648   1.207   2.019   3.034  2.0167 -1.0663 -1.1230
 1217SOL     OW 3649   1.647   1.865   0.674  0.4932 -0.0968  0.6305
 1217SOL    HW1 3650   1.683   1.940   0.626 -0.2795 -1.0856 -1.6515
 1217SOL    HW2 3651   1.578   1.903   0.729  2.0914  1.2238  1.7979
 1218SOL     OW 3652   3.863   3.133   1.517  0.1190  0.0547  0.7377
 1218SOL    HW1 3653   3.809   3.054   1.515  0.4177 -0.1506  0.7911
 1218SOL    HW2 3654   3.948   3.104   1.549  0.1833  0.4276  0.9145
 1219SOL     OW 3655   2.323   3.102   2.561 -0.2800  0.1456  0.5752
 1219SOL    HW1 3656   2.299   3.194   2.577 -1.2863  0.1521 -0.7706
 1219SOL    HW2 3657   2.285   3.083   2.475  2.0191 -0.7916 -0.3082
 1220SOL     OW 3658   1.271   3.454   1.822  0.1129 -0.5937 -0.3069
 1220SOL    HW1 3659   1.227   3.381   1.866  0.6059 -0.2550  0.7971
 1220SOL    HW2 3660   1.360   3.424   1.807  0.9988  0.5026  2.2061
 1221SOL     OW 3661   0.413   0.062   2.071  0.2655  0.7935 -0.1577
 1221SOL    HW1 3662   0.426   0.113   1.992  0.9870 -0.1675 -0.6838
 1221SOL    HW2 3663   0.426  -0.029   2.044  0.9471  0.4704  1.1382
 1222SOL     OW 3664   2.378   2.624   0.056 -0.0105  0.3846 -0.0224
 1222SOL    HW1 3665   2.340   2.674  -0.015 -0.7866  0.9175  0.7512
 1222SOL    HW2 3666   2.411   2.544   0.014  0.0521  0.9432 -1.0535
 1223SOL     OW 3667   2.845   1.119   2.043 -0.0842  0.1059 -0.2337
 1223SOL    HW1 3668   2.903   1.150   1.974  1.8801 -2.3321  0.1931
 1223SOL    HW2 3669   2.875   1.163   2.122 -1.0369  1.3608 -0.5334
 1224SOL     OW 3670   0.058   2.634   0.034  0.3192 -0.1700  0.3542
 1224SOL    HW1 3671   0.094   2.723   0.026  0.5931 -0.3451 -0.3934
 1224SOL    HW2 3672  -0.022   2.637  -0.018 -0.4703  0.0516  1.5366
 1225SOL     OW 3673   2.673   2.634   3.307  0.0168  0.3625 -0.4801
 1225SOL    HW1 3674   2.609   2.680   3.361 -1.1909 -0.8736 -0.7936
 1225SOL    HW2 3675   2.748   2.621   3.365 -0.2922  1.1902  0.1268
 1226SOL     OW 3676   3.936   2.582   1.579 -0.1194 -0.2587 -1.2344
 1226SOL    HW1 3677   3.984   2.665   1.580 -0.7113  0.0927 -1.5918
 1226SOL    HW2 3678   3.991   2.522   1.630 -0.0893  0.5741 -0.2560
 1227SOL     OW 3679   0.608   1.747   1.902  0.1231  0.3920  0.2008
 1227SOL    HW1 3680   0.561   1.812   1.850 -0.5288  0.8224  1.2889
 1227SOL    HW2 3681   0.585   1.663   1.862  2.1408  0.8434 -2.1486
 1228SOL     OW 3682   3.891   0.269   0.730  0.0458  0.5840  0.3229
 1228SOL    HW1 3683   3.925   0.319   0.804 -0.8141  0.0472  1.0937
 1228SOL    HW2 3684   3.797   0.266   0.744  0.0634 -1.0928  0.1907
 1229SOL     OW 3685   2.881   3.681   0.536 -0.4782 -0.4603 -0.4532
 1229SOL    HW1 3686   2.941   3.686   0.610 -0.9445  0.3993 -0.1190
 1229SOL    HW2 3687   2.795   3.668   0.575 -0.4340 -2.6278 -0.9714
 1230SOL     OW 3688   1.160   2.239   1.023 -0.1280  0.3339 -0.7632
 1230SOL    HW1 3689   1.180   2.314   0.967 -1.7060  0.5417 -1.0743
 1230SOL    HW2 3690   1.096   2.188   0.974 -1.9419  0.7914  1.0139
 1231SOL     OW 3691   2.681   3.422   2.498  0.0657 -0.3954 -0.8913
 1231SOL    HW1 3692   2.663   3.485   2.428  1.3660  0.5401 -0.4176
 1231SOL    HW2 3693   2.611   3.436   2.561  0.5218  0.8287 -0.6378
 1232SOL     OW 3694   0.590   2.643   1.604 -0.2167  0.0010  0.8873
 1232SOL    HW1 3695   0.553   2.706   1.542 -1.2722 -2.4725 -1.1370
 1232SOL    HW2 3696   0.514   2.595   1.638  0.5556 -0.1966  2.4111
 1233SOL     OW 3697   3.475   1.669   2.593 -0.9337  0.0440 -0.5168
 1233SOL    HW1 3698   3.420   1.742   2.564 -2.2875 -0.1826  1.2709
 1233SOL    HW2 3699   3.414   1.595   2.600 -0.3535 -0.3197  1.1564
 1234SOL     OW 3700   1.540   0.510   0.618 -0.0488 -0.4312  0.2460
 1234SOL    HW1 3701   1.543   0.604   0.636  0.3444 -0.0292 -1.6918
 1234SOL    HW2 3702   1.593   0.471   0.687  1.3567  0.9644  0.0167
 1235SOL     OW 3703   1.132   2.549   3.619  0.3372 -0.1183 -1.0805
 1235SOL    HW1 3704   1.143   2.557   3.714  1.0131  0.8221 -1.2195
 1235SOL    HW2 3705   1.092   2.463   3.606 -1.5260  0.5240  0.1747
 1236SOL     OW 3706   0.933   0.274   3.538 -0.0250 -0.2638 -0.1645
 1236SOL    HW1 3707   0.857   0.332   3.533 -1.2231 -1.8013 -0.6053
 1236SOL    HW2 3708   0.913   0.214   3.610  1.6734  0.4994  1.0015
 1237SOL     OW 3709   3.627   0.483   0.850  0.2550  0.2494 -0.3721
 1237SOL    HW1 3710   3.709   0.516   0.812  0.5662 -1.2418 -1.0696
 1237SOL    HW2 3711   3.642   0.388   0.859 -1.4207 -0.0542 -0.5846
 1238SOL     OW 3712   1.637   1.406   0.747  0.3852 -0.0056  0.0757
 1238SOL    HW1 3713   1.715   1.417   0.801 -0.4349  1.5273  1.0309
 1238SOL    HW2 3714   1.572   1.466   0.786 -1.3671 -1.4447 -0.4826
 1239SOL     OW 3715   1.127   1.825   3.100  0.1426 -0.2721  0.0770
 1239SOL    HW1 3716   1.069   1.886   3.146  3.1695  1.6138  1.7196
 1239SOL    HW2 3717   1.095   1.826   3.010 -1.0261  2.4112  0.4069
 1240SOL     OW 3718   2.706   1.038   3.974  0.6876 -0.7299  0.0048
 1240SOL    HW1 3719   2.638   0.999   3.920  1.4027 -0.5905 -1.0260
 1240SOL    HW2 3720   2.781   1.047   3.916  1.3801 -0.2584  0.9343
 1241SOL     OW 3721   2.061   2.685   1.045 -0.3528 -0.0951 -0.5194
 1241SOL    HW1 3722   2.106   2.682   0.961  0.3110  0.0711 -0.1742
 1241SOL    HW2 3723   2.122   2.728   1.105 -0.8883 -0.0406  0.0073
 1242SOL     OW 3724   0.453   0.681   0.407 -0.1898 -0.0630  0.1000
 1242SOL    HW1 3725   0.446   0.652   0.316 -0.4128 -1.4682  0.5518
 1242SOL    HW2 3726   0.363   0.692   0.436 -0.1544 -0.9197  0.5496
 1243SOL     OW 3727   3.716   1.614   0.042  0.2660  0.4475 -0.1731
 1243SOL    HW1 3728   3.804   1.639   0.013  0.0770 -1.3976 -2.7381
 1243SOL    HW2 3729   3.661   1.688   0.019  0.3109 -0.4959 -4.1002
 1244SOL     OW 3730   1.965   0.064   3.339  0.6754 -0.7519 -0.5422
 1244SOL    HW1 3731   1.993   0.152   3.314 -0.4203 -0.4757 -0.8556
 1244SOL    HW2 3732   1.987   0.009   3.264 -0.8451 -0.2794 -1.3770
 1245SOL     OW 3733   0.829   2.000   0.011 -0.4413 -0.2755  0.3150
 1245SOL    HW1 3734   0.790   2.087   0.017  0.0171  0.0055 -0.6484
 1245SOL    HW2 3735   0.843   1.974   0.102  0.7393  1.2573  0.6165
 1246SOL     OW 3736   2.007   0.321   1.748 -0.8532  0.1032 -0.0527
 1246SOL    HW1 3737   2.013   0.358   1.660 -1.0951 -0.0638 -0.1407
 1246SOL    HW2 3738   2.064   0.376   1.802 -1.4397  0.7851 -0.1165
 1247SOL     OW 3739   1.108   3.055   2.275 -0.0331 -0.2456 -0.8227
 1247SOL    HW1 3740   1.176   3.023   2.216  0.7731  1.4166 -0.8693
 1247SOL    HW2 3741   1.136   3.025   2.361 -1.1775 -2.6222 -1.2025
 1248SOL     OW 3742   2.358   0.962   2.085 -1.1074 -0.5277  0.3726
 1248SOL    HW1 3743   2.351   0.986   2.177 -1.7159  0.3556  0.1059
 1248SOL    HW2 3744   2.314   1.033   2.038 -0.5671 -0.8251 -0.6170
 1249SOL     OW 3745   1.855   1.041   3.032 -0.1609  0.0164 -0.1249
 1249SOL    HW1 3746   1.800   1.104   3.079  0.3872  1.0379 -0.8192
 1249SOL    HW2 3747   1.883   1.088   2.953  2.6964 -0.0211  0.7629
 1250SOL     OW 3748   2.319   2.749   2.455 -0.3739 -0.2410  0.5213
 1250SOL    HW1 3749   2.326   2.658   2.426 -1.7365 -0.3958  0.6298
 1250SOL    HW2 3750   2.354   2.749   2.544  0.9486 -0.3630  0.0251
 1251SOL     OW 3751   0.551   0.211   0.706  0.6376  0.1643  0.3573
 1251SOL    HW1 3752   0.489   0.150   0.665 -0.1314  2.0514 -1.4916
 1251SOL    HW2 3753   0.506   0.242   0.784 -0.0693  0.2945 -0.0932
 1252SOL     OW 3754   0.888   1.664   2.823  0.1331  0.5413  0.1510
 1252SOL    HW1 3755   0.878   1.659   2.918  0.9669  0.2597  0.2274
 1252SOL    HW2 3756   0.899   1.758   2.805 -0.1859  0.6124  0.3068
 1253SOL     OW 3757   3.740   3.425   3.952  0.2342 -0.0880  0.2461
 1253SOL    HW1 3758   3.686   3.386   4.021 -1.1742 -0.6436 -1.1010
 1253SOL    HW2 3759   3.699   3.510   3.936 -0.4740 -0.6418 -1.0012
 1254SOL     OW 3760   3.728   2.853   0.045 -0.1994  0.6955  0.1255
 1254SOL    HW1 3761   3.642   2.816   0.028 -0.5704  2.3302 -1.9970
 1254SOL    HW2 3762   3.770   2.859  -0.041  2.1171 -0.1628  1.1105
 1255SOL     OW 3763   2.020   3.168   1.115  0.1148  0.2118 -0.8092
 1255SOL    HW1 3764   1.935   3.165   1.071  1.0718 -0.1849 -2.7623
 1255SOL    HW2 3765   2.017   3.097   1.179 -1.2952  0.7435 -0.2473
 1256SOL     OW 3766   0.629   0.986   2.447  0.2094  0.1744 -1.4943
 1256SOL    HW1 3767   0.666   0.949   2.366  3.4607  2.6322 -1.3558
 1256SOL    HW2 3768   0.588   1.068   2.419 -1.1351 -0.3065 -0.9803
 1257SOL     OW 3769   3.796   1.179   0.241  0.2198 -0.0857  0.2291
 1257SOL    HW1 3770   3.787   1.218   0.328 -1.9706  2.9295 -1.1746
 1257SOL    HW2 3771   3.877   1.217   0.206  1.4882 -1.8493  1.1101
 1258SOL     OW 3772   1.448   1.035   2.499 -0.2225  0.0185  0.3658
 1258SOL    HW1 3773   1.471   1.122   2.531 -1.8912  0.7131 -0.1938
 1258SOL    HW2 3774   1.517   1.013   2.437 -1.2639  2.2825 -1.7638
 1259SOL     OW 3775   0.394   1.798   2.390 -0.0622  0.7714 -0.7419
 1259SOL    HW1 3776   0.299   1.793   2.382 -0.0260  1.5510 -1.9725
 1259SOL    HW2 3777   0.409   1.825   2.481 -1.1457  2.9684 -1.1430
 1260SOL     OW 3778   2.359   3.210   3.700 -0.1700 -1.0337  0.4738
 1260SOL    HW1 3779   2.317   3.127   3.724 -0.6341 -1.1523 -0.6929
 1260SOL    HW2 3780   2.442   3.184   3.660 -0.0965 -0.9176  0.5506
 1261SOL     OW 3781   0.947   1.469   3.140  0.5260  0.4982  0.2779
 1261SOL    HW1 3782   1.002   1.441   3.213 -0.7347 -2.5595  0.1793
 1261SOL    HW2 3783   0.969   1.409   3.069 -1.7179  0.2589 -0.2804
 1262SOL     OW 3784   0.379   0.520   1.117  0.3135 -0.0984 -0.3013
 1262SOL    HW1 3785   0.465   0.478   1.124  1.5440  1.6104 -3.1965
 1262SOL    HW2 3786   0.394   0.609   1.148 -0.3080  0.3171 -1.1700
 1263SOL     OW 3787   2.966   3.410   2.177 -0.5318 -0.0677  0.0841
 1263SOL    HW1 3788   2.994   3.500   2.191  0.1965 -0.2396 -0.2375
 1263SOL    HW2 3789   2.989   3.391   2.086 -0.7470 -0.5541  0.1258
 1264SOL     OW 3790   2.710   3.127   0.897  0.1474 -1.0415  0.4015
 1264SOL    HW1 3791   2.615   3.142   0.896  0.5358  2.0456 -1.0003
 1264SOL    HW2 3792   2.735   3.143   0.988 -0.5092 -0.6731  0.5287
 1265SOL     OW 3793   1.964   2.823   0.525  0.9651 -0.5166 -0.5469
 1265SOL    HW1 3794   1.892   2.880   0.551  1.4844  0.7614 -1.7596
 1265SOL    HW2 3795   1.925   2.736   0.520 -0.4419  0.1000 -0.9292
 1266SOL     OW 3796   2.415   1.187   0.424  0.0570  0.7214  0.3796
 1266SOL    HW1 3797   2.360   1.255   0.464  0.3047  0.4264  1.2514
 1266SOL    HW2 3798   2.501   1.201   0.463  0.2608  0.3129  0.0712
 1267SOL     OW 3799   3.363   3.283   3.948  0.8015  0.2524 -0.0521
 1267SOL    HW1 3800   3.303   3.349   3.983 -1.3295  0.1328 -3.1111
 1267SOL    HW2 3801   3.367   3.216   4.016 -1.4412  0.9452  0.8585
 1268SOL     OW 3802   3.937   3.996   3.276 -0.5495  0.0057 -0.0655
 1268SOL    HW1 3803   3.939   3.902   3.294 -1.2064 -0.0657 -0.3412
 1268SOL    HW2 3804   4.022   4.028   3.306 -0.0646 -0.7876 -0.5723
 1269SOL     OW 3805   3.081   0.455   0.885 -0.5292 -0.0304 -0.2595
 1269SOL    HW1 3806   3.098   0.365   0.859 -0.0913 -0.5691  1.7100
 1269SOL    HW2 3807   3.164   0.486   0.922 -0.8602  0.9534 -0.2990
 1270SOL     OW 3808   0.281   1.970   2.131 -0.5775  0.2346 -0.9767
 1270SOL    HW1 3809   0.302   1.896   2.074  0.5107  0.5236 -0.9616
 1270SOL    HW2 3810   0.238   1.930   2.207  0.6345 -0.4690 -0.6400
 1271SOL     OW 3811   2.093   2.321   2.210  0.7332  0.3718  0.0703
 1271SOL    HW1 3812   2.057   2.376   2.140 -0.1067  0.7940  0.8072
 1271SOL    HW2 3813   2.018   2.273   2.244  1.6645 -2.4587 -1.5429
 1272SOL     OW 3814   0.476   0.091   2.778  0.2227  0.1617  0.6907
 1272SOL    HW1 3815   0.524   0.107   2.860  1.9367  2.8910 -0.7093
 1272SOL    HW2 3816   0.413   0.162   2.774 -0.5391 -0.5356  0.0882
 1273SOL     OW 3817   1.731   0.618   1.214 -0.2931  0.5727  0.8874
 1273SOL    HW1 3818   1.704   0.710   1.215  0.0001  0.9395 -3.7652
 1273SOL    HW2 3819   1.823   0.620   1.186 -0.5256 -1.1243 -0.1462
 1274SOL     OW 3820   2.418   1.869   2.300  0.0667 -0.4417  0.9498
 1274SOL    HW1 3821   2.343   1.821   2.264  1.4377 -1.5704 -0.6047
 1274SOL    HW2 3822   2.425   1.839   2.390 -0.5905 -1.3113  0.7282
 1275SOL     OW 3823   2.359   0.043   0.489  0.3888 -0.1889 -0.3684
 1275SOL    HW1 3824   2.407   0.064   0.409  1.4256  1.8386  0.7088
 1275SOL    HW2 3825   2.415   0.074   0.560 -0.1153 -2.6672  1.2348
 1276SOL     OW 3826   0.100   2.274   2.763 -0.9849  0.3380  0.8033
 1276SOL    HW1 3827   0.157   2.312   2.697  0.3981  1.7811  2.7126
 1276SOL    HW2 3828   0.036   2.343   2.783 -2.0948 -0.4856  0.2208
 1277SOL     OW 3829   1.944   1.291   0.325  0.7623  0.0140  0.1323
 1277SOL    HW1 3830   1.857   1.251   0.322  0.9211 -0.7234  2.7081
 1277SOL    HW2 3831   1.928   1.384   0.307 -0.8099  0.1404  1.8335
 1278SOL     OW 3832   2.690   1.781   2.239  0.0295  0.2164 -0.4454
 1278SOL    HW1 3833   2.744   1.753   2.313 -2.3375 -1.3088  0.8588
 1278SOL    HW2 3834   2.653   1.865   2.266 -0.7392 -0.2825  0.0957
 1279SOL     OW 3835   1.093   3.674   0.618  0.4528 -0.5291  0.4502
 1279SOL    HW1 3836   1.111   3.717   0.702 -0.2577 -2.9335  1.8987
 1279SOL    HW2 3837   1.170   3.620   0.601  1.0572  0.6977 -1.0404
 1280SOL     OW 3838   1.999   2.914   2.145 -0.4553  0.0781  0.5089
 1280SOL    HW1 3839   1.981   2.866   2.064  4.6916 -2.5801  0.4899
 1280SOL    HW2 3840   2.027   2.847   2.207  0.9597  2.5047  2.7252
 1281SOL     OW 3841   2.189   0.167   1.374 -0.3023 -0.4040  0.1214
 1281SOL    HW1 3842   2.165   0.256   1.398  0.7542  0.9012 -3.0779
 1281SOL    HW2 3843   2.285   0.169   1.368 -0.1791 -2.0869  0.9843
 1282SOL     OW 3844   1.493   1.957   0.329  0.0497 -0.3085 -0.1979
 1282SOL    HW1 3845   1.468   1.915   0.411 -1.1917  0.3137 -0.2376
 1282SOL    HW2 3846   1.519   2.046   0.355 -1.8632  0.4263 -0.6034
 1283SOL     OW 3847   2.778   0.249   1.457  0.1366  0.0809  0.5304
 1283SOL    HW1 3848   2.741   0.206   1.533  0.1713 -1.0321 -0.0576
 1283SOL    HW2 3849   2.814   0.331   1.490  0.0320 -0.3248  1.6722
 1284SOL     OW 3850   2.873   3.261   0.705  0.4159  0.4036  0.7580
 1284SOL    HW1 3851   2.836   3.198   0.767  0.7950 -0.7976 -0.1864
 1284SOL    HW2 3852   2.846   3.229   0.619  2.1326  0.4753  0.1396
 1285SOL     OW 3853   1.601   0.286   1.484 -0.0291 -0.3245 -0.4996
 1285SOL    HW1 3854   1.684   0.293   1.437  0.6463 -1.1344  0.5292
 1285SOL    HW2 3855   1.613   0.213   1.544 -1.7687 -0.9902 -0.8773
 1286SOL     OW 3856   3.553   2.332   0.408 -0.1177  0.1482  0.2404
 1286SOL    HW1 3857   3.516   2.419   0.424  1.6754  0.4840  3.4805
 1286SOL    HW2 3858   3.541   2.318   0.314 -1.7533  3.2469 -0.1644
 1287SOL     OW 3859   1.720   2.331   3.113  0.4096 -0.3429 -0.0223
 1287SOL    HW1 3860   1.739   2.416   3.151  0.4263 -1.4386  2.6279
 1287SOL    HW2 3861   1.742   2.341   3.020 -0.5794  2.7858 -0.0443
 1288SOL     OW 3862   3.751   0.969   3.831  0.3385 -0.0775  0.3397
 1288SOL    HW1 3863   3.687   0.917   3.880  2.3482 -2.6577  0.4438
 1288SOL    HW2 3864   3.721   0.962   3.740 -0.7089  0.6155  0.6111
 1289SOL     OW 3865   3.583   0.337   1.161  0.0767 -0.1256 -0.0373
 1289SOL    HW1 3866   3.673   0.369   1.158  0.3040 -0.7887 -0.4949
 1289SOL    HW2 3867   3.533   0.410   1.197  0.4255  1.0642 -1.8688
 1290SOL     OW 3868   3.488   0.192   2.884  0.3874 -0.3072 -0.8605
 1290SOL    HW1 3869   3.479   0.286   2.870 -0.0011 -0.3204 -0.7051
 1290SOL    HW2 3870   3.525   0.159   2.802  0.1786 -0.0700 -1.0538
 1291SOL     OW 3871   3.770   3.545   2.878 -0.0639  0.0759  0.0096
 1291SOL    HW1 3872   3.793   3.480   2.945  1.9473  0.2086 -0.5120
 1291SOL    HW2 3873   3.819   3.623   2.902 -1.3036  0.9484 -0.2244
 1292SOL     OW 3874   3.773   2.929   2.764 -0.7155  0.2624  0.8562
 1292SOL    HW1 3875   3.819   2.956   2.844  0.4412  1.4287 -0.1578
 1292SOL    HW2 3876   3.698   2.988   2.759  1.0703  2.6095 -0.6364
 1293SOL     OW 3877   0.729   2.678   2.906 -0.1905 -0.0945  0.2473
 1293SOL    HW1 3878   0.678   2.615   2.956 -1.0781  0.4143 -0.0028
 1293SOL    HW2 3879   0.668   2.714   2.842  0.6186  0.1520 -0.3990
 1294SOL     OW 3880   3.569   0.549   2.042  0.2500 -0.0496 -0.5350
 1294SOL    HW1 3881   3.532   0.608   1.977  1.3365  0.3476 -0.8035
 1294SOL    HW2 3882   3.605   0.476   1.992  1.1168  0.2713 -0.4010
 1295SOL     OW 3883   1.688   2.426   1.365 -0.1900 -0.2370  0.2350
 1295SOL    HW1 3884   1.775   2.466   1.368 -0.4463  0.3887 -0.5835
 1295SOL    HW2 3885   1.699   2.350   1.308  0.1520 -1.0411  1.3140
 1296SOL     OW 3886   1.977   0.239   0.727 -0.7281 -0.1113 -0.0824
 1296SOL    HW1 3887   1.998   0.188   0.805  1.7686 -0.5220 -0.9506
 1296SOL    HW2 3888   2.011   0.327   0.746 -0.4130 -0.1243 -0.5703
 1297SOL     OW 3889   0.992   2.428   1.600  0.3650 -0.3226 -0.5097
 1297SOL    HW1 3890   0.913   2.409   1.651  0.6336 -1.1592 -0.3809
 1297SOL    HW2 3891   0.994   2.359   1.533  0.9276 -0.2479 -0.5739
 1298SOL     OW 3892   2.831   3.209   3.215 -0.0322 -0.0364 -0.3434
 1298SOL    HW1 3893   2.878   3.193   3.133 -0.7993 -0.4589 -0.7159
 1298SOL    HW2 3894   2.789   3.125   3.235  0.1949  0.0443  0.5218
 1299SOL     OW 3895   3.355   3.739   2.310  0.2914 -0.5432  0.0884
 1299SOL    HW1 3896   3.399   3.728   2.394 -1.0829  2.1777  1.2789
 1299SOL    HW2 3897   3.420   3.781   2.254  0.2006  0.7924  0.9320
 1300SOL     OW 3898   1.044   3.775   1.608  0.2568  0.0538  0.0210
 1300SOL    HW1 3899   0.993   3.750   1.685  1.2500  0.2901  0.7755
 1300SOL    HW2 3900   0.982   3.822   1.553 -1.2623 -2.6963 -0.7594
 1301SOL     OW 3901   3.247   3.756   1.632  0.1188  0.2693  0.2090
 1301SOL    HW1 3902   3.325   3.722   1.588  0.8088  2.1772 -0.0987
 1301SOL    HW2 3903   3.258   3.730   1.724  0.0187 -1.3331 -0.1931
 1302SOL     OW 3904   0.308   1.923   1.113 -0.5084  0.2243 -0.0613
 1302SOL    HW1 3905   0.361   1.989   1.158 -1.4326 -0.3733  2.0168
 1302SOL    HW2 3906   0.268   1.872   1.183 -2.4869 -0.4202 -1.5627
 1303SOL     OW 3907   3.836   0.765   0.847 -0.0913  0.1885 -0.0054
 1303SOL    HW1 3908   3.788   0.799   0.923 -0.1178  1.6849 -0.6647
 1303SOL    HW2 3909   3.849   0.841   0.791  0.5269 -0.7665 -1.1948
 1304SOL     OW 3910   2.470   3.026   1.688  1.2670 -0.0776  0.0337
 1304SOL    HW1 3911   2.539   2.960   1.696  1.8225  0.5895  0.8494
 1304SOL    HW2 3912   2.433   3.033   1.775 -1.2790 -1.8901 -0.7683
 1305SOL     OW 3913   2.517   0.356   2.084 -0.8257  0.2433 -0.0330
 1305SOL    HW1 3914   2.564   0.388   2.161 -0.0573 -0.9227 -0.0008
 1305SOL    HW2 3915   2.425   0.353   2.112 -0.4516 -1.0038  1.1489
 1306SOL     OW 3916   2.858   2.631   1.657 -0.1279 -0.4570 -0.3569
 1306SOL    HW1 3917   2.876   2.542   1.624  0.3392 -0.6968  0.5196
 1306SOL    HW2 3918   2.899   2.689   1.592  0.2615 -0.9096 -0.5235
 1307SOL     OW 3919   1.029   1.653   1.545  0.2020  0.2843 -0.0859
 1307SOL    HW1 3920   1.071   1.581   1.592 -0.4765 -1.1304 -1.5119
 1307SOL    HW2 3921   0.960   1.683   1.604 -0.3473 -1.1426  0.0460
 1308SOL     OW 3922   3.633   0.262   0.155  0.3041  0.5197 -0.7156
 1308SOL    HW1 3923   3.562   0.202   0.176 -0.0275  1.9925  3.1797
 1308SOL    HW2 3924   3.681   0.218   0.084 -1.5562 -2.8962 -0.0759
 1309SOL     OW 3925   1.224   1.630   0.246  0.4488  0.3625  0.1396
 1309SOL    HW1 3926   1.199   1.638   0.154  0.3263 -1.5479 -0.0463
 1309SOL    HW2 3927   1.140   1.631   0.293  0.4278  0.2234  0.1077
 1310SOL     OW 3928   0.380   2.515   1.761  0.2638  0.0429  0.2173
 1310SOL    HW1 3929   0.289   2.524   1.790  0.3186  0.6904  0.1905
 1310SOL    HW2 3930   0.428   2.496   1.841  0.1688  0.1229  0.2939
 1311SOL     OW 3931   1.565   3.400   2.971  0.5919  0.7425 -0.8409
 1311SOL    HW1 3932   1.491   3.455   2.942 -3.4447 -2.6101  1.8391
 1311SOL    HW2 3933   1.629   3.462   3.005 -1.8798  3.8913 -1.4302
 1312SOL     OW 3934   2.402   0.825   3.143  0.0001  0.5689  0.7571
 1312SOL    HW1 3935   2.338   0.871   3.089 -0.5961 -1.0690  0.0383
 1312SOL    HW2 3936   2.399   0.734   3.114  1.0338  0.0031  2.2580
 1313SOL     OW 3937   0.310   3.651   2.339 -0.0391 -1.0168 -0.1309
 1313SOL    HW1 3938   0.297   3.684   2.250 -1.0627 -0.5362  0.1837
 1313SOL    HW2 3939   0.241   3.693   2.390  3.2986  2.6316  1.9362
 1314SOL     OW 3940   3.523   1.689   2.856 -0.7730 -0.0129  0.1855
 1314SOL    HW1 3941   3.552   1.598   2.865  4.3100  1.4560  1.8625
 1314SOL    HW2 3942   3.536   1.710   2.764  1.3347 -0.1578  0.4112
 1315SOL     OW 3943   1.615   0.759   0.705  0.1640  0.1736 -0.5298
 1315SOL    HW1 3944   1.684   0.730   0.766 -1.3285  0.6226  1.4816
 1315SOL    HW2 3945   1.649   0.840   0.667  0.9363  0.1470  0.0756
 1316SOL     OW 3946   3.657   3.991   1.970  0.1211 -0.2113  0.2082
 1316SOL    HW1 3947   3.609   3.958   1.894 -0.9946 -0.3922  0.9779
 1316SOL    HW2 3948   3.748   3.996   1.939 -0.2156 -0.7979 -0.9658
 1317SOL     OW 3949   0.480   3.240   3.212  0.3827  0.3597 -0.0263
 1317SOL    HW1 3950   0.508   3.268   3.300  0.3903  0.7874 -0.1640
 1317SOL    HW2 3951   0.412   3.302   3.188  0.7928  0.5970 -0.5711
 1318SOL     OW 3952   0.593   3.837   3.125 -0.3549 -0.2296 -0.2554
 1318SOL    HW1 3953   0.675   3.822   3.078 -0.1822  0.6929 -0.2657
 1318SOL    HW2 3954   0.555   3.913   3.082 -0.2837  0.5212  0.9682
 1319SOL     OW 3955   1.192   1.472   1.680 -0.4636  0.6286 -0.2835
 1319SOL    HW1 3956   1.272   1.443   1.635  0.4692  2.8445 -0.1584
 1319SOL    HW2 3957   1.189   1.419   1.759  0.7904  0.3762 -0.3767
 1320SOL     OW 3958   3.920   2.070   1.971 -0.3353  0.3547 -0.3657
 1320SOL    HW1 3959   3.855   2.059   2.040 -0.2289 -0.9771 -0.4603
 1320SOL    HW2 3960   3.921   1.987   1.924  0.7773  0.6652 -0.9449
 1321SOL     OW 3961   1.809   3.475   0.462  0.0013 -0.5112  0.0685
 1321SOL    HW1 3962   1.822   3.381   0.472 -1.1281 -0.5749  1.3094
 1321SOL    HW2 3963   1.891   3.514   0.493  0.4811 -1.0712 -0.4648
 1322SOL     OW 3964   2.972   3.053   3.871 -0.2456  0.0866  0.0214
 1322SOL    HW1 3965   3.042   3.000   3.910  4.6669  4.0476 -2.1353
 1322SOL    HW2 3966   2.925   3.090   3.945  1.9967 -0.4708  1.8382
 1323SOL     OW 3967   0.130   2.577   3.302 -0.2917  0.1678  0.4052
 1323SOL    HW1 3968   0.053   2.565   3.247 -0.3402 -0.7587  0.6633
 1323SOL    HW2 3969   0.097   2.614   3.384 -0.3063  0.8674  0.0942
 1324SOL     OW 3970   0.407   2.339   2.776  0.0175  0.8919  0.8142
 1324SOL    HW1 3971   0.377   2.415   2.727 -0.8636  0.5004  0.7258
 1324SOL    HW2 3972   0.374   2.264   2.727 -0.9450  0.4886  2.0289
 1325SOL     OW 3973   1.193   1.974   0.481 -0.0492 -0.3463  0.1359
 1325SOL    HW1 3974   1.130   1.906   0.502  0.0705  0.0924  2.1854
 1325SOL    HW2 3975   1.173   2.045   0.543  1.7246  0.2489  0.0832
 1326SOL     OW 3976   3.111   0.389   1.500  0.0863  0.5325  0.2240
 1326SOL    HW1 3977   3.035   0.345   1.538  0.8508  0.4851  1.7708
 1326SOL    HW2 3978   3.121   0.468   1.552  0.2429  1.2785 -0.9131
 1327SOL     OW 3979   2.681   3.585   2.262 -0.6324 -0.3507  0.7682
 1327SOL    HW1 3980   2.705   3.674   2.285 -1.4132  0.4522 -1.2997
 1327SOL    HW2 3981   2.722   3.570   2.177  1.0469 -2.6742  1.8835
 1328SOL     OW 3982   2.058   3.941   3.125  0.2132 -0.0442  0.4348
 1328SOL    HW1 3983   2.030   4.015   3.071 -0.0006  1.4554  2.4836
 1328SOL    HW2 3984   2.153   3.938   3.114  0.4998  1.8784  1.8223
 1329SOL     OW 3985   2.102   3.953   0.837 -0.5607  0.1632 -0.2774
 1329SOL    HW1 3986   2.076   3.885   0.899 -1.3751  0.3277 -0.4238
 1329SOL    HW2 3987   2.193   3.932   0.815 -1.2487 -1.7842 -1.4994
 1330SOL     OW 3988   1.921   2.130   3.089 -0.3051 -0.4452  0.4405
 1330SOL    HW1 3989   1.950   2.203   3.034  0.0856 -0.2071  0.9601
 1330SOL    HW2 3990   1.842   2.162   3.132 -1.0772 -0.9126 -0.5767
 1331SOL     OW 3991   3.748   2.147   0.547 -0.1267 -0.0321  0.6968
 1331SOL    HW1 3992   3.685   2.199   0.497  0.2374 -0.6505 -0.4423
 1331SOL    HW2 3993   3.799   2.212   0.595 -0.9980  0.5340  0.8750
 1332SOL     OW 3994   0.934   0.191   0.217  0.2563 -0.3729  0.8885
 1332SOL    HW1 3995   0.995   0.129   0.259 -0.6455 -1.5433  0.5158
 1332SOL    HW2 3996   0.882   0.225   0.290 -0.6026 -1.6104  0.8847
 1333SOL     OW 3997   0.052   3.154   0.265 -0.2644 -0.7867 -0.4152
 1333SOL    HW1 3998   0.104   3.203   0.202 -1.4475 -1.9236 -2.3835
 1333SOL    HW2 3999  -0.010   3.218   0.301 -0.2073 -0.3114 -1.1406
 1334SOL     OW 4000   2.941   2.453   0.183  0.0645 -0.2491 -0.3543
 1334SOL    HW1 4001   2.923   2.364   0.156 -0.8944  0.0923 -0.8928
 1334SOL    HW2 4002   2.917   2.507   0.107  0.9834  0.4406 -0.1773
 1335SOL     OW 4003   0.033   2.932   0.090  0.3078  0.1796 -0.4768
 1335SOL    HW1 4004  -0.024   2.871   0.136  0.7809 -0.3436 -0.5757
 1335SOL    HW2 4005   0.030   3.012   0.142  1.1827 -0.5414  0.7269
 1336SOL     OW 4006   2.335   0.061   0.987 -0.0854  0.1449 -0.0331
 1336SOL    HW1 4007   2.349  -0.022   0.941 -0.0272 -0.0282  0.2903
 1336SOL    HW2 4008   2.242   0.080   0.976 -0.1505 -0.0918  0.1003
 1337SOL     OW 4009   2.500   2.920   0.235 -0.3151 -0.0670  1.0349
 1337SOL    HW1 4010   2.443   2.996   0.251 -0.0883  0.0076  1.5044
 1337SOL    HW2 4011   2.535   2.898   0.321  0.2518 -0.2092  0.7731
 1338SOL     OW 4012   3.827   3.094   2.200 -0.9078  0.1349  0.6429
 1338SOL    HW1 4013   3.736   3.076   2.221 -0.6870 -0.1397  1.3651
 1338SOL    HW2 4014   3.844   3.041   2.122 -1.3858  0.2597  0.4491
 1339SOL     OW 4015   2.904   2.549   3.701  0.9474 -0.3292  0.8297
 1339SOL    HW1 4016   2.955   2.469   3.702  1.6494  0.1087  0.7991
 1339SOL    HW2 4017   2.969   2.619   3.696  0.3306  0.2185  0.1980
 1340SOL     OW 4018   0.360   3.082   3.998 -0.4782  0.0391 -0.3329
 1340SOL    HW1 4019   0.309   3.053   3.922 -0.5402  2.8445 -1.4820
 1340SOL    HW2 4020   0.448   3.046   3.982 -0.2167  1.4015 -2.3480
 1341SOL     OW 4021   0.733   0.484   3.197 -0.0165  0.1402  0.0016
 1341SOL    HW1 4022   0.788   0.560   3.214  1.1980 -0.4203 -1.1255
 1341SOL    HW2 4023   0.783   0.433   3.132 -2.3415  0.1200 -1.9164
 1342SOL     OW 4024   3.460   1.278   0.606  0.4177 -0.5359 -0.0421
 1342SOL    HW1 4025   3.378   1.231   0.589  0.6128 -0.6644 -0.6785
 1342SOL    HW2 4026   3.445   1.367   0.574 -0.0862 -0.0221  1.5262
 1343SOL     OW 4027   0.952   2.273   0.173  0.0574 -0.6488 -0.2124
 1343SOL    HW1 4028   0.987   2.349   0.125  3.4748 -0.1145  2.6655
 1343SOL    HW2 4029   0.964   2.200   0.112  2.6359  0.2247 -0.9314
 1344SOL     OW 4030   1.501   3.028   1.328 -0.3383  0.0683  0.4608
 1344SOL    HW1 4031   1.502   3.106   1.384 -0.0939 -0.0993  0.6949
 1344SOL    HW2 4032   1.411   2.996   1.332 -0.1494 -0.3822  1.3754
 1345SOL     OW 4033   0.464   3.415   1.991  0.2432  0.1173 -0.3953
 1345SOL    HW1 4034   0.545   3.458   1.962  1.9300 -2.2434  0.4918
 1345SOL    HW2 4035   0.458   3.337   1.937 -1.6539  0.3777 -0.6198
 1346SOL     OW 4036   0.215   3.280   2.893  0.1354  0.2638 -0.1787
 1346SOL    HW1 4037   0.192   3.261   2.984 -1.4863  0.5106 -0.5094
 1346SOL    HW2 4038   0.295   3.230   2.877  0.9628  0.9248  1.6441
 1347SOL     OW 4039   2.074   1.932   3.628  0.2409  0.2415 -0.4101
 1347SOL    HW1 4040   2.163   1.908   3.654 -0.3284 -0.2204  1.2511
 1347SOL    HW2 4041   2.080   1.950   3.535  1.7574 -1.3426 -0.6678
 1348SOL     OW 4042   0.346   1.159   0.826 -0.4469 -0.6242  0.0258
 1348SOL    HW1 4043   0.372   1.106   0.751  1.1722  0.3511 -0.1616
 1348SOL    HW2 4044   0.254   1.138   0.841 -0.8459 -0.7386 -2.3258
 1349SOL     OW 4045   2.709   2.199   3.834  1.0078 -0.2204 -0.2346
 1349SOL    HW1 4046   2.663   2.143   3.898  0.8027  1.1164  0.8360
 1349SOL    HW2 4047   2.790   2.224   3.879  1.9879 -1.1404 -1.4351
 1350SOL     OW 4048   3.246   0.179   3.230 -0.2669  0.5575  0.4936
 1350SOL    HW1 4049   3.176   0.227   3.273  0.7588  2.9979 -0.4141
 1350SOL    HW2 4050   3.214   0.164   3.141  0.1209  1.1811  0.2441
 1351SOL     OW 4051   1.559   0.830   1.034 -0.5148 -0.3598 -0.2572
 1351SOL    HW1 4052   1.638   0.854   0.985  0.8819 -3.5488  0.1687
 1351SOL    HW2 4053   1.516   0.764   0.979 -2.2152  0.4123  0.1046
 1352SOL     OW 4054   1.521   2.954   3.805 -0.0727 -0.1492 -0.4442
 1352SOL    HW1 4055   1.466   2.876   3.808  0.4661 -0.5137  0.0280
 1352SOL    HW2 4056   1.610   2.922   3.818 -0.0555  0.7601  2.2021
 1353SOL     OW 4057   0.113   1.852   0.717 -0.4728  0.0962 -0.1262
 1353SOL    HW1 4058   0.124   1.901   0.635 -0.4902  1.3194  0.5692
 1353SOL    HW2 4059   0.099   1.762   0.690 -0.3926  0.4653 -1.4669
 1354SOL     OW 4060   2.375   0.636   2.588  0.1615  0.2370  0.2426
 1354SOL    HW1 4061   2.433   0.561   2.600  1.7881  1.0508 -1.9152
 1354SOL    HW2 4062   2.432   0.712   2.600 -0.7431  1.0912 -0.7235
 1355SOL     OW 4063   0.616   1.889   3.258 -0.1817 -0.3629 -0.1348
 1355SOL    HW1 4064   0.688   1.889   3.194  1.4675  0.4892  1.6083
 1355SOL    HW2 4065   0.629   1.810   3.309  0.2476  0.3558  0.9131
 1356SOL     OW 4066   2.408   1.336   0.107  1.0907  0.3987 -1.0429
 1356SOL    HW1 4067   2.491   1.337   0.061  1.4961 -0.8603 -0.3887
 1356SOL    HW2 4068   2.388   1.244   0.120  0.3193  0.6909  0.0893
 1357SOL     OW 4069   2.791   3.103   0.353 -0.3358  0.2381 -0.1719
 1357SOL    HW1 4070   2.732   3.092   0.428 -2.0901 -0.4069 -1.5796
 1357SOL    HW2 4071   2.834   3.018   0.344 -1.2149 -0.1717 -0.7294
 1358SOL     OW 4072   0.276   3.641   0.189  0.1341 -0.0159  0.0647
 1358SOL    HW1 4073   0.368   3.667   0.177  0.9007 -1.1583  2.7630
 1358SOL    HW2 4074   0.231   3.721   0.214  1.0032  0.0813  1.4019
 1359SOL     OW 4075   2.318   2.296   0.968 -0.1795  0.4552  0.5868
 1359SOL    HW1 4076   2.326   2.350   1.047  1.8310  3.3720 -1.4220
 1359SOL    HW2 4077   2.406   2.261   0.954 -0.4517  0.1621 -0.5002
 1360SOL     OW 4078   3.213   2.577   3.418 -0.0472  0.8573 -0.7134
 1360SOL    HW1 4079   3.170   2.524   3.485 -0.0015  0.9249 -0.6311
 1360SOL    HW2 4080   3.192   2.532   3.336 -3.0862  2.6659 -1.0728
 1361SOL     OW 4081   2.169   3.849   1.669  0.2058 -0.0912  0.1714
 1361SOL    HW1 4082   2.220   3.921   1.708 -0.1625  0.8084 -0.9424
 1361SOL    HW2 4083   2.235   3.791   1.631  0.4522  0.9020 -0.9843
 1362SOL     OW 4084   0.852   3.122   0.189  0.0137  0.5010  0.6183
 1362SOL    HW1 4085   0.934   3.157   0.154  0.5178 -2.3145 -1.3819
 1362SOL    HW2 4086   0.785   3.148   0.125  0.5284 -2.5605 -1.3560
 1363SOL     OW 4087   0.127   2.788   1.605  0.2143  0.6315  0.1044
 1363SOL    HW1 4088   0.178   2.791   1.687  0.8132 -1.2644 -0.1641
 1363SOL    HW2 4089   0.192   2.777   1.537 -0.4543 -0.5046 -0.3734
 1364SOL     OW 4090   0.263   0.114   1.174  0.3914 -0.1027  0.1854
 1364SOL    HW1 4091   0.305   0.111   1.260 -0.8422 -1.2710  0.7784
 1364SOL    HW2 4092   0.223   0.028   1.163 -2.0209  0.9745 -0.2287
 1365SOL     OW 4093   2.503   1.675   2.920  0.0358 -0.2308 -0.2275
 1365SOL    HW1 4094   2.537   1.700   3.006 -0.7728  1.2353 -0.3028
 1365SOL    HW2 4095   2.449   1.598   2.937 -0.6419  0.4277  0.6986
 1366SOL     OW 4096   0.775   0.638   1.783 -0.1157 -0.0354 -0.1790
 1366SOL    HW1 4097   0.842   0.573   1.762  0.0825 -1.2824  3.6494
 1366SOL    HW2 4098   0.825   0.718   1.802 -0.0652  0.1565 -1.0647
 1367SOL     OW 4099   1.047   3.699   1.070 -0.5150  0.0974  0.2882
 1367SOL    HW1 4100   1.062   3.748   1.151 -1.8582  0.4280  0.3474
 1367SOL    HW2 4101   1.135   3.676   1.040  0.1111  1.7127  0.7620
 1368SOL     OW 4102   0.624   1.137   0.083  0.2624  0.0310 -0.0535
 1368SOL    HW1 4103   0.712   1.101   0.095  0.3163  0.0800 -0.2858
 1368SOL    HW2 4104   0.598   1.104  -0.003 -1.4979 -3.2644  1.5438
 1369SOL     OW 4105   3.068   1.057   1.355 -0.1765  0.0653 -0.7087
 1369SOL    HW1 4106   3.127   1.044   1.280  0.7404 -1.0784  0.1900
 1369SOL    HW2 4107   3.022   1.138   1.334  0.6904  0.2355 -2.1107
 1370SOL     OW 4108   0.339   0.623   2.769  0.2721 -0.5516 -0.3699
 1370SOL    HW1 4109   0.380   0.706   2.744  2.3888 -1.1572  0.8191
 1370SOL    HW2 4110   0.398   0.556   2.734  0.2176 -1.4909  1.2427
 1371SOL     OW 4111   3.317   3.517   0.408  0.3356 -0.3130  0.0244
 1371SOL    HW1 4112   3.346   3.608   0.411  0.4575 -0.3660  0.4446
 1371SOL    HW2 4113   3.221   3.522   0.403  0.3698 -0.1541 -0.5164
 1372SOL     OW 4114   3.564   3.780   2.122 -0.5102 -0.1986 -0.2581
 1372SOL    HW1 4115   3.614   3.860   2.105 -0.0537 -0.8063 -1.8784
 1372SOL    HW2 4116   3.628   3.720   2.160 -0.9780  0.3446  1.4911
 1373SOL     OW 4117   3.804   0.202   0.415 -0.0518  0.8290  0.2293
 1373SOL    HW1 4118   3.762   0.258   0.349  4.3823  2.3285 -1.6654
 1373SOL    HW2 4119   3.866   0.260   0.459  1.9470 -1.7327  0.9684
 1374SOL     OW 4120   2.092   2.725   1.727 -0.4252  0.7983 -0.4951
 1374SOL    HW1 4121   2.076   2.687   1.640  2.0312 -0.2615 -0.5663
 1374SOL    HW2 4122   2.083   2.651   1.787  1.1754  0.7574 -0.2624
 1375SOL     OW 4123   0.594   1.711   3.466  0.5047 -0.1915  0.3680
 1375SOL    HW1 4124   0.573   1.791   3.515  2.0828  0.4541  0.0454
 1375SOL    HW2 4125   0.665   1.671   3.514 -0.7175 -1.8120  0.9029
 1376SOL     OW 4126   3.411   2.996   0.968  0.4183  0.2875  0.1323
 1376SOL    HW1 4127   3.320   3.014   0.991  0.3480 -0.1400  0.2102
 1376SOL    HW2 4128   3.450   3.082   0.952 -0.3886  0.4051 -1.4015
 1377SOL     OW 4129   2.938   0.035   3.253  0.3063  0.7931 -0.5025
 1377SOL    HW1 4130   2.982  -0.047   3.230 -1.3235 -0.4028  0.4092
 1377SOL    HW2 4131   2.955   0.093   3.179 -1.2033 -1.4866 -2.8200
 1378SOL     OW 4132   3.500   0.112   3.142 -0.3805 -0.8058 -0.0329
 1378SOL    HW1 4133   3.504   0.138   3.051  1.2024  3.8596  1.1131
 1378SOL    HW2 4134   3.410   0.130   3.169 -1.0009 -2.6959 -0.6765
 1379SOL     OW 4135   1.573   2.105   2.224 -0.4292 -0.9093 -0.1278
 1379SOL    HW1 4136   1.569   2.197   2.250 -0.6038 -1.1404  0.6785
 1379SOL    HW2 4137   1.520   2.059   2.289 -1.7888 -1.3833 -1.5142
 1380SOL     OW 4138   0.032   3.937   2.471  0.4119 -0.1081 -0.1716
 1380SOL    HW1 4139   0.114   3.933   2.520 -0.1247 -0.6080  0.7279
 1380SOL    HW2 4140  -0.032   3.897   2.530 -0.3286 -0.4123 -1.1610
 1381SOL     OW 4141   0.453   3.089   3.713  0.1423  0.2943  0.0683
 1381SOL    HW1 4142   0.359   3.102   3.702  0.3628  2.6300  0.4451
 1381SOL    HW2 4143   0.485   3.076   3.623 -0.3100  1.4987 -0.2919
 1382SOL     OW 4144   0.827   1.554   1.720 -0.5083 -0.1820  0.1042
 1382SOL    HW1 4145   0.758   1.612   1.752 -0.4779 -0.2545  0.3034
 1382SOL    HW2 4146   0.780   1.482   1.678 -0.5928 -0.9041  1.3935
 1383SOL     OW 4147   1.755   3.926   3.789  0.2775  0.1334  0.0541
 1383SOL    HW1 4148   1.808   3.871   3.847  0.4861 -2.0171 -2.0384
 1383SOL    HW2 4149   1.813   3.946   3.715 -1.0875 -0.3595 -1.1998
 1384SOL     OW 4150   2.626   3.048   2.308 -0.8693 -0.4357 -0.4662
 1384SOL    HW1 4151   2.707   3.098   2.319 -2.1555  1.8095 -0.4337
 1384SOL    HW2 4152   2.605   3.017   2.396 -1.4473  1.4064  0.0915
 1385SOL     OW 4153   0.277   2.938   0.518 -0.1651 -0.0022 -0.1151
 1385SOL    HW1 4154   0.287   2.950   0.612  1.6486  0.3778 -0.3170
 1385SOL    HW2 4155   0.314   2.851   0.501 -1.1960 -0.3997 -0.3858
 1386SOL     OW 4156   3.132   2.406   1.314 -0.2899 -0.5172  0.0691
 1386SOL    HW1 4157   3.190   2.385   1.387 -0.6266 -2.0065 -0.0552
 1386SOL    HW2 4158   3.190   2.442   1.247  0.2726 -0.6421  0.4778
 1387SOL     OW 4159   2.123   0.641   0.112  0.0721 -0.2578  0.0556
 1387SOL    HW1 4160   2.037   0.599   0.115 -0.4089  0.6714 -0.3233
 1387SOL    HW2 4161   2.162   0.624   0.198 -0.3001 -1.0642  0.0699
 1388SOL     OW 4162   3.785   3.459   1.117  0.0149 -0.2246 -0.1302
 1388SOL    HW1 4163   3.726   3.492   1.049  1.2578 -0.2709 -1.2657
 1388SOL    HW2 4164   3.868   3.442   1.071  0.9372 -0.1008  1.4344
 1389SOL     OW 4165   1.753   0.586   1.832 -0.0458  0.3497 -0.1395
 1389SOL    HW1 4166   1.703   0.647   1.777 -2.0998  0.5421  1.7393
 1389SOL    HW2 4167   1.712   0.501   1.816  1.2700 -0.1346 -1.0228
 1390SOL     OW 4168   1.876   2.177   3.770  0.0235 -0.4723 -0.1844
 1390SOL    HW1 4169   1.859   2.084   3.752 -1.0135  0.0579 -2.3177
 1390SOL    HW2 4170   1.961   2.194   3.729 -0.0912 -0.3452 -0.3718
 1391SOL     OW 4171   3.635   0.633   1.766 -0.0013 -0.6017 -0.2045
 1391SOL    HW1 4172   3.615   0.540   1.767 -1.3337 -0.3426  0.2709
 1391SOL    HW2 4173   3.718   0.640   1.719  2.2083 -2.4109  3.0410
 1392SOL     OW 4174   2.111   3.194   3.051  0.3957  0.1673  0.2946
 1392SOL    HW1 4175   2.196   3.161   3.079  0.7595 -0.6339 -1.6000
 1392SOL    HW2 4176   2.098   3.156   2.964 -1.6493  0.7277  0.3071
 1393SOL     OW 4177   2.888   0.398   3.231 -0.5075  0.4260 -0.1596
 1393SOL    HW1 4178   2.906   0.489   3.205 -2.5172  0.5003 -1.5199
 1393SOL    HW2 4179   2.808   0.375   3.184  0.3254 -2.3155 -0.4108
 1394SOL     OW 4180   3.034   0.896   1.578 -0.0340  0.3096  0.6419
 1394SOL    HW1 4181   2.940   0.883   1.587 -0.0606 -0.5134 -0.5563
 1394SOL    HW2 4182   3.042   0.964   1.511  0.2162 -0.4068 -0.0726
 1395SOL     OW 4183   0.830   0.497   2.224 -0.2425 -0.1047  0.2162
 1395SOL    HW1 4184   0.894   0.563   2.199  0.4464 -0.4371  1.0567
 1395SOL    HW2 4185   0.854   0.473   2.313 -1.0630 -0.8103  0.2603
 1396SOL     OW 4186   0.801   3.992   2.709  0.1730  0.0586  0.5068
 1396SOL    HW1 4187   0.768   3.931   2.775  1.1778 -0.4984  0.5330
 1396SOL    HW2 4188   0.886   4.020   2.744  0.6421 -0.1189 -0.4636
 1397SOL     OW 4189   3.916   3.395   0.401  0.1243 -0.0642 -0.7586
 1397SOL    HW1 4190   3.852   3.463   0.379 -0.0692 -0.1254 -0.3886
 1397SOL    HW2 4191   4.000   3.439   0.391  0.0544 -0.1620 -1.8644
 1398SOL     OW 4192   3.212   2.802   0.842 -0.9306  0.0215 -0.1777
 1398SOL    HW1 4193   3.243   2.727   0.791  1.0141  0.0391  0.8802
 1398SOL    HW2 4194   3.255   2.878   0.802  0.7201  0.0245  1.4560
 1399SOL     OW 4195   2.867   2.098   3.570  0.2521  0.1139 -0.1655
 1399SOL    HW1 4196   2.843   2.114   3.661  1.2131 -0.2879  0.1750
 1399SOL    HW2 4197   2.961   2.081   3.573  0.3686  0.4799 -1.2834
 1400SOL     OW 4198   2.199   0.356   2.540 -0.0968 -0.0291 -0.8335
 1400SOL    HW1 4199   2.275   0.299   2.528 -0.2094 -0.3998  0.1126
 1400SOL    HW2 4200   2.126   0.296   2.554 -0.8204  0.2881 -2.9226
 1401SOL     OW 4201   1.266   1.305   0.937  0.1924  0.2147 -0.1394
 1401SOL    HW1 4202   1.355   1.341   0.944  1.1256 -2.0494  0.6572
 1401SOL    HW2 4203   1.262   1.269   0.848 -0.0287  0.5373 -0.2616
 1402SOL     OW 4204   0.447   2.322   1.567 -0.1305  0.3106  0.1412
 1402SOL    HW1 4205   0.403   2.403   1.596  1.1965  0.8312  0.7995
 1402SOL    HW2 4206   0.464   2.274   1.648  0.0191 -0.1436 -0.1588
 1403SOL     OW 4207   2.729   3.606   1.722 -0.2952  0.7071  0.1013
 1403SOL    HW1 4208   2.787   3.682   1.723 -1.0140  1.3034  2.0537
 1403SOL    HW2 4209   2.771   3.542   1.780 -0.3638  0.1491 -0.4572
 1404SOL     OW 4210   1.868   0.408   2.564  0.1957 -0.8412  0.1811
 1404SOL    HW1 4211   1.830   0.443   2.644  2.0273  3.4635 -0.5599
 1404SOL    HW2 4212   1.885   0.316   2.584 -0.4993 -0.2761  4.2860
 1405SOL     OW 4213   2.893   1.981   1.042  0.7209  0.1045 -0.1089
 1405SOL    HW1 4214   2.880   2.004   1.134  0.8869 -0.4572  0.0583
 1405SOL    HW2 4215   2.928   2.061   1.002 -2.3704  1.4423 -0.4214
 1406SOL     OW 4216   1.724   1.595   3.272 -0.0025 -0.0636  0.0737
 1406SOL    HW1 4217   1.764   1.516   3.309  1.6025  1.3061  1.4231
 1406SOL    HW2 4218   1.637   1.598   3.312  0.0090 -0.9895  0.2060
 1407SOL     OW 4219   2.073   3.550   2.429 -0.3070 -0.9416  0.2164
 1407SOL    HW1 4220   1.979   3.570   2.430  0.1102  1.3378  0.5275
 1407SOL    HW2 4221   2.102   3.575   2.341  0.3362  0.4229  0.7782
 1408SOL     OW 4222   1.447   2.220   3.473 -0.0277  0.4841 -0.3269
 1408SOL    HW1 4223   1.450   2.192   3.382 -0.7492 -0.2583 -0.1328
 1408SOL    HW2 4224   1.418   2.142   3.521  3.1941 -0.0893  0.9356
 1409SOL     OW 4225   1.628   0.590   2.122 -0.0970 -0.3149 -0.2328
 1409SOL    HW1 4226   1.661   0.606   2.033 -0.0361  0.4831 -0.0717
 1409SOL    HW2 4227   1.689   0.527   2.159  1.8069  1.7624  0.3605
 1410SOL     OW 4228   0.625   3.366   0.909 -0.1705  0.2657  0.4030
 1410SOL    HW1 4229   0.679   3.399   0.981 -0.3862 -0.0113  0.6981
 1410SOL    HW2 4230   0.686   3.356   0.836  0.0163  0.7187  0.4937
 1411SOL     OW 4231   3.844   3.661   2.629 -0.2671  0.1368 -0.8795
 1411SOL    HW1 4232   3.822   3.658   2.722  0.5390 -0.5784 -0.6981
 1411SOL    HW2 4233   3.782   3.600   2.588  1.2782 -1.8689 -0.3740
 1412SOL     OW 4234   2.250   2.277   3.776  0.0659  0.6739 -0.3268
 1412SOL    HW1 4235   2.304   2.305   3.702 -0.7241  1.9363 -0.4539
 1412SOL    HW2 4236   2.305   2.214   3.823  1.3635  1.3530 -0.8744
 1413SOL     OW 4237   0.550   2.744   2.740 -0.0602 -0.0540  0.5079
 1413SOL    HW1 4238   0.546   2.663   2.689  0.0246 -0.2145  0.7576
 1413SOL    HW2 4239   0.525   2.812   2.677  1.3754 -0.0769 -0.1338
 1414SOL     OW 4240   0.147   0.136   3.117  0.3690  0.7297  0.5482
 1414SOL    HW1 4241   0.100   0.176   3.043 -3.3640 -1.1777  1.6118
 1414SOL    HW2 4242   0.168   0.209   3.175  0.7943  1.9246 -1.0488
 1415SOL     OW 4243   2.890   1.523   0.255  0.5614 -0.8433 -0.0723
 1415SOL    HW1 4244   2.849   1.590   0.200  0.3621 -1.0565 -0.1862
 1415SOL    HW2 4245   2.832   1.514   0.330  0.7412 -0.6797  0.0863
 1416SOL     OW 4246   1.784   0.824   3.990 -0.0435 -0.5995  0.0108
 1416SOL    HW1 4247   1.740   0.836   3.906  1.6686  2.2602 -0.6154
 1416SOL    HW2 4248   1.805   0.730   3.993 -1.7270 -1.1078 -1.8775
 1417SOL     OW 4249   2.331   3.107   0.559 -0.1062  0.5586 -0.2894
 1417SOL    HW1 4250   2.238   3.127   0.545 -0.6335 -0.4243  1.5327
 1417SOL    HW2 4251   2.367   3.099   0.470 -1.9814 -0.0118 -1.0524
 1418SOL     OW 4252   3.791   2.525   3.447  0.2690 -0.5380 -0.4975
 1418SOL    HW1 4253   3.701   2.492   3.451  0.7220 -1.7745  0.3684
 1418SOL    HW2 4254   3.813   2.523   3.354 -0.7214  0.1630 -0.7642
 1419SOL     OW 4255   0.953   1.812   2.462 -0.0781  0.1211  0.1333
 1419SOL    HW1 4256   0.881   1.749   2.453 -0.3586  0.3476  0.7435
 1419SOL    HW2 4257   0.999   1.807   2.378  0.4556 -1.5666  0.4895
 1420SOL     OW 4258   2.427   3.497   2.640  0.2371  0.9934 -0.2778
 1420SOL    HW1 4259   2.353   3.442   2.614  0.6325  0.8817 -1.2230
 1420SOL    HW2 4260   2.409   3.583   2.601  0.2968  1.1491  0.0283
 1421SOL     OW 4261   0.469   0.435   2.380 -0.3844 -0.2911 -0.3282
 1421SOL    HW1 4262   0.478   0.378   2.304  1.2718  1.6773 -1.7139
 1421SOL    HW2 4263   0.376   0.431   2.403 -0.4665 -2.8479 -0.8428
 1422SOL     OW 4264   3.332   2.899   3.669 -0.2829  0.7131 -0.0790
 1422SOL    HW1 4265   3.415   2.855   3.650 -0.6366  0.2573 -0.6294
 1422SOL    HW2 4266   3.304   2.935   3.584 -2.4751 -2.3584 -0.8496
 1423SOL     OW 4267   1.414   0.353   3.686 -0.2806  0.0671 -0.1391
 1423SOL    HW1 4268   1.462   0.271   3.694  0.3773  0.5570  1.4092
 1423SOL    HW2 4269   1.464   0.415   3.740 -1.3494  1.2065 -0.4131
 1424SOL     OW 4270   3.451   3.552   2.722  0.6417 -0.1539 -0.5190
 1424SOL    HW1 4271   3.368   3.505   2.726  0.9000 -1.0029 -3.3151
 1424SOL    HW2 4272   3.492   3.533   2.807 -1.6818 -0.2630  0.6539
 1425SOL     OW 4273   2.837   2.068   3.266  0.1684  0.5359 -0.7996
 1425SOL    HW1 4274   2.806   1.987   3.305  0.2191  0.5891 -0.6483
 1425SOL    HW2 4275   2.908   2.097   3.324  0.8264  0.1611 -1.4086
 1426SOL     OW 4276   3.553   2.781   3.569  0.4390  0.4460  0.6099
 1426SOL    HW1 4277   3.614   2.852   3.549 -1.5778  2.1527  0.1493
 1426SOL    HW2 4278   3.559   2.723   3.494 -0.2444  1.9036 -0.6414
 1427SOL     OW 4279   3.542   1.943   0.885  0.6691  0.1636 -0.2813
 1427SOL    HW1 4280   3.635   1.952   0.906  1.3243 -0.9741 -2.4144
 1427SOL    HW2 4281   3.529   2.001   0.810 -0.6410  1.1231  0.6284
 1428SOL     OW 4282   3.659   1.114   2.794  0.4041  0.1834  0.8117
 1428SOL    HW1 4283   3.751   1.107   2.770  0.3960  0.5573  0.6639
 1428SOL    HW2 4284   3.645   1.044   2.858  0.6284 -0.2922  0.3519
 1429SOL     OW 4285   0.304   2.670   2.917 -0.0895  0.0760  1.1517
 1429SOL    HW1 4286   0.331   2.664   2.825 -1.7254 -0.8363  0.6879
 1429SOL    HW2 4287   0.374   2.720   2.960 -0.1749  2.1060 -0.9245
 1430SOL     OW 4288   1.965   1.376   2.060  0.2949  0.1932 -0.2090
 1430SOL    HW1 4289   1.991   1.373   1.968  0.4130 -0.3071 -0.1600
 1430SOL    HW2 4290   2.038   1.419   2.104 -0.0644  1.0819 -0.4467
 1431SOL     OW 4291   2.187   1.677   0.213  0.4509 -0.2291 -0.0611
 1431SOL    HW1 4292   2.154   1.764   0.233  1.3213  0.1755 -0.3430
 1431SOL    HW2 4293   2.109   1.627   0.188 -0.3842 -0.1718  2.2174
 1432SOL     OW 4294   0.864   1.394   1.495 -0.1254 -0.4964  0.0747
 1432SOL    HW1 4295   0.894   1.473   1.538  2.0216 -0.6712 -0.9513
 1432SOL    HW2 4296   0.898   1.322   1.549 -1.1964 -0.7390  0.4530
 1433SOL     OW 4297   0.106   1.699   3.531 -0.1046  0.5056 -0.6279
 1433SOL    HW1 4298   0.198   1.683   3.508 -0.7436 -0.7338 -2.5640
 1433SOL    HW2 4299   0.085   1.629   3.593  0.0562  0.3536 -0.7430
 1434SOL     OW 4300   3.941   1.128   1.144 -0.5489  0.1677  0.7864
 1434SOL    HW1 4301   3.870   1.068   1.118  1.6115 -1.9532 -0.5732
 1434SOL    HW2 4302   3.944   1.120   1.240 -0.5180 -1.7538  0.6678
 1435SOL     OW 4303   3.486   3.408   1.338  0.1661  0.0392  0.0288
 1435SOL    HW1 4304   3.460   3.491   1.298 -0.0917  0.9376  1.9280
 1435SOL    HW2 4305   3.549   3.433   1.406 -0.7355 -1.1757  1.3724
 1436SOL     OW 4306   3.050   3.500   3.083 -0.0117 -0.3479  0.1136
 1436SOL    HW1 4307   3.062   3.564   3.153 -0.9844  0.3205 -0.3027
 1436SOL    HW2 4308   2.959   3.512   3.054 -0.5412 -2.5422  0.6327
 1437SOL     OW 4309   0.938   3.434   0.820 -0.0194  0.1011 -0.6085
 1437SOL    HW1 4310   0.916   3.483   0.741 -0.3949  0.3733 -0.3379
 1437SOL    HW2 4311   0.887   3.476   0.890 -0.2349 -0.5757 -0.3484
 1438SOL     OW 4312   1.079   1.349   2.285 -0.1947 -0.1534  0.1663
 1438SOL    HW1 4313   0.989   1.319   2.300  0.5394 -1.4918  2.4368
 1438SOL    HW2 4314   1.069   1.432   2.239 -2.6478  0.1575  1.0889
 1439SOL     OW 4315   3.362   2.536   0.451 -0.1719 -0.3167 -0.0111
 1439SOL    HW1 4316   3.341   2.624   0.419 -1.5027  0.6673  3.1562
 1439SOL    HW2 4317   3.285   2.484   0.431  0.4515 -0.7137 -1.5161
 1440SOL     OW 4318   1.421   3.209   1.591  0.1326 -0.9232 -0.1128
 1440SOL    HW1 4319   1.348   3.246   1.542 -0.9178 -0.8879  1.4245
 1440SOL    HW2 4320   1.478   3.284   1.609  0.1250 -0.8012 -0.5839
 1441SOL     OW 4321   3.679   2.780   2.208 -0.3752 -0.7272 -0.1752
 1441SOL    HW1 4322   3.646   2.853   2.261 -0.2099 -1.7423  1.3897
 1441SOL    HW2 4323   3.728   2.726   2.269  1.6593 -0.8689 -1.8199
 1442SOL     OW 4324   3.931   1.793   1.851 -0.6451  0.1556 -0.1566
 1442SOL    HW1 4325   3.920   1.846   1.772 -0.3956 -0.8864 -0.9134
 1442SOL    HW2 4326   3.918   1.702   1.821  1.5174 -0.4502  0.5619
 1443SOL     OW 4327   2.869   2.010   1.434 -0.0831 -1.1430 -0.5491
 1443SOL    HW1 4328   2.807   1.954   1.388 -0.7876 -1.2535  0.4912
 1443SOL    HW2 4329   2.930   1.949   1.476 -2.8265 -1.5268  3.4701
 1444SOL     OW 4330   3.943   1.536   2.515  0.4550  0.1485  0.4944
 1444SOL    HW1 4331   3.926   1.468   2.580  2.5235 -0.7293  0.1915
 1444SOL    HW2 4332   4.018   1.584   2.550  1.2230  0.0462 -0.9307
 1445SOL     OW 4333   2.621   0.478   1.813  0.2651 -0.1361 -0.2423
 1445SOL    HW1 4334   2.600   0.455   1.904 -0.2956  0.5296 -0.2010
 1445SOL    HW2 4335   2.692   0.540   1.820  1.7541 -1.7479 -0.3543
 1446SOL     OW 4336   3.612   3.373   0.684  0.3213  0.3464  0.1023
 1446SOL    HW1 4337   3.518   3.385   0.668  0.3157  0.4347  0.1978
 1446SOL    HW2 4338   3.644   3.329   0.605 -0.3566 -2.5262  1.2904
 1447SOL     OW 4339   0.261   0.784   3.207  0.3208  0.0638  0.5869
 1447SOL    HW1 4340   0.323   0.732   3.155  1.3836  1.1884  0.6663
 1447SOL    HW2 4341   0.212   0.720   3.258  0.2668 -0.9659 -0.7157
 1448SOL     OW 4342   0.622   3.439   2.848 -0.3592  0.0945 -0.8532
 1448SOL    HW1 4343   0.574   3.485   2.917 -0.0101 -0.2133 -0.3948
 1448SOL    HW2 4344   0.587   3.475   2.766  0.2047  1.4904 -0.5161
 1449SOL     OW 4345   2.732   1.875   1.743 -0.1122  0.4494  0.4560
 1449SOL    HW1 4346   2.722   1.805   1.679 -1.3326  0.4092  0.6642
 1449SOL    HW2 4347   2.769   1.831   1.820  0.1039  0.2459  0.2404
 1450SOL     OW 4348   2.653   3.622   3.879 -0.5704  0.4342 -0.0795
 1450SOL    HW1 4349   2.600   3.702   3.884 -0.2371  0.6391  0.2364
 1450SOL    HW2 4350   2.598   3.560   3.831 -2.6401 -0.5618  3.2736
 1451SOL     OW 4351   0.874   3.408   2.840 -0.0615  0.3719  0.2396
 1451SOL    HW1 4352   0.784   3.425   2.868 -0.0606 -2.0162  2.0374
 1451SOL    HW2 4353   0.886   3.314   2.856  2.0156  0.1328 -2.2027
 1452SOL     OW 4354   1.545   3.888   1.023 -0.3574  0.1894  0.3188
 1452SOL    HW1 4355   1.569   3.815   0.965  0.7295 -2.0551  3.3243
 1452SOL    HW2 4356   1.629   3.928   1.046 -0.9100  2.1522 -0.8499
 1453SOL     OW 4357   3.496   0.987   3.459  0.6644  0.1156  0.0798
 1453SOL    HW1 4358   3.517   0.909   3.409  1.7784  1.5640 -1.8712
 1453SOL    HW2 4359   3.455   0.954   3.539  0.5988 -2.3983 -0.8914
 1454SOL     OW 4360   1.341   0.835   1.210  0.2119  0.4436  0.1436
 1454SOL    HW1 4361   1.418   0.817   1.155  1.1659 -0.5757  1.7323
 1454SOL    HW2 4362   1.270   0.846   1.147  1.1117 -1.3186 -1.3092
 1455SOL     OW 4363   3.730   3.092   3.201 -0.4439  0.1449  0.8072
 1455SOL    HW1 4364   3.681   3.139   3.133 -0.9953 -0.3397  0.8640
 1455SOL    HW2 4365   3.805   3.148   3.219 -0.1130  0.1350 -0.4319
 1456SOL     OW 4366   0.560   1.894   2.203  0.0386  0.3401  0.4665
 1456SOL    HW1 4367   0.497   1.847   2.259 -0.9122  0.8367 -0.1672
 1456SOL    HW2 4368   0.514   1.974   2.177  1.0606  0.8682  0.2443
 1457SOL     OW 4369   2.639   0.626   0.371 -0.2538  0.1663  0.1827
 1457SOL    HW1 4370   2.716   0.582   0.334  1.3636  2.4448  0.6012
 1457SOL    HW2 4371   2.582   0.642   0.295  0.9194  0.7317 -0.6156
 1458SOL     OW 4372   3.518   1.497   1.773  0.3680  0.1914 -0.8802
 1458SOL    HW1 4373   3.513   1.570   1.711  0.1199  1.7308  0.8796
 1458SOL    HW2 4374   3.440   1.507   1.828  0.2935 -1.4643 -0.6426
 1459SOL     OW 4375   1.472   2.662   0.581  0.6758 -0.0066 -0.1534
 1459SOL    HW1 4376   1.473   2.712   0.499 -1.1991 -0.4478 -0.4847
 1459SOL    HW2 4377   1.430   2.579   0.558 -0.9761  0.3196  1.4892
 1460SOL     OW 4378   3.332   3.043   0.113 -0.5761 -0.2321  0.2645
 1460SOL    HW1 4379   3.237   3.033   0.110 -0.6415  0.4355 -0.1539
 1460SOL    HW2 4380   3.357   3.009   0.198 -0.9196 -2.4963 -0.4657
 1461SOL     OW 4381   0.102   1.303   2.672 -0.0851 -0.2803  0.0979
 1461SOL    HW1 4382   0.031   1.253   2.711  1.5757 -1.6488  1.5803
 1461SOL    HW2 4383   0.109   1.382   2.725 -2.6208  1.6444 -2.1603
 1462SOL     OW 4384   0.935   0.898   2.999 -0.2097  0.2336  0.3205
 1462SOL    HW1 4385   0.842   0.877   3.003  0.2087 -1.7227  3.8104
 1462SOL    HW2 4386   0.957   0.893   2.906 -3.8558  2.6324 -0.8956
 1463SOL     OW 4387   1.186   1.565   0.655  1.2720  0.2230  0.4738
 1463SOL    HW1 4388   1.253   1.505   0.687  2.5947  1.3720 -0.0039
 1463SOL    HW2 4389   1.197   1.565   0.560 -0.7549 -1.0540  0.1912
 1464SOL     OW 4390   0.836   0.315   3.015 -0.1358  1.2535 -0.2018
 1464SOL    HW1 4391   0.828   0.348   2.925  2.9648 -0.9314 -1.4900
 1464SOL    HW2 4392   0.930   0.321   3.034  0.0945 -2.7463  0.9183
 1465SOL     OW 4393   0.964   1.816   0.544 -0.1135 -0.0492 -0.9152
 1465SOL    HW1 4394   0.897   1.788   0.606  0.9657  0.4215  0.5176
 1465SOL    HW2 4395   0.972   1.744   0.482 -0.7545 -0.8246 -0.1094
 1466SOL     OW 4396   0.478   3.191   2.815 -0.2407 -0.1092  0.2583
 1466SOL    HW1 4397   0.542   3.259   2.833  0.3714 -0.1899 -1.3852
 1466SOL    HW2 4398   0.493   3.168   2.723 -2.7385 -0.0171 -0.2585
 1467SOL     OW 4399   2.179   1.035   2.733 -0.1989 -0.2514 -0.0970
 1467SOL    HW1 4400   2.170   1.128   2.752  0.1046 -0.2231 -0.0891
 1467SOL    HW2 4401   2.116   1.019   2.662 -0.0869  0.0084 -0.2595
 1468SOL     OW 4402   0.568   3.767   1.905  0.1390 -0.0922 -0.4919
 1468SOL    HW1 4403   0.613   3.830   1.961 -0.4377 -0.8070  0.8268
 1468SOL    HW2 4404   0.502   3.818   1.859 -0.7986  0.1950  1.0874
 1469SOL     OW 4405   1.950   0.637   1.989 -0.4939  0.2116 -0.2503
 1469SOL    HW1 4406   1.911   0.682   2.064 -3.7035 -0.6145 -1.2756
 1469SOL    HW2 4407   1.875   0.607   1.937  1.4684 -3.3758 -1.3543
 1470SOL     OW 4408   1.013   0.646   2.678  0.0350  0.6911 -0.0909
 1470SOL    HW1 4409   1.028   0.737   2.657 -0.3925  1.2895  1.9134
 1470SOL    HW2 4410   0.942   0.648   2.743 -1.9295 -1.2617 -1.9873
 1471SOL     OW 4411   3.264   0.467   3.869 -0.5954 -1.1812 -0.6274
 1471SOL    HW1 4412   3.307   0.420   3.797  1.0048  0.8564 -1.0903
 1471SOL    HW2 4413   3.332   0.524   3.904 -1.8309 -0.8536  1.3982
 1472SOL     OW 4414   1.022   3.532   0.340  0.3223 -0.2195  0.2471
 1472SOL    HW1 4415   1.080   3.566   0.272 -0.2110  1.0635  0.4150
 1472SOL    HW2 4416   0.937   3.523   0.297  0.4634 -1.4261  0.1889
 1473SOL     OW 4417   1.005   3.081   1.987  0.4509  0.4299  0.0082
 1473SOL    HW1 4418   0.963   3.163   2.011 -1.2686 -0.6584  0.8974
 1473SOL    HW2 4419   1.097   3.105   1.971 -0.0520  2.5349 -0.0056
 1474SOL     OW 4420   2.705   2.785   0.493  0.7104  0.4713  0.4922
 1474SOL    HW1 4421   2.747   2.710   0.450 -0.3738 -0.4042  0.9239
 1474SOL    HW2 4422   2.670   2.749   0.574  1.8150  1.8768  1.6261
 1475SOL     OW 4423   2.233   1.122   2.305  0.2856 -0.5280  0.0444
 1475SOL    HW1 4424   2.156   1.067   2.296  0.1288 -0.2932 -0.0729
 1475SOL    HW2 4425   2.279   1.088   2.382  1.0304 -1.8461 -0.9282
 1476SOL     OW 4426   2.622   2.564   0.220  0.5101 -0.5358 -0.0030
 1476SOL    HW1 4427   2.696   2.624   0.217  0.1707 -0.0261  1.1974
 1476SOL    HW2 4428   2.561   2.598   0.154  0.0447  0.8426  1.0901
 1477SOL     OW 4429   0.363   3.007   1.972  0.5709  0.2079 -0.1643
 1477SOL    HW1 4430   0.391   3.024   2.062  1.2886  0.7295 -0.4734
 1477SOL    HW2 4431   0.324   3.090   1.943 -1.8546 -0.6578  0.4279
 1478SOL     OW 4432   0.131   3.711   1.699 -0.5273 -0.1885  0.6974
 1478SOL    HW1 4433   0.118   3.795   1.655  1.0165 -0.7654 -0.9521
 1478SOL    HW2 4434   0.060   3.656   1.666 -1.0855  0.2185  1.1914
 1479SOL     OW 4435   0.173   2.789   2.350 -0.9301  0.3423  0.2488
 1479SOL    HW1 4436   0.137   2.831   2.429 -0.9502  0.9851 -0.0972
 1479SOL    HW2 4437   0.138   2.840   2.277 -0.5025  0.0674 -0.1571
 1480SOL     OW 4438   3.769   1.789   3.109 -0.4342  0.7167  0.2622
 1480SOL    HW1 4439   3.744   1.881   3.107  0.7456  1.0450 -1.2638
 1480SOL    HW2 4440   3.855   1.787   3.067 -0.1587 -0.9990  0.8509
 1481SOL     OW 4441   0.477   0.522   1.580 -0.0005  0.1082 -0.4881
 1481SOL    HW1 4442   0.415   0.595   1.571  1.7096  2.5671  4.1758
 1481SOL    HW2 4443   0.451   0.479   1.661  2.2932 -1.0303 -0.2840
 1482SOL     OW 4444   0.867   3.858   0.603  0.0040  0.1571 -0.0551
 1482SOL    HW1 4445   0.923   3.780   0.606  0.3325  0.4190  1.3154
 1482SOL    HW2 4446   0.789   3.834   0.654 -1.0752 -0.1275 -1.7587
 1483SOL     OW 4447   2.116   0.952   0.173 -0.6383  0.5317 -0.0419
 1483SOL    HW1 4448   2.122   0.856   0.170 -1.2644  0.4855  0.1608
 1483SOL    HW2 4449   2.168   0.976   0.250 -0.9022  0.3187  0.2042
 1484SOL     OW 4450   1.901   3.892   1.258 -0.0070  0.3340  0.3316
 1484SOL    HW1 4451   1.816   3.922   1.290 -0.0071  0.2400  0.4194
 1484SOL    HW2 4452   1.897   3.907   1.163 -0.1819  0.1842  0.3139
 1485SOL     OW 4453   3.836   0.568   0.467 -0.1018  0.3882  0.0315
 1485SOL    HW1 4454   3.810   0.645   0.518  0.6031 -0.1379  1.2132
 1485SOL    HW2 4455   3.755   0.539   0.425 -1.2591 -0.4604  2.6214
 1486SOL     OW 4456   0.808   2.401   0.628 -0.2626 -0.5714 -0.3736
 1486SOL    HW1 4457   0.832   2.318   0.586 -1.3206 -1.2092  0.2471
 1486SOL    HW2 4458   0.822   2.385   0.721  0.5279  0.3095 -0.3241
 1487SOL     OW 4459   1.176   0.957   0.396 -0.3003  0.5968 -0.0283
 1487SOL    HW1 4460   1.120   0.947   0.319  0.9174 -1.0158 -0.7693
 1487SOL    HW2 4461   1.226   0.876   0.400  0.5872  1.1730  1.7437
 1488SOL     OW 4462   3.763   0.935   3.505 -0.8155  0.3182 -0.7371
 1488SOL    HW1 4463   3.827   0.956   3.437  0.9384 -1.2776  0.3204
 1488SOL    HW2 4464   3.678   0.946   3.462  0.0356  3.8227 -1.7932
 1489SOL     OW 4465   1.064   0.703   1.763 -1.1966 -0.8920  0.9804
 1489SOL    HW1 4466   1.057   0.731   1.672 -0.2428 -1.5017  0.7130
 1489SOL    HW2 4467   1.070   0.608   1.759 -0.5497 -0.8903  1.6386
 1490SOL     OW 4468   2.639   3.023   0.550  0.1691 -0.0247  0.8020
 1490SOL    HW1 4469   2.661   2.938   0.512 -1.0448 -1.0762  2.3107
 1490SOL    HW2 4470   2.678   3.020   0.638 -1.3007  0.2611  1.4860
 1491SOL     OW 4471   3.307   3.468   2.039 -0.1066 -0.1283 -0.2907
 1491SOL    HW1 4472   3.302   3.395   1.978  2.7332  1.2957 -2.4434
 1491SOL    HW2 4473   3.399   3.469   2.067  0.1755  3.0279 -0.9941
 1492SOL     OW 4474   0.427   1.070   1.061 -0.2822  0.0815  0.4891
 1492SOL    HW1 4475   0.407   1.129   1.134 -0.4652  0.3397  0.2336
 1492SOL    HW2 4476   0.373   1.103   0.989  1.0603  0.8157 -0.2281
 1493SOL     OW 4477   2.002   3.634   0.302 -0.6102  0.2870 -0.2582
 1493SOL    HW1 4478   1.952   3.559   0.269  0.0522 -0.8867  1.2946
 1493SOL    HW2 4479   2.061   3.597   0.367  0.7820  1.9631 -0.4872
 1494SOL     OW 4480   2.344   3.234   1.828  0.5589 -0.2334  0.0128
 1494SOL    HW1 4481   2.301   3.272   1.752 -0.5557 -1.0453  0.2141
 1494SOL    HW2 4482   2.288   3.257   1.902  1.0326 -0.4027  0.4283
 1495SOL     OW 4483   0.582   1.130   1.372 -0.1070 -0.6961  0.3281
 1495SOL    HW1 4484   0.647   1.088   1.316  2.1260  2.2898  0.4320
 1495SOL    HW2 4485   0.507   1.145   1.314  0.8837 -0.5876 -0.9829
 1496SOL     OW 4486   2.520   2.649   1.290  0.0895 -0.1315  0.0843
 1496SOL    HW1 4487   2.543   2.616   1.377  3.3698  1.2911 -0.0719
 1496SOL    HW2 4488   2.466   2.726   1.307  0.1638 -0.2356  0.8437
 1497SOL     OW 4489   0.710   2.460   3.122  0.7775  0.3134  0.9997
 1497SOL    HW1 4490   0.766   2.519   3.173 -0.0962  0.5191  1.7366
 1497SOL    HW2 4491   0.709   2.378   3.172  0.7965  0.1553  0.7421
 1498SOL     OW 4492   0.424   3.038   0.311 -0.6441  0.2160  0.4660
 1498SOL    HW1 4493   0.372   3.041   0.231  0.3216 -1.6172 -0.2976
 1498SOL    HW2 4494   0.362   3.016   0.380 -1.0920 -0.7666 -0.2343
 1499SOL     OW 4495   3.002   2.389   0.617 -0.1199  0.4754  0.2680
 1499SOL    HW1 4496   3.093   2.398   0.590 -0.3271  2.1774  0.0175
 1499SOL    HW2 4497   2.984   2.295   0.611  2.2093 -0.2016  2.3834
 1500SOL     OW 4498   2.002   0.602   1.627  0.5238 -0.2450  0.1722
 1500SOL    HW1 4499   1.915   0.598   1.666  0.3950 -0.6854 -0.1473
 1500SOL    HW2 4500   2.010   0.693   1.597  0.9752  0.3527  1.9674
 1501SOL     OW 4501   0.157   1.122   3.882  0.3605 -0.1386 -0.2280
 1501SOL    HW1 4502   0.115   1.188   3.937  1.2828  0.7189 -0.5312
 1501SOL    HW2 4503   0.227   1.169   3.836  0.0590 -0.9839 -1.6145
 1502SOL     OW 4504   0.480   2.674   0.241  0.7816  0.0208  0.5722
 1502SOL    HW1 4505   0.388   2.679   0.266  0.5356 -0.2883 -0.2397
 1502SOL    HW2 4506   0.525   2.731   0.303 -0.1992  1.6790 -0.1853
 1503SOL     OW 4507   0.552   1.859   1.456 -0.2244 -0.7283  0.1324
 1503SOL    HW1 4508   0.548   1.925   1.387  0.4472 -1.0514 -0.2159
 1503SOL    HW2 4509   0.627   1.804   1.434  2.5349  1.4231  3.1226
 1504SOL     OW 4510   3.126   2.731   2.962  0.1788  0.1765  0.1863
 1504SOL    HW1 4511   3.096   2.725   3.053 -0.9884  0.2245 -0.1830
 1504SOL    HW2 4512   3.135   2.640   2.934  1.3346  0.1520  0.5878
 1505SOL     OW 4513   0.610   2.902   0.622  0.1841 -0.2318  0.1374
 1505SOL    HW1 4514   0.566   2.983   0.648  0.3135  0.3397 -1.2997
 1505SOL    HW2 4515   0.684   2.931   0.568 -0.8202 -1.3112 -1.9636
 1506SOL     OW 4516   1.053   3.984   0.400 -0.6585  0.4454 -0.7984
 1506SOL    HW1 4517   1.069   3.890   0.414 -0.7084  0.5871  0.3321
 1506SOL    HW2 4518   0.979   4.004   0.456 -1.4349  0.9258 -1.9668
 1507SOL     OW 4519   3.290   1.521   0.504 -0.4598 -0.5806 -0.0883
 1507SOL    HW1 4520   3.347   1.595   0.482 -0.8186 -0.2898 -0.0687
 1507SOL    HW2 4521   3.306   1.457   0.435  1.1172 -1.2121  0.8114
 1508SOL     OW 4522   3.683   2.715   3.181  0.3306  0.3497 -1.0559
 1508SOL    HW1 4523   3.773   2.746   3.185  0.9316 -1.3227  2.3911
 1508SOL    HW2 4524   3.640   2.773   3.118  2.7187  4.1651  0.4457
 1509SOL     OW 4525   3.443   3.770   0.693 -0.2466  0.2738  0.4350
 1509SOL    HW1 4526   3.364   3.768   0.638 -1.1968 -0.9545  1.7851
 1509SOL    HW2 4527   3.483   3.685   0.680 -0.3196  0.0860  1.4035
 1510SOL     OW 4528   0.607   0.085   3.845  0.1737 -0.4635 -0.0013
 1510SOL    HW1 4529   0.543   0.042   3.788 -0.0652 -1.5581  1.0529
 1510SOL    HW2 4530   0.572   0.073   3.933 -0.5693  3.0370  0.3140
 1511SOL     OW 4531   0.281   3.485   3.650  0.5807 -0.0889  0.2234
 1511SOL    HW1 4532   0.224   3.552   3.686  1.5855  0.0487  1.6981
 1511SOL    HW2 4533   0.360   3.489   3.705  1.9403 -0.3815 -1.6095
 1512SOL     OW 4534   3.947   2.053   2.821 -0.5691  0.0091  0.6167
 1512SOL    HW1 4535   4.012   2.122   2.807 -0.6997  0.0684  0.2929
 1512SOL    HW2 4536   3.987   1.996   2.887 -0.7084  0.7112  1.3222
 1513SOL     OW 4537   0.810   2.756   2.296  0.0549 -0.4726 -0.3185
 1513SOL    HW1 4538   0.790   2.849   2.307  0.1415 -0.4922  0.0104
 1513SOL    HW2 4539   0.878   2.738   2.361 -1.3648 -1.2161  1.0152
 1514SOL     OW 4540   2.126   1.983   3.314 -0.3696  0.0010  0.2340
 1514SOL    HW1 4541   2.172   1.971   3.231  0.6029  1.0311  0.6074
 1514SOL    HW2 4542   2.033   1.979   3.290 -0.2242 -3.9771 -0.2523
 1515SOL     OW 4543   0.426   0.200   0.980 -0.4541 -0.2164  0.0204
 1515SOL    HW1 4544   0.380   0.210   1.063  1.0738  0.6448  0.8169
 1515SOL    HW2 4545   0.380   0.129   0.935 -1.8375 -0.1254  1.2220
 1516SOL     OW 4546   0.670   1.137   2.684 -0.0692  0.1768 -0.3735
 1516SOL    HW1 4547   0.760   1.111   2.705 -0.2516 -0.4685 -0.3684
 1516SOL    HW2 4548   0.649   1.087   2.605 -0.9385 -0.8250  0.4673
 1517SOL     OW 4549   2.438   1.443   3.063  0.1760 -0.0296 -0.4522
 1517SOL    HW1 4550   2.415   1.374   3.001  0.6993 -4.1118  3.3472
 1517SOL    HW2 4551   2.363   1.449   3.121  0.3535  2.4010 -0.3607
 1518SOL     OW 4552   0.921   0.676   3.237 -0.7464 -0.8339  0.4422
 1518SOL    HW1 4553   1.012   0.648   3.238 -0.0256  1.2677 -0.7730
 1518SOL    HW2 4554   0.925   0.772   3.230 -3.0443 -0.5297  2.0659
 1519SOL     OW 4555   1.411   2.153   1.713 -0.6369 -0.4657 -0.0414
 1519SOL    HW1 4556   1.502   2.169   1.738  0.6685 -0.7091 -3.8888
 1519SOL    HW2 4557   1.413   2.068   1.669 -1.8437  1.0463 -3.3754
 1520SOL     OW 4558   2.440   3.983   2.209  0.8128  0.6537  0.2145
 1520SOL    HW1 4559   2.463   3.901   2.166 -2.3060  0.5965 -1.6393
 1520SOL    HW2 4560   2.432   3.960   2.302  1.1191 -0.8488 -0.1032
 1521SOL     OW 4561   3.475   0.930   2.492 -0.7582  0.2312 -0.0221
 1521SOL    HW1 4562   3.443   1.009   2.535  1.1618  0.9750  0.1127
 1521SOL    HW2 4563   3.570   0.932   2.504 -0.5367 -1.4672 -1.0940
 1522SOL     OW 4564   0.728   0.400   3.635  0.8154 -0.3376 -0.2345
 1522SOL    HW1 4565   0.753   0.396   3.728 -0.2950 -0.9161  0.0581
 1522SOL    HW2 4566   0.700   0.491   3.621  0.9012 -0.2703  0.0244
 1523SOL     OW 4567   1.738   2.617   1.031 -0.0818 -0.0435  0.1358
 1523SOL    HW1 4568   1.828   2.640   1.010  0.1589  0.0643  1.1935
 1523SOL    HW2 4569   1.729   2.640   1.124 -2.0041  2.4855 -0.5508
 1524SOL     OW 4570   1.921   0.787   2.794  0.0769  0.1523  0.0111
 1524SOL    HW1 4571   1.973   0.810   2.717  0.8313  1.1864  0.8047
 1524SOL    HW2 4572   1.866   0.864   2.810  0.6627  0.3597  1.0975
 1525SOL     OW 4573   1.160   2.116   2.531 -0.4633 -0.3157 -0.2759
 1525SOL    HW1 4574   1.114   2.118   2.615  1.9503 -0.3082  1.1632
 1525SOL    HW2 4575   1.097   2.148   2.467 -1.7065  1.8961  1.9149
 1526SOL     OW 4576   0.342   2.629   2.211 -0.1796 -0.2865  0.5099
 1526SOL    HW1 4577   0.264   2.678   2.238  0.1088 -1.1422  3.2336
 1526SOL    HW2 4578   0.308   2.558   2.157 -0.6903  2.1813 -2.7841
 1527SOL     OW 4579   0.590   0.655   2.309  0.1592 -0.1061  0.0272
 1527SOL    HW1 4580   0.556   0.584   2.365  1.5156 -0.0507  0.9620
 1527SOL    HW2 4581   0.644   0.610   2.244 -0.0796 -0.0265 -0.2297
 1528SOL     OW 4582   1.983   1.579   0.468  0.1242  0.2594 -0.6564
 1528SOL    HW1 4583   2.062   1.621   0.434 -0.7127  1.5579 -1.0676
 1528SOL    HW2 4584   1.925   1.573   0.392 -0.5858  0.3157 -0.1284
 1529SOL     OW 4585   2.796   1.037   2.512 -0.2254 -0.1331 -0.1386
 1529SOL    HW1 4586   2.717   1.077   2.548  0.8605  1.5285  0.5489
 1529SOL    HW2 4587   2.867   1.069   2.568  0.8456 -2.5297  0.0233
 1530SOL     OW 4588   3.539   2.285   0.123  0.5929  0.0390  0.1412
 1530SOL    HW1 4589   3.547   2.193   0.149  2.6288  0.1213 -0.0064
 1530SOL    HW2 4590   3.502   2.281   0.035  1.3671 -0.7007 -0.1659
 1531SOL     OW 4591   3.782   1.327   0.463 -0.5903 -0.1118 -0.1384
 1531SOL    HW1 4592   3.834   1.334   0.543  0.5674  0.3725 -0.9006
 1531SOL    HW2 4593   3.803   1.407   0.414 -0.5529 -0.8301 -1.3340
 1532SOL     OW 4594   2.821   1.891   2.503 -0.1035  0.4061  0.2279
 1532SOL    HW1 4595   2.886   1.831   2.466  0.3091  0.3749  0.9800
 1532SOL    HW2 4596   2.808   1.860   2.592 -1.3275  0.2874  0.0202
 1533SOL     OW 4597   1.426   1.687   1.958 -0.4402 -0.0812  0.3328
 1533SOL    HW1 4598   1.414   1.592   1.961  1.3129 -0.4114 -1.0371
 1533SOL    HW2 4599   1.510   1.702   2.002  0.0586  0.6271 -0.8066
 1534SOL     OW 4600   3.257   2.874   2.479 -0.0781 -0.6593 -0.5169
 1534SOL    HW1 4601   3.177   2.836   2.514 -0.4342  1.9112  1.8769
 1534SOL    HW2 4602   3.249   2.866   2.384 -3.2103 -0.4631 -0.3604
 1535SOL     OW 4603   3.392   2.157   1.703  0.1369 -0.0824 -0.3470
 1535SOL    HW1 4604   3.407   2.065   1.726  0.3748  0.1394  0.3753
 1535SOL    HW2 4605   3.321   2.185   1.760  0.4646  0.3569 -0.1507
 1536SOL     OW 4606   3.770   2.909   3.411 -0.4689 -0.1161  0.4225
 1536SOL    HW1 4607   3.751   2.835   3.353  2.8763 -0.1077 -0.8593
 1536SOL    HW2 4608   3.777   2.985   3.353 -1.7066  0.8507  1.4742
 1537SOL     OW 4609   0.751   1.705   1.342 -0.0607  0.2567  0.5887
 1537SOL    HW1 4610   0.808   1.764   1.391  0.7602  1.7313 -1.9707
 1537SOL    HW2 4611   0.807   1.666   1.276 -1.6287  0.4078 -0.9098
 1538SOL     OW 4612   1.821   1.611   2.354 -0.7162 -0.0300 -0.0445
 1538SOL    HW1 4613   1.783   1.542   2.300  2.4568 -0.8127 -1.5119
 1538SOL    HW2 4614   1.787   1.693   2.317 -0.5202 -0.6437 -1.6354
 1539SOL     OW 4615   2.900   1.648   1.413  0.2367 -0.1370  0.4652
 1539SOL    HW1 4616   2.854   1.695   1.344 -1.0197 -0.4219  1.0811
 1539SOL    HW2 4617   2.944   1.716   1.464  0.5196  0.1379 -0.1407
 1540SOL     OW 4618   0.754   3.905   3.391  0.7038  0.1739 -0.4085
 1540SOL    HW1 4619   0.692   3.842   3.428  1.2483  0.9794  2.0426
 1540SOL    HW2 4620   0.725   3.990   3.423  2.0506  0.7708 -0.6781
 1541SOL     OW 4621   0.032   1.434   1.289 -0.1034  0.1369 -0.5352
 1541SOL    HW1 4622  -0.054   1.451   1.249 -1.5488 -2.4774  1.1618
 1541SOL    HW2 4623   0.087   1.408   1.215 -0.8272  1.4761 -1.6108
 1542SOL     OW 4624   1.965   3.688   3.164 -0.0651 -0.1829 -0.2267
 1542SOL    HW1 4625   1.994   3.779   3.155  1.3112 -0.6569 -0.8941
 1542SOL    HW2 4626   2.044   3.637   3.153 -0.6679 -1.4483  1.0639
 1543SOL     OW 4627   0.761   1.298   2.169  0.6153  0.0488  0.0050
 1543SOL    HW1 4628   0.734   1.257   2.251 -0.1721 -0.8786 -0.7057
 1543SOL    HW2 4629   0.763   1.392   2.189 -2.1522  0.1030  0.4034
 1544SOL     OW 4630   0.873   1.527   0.677 -0.1907 -0.7058  0.1441
 1544SOL    HW1 4631   0.884   1.476   0.757 -0.3076 -0.4287  0.3378
 1544SOL    HW2 4632   0.848   1.614   0.707  2.4988  0.2330 -0.0695
 1545SOL     OW 4633   2.939   0.432   3.686 -0.0029  0.5225 -0.0718
 1545SOL    HW1 4634   2.983   0.429   3.601  1.0172 -2.3056  0.4488
 1545SOL    HW2 4635   3.002   0.474   3.744 -0.2969  1.5466 -0.4750
 1546SOL     OW 4636   2.508   2.363   1.788 -0.3254  0.0242  0.0335
 1546SOL    HW1 4637   2.413   2.350   1.795 -0.2206 -0.7278  0.1373
 1546SOL    HW2 4638   2.542   2.277   1.766  0.3509  0.2740  0.0820
 1547SOL     OW 4639   2.129   3.102   2.349 -0.6095  0.6267  0.3482
 1547SOL    HW1 4640   2.053   3.124   2.402  0.0096 -0.2036  1.6271
 1547SOL    HW2 4641   2.094   3.049   2.277 -1.2330  0.2121  0.9499
 1548SOL     OW 4642   0.094   3.907   1.139 -0.4739  0.3231  0.0646
 1548SOL    HW1 4643   0.001   3.928   1.136 -1.1406 -2.3377  0.0600
 1548SOL    HW2 4644   0.107   3.868   1.225  0.6467  0.5857  0.0314
 1549SOL     OW 4645   0.397  -0.011   3.675  0.5988 -0.3014  0.7304
 1549SOL    HW1 4646   0.419   0.065   3.621  0.1800  1.0800  2.4069
 1549SOL    HW2 4647   0.308  -0.034   3.649  0.5908  0.0199  0.4675
 1550SOL     OW 4648   2.531   2.260   1.177 -0.0396 -0.6131  0.5995
 1550SOL    HW1 4649   2.576   2.288   1.257  0.4662  1.1182 -0.2515
 1550SOL    HW2 4650   2.464   2.327   1.163  0.2675 -0.5638 -0.7397
 1551SOL     OW 4651   3.946   2.388   0.368  0.2185 -0.1087  0.1426
 1551SOL    HW1 4652   3.962   2.306   0.321  0.9557 -0.8423  1.6122
 1551SOL    HW2 4653   4.031   2.432   0.368 -0.3638  1.1101 -1.3903
 1552SOL     OW 4654   2.581   2.081   0.244 -0.2878 -0.2752  0.6267
 1552SOL    HW1 4655   2.529   2.161   0.238  0.6644  0.5052  2.1661
 1552SOL    HW2 4656   2.522   2.017   0.283 -0.6632  0.0471  0.5969
 1553SOL     OW 4657   1.881   1.851   3.307  0.0989 -0.5101  0.3447
 1553SOL    HW1 4658   1.804   1.908   3.300  0.3814  0.2661  2.8608
 1553SOL    HW2 4659   1.844   1.762   3.305 -0.9067 -0.1465  1.6067
 1554SOL     OW 4660   0.097   3.833   0.212  0.4737  0.4214  0.4722
 1554SOL    HW1 4661   0.009   3.817   0.245  0.9618 -2.1412  0.6734
 1554SOL    HW2 4662   0.135   3.894   0.276 -0.3486 -0.3349  1.7327
 1555SOL     OW 4663   2.392   2.848   2.212 -0.1617 -0.0512  0.1617
 1555SOL    HW1 4664   2.333   2.831   2.285 -0.7636  1.5184  0.0823
 1555SOL    HW2 4665   2.411   2.942   2.218  2.5354 -0.5153  0.3166
 1556SOL     OW 4666   2.244   1.404   0.641 -0.5666  0.1162 -0.3477
 1556SOL    HW1 4667   2.179   1.445   0.697 -0.2381  1.0798 -0.6510
 1556SOL    HW2 4668   2.310   1.472   0.627 -0.4656 -0.2073 -1.6151
 1557SOL     OW 4669   1.772   1.061   1.571 -0.1886 -0.0475  0.2453
 1557SOL    HW1 4670   1.738   1.128   1.631 -1.6093  0.6594 -1.3025
 1557SOL    HW2 4671   1.866   1.060   1.589 -0.5467  0.1467  2.4577
 1558SOL     OW 4672   1.001   2.771   3.474  0.0305  0.0843 -0.6878
 1558SOL    HW1 4673   1.040   2.712   3.539  0.3520 -0.7011 -1.5563
 1558SOL    HW2 4674   1.071   2.831   3.451  0.2985 -0.4102 -1.1879
 1559SOL     OW 4675   0.175   0.380   1.220  0.6649  0.1753 -0.0432
 1559SOL    HW1 4676   0.221   0.439   1.160  1.9036  1.1454  1.7922
 1559SOL    HW2 4677   0.177   0.295   1.175  2.8032  0.5498 -0.7613
 1560SOL     OW 4678   2.185   3.022   3.735  0.6690 -0.3282 -0.2225
 1560SOL    HW1 4679   2.130   3.073   3.795  0.2547  0.3809 -1.1856
 1560SOL    HW2 4680   2.144   3.032   3.649  1.8165 -0.4831 -0.8105
 1561SOL     OW 4681   0.616   2.012   0.847 -0.3307  0.1901  0.1827
 1561SOL    HW1 4682   0.576   2.093   0.880  0.6714  0.5411  0.6030
 1561SOL    HW2 4683   0.624   1.957   0.925 -0.4865 -0.0875  0.0018
 1562SOL     OW 4684   1.116   2.292   3.244  0.3817 -0.4827 -0.0534
 1562SOL    HW1 4685   1.105   2.372   3.194 -0.3297 -0.7867 -0.3957
 1562SOL    HW2 4686   1.140   2.226   3.179 -0.6754 -0.9080 -0.0338
 1563SOL     OW 4687   1.913   1.208   3.843 -0.9793 -0.2677  0.4180
 1563SOL    HW1 4688   1.898   1.297   3.811  0.2728 -0.2962 -0.3422
 1563SOL    HW2 4689   1.999   1.212   3.884  0.8759 -1.8807 -2.9111
 1564SOL     OW 4690   3.254   1.770   1.940 -0.1666  0.3090  0.0964
 1564SOL    HW1 4691   3.329   1.801   1.889  1.6356 -0.8084  1.9359
 1564SOL    HW2 4692   3.179   1.814   1.901  1.7006  3.5023 -0.2214
 1565SOL     OW 4693   2.814   0.408   0.226  0.0182  0.2971  0.7902
 1565SOL    HW1 4694   2.876   0.471   0.189  1.3015  0.3122  2.8150
 1565SOL    HW2 4695   2.799   0.344   0.156  2.8473 -0.0471  0.3943
 1566SOL     OW 4696   1.040   1.844   1.073 -0.6661  0.1743 -0.3815
 1566SOL    HW1 4697   1.020   1.759   1.035  0.9226 -0.5224  0.2864
 1566SOL    HW2 4698   1.034   1.830   1.168 -0.3285  0.7855 -0.2639
 1567SOL     OW 4699   1.003   3.295   2.231 -1.0918 -0.2144 -0.5899
 1567SOL    HW1 4700   1.040   3.216   2.270 -1.8159 -0.1947  0.1655
 1567SOL    HW2 4701   0.921   3.310   2.278 -0.4530  1.6014  0.0619
 1568SOL     OW 4702   2.817   2.594   2.509 -0.2801 -0.0287 -1.0092
 1568SOL    HW1 4703   2.789   2.561   2.594 -0.4055  0.9932 -0.6411
 1568SOL    HW2 4704   2.786   2.528   2.446 -1.2223 -0.2138 -0.3735
 1569SOL     OW 4705   2.635   3.731   1.288  0.4577 -0.1118 -0.0949
 1569SOL    HW1 4706   2.597   3.701   1.371 -0.6839 -3.4328 -1.6482
 1569SOL    HW2 4707   2.561   3.771   1.241  0.9341  1.0912  0.1378
 1570SOL     OW 4708   3.076   3.855   2.048  0.2015 -0.1662  0.3203
 1570SOL    HW1 4709   3.150   3.913   2.066 -1.7647  1.9393  2.1919
 1570SOL    HW2 4710   3.034   3.841   2.134 -1.1143 -1.9747 -0.5406
 1571SOL     OW 4711   3.065   0.943   3.838  0.3692 -0.0909  0.1872
 1571SOL    HW1 4712   3.051   1.036   3.857 -0.0383 -0.0096 -0.5009
 1571SOL    HW2 4713   3.122   0.943   3.761 -1.1898 -0.3750 -1.0238
 1572SOL     OW 4714   3.767   2.358   3.717 -0.3776 -0.1649  0.0595
 1572SOL    HW1 4715   3.832   2.298   3.753 -2.0823 -1.3896  1.2511
 1572SOL    HW2 4716   3.786   2.361   3.623  0.3285 -1.8439  0.1190
 1573SOL     OW 4717   0.891   0.034   0.861 -0.2339 -0.0611  0.4942
 1573SOL    HW1 4718   0.849   0.092   0.925  1.3608  1.6685  0.0828
 1573SOL    HW2 4719   0.828  -0.036   0.847 -1.9487  1.1679  1.6239
 1574SOL     OW 4720   2.870   1.164   3.701  0.5274 -0.3333  0.6142
 1574SOL    HW1 4721   2.812   1.100   3.659 -0.5333  0.9264  0.0846
 1574SOL    HW2 4722   2.879   1.234   3.635  2.8211 -0.5789  0.6125
 1575SOL     OW 4723   1.148   2.246   0.369 -0.2706  0.0359  0.4042
 1575SOL    HW1 4724   1.124   2.221   0.458  3.0499 -2.6058  0.7539
 1575SOL    HW2 4725   1.072   2.222   0.316 -0.4950 -3.1294  1.9548
 1576SOL     OW 4726   3.743   0.451   2.996 -0.6606 -0.9268 -0.6439
 1576SOL    HW1 4727   3.781   0.539   2.991 -0.7752 -0.8555 -0.2287
 1576SOL    HW2 4728   3.712   0.434   2.907  1.9621 -1.7190 -1.5263
 1577SOL     OW 4729   0.124   3.116   1.032  0.7620  0.7223 -0.2244
 1577SOL    HW1 4730   0.080   3.075   0.958  1.0431 -2.0443  1.0273
 1577SOL    HW2 4731   0.055   3.133   1.095  0.9568 -0.1370  0.2342
 1578SOL     OW 4732   1.357   2.629   3.490  0.3676  0.2006 -0.2724
 1578SOL    HW1 4733   1.408   2.563   3.537 -1.3759 -0.3104  1.0256
 1578SOL    HW2 4734   1.270   2.624   3.530 -0.1926  2.3144 -1.1215
 1579SOL     OW 4735   2.019   0.727   1.041  0.9837 -0.7741  0.7019
 1579SOL    HW1 4736   2.084   0.780   0.995  1.0207  0.8737  2.4920
 1579SOL    HW2 4737   2.063   0.702   1.123  0.4157 -2.3155  0.5791
 1580SOL     OW 4738   2.835   0.555   2.577  0.1021 -0.2659  0.1428
 1580SOL    HW1 4739   2.888   0.612   2.522  0.9940 -0.9128  0.3185
 1580SOL    HW2 4740   2.874   0.468   2.566 -1.3898 -0.9088 -0.3359
 1581SOL     OW 4741   2.441   0.758   0.548  0.0607  0.2447 -0.6720
 1581SOL    HW1 4742   2.494   0.793   0.620 -0.2516 -1.1290  0.2632
 1581SOL    HW2 4743   2.504   0.743   0.477  0.2898  2.0841 -0.8971
 1582SOL     OW 4744   2.750   0.119   0.155 -0.0136 -0.1509 -0.3153
 1582SOL    HW1 4745   2.658   0.115   0.180 -0.2897  0.7163 -1.1491
 1582SOL    HW2 4746   2.796   0.075   0.227 -1.2124 -2.3085 -0.7947
 1583SOL     OW 4747   2.275   0.474   1.777 -0.0004  0.5768 -0.5518
 1583SOL    HW1 4748   2.282   0.561   1.817  0.3689 -1.4716  4.6622
 1583SOL    HW2 4749   2.365   0.449   1.758  0.2862  0.1450  1.2055
 1584SOL     OW 4750   0.409   3.993   0.567 -0.5785  0.0176 -0.0908
 1584SOL    HW1 4751   0.422   3.925   0.501 -0.4297  0.0741 -0.1194
 1584SOL    HW2 4752   0.330   3.966   0.614  0.6270 -1.3005  1.2884
 1585SOL     OW 4753   3.123   2.386   2.204  0.3118 -0.1962  0.2596
 1585SOL    HW1 4754   3.145   2.295   2.185 -0.1960 -0.0268 -1.2976
 1585SOL    HW2 4755   3.152   2.434   2.126  2.4078  1.3034  1.8507
 1586SOL     OW 4756   2.182   0.728   1.263 -0.1989  0.1397  0.5510
 1586SOL    HW1 4757   2.272   0.708   1.237 -0.0101  0.3354  1.0370
 1586SOL    HW2 4758   2.184   0.728   1.359 -0.5928  0.6833  0.5682
 1587SOL     OW 4759   2.910   3.820   0.054 -0.0875  0.1939 -0.0336
 1587SOL    HW1 4760   2.885   3.910   0.031  3.5630  1.7080  1.1481
 1587SOL    HW2 4761   2.910   3.819   0.150 -2.9815 -2.1634  0.1018
 1588SOL     OW 4762   0.641   1.847   3.812 -0.2671  0.3049 -0.3222
 1588SOL    HW1 4763   0.714   1.897   3.848 -0.2360 -0.2427  0.4160
 1588SOL    HW2 4764   0.682   1.778   3.760 -0.3108  2.8229 -4.0550
 1589SOL     OW 4765   2.586   2.052   3.438  0.0157 -1.1418  0.0253
 1589SOL    HW1 4766   2.616   1.972   3.395  1.6580 -1.3159  1.3914
 1589SOL    HW2 4767   2.663   2.084   3.486 -0.1699  2.0033 -1.5195
 1590SOL     OW 4768   2.384   2.704   0.934  0.1002  0.3807 -0.2656
 1590SOL    HW1 4769   2.405   2.776   0.874 -0.4091  0.8660  0.1275
 1590SOL    HW2 4770   2.326   2.647   0.884  0.2329  0.4187 -0.4654
 1591SOL     OW 4771   2.542   1.471   2.271 -1.0810 -0.0881 -0.1995
 1591SOL    HW1 4772   2.488   1.421   2.210 -0.7147  0.9692 -1.4503
 1591SOL    HW2 4773   2.517   1.562   2.255 -0.5732  0.2434  0.8449
 1592SOL     OW 4774   1.369   3.305   0.489  0.2507 -0.2882  0.0998
 1592SOL    HW1 4775   1.451   3.320   0.442  2.0519 -2.0304  2.4361
 1592SOL    HW2 4776   1.394   3.250   0.563 -3.4176 -3.1746 -0.4790
 1593SOL     OW 4777   1.054   2.245   1.383  0.6186  0.6753  0.1942
 1593SOL    HW1 4778   1.037   2.276   1.294  1.1175 -0.5226 -0.3365
 1593SOL    HW2 4779   1.025   2.154   1.383  1.0627  0.5246  1.1219
 1594SOL     OW 4780   0.182   0.654   0.434  0.0326  0.2526 -0.9503
 1594SOL    HW1 4781   0.122   0.652   0.359  0.0142 -1.1334 -0.9334
 1594SOL    HW2 4782   0.129   0.623   0.508  0.3417  0.5747 -0.5866
 1595SOL     OW 4783   3.089   2.818   2.688 -0.3391 -0.6193  0.3453
 1595SOL    HW1 4784   3.118   2.909   2.695  1.0802 -0.9442 -0.7721
 1595SOL    HW2 4785   3.081   2.789   2.779  1.1269  0.0745  0.7342
 1596SOL     OW 4786   0.932   3.750   3.252 -0.0379  0.1864 -0.6813
 1596SOL    HW1 4787   0.858   3.791   3.297 -0.6676 -0.4209 -1.1601
 1596SOL    HW2 4788   0.908   3.658   3.243  1.0647 -0.1633 -0.2476
 1597SOL     OW 4789   1.581   1.128   3.756  0.4916  0.0321 -0.5724
 1597SOL    HW1 4790   1.592   1.070   3.831 -0.4483 -0.2097 -0.6082
 1597SOL    HW2 4791   1.604   1.215   3.789  0.8073 -0.1903 -0.2057
 1598SOL     OW 4792   2.637   0.442   2.324  0.4454 -0.9513 -0.2951
 1598SOL    HW1 4793   2.637   0.446   2.420 -3.7523 -0.8020 -0.0854
 1598SOL    HW2 4794   2.642   0.533   2.297 -1.5446 -0.6842  0.0437
 1599SOL     OW 4795   0.586   2.424   1.940 -0.3645 -0.1307  0.6547
 1599SOL    HW1 4796   0.574   2.365   2.015  1.6606  0.1847  1.2650
 1599SOL    HW2 4797   0.655   2.484   1.967  1.4343 -0.8799 -1.9540
 1600SOL     OW 4798   2.639   3.216   1.846  0.0680 -0.3548  0.6005
 1600SOL    HW1 4799   2.558   3.166   1.835  0.1219 -0.3560  0.2023
 1600SOL    HW2 4800   2.705   3.150   1.868  0.6451 -0.8113 -2.1805
 1601SOL     OW 4801   0.701   3.759   0.776 -0.3355 -0.1016  0.5073
 1601SOL    HW1 4802   0.621   3.707   0.786 -1.6845  2.0799  1.9027
 1601SOL    HW2 4803   0.722   3.788   0.865 -0.8444  3.3023 -0.3215
 1602SOL     OW 4804   1.386   1.936   2.068 -0.3192  0.5716  0.2609
 1602SOL    HW1 4805   1.466   1.989   2.064 -1.5929  2.5302 -0.3721
 1602SOL    HW2 4806   1.411   1.853   2.028  1.0110  1.7080 -1.4126
 1603SOL     OW 4807   3.165   2.082   3.885  0.0258  0.1027 -0.1814
 1603SOL    HW1 4808   3.161   2.044   3.797 -0.8326 -1.9965  0.6762
 1603SOL    HW2 4809   3.107   2.026   3.937  2.4561 -0.3822  2.2709
 1604SOL     OW 4810   2.086   3.697   3.467 -0.4285 -0.1927  0.0140
 1604SOL    HW1 4811   2.030   3.773   3.454 -0.3941  0.1616  1.7509
 1604SOL    HW2 4812   2.167   3.720   3.421  0.0173  1.3616  1.4794
 1605SOL     OW 4813   1.883   2.588   4.005 -0.1543  0.1925  0.1394
 1605SOL    HW1 4814   1.795   2.570   3.970  0.1081  0.3311 -0.6234
 1605SOL    HW2 4815   1.942   2.549   3.941  0.3464  0.6857  0.2936
 1606SOL     OW 4816   3.597   3.216   0.937 -0.1623 -0.1441 -0.5008
 1606SOL    HW1 4817   3.640   3.266   0.868 -2.2113  0.7259 -1.1910
 1606SOL    HW2 4818   3.665   3.156   0.968  0.4686 -1.7041 -4.3255
 1607SOL     OW 4819   0.998   0.911   2.355 -0.7104 -0.0519 -0.3646
 1607SOL    HW1 4820   1.011   0.958   2.272  0.0801 -0.3226 -0.3999
 1607SOL    HW2 4821   1.086   0.892   2.386 -0.9043  2.0007  1.6799
 1608SOL     OW 4822   3.793   0.147   3.941  0.9288 -0.6510  0.5278
 1608SOL    HW1 4823   3.853   0.083   3.980  0.3506 -1.2788  0.3961
 1608SOL    HW2 4824   3.851   0.213   3.902  1.5926 -2.1087 -1.0579
 1609SOL     OW 4825   2.302   0.943   0.383  0.3554 -0.2147  0.5890
 1609SOL    HW1 4826   2.354   0.894   0.447  0.9994 -1.6750 -0.9622
 1609SOL    HW2 4827   2.311   1.035   0.410  1.4140 -0.6936  1.9899
 1610SOL     OW 4828   1.557   2.432   3.600 -0.4006 -0.2268 -0.4689
 1610SOL    HW1 4829   1.651   2.439   3.584 -0.2578 -0.6375  0.1541
 1610SOL    HW2 4830   1.526   2.365   3.540 -0.5951  1.0142 -1.8091
 1611SOL     OW 4831   0.202   1.527   0.412  0.4635  0.0506 -0.9683
 1611SOL    HW1 4832   0.239   1.441   0.394 -0.6975 -0.0250 -3.3004
 1611SOL    HW2 4833   0.270   1.572   0.462  0.9101 -2.3247  0.7426
 1612SOL     OW 4834   2.705   0.832   1.186  0.0565 -0.7018  0.2650
 1612SOL    HW1 4835   2.761   0.883   1.127  0.5945 -0.2437  1.1432
 1612SOL    HW2 4836   2.621   0.878   1.186  1.0703  1.3851  2.4917
 1613SOL     OW 4837   3.086   1.370   0.639 -0.6653  0.5308 -0.1374
 1613SOL    HW1 4838   3.076   1.407   0.727 -0.1193 -0.6619  0.4587
 1613SOL    HW2 4839   3.157   1.421   0.599  0.2297  0.0271  0.7513
 1614SOL     OW 4840   1.314   3.498   0.263 -0.0027 -0.5044  0.0965
 1614SOL    HW1 4841   1.369   3.423   0.281  1.4509  0.4442 -0.2124
 1614SOL    HW2 4842   1.361   3.572   0.302 -0.7788  0.4117 -0.6492
 1615SOL     OW 4843   0.650   1.595   3.104 -1.0889 -0.2430 -0.3971
 1615SOL    HW1 4844   0.566   1.564   3.071 -1.9070 -0.3949  1.6823
 1615SOL    HW2 4845   0.681   1.524   3.161  0.3527 -0.1020 -0.9770
 1616SOL     OW 4846   1.306   2.713   0.806  0.5661 -0.1345 -0.1244
 1616SOL    HW1 4847   1.351   2.720   0.722  0.1458  0.4855 -0.3032
 1616SOL    HW2 4848   1.377   2.709   0.870  0.9084  1.2244 -0.3702
 1617SOL     OW 4849   1.975   3.718   2.750 -0.2694 -0.6742  0.1355
 1617SOL    HW1 4850   1.881   3.723   2.769 -0.3190 -0.4092 -0.1617
 1617SOL    HW2 4851   1.985   3.764   2.666  0.2419  0.0435  0.5712
 1618SOL     OW 4852   0.148   0.083   1.753  0.9887 -0.6831 -0.6270
 1618SOL    HW1 4853   0.121   0.171   1.728 -0.6257 -1.4934 -1.9200
 1618SOL    HW2 4854   0.104   0.026   1.690 -0.2768 -2.6216  1.8574
 1619SOL     OW 4855   2.123   0.421   1.080  0.1504 -0.2091 -0.5960
 1619SOL    HW1 4856   2.086   0.456   0.999  1.0987  2.4277  0.0145
 1619SOL    HW2 4857   2.214   0.452   1.080 -0.2319  1.1953  2.1339
 1620SOL     OW 4858   3.919   0.908   3.275 -0.0435 -0.3740  0.6336
 1620SOL    HW1 4859   3.955   0.820   3.271 -0.4748 -0.5245 -2.0244
 1620SOL    HW2 4860   3.956   0.952   3.198 -1.4554  1.0945  0.7318
 1621SOL     OW 4861   2.353   1.340   1.637 -0.1719 -0.4191  0.9198
 1621SOL    HW1 4862   2.430   1.355   1.691 -0.2161 -0.9299  1.1240
 1621SOL    HW2 4863   2.303   1.422   1.645 -0.9332 -1.0125  2.8930
 1622SOL     OW 4864   2.774   2.952   1.671 -0.3718 -0.1966 -0.0956
 1622SOL    HW1 4865   2.848   2.906   1.630  0.0853 -0.4985  1.0173
 1622SOL    HW2 4866   2.815   3.004   1.741 -1.0148  1.0463 -0.6147
 1623SOL     OW 4867   2.111   0.773   3.718  0.3133  0.0078  0.1666
 1623SOL    HW1 4868   2.092   0.829   3.794  4.5665 -0.1665  1.6152
 1623SOL    HW2 4869   2.088   0.685   3.747 -1.2554  0.3045 -0.0870
 1624SOL     OW 4870   1.845   1.545   0.227  0.6318  0.3303  0.1456
 1624SOL    HW1 4871   1.766   1.598   0.215  1.9633  2.2612 -0.5738
 1624SOL    HW2 4872   1.864   1.511   0.139  0.0176 -1.0878  0.5253
 1625SOL     OW 4873   1.782   2.877   3.811 -0.4382  0.4794  0.1710
 1625SOL    HW1 4874   1.855   2.849   3.755 -0.1335  0.7957  0.4114
 1625SOL    HW2 4875   1.741   2.795   3.838 -0.5014  0.3156 -0.3992
 1626SOL     OW 4876   1.806   3.572   2.332 -0.4091  0.1445 -0.2159
 1626SOL    HW1 4877   1.841   3.502   2.277 -0.4212 -0.8472  0.9966
 1626SOL    HW2 4878   1.714   3.579   2.307 -0.3048  0.0144 -0.6381
 1627SOL     OW 4879   0.282   1.523   1.836  0.5507 -1.1483  0.1216
 1627SOL    HW1 4880   0.190   1.498   1.851  0.9124 -1.2969  2.4960
 1627SOL    HW2 4881   0.311   1.559   1.920  2.1934  0.5358 -1.0943
 1628SOL     OW 4882   3.296   3.219   1.473 -1.2448  0.4235 -0.1164
 1628SOL    HW1 4883   3.363   3.272   1.430 -1.2813  0.3242 -0.2995
 1628SOL    HW2 4884   3.243   3.282   1.522 -0.1657  0.3489  1.1911
 1629SOL     OW 4885   1.884   3.794   1.678  0.1689 -0.3355  0.4050
 1629SOL    HW1 4886   1.963   3.844   1.659 -0.4900  0.8623  0.7455
 1629SOL    HW2 4887   1.860   3.820   1.767 -1.5841  0.6545 -0.3150
 1630SOL     OW 4888   0.340   1.995   0.593  0.9487 -0.6593 -0.0599
 1630SOL    HW1 4889   0.393   1.952   0.526  0.0158 -0.6191 -0.8354
 1630SOL    HW2 4890   0.250   1.986   0.563  0.5236 -0.4505  1.0840
 1631SOL     OW 4891   2.661   0.994   0.560  0.9194 -0.2647 -0.3761
 1631SOL    HW1 4892   2.635   1.008   0.470  0.2792 -0.9856 -0.3113
 1631SOL    HW2 4893   2.686   1.081   0.592  1.8542 -0.1164 -1.4492
 1632SOL     OW 4894   3.044   1.362   1.822  0.0304 -0.4246 -0.1334
 1632SOL    HW1 4895   3.109   1.414   1.869 -0.8573  0.6226 -0.0517
 1632SOL    HW2 4896   3.015   1.297   1.885  0.3642 -0.3459  0.1027
 1633SOL     OW 4897   2.599   2.511   0.972  0.0160 -0.5022 -0.9845
 1633SOL    HW1 4898   2.576   2.599   1.002 -0.2375 -0.3412 -1.6247
 1633SOL    HW2 4899   2.679   2.490   1.019  0.7130  0.5367 -1.6550
 1634SOL     OW 4900   2.222   0.117   1.747 -0.1957  0.1412 -0.1179
 1634SOL    HW1 4901   2.286   0.094   1.815 -0.1803 -2.5276 -0.8986
 1634SOL    HW2 4902   2.165   0.182   1.788  1.1737  0.3224  1.6320
 1635SOL     OW 4903   1.926   1.958   2.861 -0.5133  0.3036 -0.7076
 1635SOL    HW1 4904   1.848   1.910   2.889 -1.1833  1.2063 -1.0092
 1635SOL    HW2 4905   1.958   2.000   2.941  0.0066 -0.5086 -0.4666
 1636SOL     OW 4906   1.092   0.071   3.864  0.5621  0.4023 -0.0070
 1636SOL    HW1 4907   1.017   0.037   3.913  1.5906 -0.4211  1.0523
 1636SOL    HW2 4908   1.127  -0.006   3.818  0.7408  0.7880 -0.5288
 1637SOL     OW 4909   1.563   2.265   0.356  0.4401  0.0218  1.2080
 1637SOL    HW1 4910   1.563   2.236   0.447 -0.8396 -2.4477  0.5016
 1637SOL    HW2 4911   1.571   2.360   0.361  1.0673 -0.0951  3.8451
 1638SOL     OW 4912   2.665   2.269   3.207  0.4155 -0.4225  0.4978
 1638SOL    HW1 4913   2.738   2.207   3.214 -0.2378 -1.3309 -0.4971
 1638SOL    HW2 4914   2.589   2.220   3.240 -0.5564 -1.0086 -2.3220
 1639SOL     OW 4915   1.020   2.183   2.299  0.1601 -0.0190  0.4441
 1639SOL    HW1 4916   1.073   2.176   2.220  0.2571 -0.4887  0.5528
 1639SOL    HW2 4917   0.952   2.116   2.288  0.9708 -1.0263  1.3784
 1640SOL     OW 4918   1.383   3.642   0.045 -0.4491  0.2774  0.5238
 1640SOL    HW1 4919   1.375   3.579   0.116 -1.4973 -0.4857 -0.2459
 1640SOL    HW2 4920   1.383   3.589  -0.035 -0.1609  1.1711 -0.0888
 1641SOL     OW 4921   3.453   0.030   0.145 -0.2043 -0.0650  0.5001
 1641SOL    HW1 4922   3.400   0.056   0.070  0.1820  0.5235  0.4249
 1641SOL    HW2 4923   3.494  -0.052   0.118  0.5652  0.5515 -0.2568
 1642SOL     OW 4924   2.455   2.712   3.160  0.1377  0.0502  0.6556
 1642SOL    HW1 4925   2.424   2.626   3.187 -1.0857 -0.1058 -1.1196
 1642SOL    HW2 4926   2.551   2.706   3.166  0.0359 -1.1329  1.3643
 1643SOL     OW 4927   2.867   3.804   0.304  0.7586  0.5522 -0.2339
 1643SOL    HW1 4928   2.901   3.758   0.380 -1.6648  0.3178  0.8025
 1643SOL    HW2 4929   2.813   3.874   0.340  2.1133  2.4909 -1.7794
 1644SOL     OW 4930   1.250   0.852   2.524 -0.0726  0.0915  0.4076
 1644SOL    HW1 4931   1.314   0.908   2.480  0.4509 -0.4628  0.4644
 1644SOL    HW2 4932   1.263   0.868   2.617 -3.2550  3.6717  0.5002
 1645SOL     OW 4933   1.904   2.670   2.755  0.0959  0.5798  0.8143
 1645SOL    HW1 4934   1.928   2.761   2.742  2.3837  0.1784  1.7105
 1645SOL    HW2 4935   1.960   2.640   2.828 -0.1449 -1.6735  0.1716
 1646SOL     OW 4936   1.315   1.900   2.863  0.0035 -0.0202 -0.0904
 1646SOL    HW1 4937   1.391   1.871   2.913 -2.4801 -3.7582  2.0062
 1646SOL    HW2 4938   1.338   1.881   2.772  2.0263  0.2808  0.2995
 1647SOL     OW 4939   0.897   3.227   3.118  0.6299  0.2295 -0.1374
 1647SOL    HW1 4940   0.837   3.194   3.051  0.6255 -0.9944  0.4442
 1647SOL    HW2 4941   0.905   3.155   3.180  3.1143  0.1460 -0.4568
 1648SOL     OW 4942   0.924   1.098   0.989 -0.2187 -0.0617  0.1812
 1648SOL    HW1 4943   0.942   1.192   0.989  0.4536 -0.1350 -1.9479
 1648SOL    HW2 4944   0.835   1.090   0.955 -0.2111 -0.1827  0.1883
 1649SOL     OW 4945   0.765   3.902   0.336 -0.0199  0.2841  0.6450
 1649SOL    HW1 4946   0.776   3.821   0.386  0.8359 -0.9737 -1.4339
 1649SOL    HW2 4947   0.765   3.972   0.402  0.5166 -1.2977  2.3958
 1650SOL     OW 4948   0.149   3.228   1.947  0.3206 -0.2792  0.7486
 1650SOL    HW1 4949   0.152   3.294   1.878 -1.1395 -0.5534  0.3995
 1650SOL    HW2 4950   0.071   3.248   1.997  1.1557 -0.3230  2.1204
 1651SOL     OW 4951   2.782   3.487   1.265  0.0507 -0.3180  0.1468
 1651SOL    HW1 4952   2.696   3.528   1.271  0.9327  1.4530  1.7563
 1651SOL    HW2 4953   2.841   3.559   1.239  1.1883 -1.2691  0.0191
 1652SOL     OW 4954   0.694   2.238   3.957  0.2411 -0.7083 -0.4938
 1652SOL    HW1 4955   0.718   2.299   3.888 -0.3590  1.4509  1.0887
 1652SOL    HW2 4956   0.599   2.224   3.946  0.5864 -2.4728 -1.6295
 1653SOL     OW 4957   0.227   3.305   0.093  0.5888  0.3368 -0.3103
 1653SOL    HW1 4958   0.257   3.248   0.022 -0.8394  0.7325 -1.2830
 1653SOL    HW2 4959   0.304   3.355   0.118  1.7383 -1.6209  0.1931
 1654SOL     OW 4960   3.507   2.992   2.683  0.2042  0.1044 -0.0750
 1654SOL    HW1 4961   3.474   2.993   2.773 -0.2808  0.1255 -0.2511
 1654SOL    HW2 4962   3.462   2.919   2.641 -0.8016  1.0629 -0.7436
 1655SOL     OW 4963   1.371   3.639   3.170  0.0362  0.7016  0.5133
 1655SOL    HW1 4964   1.368   3.613   3.078  0.0810  2.2921  0.0317
 1655SOL    HW2 4965   1.457   3.609   3.201  0.5473  1.2902 -0.3237
 1656SOL     OW 4966   3.003   1.812   0.559 -0.1949  0.2520 -0.1682
 1656SOL    HW1 4967   3.054   1.831   0.480 -1.1096  2.9385 -0.2200
 1656SOL    HW2 4968   3.069   1.789   0.624  0.7799  0.2140 -1.1286
 1657SOL     OW 4969   1.589   1.144   1.967 -0.2660  0.5190  0.3057
 1657SOL    HW1 4970   1.583   1.059   1.923  1.7255  0.1229  0.6717
 1657SOL    HW2 4971   1.559   1.128   2.056  0.4066  0.0828  0.4669
 1658SOL     OW 4972   3.844   1.492   0.799  0.1510  0.9374  0.0716
 1658SOL    HW1 4973   3.805   1.572   0.764 -1.1732  1.0900  1.7661
 1658SOL    HW2 4974   3.771   1.445   0.839  1.0675 -0.6901 -0.0758
 1659SOL     OW 4975   3.200   0.717   2.716 -0.3208 -0.9815  0.2538
 1659SOL    HW1 4976   3.238   0.700   2.802  1.2356 -1.3778 -0.4761
 1659SOL    HW2 4977   3.148   0.797   2.728  0.6573 -0.4847  1.3294
 1660SOL     OW 4978   1.609   3.451   3.449  0.2721  0.5650 -0.4497
 1660SOL    HW1 4979   1.567   3.520   3.500  1.0311 -0.5548  1.8325
 1660SOL    HW2 4980   1.681   3.495   3.403 -0.4808  1.6270 -0.6417
 1661SOL     OW 4981   2.248   2.662   0.275 -0.5252  0.0115 -0.0281
 1661SOL    HW1 4982   2.285   2.642   0.189  1.0663  0.2338  0.5833
 1661SOL    HW2 4983   2.213   2.751   0.265  2.6552  1.4361  0.4134
 1662SOL     OW 4984   2.672   1.975   0.831  0.3980  0.2738 -0.2515
 1662SOL    HW1 4985   2.745   1.994   0.890 -0.6460  0.5133  1.0206
 1662SOL    HW2 4986   2.694   2.020   0.749  1.1443  1.2921  0.4867
 1663SOL     OW 4987   2.967   3.080   1.337  0.5217  0.5490  0.0874
 1663SOL    HW1 4988   2.954   3.147   1.404  3.1399  1.0540  0.1953
 1663SOL    HW2 4989   2.967   2.997   1.385 -0.4893  0.6623  0.2826
 1664SOL     OW 4990   1.185   2.524   1.167 -0.5522 -0.1581 -0.2912
 1664SOL    HW1 4991   1.231   2.484   1.093 -0.1833  2.0488 -1.3579
 1664SOL    HW2 4992   1.229   2.489   1.244  1.4006  0.1038 -1.2230
 1665SOL     OW 4993   2.765   1.997   3.015 -0.7403  0.3158  0.4263
 1665SOL    HW1 4994   2.828   1.931   2.985  0.5118  1.9507 -0.6878
 1665SOL    HW2 4995   2.803   2.033   3.095  1.0967  2.9392 -1.4470
 1666SOL     OW 4996   1.701   0.318   1.800 -0.5241 -0.4002 -0.3687
 1666SOL    HW1 4997   1.664   0.257   1.736 -0.6425 -0.8869  0.1597
 1666SOL    HW2 4998   1.789   0.282   1.818 -0.9691 -0.9983  0.6986
 1667SOL     OW 4999   3.856   1.228   3.829  0.1265  0.5156  0.1043
 1667SOL    HW1 5000   3.811   1.146   3.853 -1.6328  1.5084  0.3454
 1667SOL    HW2 5001   3.939   1.199   3.791 -0.4733 -1.3888  0.1312
 1668SOL     OW 5002   0.710   2.823   3.561  0.1900  0.2875  0.0363
 1668SOL    HW1 5003   0.788   2.803   3.509  1.4044  1.4138  1.3500
 1668SOL    HW2 5004   0.722   2.775   3.642  0.7744  2.3722  1.2537
 1669SOL     OW 5005   2.832   3.568   0.064  0.7909 -0.4996 -0.3437
 1669SOL    HW1 5006   2.853   3.660   0.078  2.0259 -0.5401 -1.6253
 1669SOL    HW2 5007   2.763   3.568  -0.002 -2.4228 -0.4264  2.7253
 1670SOL     OW 5008   1.142   2.759   2.296  0.0219  0.1248 -0.1279
 1670SOL    HW1 5009   1.132   2.796   2.208  0.7825  0.1148 -0.2302
 1670SOL    HW2 5010   1.237   2.754   2.309 -0.0555  1.2463  1.1630
 1671SOL     OW 5011   0.603   1.635   0.247 -0.2402  0.5504 -0.4252
 1671SOL    HW1 5012   0.691   1.598   0.250 -0.3787  0.2578  0.2065
 1671SOL    HW2 5013   0.545   1.561   0.264 -0.6747  0.5520 -1.7762
 1672SOL     OW 5014   3.448   0.768   2.976 -0.0344  0.2238  0.3319
 1672SOL    HW1 5015   3.506   0.761   2.900  1.0431  2.7735  0.8136
 1672SOL    HW2 5016   3.459   0.685   3.022  2.3392  0.1134 -0.2813
 1673SOL     OW 5017   1.422   3.154   1.080 -0.4048 -0.4889  0.1470
 1673SOL    HW1 5018   1.461   3.093   1.143 -1.1537 -0.7003  0.4161
 1673SOL    HW2 5019   1.352   3.198   1.129 -2.8983 -2.6396 -1.2108
 1674SOL     OW 5020   0.001   1.059   3.570 -0.3439  0.3195  0.2017
 1674SOL    HW1 5021  -0.054   0.980   3.571  0.1497 -0.0400  1.7631
 1674SOL    HW2 5022   0.085   1.029   3.533 -0.2777  0.1862  0.4553
 1675SOL     OW 5023   2.867   0.023   0.697  0.3791 -0.0286 -0.0389
 1675SOL    HW1 5024   2.795   0.044   0.756 -0.9132 -0.8783 -1.2336
 1675SOL    HW2 5025   2.942   0.011   0.754 -0.4823  0.6172  1.2848
 1676SOL     OW 5026   3.145   2.700   3.751 -0.1729 -0.4953 -0.6585
 1676SOL    HW1 5027   3.216   2.637   3.765 -0.7187 -0.7144  1.3904
 1676SOL    HW2 5028   3.188   2.773   3.706  1.3860 -0.6192  0.5147
 1677SOL     OW 5029   3.143   0.934   3.515 -0.8097 -0.4419 -0.0132
 1677SOL    HW1 5030   3.075   0.889   3.465 -0.4073  1.3841 -2.3515
 1677SOL    HW2 5031   3.226   0.901   3.479 -0.5114  1.0840 -0.8050
 1678SOL     OW 5032   0.338   3.484   2.716 -0.9506 -0.4159  0.1240
 1678SOL    HW1 5033   0.268   3.536   2.676 -1.1789 -0.6985  0.1575
 1678SOL    HW2 5034   0.299   3.451   2.797 -0.5875 -0.0884  0.4359
 1679SOL     OW 5035   2.541   3.049   3.964 -0.6561  0.3647  0.3451
 1679SOL    HW1 5036   2.540   3.004   4.049  2.0608 -0.5866 -0.0471
 1679SOL    HW2 5037   2.521   3.140   3.986  0.9750  0.3559  2.2031
 1680SOL     OW 5038   0.909   1.317   2.766 -0.3302 -0.5379  0.0505
 1680SOL    HW1 5039   0.941   1.368   2.692 -1.6306 -0.4954 -0.5137
 1680SOL    HW2 5040   0.833   1.365   2.798 -0.2843 -0.9972  0.8833
 1681SOL     OW 5041   3.529   0.723   0.264  0.3558 -0.0246  0.3595
 1681SOL    HW1 5042   3.524   0.703   0.357  5.4794  1.9493  1.4000
 1681SOL    HW2 5043   3.582   0.653   0.227  1.9102  1.3254 -0.0820
 1682SOL     OW 5044   3.791   1.530   1.147  0.2971 -0.0198 -0.7700
 1682SOL    HW1 5045   3.711   1.489   1.114  0.4796 -1.6443  0.6431
 1682SOL    HW2 5046   3.843   1.547   1.069 -0.3449 -1.3631 -1.5266
 1683SOL     OW 5047   1.798   0.195   2.721  0.1994  0.4366 -0.6563
 1683SOL    HW1 5048   1.702   0.202   2.722  0.1712 -0.0344 -0.0727
 1683SOL    HW2 5049   1.818   0.123   2.781  0.8101 -0.8256 -2.2909
 1684SOL     OW 5050   0.814   3.290   1.526 -0.9731  0.0237  0.7031
 1684SOL    HW1 5051   0.807   3.280   1.431  0.6337  1.4503  0.3929
 1684SOL    HW2 5052   0.795   3.203   1.561  0.8158 -1.1398 -1.0618
 1685SOL     OW 5053   1.144   1.707   1.849 -0.8121 -0.6769  0.4398
 1685SOL    HW1 5054   1.215   1.746   1.899 -1.1813 -0.7085  0.9882
 1685SOL    HW2 5055   1.185   1.681   1.766 -0.6826  1.4497 -0.2406
 1686SOL     OW 5056   1.597   1.171   2.857 -0.0443  0.4329 -0.1249
 1686SOL    HW1 5057   1.611   1.206   2.945 -0.0245 -0.7113  0.3526
 1686SOL    HW2 5058   1.514   1.209   2.829  0.5620  1.8030 -0.1399
 1687SOL     OW 5059   1.450   2.491   1.039  0.6030 -0.8844 -0.2428
 1687SOL    HW1 5060   1.463   2.585   1.042 -2.9766 -0.2635  3.3674
 1687SOL    HW2 5061   1.505   2.456   1.108  2.7690 -1.7588 -2.2674
 1688SOL     OW 5062   1.427   3.946   3.729 -0.0754  0.0325  0.1360
 1688SOL    HW1 5063   1.483   3.974   3.656 -1.2053 -0.1234 -0.8139
 1688SOL    HW2 5064   1.470   3.982   3.807  0.8144  0.7506 -0.6568
 1689SOL     OW 5065   1.964   2.117   1.449 -0.4192 -0.0178 -0.1793
 1689SOL    HW1 5066   1.874   2.098   1.425 -1.4724  3.0228  0.9309
 1689SOL    HW2 5067   1.992   2.184   1.386  0.9247 -0.6252 -0.2527
 1690SOL     OW 5068   0.659   0.441   0.595  0.0766  0.3068  0.7064
 1690SOL    HW1 5069   0.668   0.399   0.681  3.2129  3.0599  1.9573
 1690SOL    HW2 5070   0.626   0.529   0.616 -1.0173  0.3933 -1.1952
 1691SOL     OW 5071   2.196   2.517   0.845 -0.0098 -0.1006  0.1506
 1691SOL    HW1 5072   2.242   2.453   0.900  0.5958  0.2450  0.0551
 1691SOL    HW2 5073   2.191   2.476   0.759  0.4196 -0.0018  0.0783
 1692SOL     OW 5074   0.027   3.745   2.276  0.3332  0.5288  0.2027
 1692SOL    HW1 5075   0.009   3.797   2.355 -2.4157 -0.6060  0.4411
 1692SOL    HW2 5076   0.027   3.808   2.205  0.2118  1.2471  0.8252
 1693SOL     OW 5077   1.656   1.184   0.267  0.2505  0.5686  0.1169
 1693SOL    HW1 5078   1.620   1.267   0.237 -2.5875  0.1421  1.9906
 1693SOL    HW2 5079   1.644   1.185   0.362  1.3306 -1.4686  0.3406
 1694SOL     OW 5080   1.735   3.268   0.806 -0.7444  0.5559 -0.9148
 1694SOL    HW1 5081   1.729   3.179   0.841 -1.2675  0.0923 -2.1451
 1694SOL    HW2 5082   1.650   3.308   0.826 -0.3332  0.9766  0.0889
 1695SOL     OW 5083   2.463   0.823   1.778  0.7748 -0.1778 -0.0916
 1695SOL    HW1 5084   2.384   0.855   1.734 -0.9045 -1.0502  2.1005
 1695SOL    HW2 5085   2.495   0.753   1.722  0.2301  0.4444 -1.2241
 1696SOL     OW 5086   2.461   0.511   2.879  0.4162 -0.3987 -0.0345
 1696SOL    HW1 5087   2.384   0.454   2.868  0.5410 -0.2921 -1.5798
 1696SOL    HW2 5088   2.497   0.520   2.791  0.0154  2.6115 -0.0009
 1697SOL     OW 5089   2.594   3.067   2.659 -0.0687 -0.0836  0.3133
 1697SOL    HW1 5090   2.512   3.052   2.611  2.1144 -1.4737 -3.3857
 1697SOL    HW2 5091   2.617   2.981   2.694  0.2582  0.1222  0.6097
 1698SOL     OW 5092   2.045   3.699   0.992 -0.1788  0.9276 -0.4184
 1698SOL    HW1 5093   1.975   3.634   0.999 -0.3977  1.0284 -1.5087
 1698SOL    HW2 5094   2.123   3.649   0.968  0.4305  0.6605  1.8832
 1699SOL     OW 5095   1.278   0.787   3.035 -0.3093 -0.3465  0.1307
 1699SOL    HW1 5096   1.218   0.852   3.071 -0.2108 -0.2655  0.1508
 1699SOL    HW2 5097   1.286   0.721   3.104 -0.1956 -0.2401  0.2195
 1700SOL     OW 5098   0.821   3.952   1.479 -0.1513  0.1719  0.7009
 1700SOL    HW1 5099   0.858   4.013   1.543 -1.8285 -0.7958  2.7424
 1700SOL    HW2 5100   0.794   4.008   1.406  1.2760  1.4175  1.0636
 1701SOL     OW 5101   2.057   2.514   2.928  0.1146 -0.2493 -0.1315
 1701SOL    HW1 5102   2.113   2.436   2.937 -0.6937 -0.7781  0.4252
 1701SOL    HW2 5103   2.061   2.556   3.013 -0.8841 -0.6748  0.1329
 1702SOL     OW 5104   3.126   0.795   3.140 -0.3356 -0.4342 -0.6238
 1702SOL    HW1 5105   3.183   0.719   3.131  0.8850  0.5472 -1.8194
 1702SOL    HW2 5106   3.185   0.865   3.170 -1.7405 -0.2924  2.0952
 1703SOL     OW 5107   1.214   3.460   2.278 -0.4048 -0.0877 -0.2575
 1703SOL    HW1 5108   1.152   3.396   2.245 -0.2769 -0.0780 -0.5209
 1703SOL    HW2 5109   1.265   3.412   2.343  1.0883 -0.8769 -1.9185
 1704SOL     OW 5110   3.490   1.074   1.270 -0.1014 -0.3500 -0.2397
 1704SOL    HW1 5111   3.447   1.077   1.356  0.7242 -0.6536  0.2006
 1704SOL    HW2 5112   3.459   0.992   1.231  0.9472 -1.1682  0.5677
 1705SOL     OW 5113   3.864   2.610   3.819 -0.2303 -0.6828  0.4470
 1705SOL    HW1 5114   3.841   2.553   3.745  2.6089 -2.0626  0.4985
 1705SOL    HW2 5115   3.895   2.691   3.777 -0.5607 -0.6814  0.2025
 1706SOL     OW 5116   3.582   1.812   3.808  0.2286  0.0741 -0.3048
 1706SOL    HW1 5117   3.491   1.824   3.835  0.0977 -2.2380  0.5387
 1706SOL    HW2 5118   3.577   1.757   3.729  0.8510 -2.6876  1.4220
 1707SOL     OW 5119   0.508   2.730   1.993 -0.2893 -0.7401 -0.2934
 1707SOL    HW1 5120   0.431   2.726   2.050 -0.2416  0.2823 -0.1381
 1707SOL    HW2 5121   0.582   2.712   2.052 -0.2046  0.7149  0.0711
 1708SOL     OW 5122   3.795   1.858   1.221 -0.2157  0.5789 -0.8605
 1708SOL    HW1 5123   3.744   1.782   1.196 -0.2119 -1.0426  3.3668
 1708SOL    HW2 5124   3.883   1.824   1.236 -0.0226  1.5195  0.3176
 1709SOL     OW 5125   3.393   2.968   1.627  0.4178 -0.1805 -0.3524
 1709SOL    HW1 5126   3.357   2.920   1.553 -0.0325 -1.0953  0.4389
 1709SOL    HW2 5127   3.424   3.050   1.589 -1.3930  0.1367 -1.2866
 1710SOL     OW 5128   1.699   0.829   3.489 -0.5670 -0.4958  0.5479
 1710SOL    HW1 5129   1.664   0.895   3.430  0.1568 -0.6919 -0.1285
 1710SOL    HW2 5130   1.794   0.841   3.484 -0.5032  0.9163  3.3622
 1711SOL     OW 5131   2.098   2.590   1.512 -0.7624  0.3996 -0.1257
 1711SOL    HW1 5132   2.180   2.543   1.528 -1.2763 -0.2080  0.8483
 1711SOL    HW2 5133   2.110   2.629   1.426  1.8549  3.0671  1.2532
 1712SOL     OW 5134   1.194   0.581   2.352 -0.6240 -0.0089 -0.0625
 1712SOL    HW1 5135   1.111   0.537   2.373 -1.9099  2.2434 -0.1767
 1712SOL    HW2 5136   1.209   0.639   2.427 -0.5971  1.5831 -1.2599
 1713SOL     OW 5137   1.269   2.412   1.425 -0.0862 -0.0327 -0.2362
 1713SOL    HW1 5138   1.253   2.472   1.497 -0.9082  1.1910 -1.3915
 1713SOL    HW2 5139   1.196   2.350   1.427 -0.1947  0.0997 -0.1310
 1714SOL     OW 5140   2.123   0.808   2.347 -0.1021 -0.3379 -0.1725
 1714SOL    HW1 5141   2.205   0.787   2.301  0.1965 -0.2710  0.3236
 1714SOL    HW2 5142   2.112   0.737   2.410 -0.6853 -0.6040 -0.5600
 1715SOL     OW 5143   1.146   1.000   3.156  0.0865 -0.1035  0.0829
 1715SOL    HW1 5144   1.061   0.976   3.119 -0.0085  1.6629 -0.9343
 1715SOL    HW2 5145   1.136   0.986   3.250 -1.1425 -0.4601 -0.0915
 1716SOL     OW 5146   0.468   1.390   2.085 -0.1383  0.4120  0.2973
 1716SOL    HW1 5147   0.478   1.349   2.000  0.4288 -0.7418  0.8981
 1716SOL    HW2 5148   0.554   1.384   2.126 -1.0387 -1.7829  2.1043
 1717SOL     OW 5149   2.732   1.258   0.417 -0.7476  0.4795 -0.3837
 1717SOL    HW1 5150   2.702   1.199   0.347 -0.5749 -0.5809  0.4232
 1717SOL    HW2 5151   2.678   1.336   0.406 -1.0155  0.1681 -1.4434
 1718SOL     OW 5152   2.364   0.540   3.812 -0.1713 -0.2886 -0.6203
 1718SOL    HW1 5153   2.355   0.570   3.721  1.3266  0.7986 -0.4441
 1718SOL    HW2 5154   2.415   0.459   3.806 -0.5230 -0.5014 -0.7759
 1719SOL     OW 5155   3.729   3.643   2.264 -0.4657  0.1771  0.1374
 1719SOL    HW1 5156   3.675   3.615   2.338 -1.9886  0.6382 -0.7344
 1719SOL    HW2 5157   3.816   3.608   2.282 -0.7698  0.3609  2.1714
 1720SOL     OW 5158   3.603   2.496   2.297  0.1266  0.5115 -0.3745
 1720SOL    HW1 5159   3.614   2.473   2.204  1.5939  1.6775 -0.5302
 1720SOL    HW2 5160   3.513   2.527   2.303  0.7172  2.8060 -2.0018
 1721SOL     OW 5161   3.462   1.273   3.098 -0.2192 -0.6461  0.2777
 1721SOL    HW1 5162   3.444   1.354   3.146 -4.0028 -2.2467  1.9998
 1721SOL    HW2 5163   3.554   1.254   3.116 -0.2508  1.2715  3.0558
 1722SOL     OW 5164   3.300   3.959   2.910  0.6156 -0.2951  0.1170
 1722SOL    HW1 5165   3.290   4.026   2.843  0.3191  0.5147  0.9481
 1722SOL    HW2 5166   3.368   3.993   2.968 -0.3135 -0.1532  1.1747
 1723SOL     OW 5167   2.489   1.952   1.078 -0.5235  0.3289  0.7308
 1723SOL    HW1 5168   2.481   2.013   1.152 -2.3068  1.0595 -0.0039
 1723SOL    HW2 5169   2.544   1.999   1.015 -0.1234  0.2684  1.0286
 1724SOL     OW 5170   0.783   3.052   2.303  0.5491 -0.6748  0.0702
 1724SOL    HW1 5171   0.735   3.107   2.240  2.0896 -0.2650 -0.7803
 1724SOL    HW2 5172   0.872   3.084   2.300  0.9640 -1.6335  1.4052
 1725SOL     OW 5173   2.673   0.689   2.272 -0.8969  0.2413 -0.3408
 1725SOL    HW1 5174   2.696   0.763   2.328  1.5569  0.3833 -1.4135
 1725SOL    HW2 5175   2.639   0.728   2.192 -0.2126  0.2101 -0.6540
 1726SOL     OW 5176   2.873   3.860   3.647  0.4307  0.8376 -0.0027
 1726SOL    HW1 5177   2.878   3.906   3.731 -0.6892 -0.1596  0.6347
 1726SOL    HW2 5178   2.950   3.803   3.646  1.2437  1.8867 -0.3296
 1727SOL     OW 5179   3.997   2.207   2.319 -0.0431  0.5896 -0.0200
 1727SOL    HW1 5180   3.964   2.211   2.408 -0.5129 -0.6889 -0.1121
 1727SOL    HW2 5181   3.978   2.118   2.290  1.6874  0.4232 -0.7821
 1728SOL     OW 5182   2.074   2.700   3.118 -0.0256 -0.6929 -0.3574
 1728SOL    HW1 5183   2.091   2.734   3.206 -0.1510 -3.1748  0.7289
 1728SOL    HW2 5184   2.020   2.766   3.076  0.0230  0.5648  1.4515
 1729SOL     OW 5185   2.566   0.452   2.622 -0.0071  0.3864 -0.5882
 1729SOL    HW1 5186   2.569   0.356   2.626  0.8590  0.3711 -1.2985
 1729SOL    HW2 5187   2.657   0.479   2.631 -0.0819  1.0751 -1.7652
 1730SOL     OW 5188   2.507   1.554   1.324 -0.1447 -0.6114 -0.0727
 1730SOL    HW1 5189   2.427   1.598   1.297  0.5790  0.4968 -0.4771
 1730SOL    HW2 5190   2.489   1.523   1.413 -0.7184  0.4103  0.1749
 1731SOL     OW 5191   0.370   1.375   1.542  0.2192  0.3089 -0.3109
 1731SOL    HW1 5192   0.433   1.326   1.595  1.5984  0.5496 -1.6635
 1731SOL    HW2 5193   0.285   1.346   1.575  1.0033 -0.6809  0.9950
 1732SOL     OW 5194   1.320   0.990   3.958  0.0064  0.4424 -0.0028
 1732SOL    HW1 5195   1.403   1.016   3.997 -0.1016 -1.0977  1.3902
 1732SOL    HW2 5196   1.343   0.922   3.894 -0.2026 -0.3642  0.7635
 1733SOL     OW 5197   0.068   3.925   2.060 -1.1192 -0.1394  0.2950
 1733SOL    HW1 5198   0.018   3.892   1.985 -1.1282 -1.5939  0.9009
 1733SOL    HW2 5199   0.059   4.020   2.055 -1.9215 -0.2573 -0.9893
 1734SOL     OW 5200   2.852   3.869   1.349  0.4501  0.2624  0.1917
 1734SOL    HW1 5201   2.920   3.850   1.283 -0.5351  0.2180 -0.8377
 1734SOL    HW2 5202   2.782   3.806   1.329  0.4458 -0.2796  1.7878
 1735SOL     OW 5203   1.762   2.914   2.522  0.1463 -0.6426  0.1196
 1735SOL    HW1 5204   1.730   2.885   2.608  0.9205  2.6473  1.7023
 1735SOL    HW2 5205   1.858   2.912   2.531  0.2299 -0.1534 -0.6258
 1736SOL     OW 5206   2.363   1.962   3.663  0.3310 -0.0771  0.1949
 1736SOL    HW1 5207   2.356   1.979   3.757 -2.3715  1.5170 -0.1716
 1736SOL    HW2 5208   2.330   2.043   3.622  1.8222 -0.5593 -2.1470
 1737SOL     OW 5209   0.206   1.348   1.114  0.1527  0.3766  0.0468
 1737SOL    HW1 5210   0.187   1.415   1.049  0.4262  0.9275  0.5347
 1737SOL    HW2 5211   0.299   1.330   1.105 -0.0577 -0.5015 -0.6021
 1738SOL     OW 5212   2.605   2.923   1.461 -0.0972  0.5980 -0.3754
 1738SOL    HW1 5213   2.529   2.877   1.498  0.0178 -1.0335 -2.0031
 1738SOL    HW2 5214   2.661   2.941   1.536 -1.2650  0.1924  0.6278
 1739SOL     OW 5215   3.222   3.756   0.527 -0.2313 -0.3743  0.5400
 1739SOL    HW1 5216   3.193   3.793   0.444 -1.1554 -0.7559  0.6810
 1739SOL    HW2 5217   3.142   3.750   0.580  0.0694 -1.5805  0.8867
 1740SOL     OW 5218   2.130   0.427   3.543  0.2141  0.2200  0.0828
 1740SOL    HW1 5219   2.089   0.458   3.623 -2.0653 -0.3832 -0.7688
 1740SOL    HW2 5220   2.211   0.478   3.536  0.7525 -0.0611  2.9705
 1741SOL     OW 5221   2.721   0.422   3.958 -0.6646 -0.2666  0.2829
 1741SOL    HW1 5222   2.681   0.356   3.902 -0.0975 -1.3579  1.1403
 1741SOL    HW2 5223   2.813   0.425   3.932 -1.2777  2.7417 -2.1777
 1742SOL     OW 5224   0.710   0.189   2.426  0.5013 -0.3378 -0.4042
 1742SOL    HW1 5225   0.647   0.118   2.428  1.2241 -0.9914 -0.3698
 1742SOL    HW2 5226   0.695   0.233   2.342 -0.7052  0.1810  0.0692
 1743SOL     OW 5227   0.199   0.676   0.099 -0.7140 -0.1122 -0.2798
 1743SOL    HW1 5228   0.114   0.671   0.143 -0.2556  0.6478  0.7274
 1743SOL    HW2 5229   0.180   0.716   0.015 -1.1520  1.5221  0.5665
 1744SOL     OW 5230   1.978   3.911   0.568 -0.7692 -0.1104  0.0462
 1744SOL    HW1 5231   2.015   3.931   0.655 -1.2708 -1.3547  0.5755
 1744SOL    HW2 5232   1.913   3.979   0.553 -1.1777 -0.2801  0.9779
 1745SOL     OW 5233   3.085   0.205   2.995  0.1644 -0.3321  0.1126
 1745SOL    HW1 5234   2.996   0.192   2.962 -0.1516  1.5413  0.0908
 1745SOL    HW2 5235   3.139   0.211   2.915 -0.0517  0.6714  0.0240
 1746SOL     OW 5236   0.440   0.439   0.106 -0.2824  0.0826 -0.0940
 1746SOL    HW1 5237   0.414   0.350   0.083  2.4866 -0.1985 -2.6973
 1746SOL    HW2 5238   0.420   0.491   0.028  2.1584  0.7958 -0.3082
 1747SOL     OW 5239   2.602   2.089   1.809  0.2022 -0.5113 -0.2639
 1747SOL    HW1 5240   2.599   2.072   1.903 -0.8921 -1.2723 -0.4121
 1747SOL    HW2 5241   2.642   2.010   1.772  4.2081  1.2547 -0.1801
 1748SOL     OW 5242   0.676   0.454   0.274 -0.4147  0.1094  0.0696
 1748SOL    HW1 5243   0.669   0.444   0.369 -1.1253 -0.5007 -0.0450
 1748SOL    HW2 5244   0.586   0.460   0.244 -0.1932  0.1845 -0.5885
 1749SOL     OW 5245   1.206   0.565   3.730  0.1101  0.4576 -0.2182
 1749SOL    HW1 5246   1.244   0.521   3.654 -0.0737  1.2061 -0.7655
 1749SOL    HW2 5247   1.216   0.503   3.802 -0.4143 -0.6010 -1.0168
 1750SOL     OW 5248   3.050   3.499   0.392 -0.0104 -0.1748  0.3105
 1750SOL    HW1 5249   2.983   3.538   0.448 -1.3036 -0.1822 -1.1553
 1750SOL    HW2 5250   3.012   3.416   0.365  1.1193 -0.7289  0.3933
 1751SOL     OW 5251   3.841   3.888   1.240 -0.4161 -0.8659 -0.8161
 1751SOL    HW1 5252   3.821   3.982   1.250  2.2434 -0.2217 -0.9068
 1751SOL    HW2 5253   3.768   3.844   1.284 -0.2643  1.3388  1.9706
 1752SOL     OW 5254   1.110   1.228   1.417 -0.0845 -0.6224 -1.1350
 1752SOL    HW1 5255   1.124   1.197   1.507  0.1809 -0.4243 -1.1066
 1752SOL    HW2 5256   1.179   1.186   1.366  1.4295  1.3047 -0.7820
 1753SOL     OW 5257   2.252   3.729   3.155 -0.2792  0.4306  0.2088
 1753SOL    HW1 5258   2.275   3.790   3.225  1.0344  1.0728 -0.7460
 1753SOL    HW2 5259   2.335   3.694   3.124 -0.7763  0.5719 -1.3909
 1754SOL     OW 5260   3.156   1.750   1.260 -0.3596 -0.5910  0.6793
 1754SOL    HW1 5261   3.090   1.768   1.193  0.2614 -1.9244 -0.3228
 1754SOL    HW2 5262   3.227   1.810   1.241 -1.1461  0.7052  1.6354
 1755SOL     OW 5263   3.101   3.663   3.686 -0.2160 -0.7908 -0.3386
 1755SOL    HW1 5264   3.114   3.616   3.768 -0.6826  0.5753  0.5655
 1755SOL    HW2 5265   3.131   3.603   3.618 -0.5970 -2.2742  0.7642
 1756SOL     OW 5266   3.035   1.290   0.366  0.1010 -0.6906 -0.1813
 1756SOL    HW1 5267   3.064   1.300   0.456  1.0057 -1.0340 -0.4197
 1756SOL    HW2 5268   2.941   1.304   0.369  0.5081  2.8114  0.2783
 1757SOL     OW 5269   3.062   3.104   2.397  0.1526 -0.5657  0.0543
 1757SOL    HW1 5270   2.981   3.155   2.397  0.5793  0.2137 -1.7856
 1757SOL    HW2 5271   3.034   3.013   2.400 -0.6942 -0.2845  1.4603
 1758SOL     OW 5272   1.658   3.900   3.363 -0.3008  0.8182 -0.1247
 1758SOL    HW1 5273   1.704   3.917   3.281  0.0488  0.5177  0.0099
 1758SOL    HW2 5274   1.606   3.980   3.377  1.1741  1.7248  0.4040
 1759SOL     OW 5275   1.554   3.659   1.952  0.1119  0.8786  0.1188
 1759SOL    HW1 5276   1.619   3.729   1.945  0.1655  0.7954 -0.2495
 1759SOL    HW2 5277   1.605   3.578   1.943 -0.0394  0.8136 -0.1758
 1760SOL     OW 5278   1.769   2.956   1.828  0.5176  0.2380  0.3096
 1760SOL    HW1 5279   1.766   3.052   1.835 -0.8659  0.1966  0.4148
 1760SOL    HW2 5280   1.799   2.939   1.739  0.1209  0.7724  0.0715
 1761SOL     OW 5281   2.331   2.109   0.415 -0.3971  0.3517  0.1263
 1761SOL    HW1 5282   2.378   2.184   0.379  0.4148  0.0457  0.5096
 1761SOL    HW2 5283   2.337   2.121   0.510 -0.1881 -0.2374  0.1895
 1762SOL     OW 5284   3.380   2.632   0.699 -0.0448  0.4381 -0.3364
 1762SOL    HW1 5285   3.375   2.587   0.614  1.1372  2.2485 -1.4162
 1762SOL    HW2 5286   3.438   2.577   0.751 -0.3053 -0.3813 -0.8713
 1763SOL     OW 5287   2.163   0.269   0.154  0.5585 -0.5048 -0.3178
 1763SOL    HW1 5288   2.221   0.340   0.182 -1.6234  1.1708  0.2280
 1763SOL    HW2 5289   2.144   0.219   0.234 -1.2043  0.8967  0.2132
 1764SOL     OW 5290   2.524   3.654   1.530  0.2877  0.3216  0.3206
 1764SOL    HW1 5291   2.583   3.605   1.587  1.4760 -2.3048 -2.8021
 1764SOL    HW2 5292   2.436   3.627   1.556  0.7940 -0.7883  0.9189
 1765SOL     OW 5293   3.504   2.374   1.297 -0.3940 -0.1903  0.4671
 1765SOL    HW1 5294   3.584   2.391   1.347 -0.2146  2.2330 -0.4730
 1765SOL    HW2 5295   3.435   2.414   1.349 -0.2106  2.3302 -1.0081
 1766SOL     OW 5296   0.596   2.028   1.243 -0.9336 -0.1261 -0.2584
 1766SOL    HW1 5297   0.663   2.090   1.271  0.2408 -1.3716 -0.2085
 1766SOL    HW2 5298   0.514   2.065   1.275 -0.4966  2.2633 -1.6972
 1767SOL     OW 5299   0.417   2.935   1.207  0.1703 -0.3656  0.3309
 1767SOL    HW1 5300   0.447   2.932   1.116  1.9916 -0.5966  0.8990
 1767SOL    HW2 5301   0.333   2.981   1.203 -0.5612 -1.7288 -1.6433
 1768SOL     OW 5302   3.686   1.035   0.492  0.2774 -0.0850  0.4069
 1768SOL    HW1 5303   3.607   1.023   0.439 -0.8736  2.1186  1.4830
 1768SOL    HW2 5304   3.692   1.130   0.505  2.3838 -0.3045  1.4639
 1769SOL     OW 5305   1.638   2.655   2.146 -0.4947 -0.5552 -0.5226
 1769SOL    HW1 5306   1.692   2.656   2.067  0.2610  3.0505 -0.1457
 1769SOL    HW2 5307   1.667   2.579   2.195  2.5248 -0.1750 -1.5284
 1770SOL     OW 5308   0.356   3.926   1.817 -0.6152 -0.5037  0.2350
 1770SOL    HW1 5309   0.385   3.960   1.732  1.3577  0.3306  1.1775
 1770SOL    HW2 5310   0.274   3.972   1.835 -0.4967  0.1001 -0.7290
 1771SOL     OW 5311   2.367   1.128   1.380 -0.4058 -0.4434  0.3089
 1771SOL    HW1 5312   2.284   1.173   1.369  0.4461  0.6364 -2.4769
 1771SOL    HW2 5313   2.402   1.163   1.463 -1.8609  0.5191  0.5538
 1772SOL     OW 5314   2.054   2.464   3.836 -0.1552 -0.1123  0.6523
 1772SOL    HW1 5315   2.108   2.386   3.825 -0.3739 -0.2116  0.2338
 1772SOL    HW2 5316   2.101   2.532   3.787  0.3653  0.1820  1.5538
 1773SOL     OW 5317   0.918   2.061   3.660 -0.3398  0.0286 -0.2517
 1773SOL    HW1 5318   0.963   1.989   3.615 -0.0914 -0.3667  0.6130
 1773SOL    HW2 5319   0.832   2.065   3.618 -1.4646 -2.6552  1.5284
 1774SOL     OW 5320   3.011   3.090   2.115 -0.4432 -0.0514  0.3126
 1774SOL    HW1 5321   3.047   3.150   2.050  1.1093 -1.3582 -0.1135
 1774SOL    HW2 5322   3.012   3.139   2.197 -0.0599  0.7960 -0.1939
 1775SOL     OW 5323   0.412   0.976   3.042  0.2291 -0.2966 -0.7164
 1775SOL    HW1 5324   0.404   0.998   2.949 -0.8282 -0.9786 -0.7959
 1775SOL    HW2 5325   0.327   0.940   3.066  0.0484  1.0636  0.8575
 1776SOL     OW 5326   1.722   0.220   3.094 -0.1373  0.3462 -0.8766
 1776SOL    HW1 5327   1.636   0.225   3.052  0.3732  1.0674 -1.8727
 1776SOL    HW2 5328   1.709   0.259   3.180 -0.9687 -0.2076 -0.7430
 1777SOL     OW 5329   0.236   0.820   1.079 -0.6471  0.7251 -0.8580
 1777SOL    HW1 5330   0.309   0.851   1.133  1.2060 -0.9791 -2.2443
 1777SOL    HW2 5331   0.168   0.798   1.143 -0.3372  3.1666  0.4296
 1778SOL     OW 5332   1.157   3.085   1.191 -0.4200 -0.6322 -0.5866
 1778SOL    HW1 5333   1.165   3.010   1.131  0.4973 -1.0820  0.0816
 1778SOL    HW2 5334   1.087   3.060   1.251 -2.2331  0.3470 -2.1841
 1779SOL     OW 5335   3.962   1.908   2.558  0.2104  0.0017 -0.2749
 1779SOL    HW1 5336   4.042   1.926   2.608  0.3690  1.6989 -1.0332
 1779SOL    HW2 5337   3.904   1.981   2.579 -0.6193 -0.5108 -0.7499
 1780SOL     OW 5338   0.465   1.888   1.713 -0.1483  0.2445 -0.2460
 1780SOL    HW1 5339   0.384   1.838   1.716  0.7273 -1.3454 -1.2609
 1780SOL    HW2 5340   0.501   1.870   1.626  2.2635 -0.7539  0.8529
 1781SOL     OW 5341   0.882   3.204   2.571 -0.0734  0.0503  0.5521
 1781SOL    HW1 5342   0.971   3.236   2.586  0.2348  0.6545 -2.1744
 1781SOL    HW2 5343   0.883   3.113   2.602  1.3018  0.2178  1.0530
 1782SOL     OW 5344   2.620   3.695   3.189  0.4616 -0.0922  0.4690
 1782SOL    HW1 5345   2.605   3.636   3.263  0.3158  0.6811  1.0748
 1782SOL    HW2 5346   2.614   3.639   3.112  1.8505 -1.1648  1.0897
 1783SOL     OW 5347   1.588   2.166   2.703  0.3630  0.7109 -0.0705
 1783SOL    HW1 5348   1.599   2.104   2.775 -0.6136 -2.0111 -2.0897
 1783SOL    HW2 5349   1.495   2.185   2.702  0.4130  0.9360 -0.4868
 1784SOL     OW 5350   0.673   3.053   1.980 -0.1071  0.3133 -0.3727
 1784SOL    HW1 5351   0.731   3.020   1.911  0.7382  0.6446  0.1578
 1784SOL    HW2 5352   0.602   2.989   1.985 -0.1919  0.2959 -1.5563
 1785SOL     OW 5353   2.094   0.152   1.112  0.1229 -0.3216  0.1792
 1785SOL    HW1 5354   2.137   0.122   1.193 -0.6703  0.9400  1.1150
 1785SOL    HW2 5355   2.103   0.247   1.115 -1.4961 -0.1370 -0.3098
 1786SOL     OW 5356   1.909   1.316   0.645  0.8476 -0.4081 -0.0612
 1786SOL    HW1 5357   1.957   1.395   0.624  2.8000 -1.4594  0.2188
 1786SOL    HW2 5358   1.834   1.316   0.586 -0.6395  2.8678  1.6012
 1787SOL     OW 5359   1.349   2.316   2.743 -0.1426  0.4243  0.4731
 1787SOL    HW1 5360   1.273   2.350   2.696  1.0780  2.3788 -0.2550
 1787SOL    HW2 5361   1.324   2.319   2.836 -0.7730  1.5648  0.2816
 1788SOL     OW 5362   3.080   2.015   2.813  0.3875  0.1806 -0.3972
 1788SOL    HW1 5363   3.165   2.057   2.802  1.6777 -2.8343 -3.9705
 1788SOL    HW2 5364   3.026   2.049   2.741 -0.7784  0.5210  0.5983
 1789SOL     OW 5365   0.595   0.513   2.846  1.3868 -0.2825  0.2080
 1789SOL    HW1 5366   0.608   0.587   2.786  0.3433 -0.7438 -0.6234
 1789SOL    HW2 5367   0.634   0.438   2.801 -1.5354 -1.1645 -1.1818
 1790SOL     OW 5368   1.902   3.132   3.183  0.5813 -0.5258  0.7094
 1790SOL    HW1 5369   1.873   3.200   3.243 -0.7489 -0.8514  0.4530
 1790SOL    HW2 5370   1.991   3.159   3.158  0.1592  0.9911  0.7607
 1791SOL     OW 5371   2.550   0.318   3.774 -0.1808 -0.0263 -0.3672
 1791SOL    HW1 5372   2.614   0.323   3.703 -0.8405  0.4248 -0.9357
 1791SOL    HW2 5373   2.519   0.227   3.771  0.0525 -0.1063 -0.4191
 1792SOL     OW 5374   3.824   1.983   2.204 -0.6640  0.5543  0.4180
 1792SOL    HW1 5375   3.836   1.912   2.266  1.5873 -0.7548 -1.3691
 1792SOL    HW2 5376   3.734   2.012   2.218 -2.1993 -3.5460  0.3396
 1793SOL     OW 5377   2.348   2.906   3.351 -0.2197  0.0439 -0.4484
 1793SOL    HW1 5378   2.352   2.833   3.289  2.5730  0.6047 -1.0721
 1793SOL    HW2 5379   2.354   2.984   3.296 -1.5938  0.7238  0.3182
 1794SOL     OW 5380   0.572   2.502   0.592 -0.2916  0.2981 -0.3949
 1794SOL    HW1 5381   0.523   2.421   0.579 -0.4143  0.2393  0.3772
 1794SOL    HW2 5382   0.663   2.473   0.605 -0.8377 -0.1058  3.7043
 1795SOL     OW 5383   1.900   1.810   1.511 -0.3510  0.1889 -0.2646
 1795SOL    HW1 5384   1.826   1.851   1.467 -0.4213  1.3587  0.8913
 1795SOL    HW2 5385   1.972   1.818   1.448 -1.3086 -1.6338 -1.7073
 1796SOL     OW 5386   1.708   0.629   2.719 -0.2743  0.1707  0.6581
 1796SOL    HW1 5387   1.790   0.638   2.768  0.8073  2.7017 -1.3730
 1796SOL    HW2 5388   1.647   0.689   2.762 -0.7532 -0.8942  1.5025
 1797SOL     OW 5389   3.892   1.776   3.891 -0.3540 -0.9231 -0.4027
 1797SOL    HW1 5390   3.899   1.684   3.864 -0.2997 -0.7281 -1.0669
 1797SOL    HW2 5391   3.916   1.825   3.813 -2.0445 -0.3119 -0.5640
 1798SOL     OW 5392   1.891   3.776  -0.004  0.3522 -0.3043  0.7909
 1798SOL    HW1 5393   1.915   3.793   0.087 -0.0171 -1.4444  1.1183
 1798SOL    HW2 5394   1.797   3.755   0.000  0.3854 -0.5876  0.1788
 1799SOL     OW 5395   3.524   2.278   3.599  0.1048  0.4202  0.9013
 1799SOL    HW1 5396   3.581   2.274   3.676  0.3664 -0.6091  0.6786
 1799SOL    HW2 5397   3.479   2.362   3.606  3.4528  2.4999 -0.1918
 1800SOL     OW 5398   2.765   3.716   1.984 -0.1317 -0.4441  0.2690
 1800SOL    HW1 5399   2.850   3.700   2.027  0.3169  1.1251  0.0249
 1800SOL    HW2 5400   2.788   3.752   1.899 -1.0548 -0.1420  0.1415
 1801SOL     OW 5401   1.352   2.778   0.167  0.0531 -0.3814 -0.2521
 1801SOL    HW1 5402   1.290   2.706   0.172  0.2094 -0.4052  2.7156
 1801SOL    HW2 5403   1.298   2.854   0.144 -1.1952 -0.3852  2.3539
 1802SOL     OW 5404   2.774   2.862   3.069 -0.2837  0.1682  0.5724
 1802SOL    HW1 5405   2.710   2.895   3.133 -0.4719 -1.6571  1.3680
 1802SOL    HW2 5406   2.859   2.873   3.111 -0.4706 -1.8822  1.5950
 1803SOL     OW 5407   0.592   0.821   3.327  0.0420  0.4122  0.3249
 1803SOL    HW1 5408   0.516   0.845   3.274  0.0114  2.6231  1.2603
 1803SOL    HW2 5409   0.652   0.894   3.317  1.0266 -0.1896  1.5107
 1804SOL     OW 5410   3.328   0.443   0.400 -0.4049  0.7012  0.0072
 1804SOL    HW1 5411   3.317   0.481   0.487  0.9160  0.4725  0.2984
 1804SOL    HW2 5412   3.239   0.423   0.371 -0.9472  1.7745  0.8444
 1805SOL     OW 5413   1.265   3.877   0.030  0.1631  0.1336  0.3049
 1805SOL    HW1 5414   1.183   3.877  -0.020  0.4930  1.7012 -0.2684
 1805SOL    HW2 5415   1.288   3.784   0.038  0.3861 -0.1921 -2.9365
 1806SOL     OW 5416   3.043   3.226   3.377  0.3224  0.2274  0.0971
 1806SOL    HW1 5417   2.969   3.198   3.324  0.4730  1.9907 -1.1007
 1806SOL    HW2 5418   3.007   3.235   3.466  0.1279 -2.9727  0.4591
 1807SOL     OW 5419   0.927   3.202   3.509  0.5109 -0.1101 -0.1971
 1807SOL    HW1 5420   1.013   3.228   3.542  0.7987  0.5956 -1.4607
 1807SOL    HW2 5421   0.946   3.157   3.427 -0.3122 -0.2537 -0.3106
 1808SOL     OW 5422   1.848   3.143   2.240  0.5827  0.6479  0.4131
 1808SOL    HW1 5423   1.763   3.101   2.254  0.2989  0.8612 -0.6145
 1808SOL    HW2 5424   1.889   3.091   2.171  0.7760  1.2608  0.0576
 1809SOL     OW 5425   3.225   3.955   0.306 -0.4573 -0.1099  0.1519
 1809SOL    HW1 5426   3.289   4.026   0.301  0.9991 -1.2508  1.2336
 1809SOL    HW2 5427   3.244   3.900   0.230 -1.2479  0.3703 -0.4071
 1810SOL     OW 5428   2.367   3.987   0.055  0.2409 -0.3775 -0.0338
 1810SOL    HW1 5429   2.300   3.921   0.039 -0.8050 -0.3534  3.4272
 1810SOL    HW2 5430   2.351   4.053  -0.013 -2.9958 -0.6072  0.3412
 1811SOL     OW 5431   3.483   3.868   1.076 -0.2943 -0.3862  0.7359
 1811SOL    HW1 5432   3.550   3.880   1.008  0.1362 -2.1597  0.8076
 1811SOL    HW2 5433   3.426   3.945   1.067  0.5049  0.0742 -0.7603
 1812SOL     OW 5434   2.936   1.940   3.943  0.2074  0.3507 -0.3582
 1812SOL    HW1 5435   2.959   1.847   3.935  0.0475  0.3177 -0.4453
 1812SOL    HW2 5436   2.840   1.941   3.937  0.2716  0.8542 -4.2091
 1813SOL     OW 5437   0.936   3.733   3.576 -0.1018  0.1215 -0.2919
 1813SOL    HW1 5438   0.935   3.821   3.537  0.6054 -0.2540 -1.1883
 1813SOL    HW2 5439   0.880   3.681   3.518  2.4061 -0.8826 -1.9749
 1814SOL     OW 5440   1.621   2.950   3.249  0.1765 -0.5889 -0.2358
 1814SOL    HW1 5441   1.589   2.955   3.339 -0.8937 -1.3594 -0.5463
 1814SOL    HW2 5442   1.715   2.935   3.257  0.4824  1.4962  0.7195
 1815SOL     OW 5443   0.069   1.698   2.099  0.1417  0.7975 -0.1467
 1815SOL    HW1 5444   0.018   1.757   2.043 -1.8801 -0.5586  0.1637
 1815SOL    HW2 5445   0.120   1.645   2.038 -1.2367  0.0603 -0.7274
 1816SOL     OW 5446   3.806   1.896   0.617 -0.2198  0.3565 -0.6956
 1816SOL    HW1 5447   3.829   1.888   0.710  0.7314 -1.2389 -1.0323
 1816SOL    HW2 5448   3.794   1.990   0.604 -0.8037  0.5938  1.1231
 1817SOL     OW 5449   2.865   3.467   3.698 -0.1602 -0.1113 -0.5635
 1817SOL    HW1 5450   2.924   3.538   3.724  0.0941 -0.1441 -1.0409
 1817SOL    HW2 5451   2.802   3.460   3.770 -1.3956  1.9112 -1.3711
 1818SOL     OW 5452   0.695   1.811   1.022 -0.3548 -0.3172 -0.2246
 1818SOL    HW1 5453   0.712   1.726   0.979  1.7378  0.6558 -1.5062
 1818SOL    HW2 5454   0.686   1.789   1.115  1.6798 -1.8405 -0.3082
 1819SOL     OW 5455   2.000   0.852   1.474 -0.2212 -0.6681  0.2101
 1819SOL    HW1 5456   2.031   0.942   1.486  1.6198 -0.9340 -1.9557
 1819SOL    HW2 5457   1.972   0.848   1.383  0.3485 -2.4363  0.0747
 1820SOL     OW 5458   3.608   3.138   1.290 -0.2218 -0.4968  0.2108
 1820SOL    HW1 5459   3.680   3.199   1.306 -0.4306 -0.1551 -0.1319
 1820SOL    HW2 5460   3.553   3.182   1.224  1.6753 -2.6503 -3.1151
 1821SOL     OW 5461   2.505   0.044   0.264  0.1134  0.6001  0.5518
 1821SOL    HW1 5462   2.534  -0.047   0.261 -2.8692 -0.4941  1.4413
 1821SOL    HW2 5463   2.460   0.058   0.180 -0.1684  0.9607  0.7558
 1822SOL     OW 5464   3.276   3.957   0.840 -0.8653 -0.2741 -0.4350
 1822SOL    HW1 5465   3.326   3.987   0.764  2.3376  0.4981  1.7706
 1822SOL    HW2 5466   3.287   3.862   0.840 -0.0930 -0.1871 -0.4376
 1823SOL     OW 5467   0.776   3.044   1.707 -0.7422 -0.5122 -0.2256
 1823SOL    HW1 5468   0.869   3.045   1.684  0.0537  0.8611  2.6421
 1823SOL    HW2 5469   0.752   2.952   1.703  0.0889 -0.7139 -3.0649
 1824SOL     OW 5470   2.081   0.308   3.284  0.0355 -0.6008  0.1279
 1824SOL    HW1 5471   2.060   0.345   3.370 -0.6646 -0.4407 -0.1099
 1824SOL    HW2 5472   2.032   0.362   3.222  0.5827 -0.6811 -0.3825
 1825SOL     OW 5473   3.240   1.788   2.267 -0.8169  0.3656 -0.1573
 1825SOL    HW1 5474   3.256   1.826   2.180 -1.5563  0.4081 -0.2787
 1825SOL    HW2 5475   3.146   1.796   2.280 -0.7038  0.4034  0.6788
 1826SOL     OW 5476   0.272   3.367   2.224 -0.1301  0.1363 -0.3305
 1826SOL    HW1 5477   0.315   3.357   2.139  0.4727 -0.1811  0.0022
 1826SOL    HW2 5478   0.299   3.454   2.254  3.5153 -1.3827  1.5726
 1827SOL     OW 5479   2.749   1.449   0.753 -0.1642  0.4025  0.4365
 1827SOL    HW1 5480   2.759   1.524   0.694  2.0995 -0.8817 -0.9401
 1827SOL    HW2 5481   2.782   1.480   0.837  0.0928  1.1382  0.0713
 1828SOL     OW 5482   1.686   0.337   3.364 -0.1752  0.1047 -0.1260
 1828SOL    HW1 5483   1.715   0.424   3.340 -2.1256  1.0745  0.7291
 1828SOL    HW2 5484   1.748   0.308   3.431 -1.0041  2.0466  1.6031
 1829SOL     OW 5485   1.119   1.932   0.195 -0.1916 -0.3253 -0.1842
 1829SOL    HW1 5486   1.026   1.929   0.218 -0.0961  2.4095  0.8949
 1829SOL    HW2 5487   1.164   1.952   0.277  1.2210 -0.3004 -0.9309
 1830SOL     OW 5488   0.168   2.388   2.174 -0.9373 -0.3835  0.2571
 1830SOL    HW1 5489   0.223   2.328   2.123 -0.5137 -0.0603  0.3254
 1830SOL    HW2 5490   0.095   2.334   2.203 -1.8839 -0.2932 -1.7524
 1831SOL     OW 5491   0.194   2.268   1.737 -0.4974 -0.6690 -0.7391
 1831SOL    HW1 5492   0.286   2.259   1.714 -0.4081  0.1836 -0.7557
 1831SOL    HW2 5493   0.181   2.208   1.810  0.0739 -0.7933 -0.7362
 1832SOL     OW 5494   3.467   1.235   3.701 -0.2622  0.5689 -0.3573
 1832SOL    HW1 5495   3.514   1.311   3.737  0.8960  0.5791 -1.7871
 1832SOL    HW2 5496   3.481   1.241   3.607 -2.3024 -0.0385 -0.7423
 1833SOL     OW 5497   3.965   2.502   1.235  0.2380  0.2012 -0.6899
 1833SOL    HW1 5498   3.929   2.591   1.241  2.7455  1.3764 -1.6106
 1833SOL    HW2 5499   4.001   2.486   1.322 -1.0035 -0.3206 -0.2522
 1834SOL     OW 5500   1.925   1.475   3.764 -0.4375 -0.1473 -0.6088
 1834SOL    HW1 5501   1.910   1.565   3.734 -0.5853  0.6298  1.6386
 1834SOL    HW2 5502   2.003   1.446   3.716  2.5711  2.9258  1.9392
 1835SOL     OW 5503   3.627   3.489   2.497 -0.3633  0.4463  0.1333
 1835SOL    HW1 5504   3.592   3.400   2.485 -2.0441  1.2538 -1.5170
 1835SOL    HW2 5505   3.562   3.533   2.551 -1.3191  1.5632 -1.8073
 1836SOL     OW 5506   2.148   3.901   3.909  0.0929  1.1406 -0.4992
 1836SOL    HW1 5507   2.097   3.821   3.902  0.8716  0.6831 -1.0838
 1836SOL    HW2 5508   2.083   3.971   3.909 -0.5109  0.6204 -2.0097
 1837SOL     OW 5509   0.100   1.652   3.201 -0.0162 -0.4093 -0.0822
 1837SOL    HW1 5510   0.140   1.656   3.287  0.1327 -1.5928 -0.0817
 1837SOL    HW2 5511   0.140   1.576   3.158  0.1686  0.3601 -1.3285
 1838SOL     OW 5512   3.151   1.590   0.223  0.4896  0.1309 -0.4158
 1838SOL    HW1 5513   3.106   1.525   0.168 -0.7057  0.8764 -0.3545
 1838SOL    HW2 5514   3.095   1.599   0.300  0.1895  1.8066 -0.7930
 1839SOL     OW 5515   2.377   3.629   0.373  0.4344  0.1622  0.6398
 1839SOL    HW1 5516   2.320   3.703   0.394  0.1398  0.4194 -0.9538
 1839SOL    HW2 5517   2.395   3.637   0.280  1.1217 -1.2915  0.6046
 1840SOL     OW 5518   0.441   3.677   0.772  0.4563 -0.4493 -0.3998
 1840SOL    HW1 5519   0.372   3.706   0.712 -0.6122  2.0218  1.7939
 1840SOL    HW2 5520   0.406   3.598   0.812 -1.5914  1.1569  1.2108
 1841SOL     OW 5521   3.507   2.686   2.033  0.1101  0.6047 -0.3696
 1841SOL    HW1 5522   3.555   2.728   2.105 -0.9123  1.4627 -0.1692
 1841SOL    HW2 5523   3.575   2.640   1.984  0.9482  0.6643  0.6802
 1842SOL     OW 5524   2.886   3.735   3.178 -0.1079 -0.6619 -0.1215
 1842SOL    HW1 5525   2.894   3.768   3.267 -1.3100  0.7316 -0.5008
 1842SOL    HW2 5526   2.793   3.716   3.167 -0.1104 -0.0514 -1.3309
 1843SOL     OW 5527   0.730   2.742   0.130  0.1635 -0.1870 -0.2106
 1843SOL    HW1 5528   0.689   2.668   0.174 -1.4104  0.9626  0.3288
 1843SOL    HW2 5529   0.716   2.816   0.188  1.4180  0.6262 -0.8918
 1844SOL     OW 5530   2.792   0.049   2.728 -0.7418  0.2139  0.0599
 1844SOL    HW1 5531   2.784  -0.022   2.792  0.6170 -0.2782 -0.2768
 1844SOL    HW2 5532   2.702   0.079   2.713 -1.2495 -0.8714  0.8325
 1845SOL     OW 5533   2.192   2.229   3.026  0.5866 -0.0549 -0.4888
 1845SOL    HW1 5534   2.215   2.316   3.058 -0.4755  0.4679 -1.0926
 1845SOL    HW2 5535   2.182   2.175   3.105  1.9150  0.1881 -0.1452
 1846SOL     OW 5536   2.575   2.497   3.531  0.2175 -0.6916 -0.1423
 1846SOL    HW1 5537   2.535   2.570   3.579  2.5787 -0.9079  2.3900
 1846SOL    HW2 5538   2.537   2.419   3.570 -0.9767 -0.9174 -1.6422
 1847SOL     OW 5539   1.575   0.479   2.488 -0.1117 -0.3654 -0.3913
 1847SOL    HW1 5540   1.522   0.545   2.534  1.1106 -1.0489  2.2108
 1847SOL    HW2 5541   1.665   0.501   2.510  0.3413 -2.7749  0.4920
 1848SOL     OW 5542   2.530   0.013   2.918 -0.4781 -0.5331  0.0101
 1848SOL    HW1 5543   2.579   0.027   2.999  2.0913 -0.4990 -1.4669
 1848SOL    HW2 5544   2.441   0.042   2.939  0.0275 -0.7662  2.8708
 1849SOL     OW 5545   0.343   0.106   2.449  0.2862  1.0245  0.2641
 1849SOL    HW1 5546   0.414   0.042   2.453 -1.0734 -0.6614 -1.1957
 1849SOL    HW2 5547   0.282   0.080   2.518 -0.8611 -0.0707 -1.1084
 1850SOL     OW 5548   2.222   1.419   1.110 -0.5772 -0.1475 -0.8517
 1850SOL    HW1 5549   2.254   1.488   1.053 -0.0692 -1.4231 -2.1872
 1850SOL    HW2 5550   2.184   1.354   1.051 -1.4392 -0.8176  0.3786
 1851SOL     OW 5551   3.309   3.648   0.939  0.3224  0.1427  0.7743
 1851SOL    HW1 5552   3.331   3.596   1.016 -2.2501 -0.5814  1.1319
 1851SOL    HW2 5553   3.320   3.588   0.865 -0.7251 -0.3347  0.9870
 1852SOL     OW 5554   3.003   2.129   2.577  0.0211  0.4542  0.1023
 1852SOL    HW1 5555   2.944   2.058   2.553 -1.5785  1.4487  0.9297
 1852SOL    HW2 5556   3.046   2.154   2.495 -1.3301  0.2431 -0.6988
 1853SOL     OW 5557   3.270   0.638   0.131  0.7976 -0.0732 -0.0240
 1853SOL    HW1 5558   3.302   0.682   0.210  1.0586 -1.0772  0.4512
 1853SOL    HW2 5559   3.347   0.629   0.076  0.7636 -0.0073 -0.0815
 1854SOL     OW 5560   2.384   2.187   3.267 -0.3614  0.1683  0.1175
 1854SOL    HW1 5561   2.398   2.172   3.173  2.5880 -1.7671  0.7176
 1854SOL    HW2 5562   2.409   2.104   3.308 -4.2792 -0.0638  2.5432
 1855SOL     OW 5563   1.694   2.945   0.539 -0.8888 -0.2297 -1.1173
 1855SOL    HW1 5564   1.623   2.920   0.480 -3.3791  0.1457  1.5057
 1855SOL    HW2 5565   1.681   2.890   0.616  0.2262  1.5228  0.4001
 1856SOL     OW 5566   0.943   2.807   3.020 -0.3320 -0.0751  0.1035
 1856SOL    HW1 5567   0.868   2.777   2.968  0.5914 -1.3360 -0.5732
 1856SOL    HW2 5568   0.957   2.897   2.992 -1.5040  0.1385  0.1440
 1857SOL     OW 5569   3.597   1.479   1.377 -0.2845 -0.7067  0.2503
 1857SOL    HW1 5570   3.672   1.495   1.319 -0.1455 -1.0330  0.3346
 1857SOL    HW2 5571   3.590   1.383   1.380  0.1648 -0.7144  1.3424
 1858SOL     OW 5572   2.757   2.241   0.424 -0.0399 -0.0216  0.0193
 1858SOL    HW1 5573   2.814   2.272   0.353  0.3668 -0.7640  0.0076
 1858SOL    HW2 5574   2.707   2.318   0.450  1.6522  0.9212  0.6710
 1859SOL     OW 5575   2.153   3.755   1.953  0.7629 -0.2850 -0.3102
 1859SOL    HW1 5576   2.097   3.740   1.877  0.9709 -1.2629 -0.2815
 1859SOL    HW2 5577   2.148   3.849   1.968 -2.3686 -0.5043  0.8171
 1860SOL     OW 5578   3.756   1.483   1.883 -0.4726  0.4506 -0.0123
 1860SOL    HW1 5579   3.677   1.492   1.830 -2.2075 -2.2102  1.9167
 1860SOL    HW2 5580   3.733   1.522   1.968  1.5406  2.7144 -0.3659
 1861SOL     OW 5581   2.788   0.958   3.182 -0.0088 -0.0698  0.8148
 1861SOL    HW1 5582   2.708   1.009   3.198 -1.6200 -2.0201 -0.4773
 1861SOL    HW2 5583   2.825   0.945   3.269  0.5518  3.2426  1.2142
 1862SOL     OW 5584   3.547   0.116   3.483 -0.4590 -0.1968  0.5627
 1862SOL    HW1 5585   3.495   0.038   3.501 -1.1867  0.1818  0.1713
 1862SOL    HW2 5586   3.611   0.119   3.553  0.4787 -1.8985 -0.1746
 1863SOL     OW 5587   2.125   1.908   2.614 -0.0309 -0.6352 -0.4566
 1863SOL    HW1 5588   2.083   1.908   2.700 -2.9980 -0.6631 -1.7853
 1863SOL    HW2 5589   2.135   2.001   2.592 -2.1543 -0.5518 -1.2913
 1864SOL     OW 5590   3.517   3.336   3.012  0.5013  0.2485  0.4445
 1864SOL    HW1 5591   3.537   3.326   2.919  0.3974 -2.3575  0.6357
 1864SOL    HW2 5592   3.443   3.397   3.013 -0.6051 -0.9336 -1.3546
 1865SOL     OW 5593   2.016   0.874   0.689  0.1969 -0.7957  0.1819
 1865SOL    HW1 5594   1.943   0.920   0.730 -0.3016 -1.4720  0.0797
 1865SOL    HW2 5595   1.994   0.872   0.595 -0.1874 -1.9246  0.2851
 1866SOL     OW 5596   3.267   0.288   2.507 -0.3129  0.5362  0.3893
 1866SOL    HW1 5597   3.285   0.377   2.476  1.3100 -0.0621 -0.4634
 1866SOL    HW2 5598   3.189   0.262   2.459 -0.4759  1.2873  0.2255
 1867SOL     OW 5599   1.580   3.397   0.332  0.1023 -0.0490  0.3461
 1867SOL    HW1 5600   1.673   3.376   0.324 -0.1618 -0.8459 -1.2975
 1867SOL    HW2 5601   1.577   3.486   0.366  1.5905  1.1682 -2.3622
 1868SOL     OW 5602   0.993   0.427   1.699 -0.1363  0.3424  0.2182
 1868SOL    HW1 5603   0.924   0.362   1.713 -0.9843  1.3711  0.9730
 1868SOL    HW2 5604   1.028   0.407   1.612 -0.6570 -0.8565  0.2675
 1869SOL     OW 5605   0.731   2.141   3.273 -0.4247 -0.1906 -0.7060
 1869SOL    HW1 5606   0.673   2.066   3.286  0.3443 -0.6976 -0.0907
 1869SOL    HW2 5607   0.673   2.212   3.244 -1.4617 -0.4789  0.5689
 1870SOL     OW 5608   3.047   3.522   1.688  0.1361  0.1631 -0.3293
 1870SOL    HW1 5609   2.960   3.514   1.650  0.0708  0.4229 -0.2331
 1870SOL    HW2 5610   3.032   3.543   1.780  0.2910 -0.6280 -0.1094
 1871SOL     OW 5611   3.726   1.533   3.639  0.2881 -0.5319  0.0157
 1871SOL    HW1 5612   3.659   1.486   3.690  0.2571 -0.9986 -0.4477
 1871SOL    HW2 5613   3.800   1.539   3.699  0.6614 -2.0944 -0.2436
 1872SOL     OW 5614   3.966   1.221   2.039  0.2889 -0.4578  0.4693
 1872SOL    HW1 5615   3.925   1.248   2.122  0.5641 -1.1967  0.8526
 1872SOL    HW2 5616   4.060   1.230   2.055  0.3330 -0.2774  0.1199
 1873SOL     OW 5617   3.122   1.189   2.082 -0.7742  0.5143  0.2382
 1873SOL    HW1 5618   3.171   1.191   2.164  0.1726  0.9017 -0.3266
 1873SOL    HW2 5619   3.177   1.140   2.021 -0.0591  2.7139 -1.0045
 1874SOL     OW 5620   1.342   1.201   0.718  0.1299 -0.1966  0.0951
 1874SOL    HW1 5621   1.414   1.142   0.697  0.8887  0.7198  0.0309
 1874SOL    HW2 5622   1.330   1.253   0.638  0.4894  0.7462  0.6405
 1875SOL     OW 5623   0.553   0.810   0.974 -0.4319 -0.1533 -0.1005
 1875SOL    HW1 5624   0.620   0.780   1.036 -0.0795 -0.6462 -0.7026
 1875SOL    HW2 5625   0.499   0.871   1.024  1.2323  1.2667  0.0651
 1876SOL     OW 5626   0.149   3.482   0.365  0.2908 -0.1113 -0.2075
 1876SOL    HW1 5627   0.175   3.542   0.295  0.9115 -0.5756 -0.3850
 1876SOL    HW2 5628   0.230   3.436   0.389 -0.2535 -1.1978 -0.3863
 1877SOL     OW 5629   3.451   1.636   1.533 -0.1910 -0.1192  0.4243
 1877SOL    HW1 5630   3.369   1.589   1.547  1.1863 -2.7878  0.0788
 1877SOL    HW2 5631   3.491   1.592   1.458  1.2106  1.6785  0.0384
 1878SOL     OW 5632   3.628   3.773   2.968  0.7832 -0.2871 -0.0607
 1878SOL    HW1 5633   3.657   3.802   3.055 -0.7723 -1.4293  0.8813
 1878SOL    HW2 5634   3.558   3.711   2.986 -0.9934  0.9598 -2.1845
 1879SOL     OW 5635   1.455   2.949   1.702 -0.5082  0.1508  0.9040
 1879SOL    HW1 5636   1.375   2.984   1.662  1.7533  1.6506 -2.8999
 1879SOL    HW2 5637   1.444   2.854   1.699 -1.8897  0.3180 -0.2077
 1880SOL     OW 5638   3.031   0.590   0.287 -0.3879 -0.0710 -0.0625
 1880SOL    HW1 5639   3.095   0.610   0.355  1.1290  0.7097 -1.6495
 1880SOL    HW2 5640   3.078   0.603   0.204 -1.9412 -1.6781 -1.2840
 1881SOL     OW 5641   3.196   1.209   0.906 -0.2980 -0.5428 -0.0461
 1881SOL    HW1 5642   3.264   1.269   0.937 -0.6012 -0.3181  0.2070
 1881SOL    HW2 5643   3.164   1.166   0.986 -0.6646 -0.4124 -0.1169
 1882SOL     OW 5644   0.135   3.671   0.679 -0.7395  0.5211 -0.2650
 1882SOL    HW1 5645   0.116   3.617   0.755 -0.7571 -0.4480 -0.9370
 1882SOL    HW2 5646   0.114   3.615   0.604  1.0852  0.7460 -1.0120
 1883SOL     OW 5647   0.265   0.707   1.492 -0.3850 -0.3303 -0.1010
 1883SOL    HW1 5648   0.239   0.797   1.473 -0.9195 -0.2767  0.7971
 1883SOL    HW2 5649   0.185   0.656   1.479 -0.0151 -0.7223 -0.8791
 1884SOL     OW 5650   3.152   1.012   1.096  0.5694 -0.1792 -0.0661
 1884SOL    HW1 5651   3.246   0.995   1.105  0.2472 -2.9452 -1.1479
 1884SOL    HW2 5652   3.118   0.936   1.050 -2.2298  0.7811  0.2422
 1885SOL     OW 5653   3.745   2.669   2.775 -1.0235  0.2469 -0.5677
 1885SOL    HW1 5654   3.754   2.765   2.778  0.3330  0.1800  3.2724
 1885SOL    HW2 5655   3.650   2.655   2.775 -1.2546  1.6082 -0.7439
 1886SOL     OW 5656   1.018   1.056   1.639  0.1002 -0.4217 -0.3359
 1886SOL    HW1 5657   1.098   1.014   1.671  1.0475  0.4630 -1.4550
 1886SOL    HW2 5658   0.959   1.056   1.714  1.6327  0.0990  0.9111
 1887SOL     OW 5659   2.616   3.331   3.693 -0.6102 -0.3472  0.6019
 1887SOL    HW1 5660   2.637   3.313   3.785  0.6985  0.1598  0.4211
 1887SOL    HW2 5661   2.694   3.373   3.658 -0.8130 -1.1619 -0.9418
 1888SOL     OW 5662   0.700   0.316   3.906 -0.7796  0.2530 -0.5815
 1888SOL    HW1 5663   0.753   0.304   3.985 -2.5516  0.1959  0.6610
 1888SOL    HW2 5664   0.654   0.233   3.895 -1.1000  0.5100 -1.2568
 1889SOL     OW 5665   0.150   1.016   0.927  0.2639 -0.0816 -0.0422
 1889SOL    HW1 5666   0.174   0.942   0.982  1.8553  0.7307  0.4274
 1889SOL    HW2 5667   0.066   1.045   0.962 -0.8926 -2.2216 -0.8652
 1890SOL     OW 5668   3.936   0.555   2.128 -0.4420 -0.2526 -0.0967
 1890SOL    HW1 5669   3.938   0.594   2.216 -1.4264  0.6068 -0.4403
 1890SOL    HW2 5670   4.026   0.528   2.112 -0.0188  0.6203  0.7248
 1891SOL     OW 5671   3.912   2.466   2.860 -0.1680 -0.1480  0.0943
 1891SOL    HW1 5672   3.975   2.528   2.895  0.7880 -0.3459 -1.2062
 1891SOL    HW2 5673   3.839   2.521   2.830  1.3706  0.6396 -2.5924
 1892SOL     OW 5674   1.337   1.444   2.048  0.2609  0.2390 -0.1076
 1892SOL    HW1 5675   1.422   1.414   2.015  0.2065  0.6742 -0.6555
 1892SOL    HW2 5676   1.274   1.382   2.011  0.1951  0.7523 -0.8811
 1893SOL     OW 5677   1.046   3.004   3.992  0.8336  0.0054  0.1053
 1893SOL    HW1 5678   1.037   2.937   4.060  1.3841  1.5315  1.7833
 1893SOL    HW2 5679   1.100   2.963   3.925 -1.3637 -2.2381 -0.4206
 1894SOL     OW 5680   2.496   3.916   1.615  0.4105  0.1779 -0.0112
 1894SOL    HW1 5681   2.581   3.959   1.614 -0.6694  2.4323 -0.7197
 1894SOL    HW2 5682   2.517   3.823   1.625  3.0318  0.4155 -2.0718
 1895SOL     OW 5683   3.505   3.306   2.231  0.3874  0.2527 -0.2798
 1895SOL    HW1 5684   3.556   3.296   2.312  0.9014  0.2119 -0.6102
 1895SOL    HW2 5685   3.435   3.241   2.239  0.3117  0.3908  0.2286
 1896SOL     OW 5686   2.190   1.581   2.718  0.2634 -0.1216  0.3097
 1896SOL    HW1 5687   2.173   1.488   2.733 -0.2631 -0.0263  0.3128
 1896SOL    HW2 5688   2.104   1.619   2.701  0.6184  0.1350 -1.0061
 1897SOL     OW 5689   0.410   0.614   1.932 -0.4981 -0.4001  0.3676
 1897SOL    HW1 5690   0.396   0.680   1.999 -0.4975 -0.3092  0.2775
 1897SOL    HW2 5691   0.488   0.566   1.961  0.7090  0.9165 -0.5886
 1898SOL     OW 5692   0.405   0.859   2.641 -0.1397 -1.1215  0.3768
 1898SOL    HW1 5693   0.395   0.844   2.547  2.2112 -0.9380  0.0336
 1898SOL    HW2 5694   0.404   0.954   2.651 -2.3101 -1.1389  0.8524
 1899SOL     OW 5695   0.391   3.798   3.887 -0.2126 -0.1194 -0.1101
 1899SOL    HW1 5696   0.451   3.831   3.820 -0.9090 -0.3271 -0.8576
 1899SOL    HW2 5697   0.307   3.837   3.864  0.1453  2.8803  2.8090
 1900SOL     OW 5698   0.307   2.792   1.801 -1.1246 -0.4234 -0.2493
 1900SOL    HW1 5699   0.382   2.735   1.785 -0.5992  0.2236 -0.1478
 1900SOL    HW2 5700   0.337   2.852   1.869 -1.6379  0.0243 -0.4100
 1901SOL     OW 5701   0.980   0.708   3.773  0.1020 -0.4275 -0.2509
 1901SOL    HW1 5702   1.074   0.689   3.769  0.4057  0.8015  0.4100
 1901SOL    HW2 5703   0.950   0.701   3.683  0.5778 -1.9297 -0.3244
 1902SOL     OW 5704   3.401   1.896   3.085 -0.5109  0.0865  0.0637
 1902SOL    HW1 5705   3.483   1.938   3.111  0.5475 -2.4786  1.2288
 1902SOL    HW2 5706   3.417   1.862   2.997 -0.2875 -0.4360  0.3009
 1903SOL     OW 5707   3.918   3.333   2.054  0.5768  0.2324 -0.1205
 1903SOL    HW1 5708   3.897   3.262   2.115 -0.1836  0.8164  0.3184
 1903SOL    HW2 5709   3.942   3.407   2.110 -1.5560  1.2426 -0.4069
 1904SOL     OW 5710   1.650   3.864   2.803 -0.4601  0.0147  0.3938
 1904SOL    HW1 5711   1.594   3.822   2.737 -1.6858  1.5554  0.3914
 1904SOL    HW2 5712   1.588   3.904   2.864  0.6187  1.9091  0.3043
 1905SOL     OW 5713   3.508   1.339   3.455  0.3037 -0.8265  0.8454
 1905SOL    HW1 5714   3.502   1.418   3.401 -2.7431 -0.2875  1.7764
 1905SOL    HW2 5715   3.598   1.309   3.444  1.3250  2.2664 -0.2377
 1906SOL     OW 5716   3.964   1.242   1.487 -0.0005 -0.9034 -0.1526
 1906SOL    HW1 5717   3.992   1.321   1.442  1.9058 -0.6619  1.3664
 1906SOL    HW2 5718   3.876   1.263   1.519 -0.0736  0.0800 -0.9392
 1907SOL     OW 5719   0.970   2.609   1.855 -0.3490  0.2912  0.0555
 1907SOL    HW1 5720   0.919   2.535   1.824 -0.4474  0.6411 -0.6389
 1907SOL    HW2 5721   0.933   2.630   1.940 -0.6864 -0.1069  0.0097
 1908SOL     OW 5722   2.558   1.830   3.788 -0.3556  0.0030 -0.2412
 1908SOL    HW1 5723   2.514   1.754   3.825 -1.6158  0.9309  0.2086
 1908SOL    HW2 5724   2.494   1.870   3.729 -0.6970  2.1794  1.4849
 1909SOL     OW 5725   3.448   0.486   3.101 -0.5776 -0.3032 -0.9421
 1909SOL    HW1 5726   3.516   0.428   3.069  1.2852  1.7805 -0.9524
 1909SOL    HW2 5727   3.429   0.454   3.190 -2.2198 -3.0259 -2.1238
 1910SOL     OW 5728   0.095   0.262   0.530  0.8472  0.2806 -0.1703
 1910SOL    HW1 5729   0.179   0.310   0.526  1.0455  0.0706  1.0414
 1910SOL    HW2 5730   0.047   0.305   0.601  0.8797 -1.0647  0.6955
 1911SOL     OW 5731   2.070   3.478   2.821  0.2122  0.0323  0.1229
 1911SOL    HW1 5732   2.027   3.561   2.800 -0.3707 -0.5184 -0.9333
 1911SOL    HW2 5733   2.088   3.483   2.915 -1.4267  0.6224  0.4324
 1912SOL     OW 5734   2.269   0.441   2.132  0.4859 -0.1858 -0.7223
 1912SOL    HW1 5735   2.216   0.455   2.211  0.9230 -0.2902 -0.4079
 1912SOL    HW2 5736   2.267   0.525   2.086  2.1645  0.6313  0.5787
 1913SOL     OW 5737   1.797   0.292   1.041 -0.2368  0.2790  0.1096
 1913SOL    HW1 5738   1.828   0.204   1.020  0.4286  0.8924 -1.6430
 1913SOL    HW2 5739   1.827   0.308   1.130 -0.6872 -1.3895  0.5909
 1914SOL     OW 5740   0.134   3.899   3.782 -0.5505 -0.2152  0.3023
 1914SOL    HW1 5741   0.095   3.929   3.865  0.4405  2.6505 -0.1479
 1914SOL    HW2 5742   0.087   3.948   3.715 -0.3655 -1.4340 -0.7506
 1915SOL     OW 5743   1.370   1.566   1.124  0.5339  0.4865  0.0462
 1915SOL    HW1 5744   1.282   1.532   1.140  0.3080  1.2975  0.6005
 1915SOL    HW2 5745   1.417   1.494   1.083 -0.3354 -0.0181 -0.0808
 1916SOL     OW 5746   2.087   1.238   2.972  0.5639 -0.0590 -0.0236
 1916SOL    HW1 5747   2.023   1.223   2.902 -1.4761  3.7957  0.7241
 1916SOL    HW2 5748   2.169   1.254   2.926 -0.6389  1.9981 -1.6398
 1917SOL     OW 5749   2.013   1.795   1.183  0.3251 -0.5680 -0.4529
 1917SOL    HW1 5750   1.995   1.720   1.241  2.0344 -1.2283 -0.7118
 1917SOL    HW2 5751   1.964   1.775   1.103 -3.3309  1.1017  1.1667
 1918SOL     OW 5752   0.369   1.145   0.213 -0.0593 -0.9089 -0.3673
 1918SOL    HW1 5753   0.294   1.086   0.224 -0.7010  0.0343  0.4582
 1918SOL    HW2 5754   0.431   1.094   0.161 -1.4456 -1.5511 -1.4766
 1919SOL     OW 5755   1.208   2.960   3.741 -0.1932 -0.1116 -0.0875
 1919SOL    HW1 5756   1.221   2.949   3.647 -0.6958  0.6594 -0.2631
 1919SOL    HW2 5757   1.247   3.045   3.760  1.8638 -1.1974  0.8349
 1920SOL     OW 5758   2.686   0.745   1.528 -0.5818  0.4812  0.0622
 1920SOL    HW1 5759   2.690   0.840   1.543  2.5859  0.3887  0.3615
 1920SOL    HW2 5760   2.676   0.737   1.433  0.3370  1.1226 -0.1004
 1921SOL     OW 5761   2.531   0.668   0.883  0.1726 -0.0477  0.1730
 1921SOL    HW1 5762   2.563   0.758   0.888 -1.0892  0.5403 -1.5113
 1921SOL    HW2 5763   2.610   0.614   0.877  0.9032  1.0672 -0.4821
 1922SOL     OW 5764   1.510   1.365   2.410 -0.0024  0.1084 -0.0457
 1922SOL    HW1 5765   1.426   1.358   2.454  0.2072 -0.1486  0.3251
 1922SOL    HW2 5766   1.541   1.454   2.430 -0.5013  0.4548 -0.7724
 1923SOL     OW 5767   3.033   0.250   0.379  0.2875 -0.3307  0.6257
 1923SOL    HW1 5768   2.971   0.304   0.330 -1.0918 -0.1589  2.4552
 1923SOL    HW2 5769   3.059   0.181   0.318 -1.7942 -0.4569 -0.1927
 1924SOL     OW 5770   3.168   0.949   0.733  0.8634  0.1461 -0.1635
 1924SOL    HW1 5771   3.188   1.038   0.762 -0.0505  0.2950  0.0507
 1924SOL    HW2 5772   3.100   0.961   0.666  3.2030 -0.1435 -2.7835
 1925SOL     OW 5773   0.825   3.511   3.175 -0.3345 -0.3362  0.5766
 1925SOL    HW1 5774   0.804   3.442   3.239  0.9388 -0.7122  0.6175
 1925SOL    HW2 5775   0.860   3.464   3.099 -2.6260  0.0364 -0.7983
 1926SOL     OW 5776   3.516   3.023   2.975  0.6420  0.1447  0.6488
 1926SOL    HW1 5777   3.444   3.037   3.035  0.4496 -1.2803  0.7790
 1926SOL    HW2 5778   3.533   3.109   2.937 -1.3032  0.4441  0.3997
 1927SOL     OW 5779   1.328   1.237   2.811  0.6422  0.2282  0.2318
 1927SOL    HW1 5780   1.268   1.203   2.877  0.8134  0.7229  0.6594
 1927SOL    HW2 5781   1.286   1.317   2.780  0.6055  0.0417 -0.1981
 1928SOL     OW 5782   1.431   3.675   0.830  0.2888  0.0113  0.2440
 1928SOL    HW1 5783   1.386   3.669   0.745 -0.4602 -2.0130  0.7166
 1928SOL    HW2 5784   1.360   3.692   0.893  0.5695 -0.4322  0.6826
 1929SOL     OW 5785   1.435   2.251   3.842 -0.7415  0.1902 -0.5006
 1929SOL    HW1 5786   1.433   2.339   3.805  1.4457  0.8250  0.6765
 1929SOL    HW2 5787   1.509   2.252   3.902 -0.7945 -2.3979 -0.2522
 1930SOL     OW 5788   1.479   3.250   0.137 -0.4886 -0.0753 -0.1153
 1930SOL    HW1 5789   1.527   3.297   0.205 -0.9882 -0.2769  0.3859
 1930SOL    HW2 5790   1.480   3.309   0.061  1.6285 -0.6026 -0.5414
 1931SOL     OW 5791   3.704   1.428   3.184  0.7114  0.2882  0.2492
 1931SOL    HW1 5792   3.696   1.512   3.228  1.8088  1.4209 -1.6109
 1931SOL    HW2 5793   3.784   1.389   3.221 -0.4877 -0.5876  2.0544
 1932SOL     OW 5794   3.574   3.230   3.552  0.4109  0.1719  0.1955
 1932SOL    HW1 5795   3.660   3.257   3.518  1.2519 -1.1319  1.1883
 1932SOL    HW2 5796   3.572   3.135   3.539 -0.2261 -0.0205  1.5805
 1933SOL     OW 5797   3.324   1.141   2.268  0.0209  0.1283  0.4970
 1933SOL    HW1 5798   3.362   1.191   2.340 -0.3830  1.8250 -0.4074
 1933SOL    HW2 5799   3.279   1.067   2.310 -0.4655  1.2464  2.0112
 1934SOL     OW 5800   3.595   2.266   2.741  0.6317  0.3119  0.0984
 1934SOL    HW1 5801   3.634   2.331   2.800  0.6366 -0.0172  0.4641
 1934SOL    HW2 5802   3.625   2.182   2.775  1.3515  0.1482 -0.8986
 1935SOL     OW 5803   1.487   1.379   0.066  0.3617  0.7640  0.5988
 1935SOL    HW1 5804   1.583   1.377   0.059  0.3466  2.2005 -0.7049
 1935SOL    HW2 5805   1.468   1.465   0.103 -0.3985 -0.2230  2.6388
 1936SOL     OW 5806   2.281   1.689   1.286 -0.6394 -0.2795 -0.7860
 1936SOL    HW1 5807   2.291   1.673   1.192 -1.6870 -1.2326 -0.7640
 1936SOL    HW2 5808   2.191   1.660   1.305 -0.1179 -1.0343  0.6954
 1937SOL     OW 5809   2.761   0.003   1.987  0.1464  0.3876  0.2959
 1937SOL    HW1 5810   2.725  -0.045   2.061  1.7902 -0.7472  0.4005
 1937SOL    HW2 5811   2.810   0.076   2.026  0.3803  0.2332  0.2913
 1938SOL     OW 5812   0.526   1.144   3.831 -0.5542  0.2195 -0.1513
 1938SOL    HW1 5813   0.472   1.209   3.787 -2.1697 -1.4714 -0.7814
 1938SOL    HW2 5814   0.544   1.077   3.765  1.4902  0.2335  0.3339
 1939SOL     OW 5815   3.012   0.403   0.007  0.3344  0.4251  0.3984
 1939SOL    HW1 5816   3.052   0.326   0.048  0.4746  1.0634  1.4990
 1939SOL    HW2 5817   3.086   0.453  -0.028  0.1112 -1.3095 -2.9717
 1940SOL     OW 5818   3.063   0.178   3.774  0.0392  0.5606 -0.6469
 1940SOL    HW1 5819   3.082   0.262   3.815 -1.1966  0.2762  0.5978
 1940SOL    HW2 5820   2.969   0.166   3.787 -0.3258  0.2187 -3.2046
 1941SOL     OW 5821   3.076   2.767   3.313 -0.0142 -0.3099 -0.7413
 1941SOL    HW1 5822   3.121   2.694   3.357  2.9758  1.5036 -0.5105
 1941SOL    HW2 5823   3.019   2.804   3.381  0.5914 -0.7295  0.0165
 1942SOL     OW 5824   2.684   2.854   2.798 -0.0196  0.4061 -0.2215
 1942SOL    HW1 5825   2.720   2.871   2.885 -0.4729  1.2335 -0.1801
 1942SOL    HW2 5826   2.756   2.814   2.749  0.4871  0.6710  0.2920
 1943SOL     OW 5827   2.641   1.511   0.413  0.3888 -0.1822 -1.5298
 1943SOL    HW1 5828   2.573   1.562   0.368  1.6477  3.0385 -0.0743
 1943SOL    HW2 5829   2.627   1.528   0.506 -0.8185 -4.9524 -0.5202
 1944SOL     OW 5830   1.192   1.300   0.202  0.0579 -0.1797  0.3490
 1944SOL    HW1 5831   1.120   1.352   0.167  0.1569  0.7310  1.4329
 1944SOL    HW2 5832   1.260   1.306   0.135 -0.4429 -0.0732 -0.1593
 1945SOL     OW 5833   2.855   2.471   1.141 -0.3604 -0.0269 -0.1426
 1945SOL    HW1 5834   2.852   2.388   1.188  0.6233 -0.3168 -0.5659
 1945SOL    HW2 5835   2.903   2.451   1.061 -2.6409  0.2783 -1.6653
 1946SOL     OW 5836   3.289   1.043   2.911  1.1224 -0.3050  0.2546
 1946SOL    HW1 5837   3.304   1.136   2.928 -2.1152  0.4675 -0.6140
 1946SOL    HW2 5838   3.283   1.004   2.998  1.0690  0.5728  0.6560
 1947SOL     OW 5839   1.398   3.303   2.503  0.1082 -0.1892  0.0457
 1947SOL    HW1 5840   1.451   3.383   2.497  1.2089 -0.8065  1.1218
 1947SOL    HW2 5841   1.448   3.246   2.561 -1.1787 -1.2617  0.1335
 1948SOL     OW 5842   3.466   0.057   1.384 -0.4789 -0.1386 -0.0972
 1948SOL    HW1 5843   3.460   0.110   1.464 -3.0388  3.4742 -2.3748
 1948SOL    HW2 5844   3.551   0.079   1.347 -0.1294 -0.2632  0.6093
 1949SOL     OW 5845   0.268   3.910   2.622  0.0381  0.2892  0.8101
 1949SOL    HW1 5846   0.314   3.832   2.592  0.2496  0.3804  0.8979
 1949SOL    HW2 5847   0.335   3.962   2.666  0.3161  1.3596 -0.7986
 1950SOL     OW 5848   2.429   0.192   1.591 -0.5048 -0.2812 -0.2778
 1950SOL    HW1 5849   2.339   0.167   1.610 -0.5210 -2.1572 -2.4370
 1950SOL    HW2 5850   2.480   0.152   1.662 -1.2215 -0.3988  0.1820
 1951SOL     OW 5851   0.526   0.993   1.661  0.3205  0.4477 -0.0287
 1951SOL    HW1 5852   0.511   1.032   1.574  2.4806 -0.6956 -0.9737
 1951SOL    HW2 5853   0.584   0.919   1.645 -0.2526 -0.5780  2.2683
 1952SOL     OW 5854   3.677   1.191   1.438 -0.3727  0.0070  0.4591
 1952SOL    HW1 5855   3.616   1.139   1.386 -1.2881  0.1459  1.3736
 1952SOL    HW2 5856   3.636   1.198   1.524 -0.3903  2.3772  0.3312
 1953SOL     OW 5857   3.287   0.710   1.535 -0.3065 -0.2194  0.0554
 1953SOL    HW1 5858   3.299   0.737   1.444  2.1382  1.0422  0.6868
 1953SOL    HW2 5859   3.215   0.765   1.566 -1.1252 -0.6086 -1.0382
 1954SOL     OW 5860   3.254   1.952   1.037  0.2532 -0.3309 -0.6379
 1954SOL    HW1 5861   3.333   1.948   0.983 -0.2667  1.4556 -1.6361
 1954SOL    HW2 5862   3.223   2.042   1.027 -1.0771 -0.5656  0.9476
 1955SOL     OW 5863   0.726   1.782   0.737  0.0896  0.3371  0.7607
 1955SOL    HW1 5864   0.656   1.777   0.671  2.3508  2.3364 -2.0856
 1955SOL    HW2 5865   0.712   1.866   0.780  1.4531  1.5372 -0.9499
 1956SOL     OW 5866   3.615   1.170   0.802 -0.1226  0.6450 -0.7484
 1956SOL    HW1 5867   3.573   1.222   0.733 -2.4291  0.7811  0.6525
 1956SOL    HW2 5868   3.584   1.080   0.786  0.1428  0.5069 -0.4930
 1957SOL     OW 5869   3.535   3.384   0.165 -0.5088 -0.6144 -0.0095
 1957SOL    HW1 5870   3.580   3.310   0.206  1.4260  0.7080  0.4117
 1957SOL    HW2 5871   3.443   3.371   0.186 -0.0916 -2.3438  0.9301
 1958SOL     OW 5872   1.341   0.842   0.817 -0.4434  0.2912 -0.3667
 1958SOL    HW1 5873   1.323   0.783   0.744  2.7640  0.0965 -1.1544
 1958SOL    HW2 5874   1.426   0.882   0.795  0.1078  1.0833  2.7340
 1959SOL     OW 5875   0.382   1.761   0.861 -0.3720  0.0698  0.1132
 1959SOL    HW1 5876   0.361   1.813   0.783  0.1955 -0.3686 -0.3456
 1959SOL    HW2 5877   0.387   1.825   0.932  0.2242  0.6476 -0.4274
 1960SOL     OW 5878   3.394   1.863  -0.010 -0.0425  0.8515  0.0462
 1960SOL    HW1 5879   3.309   1.903  -0.029 -0.2684  0.5471  0.4041
 1960SOL    HW2 5880   3.387   1.836   0.081  0.0169 -0.2332 -0.2624
 1961SOL     OW 5881   0.561   2.862   1.415 -0.6217 -0.2537  0.8757
 1961SOL    HW1 5882   0.654   2.883   1.423 -0.3070 -1.2421  0.0491
 1961SOL    HW2 5883   0.537   2.889   1.326 -1.2316  0.3390  1.2080
 1962SOL     OW 5884   2.931   1.598   2.044  0.0889  0.2696  1.0764
 1962SOL    HW1 5885   2.844   1.623   2.012 -0.4951 -0.7213  1.8591
 1962SOL    HW2 5886   2.991   1.638   1.981 -0.9767 -0.3492 -0.3798
 1963SOL     OW 5887   3.268   1.016   1.928 -0.1500 -0.3643  0.0737
 1963SOL    HW1 5888   3.235   1.065   1.852 -1.5764 -1.4425 -0.0562
 1963SOL    HW2 5889   3.298   0.934   1.891 -0.3146 -0.6635  0.5974
 1964SOL     OW 5890   2.394   3.472   3.050  0.2680  0.4718 -0.6814
 1964SOL    HW1 5891   2.301   3.483   3.070 -0.0925 -2.0679 -0.6638
 1964SOL    HW2 5892   2.433   3.444   3.132  0.3414 -1.8320 -1.4286
 1965SOL     OW 5893   1.680   1.929   3.924  0.3345  0.8181 -0.6955
 1965SOL    HW1 5894   1.699   2.008   3.973  0.0227  2.1538 -2.6064
 1965SOL    HW2 5895   1.584   1.923   3.924  0.3712  0.1998 -0.1990
 1966SOL     OW 5896   3.225   1.157   1.706 -0.0424 -0.5797  0.5230
 1966SOL    HW1 5897   3.204   1.116   1.623  0.5082 -0.9315  0.5475
 1966SOL    HW2 5898   3.171   1.236   1.709 -0.2406 -0.6904 -0.0574
 1967SOL     OW 5899   0.809   3.846   2.971  0.1247 -0.0478 -0.5830
 1967SOL    HW1 5900   0.866   3.781   2.931  1.3626 -0.1487  1.2663
 1967SOL    HW2 5901   0.868   3.912   3.007 -1.0092  0.8407 -0.2667
 1968SOL     OW 5902   0.234   2.424   3.544  0.1277  0.1677 -0.0809
 1968SOL    HW1 5903   0.287   2.429   3.464 -1.4121 -0.2316 -1.1558
 1968SOL    HW2 5904   0.167   2.491   3.533 -1.4707 -1.3747 -0.1930
 1969SOL     OW 5905   2.477   3.508   1.233 -0.7515 -0.7035 -0.4242
 1969SOL    HW1 5906   2.391   3.508   1.277  0.1320 -0.3727  1.4166
 1969SOL    HW2 5907   2.484   3.595   1.194 -0.6733 -0.1900  0.6893
 1970SOL     OW 5908   0.510   2.729   2.403 -0.9829 -0.6062 -0.6434
 1970SOL    HW1 5909   0.543   2.818   2.393 -0.5520 -0.8868 -1.9548
 1970SOL    HW2 5910   0.436   2.724   2.343 -0.9776 -1.1458 -0.6085
 1971SOL     OW 5911   0.296   1.051   3.315  0.1064  0.1517  0.1164
 1971SOL    HW1 5912   0.281   0.966   3.274  2.3079 -0.0865 -0.3231
 1971SOL    HW2 5913   0.338   1.104   3.247 -0.8320  1.4694  0.5231
 1972SOL     OW 5914   2.327   2.231   2.548 -0.1802 -0.1549 -0.1271
 1972SOL    HW1 5915   2.333   2.313   2.598  1.8935 -0.1002 -0.4033
 1972SOL    HW2 5916   2.341   2.163   2.613 -0.9435 -0.2694 -0.0689
 1973SOL     OW 5917   0.750   1.656   2.356 -0.0280 -0.5532 -0.0143
 1973SOL    HW1 5918   0.778   1.637   2.266  2.7116 -0.5385  0.7360
 1973SOL    HW2 5919   0.696   1.734   2.348  0.7869 -0.0985 -1.5959
 1974SOL     OW 5920   1.282   3.713   1.954  0.3649 -0.2287 -0.4932
 1974SOL    HW1 5921   1.250   3.632   1.914  1.1989 -0.9233  0.2140
 1974SOL    HW2 5922   1.373   3.694   1.978  1.0764  1.4094 -1.6594
 1975SOL     OW 5923   2.275   2.476   1.183  0.4908  0.3940  0.0048
 1975SOL    HW1 5924   2.362   2.504   1.212  1.6180 -0.4426 -2.2528
 1975SOL    HW2 5925   2.221   2.554   1.188  2.1445  1.6920 -1.1621
 1976SOL     OW 5926   0.689   0.775   3.038 -0.8036  0.4114  0.3586
 1976SOL    HW1 5927   0.603   0.761   2.999 -0.4442  2.5001 -1.4020
 1976SOL    HW2 5928   0.682   0.738   3.126 -3.7660  1.2311  0.5700
 1977SOL     OW 5929   0.310   1.191   1.303 -0.4151  0.1924 -0.1344
 1977SOL    HW1 5930   0.254   1.244   1.247  0.3706  1.2422  0.0381
 1977SOL    HW2 5931   0.333   1.248   1.377  2.6359  0.6452 -1.2667
 1978SOL     OW 5932   0.565   0.552   3.895 -0.2620  0.8184  0.1660
 1978SOL    HW1 5933   0.644   0.600   3.921  0.2841  0.0544 -0.0544
 1978SOL    HW2 5934   0.586   0.460   3.911 -0.8277  0.5404 -0.6115
 1979SOL     OW 5935   0.131   2.970   3.196 -0.7371 -0.1300  0.1072
 1979SOL    HW1 5936   0.222   2.989   3.173 -0.5728  0.2148  1.0086
 1979SOL    HW2 5937   0.133   2.949   3.289 -1.3637 -1.6461 -0.1970
 1980SOL     OW 5938   3.654   0.339   1.473  0.0011  0.9387 -0.0153
 1980SOL    HW1 5939   3.646   0.339   1.568 -0.7458 -1.2497 -0.0351
 1980SOL    HW2 5940   3.608   0.419   1.445  0.9611  2.0587  1.4615
 1981SOL     OW 5941   3.599   3.614   1.785  0.2381 -0.3405 -0.2604
 1981SOL    HW1 5942   3.557   3.669   1.851 -0.1039  0.3913 -1.0735
 1981SOL    HW2 5943   3.600   3.526   1.824 -3.9075 -0.8947 -0.9524
 1982SOL     OW 5944   1.623   1.781   2.699 -0.3023 -0.2223 -0.8963
 1982SOL    HW1 5945   1.653   1.797   2.789  1.9607 -0.0223 -1.6295
 1982SOL    HW2 5946   1.686   1.826   2.644 -0.5321 -1.9213 -2.6710
 1983SOL     OW 5947   1.230   0.270   1.785  0.4799  0.4619  0.9497
 1983SOL    HW1 5948   1.249   0.216   1.861 -2.4441 -0.1437  1.3790
 1983SOL    HW2 5949   1.163   0.332   1.815 -0.7101  0.2545 -1.0718
 1984SOL     OW 5950   1.195   2.510   0.177  0.5860  0.1117 -0.2702
 1984SOL    HW1 5951   1.261   2.441   0.171  0.0375 -0.4621  0.1846
 1984SOL    HW2 5952   1.139   2.484   0.250  0.0640  0.7770 -0.4185
 1985SOL     OW 5953   3.272   1.490   3.639  0.1589 -0.1290 -0.3538
 1985SOL    HW1 5954   3.296   1.583   3.647 -1.8584  0.3473  1.6875
 1985SOL    HW2 5955   3.352   1.446   3.612  2.2872  1.7276  2.3253
 1986SOL     OW 5956   3.952   1.319   3.161 -0.2645 -0.3759 -0.8366
 1986SOL    HW1 5957   3.964   1.252   3.228 -0.6669 -0.9922 -1.3737
 1986SOL    HW2 5958   4.039   1.358   3.150 -0.3936  0.4742  0.7984
 1987SOL     OW 5959   3.303   2.160   2.784 -0.4026 -0.6087  0.1156
 1987SOL    HW1 5960   3.384   2.130   2.825  0.6314  0.6309 -0.9214
 1987SOL    HW2 5961   3.331   2.199   2.701 -1.7618  1.8950  0.7307
 1988SOL     OW 5962   1.187   3.800   0.859 -0.4301 -0.0838 -0.3218
 1988SOL    HW1 5963   1.120   3.861   0.890 -1.4767 -0.0756 -2.4232
 1988SOL    HW2 5964   1.247   3.854   0.807 -0.6144 -0.6127 -1.0947
 1989SOL     OW 5965   2.079   3.183   0.459  0.7515  0.0776 -1.4203
 1989SOL    HW1 5966   2.071   3.097   0.417  0.1655 -0.1606 -0.8435
 1989SOL    HW2 5967   1.997   3.193   0.507  0.6041  1.1768 -1.8776
 1990SOL     OW 5968   0.189   0.853   3.872 -0.1564 -0.6653  0.0688
 1990SOL    HW1 5969   0.206   0.940   3.835 -1.0738 -0.1262  0.8576
 1990SOL    HW2 5970   0.244   0.794   3.821 -0.8989  0.1142 -1.7423
 1991SOL     OW 5971   0.104   2.938   2.149  0.3813  1.1186  0.0549
 1991SOL    HW1 5972   0.152   2.983   2.079 -2.7942  3.6317 -0.8124
 1991SOL    HW2 5973   0.025   2.905   2.105 -1.3013  2.0112  2.2269
 1992SOL     OW 5974   0.923   1.817   2.012  0.4513 -0.4346 -0.1793
 1992SOL    HW1 5975   0.836   1.813   1.972  1.5082  1.2302 -2.9304
 1992SOL    HW2 5976   0.978   1.763   1.955  1.3585 -1.1007  1.2602
 1993SOL     OW 5977   3.105   1.421   2.416 -0.3804 -0.0050 -0.0476
 1993SOL    HW1 5978   3.021   1.453   2.384  0.1966  0.1540 -1.4665
 1993SOL    HW2 5979   3.150   1.389   2.338  0.4330 -1.1303  0.8541
 1994SOL     OW 5980   1.105   0.291   3.012  0.1549 -0.1973  0.6100
 1994SOL    HW1 5981   1.164   0.302   3.087 -0.0307 -0.3110  0.7723
 1994SOL    HW2 5982   1.159   0.315   2.936  0.1291  0.6332  0.8411
 1995SOL     OW 5983   0.934   1.933   2.831 -0.2953 -0.0999  0.7860
 1995SOL    HW1 5984   0.848   1.948   2.871  0.3654 -0.0963  2.2969
 1995SOL    HW2 5985   0.973   2.021   2.825  0.1068 -0.2303  1.3617
 1996SOL     OW 5986   3.917   0.154   1.030 -0.6862  0.0593 -0.0295
 1996SOL    HW1 5987   3.902   0.203   1.111 -1.1710  0.5300 -0.3998
 1996SOL    HW2 5988   3.848   0.183   0.971  0.6916  1.0370 -1.2221
 1997SOL     OW 5989   1.673   1.492   1.591 -0.7036 -0.1453  1.0849
 1997SOL    HW1 5990   1.692   1.480   1.499 -2.4525 -2.2718  0.9043
 1997SOL    HW2 5991   1.619   1.571   1.595 -2.3892 -1.1682 -0.0715
 1998SOL     OW 5992   2.466   0.085   3.628  0.1286 -0.3968  0.5340
 1998SOL    HW1 5993   2.374   0.111   3.622 -0.2865 -1.9512 -0.3232
 1998SOL    HW2 5994   2.464  -0.006   3.656  1.2539 -1.3364 -2.1021
 1999SOL     OW 5995   1.464   2.676   3.202 -0.3050 -0.3480 -0.3367
 1999SOL    HW1 5996   1.502   2.764   3.194  0.8887 -0.9283 -1.4160
 1999SOL    HW2 5997   1.435   2.671   3.293  0.7492  0.7214  0.0845
 2000SOL     OW 5998   3.623   2.618   1.016  0.1539  0.9092  0.5468
 2000SOL    HW1 5999   3.659   2.669   0.943  0.7444  0.2256  0.3499
 2000SOL    HW2 6000   3.531   2.645   1.021  0.0731  0.8766 -0.5231
 2001SOL     OW 6001   0.073   1.628   1.536  0.1071 -0.4060 -0.5678
 2001SOL    HW1 6002  -0.017   1.631   1.567  1.0919 -1.6594  2.8014
 2001SOL    HW2 6003   0.075   1.557   1.472 -0.7184 -2.6043  1.7240
 2002SOL     OW 6004   0.433   0.833   1.292 -0.1436  0.0040 -0.3856
 2002SOL    HW1 6005   0.430   0.785   1.375  1.2468  1.0598  0.3261
 2002SOL    HW2 6006   0.505   0.895   1.303 -0.8072  1.1062 -1.8887
 2003SOL     OW 6007   2.747   3.823   2.338 -0.4531  0.3442 -0.0729
 2003SOL    HW1 6008   2.747   3.901   2.282 -0.7979  0.7773  0.5185
 2003SOL    HW2 6009   2.673   3.837   2.398 -0.7170 -0.5882 -0.1643
 2004SOL     OW 6010   3.866   1.741   2.371 -0.7746  0.3113 -0.9704
 2004SOL    HW1 6011   3.884   1.804   2.441 -2.2591  0.1115 -0.3913
 2004SOL    HW2 6012   3.896   1.657   2.405  0.2922  0.5131 -1.3600
 2005SOL     OW 6013   1.968   0.830   3.495  0.1366  0.2243 -0.0038
 2005SOL    HW1 6014   2.018   0.800   3.571 -0.3999 -2.3159 -0.5644
 2005SOL    HW2 6015   2.021   0.804   3.419  0.4718  2.3592 -0.5599
 2006SOL     OW 6016   3.686   2.424   2.043 -0.2507  0.6363 -0.2460
 2006SOL    HW1 6017   3.735   2.373   1.979  0.7104  0.1449  0.8504
 2006SOL    HW2 6018   3.752   2.456   2.104 -1.2538  0.2053  1.1119
 2007SOL     OW 6019   1.658   2.026   1.698  0.3924 -0.5728  0.7734
 2007SOL    HW1 6020   1.658   2.072   1.781  2.5044  0.3633  0.3178
 2007SOL    HW2 6021   1.727   1.960   1.707  0.3071 -0.7850 -0.0519
 2008SOL     OW 6022   2.816   2.403   3.443  0.0121 -0.1890 -0.0491
 2008SOL    HW1 6023   2.738   2.372   3.397 -0.9097  0.7527  0.8108
 2008SOL    HW2 6024   2.782   2.458   3.514  1.4863  2.1618 -1.0201
 2009SOL     OW 6025   0.373   0.225   3.273 -0.2144  0.1463  0.1497
 2009SOL    HW1 6026   0.455   0.235   3.320 -0.8100  1.2330  1.0233
 2009SOL    HW2 6027   0.397   0.227   3.180  0.8600 -0.8834  0.3896
 2010SOL     OW 6028   2.205   2.361   1.803 -0.6156  0.4541  0.3384
 2010SOL    HW1 6029   2.136   2.307   1.765 -0.7933  1.1159 -0.3198
 2010SOL    HW2 6030   2.159   2.426   1.856 -0.4501  0.4235  0.5209
 2011SOL     OW 6031   2.214   3.240   2.124  0.6780 -0.0555 -0.9351
 2011SOL    HW1 6032   2.306   3.263   2.138  1.4429 -2.5726 -1.2464
 2011SOL    HW2 6033   2.192   3.185   2.199 -0.7132  0.7736 -0.7038
 2012SOL     OW 6034   1.232   3.991   2.060 -0.2797 -0.0153 -0.2987
 2012SOL    HW1 6035   1.263   3.915   2.010  1.1476  0.2660  0.1096
 2012SOL    HW2 6036   1.312   4.038   2.084 -1.1092  1.3296 -0.0744
 2013SOL     OW 6037   3.070   1.800   3.421  0.3733  0.3456 -0.2373
 2013SOL    HW1 6038   3.064   1.817   3.327 -1.6454  0.0374 -0.2230
 2013SOL    HW2 6039   3.062   1.705   3.428 -3.1503  0.5625  0.3429
 2014SOL     OW 6040   2.965   2.462   0.901 -0.3777  0.1260  0.5297
 2014SOL    HW1 6041   3.032   2.394   0.899  0.0820  0.5409 -2.2997
 2014SOL    HW2 6042   2.940   2.473   0.809 -3.4634  0.8526  1.3467
 2015SOL     OW 6043   2.698   1.337   2.931  1.0926  0.2782  0.0137
 2015SOL    HW1 6044   2.603   1.323   2.932  1.1687 -1.2800 -2.8389
 2015SOL    HW2 6045   2.735   1.249   2.920  3.0279  0.6702  2.5314
 2016SOL     OW 6046   1.077   1.145   2.873  0.0092  0.4504 -0.8337
 2016SOL    HW1 6047   1.037   1.140   2.960  1.9636 -0.1975  0.0918
 2016SOL    HW2 6048   1.019   1.202   2.822 -1.5976  0.2084  0.6448
 2017SOL     OW 6049   2.832   2.050   2.259  0.1170 -0.5230 -0.3620
 2017SOL    HW1 6050   2.840   1.999   2.340 -0.1323  1.3560  0.9011
 2017SOL    HW2 6051   2.738   2.067   2.250  0.1861 -0.3657 -0.8383
 2018SOL     OW 6052   0.830   1.313   2.460 -0.1609 -0.2654 -0.5100
 2018SOL    HW1 6053   0.863   1.266   2.537  4.2994  0.3271 -1.7937
 2018SOL    HW2 6054   0.823   1.404   2.488  2.2100  0.0820 -0.9037
 2019SOL     OW 6055   3.878   2.854   2.012 -0.2486 -0.2460 -0.0218
 2019SOL    HW1 6056   3.793   2.839   2.054 -1.4193  0.1025 -2.1329
 2019SOL    HW2 6057   3.883   2.786   1.945 -0.0934  1.3365 -1.6574
 2020SOL     OW 6058   1.944   3.383   2.155 -0.5414 -0.5579 -0.0947
 2020SOL    HW1 6059   1.906   3.311   2.205 -0.1056  1.4549  3.4274
 2020SOL    HW2 6060   2.039   3.374   2.168 -0.3060 -0.6322 -1.6210
 2021SOL     OW 6061   3.069   3.950   1.785 -0.5303  0.4421 -0.4486
 2021SOL    HW1 6062   3.055   3.913   1.872 -2.3177  0.5286 -0.6567
 2021SOL    HW2 6063   3.138   3.896   1.746 -0.6549 -0.4435  0.5335
 2022SOL     OW 6064   1.417   0.130   3.962 -0.5953  0.3149  0.3883
 2022SOL    HW1 6065   1.352   0.201   3.957 -0.1515  0.8193  1.4145
 2022SOL    HW2 6066   1.366   0.052   3.982 -0.9467  0.6031  0.6266
 2023SOL     OW 6067   3.833   2.316   1.836 -0.0354  0.5525  0.3761
 2023SOL    HW1 6068   3.855   2.310   1.743 -1.5402 -1.2517  0.0891
 2023SOL    HW2 6069   3.853   2.230   1.871 -2.4759  0.1880  0.9941
 2024SOL     OW 6070   1.309   1.604   2.269 -0.3375  0.0353  0.1938
 2024SOL    HW1 6071   1.328   1.549   2.193 -1.6366  1.6229 -1.3656
 2024SOL    HW2 6072   1.394   1.621   2.308  0.1801 -2.3429  0.2388
 2025SOL     OW 6073   3.538   2.103   1.193  0.4459 -0.0133 -0.1408
 2025SOL    HW1 6074   3.537   2.105   1.097 -1.0660  0.2241 -0.1583
 2025SOL    HW2 6075   3.524   2.194   1.219 -1.1319 -0.3147  0.2360
 2026SOL     OW 6076   0.124   1.841   2.326  0.1183 -0.1022  0.3878
 2026SOL    HW1 6077   0.055   1.849   2.392 -0.0367  0.3784  0.1766
 2026SOL    HW2 6078   0.084   1.788   2.257 -0.3019  0.7608 -0.0544
 2027SOL     OW 6079   3.932   2.135   0.214  0.1677 -0.4948  0.1754
 2027SOL    HW1 6080   3.917   2.184   0.133  1.1385 -1.1339 -0.4080
 2027SOL    HW2 6081   3.874   2.060   0.207 -1.4289  0.5750  1.1352
 2028SOL     OW 6082   0.312   2.463   1.119 -0.3186  0.0743  0.1074
 2028SOL    HW1 6083   0.356   2.544   1.094  0.2144 -0.8525 -2.3436
 2028SOL    HW2 6084   0.219   2.484   1.115 -0.1868  0.5568 -0.6036
 2029SOL     OW 6085   3.392   2.961   1.998  0.2478 -0.3927 -0.5586
 2029SOL    HW1 6086   3.437   3.031   1.950  0.0818  1.5853  1.9298
 2029SOL    HW2 6087   3.416   2.881   1.952  1.7060  1.1414 -2.6591
 2030SOL     OW 6088   1.229   1.332   3.594 -0.1442  0.0699  0.4627
 2030SOL    HW1 6089   1.241   1.295   3.681 -3.0327  1.0555  1.3915
 2030SOL    HW2 6090   1.282   1.276   3.536 -0.6529 -2.5763  2.3952
 2031SOL     OW 6091   2.573   0.782   2.041 -0.7659 -0.6736  0.2052
 2031SOL    HW1 6092   2.498   0.842   2.033  0.6234  1.3749  1.5936
 2031SOL    HW2 6093   2.582   0.744   1.953 -0.4661  2.8104 -1.4533
 2032SOL     OW 6094   2.311   0.578   3.123  0.7448  0.5245 -0.5038
 2032SOL    HW1 6095   2.361   0.565   3.042 -1.6342  0.3408 -2.0532
 2032SOL    HW2 6096   2.336   0.504   3.178 -0.6887 -1.8951 -2.8344
 2033SOL     OW 6097   3.409   3.582   3.053  0.8736 -0.4996  0.4691
 2033SOL    HW1 6098   3.375   3.653   2.999  3.4509 -0.9632 -2.0160
 2033SOL    HW2 6099   3.341   3.567   3.119 -1.0300  2.2807 -0.6660
 2034SOL     OW 6100   2.731   3.964   3.407 -0.7641 -0.0428 -0.1067
 2034SOL    HW1 6101   2.820   3.986   3.380 -1.2970  1.3451 -0.8626
 2034SOL    HW2 6102   2.742   3.900   3.478  0.7761 -2.9473 -2.6900
 2035SOL     OW 6103   2.367   0.325   0.882 -0.0437  0.3508  0.1061
 2035SOL    HW1 6104   2.347   0.247   0.933 -2.9007  1.6936  1.2458
 2035SOL    HW2 6105   2.429   0.374   0.935  1.0748 -0.6799 -0.2108
 2036SOL     OW 6106   1.120   0.854   0.145 -0.2618 -0.1923 -0.0146
 2036SOL    HW1 6107   1.130   0.759   0.142 -0.3009 -0.1794 -0.7697
 2036SOL    HW2 6108   1.188   0.888   0.087 -1.5313  0.1321 -1.3667
 2037SOL     OW 6109  -0.008   0.491   1.407 -0.7257 -0.1422  0.2602
 2037SOL    HW1 6110   0.077   0.488   1.363 -1.5181 -0.3663 -1.3328
 2037SOL    HW2 6111   0.002   0.433   1.482  1.0920  1.3131  1.2086
 2038SOL     OW 6112   1.191   1.117   2.254 -0.6728  0.0898  0.5016
 2038SOL    HW1 6113   1.194   1.093   2.161 -1.3642  2.5150 -0.2037
 2038SOL    HW2 6114   1.146   1.201   2.256 -1.9710 -0.5629  3.2101
 2039SOL     OW 6115   0.455   3.334   3.462  0.4939  0.2902 -0.3870
 2039SOL    HW1 6116   0.518   3.299   3.525 -0.0475 -1.1902 -0.6302
 2039SOL    HW2 6117   0.381   3.364   3.516  0.5180  0.0848 -0.2379
 2040SOL     OW 6118   2.480   3.270   0.116 -0.2647 -0.4944 -0.3117
 2040SOL    HW1 6119   2.519   3.336   0.173  1.5895  0.1689 -2.2186
 2040SOL    HW2 6120   2.420   3.222   0.172 -1.9853  2.9934  1.1164
 2041SOL     OW 6121   2.321   1.377   2.526 -0.5370  0.3206  0.2192
 2041SOL    HW1 6122   2.412   1.385   2.499  0.3891  1.3751  3.2431
 2041SOL    HW2 6123   2.289   1.468   2.531 -1.6754 -0.0142 -0.4552
 2042SOL     OW 6124   3.816   2.543   2.533 -0.4804 -0.0921 -0.4018
 2042SOL    HW1 6125   3.782   2.604   2.598  0.0096  2.7557 -2.5984
 2042SOL    HW2 6126   3.739   2.521   2.479 -0.7577 -1.9256  0.6678
 2043SOL     OW 6127   1.537   2.888   0.326  0.2143  0.7142  0.3126
 2043SOL    HW1 6128   1.610   2.871   0.267  0.0215  1.2526 -0.0897
 2043SOL    HW2 6129   1.463   2.843   0.286  0.5082 -0.6376  1.2127
 2044SOL     OW 6130   1.136   0.496   0.407  0.8963 -0.3724  0.6543
 2044SOL    HW1 6131   1.075   0.438   0.453  2.1503 -0.3580  2.4079
 2044SOL    HW2 6132   1.210   0.440   0.385  0.8664 -0.0729 -0.2272
 2045SOL     OW 6133   3.838   1.354   2.285 -0.3677  0.3654 -0.7369
 2045SOL    HW1 6134   3.771   1.313   2.339  0.1014  0.4132 -0.1036
 2045SOL    HW2 6135   3.908   1.376   2.347 -0.4044  1.6979 -1.1329
 2046SOL     OW 6136   1.903   3.409   1.506 -0.4296 -0.1694  0.3194
 2046SOL    HW1 6137   1.981   3.357   1.527 -1.2613 -1.4003  0.4389
 2046SOL    HW2 6138   1.907   3.420   1.411  1.3096  2.1329  0.5794
 2047SOL     OW 6139   1.367   2.297   2.425  0.6023 -0.3896 -0.1018
 2047SOL    HW1 6140   1.368   2.293   2.520  0.9309  0.7671 -0.0420
 2047SOL    HW2 6141   1.287   2.251   2.400  0.4351 -0.5720  0.7444
 2048SOL     OW 6142   0.194   0.447   2.532  0.1973  0.2264 -0.0006
 2048SOL    HW1 6143   0.111   0.410   2.562  0.0456 -0.5940 -1.3203
 2048SOL    HW2 6144   0.252   0.440   2.607 -0.2552 -1.4286  0.2498
 2049SOL     OW 6145   3.026   0.590   3.438  0.4216  0.1655 -0.1779
 2049SOL    HW1 6146   2.979   0.673   3.444  2.0118  1.2304 -1.5159
 2049SOL    HW2 6147   2.970   0.535   3.384  0.7113  1.4731 -1.9077
 2050SOL     OW 6148   2.573   2.644   1.772  0.2241 -0.4550  0.7067
 2050SOL    HW1 6149   2.652   2.640   1.718  0.1512 -1.7289  0.6714
 2050SOL    HW2 6150   2.542   2.554   1.777  0.2934 -0.4274  2.9541
 2051SOL     OW 6151   1.690   1.358   0.483  0.0007  0.7781 -0.8122
 2051SOL    HW1 6152   1.686   1.448   0.451  1.2930  1.9286  1.9865
 2051SOL    HW2 6153   1.643   1.359   0.566  0.3444 -1.0748 -0.5332
 2052SOL     OW 6154   1.742   3.633   3.291  0.4221  0.0217  0.4760
 2052SOL    HW1 6155   1.806   3.645   3.222 -0.7736  1.9039 -0.3801
 2052SOL    HW2 6156   1.721   3.721   3.321  1.0122 -0.7209  3.4224
 2053SOL     OW 6157   1.978   1.014   2.540 -0.4618 -0.2196 -0.0435
 2053SOL    HW1 6158   1.962   1.080   2.473  1.4148 -0.4104 -0.7242
 2053SOL    HW2 6159   1.933   0.936   2.509 -2.5648  0.6374  0.6887
 2054SOL     OW 6160   3.958   2.948   0.499 -0.4046  0.4505 -0.7737
 2054SOL    HW1 6161   3.951   2.924   0.406 -0.8757  1.3128 -0.9702
 2054SOL    HW2 6162   4.051   2.964   0.513 -0.3038  0.1076 -1.0466
 2055SOL     OW 6163   3.518   2.027   2.216 -0.3949 -0.2765  0.1353
 2055SOL    HW1 6164   3.492   1.969   2.144 -1.1930 -0.3426  0.4638
 2055SOL    HW2 6165   3.502   2.115   2.183  3.4674  0.0226 -1.4441
 2056SOL     OW 6166   1.620   1.046   0.030  0.3314  0.0642 -0.1232
 2056SOL    HW1 6167   1.673   0.970   0.054 -0.2675 -0.0956  0.7433
 2056SOL    HW2 6168   1.641   1.113   0.095  2.0078  1.2300 -1.7674
 2057SOL     OW 6169   1.055   3.259   0.526  0.3443  0.0853 -0.0356
 2057SOL    HW1 6170   0.996   3.325   0.490 -0.6230 -1.4694 -1.4505
 2057SOL    HW2 6171   1.142   3.286   0.494  0.3015  1.7430  1.0966
 2058SOL     OW 6172   1.177   2.071   3.431  0.0077 -0.4268 -0.5050
 2058SOL    HW1 6173   1.220   2.137   3.378  2.9639  0.3436  2.4625
 2058SOL    HW2 6174   1.230   2.067   3.511 -4.6018 -0.6652  2.9222
 2059SOL     OW 6175   1.043   2.840   0.234  0.2940 -0.6520  0.4547
 2059SOL    HW1 6176   1.121   2.835   0.288  0.1822  1.5094  0.9251
 2059SOL    HW2 6177   0.978   2.884   0.289 -0.6211 -0.6354 -0.5875
 2060SOL     OW 6178   3.502   3.237   2.528 -0.0436  0.7762 -0.2947
 2060SOL    HW1 6179   3.510   3.156   2.579 -0.0484  0.1828 -1.2154
 2060SOL    HW2 6180   3.411   3.264   2.540 -0.3735 -0.0118 -0.9378
 2061SOL     OW 6181   0.463   2.375   0.304 -0.3724  0.7028 -0.4374
 2061SOL    HW1 6182   0.503   2.459   0.282  0.2237  0.4149 -0.4609
 2061SOL    HW2 6183   0.376   2.399   0.337 -0.6124  1.2524 -1.4134
 2062SOL     OW 6184   1.179   0.354   3.925  0.7539  0.3523  0.2334
 2062SOL    HW1 6185   1.144   0.267   3.904  3.7488 -0.7844 -0.5101
 2062SOL    HW2 6186   1.152   0.369   4.016  1.2859 -2.0055  0.8497
 2063SOL     OW 6187   0.355  -0.014   3.042 -0.0374 -0.2263  0.0995
 2063SOL    HW1 6188   0.346   0.010   2.949  2.4161 -1.7862 -0.6451
 2063SOL    HW2 6189   0.275   0.020   3.083 -1.0458  0.8497 -2.4933
 2064SOL     OW 6190   3.514   0.235   2.293 -0.0084 -1.1428  0.2815
 2064SOL    HW1 6191   3.532   0.152   2.338 -0.4163 -1.0173  0.6785
 2064SOL    HW2 6192   3.443   0.275   2.343  0.4407 -0.3720  0.3112
 2065SOL     OW 6193   3.846   2.113   1.269 -0.2180  0.3815 -0.0480
 2065SOL    HW1 6194   3.849   2.172   1.194  1.9090 -0.0608 -0.3598
 2065SOL    HW2 6195   3.821   2.028   1.232  0.7167  0.1896 -0.2557
 2066SOL     OW 6196   0.047   1.767   1.202 -0.2179 -0.1698 -0.7432
 2066SOL    HW1 6197   0.030   1.675   1.181  1.1413 -1.1681  2.0568
 2066SOL    HW2 6198   0.111   1.764   1.273 -0.6728  2.9495 -0.0679
 2067SOL     OW 6199   3.204   2.487   2.848 -0.3002 -0.3142 -0.1192
 2067SOL    HW1 6200   3.189   2.395   2.871  1.2993 -1.1289 -2.0407
 2067SOL    HW2 6201   3.211   2.487   2.753 -2.0547  2.1240 -0.3358
 2068SOL     OW 6202   2.781   0.554   0.879 -0.8768 -0.2790 -0.6689
 2068SOL    HW1 6203   2.771   0.472   0.928 -0.7871 -0.6253 -1.2281
 2068SOL    HW2 6204   2.869   0.549   0.842 -1.3671 -0.5627 -1.8489
 2069SOL     OW 6205   1.943   3.408   1.237 -0.1485 -0.6600 -0.3049
 2069SOL    HW1 6206   1.851   3.431   1.227  0.1848 -0.0652 -2.4439
 2069SOL    HW2 6207   1.946   3.314   1.218 -0.2008 -0.5099 -1.0571
 2070SOL     OW 6208   2.428   3.624   0.097  0.1239  0.3236 -0.9452
 2070SOL    HW1 6209   2.359   3.645   0.033 -0.4352 -1.4486 -0.9711
 2070SOL    HW2 6210   2.469   3.545   0.062  1.0853  0.4125 -0.0597
 2071SOL     OW 6211   2.514   3.736   2.086  0.9927 -0.2720 -0.2368
 2071SOL    HW1 6212   2.590   3.720   2.029 -0.1793 -0.5204 -1.8010
 2071SOL    HW2 6213   2.455   3.663   2.068  1.5138 -1.6652  3.0911
 2072SOL     OW 6214   3.378   1.789   0.258 -0.2083  0.0143  0.0545
 2072SOL    HW1 6215   3.451   1.843   0.289 -0.7011  0.7819 -0.1119
 2072SOL    HW2 6216   3.408   1.699   0.271  1.5426  0.2586 -1.6976
 2073SOL     OW 6217   0.962   2.695   0.000 -0.4029 -0.1841  0.3491
 2073SOL    HW1 6218   1.021   2.715   0.073 -1.2595  0.1064  0.9794
 2073SOL    HW2 6219   0.875   2.721   0.032 -0.8481 -0.4490 -0.6215
 2074SOL     OW 6220   3.627   0.449   0.346  0.4430  0.0882 -0.2941
 2074SOL    HW1 6221   3.541   0.429   0.384  0.2440  0.6033 -0.4534
 2074SOL    HW2 6222   3.638   0.386   0.275  1.3200 -1.6496  1.2937
 2075SOL     OW 6223   1.770   2.766   3.373 -0.0478 -0.2608  0.4008
 2075SOL    HW1 6224   1.717   2.715   3.312  0.3051 -2.1603  1.6086
 2075SOL    HW2 6225   1.855   2.774   3.330 -0.4689  0.4320 -0.3375
 2076SOL     OW 6226   1.455   3.741   1.495 -0.0089 -0.0919  0.4053
 2076SOL    HW1 6227   1.450   3.779   1.583  0.5793 -3.7571  2.2246
 2076SOL    HW2 6228   1.546   3.712   1.487 -0.3534 -0.8948 -0.9118
 2077SOL     OW 6229   0.196   0.972   2.312 -0.2208 -0.1646  0.2683
 2077SOL    HW1 6230   0.151   0.908   2.257  0.2426  0.0154 -0.3186
 2077SOL    HW2 6231   0.267   0.923   2.354 -1.5718 -0.7243  2.0473
 2078SOL     OW 6232   2.111   3.808   1.381 -0.9513 -0.5602 -0.9271
 2078SOL    HW1 6233   2.084   3.819   1.472 -1.1499  2.7037 -1.2915
 2078SOL    HW2 6234   2.037   3.840   1.330 -1.0378 -2.7972 -2.3483
 2079SOL     OW 6235   1.949   3.039   1.400 -0.3107  0.5747  0.4818
 2079SOL    HW1 6236   2.010   3.051   1.473  0.0692  1.8198 -0.0088
 2079SOL    HW2 6237   1.865   3.072   1.432 -0.0026  1.6983  0.1811
 2080SOL     OW 6238   1.774   3.228   0.279  0.2598  0.1677  0.0719
 2080SOL    HW1 6239   1.704   3.168   0.254  0.8943 -0.4903 -0.1600
 2080SOL    HW2 6240   1.792   3.208   0.370  2.0364 -1.6481 -0.6020
 2081SOL     OW 6241   0.866   0.990   0.114  0.3802 -0.7090  0.5330
 2081SOL    HW1 6242   0.948   0.942   0.116 -0.1224 -1.7791 -1.5792
 2081SOL    HW2 6243   0.802   0.929   0.152  0.5165  0.1389  2.2212
 2082SOL     OW 6244   2.695   3.443   0.960 -0.2400  0.0543 -0.3967
 2082SOL    HW1 6245   2.769   3.383   0.958 -0.1556  0.1332  0.1376
 2082SOL    HW2 6246   2.645   3.417   1.038 -1.0113 -0.2795 -0.9977
 2083SOL     OW 6247   0.018   1.073   3.046  0.5664  0.1689 -0.2209
 2083SOL    HW1 6248   0.067   1.057   2.965 -0.7406 -0.8027 -0.8589
 2083SOL    HW2 6249   0.010   1.169   3.051 -1.3064  0.2302 -2.5301
 2084SOL     OW 6250   0.979   0.161   0.616  0.2673  0.4528  0.0949
 2084SOL    HW1 6251   1.068   0.181   0.644  0.8396  0.0946 -1.3722
 2084SOL    HW2 6252   0.937   0.126   0.694  1.6058  0.0697  0.6765
 2085SOL     OW 6253   3.250   2.773   0.431 -0.5618 -0.7049 -0.3008
 2085SOL    HW1 6254   3.181   2.726   0.383 -1.3660 -0.3082  0.4450
 2085SOL    HW2 6255   3.203   2.824   0.497  0.4559 -0.4471  0.2431
 2086SOL     OW 6256   0.887   1.057   2.131 -0.4283  0.4701 -0.2272
 2086SOL    HW1 6257   0.858   1.149   2.127  0.8210  0.9045  0.2620
 2086SOL    HW2 6258   0.810   1.009   2.162 -1.1560  1.3153 -0.6575
 2087SOL     OW 6259   3.484   3.956   1.746 -0.2338 -0.4170 -0.1075
 2087SOL    HW1 6260   3.432   4.036   1.745 -2.5805 -1.7851  1.5286
 2087SOL    HW2 6261   3.557   3.973   1.686 -0.2853  3.1126  0.6680
 2088SOL     OW 6262   3.599   1.970   2.506  0.0116  0.0207  0.8857
 2088SOL    HW1 6263   3.549   1.907   2.558 -1.6092  2.2532  2.2186
 2088SOL    HW2 6264   3.565   1.959   2.417  0.1017 -1.2710  0.9858
 2089SOL     OW 6265   3.596   3.580   3.330  0.1079  0.1663 -0.9011
 2089SOL    HW1 6266   3.545   3.647   3.285 -1.7328  0.2158  1.0687
 2089SOL    HW2 6267   3.597   3.608   3.422  1.2575 -1.3377 -0.4020
 2090SOL     OW 6268   1.312   1.096   1.317 -0.6337 -0.3965  0.9821
 2090SOL    HW1 6269   1.349   1.129   1.235 -1.3215  1.4444  1.3611
 2090SOL    HW2 6270   1.334   1.003   1.318  0.1371 -0.2702 -0.8716
 2091SOL     OW 6271   0.655   1.120   0.928 -0.0990 -0.8006  0.2526
 2091SOL    HW1 6272   0.649   1.081   0.841  1.7254 -1.7765  0.5061
 2091SOL    HW2 6273   0.585   1.078   0.978 -0.3585 -1.1728 -0.4159
 2092SOL     OW 6274   0.119   2.159   1.332 -0.4016  0.0547  0.6688
 2092SOL    HW1 6275   0.026   2.161   1.309 -0.5373  3.0626  1.0608
 2092SOL    HW2 6276   0.135   2.069   1.361 -3.3859 -0.3322  1.4316
 2093SOL     OW 6277   3.146   2.532   1.956 -0.2031 -0.1969  0.0118
 2093SOL    HW1 6278   3.226   2.571   1.922 -0.3712 -1.0293 -1.4407
 2093SOL    HW2 6279   3.085   2.606   1.965  0.9924  0.6159  2.1529
 2094SOL     OW 6280   2.384   0.800   3.944 -0.6499  0.1843  0.5180
 2094SOL    HW1 6281   2.410   0.761   4.027 -1.0348 -1.0749  0.0729
 2094SOL    HW2 6282   2.372   0.726   3.885  1.2249  1.1260 -1.1706
 2095SOL     OW 6283   0.330   1.577   3.419 -0.0020  0.7357  0.0739
 2095SOL    HW1 6284   0.317   1.483   3.411 -1.8099  0.8911  0.7100
 2095SOL    HW2 6285   0.425   1.587   3.429  0.2391 -0.9933 -0.1024
 2096SOL     OW 6286   2.365   2.491   2.915  0.8339 -0.0919 -0.3909
 2096SOL    HW1 6287   2.369   2.463   2.824  2.1115 -0.1160 -0.3385
 2096SOL    HW2 6288   2.451   2.469   2.951  0.1154 -0.7126  1.0109
 2097SOL     OW 6289   0.982   3.314   1.809  0.1352 -0.1657 -0.3618
 2097SOL    HW1 6290   0.900   3.309   1.859 -0.4047  0.8384 -1.1175
 2097SOL    HW2 6291   0.965   3.380   1.741  1.7615  0.4660 -0.1944
 2098SOL     OW 6292   2.050   3.106   3.511 -0.0308 -0.2535 -0.6605
 2098SOL    HW1 6293   2.060   3.193   3.472  0.1323  1.0699  2.0462
 2098SOL    HW2 6294   1.957   3.086   3.501  0.1736 -0.3892 -2.4509
 2099SOL     OW 6295   3.387   1.438   0.981  0.4021  0.3336 -0.4271
 2099SOL    HW1 6296   3.341   1.485   0.911 -0.8052 -0.8583 -0.4587
 2099SOL    HW2 6297   3.390   1.501   1.053 -1.2729  0.4529 -0.4306
 2100SOL     OW 6298   2.035   2.846   3.353 -0.1050  0.1529  0.0048
 2100SOL    HW1 6299   2.119   2.879   3.383 -0.2762 -0.2015  0.9234
 2100SOL    HW2 6300   1.976   2.862   3.427 -1.0617  1.2220 -0.9550
 2101SOL     OW 6301   1.197   3.469   0.826 -0.2052 -0.1707 -0.0671
 2101SOL    HW1 6302   1.221   3.466   0.919 -0.9156  0.3116  0.1374
 2101SOL    HW2 6303   1.106   3.442   0.824  0.0615 -1.0637 -0.7329
 2102SOL     OW 6304   3.447   3.437   3.685 -0.0709 -0.4624 -0.1117
 2102SOL    HW1 6305   3.469   3.361   3.632  2.0079 -1.1720  1.6344
 2102SOL    HW2 6306   3.468   3.411   3.775  0.1332  1.9577  0.6124
 2103SOL     OW 6307   3.228   2.318   0.901  0.7705 -0.2010  0.0500
 2103SOL    HW1 6308   3.254   2.357   0.985  2.5154  1.4745 -1.2084
 2103SOL    HW2 6309   3.310   2.300   0.856 -0.0793 -2.7281 -0.6596
 2104SOL     OW 6310   0.919   3.565   2.606 -0.6934 -0.2215 -0.3750
 2104SOL    HW1 6311   0.827   3.585   2.589 -0.6763  0.3604  0.1981
 2104SOL    HW2 6312   0.917   3.480   2.650 -0.8676 -0.7871 -1.4427
 2105SOL     OW 6313   3.522   0.710   0.921  0.2741 -0.8037  0.0724
 2105SOL    HW1 6314   3.574   0.758   0.856 -0.0119  1.9287  1.7177
 2105SOL    HW2 6315   3.550   0.619   0.911  0.0750 -0.6192 -3.9730
 2106SOL     OW 6316   2.314   0.429   1.318 -0.9773  0.2290  0.3293
 2106SOL    HW1 6317   2.319   0.504   1.258  0.1618 -0.7236 -0.8263
 2106SOL    HW2 6318   2.398   0.385   1.308 -1.0903 -0.4362  2.0374
 2107SOL     OW 6319   0.048   0.242   0.178 -0.2619  0.4598  0.2566
 2107SOL    HW1 6320   0.127   0.250   0.231  0.5945 -0.6079 -0.7903
 2107SOL    HW2 6321  -0.024   0.254   0.239  0.7054  0.5290  1.4080
 2108SOL     OW 6322   3.091   2.868   0.018 -0.1933  0.1977 -0.5581
 2108SOL    HW1 6323   3.048   2.786  -0.006 -1.0896  0.8996 -1.4463
 2108SOL    HW2 6324   3.179   2.842   0.046 -0.7130 -1.1266 -0.1121
 2109SOL     OW 6325   2.770   1.124   1.262  0.4468 -0.1985 -0.5268
 2109SOL    HW1 6326   2.779   1.213   1.298  1.4768 -0.1479 -0.8786
 2109SOL    HW2 6327   2.742   1.071   1.337  0.1400  0.3596 -0.2368
 2110SOL     OW 6328   0.424   2.294   2.331  0.0904  0.3792 -0.0984
 2110SOL    HW1 6329   0.351   2.353   2.350  0.2809  0.1793  1.3931
 2110SOL    HW2 6330   0.502   2.345   2.351  0.3486  0.3650 -1.0252
 2111SOL     OW 6331   0.869   2.667   3.242  0.0635  0.4061  0.0764
 2111SOL    HW1 6332   0.913   2.697   3.162  0.6894  2.0542  0.9854
 2111SOL    HW2 6333   0.936   2.674   3.310  0.2415 -3.0947  0.4454
 2112SOL     OW 6334   3.875   1.832   3.374 -0.2566  0.7337 -0.5175
 2112SOL    HW1 6335   3.880   1.776   3.297  1.2133  1.2181 -0.8136
 2112SOL    HW2 6336   3.937   1.794   3.436 -1.3396  0.4159  0.4093
 2113SOL     OW 6337   1.311   1.630   3.083  0.7745 -0.0619  0.4563
 2113SOL    HW1 6338   1.247   1.697   3.058  0.3376 -0.1540  1.3062
 2113SOL    HW2 6339   1.362   1.615   3.003  0.9959  1.4041  0.2877
 2114SOL     OW 6340   2.317   2.172   1.420  0.2598  0.2192  0.4000
 2114SOL    HW1 6341   2.226   2.146   1.405  0.2214  1.5059 -2.1728
 2114SOL    HW2 6342   2.311   2.260   1.458  0.4314  0.1705  0.5415
 2115SOL     OW 6343   1.027   3.465   1.305 -0.0125 -0.5445  0.2456
 2115SOL    HW1 6344   1.059   3.483   1.393  0.1156 -0.7744  0.2481
 2115SOL    HW2 6345   0.973   3.541   1.283 -1.1951 -1.1066  1.0780
 2116SOL     OW 6346   1.775   3.647   2.945  0.2047 -0.2572  0.3516
 2116SOL    HW1 6347   1.841   3.664   3.012  1.0778  0.0579 -0.5712
 2116SOL    HW2 6348   1.704   3.707   2.966 -0.2894 -1.3263  1.9797
 2117SOL     OW 6349   3.579   3.005   2.300 -0.5237  0.0931  0.0945
 2117SOL    HW1 6350   3.491   3.043   2.298 -0.1012  1.1229  0.2722
 2117SOL    HW2 6351   3.596   2.991   2.393 -0.4314  0.0635  0.0729
 2118SOL     OW 6352   1.807   2.701   1.937  0.7327 -0.2085 -0.6093
 2118SOL    HW1 6353   1.773   2.636   1.875 -0.6592  0.3614 -0.4722
 2118SOL    HW2 6354   1.794   2.785   1.893  2.6746  0.0007 -0.8529
 2119SOL     OW 6355   3.257   0.765   0.414  0.6000  0.6576 -0.2118
 2119SOL    HW1 6356   3.212   0.850   0.418  0.9007  0.9904 -2.6027
 2119SOL    HW2 6357   3.232   0.721   0.496 -2.0956  1.8047 -0.3074
 2120SOL     OW 6358   1.275   1.216   0.465 -0.6025  0.2638  0.0434
 2120SOL    HW1 6359   1.247   1.264   0.387 -2.1442 -0.0253  0.3809
 2120SOL    HW2 6360   1.259   1.124   0.443  2.0835 -0.1454 -0.5068
 2121SOL     OW 6361   0.772   2.793   1.822  0.8607  0.4765  0.5895
 2121SOL    HW1 6362   0.683   2.759   1.830  0.2468  2.2146  1.8810
 2121SOL    HW2 6363   0.828   2.719   1.845 -0.3548 -0.1253  1.7852
 2122SOL     OW 6364   3.790   2.662   1.824  0.0509  0.2673 -0.0935
 2122SOL    HW1 6365   3.728   2.734   1.811 -0.9998 -0.7610 -1.0094
 2122SOL    HW2 6366   3.810   2.631   1.735  1.6227  0.3314  0.1978
 2123SOL     OW 6367   2.293   0.578   0.419 -0.7931  0.2041 -0.7311
 2123SOL    HW1 6368   2.348   0.500   0.427 -2.5865 -1.1152 -0.6852
 2123SOL    HW2 6369   2.344   0.647   0.461  0.2534 -1.2704  0.5657
 2124SOL     OW 6370   3.378   1.568   3.141  0.2020 -0.1494  0.4823
 2124SOL    HW1 6371   3.333   1.641   3.183 -2.6061 -0.3365 -1.8907
 2124SOL    HW2 6372   3.461   1.606   3.110  0.4153  1.0367  2.3356
 2125SOL     OW 6373   0.922   2.536   1.146 -0.0878  0.5799  0.2879
 2125SOL    HW1 6374   1.015   2.536   1.170  0.2051 -0.1278 -0.7898
 2125SOL    HW2 6375   0.922   2.557   1.053 -0.8944 -1.0909 -0.1176
 2126SOL     OW 6376   3.716   3.915   2.771 -0.7015  0.8858 -0.0771
 2126SOL    HW1 6377   3.804   3.926   2.809  0.0502 -2.1225 -0.6295
 2126SOL    HW2 6378   3.666   3.871   2.840 -1.0708  0.5536 -0.5493
 2127SOL     OW 6379   2.229   2.157   3.482  0.5227  0.4653  0.2055
 2127SOL    HW1 6380   2.291   2.206   3.428  2.3334  0.8536  2.4862
 2127SOL    HW2 6381   2.193   2.091   3.424  1.2692  1.7614 -1.8269
 2128SOL     OW 6382   0.667   1.469   2.791  0.3208 -0.1062  0.3811
 2128SOL    HW1 6383   0.663   1.483   2.696 -0.4559  0.9988  0.5612
 2128SOL    HW2 6384   0.697   1.553   2.826  0.4914 -0.4730  1.1270
 2129SOL     OW 6385   0.721   1.979   2.997  0.0483  0.0505  1.2740
 2129SOL    HW1 6386   0.642   1.925   3.004 -1.1759  1.1047 -2.3573
 2129SOL    HW2 6387   0.698   2.061   3.039 -1.2278  0.6893 -0.5590
 2130SOL     OW 6388   2.220   3.560   1.332  0.2902  0.0594  0.1973
 2130SOL    HW1 6389   2.154   3.503   1.292 -0.6594  0.6572  0.8742
 2130SOL    HW2 6390   2.188   3.649   1.314  0.9814  0.3561  0.4251
 2131SOL     OW 6391   1.875   3.887   3.526 -0.1962 -0.6454  0.0486
 2131SOL    HW1 6392   1.910   3.956   3.471  0.9590  0.2036  1.7416
 2131SOL    HW2 6393   1.781   3.887   3.509 -0.3418  1.8709  0.4985
 2132SOL     OW 6394   0.569   2.238   3.034 -0.3659  0.5753 -0.7805
 2132SOL    HW1 6395   0.498   2.219   3.096  0.6214 -0.1957  0.1347
 2132SOL    HW2 6396   0.524   2.271   2.956 -1.7646 -0.2584 -0.3581
 2133SOL     OW 6397   0.974   1.436   0.073  0.6081  0.5938  0.1059
 2133SOL    HW1 6398   0.884   1.407   0.057  0.9606  0.1033 -1.1075
 2133SOL    HW2 6399   0.969   1.531   0.073  0.0747  0.5723  0.1455
 2134SOL     OW 6400   0.526   3.783   0.155 -0.5480  0.8677 -0.1550
 2134SOL    HW1 6401   0.544   3.876   0.165  1.8996  0.5510 -1.1293
 2134SOL    HW2 6402   0.459   3.779   0.086  0.6673  1.8547 -1.4462
 2135SOL     OW 6403   1.988   1.347   2.378 -0.1074 -0.6030  1.3764
 2135SOL    HW1 6404   1.973   1.429   2.331 -2.9046 -0.2096  2.7358
 2135SOL    HW2 6405   2.073   1.317   2.348 -0.2458  1.3506 -1.2899
 2136SOL     OW 6406   0.576   1.214   0.603 -0.5585 -0.1253  0.1790
 2136SOL    HW1 6407   0.670   1.195   0.604 -0.1103  1.5519 -2.2506
 2136SOL    HW2 6408   0.535   1.131   0.577  0.0557 -1.2168  2.4556
 2137SOL     OW 6409   2.807   0.775   2.746  0.2388  0.1989  0.0014
 2137SOL    HW1 6410   2.891   0.806   2.781 -0.0741 -0.1839  1.1555
 2137SOL    HW2 6411   2.830   0.698   2.693  0.9788  2.0764 -2.5971
 2138SOL     OW 6412   3.550   0.249   1.981 -0.9001 -0.0562  0.2733
 2138SOL    HW1 6413   3.523   0.253   2.073  0.0319 -1.6699  0.6564
 2138SOL    HW2 6414   3.582   0.159   1.970  2.2734  1.0653 -0.6899
 2139SOL     OW 6415   2.897   1.754   3.015 -0.2979 -0.1432  0.3373
 2139SOL    HW1 6416   2.869   1.690   3.080 -0.3690 -0.8535 -0.3865
 2139SOL    HW2 6417   2.990   1.767   3.031  0.3685 -2.4870 -1.2194
 2140SOL     OW 6418   0.849   1.166   1.843 -0.3813  0.4712 -0.6448
 2140SOL    HW1 6419   0.869   1.252   1.881  0.1702  0.5197 -1.0282
 2140SOL    HW2 6420   0.834   1.109   1.918 -1.0656  0.9746 -0.3876
 2141SOL     OW 6421   2.382   3.205   1.483 -0.8940  0.0453 -0.3741
 2141SOL    HW1 6422   2.462   3.253   1.504 -1.5783  0.7276  0.7936
 2141SOL    HW2 6423   2.378   3.136   1.548 -2.1192  1.0810  0.7136
 2142SOL     OW 6424   3.081   0.775   0.972 -0.1853 -0.5076 -0.1696
 2142SOL    HW1 6425   3.060   0.820   0.891  0.8533  2.6179  1.1382
 2142SOL    HW2 6426   3.145   0.709   0.947 -0.8493 -0.4770 -2.0496
 2143SOL     OW 6427   3.136   1.024   0.125  0.5433  0.2082  0.0631
 2143SOL    HW1 6428   3.089   0.963   0.067  0.2751 -1.6693  2.1014
 2143SOL    HW2 6429   3.087   1.106   0.119  0.1530 -0.1060 -1.8220
 2144SOL     OW 6430   0.234   0.163   2.211  0.0127 -0.8892 -0.7646
 2144SOL    HW1 6431   0.249   0.158   2.305 -0.7062 -1.1011 -0.6567
 2144SOL    HW2 6432   0.306   0.113   2.172  2.8078  2.5602 -0.5859
 2145SOL     OW 6433   1.937   3.169   2.545  0.5715  0.5992  0.1432
 2145SOL    HW1 6434   1.870   3.173   2.477  0.4558  0.9974  0.2766
 2145SOL    HW2 6435   1.980   3.254   2.542  0.1925  0.8360  0.9291
 2146SOL     OW 6436   0.082   2.694   0.862 -0.0559  0.2572 -0.5112
 2146SOL    HW1 6437   0.105   2.772   0.912 -2.0624  0.8808 -0.4971
 2146SOL    HW2 6438   0.109   2.621   0.919 -2.9989  0.9191  1.9682
 2147SOL     OW 6439   1.629   3.336   3.708  0.5996 -0.2028 -0.0183
 2147SOL    HW1 6440   1.620   3.423   3.746 -0.9663  0.1388 -1.1100
 2147SOL    HW2 6441   1.668   3.351   3.622  0.4244 -0.5893 -0.1661
 2148SOL     OW 6442   2.540   1.751   0.827  0.3541  0.9130  0.1123
 2148SOL    HW1 6443   2.614   1.692   0.841  0.3031  1.4126  3.1985
 2148SOL    HW2 6444   2.578   1.839   0.834 -0.4619  1.1743  1.6075
 2149SOL     OW 6445   1.219   2.852   1.349 -0.2231  0.2585  0.1776
 2149SOL    HW1 6446   1.217   2.777   1.409 -0.0888 -0.9304 -1.2483
 2149SOL    HW2 6447   1.155   2.831   1.282  2.1235 -0.2141 -2.0818
 2150SOL     OW 6448   3.779   2.997   1.010  0.1269 -0.2056 -0.1942
 2150SOL    HW1 6449   3.787   2.909   0.973 -3.5192 -0.3798 -1.0248
 2150SOL    HW2 6450   3.758   2.983   1.102  1.8614 -0.0624  0.2458
 2151SOL     OW 6451   0.915   0.364   0.471  0.4990  0.0840  0.5015
 2151SOL    HW1 6452   0.882   0.409   0.549  1.8731  0.5129  0.8756
 2151SOL    HW2 6453   0.958   0.286   0.505  1.6284  0.5770  0.2600
 2152SOL     OW 6454   2.520   1.783   0.407 -0.3363 -0.1732 -0.4563
 2152SOL    HW1 6455   2.598   1.795   0.354  1.1527 -1.0620  1.4095
 2152SOL    HW2 6456   2.456   1.743   0.348  0.6692  0.3222 -1.9470
 2153SOL     OW 6457   3.600   1.334   0.136 -0.3984  0.0607  0.0300
 2153SOL    HW1 6458   3.665   1.266   0.155 -1.1896 -0.6242  0.3548
 2153SOL    HW2 6459   3.528   1.316   0.197 -0.2789  1.7095  0.7352
 2154SOL     OW 6460   1.119   3.523   2.913  0.4542  0.0534 -0.1174
 2154SOL    HW1 6461   1.082   3.609   2.893 -0.6577 -0.7025 -1.5212
 2154SOL    HW2 6462   1.052   3.461   2.884  0.0423 -1.3035  3.2587
 2155SOL     OW 6463   3.635   0.037   0.515 -0.2265 -0.1502 -0.4446
 2155SOL    HW1 6464   3.707   0.079   0.470 -0.8544 -0.2361 -1.5719
 2155SOL    HW2 6465   3.562   0.098   0.507 -0.4559 -0.3328  0.1464
 2156SOL     OW 6466   2.473   0.942   1.154  0.0325 -0.4074 -0.2494
 2156SOL    HW1 6467   2.430   0.991   1.224 -0.5165 -0.1110 -0.7820
 2156SOL    HW2 6468   2.452   0.991   1.074 -2.0129 -2.3944 -1.0527
 2157SOL     OW 6469   0.601   3.263   0.350  0.0354  0.0794  0.2006
 2157SOL    HW1 6470   0.651   3.269   0.431 -1.1974  0.7846  0.9475
 2157SOL    HW2 6471   0.661   3.222   0.288  1.9758  2.0225  0.6595
 2158SOL     OW 6472   1.889   2.594   1.296  0.3105 -0.7053 -0.5472
 2158SOL    HW1 6473   1.955   2.605   1.364 -0.6102  1.4907  0.0877
 2158SOL    HW2 6474   1.926   2.636   1.219 -1.1342  2.7491  0.4500
 2159SOL     OW 6475   2.209   0.014   2.036  0.4190  0.5845  0.4775
 2159SOL    HW1 6476   2.207   0.109   2.040  1.4565  0.6457  0.0406
 2159SOL    HW2 6477   2.274  -0.011   2.101 -0.4738  0.1136  1.2052
 2160SOL     OW 6478   2.902   0.669   1.245 -0.2968  0.5512  0.2519
 2160SOL    HW1 6479   2.846   0.743   1.220 -0.1396 -0.1550 -2.5167
 2160SOL    HW2 6480   2.873   0.597   1.189  1.0086 -0.8905  1.3345
 2161SOL     OW 6481   2.447   1.770   1.808  1.0478  0.5152  0.5156
 2161SOL    HW1 6482   2.363   1.801   1.774 -0.1675 -1.0345  1.9698
 2161SOL    HW2 6483   2.504   1.768   1.731 -1.4776 -2.5079 -1.5359
 2162SOL     OW 6484   2.749   1.382   1.390 -1.1450  0.1399 -0.8246
 2162SOL    HW1 6485   2.769   1.475   1.384 -1.4358  0.3241  0.5264
 2162SOL    HW2 6486   2.662   1.373   1.351 -1.0571  0.4204 -1.0795
 2163SOL     OW 6487   3.269   2.075   1.479  0.6835  0.3360 -0.3350
 2163SOL    HW1 6488   3.189   2.105   1.522 -1.0848 -2.7204 -1.1740
 2163SOL    HW2 6489   3.339   2.091   1.543 -0.7541  2.0347  0.8949
 2164SOL     OW 6490   1.802   0.413   2.215 -0.7879 -0.3871  0.1011
 2164SOL    HW1 6491   1.786   0.335   2.268 -1.3750 -0.7464 -0.5847
 2164SOL    HW2 6492   1.860   0.383   2.144 -2.7918 -0.7896 -1.4709
 2165SOL     OW 6493   0.748   3.266   0.686 -0.0304 -0.1122  0.6910
 2165SOL    HW1 6494   0.766   3.358   0.666 -0.2805 -0.0588  0.7050
 2165SOL    HW2 6495   0.834   3.228   0.703  0.3108 -0.3612 -1.3490
   4.00000   4.00000   4.00000
