Water Box for Fluid Dynamics Phase 2 in water
 6495
    1SOL     OW    1   1.291   2.786   1.641  1.0588 -0.1859 -0.3499
    1SOL    HW1    2   1.356   2.814   1.705  0.3658 -1.7522  1.1181
    1SOL    HW2    3   1.244   2.866   1.618 -0.3890  0.1363  3.1413
    2SOL     OW    4   2.683   2.804   3.243  0.1514 -0.2699  0.0723
    2SOL    HW1    5   2.671   2.810   3.149 -0.3227 -0.5463  0.1141
    2SOL    HW2    6   2.739   2.880   3.265  0.2314 -0.1843 -0.4172
    3SOL     OW    7   0.376   3.610   1.827 -0.4132  0.8616  0.6563
    3SOL    HW1    8   0.449   3.558   1.862 -0.1809 -0.2680 -1.3133
    3SOL    HW2    9   0.305   3.547   1.817  0.0959  0.6443 -2.4652
    4SOL     OW   10   2.771   0.855   3.930 -0.4232  0.1079  0.0209
    4SOL    HW1   11   2.743   0.894   4.013  0.3891  1.6935 -0.4159
    4SOL    HW2   12   2.855   0.896   3.911  1.3704 -3.1040  0.3319
    5SOL     OW   13   2.157   1.383   1.298 -0.0589 -0.2454  0.7560
    5SOL    HW1   14   2.211   1.391   1.219 -1.8187  3.3672 -0.2812
    5SOL    HW2   15   2.160   1.290   1.319  2.1544 -1.0540 -2.3417
    6SOL     OW   16   0.743   1.777   1.715 -0.0478 -0.0302 -1.0282
    6SOL    HW1   17   0.730   1.872   1.722 -1.0225 -0.1219 -1.3913
    6SOL    HW2   18   0.822   1.767   1.662  1.6942  0.5796  1.2599
    7SOL     OW   19   0.629   0.827   3.551  0.2150 -0.0995  0.4937
    7SOL    HW1   20   0.559   0.815   3.487 -0.2229 -1.3652  1.1754
    7SOL    HW2   21   0.633   0.921   3.565 -0.1886  0.1339 -0.8252
    8SOL     OW   22   2.297   3.366   2.823  0.1709  0.3732 -0.1655
    8SOL    HW1   23   2.272   3.283   2.784  0.3801 -0.4029  1.2690
    8SOL    HW2   24   2.269   3.359   2.915 -0.9999  2.3991 -0.3007
    9SOL     OW   25   0.250   1.645   1.291 -0.4373  0.6301 -0.1991
    9SOL    HW1   26   0.175   1.625   1.346  0.2393  0.4846  0.7018
    9SOL    HW2   27   0.214   1.693   1.217 -1.6207 -0.8957 -0.6370
   10SOL     OW   28   3.143   2.322   0.516  0.6584  0.3513  0.1550
   10SOL    HW1   29   3.120   2.230   0.529  0.4873  0.5188  1.1115
   10SOL    HW2   30   3.207   2.321   0.445  0.4921 -0.4877  0.0126
   11SOL     OW   31   3.736   3.407   2.237  0.5978  0.2961  0.1465
   11SOL    HW1   32   3.715   3.329   2.288  1.3644  0.9124  1.4644
   11SOL    HW2   33   3.658   3.462   2.244  0.4244  0.0646  0.0330
   12SOL     OW   34   0.417   1.828   0.016 -0.2488 -0.2865  0.4924
   12SOL    HW1   35   0.420   1.850   0.109 -1.0702  1.4323  0.1590
   12SOL    HW2   36   0.377   1.905  -0.025  2.3121  0.0610 -1.6151
   13SOL     OW   37   1.739   3.345   2.654 -0.5779 -0.9120  0.3372
   13SOL    HW1   38   1.662   3.336   2.598  0.7125  1.1242 -1.9679
   13SOL    HW2   39   1.739   3.437   2.680  1.7303 -0.5007 -0.8703
   14SOL     OW   40   3.409   1.345   1.392  0.4460  0.2769  0.2858
   14SOL    HW1   41   3.500   1.352   1.420  0.2156  0.3720  1.0410
   14SOL    HW2   42   3.365   1.417   1.438 -0.1946 -0.3711  0.7017
   15SOL     OW   43   0.466   0.979   1.649  1.0250  0.4916 -0.3462
   15SOL    HW1   44   0.527   1.014   1.713  0.1780  2.3493 -0.4829
   15SOL    HW2   45   0.521   0.942   1.580  2.0156  2.1152 -0.4737
   16SOL     OW   46   2.920   3.176   3.563  0.5628  0.2536  0.0120
   16SOL    HW1   47   2.998   3.184   3.618  0.2673 -0.2530  0.5121
   16SOL    HW2   48   2.875   3.260   3.572  1.7782  1.1223 -1.4305
   17SOL     OW   49   1.694   2.859   2.387 -0.7694  0.7829 -1.0007
   17SOL    HW1   50   1.730   2.777   2.353 -3.3683  0.3538 -3.0067
   17SOL    HW2   51   1.666   2.838   2.476  0.3032  0.0748 -0.8127
   18SOL     OW   52   1.302   2.365   3.684  0.5962 -0.4247  0.5161
   18SOL    HW1   53   1.361   2.292   3.700  3.0034  1.5963  1.6366
   18SOL    HW2   54   1.338   2.410   3.608  0.4471  0.7477  1.1013
   19SOL     OW   55   2.279   1.414   3.008 -0.5477 -0.4558  0.5027
   19SOL    HW1   56   2.346   1.455   3.062 -0.0301  0.5879 -0.8781
   19SOL    HW2   57   2.196   1.451   3.039 -0.1927  0.6917  0.0990
   20SOL     OW   58   2.516   1.617   1.611 -0.6627  0.2801  0.2012
   20SOL    HW1   59   2.513   1.569   1.694  0.3065 -1.6432 -0.8155
   20SOL    HW2   60   2.602   1.659   1.610 -1.1195  1.2832  0.6330
   21SOL     OW   61   3.650   2.022   0.831  0.4071 -0.0159 -0.5509
   21SOL    HW1   62   3.688   2.016   0.919 -0.0354  1.1240 -0.2491
   21SOL    HW2   63   3.605   1.939   0.818  1.4850 -0.6651 -0.1927
   22SOL     OW   64   1.634   1.963   1.974  0.3716 -0.0298 -0.3299
   22SOL    HW1   65   1.700   1.963   1.905 -0.8131  2.7751 -1.6219
   22SOL    HW2   66   1.555   1.996   1.931 -1.0175 -0.2964  1.8798
   23SOL     OW   67   0.977  -0.012   3.951  0.4483 -0.5913 -0.1188
   23SOL    HW1   68   1.052   0.041   3.923 -0.3659  0.5147 -0.2822
   23SOL    HW2   69   0.905   0.050   3.957 -0.6133 -1.7332 -0.5612
   24SOL     OW   70   3.483   3.170   2.841 -0.1411 -0.0396  0.0690
   24SOL    HW1   71   3.508   3.081   2.818  1.8372  0.4151  0.2770
   24SOL    HW2   72   3.429   3.200   2.767 -1.2814 -1.5417  0.2437
   25SOL     OW   73   3.379   1.966   2.345 -0.0577 -0.3703 -0.0749
   25SOL    HW1   74   3.368   2.037   2.407 -0.4522  2.8569 -3.4788
   25SOL    HW2   75   3.307   1.976   2.283  2.4678 -0.6803 -3.3448
   26SOL     OW   76   1.026   1.012   0.283 -0.1520  0.3731 -0.6384
   26SOL    HW1   77   1.039   0.961   0.364 -0.0706  0.7681 -0.4032
   26SOL    HW2   78   1.093   1.079   0.286 -1.9600  2.2394  0.4266
   27SOL     OW   79   0.785   3.639   0.096  0.0744  0.1314 -0.0516
   27SOL    HW1   80   0.745   3.640   0.183  0.8588  0.6198  0.3125
   27SOL    HW2   81   0.754   3.557   0.057  0.0273 -0.2871  0.8259
   28SOL     OW   82   1.125   2.666   1.494  0.2349 -0.4429  0.5166
   28SOL    HW1   83   1.156   2.716   1.569  0.6787 -0.0917  0.1012
   28SOL    HW2   84   1.041   2.629   1.523  1.2665 -1.8604  1.8531
   29SOL     OW   85   0.628   0.871   0.243  0.8020 -0.0061  0.1905
   29SOL    HW1   86   0.592   0.849   0.158 -1.4655  1.5157  0.6724
   29SOL    HW2   87   0.721   0.887   0.226  1.2500 -3.4227 -1.2195
   30SOL     OW   88   3.809   0.571   2.879 -0.6215 -0.1306 -0.0893
   30SOL    HW1   89   3.714   0.578   2.891 -0.5539  4.1219 -0.7228
   30SOL    HW2   90   3.822   0.572   2.785  0.0530  1.4987 -0.0153
   31SOL     OW   91   1.066   2.911   0.837 -0.6275 -0.7884  0.4482
   31SOL    HW1   92   1.046   3.004   0.836  1.6036 -0.2312 -1.4974
   31SOL    HW2   93   1.074   2.889   0.930  1.2425  1.5833  0.9492
   32SOL     OW   94   1.316   0.647   1.756  0.0538  0.1797  0.3172
   32SOL    HW1   95   1.294   0.554   1.767 -2.2924  0.4632 -1.4282
   32SOL    HW2   96   1.278   0.690   1.833 -3.0381  0.2223 -1.0940
   33SOL     OW   97   2.611   2.328   0.452  0.0717 -0.6222 -0.1202
   33SOL    HW1   98   2.657   2.388   0.393 -2.9421  0.8300 -1.1842
   33SOL    HW2   99   2.532   2.303   0.405 -1.7114 -0.6779  2.6561
   34SOL     OW  100   2.164   1.913   0.728  0.2547  0.9531 -0.1828
   34SOL    HW1  101   2.092   1.871   0.681 -1.7379  1.9982  1.7363
   34SOL    HW2  102   2.219   1.840   0.757 -1.0178 -0.0554 -0.1830
   35SOL     OW  103   1.133   2.226   3.534  0.3289  0.1502  0.0491
   35SOL    HW1  104   1.204   2.216   3.470 -0.0413 -2.0188 -0.1019
   35SOL    HW2  105   1.176   2.255   3.614  0.6742  4.0912 -1.3669
   36SOL     OW  106   3.618   3.834   0.780 -0.3195  0.6290  0.2072
   36SOL    HW1  107   3.595   3.873   0.696 -1.9908 -0.9569 -0.1532
   36SOL    HW2  108   3.553   3.765   0.792  1.7807 -1.2703  1.3164
   37SOL     OW  109   0.145   2.477   0.522  0.2543  0.2837  0.2687
   37SOL    HW1  110   0.072   2.513   0.571 -2.0685 -0.1598 -2.5745
   37SOL    HW2  111   0.157   2.389   0.556 -0.7938  0.2401  0.5328
   38SOL     OW  112   1.322   0.827   1.289 -0.1997  0.0328 -0.2847
   38SOL    HW1  113   1.329   0.732   1.278  0.0108  0.1735 -1.5167
   38SOL    HW2  114   1.412   0.859   1.281 -0.1853  0.2877  0.7776
   39SOL     OW  115   1.014   0.737   3.523  0.8324  0.5585  0.2026
   39SOL    HW1  116   1.103   0.765   3.544  1.1919 -1.6617  2.0574
   39SOL    HW2  117   1.011   0.645   3.550 -1.6588  0.2020 -1.0079
   40SOL     OW  118   1.235   2.380   1.853 -0.4574  0.2902 -0.4998
   40SOL    HW1  119   1.319   2.380   1.807  0.2342 -0.3317  0.7342
   40SOL    HW2  120   1.243   2.449   1.918 -0.9438  0.2983 -0.4468
   41SOL     OW  121   3.244   0.016   2.539  0.1594 -1.0123  0.1749
   41SOL    HW1  122   3.335   0.044   2.526 -0.4747  0.8054 -0.6831
   41SOL    HW2  123   3.232   0.017   2.634  1.4784 -2.9000  0.4109
   42SOL     OW  124   2.452   0.142   0.684 -0.2401 -0.7692  0.2089
   42SOL    HW1  125   2.509   0.132   0.608  0.4098 -0.8593  0.7024
   42SOL    HW2  126   2.495   0.092   0.754 -1.3260 -1.5077  0.3793
   43SOL     OW  127   1.371   3.064   3.865  0.4431  0.1278 -0.0221
   43SOL    HW1  128   1.393   3.127   3.796 -1.6250  0.6450 -0.2787
   43SOL    HW2  129   1.332   3.117   3.935  0.1785 -0.6772  0.4551
   44SOL     OW  130   1.738   0.946   2.351 -0.6539 -0.1069  0.5393
   44SOL    HW1  131   1.810   1.009   2.351  0.1687 -1.0116 -0.4981
   44SOL    HW2  132   1.664   0.994   2.388  0.3868  0.9386  1.3386
   45SOL     OW  133   1.384   3.903   2.942 -0.3175  0.4867  0.0069
   45SOL    HW1  134   1.383   3.831   2.879  2.4903  0.1618  0.2371
   45SOL    HW2  135   1.350   3.978   2.893 -1.1745 -0.4641 -0.9031
   46SOL     OW  136   1.565   3.089   2.195 -0.2457  0.1493 -0.0657
   46SOL    HW1  137   1.561   3.023   2.125  1.2340 -0.2480  0.2077
   46SOL    HW2  138   1.578   3.039   2.275  0.9563  0.7637  0.1412
   47SOL     OW  139   2.353   2.823   1.577 -0.0541  0.1837 -0.2535
   47SOL    HW1  140   2.444   2.801   1.596 -0.6589 -3.0630 -0.5877
   47SOL    HW2  141   2.309   2.818   1.662 -0.4440 -1.3396 -0.5313
   48SOL     OW  142   2.847   1.343   0.222  0.0786 -0.7003 -0.0766
   48SOL    HW1  143   2.888   1.343   0.135  0.1517 -0.8358 -0.0414
   48SOL    HW2  144   2.894   1.276   0.271  0.1384 -0.5176  0.1149
   49SOL     OW  145   2.256   0.648   2.082 -0.1927 -0.4927  0.1323
   49SOL    HW1  146   2.314   0.574   2.103  1.0006  0.3995  0.1229
   49SOL    HW2  147   2.212   0.621   2.001 -1.7824 -2.2642  1.4980
   50SOL     OW  148   0.525   2.530   2.539  0.0923  0.4717 -0.2442
   50SOL    HW1  149   0.574   2.609   2.515  2.6166 -1.0414 -0.3722
   50SOL    HW2  150   0.478   2.506   2.459  1.0880  0.6153 -0.8869
   51SOL     OW  151   0.861   2.023   1.203 -0.7105 -0.0395 -0.1107
   51SOL    HW1  152   0.853   1.990   1.113 -1.0752 -1.4887  0.4288
   51SOL    HW2  153   0.949   2.058   1.207 -0.8375  0.4559 -1.1624
   52SOL     OW  154   2.996   3.086   0.082 -0.5073  0.2435 -0.0057
   52SOL    HW1  155   2.914   3.131   0.061 -0.5978  1.2259  2.1688
   52SOL    HW2  156   2.969   2.996   0.103 -1.1614  0.7264  1.3362
   53SOL     OW  157   1.126   3.148   2.918  0.3239 -0.7438  0.1605
   53SOL    HW1  158   1.110   3.087   2.846  2.4247 -1.1649 -0.0227
   53SOL    HW2  159   1.213   3.124   2.950 -0.8194 -1.1112  3.3858
   54SOL     OW  160   3.343   3.337   0.430  1.1803  0.1038 -0.6150
   54SOL    HW1  161   3.341   3.274   0.502 -3.0662  0.3156 -0.2834
   54SOL    HW2  162   3.348   3.422   0.473 -0.1256  0.1791 -0.5650
   55SOL     OW  163   2.534   3.834   1.439 -1.2297 -0.8974 -0.6099
   55SOL    HW1  164   2.507   3.806   1.526 -0.0278  2.6501  1.0927
   55SOL    HW2  165   2.628   3.818   1.437 -0.6113  2.0317  0.2026
   56SOL     OW  166   2.710   2.716   2.118 -0.1603 -0.3577  0.7289
   56SOL    HW1  167   2.749   2.776   2.182 -1.3075 -2.2687  3.4017
   56SOL    HW2  168   2.624   2.695   2.154 -0.7926 -1.7095 -1.3866
   57SOL     OW  169   1.413   2.762   2.713  0.7380  0.1530  0.1400
   57SOL    HW1  170   1.402   2.750   2.807 -1.1045 -2.4917 -0.3022
   57SOL    HW2  171   1.504   2.736   2.695  0.0346 -3.2213  0.7973
   58SOL     OW  172   1.859   1.932   0.981 -0.3331 -0.8008  0.2047
   58SOL    HW1  173   1.911   2.012   0.979  1.1571 -1.7352 -0.1810
   58SOL    HW2  174   1.922   1.862   0.962 -2.1524 -1.7613 -3.0708
   59SOL     OW  175   2.744   0.579   2.095 -0.9384 -0.0179  0.4078
   59SOL    HW1  176   2.829   0.562   2.135 -0.8922 -2.5402 -0.5371
   59SOL    HW2  177   2.708   0.654   2.143 -0.3116 -1.9183  4.2057
   60SOL     OW  178   0.373   0.385   1.346  0.5693  0.4702 -0.4424
   60SOL    HW1  179   0.396   0.471   1.311 -0.8228  0.8026 -0.5966
   60SOL    HW2  180   0.306   0.352   1.286 -0.9118  0.4835  1.1290
   61SOL     OW  181   3.165   1.783   1.516  0.0507  0.2773  0.3016
   61SOL    HW1  182   3.203   1.758   1.600 -0.1112 -0.2061  0.2334
   61SOL    HW2  183   3.071   1.789   1.533 -0.3546 -2.5059 -0.4439
   62SOL     OW  184   2.635   1.127   0.271  0.2484 -0.1911 -0.3077
   62SOL    HW1  185   2.705   1.188   0.251  0.3170 -1.0355 -3.0157
   62SOL    HW2  186   2.561   1.156   0.217 -1.1938  0.0202  1.6383
   63SOL     OW  187   2.262   2.653   2.508 -0.4729  0.0708 -0.3027
   63SOL    HW1  188   2.243   2.567   2.544  1.2137 -0.2681 -0.1537
   63SOL    HW2  189   2.206   2.713   2.558 -1.3560 -0.8765 -0.1272
   64SOL     OW  190   2.703   2.363   0.871 -0.8792  0.4149  0.1419
   64SOL    HW1  191   2.770   2.429   0.851  0.5331 -1.2442 -0.9216
   64SOL    HW2  192   2.704   2.356   0.966 -0.5150  1.3776  0.2227
   65SOL     OW  193   1.008   1.326   3.261  0.5584  0.0694 -0.4261
   65SOL    HW1  194   0.953   1.249   3.279 -0.4524  0.7796 -0.4093
   65SOL    HW2  195   1.001   1.339   3.167 -1.1474  1.4824 -0.1526
   66SOL     OW  196   0.045   0.437   0.043  0.1114  0.0498  0.3850
   66SOL    HW1  197  -0.018   0.365   0.045 -1.1275  1.1024  1.5839
   66SOL    HW2  198  -0.008   0.515   0.061  1.3502  1.3233 -1.2032
   67SOL     OW  199   0.341   1.766   1.757 -0.0968 -0.6399  0.2424
   67SOL    HW1  200   0.262   1.713   1.766  0.6004 -1.8564 -0.4468
   67SOL    HW2  201   0.338   1.799   1.668  0.0919 -0.5835  0.2553
   68SOL     OW  202   0.218   0.374   1.120  0.5659 -0.8400 -0.7789
   68SOL    HW1  203   0.186   0.287   1.145 -1.1189 -0.0630 -0.1163
   68SOL    HW2  204   0.140   0.421   1.092  1.1196  1.1031  0.7448
   69SOL     OW  205   0.721   2.794   0.933 -1.1811  0.1943 -0.2431
   69SOL    HW1  206   0.648   2.855   0.925  1.2338  3.2598 -0.4987
   69SOL    HW2  207   0.761   2.794   0.846 -0.6437 -1.2353 -0.0296
   70SOL     OW  208   2.586   2.575   1.043 -0.7144  0.1042  0.3306
   70SOL    HW1  209   2.618   2.494   1.082  0.4316  0.7361  0.7546
   70SOL    HW2  210   2.625   2.577   0.956  0.7753  1.0396  0.9701
   71SOL     OW  211   0.778   3.737   3.498  0.3971  0.3876  0.1891
   71SOL    HW1  212   0.766   3.646   3.470 -2.1742  0.9426 -0.8012
   71SOL    HW2  213   0.844   3.772   3.439 -0.3600 -0.2065 -1.0435
   72SOL     OW  214   2.795   0.266   3.367  0.1352  1.0504  0.0402
   72SOL    HW1  215   2.714   0.245   3.319  1.5864 -1.6011 -1.4492
   72SOL    HW2  216   2.768   0.268   3.459 -1.6765  0.5297 -0.4328
   73SOL     OW  217   1.538   3.080   2.519 -0.1630 -0.3131  0.2113
   73SOL    HW1  218   1.474   3.009   2.519 -2.1211  1.1882 -3.3081
   73SOL    HW2  219   1.614   3.044   2.565 -1.8497 -3.8346  0.5597
   74SOL     OW  220   3.467   0.318   3.027  0.6615 -0.5119 -0.4458
   74SOL    HW1  221   3.544   0.373   3.017  0.2740  0.2608  0.6091
   74SOL    HW2  222   3.395   0.371   2.992  0.1855 -0.0492  1.1573
   75SOL     OW  223   3.824   2.241   0.772 -0.1956  0.3857  0.4262
   75SOL    HW1  224   3.742   2.287   0.786 -0.0462  0.5401  0.8232
   75SOL    HW2  225   3.813   2.157   0.817  0.5914  1.2192  2.2927
   76SOL     OW  226   3.222   0.643   3.625 -0.4491  0.1052 -1.1573
   76SOL    HW1  227   3.262   0.644   3.538  2.0789  0.7739 -0.0703
   76SOL    HW2  228   3.294   0.624   3.685 -2.1895 -0.7774  0.8019
   77SOL     OW  229   3.878   3.696   2.029  0.4234  0.0054 -0.1437
   77SOL    HW1  230   3.803   3.685   1.970 -1.5105  3.6055  1.3420
   77SOL    HW2  231   3.918   3.779   2.003  2.0606 -0.3539  1.0424
   78SOL     OW  232   1.645   2.169   1.747  0.3322 -0.4268  0.5822
   78SOL    HW1  233   1.577   2.235   1.734  0.6375 -0.3356 -0.7018
   78SOL    HW2  234   1.604   2.086   1.724 -0.0107 -0.6967  2.0660
   79SOL     OW  235   0.222   3.082   2.493 -0.2432 -0.0512  0.0086
   79SOL    HW1  236   0.199   3.174   2.509  0.9147  0.5280 -1.4428
   79SOL    HW2  237   0.163   3.033   2.550 -0.5716  1.5989  1.1717
   80SOL     OW  238   3.687   2.038   2.288  0.1845 -0.3789  0.1709
   80SOL    HW1  239   3.593   2.037   2.269  0.0773 -0.6617  0.7111
   80SOL    HW2  240   3.718   1.951   2.263 -0.3126 -1.4782  2.9557
   81SOL     OW  241   0.395   1.595   0.250 -0.2267  0.5203 -0.2074
   81SOL    HW1  242   0.346   1.532   0.197 -0.4879  0.0899  0.5231
   81SOL    HW2  243   0.346   1.677   0.241 -1.7306 -0.1461  1.3347
   82SOL     OW  244   0.336   3.857   3.081  0.8953 -0.3881 -0.2357
   82SOL    HW1  245   0.292   3.924   3.133 -2.8967 -2.3109 -0.6571
   82SOL    HW2  246   0.366   3.793   3.146  0.2483 -0.5589 -0.0961
   83SOL     OW  247   2.522   3.074   1.447 -0.1671 -0.2124  0.3108
   83SOL    HW1  248   2.544   3.123   1.368  0.4360  0.3296  0.8013
   83SOL    HW2  249   2.595   3.013   1.458 -2.2518 -3.4476 -1.9634
   84SOL     OW  250   0.814   1.235   0.352 -0.2060  0.8692 -0.3167
   84SOL    HW1  251   0.808   1.228   0.447 -0.7147 -2.8421 -0.4953
   84SOL    HW2  252   0.908   1.246   0.335 -0.1462  1.9164  0.5592
   85SOL     OW  253   1.805   2.140   2.816 -0.6381  0.4552  0.2532
   85SOL    HW1  254   1.891   2.178   2.796  0.0522 -0.6564  1.0334
   85SOL    HW2  255   1.749   2.216   2.834 -0.1815  1.2637 -1.5189
   86SOL     OW  256   2.662   2.636   1.299 -0.5442  0.0780  0.1647
   86SOL    HW1  257   2.596   2.581   1.342 -0.1388 -0.8714 -0.3896
   86SOL    HW2  258   2.634   2.638   1.207  0.4390 -0.7177 -0.1652
   87SOL     OW  259   0.705   3.945   0.156  0.5059  0.3827 -0.1842
   87SOL    HW1  260   0.703   3.947   0.251 -4.5894  1.5144 -0.0250
   87SOL    HW2  261   0.678   3.856   0.133  2.5720 -0.1630 -0.7038
   88SOL     OW  262   0.816   2.790   0.678  0.7078  0.2460 -0.2760
   88SOL    HW1  263   0.783   2.823   0.594  0.4736  1.5333  0.2955
   88SOL    HW2  264   0.894   2.739   0.655  0.3044  0.0810 -1.3281
   89SOL     OW  265   3.965   2.649   3.393 -0.5638 -0.0818  0.1312
   89SOL    HW1  266   3.906   2.575   3.389 -2.2634  1.1927  0.5271
   89SOL    HW2  267   4.049   2.615   3.361 -1.4234 -2.0024 -0.1962
   90SOL     OW  268   1.469   0.366   0.865 -0.0819 -0.9237 -0.2841
   90SOL    HW1  269   1.450   0.424   0.792 -1.2907 -1.4469 -0.4103
   90SOL    HW2  270   1.510   0.289   0.826  1.3176 -0.2759 -0.1411
   91SOL     OW  271   0.571   2.957   3.821 -0.5835  0.0151  0.3286
   91SOL    HW1  272   0.494   2.908   3.791  0.3363  0.0959 -2.5338
   91SOL    HW2  273   0.639   2.890   3.832  0.1758  0.3124 -1.8635
   92SOL     OW  274   0.575   1.152   0.224  0.1465 -1.0521  0.1681
   92SOL    HW1  275   0.640   1.221   0.211 -1.1053 -0.1829 -1.8778
   92SOL    HW2  276   0.627   1.072   0.234  1.5538 -0.2243 -0.2733
   93SOL     OW  277   2.041   0.216   1.535 -0.1202 -0.6809  0.1509
   93SOL    HW1  278   2.001   0.222   1.448 -1.9956  0.8231  1.0287
   93SOL    HW2  279   2.132   0.241   1.521 -0.2640 -0.9344 -1.4477
   94SOL     OW  280   1.177   0.754   1.559  0.0297  0.7784 -0.3150
   94SOL    HW1  281   1.246   0.712   1.611 -2.0456  0.3221  2.3197
   94SOL    HW2  282   1.189   0.847   1.575  1.5537  0.9045 -1.9996
   95SOL     OW  283   1.651   2.354   0.581  0.2001 -0.2786  0.1068
   95SOL    HW1  284   1.594   2.421   0.619 -0.1461  0.9899 -2.4201
   95SOL    HW2  285   1.722   2.344   0.644 -1.0842  0.5382  1.7733
   96SOL     OW  286   2.787   1.004   2.904  0.3747  0.0836 -0.4899
   96SOL    HW1  287   2.851   1.050   2.958  0.7681 -1.0703  0.0520
   96SOL    HW2  288   2.804   0.911   2.921 -1.6821 -0.2554 -0.0208
   97SOL     OW  289   0.159   1.394   0.574  0.6039 -0.7005 -0.0618
   97SOL    HW1  290   0.232   1.332   0.572  0.3324 -1.0061 -1.2388
   97SOL    HW2  291   0.198   1.478   0.551  0.6574 -0.7952 -0.3273
   98SOL     OW  292   3.594   3.134   3.104  0.0462  0.2046 -0.5871
   98SOL    HW1  293   3.507   3.166   3.079 -0.4632  0.8741  1.7433
   98SOL    HW2  294   3.642   3.212   3.129  0.7230 -0.3153 -0.2313
   99SOL     OW  295   0.019   2.509   2.767 -0.2451 -0.5609 -0.3044
   99SOL    HW1  296  -0.054   2.517   2.705 -0.3949  2.5994  0.1360
   99SOL    HW2  297   0.096   2.529   2.715 -0.0008 -1.0226 -0.1241
  100SOL     OW  298   1.418   0.675   2.668 -0.4714  0.7989 -0.8813
  100SOL    HW1  299   1.478   0.617   2.715 -1.7973 -0.1456 -0.2939
  100SOL    HW2  300   1.395   0.742   2.732  0.4666  1.5577 -1.3216
  101SOL     OW  301   2.350   2.721   0.447  0.0076 -0.4150 -0.0986
  101SOL    HW1  302   2.287   2.774   0.398  1.1000  1.3402  0.3037
  101SOL    HW2  303   2.418   2.699   0.382  0.6252  0.5251  0.2021
  102SOL     OW  304   0.858   2.827   1.388  1.0633 -0.4237 -1.0210
  102SOL    HW1  305   0.846   2.898   1.325  0.7404 -1.1651 -1.8267
  102SOL    HW2  306   0.952   2.814   1.392  1.0644 -0.6698 -1.7117
  103SOL     OW  307   0.711   0.580   3.589 -0.1483  0.0572 -0.4910
  103SOL    HW1  308   0.669   0.541   3.666 -2.0193 -2.1575 -2.4500
  103SOL    HW2  309   0.673   0.667   3.582  0.5079  0.5390  1.3655
  104SOL     OW  310   3.297   2.430   0.953 -0.1001 -0.3919  0.7557
  104SOL    HW1  311   3.273   2.522   0.965 -0.2272 -0.7752  4.4968
  104SOL    HW2  312   3.367   2.432   0.888  1.0374  2.5523  1.9158
  105SOL     OW  313   1.796   0.651   0.549  0.4832 -0.2596  0.8933
  105SOL    HW1  314   1.717   0.649   0.602 -1.6412  3.3688 -1.6584
  105SOL    HW2  315   1.857   0.706   0.598 -0.1982  0.3427  1.0747
  106SOL     OW  316   3.387   2.021   1.713  0.7117 -0.0721 -0.0320
  106SOL    HW1  317   3.321   1.960   1.746 -2.8846  1.5281 -3.3332
  106SOL    HW2  318   3.389   2.005   1.618  4.1554  0.9867 -0.2796
  107SOL     OW  319   0.135   3.474   0.899  0.3398 -0.4238 -0.2095
  107SOL    HW1  320   0.147   3.388   0.939  1.0338 -0.6794 -0.9371
  107SOL    HW2  321   0.102   3.529   0.970 -3.1537 -1.9913 -0.3924
  108SOL     OW  322   2.614   2.371   3.338  0.7022  0.2609 -0.0597
  108SOL    HW1  323   2.681   2.440   3.341  0.8201  0.1885 -0.8934
  108SOL    HW2  324   2.532   2.419   3.327  0.6932  0.3036  0.1703
  109SOL     OW  325   3.127   2.597   3.887  0.0702 -0.0245  0.0149
  109SOL    HW1  326   3.135   2.511   3.844  0.5454  0.4908 -0.9777
  109SOL    HW2  327   3.184   2.654   3.835 -2.4585  1.5792 -1.2036
  110SOL     OW  328   0.250   3.894   0.475  0.2063 -0.2998  0.5773
  110SOL    HW1  329   0.272   3.967   0.533  2.0917 -1.2055  1.0904
  110SOL    HW2  330   0.262   3.929   0.387  1.0140  0.0482  0.8151
  111SOL     OW  331   1.634   2.971   3.860 -0.3026  0.4936  0.7934
  111SOL    HW1  332   1.543   2.967   3.887 -0.3697 -0.4889  0.4662
  111SOL    HW2  333   1.671   2.886   3.884 -0.2163 -0.2114 -1.5603
  112SOL     OW  334   1.557   0.634   0.768  0.0130  0.0205 -0.2423
  112SOL    HW1  335   1.521   0.715   0.802  0.1001  0.0808 -0.2936
  112SOL    HW2  336   1.502   0.612   0.693 -2.1643 -1.7383  1.7030
  113SOL     OW  337   3.704   2.669  -0.011  0.3066 -0.3703 -0.2214
  113SOL    HW1  338   3.737   2.759  -0.013  1.5138 -0.7323  1.4300
  113SOL    HW2  339   3.754   2.626   0.059 -0.7320 -2.1432 -0.4959
  114SOL     OW  340   2.804   3.063   3.346 -0.2003  0.0915 -0.1032
  114SOL    HW1  341   2.864   3.085   3.417  0.3262 -0.1830 -0.4517
  114SOL    HW2  342   2.731   3.125   3.356  1.2202  2.0336 -1.0310
  115SOL     OW  343   1.198   0.325   2.184 -0.5259 -0.4360 -0.2207
  115SOL    HW1  344   1.274   0.289   2.139  0.9899  0.9981  1.0536
  115SOL    HW2  345   1.123   0.291   2.135  0.9473 -0.3641 -2.7333
  116SOL     OW  346   2.983   2.172   3.160 -0.4309  0.1358  0.2512
  116SOL    HW1  347   3.017   2.261   3.169  1.2345 -0.2906 -1.2150
  116SOL    HW2  348   3.023   2.139   3.080 -3.2995 -0.9592 -0.8619
  117SOL     OW  349   3.608   0.504   1.869  0.0850 -0.2504  0.5826
  117SOL    HW1  350   3.572   0.458   1.945 -0.8892 -0.9967 -0.3020
  117SOL    HW2  351   3.653   0.437   1.819 -1.2565 -0.2658 -0.6646
  118SOL     OW  352   3.681   2.645   2.340 -1.5696 -0.8863  0.6955
  118SOL    HW1  353   3.641   2.731   2.351  0.4245  0.1251  0.5785
  118SOL    HW2  354   3.615   2.592   2.296 -2.9957  0.4508  1.1706
  119SOL     OW  355   3.384   2.868   2.589 -0.0596  0.2039  0.7917
  119SOL    HW1  356   3.337   2.924   2.651  1.0026  2.6163 -0.4319
  119SOL    HW2  357   3.431   2.805   2.644 -1.3057  0.4747  2.2414
  120SOL     OW  358   2.180   2.487   3.566 -0.1349 -0.1649 -0.2683
  120SOL    HW1  359   2.172   2.428   3.491  1.8005 -0.4323 -0.3018
  120SOL    HW2  360   2.273   2.508   3.571 -0.6502  2.3424  0.1866
  121SOL     OW  361   1.628   1.578   2.303 -1.0540  0.2889  0.3178
  121SOL    HW1  362   1.544   1.584   2.348 -1.4045 -0.7886 -0.1593
  121SOL    HW2  363   1.606   1.586   2.210 -0.2052  3.8406  0.2898
  122SOL     OW  364   0.250   3.904   3.925 -0.3814  0.0332  0.5658
  122SOL    HW1  365   0.299   3.975   3.966  1.0088 -0.3546 -0.3427
  122SOL    HW2  366   0.159   3.935   3.924  0.1178  1.5817  0.6309
  123SOL     OW  367   2.663   2.502   1.731 -0.4714 -0.3439  0.2594
  123SOL    HW1  368   2.581   2.463   1.699  1.6872 -4.6800 -0.7052
  123SOL    HW2  369   2.659   2.493   1.826 -0.1260 -3.2048  0.0940
  124SOL     OW  370   3.211   0.107   3.095  0.4502 -0.3071 -0.0904
  124SOL    HW1  371   3.212   0.181   3.035 -1.2048 -1.0746 -1.1337
  124SOL    HW2  372   3.119   0.097   3.120  1.1813  0.6656  3.5328
  125SOL     OW  373   1.111   0.698   2.554  0.4363  0.0306 -0.2320
  125SOL    HW1  374   1.104   0.631   2.486  4.1403 -1.1701  0.3343
  125SOL    HW2  375   1.204   0.719   2.557 -0.1455  2.9708  1.8029
  126SOL     OW  376   1.019   1.228   2.203 -0.1055 -0.2415 -0.4622
  126SOL    HW1  377   0.949   1.282   2.242 -0.5691 -1.5706  0.6134
  126SOL    HW2  378   0.991   1.138   2.219  2.1323 -0.8133  0.5129
  127SOL     OW  379   2.717   0.805   0.516  0.0962 -0.3988 -0.0433
  127SOL    HW1  380   2.642   0.783   0.461 -0.6277  0.0363  0.7531
  127SOL    HW2  381   2.701   0.759   0.598  0.9008 -0.6169 -0.0053
  128SOL     OW  382   2.516   2.266   3.916  0.7753 -0.4149  0.2589
  128SOL    HW1  383   2.422   2.267   3.900  0.8352  0.3646 -0.1292
  128SOL    HW2  384   2.525   2.280   4.011  0.5082 -0.1845  0.2492
  129SOL     OW  385   2.254   2.308   3.880  0.5961 -0.4318 -0.1965
  129SOL    HW1  386   2.160   2.307   3.859 -0.0276 -0.4451  2.3093
  129SOL    HW2  387   2.269   2.393   3.921  1.3720 -0.9907  0.7013
  130SOL     OW  388   1.062   1.849   1.863  0.1759  0.1017  0.2111
  130SOL    HW1  389   1.068   1.945   1.865 -0.6741  0.1733 -0.3167
  130SOL    HW2  390   1.112   1.820   1.940  2.3940  0.8609 -0.8710
  131SOL     OW  391   3.744   2.057   1.280 -0.6528 -0.0041  0.3653
  131SOL    HW1  392   3.814   1.993   1.267 -2.8727 -2.3609 -0.7492
  131SOL    HW2  393   3.790   2.138   1.301  2.5981 -0.6501 -3.1208
  132SOL     OW  394   1.366   3.252   3.250  0.4408  0.4709  0.1055
  132SOL    HW1  395   1.455   3.258   3.284  0.0363  2.1531  0.9643
  132SOL    HW2  396   1.347   3.158   3.250  3.0057 -0.2090 -2.3080
  133SOL     OW  397   3.111   1.498   3.508  0.1443 -0.1949  0.1574
  133SOL    HW1  398   3.178   1.437   3.479 -0.5334 -1.5788  1.3864
  133SOL    HW2  399   3.058   1.448   3.570 -0.1186  1.8069  1.6231
  134SOL     OW  400   3.666   3.423   2.538  0.9576  0.8764  0.3812
  134SOL    HW1  401   3.747   3.474   2.536  0.2178  2.0387 -0.7198
  134SOL    HW2  402   3.617   3.459   2.612  0.8623  1.0775  0.2187
  135SOL     OW  403   1.280   3.835   3.834 -0.3801 -0.1511  0.0431
  135SOL    HW1  404   1.260   3.884   3.913 -0.1204 -1.6087  1.0475
  135SOL    HW2  405   1.308   3.749   3.865  2.4488  0.0884 -1.4774
  136SOL     OW  406   0.271   1.593   3.145  1.2735  0.3884 -0.2993
  136SOL    HW1  407   0.291   1.584   3.238  2.6221  0.2183 -0.5804
  136SOL    HW2  408   0.257   1.687   3.133  1.3548  0.4449  0.0307
  137SOL     OW  409   3.351   2.023   1.441  0.1176 -0.4293  0.0973
  137SOL    HW1  410   3.400   2.101   1.413 -0.8060  0.1317 -0.0123
  137SOL    HW2  411   3.327   1.980   1.359  1.2694 -1.2588  0.1742
  138SOL     OW  412   0.878   0.326   2.207 -0.7089 -0.2686  0.6229
  138SOL    HW1  413   0.899   0.343   2.116 -0.0462 -1.8289  0.4407
  138SOL    HW2  414   0.793   0.282   2.204 -0.6407 -0.4105  0.7488
  139SOL     OW  415   1.005   1.412   1.647 -0.0432 -0.5170 -0.6525
  139SOL    HW1  416   1.089   1.393   1.691 -0.2963 -2.0697 -0.8029
  139SOL    HW2  417   1.013   1.504   1.620  1.2586 -0.3777  0.1055
  140SOL     OW  418   2.631   1.289   2.112  0.3061  0.1522 -0.0326
  140SOL    HW1  419   2.711   1.272   2.161  1.1501  0.8828 -1.0982
  140SOL    HW2  420   2.641   1.380   2.082 -1.2545  0.4949  0.4138
  141SOL     OW  421   1.322   0.873   2.504  0.0688  0.0836 -0.0132
  141SOL    HW1  422   1.245   0.929   2.501 -0.6199 -0.7717  0.8750
  141SOL    HW2  423   1.394   0.931   2.530 -0.3566  0.7994 -0.4211
  142SOL     OW  424   0.537   1.662   3.802  0.0417  0.8446  0.1203
  142SOL    HW1  425   0.466   1.600   3.820  0.6122 -0.0863 -0.8368
  142SOL    HW2  426   0.532   1.724   3.876 -2.3812  1.3937 -0.3922
  143SOL     OW  427   0.277   0.047   1.383 -0.5047 -0.2179 -0.3862
  143SOL    HW1  428   0.322   0.116   1.335 -1.0650 -0.1969 -0.8909
  143SOL    HW2  429   0.309  -0.034   1.343  0.8571 -0.3195  0.8119
  144SOL     OW  430   1.605   3.038   3.131 -0.4312 -1.0275  0.6527
  144SOL    HW1  431   1.576   2.960   3.180 -0.6070 -1.2637  0.1795
  144SOL    HW2  432   1.669   3.080   3.189 -2.8348  0.4060  2.4709
  145SOL     OW  433   0.850   1.879   0.965  0.4451  0.0408 -0.3228
  145SOL    HW1  434   0.882   1.800   1.008 -0.9501 -0.4722 -0.1829
  145SOL    HW2  435   0.792   1.847   0.896 -2.3375  0.8987  1.4475
  146SOL     OW  436   0.047   2.563   3.822  0.4348  0.5475  0.1463
  146SOL    HW1  437   0.038   2.473   3.793 -0.2101  0.4032  0.7589
  146SOL    HW2  438  -0.035   2.605   3.795  1.2619  1.2917 -1.2930
  147SOL     OW  439   1.898   1.385   1.852 -0.5422  0.3850  0.2002
  147SOL    HW1  440   1.823   1.381   1.792 -0.4706 -1.7480  0.2026
  147SOL    HW2  441   1.973   1.399   1.796 -0.3176 -2.7844 -0.4625
  148SOL     OW  442   1.641   0.446  -0.007 -0.1449  1.1580  0.5259
  148SOL    HW1  443   1.622   0.426   0.085 -0.7970 -2.6194 -0.2664
  148SOL    HW2  444   1.565   0.413  -0.055  2.3495 -1.8855 -1.7079
  149SOL     OW  445   1.268   1.011   1.768 -0.6655 -0.2194 -0.4781
  149SOL    HW1  446   1.199   1.076   1.753 -0.2922  0.3133  0.0846
  149SOL    HW2  447   1.242   0.967   1.849 -0.9207 -0.7956 -0.8594
  150SOL     OW  448   0.607   2.738   3.195  0.2616  0.1738  0.0537
  150SOL    HW1  449   0.639   2.764   3.281  0.8771  0.8621 -0.3737
  150SOL    HW2  450   0.685   2.737   3.140  0.8941 -5.0810  0.5053
  151SOL     OW  451   0.820   3.044   1.713 -0.1870 -0.0586  0.1939
  151SOL    HW1  452   0.890   2.982   1.695 -0.8521 -0.9390  0.5676
  151SOL    HW2  453   0.849   3.092   1.790 -0.1320 -0.6432  0.5437
  152SOL     OW  454   0.753   0.446   3.121 -0.4856 -0.1544 -0.5530
  152SOL    HW1  455   0.834   0.453   3.070  0.0513 -0.3979  0.2513
  152SOL    HW2  456   0.751   0.526   3.173 -0.7487 -0.1647 -0.5481
  153SOL     OW  457   3.370   2.432   3.685  0.1014  0.2856  0.3407
  153SOL    HW1  458   3.330   2.362   3.737 -1.1438 -0.0009 -0.9341
  153SOL    HW2  459   3.389   2.391   3.601  2.7003  0.5542  0.7169
  154SOL     OW  460   3.301   3.937   3.430  0.4018 -0.1664  0.0664
  154SOL    HW1  461   3.315   4.024   3.393 -0.0270 -0.2364 -0.2775
  154SOL    HW2  462   3.308   3.878   3.355  0.7517 -0.4327  0.3086
  155SOL     OW  463   1.499   0.659   1.490 -0.2161  0.3822 -0.1217
  155SOL    HW1  464   1.509   0.578   1.541 -0.6674  0.7192  0.5158
  155SOL    HW2  465   1.404   0.671   1.481 -0.1538  0.0611 -1.4968
  156SOL     OW  466   0.526   3.773   2.830 -0.1559 -0.2269 -0.3284
  156SOL    HW1  467   0.437   3.751   2.860 -0.6463  1.3944 -0.5004
  156SOL    HW2  468   0.513   3.834   2.758  1.0951  0.9065  0.3517
  157SOL     OW  469   0.334   3.265   0.731  0.1885  0.1755  0.0571
  157SOL    HW1  470   0.255   3.318   0.716  0.3594  0.1472 -1.0364
  157SOL    HW2  471   0.322   3.189   0.675  1.1505  0.3415 -0.3896
  158SOL     OW  472   1.998   0.443   3.089  0.8978 -0.9059 -0.1698
  158SOL    HW1  473   1.998   0.361   3.137 -1.7680 -0.7724  0.2272
  158SOL    HW2  474   1.984   0.510   3.156 -1.5543 -0.6036 -0.8795
  159SOL     OW  475   2.921   2.544   3.306  1.4901 -0.0022 -0.1223
  159SOL    HW1  476   2.870   2.625   3.313 -0.8350 -1.1345 -2.1889
  159SOL    HW2  477   2.955   2.529   3.394  2.5619  3.4926  0.1950
  160SOL     OW  478   0.822   0.502   0.141  0.6649 -0.1140 -0.0081
  160SOL    HW1  479   0.830   0.406   0.143  2.0278 -0.0185  0.1049
  160SOL    HW2  480   0.909   0.532   0.115  0.9276  1.1796  2.1425
  161SOL     OW  481   2.045   2.806   2.217  0.2698  0.3181 -0.9308
  161SOL    HW1  482   1.971   2.753   2.244 -1.0740  2.4757 -0.0871
  161SOL    HW2  483   2.072   2.770   2.133 -0.6995 -1.4996 -0.5053
  162SOL     OW  484   0.850   3.469   1.434 -0.1946 -0.6433  0.3609
  162SOL    HW1  485   0.836   3.427   1.348 -3.6246 -0.0207  0.4862
  162SOL    HW2  486   0.909   3.542   1.415 -2.8729  1.1218 -2.1566
  163SOL     OW  487   0.943   3.458   3.796 -0.3492  0.2082  0.2146
  163SOL    HW1  488   0.938   3.535   3.853 -0.9532 -1.1024  2.0463
  163SOL    HW2  489   1.035   3.432   3.799  0.5518  2.4764 -2.8351
  164SOL     OW  490   0.758   2.400   1.173  0.3773 -0.7512  0.1681
  164SOL    HW1  491   0.688   2.395   1.108  1.5840 -1.2304 -1.1577
  164SOL    HW2  492   0.720   2.450   1.245 -0.3306  1.8888 -1.8666
  165SOL     OW  493   2.921   0.445   1.531  0.0696 -0.6430  0.2376
  165SOL    HW1  494   3.012   0.458   1.505 -0.1676  0.8665  0.0579
  165SOL    HW2  495   2.916   0.479   1.620 -0.3121 -0.7278  0.2499
  166SOL     OW  496   2.899   3.325   2.789 -0.0594  0.0582 -0.3936
  166SOL    HW1  497   2.830   3.259   2.788 -0.0078  0.0088 -0.6414
  166SOL    HW2  498   2.863   3.398   2.740  0.0130  0.0847 -0.4067
  167SOL     OW  499   1.702   2.977   2.701 -0.0762 -0.0600 -0.2309
  167SOL    HW1  500   1.708   2.937   2.788 -2.1574 -1.2707 -0.5592
  167SOL    HW2  501   1.765   3.049   2.703 -0.6857  0.5306  2.6031
  168SOL     OW  502   3.379   0.846   3.411  0.5183  0.0400 -1.0186
  168SOL    HW1  503   3.290   0.875   3.389  0.1112  0.2183  0.7317
  168SOL    HW2  504   3.435   0.919   3.383 -0.0775  0.7084 -0.4981
  169SOL     OW  505   2.776   0.294   3.047  0.1973 -0.3292 -0.1517
  169SOL    HW1  506   2.829   0.297   3.127  0.4112 -0.3809 -0.2910
  169SOL    HW2  507   2.688   0.271   3.077 -0.5098  2.7733  0.4668
  170SOL     OW  508   2.696   3.902   2.440 -0.0690  0.1463  0.0576
  170SOL    HW1  509   2.658   3.871   2.522 -0.4643  0.1434 -0.1255
  170SOL    HW2  510   2.686   3.829   2.379 -1.3081  0.7248 -0.4744
  171SOL     OW  511   0.873   0.988   2.202 -0.8202 -0.4459 -0.1796
  171SOL    HW1  512   0.830   0.936   2.270 -0.6249 -1.1326 -0.5678
  171SOL    HW2  513   0.842   0.951   2.120  0.0924 -0.6110 -0.4645
  172SOL     OW  514   2.467   1.167   3.243 -0.0380 -0.5814 -0.1321
  172SOL    HW1  515   2.464   1.195   3.151 -0.3525 -1.3688 -0.3688
  172SOL    HW2  516   2.403   1.223   3.287 -0.7663 -1.0155 -0.6247
  173SOL     OW  517   2.122   1.863   2.122 -0.3538 -0.2782  0.3519
  173SOL    HW1  518   2.071   1.925   2.070 -0.5665 -0.5970  0.1802
  173SOL    HW2  519   2.156   1.800   2.058 -2.1697 -1.7902  0.7783
  174SOL     OW  520   2.862   0.047   0.072  0.1185 -0.9446  0.1908
  174SOL    HW1  521   2.836   0.013  -0.014 -0.4590  0.3691 -0.1873
  174SOL    HW2  522   2.870  -0.030   0.127 -0.3881 -1.7410 -0.8144
  175SOL     OW  523   1.155   2.775   1.263 -0.4682 -0.9277 -0.4506
  175SOL    HW1  524   1.088   2.726   1.214 -1.8446 -1.8619  2.1884
  175SOL    HW2  525   1.151   2.739   1.352  0.2171  2.2793  1.0155
  176SOL     OW  526   1.554   0.795   1.003  0.4860 -0.1314 -0.7634
  176SOL    HW1  527   1.585   0.829   1.087 -0.7774  0.6704 -0.5869
  176SOL    HW2  528   1.615   0.831   0.939 -0.3395  1.9164 -0.4956
  177SOL     OW  529   0.669   1.588   0.242  0.6872  0.0371  0.6777
  177SOL    HW1  530   0.579   1.558   0.249  0.0615  1.7843  0.4360
  177SOL    HW2  531   0.701   1.592   0.332  1.4209 -2.9881  0.6766
  178SOL     OW  532   3.819   0.598   0.017  0.4461  0.2388  0.5860
  178SOL    HW1  533   3.788   0.657   0.085 -0.1620 -1.4897  1.8655
  178SOL    HW2  534   3.745   0.590  -0.044  0.7457  1.2318  0.0678
  179SOL     OW  535   1.877   0.807   2.916 -0.7583  0.0456  0.5646
  179SOL    HW1  536   1.805   0.836   2.860  0.3765  0.9089 -0.5126
  179SOL    HW2  537   1.871   0.861   2.994 -1.6894 -0.3725  0.7829
  180SOL     OW  538   2.909   2.785   1.538 -0.7268  0.3048  0.2597
  180SOL    HW1  539   2.987   2.791   1.484 -0.5850  1.2225  0.5607
  180SOL    HW2  540   2.939   2.748   1.621 -1.0971 -2.0102 -0.5540
  181SOL     OW  541   1.790   2.680   0.454 -0.4627 -0.1906 -0.3851
  181SOL    HW1  542   1.789   2.620   0.379  1.8426 -1.3230  0.3757
  181SOL    HW2  543   1.704   2.722   0.453 -1.0504 -1.2770 -2.7499
  182SOL     OW  544   1.052   2.602   2.291  0.6498  0.1676 -0.9723
  182SOL    HW1  545   0.982   2.540   2.270  1.6454 -1.2322 -0.3171
  182SOL    HW2  546   1.132   2.554   2.274  1.4658  1.5332 -1.1064
  183SOL     OW  547   2.337   3.880   3.246 -0.3632 -0.8160 -0.2260
  183SOL    HW1  548   2.259   3.905   3.295 -0.0390  0.3718 -0.3061
  183SOL    HW2  549   2.386   3.824   3.306 -0.0895  0.4151  0.7412
  184SOL     OW  550   1.991   3.193   1.557  0.8086 -0.2064 -0.4522
  184SOL    HW1  551   1.983   3.100   1.579 -3.7818 -0.1186 -0.8861
  184SOL    HW2  552   2.032   3.232   1.634 -0.7016 -2.0985  1.4361
  185SOL     OW  553   0.641   1.420   3.370 -0.1749  1.0463 -0.0938
  185SOL    HW1  554   0.614   1.328   3.369 -0.4003  1.1044 -1.0315
  185SOL    HW2  555   0.616   1.452   3.456  1.6054 -0.2562  0.9512
  186SOL     OW  556   0.241   2.239   1.447 -0.4553 -0.5733  0.6859
  186SOL    HW1  557   0.216   2.177   1.378 -3.5886 -1.1957  2.1989
  186SOL    HW2  558   0.282   2.184   1.515  0.4058 -0.3344  0.3707
  187SOL     OW  559   3.487   1.751   3.868 -0.4088 -0.5538 -0.1970
  187SOL    HW1  560   3.405   1.739   3.820  0.4816 -1.2485 -1.5908
  187SOL    HW2  561   3.545   1.683   3.835  0.9472  0.3228  0.3018
  188SOL     OW  562   1.581   3.642   0.596  0.0558 -0.2841  0.0622
  188SOL    HW1  563   1.515   3.712   0.600 -0.1294 -0.3739 -1.1234
  188SOL    HW2  564   1.530   3.561   0.600  0.3526 -0.4655  3.2046
  189SOL     OW  565   2.273   3.057   0.956 -0.1377  0.1519  0.0857
  189SOL    HW1  566   2.250   3.086   0.868 -1.2089  0.0843  0.3337
  189SOL    HW2  567   2.306   2.968   0.944 -2.3647 -0.7195 -0.0279
  190SOL     OW  568   0.625   2.872   1.815 -0.5226 -0.2831  0.3287
  190SOL    HW1  569   0.702   2.921   1.786 -1.2797  0.7133 -0.0580
  190SOL    HW2  570   0.565   2.874   1.739 -1.3290 -0.1703  0.9494
  191SOL     OW  571   0.481   1.727   3.534  0.2843 -0.1525  0.0906
  191SOL    HW1  572   0.498   1.717   3.627  0.6291 -0.7768 -0.0376
  191SOL    HW2  573   0.566   1.748   3.495  0.0429  0.6581 -0.0103
  192SOL     OW  574   1.809   0.991   2.005  0.0079  0.0038 -0.3847
  192SOL    HW1  575   1.892   0.955   1.975 -0.4253  0.1486 -1.8626
  192SOL    HW2  576   1.765   0.919   2.049  0.4766 -0.3701 -0.5276
  193SOL     OW  577   1.393   0.158   0.548  0.2146  0.9043  0.5077
  193SOL    HW1  578   1.429   0.213   0.479  0.4784  0.1150  0.0008
  193SOL    HW2  579   1.310   0.127   0.511  0.2576  0.6481  0.6302
  194SOL     OW  580   2.893   0.125   2.662  0.1098 -0.1471 -0.1176
  194SOL    HW1  581   2.869   0.176   2.585  0.4097 -1.8199 -1.3770
  194SOL    HW2  582   2.842   0.044   2.654  2.1778 -1.5390 -0.0766
  195SOL     OW  583   0.247   2.925   2.826 -0.4811 -0.0505  0.4441
  195SOL    HW1  584   0.188   2.862   2.867 -0.6625 -0.7281 -0.8054
  195SOL    HW2  585   0.194   3.005   2.816 -1.2036 -0.6356 -0.6180
  196SOL     OW  586   3.346   1.115   3.920  0.0996  0.2776  0.5165
  196SOL    HW1  587   3.385   1.055   3.983  1.7307  1.5401  0.7929
  196SOL    HW2  588   3.300   1.180   3.974 -1.4965 -0.5637  0.2301
  197SOL     OW  589   3.918   2.971   3.738  1.1017 -0.0188  0.2584
  197SOL    HW1  590   3.913   2.875   3.733  1.1653 -0.0555  0.8170
  197SOL    HW2  591   4.010   2.990   3.756  0.8234  0.0451  1.8210
  198SOL     OW  592   0.988   2.371   3.810 -0.1383 -0.2155  0.0840
  198SOL    HW1  593   1.051   2.404   3.874  0.2231 -0.7973  0.0379
  198SOL    HW2  594   0.903   2.382   3.852  0.0304  0.1471  0.3371
  199SOL     OW  595   2.976   3.182   2.238  0.2407 -0.2653 -0.0704
  199SOL    HW1  596   3.066   3.175   2.271  0.6462 -0.7260 -1.2107
  199SOL    HW2  597   2.986   3.211   2.147 -0.7183 -0.9516 -0.4136
  200SOL     OW  598   1.624   0.947   0.754 -0.2853  0.4992  0.2133
  200SOL    HW1  599   1.534   0.966   0.727 -0.6655  1.0777  1.7866
  200SOL    HW2  600   1.678   0.983   0.683 -1.2817 -1.1557 -1.4883
  201SOL     OW  601   0.935  -0.013   2.026  0.1541 -0.5148  0.6738
  201SOL    HW1  602   0.893   0.059   2.073 -0.2344 -1.2983  1.5670
  201SOL    HW2  603   0.984   0.029   1.956  1.0663  0.7402  2.0070
  202SOL     OW  604   2.118   2.602   1.217  0.0930  0.3539  0.4249
  202SOL    HW1  605   2.135   2.671   1.281  2.2290 -0.8806  1.3070
  202SOL    HW2  606   2.136   2.521   1.264 -1.8249 -0.8141 -0.7404
  203SOL     OW  607   3.273   1.439   2.795 -0.6041  0.7332 -0.4956
  203SOL    HW1  608   3.349   1.496   2.782 -1.5283  2.0399 -0.3742
  203SOL    HW2  609   3.300   1.377   2.863  0.3989  1.0644 -0.5788
  204SOL     OW  610   3.033   0.468   0.548  1.0430 -0.4809 -0.1447
  204SOL    HW1  611   3.121   0.438   0.571  0.1337 -1.9457  1.7190
  204SOL    HW2  612   3.001   0.403   0.485  0.0799 -2.0314  1.8289
  205SOL     OW  613   1.947   2.308   2.612 -0.3834 -0.0424  0.1079
  205SOL    HW1  614   1.868   2.344   2.654  0.7691  2.4292  0.3471
  205SOL    HW2  615   1.937   2.334   2.520 -0.8687 -1.6962 -0.3321
  206SOL     OW  616   2.100   0.877   1.546  0.2828 -0.6622  0.5988
  206SOL    HW1  617   2.184   0.859   1.504  0.2519  0.6839 -0.0692
  206SOL    HW2  618   2.036   0.875   1.475 -0.0375 -0.1606  0.8713
  207SOL     OW  619   0.886   0.524   1.428 -0.3950 -0.1824  0.4174
  207SOL    HW1  620   0.790   0.523   1.433 -0.5427  3.1008 -0.0040
  207SOL    HW2  621   0.910   0.616   1.435  2.7340 -0.8513 -0.0387
  208SOL     OW  622   1.619   3.116   0.605  0.6881 -0.6422 -0.8037
  208SOL    HW1  623   1.677   3.039   0.608  0.3931 -0.8821 -1.1756
  208SOL    HW2  624   1.535   3.081   0.578  0.1480 -0.4243  0.4922
  209SOL     OW  625   3.676   0.065   3.068  0.4677  0.1804  0.2794
  209SOL    HW1  626   3.665   0.039   3.160  1.5795  0.0696  0.3976
  209SOL    HW2  627   3.670  -0.018   3.019 -1.1542  0.3620  0.1348
  210SOL     OW  628   2.628   3.019   0.285 -0.0976  0.0814  0.6353
  210SOL    HW1  629   2.656   3.044   0.198  1.1689  1.3647  1.3687
  210SOL    HW2  630   2.536   2.994   0.275 -0.3981  1.5954 -0.7955
  211SOL     OW  631   1.418   0.281   0.307 -0.0632 -0.1281  0.3769
  211SOL    HW1  632   1.430   0.221   0.233 -1.3891  2.0365 -1.7335
  211SOL    HW2  633   1.450   0.365   0.276 -2.5394  1.3333  1.4521
  212SOL     OW  634   2.878   3.958   0.717 -0.2779 -0.1035  0.2889
  212SOL    HW1  635   2.846   3.867   0.723  2.0338 -0.9257  1.2702
  212SOL    HW2  636   2.862   3.994   0.804 -0.2469  0.0847  0.2163
  213SOL     OW  637   0.776   0.105   3.778  0.1136  0.2572 -0.5490
  213SOL    HW1  638   0.740   0.026   3.818  1.5964  0.6061  1.6689
  213SOL    HW2  639   0.739   0.107   3.690 -5.4153  0.6964  1.3724
  214SOL     OW  640   3.248   2.989   3.864 -0.1777  0.2815  0.6932
  214SOL    HW1  641   3.287   3.075   3.883  0.7957  0.1496 -0.5792
  214SOL    HW2  642   3.322   2.935   3.836 -1.1310 -0.2807 -0.8218
  215SOL     OW  643   2.862   2.966   0.491 -0.1896  0.7775 -0.1799
  215SOL    HW1  644   2.835   2.878   0.517 -0.2313  0.6515 -0.6483
  215SOL    HW2  645   2.783   3.007   0.457  0.3719  0.0083 -2.6685
  216SOL     OW  646  -0.024   1.378   0.356  0.0628 -0.3159 -0.0985
  216SOL    HW1  647   0.004   1.287   0.361  1.8737  0.1053 -1.6861
  216SOL    HW2  648   0.036   1.425   0.414 -1.9612 -0.2681  2.1395
  217SOL     OW  649   2.345   1.481   2.712  0.1956 -0.6622  1.0141
  217SOL    HW1  650   2.336   1.397   2.666  0.2357 -0.4834  0.6763
  217SOL    HW2  651   2.309   1.464   2.799 -0.6149 -0.7850  0.6611
  218SOL     OW  652   0.560   2.814   1.231 -0.1371  0.5217  0.7765
  218SOL    HW1  653   0.498   2.751   1.267  0.2723 -0.2516  0.1433
  218SOL    HW2  654   0.595   2.773   1.153 -1.2233  2.2889 -0.7279
  219SOL     OW  655   3.617   2.139   3.738  0.0714 -0.7999 -0.9817
  219SOL    HW1  656   3.638   2.149   3.831  2.1857 -0.6649 -1.4078
  219SOL    HW2  657   3.522   2.137   3.735 -0.0582 -2.2051  1.3120
  220SOL     OW  658   2.392   1.184   2.205 -0.1586  0.2995  0.2496
  220SOL    HW1  659   2.475   1.223   2.179  0.8330 -0.9955  1.3103
  220SOL    HW2  660   2.396   1.093   2.174 -0.5650 -0.1746  1.5077
  221SOL     OW  661   3.019   1.038   1.270 -0.4925 -0.2684 -0.0707
  221SOL    HW1  662   3.078   0.979   1.223  1.2089  0.2690  1.2880
  221SOL    HW2  663   3.002   0.994   1.353 -1.5098 -0.1124 -0.1831
  222SOL     OW  664   0.480   2.365   1.464  0.6495 -0.2225  0.1427
  222SOL    HW1  665   0.510   2.298   1.403  0.7251 -1.3033  1.3348
  222SOL    HW2  666   0.386   2.349   1.475  0.8415 -0.7449  1.1437
  223SOL     OW  667   0.648   2.357   0.383 -0.1939  0.4487  0.0302
  223SOL    HW1  668   0.699   2.396   0.454 -0.5646 -0.2795  0.7078
  223SOL    HW2  669   0.562   2.399   0.389 -0.2617  0.3017  0.0897
  224SOL     OW  670   2.146   0.865   0.359 -0.1726  0.4210 -0.6784
  224SOL    HW1  671   2.185   0.946   0.327  0.1573 -0.1563 -1.8120
  224SOL    HW2  672   2.078   0.844   0.294 -0.5093 -0.0091 -0.1938
  225SOL     OW  673   0.533   3.785   0.656  0.2164 -0.4091 -0.0426
  225SOL    HW1  674   0.446   3.823   0.640  0.6283 -0.1875 -1.9591
  225SOL    HW2  675   0.524   3.693   0.633  0.4736 -0.3951 -0.2027
  226SOL     OW  676   3.279   3.035   3.562 -0.0409 -0.2351  0.2083
  226SOL    HW1  677   3.256   2.960   3.617  0.5867 -1.2879 -0.9078
  226SOL    HW2  678   3.360   3.008   3.519 -1.7710 -0.5531 -3.1574
  227SOL     OW  679   2.702   1.155   1.514 -0.3176 -0.0283  0.8505
  227SOL    HW1  680   2.751   1.072   1.510  0.2884  0.3558 -0.2687
  227SOL    HW2  681   2.611   1.128   1.520 -0.1155 -0.7890  0.6807
  228SOL     OW  682   3.442   0.078   1.617 -0.3291  0.6580 -0.4462
  228SOL    HW1  683   3.508   0.138   1.584 -0.6585  0.6913 -1.0474
  228SOL    HW2  684   3.492   0.003   1.651  0.1924  1.9460  1.8014
  229SOL     OW  685   0.215   3.581   2.475  0.1839 -0.1145 -0.0201
  229SOL    HW1  686   0.287   3.640   2.453 -1.0864  1.1124 -1.0252
  229SOL    HW2  687   0.141   3.638   2.492 -1.1380 -1.4185 -1.1551
  230SOL     OW  688   0.619   0.605   1.293 -0.0484 -0.1171 -0.0535
  230SOL    HW1  689   0.591   0.625   1.204  1.9454 -1.4398 -1.0600
  230SOL    HW2  690   0.640   0.512   1.291  1.8467  0.2203  1.2599
  231SOL     OW  691   1.440   2.980   1.741 -0.0289  0.1296 -0.3461
  231SOL    HW1  692   1.529   3.011   1.759 -0.0580  0.8718 -1.3755
  231SOL    HW2  693   1.387   3.017   1.812  0.3340  0.4886 -0.2570
  232SOL     OW  694   0.621   0.204   1.651  0.0927  0.9449 -0.1986
  232SOL    HW1  695   0.605   0.134   1.587  0.1584 -0.5052  1.3076
  232SOL    HW2  696   0.715   0.220   1.646 -0.0512  1.5547 -1.1548
  233SOL     OW  697   3.812   2.427   3.362  0.2507  0.0696  0.2136
  233SOL    HW1  698   3.731   2.452   3.318  1.5007  3.2527 -0.5007
  233SOL    HW2  699   3.809   2.331   3.364 -1.4521 -0.1625 -3.8215
  234SOL     OW  700   2.247   1.204   0.220  0.1820 -0.5296 -0.3282
  234SOL    HW1  701   2.227   1.147   0.146 -1.2884 -1.1912  0.5513
  234SOL    HW2  702   2.193   1.282   0.205 -1.9499 -1.6256  1.1875
  235SOL     OW  703   1.751   1.658   3.379 -0.3464 -0.6988 -0.2369
  235SOL    HW1  704   1.719   1.595   3.444  0.7227 -1.5050 -0.4582
  235SOL    HW2  705   1.821   1.706   3.425 -3.3832  2.9162  1.1565
  236SOL     OW  706   2.689   2.914   3.948 -0.3346  0.1059  0.2881
  236SOL    HW1  707   2.681   3.006   3.971 -0.0325  0.9140 -2.4554
  236SOL    HW2  708   2.777   2.905   3.911  0.0798 -1.5846  1.5367
  237SOL     OW  709   2.467   0.540   0.593 -0.5602 -0.2788  0.3148
  237SOL    HW1  710   2.398   0.606   0.580  0.1370  0.1401 -1.5823
  237SOL    HW2  711   2.448   0.503   0.679 -2.3217  0.8047  0.4554
  238SOL     OW  712   0.965   2.335   2.867 -0.6884 -0.2311  0.2009
  238SOL    HW1  713   1.033   2.352   2.931 -1.2412 -0.7119  0.9363
  238SOL    HW2  714   0.895   2.291   2.917 -0.7005 -1.5737 -0.9298
  239SOL     OW  715   2.158   2.524   0.418 -0.1869  0.4937 -0.8864
  239SOL    HW1  716   2.157   2.471   0.498 -2.8329  0.3090 -0.9706
  239SOL    HW2  717   2.231   2.585   0.431  0.8798 -1.0060  0.6414
  240SOL     OW  718   1.703   3.188   3.706 -0.0700  0.1378  0.0514
  240SOL    HW1  719   1.609   3.202   3.694 -0.1951 -0.3452  0.4304
  240SOL    HW2  720   1.709   3.132   3.783  0.4539 -1.1313 -0.8830
  241SOL     OW  721   3.261   2.172   0.941 -0.3776  0.9229  0.1381
  241SOL    HW1  722   3.292   2.261   0.925  0.1516  0.1557 -4.4252
  241SOL    HW2  723   3.340   2.119   0.944 -0.8003  0.2396 -0.4782
  242SOL     OW  724   3.084   0.626   3.205 -0.1940  0.4482  0.1818
  242SOL    HW1  725   3.109   0.587   3.122 -1.1109 -1.3658  0.6908
  242SOL    HW2  726   2.988   0.621   3.206 -0.3513  2.7127  0.3192
  243SOL     OW  727   2.889   0.720   2.941 -0.0564 -0.0512 -0.2105
  243SOL    HW1  728   2.950   0.676   3.000 -0.9889  2.3487  2.8186
  243SOL    HW2  729   2.839   0.649   2.900  3.0381 -1.9741 -0.9523
  244SOL     OW  730   4.032   3.121   2.778 -0.3765 -0.0484 -0.2241
  244SOL    HW1  731   4.009   3.178   2.704 -0.2566 -0.5200 -0.6265
  244SOL    HW2  732   3.950   3.111   2.826 -0.4399  0.3133 -0.2496
  245SOL     OW  733   0.120   0.833   2.871  0.0519  0.2000 -0.8156
  245SOL    HW1  734   0.094   0.919   2.903  1.7159 -0.1574  1.7252
  245SOL    HW2  735   0.216   0.834   2.873  0.1074 -1.7584 -0.5090
  246SOL     OW  736   3.708   1.547   1.156 -0.5002 -0.3023 -0.2536
  246SOL    HW1  737   3.680   1.464   1.119  1.3552 -1.7628  1.3867
  246SOL    HW2  738   3.802   1.551   1.139 -0.0431  0.1119  2.0569
  247SOL     OW  739   0.124   3.794   0.171  0.4704  0.2186 -0.1956
  247SOL    HW1  740   0.194   3.824   0.113 -0.5657 -0.6619 -1.9649
  247SOL    HW2  741   0.101   3.872   0.222  3.9405  0.1491  1.8695
  248SOL     OW  742   1.809   0.847   0.209  0.7659  0.1275  0.6290
  248SOL    HW1  743   1.797   0.910   0.138 -0.5957 -1.0600 -0.2331
  248SOL    HW2  744   1.793   0.898   0.289 -2.7195  0.4362 -0.1134
  249SOL     OW  745   0.187   3.939   2.600 -0.1071  0.2777 -0.1767
  249SOL    HW1  746   0.175   3.902   2.687  1.0241  0.8474  0.2502
  249SOL    HW2  747   0.122   4.009   2.595  1.9460  2.4934  1.5794
  250SOL     OW  748   1.864   0.226   3.934  0.3873 -0.0768 -0.3592
  250SOL    HW1  749   1.873   0.312   3.975  0.7902 -0.8788  1.3421
  250SOL    HW2  750   1.773   0.202   3.949  0.3468 -0.0621 -0.5852
  251SOL     OW  751   0.964   1.439   0.837 -0.1876 -0.4718  0.0580
  251SOL    HW1  752   0.877   1.432   0.799 -0.9514  0.5772  1.5194
  251SOL    HW2  753   0.985   1.350   0.866 -0.6884 -0.7619 -0.4448
  252SOL     OW  754   1.924   3.832   3.206 -0.0330  0.0124  0.0996
  252SOL    HW1  755   1.877   3.850   3.124 -3.4638 -1.4509  1.5350
  252SOL    HW2  756   1.971   3.750   3.189 -1.0268 -0.4865 -0.3417
  253SOL     OW  757   2.536   2.073   0.873  0.8091 -0.2376  0.5457
  253SOL    HW1  758   2.586   1.993   0.855 -0.2928 -0.8885  0.2609
  253SOL    HW2  759   2.601   2.142   0.875  1.8759 -1.2256  1.4116
  254SOL     OW  760   1.958   2.663   3.621 -0.2570 -0.8235 -0.3299
  254SOL    HW1  761   1.985   2.691   3.708 -1.9701 -0.6126  0.1481
  254SOL    HW2  762   2.037   2.623   3.584  1.7408  2.6220 -0.2547
  255SOL     OW  763   3.130   0.113   0.822  1.0599  0.2763  0.6620
  255SOL    HW1  764   3.217   0.151   0.832  0.1137  3.1267 -0.6695
  255SOL    HW2  765   3.110   0.122   0.729 -1.5685  2.1923  1.2654
  256SOL     OW  766   3.706   1.324   3.411 -0.4308 -0.6506  0.4114
  256SOL    HW1  767   3.750   1.294   3.332 -1.8437  0.9771 -1.0645
  256SOL    HW2  768   3.676   1.412   3.390 -1.4197 -0.4150  2.5407
  257SOL     OW  769   2.087   1.767   1.005 -0.2323 -0.5917 -0.5673
  257SOL    HW1  770   2.173   1.760   0.964 -0.7728 -0.4968 -1.7531
  257SOL    HW2  771   2.100   1.828   1.078  0.6359 -0.3445 -0.9150
  258SOL     OW  772   3.662   3.118   2.030 -0.6478 -0.1813  0.9699
  258SOL    HW1  773   3.605   3.151   2.100 -0.4350 -1.4524  1.7725
  258SOL    HW2  774   3.721   3.057   2.074 -0.8761 -1.4566 -0.4086
  259SOL     OW  775   1.594   0.756   3.227 -0.0698 -0.4332  0.6505
  259SOL    HW1  776   1.592   0.692   3.298 -2.7725 -1.4532 -0.2168
  259SOL    HW2  777   1.572   0.839   3.268 -0.8234 -0.8705  1.1552
  260SOL     OW  778   1.433   0.304   1.163  0.1929 -0.1606  0.7616
  260SOL    HW1  779   1.396   0.217   1.172 -0.2045 -0.0563  0.1787
  260SOL    HW2  780   1.395   0.339   1.082  2.3042 -0.4235 -0.4154
  261SOL     OW  781   3.115   1.985   2.256  0.4004 -0.7225 -0.3527
  261SOL    HW1  782   3.029   1.995   2.216  0.6784 -1.3289 -1.1563
  261SOL    HW2  783   3.102   1.920   2.325  0.6925 -2.9746 -2.2712
  262SOL     OW  784   0.364   0.315   0.763 -0.3760  0.0275  0.2805
  262SOL    HW1  785   0.389   0.397   0.721 -0.7814  0.5278  0.9741
  262SOL    HW2  786   0.296   0.341   0.826 -0.3406 -0.8045  0.6739
  263SOL     OW  787   1.474   3.389   0.558 -0.3672  0.8607 -0.3031
  263SOL    HW1  788   1.472   3.296   0.535 -1.7130  1.0021 -0.8894
  263SOL    HW2  789   1.457   3.391   0.652 -0.6254  0.5253 -0.3403
  264SOL     OW  790   2.321   0.855   1.214  0.1819 -0.2736 -0.5625
  264SOL    HW1  791   2.392   0.905   1.174 -0.9137 -0.4333 -2.8432
  264SOL    HW2  792   2.349   0.763   1.206  0.6735 -0.2524  0.5897
  265SOL     OW  793   1.022   0.356   3.259  0.6738 -0.5741  0.8714
  265SOL    HW1  794   0.960   0.283   3.251  0.2494 -0.3974  2.3654
  265SOL    HW2  795   0.968   0.429   3.290  0.9620  0.5936 -1.1593
  266SOL     OW  796   2.878   3.438   3.625 -0.0181  0.5052 -0.8505
  266SOL    HW1  797   2.893   3.513   3.682 -1.8789 -0.0119  0.4042
  266SOL    HW2  798   2.797   3.458   3.578  1.5585  1.0170 -3.5985
  267SOL     OW  799   3.959   0.644   3.390 -0.4410  0.2669  0.3965
  267SOL    HW1  800   4.017   0.608   3.324 -0.6252  0.6021  0.0466
  267SOL    HW2  801   3.887   0.682   3.340  0.6864  2.8731  0.5888
  268SOL     OW  802   1.986   3.599   2.000 -0.7597 -0.3632 -0.1763
  268SOL    HW1  803   1.974   3.587   2.094 -0.0858 -0.3125 -0.0743
  268SOL    HW2  804   2.081   3.608   1.989 -0.8718  0.2219 -0.7884
  269SOL     OW  805   2.785   1.569   2.311  0.8309 -1.0069 -0.1133
  269SOL    HW1  806   2.782   1.484   2.355  2.4589 -1.3919 -0.6764
  269SOL    HW2  807   2.785   1.632   2.383 -1.9037 -1.3418  0.2997
  270SOL     OW  808   1.368   2.503   1.642  0.0558 -0.1191  0.4314
  270SOL    HW1  809   1.462   2.519   1.651  0.1690 -1.0708  1.0093
  270SOL    HW2  810   1.331   2.590   1.628  0.8783  0.4143  1.4047
  271SOL     OW  811   0.123   2.404   3.486 -0.2881 -0.1091 -0.0700
  271SOL    HW1  812   0.136   2.310   3.482 -2.5401 -0.4467 -0.6257
  271SOL    HW2  813   0.060   2.417   3.557  1.1135  1.1591  1.0252
  272SOL     OW  814   3.045   3.596   0.728  0.0527  1.3664  0.7739
  272SOL    HW1  815   3.114   3.634   0.673 -0.2588  3.6549  1.8343
  272SOL    HW2  816   2.983   3.558   0.666  0.8921  1.7440 -0.3299
  273SOL     OW  817   1.188   2.528   2.701 -0.5641 -0.2068  0.9340
  273SOL    HW1  818   1.092   2.523   2.698 -0.5186 -0.5662 -0.4285
  273SOL    HW2  819   1.206   2.598   2.763 -1.7995  2.7932 -1.8043
  274SOL     OW  820   3.471   3.074   0.262 -0.1849 -0.0847 -0.1304
  274SOL    HW1  821   3.472   3.161   0.222  0.3942 -0.6023 -1.2966
  274SOL    HW2  822   3.388   3.035   0.233 -0.2623 -0.0661  0.0660
  275SOL     OW  823   1.747   1.413   3.539  0.0997 -0.1945 -0.0257
  275SOL    HW1  824   1.726   1.342   3.600  0.8087  2.5641  3.7644
  275SOL    HW2  825   1.842   1.421   3.542  0.2644 -0.5652 -2.3559
  276SOL     OW  826   1.543   2.630   0.659 -0.1033 -0.6610 -0.7995
  276SOL    HW1  827   1.536   2.694   0.730  1.1241 -2.1760  0.7473
  276SOL    HW2  828   1.465   2.575   0.669  0.1394 -0.9574 -0.5518
  277SOL     OW  829   2.387   2.795   0.975 -0.4994  0.6515  0.3727
  277SOL    HW1  830   2.411   2.702   0.978  2.2481  1.2288 -0.2875
  277SOL    HW2  831   2.455   2.838   1.027  0.7447  2.6413 -2.6717
  278SOL     OW  832   0.841   2.043   1.696 -0.0954  0.3160 -0.2473
  278SOL    HW1  833   0.766   2.102   1.696  0.4376  1.1207 -2.6852
  278SOL    HW2  834   0.901   2.081   1.761 -0.8911  0.8783  0.1768
  279SOL     OW  835   0.870   3.492   1.166 -0.3215 -0.2806 -0.1956
  279SOL    HW1  836   0.962   3.470   1.176  0.1027  0.0884 -2.7348
  279SOL    HW2  837   0.869   3.562   1.100 -2.5548 -1.8902 -2.0116
  280SOL     OW  838   2.109   3.293   3.044 -0.9542  0.0046 -0.0755
  280SOL    HW1  839   2.179   3.244   3.086 -1.6034 -1.5664 -0.7679
  280SOL    HW2  840   2.045   3.310   3.114  0.3248  2.0064  0.7135
  281SOL     OW  841   0.337   3.299   2.949  0.3017 -0.8614  0.4039
  281SOL    HW1  842   0.283   3.316   2.872  0.4827 -0.6493  0.3232
  281SOL    HW2  843   0.393   3.376   2.957 -1.0126 -0.0211  1.8665
  282SOL     OW  844   2.380   3.484   1.757  0.0122  0.3739  0.4776
  282SOL    HW1  845   2.310   3.522   1.704  1.1109  2.1698  0.2296
  282SOL    HW2  846   2.442   3.448   1.694  1.6320  3.0640  0.3689
  283SOL     OW  847   3.469   3.629   0.516 -0.2049 -0.0242  0.4577
  283SOL    HW1  848   3.550   3.678   0.498  0.0646 -1.0528 -1.3698
  283SOL    HW2  849   3.497   3.538   0.523 -1.0245 -0.2237  1.3945
  284SOL     OW  850   1.170   2.313   0.100 -0.4545 -0.0998 -0.2241
  284SOL    HW1  851   1.086   2.339   0.138 -0.1648 -1.4061  1.4413
  284SOL    HW2  852   1.178   2.220   0.121  1.7783  0.1868  0.4525
  285SOL     OW  853   2.085   3.797   0.663  0.2557 -0.5915 -0.5054
  285SOL    HW1  854   2.175   3.768   0.647  1.5080  2.1300  0.7657
  285SOL    HW2  855   2.062   3.848   0.586  1.4503  2.0077  0.7111
  286SOL     OW  856   3.990   2.321   3.707 -0.7166  0.4310 -0.2316
  286SOL    HW1  857   4.014   2.265   3.780 -0.1713  2.8423  1.5582
  286SOL    HW2  858   3.896   2.306   3.695 -0.7418 -0.2518  0.7431
  287SOL     OW  859   3.981   0.763   1.732 -0.7686  0.2258 -0.3603
  287SOL    HW1  860   4.069   0.739   1.703 -1.2586 -1.2232 -0.7701
  287SOL    HW2  861   3.932   0.775   1.650 -1.5413 -1.4298 -0.1868
  288SOL     OW  862   1.201   0.300   1.396 -0.4505  0.5731 -0.2810
  288SOL    HW1  863   1.250   0.220   1.378 -1.8178 -0.2713 -0.3991
  288SOL    HW2  864   1.215   0.317   1.490 -0.9531 -0.3780 -0.0257
  289SOL     OW  865   2.034   0.267   1.104  0.4076  0.2243  0.0859
  289SOL    HW1  866   2.006   0.346   1.059 -0.4810 -2.2878 -4.3531
  289SOL    HW2  867   1.954   0.233   1.144 -0.0256 -0.1999 -1.1082
  290SOL     OW  868   1.447   1.257   1.422  0.1556  0.7905 -0.6837
  290SOL    HW1  869   1.500   1.337   1.424  0.4511  0.6118 -1.1036
  290SOL    HW2  870   1.462   1.217   1.508  0.5642  0.8344 -0.7290
  291SOL     OW  871   2.156   1.997   3.769 -0.0125  0.6589 -0.5743
  291SOL    HW1  872   2.185   2.086   3.749 -0.0220  0.7599 -0.1498
  291SOL    HW2  873   2.216   1.967   3.837 -0.2069  0.4566 -0.4907
  292SOL     OW  874   3.769   2.073   2.618 -0.0633 -0.5639 -0.2126
  292SOL    HW1  875   3.816   1.989   2.625  0.1477 -0.3871  0.6435
  292SOL    HW2  876   3.815   2.120   2.548 -0.5207 -1.3633 -1.0724
  293SOL     OW  877   3.769   1.032   1.105  0.6866 -0.1310  0.4507
  293SOL    HW1  878   3.740   1.122   1.120 -2.4963 -0.5228 -2.2772
  293SOL    HW2  879   3.716   0.979   1.164 -0.4873 -0.4540 -0.8402
  294SOL     OW  880   0.813   2.291   3.316  0.2790 -0.1888 -0.2019
  294SOL    HW1  881   0.888   2.326   3.364  0.3993  0.5774 -0.9196
  294SOL    HW2  882   0.742   2.291   3.379  0.2074  1.6441 -0.2287
  295SOL     OW  883   3.362   0.317   2.555 -0.1700 -0.1972 -0.9538
  295SOL    HW1  884   3.380   0.274   2.638 -0.8140  0.1334 -0.6371
  295SOL    HW2  885   3.268   0.331   2.555  0.0182  1.2056 -1.0388
  296SOL     OW  886   2.367   1.384   1.526 -0.4571 -0.3065  0.1896
  296SOL    HW1  887   2.406   1.387   1.439 -1.2947  1.3828 -0.1746
  296SOL    HW2  888   2.420   1.445   1.578 -1.4977  0.6719  0.1471
  297SOL     OW  889   2.098   1.249   3.253  0.3835 -0.0854 -0.2481
  297SOL    HW1  890   2.051   1.248   3.170  0.6672 -2.0014 -0.4487
  297SOL    HW2  891   2.182   1.290   3.233 -0.4615  1.6639 -0.3177
  298SOL     OW  892   3.944   3.206   3.493  0.5872  0.3398 -0.1461
  298SOL    HW1  893   3.977   3.284   3.448  0.0200  0.8182  0.2448
  298SOL    HW2  894   4.011   3.139   3.478  2.7334  1.7747  2.1584
  299SOL     OW  895   3.539   1.650   1.369 -0.1424  0.5571  0.4313
  299SOL    HW1  896   3.585   1.622   1.290 -1.1891 -4.5264  1.2928
  299SOL    HW2  897   3.451   1.672   1.338 -0.4992 -1.2422  0.0331
  300SOL     OW  898   1.575   3.555   3.783  0.6399  0.3342 -1.0195
  300SOL    HW1  899   1.662   3.519   3.804  0.5517  0.4120 -0.4956
  300SOL    HW2  900   1.590   3.611   3.707  1.1739  0.8591 -0.5391
  301SOL     OW  901   1.658   3.545   1.678  0.2911 -0.1665  0.3927
  301SOL    HW1  902   1.632   3.605   1.748  1.6287  0.8517  0.0585
  301SOL    HW2  903   1.675   3.462   1.723  0.7733  0.3712  1.2459
  302SOL     OW  904   1.398   3.100   2.944  0.0094 -0.2361 -0.3952
  302SOL    HW1  905   1.398   3.116   2.849  0.9412 -2.7013 -0.9116
  302SOL    HW2  906   1.477   3.046   2.958  0.2143  0.5801  1.9006
  303SOL     OW  907   2.571   0.486   3.146  0.2938 -0.2258  0.3085
  303SOL    HW1  908   2.532   0.476   3.059  1.1504 -1.6320  0.0551
  303SOL    HW2  909   2.509   0.542   3.193 -0.9675 -0.6788 -0.7264
  304SOL     OW  910   3.918   2.925   3.333  0.3123  0.6658 -0.5379
  304SOL    HW1  911   3.897   2.833   3.344  0.0652  0.6971 -0.7551
  304SOL    HW2  912   4.013   2.930   3.346  0.5067  0.1982 -1.7208
  305SOL     OW  913   0.809   3.219   1.928  0.1480  0.4111 -0.1871
  305SOL    HW1  914   0.766   3.177   2.003  2.3501 -0.4025  0.7057
  305SOL    HW2  915   0.843   3.302   1.964  0.5251  0.3900 -0.4963
  306SOL     OW  916   1.360   0.460   3.528  0.4987  0.3820 -0.3972
  306SOL    HW1  917   1.317   0.500   3.603 -0.6364 -0.2918 -0.6613
  306SOL    HW2  918   1.290   0.448   3.464  0.9282 -1.3340 -0.5976
  307SOL     OW  919   3.585   1.729   0.522 -0.1535 -0.0330 -0.0802
  307SOL    HW1  920   3.639   1.808   0.518 -0.9614  0.4889 -1.4460
  307SOL    HW2  921   3.633   1.664   0.471 -0.6936  0.3754 -1.1377
  308SOL     OW  922   3.841   2.341   0.131  0.1329  0.1781 -0.3609
  308SOL    HW1  923   3.757   2.320   0.091 -0.2445  0.6311  0.1862
  308SOL    HW2  924   3.822   2.411   0.193  0.8486  0.0406  0.0329
  309SOL     OW  925   2.106   2.443   0.972  0.0620  0.4239 -0.1092
  309SOL    HW1  926   2.162   2.491   0.911 -0.1498  0.8466  0.0227
  309SOL    HW2  927   2.126   2.481   1.057 -0.1208  0.2861 -0.0047
  310SOL     OW  928   0.461   2.904   2.568  0.0754 -0.5868  0.5815
  310SOL    HW1  929   0.442   2.955   2.647 -2.8233  0.1787 -0.4739
  310SOL    HW2  930   0.426   2.957   2.496  2.7301 -1.1782 -1.3188
  311SOL     OW  931   1.089   2.680   3.559  0.1852  0.1977  0.2477
  311SOL    HW1  932   1.006   2.729   3.564 -0.1880 -0.5338  1.8510
  311SOL    HW2  933   1.065   2.590   3.580  1.5505  0.2007  2.0423
  312SOL     OW  934   0.178   2.433   1.200  0.0570 -0.8556 -0.5144
  312SOL    HW1  935   0.263   2.425   1.158 -0.7355 -0.7770 -2.2408
  312SOL    HW2  936   0.158   2.345   1.232  1.3050 -0.6067  1.0659
  313SOL     OW  937   0.370   0.961   0.356  0.2296 -0.2787 -0.3254
  313SOL    HW1  938   0.424   0.895   0.399 -1.5269 -1.9386 -0.5106
  313SOL    HW2  939   0.412   0.975   0.271  0.2528 -1.7468 -0.5877
  314SOL     OW  940   1.779   0.690   2.625  0.5036  0.0299 -0.2505
  314SOL    HW1  941   1.793   0.689   2.530  2.1076  1.1129 -0.0651
  314SOL    HW2  942   1.843   0.628   2.659  1.2566  1.0522  0.2463
  315SOL     OW  943   1.946   0.628   1.597 -0.1698  0.3745 -0.3744
  315SOL    HW1  944   2.006   0.702   1.610 -0.8235  0.6704  1.2476
  315SOL    HW2  945   1.972   0.590   1.513  2.2991  0.4829  0.2595
  316SOL     OW  946   0.917   3.682   3.107 -0.8456 -0.0547 -0.0282
  316SOL    HW1  947   0.955   3.712   3.190 -0.1640  0.1690 -0.4098
  316SOL    HW2  948   0.855   3.750   3.083 -1.2991 -0.2883  0.4713
  317SOL     OW  949   0.856   1.921   2.574 -0.0497 -0.7870 -0.1836
  317SOL    HW1  950   0.771   1.876   2.570  0.6100 -2.4136  2.0645
  317SOL    HW2  951   0.899   1.899   2.492 -1.8710  0.3423 -1.5138
  318SOL     OW  952   3.902   3.444   1.494  0.5425 -0.2854  0.1037
  318SOL    HW1  953   3.899   3.539   1.499 -0.0520 -0.0561 -2.7574
  318SOL    HW2  954   3.811   3.416   1.508  0.4931 -0.3168 -0.2640
  319SOL     OW  955   2.628   3.174   0.048 -0.5095  0.3249 -0.3586
  319SOL    HW1  956   2.711   3.210   0.016  1.1429 -0.4177  2.6878
  319SOL    HW2  957   2.580   3.251   0.080 -0.8344  0.6900 -1.6381
  320SOL     OW  958   1.485   0.364   3.233  0.0196 -0.0687  0.4432
  320SOL    HW1  959   1.579   0.371   3.215 -0.0101  1.4282  0.7231
  320SOL    HW2  960   1.476   0.283   3.282  1.0439 -0.6566 -0.2959
  321SOL     OW  961   1.545   3.587   3.075 -0.7214  0.8288 -0.1270
  321SOL    HW1  962   1.450   3.570   3.076 -0.4454 -1.0915  1.8940
  321SOL    HW2  963   1.582   3.508   3.035  0.0061  2.2061 -2.3220
  322SOL     OW  964   1.336   3.090   1.974  0.1675  0.0697  0.1627
  322SOL    HW1  965   1.247   3.083   2.008 -0.9780 -1.7698 -2.8215
  322SOL    HW2  966   1.386   3.025   2.023  0.0767  1.4456  2.1944
  323SOL     OW  967   0.626   4.023   0.804 -0.1634 -0.1438 -0.0618
  323SOL    HW1  968   0.585   3.936   0.807  0.7154 -0.6178 -1.2877
  323SOL    HW2  969   0.708   4.009   0.758 -0.3568  1.4843 -0.9466
  324SOL     OW  970   1.236   2.008   2.808  0.2699  0.4684  0.0515
  324SOL    HW1  971   1.246   1.956   2.729 -1.2688  0.8028 -0.3995
  324SOL    HW2  972   1.305   1.977   2.866  0.6665 -0.6309 -0.9633
  325SOL     OW  973   1.115   2.036   0.176  0.2314  0.0881  0.2203
  325SOL    HW1  974   1.208   2.014   0.171  0.3469  0.7087 -0.6705
  325SOL    HW2  975   1.075   1.986   0.105  0.2347  1.3726 -0.7366
  326SOL     OW  976   2.458   2.006   1.926 -0.2767 -0.0676  0.1493
  326SOL    HW1  977   2.446   2.075   1.861 -1.4673  0.8214  1.2472
  326SOL    HW2  978   2.492   1.931   1.877 -1.7441  0.3493 -1.5929
  327SOL     OW  979   0.254   1.295   3.255  0.1454 -0.0489  0.0875
  327SOL    HW1  980   0.327   1.233   3.255  1.1631  1.1200 -0.4236
  327SOL    HW2  981   0.238   1.313   3.162  0.3231  0.9566  0.2411
  328SOL     OW  982   3.903   1.791   2.915  0.0463 -0.1138  0.1550
  328SOL    HW1  983   3.894   1.713   2.969  1.6081  0.1402  0.8260
  328SOL    HW2  984   3.957   1.764   2.841  1.7396  0.5998  1.0698
  329SOL     OW  985   3.400   1.122   2.794  0.2451  0.0176  0.4365
  329SOL    HW1  986   3.342   1.154   2.864 -0.0478  1.8866 -0.5958
  329SOL    HW2  987   3.344   1.120   2.716  1.2220  0.5641 -0.2956
  330SOL     OW  988   3.771   1.003   0.036  0.1476 -0.5162  0.3226
  330SOL    HW1  989   3.794   0.932   0.095  1.3141  0.2771  0.8663
  330SOL    HW2  990   3.679   1.023   0.056 -0.2396 -1.9295  0.0603
  331SOL     OW  991   3.198   3.744   3.255  0.1843  0.1258 -0.1432
  331SOL    HW1  992   3.135   3.672   3.262  0.9466 -0.8877 -2.5351
  331SOL    HW2  993   3.145   3.819   3.226 -0.1855 -0.2370 -0.4152
  332SOL     OW  994   1.417   0.780   0.266 -0.3984  0.3295 -0.2232
  332SOL    HW1  995   1.380   0.728   0.195 -0.3215  0.9708 -0.7364
  332SOL    HW2  996   1.343   0.831   0.300  0.0023  1.6779 -1.3083
  333SOL     OW  997  -0.022   1.800   3.280  0.2457 -0.9179 -0.0086
  333SOL    HW1  998  -0.019   1.721   3.333  2.9837  0.6633  2.5368
  333SOL    HW2  999   0.053   1.852   3.310 -0.9181  2.2913 -2.0802
  334SOL     OW 1000   1.859   2.563   1.135  0.9910 -0.6305 -0.5118
  334SOL    HW1 1001   1.935   2.611   1.168  1.1366  0.7206 -2.5914
  334SOL    HW2 1002   1.788   2.587   1.195  1.5672  0.4451 -0.2298
  335SOL     OW 1003   3.860   3.422   2.912  0.2833 -0.2500 -0.0286
  335SOL    HW1 1004   3.920   3.488   2.946 -0.1206  0.1028  0.0105
  335SOL    HW2 1005   3.858   3.438   2.817  2.4839 -2.1131 -0.4799
  336SOL     OW 1006   3.034   0.064   1.379 -0.2717 -0.0213  0.0556
  336SOL    HW1 1007   3.103   0.007   1.344  0.4539  1.1672 -0.5106
  336SOL    HW2 1008   2.997   0.107   1.302 -1.9338 -0.9146  0.3098
  337SOL     OW 1009   1.107   3.660   3.592 -0.6071 -0.4817  0.3745
  337SOL    HW1 1010   1.032   3.674   3.535 -1.6458 -1.5611  1.4191
  337SOL    HW2 1011   1.087   3.710   3.671  0.7565  0.8997 -0.1092
  338SOL     OW 1012   2.276   0.177   3.082  0.2251  0.2758  0.4089
  338SOL    HW1 1013   2.265   0.085   3.056  1.7356  0.4293 -0.8892
  338SOL    HW2 1014   2.292   0.173   3.176  0.1893 -0.7874  0.3839
  339SOL     OW 1015   1.284   2.104   1.986 -0.4801 -0.7492 -0.2668
  339SOL    HW1 1016   1.317   2.094   1.897 -0.8978 -0.9994 -0.3970
  339SOL    HW2 1017   1.348   2.160   2.030  0.0480 -1.1294 -0.5451
  340SOL     OW 1018   1.839   0.771   3.587 -0.9024 -0.9233  0.2008
  340SOL    HW1 1019   1.868   0.794   3.499 -1.0581 -0.3262  0.3032
  340SOL    HW2 1020   1.807   0.681   3.578  0.9224 -1.6114  0.0764
  341SOL     OW 1021   3.683   1.549   3.714  0.0366 -0.2808  0.4587
  341SOL    HW1 1022   3.660   1.497   3.791  1.8845 -2.9842 -0.6442
  341SOL    HW2 1023   3.774   1.523   3.695 -0.2485  0.5284 -2.4137
  342SOL     OW 1024   3.259   2.621   2.935 -1.2260 -0.3312 -0.3270
  342SOL    HW1 1025   3.168   2.648   2.923 -0.8456  1.4513  0.5114
  342SOL    HW2 1026   3.308   2.703   2.941  0.0606 -1.1865  1.9994
  343SOL     OW 1027   1.189   0.771   1.972 -0.0977  0.1355  0.3774
  343SOL    HW1 1028   1.180   0.776   2.068  1.8707 -4.0302  1.0305
  343SOL    HW2 1029   1.114   0.718   1.944 -0.0136  0.3235 -0.1981
  344SOL     OW 1030   3.386   3.145   2.130  0.3163 -0.1944  0.6763
  344SOL    HW1 1031   3.392   3.070   2.190 -0.0108 -0.6600  0.1399
  344SOL    HW2 1032   3.312   3.195   2.161 -2.5171 -2.5727 -1.6222
  345SOL     OW 1033   0.959   0.275   1.272 -0.2964 -0.1806  0.8661
  345SOL    HW1 1034   1.047   0.297   1.301 -0.1368 -0.1305  0.3498
  345SOL    HW2 1035   0.904   0.346   1.305  0.3474  1.5890 -1.6013
  346SOL     OW 1036   2.613   1.125   1.844  0.2768 -0.2699  0.1670
  346SOL    HW1 1037   2.582   1.131   1.935  1.7510 -2.4528  0.8847
  346SOL    HW2 1038   2.533   1.126   1.791 -0.6109  1.0799  1.4466
  347SOL     OW 1039   1.678   1.376   0.090  0.9068 -0.9764  0.1944
  347SOL    HW1 1040   1.634   1.456   0.120  1.0331 -1.0899  0.6868
  347SOL    HW2 1041   1.717   1.339   0.169  1.4429 -1.1549 -0.1481
  348SOL     OW 1042   0.924   0.239   0.843 -0.4603  0.1256  0.2548
  348SOL    HW1 1043   1.004   0.291   0.846 -0.9363  0.8588  0.6683
  348SOL    HW2 1044   0.861   0.295   0.797 -0.3869 -0.9546 -1.2308
  349SOL     OW 1045   2.830   0.264   3.665  0.0062  0.1121 -0.5330
  349SOL    HW1 1046   2.796   0.350   3.641  1.3842  0.9430  0.3299
  349SOL    HW2 1047   2.871   0.278   3.750  0.4626 -1.3593 -0.4848
  350SOL     OW 1048   0.515   1.839   1.088 -0.4097  1.1967 -0.3198
  350SOL    HW1 1049   0.586   1.784   1.122 -0.5763  0.1320 -1.6424
  350SOL    HW2 1050   0.441   1.821   1.146 -0.6514 -0.4967 -1.1215
  351SOL     OW 1051   3.804   1.916   3.677 -0.0648  0.0522 -0.4489
  351SOL    HW1 1052   3.852   1.999   3.674 -0.9318  0.5561 -1.2865
  351SOL    HW2 1053   3.718   1.940   3.713  0.1366 -0.7531  0.6358
  352SOL     OW 1054   3.096   3.580   1.770 -0.2977  0.2531  0.2109
  352SOL    HW1 1055   3.120   3.509   1.829  1.0942  1.1437  0.7762
  352SOL    HW2 1056   3.162   3.648   1.786 -1.4209  1.5700 -0.4884
  353SOL     OW 1057   2.868   3.252   1.393 -0.7739 -0.2376 -0.7884
  353SOL    HW1 1058   2.785   3.272   1.349 -1.2393  1.6412  0.7776
  353SOL    HW2 1059   2.842   3.208   1.474 -0.3384  1.0460  0.0800
  354SOL     OW 1060   0.593   3.216   1.680  0.2152  0.3433 -0.2319
  354SOL    HW1 1061   0.668   3.162   1.706  0.9619  1.6136  0.3885
  354SOL    HW2 1062   0.532   3.155   1.640  1.1641 -0.8959  0.1355
  355SOL     OW 1063   0.591  -0.019   1.824  0.0905  0.4175  0.0076
  355SOL    HW1 1064   0.603   0.068   1.785 -0.6715  0.2007 -0.7478
  355SOL    HW2 1065   0.674  -0.037   1.869  0.2183  1.5764  0.2669
  356SOL     OW 1066   1.699   1.963   0.520  0.7737  0.2781 -0.7025
  356SOL    HW1 1067   1.676   1.984   0.610  0.8468  2.0770 -1.0552
  356SOL    HW2 1068   1.781   2.010   0.505  1.0051 -0.3827 -1.5590
  357SOL     OW 1069   1.555   1.030   1.324  0.4999 -0.7638 -0.1137
  357SOL    HW1 1070   1.564   1.076   1.408  0.9602 -1.8299  0.4370
  357SOL    HW2 1071   1.545   1.100   1.260 -1.7917  0.0308  1.0323
  358SOL     OW 1072   0.527   2.529   3.613  0.2107 -0.9099  0.1051
  358SOL    HW1 1073   0.447   2.535   3.561  1.4099 -2.1266 -2.0089
  358SOL    HW2 1074   0.505   2.573   3.696 -2.4839 -0.8605 -0.5440
  359SOL     OW 1075   2.580   1.898   2.140 -0.5969  0.4298  0.7781
  359SOL    HW1 1076   2.551   1.962   2.075 -0.1670  0.9728  1.1142
  359SOL    HW2 1077   2.545   1.931   2.223 -0.5154  0.1359  0.9294
  360SOL     OW 1078   2.430   3.288   2.445  0.0990  0.6534 -0.4584
  360SOL    HW1 1079   2.337   3.276   2.426 -0.5022  2.7324  0.8868
  360SOL    HW2 1080   2.460   3.352   2.380  0.2751  0.9713 -0.0628
  361SOL     OW 1081   0.123   3.474   3.938 -0.7198  0.5626 -0.1100
  361SOL    HW1 1082   0.045   3.446   3.890  0.1034 -2.3299  0.0566
  361SOL    HW2 1083   0.188   3.406   3.920  1.6656  2.6414  0.1114
  362SOL     OW 1084   1.590   0.169   1.815  0.0014 -0.2279  0.0432
  362SOL    HW1 1085   1.588   0.223   1.736 -3.5557  0.8788  0.6910
  362SOL    HW2 1086   1.654   0.211   1.871  1.7854 -0.3917 -1.7660
  363SOL     OW 1087   0.736   0.219   0.293  0.5752 -0.0953  0.1359
  363SOL    HW1 1088   0.688   0.293   0.332  0.2705  1.0992 -2.3420
  363SOL    HW2 1089   0.675   0.145   0.299 -0.0558  0.4481  0.5000
  364SOL     OW 1090   0.267   0.349   3.861  0.4462  0.0555 -0.7035
  364SOL    HW1 1091   0.184   0.374   3.903  1.1810  0.4358  0.5801
  364SOL    HW2 1092   0.318   0.308   3.931  1.3103 -0.2816 -1.5058
  365SOL     OW 1093   3.291   1.568   1.217 -0.4413  0.0256 -0.3618
  365SOL    HW1 1094   3.275   1.510   1.291 -0.9338  0.3607 -0.1972
  365SOL    HW2 1095   3.204   1.582   1.179 -0.8908  3.1118  1.4590
  366SOL     OW 1096   2.406   2.858   2.374  0.1750  0.0536  0.4203
  366SOL    HW1 1097   2.344   2.931   2.371  1.7506  1.4578  0.6434
  366SOL    HW2 1098   2.351   2.781   2.392 -1.8927  0.7060 -2.3055
  367SOL     OW 1099   3.107   2.412   3.063 -0.2761  0.1209  0.6384
  367SOL    HW1 1100   3.191   2.450   3.038 -1.3967  1.2047 -1.9163
  367SOL    HW2 1101   3.071   2.377   2.981 -2.4658  0.0546  1.5387
  368SOL     OW 1102   3.145   0.578   1.348 -1.3889  0.1881  0.1541
  368SOL    HW1 1103   3.175   0.601   1.436 -0.6653  2.9620 -0.7212
  368SOL    HW2 1104   3.056   0.613   1.342 -1.1693  0.6645 -0.4383
  369SOL     OW 1105   0.165   3.177   1.094 -0.3053 -0.4955 -0.1949
  369SOL    HW1 1106   0.103   3.206   1.162  2.2961  2.2946  1.2442
  369SOL    HW2 1107   0.249   3.214   1.121  1.3268 -1.0742 -3.8836
  370SOL     OW 1108   0.706   1.713   2.367  0.0584  0.4136 -0.3943
  370SOL    HW1 1109   0.696   1.759   2.283 -2.1159  0.7303 -0.0240
  370SOL    HW2 1110   0.681   1.623   2.348  1.1408  0.1072 -0.4117
  371SOL     OW 1111   0.555   3.279   0.294  0.3160 -0.0119 -0.4151
  371SOL    HW1 1112   0.537   3.254   0.203 -0.0705  2.5369 -1.1473
  371SOL    HW2 1113   0.645   3.314   0.291 -0.0304  0.9433 -0.0621
  372SOL     OW 1114   1.219   2.823   2.199  0.2466  0.0131  0.0707
  372SOL    HW1 1115   1.166   2.753   2.238  0.1686  0.0104 -0.0422
  372SOL    HW2 1116   1.254   2.871   2.274 -0.8564  0.7348  0.1371
  373SOL     OW 1117   2.831   1.971   3.773  0.2436 -0.1115  0.4454
  373SOL    HW1 1118   2.792   2.047   3.731  2.0273  0.2517 -0.6707
  373SOL    HW2 1119   2.923   1.994   3.785  0.4297 -1.3873  1.8320
  374SOL     OW 1120   1.202   0.772   2.274 -0.0729 -0.1651 -0.3124
  374SOL    HW1 1121   1.176   0.683   2.299 -1.7942  0.4483  0.1769
  374SOL    HW2 1122   1.269   0.796   2.338  0.1851 -0.9847 -0.2597
  375SOL     OW 1123   0.093   1.293   2.438 -1.3489 -0.5031 -0.1139
  375SOL    HW1 1124   0.033   1.254   2.375 -1.1720 -1.1591  0.1056
  375SOL    HW2 1125   0.075   1.246   2.520  0.9292 -2.3050 -0.5274
  376SOL     OW 1126   0.946   1.234   1.165 -1.0324  0.3677 -0.4941
  376SOL    HW1 1127   1.013   1.296   1.194 -1.4186 -0.0939  1.5450
  376SOL    HW2 1128   0.863   1.280   1.180 -1.3086 -0.4964  0.7364
  377SOL     OW 1129   3.275   1.720   3.345  0.3674  0.3671  0.4569
  377SOL    HW1 1130   3.244   1.677   3.425 -0.3269 -0.8282 -0.4045
  377SOL    HW2 1131   3.218   1.685   3.277 -0.0933  2.5383 -0.3554
  378SOL     OW 1132   2.231   0.726   3.965 -0.9427 -0.6715  1.2926
  378SOL    HW1 1133   2.192   0.702   3.880  1.2322  1.4668 -0.4654
  378SOL    HW2 1134   2.310   0.672   3.971 -0.6950 -0.2777  1.5772
  379SOL     OW 1135   1.239   3.236   2.435 -0.3659 -0.1878  0.4316
  379SOL    HW1 1136   1.163   3.280   2.396 -0.8765 -1.0105  0.4726
  379SOL    HW2 1137   1.218   3.143   2.431  0.9845 -0.4907 -0.2649
  380SOL     OW 1138   3.470   3.605   3.240 -0.3203 -0.4743  0.5077
  380SOL    HW1 1139   3.491   3.626   3.331 -2.4536 -4.2467  2.1216
  380SOL    HW2 1140   3.392   3.656   3.220  1.3450  2.0078 -0.1259
  381SOL     OW 1141   0.233   0.078   2.104 -0.6827  0.6610  0.4042
  381SOL    HW1 1142   0.277   0.017   2.045  0.1142  0.5090  1.1331
  381SOL    HW2 1143   0.188   0.140   2.046 -0.0499  0.4226 -0.3515
  382SOL     OW 1144   2.253   2.421   1.914  0.1195  0.4347 -1.2266
  382SOL    HW1 1145   2.333   2.473   1.907  1.2940 -1.4099 -2.5147
  382SOL    HW2 1146   2.276   2.351   1.975 -0.4506 -0.1933 -1.7175
  383SOL     OW 1147   0.642   3.781   2.435 -0.0462 -0.2438 -0.2125
  383SOL    HW1 1148   0.576   3.814   2.497  0.9086  3.1293 -0.8022
  383SOL    HW2 1149   0.710   3.743   2.490  0.0494  1.2706  0.7658
  384SOL     OW 1150   0.135   1.125   2.664  0.1173 -0.5324 -0.0747
  384SOL    HW1 1151   0.058   1.117   2.607  0.9301  0.0139 -1.2969
  384SOL    HW2 1152   0.126   1.052   2.726 -1.3248 -0.5314 -0.2443
  385SOL     OW 1153   2.623   2.989   0.922 -0.4399 -0.5864 -0.1617
  385SOL    HW1 1154   2.607   2.911   0.869 -0.6387 -0.9167  0.3777
  385SOL    HW2 1155   2.537   3.010   0.959 -0.7407  0.7899 -1.5004
  386SOL     OW 1156   0.254   0.872   0.874 -0.7588  0.3556 -0.2365
  386SOL    HW1 1157   0.232   0.961   0.901  1.4162  1.1448 -0.8500
  386SOL    HW2 1158   0.234   0.870   0.780 -1.9078 -0.2203 -0.0038
  387SOL     OW 1159   2.156   0.462   0.535  0.1521  0.1761 -0.1565
  387SOL    HW1 1160   2.177   0.369   0.528  3.2794  0.8553 -1.4795
  387SOL    HW2 1161   2.082   0.475   0.475 -0.3548 -1.4193  0.0797
  388SOL     OW 1162   0.334   3.089   1.601 -0.0640 -0.1866 -0.3736
  388SOL    HW1 1163   0.304   3.023   1.539 -0.7660  1.6425 -2.1025
  388SOL    HW2 1164   0.289   3.169   1.574  0.0129  0.8327  2.2149
  389SOL     OW 1165   0.512   2.115   0.474  0.8620  0.0007  0.3803
  389SOL    HW1 1166   0.530   2.197   0.427 -0.8520  0.2280  0.0420
  389SOL    HW2 1167   0.554   2.127   0.559  1.6686  0.7225 -0.1036
  390SOL     OW 1168   0.404   2.716   1.915 -0.6235 -0.2923 -0.2049
  390SOL    HW1 1169   0.482   2.764   1.887 -0.0653 -0.6941  0.5970
  390SOL    HW2 1170   0.364   2.773   1.981  0.1899 -0.9970  0.9500
  391SOL     OW 1171   2.582   3.303   1.645 -0.8952 -0.4746 -0.6046
  391SOL    HW1 1172   2.596   3.220   1.598 -1.3988 -1.3996  0.8236
  391SOL    HW2 1173   2.568   3.277   1.736  0.7531  1.3105  0.2408
  392SOL     OW 1174   3.644   0.488   0.282 -0.2241 -0.4331  0.9667
  392SOL    HW1 1175   3.579   0.534   0.229  1.8450  0.3336 -1.0330
  392SOL    HW2 1176   3.703   0.447   0.219  1.2217 -1.1664  2.6968
  393SOL     OW 1177   3.543   1.115   2.010  0.0275 -0.0222 -0.1752
  393SOL    HW1 1178   3.634   1.122   1.980  0.5584  2.8441  1.6641
  393SOL    HW2 1179   3.509   1.204   2.002 -3.1415 -1.2341 -2.0210
  394SOL     OW 1180   3.044   3.854   0.910  0.3345  0.6832  0.2556
  394SOL    HW1 1181   3.069   3.941   0.878  1.0867  0.2999 -0.2145
  394SOL    HW2 1182   3.082   3.793   0.847  0.0297 -0.0018  0.7227
  395SOL     OW 1183   2.336   0.545   3.504  0.3546  0.3952 -0.1805
  395SOL    HW1 1184   2.420   0.589   3.517  1.0234 -0.8800 -0.1098
  395SOL    HW2 1185   2.324   0.545   3.409  0.2686  0.8665 -0.1726
  396SOL     OW 1186   3.651   3.499   3.629 -0.1048 -0.6447  0.0515
  396SOL    HW1 1187   3.746   3.515   3.630 -0.4612  1.7883  0.3646
  396SOL    HW2 1188   3.639   3.422   3.685  1.1640  2.7735  5.8671
  397SOL     OW 1189   2.094   1.520   0.388 -0.1507 -0.0077 -0.5577
  397SOL    HW1 1190   2.187   1.533   0.373 -0.1560  0.0279 -0.5607
  397SOL    HW2 1191   2.082   1.532   0.482 -0.4545  1.9541 -0.7976
  398SOL     OW 1192   1.227   0.528   3.280 -0.2042 -0.2443  0.0881
  398SOL    HW1 1193   1.309   0.492   3.246 -1.2317 -0.1131 -2.7843
  398SOL    HW2 1194   1.160   0.463   3.258 -1.0437  0.1178  1.4487
  399SOL     OW 1195   3.456   0.503   0.838  0.2568 -0.4461 -0.1585
  399SOL    HW1 1196   3.508   0.545   0.907 -0.9014  0.1964  0.3586
  399SOL    HW2 1197   3.377   0.558   0.832 -1.3822 -2.5795  0.6087
  400SOL     OW 1198   2.773   1.704   1.580 -0.6355 -0.3576 -0.6670
  400SOL    HW1 1199   2.825   1.625   1.597 -1.3297 -1.3333 -2.7066
  400SOL    HW2 1200   2.825   1.775   1.619  0.8078 -1.6217 -0.1593
  401SOL     OW 1201   1.716   1.582   2.701 -0.1583  0.2050  0.5867
  401SOL    HW1 1202   1.702   1.675   2.717  2.7115  0.8308  0.0071
  401SOL    HW2 1203   1.628   1.546   2.687 -1.2813  3.0082 -0.1516
  402SOL     OW 1204   1.361   3.823   1.412  0.2704 -0.6436 -0.2821
  402SOL    HW1 1205   1.385   3.755   1.476  2.4159 -0.6509 -0.9846
  402SOL    HW2 1206   1.361   3.777   1.328 -0.9430 -0.3041 -0.4825
  403SOL     OW 1207   2.396   3.826   0.456 -0.3234  0.2126 -0.3072
  403SOL    HW1 1208   2.377   3.743   0.500  0.8542  0.5113  0.8533
  403SOL    HW2 1209   2.481   3.811   0.414 -0.6582  0.4670 -1.0789
  404SOL     OW 1210   2.862   1.866   2.174 -0.8570  0.0982 -0.6927
  404SOL    HW1 1211   2.893   1.860   2.264 -2.1694 -3.1511 -0.3335
  404SOL    HW2 1212   2.767   1.873   2.182 -0.9836 -0.1676 -1.8120
  405SOL     OW 1213   1.889   2.231   1.630  0.2283  0.1544  0.0533
  405SOL    HW1 1214   1.803   2.223   1.671  0.1957 -0.0568 -0.0548
  405SOL    HW2 1215   1.876   2.293   1.559  0.4692  1.1685  0.8597
  406SOL     OW 1216   0.067   0.341   3.180  0.3458  0.6434 -0.0337
  406SOL    HW1 1217   0.051   0.273   3.245  0.1617 -0.4261 -1.1680
  406SOL    HW2 1218  -0.019   0.358   3.141  0.6614  0.3104 -0.9094
  407SOL     OW 1219   2.344   0.262   2.341  0.0808 -0.4131 -0.7561
  407SOL    HW1 1220   2.273   0.289   2.282 -1.1556  3.6126  2.1279
  407SOL    HW2 1221   2.422   0.302   2.303 -0.6837  2.0556  0.0569
  408SOL     OW 1222   1.256   2.466   1.143  0.5078 -0.6632 -0.4710
  408SOL    HW1 1223   1.193   2.472   1.072  0.6103 -0.3750 -0.5364
  408SOL    HW2 1224   1.202   2.456   1.222  0.4056 -2.1488 -0.6918
  409SOL     OW 1225   0.534   0.177   0.543  0.1374  0.3873 -0.3499
  409SOL    HW1 1226   0.463   0.193   0.605 -0.1454  0.1627 -0.6152
  409SOL    HW2 1227   0.606   0.144   0.598  0.2846  1.2830  0.0195
  410SOL     OW 1228   0.974   1.272   3.664 -0.1583  0.1548  0.3931
  410SOL    HW1 1229   1.043   1.215   3.630 -0.5786 -0.5698  0.7390
  410SOL    HW2 1230   0.921   1.294   3.587 -1.7116 -2.2971  0.6376
  411SOL     OW 1231   1.277   2.510   3.945  0.6712  0.0745  0.6882
  411SOL    HW1 1232   1.291   2.479   3.856 -0.0723  1.1385  0.1755
  411SOL    HW2 1233   1.259   2.431   3.996  1.9075 -0.6272  0.0775
  412SOL     OW 1234   2.069   2.137   0.934 -0.0270 -0.6671 -0.2399
  412SOL    HW1 1235   2.118   2.093   0.865 -1.2422 -0.5916 -1.1801
  412SOL    HW2 1236   2.082   2.230   0.918 -0.0841 -0.6515 -0.1944
  413SOL     OW 1237   0.566   2.568   1.049 -0.0399  0.2828  0.1988
  413SOL    HW1 1238   0.590   2.630   0.980 -0.5687 -0.0068 -0.2556
  413SOL    HW2 1239   0.482   2.532   1.020  0.2071 -0.5628  0.5199
  414SOL     OW 1240   3.965   3.618   2.683  0.0654 -0.3721  0.1378
  414SOL    HW1 1241   4.032   3.682   2.709  0.7388 -0.8197 -0.4496
  414SOL    HW2 1242   3.920   3.660   2.610 -0.7756  0.2233  0.9804
  415SOL     OW 1243   1.166   1.366   3.008 -0.0001  0.7056 -0.4622
  415SOL    HW1 1244   1.252   1.324   3.007  0.1137  0.8892  0.5617
  415SOL    HW2 1245   1.111   1.308   2.955  0.7536  0.6177 -1.1851
  416SOL     OW 1246   1.956   0.877   1.231  0.1903  0.0120 -0.8421
  416SOL    HW1 1247   1.884   0.815   1.239 -0.9996  1.0826 -2.5876
  416SOL    HW2 1248   1.996   0.856   1.147  2.0428 -0.6200  0.1358
  417SOL     OW 1249   3.131   0.379   3.548  0.2633  0.7552 -0.1910
  417SOL    HW1 1250   3.143   0.428   3.630 -0.7674  0.4750  0.1429
  417SOL    HW2 1251   3.127   0.288   3.576  2.0026  0.4648 -0.7956
  418SOL     OW 1252   0.058   0.323   0.738 -0.1109  1.0377 -0.7349
  418SOL    HW1 1253  -0.032   0.354   0.750 -1.2544 -1.0079 -3.0660
  418SOL    HW2 1254   0.059   0.237   0.780  0.7906  1.0461 -0.7174
  419SOL     OW 1255   1.924   2.346   3.014 -1.3042  0.6338 -0.1421
  419SOL    HW1 1256   1.852   2.286   3.032  0.8976 -1.5351  2.3303
  419SOL    HW2 1257   1.971   2.353   3.098  1.8983  1.1301 -1.8235
  420SOL     OW 1258   3.709   0.088   1.230  0.3598  0.5319  0.1392
  420SOL    HW1 1259   3.725   0.155   1.164  0.5400  1.7934  1.4084
  420SOL    HW2 1260   3.789   0.035   1.231  1.7250  2.4944  1.5597
  421SOL     OW 1261   1.874   3.769   2.276 -0.7977 -0.7302  0.1296
  421SOL    HW1 1262   1.950   3.822   2.302 -0.9686 -0.0511 -0.7260
  421SOL    HW2 1263   1.801   3.807   2.325 -1.1792  0.7564 -1.4941
  422SOL     OW 1264   1.407   1.322   3.179 -0.1516 -0.0136  1.1191
  422SOL    HW1 1265   1.391   1.405   3.135  0.4650 -0.4365  0.0676
  422SOL    HW2 1266   1.491   1.333   3.223  0.5224 -0.4503 -0.0084
  423SOL     OW 1267   1.214   0.126   2.901  0.4515  0.8930 -0.4619
  423SOL    HW1 1268   1.307   0.144   2.910  0.2606  1.7996 -0.1959
  423SOL    HW2 1269   1.172   0.211   2.912 -0.6506  0.0880  3.1029
  424SOL     OW 1270   1.552   3.910   1.065 -0.0510 -0.0448 -0.7542
  424SOL    HW1 1271   1.465   3.948   1.052 -1.4274 -2.7468 -0.2193
  424SOL    HW2 1272   1.587   3.899   0.977  0.3941  2.2766 -0.9309
  425SOL     OW 1273   2.403   2.485   1.655 -0.0483 -1.4540  0.2452
  425SOL    HW1 1274   2.329   2.425   1.663 -0.4274 -1.0404 -0.0993
  425SOL    HW2 1275   2.380   2.543   1.582  0.2512 -0.8072  0.6516
  426SOL     OW 1276   2.920   1.295   1.224  0.0018 -0.0270  0.6839
  426SOL    HW1 1277   2.989   1.304   1.158 -1.1675  0.2406 -0.5380
  426SOL    HW2 1278   2.943   1.214   1.271  0.4535 -0.6547 -0.5547
  427SOL     OW 1279   1.175   3.630   0.481  0.7275 -0.0483 -0.3336
  427SOL    HW1 1280   1.243   3.650   0.416  3.2263 -1.5609  1.6173
  427SOL    HW2 1281   1.176   3.704   0.541 -0.7833  0.8229 -1.3315
  428SOL     OW 1282   1.171   2.645   3.208 -0.1419  0.3062  0.1066
  428SOL    HW1 1283   1.121   2.610   3.282  0.9268  0.4205  0.9067
  428SOL    HW2 1284   1.250   2.681   3.248  2.6692 -3.5216 -1.3743
  429SOL     OW 1285   3.229   1.534   0.358  0.2671 -0.8866  0.0983
  429SOL    HW1 1286   3.236   1.628   0.370  2.2790 -0.8791 -0.6742
  429SOL    HW2 1287   3.185   1.502   0.437  2.4001  0.3696  1.8992
  430SOL     OW 1288   2.811   0.178   1.524 -0.4559 -0.0736 -0.2250
  430SOL    HW1 1289   2.863   0.104   1.491 -1.7666 -0.7760 -0.7813
  430SOL    HW2 1290   2.873   0.251   1.526  0.6996 -1.0243 -0.3076
  431SOL     OW 1291   1.846   0.215   1.329 -0.3950 -0.0613 -0.6778
  431SOL    HW1 1292   1.810   0.129   1.353 -0.2577 -0.4899 -1.9484
  431SOL    HW2 1293   1.772   0.275   1.338 -0.3701 -0.2009  0.7114
  432SOL     OW 1294   3.041   1.251   3.218  0.5488  0.2568 -0.2814
  432SOL    HW1 1295   3.053   1.234   3.124  0.1733  1.2386 -0.5214
  432SOL    HW2 1296   2.949   1.273   3.227  0.7068  0.7206  0.2346
  433SOL     OW 1297   3.278   1.086   1.378 -0.4198  0.2280  0.0717
  433SOL    HW1 1298   3.212   1.115   1.315 -3.1131  0.7467  2.8756
  433SOL    HW2 1299   3.344   1.155   1.378  0.3413 -0.3580 -2.8910
  434SOL     OW 1300   2.144   2.133   2.864  0.7219 -0.2695  0.3227
  434SOL    HW1 1301   2.125   2.039   2.865  0.5454 -0.2342  1.2454
  434SOL    HW2 1302   2.113   2.165   2.949 -1.0524  0.9918 -0.7161
  435SOL     OW 1303   2.341   0.619   2.907 -0.0652  0.1481  0.1160
  435SOL    HW1 1304   2.375   0.655   2.825  1.0924  1.3362  1.0759
  435SOL    HW2 1305   2.348   0.524   2.897 -0.6483  0.2541 -1.4434
  436SOL     OW 1306   1.795   2.463   3.723 -0.8731 -0.2938 -0.0722
  436SOL    HW1 1307   1.858   2.532   3.704 -1.5356  0.1036 -0.8822
  436SOL    HW2 1308   1.840   2.406   3.786  0.9609 -0.9773 -1.8751
  437SOL     OW 1309   2.946   2.848   3.863 -0.3537 -0.3438  0.5080
  437SOL    HW1 1310   3.036   2.876   3.879 -0.2633 -1.0769  1.3721
  437SOL    HW2 1311   2.954   2.783   3.793  0.4241 -3.6558  3.3840
  438SOL     OW 1312   1.215   2.761   0.566  0.2256 -0.1008 -0.3664
  438SOL    HW1 1313   1.133   2.760   0.615  0.8280 -0.7325  0.6600
  438SOL    HW2 1314   1.271   2.697   0.610  2.1712  2.0413  0.5223
  439SOL     OW 1315   1.949   1.086   2.586 -0.4204 -0.0196 -0.2238
  439SOL    HW1 1316   1.959   0.992   2.575 -0.0886  0.1427 -1.4656
  439SOL    HW2 1317   1.938   1.120   2.497 -1.7956  0.9811  0.2855
  440SOL     OW 1318   1.953   3.538   0.507  0.1019  0.1169 -0.0352
  440SOL    HW1 1319   1.873   3.504   0.468  0.9909 -0.8924 -1.0518
  440SOL    HW2 1320   2.000   3.580   0.434  1.4430 -1.1388  0.0545
  441SOL     OW 1321   3.452   1.804   2.062 -0.1369  0.1859  0.3987
  441SOL    HW1 1322   3.360   1.787   2.045 -0.4481  2.1783 -0.1004
  441SOL    HW2 1323   3.489   1.717   2.080 -2.0420 -0.6727  0.4285
  442SOL     OW 1324   3.087   0.679   3.920  0.1799  0.0372  0.1240
  442SOL    HW1 1325   3.157   0.731   3.961  1.8761 -3.1436  1.6291
  442SOL    HW2 1326   3.020   0.672   3.989  0.1200 -0.1169  0.0487
  443SOL     OW 1327   0.038   0.861   2.166  0.1183  0.2235 -0.2560
  443SOL    HW1 1328   0.096   0.890   2.096  0.4831  1.1004  0.3838
  443SOL    HW2 1329   0.061   0.769   2.180  3.3280  1.1620  1.7725
  444SOL     OW 1330   3.216   3.131   1.551 -0.7564 -0.0052 -0.0241
  444SOL    HW1 1331   3.178   3.211   1.514 -0.8246  0.7918  1.6490
  444SOL    HW2 1332   3.192   3.134   1.644  0.9181 -0.9706  0.4790
  445SOL     OW 1333   1.084   1.511   2.539 -0.6672  0.1260  0.0518
  445SOL    HW1 1334   1.014   1.467   2.588  0.6336  0.3109  2.2155
  445SOL    HW2 1335   1.133   1.441   2.498 -1.2941 -0.1021 -0.3172
  446SOL     OW 1336   3.508   1.559   3.256  0.2048 -0.7320  0.7727
  446SOL    HW1 1337   3.464   1.621   3.314 -2.0700 -0.5998 -0.9522
  446SOL    HW2 1338   3.447   1.486   3.247  1.2584 -1.5495 -0.0706
  447SOL     OW 1339   2.793   0.697   1.422 -0.1835 -0.0823 -0.0658
  447SOL    HW1 1340   2.798   0.678   1.329  1.4529 -1.1611  0.1851
  447SOL    HW2 1341   2.785   0.610   1.463 -3.0794  0.4593  0.7578
  448SOL     OW 1342   2.886   2.559   1.969  0.5103  0.0477 -0.1469
  448SOL    HW1 1343   2.918   2.644   1.937  0.7066  0.3823  0.9103
  448SOL    HW2 1344   2.812   2.581   2.025  0.1206 -0.5389 -0.4268
  449SOL     OW 1345   0.330   2.832   3.720  0.6020 -0.7325 -0.0441
  449SOL    HW1 1346   0.333   2.772   3.794 -1.3133 -0.8440 -0.0038
  449SOL    HW2 1347   0.258   2.892   3.741  0.3159 -0.4901 -1.6124
  450SOL     OW 1348   3.774   3.546   0.718  0.8329  0.5232 -0.0841
  450SOL    HW1 1349   3.755   3.617   0.780  2.0194  1.6808 -1.0087
  450SOL    HW2 1350   3.856   3.571   0.677  0.9836 -1.1250 -0.8549
  451SOL     OW 1351   0.411   3.623   0.466 -0.8033 -0.7242  0.0575
  451SOL    HW1 1352   0.372   3.697   0.419 -0.5431 -0.6318 -0.0160
  451SOL    HW2 1353   0.342   3.592   0.524 -0.5015  0.3860  1.0284
  452SOL     OW 1354   3.245   1.290   0.130  0.4625 -0.2122  0.4611
  452SOL    HW1 1355   3.318   1.301   0.190  0.6338  0.0530  0.2039
  452SOL    HW2 1356   3.196   1.372   0.137  0.3220 -0.2958  0.4564
  453SOL     OW 1357   0.260   3.691   3.744 -0.1883  0.4937  0.0459
  453SOL    HW1 1358   0.216   3.668   3.825  0.3679 -1.2246 -0.0999
  453SOL    HW2 1359   0.305   3.773   3.764 -0.4667  0.3568  1.3198
  454SOL     OW 1360   2.332   2.224   2.061 -0.1783 -0.7918 -0.7890
  454SOL    HW1 1361   2.311   2.206   2.153  0.4010 -0.0998 -0.5145
  454SOL    HW2 1362   2.374   2.144   2.030  1.5684 -0.3071  0.1687
  455SOL     OW 1363   0.310   3.435   1.223 -0.0236  0.3053  0.3650
  455SOL    HW1 1364   0.260   3.512   1.251 -1.4167 -0.0410 -1.0282
  455SOL    HW2 1365   0.372   3.469   1.158 -1.3544  0.1428 -1.0382
  456SOL     OW 1366   0.956   0.255   0.466 -0.9011  0.1609 -0.1714
  456SOL    HW1 1367   0.872   0.261   0.419 -0.3571  2.5946 -0.9973
  456SOL    HW2 1368   1.019   0.298   0.407  1.1141 -2.1397  0.1402
  457SOL     OW 1369   2.810   0.292   0.444  0.1507  0.0683 -0.2329
  457SOL    HW1 1370   2.770   0.367   0.400 -0.4178 -0.3470 -0.4401
  457SOL    HW2 1371   2.744   0.262   0.505 -0.8226 -2.0019 -2.1381
  458SOL     OW 1372   1.074   0.363   2.926 -0.4696  0.5574 -0.3608
  458SOL    HW1 1373   1.015   0.439   2.927 -0.6426  0.4303  0.6147
  458SOL    HW2 1374   1.161   0.400   2.910 -0.7392  0.8039 -1.2875
  459SOL     OW 1375   1.687   3.245   1.961 -0.6826  0.6367  0.4491
  459SOL    HW1 1376   1.659   3.153   1.965 -3.6543  1.3587 -0.9349
  459SOL    HW2 1377   1.697   3.262   1.867  2.1798  1.1972  0.7577
  460SOL     OW 1378   3.893   1.369   3.883 -0.7884  0.0292  0.5775
  460SOL    HW1 1379   3.985   1.362   3.909 -0.3521 -1.6305 -1.1781
  460SOL    HW2 1380   3.855   1.284   3.909 -2.3653  1.3367  2.9495
  461SOL     OW 1381   3.133   0.509   0.855 -0.0644  0.4717  0.5757
  461SOL    HW1 1382   3.179   0.528   0.774  2.9085  0.3045  2.0659
  461SOL    HW2 1383   3.084   0.428   0.837 -2.6440  2.4319 -2.0560
  462SOL     OW 1384   1.449   0.152   2.207  0.4467  0.0945 -0.2198
  462SOL    HW1 1385   1.530   0.111   2.235 -0.2818 -1.5522 -0.4100
  462SOL    HW2 1386   1.425   0.105   2.127 -1.0262  0.0872  0.1966
  463SOL     OW 1387   3.018   2.739   2.975 -0.2122  0.2837  0.1174
  463SOL    HW1 1388   2.955   2.679   3.015 -0.6639 -1.1877 -2.5421
  463SOL    HW2 1389   2.974   2.824   2.974 -1.7961 -0.5023 -0.7745
  464SOL     OW 1390   3.038   0.993   3.838 -0.3399  0.0131  0.1157
  464SOL    HW1 1391   3.062   1.086   3.833 -1.5208  0.2505 -2.7253
  464SOL    HW2 1392   3.064   0.967   3.926 -0.6404  3.2083  1.2873
  465SOL     OW 1393   3.792   0.159   0.703  0.3233 -0.1917 -0.0021
  465SOL    HW1 1394   3.706   0.181   0.738 -0.3355 -2.4331 -0.0376
  465SOL    HW2 1395   3.784   0.171   0.609  0.8812  2.0376  0.1873
  466SOL     OW 1396   2.969   1.310   3.655 -0.2807 -0.2467 -0.3154
  466SOL    HW1 1397   2.880   1.345   3.645  0.5077  1.3117 -2.3870
  466SOL    HW2 1398   2.969   1.231   3.602 -0.3367 -0.0437 -0.6236
  467SOL     OW 1399   0.944   0.280   4.010  0.0169 -0.3172  0.6336
  467SOL    HW1 1400   0.975   0.294   3.920 -1.2753 -1.6955 -0.0818
  467SOL    HW2 1401   1.023   0.266   4.061  0.7623  0.2288 -0.3324
  468SOL     OW 1402   1.744   1.891   2.731 -0.0518 -0.1343 -0.8838
  468SOL    HW1 1403   1.761   1.984   2.743  1.2024 -0.2304 -1.6685
  468SOL    HW2 1404   1.758   1.876   2.637 -1.2414 -0.9304 -0.9511
  469SOL     OW 1405   0.599   0.573   3.841  0.7734 -0.1838  0.2436
  469SOL    HW1 1406   0.598   0.652   3.894  0.7942  0.3908 -0.5984
  469SOL    HW2 1407   0.517   0.528   3.864  2.0289 -1.3890  2.8325
  470SOL     OW 1408   2.304   1.811   2.979  0.2773  0.1446  0.1686
  470SOL    HW1 1409   2.229   1.821   2.920 -0.5406 -0.1739  1.1055
  470SOL    HW2 1410   2.351   1.894   2.974 -1.7296  1.4763  1.6495
  471SOL     OW 1411   0.599   3.865   3.811  0.5707 -0.1621 -0.3766
  471SOL    HW1 1412   0.547   3.855   3.891  3.0343 -0.1944  1.3410
  471SOL    HW2 1413   0.625   3.776   3.788  0.5212 -0.0740 -0.7799
  472SOL     OW 1414   0.993   3.109   3.971 -0.1176 -0.4723  0.0279
  472SOL    HW1 1415   1.011   3.168   3.899 -1.5019  0.6594  0.5691
  472SOL    HW2 1416   1.073   3.110   4.024  0.0421  0.5464 -0.2251
  473SOL     OW 1417   2.456   1.065   0.491 -0.0186 -0.5811  0.4805
  473SOL    HW1 1418   2.503   1.061   0.407 -1.5650  0.0977 -0.4541
  473SOL    HW2 1419   2.494   0.994   0.542  3.3790  1.0847  0.5408
  474SOL     OW 1420   3.050   2.220   3.468 -0.2196 -0.4843  0.7636
  474SOL    HW1 1421   3.058   2.312   3.495 -0.1641 -0.0528 -0.6266
  474SOL    HW2 1422   2.992   2.223   3.391  2.3961 -1.1710 -1.3753
  475SOL     OW 1423   3.414   0.426   1.650 -0.4151  0.6561 -0.3148
  475SOL    HW1 1424   3.394   0.472   1.569 -0.1725  0.0921 -0.6973
  475SOL    HW2 1425   3.481   0.363   1.626 -1.1101 -0.2627  0.0870
  476SOL     OW 1426   3.904   0.107   1.696  0.3086  0.2374 -0.0388
  476SOL    HW1 1427   3.938   0.060   1.619  1.3689 -0.8768  1.0722
  476SOL    HW2 1428   3.848   0.044   1.740  0.9939  0.3104  0.9620
  477SOL     OW 1429   1.765   0.395   3.292  0.4436 -0.0242  0.1947
  477SOL    HW1 1430   1.769   0.301   3.274  1.6177 -0.1339  0.8800
  477SOL    HW2 1431   1.849   0.415   3.334  0.3322  1.3900 -0.1840
  478SOL     OW 1432   1.657   3.844   0.019 -0.0291  0.0995  0.0565
  478SOL    HW1 1433   1.600   3.768   0.017 -1.6909  1.2906 -0.5373
  478SOL    HW2 1434   1.701   3.840   0.104  2.5281 -3.2622 -1.2191
  479SOL     OW 1435   2.250   2.408   2.741 -0.2689 -0.4663  1.1388
  479SOL    HW1 1436   2.204   2.325   2.733  0.3498 -0.7763  0.7121
  479SOL    HW2 1437   2.180   2.473   2.754 -0.6813 -1.1780  2.5841
  480SOL     OW 1438   0.517   1.884   1.554 -0.4479  0.0247 -0.3979
  480SOL    HW1 1439   0.578   1.832   1.502 -1.4633 -0.4443 -1.1562
  480SOL    HW2 1440   0.536   1.861   1.645  3.5372  3.1754 -0.1380
  481SOL     OW 1441   3.923   2.160   2.394 -0.6411  0.2914  0.1100
  481SOL    HW1 1442   3.891   2.071   2.380  0.8586  0.0397 -2.5566
  481SOL    HW2 1443   3.895   2.208   2.316 -0.1461  1.7434  0.7890
  482SOL     OW 1444   0.740   2.372   1.589  0.1163 -0.7724  0.2257
  482SOL    HW1 1445   0.788   2.317   1.526 -0.7788  0.2071 -1.3865
  482SOL    HW2 1446   0.648   2.353   1.572 -0.2033  0.8891 -0.1032
  483SOL     OW 1447   0.753   1.647   1.214  0.2061 -0.0566  0.1482
  483SOL    HW1 1448   0.738   1.560   1.252  0.9869 -0.5098 -0.5400
  483SOL    HW2 1449   0.840   1.641   1.174 -0.3186  0.5850 -1.1603
  484SOL     OW 1450   2.803   1.235   3.057  0.3474  0.8831  0.1738
  484SOL    HW1 1451   2.738   1.288   3.103  0.4854 -0.2140  1.7331
  484SOL    HW2 1452   2.772   1.232   2.967 -2.0416  0.0589  0.9381
  485SOL     OW 1453   3.366   3.285   3.229  0.2232  0.4027 -0.0039
  485SOL    HW1 1454   3.429   3.301   3.300 -0.5068 -1.3004  1.0871
  485SOL    HW2 1455   3.294   3.238   3.271  0.1205 -1.3531 -2.0088
  486SOL     OW 1456   0.960   3.923   3.614  0.8545 -0.2775  0.2679
  486SOL    HW1 1457   0.880   3.975   3.606  0.2353 -0.8543  2.2185
  486SOL    HW2 1458   0.936   3.848   3.668  2.0919 -1.8886 -1.2633
  487SOL     OW 1459   1.868   0.004   1.570 -0.3531 -0.0596 -0.3911
  487SOL    HW1 1460   1.929   0.074   1.548 -3.7138  3.1682 -0.4320
  487SOL    HW2 1461   1.908  -0.040   1.645  1.9708  1.8428 -0.4064
  488SOL     OW 1462   3.379   3.323   1.172 -0.2565  0.1760 -0.5352
  488SOL    HW1 1463   3.338   3.324   1.259  0.4234  1.5374 -0.1995
  488SOL    HW2 1464   3.468   3.354   1.188 -0.4581  1.5345 -1.8722
  489SOL     OW 1465   1.863   3.561   1.474  0.1160 -0.3097  0.4063
  489SOL    HW1 1466   1.924   3.635   1.482 -0.7397  0.5191 -0.5697
  489SOL    HW2 1467   1.805   3.570   1.550 -1.6605  1.6416 -1.0536
  490SOL     OW 1468   0.720   3.221   0.736 -0.7753 -0.2500 -0.4512
  490SOL    HW1 1469   0.674   3.151   0.690 -2.7216 -0.2173  1.2990
  490SOL    HW2 1470   0.678   3.302   0.706  0.0116  0.0122 -0.8670
  491SOL     OW 1471   0.777   1.071   1.341  0.5195  0.1687 -0.8545
  491SOL    HW1 1472   0.772   1.122   1.422 -3.6752  1.7389 -1.8393
  491SOL    HW2 1473   0.847   1.112   1.291 -0.6126  3.0557 -0.2832
  492SOL     OW 1474   0.323   2.873   0.784 -0.0441 -0.3520 -0.2087
  492SOL    HW1 1475   0.381   2.933   0.831 -1.5800 -1.2536  3.1022
  492SOL    HW2 1476   0.235   2.907   0.799 -0.6567 -0.3148 -3.1825
  493SOL     OW 1477   1.880   0.450   1.815  0.3429 -0.8155  0.0362
  493SOL    HW1 1478   1.890   0.447   1.720 -1.9152  1.0386 -0.3632
  493SOL    HW2 1479   1.875   0.543   1.836  0.6613 -1.1829  1.9903
  494SOL     OW 1480   3.906   2.547   0.698  0.3834  0.1283  0.3035
  494SOL    HW1 1481   3.880   2.636   0.673 -0.0966 -0.1515 -0.2263
  494SOL    HW2 1482   3.830   2.493   0.676  0.5630 -0.3718  0.8939
  495SOL     OW 1483   0.300   1.105   3.033 -0.1061  0.2303 -0.4968
  495SOL    HW1 1484   0.298   1.189   2.987 -1.2150  0.3706 -0.2144
  495SOL    HW2 1485   0.343   1.045   2.972  0.6990  0.9864 -0.7050
  496SOL     OW 1486   1.516   2.444   1.055  0.0805  0.3442 -0.3648
  496SOL    HW1 1487   1.548   2.433   1.144 -0.3428  1.5627 -0.0318
  496SOL    HW2 1488   1.424   2.471   1.066 -0.1838 -0.1957 -1.1888
  497SOL     OW 1489   3.765   2.851   2.588 -0.2734  0.1561 -0.4701
  497SOL    HW1 1490   3.741   2.767   2.627  2.0208 -0.1724  0.4130
  497SOL    HW2 1491   3.861   2.848   2.582 -0.0393  3.0115  0.3432
  498SOL     OW 1492   3.522   4.001   2.587  0.0843  0.5415  0.5002
  498SOL    HW1 1493   3.606   4.047   2.580 -0.4119  1.2437 -1.2854
  498SOL    HW2 1494   3.535   3.919   2.540 -0.5258  1.1455 -0.7741
  499SOL     OW 1495   3.173   3.604   0.447  0.0141 -0.3742 -0.0017
  499SOL    HW1 1496   3.261   3.640   0.451 -0.5777  1.0367  2.8306
  499SOL    HW2 1497   3.122   3.670   0.399  0.9673 -2.7572 -4.8987
  500SOL     OW 1498   1.229   1.336   3.443 -0.0488 -0.2000  1.0617
  500SOL    HW1 1499   1.162   1.299   3.385  1.2685 -1.8179  0.5114
  500SOL    HW2 1500   1.292   1.265   3.456  0.9145  0.8742  2.6017
  501SOL     OW 1501   2.307   3.579   1.990  0.0494 -0.5398 -0.0674
  501SOL    HW1 1502   2.333   3.549   1.903  0.7267 -1.9729  0.5834
  501SOL    HW2 1503   2.348   3.665   1.999 -1.1190  0.2264 -1.6338
  502SOL     OW 1504   1.799   2.386   1.402  0.6300  0.2662 -0.1491
  502SOL    HW1 1505   1.862   2.348   1.341  0.9271 -0.6719  0.7180
  502SOL    HW2 1506   1.781   2.473   1.367 -1.2030 -1.1349 -3.0633
  503SOL     OW 1507   0.977   1.596   0.610 -0.1723  0.1095  0.2321
  503SOL    HW1 1508   0.921   1.527   0.576  0.9547 -0.4381 -0.5555
  503SOL    HW2 1509   0.991   1.573   0.702 -1.5415  0.4803  0.5634
  504SOL     OW 1510   1.417   2.840   1.199  0.5865  1.0206 -0.1030
  504SOL    HW1 1511   1.335   2.807   1.236  0.7356  0.5895 -0.1455
  504SOL    HW2 1512   1.438   2.778   1.129  1.7714  0.2109  0.9332
  505SOL     OW 1513   0.095   3.669   1.470  0.1762 -0.1516  0.4255
  505SOL    HW1 1514   0.135   3.697   1.388  2.2021  1.4775  1.8604
  505SOL    HW2 1515   0.106   3.744   1.529 -3.3191 -0.3533  1.5735
  506SOL     OW 1516   3.915   1.236   1.992 -0.1202 -0.5397 -0.3642
  506SOL    HW1 1517   3.890   1.144   1.984  0.6332 -1.0014  1.8499
  506SOL    HW2 1518   3.948   1.260   1.905 -1.4121 -1.9755 -1.3116
  507SOL     OW 1519   0.942   0.796   1.462 -0.2131 -0.0474  0.2699
  507SOL    HW1 1520   1.029   0.785   1.500  0.8710 -0.0981 -2.0568
  507SOL    HW2 1521   0.921   0.888   1.477  1.6991  0.8294 -1.8574
  508SOL     OW 1522   2.068   1.690   3.418 -0.6333  0.1117 -0.4875
  508SOL    HW1 1523   2.042   1.605   3.454  1.1094 -0.3673 -0.2329
  508SOL    HW2 1524   2.058   1.750   3.492  0.2192 -0.3329  0.0245
  509SOL     OW 1525   1.283   1.686   0.835  0.1162 -0.4255  0.6597
  509SOL    HW1 1526   1.271   1.739   0.756  2.2506 -1.2419 -0.2955
  509SOL    HW2 1527   1.195   1.674   0.869 -0.8092  0.5561 -1.2083
  510SOL     OW 1528   2.301   3.614   0.574 -0.3792 -0.3202  0.0786
  510SOL    HW1 1529   2.358   3.569   0.512  1.7835 -0.1419  1.8003
  510SOL    HW2 1530   2.219   3.564   0.572  1.5202 -3.8802  1.1445
  511SOL     OW 1531   2.091   2.382   2.181  0.5858  0.1915  0.0664
  511SOL    HW1 1532   2.143   2.307   2.209  1.6579  1.4278  1.5862
  511SOL    HW2 1533   2.113   2.394   2.089 -0.5993 -2.0981 -0.5768
  512SOL     OW 1534   2.952   0.314   0.810  0.0888 -0.2927 -0.2995
  512SOL    HW1 1535   2.978   0.228   0.843 -1.0923 -1.4642 -2.2289
  512SOL    HW2 1536   2.961   0.307   0.715  0.1313  1.7955 -0.4912
  513SOL     OW 1537   3.585   1.087   1.722 -0.0579  0.9805 -0.2723
  513SOL    HW1 1538   3.521   1.139   1.771 -1.2734  1.0862 -1.9013
  513SOL    HW2 1539   3.622   1.028   1.788  0.1144  2.6942  1.2718
  514SOL     OW 1540   2.510   2.532   3.086 -0.0575  0.1544 -0.5227
  514SOL    HW1 1541   2.441   2.470   3.109 -0.8206  1.0991 -0.2054
  514SOL    HW2 1542   2.519   2.587   3.163 -0.1828  1.1377 -1.1914
  515SOL     OW 1543   2.249   0.881   2.681  0.0188  0.3423 -0.0265
  515SOL    HW1 1544   2.215   0.802   2.723 -0.8385 -0.2962 -1.8076
  515SOL    HW2 1545   2.247   0.860   2.588  3.5807  0.9603 -0.3829
  516SOL     OW 1546   0.925   0.068   1.095 -0.2169 -0.2251 -0.6819
  516SOL    HW1 1547   0.927   0.135   1.026  3.3005 -0.3506 -0.8816
  516SOL    HW2 1548   0.996   0.093   1.153 -1.9373 -1.1644  1.9811
  517SOL     OW 1549   3.164   2.480   2.525  0.2123 -0.7685 -0.1172
  517SOL    HW1 1550   3.117   2.506   2.605  2.6130 -0.8247  1.4175
  517SOL    HW2 1551   3.175   2.562   2.476  1.1394 -0.1711  1.0192
  518SOL     OW 1552   0.445   0.229   0.089 -0.1500 -0.0540 -0.6732
  518SOL    HW1 1553   0.513   0.171   0.054  0.4449 -0.3799  0.9271
  518SOL    HW2 1554   0.491   0.310   0.110 -0.5594  0.2529 -0.9417
  519SOL     OW 1555   1.399   0.112   3.413  0.0509  0.3074  0.4915
  519SOL    HW1 1556   1.470   0.137   3.472  0.9884  0.5639 -0.7205
  519SOL    HW2 1557   1.442   0.067   3.340 -0.9503  1.0558 -0.5938
  520SOL     OW 1558   2.819   1.380   3.362  1.1134 -0.8629 -0.3144
  520SOL    HW1 1559   2.758   1.363   3.290  0.9394 -0.9952 -0.1350
  520SOL    HW2 1560   2.780   1.337   3.438  0.8778 -0.0142  0.0534
  521SOL     OW 1561   0.978   3.139   2.571 -0.6990 -0.1355 -0.7253
  521SOL    HW1 1562   1.036   3.077   2.528 -0.5380 -1.2558  1.0179
  521SOL    HW2 1563   0.900   3.088   2.594 -0.7674  0.3861  0.2927
  522SOL     OW 1564   3.122   1.516   2.567  0.8478  0.2239  0.3293
  522SOL    HW1 1565   3.162   1.505   2.653  1.2654 -0.5996  0.0408
  522SOL    HW2 1566   3.113   1.611   2.557  3.9135  0.5918 -0.0981
  523SOL     OW 1567   3.643   2.416   1.008 -0.2765 -0.2344 -0.0499
  523SOL    HW1 1568   3.610   2.356   1.074 -1.6392  0.5221 -0.0071
  523SOL    HW2 1569   3.732   2.436   1.037  1.8282 -5.0978 -2.0660
  524SOL     OW 1570   1.801   1.851   3.158  0.2027  0.3645 -0.2986
  524SOL    HW1 1571   1.772   1.760   3.144  0.0158 -0.2427  3.2079
  524SOL    HW2 1572   1.720   1.902   3.152 -0.0100  0.0253 -0.4031
  525SOL     OW 1573   2.737   1.798   2.542  0.4605 -0.1670  0.6193
  525SOL    HW1 1574   2.679   1.802   2.618 -0.2142  1.2388  0.0530
  525SOL    HW2 1575   2.688   1.841   2.472  1.0734 -1.4232 -0.6248
  526SOL     OW 1576   1.923   0.752   3.294 -0.1762 -0.1886  0.2447
  526SOL    HW1 1577   1.844   0.772   3.243  0.2705  1.8257  0.2706
  526SOL    HW2 1578   1.960   0.837   3.315  1.6133 -1.0794  0.8935
  527SOL     OW 1579   2.433   1.570   3.581  0.2467 -0.1028  0.4798
  527SOL    HW1 1580   2.376   1.645   3.596 -0.3047  0.0257 -1.9776
  527SOL    HW2 1581   2.509   1.606   3.536  0.9333 -0.7429  1.0817
  528SOL     OW 1582   3.048   0.112   3.609  1.3563  0.4568  0.1826
  528SOL    HW1 1583   2.974   0.121   3.668  1.8519  0.2590  0.8434
  528SOL    HW2 1584   3.074   0.020   3.616 -0.2538 -0.2910 -2.3805
  529SOL     OW 1585   2.035   0.765   0.985 -0.3800  0.1347 -0.4567
  529SOL    HW1 1586   2.031   0.689   0.927  2.4793  1.8249 -3.1753
  529SOL    HW2 1587   2.013   0.839   0.928 -1.3254  1.5773  1.6524
  530SOL     OW 1588   2.019   3.017   3.163 -0.1846 -0.0365  0.1110
  530SOL    HW1 1589   1.988   3.006   3.073 -1.2048 -2.7574  0.6945
  530SOL    HW2 1590   1.974   3.095   3.195 -2.2065 -0.7609 -0.8151
  531SOL     OW 1591   1.622   1.306   2.833 -0.1981  0.1656  0.4505
  531SOL    HW1 1592   1.711   1.273   2.845  1.2776  3.3030 -0.6995
  531SOL    HW2 1593   1.618   1.329   2.740 -1.7144  1.4474  0.7951
  532SOL     OW 1594   0.739   1.267   3.085 -0.1516  0.2112  0.2605
  532SOL    HW1 1595   0.730   1.359   3.110 -2.8077 -0.2949  1.5043
  532SOL    HW2 1596   0.682   1.220   3.146 -0.4899 -2.0476 -1.6506
  533SOL     OW 1597   1.522   3.906   3.686 -0.0359 -0.2756 -0.0051
  533SOL    HW1 1598   1.460   3.868   3.625  0.5288  1.5432 -1.8301
  533SOL    HW2 1599   1.495   3.873   3.772 -1.5138 -2.0649 -1.0867
  534SOL     OW 1600   2.441   3.774   1.693  0.6452 -0.5779  0.0639
  534SOL    HW1 1601   2.511   3.738   1.748  0.2680  0.3657  1.1722
  534SOL    HW2 1602   2.409   3.698   1.643  1.4268 -1.3164  0.6556
  535SOL     OW 1603   3.517   2.116   0.313 -0.7904 -0.3615  0.5942
  535SOL    HW1 1604   3.490   2.205   0.337 -0.7827 -0.7108  2.0302
  535SOL    HW2 1605   3.510   2.067   0.395  2.5972 -0.8809  0.7183
  536SOL     OW 1606   1.566   2.404   2.445 -1.1408 -0.2728  0.2914
  536SOL    HW1 1607   1.606   2.317   2.450 -0.5023  0.0373  0.6018
  536SOL    HW2 1608   1.472   2.387   2.457 -0.9054 -0.8038  1.5502
  537SOL     OW 1609   2.280   3.144   3.750 -0.1654  0.9321 -0.2254
  537SOL    HW1 1610   2.339   3.217   3.728  2.6765 -0.3990  2.2026
  537SOL    HW2 1611   2.231   3.176   3.826 -0.7849  1.1966 -0.7371
  538SOL     OW 1612   2.309   2.563   2.254 -0.8868 -0.8797  0.4558
  538SOL    HW1 1613   2.228   2.536   2.210 -2.1106 -0.0664  2.0995
  538SOL    HW2 1614   2.281   2.592   2.341  0.8263  1.7422  0.2523
  539SOL     OW 1615   0.242   0.592   3.566  0.4227  0.8147  0.2377
  539SOL    HW1 1616   0.245   0.508   3.611 -1.2897  1.6851  2.1604
  539SOL    HW2 1617   0.166   0.587   3.509 -0.8701  1.6355  1.7943
  540SOL     OW 1618   2.735   0.344   1.073 -0.5564 -0.4628 -0.2030
  540SOL    HW1 1619   2.758   0.378   0.987  0.3443 -1.3723 -0.3353
  540SOL    HW2 1620   2.692   0.261   1.056  0.0227 -0.8646  0.2249
  541SOL     OW 1621   1.772   2.451   1.829  0.3513 -0.6459 -0.7538
  541SOL    HW1 1622   1.783   2.372   1.882  2.2515 -0.9210 -1.4541
  541SOL    HW2 1623   1.798   2.424   1.741 -0.1590  0.4661 -1.2611
  542SOL     OW 1624   0.291   2.024   1.236 -0.3892 -0.2069 -0.3791
  542SOL    HW1 1625   0.376   2.060   1.257 -1.3472  2.4015 -0.6473
  542SOL    HW2 1626   0.272   2.056   1.148 -1.6180 -0.8105 -0.3616
  543SOL     OW 1627   0.635   2.402   2.851  0.0882  0.2165  0.5131
  543SOL    HW1 1628   0.669   2.318   2.819 -1.6610 -1.0556  1.7927
  543SOL    HW2 1629   0.599   2.445   2.774 -0.3454 -0.9186  0.0559
  544SOL     OW 1630   0.598   0.788   2.724  0.1269  0.0130 -0.5987
  544SOL    HW1 1631   0.613   0.769   2.631 -0.5737 -0.4765 -0.6171
  544SOL    HW2 1632   0.641   0.716   2.770 -2.7386 -1.9100 -0.6750
  545SOL     OW 1633   0.122   2.752   1.816  0.1022 -0.4454 -0.3122
  545SOL    HW1 1634   0.131   2.847   1.830 -0.2871 -0.7186  2.3055
  545SOL    HW2 1635   0.210   2.717   1.831 -0.2014 -0.6976  0.9493
  546SOL     OW 1636   2.080   3.272   1.800 -0.1894 -0.2690 -0.2976
  546SOL    HW1 1637   2.015   3.267   1.869  0.1223  1.3847  0.1821
  546SOL    HW2 1638   2.061   3.355   1.756  1.3410  0.0842 -0.3565
  547SOL     OW 1639   0.839   2.739   2.734  0.5087  0.8988  0.8706
  547SOL    HW1 1640   0.748   2.767   2.736  0.6996  1.4817  2.1225
  547SOL    HW2 1641   0.836   2.647   2.708 -0.4092  0.9688  0.7029
  548SOL     OW 1642   0.715   3.390   2.386  0.1892  0.8743 -0.2385
  548SOL    HW1 1643   0.681   3.360   2.469 -0.0990  0.2651 -0.5727
  548SOL    HW2 1644   0.787   3.449   2.409  1.4010 -0.8095  0.4222
  549SOL     OW 1645   2.272   3.952   1.465  0.2115  0.3292 -0.2615
  549SOL    HW1 1646   2.252   4.007   1.389  1.7777  1.3641  0.0241
  549SOL    HW2 1647   2.365   3.966   1.480 -0.3422  1.5178  2.8793
  550SOL     OW 1648   0.806   2.501   2.249  0.3424  0.1683  0.3395
  550SOL    HW1 1649   0.801   2.553   2.330  0.8481 -0.3385  0.6973
  550SOL    HW2 1650   0.825   2.566   2.181 -0.0086  0.5895  0.6314
  551SOL     OW 1651   1.108   2.706   0.322 -0.6911 -0.2067  0.1439
  551SOL    HW1 1652   1.047   2.633   0.330 -0.9135 -0.1041 -0.5850
  551SOL    HW2 1653   1.138   2.722   0.412 -0.1873 -1.5775  0.2476
  552SOL     OW 1654   2.653   2.969   2.895 -0.5178 -0.2443 -0.3301
  552SOL    HW1 1655   2.586   2.942   2.833 -0.9408  0.2874 -0.1119
  552SOL    HW2 1656   2.606   3.020   2.961 -0.2581 -1.6820  1.0120
  553SOL     OW 1657   3.897   1.824   2.524  0.1358 -0.2134 -0.6540
  553SOL    HW1 1658   3.943   1.773   2.590  0.1245 -0.3326 -0.7361
  553SOL    HW2 1659   3.814   1.777   2.511  0.4203 -0.5710 -1.2340
  554SOL     OW 1660   0.650   0.843   3.944 -0.1990  0.4618  0.0847
  554SOL    HW1 1661   0.658   0.936   3.964  2.3899  0.2587  0.3360
  554SOL    HW2 1662   0.738   0.816   3.916 -0.2728 -2.3852  2.1165
  555SOL     OW 1663   0.099   2.567   0.927 -0.6154  0.9101  0.4204
  555SOL    HW1 1664   0.062   2.553   1.014  0.5560 -1.3526  0.6340
  555SOL    HW2 1665   0.030   2.539   0.867  0.8407 -4.7668  0.8164
  556SOL     OW 1666   0.140   2.363   2.390  0.7666 -0.0693  0.7201
  556SOL    HW1 1667   0.100   2.416   2.321  0.8705  1.5794  1.8786
  556SOL    HW2 1668   0.067   2.312   2.425  1.0299 -2.4893 -1.8267
  557SOL     OW 1669   2.829   1.794   0.942  0.5626  0.3625 -0.4680
  557SOL    HW1 1670   2.798   1.835   1.023  0.2416  0.2271 -0.5177
  557SOL    HW2 1671   2.753   1.798   0.884  0.3766 -0.6960 -0.3218
  558SOL     OW 1672   2.587   2.667   2.804  0.5333 -0.1776 -0.0069
  558SOL    HW1 1673   2.492   2.659   2.802  0.5324 -0.1414 -0.1223
  558SOL    HW2 1674   2.613   2.628   2.887  0.4735 -0.7611 -0.2629
  559SOL     OW 1675   2.423   2.634   1.940  0.1889 -0.6673 -0.6252
  559SOL    HW1 1676   2.469   2.552   1.922 -1.2509 -1.8513  0.8654
  559SOL    HW2 1677   2.425   2.643   2.035  0.3354  1.0853 -0.7497
  560SOL     OW 1678   3.956   3.222   2.084  0.0158  0.3895 -0.1596
  560SOL    HW1 1679   4.001   3.292   2.037 -0.4954  0.0115 -1.2297
  560SOL    HW2 1680   3.891   3.267   2.138  0.1360  0.7760 -0.3351
  561SOL     OW 1681   1.081   0.369   0.267  0.4435 -0.3348 -0.5354
  561SOL    HW1 1682   1.143   0.328   0.207  1.3703  0.6725 -0.3073
  561SOL    HW2 1683   1.069   0.458   0.233  1.5464  0.4974  1.1222
  562SOL     OW 1684   1.140   2.936   2.742  0.1592  0.1330  0.2415
  562SOL    HW1 1685   1.178   2.958   2.657  0.1655  0.5536  0.3532
  562SOL    HW2 1686   1.167   2.845   2.757  0.0012 -0.0020 -0.2884
  563SOL     OW 1687   3.768   1.788   1.010  0.8893 -0.2354 -0.3647
  563SOL    HW1 1688   3.731   1.734   1.080  0.1333  1.9369  1.0039
  563SOL    HW2 1689   3.847   1.741   0.983  0.0507 -2.2270  0.4064
  564SOL     OW 1690   0.809   0.460   2.460  0.3882  0.7041  0.0659
  564SOL    HW1 1691   0.844   0.452   2.371  1.2448  1.5753  0.3122
  564SOL    HW2 1692   0.850   0.389   2.509  0.7227  0.8676  0.0212
  565SOL     OW 1693   1.217   0.335   1.680 -0.8281 -0.7484  0.6028
  565SOL    HW1 1694   1.133   0.380   1.670 -0.7506 -0.2243  1.9732
  565SOL    HW2 1695   1.198   0.261   1.737 -0.3526 -0.5758  0.9921
  566SOL     OW 1696   2.168   2.163   0.457 -0.0651  0.7444 -0.8253
  566SOL    HW1 1697   2.207   2.143   0.542  2.1682  0.2594 -1.8892
  566SOL    HW2 1698   2.153   2.258   0.459  0.6470  0.8523 -0.1345
  567SOL     OW 1699   3.926   2.526   1.137  0.1255  0.4739  0.1001
  567SOL    HW1 1700   3.847   2.543   1.189 -0.3258 -3.2691  0.9655
  567SOL    HW2 1701   3.997   2.560   1.191 -0.7326  3.5523 -0.5060
  568SOL     OW 1702   1.934   3.341   0.124  0.3135 -0.7829  0.1317
  568SOL    HW1 1703   1.903   3.353   0.214 -0.1043 -1.8074  0.1418
  568SOL    HW2 1704   1.890   3.410   0.075  1.6315  0.6791  0.9237
  569SOL     OW 1705   2.109   3.585   0.298 -0.1492 -0.1587 -0.6476
  569SOL    HW1 1706   2.153   3.663   0.266 -2.8021  1.0993 -1.4737
  569SOL    HW2 1707   2.144   3.513   0.244 -0.2867  1.0259 -2.3789
  570SOL     OW 1708   2.046   1.483   0.641  0.1850 -0.4754  0.1996
  570SOL    HW1 1709   2.012   1.495   0.730  0.2872  1.7062 -0.0162
  570SOL    HW2 1710   1.980   1.428   0.598  0.0380 -1.4045  1.5375
  571SOL     OW 1711   0.055   3.733   3.259 -0.7589 -0.3563 -0.6929
  571SOL    HW1 1712   0.094   3.814   3.290 -2.1963  0.6486 -1.3926
  571SOL    HW2 1713   0.121   3.666   3.276 -1.4310 -0.1019  5.0066
  572SOL     OW 1714   2.380   0.362   2.907  0.8008 -0.0291 -0.1869
  572SOL    HW1 1715   2.438   0.326   2.840 -0.1293 -1.0973 -0.4450
  572SOL    HW2 1716   2.321   0.290   2.929  1.2019  0.2250  1.9392
  573SOL     OW 1717   0.111   3.352   2.348 -0.4759 -0.0828  0.0984
  573SOL    HW1 1718   0.194   3.394   2.369 -0.1516  0.3180 -1.7701
  573SOL    HW2 1719   0.131   3.294   2.275 -1.3597 -1.8975  1.2175
  574SOL     OW 1720   0.898   3.809   1.108 -0.1303  0.7681  0.3087
  574SOL    HW1 1721   0.920   3.902   1.111 -0.5522  0.8933 -0.4141
  574SOL    HW2 1722   0.840   3.800   1.033  0.1220 -0.1308  0.2086
  575SOL     OW 1723   1.595   1.534   3.190 -0.4860  0.5711 -0.5696
  575SOL    HW1 1724   1.660   1.577   3.245 -0.1906 -0.1248 -0.3686
  575SOL    HW2 1725   1.514   1.584   3.204  0.0152  1.4943 -0.8864
  576SOL     OW 1726   0.402   0.594   1.096  0.4691  0.2779 -0.4035
  576SOL    HW1 1727   0.380   0.502   1.083  0.9890  0.1917 -0.6537
  576SOL    HW2 1728   0.326   0.630   1.142  0.7175 -0.5143  0.6527
  577SOL     OW 1729   3.681   1.589   2.065 -0.7734  0.4828 -0.8207
  577SOL    HW1 1730   3.687   1.539   1.984 -2.0229 -0.2509 -0.4910
  577SOL    HW2 1731   3.760   1.564   2.114 -0.3021  0.4906 -1.5647
  578SOL     OW 1732   1.333   1.221   0.873 -0.0138  0.1217  0.0907
  578SOL    HW1 1733   1.355   1.133   0.904 -0.7007 -0.3955 -0.8459
  578SOL    HW2 1734   1.237   1.223   0.873 -0.0031  0.9560  0.3197
  579SOL     OW 1735   0.570   1.055   1.171 -0.0504 -0.7492 -0.5645
  579SOL    HW1 1736   0.481   1.088   1.181 -0.2448 -1.7177  1.1644
  579SOL    HW2 1737   0.622   1.107   1.232 -0.1846 -2.8407  1.4593
  580SOL     OW 1738   3.610   1.832   2.844  0.0847  1.1780  0.2219
  580SOL    HW1 1739   3.704   1.831   2.826 -0.1737  1.1962 -1.3097
  580SOL    HW2 1740   3.603   1.839   2.939  1.6435  3.1898  0.2670
  581SOL     OW 1741   2.235   3.460   3.693  0.7046 -0.6706  0.2756
  581SOL    HW1 1742   2.256   3.519   3.765 -0.7361  2.0161 -1.3475
  581SOL    HW2 1743   2.156   3.415   3.721  0.2895  0.1725  0.4772
  582SOL     OW 1744   2.890   1.348   3.956  0.0362  0.0636  0.9928
  582SOL    HW1 1745   2.817   1.407   3.977  0.1940  1.1628 -1.1618
  582SOL    HW2 1746   2.849   1.262   3.945 -1.3862  0.9730 -1.9929
  583SOL     OW 1747   1.245   1.080   0.061  1.1540  0.3652  0.0773
  583SOL    HW1 1748   1.156   1.115   0.051  1.4667  1.2812  0.4831
  583SOL    HW2 1749   1.294   1.149   0.104  1.6978 -0.7031  1.2312
  584SOL     OW 1750   1.155   2.987   2.418  0.8988 -0.2751 -0.4514
  584SOL    HW1 1751   1.096   2.916   2.443  0.2361 -0.0363 -1.2748
  584SOL    HW2 1752   1.243   2.951   2.427  0.5921 -0.9359 -0.0929
  585SOL     OW 1753   2.071   3.724   1.503 -0.0204 -0.4371 -0.1913
  585SOL    HW1 1754   2.148   3.692   1.456 -1.9580 -1.1011 -3.1628
  585SOL    HW2 1755   2.081   3.819   1.505  2.2306 -0.5966  2.2041
  586SOL     OW 1756   1.391   1.709   3.078  0.6441  0.5150 -0.6715
  586SOL    HW1 1757   1.374   1.647   3.007 -0.1075  1.5957 -1.4649
  586SOL    HW2 1758   1.321   1.693   3.141  0.7784  0.1827 -0.6043
  587SOL     OW 1759   1.236   2.228   0.411  0.0353 -0.2831  0.2499
  587SOL    HW1 1760   1.325   2.261   0.426 -0.0661 -0.0409  0.3235
  587SOL    HW2 1761   1.208   2.271   0.330  0.7677 -1.9750 -0.9463
  588SOL     OW 1762   2.634   3.467   1.108 -0.1493 -0.3003  0.3372
  588SOL    HW1 1763   2.680   3.444   1.028 -3.4570  1.2090 -2.2498
  588SOL    HW2 1764   2.545   3.487   1.080 -0.8614  2.9427  4.0042
  589SOL     OW 1765   1.303   0.112   3.819  0.5031  0.4244  0.7544
  589SOL    HW1 1766   1.262   0.037   3.778  1.7138 -0.1932  0.6199
  589SOL    HW2 1767   1.379   0.131   3.765 -0.5379  2.6703 -0.0345
  590SOL     OW 1768   0.826   3.048   2.255  0.1545 -0.4748  0.0670
  590SOL    HW1 1769   0.842   3.136   2.289  1.8208  0.5432 -2.9381
  590SOL    HW2 1770   0.734   3.049   2.229 -0.8991 -0.9857  3.3534
  591SOL     OW 1771   2.830   1.644   3.050  0.2950 -0.6861  0.0182
  591SOL    HW1 1772   2.779   1.721   3.078 -0.3345 -0.3171 -2.0163
  591SOL    HW2 1773   2.913   1.680   3.020  0.7343 -1.0168  0.8114
  592SOL     OW 1774   1.821   3.682   2.625 -0.3599 -0.5835  1.2216
  592SOL    HW1 1775   1.740   3.635   2.643  0.5528 -1.7265  2.6591
  592SOL    HW2 1776   1.798   3.774   2.631 -1.4562 -0.8960  2.0747
  593SOL     OW 1777   1.784   0.259   0.529  0.1772  1.0643  0.4497
  593SOL    HW1 1778   1.793   0.258   0.624  0.9488  1.0584  0.3818
  593SOL    HW2 1779   1.771   0.351   0.507 -0.0199  1.0636  0.5570
  594SOL     OW 1780   0.898   3.335   3.529 -0.2251  0.6333  0.4957
  594SOL    HW1 1781   0.897   3.395   3.603  0.0567  0.3799  0.7088
  594SOL    HW2 1782   0.965   3.270   3.551 -1.2868 -0.4100  0.7988
  595SOL     OW 1783   1.748   2.465   0.317  0.0270 -0.4720 -0.6179
  595SOL    HW1 1784   1.679   2.500   0.260 -0.5207  1.5475  1.1658
  595SOL    HW2 1785   1.701   2.419   0.386  0.1198  2.8190  1.8922
  596SOL     OW 1786   2.664   1.547   3.945  0.4584 -0.5843 -0.7302
  596SOL    HW1 1787   2.590   1.492   3.918 -0.1172  0.2130 -0.8179
  596SOL    HW2 1788   2.636   1.636   3.924  1.2519 -0.2291 -0.3090
  597SOL     OW 1789   3.485   3.602   0.846  0.0374  0.2297  0.2310
  597SOL    HW1 1790   3.396   3.634   0.862 -0.8742 -1.8263 -0.3620
  597SOL    HW2 1791   3.477   3.546   0.769  2.3277  1.7713 -1.2427
  598SOL     OW 1792   1.004   3.364   3.283  0.3216  0.1801 -0.0819
  598SOL    HW1 1793   0.968   3.299   3.223  0.4668  0.6971 -0.7329
  598SOL    HW2 1794   0.962   3.345   3.367  0.0730 -0.5088 -0.3582
  599SOL     OW 1795   0.432   1.374   0.026  0.0174  0.8479 -0.1895
  599SOL    HW1 1796   0.513   1.343   0.066 -0.9933  0.4756  1.6630
  599SOL    HW2 1797   0.411   1.308  -0.040  0.3121  0.0392  0.5147
  600SOL     OW 1798   0.218   3.708   1.121 -0.0675 -0.3008  0.5452
  600SOL    HW1 1799   0.251   3.735   1.207 -0.6730  1.3156  0.3037
  600SOL    HW2 1800   0.263   3.766   1.059 -1.0978 -0.1164 -0.0477
  601SOL     OW 1801   3.496   0.190   2.326  0.2013 -0.0126  0.8114
  601SOL    HW1 1802   3.578   0.198   2.375  0.4705 -0.4262  0.4325
  601SOL    HW2 1803   3.428   0.212   2.390  0.6927  2.0128  0.6877
  602SOL     OW 1804   3.892   2.016   1.003 -0.1588  0.4058  0.4610
  602SOL    HW1 1805   3.971   2.057   1.036  2.8385 -1.7834 -3.1684
  602SOL    HW2 1806   3.875   1.943   1.062  3.6194 -2.0131 -1.0761
  603SOL     OW 1807   2.625   3.244   1.255  0.7566  0.8339 -0.1273
  603SOL    HW1 1808   2.534   3.238   1.224  1.1084  0.6432 -1.1627
  603SOL    HW2 1809   2.662   3.318   1.207  0.7718  1.7850  1.3105
  604SOL     OW 1810   2.605   3.641   1.892 -0.2447 -0.0552  0.0376
  604SOL    HW1 1811   2.685   3.656   1.941  0.9103 -1.7191 -1.2245
  604SOL    HW2 1812   2.587   3.547   1.903 -2.2205  0.3284  0.5598
  605SOL     OW 1813   1.540   1.095   3.241  0.2594 -0.9810 -0.0030
  605SOL    HW1 1814   1.479   1.146   3.188  1.0620  1.6387  1.3809
  605SOL    HW2 1815   1.486   1.060   3.312 -0.0443 -0.6586 -0.0711
  606SOL     OW 1816   0.444   0.627   2.399 -0.1937 -0.9389 -0.0345
  606SOL    HW1 1817   0.413   0.718   2.398  1.3319 -0.3514  1.2837
  606SOL    HW2 1818   0.385   0.582   2.459  0.2228 -0.3140  0.8685
  607SOL     OW 1819   2.527   0.222   3.244 -0.4583  0.1975  1.0432
  607SOL    HW1 1820   2.507   0.305   3.201 -0.5327 -1.2255 -1.9112
  607SOL    HW2 1821   2.448   0.202   3.294 -1.5735  0.6267 -0.4601
  608SOL     OW 1822   1.855   3.883   1.131  0.1568 -0.5017  0.0011
  608SOL    HW1 1823   1.827   3.931   1.053  1.4154 -0.9396 -0.7626
  608SOL    HW2 1824   1.781   3.828   1.154 -0.2834 -0.2681 -0.8177
  609SOL     OW 1825   0.628   1.342   2.439  0.3061 -0.6142 -0.5025
  609SOL    HW1 1826   0.568   1.290   2.493  1.7127 -0.6116  1.1491
  609SOL    HW2 1827   0.594   1.334   2.351 -1.9830 -0.8015  0.3376
  610SOL     OW 1828   0.527   2.333   0.119 -0.0973 -0.4830  0.2406
  610SOL    HW1 1829   0.446   2.281   0.120 -1.4357  1.3699  3.0870
  610SOL    HW2 1830   0.581   2.293   0.187  0.1596  0.0028  0.3202
  611SOL     OW 1831   3.109   3.344   0.038  0.0987  0.9239  0.2897
  611SOL    HW1 1832   3.085   3.253   0.052  1.0119  0.5751 -0.3367
  611SOL    HW2 1833   3.188   3.356   0.091 -0.8691  1.7917  1.5919
  612SOL     OW 1834   2.067   2.721   0.915  0.1067 -1.0136 -0.3457
  612SOL    HW1 1835   1.994   2.662   0.894  0.2390 -1.3904  0.2196
  612SOL    HW2 1836   2.070   2.721   1.011  0.1061 -0.0731 -0.3409
  613SOL     OW 1837   1.622   0.574   3.436  0.0253  0.1603 -0.3325
  613SOL    HW1 1838   1.680   0.503   3.409  1.8089  0.6740  1.8443
  613SOL    HW2 1839   1.534   0.535   3.435  0.9795 -2.2951  1.2545
  614SOL     OW 1840   3.082   0.918   0.102 -0.2450 -0.3475  0.1020
  614SOL    HW1 1841   3.092   1.001   0.148  1.2731 -0.6251  0.3390
  614SOL    HW2 1842   3.127   0.854   0.158  1.5035 -0.7325 -1.6109
  615SOL     OW 1843   2.762   3.731   0.593  0.0175  0.2949 -0.2928
  615SOL    HW1 1844   2.686   3.689   0.634  1.0202 -0.8256  0.5109
  615SOL    HW2 1845   2.813   3.658   0.559 -1.2385  1.1697 -4.5978
  616SOL     OW 1846   1.119   0.056   0.551  0.2206  0.5578  0.1134
  616SOL    HW1 1847   1.095   0.004   0.474 -0.7705  0.8376  0.2210
  616SOL    HW2 1848   1.078   0.141   0.536  3.2440  1.9472 -0.8828
  617SOL     OW 1849   2.301   3.298   3.446  0.3078 -0.0520  1.0975
  617SOL    HW1 1850   2.231   3.325   3.387  1.0426 -0.4251  0.0090
  617SOL    HW2 1851   2.292   3.355   3.522 -1.1991 -0.1396  1.0168
  618SOL     OW 1852   2.907   0.285   3.919  0.4646  0.6932 -0.0367
  618SOL    HW1 1853   2.893   0.236   4.000 -0.3039  0.5005 -0.2758
  618SOL    HW2 1854   2.994   0.324   3.929  1.3755 -1.1868 -0.0587
  619SOL     OW 1855   1.036   1.132   1.600  0.3732  0.3185  0.3314
  619SOL    HW1 1856   1.084   1.130   1.517  1.5435  1.0028  0.9658
  619SOL    HW2 1857   0.996   1.219   1.602 -2.7770 -0.9500 -1.1656
  620SOL     OW 1858   1.664   1.265   2.494 -0.0246 -0.5091 -0.4241
  620SOL    HW1 1859   1.616   1.257   2.411 -1.9467 -0.7830  0.6379
  620SOL    HW2 1860   1.722   1.340   2.482 -0.3504 -0.4714 -1.9628
  621SOL     OW 1861   0.482   1.522   2.219 -0.9280  0.2723 -0.1321
  621SOL    HW1 1862   0.386   1.521   2.215 -0.9285 -2.3442 -2.3843
  621SOL    HW2 1863   0.510   1.491   2.133  2.0067  1.8461  0.1408
  622SOL     OW 1864   2.805   2.260   2.137  0.2178 -1.3668 -0.1325
  622SOL    HW1 1865   2.788   2.330   2.199 -1.5028  0.5244 -2.5359
  622SOL    HW2 1866   2.770   2.181   2.179 -0.4584 -0.2601  1.4643
  623SOL     OW 1867   0.338   2.072   3.935  0.1315  0.2081 -0.1601
  623SOL    HW1 1868   0.321   2.125   3.858 -2.3195 -1.3373 -0.8192
  623SOL    HW2 1869   0.282   2.109   4.003  0.5282  0.1546  0.2041
  624SOL     OW 1870   2.265   3.703   1.264  0.6004  0.0620 -0.2709
  624SOL    HW1 1871   2.285   3.723   1.172 -0.3934  1.2308 -0.2560
  624SOL    HW2 1872   2.284   3.784   1.311 -2.6544  0.8425 -0.0676
  625SOL     OW 1873   1.108   3.068   2.086  0.0318  0.7588 -0.5496
  625SOL    HW1 1874   1.108   2.976   2.114  3.4704 -0.1244 -2.8657
  625SOL    HW2 1875   1.034   3.107   2.133 -0.0088 -2.5385  2.5777
  626SOL     OW 1876   0.110   1.129   0.321 -0.3057  0.6062  0.9127
  626SOL    HW1 1877   0.197   1.088   0.324  0.4189  2.0673  0.5715
  626SOL    HW2 1878   0.079   1.112   0.232  0.0505  0.9277  0.7269
  627SOL     OW 1879   0.834   0.596   3.337 -0.3509  0.1003  0.0987
  627SOL    HW1 1880   0.781   0.581   3.415 -3.1711  0.9282 -1.5096
  627SOL    HW2 1881   0.910   0.645   3.368 -1.0806 -0.0999  2.3617
  628SOL     OW 1882   3.294   2.533   1.586 -0.1453  0.1057  0.4424
  628SOL    HW1 1883   3.295   2.623   1.617  0.0744  0.5050 -0.6493
  628SOL    HW2 1884   3.222   2.530   1.523 -0.7595 -0.7440  1.1557
  629SOL     OW 1885   3.535   2.491   3.308 -0.9437 -0.1351  0.2313
  629SOL    HW1 1886   3.533   2.478   3.213  1.2605 -0.2582  0.1468
  629SOL    HW2 1887   3.469   2.431   3.342 -2.1815  0.3227 -1.2337
  630SOL     OW 1888   3.893   0.730   0.365 -0.0828  0.2235  0.1986
  630SOL    HW1 1889   3.923   0.785   0.437 -2.3479  1.5919  0.2096
  630SOL    HW2 1890   3.970   0.718   0.310  1.0120  1.5747  1.3581
  631SOL     OW 1891   0.018   3.921   1.943  0.5644 -0.1011 -0.1157
  631SOL    HW1 1892   0.064   3.881   1.869 -0.4587  0.2229 -0.9538
  631SOL    HW2 1893   0.065   4.002   1.960 -0.8354  1.2478 -2.2916
  632SOL     OW 1894   2.931   3.943   2.241 -0.0618 -0.5613  0.5763
  632SOL    HW1 1895   2.851   3.973   2.199  1.2278  0.5592 -1.1957
  632SOL    HW2 1896   2.929   3.848   2.232 -0.4221 -0.4286 -0.8967
  633SOL     OW 1897   1.506   0.027   3.174 -0.3338  0.9231 -0.3670
  633SOL    HW1 1898   1.461  -0.045   3.131  0.3255  0.5728 -0.4834
  633SOL    HW2 1899   1.520   0.091   3.105 -0.7858  1.1021 -0.2963
  634SOL     OW 1900   0.543   0.299   2.987 -0.6775  0.3676 -0.5718
  634SOL    HW1 1901   0.603   0.333   3.053 -1.3544  1.4686 -0.5018
  634SOL    HW2 1902   0.537   0.206   3.005  0.8317  0.2637 -0.4423
  635SOL     OW 1903   0.094   3.026   0.878 -0.4587  0.5038 -0.8525
  635SOL    HW1 1904   0.121   3.091   0.943  0.6895 -0.0465 -0.7380
  635SOL    HW2 1905  -0.001   3.027   0.880 -0.5692 -1.2533  2.6806
  636SOL     OW 1906   3.642   3.867   2.885  0.2344 -0.1822  0.0535
  636SOL    HW1 1907   3.645   3.780   2.925 -0.1104 -0.4499 -0.4989
  636SOL    HW2 1908   3.551   3.879   2.861 -0.7984  2.1835  4.1342
  637SOL     OW 1909   1.183   2.972   3.661  0.8801  0.7597  0.3368
  637SOL    HW1 1910   1.150   2.905   3.601 -0.2492 -1.4867  3.2108
  637SOL    HW2 1911   1.206   2.923   3.740  1.9104  3.5747  1.8921
  638SOL     OW 1912   3.201   0.958   2.653  0.5703  0.7308 -0.2047
  638SOL    HW1 1913   3.106   0.949   2.639  0.3017 -3.2924  2.4538
  638SOL    HW2 1914   3.225   1.036   2.604 -4.3282  2.7819  0.0428
  639SOL     OW 1915   2.002   0.515   3.393  0.5166 -0.2913 -0.0723
  639SOL    HW1 1916   2.090   0.547   3.371  1.0297 -1.0770  0.7581
  639SOL    HW2 1917   1.943   0.582   3.358  1.3885 -0.2623 -1.5748
  640SOL     OW 1918   3.058   1.441   1.502 -0.1865 -0.0609  0.2003
  640SOL    HW1 1919   2.976   1.447   1.551 -0.4022  3.0057 -0.3219
  640SOL    HW2 1920   3.047   1.503   1.429  2.8330  1.0556  0.5518
  641SOL     OW 1921   1.808   3.842   2.965 -0.2955 -0.0364 -0.4789
  641SOL    HW1 1922   1.862   3.914   2.932  0.5984 -2.1796 -4.2911
  641SOL    HW2 1923   1.732   3.841   2.907 -1.5383 -0.6981  1.1006
  642SOL     OW 1924   1.961   1.761   0.601 -0.0480  1.2124  0.1636
  642SOL    HW1 1925   1.914   1.721   0.675  3.8880 -3.3085  0.7138
  642SOL    HW2 1926   1.900   1.752   0.527 -1.0295 -2.5707  1.1805
  643SOL     OW 1927   2.368   1.628   3.232 -0.1147  0.1957 -0.1561
  643SOL    HW1 1928   2.349   1.666   3.318 -0.8141 -0.1497 -0.1482
  643SOL    HW2 1929   2.314   1.679   3.171 -0.9308 -0.6590 -0.1665
  644SOL     OW 1930   3.556   0.881   2.745 -1.1476  0.9942 -0.4797
  644SOL    HW1 1931   3.642   0.886   2.787 -0.9676 -1.6211 -0.3705
  644SOL    HW2 1932   3.532   0.972   2.728  2.1612  1.7913 -1.5690
  645SOL     OW 1933   2.683   3.430   3.428  0.1677 -0.3755 -0.2164
  645SOL    HW1 1934   2.726   3.443   3.344  0.0278 -0.4011 -0.2929
  645SOL    HW2 1935   2.652   3.339   3.425  1.1828 -0.7496  0.3320
  646SOL     OW 1936   0.403   2.324   1.765  0.5308 -0.5179  0.0310
  646SOL    HW1 1937   0.451   2.348   1.845  0.6666  0.6510 -0.3812
  646SOL    HW2 1938   0.336   2.392   1.756  0.6407 -0.5245 -0.9548
  647SOL     OW 1939   3.970   0.137   3.398  0.5110 -0.3572 -0.1028
  647SOL    HW1 1940   3.892   0.151   3.453 -0.6488 -3.5566 -0.7347
  647SOL    HW2 1941   3.937   0.086   3.324  2.8295  0.2369 -1.6165
  648SOL     OW 1942   2.465   3.588   3.333 -0.2909  0.2638  0.1601
  648SOL    HW1 1943   2.408   3.621   3.402  1.6668  2.6580  0.7714
  648SOL    HW2 1944   2.543   3.556   3.379 -0.4801 -1.6896 -0.7526
  649SOL     OW 1945   0.377   2.482   2.292 -0.3105  0.2933  0.1421
  649SOL    HW1 1946   0.286   2.462   2.312  0.1203 -0.1161  1.8139
  649SOL    HW2 1947   0.397   2.430   2.214 -1.5576  0.5899 -0.3976
  650SOL     OW 1948   2.619   1.956   1.709  0.0260 -0.5036  0.6315
  650SOL    HW1 1949   2.587   2.021   1.646 -1.3831  0.9483  2.7277
  650SOL    HW2 1950   2.692   1.999   1.753 -0.1892 -0.7766  1.2617
  651SOL     OW 1951   0.674   0.280   3.965  0.2123  0.3497 -0.4737
  651SOL    HW1 1952   0.675   0.353   3.902  0.5130  0.0035 -0.8780
  651SOL    HW2 1953   0.762   0.242   3.958 -0.0823 -0.3241 -0.5895
  652SOL     OW 1954   1.060   0.768   1.090  0.9496 -0.2986  0.5888
  652SOL    HW1 1955   1.066   0.847   1.143 -3.0098  0.7113 -0.1346
  652SOL    HW2 1956   1.098   0.699   1.144  0.4584  1.3115  3.1363
  653SOL     OW 1957   0.223   0.499   2.485  0.1191 -1.0636  0.4836
  653SOL    HW1 1958   0.245   0.415   2.445  1.0433  0.1263 -1.7409
  653SOL    HW2 1959   0.128   0.506   2.478 -0.1773 -2.6157  2.3033
  654SOL     OW 1960   0.552   3.512   3.591  0.6903  0.1470 -0.1222
  654SOL    HW1 1961   0.518   3.568   3.521  1.0095  2.3076  1.3759
  654SOL    HW2 1962   0.586   3.435   3.545  2.5153  2.2457 -2.5623
  655SOL     OW 1963   2.344   1.725   3.852  0.3193  0.4327 -0.4925
  655SOL    HW1 1964   2.433   1.707   3.824 -0.1498 -1.4680 -0.9049
  655SOL    HW2 1965   2.336   1.682   3.938 -0.5253 -0.4308 -0.9860
  656SOL     OW 1966   1.522   0.758   3.631 -0.4080 -0.2925 -0.4317
  656SOL    HW1 1967   1.594   0.720   3.582 -1.3976 -1.7212 -0.8365
  656SOL    HW2 1968   1.477   0.815   3.568  1.4884  2.2659  0.3637
  657SOL     OW 1969   1.393   1.553   0.557 -0.3355 -0.5844 -0.6068
  657SOL    HW1 1970   1.364   1.630   0.605 -0.5920 -1.3562  0.4976
  657SOL    HW2 1971   1.455   1.509   0.616 -0.6423 -1.5369 -0.9776
  658SOL     OW 1972   3.031   0.058   3.326 -0.8473  0.2379  0.2010
  658SOL    HW1 1973   3.105   0.063   3.387 -1.6019 -1.3759  1.2972
  658SOL    HW2 1974   3.001   0.149   3.318  2.1128  1.2314 -1.4700
  659SOL     OW 1975   0.169   1.287   3.512 -0.1428 -0.4028 -0.2747
  659SOL    HW1 1976   0.216   1.300   3.429  1.5392 -1.8360  0.3731
  659SOL    HW2 1977   0.083   1.255   3.486  0.2306 -0.4953 -1.4764
  660SOL     OW 1978   3.626   2.376   3.072  0.1268  0.8357  0.1230
  660SOL    HW1 1979   3.710   2.408   3.039  0.5631  1.3800  1.6770
  660SOL    HW2 1980   3.648   2.302   3.128 -0.3221  1.4536  1.1580
  661SOL     OW 1981   1.415   1.894   3.881  0.0141 -0.0480 -0.4441
  661SOL    HW1 1982   1.441   1.969   3.827  1.9664 -0.3343  0.0202
  661SOL    HW2 1983   1.397   1.824   3.817  0.7472  0.0660 -0.7819
  662SOL     OW 1984   2.479   2.429   2.501 -0.5255 -0.0041  0.3686
  662SOL    HW1 1985   2.435   2.509   2.528 -1.2911 -0.3420  0.1274
  662SOL    HW2 1986   2.553   2.459   2.448  1.8775  0.8025  3.7783
  663SOL     OW 1987   0.166   2.289   0.087  1.0897 -0.3899  0.8946
  663SOL    HW1 1988   0.168   2.260   0.179 -0.1045 -0.4073  0.9405
  663SOL    HW2 1989   0.076   2.319   0.074  0.5791 -2.3956 -0.8697
  664SOL     OW 1990   3.209   3.066   2.730 -0.2312  0.0739  0.4747
  664SOL    HW1 1991   3.132   3.040   2.680  0.1372 -0.2744  0.0767
  664SOL    HW2 1992   3.186   3.048   2.821 -0.4420 -0.4896  0.3130
  665SOL     OW 1993   1.328   0.572   1.224 -0.4235  0.7325 -0.2260
  665SOL    HW1 1994   1.284   0.519   1.290 -2.7152  2.3199 -0.3830
  665SOL    HW2 1995   1.421   0.550   1.234 -1.0301 -1.4456  1.3100
  666SOL     OW 1996   1.824   3.973   3.792 -0.0930  0.7838  0.2614
  666SOL    HW1 1997   1.810   3.921   3.871 -0.9959  2.4427  1.2632
  666SOL    HW2 1998   1.785   4.058   3.812  0.3763  1.5238 -1.6875
  667SOL     OW 1999   0.887   2.226   1.426 -0.4833 -0.4787 -0.8991
  667SOL    HW1 2000   0.889   2.149   1.370 -1.7287  0.2548 -1.9929
  667SOL    HW2 2001   0.976   2.232   1.462 -0.9444 -3.7539  1.1432
  668SOL     OW 2002   1.684   3.781   1.516 -0.3987 -0.5393  0.3500
  668SOL    HW1 2003   1.716   3.852   1.571 -1.3774  1.1191 -1.1158
  668SOL    HW2 2004   1.659   3.712   1.577  2.2639 -0.4174  1.7348
  669SOL     OW 2005   3.209   3.891   2.292  0.2313  0.0075 -0.3089
  669SOL    HW1 2006   3.226   3.916   2.383 -0.5507  1.2577 -0.4722
  669SOL    HW2 2007   3.116   3.909   2.279  0.2092 -0.6664 -1.2102
  670SOL     OW 2008   0.898   3.574   2.476 -0.0906  0.0773  0.3810
  670SOL    HW1 2009   0.931   3.664   2.478 -0.1430  0.0906  0.7341
  670SOL    HW2 2010   0.910   3.542   2.565 -0.2292 -0.2091  0.2979
  671SOL     OW 2011   3.185   2.945   2.383 -0.8454 -0.5933  0.0513
  671SOL    HW1 2012   3.231   2.908   2.458 -0.2922 -0.0883 -0.0349
  671SOL    HW2 2013   3.126   2.875   2.354 -0.6367 -0.9942  0.5926
  672SOL     OW 2014   1.513   3.150   0.871 -0.1984 -0.0344 -0.2963
  672SOL    HW1 2015   1.601   3.157   0.833  1.0170  1.9627  2.4666
  672SOL    HW2 2016   1.472   3.234   0.853 -0.9610 -0.3912 -0.2550
  673SOL     OW 2017   1.426   0.375   2.376  0.0326  0.1831 -0.7286
  673SOL    HW1 2018   1.452   0.365   2.284 -1.7086 -0.4066 -1.2058
  673SOL    HW2 2019   1.387   0.290   2.398 -1.7669  1.1112 -0.2085
  674SOL     OW 2020   3.757   2.144   1.545  0.0237  0.7159 -0.5054
  674SOL    HW1 2021   3.696   2.083   1.504 -0.0067  0.6841 -0.4122
  674SOL    HW2 2022   3.702   2.207   1.591 -0.0144  1.7011 -1.8253
  675SOL     OW 2023   3.499   3.535   1.429 -0.1523 -0.3343 -0.0463
  675SOL    HW1 2024   3.511   3.441   1.440  0.6904 -0.2844 -0.4315
  675SOL    HW2 2025   3.479   3.545   1.336  0.0339 -0.1063 -0.0615
  676SOL     OW 2026   2.558   0.389   0.865 -0.7901 -0.0813  0.5864
  676SOL    HW1 2027   2.514   0.304   0.873 -0.1828 -0.5077 -0.3708
  676SOL    HW2 2028   2.524   0.441   0.938  0.7507 -2.0005  2.8079
  677SOL     OW 2029   0.953   2.947   3.288  0.0153  0.2659 -0.0340
  677SOL    HW1 2030   0.912   2.990   3.213  1.8319  0.0846 -1.2079
  677SOL    HW2 2031   0.885   2.890   3.323 -1.0597  0.7740 -1.2006
  678SOL     OW 2032   0.956   3.726   3.894  0.2771  0.0478 -0.4648
  678SOL    HW1 2033   0.973   3.821   3.894 -3.9737  1.1281 -3.3485
  678SOL    HW2 2034   0.894   3.713   3.965  2.8148 -1.3251  1.7054
  679SOL     OW 2035   3.063   3.802   2.532 -0.1033  0.2571  0.2776
  679SOL    HW1 2036   3.081   3.890   2.565  1.2342  0.7143 -1.4868
  679SOL    HW2 2037   3.141   3.751   2.555 -0.6782 -0.3543  0.8972
  680SOL     OW 2038   0.932   3.493   0.486  0.0120  0.0985  0.0185
  680SOL    HW1 2039   0.867   3.548   0.529  0.2351 -0.2370  0.8042
  680SOL    HW2 2040   1.013   3.545   0.486 -0.3182  0.6502 -1.2601
  681SOL     OW 2041   1.872   3.217   0.572 -0.3509  0.1849  0.4864
  681SOL    HW1 2042   1.908   3.222   0.660 -1.2769 -0.1760  0.8922
  681SOL    HW2 2043   1.777   3.216   0.584 -0.5707  2.0054 -0.5852
  682SOL     OW 2044   0.370   2.487   3.313 -0.5373  0.2032 -0.1066
  682SOL    HW1 2045   0.424   2.538   3.373 -2.4727  2.9761 -0.4998
  682SOL    HW2 2046   0.432   2.450   3.250  1.3492 -1.3399  2.4515
  683SOL     OW 2047   2.429   2.204   1.758 -0.5726 -0.5992 -0.0958
  683SOL    HW1 2048   2.451   2.279   1.813  1.4405 -1.2562  0.0940
  683SOL    HW2 2049   2.341   2.223   1.724 -0.6307  1.2127  0.9539
  684SOL     OW 2050   2.745   0.594   1.818  0.4502  0.3335 -0.4835
  684SOL    HW1 2051   2.840   0.593   1.802  0.7543  2.0862  0.9568
  684SOL    HW2 2052   2.735   0.565   1.908 -0.4191 -0.1347 -0.7236
  685SOL     OW 2053   3.655   3.520   1.918 -0.2269  0.2128 -0.3308
  685SOL    HW1 2054   3.714   3.451   1.888 -2.5810 -0.5464 -3.8034
  685SOL    HW2 2055   3.654   3.511   2.013  4.0060 -0.6003 -0.1636
  686SOL     OW 2056   1.273   1.848   3.361 -0.3042  0.2435 -0.0582
  686SOL    HW1 2057   1.194   1.817   3.405 -1.1202  2.9940  0.5929
  686SOL    HW2 2058   1.256   1.834   3.268 -1.3599  0.3999  0.1045
  687SOL     OW 2059   1.444   1.869   2.546 -0.0372  1.2931  0.1655
  687SOL    HW1 2060   1.514   1.819   2.504 -0.0024  0.8187  0.7753
  687SOL    HW2 2061   1.382   1.803   2.578 -0.3846  1.6743  0.3003
  688SOL     OW 2062   0.686   0.739   1.701 -0.2317 -0.3304  0.3805
  688SOL    HW1 2063   0.649   0.678   1.637  3.7815 -2.0410 -0.5859
  688SOL    HW2 2064   0.727   0.807   1.649 -0.1549  0.3394  1.2859
  689SOL     OW 2065   0.524   1.869   2.166  0.5116  0.0065 -0.6059
  689SOL    HW1 2066   0.452   1.899   2.110  0.2595  0.4251 -0.0655
  689SOL    HW2 2067   0.482   1.848   2.249  0.8730 -0.6875 -0.5877
  690SOL     OW 2068   3.343   3.663   0.098 -0.1359  0.2564  0.6978
  690SOL    HW1 2069   3.427   3.636   0.060  0.4944  2.1803  0.6297
  690SOL    HW2 2070   3.277   3.619   0.044  0.7915  0.8411 -0.9756
  691SOL     OW 2071   3.840   2.696   3.688  0.2486 -0.1089  0.4825
  691SOL    HW1 2072   3.904   2.676   3.619  0.7007  1.4264  0.4001
  691SOL    HW2 2073   3.756   2.697   3.643  0.4154 -0.1987  0.1642
  692SOL     OW 2074   1.179   1.066   3.052 -0.3548 -0.1454 -0.2917
  692SOL    HW1 2075   1.181   0.970   3.053  0.1570 -0.1336 -0.1119
  692SOL    HW2 2076   1.271   1.092   3.046 -0.3140  0.3648  1.7634
  693SOL     OW 2077   1.262   3.287   1.650  0.1758  0.3042  0.3532
  693SOL    HW1 2078   1.326   3.354   1.623 -0.4951  0.2110 -1.6322
  693SOL    HW2 2079   1.190   3.337   1.689 -0.7145  0.9183 -1.8973
  694SOL     OW 2080   0.766   1.011   2.469 -0.3675  0.0587 -0.1905
  694SOL    HW1 2081   0.795   1.036   2.557 -0.2439  0.6793 -0.4035
  694SOL    HW2 2082   0.678   0.976   2.483  0.5853 -2.1905  0.5093
  695SOL     OW 2083   2.936   1.561   0.877  0.1978  0.4707 -0.3608
  695SOL    HW1 2084   2.953   1.639   0.930  1.1688  0.1164 -0.1295
  695SOL    HW2 2085   2.856   1.582   0.829  0.2363  1.4626 -0.0223
  696SOL     OW 2086   1.241   2.067   0.923  0.0454 -0.2547  0.2889
  696SOL    HW1 2087   1.298   2.140   0.898  2.5150 -2.1251 -0.0028
  696SOL    HW2 2088   1.190   2.048   0.844  1.7485 -0.8212 -0.7371
  697SOL     OW 2089   3.533   1.484   0.802 -0.2315  0.6768  0.0316
  697SOL    HW1 2090   3.560   1.576   0.797 -1.1070  0.9492  0.2314
  697SOL    HW2 2091   3.602   1.437   0.756 -0.1731  1.5177 -0.7795
  698SOL     OW 2092   1.128   0.802   2.927  0.4450 -0.3193 -0.4478
  698SOL    HW1 2093   1.119   0.841   2.840 -1.4731  0.6383  0.1130
  698SOL    HW2 2094   1.155   0.712   2.910  0.0476 -0.1722 -2.0429
  699SOL     OW 2095   1.029   2.022   0.762 -0.1849  0.1585 -0.1486
  699SOL    HW1 2096   0.988   1.971   0.693 -1.2389  0.1616  0.4480
  699SOL    HW2 2097   0.972   2.010   0.838  0.8800  0.2451  0.6988
  700SOL     OW 2098   1.191   0.494   2.379  0.2565  0.4227  0.0536
  700SOL    HW1 2099   1.153   0.463   2.296  1.7771  0.9986 -0.8866
  700SOL    HW2 2100   1.273   0.446   2.387 -0.6139 -0.8727  2.1119
  701SOL     OW 2101   2.190   3.032   2.551  0.3450  0.0527 -0.6083
  701SOL    HW1 2102   2.163   3.080   2.474  3.5594 -0.7168 -2.4149
  701SOL    HW2 2103   2.119   2.970   2.567 -1.0530  1.2000 -2.0129
  702SOL     OW 2104   3.633   3.243   3.943 -0.4281 -0.6774  0.6023
  702SOL    HW1 2105   3.701   3.228   4.009  0.0944  1.8268  0.7454
  702SOL    HW2 2106   3.643   3.171   3.881  0.4900 -1.9049  2.1017
  703SOL     OW 2107   0.308   1.263   1.595  0.2621  0.5169  0.7302
  703SOL    HW1 2108   0.397   1.278   1.564 -0.4807  0.7302 -1.5302
  703SOL    HW2 2109   0.255   1.259   1.515 -1.3623 -2.5199  1.7678
  704SOL     OW 2110   2.138   1.972   1.191  0.0565  0.3930 -0.0022
  704SOL    HW1 2111   2.050   1.994   1.224 -0.1629  0.8594 -0.8616
  704SOL    HW2 2112   2.150   2.031   1.116  0.6332 -0.4633 -0.5958
  705SOL     OW 2113   2.476   3.919   0.086  0.1049 -0.8728 -0.3478
  705SOL    HW1 2114   2.532   3.995   0.074  1.4155 -2.0926 -2.5755
  705SOL    HW2 2115   2.531   3.845   0.063 -2.0032 -2.2438 -1.2391
  706SOL     OW 2116   1.047   3.195   1.129  0.2135  0.0948  0.4819
  706SOL    HW1 2117   1.089   3.136   1.192  2.5274  0.6515 -0.4233
  706SOL    HW2 2118   0.953   3.181   1.142  0.6286 -1.0985  2.7838
  707SOL     OW 2119   1.755   2.299   0.912 -0.5707  0.3825 -0.1998
  707SOL    HW1 2120   1.801   2.381   0.901 -2.3648  1.2963 -1.5498
  707SOL    HW2 2121   1.724   2.299   1.002  2.0258 -0.3052  0.7636
  708SOL     OW 2122   0.173   2.944   0.221  1.0437 -0.5608  0.6071
  708SOL    HW1 2123   0.261   2.959   0.185  0.2222 -1.1110 -1.8936
  708SOL    HW2 2124   0.147   2.859   0.185 -0.1236 -0.8929  2.1539
  709SOL     OW 2125   3.804   0.940   1.883  0.2690  0.1429  0.5937
  709SOL    HW1 2126   3.774   0.871   1.942 -0.0776 -0.0980  0.1422
  709SOL    HW2 2127   3.867   0.896   1.826 -0.0770  0.1623  0.1977
  710SOL     OW 2128   0.529   2.107   1.315 -0.8477 -0.3963  0.2312
  710SOL    HW1 2129   0.580   2.058   1.380  1.8040  2.0069  0.1512
  710SOL    HW2 2130   0.594   2.147   1.259 -3.0272 -1.0957 -3.0648
  711SOL     OW 2131   0.595   2.979   2.108  0.7917 -0.2317 -0.6223
  711SOL    HW1 2132   0.550   2.911   2.159  0.4480  0.0624 -0.5330
  711SOL    HW2 2133   0.606   2.940   2.022 -1.3875  0.3982 -1.2391
  712SOL     OW 2134   1.505   2.415   3.348 -0.0129  0.6923 -0.4809
  712SOL    HW1 2135   1.490   2.507   3.331  2.2644  1.1832 -0.2234
  712SOL    HW2 2136   1.546   2.413   3.435 -1.3894 -0.7159  0.1768
  713SOL     OW 2137   2.276   0.936   3.369 -0.1230  0.2215  0.6445
  713SOL    HW1 2138   2.350   0.876   3.380  0.7305  1.4828  2.5483
  713SOL    HW2 2139   2.317   1.018   3.339 -1.0370  0.3291 -0.3357
  714SOL     OW 2140   3.012   3.375   2.511 -0.6820  0.1825 -0.7140
  714SOL    HW1 2141   2.948   3.430   2.466 -1.1775 -1.1447 -1.7130
  714SOL    HW2 2142   2.963   3.336   2.584 -0.8646 -0.3735 -1.1264
  715SOL     OW 2143   1.886   2.050   3.952  0.3919  0.0177 -0.1246
  715SOL    HW1 2144   1.811   2.029   3.896 -0.1580  1.6487 -0.0436
  715SOL    HW2 2145   1.948   1.979   3.936 -1.3495 -1.6490  0.1796
  716SOL     OW 2146   3.352   3.063   1.306  0.1745 -0.6978  0.1967
  716SOL    HW1 2147   3.382   3.102   1.224  1.7586  0.2951  1.1939
  716SOL    HW2 2148   3.257   3.060   1.298  0.0923  1.9435 -0.5817
  717SOL     OW 2149   1.514   2.877   0.856 -0.3058 -0.0021  0.2420
  717SOL    HW1 2150   1.544   2.817   0.924  0.5288 -0.7621 -0.7677
  717SOL    HW2 2151   1.537   2.964   0.889  1.1890 -0.4299  0.4179
  718SOL     OW 2152   3.103   2.364   2.809 -0.3006  0.1364  0.0358
  718SOL    HW1 2153   3.124   2.329   2.722 -1.0193 -0.2985  0.0371
  718SOL    HW2 2154   3.143   2.452   2.808  0.5446 -0.2311 -0.3672
  719SOL     OW 2155   0.831   3.565   1.806  0.0062  0.0139 -0.3665
  719SOL    HW1 2156   0.854   3.582   1.897  0.2485 -0.6828 -0.2928
  719SOL    HW2 2157   0.737   3.580   1.801  0.0943  0.6518 -0.1430
  720SOL     OW 2158   4.000   1.843   0.826  0.3786  0.1725  0.0722
  720SOL    HW1 2159   3.947   1.915   0.859 -0.0202 -0.3483  0.5761
  720SOL    HW2 2160   3.937   1.773   0.808  0.4530  0.6576 -2.5038
  721SOL     OW 2161   0.022   1.854   1.772 -0.5524 -0.1903  0.4282
  721SOL    HW1 2162  -0.004   1.821   1.686  2.5190  0.9418 -1.0729
  721SOL    HW2 2163   0.025   1.949   1.761  2.0766 -0.1442  1.0207
  722SOL     OW 2164   3.832   1.828   2.226 -0.5021  0.2797  0.1560
  722SOL    HW1 2165   3.822   1.734   2.245  0.8816 -0.5241 -2.5193
  722SOL    HW2 2166   3.927   1.839   2.217 -0.7512  1.5761 -1.1102
  723SOL     OW 2167   1.339   2.643   3.473 -0.5368 -0.6660  0.0064
  723SOL    HW1 2168   1.399   2.629   3.546 -1.9329  0.5178  1.4626
  723SOL    HW2 2169   1.252   2.644   3.513 -1.3571  0.0575 -1.6634
  724SOL     OW 2170   1.386   2.833   2.451  0.8511 -0.5585 -1.0306
  724SOL    HW1 2171   1.444   2.775   2.401 -1.0094 -1.2872 -2.4582
  724SOL    HW2 2172   1.378   2.791   2.536 -2.0645 -3.7624 -2.6250
  725SOL     OW 2173   2.053   2.263   1.857  0.1768  0.6760  0.0938
  725SOL    HW1 2174   2.116   2.335   1.844  0.5483  0.0568 -1.8418
  725SOL    HW2 2175   1.997   2.266   1.779 -2.4237  1.3412  1.8545
  726SOL     OW 2176   1.623   2.618   2.948  0.0751 -0.1731 -0.5097
  726SOL    HW1 2177   1.631   2.652   3.037 -1.3799  1.6538 -1.0096
  726SOL    HW2 2178   1.661   2.686   2.892 -1.7684  0.1678 -1.4514
  727SOL     OW 2179   0.566   0.645   3.012 -0.0055 -0.8516  0.6452
  727SOL    HW1 2180   0.622   0.577   3.051 -1.3234 -1.3803  1.6866
  727SOL    HW2 2181   0.491   0.651   3.071 -1.7558 -1.1623 -1.4242
  728SOL     OW 2182   2.809   3.856   1.410 -0.3457 -0.0793 -0.5673
  728SOL    HW1 2183   2.861   3.924   1.368 -1.8722 -0.5547 -3.4452
  728SOL    HW2 2184   2.857   3.775   1.392 -1.1798 -0.3251 -1.7267
  729SOL     OW 2185   0.099   1.006   0.575 -0.1989  0.4921  0.2292
  729SOL    HW1 2186   0.170   0.943   0.567 -0.4610  0.2927 -0.6701
  729SOL    HW2 2187   0.103   1.057   0.493 -1.0436  0.5233  0.1961
  730SOL     OW 2188   3.378   2.355   2.929 -0.1016 -0.3034  0.2951
  730SOL    HW1 2189   3.353   2.445   2.911  1.6128  0.1000 -0.1994
  730SOL    HW2 2190   3.432   2.329   2.855  1.6572 -0.8232  1.6805
  731SOL     OW 2191   2.140   3.313   2.369 -0.5405  0.5739  0.5282
  731SOL    HW1 2192   2.078   3.327   2.441 -1.0226  2.6321 -0.2138
  731SOL    HW2 2193   2.094   3.346   2.292 -0.4082 -2.3964 -0.9582
  732SOL     OW 2194   0.165   1.898   0.553 -0.7637  0.4416  0.6241
  732SOL    HW1 2195   0.114   1.976   0.576 -0.1259  0.6196  1.5054
  732SOL    HW2 2196   0.100   1.829   0.542 -1.2350  0.7772  1.2548
  733SOL     OW 2197   3.924   0.533   3.604  0.2165  0.4182  0.1268
  733SOL    HW1 2198   3.994   0.468   3.599  0.4214  0.2146  3.4324
  733SOL    HW2 2199   3.930   0.582   3.522  2.7108 -1.0886 -0.6819
  734SOL     OW 2200   0.095   3.829   2.263 -0.5607 -0.5003 -0.0173
  734SOL    HW1 2201   0.157   3.857   2.196 -1.1067 -0.8669 -0.6808
  734SOL    HW2 2202   0.044   3.759   2.222 -1.1033 -0.5255  0.6746
  735SOL     OW 2203   3.334   2.763   1.722 -0.9383  0.7066 -0.1068
  735SOL    HW1 2204   3.247   2.802   1.727 -2.0140 -1.5851  0.6728
  735SOL    HW2 2205   3.389   2.831   1.683 -2.7593  2.7180  0.6236
  736SOL     OW 2206   1.457   3.411   2.514  0.1462 -0.0533 -0.1817
  736SOL    HW1 2207   1.479   3.400   2.607 -0.6535  0.1294  0.0336
  736SOL    HW2 2208   1.409   3.331   2.491  2.6697 -1.4162 -1.1881
  737SOL     OW 2209   3.380   2.851   0.463  0.9567  0.0413  0.0116
  737SOL    HW1 2210   3.286   2.838   0.477  1.3063 -3.0069  0.1559
  737SOL    HW2 2211   3.399   2.934   0.506 -1.9797  1.8336 -1.7837
  738SOL     OW 2212   3.619   2.116   2.838 -0.0507 -0.4762  0.3756
  738SOL    HW1 2213   3.536   2.074   2.815 -1.0113  1.2222  0.5480
  738SOL    HW2 2214   3.670   2.113   2.757 -1.3196  0.7164 -0.5255
  739SOL     OW 2215   0.617   2.465   3.121  0.2120 -0.8229 -0.3058
  739SOL    HW1 2216   0.589   2.454   3.030 -1.3978  0.1458  0.0333
  739SOL    HW2 2217   0.635   2.558   3.130  3.8935 -1.3494 -0.5121
  740SOL     OW 2218   2.260   1.228   2.627 -0.5356 -0.4640  0.1713
  740SOL    HW1 2219   2.243   1.270   2.543 -2.0851  1.1289  1.1759
  740SOL    HW2 2220   2.185   1.170   2.640 -0.1858 -0.8753  0.3344
  741SOL     OW 2221   1.117   3.724   0.174  0.1502 -0.4376  0.8177
  741SOL    HW1 2222   1.087   3.814   0.192  1.5062  0.7519 -2.1250
  741SOL    HW2 2223   1.058   3.694   0.104  1.9188 -0.3477 -0.7920
  742SOL     OW 2224   0.040   2.798   2.955  0.5039 -0.5076 -0.7532
  742SOL    HW1 2225  -0.029   2.848   2.999 -0.2487  0.2946 -2.7183
  742SOL    HW2 2226   0.010   2.707   2.959  0.2614 -0.3942  0.0260
  743SOL     OW 2227   3.399   0.770   0.523  0.2051 -0.1677 -0.1773
  743SOL    HW1 2228   3.376   0.795   0.613  0.6573  0.4130 -0.2128
  743SOL    HW2 2229   3.459   0.696   0.533 -1.1165 -1.2694 -0.0655
  744SOL     OW 2230   0.084   3.141   1.717 -0.2085 -0.0386  0.1165
  744SOL    HW1 2231   0.141   3.213   1.743 -1.4835  1.1538 -0.2508
  744SOL    HW2 2232   0.075   3.088   1.796  3.3255 -1.7104 -0.4155
  745SOL     OW 2233   1.948   1.647   3.843  0.0187  0.3363 -0.2543
  745SOL    HW1 2234   1.857   1.656   3.813 -0.5845 -0.7948  1.0961
  745SOL    HW2 2235   1.941   1.642   3.938  1.5530  0.6444 -0.1002
  746SOL     OW 2236   2.673   2.726   0.122 -0.0895  0.3350  0.0635
  746SOL    HW1 2237   2.757   2.682   0.113 -0.7344 -0.7805 -0.8216
  746SOL    HW2 2238   2.678   2.800   0.062  0.5760  0.8033  0.6846
  747SOL     OW 2239   2.726   2.009   1.080  0.1060  0.2871  0.1440
  747SOL    HW1 2240   2.639   2.050   1.068  1.3642  4.6281  3.1685
  747SOL    HW2 2241   2.787   2.072   1.042  2.1495  0.1899  2.9593
  748SOL     OW 2242   2.280   3.647   2.842  0.3523 -0.3044 -0.7485
  748SOL    HW1 2243   2.311   3.565   2.803 -0.9024 -0.4857 -1.4162
  748SOL    HW2 2244   2.258   3.703   2.767  1.1842  0.6615 -0.3049
  749SOL     OW 2245   2.389   2.544   3.331 -0.1679  0.5276  0.1000
  749SOL    HW1 2246   2.309   2.574   3.288 -0.2985 -0.5237 -0.4192
  749SOL    HW2 2247   2.410   2.614   3.394 -0.0208  2.0665 -1.5785
  750SOL     OW 2248   0.873   0.600   1.954 -1.1979 -0.3367  0.0544
  750SOL    HW1 2249   0.808   0.657   1.914 -1.8001 -0.6490  0.5571
  750SOL    HW2 2250   0.867   0.619   2.048  1.0749  1.3124 -0.0639
  751SOL     OW 2251   0.265   3.222   2.128 -0.5785 -0.1764 -0.4512
  751SOL    HW1 2252   0.275   3.148   2.067  0.7632 -1.4158  1.1818
  751SOL    HW2 2253   0.180   3.259   2.105 -0.3258 -0.8244 -2.7964
  752SOL     OW 2254   3.701   2.660   1.683  0.3297 -0.5548 -0.8681
  752SOL    HW1 2255   3.697   2.755   1.696 -2.1846 -0.6439 -0.6051
  752SOL    HW2 2256   3.652   2.644   1.603  0.7643 -1.6462 -0.9381
  753SOL     OW 2257   2.473   0.795   0.373  0.2385  0.1976 -0.7698
  753SOL    HW1 2258   2.465   0.810   0.279  0.2712  3.7114 -0.3459
  753SOL    HW2 2259   2.394   0.746   0.396 -1.1089  1.5048 -2.3073
  754SOL     OW 2260   2.513   0.132   1.164 -0.2060 -0.6264 -0.3683
  754SOL    HW1 2261   2.443   0.197   1.158 -0.1024 -0.4207  0.5075
  754SOL    HW2 2262   2.519   0.112   1.258  1.8624  0.4049 -0.2375
  755SOL     OW 2263   1.201   3.008   3.212 -0.1795  0.6356  0.5358
  755SOL    HW1 2264   1.172   3.095   3.182 -0.4967  1.2262  2.4464
  755SOL    HW2 2265   1.122   2.965   3.243  0.2846  0.5007  1.5780
  756SOL     OW 2266   2.687   3.146   1.893  0.3314 -0.5271  0.2075
  756SOL    HW1 2267   2.707   3.225   1.943 -1.0747 -0.2901  0.4476
  756SOL    HW2 2268   2.618   3.103   1.944  1.8330 -2.5213  0.6820
  757SOL     OW 2269   2.523   2.354   1.356 -0.1176 -0.0151  0.4555
  757SOL    HW1 2270   2.462   2.325   1.289 -0.1805  0.4195  0.3168
  757SOL    HW2 2271   2.494   2.311   1.437 -0.2303 -0.2934  0.2677
  758SOL     OW 2272   1.444   2.252   0.866 -0.7237 -0.3244 -0.3195
  758SOL    HW1 2273   1.494   2.315   0.917 -0.8023  0.3452 -1.0508
  758SOL    HW2 2274   1.510   2.195   0.826 -0.4124  1.1733 -2.1027
  759SOL     OW 2275  -0.001   3.963   1.481 -0.9495 -0.4674  0.6801
  759SOL    HW1 2276   0.089   3.995   1.472 -2.2163  3.4688 -0.0942
  759SOL    HW2 2277  -0.008   3.893   1.416  1.2153  0.0027 -0.1512
  760SOL     OW 2278   1.223   3.787   2.492  0.3351 -0.4765 -0.3761
  760SOL    HW1 2279   1.210   3.793   2.397 -1.1422 -0.1989 -0.1895
  760SOL    HW2 2280   1.149   3.836   2.529  2.2546  1.6080  0.9221
  761SOL     OW 2281   0.354   2.093   1.625  0.1301 -0.0914 -0.4953
  761SOL    HW1 2282   0.441   2.056   1.613 -0.4834 -2.3732  1.2878
  761SOL    HW2 2283   0.367   2.165   1.687  0.8425  0.1832 -0.9529
  762SOL     OW 2284   3.055   3.036   1.291 -0.9370  0.7481 -0.0009
  762SOL    HW1 2285   3.026   3.104   1.352  0.0067  1.7489 -0.6363
  762SOL    HW2 2286   2.977   3.015   1.239 -0.8592  2.5680 -0.9150
  763SOL     OW 2287   2.479   1.872   2.456 -0.2886 -1.0378  0.3503
  763SOL    HW1 2288   2.470   1.788   2.412 -1.5593 -0.6117 -0.2384
  763SOL    HW2 2289   2.424   1.864   2.534 -0.2680 -0.8100  0.3884
  764SOL     OW 2290   1.278   1.843   0.606  0.2669  0.8835  0.2936
  764SOL    HW1 2291   1.208   1.904   0.584 -0.1373  0.7647  1.2037
  764SOL    HW2 2292   1.324   1.828   0.524 -0.8277  0.8988 -0.3347
  765SOL     OW 2293   0.823   1.585   2.688 -0.5496  0.3408  0.5884
  765SOL    HW1 2294   0.880   1.590   2.765  0.0830  0.1111  0.1469
  765SOL    HW2 2295   0.760   1.656   2.699 -0.0140  0.7622  0.9651
  766SOL     OW 2296   1.485   1.554   0.281  0.4576 -0.5475 -0.1746
  766SOL    HW1 2297   1.461   1.602   0.202  0.8894 -0.4958 -0.2760
  766SOL    HW2 2298   1.437   1.597   0.352  0.6700 -0.1043 -0.2977
  767SOL     OW 2299   3.912   0.823   2.410  0.5835 -0.4706 -0.0655
  767SOL    HW1 2300   3.834   0.801   2.360  0.8500 -3.7083  0.7713
  767SOL    HW2 2301   3.984   0.819   2.347  0.6679 -2.6033  0.1108
  768SOL     OW 2302   0.365   0.524   2.821  0.0631 -0.2951 -0.0011
  768SOL    HW1 2303   0.408   0.604   2.850  1.1156 -0.4683 -1.0204
  768SOL    HW2 2304   0.427   0.484   2.759 -0.1661 -2.2004  0.9273
  769SOL     OW 2305   2.937   3.786   0.088  0.8530 -0.4694  0.4493
  769SOL    HW1 2306   2.942   3.703   0.135 -0.2745 -1.3978 -0.9957
  769SOL    HW2 2307   2.991   3.772   0.010  0.4881  0.0829  0.0963
  770SOL     OW 2308   1.067   1.051   2.446 -0.3619 -1.4729 -0.2745
  770SOL    HW1 2309   1.009   0.982   2.414 -1.0199 -1.1746  0.2333
  770SOL    HW2 2310   1.018   1.132   2.433  0.1283 -1.1662 -0.2538
  771SOL     OW 2311   0.935   2.437   0.067  0.2699  0.2363  0.0914
  771SOL    HW1 2312   0.910   2.524   0.038 -2.0441 -0.5114 -0.3578
  771SOL    HW2 2313   0.913   2.435   0.160 -0.4806 -0.1123 -0.0856
  772SOL     OW 2314   0.863   3.231   0.270 -0.5603  0.2230  0.3678
  772SOL    HW1 2315   0.841   3.170   0.341 -0.0636 -1.7211 -1.0784
  772SOL    HW2 2316   0.933   3.286   0.306 -3.2012  2.3011  2.8555
  773SOL     OW 2317   1.823   0.961   3.155  0.3036 -0.2058 -0.6577
  773SOL    HW1 2318   1.893   1.006   3.201 -0.0974 -0.4742  0.2456
  773SOL    HW2 2319   1.754   1.027   3.146 -0.7039 -0.8365  1.5947
  774SOL     OW 2320   3.379   3.925   2.949 -0.2555 -0.3412 -0.0664
  774SOL    HW1 2321   3.329   3.845   2.964 -0.0922 -0.3764  0.2880
  774SOL    HW2 2322   3.354   3.983   3.021 -2.3394  0.9161 -1.6727
  775SOL     OW 2323   1.449   1.478   2.957 -0.5590 -0.2109 -0.6237
  775SOL    HW1 2324   1.521   1.534   2.989 -1.5260  0.7719 -0.1146
  775SOL    HW2 2325   1.491   1.394   2.939 -0.0652 -1.3760  4.4944
  776SOL     OW 2326   1.026   2.643   1.882 -0.4816 -0.2346  0.1011
  776SOL    HW1 2327   1.109   2.688   1.868 -0.0677 -0.9206  0.3139
  776SOL    HW2 2328   1.049   2.550   1.882 -1.1371 -0.4083  0.8611
  777SOL     OW 2329   0.975   0.485   1.704  0.3811  0.0367  0.1527
  777SOL    HW1 2330   0.937   0.493   1.617 -0.4346 -0.2144  0.4759
  777SOL    HW2 2331   0.941   0.560   1.753  0.7141  0.0954  0.2978
  778SOL     OW 2332   2.202   2.153   2.281 -0.6983  0.2580  0.4854
  778SOL    HW1 2333   2.182   2.078   2.225  1.4200  0.0432 -0.0457
  778SOL    HW2 2334   2.220   2.116   2.367 -3.1569  0.5219  1.1870
  779SOL     OW 2335   0.897   0.753   3.796  0.1293 -0.1064 -0.8271
  779SOL    HW1 2336   0.837   0.698   3.745 -0.3378  1.9252 -2.5916
  779SOL    HW2 2337   0.936   0.812   3.732 -0.7554  2.8348  1.1422
  780SOL     OW 2338   2.406   1.658   2.082 -0.7790  0.2013  0.7199
  780SOL    HW1 2339   2.425   1.752   2.077  0.5470 -0.1033 -0.6474
  780SOL    HW2 2340   2.491   1.619   2.103 -0.7985 -0.8582 -1.0122
  781SOL     OW 2341   2.214   2.288   1.605 -0.3011  0.1964  0.0133
  781SOL    HW1 2342   2.166   2.355   1.556 -1.2899  0.1429  0.8935
  781SOL    HW2 2343   2.205   2.209   1.551 -1.8520  0.0008  0.5151
  782SOL     OW 2344   3.867   1.067   2.595 -0.0613  0.1305  0.0972
  782SOL    HW1 2345   3.863   1.008   2.519  2.6090  0.3281 -0.2834
  782SOL    HW2 2346   3.817   1.021   2.663 -1.4403 -0.6420 -1.3580
  783SOL     OW 2347   2.574   0.890   0.854 -0.3410 -0.0630 -0.4642
  783SOL    HW1 2348   2.482   0.864   0.859 -0.2457 -0.7520 -1.9304
  783SOL    HW2 2349   2.608   0.845   0.777  0.6757  1.8754 -1.2024
  784SOL     OW 2350   3.546   2.285   1.664 -0.1788 -0.8214  0.7591
  784SOL    HW1 2351   3.508   2.281   1.576 -2.7317 -1.3886  1.8035
  784SOL    HW2 2352   3.576   2.375   1.673 -3.7588  0.5440  0.7149
  785SOL     OW 2353   1.826   2.887   1.602 -0.4723 -0.3804  0.1192
  785SOL    HW1 2354   1.823   2.892   1.506 -0.9887 -0.6807  0.1181
  785SOL    HW2 2355   1.914   2.855   1.621  0.0875  0.8980 -0.2024
  786SOL     OW 2356   3.435   2.446   2.662 -0.5069 -0.5786 -0.3813
  786SOL    HW1 2357   3.363   2.452   2.600  1.4443  2.2714 -2.6667
  786SOL    HW2 2358   3.498   2.388   2.620 -0.9260 -2.1753  1.0899
  787SOL     OW 2359   0.021   1.055   2.944  0.1006 -0.9617 -0.2714
  787SOL    HW1 2360   0.048   1.036   3.034  0.0959 -1.2499 -0.3298
  787SOL    HW2 2361   0.013   1.150   2.941  0.4223 -0.9279 -0.0587
  788SOL     OW 2362   2.789   3.292   0.928  0.2633 -0.4741 -0.4552
  788SOL    HW1 2363   2.754   3.269   0.842 -0.8933 -1.7297  0.3107
  788SOL    HW2 2364   2.779   3.213   0.980 -0.6665  0.7525  1.3440
  789SOL     OW 2365   3.873   3.741   2.951 -0.5791 -0.2166  0.0064
  789SOL    HW1 2366   3.796   3.740   3.009 -1.6498 -2.8019 -1.3032
  789SOL    HW2 2367   3.843   3.787   2.873 -1.3515 -2.4069 -1.0659
  790SOL     OW 2368   1.776   3.089   3.387 -0.0384 -0.1493 -0.4490
  790SOL    HW1 2369   1.842   3.048   3.443  0.5479 -0.6776 -1.4934
  790SOL    HW2 2370   1.693   3.067   3.428  0.3748 -0.5833  0.1783
  791SOL     OW 2371   0.845   1.542   3.556  0.2745  0.8157  1.3304
  791SOL    HW1 2372   0.854   1.505   3.469 -1.9737 -0.5467  1.5881
  791SOL    HW2 2373   0.808   1.629   3.541 -2.2658 -0.2464  0.8978
  792SOL     OW 2374   0.394   0.727   0.124  1.2683 -0.4031  0.1585
  792SOL    HW1 2375   0.393   0.701   0.031  1.8796  0.1156  0.0071
  792SOL    HW2 2376   0.461   0.672   0.163  0.5187 -1.1345  0.4550
  793SOL     OW 2377   3.875   2.787   0.515 -0.2426  0.8288  0.8673
  793SOL    HW1 2378   3.809   2.796   0.446  0.3477 -1.7521 -0.1509
  793SOL    HW2 2379   3.870   2.869   0.564 -1.8261  2.0913 -1.2412
  794SOL     OW 2380   1.662  -0.006   0.547  0.1175  0.0446 -0.0899
  794SOL    HW1 2381   1.743  -0.001   0.495  1.1172  0.9224  1.4656
  794SOL    HW2 2382   1.606   0.063   0.511  0.8676  0.7624  0.0848
  795SOL     OW 2383   1.536   1.958   3.145  0.4810  0.0093 -0.2129
  795SOL    HW1 2384   1.534   2.001   3.060 -2.1595  2.4497  0.8864
  795SOL    HW2 2385   1.464   1.895   3.142 -1.6425  2.1901  0.9980
  796SOL     OW 2386   3.764   2.146   3.411 -0.1187 -0.4319 -0.1914
  796SOL    HW1 2387   3.769   2.089   3.335  1.8992 -2.8122  1.5450
  796SOL    HW2 2388   3.847   2.133   3.456 -1.4134  0.4302  2.6958
  797SOL     OW 2389   0.521   3.236   0.945 -0.6287  0.5774 -1.5377
  797SOL    HW1 2390   0.446   3.199   0.991  1.8382 -0.8150  1.7679
  797SOL    HW2 2391   0.483   3.285   0.872 -4.8095  1.8167  1.1593
  798SOL     OW 2392   2.585   1.285   2.746  0.6281 -0.2857 -0.6850
  798SOL    HW1 2393   2.563   1.377   2.758 -0.3637 -0.4392 -1.1891
  798SOL    HW2 2394   2.556   1.243   2.826  0.3846 -0.2609 -0.7562
  799SOL     OW 2395   1.795   0.299   0.806 -0.5200 -0.2883  0.5960
  799SOL    HW1 2396   1.812   0.393   0.809 -0.0154 -0.3135 -0.8790
  799SOL    HW2 2397   1.821   0.267   0.892  0.0465  0.7963  0.8411
  800SOL     OW 2398   3.962   1.671   3.625  0.1314  0.5042  0.0831
  800SOL    HW1 2399   4.044   1.664   3.674  0.0161  1.7848  0.5065
  800SOL    HW2 2400   3.928   1.757   3.648 -1.7633 -0.3248  0.5827
  801SOL     OW 2401   0.009   3.833   3.631  0.7945 -0.6356  0.4540
  801SOL    HW1 2402   0.051   3.840   3.545 -2.8688 -2.1334 -1.7072
  801SOL    HW2 2403   0.017   3.740   3.654  0.7631 -0.4632  1.1723
  802SOL     OW 2404   1.707   3.946   2.681 -0.4922 -0.0634 -0.1701
  802SOL    HW1 2405   1.648   4.016   2.655  0.9372  2.1809  2.0911
  802SOL    HW2 2406   1.795   3.982   2.667  0.2911 -1.5076  0.7355
  803SOL     OW 2407   2.923   0.635   2.366 -0.0386  0.1999 -0.4245
  803SOL    HW1 2408   3.011   0.597   2.365 -0.1144 -0.0365  0.8066
  803SOL    HW2 2409   2.896   0.632   2.457 -0.8211  1.4569 -0.5865
  804SOL     OW 2410   2.874   2.018   0.506 -0.2007  0.4869  0.4723
  804SOL    HW1 2411   2.893   1.976   0.591 -2.3169 -1.6046  0.0189
  804SOL    HW2 2412   2.813   2.089   0.528  0.6094  1.0789  0.8625
  805SOL     OW 2413   0.531   3.543   3.856 -0.6175 -0.3238  0.0424
  805SOL    HW1 2414   0.600   3.484   3.885  1.6248  1.7264 -0.7665
  805SOL    HW2 2415   0.512   3.514   3.767 -0.0730 -0.3276 -0.0804
  806SOL     OW 2416   2.494   0.902   3.820 -0.3111 -0.3373  0.2745
  806SOL    HW1 2417   2.522   0.985   3.782 -1.1543  0.6841  1.7558
  806SOL    HW2 2418   2.407   0.887   3.781 -1.1813  0.7158  1.6795
  807SOL     OW 2419   1.844   1.643   0.359 -0.0584 -0.0428 -0.1522
  807SOL    HW1 2420   1.767   1.615   0.408 -0.5299  0.1112 -0.8007
  807SOL    HW2 2421   1.912   1.580   0.383 -0.7764 -1.0476 -0.6756
  808SOL     OW 2422   3.545   0.133   3.644 -0.9950  0.3539 -0.4715
  808SOL    HW1 2423   3.484   0.123   3.571  0.1188 -1.9155 -1.1965
  808SOL    HW2 2424   3.616   0.187   3.609 -2.0873  2.2650  0.1083
  809SOL     OW 2425   1.271   3.418   1.083  0.3613 -0.4230 -0.4204
  809SOL    HW1 2426   1.188   3.370   1.074  0.5350 -1.0236  0.9914
  809SOL    HW2 2427   1.312   3.382   1.161  1.4180  0.7004 -0.4198
  810SOL     OW 2428   1.320   1.565   1.096  0.5848  0.7010  0.0326
  810SOL    HW1 2429   1.335   1.562   1.002 -0.6346  1.5682 -0.2030
  810SOL    HW2 2430   1.363   1.646   1.125  0.8618  0.4930  0.2211
  811SOL     OW 2431   1.158   2.412   3.069  0.4668 -0.2093 -0.0475
  811SOL    HW1 2432   1.239   2.361   3.080 -1.1076 -2.6744  0.8046
  811SOL    HW2 2433   1.162   2.478   3.138  2.0211  0.1762 -0.4444
  812SOL     OW 2434   3.270   1.100   3.520 -0.5221 -0.2611  0.3762
  812SOL    HW1 2435   3.182   1.068   3.502 -0.8690  1.0157 -0.3610
  812SOL    HW2 2436   3.259   1.157   3.596 -0.3551 -0.0463  0.2403
  813SOL     OW 2437   0.134   2.156   3.030  0.3096  0.4794  0.2058
  813SOL    HW1 2438   0.189   2.203   2.968  1.7276 -0.6072  0.5891
  813SOL    HW2 2439   0.045   2.171   2.999  0.9419  0.3777 -1.7980
  814SOL     OW 2440   0.896   2.601   1.635 -0.6011 -0.0479 -0.4354
  814SOL    HW1 2441   0.828   2.540   1.606 -0.7512 -0.4900  0.7999
  814SOL    HW2 2442   0.885   2.607   1.729  1.8098 -1.0739 -0.0064
  815SOL     OW 2443   0.899   2.798   2.170 -0.2561  0.1838  0.6780
  815SOL    HW1 2444   0.881   2.877   2.220 -2.2228 -1.7992  3.3987
  815SOL    HW2 2445   0.971   2.756   2.218 -1.3305 -1.1498  1.1800
  816SOL     OW 2446   2.596   3.061   2.409  0.3152  0.1347 -0.1341
  816SOL    HW1 2447   2.545   2.982   2.389  2.4887 -1.2000 -0.8289
  816SOL    HW2 2448   2.531   3.127   2.429 -1.6160 -1.9472  0.9488
  817SOL     OW 2449   0.016   2.100   3.431 -0.2123  0.1759  0.5156
  817SOL    HW1 2450   0.011   2.083   3.337  2.3954 -0.4467  0.4133
  817SOL    HW2 2451   0.089   2.045   3.462  1.8844  3.4783  2.0562
  818SOL     OW 2452   0.837   2.939   1.155  0.8794  0.2926  0.2926
  818SOL    HW1 2453   0.837   3.033   1.172 -0.1217  0.1137  1.4048
  818SOL    HW2 2454   0.818   2.931   1.062  0.0749  1.1825  0.3658
  819SOL     OW 2455   3.371   2.243   3.172 -0.5814  0.1640  0.3521
  819SOL    HW1 2456   3.320   2.162   3.165 -2.7825  1.2520  2.2447
  819SOL    HW2 2457   3.407   2.257   3.084 -1.7691 -1.8304 -0.5231
  820SOL     OW 2458   0.760   2.178   2.716  0.0346  0.1110 -0.3588
  820SOL    HW1 2459   0.786   2.126   2.640 -0.6592 -0.5329 -0.1711
  820SOL    HW2 2460   0.772   2.119   2.791  0.1147  0.5271 -0.0369
  821SOL     OW 2461   2.146   0.983   2.097 -0.8537 -0.3533 -1.0390
  821SOL    HW1 2462   2.229   0.952   2.135 -1.8698 -1.5213  0.3412
  821SOL    HW2 2463   2.172   1.032   2.020  1.3433  1.7166  0.8618
  822SOL     OW 2464   1.795   3.910   3.499 -0.4214 -0.1166 -0.5348
  822SOL    HW1 2465   1.728   3.841   3.500  0.0130 -0.5544  0.6698
  822SOL    HW2 2466   1.790   3.950   3.585 -0.0214  0.7361 -0.8953
  823SOL     OW 2467   3.833   0.419   0.881  0.0261 -0.4769  0.5537
  823SOL    HW1 2468   3.863   0.490   0.938  2.8495 -1.5996  0.6505
  823SOL    HW2 2469   3.750   0.450   0.845  1.4955  3.2945 -0.0856
  824SOL     OW 2470   1.220   1.539   3.196 -0.4442 -0.5966 -0.6837
  824SOL    HW1 2471   1.197   1.467   3.137  0.3940 -1.4735  0.0281
  824SOL    HW2 2472   1.202   1.505   3.284 -0.9326  0.4139 -0.3732
  825SOL     OW 2473   0.779   1.852   1.392  0.4868  0.5502  0.1032
  825SOL    HW1 2474   0.802   1.780   1.333 -0.4109  0.8865 -0.6831
  825SOL    HW2 2475   0.804   1.931   1.344  0.4915  0.8016  0.5170
  826SOL     OW 2476   1.943   1.266   1.074 -0.3657 -0.4800  0.6289
  826SOL    HW1 2477   2.019   1.278   1.132 -0.4418 -0.9809  0.8392
  826SOL    HW2 2478   1.867   1.280   1.131 -0.4507  1.4500  0.1110
  827SOL     OW 2479   1.329   0.591   0.957  0.3712 -0.0183 -0.3151
  827SOL    HW1 2480   1.296   0.579   1.046  0.4163  1.3875 -0.0778
  827SOL    HW2 2481   1.424   0.596   0.966  0.3661  0.3082 -0.4028
  828SOL     OW 2482   3.713   3.909   1.913  0.0239 -0.2188  0.1935
  828SOL    HW1 2483   3.635   3.893   1.967  0.5193  0.9941  1.3197
  828SOL    HW2 2484   3.772   3.957   1.971  2.6350 -3.1152  0.1828
  829SOL     OW 2485   0.924   0.056   2.905 -0.0425  0.4636  0.7134
  829SOL    HW1 2486   1.015   0.084   2.898 -0.2031  0.8600  0.0265
  829SOL    HW2 2487   0.881   0.098   2.830 -1.1022  1.5156  1.8683
  830SOL     OW 2488   3.375   0.657   1.842 -0.4626 -0.5213  0.1484
  830SOL    HW1 2489   3.316   0.582   1.853 -1.0980 -0.0490 -0.0019
  830SOL    HW2 2490   3.463   0.618   1.844 -0.8110 -1.4386 -1.1711
  831SOL     OW 2491   2.932   0.881   2.273 -0.4085 -0.2282  0.8214
  831SOL    HW1 2492   3.026   0.896   2.281  0.4705 -0.6120 -4.6829
  831SOL    HW2 2493   2.918   0.794   2.311  1.0287  0.4452  3.0973
  832SOL     OW 2494   1.971   1.143   2.344  0.1555  0.4097 -0.3772
  832SOL    HW1 2495   1.961   1.181   2.257 -2.0331 -0.3542 -0.5143
  832SOL    HW2 2496   2.032   1.070   2.330 -0.0106  0.4180 -1.2345
  833SOL     OW 2497   2.120   0.631   3.666 -0.0502 -0.2965  0.0548
  833SOL    HW1 2498   2.159   0.572   3.602 -2.5301 -3.3242  1.1010
  833SOL    HW2 2499   2.070   0.574   3.724 -2.1341  2.8088  1.5833
  834SOL     OW 2500   1.665   0.773   2.154 -0.0523 -1.2245  0.7050
  834SOL    HW1 2501   1.655   0.825   2.234 -1.3321  0.6536 -0.6077
  834SOL    HW2 2502   1.580   0.732   2.141  0.2243 -1.7121  0.3996
  835SOL     OW 2503   1.591   2.502   0.097  0.4329 -0.4677  0.5270
  835SOL    HW1 2504   1.523   2.519   0.163 -1.6560  2.3006 -2.0932
  835SOL    HW2 2505   1.591   2.406   0.087 -1.6445 -0.7033  2.0408
  836SOL     OW 2506   3.846   2.172   2.123 -0.0703  0.4229 -0.3760
  836SOL    HW1 2507   3.794   2.238   2.078 -0.2659  1.2579  1.0289
  836SOL    HW2 2508   3.782   2.113   2.163  0.1031 -0.3247 -1.1540
  837SOL     OW 2509   2.888   3.223   0.564  0.3501  0.7189  0.1355
  837SOL    HW1 2510   2.944   3.244   0.490  0.4647  1.5024  0.4309
  837SOL    HW2 2511   2.876   3.128   0.560 -0.3861  0.8482 -1.4149
  838SOL     OW 2512   1.658   1.670   3.701  0.1835 -0.1945 -0.2355
  838SOL    HW1 2513   1.567   1.702   3.699  0.3624  0.3592  0.1537
  838SOL    HW2 2514   1.652   1.579   3.672 -0.5125 -0.1950 -0.1127
  839SOL     OW 2515   1.829   3.509   3.848  0.6961  1.2192 -0.3019
  839SOL    HW1 2516   1.872   3.431   3.813  0.6256  0.9464  0.2008
  839SOL    HW2 2517   1.892   3.579   3.836  1.9677  0.5374  1.8206
  840SOL     OW 2518   3.142   2.845   2.037 -0.2377  0.0443  0.2039
  840SOL    HW1 2519   3.096   2.816   2.116 -0.1310  1.0461  0.6482
  840SOL    HW2 2520   3.224   2.796   2.038 -0.7311 -0.8144  0.0807
  841SOL     OW 2521   1.554   2.164   0.382  0.6807 -0.0457  0.3336
  841SOL    HW1 2522   1.587   2.229   0.443  1.3082 -2.3056  2.5519
  841SOL    HW2 2523   1.568   2.080   0.425 -0.6216 -1.6729 -2.1225
  842SOL     OW 2524   2.230   2.104   1.399 -0.3717  0.2880  0.0594
  842SOL    HW1 2525   2.295   2.096   1.330 -1.9039  3.5602 -2.0230
  842SOL    HW2 2526   2.190   2.018   1.406  2.6417 -1.2387 -0.0665
  843SOL     OW 2527   2.823   3.947   3.796  0.3143 -0.9024  0.0690
  843SOL    HW1 2528   2.818   3.965   3.702  0.7769 -1.2983 -0.0379
  843SOL    HW2 2529   2.742   3.898   3.814 -0.6008  0.6295  0.2293
  844SOL     OW 2530   3.030   0.669   1.794  0.0171 -0.1611  0.1783
  844SOL    HW1 2531   2.997   0.729   1.861  0.4477 -0.9242  1.0848
  844SOL    HW2 2532   3.084   0.606   1.842  1.2309 -0.0794 -1.0242
  845SOL     OW 2533   3.066   1.797   1.073 -0.0686  0.3396  0.0787
  845SOL    HW1 2534   2.992   1.819   1.130  0.6820 -1.9416  2.1022
  845SOL    HW2 2535   3.033   1.810   0.984 -2.1014  1.6451  0.9492
  846SOL     OW 2536   0.234   2.826   1.100  0.2857  0.2735 -0.7294
  846SOL    HW1 2537   0.268   2.737   1.091 -1.9016 -0.7732  0.4969
  846SOL    HW2 2538   0.193   2.845   1.015 -2.2167 -1.3298  0.0057
  847SOL     OW 2539   3.106   2.284   1.648  0.3356  0.4111  0.0793
  847SOL    HW1 2540   3.179   2.303   1.707  1.0534  1.4932 -1.1295
  847SOL    HW2 2541   3.028   2.309   1.698  0.8673  0.5508  0.8643
  848SOL     OW 2542   0.305   0.616   1.904  0.2321 -0.5267 -0.1156
  848SOL    HW1 2543   0.397   0.612   1.878  0.5939 -1.3099  1.2282
  848SOL    HW2 2544   0.296   0.699   1.950  0.2723 -0.4842 -0.1832
  849SOL     OW 2545   0.737   1.393   0.705  0.2988  0.2554  0.4386
  849SOL    HW1 2546   0.733   1.319   0.766  0.8723  0.5175  0.8027
  849SOL    HW2 2547   0.663   1.380   0.647 -0.1710 -0.0802  1.1020
  850SOL     OW 2548   0.573   3.417   0.611 -0.0826 -0.2872 -0.2283
  850SOL    HW1 2549   0.541   3.425   0.700 -0.6871  0.0346 -0.4710
  850SOL    HW2 2550   0.502   3.451   0.556 -0.9025 -2.9603 -1.0149
  851SOL     OW 2551   3.438   3.889   2.016 -0.4701  0.8034  0.6335
  851SOL    HW1 2552   3.437   3.834   2.095  5.0595 -1.3833 -0.3417
  851SOL    HW2 2553   3.411   3.975   2.046  0.4023 -0.1451  4.7951
  852SOL     OW 2554   0.468   2.144   2.823 -0.0492 -1.1167  0.4754
  852SOL    HW1 2555   0.381   2.184   2.815  0.1482 -0.8929 -0.7091
  852SOL    HW2 2556   0.459   2.059   2.780  0.8606 -0.1945 -1.6693
  853SOL     OW 2557   1.348   2.529   0.216  0.3582 -0.6918  0.3577
  853SOL    HW1 2558   1.270   2.584   0.209  0.6822 -0.1290  1.1185
  853SOL    HW2 2559   1.322   2.447   0.174 -0.3965 -0.2552 -0.0668
  854SOL     OW 2560   3.377   3.381   0.138  0.0745  0.6800 -0.5754
  854SOL    HW1 2561   3.462   3.423   0.123  0.5014 -0.6683 -2.2705
  854SOL    HW2 2562   3.357   3.400   0.230  2.7373  0.0956  0.2145
  855SOL     OW 2563   0.596   3.627   1.276 -0.0260  0.5883  1.4128
  855SOL    HW1 2564   0.572   3.555   1.335 -1.4361  0.7754  1.0963
  855SOL    HW2 2565   0.680   3.600   1.239  0.4766  0.0735  2.8547
  856SOL     OW 2566   3.157   3.823   1.357  0.0510 -0.3946 -0.9625
  856SOL    HW1 2567   3.199   3.809   1.442 -3.0018  0.1994  0.7908
  856SOL    HW2 2568   3.106   3.744   1.342  1.8823 -1.2544 -3.2133
  857SOL     OW 2569   2.319   2.159   0.686 -0.4367  0.2299  0.6380
  857SOL    HW1 2570   2.410   2.138   0.706 -1.1006  0.2458  4.4015
  857SOL    HW2 2571   2.272   2.078   0.700 -1.1111  0.2900 -1.0228
  858SOL     OW 2572   3.092   0.939   3.284  0.0369  0.7730 -0.1263
  858SOL    HW1 2573   3.092   0.845   3.300  2.4763  0.4821 -1.3311
  858SOL    HW2 2574   3.031   0.952   3.212  0.8473 -0.1417 -1.0004
  859SOL     OW 2575   0.095   0.372   3.502 -0.2251 -0.3334 -0.0737
  859SOL    HW1 2576   0.076   0.342   3.413 -1.0078  1.1459 -0.4315
  859SOL    HW2 2577   0.127   0.294   3.547  0.2428 -1.0964 -1.6606
  860SOL     OW 2578   0.947   2.357   0.923 -0.8994  0.3636 -0.3833
  860SOL    HW1 2579   0.900   2.351   1.006 -0.4157  1.3338 -0.0292
  860SOL    HW2 2580   0.986   2.444   0.923 -1.8240  0.8208 -2.1444
  861SOL     OW 2581   2.072   3.486   1.081 -0.4571 -0.1841 -0.1176
  861SOL    HW1 2582   2.039   3.525   1.162 -0.8358  0.5879 -0.6299
  861SOL    HW2 2583   2.025   3.532   1.011 -0.6208 -1.2808 -0.7694
  862SOL     OW 2584   2.279   0.233   0.986 -0.2296 -0.4726 -0.4006
  862SOL    HW1 2585   2.196   0.257   1.025 -0.3625  3.7522 -2.7352
  862SOL    HW2 2586   2.256   0.183   0.908 -0.6706  1.0655 -1.2811
  863SOL     OW 2587   1.000   1.204   2.880 -0.0516  0.0462 -0.4451
  863SOL    HW1 2588   0.915   1.161   2.889 -0.2164  0.4828  0.2128
  863SOL    HW2 2589   1.059   1.150   2.932 -0.4615  1.1241  1.2046
  864SOL     OW 2590   0.522   2.111   3.108  0.0787  0.2677  0.6755
  864SOL    HW1 2591   0.584   2.183   3.123 -2.9838  3.3089 -0.0406
  864SOL    HW2 2592   0.518   2.103   3.012 -0.5694  0.0425  0.7202
  865SOL     OW 2593   2.895   0.340   1.931 -0.3099  0.4907  0.4428
  865SOL    HW1 2594   2.973   0.292   1.958 -0.9313 -0.1872  1.0701
  865SOL    HW2 2595   2.871   0.301   1.847 -0.0482  0.6022  0.3183
  866SOL     OW 2596   1.411   0.949   3.407  0.1450  0.0317  0.3510
  866SOL    HW1 2597   1.359   1.001   3.469 -0.5858 -1.8314  1.3883
  866SOL    HW2 2598   1.345   0.903   3.354  0.7794  0.3707 -0.7678
  867SOL     OW 2599   3.867   0.221   0.031 -0.6383 -0.8888 -0.0277
  867SOL    HW1 2600   3.917   0.140   0.018  0.0255 -0.4629 -0.1561
  867SOL    HW2 2601   3.783   0.205  -0.011 -1.1492 -2.1283  1.3568
  868SOL     OW 2602   2.378   1.118   1.122  0.3259  0.1336  0.6437
  868SOL    HW1 2603   2.462   1.126   1.077 -1.3057  0.5241 -2.6379
  868SOL    HW2 2604   2.366   1.203   1.165  0.8552  0.7502 -0.3756
  869SOL     OW 2605   1.211   1.271   2.380  0.1991 -0.1876 -0.1485
  869SOL    HW1 2606   1.143   1.241   2.320 -0.8382  0.1827  0.8110
  869SOL    HW2 2607   1.250   1.191   2.414  0.3313 -0.3999 -0.7773
  870SOL     OW 2608   3.457   2.514   3.998  0.5527  0.0676 -0.3671
  870SOL    HW1 2609   3.430   2.502   3.907  0.9193  3.4446 -1.0545
  870SOL    HW2 2610   3.545   2.551   3.993  0.6609  0.1373  1.3654
  871SOL     OW 2611   1.712   4.015   2.336 -0.8182 -0.2476 -0.1364
  871SOL    HW1 2612   1.637   3.955   2.337 -0.8564 -0.3636  3.0523
  871SOL    HW2 2613   1.737   4.022   2.428  0.0695  3.5754 -0.4868
  872SOL     OW 2614   0.628   3.238   3.524  0.6928 -0.2893 -0.1528
  872SOL    HW1 2615   0.713   3.251   3.565  0.6380  1.1341 -0.4534
  872SOL    HW2 2616   0.567   3.228   3.598  1.2533 -2.5927  0.0701
  873SOL     OW 2617   0.617   2.278   3.530 -0.1696 -0.1573  0.2677
  873SOL    HW1 2618   0.643   2.208   3.590  3.9162 -0.0472 -1.0569
  873SOL    HW2 2619   0.583   2.347   3.587  0.6015 -1.2375  2.1138
  874SOL     OW 2620   3.984   1.262   1.097 -0.6880  0.4542  0.5406
  874SOL    HW1 2621   3.991   1.215   1.180 -2.8209 -1.3822 -0.1992
  874SOL    HW2 2622   3.952   1.349   1.121 -2.1256 -0.3354  1.6356
  875SOL     OW 2623   2.117   3.974   3.726  0.3258 -0.4258 -0.1721
  875SOL    HW1 2624   2.160   3.914   3.786 -0.0372  0.5064  1.0636
  875SOL    HW2 2625   2.028   3.984   3.762 -1.0490 -2.3605 -2.6807
  876SOL     OW 2626   3.224   0.866   1.058  0.7215  0.0335  0.6535
  876SOL    HW1 2627   3.285   0.799   1.090  0.7980 -0.1036  0.2259
  876SOL    HW2 2628   3.277   0.923   1.003 -0.0560 -1.7598 -2.1554
  877SOL     OW 2629   2.258   3.326   2.071 -0.0657  0.3669 -0.2174
  877SOL    HW1 2630   2.265   3.403   2.015  0.4649  0.1119 -0.5118
  877SOL    HW2 2631   2.273   3.252   2.012 -1.1753 -0.0028 -0.0524
  878SOL     OW 2632   2.643   2.800   1.674  1.3161  0.4779  0.7408
  878SOL    HW1 2633   2.639   2.705   1.682  1.1614  0.4999  0.9189
  878SOL    HW2 2634   2.721   2.816   1.621 -2.1951 -0.1341 -5.5891
  879SOL     OW 2635   1.647   2.623   1.292  0.8105 -0.2856  1.0975
  879SOL    HW1 2636   1.572   2.610   1.349 -0.0293  0.0673  0.1041
  879SOL    HW2 2637   1.664   2.717   1.295  0.4460 -0.1876  0.4072
  880SOL     OW 2638   3.141   2.009   0.339  0.6462  0.3263 -0.2035
  880SOL    HW1 2639   3.068   1.986   0.395  2.0011  0.7037  1.8368
  880SOL    HW2 2640   3.203   1.937   0.348  1.0132  0.5132 -1.0426
  881SOL     OW 2641   3.753   3.684   3.852  0.1167  0.0274  0.7807
  881SOL    HW1 2642   3.696   3.745   3.805  0.5737  0.4076  0.7100
  881SOL    HW2 2643   3.828   3.671   3.793  0.1225 -0.4333  0.8894
  882SOL     OW 2644   3.168   2.702   3.308 -0.1001  0.0145 -0.0396
  882SOL    HW1 2645   3.199   2.611   3.302  0.0587  0.1606 -2.0584
  882SOL    HW2 2646   3.123   2.718   3.225  0.6914  2.0712 -0.1379
  883SOL     OW 2647   0.321   1.473   0.855 -0.3901  0.1313  0.1161
  883SOL    HW1 2648   0.227   1.456   0.865 -0.1743 -2.0828 -0.9533
  883SOL    HW2 2649   0.361   1.386   0.853  1.4967  0.9664 -1.0978
  884SOL     OW 2650   0.464   1.645   0.719 -0.7122  0.7603  0.6470
  884SOL    HW1 2651   0.418   1.623   0.638 -0.7447 -1.0799  1.1307
  884SOL    HW2 2652   0.427   1.587   0.785  0.1059  1.4416  1.7443
  885SOL     OW 2653   2.971   3.472   0.997 -0.7960 -0.3892  0.0254
  885SOL    HW1 2654   2.988   3.513   0.912 -2.5791  0.0592 -0.1500
  885SOL    HW2 2655   2.898   3.413   0.982 -1.1585 -0.2864  1.2563
  886SOL     OW 2656   0.091   1.220   1.363  0.1113 -0.2171  0.8101
  886SOL    HW1 2657   0.006   1.261   1.377 -1.4104 -2.6575 -0.6590
  886SOL    HW2 2658   0.088   1.140   1.415  0.4979 -1.5542 -1.1344
  887SOL     OW 2659   1.070   0.877   0.063  0.4021 -0.2736  0.8693
  887SOL    HW1 2660   1.027   0.923   0.135 -0.0030  0.7676 -0.0117
  887SOL    HW2 2661   1.159   0.912   0.063 -0.1371  1.2105 -0.3304
  888SOL     OW 2662   3.542   0.272   0.769  0.4467  0.4342  0.3031
  888SOL    HW1 2663   3.517   0.362   0.790 -0.4185  0.4425 -0.7307
  888SOL    HW2 2664   3.479   0.218   0.816  0.7537  0.3673  0.6437
  889SOL     OW 2665   0.621   1.098   3.572  0.5040  0.5640  0.0640
  889SOL    HW1 2666   0.679   1.131   3.640  0.6282 -2.5698  1.6711
  889SOL    HW2 2667   0.533   1.117   3.604  0.5771 -0.1039  0.6742
  890SOL     OW 2668   1.789   2.272   2.084 -0.5373 -0.2570  0.0186
  890SOL    HW1 2669   1.839   2.218   2.023  0.1064  0.7144 -0.3484
  890SOL    HW2 2670   1.814   2.240   2.170 -2.0305 -2.1519 -0.1793
  891SOL     OW 2671   1.613   2.645   1.650  0.3500  0.9464 -0.4341
  891SOL    HW1 2672   1.627   2.729   1.606  0.4378  1.0615 -0.1868
  891SOL    HW2 2673   1.641   2.659   1.740 -2.3954  1.5459  0.4335
  892SOL     OW 2674   2.773   2.693   0.490  0.6895 -0.1963  0.2657
  892SOL    HW1 2675   2.832   2.628   0.527  0.6703 -1.1151 -1.2363
  892SOL    HW2 2676   2.710   2.642   0.440 -1.7719  0.7033  2.2362
  893SOL     OW 2677   0.405   3.901   0.983  0.0045 -0.0284 -0.3044
  893SOL    HW1 2678   0.438   3.944   0.904 -0.2181 -0.5426 -0.6827
  893SOL    HW2 2679   0.384   3.973   1.043  1.3801  0.3311 -0.2211
  894SOL     OW 2680   0.206   0.599   2.213 -0.2640  0.8719  0.4980
  894SOL    HW1 2681   0.120   0.565   2.237  0.4337  0.1315  2.1075
  894SOL    HW2 2682   0.256   0.597   2.294  1.0260  2.1005 -0.2139
  895SOL     OW 2683   3.134   0.712   0.480  0.2112 -0.1871  0.5749
  895SOL    HW1 2684   3.070   0.641   0.484  0.7622 -0.9308 -2.1181
  895SOL    HW2 2685   3.216   0.673   0.510  0.0869 -0.0851  1.0630
  896SOL     OW 2686   1.118   0.974   3.773 -0.3045 -0.0899  0.1817
  896SOL    HW1 2687   1.209   0.949   3.792 -0.3281  0.2305  0.7367
  896SOL    HW2 2688   1.071   0.960   3.855 -0.7537 -0.2207 -0.0936
  897SOL     OW 2689   1.786   3.368   0.361  0.2975  0.4430 -0.1440
  897SOL    HW1 2690   1.698   3.384   0.327  0.0635 -0.6916 -0.1049
  897SOL    HW2 2691   1.779   3.287   0.412  1.0413  1.1356  1.1213
  898SOL     OW 2692   2.176   1.498   3.843  0.0675  0.1936 -0.2892
  898SOL    HW1 2693   2.256   1.549   3.842  1.0480 -1.2827 -1.6254
  898SOL    HW2 2694   2.112   1.552   3.797  0.5713  0.9426 -0.1265
  899SOL     OW 2695   3.804   3.750   3.234  0.2248 -0.8314  0.3943
  899SOL    HW1 2696   3.896   3.737   3.254  0.9874  2.0265 -0.7320
  899SOL    HW2 2697   3.765   3.782   3.316 -0.2794 -3.7254  1.3914
  900SOL     OW 2698   3.332   1.298   3.041 -0.6058 -0.2520  0.3000
  900SOL    HW1 2699   3.314   1.321   3.133  1.6823  0.0502  0.7281
  900SOL    HW2 2700   3.264   1.235   3.019  0.0144 -2.0125  2.9273
  901SOL     OW 2701   2.640   3.696   3.625  0.3469  0.5230 -0.3804
  901SOL    HW1 2702   2.677   3.779   3.593  1.2871  0.0681 -0.4984
  901SOL    HW2 2703   2.659   3.633   3.556  2.0889 -0.4009  0.8902
  902SOL     OW 2704   1.372   2.058   0.093  0.2038 -0.8009  0.3070
  902SOL    HW1 2705   1.357   2.012   0.011 -1.0534 -0.3065  0.2362
  902SOL    HW2 2706   1.463   2.088   0.087 -0.3324  0.7037 -1.6991
  903SOL     OW 2707   3.153   3.971   2.784 -0.2826 -0.3145  0.6578
  903SOL    HW1 2708   3.080   3.980   2.845  0.2359 -0.1822  1.2845
  903SOL    HW2 2709   3.218   3.919   2.833 -0.6297 -1.8980 -0.5090
  904SOL     OW 2710   3.305   0.472   0.586 -0.4484  0.2139 -0.3833
  904SOL    HW1 2711   3.385   0.502   0.630 -0.8777 -1.0846  1.4503
  904SOL    HW2 2712   3.333   0.396   0.535 -0.5401 -0.5879  0.7020
  905SOL     OW 2713   1.329   3.666   1.193  0.5808 -0.0530  0.1795
  905SOL    HW1 2714   1.290   3.587   1.156 -0.8640  0.6670  0.0962
  905SOL    HW2 2715   1.414   3.672   1.150  0.5916 -1.3854 -0.0381
  906SOL     OW 2716   3.572   0.991   0.773 -0.4152 -0.6518  0.7653
  906SOL    HW1 2717   3.632   0.988   0.847  0.4908 -0.1391  0.0635
  906SOL    HW2 2718   3.604   0.923   0.713 -0.4145 -0.2513  0.3041
  907SOL     OW 2719   0.873   1.467   2.067  0.2058  0.7418 -0.1711
  907SOL    HW1 2720   0.804   1.528   2.044 -1.1998 -0.8923 -0.5250
  907SOL    HW2 2721   0.848   1.435   2.154  0.7869  0.5088 -0.0888
  908SOL     OW 2722   2.034   3.007   1.988 -0.3108 -0.1513  0.5680
  908SOL    HW1 2723   2.123   3.041   1.980 -1.1697  2.3254  0.6356
  908SOL    HW2 2724   1.987   3.074   2.038 -1.8533 -2.1521  1.9597
  909SOL     OW 2725   1.496   1.291   0.649  0.5422 -0.6295 -0.0974
  909SOL    HW1 2726   1.433   1.226   0.619 -3.6819  2.9613  0.0749
  909SOL    HW2 2727   1.482   1.295   0.744  1.3138 -0.0295 -0.0011
  910SOL     OW 2728   1.538   1.569   1.356 -0.4188 -0.1198  0.1674
  910SOL    HW1 2729   1.547   1.634   1.425 -0.8121 -0.2279  0.3254
  910SOL    HW2 2730   1.496   1.616   1.284 -1.9800 -0.5272  0.7811
  911SOL     OW 2731   1.085   3.928   2.272  0.1146  0.0894 -0.7970
  911SOL    HW1 2732   1.095   4.012   2.318 -1.3493  0.3377 -0.8925
  911SOL    HW2 2733   1.067   3.953   2.181 -2.8857 -0.2046 -0.3587
  912SOL     OW 2734   3.205   0.450   1.811  0.5904  0.3099 -0.1130
  912SOL    HW1 2735   3.161   0.369   1.785 -1.2681  0.7619  1.3944
  912SOL    HW2 2736   3.285   0.452   1.758 -0.9792 -0.7800 -2.7448
  913SOL     OW 2737   2.734   2.386   1.136 -0.5689 -0.2845 -0.3920
  913SOL    HW1 2738   2.704   2.371   1.226  0.1165  0.4422 -0.0369
  913SOL    HW2 2739   2.829   2.393   1.143 -0.5424  0.1982 -1.1125
  914SOL     OW 2740   2.422   0.571   2.517  0.2256 -0.5220 -0.1253
  914SOL    HW1 2741   2.331   0.577   2.546  0.4184  1.6435  0.1740
  914SOL    HW2 2742   2.417   0.539   2.427 -0.8861  0.3613 -0.3903
  915SOL     OW 2743   1.102   0.471   0.796 -0.0313  0.3956  0.3634
  915SOL    HW1 2744   1.179   0.499   0.846  0.5018 -1.0760  0.4288
  915SOL    HW2 2745   1.132   0.471   0.705  0.7598 -2.1451  0.5509
  916SOL     OW 2746   1.904   1.238   2.104 -0.1705 -0.7012 -0.3622
  916SOL    HW1 2747   1.883   1.309   2.044 -2.1243 -2.3090 -1.6930
  916SOL    HW2 2748   1.881   1.158   2.056 -0.5670 -2.1201  2.0368
  917SOL     OW 2749   2.618   3.264   0.729 -0.4049 -0.3596  0.4219
  917SOL    HW1 2750   2.609   3.248   0.635  2.5085  0.6598 -0.1480
  917SOL    HW2 2751   2.529   3.261   0.763 -1.9642  2.1391 -2.8958
  918SOL     OW 2752   2.143   2.673   1.937 -0.2378  0.5344  0.0826
  918SOL    HW1 2753   2.236   2.697   1.944  0.0737  1.5893 -4.4046
  918SOL    HW2 2754   2.143   2.578   1.927  0.8835  0.7159 -2.8839
  919SOL     OW 2755   2.671   3.434   0.376 -0.4922 -0.1916  0.2164
  919SOL    HW1 2756   2.587   3.478   0.361 -1.9052 -3.3029 -2.2869
  919SOL    HW2 2757   2.647   3.351   0.416  1.5904 -0.5631  0.7928
  920SOL     OW 2758   1.319   0.971   1.020 -0.1215  0.2077 -0.0328
  920SOL    HW1 2759   1.269   0.987   1.100 -3.0044  0.7255 -1.8055
  920SOL    HW2 2760   1.357   0.884   1.032  2.1550  1.4356  3.0683
  921SOL     OW 2761   0.636   1.810   0.825 -0.1609  0.0552 -0.7382
  921SOL    HW1 2762   0.580   1.749   0.776 -0.7832  0.7011 -0.8507
  921SOL    HW2 2763   0.608   1.800   0.916  1.5819 -1.7787 -0.3242
  922SOL     OW 2764   0.689   1.662   1.991  0.3880 -0.4409  0.3031
  922SOL    HW1 2765   0.620   1.674   2.056  0.5810  0.7304  0.3027
  922SOL    HW2 2766   0.675   1.731   1.927  1.6352 -0.0969  0.3713
  923SOL     OW 2767   1.069   0.839   0.462  0.1359  0.1036  0.0310
  923SOL    HW1 2768   0.985   0.809   0.497 -0.7194  1.3945 -0.8318
  923SOL    HW2 2769   1.117   0.759   0.442 -1.3094 -0.6777 -0.4302
  924SOL     OW 2770   2.795   1.422   1.574 -0.4551 -0.2738 -0.4213
  924SOL    HW1 2771   2.732   1.425   1.646  0.5560  2.6533  0.4680
  924SOL    HW2 2772   2.795   1.330   1.546 -2.6081 -1.0304  1.7217
  925SOL     OW 2773   2.992   2.115   2.874  0.6973  0.7193 -0.0161
  925SOL    HW1 2774   2.926   2.081   2.813  3.5662 -1.5865 -2.1514
  925SOL    HW2 2775   3.001   2.207   2.851 -1.5765  1.0884  0.2688
  926SOL     OW 2776   1.370   1.832   0.363 -0.2377 -0.5285  0.2957
  926SOL    HW1 2777   1.323   1.879   0.294  1.2979  1.6003  0.5956
  926SOL    HW2 2778   1.457   1.816   0.326 -0.1479 -1.5146  0.8974
  927SOL     OW 2779   2.752   0.945   3.286 -0.2737  0.5368  0.6668
  927SOL    HW1 2780   2.710   1.006   3.226 -1.4854 -0.0796  0.8386
  927SOL    HW2 2781   2.734   0.858   3.249 -0.9608  0.1543  1.8364
  928SOL     OW 2782   2.851   3.705   2.736 -0.3959  0.3388  0.7451
  928SOL    HW1 2783   2.905   3.764   2.683  0.4265  0.3725  1.5933
  928SOL    HW2 2784   2.835   3.630   2.679  0.1531  0.5394  0.3075
  929SOL     OW 2785   0.300   0.828   3.673  0.2227 -0.0349  0.3753
  929SOL    HW1 2786   0.284   0.751   3.618  0.1266 -0.4008  0.8981
  929SOL    HW2 2787   0.380   0.867   3.638  1.0530 -1.1641  0.9437
  930SOL     OW 2788   0.687   2.903   3.406  0.3052  0.8068  0.4368
  930SOL    HW1 2789   0.605   2.855   3.414 -0.0036  1.2129 -0.2341
  930SOL    HW2 2790   0.662   2.988   3.369  1.3739 -0.2467 -3.0829
  931SOL     OW 2791   0.284   3.316   1.790 -0.3683  0.7702 -0.4865
  931SOL    HW1 2792   0.368   3.324   1.744 -0.0351  1.5896  0.2529
  931SOL    HW2 2793   0.225   3.374   1.743 -0.3227  0.7654 -0.5499
  932SOL     OW 2794   0.680   1.161   0.870  0.3022  0.3344 -0.7468
  932SOL    HW1 2795   0.675   1.119   0.956  0.6353 -0.2976 -1.0297
  932SOL    HW2 2796   0.590   1.158   0.837 -0.6068  3.6579  0.9708
  933SOL     OW 2797   0.350   3.971   0.223 -0.3051 -0.0361 -0.0770
  933SOL    HW1 2798   0.395   3.955   0.140 -0.8347 -0.3684 -0.3014
  933SOL    HW2 2799   0.327   4.064   0.221 -0.2779 -0.0348 -0.2819
  934SOL     OW 2800   3.532   3.250   1.419 -0.0212 -0.5478 -0.0504
  934SOL    HW1 2801   3.585   3.215   1.491  1.3529  1.1163 -0.1968
  934SOL    HW2 2802   3.487   3.174   1.384  0.9324 -1.7525  1.1985
  935SOL     OW 2803   1.859   0.625   2.341 -0.8187  0.6711 -0.7850
  935SOL    HW1 2804   1.784   0.676   2.313 -0.9888  0.3696 -0.8860
  935SOL    HW2 2805   1.934   0.665   2.297 -0.7048  1.8880  0.4578
  936SOL     OW 2806   1.981   3.322   3.709  0.8053  0.3570  0.2388
  936SOL    HW1 2807   1.980   3.321   3.613 -1.5692 -2.1043  0.1790
  936SOL    HW2 2808   1.915   3.258   3.734  2.4938 -0.2717  3.5635
  937SOL     OW 2809   2.658   1.794   3.211  0.6656  0.2310  0.7225
  937SOL    HW1 2810   2.695   1.797   3.300  1.1691 -0.8317  0.5592
  937SOL    HW2 2811   2.574   1.749   3.222  1.1788 -0.8017  0.5258
  938SOL     OW 2812   2.397   0.336   3.698  0.4645 -0.5092 -0.0215
  938SOL    HW1 2813   2.324   0.278   3.676 -0.3217 -0.0808  1.3274
  938SOL    HW2 2814   2.395   0.404   3.631  0.1443 -0.9539 -0.4685
  939SOL     OW 2815   2.715   0.429   1.330  0.1628  1.0595 -0.6768
  939SOL    HW1 2816   2.784   0.381   1.376 -1.2851 -1.7677 -1.2412
  939SOL    HW2 2817   2.720   0.398   1.240 -1.3419  1.3320 -0.8840
  940SOL     OW 2818   1.817   0.962   0.559 -0.0346 -0.1628  0.4720
  940SOL    HW1 2819   1.746   0.977   0.496  0.8214 -1.3756 -0.8391
  940SOL    HW2 2820   1.891   1.011   0.522  0.7931 -1.7983 -0.1083
  941SOL     OW 2821   0.590   0.405   0.438  0.5516 -0.5592 -0.0219
  941SOL    HW1 2822   0.582   0.332   0.499  1.2665 -0.4920  0.1558
  941SOL    HW2 2823   0.533   0.473   0.474 -0.4859 -1.1824 -0.4358
  942SOL     OW 2824   0.851   1.386   2.326 -0.1305 -1.3348 -0.7121
  942SOL    HW1 2825   0.905   1.455   2.363  0.0916  0.4926 -4.0591
  942SOL    HW2 2826   0.773   1.384   2.381  0.4026  0.7052  0.2094
  943SOL     OW 2827   3.752   0.224   2.420 -0.8150 -0.2796  0.0742
  943SOL    HW1 2828   3.766   0.166   2.495 -0.2454 -2.9521 -1.9151
  943SOL    HW2 2829   3.818   0.196   2.356 -2.1676  0.8993 -1.9479
  944SOL     OW 2830   1.439   2.083   2.412  0.1244  0.0447 -0.0556
  944SOL    HW1 2831   1.496   2.043   2.346 -2.1068 -1.3237 -1.2830
  944SOL    HW2 2832   1.424   2.013   2.476  1.2421  0.9677  1.2659
  945SOL     OW 2833   1.735   3.155   0.190 -0.2940  0.2236 -0.0222
  945SOL    HW1 2834   1.802   3.118   0.247 -1.0149  1.3545  1.6525
  945SOL    HW2 2835   1.781   3.221   0.138 -0.4298  3.0247  3.0716
  946SOL     OW 2836   2.316   2.082   3.322 -0.1767 -0.2256 -0.2915
  946SOL    HW1 2837   2.393   2.080   3.265 -0.5930  0.6137 -0.9011
  946SOL    HW2 2838   2.265   2.157   3.291 -0.9152 -0.3717  0.5330
  947SOL     OW 2839   2.998   0.810   3.632  0.1578 -0.1465  0.2350
  947SOL    HW1 2840   3.062   0.742   3.649  0.6781  0.4746  0.8209
  947SOL    HW2 2841   3.002   0.867   3.709  2.4859  2.7159 -1.7901
  948SOL     OW 2842   0.718   1.377   1.100 -0.8500  0.1188 -0.8938
  948SOL    HW1 2843   0.679   1.324   1.031 -2.2732 -1.1215  0.7839
  948SOL    HW2 2844   0.646   1.433   1.131 -0.2497  0.6397 -0.4122
  949SOL     OW 2845   2.337   0.008   2.748  0.1486 -0.1782 -0.4253
  949SOL    HW1 2846   2.343  -0.053   2.821  0.8860  1.1455  0.6819
  949SOL    HW2 2847   2.291   0.084   2.784 -0.6710 -0.0290 -1.7345
  950SOL     OW 2848   2.269   3.974   1.785 -0.9449  0.5441 -0.2965
  950SOL    HW1 2849   2.330   3.936   1.722  0.6973  0.7243  1.1278
  950SOL    HW2 2850   2.305   4.060   1.805 -2.7854  1.5117 -0.9130
  951SOL     OW 2851   3.486   2.251   3.483  0.6630  0.2512  0.2341
  951SOL    HW1 2852   3.580   2.246   3.497  0.7697 -0.1026 -0.5346
  951SOL    HW2 2853   3.463   2.167   3.442 -0.5472 -1.0862  3.3483
  952SOL     OW 2854   2.388   1.528   0.353  0.0907 -0.4968 -0.0747
  952SOL    HW1 2855   2.467   1.495   0.395  0.9126  1.9641  0.4213
  952SOL    HW2 2856   2.387   1.484   0.268 -0.0285 -3.3090  1.2530
  953SOL     OW 2857   0.631   1.352   2.737 -0.4372 -0.7073  0.5920
  953SOL    HW1 2858   0.607   1.428   2.790 -0.6184 -0.1208 -0.3107
  953SOL    HW2 2859   0.662   1.389   2.655  0.8741 -1.5542  0.6701
  954SOL     OW 2860   2.843   2.394   1.453 -0.4723  0.5321 -0.7815
  954SOL    HW1 2861   2.770   2.430   1.502  0.5400  0.9968  0.4489
  954SOL    HW2 2862   2.825   2.300   1.447 -1.0932  0.6258 -0.3761
  955SOL     OW 2863   1.819   2.815   2.902 -0.5553 -0.3913 -0.3734
  955SOL    HW1 2864   1.866   2.897   2.917 -2.4770  0.8936 -1.0770
  955SOL    HW2 2865   1.888   2.752   2.882  1.0342  0.8651  0.8266
  956SOL     OW 2866   2.113   0.224   1.812  0.1927  0.6559  0.5004
  956SOL    HW1 2867   2.069   0.223   1.727  0.7032 -1.2162  0.2229
  956SOL    HW2 2868   2.203   0.246   1.793  0.1171  1.1120  0.6645
  957SOL     OW 2869   3.189   3.666   3.546  0.4018 -0.1076 -0.2375
  957SOL    HW1 2870   3.129   3.639   3.477 -0.2613  2.0140 -0.5427
  957SOL    HW2 2871   3.224   3.750   3.517  3.4381 -1.1433  0.0215
  958SOL     OW 2872   1.589   3.295  -0.004 -0.1198  0.3814  0.2282
  958SOL    HW1 2873   1.623   3.343   0.072  2.2065 -0.5185 -0.1470
  958SOL    HW2 2874   1.557   3.213   0.033  0.9734 -0.0387  0.2928
  959SOL     OW 2875   3.284   0.596   1.104  0.0938  0.2541  0.3185
  959SOL    HW1 2876   3.218   0.600   1.173 -2.2616  2.4696 -1.8586
  959SOL    HW2 2877   3.237   0.564   1.027  1.3789  2.3461 -1.4558
  960SOL     OW 2878   1.031   1.877   3.995  0.0387  0.2367 -0.4989
  960SOL    HW1 2879   0.951   1.918   3.963 -1.3162 -2.2012 -0.4824
  960SOL    HW2 2880   1.039   1.796   3.944  0.9857 -0.8989  1.3397
  961SOL     OW 2881   3.723   1.505   0.364 -0.8839 -0.3452  0.5202
  961SOL    HW1 2882   3.746   1.570   0.298 -0.4241  0.2368  1.2303
  961SOL    HW2 2883   3.802   1.452   0.375  0.2242  1.5802  2.8747
  962SOL     OW 2884   2.686   3.677   2.250  0.0078  0.5531 -0.2655
  962SOL    HW1 2885   2.615   3.616   2.232  0.2248 -0.2198  1.3117
  962SOL    HW2 2886   2.761   3.641   2.202 -0.4631  0.9543 -1.3216
  963SOL     OW 2887   0.761   2.011   3.311  0.1416 -0.1504  0.0080
  963SOL    HW1 2888   0.735   1.971   3.228 -2.4705 -1.2903  1.2660
  963SOL    HW2 2889   0.742   2.105   3.300 -1.7648 -0.5153 -0.2086
  964SOL     OW 2890   2.239   2.612   2.953 -0.0352  0.4833  0.4738
  964SOL    HW1 2891   2.302   2.549   2.918 -2.0223  0.1996 -3.0100
  964SOL    HW2 2892   2.213   2.575   3.038 -0.7503 -3.2510 -1.1724
  965SOL     OW 2893   0.947   3.875   2.591 -0.3846 -0.3087 -0.1945
  965SOL    HW1 2894   0.980   3.815   2.658  3.1550  0.0087 -1.4173
  965SOL    HW2 2895   0.884   3.931   2.637 -1.1293 -2.6317  1.8204
  966SOL     OW 2896   1.784   0.577   0.280  0.0108  0.8478 -0.0766
  966SOL    HW1 2897   1.757   0.596   0.369 -3.9076  1.1847 -1.1598
  966SOL    HW2 2898   1.833   0.654   0.252  1.6198  0.5911  1.7529
  967SOL     OW 2899   1.047   1.188   0.911  0.5302 -0.0960  0.2164
  967SOL    HW1 2900   1.003   1.192   0.995 -0.5853  2.8362 -0.3827
  967SOL    HW2 2901   1.057   1.095   0.893  0.8108 -0.8270  3.5337
  968SOL     OW 2902   0.145   1.120   0.933  0.0336 -1.0017  0.0986
  968SOL    HW1 2903   0.057   1.119   0.895 -0.4362  0.2456  1.0812
  968SOL    HW2 2904   0.137   1.177   1.009  2.1265  0.6774 -0.8461
  969SOL     OW 2905   1.202   1.065   3.540  0.1908 -0.6776  0.6446
  969SOL    HW1 2906   1.129   1.063   3.478  0.1561 -3.3548  0.6221
  969SOL    HW2 2907   1.165   1.028   3.620  1.4584 -2.1407  0.6145
  970SOL     OW 2908   2.273   1.674   1.820 -0.1856 -0.3447  0.0730
  970SOL    HW1 2909   2.353   1.703   1.776 -1.2433  1.5394 -0.6861
  970SOL    HW2 2910   2.300   1.658   1.911  0.7798  1.6090  0.1718
  971SOL     OW 2911   0.750   3.394   2.824 -0.5903 -0.1011 -0.1510
  971SOL    HW1 2912   0.737   3.452   2.899  0.8960 -1.5727  1.3262
  971SOL    HW2 2913   0.672   3.407   2.770 -2.6654 -0.3248  2.5778
  972SOL     OW 2914   3.521   2.859   2.328  0.7545  0.8567  0.3259
  972SOL    HW1 2915   3.454   2.867   2.260  1.0461 -3.8511 -0.9212
  972SOL    HW2 2916   3.472   2.847   2.409  0.1162  0.2486 -0.1374
  973SOL     OW 2917   2.258   3.079   2.255  0.0535  0.3030 -0.7775
  973SOL    HW1 2918   2.202   3.020   2.206 -1.7535 -1.4321  2.9296
  973SOL    HW2 2919   2.227   3.167   2.231 -1.2864 -0.4718 -2.0464
  974SOL     OW 2920   2.292   2.874   2.953 -0.1624  0.1675 -0.5050
  974SOL    HW1 2921   2.242   2.916   3.023 -1.2195  0.1352 -1.2358
  974SOL    HW2 2922   2.282   2.780   2.969  0.2528  0.1643 -0.2462
  975SOL     OW 2923   1.777   2.652   3.376 -0.0885  0.1224  0.0425
  975SOL    HW1 2924   1.721   2.727   3.362  0.2885  0.1102 -1.6673
  975SOL    HW2 2925   1.856   2.688   3.416 -0.0959  0.5704 -0.3437
  976SOL     OW 2926   3.560   3.840   1.668 -0.7860 -0.7370 -0.0549
  976SOL    HW1 2927   3.483   3.789   1.694 -0.2241 -0.4367  2.4696
  976SOL    HW2 2928   3.607   3.855   1.750 -0.0381  2.3929 -0.9179
  977SOL     OW 2929   3.722   2.950   1.785 -0.4000 -0.0049  0.1745
  977SOL    HW1 2930   3.724   2.912   1.873  1.6658  1.5954  0.9055
  977SOL    HW2 2931   3.813   2.970   1.766 -0.9549  0.8339 -1.8469
  978SOL     OW 2932   3.858   3.150   0.092  0.2996 -0.3785  0.6148
  978SOL    HW1 2933   3.854   3.056   0.075  2.2016 -0.2148 -1.2244
  978SOL    HW2 2934   3.951   3.171   0.088 -0.1060  1.6354  0.6532
  979SOL     OW 2935   1.761   2.907   1.323 -0.1990 -0.2418 -0.2692
  979SOL    HW1 2936   1.812   2.939   1.248 -0.9192  0.4677 -0.4630
  979SOL    HW2 2937   1.689   2.969   1.331 -0.1097 -0.2940  1.0417
  980SOL     OW 2938   3.191   3.226   2.348 -0.2298  0.6737 -0.5529
  980SOL    HW1 2939   3.240   3.148   2.376 -2.0971 -0.6567 -0.7874
  980SOL    HW2 2940   3.130   3.242   2.419 -0.2842  1.5576 -0.7958
  981SOL     OW 2941   2.105   1.110   1.271  0.6111  0.3227 -0.0118
  981SOL    HW1 2942   2.165   1.066   1.209  0.7146  1.5190 -0.7899
  981SOL    HW2 2943   2.028   1.053   1.273  1.4562 -0.8589  0.4315
  982SOL     OW 2944   0.272   2.774   2.258  0.5014  0.1968 -0.8125
  982SOL    HW1 2945   0.195   2.726   2.227 -0.6562  0.6788  1.1768
  982SOL    HW2 2946   0.240   2.862   2.276  1.1821  0.0860  1.2097
  983SOL     OW 2947   0.929   2.530   0.389 -0.3960 -0.3380  0.2203
  983SOL    HW1 2948   0.926   2.437   0.365 -0.0077 -0.2621 -0.1289
  983SOL    HW2 2949   0.865   2.572   0.331 -1.3588 -0.5424  1.1124
  984SOL     OW 2950   2.855   3.299   0.227  0.3958  0.4658  0.6254
  984SOL    HW1 2951   2.805   3.338   0.299  1.2480 -0.3758  1.7067
  984SOL    HW2 2952   2.945   3.325   0.243  0.8520 -1.1226  0.8505
  985SOL     OW 2953   2.994   1.563   0.593 -0.2757 -0.3631 -0.5379
  985SOL    HW1 2954   2.907   1.552   0.556 -0.9080 -1.1220  1.0813
  985SOL    HW2 2955   2.987   1.529   0.682  2.1114 -2.0103 -0.8969
  986SOL     OW 2956   0.378   1.251   1.192 -0.1053  0.0358 -0.4769
  986SOL    HW1 2957   0.295   1.251   1.239 -0.9626 -0.5924 -1.9185
  986SOL    HW2 2958   0.391   1.343   1.166  0.1317  0.2969  0.5062
  987SOL     OW 2959   1.733   3.634   1.255  0.3723 -0.1791  0.3573
  987SOL    HW1 2960   1.807   3.610   1.311 -0.5331 -0.1370  1.6321
  987SOL    HW2 2961   1.659   3.639   1.315 -1.5825 -4.1994 -1.3870
  988SOL     OW 2962   0.536   3.949   2.162  0.3183  0.1116 -0.2137
  988SOL    HW1 2963   0.529   3.918   2.072  1.1604  1.4196 -0.7644
  988SOL    HW2 2964   0.498   3.879   2.215 -0.1004 -0.7225 -1.5717
  989SOL     OW 2965   1.940   1.958   1.456 -0.0092 -0.5257 -0.2443
  989SOL    HW1 2966   1.993   1.906   1.516 -0.3361 -2.0264 -1.1998
  989SOL    HW2 2967   1.881   2.008   1.512  1.9413  0.7296  0.8223
  990SOL     OW 2968   1.200   1.903   1.156  0.7165 -0.4681 -0.1197
  990SOL    HW1 2969   1.155   1.985   1.176 -1.6683 -1.7938  0.3003
  990SOL    HW2 2970   1.251   1.921   1.077 -0.6992  1.0847 -0.7088
  991SOL     OW 2971   0.664   0.936   3.048 -0.2262 -0.0608 -0.3594
  991SOL    HW1 2972   0.658   0.989   2.969  2.1872 -0.0801 -0.6187
  991SOL    HW2 2973   0.660   0.846   3.017 -2.8481 -0.1149 -0.0568
  992SOL     OW 2974   0.724   1.395   0.042  0.4269 -0.1493  0.9926
  992SOL    HW1 2975   0.716   1.446   0.122 -0.9571  1.5443 -0.1377
  992SOL    HW2 2976   0.783   1.447  -0.013  2.2407 -1.8301  1.2556
  993SOL     OW 2977   1.819   3.259   3.121 -0.4860  0.1041  0.3520
  993SOL    HW1 2978   1.787   3.217   3.201 -0.5687  1.6272  1.1507
  993SOL    HW2 2979   1.740   3.282   3.073 -0.4707 -2.9592 -1.4451
  994SOL     OW 2980   2.097   2.770   3.825  0.6065  0.4138  0.2432
  994SOL    HW1 2981   2.083   2.699   3.887  1.4609  0.6999  0.7780
  994SOL    HW2 2982   2.193   2.780   3.820  0.5713  0.3255 -1.1952
  995SOL     OW 2983   2.741   1.632   0.195  0.1772  0.4725 -0.0978
  995SOL    HW1 2984   2.745   1.555   0.251  0.3071  1.3530  1.1708
  995SOL    HW2 2985   2.727   1.598   0.107  0.5222 -0.9956  0.3869
  996SOL     OW 2986   0.367   1.146   2.266 -0.5346 -0.0318  0.4058
  996SOL    HW1 2987   0.371   1.210   2.195 -0.6327 -1.6537 -1.1315
  996SOL    HW2 2988   0.367   1.199   2.346 -2.4056  1.9484 -0.8044
  997SOL     OW 2989   1.513   3.840   2.464  0.4205 -0.1047  0.3079
  997SOL    HW1 2990   1.435   3.787   2.480  0.2667 -0.4541 -1.4301
  997SOL    HW2 2991   1.585   3.789   2.500  0.0246 -0.4867  0.5619
  998SOL     OW 2992   0.529   0.556   0.705  0.5435  0.0273 -0.2621
  998SOL    HW1 2993   0.542   0.640   0.747 -0.4374 -0.2829  0.7265
  998SOL    HW2 2994   0.608   0.506   0.725 -0.1293 -0.3234  1.8186
  999SOL     OW 2995   2.169   3.774   2.219 -0.0507 -0.7730  0.3216
  999SOL    HW1 2996   2.227   3.771   2.295  0.8501 -2.4674 -0.3774
  999SOL    HW2 2997   2.212   3.834   2.158 -1.9022  2.4150  1.9272
 1000SOL     OW 2998   3.655   3.373   3.221 -0.1296  0.5898  0.0421
 1000SOL    HW1 2999   3.722   3.440   3.205  0.5064 -0.3327 -1.2373
 1000SOL    HW2 3000   3.583   3.422   3.261  0.7787  1.8351  0.2355
 1001SOL     OW 3001   3.328   0.213   0.434  0.0308 -0.2903 -0.4597
 1001SOL    HW1 3002   3.397   0.164   0.478 -0.8012  1.7162  3.6168
 1001SOL    HW2 3003   3.292   0.152   0.370  2.8219 -2.8109  0.1429
 1002SOL     OW 3004   1.086   3.275   0.467 -0.5659  0.5254 -0.3547
 1002SOL    HW1 3005   1.035   3.351   0.494  0.3494  0.6752  1.0600
 1002SOL    HW2 3006   1.045   3.201   0.512 -0.0742  0.5244  0.1017
 1003SOL     OW 3007   3.327   2.943   3.165 -0.0801 -0.2993  0.5350
 1003SOL    HW1 3008   3.414   2.981   3.161 -0.1675  0.1898  2.5494
 1003SOL    HW2 3009   3.322   2.902   3.251 -2.2519  0.7679  0.9873
 1004SOL     OW 3010   0.920   3.686   0.719  0.1936 -0.3271 -0.6190
 1004SOL    HW1 3011   0.846   3.662   0.775 -1.7517  1.6146 -2.1794
 1004SOL    HW2 3012   0.993   3.635   0.753 -1.8727 -2.4704  0.9198
 1005SOL     OW 3013   3.514   2.440   1.437 -0.2914 -0.1455 -0.4364
 1005SOL    HW1 3014   3.515   2.417   1.344 -0.5113 -2.1108  0.0037
 1005SOL    HW2 3015   3.423   2.464   1.455  0.0019  1.4364 -0.9735
 1006SOL     OW 3016   3.359   1.725   0.942 -1.0947  0.0322 -0.0333
 1006SOL    HW1 3017   3.325   1.689   1.024  1.7315  1.1251  1.7953
 1006SOL    HW2 3018   3.390   1.813   0.965  1.1167 -0.1557 -1.8705
 1007SOL     OW 3019   3.952   2.533   1.541  0.4630 -0.0846  0.7826
 1007SOL    HW1 3020   3.889   2.493   1.481 -0.4238 -0.6042  2.0135
 1007SOL    HW2 3021   3.898   2.584   1.601  1.4460  1.6345  0.2695
 1008SOL     OW 3022   2.761   3.728   3.346  0.1900 -0.0987 -0.0526
 1008SOL    HW1 3023   2.782   3.677   3.268  0.6155 -0.2153  0.1357
 1008SOL    HW2 3024   2.733   3.813   3.312  0.3541 -0.1534 -0.3301
 1009SOL     OW 3025   2.624   3.231   2.723 -0.3931 -0.5418  0.3090
 1009SOL    HW1 3026   2.637   3.226   2.628 -0.6276 -0.9595  0.2992
 1009SOL    HW2 3027   2.548   3.175   2.740  0.5190 -1.6198  0.9273
 1010SOL     OW 3028   1.536   2.812   2.011  0.4141 -0.5546  0.4757
 1010SOL    HW1 3029   1.631   2.822   2.004  0.8920 -4.1791  0.1043
 1010SOL    HW2 3030   1.516   2.733   1.961 -2.8312  0.0405  0.6048
 1011SOL     OW 3031   3.769   0.349   1.725 -0.2926 -0.4570 -0.0909
 1011SOL    HW1 3032   3.813   0.270   1.692  1.2183  0.1402  0.3726
 1011SOL    HW2 3033   3.841   0.408   1.747 -0.9457 -1.1581  5.2796
 1012SOL     OW 3034   3.550   1.789   0.761 -0.0071 -0.3331  0.5362
 1012SOL    HW1 3035   3.464   1.766   0.797  1.1557 -2.6629  2.0956
 1012SOL    HW2 3036   3.543   1.769   0.668 -1.8883  2.0836  0.0309
 1013SOL     OW 3037   1.418   1.142   2.951 -0.1096  0.5815 -0.4044
 1013SOL    HW1 3038   1.501   1.186   2.930 -0.7043  0.8396 -2.4344
 1013SOL    HW2 3039   1.357   1.174   2.885 -1.9759  0.6954  1.2727
 1014SOL     OW 3040   3.103   3.864   1.994 -0.7143  0.2017 -0.0692
 1014SOL    HW1 3041   3.175   3.827   1.943  0.5975 -0.4812  2.1205
 1014SOL    HW2 3042   3.137   3.866   2.084 -1.8676  3.8684  0.4458
 1015SOL     OW 3043   2.496   0.569   1.095  0.0840 -0.8535 -0.4162
 1015SOL    HW1 3044   2.490   0.537   1.185  0.6918 -0.1831 -0.1297
 1015SOL    HW2 3045   2.563   0.638   1.098 -3.1360  2.6375 -0.3208
 1016SOL     OW 3046   1.584   2.251   1.285  0.5767 -0.3778  0.6819
 1016SOL    HW1 3047   1.595   2.156   1.278  0.6343 -0.4634  1.7147
 1016SOL    HW2 3048   1.655   2.279   1.342  0.8791  0.3712 -0.0529
 1017SOL     OW 3049   3.817   0.803   3.684  0.3383  0.0604 -0.5415
 1017SOL    HW1 3050   3.722   0.792   3.691  0.5938 -1.3826  3.8117
 1017SOL    HW2 3051   3.850   0.714   3.669  1.0612  0.1775  0.2945
 1018SOL     OW 3052   2.193   2.859   0.276  0.2663  0.7244  0.2690
 1018SOL    HW1 3053   2.109   2.883   0.236  1.1864  0.7931 -1.7577
 1018SOL    HW2 3054   2.246   2.826   0.203  1.5211 -0.7142  1.7448
 1019SOL     OW 3055   3.012   2.095   0.744  0.0771  0.3130 -0.3971
 1019SOL    HW1 3056   2.929   2.143   0.751 -1.1078 -1.6110 -0.6025
 1019SOL    HW2 3057   3.048   2.098   0.833 -0.0901  1.3329 -0.3473
 1020SOL     OW 3058   1.062   0.932   2.672 -0.2016 -0.3835 -0.2581
 1020SOL    HW1 3059   1.065   0.863   2.606  1.8903 -0.1358 -0.4715
 1020SOL    HW2 3060   1.062   1.014   2.622 -0.1100 -0.2021  0.0361
 1021SOL     OW 3061   3.181   2.589   0.488 -0.7390 -0.1946  0.0213
 1021SOL    HW1 3062   3.195   2.578   0.393  1.5032 -0.3609  0.3110
 1021SOL    HW2 3063   3.173   2.499   0.521 -2.1175 -0.1177 -0.0579
 1022SOL     OW 3064   3.239   1.631   2.322  0.3173 -0.1810 -1.1880
 1022SOL    HW1 3065   3.301   1.704   2.318 -0.5378  0.6770  0.2903
 1022SOL    HW2 3066   3.172   1.661   2.383  0.0970 -2.3367 -0.3046
 1023SOL     OW 3067   2.588   0.075   0.467  0.4010  0.1721 -1.1323
 1023SOL    HW1 3068   2.587  -0.005   0.414 -0.6568  0.1399 -1.0901
 1023SOL    HW2 3069   2.542   0.140   0.413  0.1537  0.3994 -0.6548
 1024SOL     OW 3070   1.303   1.326   2.088  0.4976 -0.0367 -0.0149
 1024SOL    HW1 3071   1.362   1.256   2.116  1.1929  1.2946  2.1986
 1024SOL    HW2 3072   1.221   1.308   2.134  0.6827  0.5540  0.5747
 1025SOL     OW 3073   1.948   0.560   2.848 -0.1930 -0.0555 -0.1092
 1025SOL    HW1 3074   1.921   0.640   2.893 -1.1333  0.7118 -1.9048
 1025SOL    HW2 3075   1.975   0.500   2.918 -2.6873  0.6009  1.5630
 1026SOL     OW 3076   1.525   3.171   1.459 -0.2827  0.1846 -0.0465
 1026SOL    HW1 3077   1.497   3.134   1.376  0.9662 -1.5245  0.2383
 1026SOL    HW2 3078   1.454   3.151   1.520 -0.6365  0.3276 -0.4108
 1027SOL     OW 3079   1.342   3.766   0.832  0.0231 -0.4900  0.4069
 1027SOL    HW1 3080   1.423   3.718   0.850 -0.2146 -1.5734 -1.2130
 1027SOL    HW2 3081   1.272   3.702   0.846 -0.4138 -0.1537 -0.1516
 1028SOL     OW 3082   2.726   3.960   2.836  0.6062  0.1969 -0.4039
 1028SOL    HW1 3083   2.746   3.866   2.834 -1.3407 -0.2545 -0.7821
 1028SOL    HW2 3084   2.632   3.964   2.853  0.3802  2.0544 -1.7883
 1029SOL     OW 3085   2.664   3.748   4.011  0.0926 -0.5810 -0.6932
 1029SOL    HW1 3086   2.759   3.737   4.017  0.2679  0.4744 -1.2393
 1029SOL    HW2 3087   2.634   3.672   3.962  0.9763  0.2153 -2.5884
 1030SOL     OW 3088   1.233   2.791   3.852 -0.1912  1.1048  0.1069
 1030SOL    HW1 3089   1.284   2.843   3.914  1.5138 -0.9870  0.5870
 1030SOL    HW2 3090   1.234   2.702   3.889 -0.9092  0.2187 -1.8502
 1031SOL     OW 3091   0.703   2.581   1.394 -0.4413 -0.8196  0.6627
 1031SOL    HW1 3092   0.720   2.670   1.365 -0.7231 -1.1202 -0.4518
 1031SOL    HW2 3093   0.780   2.558   1.446  0.8370 -0.8021 -1.1336
 1032SOL     OW 3094   3.927   2.908   1.201 -0.7163 -0.4943  0.5575
 1032SOL    HW1 3095   4.001   2.848   1.194 -1.3946 -1.3206  0.2136
 1032SOL    HW2 3096   3.953   2.985   1.151  0.2584 -0.3973  1.1818
 1033SOL     OW 3097   0.671   3.790   3.073 -0.8051 -0.7008 -0.3379
 1033SOL    HW1 3098   0.607   3.815   3.006  0.2368 -1.4394 -1.6574
 1033SOL    HW2 3099   0.622   3.732   3.132 -1.2606 -1.6374 -1.5955
 1034SOL     OW 3100   3.620   1.831   1.600 -0.0743  0.5253 -0.2557
 1034SOL    HW1 3101   3.548   1.868   1.652  0.6475 -0.1683  1.3228
 1034SOL    HW2 3102   3.576   1.782   1.530 -1.2424 -0.9021  1.3760
 1035SOL     OW 3103   3.508   2.961   3.401 -0.0748  0.1522 -0.1632
 1035SOL    HW1 3104   3.581   2.920   3.449 -0.4064 -0.4314 -0.1559
 1035SOL    HW2 3105   3.524   3.055   3.411  0.8850  0.0327 -0.4790
 1036SOL     OW 3106   4.006   3.005   1.930 -0.5462  0.1344  0.4227
 1036SOL    HW1 3107   3.986   3.073   1.994  2.8494  0.0052  1.8242
 1036SOL    HW2 3108   4.007   2.924   1.981 -3.1364 -0.8821 -0.9577
 1037SOL     OW 3109   3.261   3.687   2.944 -0.5148 -0.1870 -0.6862
 1037SOL    HW1 3110   3.174   3.662   2.975 -0.8524 -0.4363 -1.7963
 1037SOL    HW2 3111   3.307   3.604   2.931 -1.1288 -0.2322 -2.9317
 1038SOL     OW 3112   2.760   3.395   2.015  0.4441  0.7425  0.4515
 1038SOL    HW1 3113   2.771   3.381   2.109 -1.4386  3.7161  1.2739
 1038SOL    HW2 3114   2.797   3.482   1.999 -0.1598  0.7141 -1.3621
 1039SOL     OW 3115   1.812   3.605   0.730 -0.2822 -1.1226 -0.3190
 1039SOL    HW1 3116   1.890   3.651   0.700 -0.2303 -0.0321  1.3177
 1039SOL    HW2 3117   1.754   3.602   0.654  0.2904  0.4513 -0.8569
 1040SOL     OW 3118   0.551   2.395   0.781  0.4015  0.3293  1.1540
 1040SOL    HW1 3119   0.460   2.425   0.783  0.7002  1.2638  1.4552
 1040SOL    HW2 3120   0.556   2.330   0.851 -0.8159 -2.2201 -0.9542
 1041SOL     OW 3121   0.815   2.031   3.906 -0.2676 -0.2027 -0.1208
 1041SOL    HW1 3122   0.790   2.114   3.948 -0.7018  0.8092 -2.2641
 1041SOL    HW2 3123   0.758   2.025   3.830  0.8352 -1.7250 -0.8696
 1042SOL     OW 3124   3.149   0.410   3.876  0.0833 -0.2427 -0.8731
 1042SOL    HW1 3125   3.118   0.500   3.881 -0.8351 -0.5968  0.6390
 1042SOL    HW2 3126   3.206   0.400   3.953 -1.4264 -1.4740  0.1549
 1043SOL     OW 3127   3.001   0.534   2.073 -0.3410 -1.0102  0.2471
 1043SOL    HW1 3128   2.960   0.473   2.011  0.2287 -0.9304 -0.2262
 1043SOL    HW2 3129   3.023   0.481   2.149 -0.5842 -1.2230  0.1675
 1044SOL     OW 3130   1.842   1.064   1.393 -1.3913 -0.2650 -0.0368
 1044SOL    HW1 3131   1.773   1.023   1.444 -2.3074  0.6742 -0.4794
 1044SOL    HW2 3132   1.878   0.993   1.338 -1.6370 -0.8674  0.5758
 1045SOL     OW 3133   3.033   3.828   0.395 -0.4697 -0.1594 -0.0271
 1045SOL    HW1 3134   2.994   3.857   0.313  0.5262  1.4821  0.0398
 1045SOL    HW2 3135   2.974   3.860   0.463  1.0940  2.7593  0.1022
 1046SOL     OW 3136   1.962   3.020   0.877 -0.1521  0.2673  0.0176
 1046SOL    HW1 3137   2.001   2.944   0.921  1.5769  0.7612 -0.5839
 1046SOL    HW2 3138   1.938   3.079   0.948 -0.9425 -0.5460  0.4596
 1047SOL     OW 3139   1.026   0.096   1.710 -0.3881 -0.6457 -0.4076
 1047SOL    HW1 3140   0.984   0.093   1.624 -1.1604 -0.8855 -0.0351
 1047SOL    HW2 3141   1.116   0.069   1.695 -0.1717  0.5323 -1.3434
 1048SOL     OW 3142   0.781   3.413   2.122  0.6599 -0.4746  0.1112
 1048SOL    HW1 3143   0.848   3.409   2.191  1.0302 -1.8789 -0.3060
 1048SOL    HW2 3144   0.699   3.404   2.170  0.8808 -0.8963  0.4164
 1049SOL     OW 3145   1.284   3.387   3.485 -0.3198 -0.4456  0.3006
 1049SOL    HW1 3146   1.192   3.409   3.472  0.0901  1.2431  0.1145
 1049SOL    HW2 3147   1.318   3.368   3.397 -0.1995  0.1593  0.2129
 1050SOL     OW 3148   2.529   0.265   2.710  0.2263 -0.1330  0.3274
 1050SOL    HW1 3149   2.511   0.175   2.682  0.2619 -0.6807  1.9809
 1050SOL    HW2 3150   2.542   0.313   2.628  0.4588 -1.6826 -0.5821
 1051SOL     OW 3151   3.014   3.313   3.077 -0.4524 -0.4578 -0.2696
 1051SOL    HW1 3152   3.000   3.393   3.025 -0.1385 -0.5225 -0.4563
 1051SOL    HW2 3153   3.036   3.246   3.012  3.9474  0.3170  0.1399
 1052SOL     OW 3154   2.259   2.083   2.548  0.6121 -0.1944  0.1753
 1052SOL    HW1 3155   2.204   2.132   2.610  1.7020 -1.2759  2.1054
 1052SOL    HW2 3156   2.348   2.106   2.572  1.1037  1.0732 -2.5295
 1053SOL     OW 3157   0.384   1.991   0.749  0.0580 -0.5281 -0.1225
 1053SOL    HW1 3158   0.479   1.984   0.734  0.1901 -1.5456  0.9970
 1053SOL    HW2 3159   0.347   1.914   0.705 -0.5517  1.0649 -2.5323
 1054SOL     OW 3160   3.015   1.027   0.676 -0.4875 -0.1135 -0.4754
 1054SOL    HW1 3161   3.006   1.021   0.581 -1.2172  1.1547 -0.5083
 1054SOL    HW2 3162   2.952   0.963   0.709 -1.5728  0.7112 -0.8554
 1055SOL     OW 3163   1.625   2.844   3.578 -0.1359 -0.5176 -0.7668
 1055SOL    HW1 3164   1.649   2.752   3.566  0.0337 -0.3467 -1.8900
 1055SOL    HW2 3165   1.625   2.857   3.673  2.4660 -1.0170 -0.6026
 1056SOL     OW 3166   1.392   2.281   3.147  0.0382 -0.1996  0.5331
 1056SOL    HW1 3167   1.438   2.312   3.226  2.1214 -1.1039 -0.2525
 1056SOL    HW2 3168   1.381   2.187   3.161 -1.6041 -0.0287  0.6599
 1057SOL     OW 3169   1.447   2.432   2.877  0.1674 -0.3822 -0.7108
 1057SOL    HW1 3170   1.489   2.499   2.931 -2.0374 -1.4571  2.6376
 1057SOL    HW2 3171   1.362   2.470   2.854 -1.3738 -2.0512  1.7479
 1058SOL     OW 3172   2.358   2.300   3.031  0.1738  0.0000  0.3902
 1058SOL    HW1 3173   2.418   2.225   3.032  1.0661  0.6215 -1.4339
 1058SOL    HW2 3174   2.290   2.276   2.968 -0.7203 -0.1176  1.3873
 1059SOL     OW 3175   1.060   0.149   2.414 -0.2716 -1.1341  0.5058
 1059SOL    HW1 3176   1.062   0.232   2.367 -0.2448 -1.2265  0.3425
 1059SOL    HW2 3177   1.017   0.169   2.496  0.8941 -0.6591  1.0291
 1060SOL     OW 3178   1.315   3.370   2.960  0.3133 -1.3524  0.5836
 1060SOL    HW1 3179   1.323   3.319   3.040  0.7829  1.3034  2.3732
 1060SOL    HW2 3180   1.230   3.347   2.925  0.1870 -2.7447  1.7232
 1061SOL     OW 3181   1.803   0.511   3.754  0.7135  0.5373 -0.0944
 1061SOL    HW1 3182   1.793   0.447   3.824 -1.8114  0.4891 -0.4249
 1061SOL    HW2 3183   1.795   0.596   3.798  0.6370  0.5388 -0.1107
 1062SOL     OW 3184   0.349   1.861   2.396 -0.2023 -0.0722 -0.4442
 1062SOL    HW1 3185   0.324   1.952   2.385 -1.0521 -0.0286  1.4193
 1062SOL    HW2 3186   0.427   1.863   2.451  0.7145 -0.4489 -1.6679
 1063SOL     OW 3187   0.938   1.315   2.664 -0.9992  0.8147 -0.4059
 1063SOL    HW1 3188   0.935   1.270   2.749  1.3334  2.8925  0.9083
 1063SOL    HW2 3189   0.869   1.382   2.670  0.0212  1.8416  0.4874
 1064SOL     OW 3190   1.305   2.377   2.474 -0.2118  0.4252  0.0555
 1064SOL    HW1 3191   1.259   2.293   2.481  1.9736 -0.7400  1.9826
 1064SOL    HW2 3192   1.269   2.430   2.545  1.4092 -0.5826  1.7362
 1065SOL     OW 3193   3.658   2.970   3.863  0.0138 -0.3990  0.1686
 1065SOL    HW1 3194   3.596   2.962   3.790  0.0174  3.6324 -0.4865
 1065SOL    HW2 3195   3.744   2.975   3.821  0.2676 -0.5048  0.6704
 1066SOL     OW 3196   1.103   2.111   3.197 -0.2524  0.0186  0.8831
 1066SOL    HW1 3197   1.050   2.032   3.190  0.7631 -0.6053 -0.0146
 1066SOL    HW2 3198   1.072   2.166   3.124  0.6488 -0.5555  0.0480
 1067SOL     OW 3199   3.040   0.228   0.230 -0.0106 -0.4100 -0.2887
 1067SOL    HW1 3200   2.984   0.178   0.171 -1.9309  0.3693  0.7739
 1067SOL    HW2 3201   3.055   0.171   0.305  1.1457 -0.8258 -0.8093
 1068SOL     OW 3202   0.200   1.786   3.723  0.3098 -0.3410  0.0194
 1068SOL    HW1 3203   0.268   1.741   3.774 -1.1629 -2.2599  0.3982
 1068SOL    HW2 3204   0.151   1.837   3.788 -0.2650 -1.1181  0.2102
 1069SOL     OW 3205   1.233   1.569   1.454 -0.0857 -0.1515 -0.6431
 1069SOL    HW1 3206   1.328   1.557   1.458 -0.0296 -0.3868 -2.0437
 1069SOL    HW2 3207   1.220   1.663   1.467  0.3088 -0.1691 -0.1095
 1070SOL     OW 3208   0.566   2.995   0.824  1.2632 -0.0562 -0.4962
 1070SOL    HW1 3209   0.558   3.021   0.733 -0.3705  0.0970 -0.3359
 1070SOL    HW2 3210   0.554   3.076   0.873  1.7598 -0.2000 -0.1253
 1071SOL     OW 3211   1.579   3.363   3.370 -0.6119  0.2907 -0.2303
 1071SOL    HW1 3212   1.645   3.294   3.374 -1.1094 -0.2825 -1.4906
 1071SOL    HW2 3213   1.629   3.443   3.352  0.0705  0.4827  2.1239
 1072SOL     OW 3214   3.155   1.426   1.786 -0.1124  0.7651 -0.1737
 1072SOL    HW1 3215   3.204   1.364   1.840 -2.0605 -0.4351  0.2973
 1072SOL    HW2 3216   3.166   1.393   1.697  0.5272  0.9269 -0.1585
 1073SOL     OW 3217   3.346   1.972   3.231  0.3462 -0.5294 -0.0084
 1073SOL    HW1 3218   3.414   2.011   3.285  0.7808 -1.9509  0.5208
 1073SOL    HW2 3219   3.315   1.897   3.281 -0.8459 -0.5569 -0.7360
 1074SOL     OW 3220   1.004   1.681   1.624  0.0860  0.2097 -0.1753
 1074SOL    HW1 3221   1.060   1.715   1.693 -1.4263  1.7993  0.3455
 1074SOL    HW2 3222   1.028   1.732   1.547 -0.4429  0.7151 -0.0126
 1075SOL     OW 3223   3.000   1.972   3.452  0.4790 -0.0642 -0.1733
 1075SOL    HW1 3224   3.018   2.065   3.467  2.3696 -0.0619 -2.0833
 1075SOL    HW2 3225   3.041   1.952   3.368  2.7717 -3.3533  1.5213
 1076SOL     OW 3226   2.035   2.287   3.256  0.1132 -0.4558 -0.3446
 1076SOL    HW1 3227   1.994   2.296   3.342 -0.9520 -0.8552 -0.8032
 1076SOL    HW2 3228   2.049   2.193   3.245  1.8329 -0.2966  0.0951
 1077SOL     OW 3229   3.274   1.746   1.782 -0.6232  0.1586 -0.1976
 1077SOL    HW1 3230   3.230   1.761   1.866  1.0031 -0.1335  0.7520
 1077SOL    HW2 3231   3.289   1.651   1.779 -1.2976  0.0670 -1.1655
 1078SOL     OW 3232   2.929   2.634   0.114  0.9234  0.1124  0.1013
 1078SOL    HW1 3233   2.922   2.720   0.156 -1.7126  0.2233 -0.4262
 1078SOL    HW2 3234   2.968   2.653   0.029 -1.4014  1.1732 -0.8179
 1079SOL     OW 3235   0.038   1.032   1.536 -0.8186  0.6203  0.2238
 1079SOL    HW1 3236  -0.008   0.953   1.508 -0.1735 -0.0778  1.0890
 1079SOL    HW2 3237   0.108   1.000   1.594  0.2769  1.7075 -0.4496
 1080SOL     OW 3238   2.406   3.054   2.733 -0.0595 -0.1567  0.4611
 1080SOL    HW1 3239   2.365   3.037   2.817 -0.7294 -0.1522  0.1379
 1080SOL    HW2 3240   2.352   3.008   2.669  0.8949 -0.8171  0.1116
 1081SOL     OW 3241   2.563   2.006   3.621 -0.6032 -0.0954 -0.0320
 1081SOL    HW1 3242   2.616   2.059   3.562  2.4944 -2.8220 -0.0244
 1081SOL    HW2 3243   2.574   2.047   3.707  0.9113 -0.1062 -0.1877
 1082SOL     OW 3244   1.494   1.904   2.885  0.1878  0.0113  0.2365
 1082SOL    HW1 3245   1.507   1.818   2.924 -1.1333  0.6552  2.2017
 1082SOL    HW2 3246   1.572   1.918   2.832  0.7833 -2.0550  0.4959
 1083SOL     OW 3247   1.298   2.623   2.002 -0.9289 -0.5445 -0.6489
 1083SOL    HW1 3248   1.322   2.564   2.073  3.1394 -0.8440 -2.0251
 1083SOL    HW2 3249   1.311   2.711   2.038  2.3212 -0.6986 -1.2061
 1084SOL     OW 3250   3.987   3.991   3.889  0.9372  0.0157  0.6995
 1084SOL    HW1 3251   3.958   3.922   3.829  3.0778 -1.0661  0.8067
 1084SOL    HW2 3252   4.018   4.061   3.831  0.3862  0.1699  0.5823
 1085SOL     OW 3253   3.244   1.706   0.676  0.9582  0.4482  0.3821
 1085SOL    HW1 3254   3.178   1.647   0.639  1.8174  0.0395 -0.5456
 1085SOL    HW2 3255   3.246   1.684   0.769  1.9531 -1.7060 -0.0965
 1086SOL     OW 3256   1.260   3.713   3.113  0.2560  0.1233  0.0980
 1086SOL    HW1 3257   1.174   3.716   3.072 -0.5701 -0.0087  1.7239
 1086SOL    HW2 3258   1.311   3.779   3.067  0.4203 -2.0650 -3.2238
 1087SOL     OW 3259   2.020   0.767   0.657 -0.3218  0.0788 -0.0635
 1087SOL    HW1 3260   1.977   0.852   0.648 -1.2827 -0.5266 -1.5316
 1087SOL    HW2 3261   2.105   0.778   0.615  0.9969  1.1972  2.5985
 1088SOL     OW 3262   0.884   3.160   1.365 -0.0171 -0.4135  0.7476
 1088SOL    HW1 3263   0.861   3.163   1.458  1.7437 -2.5038  1.3513
 1088SOL    HW2 3264   0.976   3.189   1.363 -0.4789  1.0932 -0.5969
 1089SOL     OW 3265   0.980   0.492   3.616  0.2344 -0.4969 -0.3254
 1089SOL    HW1 3266   0.890   0.492   3.582  0.4538 -1.5362 -0.9513
 1089SOL    HW2 3267   0.985   0.411   3.668  0.7126 -0.2790 -0.0327
 1090SOL     OW 3268   1.035   1.747   3.229  0.5265 -0.3691 -0.1841
 1090SOL    HW1 3269   1.066   1.670   3.181 -0.3292 -1.0813  0.3788
 1090SOL    HW2 3270   1.048   1.725   3.321 -1.9926 -0.9002  0.1121
 1091SOL     OW 3271   3.966   0.054   2.308 -0.8207 -0.4536 -0.2693
 1091SOL    HW1 3272   3.985  -0.036   2.334  0.9122  0.1290  0.5888
 1091SOL    HW2 3273   4.049   0.088   2.274 -0.9175  1.4140  1.2179
 1092SOL     OW 3274   3.689   0.793   2.229  0.1436  0.2647 -0.1593
 1092SOL    HW1 3275   3.615   0.829   2.278 -0.2233 -0.5125 -0.1309
 1092SOL    HW2 3276   3.650   0.761   2.147  0.6012  0.6800 -0.5525
 1093SOL     OW 3277   2.112   1.708   2.371 -0.2257  0.5736  0.0349
 1093SOL    HW1 3278   2.036   1.649   2.363  1.6348 -2.0181  0.1031
 1093SOL    HW2 3279   2.116   1.754   2.287 -0.9989 -0.3849 -0.5549
 1094SOL     OW 3280   1.444   0.637   2.093  0.2510 -0.3227  0.2121
 1094SOL    HW1 3281   1.350   0.626   2.109  0.5887 -2.6168  1.0102
 1094SOL    HW2 3282   1.485   0.563   2.138  2.3971  0.1966 -0.7514
 1095SOL     OW 3283   0.421   3.133   3.147  0.6851  0.7538 -0.6407
 1095SOL    HW1 3284   0.505   3.088   3.136  0.8996  1.4547 -2.0977
 1095SOL    HW2 3285   0.417   3.194   3.074 -1.0165  0.8823 -0.4736
 1096SOL     OW 3286   0.068   2.843   2.566 -1.0000 -0.1848 -0.1874
 1096SOL    HW1 3287   0.134   2.775   2.549  0.3103  1.3005 -1.3130
 1096SOL    HW2 3288   0.075   2.860   2.659  1.9511  1.5349 -0.5793
 1097SOL     OW 3289   1.604   0.424   2.640  0.5187 -0.2985  0.2177
 1097SOL    HW1 3290   1.655   0.397   2.563 -0.7060 -0.2984 -0.6259
 1097SOL    HW2 3291   1.560   0.504   2.612 -0.1269 -0.4275  0.8461
 1098SOL     OW 3292   1.989   2.584   2.865 -0.2157  0.2565 -0.4670
 1098SOL    HW1 3293   1.956   2.497   2.889 -0.9118  0.1757 -1.6505
 1098SOL    HW2 3294   2.075   2.589   2.906 -0.5040 -0.6624  0.3005
 1099SOL     OW 3295   3.286   3.802   0.635  0.5708  0.3533  0.3201
 1099SOL    HW1 3296   3.249   3.848   0.559 -2.0901 -0.9660  0.6679
 1099SOL    HW2 3297   3.370   3.768   0.604  0.2705  1.1545 -1.5247
 1100SOL     OW 3298   0.264   2.230   3.723 -0.0825  0.2627  0.2419
 1100SOL    HW1 3299   0.185   2.267   3.685 -0.9385 -1.6275  0.0813
 1100SOL    HW2 3300   0.300   2.175   3.653  0.4759 -0.1843  0.8741
 1101SOL     OW 3301   0.089   0.303   1.509  0.3237 -0.3916 -0.7570
 1101SOL    HW1 3302   0.064   0.350   1.588  0.9572  1.1610 -1.4459
 1101SOL    HW2 3303   0.179   0.273   1.526 -0.9746 -3.9836  0.8106
 1102SOL     OW 3304   3.599   1.805   3.124  0.2721  0.4271 -0.3945
 1102SOL    HW1 3305   3.513   1.841   3.144  0.0974 -0.7066  0.9743
 1102SOL    HW2 3306   3.600   1.719   3.164  1.6617 -0.0305 -1.3214
 1103SOL     OW 3307   1.483   2.207   2.732 -0.3521 -0.7095 -0.6768
 1103SOL    HW1 3308   1.403   2.154   2.733  0.2043 -1.5693 -0.6042
 1103SOL    HW2 3309   1.478   2.259   2.812  0.8270 -3.3533  1.2571
 1104SOL     OW 3310   3.623   2.303   1.972 -0.6993 -0.3353  0.4866
 1104SOL    HW1 3311   3.616   2.315   1.877 -1.0670  1.5556  0.7232
 1104SOL    HW2 3312   3.585   2.217   1.988  1.7645 -1.9027 -1.3592
 1105SOL     OW 3313   2.826   0.644   3.236  0.3645  0.0938 -0.4739
 1105SOL    HW1 3314   2.746   0.616   3.192  0.3503 -0.9443  0.1749
 1105SOL    HW2 3315   2.827   0.596   3.318  0.8475  1.3243  0.2698
 1106SOL     OW 3316   2.971   1.138   1.988 -0.2603  0.5238  0.1921
 1106SOL    HW1 3317   3.017   1.055   1.993 -2.9663 -1.0735  0.9776
 1106SOL    HW2 3318   2.990   1.171   1.900  0.8968 -0.9215 -0.1403
 1107SOL     OW 3319  -0.019   0.522   1.391  0.0623  0.3634  0.1898
 1107SOL    HW1 3320   0.024   0.466   1.455 -0.4314  1.6995  1.7388
 1107SOL    HW2 3321   0.052   0.567   1.345  0.6503 -3.1138 -2.7835
 1108SOL     OW 3322   2.457   0.814   0.083  0.5003  0.3408  0.0587
 1108SOL    HW1 3323   2.365   0.803   0.060  0.4859  1.3866 -0.4517
 1108SOL    HW2 3324   2.503   0.815  -0.001  0.8517  0.8307  0.2519
 1109SOL     OW 3325   3.468   3.180   1.826 -0.1703  0.0718 -0.4029
 1109SOL    HW1 3326   3.505   3.259   1.786 -2.6589  2.5785  1.8808
 1109SOL    HW2 3327   3.521   3.166   1.904 -0.3119  0.0285 -0.3149
 1110SOL     OW 3328   3.721   3.248   3.646 -1.0106 -0.4584 -0.5809
 1110SOL    HW1 3329   3.779   3.219   3.575  0.7476 -1.5538  1.2034
 1110SOL    HW2 3330   3.636   3.208   3.625 -1.3610  1.5078 -3.4654
 1111SOL     OW 3331   0.151   0.773   0.263 -0.3724 -0.1854  0.3857
 1111SOL    HW1 3332   0.169   0.811   0.349  0.1015 -1.5604  0.9202
 1111SOL    HW2 3333   0.238   0.761   0.224 -0.5429 -0.2948  0.0383
 1112SOL     OW 3334   3.345   1.230   2.247  0.4638  0.2411 -0.5075
 1112SOL    HW1 3335   3.363   1.167   2.177  3.1880 -0.7644  0.9458
 1112SOL    HW2 3336   3.422   1.286   2.249 -0.8101  2.0815 -0.0900
 1113SOL     OW 3337   3.358   3.257   3.906  0.7400  0.2998 -0.1721
 1113SOL    HW1 3338   3.453   3.269   3.905  0.8163 -0.1905  0.5782
 1113SOL    HW2 3339   3.333   3.270   3.997 -0.0270  1.2131 -0.5029
 1114SOL     OW 3340   1.506   0.210   2.996  0.6236 -0.0974  0.0519
 1114SOL    HW1 3341   1.574   0.248   2.940  0.0186  0.2868 -0.4339
 1114SOL    HW2 3342   1.455   0.285   3.027  0.0737 -0.4183 -0.0560
 1115SOL     OW 3343   0.612   2.154   0.925 -0.1415  0.3965 -0.4515
 1115SOL    HW1 3344   0.645   2.066   0.945  0.1210  0.6604  0.2809
 1115SOL    HW2 3345   0.648   2.173   0.838  3.6863  1.5726  1.1646
 1116SOL     OW 3346   2.574   2.099   1.482  0.1149  0.4477 -0.1183
 1116SOL    HW1 3347   2.515   2.068   1.413 -0.0804  1.3247 -0.3588
 1116SOL    HW2 3348   2.661   2.096   1.443  0.0465  0.6179 -0.2803
 1117SOL     OW 3349   1.025   2.442   1.309  0.3845  0.2395  0.0040
 1117SOL    HW1 3350   0.986   2.496   1.240 -0.7644 -1.4361 -0.7356
 1117SOL    HW2 3351   0.973   2.361   1.307  0.7726 -0.1215  2.3820
 1118SOL     OW 3352   1.913   1.308   1.518  0.1835 -0.5662  0.2504
 1118SOL    HW1 3353   1.897   1.227   1.469  1.1089 -0.1521 -0.7764
 1118SOL    HW2 3354   1.939   1.278   1.605  3.0824 -1.5389 -0.8243
 1119SOL     OW 3355   3.467   1.449   2.592 -0.2040  0.2682 -0.4822
 1119SOL    HW1 3356   3.400   1.389   2.558 -0.9884  1.1013 -0.4418
 1119SOL    HW2 3357   3.507   1.401   2.665  0.1083 -0.7305 -1.2982
 1120SOL     OW 3358   3.662   1.722   0.201 -0.0144  0.1282 -0.2538
 1120SOL    HW1 3359   3.644   1.643   0.151  0.2402  0.3877 -0.7654
 1120SOL    HW2 3360   3.575   1.756   0.224 -0.1151 -0.5609  0.3994
 1121SOL     OW 3361   3.946   3.569   3.624  0.2878  0.1217 -0.8097
 1121SOL    HW1 3362   3.945   3.541   3.533  0.8474 -0.4902 -0.6333
 1121SOL    HW2 3363   3.989   3.498   3.671  1.9721  1.3655 -0.3687
 1122SOL     OW 3364   2.140   2.579   3.202  0.1630 -0.0153 -0.6804
 1122SOL    HW1 3365   2.109   2.515   3.266  1.6586  0.7269  0.8753
 1122SOL    HW2 3366   2.131   2.663   3.248 -0.6827  0.7974 -2.2493
 1123SOL     OW 3367   1.633   3.668   3.528 -0.2376 -0.6744  0.3493
 1123SOL    HW1 3368   1.540   3.692   3.524 -0.4104 -1.3972 -0.3026
 1123SOL    HW2 3369   1.656   3.649   3.438  0.3402 -1.2581  0.6153
 1124SOL     OW 3370   0.236   2.818   1.479  0.2939  0.0685  0.3969
 1124SOL    HW1 3371   0.265   2.791   1.392 -0.1684 -0.0882  0.2877
 1124SOL    HW2 3372   0.306   2.790   1.538  0.3518 -0.3294  0.1416
 1125SOL     OW 3373   3.118   2.460   0.238  0.3972  0.0096  0.5345
 1125SOL    HW1 3374   3.063   2.401   0.289  0.5039 -2.6764 -2.1528
 1125SOL    HW2 3375   3.056   2.516   0.191  0.2850  4.1014  4.8646
 1126SOL     OW 3376   0.226   2.775   0.513 -0.4809 -0.2670  0.1290
 1126SOL    HW1 3377   0.159   2.712   0.541 -0.2324 -0.6539 -0.1413
 1126SOL    HW2 3378   0.245   2.827   0.591 -0.0691 -1.0836  0.5797
 1127SOL     OW 3379   3.546   1.188   0.547  0.6270 -0.2647 -0.3211
 1127SOL    HW1 3380   3.560   1.186   0.642  1.0635 -0.0795 -0.3821
 1127SOL    HW2 3381   3.530   1.097   0.523  2.9657 -0.6992 -0.4410
 1128SOL     OW 3382  -0.005   2.368   1.826  0.2431  0.2142 -0.1690
 1128SOL    HW1 3383   0.069   2.413   1.786 -0.6149  2.5753  0.7416
 1128SOL    HW2 3384   0.001   2.278   1.794  2.9625  0.5518 -0.8163
 1129SOL     OW 3385   1.706   3.362   1.082 -0.1693  0.0664 -0.2601
 1129SOL    HW1 3386   1.616   3.338   1.106 -0.1119  1.2749  1.3355
 1129SOL    HW2 3387   1.755   3.355   1.164  1.4692 -1.6156 -1.3225
 1130SOL     OW 3388   0.315   1.886   2.745  0.1876  0.1395  1.1831
 1130SOL    HW1 3389   0.249   1.926   2.801 -1.2151 -3.5366  2.4840
 1130SOL    HW2 3390   0.265   1.834   2.681  1.7330 -1.8815  1.4981
 1131SOL     OW 3391   2.675   0.619   3.816 -0.2815  0.7338  0.2213
 1131SOL    HW1 3392   2.701   0.682   3.884 -3.2425  0.6630  1.5682
 1131SOL    HW2 3393   2.684   0.667   3.734  3.4985  0.8024  0.5077
 1132SOL     OW 3394   3.544   3.258   2.349  0.4827  0.7349 -0.3697
 1132SOL    HW1 3395   3.582   3.170   2.354  2.3224  1.5408  0.6490
 1132SOL    HW2 3396   3.560   3.297   2.434 -3.6440  0.8713  0.5806
 1133SOL     OW 3397   1.809   3.309   1.361  0.0771 -0.4822  0.9476
 1133SOL    HW1 3398   1.864   3.260   1.423 -1.5492  0.1017  2.9495
 1133SOL    HW2 3399   1.816   3.400   1.390 -0.7747 -0.1992  0.2887
 1134SOL     OW 3400   0.565   0.851   2.164 -0.0397  0.0725  0.6502
 1134SOL    HW1 3401   0.479   0.861   2.205  0.3645 -0.4973  1.6894
 1134SOL    HW2 3402   0.547   0.810   2.079 -0.9838  2.1687 -0.2273
 1135SOL     OW 3403   1.926   2.084   0.444 -0.3160 -0.1893 -0.1778
 1135SOL    HW1 3404   1.994   2.141   0.480 -0.1410 -0.3234 -0.2946
 1135SOL    HW2 3405   1.940   2.087   0.349  0.0379 -0.8514 -0.1526
 1136SOL     OW 3406   3.634   0.231   0.467 -0.0247  0.5722 -1.0038
 1136SOL    HW1 3407   3.698   0.299   0.447 -1.3447  2.2615  0.2329
 1136SOL    HW2 3408   3.566   0.276   0.517 -0.3375 -1.8993  1.0248
 1137SOL     OW 3409   3.443   0.258   1.199 -0.1571  0.4812  0.0419
 1137SOL    HW1 3410   3.520   0.203   1.217 -1.3770 -1.0605  0.8166
 1137SOL    HW2 3411   3.382   0.238   1.271 -1.4070  1.4386 -0.7116
 1138SOL     OW 3412   2.691   1.517   0.725  0.5908  0.1970 -0.1872
 1138SOL    HW1 3413   2.596   1.532   0.721  0.6036  0.0463 -1.9881
 1138SOL    HW2 3414   2.701   1.424   0.704  0.9548 -0.8322  3.8386
 1139SOL     OW 3415   3.145   3.248   0.875  0.4002  0.3807  0.5482
 1139SOL    HW1 3416   3.220   3.271   0.819  1.3350  0.5351  1.8069
 1139SOL    HW2 3417   3.106   3.332   0.898 -0.7509  0.2611 -0.8283
 1140SOL     OW 3418   0.648   1.169   2.205 -0.9095  0.9376  0.2636
 1140SOL    HW1 3419   0.629   1.153   2.297 -1.1220 -0.6855 -0.0219
 1140SOL    HW2 3420   0.718   1.107   2.184 -0.9334  1.2095 -0.6803
 1141SOL     OW 3421   0.239   0.219   2.363  0.4893 -0.4229  0.3246
 1141SOL    HW1 3422   0.269   0.207   2.273  1.1708  0.8434  0.3481
 1141SOL    HW2 3423   0.286   0.154   2.414  0.6206 -0.6926 -0.1419
 1142SOL     OW 3424   3.317   3.677   1.595 -0.0818 -0.0549  0.1748
 1142SOL    HW1 3425   3.391   3.653   1.538 -1.8469  0.2380 -2.4275
 1142SOL    HW2 3426   3.276   3.594   1.617 -0.3432 -0.0804 -0.3882
 1143SOL     OW 3427   3.847   0.483   0.515  0.3019  1.1377  0.7194
 1143SOL    HW1 3428   3.856   0.550   0.448 -0.9841  1.0613  0.4421
 1143SOL    HW2 3429   3.934   0.476   0.554  0.8040  1.9436 -0.2091
 1144SOL     OW 3430   0.346   1.304   2.473 -0.1437  1.1122 -0.1437
 1144SOL    HW1 3431   0.379   1.393   2.483  0.2899  0.7099  3.2250
 1144SOL    HW2 3432   0.251   1.312   2.478 -0.2638  1.5619 -2.3849
 1145SOL     OW 3433   2.472   1.045   2.645  0.4919 -0.3298  0.2543
 1145SOL    HW1 3434   2.384   1.013   2.662  0.9955 -1.5537  0.6448
 1145SOL    HW2 3435   2.464   1.141   2.649 -0.8410 -0.4203  0.0787
 1146SOL     OW 3436   2.143   0.695   3.070  0.3397  0.1316 -0.0603
 1146SOL    HW1 3437   2.052   0.709   3.042 -0.1136 -1.1133  0.7437
 1146SOL    HW2 3438   2.183   0.646   2.998  0.1355 -0.1013 -0.0136
 1147SOL     OW 3439   2.213   1.398   2.140 -0.7008  0.4079  0.4711
 1147SOL    HW1 3440   2.211   1.325   2.079  0.0890  0.0555  0.8467
 1147SOL    HW2 3441   2.298   1.439   2.126 -1.6177  2.0705 -0.6401
 1148SOL     OW 3442  -0.019   0.668   2.629  0.9424  0.1481  0.6076
 1148SOL    HW1 3443  -0.048   0.714   2.550  1.4249 -0.7757 -0.1174
 1148SOL    HW2 3444   0.075   0.681   2.632  0.9139  0.2884  1.1220
 1149SOL     OW 3445   1.315   2.686   2.950  0.3202 -0.2063 -0.1559
 1149SOL    HW1 3446   1.301   2.779   2.968 -1.4537 -0.0293 -2.1018
 1149SOL    HW2 3447   1.275   2.641   3.025 -0.2404  0.5727  0.0299
 1150SOL     OW 3448   1.820   2.378   3.395 -0.0148 -0.1064  0.4845
 1150SOL    HW1 3449   1.752   2.365   3.461  0.2313 -2.9840  0.2830
 1150SOL    HW2 3450   1.816   2.472   3.375 -2.4773  0.2004  1.9924
 1151SOL     OW 3451   2.320   0.756   0.874  0.6424 -0.9681 -0.1225
 1151SOL    HW1 3452   2.282   0.711   0.798  0.1031 -2.5997  1.0529
 1151SOL    HW2 3453   2.257   0.741   0.944  1.2870  0.2307  0.7475
 1152SOL     OW 3454   0.416   3.352   0.018  0.3679 -0.6023  0.0894
 1152SOL    HW1 3455   0.346   3.368   0.082  0.8023  0.1990  0.3790
 1152SOL    HW2 3456   0.436   3.438  -0.018  1.5921 -0.7349  0.4254
 1153SOL     OW 3457   0.289   0.796   0.567  0.6519  0.9890 -0.3209
 1153SOL    HW1 3458   0.384   0.801   0.577  1.0564  0.8510 -3.1855
 1153SOL    HW2 3459   0.267   0.707   0.596  1.6916  0.3907 -1.2688
 1154SOL     OW 3460   3.576   0.548   0.554  0.0261 -0.1970  0.2203
 1154SOL    HW1 3461   3.661   0.516   0.585  0.3024  0.3867  0.0839
 1154SOL    HW2 3462   3.578   0.535   0.460 -0.7015 -1.7059  0.3768
 1155SOL     OW 3463   2.594   2.587   0.323  0.4708  0.4600  0.8673
 1155SOL    HW1 3464   2.636   2.650   0.265  3.1029 -1.1194  0.9220
 1155SOL    HW2 3465   2.565   2.516   0.265 -1.4711  1.1342  0.9418
 1156SOL     OW 3466   0.590   1.561   1.498  0.7563  0.0794 -0.6658
 1156SOL    HW1 3467   0.676   1.592   1.468  1.1536 -0.0129  0.3322
 1156SOL    HW2 3468   0.567   1.621   1.569 -0.3326  0.5273 -1.3771
 1157SOL     OW 3469   2.112   3.148   3.958 -0.8777 -0.7528 -0.9424
 1157SOL    HW1 3470   2.065   3.068   3.936 -1.3930 -0.4817 -0.8409
 1157SOL    HW2 3471   2.046   3.217   3.956 -0.4256 -0.3146 -1.0977
 1158SOL     OW 3472   3.505   1.403   3.897  0.1864  0.2290  0.1751
 1158SOL    HW1 3473   3.481   1.345   3.825  2.0990  0.8501 -1.0460
 1158SOL    HW2 3474   3.477   1.357   3.976 -1.0371 -0.9536 -0.9101
 1159SOL     OW 3475   2.445   1.406   3.875 -0.1752  0.2893  0.2548
 1159SOL    HW1 3476   2.379   1.424   3.942 -0.0812  0.2726  0.3527
 1159SOL    HW2 3477   2.427   1.316   3.848  0.5596 -0.1479  1.1503
 1160SOL     OW 3478   0.609   3.985   1.207  0.1495 -0.1462 -0.1906
 1160SOL    HW1 3479   0.590   4.024   1.122  2.5516  1.2442 -0.1652
 1160SOL    HW2 3480   0.699   3.953   1.199  1.0307  1.4469  2.2834
 1161SOL     OW 3481   3.530   3.523   2.772  0.7013  0.0860  0.2373
 1161SOL    HW1 3482   3.575   3.553   2.850  0.3038  0.6028  0.2738
 1161SOL    HW2 3483   3.499   3.435   2.794  1.4356 -0.1666  0.3053
 1162SOL     OW 3484   1.487   3.626   0.030  1.2858 -0.4207  1.1440
 1162SOL    HW1 3485   1.536   3.579  -0.037 -2.2493 -1.0687 -1.2415
 1162SOL    HW2 3486   1.423   3.562   0.062 -0.6981  1.4491  1.1056
 1163SOL     OW 3487   2.637   4.013   0.936 -0.3333  0.2502 -0.3194
 1163SOL    HW1 3488   2.610   4.031   1.026 -0.3324 -3.0445  0.4772
 1163SOL    HW2 3489   2.620   3.919   0.925  0.5626  0.3580 -3.4604
 1164SOL     OW 3490   1.901   3.005   0.386  0.4153  1.1025 -0.1975
 1164SOL    HW1 3491   1.979   3.040   0.428  1.7980 -0.7312 -1.0879
 1164SOL    HW2 3492   1.856   2.956   0.455 -0.0140  2.2107  0.3325
 1165SOL     OW 3493   2.145   1.379   2.416 -0.2129  0.9104  0.6553
 1165SOL    HW1 3494   2.186   1.421   2.341  0.8483  2.0288  1.8262
 1165SOL    HW2 3495   2.055   1.412   2.416 -1.6013 -2.2167 -2.4315
 1166SOL     OW 3496   1.538   1.355   3.767 -0.9985  0.1973  0.0567
 1166SOL    HW1 3497   1.481   1.391   3.835 -0.8260  0.7392 -0.0833
 1166SOL    HW2 3498   1.620   1.334   3.812 -0.0828  2.5941 -0.3659
 1167SOL     OW 3499   1.734   1.657   0.728  0.1311  1.2432  0.2228
 1167SOL    HW1 3500   1.738   1.579   0.784  2.3938  0.3968 -0.9955
 1167SOL    HW2 3501   1.664   1.711   0.766 -0.4840 -0.6909  1.9796
 1168SOL     OW 3502   0.327   0.704   3.148  0.3217  0.0631 -0.7817
 1168SOL    HW1 3503   0.330   0.608   3.146  1.7810  0.0162 -4.5016
 1168SOL    HW2 3504   0.247   0.726   3.101 -0.8801  0.7662  1.4900
 1169SOL     OW 3505   2.420   1.173   2.936 -0.2913  0.1208  0.1676
 1169SOL    HW1 3506   2.401   1.085   2.903  1.0675 -1.4404  3.1707
 1169SOL    HW2 3507   2.334   1.212   2.952 -0.9113 -0.6970 -1.0145
 1170SOL     OW 3508   3.941   3.885   1.192  0.1446 -0.0558 -0.0138
 1170SOL    HW1 3509   3.898   3.808   1.230  0.4086  0.5091  1.4994
 1170SOL    HW2 3510   3.934   3.872   1.097  0.1890 -1.9497  0.1924
 1171SOL     OW 3511   0.800   0.908   1.906 -0.4702 -0.4386  0.0628
 1171SOL    HW1 3512   0.723   0.856   1.884  1.0353 -1.7873 -2.4172
 1171SOL    HW2 3513   0.786   0.991   1.859 -0.4515 -0.6581 -0.3362
 1172SOL     OW 3514   0.241   2.949   3.265  0.6063  0.5947  0.0965
 1172SOL    HW1 3515   0.322   2.985   3.231  1.9373 -2.0264  0.2399
 1172SOL    HW2 3516   0.197   2.911   3.189  1.4389 -1.3667  0.5372
 1173SOL     OW 3517   1.341   3.121   0.527  0.3599  0.1199 -0.3798
 1173SOL    HW1 3518   1.295   3.058   0.583  0.3105  1.7348  1.5292
 1173SOL    HW2 3519   1.271   3.162   0.476  0.3866 -1.2616 -1.5857
 1174SOL     OW 3520   2.270   3.690   0.891  0.6370  0.4894 -0.1901
 1174SOL    HW1 3521   2.179   3.712   0.872  0.4066  0.4875  0.8294
 1174SOL    HW2 3522   2.308   3.772   0.924  0.8262  0.3363 -0.0245
 1175SOL     OW 3523   2.759   1.727   1.298 -0.4074  0.2547 -0.6520
 1175SOL    HW1 3524   2.704   1.803   1.278 -0.2056  0.4994 -0.2790
 1175SOL    HW2 3525   2.756   1.719   1.393  3.8148  3.1165  0.0369
 1176SOL     OW 3526   1.531   3.457   0.303  0.2114 -0.6081 -0.4921
 1176SOL    HW1 3527   1.519   3.434   0.395  2.5032 -1.1540 -0.2611
 1176SOL    HW2 3528   1.443   3.464   0.268 -0.8347  1.6662  2.2160
 1177SOL     OW 3529   3.045   1.751   2.706  0.7018 -0.2108 -0.2009
 1177SOL    HW1 3530   3.043   1.667   2.753  3.2318 -0.1380  0.1771
 1177SOL    HW2 3531   3.042   1.817   2.775 -4.9161  0.3677 -0.5226
 1178SOL     OW 3532   1.717   3.783   1.834  0.3906  0.3366 -0.2258
 1178SOL    HW1 3533   1.802   3.825   1.824  1.0475 -0.7076  0.6961
 1178SOL    HW2 3534   1.735   3.706   1.889 -1.2767  0.5278  0.6355
 1179SOL     OW 3535   3.145   3.286   3.729 -0.1783 -0.7139  0.0157
 1179SOL    HW1 3536   3.221   3.287   3.787 -1.5431 -0.6810  1.8875
 1179SOL    HW2 3537   3.143   3.373   3.690  0.0005 -0.2616  0.9869
 1180SOL     OW 3538   0.207   2.690   3.995  0.5214  0.5205 -0.1827
 1180SOL    HW1 3539   0.157   2.636   3.934  0.5607 -0.6735  0.7863
 1180SOL    HW2 3540   0.232   2.629   4.064 -0.0263  1.9443  1.3270
 1181SOL     OW 3541   3.472   0.660   2.117  0.1882 -0.0030 -0.1872
 1181SOL    HW1 3542   3.404   0.677   2.183  0.7022 -1.2366  0.7085
 1181SOL    HW2 3543   3.426   0.667   2.033 -0.5786  1.2059  0.2998
 1182SOL     OW 3544   1.686   0.216   1.068 -0.2517  0.4555 -0.1984
 1182SOL    HW1 3545   1.649   0.212   1.156 -0.7193  1.2596 -0.3491
 1182SOL    HW2 3546   1.610   0.225   1.011 -0.0790 -1.6498 -0.8377
 1183SOL     OW 3547   2.413   3.946   2.263  0.2718  0.0268 -0.4088
 1183SOL    HW1 3548   2.412   3.904   2.177  0.6225 -0.0260 -0.3854
 1183SOL    HW2 3549   2.500   3.930   2.298 -0.1932 -0.8485  0.4038
 1184SOL     OW 3550   3.354   0.184   1.880 -0.1364  0.6404  0.5974
 1184SOL    HW1 3551   3.374   0.094   1.854 -0.0057  0.8372  0.0113
 1184SOL    HW2 3552   3.308   0.221   1.805  0.5638  1.3258  0.4913
 1185SOL     OW 3553   1.558   1.673   0.029 -0.2795  0.3110 -0.2809
 1185SOL    HW1 3554   1.651   1.671   0.008  0.3367  1.8311  1.9646
 1185SOL    HW2 3555   1.532   1.764   0.016 -1.8176 -0.3022 -2.0537
 1186SOL     OW 3556   2.063   2.805   2.670 -1.0714  0.5699 -0.0344
 1186SOL    HW1 3557   2.052   2.802   2.765 -1.0385 -0.0843 -0.0489
 1186SOL    HW2 3558   1.978   2.835   2.638 -2.3439 -2.5545 -0.0085
 1187SOL     OW 3559   0.103   3.528   1.707 -0.2872  0.2415 -0.2659
 1187SOL    HW1 3560   0.123   3.577   1.627 -0.1126  0.1859 -0.2559
 1187SOL    HW2 3561   0.023   3.479   1.686 -2.4029  2.9434  0.7125
 1188SOL     OW 3562   0.992   2.560   0.646  0.0093 -0.2906 -0.2984
 1188SOL    HW1 3563   0.986   2.465   0.661  1.0011 -0.1578  1.0779
 1188SOL    HW2 3564   0.948   2.573   0.561  3.0632 -2.4921 -2.4693
 1189SOL     OW 3565   1.179   2.124   2.329 -0.4234  0.0569  0.1903
 1189SOL    HW1 3566   1.127   2.148   2.406 -1.7689  0.3008 -0.7592
 1189SOL    HW2 3567   1.264   2.096   2.365 -2.0631 -3.1241  2.0912
 1190SOL     OW 3568   3.052   1.824   2.989 -0.0056 -0.5058 -0.1557
 1190SOL    HW1 3569   3.145   1.801   2.990  0.1938 -1.0132 -5.1163
 1190SOL    HW2 3570   3.051   1.919   2.983  0.2850 -0.5354 -0.8142
 1191SOL     OW 3571   1.899   3.026   3.864  0.8927 -0.2268 -0.1366
 1191SOL    HW1 3572   1.915   2.968   3.789  1.0848 -0.2733 -0.0605
 1191SOL    HW2 3573   1.807   3.011   3.887  0.6253  0.3295 -0.8211
 1192SOL     OW 3574   2.903   4.000   1.844 -0.2388 -0.0329 -0.1378
 1192SOL    HW1 3575   2.864   3.931   1.790 -1.0674 -2.3290  3.1112
 1192SOL    HW2 3576   2.969   3.955   1.897  1.6137  2.3845 -0.2148
 1193SOL     OW 3577   3.832   0.793   1.487 -0.7195 -0.2272 -0.4529
 1193SOL    HW1 3578   3.795   0.846   1.417 -0.0409  1.9290  0.7068
 1193SOL    HW2 3579   3.756   0.763   1.538 -1.0902  1.5659  0.1397
 1194SOL     OW 3580   0.665   2.348   3.893  0.2342  0.2966 -0.1517
 1194SOL    HW1 3581   0.617   2.317   3.970 -0.9321  0.1525 -0.9160
 1194SOL    HW2 3582   0.597   2.377   3.832  1.1708  1.1926 -0.8060
 1195SOL     OW 3583   3.709   3.087   1.561 -0.6194  1.1187  0.3845
 1195SOL    HW1 3584   3.675   3.043   1.639 -1.9856 -0.3208 -0.9630
 1195SOL    HW2 3585   3.797   3.050   1.550 -0.5781  1.0161  0.9982
 1196SOL     OW 3586   2.946   2.884   0.255  0.1632  0.3966 -0.0537
 1196SOL    HW1 3587   3.030   2.913   0.290 -0.2042 -1.1852  2.3590
 1196SOL    HW2 3588   2.887   2.885   0.330 -1.9659  1.2480 -1.6313
 1197SOL     OW 3589   1.875   0.685   1.935  0.0921  1.3616 -0.9645
 1197SOL    HW1 3590   1.885   0.661   2.027 -1.7353  0.1820 -1.0212
 1197SOL    HW2 3591   1.934   0.760   1.923  1.4360  0.6537  0.7830
 1198SOL     OW 3592   2.321   1.298   3.651  0.2678  0.7965 -0.4180
 1198SOL    HW1 3593   2.334   1.318   3.558 -0.8137  3.2111 -0.1214
 1198SOL    HW2 3594   2.291   1.380   3.689  2.6453  0.4787  2.5060
 1199SOL     OW 3595   3.949   3.235   2.519  0.2537 -0.2412 -0.0372
 1199SOL    HW1 3596   3.996   3.264   2.441  1.9090 -1.3314  0.4947
 1199SOL    HW2 3597   3.872   3.189   2.485  1.0427 -0.8603 -1.0557
 1200SOL     OW 3598   1.646   1.406   1.800  0.1913 -0.3688 -0.0428
 1200SOL    HW1 3599   1.585   1.452   1.857 -0.1262  0.8211 -1.2847
 1200SOL    HW2 3600   1.619   1.314   1.804  0.5612 -0.4494  2.1468
 1201SOL     OW 3601   3.773   1.572   1.779 -0.8023 -0.5854  0.0003
 1201SOL    HW1 3602   3.868   1.560   1.785 -0.7073 -0.7791 -1.5250
 1201SOL    HW2 3603   3.756   1.655   1.823 -0.1098 -1.2111  1.5036
 1202SOL     OW 3604   2.440   0.429   2.060  0.0179  0.1770 -0.6758
 1202SOL    HW1 3605   2.443   0.334   2.047 -0.3499  0.1782 -0.7854
 1202SOL    HW2 3606   2.530   0.453   2.080 -0.1023 -0.3950  0.7031
 1203SOL     OW 3607   3.910   2.736   2.000  0.4256 -0.2867  0.2334
 1203SOL    HW1 3608   3.884   2.646   2.019  0.8978 -0.9206 -1.9264
 1203SOL    HW2 3609   3.946   2.733   1.911 -1.3725  2.3834 -0.7041
 1204SOL     OW 3610   2.847   1.934   0.134  0.9027  0.2779 -0.4145
 1204SOL    HW1 3611   2.848   1.840   0.115  1.3524  0.6234 -2.3309
 1204SOL    HW2 3612   2.925   1.968   0.091  1.1102  1.4355  0.8421
 1205SOL     OW 3613   1.424   1.561   2.688 -0.2181 -0.4643  0.1011
 1205SOL    HW1 3614   1.393   1.504   2.758 -2.3042 -0.0700 -0.4491
 1205SOL    HW2 3615   1.374   1.535   2.611 -0.2919  1.2290 -0.4698
 1206SOL     OW 3616   0.956   3.390   0.883  0.6001 -0.9486  0.4541
 1206SOL    HW1 3617   0.884   3.365   0.825 -1.4616  2.5275  1.2326
 1206SOL    HW2 3618   0.965   3.316   0.943 -3.0021 -1.2396  0.8514
 1207SOL     OW 3619   1.366   0.880   3.880  0.0197 -0.3848 -0.5824
 1207SOL    HW1 3620   1.368   0.968   3.917 -0.4352 -1.0582  1.1517
 1207SOL    HW2 3621   1.454   0.846   3.894 -0.2808 -0.8062  0.3472
 1208SOL     OW 3622   3.111   0.293   2.772 -0.0653 -0.3709 -0.6911
 1208SOL    HW1 3623   3.140   0.209   2.808 -1.0078  0.3300  1.9270
 1208SOL    HW2 3624   3.017   0.280   2.756 -0.9100  0.9174  2.4898
 1209SOL     OW 3625   3.763   0.637   3.143 -0.1158 -0.3995  0.1266
 1209SOL    HW1 3626   3.759   0.730   3.167 -2.0080  0.1646 -2.0081
 1209SOL    HW2 3627   3.837   0.631   3.082 -0.5444 -0.0912 -0.4308
 1210SOL     OW 3628   0.472   3.216   3.770 -0.6752 -1.0680  0.3981
 1210SOL    HW1 3629   0.434   3.259   3.847 -0.1481  0.7147 -0.2795
 1210SOL    HW2 3630   0.517   3.139   3.805 -0.6676 -0.4419  1.8413
 1211SOL     OW 3631   3.686   1.503   3.006  0.1613  0.4416 -0.3123
 1211SOL    HW1 3632   3.779   1.522   3.015  0.2835 -0.5575  0.7656
 1211SOL    HW2 3633   3.659   1.472   3.093 -0.3742 -2.6618 -1.4776
 1212SOL     OW 3634   0.316   3.187   0.376  0.4501 -0.0865  0.9875
 1212SOL    HW1 3635   0.408   3.199   0.354  0.2013  0.6758  0.3448
 1212SOL    HW2 3636   0.280   3.275   0.381  0.0349 -0.2972  2.5600
 1213SOL     OW 3637   1.255   3.240   2.693  0.3465 -0.2342 -0.3988
 1213SOL    HW1 3638   1.173   3.250   2.742  1.0408 -0.8186  0.9327
 1213SOL    HW2 3639   1.230   3.254   2.602 -1.0837  0.4054  0.0564
 1214SOL     OW 3640   1.229   2.896   0.137  0.5148 -0.4114  0.9306
 1214SOL    HW1 3641   1.221   2.986   0.168  0.6403 -0.1801  0.3114
 1214SOL    HW2 3642   1.179   2.844   0.200 -3.1772  0.5706 -0.9298
 1215SOL     OW 3643   2.737   2.102   2.396 -0.3795  0.2633  0.8520
 1215SOL    HW1 3644   2.709   2.075   2.483 -0.1525  1.0383  1.1709
 1215SOL    HW2 3645   2.821   2.145   2.409 -0.0018 -0.2461  0.1571
 1216SOL     OW 3646   2.132   1.440   1.678  0.6741 -0.2164  0.0790
 1216SOL    HW1 3647   2.166   1.517   1.724 -0.0988 -0.8928  1.8760
 1216SOL    HW2 3648   2.191   1.428   1.604 -0.3115  3.2425 -1.4519
 1217SOL     OW 3649   3.090   1.958   3.924  0.0415  0.3695  0.6328
 1217SOL    HW1 3650   3.173   1.918   3.896 -0.2651  0.7802 -0.9697
 1217SOL    HW2 3651   3.115   2.017   3.995  0.9146 -0.5158  1.0842
 1218SOL     OW 3652   0.590   1.428   3.633  0.2836 -0.2602  0.2991
 1218SOL    HW1 3653   0.644   1.374   3.691  1.6911 -0.4765 -1.1594
 1218SOL    HW2 3654   0.572   1.507   3.685  1.1743 -0.6107  1.1761
 1219SOL     OW 3655   1.708   0.133   3.305  0.6867 -0.2907 -0.2520
 1219SOL    HW1 3656   1.739   0.070   3.370 -1.9936 -0.9405  0.5285
 1219SOL    HW2 3657   1.648   0.082   3.249  0.9638  0.8423 -1.6517
 1220SOL     OW 3658   1.143   1.430   1.242 -0.0219 -0.0626 -0.2500
 1220SOL    HW1 3659   1.217   1.467   1.194 -0.1858 -0.0705 -0.5064
 1220SOL    HW2 3660   1.137   1.484   1.321 -1.2454  1.4880 -1.3473
 1221SOL     OW 3661   3.883   3.898   0.919 -0.0206  0.3078 -0.6842
 1221SOL    HW1 3662   3.830   3.965   0.877 -0.8282 -0.2432 -0.5687
 1221SOL    HW2 3663   3.831   3.818   0.913  1.6841 -0.7529 -2.4222
 1222SOL     OW 3664   1.195   1.839   1.434 -0.9673  0.4262 -0.4954
 1222SOL    HW1 3665   1.243   1.881   1.363 -2.0869  0.0234 -1.5349
 1222SOL    HW2 3666   1.185   1.907   1.501  2.8837 -0.0427  0.7925
 1223SOL     OW 3667   3.690   0.218   1.001 -0.0989  0.3014  0.1628
 1223SOL    HW1 3668   3.763   0.231   0.940  0.7143 -0.5779  0.8982
 1223SOL    HW2 3669   3.614   0.253   0.956  1.1994  3.8852  0.4473
 1224SOL     OW 3670   3.528   0.716   2.521  0.2131 -0.0403 -0.4625
 1224SOL    HW1 3671   3.613   0.671   2.524  1.1094  1.4353 -1.6168
 1224SOL    HW2 3672   3.521   0.760   2.605  0.5894 -0.1857 -0.3512
 1225SOL     OW 3673   2.467   1.529   0.920 -0.1353 -0.4905 -0.0013
 1225SOL    HW1 3674   2.441   1.439   0.941  2.1308 -0.5175  3.5765
 1225SOL    HW2 3675   2.560   1.533   0.944  0.1920  2.4753 -1.3793
 1226SOL     OW 3676   3.651   1.346   1.864 -0.4371 -0.4798  0.5940
 1226SOL    HW1 3677   3.738   1.309   1.855 -0.4707 -0.2139 -1.1966
 1226SOL    HW2 3678   3.662   1.439   1.844 -0.9145 -0.1736  1.6964
 1227SOL     OW 3679   2.114   3.939   3.403  0.5173 -0.4066 -0.2157
 1227SOL    HW1 3680   2.037   3.919   3.351  0.9864 -0.5607 -0.8682
 1227SOL    HW2 3681   2.105   3.884   3.481  0.2954 -0.9276 -0.5981
 1228SOL     OW 3682   2.669   1.655   3.448  0.4833  0.1528  1.0503
 1228SOL    HW1 3683   2.696   1.617   3.531  0.6958 -1.5332  0.2710
 1228SOL    HW2 3684   2.718   1.604   3.382 -1.3885 -0.1155 -0.2002
 1229SOL     OW 3685   2.821   2.565   3.053  0.0005 -0.4084 -0.3631
 1229SOL    HW1 3686   2.796   2.490   3.000 -1.3303 -1.2907  1.4282
 1229SOL    HW2 3687   2.846   2.528   3.138  0.4170  1.0877  0.2094
 1230SOL     OW 3688   1.569   0.294   3.590 -0.1137 -0.1118 -0.3922
 1230SOL    HW1 3689   1.511   0.370   3.586 -0.6658 -0.5566 -1.8412
 1230SOL    HW2 3690   1.656   0.329   3.572 -0.1218  0.3898  0.5219
 1231SOL     OW 3691   2.736   1.466   3.662  0.4131  0.4282  0.5151
 1231SOL    HW1 3692   2.648   1.441   3.692  1.3845 -3.3531  0.7116
 1231SOL    HW2 3693   2.761   1.538   3.721 -3.0511  2.8702 -0.6349
 1232SOL     OW 3694   2.924   1.208   2.719  0.2109 -0.0315 -0.5736
 1232SOL    HW1 3695   2.949   1.208   2.626  0.5502 -0.0326 -0.4844
 1232SOL    HW2 3696   2.829   1.211   2.718  0.2475  1.7951 -0.9110
 1233SOL     OW 3697   0.586   1.569   2.912 -0.6083 -0.4603  0.4205
 1233SOL    HW1 3698   0.628   1.571   2.997 -1.9272 -0.5043  1.0967
 1233SOL    HW2 3699   0.529   1.646   2.911 -0.9354 -0.7016 -0.2363
 1234SOL     OW 3700   1.596   0.772   0.015 -0.1965  0.3767  0.5051
 1234SOL    HW1 3701   1.635   0.795   0.099  2.9357  0.3062 -0.7901
 1234SOL    HW2 3702   1.670   0.750  -0.041 -2.2016 -0.4080 -2.0700
 1235SOL     OW 3703   3.431   0.578   1.420 -0.2714  0.1753 -0.7405
 1235SOL    HW1 3704   3.400   0.616   1.338  0.2943 -0.1664 -1.1161
 1235SOL    HW2 3705   3.518   0.614   1.432  0.5161 -1.4280 -1.4096
 1236SOL     OW 3706   3.771   3.438   1.165 -0.1345  0.6675 -0.3691
 1236SOL    HW1 3707   3.796   3.528   1.186 -0.7388  1.1778 -1.6623
 1236SOL    HW2 3708   3.787   3.388   1.245 -0.1156  1.9927  0.4779
 1237SOL     OW 3709   0.345   1.386   2.974 -0.4497 -0.9739  0.1968
 1237SOL    HW1 3710   0.341   1.461   3.034 -2.2710 -1.1377  0.3307
 1237SOL    HW2 3711   0.426   1.399   2.925 -0.8467  1.2386  0.0355
 1238SOL     OW 3712   0.752   3.513   3.295 -0.7115  0.7422  0.1240
 1238SOL    HW1 3713   0.811   3.529   3.221 -1.5454 -0.9409 -0.9576
 1238SOL    HW2 3714   0.782   3.430   3.331 -0.6895  1.2605  1.3547
 1239SOL     OW 3715   2.975   0.880   1.490  0.3422  0.7350 -0.1085
 1239SOL    HW1 3716   2.918   0.803   1.485 -0.4175  1.3166 -0.5969
 1239SOL    HW2 3717   3.046   0.853   1.548  1.3592 -1.1549 -2.0689
 1240SOL     OW 3718   1.767   2.023   1.230  0.9245  0.4084  0.3287
 1240SOL    HW1 3719   1.761   1.983   1.143 -0.5536 -2.0191  1.4535
 1240SOL    HW2 3720   1.824   1.965   1.280  2.1767  2.0551  0.8856
 1241SOL     OW 3721   0.490   3.115   2.794  0.1397  0.5858  0.6870
 1241SOL    HW1 3722   0.456   3.179   2.855 -2.3098 -1.2224  1.3986
 1241SOL    HW2 3723   0.424   3.045   2.793  2.4117 -1.7231 -0.3491
 1242SOL     OW 3724   3.233   1.715   3.763 -0.0577 -0.0663  0.3037
 1242SOL    HW1 3725   3.173   1.767   3.710  0.1974  0.6875  0.7304
 1242SOL    HW2 3726   3.261   1.644   3.705 -0.0695  0.5258 -0.4474
 1243SOL     OW 3727   1.440   0.563   3.050  0.3588  0.1327  0.4584
 1243SOL    HW1 3728   1.477   0.489   3.098  1.3862  0.4480  0.1777
 1243SOL    HW2 3729   1.489   0.639   3.081 -0.6861  0.7024  0.7412
 1244SOL     OW 3730   2.290   0.172   3.362 -0.0030 -0.4259 -0.5198
 1244SOL    HW1 3731   2.259   0.213   3.442 -3.9960  1.6449 -2.8283
 1244SOL    HW2 3732   2.254   0.083   3.365  1.3467 -0.9758  0.6328
 1245SOL     OW 3733   2.627   1.810   0.773 -0.4264 -0.4657  0.7342
 1245SOL    HW1 3734   2.553   1.861   0.741 -0.1022 -0.7083 -0.4407
 1245SOL    HW2 3735   2.646   1.748   0.703 -0.0024 -1.3535  1.6088
 1246SOL     OW 3736   2.302   3.073   1.909  0.1996  0.3828  0.1740
 1246SOL    HW1 3737   2.374   3.012   1.892  1.3187  1.4787  0.7901
 1246SOL    HW2 3738   2.308   3.137   1.838 -1.3460 -0.4936 -0.8178
 1247SOL     OW 3739   3.525   2.659   0.369  0.1097  0.3950 -0.1033
 1247SOL    HW1 3740   3.496   2.726   0.430  0.3715  1.8371 -1.4809
 1247SOL    HW2 3741   3.460   2.660   0.299  1.3089  0.8409 -1.2501
 1248SOL     OW 3742   1.488   1.060   2.625 -0.6411 -1.1523  0.2349
 1248SOL    HW1 3743   1.535   1.017   2.696 -1.4491  0.7826  2.0779
 1248SOL    HW2 3744   1.553   1.117   2.583 -0.8327  0.1026  1.5599
 1249SOL     OW 3745   2.746   1.246   0.602  0.1074 -0.6620  0.2359
 1249SOL    HW1 3746   2.779   1.190   0.671 -0.5894 -1.0561  0.2532
 1249SOL    HW2 3747   2.790   1.215   0.523 -0.3658 -1.3155  0.2258
 1250SOL     OW 3748   3.534   2.911   0.918 -0.2949  0.0134  0.3484
 1250SOL    HW1 3749   3.503   2.996   0.886 -0.4379 -0.2706 -0.2748
 1250SOL    HW2 3750   3.454   2.858   0.926 -0.2691  0.0839  1.2160
 1251SOL     OW 3751   2.640   3.807   0.348  0.9369 -0.2894 -0.0659
 1251SOL    HW1 3752   2.675   3.782   0.433  0.6667 -2.4193 -0.5099
 1251SOL    HW2 3753   2.691   3.756   0.285  1.5100  1.6583 -1.2704
 1252SOL     OW 3754   0.414   2.055   3.541 -0.4075 -0.2876  0.0083
 1252SOL    HW1 3755   0.437   2.094   3.456  3.9714 -0.8635  0.6681
 1252SOL    HW2 3756   0.379   1.969   3.520  1.2385 -0.6881 -1.3086
 1253SOL     OW 3757   3.726   1.845   1.890 -0.3406 -0.4633  0.0810
 1253SOL    HW1 3758   3.738   1.923   1.836 -1.6906 -0.9483 -0.9762
 1253SOL    HW2 3759   3.729   1.877   1.980  3.4630  0.1764 -0.1013
 1254SOL     OW 3760   0.682   2.095   2.190  0.3455 -0.0926  0.7779
 1254SOL    HW1 3761   0.644   2.007   2.184  1.3254 -0.4304 -0.7318
 1254SOL    HW2 3762   0.608   2.150   2.216 -0.2186 -1.3831  2.0696
 1255SOL     OW 3763   3.912   1.210   3.556  0.0453  0.0756 -0.6725
 1255SOL    HW1 3764   3.837   1.269   3.560 -0.1663  0.1063 -3.3196
 1255SOL    HW2 3765   3.917   1.171   3.643 -2.1864  1.0803 -0.0266
 1256SOL     OW 3766   2.619   0.049   1.863 -0.0777 -0.0845 -0.0957
 1256SOL    HW1 3767   2.601   0.132   1.819 -0.9391  0.1775  0.7073
 1256SOL    HW2 3768   2.711   0.032   1.847 -0.3669 -0.0195 -2.0024
 1257SOL     OW 3769   2.533   0.106   1.487 -0.0643 -0.7224 -0.3127
 1257SOL    HW1 3770   2.560   0.021   1.452  2.8169 -0.1760  0.3814
 1257SOL    HW2 3771   2.612   0.143   1.524 -1.1324  2.5165 -0.9853
 1258SOL     OW 3772   2.737   2.158   1.903  0.0234 -0.9379  0.2028
 1258SOL    HW1 3773   2.776   2.219   1.841 -0.5851 -0.0625  0.6723
 1258SOL    HW2 3774   2.766   2.189   1.989 -1.1660 -0.6728  0.5142
 1259SOL     OW 3775   2.900   2.258   0.338 -0.1651  0.5304  0.1044
 1259SOL    HW1 3776   2.876   2.171   0.370 -1.1197  0.4098 -0.8744
 1259SOL    HW2 3777   2.892   2.314   0.416 -1.3697  0.0577  0.3540
 1260SOL     OW 3778   0.694   3.546   0.340  0.3072  0.4298 -0.6662
 1260SOL    HW1 3779   0.621   3.505   0.386 -0.0878 -2.1078 -3.2641
 1260SOL    HW2 3780   0.771   3.498   0.372  0.3578  0.5181 -0.6572
 1261SOL     OW 3781   1.226   0.560   2.870 -0.0994 -0.0286  0.0965
 1261SOL    HW1 3782   1.285   0.575   2.944 -1.2534 -0.8067  1.2239
 1261SOL    HW2 3783   1.284   0.545   2.796  1.1026  0.1728  0.9673
 1262SOL     OW 3784   1.371   3.672   1.661  0.1401  0.8476 -0.0102
 1262SOL    HW1 3785   1.391   3.762   1.690 -0.5172  0.8664  0.4178
 1262SOL    HW2 3786   1.342   3.628   1.741 -3.4470  1.3761 -0.8628
 1263SOL     OW 3787   1.810   1.778   2.155  0.1115 -0.2955 -0.8822
 1263SOL    HW1 3788   1.773   1.822   2.079  0.3812 -1.0263 -1.4504
 1263SOL    HW2 3789   1.879   1.723   2.119  1.5099  0.7350  0.1017
 1264SOL     OW 3790   2.064   3.484   3.309  0.4801  0.0472  0.1448
 1264SOL    HW1 3791   2.026   3.557   3.358  0.4581  0.5510 -0.6029
 1264SOL    HW2 3792   2.084   3.521   3.223 -0.3631 -1.0528 -0.5591
 1265SOL     OW 3793   2.028   1.567   2.663 -0.1281 -0.3000 -0.5103
 1265SOL    HW1 3794   2.102   1.587   2.605 -0.2346 -0.9400 -0.8714
 1265SOL    HW2 3795   2.005   1.476   2.642 -0.1340 -0.5562  0.5723
 1266SOL     OW 3796   2.507   0.717   1.939 -0.6672  0.3399 -0.0668
 1266SOL    HW1 3797   2.594   0.712   1.901  0.0633 -1.6386  1.7022
 1266SOL    HW2 3798   2.448   0.701   1.865  0.5966 -1.2464 -0.8085
 1267SOL     OW 3799   3.265   3.883   1.744 -0.7360 -0.1981 -0.6666
 1267SOL    HW1 3800   3.247   3.853   1.655 -0.7970 -1.7285 -0.1666
 1267SOL    HW2 3801   3.315   3.964   1.733 -0.7820 -0.3456 -2.0803
 1268SOL     OW 3802   2.512   0.071   3.817  0.1401 -0.2847 -0.1600
 1268SOL    HW1 3803   2.530   0.108   3.904  0.6420 -0.6532 -0.0966
 1268SOL    HW2 3804   2.490   0.146   3.763  0.7804  0.0733  0.0554
 1269SOL     OW 3805   2.618   0.355   2.265  0.2048 -0.2905  0.0053
 1269SOL    HW1 3806   2.683   0.418   2.235  0.8227 -1.3120 -0.8870
 1269SOL    HW2 3807   2.622   0.359   2.360  0.1122  1.1195 -0.0393
 1270SOL     OW 3808   3.084   2.116   1.440  0.3274  0.1012  0.3471
 1270SOL    HW1 3809   3.166   2.069   1.457  0.2135  0.4378  1.9711
 1270SOL    HW2 3810   3.070   2.169   1.518 -0.8264  0.9747 -0.4186
 1271SOL     OW 3811   2.697   2.147   3.212 -0.0066  0.0649 -0.1613
 1271SOL    HW1 3812   2.789   2.159   3.188 -0.3121 -0.5640 -1.7703
 1271SOL    HW2 3813   2.673   2.229   3.255  1.2632  0.2920  0.1757
 1272SOL     OW 3814   2.421   0.551   0.194  0.2926  0.6118 -0.7078
 1272SOL    HW1 3815   2.434   0.645   0.208 -3.9178  1.0241  2.8669
 1272SOL    HW2 3816   2.376   0.545   0.110 -2.8951  2.5094  0.6612
 1273SOL     OW 3817   0.648   1.304   1.506  0.3385  0.7038  0.0172
 1273SOL    HW1 3818   0.628   1.398   1.503 -0.9406  0.4114 -1.8271
 1273SOL    HW2 3819   0.706   1.295   1.581  2.6561  3.3838 -1.2617
 1274SOL     OW 3820   0.403   3.044   0.079  0.0753 -0.8012 -0.2797
 1274SOL    HW1 3821   0.483   3.090   0.051 -1.1222  1.1318 -0.7274
 1274SOL    HW2 3822   0.417   2.953   0.051  2.3308 -0.6504  0.1415
 1275SOL     OW 3823   2.447   3.507   2.232 -1.1099 -0.4563 -0.0722
 1275SOL    HW1 3824   2.408   3.549   2.309 -0.6955 -1.4700  0.7061
 1275SOL    HW2 3825   2.376   3.505   2.168 -2.4638 -2.4353  1.3855
 1276SOL     OW 3826   0.984   3.432   2.679 -0.8369 -0.5193 -0.6925
 1276SOL    HW1 3827   1.035   3.377   2.620  2.8394  1.0725  0.7284
 1276SOL    HW2 3828   0.931   3.371   2.730  3.3989 -3.0154  1.1879
 1277SOL     OW 3829   0.675   2.029   0.671  0.4076  0.2636  0.0415
 1277SOL    HW1 3830   0.754   2.035   0.616  0.4917 -1.8442 -0.1633
 1277SOL    HW2 3831   0.672   1.937   0.697 -2.7160 -0.0621 -1.0610
 1278SOL     OW 3832   1.976   0.161   3.247  0.3676 -0.0465 -0.3360
 1278SOL    HW1 3833   1.913   0.100   3.207  0.1161 -1.4523  2.0553
 1278SOL    HW2 3834   2.042   0.105   3.287  2.1119  1.3865 -1.0663
 1279SOL     OW 3835   2.433   3.822   3.762  0.1275  0.4814  1.3428
 1279SOL    HW1 3836   2.507   3.780   3.718  0.2214  1.2037  0.8019
 1279SOL    HW2 3837   2.464   3.910   3.784 -0.8216  1.0672  0.4095
 1280SOL     OW 3838   3.021   2.659   2.710 -0.2213  0.1930  0.2520
 1280SOL    HW1 3839   3.005   2.662   2.804 -0.9378 -1.3186  0.2036
 1280SOL    HW2 3840   2.974   2.735   2.675 -0.8322  0.1625  0.9877
 1281SOL     OW 3841   0.403   0.155   1.126  0.0298  0.2221 -0.2688
 1281SOL    HW1 3842   0.482   0.185   1.169  0.2900  0.0723 -0.6357
 1281SOL    HW2 3843   0.398   0.206   1.045  0.4549 -0.6728 -0.8794
 1282SOL     OW 3844   1.870   1.496   0.904  0.0173  0.6910  0.1179
 1282SOL    HW1 3845   1.896   1.404   0.913  0.3881  0.8491  0.7238
 1282SOL    HW2 3846   1.817   1.513   0.982  0.3201  1.1118  0.2318
 1283SOL     OW 3847   2.885   0.597   1.162  0.5792  0.2932  0.0449
 1283SOL    HW1 3848   2.861   0.523   1.106  2.8347 -0.0950 -0.5073
 1283SOL    HW2 3849   2.831   0.669   1.130 -0.1694 -0.6041 -0.7818
 1284SOL     OW 3850   3.686   0.460   2.627 -0.2464 -0.6538  0.5901
 1284SOL    HW1 3851   3.668   0.425   2.540 -0.4290 -1.0782  0.7911
 1284SOL    HW2 3852   3.642   0.399   2.686 -0.4240 -0.1726  0.9630
 1285SOL     OW 3853   0.391   1.173   0.836 -0.1486 -0.1567  0.3852
 1285SOL    HW1 3854   0.316   1.122   0.867  0.1554 -1.7819 -1.3502
 1285SOL    HW2 3855   0.382   1.173   0.741  2.1493 -0.6009  0.1052
 1286SOL     OW 3856   0.200   0.165   3.661  0.6851 -0.3302 -0.4900
 1286SOL    HW1 3857   0.224   0.246   3.707  1.8695 -0.0749 -1.5069
 1286SOL    HW2 3858   0.280   0.139   3.615 -0.4321 -0.5274 -2.4565
 1287SOL     OW 3859   2.836   1.137   0.876 -0.4827 -0.0022  0.3385
 1287SOL    HW1 3860   2.821   1.051   0.915  0.6610  0.2423  1.3920
 1287SOL    HW2 3861   2.915   1.126   0.823 -2.4583 -0.5431 -2.7285
 1288SOL     OW 3862   3.235   3.439   1.966  0.3235  0.0293  0.2977
 1288SOL    HW1 3863   3.299   3.456   1.897  0.6583  2.7644  1.1793
 1288SOL    HW2 3864   3.286   3.437   2.047 -0.0941 -2.8889  0.5896
 1289SOL     OW 3865   2.534   3.829   2.648  0.1291  0.4569  0.1031
 1289SOL    HW1 3866   2.553   3.749   2.698  2.3465  0.9947  0.2378
 1289SOL    HW2 3867   2.474   3.878   2.704  0.6481 -0.0442  1.1397
 1290SOL     OW 3868   0.109   0.440   1.968  0.2018  0.5831 -0.6147
 1290SOL    HW1 3869   0.187   0.494   1.959 -0.7309  1.8369 -1.4764
 1290SOL    HW2 3870   0.047   0.493   2.019  0.2002 -0.7577  0.8886
 1291SOL     OW 3871   3.527   3.723   3.493 -0.6885 -1.2812  0.2979
 1291SOL    HW1 3872   3.581   3.667   3.548 -0.5863  0.2597  1.8498
 1291SOL    HW2 3873   3.465   3.765   3.554  0.5923  1.8519 -0.3689
 1292SOL     OW 3874   0.430   1.581   2.491 -0.0213  0.2017 -0.1525
 1292SOL    HW1 3875   0.353   1.596   2.436 -1.4653 -3.3052  0.5905
 1292SOL    HW2 3876   0.505   1.597   2.433 -1.4397 -2.6548 -3.1460
 1293SOL     OW 3877   3.828   2.486   2.005 -0.4074 -0.5253  0.3039
 1293SOL    HW1 3878   3.869   2.456   1.923  0.6635 -2.1501  1.3791
 1293SOL    HW2 3879   3.737   2.457   1.998 -0.1538 -1.2773 -0.0363
 1294SOL     OW 3880   2.885   1.261   2.228  0.3162 -0.2593  0.6932
 1294SOL    HW1 3881   2.905   1.212   2.147 -1.8731  0.5072 -0.3873
 1294SOL    HW2 3882   2.923   1.347   2.213 -2.6119  0.8718 -0.9254
 1295SOL     OW 3883   0.269   0.483   0.373 -0.2515  0.0687 -0.5248
 1295SOL    HW1 3884   0.313   0.551   0.322 -0.2141 -0.7338 -1.6106
 1295SOL    HW2 3885   0.236   0.528   0.451  2.8892  0.6493  0.6275
 1296SOL     OW 3886   3.166   0.534   2.905  0.6811  0.2101 -0.2589
 1296SOL    HW1 3887   3.228   0.585   2.853  0.8484 -0.5016 -0.7798
 1296SOL    HW2 3888   3.139   0.463   2.846 -0.2186  0.2037  0.1426
 1297SOL     OW 3889   2.977   0.210   1.147  0.4467  0.4523 -0.0947
 1297SOL    HW1 3890   2.912   0.272   1.116  0.4432  0.1192 -0.7664
 1297SOL    HW2 3891   3.057   0.231   1.098  0.3443 -0.3033 -0.6069
 1298SOL     OW 3892   1.659   1.826   1.428 -0.3729 -0.3049 -0.4853
 1298SOL    HW1 3893   1.646   1.802   1.337  1.9702 -1.0746 -0.6640
 1298SOL    HW2 3894   1.738   1.780   1.455 -1.7987 -1.3671  2.4190
 1299SOL     OW 3895   3.425   0.085   0.125  0.5700  0.2288  0.0549
 1299SOL    HW1 3896   3.440   0.029   0.049  0.8756 -0.5801  0.6935
 1299SOL    HW2 3897   3.418   0.173   0.089 -0.9797 -0.3231 -1.0803
 1300SOL     OW 3898   2.011   0.795   2.204  0.5276 -0.5392 -0.1226
 1300SOL    HW1 3899   2.027   0.886   2.180  0.5404 -0.5776 -0.2640
 1300SOL    HW2 3900   2.078   0.746   2.156  1.1915 -0.5351  0.7641
 1301SOL     OW 3901   2.206   2.396   0.631 -0.2256 -0.1948  0.4885
 1301SOL    HW1 3902   2.270   2.327   0.650  0.6394  0.4436 -0.0192
 1301SOL    HW2 3903   2.232   2.469   0.687 -1.2692 -0.3391  1.1833
 1302SOL     OW 3904   0.996   2.453   3.564  0.3045  0.2195  0.1004
 1302SOL    HW1 3905   1.026   2.378   3.512 -1.1425  1.1995 -2.3055
 1302SOL    HW2 3906   0.960   2.414   3.644  3.0848 -1.3037  0.7554
 1303SOL     OW 3907   2.251   2.492   0.073  0.3828  0.5260 -0.5000
 1303SOL    HW1 3908   2.323   2.543   0.111 -0.7709 -0.1961  3.0625
 1303SOL    HW2 3909   2.172   2.528   0.113 -0.8853 -1.1611 -1.3465
 1304SOL     OW 3910   1.926   0.949   0.826 -0.1218  0.1526  0.2417
 1304SOL    HW1 3911   1.861   0.903   0.773  1.4184  0.5451 -2.1273
 1304SOL    HW2 3912   1.923   1.040   0.795  0.4982  0.5061  1.1649
 1305SOL     OW 3913   1.728   3.005   1.819  0.6678  0.0118  0.9287
 1305SOL    HW1 3914   1.782   2.979   1.894  2.9139  1.6284 -0.0112
 1305SOL    HW2 3915   1.777   2.975   1.742  0.5064  1.8987  0.0208
 1306SOL     OW 3916   2.668   2.726   3.639 -0.2291 -0.3762 -0.2354
 1306SOL    HW1 3917   2.755   2.708   3.674 -0.0046 -0.5439 -0.8586
 1306SOL    HW2 3918   2.620   2.644   3.652 -0.5059 -0.0828  0.6930
 1307SOL     OW 3919   2.519   3.472   2.641 -0.3356  0.8174  0.0524
 1307SOL    HW1 3920   2.491   3.406   2.577  0.0566 -0.2628  0.9675
 1307SOL    HW2 3921   2.468   3.454   2.719  1.8775 -0.3686  1.3215
 1308SOL     OW 3922   3.096   0.881   2.917  0.3499  0.4643 -0.2994
 1308SOL    HW1 3923   3.015   0.830   2.923  0.3510  0.6789  2.2142
 1308SOL    HW2 3924   3.135   0.853   2.833 -1.6990 -0.5199 -0.9912
 1309SOL     OW 3925   2.413   3.506   0.354  0.2486 -0.4006  0.5466
 1309SOL    HW1 3926   2.350   3.434   0.350 -1.5562  1.0723  0.9797
 1309SOL    HW2 3927   2.381   3.570   0.289 -0.2903  1.5433  2.5996
 1310SOL     OW 3928   3.351   0.832   1.306  0.2514  0.4067 -0.4012
 1310SOL    HW1 3929   3.277   0.792   1.260 -1.0886  0.3148  1.6652
 1310SOL    HW2 3930   3.312   0.909   1.350  0.3033 -1.6686  3.8276
 1311SOL     OW 3931   3.704   3.331   0.881  0.0909  0.4787  0.0140
 1311SOL    HW1 3932   3.711   3.393   0.953  0.7253 -0.3317  0.6714
 1311SOL    HW2 3933   3.761   3.368   0.813  0.6137  0.5258  0.4696
 1312SOL     OW 3934   3.278   3.885   1.076 -0.2723 -0.2770  0.6068
 1312SOL    HW1 3935   3.292   3.829   1.153  2.3240 -2.3273 -1.1732
 1312SOL    HW2 3936   3.205   3.845   1.030 -1.4079  0.5803  1.5755
 1313SOL     OW 3937   1.821   0.398   2.475 -0.6378  0.3304 -0.5809
 1313SOL    HW1 3938   1.805   0.481   2.430  0.2047  2.0344  2.0632
 1313SOL    HW2 3939   1.838   0.336   2.404  0.1695  2.7153 -2.6201
 1314SOL     OW 3940   3.004   1.181   1.717 -0.4657 -0.3538  0.7691
 1314SOL    HW1 3941   3.008   1.238   1.641  0.4572 -1.2888  0.0889
 1314SOL    HW2 3942   2.957   1.104   1.687 -1.9820  0.1367  1.7694
 1315SOL     OW 3943   2.940   0.092   2.950 -0.0516 -0.5094  0.2947
 1315SOL    HW1 3944   2.903   0.057   2.869  0.3033 -1.5613  0.5578
 1315SOL    HW2 3945   2.882   0.164   2.974 -0.3535 -0.4008 -0.7117
 1316SOL     OW 3946   0.745   2.633   1.922 -0.4385  0.1610  0.2572
 1316SOL    HW1 3947   0.707   2.711   1.881  0.1689  0.2708 -0.1037
 1316SOL    HW2 3948   0.832   2.660   1.951 -0.6970 -0.0351  1.2556
 1317SOL     OW 3949   3.641   3.898   1.054  0.0192 -0.7748 -0.0130
 1317SOL    HW1 3950   3.629   3.991   1.075  2.3820 -0.1614 -1.0793
 1317SOL    HW2 3951   3.633   3.893   0.959 -2.0635 -2.0632  0.1712
 1318SOL     OW 3952   0.445   3.889   2.597 -0.2094 -0.2848 -0.0768
 1318SOL    HW1 3953   0.442   3.980   2.627 -1.0160 -0.6020  0.8402
 1318SOL    HW2 3954   0.364   3.879   2.546 -0.9596 -0.9529  1.2210
 1319SOL     OW 3955   2.608   0.786   2.800 -0.4814 -0.2030  0.3556
 1319SOL    HW1 3956   2.564   0.772   2.716  1.0909  0.8218 -0.7153
 1319SOL    HW2 3957   2.567   0.865   2.836 -2.3424 -1.5890  1.4538
 1320SOL     OW 3958   1.881   1.603   1.522 -0.3519  0.3918 -0.2299
 1320SOL    HW1 3959   1.790   1.590   1.547  0.2927 -1.6715  1.3540
 1320SOL    HW2 3960   1.922   1.517   1.535  1.5464  0.8967 -2.1921
 1321SOL     OW 3961   1.839   1.397   0.478 -0.2807 -0.7254 -0.3993
 1321SOL    HW1 3962   1.774   1.393   0.548 -0.5064 -1.2327 -0.6326
 1321SOL    HW2 3963   1.809   1.332   0.414  0.0217 -0.3957 -0.8794
 1322SOL     OW 3964   2.075   0.153   0.803  0.2681 -0.0568  0.2672
 1322SOL    HW1 3965   1.995   0.103   0.787 -1.0588  1.7052  1.0330
 1322SOL    HW2 3966   2.110   0.172   0.716 -0.0067 -1.0305 -0.0673
 1323SOL     OW 3967   2.774   3.351   2.329  0.3193  0.3886 -0.0654
 1323SOL    HW1 3968   2.855   3.301   2.324 -0.0168 -0.1953  0.2531
 1323SOL    HW2 3969   2.704   3.286   2.325 -0.1138  0.7565  0.9267
 1324SOL     OW 3970   2.664   3.570   3.152 -0.6700 -0.7816  0.0257
 1324SOL    HW1 3971   2.631   3.547   3.065 -0.3414  2.0749 -0.9828
 1324SOL    HW2 3972   2.589   3.561   3.210 -0.9409 -2.5631 -0.5384
 1325SOL     OW 3973   0.549   0.526   0.200  0.4027  0.5447  0.1997
 1325SOL    HW1 3974   0.546   0.458   0.267  1.2336 -0.9680 -1.2266
 1325SOL    HW2 3975   0.640   0.531   0.173  0.3221  2.0821  0.0823
 1326SOL     OW 3976   2.640   0.452   2.545 -0.3716 -0.2006  0.1229
 1326SOL    HW1 3977   2.572   0.520   2.547 -0.2648 -0.0875 -0.1368
 1326SOL    HW2 3978   2.712   0.489   2.595 -0.2563 -0.0621 -0.1453
 1327SOL     OW 3979   3.235   2.420   3.320 -0.2103 -0.5999  0.3789
 1327SOL    HW1 3980   3.301   2.356   3.293 -0.2564 -0.2851 -0.5113
 1327SOL    HW2 3981   3.172   2.422   3.247  1.2115  2.4425 -0.9392
 1328SOL     OW 3982   0.550   2.604   0.154  0.6900 -0.2048  0.2748
 1328SOL    HW1 3983   0.559   2.510   0.142  0.1492 -0.3874  1.1826
 1328SOL    HW2 3984   0.498   2.613   0.234 -2.3964  0.7851 -1.6614
 1329SOL     OW 3985   2.904   0.620   2.636  0.0512  0.1702 -1.2767
 1329SOL    HW1 3986   2.853   0.606   2.716 -1.0462 -0.5860 -2.0830
 1329SOL    HW2 3987   2.915   0.715   2.631  1.4377  0.1761  0.5284
 1330SOL     OW 3988   1.129   1.572   2.129  0.2517 -0.5664  0.3596
 1330SOL    HW1 3989   1.050   1.546   2.083  1.0434 -0.9078 -0.8530
 1330SOL    HW2 3990   1.124   1.667   2.135  0.1987 -0.5051 -0.5657
 1331SOL     OW 3991   1.951   3.676   3.533  0.4128 -0.0569 -0.1051
 1331SOL    HW1 3992   1.879   3.619   3.558  1.9638 -2.7430 -1.3084
 1331SOL    HW2 3993   1.921   3.720   3.453 -0.1246 -0.6998 -0.2612
 1332SOL     OW 3994   1.678   2.224   3.670  0.6162 -0.0574 -0.7099
 1332SOL    HW1 3995   1.701   2.315   3.686  1.1020 -0.4843  1.2786
 1332SOL    HW2 3996   1.761   2.183   3.644  0.5593 -0.0961 -0.8325
 1333SOL     OW 3997   2.941   1.158   0.366 -0.8822 -0.9238  0.0993
 1333SOL    HW1 3998   2.879   1.089   0.390 -0.7507 -1.2113 -0.3578
 1333SOL    HW2 3999   3.027   1.122   0.388 -0.2899 -2.9305 -4.2375
 1334SOL     OW 4000   2.945   3.725   1.196  0.4459  0.1669  0.7288
 1334SOL    HW1 4001   2.892   3.657   1.154  0.6065  0.2223  0.4362
 1334SOL    HW2 4002   2.997   3.762   1.125 -1.7785  2.6318  0.2103
 1335SOL     OW 4003   0.220   2.049   0.970 -0.0359  0.2486 -0.1576
 1335SOL    HW1 4004   0.149   2.029   0.908 -0.3713 -0.4119  0.4151
 1335SOL    HW2 4005   0.300   2.043   0.918 -0.3567  0.3300 -0.6645
 1336SOL     OW 4006   3.905   0.758   0.831  0.4924 -0.2098 -0.2588
 1336SOL    HW1 4007   3.967   0.771   0.903 -0.1961 -0.7486  0.4455
 1336SOL    HW2 4008   3.823   0.733   0.874  0.1754 -0.9272 -1.2478
 1337SOL     OW 4009   2.724   2.236   3.552 -0.0969 -1.3799 -0.3714
 1337SOL    HW1 4010   2.724   2.289   3.632  1.8252 -3.6471  1.2923
 1337SOL    HW2 4011   2.661   2.279   3.495 -0.6646  1.0651  1.8751
 1338SOL     OW 4012   3.229   3.056   1.841  0.2517  0.0091  0.2624
 1338SOL    HW1 4013   3.240   2.987   1.906  0.3186  0.6638  0.9652
 1338SOL    HW2 4014   3.318   3.090   1.827  0.5554 -1.4557 -1.6994
 1339SOL     OW 4015   1.583   0.807   1.854  0.0595 -0.0075 -0.4038
 1339SOL    HW1 4016   1.559   0.717   1.833 -0.0001  0.2029 -1.2790
 1339SOL    HW2 4017   1.661   0.798   1.909 -1.0001 -0.6373  1.0735
 1340SOL     OW 4018   1.022   1.669   1.101  0.5311 -0.0707 -0.7202
 1340SOL    HW1 4019   1.069   1.586   1.092  0.7502  0.2217 -2.7598
 1340SOL    HW2 4020   1.081   1.726   1.149  0.9915 -0.6510 -0.5928
 1341SOL     OW 4021   1.070   3.653   1.958 -0.1454  0.3114 -0.2906
 1341SOL    HW1 4022   1.055   3.714   1.886  0.3189  1.1594  0.3043
 1341SOL    HW2 4023   1.052   3.704   2.037  1.8015  0.1938  0.2843
 1342SOL     OW 4024   3.775   3.694   1.290 -0.3181  0.5736  0.3591
 1342SOL    HW1 4025   3.696   3.748   1.287 -0.7533 -0.0783 -0.7933
 1342SOL    HW2 4026   3.772   3.652   1.375 -1.2855  0.4769  0.2937
 1343SOL     OW 4027   2.173   0.206   3.587  0.9581 -0.6163 -0.0889
 1343SOL    HW1 4028   2.151   0.134   3.647  1.5031  1.4246  2.7765
 1343SOL    HW2 4029   2.091   0.256   3.580  1.5894  0.6512  1.2303
 1344SOL     OW 4030   1.446   3.160   1.160 -0.2070  0.0187 -0.2320
 1344SOL    HW1 4031   1.449   3.166   1.065  1.9562  0.9200 -0.1579
 1344SOL    HW2 4032   1.430   3.067   1.178 -1.2366 -0.0624 -1.4320
 1345SOL     OW 4033   2.318   1.544   0.084 -0.6286  0.2864 -0.0219
 1345SOL    HW1 4034   2.225   1.524   0.072 -0.5217 -0.4116  0.3214
 1345SOL    HW2 4035   2.318   1.630   0.126 -1.0858  0.9168 -1.2370
 1346SOL     OW 4036   1.130   1.542   0.339  0.3905  0.0577  0.0936
 1346SOL    HW1 4037   1.115   1.531   0.433  3.5341 -1.7155  0.5036
 1346SOL    HW2 4038   1.082   1.622   0.317  0.0645  0.9037  3.3084
 1347SOL     OW 4039   0.353   1.494   1.907 -0.5979 -0.1444 -0.0515
 1347SOL    HW1 4040   0.258   1.496   1.919 -0.8565 -0.1265 -1.8477
 1347SOL    HW2 4041   0.370   1.560   1.840  0.5546 -0.8768 -0.5061
 1348SOL     OW 4042   2.037   2.005   3.133 -0.0229 -0.0776 -0.3035
 1348SOL    HW1 4043   1.951   1.962   3.132 -0.6289  1.0439  0.4053
 1348SOL    HW2 4044   2.095   1.944   3.089 -1.2765 -0.6791 -1.1885
 1349SOL     OW 4045   0.955   0.897   3.202 -0.2725 -0.1116 -0.1765
 1349SOL    HW1 4046   0.981   0.927   3.115 -1.1082 -1.0064 -0.7563
 1349SOL    HW2 4047   0.865   0.865   3.191  0.6984 -3.2890  0.2520
 1350SOL     OW 4048   2.405   2.714   0.116 -0.0655  0.6480 -0.8370
 1350SOL    HW1 4049   2.400   2.801   0.077  0.5698  0.2720 -1.8146
 1350SOL    HW2 4050   2.496   2.687   0.103 -0.7693 -1.0995 -2.7323
 1351SOL     OW 4051   1.199   0.567   3.732  0.8105 -0.3161 -0.2784
 1351SOL    HW1 4052   1.184   0.604   3.820  2.8236 -1.9422  0.8279
 1351SOL    HW2 4053   1.112   0.562   3.693 -0.0029  1.5362  1.1605
 1352SOL     OW 4054   3.677   3.927   2.356 -0.0432 -0.2617  0.4635
 1352SOL    HW1 4055   3.728   3.950   2.278 -1.1308  0.4515 -0.0656
 1352SOL    HW2 4056   3.606   3.872   2.322  0.1766 -0.9812  1.1434
 1353SOL     OW 4057   1.759   3.935   0.840  0.5240 -0.2680 -0.4961
 1353SOL    HW1 4058   1.733   4.026   0.821  0.6792 -0.4301 -1.5630
 1353SOL    HW2 4059   1.729   3.886   0.764  0.0726 -1.1904  0.2618
 1354SOL     OW 4060   0.432   3.718   2.282  0.1097 -0.4323  0.0528
 1354SOL    HW1 4061   0.509   3.711   2.339  1.1661  1.8903 -0.9279
 1354SOL    HW2 4062   0.440   3.644   2.221  1.5708 -0.2671  0.0070
 1355SOL     OW 4063   0.075   2.265   0.830  0.3340  0.3284  0.3100
 1355SOL    HW1 4064   0.110   2.346   0.866 -0.2340  2.0853 -2.7045
 1355SOL    HW2 4065  -0.020   2.276   0.835  0.1425 -1.6572  2.7647
 1356SOL     OW 4066   2.943   2.504   0.848  0.1371 -0.4200  0.2738
 1356SOL    HW1 4067   2.976   2.590   0.823 -0.3097 -0.8931 -2.2549
 1356SOL    HW2 4068   3.004   2.473   0.915  2.5128  0.3350 -1.4249
 1357SOL     OW 4069   4.002   2.116   1.691 -0.3772  0.3116  0.4627
 1357SOL    HW1 4070   3.921   2.088   1.649 -0.2313 -0.2215  0.5291
 1357SOL    HW2 4071   4.065   2.127   1.619  0.5736 -2.9015  0.6480
 1358SOL     OW 4072   3.918   1.577   3.098 -0.4849  0.7032  0.8849
 1358SOL    HW1 4073   3.967   1.632   3.158 -0.7751  1.7059  0.2228
 1358SOL    HW2 4074   3.943   1.488   3.121 -0.3375  1.0815  2.2652
 1359SOL     OW 4075   2.619   0.829   3.103 -0.1637  0.2533 -0.1928
 1359SOL    HW1 4076   2.529   0.849   3.079 -0.1100  1.6571  0.6615
 1359SOL    HW2 4077   2.659   0.794   3.023 -1.4247 -0.2619 -0.6069
 1360SOL     OW 4078   2.805   2.913   2.285 -0.4651  0.0779 -0.6617
 1360SOL    HW1 4079   2.801   2.968   2.207  0.6061  0.0666 -0.7471
 1360SOL    HW2 4080   2.745   2.953   2.347 -0.3412  0.8472 -1.0303
 1361SOL     OW 4081   2.249   3.937   2.483 -0.3286  0.1608  0.2367
 1361SOL    HW1 4082   2.318   3.946   2.418  0.7072 -1.3994  1.0573
 1361SOL    HW2 4083   2.276   3.995   2.554  0.2402 -0.5439  0.6120
 1362SOL     OW 4084   2.430   0.153   2.021 -1.0678 -0.6743 -0.2523
 1362SOL    HW1 4085   2.393   0.101   2.093  2.5308 -0.8380  1.7261
 1362SOL    HW2 4086   2.476   0.089   1.967  2.5174  0.1200  1.6164
 1363SOL     OW 4087   0.776   2.231   2.433 -0.0340  0.0063 -0.3657
 1363SOL    HW1 4088   0.770   2.188   2.347  1.1852  0.8207 -0.8750
 1363SOL    HW2 4089   0.704   2.294   2.432 -0.2485 -0.2351 -0.6323
 1364SOL     OW 4090   0.462   0.146   3.248  0.2212 -0.8301 -0.5779
 1364SOL    HW1 4091   0.390   0.118   3.191 -1.2848  1.2007  0.2165
 1364SOL    HW2 4092   0.541   0.115   3.203 -1.0253 -1.4818 -2.4611
 1365SOL     OW 4093   1.954   2.314   3.913  0.5577 -0.1858 -0.6443
 1365SOL    HW1 4094   1.956   2.334   4.007  1.5680  1.4482 -0.9766
 1365SOL    HW2 4095   1.928   2.222   3.909 -1.8771  0.3024  1.1452
 1366SOL     OW 4096   1.584   1.311   0.375  0.4676 -0.4789  0.2600
 1366SOL    HW1 4097   1.535   1.290   0.454 -1.4439 -0.2800 -0.7941
 1366SOL    HW2 4098   1.568   1.404   0.361  1.6397 -0.2749  0.1780
 1367SOL     OW 4099   3.058   3.351   0.407 -0.3968  0.2876  0.0876
 1367SOL    HW1 4100   3.144   3.317   0.382 -0.7592 -1.0376  0.5197
 1367SOL    HW2 4101   3.069   3.446   0.409  0.6388  0.2499 -1.3796
 1368SOL     OW 4102   2.070   1.444   3.521  0.4170 -0.1725  0.0319
 1368SOL    HW1 4103   2.065   1.392   3.601 -0.9756  0.4172  0.3563
 1368SOL    HW2 4104   2.063   1.379   3.451 -0.7235 -0.4993  0.4245
 1369SOL     OW 4105   2.430   0.295   0.361 -0.3813  0.6963 -0.0639
 1369SOL    HW1 4106   2.431   0.374   0.307  0.7109  0.5462 -0.2798
 1369SOL    HW2 4107   2.460   0.324   0.447  2.6812  0.0903 -0.8205
 1370SOL     OW 4108   0.369   2.625   3.004 -0.2200  0.1391  0.7458
 1370SOL    HW1 4109   0.383   2.572   3.082  1.7529  0.7603  0.8674
 1370SOL    HW2 4110   0.306   2.692   3.032  2.9196  2.4318  2.9526
 1371SOL     OW 4111   0.563   0.863   0.570  0.0009  0.0942  0.6395
 1371SOL    HW1 4112   0.547   0.919   0.645  1.6151  1.2075  0.2114
 1371SOL    HW2 4113   0.644   0.817   0.591 -0.7340 -1.3240  0.5218
 1372SOL     OW 4114   3.590   3.724   2.557 -0.6320  0.3746  0.0067
 1372SOL    HW1 4115   3.566   3.673   2.635 -2.8899  2.7774  1.0563
 1372SOL    HW2 4116   3.680   3.700   2.539 -0.6280 -1.6542  2.2489
 1373SOL     OW 4117   0.094   0.052   0.898 -0.0221 -0.1824  0.4123
 1373SOL    HW1 4118   0.013  -0.000   0.902  1.2987 -2.3353  0.4664
 1373SOL    HW2 4119   0.104   0.087   0.987 -0.9956  0.2846  0.3492
 1374SOL     OW 4120   0.446   3.552   0.867 -0.1594  0.0233 -0.7520
 1374SOL    HW1 4121   0.371   3.498   0.843  0.4153 -0.0293 -2.5515
 1374SOL    HW2 4122   0.408   3.635   0.897 -0.9645 -0.6118  0.0607
 1375SOL     OW 4123   0.764   2.228   3.054  0.5582  0.0403 -0.6092
 1375SOL    HW1 4124   0.696   2.287   3.023  0.5263 -0.0824 -0.7702
 1375SOL    HW2 4125   0.764   2.240   3.149  0.7104  0.4728 -0.6578
 1376SOL     OW 4126   2.338   3.349   0.801  0.3134  0.5711 -0.3209
 1376SOL    HW1 4127   2.250   3.330   0.768 -0.0834  0.7468  0.6141
 1376SOL    HW2 4128   2.328   3.430   0.851  0.9053  0.3107  0.2291
 1377SOL     OW 4129   3.507   2.036   0.578 -0.2225  0.2557 -0.6569
 1377SOL    HW1 4130   3.566   2.033   0.653  0.7944  0.3708 -1.4288
 1377SOL    HW2 4131   3.422   2.007   0.613  1.1133 -3.8923 -0.3396
 1378SOL     OW 4132   2.499   2.892   1.887  0.3146 -0.7592 -0.0510
 1378SOL    HW1 4133   2.575   2.890   1.828  1.7059 -0.0801  1.6354
 1378SOL    HW2 4134   2.475   2.799   1.897  0.7312 -0.9622 -0.8378
 1379SOL     OW 4135   0.253   1.846   1.499 -0.2770  0.2319 -0.6260
 1379SOL    HW1 4136   0.308   1.809   1.429 -0.2677  0.0679 -0.5344
 1379SOL    HW2 4137   0.294   1.930   1.519  0.5798 -0.3553  0.1768
 1380SOL     OW 4138   1.243   1.515   3.645  0.4215  0.4975  0.0128
 1380SOL    HW1 4139   1.291   1.579   3.594 -0.1054 -0.6619 -2.0356
 1380SOL    HW2 4140   1.221   1.445   3.583 -0.5529 -0.8325  1.7450
 1381SOL     OW 4141   2.248   1.591   0.764  0.2296  0.3104  0.1017
 1381SOL    HW1 4142   2.313   1.534   0.807  0.8125  0.3400 -0.7001
 1381SOL    HW2 4143   2.193   1.531   0.714  0.8782  0.4339 -0.7882
 1382SOL     OW 4144   2.684   0.067   2.127  0.5636  0.3667  0.0804
 1382SOL    HW1 4145   2.706   0.058   2.034 -0.1798  2.1739 -0.3143
 1382SOL    HW2 4146   2.631   0.147   2.132 -1.1924 -0.7938  1.7650
 1383SOL     OW 4147   0.748   1.446   1.762 -0.4130  0.3714 -0.0779
 1383SOL    HW1 4148   0.710   1.515   1.816 -0.1080 -0.2888  1.0244
 1383SOL    HW2 4149   0.824   1.487   1.720 -0.2131  0.7087  0.5958
 1384SOL     OW 4150   3.002   1.546   2.848 -0.6382  0.2129 -0.1672
 1384SOL    HW1 4151   2.936   1.482   2.877 -0.5319 -0.3650 -1.1754
 1384SOL    HW2 4152   3.085   1.501   2.860 -0.4705  0.6366  0.3044
 1385SOL     OW 4153   2.512   0.799   3.438  0.1707  0.0827 -0.4132
 1385SOL    HW1 4154   2.578   0.806   3.369  2.2024 -0.1969  1.4054
 1385SOL    HW2 4155   2.562   0.776   3.516 -2.0659  0.2628  1.1412
 1386SOL     OW 4156   3.470   3.214   3.496  0.2428 -0.0436  0.6048
 1386SOL    HW1 4157   3.392   3.173   3.534  0.5102 -0.8556  0.2848
 1386SOL    HW2 4158   3.464   3.306   3.524  0.0462 -0.4496  1.9817
 1387SOL     OW 4159   2.643   3.483   3.855  0.5393  0.2693  0.3121
 1387SOL    HW1 4160   2.631   3.473   3.761  0.3838 -0.7028  0.4248
 1387SOL    HW2 4161   2.595   3.410   3.894  1.8773 -0.2475  1.0697
 1388SOL     OW 4162   3.251   1.304   3.682  0.5560 -0.0530 -0.3143
 1388SOL    HW1 4163   3.254   1.250   3.761  1.5089  0.7558  0.2287
 1388SOL    HW2 4164   3.162   1.337   3.679  1.1735  2.1667  2.0364
 1389SOL     OW 4165   3.721   2.413   3.731 -0.7140 -0.6120  0.1056
 1389SOL    HW1 4166   3.676   2.334   3.701 -1.7572 -0.5279  1.3861
 1389SOL    HW2 4167   3.657   2.483   3.718  0.2062  0.0472 -1.0255
 1390SOL     OW 4168   2.086   1.547   3.174 -0.3303 -0.2233  0.1170
 1390SOL    HW1 4169   2.097   1.617   3.239  0.5734  0.3594 -0.6318
 1390SOL    HW2 4170   2.032   1.586   3.105 -1.0314 -0.7408  0.3633
 1391SOL     OW 4171   2.039   1.158   0.495 -0.5228 -0.0347 -0.5459
 1391SOL    HW1 4172   2.130   1.160   0.525 -1.2283 -0.5039  1.8455
 1391SOL    HW2 4173   2.006   1.246   0.510 -1.3863 -0.7157  1.9368
 1392SOL     OW 4174   1.082   1.470   0.053  0.2353 -1.1916  0.6986
 1392SOL    HW1 4175   1.006   1.511   0.012 -0.2561 -1.9290  0.8409
 1392SOL    HW2 4176   1.071   1.487   0.146  0.1699 -1.4144  0.7323
 1393SOL     OW 4177   1.539   0.122   0.782  0.3724 -0.1435 -0.6529
 1393SOL    HW1 4178   1.570   0.088   0.698  1.0434  0.2591 -0.5791
 1393SOL    HW2 4179   1.450   0.088   0.791  0.1566  0.1037 -1.7017
 1394SOL     OW 4180   0.781   0.484   0.775  0.4174 -0.2137  0.6149
 1394SOL    HW1 4181   0.839   0.533   0.717  0.1250  0.0062  0.5055
 1394SOL    HW2 4182   0.801   0.515   0.863  0.4206 -0.0923  0.5711
 1395SOL     OW 4183   0.444   0.405   2.178 -0.2685  0.0332 -0.2116
 1395SOL    HW1 4184   0.425   0.425   2.087 -0.7994  0.4119 -0.0239
 1395SOL    HW2 4185   0.458   0.490   2.219 -0.8816 -0.0716  0.2365
 1396SOL     OW 4186   0.800   2.670   0.190  0.5162  0.5948  0.0796
 1396SOL    HW1 4187   0.720   2.619   0.179  1.0248 -0.2521  0.1730
 1396SOL    HW2 4188   0.812   2.716   0.107 -0.1309  0.8369  0.1151
 1397SOL     OW 4189   0.730   3.404   3.950  0.2924  0.9027 -0.3033
 1397SOL    HW1 4190   0.713   3.315   3.980  1.8505  0.9417  0.7610
 1397SOL    HW2 4191   0.803   3.396   3.889  0.6822  1.4969  0.0780
 1398SOL     OW 4192   0.469   1.816   2.992 -0.0046 -0.2374 -0.5066
 1398SOL    HW1 4193   0.428   1.876   3.055 -1.0534 -1.5446  0.1064
 1398SOL    HW2 4194   0.420   1.830   2.911  0.6431  0.6740 -0.7629
 1399SOL     OW 4195   3.880   1.262   2.252 -1.0429  0.6204 -0.2381
 1399SOL    HW1 4196   3.897   1.252   2.158 -2.5977  2.6296 -0.7959
 1399SOL    HW2 4197   3.829   1.185   2.276 -0.1823 -0.1742 -0.9001
 1400SOL     OW 4198   1.956   3.691   0.964 -0.3501 -0.5425  0.0883
 1400SOL    HW1 4199   1.951   3.731   0.877  0.3141  1.1574  0.7888
 1400SOL    HW2 4200   1.934   3.762   1.024  2.0642 -0.8733  1.4753
 1401SOL     OW 4201   2.974   2.173   1.033  0.4914 -0.0572  0.5728
 1401SOL    HW1 4202   2.959   2.261   1.067 -0.8508 -0.8630  2.2743
 1401SOL    HW2 4203   3.056   2.179   0.984  0.3008  2.1681  0.4449
 1402SOL     OW 4204   2.841   3.498   0.551 -0.2763 -0.8011 -0.7905
 1402SOL    HW1 4205   2.881   3.411   0.558  0.3318 -0.4182  0.8822
 1402SOL    HW2 4206   2.748   3.480   0.536 -0.0504 -1.7300 -1.1762
 1403SOL     OW 4207   0.883   2.336   0.660  0.1277 -0.1287  1.0020
 1403SOL    HW1 4208   0.919   2.248   0.666 -0.8561 -0.5222  1.2821
 1403SOL    HW2 4209   0.867   2.361   0.751 -2.3707 -0.8498  0.8211
 1404SOL     OW 4210   3.663   1.672   2.509  0.0784  1.1991  0.6198
 1404SOL    HW1 4211   3.588   1.628   2.549  0.2333 -1.2543 -1.5485
 1404SOL    HW2 4212   3.625   1.749   2.466 -1.1303  0.2496 -0.0546
 1405SOL     OW 4213   0.313   3.064   1.897 -0.4735  0.1809 -0.2636
 1405SOL    HW1 4214   0.392   3.020   1.866  1.4461  2.4017  1.1235
 1405SOL    HW2 4215   0.306   3.143   1.844  0.7826  2.1598  2.3057
 1406SOL     OW 4216   2.268   0.275   0.095  0.2228 -0.6544  0.2138
 1406SOL    HW1 4217   2.235   0.279   0.185  1.0976 -1.6959  0.6174
 1406SOL    HW2 4218   2.233   0.193   0.060 -0.3944 -0.0876 -0.5284
 1407SOL     OW 4219   2.180   1.862   0.408 -0.5112  0.3393 -0.2159
 1407SOL    HW1 4220   2.092   1.838   0.435 -0.6259  0.6813 -0.2921
 1407SOL    HW2 4221   2.177   1.956   0.395 -0.1432  0.3482 -0.2500
 1408SOL     OW 4222   0.044   3.196   0.487 -0.6948  0.6285 -0.2207
 1408SOL    HW1 4223   0.091   3.153   0.416  0.2138  1.4542 -0.1468
 1408SOL    HW2 4224  -0.004   3.126   0.531 -1.0775  0.0789 -1.4963
 1409SOL     OW 4225   2.621   2.116   0.151  0.2463 -0.2291 -0.2524
 1409SOL    HW1 4226   2.615   2.102   0.246  2.9325  3.7410  0.7583
 1409SOL    HW2 4227   2.694   2.061   0.123  1.4139  0.7673  0.7003
 1410SOL     OW 4228   0.800   2.709   3.639 -0.2630  0.2075  0.1370
 1410SOL    HW1 4229   0.752   2.641   3.592 -1.0502 -0.1248  1.3808
 1410SOL    HW2 4230   0.774   2.791   3.597 -0.9806 -0.0776  0.0175
 1411SOL     OW 4231   1.154   0.034   0.833  0.1600  0.0766 -0.6171
 1411SOL    HW1 4232   1.081   0.095   0.821  1.3833  2.1613  1.5725
 1411SOL    HW2 4233   1.161  -0.012   0.750 -3.6592 -0.3048 -0.9101
 1412SOL     OW 4234   3.626   1.264   1.203 -0.1863  0.0663 -0.3672
 1412SOL    HW1 4235   3.571   1.279   1.126 -2.0778  0.5983  1.0226
 1412SOL    HW2 4236   3.572   1.292   1.277  1.3897 -0.8807  1.2115
 1413SOL     OW 4237   0.158   3.948   3.419 -0.3723 -0.4976  0.4242
 1413SOL    HW1 4238   0.232   3.974   3.473 -0.0901  2.0842 -1.0075
 1413SOL    HW2 4239   0.101   4.026   3.417 -1.8661 -1.5434 -0.5342
 1414SOL     OW 4240   1.336   1.316   0.157  0.0579 -0.5687 -0.1503
 1414SOL    HW1 4241   1.405   1.356   0.210  2.1430 -1.7631 -1.8395
 1414SOL    HW2 4242   1.342   1.360   0.072 -2.0778  0.0887 -0.0273
 1415SOL     OW 4243   1.639   2.557   2.053 -0.2280  0.5484  0.2223
 1415SOL    HW1 4244   1.711   2.538   1.994 -0.0771  0.1933  0.5161
 1415SOL    HW2 4245   1.575   2.489   2.036  0.5767 -0.6342  1.7095
 1416SOL     OW 4246   2.997   1.742   3.626 -0.3991 -0.0648  0.0635
 1416SOL    HW1 4247   2.918   1.793   3.643  0.2667  1.4825 -1.2151
 1416SOL    HW2 4248   3.017   1.759   3.534  2.6649  1.4267  0.8641
 1417SOL     OW 4249   1.514   2.230   2.078 -0.2605 -0.0641 -0.4723
 1417SOL    HW1 4250   1.539   2.225   2.170 -0.9986 -1.6947 -0.3180
 1417SOL    HW2 4251   1.591   2.203   2.030 -0.8212 -2.5364 -0.1253
 1418SOL     OW 4252   2.943   2.522   3.589 -0.2657 -0.0942  0.2901
 1418SOL    HW1 4253   2.988   2.482   3.663 -0.3111  0.6707  0.7382
 1418SOL    HW2 4254   2.986   2.606   3.577 -2.8611  1.6482  2.0916
 1419SOL     OW 4255   1.424   0.982   2.007  0.1278  0.2254 -1.0174
 1419SOL    HW1 4256   1.467   0.898   1.991 -1.1977 -0.7841  0.4482
 1419SOL    HW2 4257   1.333   0.960   2.026  0.5862  1.4190  3.9482
 1420SOL     OW 4258   3.714   1.536   4.028 -0.3482  0.2060  0.8425
 1420SOL    HW1 4259   3.775   1.473   3.990 -0.6658  0.4550 -0.1029
 1420SOL    HW2 4260   3.634   1.526   3.976 -0.4842  1.2206  0.8490
 1421SOL     OW 4261   0.393   2.625   1.338  0.1136 -0.0579 -0.9729
 1421SOL    HW1 4262   0.477   2.581   1.350  0.5910  1.4980  3.1251
 1421SOL    HW2 4263   0.334   2.580   1.398  0.2788  3.5752  2.3439
 1422SOL     OW 4264   1.908   1.681   0.101 -0.3318  0.2828 -0.9255
 1422SOL    HW1 4265   1.866   1.665   0.185 -0.2805 -0.0657 -0.9667
 1422SOL    HW2 4266   1.993   1.721   0.123 -1.6014  3.2191 -0.8872
 1423SOL     OW 4267   0.173   2.187   0.330 -0.8095 -0.1107  0.3553
 1423SOL    HW1 4268   0.242   2.165   0.393 -1.9369 -1.8219  1.0525
 1423SOL    HW2 4269   0.093   2.185   0.382 -1.4052  2.1792 -0.3669
 1424SOL     OW 4270   0.751   1.037   1.664  0.1144 -0.2291  0.0473
 1424SOL    HW1 4271   0.732   1.113   1.719 -0.8941  0.5235 -1.2761
 1424SOL    HW2 4272   0.847   1.035   1.658  0.1472  1.4999 -0.6267
 1425SOL     OW 4273   3.202   0.446   0.149 -0.9180  0.1654  0.0479
 1425SOL    HW1 4274   3.132   0.512   0.156  0.5359  1.7149  0.6787
 1425SOL    HW2 4275   3.164   0.367   0.188 -1.3027  1.8510  3.4946
 1426SOL     OW 4276   1.912   0.087   2.914  0.2477  0.3713  0.3217
 1426SOL    HW1 4277   1.992   0.141   2.912 -0.0887  0.8814 -0.8500
 1426SOL    HW2 4278   1.852   0.132   2.854 -0.3078 -0.9331 -0.1434
 1427SOL     OW 4279   2.963   2.266   0.065  0.1307 -0.0954  0.5126
 1427SOL    HW1 4280   2.949   2.250   0.159 -0.1670  1.0725  0.6870
 1427SOL    HW2 4281   3.034   2.330   0.062  0.9862 -1.0422 -0.1289
 1428SOL     OW 4282   0.473   1.498   1.150 -0.8363 -0.0946 -0.4401
 1428SOL    HW1 4283   0.430   1.560   1.210 -1.0810 -0.8297  0.1478
 1428SOL    HW2 4284   0.418   1.499   1.072 -1.5230 -0.4733  0.0305
 1429SOL     OW 4285   0.899   1.548   3.857 -0.1742  0.8370 -0.1151
 1429SOL    HW1 4286   0.842   1.608   3.809  0.0983  0.5206 -0.8478
 1429SOL    HW2 4287   0.940   1.494   3.789  1.5888  1.5570  0.3247
 1430SOL     OW 4288   3.221   0.941   1.992  0.2126  0.1636  0.2722
 1430SOL    HW1 4289   3.287   0.914   1.929 -0.3583 -1.5163  0.3637
 1430SOL    HW2 4290   3.197   0.861   2.038 -2.0622  0.6743  0.0812
 1431SOL     OW 4291   3.927   1.639   0.160  0.6738  0.1061  0.0956
 1431SOL    HW1 4292   3.930   1.730   0.131  1.4525 -0.4079 -1.5340
 1431SOL    HW2 4293   3.848   1.604   0.120 -0.4947  0.4137  1.9785
 1432SOL     OW 4294   1.092   2.011   0.447  0.3319  0.2580  0.0973
 1432SOL    HW1 4295   1.071   2.003   0.354 -0.3710  0.2543  0.2521
 1432SOL    HW2 4296   1.144   2.091   0.453  1.8816 -0.6448 -0.5380
 1433SOL     OW 4297   2.352   3.064   0.254  0.1805  0.5463 -0.1252
 1433SOL    HW1 4298   2.302   2.987   0.281  2.5340 -0.6327  1.1684
 1433SOL    HW2 4299   2.317   3.135   0.308 -0.5149 -0.0918  0.2822
 1434SOL     OW 4300   0.986   3.380   1.656 -0.5728 -0.0683 -0.0598
 1434SOL    HW1 4301   0.909   3.406   1.605  0.7949  1.3201 -1.5474
 1434SOL    HW2 4302   1.000   3.452   1.717 -0.2781 -0.1755  0.0023
 1435SOL     OW 4303   1.924   3.244   2.069 -0.1700 -0.7673 -0.4019
 1435SOL    HW1 4304   1.829   3.236   2.077 -0.4213 -0.1768 -2.1698
 1435SOL    HW2 4305   1.944   3.332   2.101  0.0812 -1.5728  1.7852
 1436SOL     OW 4306   2.448   0.405   1.396 -0.5143  0.1520  0.7158
 1436SOL    HW1 4307   2.426   0.497   1.415 -1.6666  0.5802 -2.2059
 1436SOL    HW2 4308   2.543   0.406   1.383 -0.5095  0.9392  0.7395
 1437SOL     OW 4309   3.542   0.602   3.001  0.2182  0.1884  0.3593
 1437SOL    HW1 4310   3.483   0.675   3.021 -0.8538 -0.9975  1.7585
 1437SOL    HW2 4311   3.624   0.625   3.044  0.6056  1.5052 -0.9715
 1438SOL     OW 4312   1.640   1.844   0.236 -0.2435  0.3127  0.6749
 1438SOL    HW1 4313   1.670   1.893   0.313  1.7010  0.2111  0.0160
 1438SOL    HW2 4314   1.706   1.776   0.223 -1.4282 -0.7328 -0.1206
 1439SOL     OW 4315   0.547   0.361   2.489  0.3090 -0.2681  0.7025
 1439SOL    HW1 4316   0.630   0.409   2.495  1.2969 -1.8681  0.6898
 1439SOL    HW2 4317   0.536   0.344   2.396  0.7991 -1.3713  0.8267
 1440SOL     OW 4318   2.158   1.010   0.044  0.2570 -0.1180 -0.2300
 1440SOL    HW1 4319   2.186   0.928   0.002  0.8401 -1.3004  2.2717
 1440SOL    HW2 4320   2.128   1.064  -0.029 -0.9199 -2.8252 -1.9470
 1441SOL     OW 4321   3.605   2.146   0.052  0.5615  0.5624 -0.9320
 1441SOL    HW1 4322   3.597   2.153   0.147  3.0468  2.3657 -0.7673
 1441SOL    HW2 4323   3.523   2.182   0.018 -0.9836 -1.3979  0.4509
 1442SOL     OW 4324   3.944   1.694   0.417  0.1354  0.8798 -0.0282
 1442SOL    HW1 4325   3.953   1.653   0.331  0.8881 -0.2447  0.5642
 1442SOL    HW2 4326   3.881   1.638   0.463 -1.3209  2.2439 -0.2709
 1443SOL     OW 4327   0.287   2.198   3.274 -0.5422  0.7508  0.3532
 1443SOL    HW1 4328   0.375   2.164   3.255 -0.3592  0.4867  1.5815
 1443SOL    HW2 4329   0.231   2.159   3.208  0.0997  0.0944  0.1881
 1444SOL     OW 4330   1.466   3.451   1.488  0.2080  0.0418  0.7569
 1444SOL    HW1 4331   1.546   3.398   1.493  0.2065  0.0412  0.7735
 1444SOL    HW2 4332   1.460   3.494   1.573 -0.8599 -1.4605  1.4929
 1445SOL     OW 4333   0.267   3.547   0.153  0.6616  0.1180 -0.3727
 1445SOL    HW1 4334   0.198   3.535   0.088  0.2480 -1.1537  0.2763
 1445SOL    HW2 4335   0.243   3.627   0.199 -0.1901 -0.1215 -0.3939
 1446SOL     OW 4336   3.421   3.749   2.283 -0.1196  0.1061  0.5079
 1446SOL    HW1 4337   3.331   3.780   2.293 -0.3121 -0.1557 -0.3350
 1446SOL    HW2 4338   3.444   3.714   2.369  0.1271  2.6001  1.5428
 1447SOL     OW 4339   1.720   1.051   3.496  0.1311  0.0633 -0.2356
 1447SOL    HW1 4340   1.673   1.056   3.413  0.8205 -0.7329 -0.6881
 1447SOL    HW2 4341   1.800   1.002   3.476  1.5318  1.9662  0.3454
 1448SOL     OW 4342   1.166   3.225   3.730  0.6413 -0.6816 -0.3433
 1448SOL    HW1 4343   1.173   3.131   3.712  2.6373 -1.1479  2.3495
 1448SOL    HW2 4344   1.256   3.257   3.727  0.1092  0.9084 -0.0897
 1449SOL     OW 4345   0.729   0.102   2.351 -0.1913  0.1870  0.4429
 1449SOL    HW1 4346   0.654   0.068   2.301 -0.9977  0.1068  1.6561
 1449SOL    HW2 4347   0.799   0.038   2.336 -0.7070 -0.3206  0.1618
 1450SOL     OW 4348   1.399   0.864   2.845  0.7680  0.4453  0.4071
 1450SOL    HW1 4349   1.444   0.921   2.908  0.5937 -1.3585  2.2590
 1450SOL    HW2 4350   1.308   0.863   2.874  0.3771  0.6482 -0.7322
 1451SOL     OW 4351   2.043   1.956   2.459  0.2759  0.2318 -0.1302
 1451SOL    HW1 4352   2.093   1.918   2.387  0.1180  1.9900 -1.2288
 1451SOL    HW2 4353   2.108   1.969   2.528  0.3555 -1.8100  0.2293
 1452SOL     OW 4354   1.692   2.248   3.115 -0.3731  0.0662 -0.8199
 1452SOL    HW1 4355   1.704   2.289   3.201 -1.5144 -2.0937  0.4759
 1452SOL    HW2 4356   1.598   2.251   3.100 -0.1490  0.6874 -2.1570
 1453SOL     OW 4357   3.568   3.101   0.545  0.0535 -0.0527  0.1709
 1453SOL    HW1 4358   3.544   3.086   0.454 -0.5696  1.9405 -0.0473
 1453SOL    HW2 4359   3.600   3.191   0.546 -1.1207  0.3907  2.1377
 1454SOL     OW 4360   2.417   0.892   2.141  0.0095  0.3224 -0.2967
 1454SOL    HW1 4361   2.406   0.814   2.088  0.7311  1.5459 -2.3589
 1454SOL    HW2 4362   2.512   0.908   2.140 -0.2527  2.0736 -1.2836
 1455SOL     OW 4363   1.333   1.480   3.934  0.5982 -0.4225 -0.2562
 1455SOL    HW1 4364   1.336   1.452   3.843  1.6841 -1.1070 -0.0308
 1455SOL    HW2 4365   1.385   1.560   3.936 -0.1077  0.0469 -0.3767
 1456SOL     OW 4366   0.291   3.369   1.491 -0.4987  0.7035 -0.2186
 1456SOL    HW1 4367   0.211   3.391   1.443 -0.3374 -1.6351 -1.7437
 1456SOL    HW2 4368   0.356   3.351   1.422  1.7136  3.4319  0.9499
 1457SOL     OW 4369   0.910   1.924   2.861 -0.1864  0.5640 -0.0284
 1457SOL    HW1 4370   1.005   1.931   2.862  0.0114 -1.5847  1.1488
 1457SOL    HW2 4371   0.886   1.929   2.768  1.1102  0.5687 -0.3771
 1458SOL     OW 4372   3.412   3.178   0.928  0.3293  0.2723 -0.0136
 1458SOL    HW1 4373   3.318   3.163   0.929  0.2264  0.7513 -0.8488
 1458SOL    HW2 4374   3.428   3.239   0.999 -0.1802  1.1315 -0.6182
 1459SOL     OW 4375   3.630   3.621   3.014  0.2661  0.3281 -0.6638
 1459SOL    HW1 4376   3.540   3.593   3.032  0.9094 -1.4574 -0.0011
 1459SOL    HW2 4377   3.667   3.639   3.100  1.1889 -1.1817 -0.6946
 1460SOL     OW 4378   0.338   2.613   0.820 -0.0271  0.4156 -0.0578
 1460SOL    HW1 4379   0.249   2.601   0.851 -0.1025 -0.0483 -0.4441
 1460SOL    HW2 4380   0.338   2.699   0.777 -0.3896  0.2307 -0.4245
 1461SOL     OW 4381   1.092   1.695   3.487 -0.4356  0.1512 -0.1735
 1461SOL    HW1 4382   1.110   1.642   3.564  0.3597  1.6599  0.7142
 1461SOL    HW2 4383   1.027   1.760   3.515 -1.5828 -0.4523 -1.3071
 1462SOL     OW 4384   0.656   2.749   2.471  0.3209  0.2805 -0.2033
 1462SOL    HW1 4385   0.732   2.797   2.440 -1.5371  1.3159 -3.7657
 1462SOL    HW2 4386   0.592   2.817   2.493  0.0198 -0.5726  1.7894
 1463SOL     OW 4387   2.126   2.812   3.319  0.4620 -0.7653  0.0511
 1463SOL    HW1 4388   2.085   2.888   3.277 -0.9944 -1.9578 -0.7733
 1463SOL    HW2 4389   2.181   2.850   3.388  1.0748  1.1270 -1.3733
 1464SOL     OW 4390   1.518   0.505   0.228  0.1590  0.3007  0.1743
 1464SOL    HW1 4391   1.499   0.575   0.167 -1.2687 -0.1141  0.0934
 1464SOL    HW2 4392   1.610   0.517   0.252  1.3477 -0.5914 -3.4042
 1465SOL     OW 4393   3.295   1.250   1.961 -0.4121  0.0120 -0.5512
 1465SOL    HW1 4394   3.280   1.159   1.986 -2.0062 -0.4380 -2.8048
 1465SOL    HW2 4395   3.264   1.301   2.036 -0.7810 -1.2595  0.1931
 1466SOL     OW 4396   2.549   0.585   1.613  0.9077 -0.4517  0.4931
 1466SOL    HW1 4397   2.630   0.605   1.660  1.4481  1.4395 -1.0863
 1466SOL    HW2 4398   2.481   0.633   1.660  0.8808 -1.1174  1.1514
 1467SOL     OW 4399   1.863   1.645   1.880  0.6560  0.4377  0.1861
 1467SOL    HW1 4400   1.772   1.667   1.900  0.1163 -0.4154 -1.1800
 1467SOL    HW2 4401   1.869   1.550   1.895  0.7436  0.1190 -1.6272
 1468SOL     OW 4402   3.554   1.057   1.455 -0.6618 -0.1198  0.4204
 1468SOL    HW1 4403   3.459   1.050   1.452 -0.6567  0.0510 -0.1772
 1468SOL    HW2 4404   3.574   1.075   1.547 -1.2648  0.6888  0.3986
 1469SOL     OW 4405   3.319   0.712   2.734 -0.0447  0.0066  0.1296
 1469SOL    HW1 4406   3.405   0.736   2.770  1.1686  0.3513 -2.7791
 1469SOL    HW2 4407   3.289   0.790   2.689 -0.1012 -1.2131 -2.0591
 1470SOL     OW 4408   1.542   1.803   0.892 -0.0068 -0.3066 -0.3646
 1470SOL    HW1 4409   1.458   1.759   0.883 -1.5507  2.2806  0.4054
 1470SOL    HW2 4410   1.526   1.893   0.864  4.0211 -0.8775 -6.3265
 1471SOL     OW 4411   2.048   3.759   3.936 -0.1201 -0.1257 -0.1887
 1471SOL    HW1 4412   2.040   3.793   4.025  2.5322  2.1930 -0.6996
 1471SOL    HW2 4413   1.969   3.790   3.891 -0.9407 -0.3714  1.0131
 1472SOL     OW 4414   2.937   2.811   3.570  0.0260 -0.4370 -0.3893
 1472SOL    HW1 4415   3.010   2.850   3.522 -0.0926  0.8387  0.4133
 1472SOL    HW2 4416   2.865   2.872   3.559 -0.7521 -1.3653 -0.6358
 1473SOL     OW 4417   2.201   0.190   0.573  0.3519  0.0917  0.4203
 1473SOL    HW1 4418   2.284   0.160   0.611 -0.0068 -2.5681 -0.6744
 1473SOL    HW2 4419   2.213   0.180   0.479 -0.6991  1.1701  0.1475
 1474SOL     OW 4420   3.057   3.530   3.270  0.9342 -0.2784  0.5183
 1474SOL    HW1 4421   3.045   3.440   3.299  0.2704 -0.7961 -1.2482
 1474SOL    HW2 4422   3.019   3.532   3.182  3.5232  0.9938 -0.6557
 1475SOL     OW 4423   3.719   0.775   0.180 -0.6233 -0.1554  0.1083
 1475SOL    HW1 4424   3.632   0.800   0.212  0.3463  0.5402  2.4262
 1475SOL    HW2 4425   3.768   0.754   0.260  1.1657 -1.1626 -1.1901
 1476SOL     OW 4426   0.492   1.420   0.478 -0.5088 -0.1764 -0.3564
 1476SOL    HW1 4427   0.435   1.452   0.408  0.5081  0.7605 -0.7787
 1476SOL    HW2 4428   0.580   1.451   0.454 -0.1115  0.0450  1.2458
 1477SOL     OW 4429   2.723   2.193   0.665 -0.5188  0.2213  0.3526
 1477SOL    HW1 4430   2.683   2.236   0.590 -2.5452  0.5794  1.5519
 1477SOL    HW2 4431   2.729   2.262   0.731  1.0547 -0.1236  0.6102
 1478SOL     OW 4432   3.125   2.516   2.138  0.0358  0.3680 -0.4992
 1478SOL    HW1 4433   3.111   2.481   2.050 -0.7921  2.4777 -1.2654
 1478SOL    HW2 4434   3.039   2.550   2.163  0.4302  0.3841  0.8751
 1479SOL     OW 4435   0.699   3.710   0.879 -0.2904  0.4075 -0.3347
 1479SOL    HW1 4436   0.623   3.657   0.904 -0.1294  0.0303 -0.6286
 1479SOL    HW2 4437   0.669   3.763   0.806 -0.5998  1.0998  0.2888
 1480SOL     OW 4438   0.699   0.631   2.246 -0.3616 -0.1360  0.4786
 1480SOL    HW1 4439   0.653   0.709   2.218 -0.1885 -0.5216 -0.9727
 1480SOL    HW2 4440   0.679   0.622   2.339  0.1853  2.0067  0.8453
 1481SOL     OW 4441   1.314   2.455   0.676 -0.0805  0.7137  0.0196
 1481SOL    HW1 4442   1.333   2.411   0.759 -0.4164 -1.5552 -1.0224
 1481SOL    HW2 4443   1.219   2.447   0.665 -0.5840  3.9634  0.9087
 1482SOL     OW 4444   1.114   0.035   3.177  0.1763 -0.3485  0.1056
 1482SOL    HW1 4445   1.200   0.000   3.156  1.0229  0.8618  1.4296
 1482SOL    HW2 4446   1.076   0.057   3.092  1.8080  0.5403 -0.4348
 1483SOL     OW 4447   3.036   3.216   1.963 -0.2665 -0.2037 -0.0526
 1483SOL    HW1 4448   3.098   3.289   1.959  0.2727 -0.5761  1.0745
 1483SOL    HW2 4449   3.087   3.141   1.931 -1.2195  0.1174 -2.5391
 1484SOL     OW 4450   3.919   1.808   1.524 -0.1006  0.3485 -0.0717
 1484SOL    HW1 4451   3.830   1.808   1.558  0.0035  2.3620  0.3119
 1484SOL    HW2 4452   3.927   1.725   1.477 -2.1959  0.1764 -0.1982
 1485SOL     OW 4453   0.207   3.408   2.764  0.8819 -0.3339 -0.0875
 1485SOL    HW1 4454   0.165   3.464   2.829 -0.5028  1.4475 -2.3813
 1485SOL    HW2 4455   0.233   3.468   2.694  0.2538 -2.3919 -2.2121
 1486SOL     OW 4456   3.584   3.879   3.735 -0.4506 -0.3408 -0.1769
 1486SOL    HW1 4457   3.507   3.889   3.791 -1.0740 -1.2886 -0.8239
 1486SOL    HW2 4458   3.592   3.964   3.690  0.6473  0.7832  1.9956
 1487SOL     OW 4459   1.325   0.152   2.499  0.1066  0.3240  0.3757
 1487SOL    HW1 4460   1.229   0.152   2.499  0.0668  0.2638 -1.4547
 1487SOL    HW2 4461   1.348   0.060   2.508 -0.2203 -0.4934 -4.4188
 1488SOL     OW 4462   2.925   0.869   0.869 -0.1463 -0.2375 -0.9526
 1488SOL    HW1 4463   2.996   0.879   0.933 -0.6346  0.4608 -0.5049
 1488SOL    HW2 4464   2.907   0.775   0.868 -2.1760 -0.0113  2.2478
 1489SOL     OW 4465   2.557   3.205   0.484 -0.1344  0.6606  0.0388
 1489SOL    HW1 4466   2.472   3.184   0.524 -0.5784  0.0162 -1.1964
 1489SOL    HW2 4467   2.558   3.156   0.402  0.6883  2.0440 -0.8252
 1490SOL     OW 4468   0.991   0.303   1.929 -0.8210  0.1854  0.0900
 1490SOL    HW1 4469   0.990   0.373   1.864 -0.6303 -0.9894 -1.2522
 1490SOL    HW2 4470   0.943   0.231   1.887 -0.1430 -0.8267  0.9935
 1491SOL     OW 4471   3.260   0.409   2.182 -0.7611  0.0322 -0.0871
 1491SOL    HW1 4472   3.305   0.412   2.267  0.1028 -1.4467 -0.4475
 1491SOL    HW2 4473   3.331   0.413   2.118 -1.2143 -1.0261 -0.6896
 1492SOL     OW 4474   0.404   2.453   0.426 -0.4195  0.4784  0.0178
 1492SOL    HW1 4475   0.402   2.465   0.521 -0.1324  1.4854 -0.0897
 1492SOL    HW2 4476   0.320   2.488   0.396 -0.0245  1.2576 -0.2030
 1493SOL     OW 4477   0.743   1.834   3.066 -0.2938 -0.1465 -0.2895
 1493SOL    HW1 4478   0.796   1.888   3.008  0.8512  0.4114  1.2356
 1493SOL    HW2 4479   0.662   1.818   3.017  1.5689 -1.8252 -3.1036
 1494SOL     OW 4480   1.068   0.581   0.067 -0.1257 -0.5078 -0.3727
 1494SOL    HW1 4481   1.040   0.671   0.051  1.8197  0.2322  0.0004
 1494SOL    HW2 4482   1.164   0.585   0.057 -0.0998 -2.7636 -1.4100
 1495SOL     OW 4483   0.930   2.730   3.922  0.4441 -0.1505 -0.0664
 1495SOL    HW1 4484   1.021   2.752   3.902  0.1965 -0.5344 -1.7858
 1495SOL    HW2 4485   0.889   2.717   3.836 -1.5029  1.0470  0.6175
 1496SOL     OW 4486   2.801   3.948   3.527 -0.8322  0.1629  0.5053
 1496SOL    HW1 4487   2.808   3.916   3.437 -0.7638  0.0084  0.5647
 1496SOL    HW2 4488   2.864   4.020   3.532  0.3424 -0.8608  0.8754
 1497SOL     OW 4489   1.057   3.421   2.215  0.0878 -0.3716  0.1734
 1497SOL    HW1 4490   1.036   3.501   2.168  0.5329 -1.1437 -1.4044
 1497SOL    HW2 4491   1.126   3.446   2.276 -0.0145  0.5049 -0.0639
 1498SOL     OW 4492   2.024   2.105   0.193  0.0224 -0.5784 -0.0194
 1498SOL    HW1 4493   1.964   2.140   0.127  1.5810  0.8427 -0.7659
 1498SOL    HW2 4494   2.109   2.101   0.149  0.9045 -0.5711  1.5857
 1499SOL     OW 4495   3.534   1.403   2.315  0.2130  0.5731 -0.0573
 1499SOL    HW1 4496   3.487   1.447   2.385  1.8848 -0.1772  1.6086
 1499SOL    HW2 4497   3.622   1.440   2.318  1.7177 -2.7709  1.4484
 1500SOL     OW 4498   2.126   2.678   1.500  0.6318  0.4603  0.7040
 1500SOL    HW1 4499   2.053   2.662   1.560  0.2519  1.1073  0.4261
 1500SOL    HW2 4500   2.167   2.758   1.532 -1.4661  2.6396 -1.6108
 1501SOL     OW 4501   1.957   3.865   0.149  0.5591 -0.1771 -0.5666
 1501SOL    HW1 4502   1.885   3.849   0.209  1.1905 -1.7073 -0.1778
 1501SOL    HW2 4503   2.033   3.880   0.205  0.5065  1.8721 -0.9625
 1502SOL     OW 4504   0.143   0.557   0.628 -0.3457 -0.9302 -0.1490
 1502SOL    HW1 4505   0.087   0.602   0.691  0.0829 -0.3810 -0.1487
 1502SOL    HW2 4506   0.126   0.464   0.642  1.0766 -0.9324  2.0370
 1503SOL     OW 4507   1.497   1.535   2.047 -0.4256  0.0608  0.4001
 1503SOL    HW1 4508   1.435   1.462   2.054  0.1066 -0.2668  5.5924
 1503SOL    HW2 4509   1.454   1.608   2.092  0.8616  1.5455 -0.6548
 1504SOL     OW 4510   1.384   1.529   2.384 -0.1268 -0.6876  0.5653
 1504SOL    HW1 4511   1.321   1.541   2.313  0.8014 -1.3229 -0.3930
 1504SOL    HW2 4512   1.379   1.436   2.406 -1.5366 -0.2403  2.4673
 1505SOL     OW 4513   1.206   3.467   1.374  0.4849  0.1314  0.2383
 1505SOL    HW1 4514   1.194   3.381   1.415  2.7475 -0.5233 -0.3588
 1505SOL    HW2 4515   1.297   3.490   1.392  0.1685  2.0242 -0.3828
 1506SOL     OW 4516   3.224   2.658   3.617  0.5083  0.1309 -0.1889
 1506SOL    HW1 4517   3.254   2.693   3.533 -0.0551  1.1247  0.0133
 1506SOL    HW2 4518   3.255   2.567   3.617 -1.1155 -0.5202 -2.3384
 1507SOL     OW 4519   3.645   0.194   1.486  0.0327  0.7599  0.5918
 1507SOL    HW1 4520   3.670   0.137   1.413 -0.9194 -0.5577  1.2564
 1507SOL    HW2 4521   3.723   0.246   1.502  1.6143 -1.5752  1.0654
 1508SOL     OW 4522   1.719   1.945   3.767  0.4687 -0.1873 -0.4242
 1508SOL    HW1 4523   1.684   1.856   3.754 -0.4932 -0.4948  3.1900
 1508SOL    HW2 4524   1.658   2.001   3.719 -0.9246 -1.2507  0.0172
 1509SOL     OW 4525   2.086   0.095   0.046  0.4451  0.0502 -0.1348
 1509SOL    HW1 4526   2.053   0.051   0.125  1.8705  1.3588  1.2577
 1509SOL    HW2 4527   2.007   0.113  -0.006 -0.5626 -0.6317  1.1033
 1510SOL     OW 4528   1.045   1.325   1.919 -0.6085 -0.1004  0.1988
 1510SOL    HW1 4529   1.047   1.291   2.008  0.9463  1.7911  0.9596
 1510SOL    HW2 4530   0.977   1.392   1.920 -0.6965 -0.1813 -0.0938
 1511SOL     OW 4531   2.220   0.288   1.322  0.4728 -0.9840  0.0882
 1511SOL    HW1 4532   2.188   0.359   1.265 -0.2569 -0.9782  0.4933
 1511SOL    HW2 4533   2.306   0.318   1.351 -0.7725  0.9260  2.2041
 1512SOL     OW 4534   1.620   1.114   1.883  0.3944  0.2469  0.1563
 1512SOL    HW1 4535   1.555   1.058   1.926  0.6696 -0.7583 -0.7030
 1512SOL    HW2 4536   1.704   1.075   1.907  0.6143  0.6261  0.0008
 1513SOL     OW 4537   2.564   3.545   0.681  0.0842 -0.0331 -0.4421
 1513SOL    HW1 4538   2.550   3.465   0.732  1.5778 -0.5229 -0.7493
 1513SOL    HW2 4539   2.476   3.578   0.664 -0.4973  0.3550  2.7412
 1514SOL     OW 4540   1.676   2.155   2.519 -0.0217  0.0669  0.5530
 1514SOL    HW1 4541   1.600   2.105   2.491  0.3325 -0.3721  0.3560
 1514SOL    HW2 4542   1.660   2.174   2.611 -1.3525  1.8022  0.0242
 1515SOL     OW 4543   0.219   3.822   1.647 -0.7183  0.0806 -0.2393
 1515SOL    HW1 4544   0.263   3.907   1.635 -1.3032  0.5758  1.0277
 1515SOL    HW2 4545   0.290   3.762   1.673 -0.5022  0.4774  0.1007
 1516SOL     OW 4546   0.402   3.029   1.127  0.3246 -0.1007  0.3823
 1516SOL    HW1 4547   0.333   2.968   1.102 -0.3897  0.7145  0.3483
 1516SOL    HW2 4548   0.461   2.977   1.181 -1.1934 -0.3923  1.8233
 1517SOL     OW 4549   3.858   3.004   0.650  0.0970 -0.6491  0.4415
 1517SOL    HW1 4550   3.766   3.003   0.622 -0.1618  1.0134  1.0917
 1517SOL    HW2 4551   3.854   3.015   0.745  0.9719 -0.2112  0.4378
 1518SOL     OW 4552   2.005   1.552   2.150  0.2457  0.3345 -0.1767
 1518SOL    HW1 4553   2.098   1.528   2.147  0.4692  0.5973  2.3824
 1518SOL    HW2 4554   1.960   1.469   2.168  0.1877  0.5243  0.5519
 1519SOL     OW 4555   0.998   3.847   3.362  0.3278 -0.0277  0.4634
 1519SOL    HW1 4556   1.045   3.907   3.304  0.9598 -0.0431  0.9457
 1519SOL    HW2 4557   1.007   3.886   3.449 -1.2720  0.3998  0.4587
 1520SOL     OW 4558   0.346   2.255   2.104  0.0831 -0.5004 -0.9716
 1520SOL    HW1 4559   0.343   2.172   2.055  1.4020 -1.9543  1.2231
 1520SOL    HW2 4560   0.383   2.318   2.042 -0.6360 -1.5971 -2.5990
 1521SOL     OW 4561   0.206   1.845   3.440  0.8162  0.0192  0.4401
 1521SOL    HW1 4562   0.168   1.807   3.519 -1.7341  0.0702 -0.6489
 1521SOL    HW2 4563   0.264   1.777   3.406 -2.1160 -2.2877 -0.4189
 1522SOL     OW 4564   1.610   3.986   1.320 -0.6219 -0.3313 -0.6776
 1522SOL    HW1 4565   1.650   3.915   1.370 -1.4277  0.5195  1.3157
 1522SOL    HW2 4566   1.589   3.948   1.235  2.1216 -1.4702 -0.9402
 1523SOL     OW 4567   2.493   2.135   2.307 -0.0234  0.3108 -0.8782
 1523SOL    HW1 4568   2.434   2.147   2.381 -0.1309 -0.2346 -0.8755
 1523SOL    HW2 4569   2.578   2.115   2.347  0.3943  1.9604 -0.8531
 1524SOL     OW 4570   0.058   0.178   2.588  0.1961 -0.1951 -0.0879
 1524SOL    HW1 4571   0.061   0.262   2.634 -1.1259  0.7941 -1.7057
 1524SOL    HW2 4572   0.098   0.195   2.503  0.3854 -1.3511 -0.2514
 1525SOL     OW 4573   1.998   1.229   0.822 -0.3453 -0.7861  0.5699
 1525SOL    HW1 4574   2.004   1.249   0.915  0.9564 -2.0233  0.7910
 1525SOL    HW2 4575   2.085   1.248   0.787 -0.8289 -0.2885 -0.4225
 1526SOL     OW 4576   1.311   3.508   1.894 -0.1438 -0.4977  0.0063
 1526SOL    HW1 4577   1.233   3.552   1.929 -1.0731 -2.4937  0.6571
 1526SOL    HW2 4578   1.334   3.444   1.962  0.9833 -1.1550 -0.9550
 1527SOL     OW 4579   3.684   2.783   1.159 -0.6787  1.2029  0.7140
 1527SOL    HW1 4580   3.752   2.850   1.157 -0.8596  1.4817 -2.7377
 1527SOL    HW2 4581   3.630   2.802   1.082 -2.4381 -1.2301  1.2353
 1528SOL     OW 4582   3.765   3.126   2.846  0.1522  0.7727 -0.3462
 1528SOL    HW1 4583   3.703   3.133   2.919  1.5380  1.5428  0.8081
 1528SOL    HW2 4584   3.789   3.216   2.826  0.4443  0.5117 -1.1822
 1529SOL     OW 4585   3.130   0.224   2.049 -0.1800 -0.2506 -0.2404
 1529SOL    HW1 4586   3.179   0.286   2.103 -1.1155  1.8535 -1.6731
 1529SOL    HW2 4587   3.197   0.176   2.000  0.5482  0.2595  0.2333
 1530SOL     OW 4588   0.502   0.538   1.582 -0.5240  0.5001  0.1128
 1530SOL    HW1 4589   0.450   0.471   1.628 -0.7494  0.3505 -0.3493
 1530SOL    HW2 4590   0.570   0.488   1.537  0.3617  0.7480  1.1547
 1531SOL     OW 4591   2.798   0.564   0.893 -0.0687 -0.2885 -0.5033
 1531SOL    HW1 4592   2.867   0.502   0.870 -0.0359 -1.6224  2.7352
 1531SOL    HW2 4593   2.717   0.524   0.861  0.0766 -1.5080  0.5973
 1532SOL     OW 4594   1.891   0.539   1.290 -0.1180  0.0897  0.4368
 1532SOL    HW1 4595   1.876   0.448   1.264  2.6577  0.2964 -2.5308
 1532SOL    HW2 4596   1.818   0.587   1.251  0.1908 -0.5381 -1.0082
 1533SOL     OW 4597   1.205   1.187   1.387  0.1194  1.0168  0.2379
 1533SOL    HW1 4598   1.300   1.187   1.382  0.0990  0.1956 -0.3146
 1533SOL    HW2 4599   1.179   1.269   1.346  0.5417  0.5760 -0.9533
 1534SOL     OW 4600   3.467   2.797   3.727 -0.5710  0.3203 -0.3317
 1534SOL    HW1 4601   3.540   2.752   3.684  0.0115 -0.4361  1.3778
 1534SOL    HW2 4602   3.391   2.741   3.711 -0.0152 -0.9034  1.0638
 1535SOL     OW 4603   3.561   0.651   3.856  0.0504 -0.2141  0.1660
 1535SOL    HW1 4604   3.563   0.744   3.835 -1.5395 -0.0197  0.7260
 1535SOL    HW2 4605   3.533   0.608   3.776 -2.3605  0.1482  0.7542
 1536SOL     OW 4606   1.029   0.250   3.746  0.4750  0.8398 -0.1221
 1536SOL    HW1 4607   1.083   0.220   3.673  1.1257  1.1547  0.2214
 1536SOL    HW2 4608   0.957   0.187   3.751  0.5585  0.6801 -0.8784
 1537SOL     OW 4609   2.564   1.160   3.748  0.3377  0.0951 -0.7609
 1537SOL    HW1 4610   2.489   1.192   3.698  0.3323  0.6116 -0.4340
 1537SOL    HW2 4611   2.628   1.134   3.682 -0.6241 -1.6410 -1.0805
 1538SOL     OW 4612   3.327   0.608   2.390 -0.4765  0.4396 -0.0911
 1538SOL    HW1 4613   3.272   0.546   2.437 -0.3690 -0.3231 -0.9287
 1538SOL    HW2 4614   3.386   0.644   2.456  0.8909 -1.9278  0.1248
 1539SOL     OW 4615   3.125   1.406   2.196  0.4177  0.2722  0.0983
 1539SOL    HW1 4616   3.147   1.489   2.238 -0.2766  0.0478  0.9546
 1539SOL    HW2 4617   3.196   1.347   2.219  2.9748  1.5372 -3.6655
 1540SOL     OW 4618   3.273   1.971   3.601  0.3378  0.1564 -0.3188
 1540SOL    HW1 4619   3.239   2.034   3.538 -0.2540  1.0973  0.8980
 1540SOL    HW2 4620   3.307   1.899   3.548 -2.6193 -0.3793 -1.6548
 1541SOL     OW 4621   1.221   0.372   0.559 -0.3019 -0.2109 -0.6641
 1541SOL    HW1 4622   1.200   0.362   0.466  1.2252  1.1411 -1.1866
 1541SOL    HW2 4623   1.286   0.303   0.576 -1.2319 -1.0381 -0.3386
 1542SOL     OW 4624   2.135   1.633   1.400  0.3955 -0.4642  0.2304
 1542SOL    HW1 4625   2.044   1.643   1.427  0.9428  2.3830  1.4681
 1542SOL    HW2 4626   2.140   1.545   1.362 -2.4846 -1.2722  1.4599
 1543SOL     OW 4627   2.649   1.445   3.155  0.2734  0.2243 -0.0883
 1543SOL    HW1 4628   2.684   1.493   3.079 -1.0389 -2.7570 -2.8145
 1543SOL    HW2 4629   2.564   1.485   3.172  1.1583  1.8157  0.8229
 1544SOL     OW 4630   0.618   1.971   3.730 -0.3126  0.0652 -0.1267
 1544SOL    HW1 4631   0.576   1.890   3.760 -0.6218  0.5915  0.8974
 1544SOL    HW2 4632   0.552   2.012   3.674 -0.4083 -0.0586 -0.1055
 1545SOL     OW 4633   0.174   1.494   0.129 -0.0245 -0.0349  0.1575
 1545SOL    HW1 4634   0.139   1.411   0.098 -0.7626 -0.0912  1.0810
 1545SOL    HW2 4635   0.097   1.544   0.156  0.5317  0.1983  1.3997
 1546SOL     OW 4636   0.102   1.851   2.190  0.2053 -0.4366  0.1221
 1546SOL    HW1 4637   0.112   1.906   2.112 -0.0415 -0.9535 -0.2778
 1546SOL    HW2 4638   0.173   1.879   2.247  1.2093 -0.9407 -0.8313
 1547SOL     OW 4639   2.255   0.274   2.581  0.2070  0.0647  0.4755
 1547SOL    HW1 4640   2.247   0.365   2.553 -0.1031 -0.2698 -0.5713
 1547SOL    HW2 4641   2.280   0.227   2.502 -0.3441 -0.8706  0.8420
 1548SOL     OW 4642   2.814   2.472   2.299  0.5797  0.4207 -0.0974
 1548SOL    HW1 4643   2.732   2.513   2.275  1.2224  2.1299  0.4913
 1548SOL    HW2 4644   2.822   2.486   2.394  0.8356 -1.0743  0.1293
 1549SOL     OW 4645   0.579   3.426   1.903 -0.0941  0.6924  0.7157
 1549SOL    HW1 4646   0.648   3.414   1.968 -2.1710 -0.9410  2.8078
 1549SOL    HW2 4647   0.606   3.372   1.829  0.7526 -0.1147  1.5863
 1550SOL     OW 4648   0.080   0.949   3.814  0.7019  0.7049 -0.1652
 1550SOL    HW1 4649   0.143   0.908   3.755  0.4542 -0.6187  0.4502
 1550SOL    HW2 4650   0.006   0.889   3.816  0.6344  0.7883  1.3339
 1551SOL     OW 4651   0.330   0.030   0.730  0.0515 -0.2609  0.6365
 1551SOL    HW1 4652   0.343   0.124   0.730  1.2074 -0.4068  0.0992
 1551SOL    HW2 4653   0.258   0.015   0.792 -1.6931  1.1677 -0.9057
 1552SOL     OW 4654   3.512   0.951   0.319 -0.2137 -0.0253 -0.3616
 1552SOL    HW1 4655   3.493   0.890   0.390  0.2510 -0.0181 -0.2287
 1552SOL    HW2 4656   3.439   0.941   0.259  0.0731 -1.0232 -0.5539
 1553SOL     OW 4657   2.116   2.882   0.641 -0.0109 -0.4779  0.0561
 1553SOL    HW1 4658   2.082   2.870   0.730  3.7662  0.3034  1.8288
 1553SOL    HW2 4659   2.143   2.794   0.615 -2.1456 -0.9015 -0.8728
 1554SOL     OW 4660   3.762   2.898   0.222  0.4411  0.4927  0.3562
 1554SOL    HW1 4661   3.704   2.864   0.154  0.1639  2.2953 -0.3637
 1554SOL    HW2 4662   3.713   2.971   0.260  1.1269  0.3043  1.6222
 1555SOL     OW 4663   3.242   3.537   1.055 -0.4749  0.6988  0.7535
 1555SOL    HW1 4664   3.149   3.516   1.048 -0.4535  0.6156  0.7169
 1555SOL    HW2 4665   3.274   3.483   1.127 -0.2732  0.0908  0.2236
 1556SOL     OW 4666   1.107   0.187   3.487  0.3231  0.3828  1.2141
 1556SOL    HW1 4667   1.130   0.278   3.468 -1.8253  0.5184 -1.4089
 1556SOL    HW2 4668   1.181   0.137   3.452 -0.2913  1.0176 -1.1827
 1557SOL     OW 4669   0.347   0.420   3.178  0.1396  0.0164 -0.6590
 1557SOL    HW1 4670   0.259   0.383   3.165  0.6380 -1.8993  0.9809
 1557SOL    HW2 4671   0.401   0.374   3.114 -0.1654  2.0528 -2.5150
 1558SOL     OW 4672   2.062   1.439   0.154  0.2294  0.1069  0.1881
 1558SOL    HW1 4673   2.064   1.477   0.242  0.2010  2.3310 -0.6961
 1558SOL    HW2 4674   2.000   1.494   0.105 -1.6044 -2.5100 -0.6663
 1559SOL     OW 4675   0.703   3.034   3.128  0.5303  0.1242  0.0272
 1559SOL    HW1 4676   0.771   3.089   3.091 -0.2750 -0.0343 -1.7918
 1559SOL    HW2 4677   0.698   2.959   3.070  2.3522 -2.5892  3.0090
 1560SOL     OW 4678   0.396   3.713   3.459  0.4903 -0.2723  0.0052
 1560SOL    HW1 4679   0.379   3.806   3.471  3.3614  0.0815  2.3724
 1560SOL    HW2 4680   0.389   3.675   3.547  2.1694 -1.7109 -0.4200
 1561SOL     OW 4681   1.870   1.520   2.417  0.0855 -0.5471  0.5319
 1561SOL    HW1 4682   1.849   1.573   2.494 -0.7827 -1.8248  1.2105
 1561SOL    HW2 4683   1.795   1.531   2.359  0.9199  0.7380 -0.3502
 1562SOL     OW 4684   0.396   0.918   2.854 -0.8139 -0.6415  0.3722
 1562SOL    HW1 4685   0.481   0.887   2.825  0.6786  3.4472 -0.3310
 1562SOL    HW2 4686   0.371   0.983   2.789 -2.5767  1.0817  2.6010
 1563SOL     OW 4687   2.059   0.163   2.359  1.1877  0.3083  0.5268
 1563SOL    HW1 4688   2.071   0.196   2.270 -0.0502 -1.7708 -0.4786
 1563SOL    HW2 4689   2.124   0.093   2.368  0.5912 -0.2158  0.8575
 1564SOL     OW 4690   0.260   3.533   3.196 -0.0520 -0.3547 -0.3987
 1564SOL    HW1 4691   0.351   3.554   3.216 -0.7013  2.2870  0.0470
 1564SOL    HW2 4692   0.257   3.437   3.196  2.7052 -0.4996 -0.4252
 1565SOL     OW 4693   1.553   2.796   0.368  0.5279  0.3239 -0.3074
 1565SOL    HW1 4694   1.481   2.759   0.420 -0.1955  3.4710  1.1301
 1565SOL    HW2 4695   1.518   2.798   0.279  0.4764 -1.9588 -0.4047
 1566SOL     OW 4696   2.082   3.539   1.747  0.7172  0.8077 -0.6561
 1566SOL    HW1 4697   2.053   3.585   1.825 -1.0266 -1.9974  0.5024
 1566SOL    HW2 4698   2.082   3.606   1.678  0.5074  2.9547  1.3024
 1567SOL     OW 4699   1.419   3.342   2.089 -0.5189 -0.1252 -0.2286
 1567SOL    HW1 4700   1.335   3.328   2.133 -0.7201  2.1064  0.1968
 1567SOL    HW2 4701   1.426   3.269   2.027 -3.3142  0.2175 -1.0738
 1568SOL     OW 4702   1.994   0.995   3.388 -0.3468 -0.8223  0.1413
 1568SOL    HW1 4703   2.072   0.958   3.430 -1.3817 -1.8380  1.2242
 1568SOL    HW2 4704   2.024   1.079   3.352  1.5513 -1.7851 -0.6225
 1569SOL     OW 4705   2.521   2.782   0.660  0.6669  0.1512 -0.0937
 1569SOL    HW1 4706   2.440   2.812   0.619  0.5950 -1.3159 -1.0814
 1569SOL    HW2 4707   2.565   2.730   0.592  0.7143 -2.0707  1.5422
 1570SOL     OW 4708   2.068   0.475   3.940 -0.2368 -0.0747 -0.2314
 1570SOL    HW1 4709   2.062   0.380   3.931 -0.8057 -0.4066  2.7600
 1570SOL    HW2 4710   2.153   0.490   3.980 -0.4572  0.6152 -0.0071
 1571SOL     OW 4711   0.467   3.720   1.588 -0.9978  0.1084 -0.5595
 1571SOL    HW1 4712   0.465   3.721   1.684 -0.6473 -1.7894 -0.4961
 1571SOL    HW2 4713   0.520   3.643   1.566 -0.8321  0.6848 -2.2824
 1572SOL     OW 4714   3.392   3.394   2.981  0.0358 -0.1017  0.5623
 1572SOL    HW1 4715   3.393   3.307   2.943 -1.9481 -0.0186  0.2178
 1572SOL    HW2 4716   3.366   3.380   3.072  2.0102 -0.0378  1.1882
 1573SOL     OW 4717   1.528   2.658   2.301 -0.3030  0.0979  0.8247
 1573SOL    HW1 4718   1.547   2.691   2.214  0.1610  0.8435  1.2064
 1573SOL    HW2 4719   1.484   2.574   2.285  1.3058 -0.6170 -0.1046
 1574SOL     OW 4720   3.755   1.086   3.774 -0.1616  0.5822  0.4463
 1574SOL    HW1 4721   3.778   1.015   3.714 -1.0019  0.3370  0.3956
 1574SOL    HW2 4722   3.762   1.047   3.861  0.0749  0.6454  0.4555
 1575SOL     OW 4723   3.737   2.945   3.555  0.1806 -0.1265  0.3511
 1575SOL    HW1 4724   3.812   2.951   3.615  0.4316 -0.3789  0.0695
 1575SOL    HW2 4725   3.772   2.974   3.471  1.1291 -3.9742 -0.8067
 1576SOL     OW 4726   0.897   2.488   2.666 -0.6420  0.4470  0.4595
 1576SOL    HW1 4727   0.853   2.419   2.617 -2.3556  1.5310  0.3806
 1576SOL    HW2 4728   0.930   2.445   2.745  0.1837 -0.8567 -0.5484
 1577SOL     OW 4729   0.244   3.072   3.555 -0.8273 -0.5390  0.2388
 1577SOL    HW1 4730   0.231   3.023   3.474  1.0825 -2.2761  0.8953
 1577SOL    HW2 4731   0.335   3.054   3.580 -1.3513 -0.0717  2.7579
 1578SOL     OW 4732   0.267   1.588   3.427  0.3112 -0.4732  0.1431
 1578SOL    HW1 4733   0.226   1.516   3.474 -0.8877  0.3338  0.3759
 1578SOL    HW2 4734   0.338   1.616   3.484 -0.3489 -0.3095  0.9033
 1579SOL     OW 4735   0.748   0.066   2.656 -0.1449  0.0701  0.3670
 1579SOL    HW1 4736   0.668   0.096   2.698  1.2320  1.7099  1.9587
 1579SOL    HW2 4737   0.732   0.077   2.562 -1.6379  0.6814  0.6814
 1580SOL     OW 4738   2.919   3.007   3.068  0.3529 -0.3722  0.1194
 1580SOL    HW1 4739   2.910   3.041   3.157  0.8297 -2.1327  0.8771
 1580SOL    HW2 4740   2.832   3.020   3.029 -0.2694 -0.8256  1.3068
 1581SOL     OW 4741   2.824   3.571   0.228 -0.4884  0.0904 -0.2260
 1581SOL    HW1 4742   2.771   3.533   0.299 -0.4724 -0.9186 -0.7401
 1581SOL    HW2 4743   2.833   3.500   0.164  2.8485 -0.3505  0.5365
 1582SOL     OW 4744   0.510   2.764   0.417  0.4135  0.9447  0.4678
 1582SOL    HW1 4745   0.418   2.789   0.406  0.2095  2.2674  3.9640
 1582SOL    HW2 4746   0.508   2.696   0.484  1.9074 -0.3984 -0.7823
 1583SOL     OW 4747   3.323   2.645   1.137 -0.8383 -0.2780 -0.8234
 1583SOL    HW1 4748   3.250   2.706   1.130  0.6862  1.6932 -0.5578
 1583SOL    HW2 4749   3.368   2.671   1.218  0.6958 -0.7747 -1.4844
 1584SOL     OW 4750   0.876   3.128   0.542  0.5561 -0.5053 -0.5351
 1584SOL    HW1 4751   0.832   3.158   0.622 -1.2532  0.5727 -1.8653
 1584SOL    HW2 4752   0.846   3.038   0.531  0.7567 -0.6345 -0.0428
 1585SOL     OW 4753   1.046   0.927   0.852 -0.1498  0.6934  0.3467
 1585SOL    HW1 4754   1.086   0.903   0.936 -0.3173  1.2985  0.5986
 1585SOL    HW2 4755   1.017   0.843   0.815  0.2334  0.3849  0.7313
 1586SOL     OW 4756   3.292   2.261   1.873 -0.1230 -0.3780 -0.4597
 1586SOL    HW1 4757   3.305   2.197   1.804 -2.8072 -0.2490 -1.1780
 1586SOL    HW2 4758   3.260   2.210   1.947 -3.4820  0.1343 -1.4222
 1587SOL     OW 4759   3.982   1.589   1.370 -0.0463  0.1533  0.1987
 1587SOL    HW1 4760   3.933   1.558   1.294 -0.3090  2.5185 -0.6592
 1587SOL    HW2 4761   3.974   1.517   1.434  0.3765 -1.9985 -2.0266
 1588SOL     OW 4762   0.340   3.902   1.901 -0.5510 -0.1472 -0.1443
 1588SOL    HW1 4763   0.413   3.925   1.844 -0.0525  1.2100  0.9787
 1588SOL    HW2 4764   0.353   3.809   1.921  1.0135  0.1125  0.1999
 1589SOL     OW 4765   0.009   1.917   1.290  0.4107 -0.0661 -0.1453
 1589SOL    HW1 4766   0.087   1.970   1.301 -1.6803  3.2042  0.3442
 1589SOL    HW2 4767  -0.006   1.878   1.376  1.4705 -0.7584 -0.2554
 1590SOL     OW 4768   1.874   2.611   2.265  0.3125 -0.3239  0.1214
 1590SOL    HW1 4769   1.781   2.593   2.264  0.3370 -0.6442  1.4676
 1590SOL    HW2 4770   1.915   2.529   2.293  0.8823  0.1645  0.7833
 1591SOL     OW 4771   0.463   0.948   2.468  0.1068  0.5563 -0.4593
 1591SOL    HW1 4772   0.418   0.944   2.383  2.8644  1.2432 -2.0649
 1591SOL    HW2 4773   0.423   1.023   2.512 -2.5853 -0.8378 -0.3066
 1592SOL     OW 4774   2.924   0.602   0.138  0.2530  0.3940 -0.4527
 1592SOL    HW1 4775   2.860   0.532   0.126  0.5655  0.0525 -0.1705
 1592SOL    HW2 4776   2.872   0.681   0.149 -0.0915  0.2926 -1.3033
 1593SOL     OW 4777   3.435   1.955   1.067 -0.6346 -0.0060  0.0535
 1593SOL    HW1 4778   3.386   1.950   1.149 -0.9292  3.8110  0.3175
 1593SOL    HW2 4779   3.525   1.975   1.093 -0.5899  0.5743 -0.4925
 1594SOL     OW 4780   1.398   2.073   1.738 -0.7113  0.5236 -0.4449
 1594SOL    HW1 4781   1.437   1.992   1.704 -0.6780 -0.7562  2.3896
 1594SOL    HW2 4782   1.304   2.064   1.719 -0.9237 -0.9233  1.0686
 1595SOL     OW 4783   3.687   2.627   2.727 -0.2610  0.2542 -0.3833
 1595SOL    HW1 4784   3.698   2.608   2.820 -0.2351  0.3824 -0.3600
 1595SOL    HW2 4785   3.599   2.595   2.706 -0.5278  0.8224 -0.1599
 1596SOL     OW 4786   2.774   3.522   2.560 -0.1016 -0.2282 -0.4056
 1596SOL    HW1 4787   2.773   3.516   2.465  1.1132  1.6961 -0.6098
 1596SOL    HW2 4788   2.683   3.510   2.586 -0.6666  0.4593 -1.9232
 1597SOL     OW 4789   2.889   3.804   1.668  0.3197  0.1906 -0.0933
 1597SOL    HW1 4790   2.876   3.830   1.577  1.2420  0.0025 -0.2940
 1597SOL    HW2 4791   2.933   3.719   1.662  0.7840  0.3784  0.5177
 1598SOL     OW 4792   3.328   2.158   3.803  0.5576  0.0850  0.3921
 1598SOL    HW1 4793   3.303   2.087   3.745  1.6518  0.5588 -0.7160
 1598SOL    HW2 4794   3.272   2.148   3.880 -1.1314 -0.4053 -0.8418
 1599SOL     OW 4795   1.088   3.795   1.718 -0.0867 -0.0766 -0.5037
 1599SOL    HW1 4796   1.140   3.848   1.658 -1.8101  2.1458 -0.1886
 1599SOL    HW2 4797   1.025   3.750   1.662 -2.3624  2.7714 -0.5096
 1600SOL     OW 4798   1.289   0.037   1.066 -0.2180  0.6494 -0.2074
 1600SOL    HW1 4799   1.227   0.035   0.993 -1.1368 -0.6725  0.5581
 1600SOL    HW2 4800   1.281  -0.049   1.107  1.1814  0.9174  0.7163
 1601SOL     OW 4801   1.592   1.006   3.772  0.6309  0.0481  0.0260
 1601SOL    HW1 4802   1.581   0.915   3.742 -2.0915  0.2579  0.0835
 1601SOL    HW2 4803   1.579   1.059   3.694  0.9370  0.4277  0.2287
 1602SOL     OW 4804   3.454   2.503   1.873  0.3977  0.3977  0.2654
 1602SOL    HW1 4805   3.412   2.530   1.792 -1.2555 -0.3983  0.8141
 1602SOL    HW2 4806   3.396   2.436   1.909  2.1518 -0.7484  1.0833
 1603SOL     OW 4807   0.723   0.048   3.151 -0.2188 -0.3690  0.1661
 1603SOL    HW1 4808   0.792   0.086   3.097 -0.1425 -1.4275 -0.5297
 1603SOL    HW2 4809   0.742  -0.046   3.150 -1.3675 -0.6173  0.3859
 1604SOL     OW 4810   1.677   2.070   0.817 -0.3742  0.2721  0.4510
 1604SOL    HW1 4811   1.697   2.156   0.855 -3.5172  1.2133  0.2888
 1604SOL    HW2 4812   1.720   2.007   0.874 -0.0756  1.8714  2.0795
 1605SOL     OW 4813   0.207   3.518   0.615  0.0409  0.4124 -0.1565
 1605SOL    HW1 4814   0.181   3.531   0.706  0.0261  2.0662 -0.3602
 1605SOL    HW2 4815   0.128   3.539   0.564  0.5186  1.1732 -0.6057
 1606SOL     OW 4816   0.881   1.140   0.673 -0.5511  0.1149 -0.3495
 1606SOL    HW1 4817   0.800   1.149   0.724  0.6202  0.0239  1.6611
 1606SOL    HW2 4818   0.948   1.120   0.739  0.7373 -2.1172 -2.1753
 1607SOL     OW 4819   1.637   2.667   2.598  0.1456  0.2212 -0.1174
 1607SOL    HW1 4820   1.693   2.605   2.645  0.4007 -0.3635 -1.1571
 1607SOL    HW2 4821   1.594   2.614   2.531  0.9690  1.2775 -1.5591
 1608SOL     OW 4822   3.013   1.694   0.211  0.4844  0.0825 -0.6349
 1608SOL    HW1 4823   2.919   1.681   0.226  0.8503 -0.8074  1.0568
 1608SOL    HW2 4824   3.037   1.622   0.153  0.7522 -1.8592  1.7163
 1609SOL     OW 4825   3.124   0.433   2.470  0.8835  0.7250 -0.4959
 1609SOL    HW1 4826   3.088   0.374   2.404  0.5949 -0.3703  0.6112
 1609SOL    HW2 4827   3.059   0.433   2.541  2.0965  0.3037  0.6492
 1610SOL     OW 4828   0.405   0.302   3.479 -0.0715 -0.4417 -0.6426
 1610SOL    HW1 4829   0.430   0.230   3.421  1.8967 -1.0328  0.8137
 1610SOL    HW2 4830   0.415   0.380   3.425  1.9729 -0.9449 -1.0820
 1611SOL     OW 4831   2.161   0.031   2.065 -0.1163 -0.0480 -0.5602
 1611SOL    HW1 4832   2.074  -0.008   2.071 -0.3262  0.4330 -0.4462
 1611SOL    HW2 4833   2.158   0.087   1.987 -0.4948  1.3827  0.4389
 1612SOL     OW 4834   4.003   1.422   0.814  0.1222 -0.1489 -0.1268
 1612SOL    HW1 4835   3.993   1.419   0.719 -1.6058  0.5949  0.0052
 1612SOL    HW2 4836   3.999   1.330   0.841  0.1544 -0.3330 -0.7279
 1613SOL     OW 4837   0.474   2.623   3.892 -1.1251  0.3188 -0.8622
 1613SOL    HW1 4838   0.506   2.642   3.981  0.4192 -1.6834 -0.9171
 1613SOL    HW2 4839   0.394   2.572   3.906 -0.6561 -0.3590 -0.5917
 1614SOL     OW 4840   1.120   3.023   1.618 -0.5754 -0.3909 -0.2245
 1614SOL    HW1 4841   1.169   3.105   1.620 -0.5740 -0.3267 -1.8686
 1614SOL    HW2 4842   1.088   3.012   1.708 -1.5599  1.9954 -0.2193
 1615SOL     OW 4843   1.614   1.927   3.456 -0.7979 -0.1125  0.1114
 1615SOL    HW1 4844   1.693   1.974   3.482 -0.9580 -0.1062  0.5978
 1615SOL    HW2 4845   1.635   1.889   3.370  0.0705 -0.8971  0.6549
 1616SOL     OW 4846   0.571   1.787   2.645 -0.1034  0.4770 -0.9772
 1616SOL    HW1 4847   0.501   1.841   2.683 -0.4700  2.0490 -3.5839
 1616SOL    HW2 4848   0.524   1.718   2.598  0.0638  1.1138 -2.1255
 1617SOL     OW 4849   3.228   2.123   2.078 -0.2754 -1.0407  0.2376
 1617SOL    HW1 4850   3.210   2.041   2.124  2.4990 -2.3915 -0.8593
 1617SOL    HW2 4851   3.302   2.161   2.125 -0.6287  0.1540 -0.1337
 1618SOL     OW 4852   3.570   1.257   3.651  0.2009 -0.2536 -0.2834
 1618SOL    HW1 4853   3.615   1.202   3.715 -0.2777 -0.3603 -0.0325
 1618SOL    HW2 4854   3.618   1.243   3.569  1.0848  0.2174  0.1405
 1619SOL     OW 4855   1.729   3.798   0.310  0.1068 -0.3724  0.3510
 1619SOL    HW1 4856   1.650   3.749   0.288  0.0070 -0.8605  1.6699
 1619SOL    HW2 4857   1.753   3.765   0.397  0.5820  1.2566  0.8612
 1620SOL     OW 4858   3.209   2.365   1.353 -0.2273 -0.1437 -0.6886
 1620SOL    HW1 4859   3.241   2.367   1.443  1.8430 -0.2663 -1.3618
 1620SOL    HW2 4860   3.131   2.309   1.356 -0.3743  0.1130  1.0571
 1621SOL     OW 4861   3.838   1.296   1.467 -0.2565  0.0631  0.4575
 1621SOL    HW1 4862   3.747   1.270   1.481 -0.6703  0.6990 -0.9313
 1621SOL    HW2 4863   3.881   1.278   1.551 -1.7097 -0.0037  1.2172
 1622SOL     OW 4864   1.492   2.835   3.334  0.5906 -0.7097 -0.3198
 1622SOL    HW1 4865   1.496   2.910   3.393  2.8801 -0.5007 -0.6567
 1622SOL    HW2 4866   1.419   2.782   3.367 -0.2210  0.9741  0.7211
 1623SOL     OW 4867   3.544   1.080   3.420  0.3179 -0.2240 -0.5620
 1623SOL    HW1 4868   3.455   1.115   3.413 -0.3236 -1.8118 -0.9717
 1623SOL    HW2 4869   3.555   1.060   3.513  1.2421  2.2913 -0.0555
 1624SOL     OW 4870   2.109   0.210   2.787  0.5565  0.0502  0.1581
 1624SOL    HW1 4871   2.031   0.266   2.780 -0.0250 -0.7759 -0.2150
 1624SOL    HW2 4872   2.150   0.216   2.701  1.7533  1.6463  0.7989
 1625SOL     OW 4873   2.660   1.055   1.192 -0.4314 -0.0617 -0.1288
 1625SOL    HW1 4874   2.637   1.123   1.255  1.3623  0.2095  0.2754
 1625SOL    HW2 4875   2.682   1.102   1.112 -1.7635 -0.3511 -0.6929
 1626SOL     OW 4876   3.772   3.291   1.842 -0.0885  0.0016 -0.6216
 1626SOL    HW1 4877   3.841   3.260   1.782 -0.0442 -1.4318  0.1235
 1626SOL    HW2 4878   3.752   3.215   1.896  0.0827  1.3186  1.3963
 1627SOL     OW 4879   1.853   2.068   3.499 -0.0120 -0.1360  0.5712
 1627SOL    HW1 4880   1.905   1.991   3.525 -1.3917 -0.7019  1.7673
 1627SOL    HW2 4881   1.872   2.079   3.406  2.6744  0.0296  1.0413
 1628SOL     OW 4882   0.441   3.416   2.230 -0.0205  0.0413  0.2458
 1628SOL    HW1 4883   0.509   3.380   2.287  2.6155  2.1370 -1.3502
 1628SOL    HW2 4884   0.390   3.339   2.202  1.5791 -1.6124  1.6422
 1629SOL     OW 4885   3.873   1.287   3.177  0.5821  0.0869 -0.5183
 1629SOL    HW1 4886   3.787   1.249   3.156  1.1335 -1.2316 -0.5113
 1629SOL    HW2 4887   3.923   1.214   3.213  1.1416  1.2320  1.1642
 1630SOL     OW 4888   3.374   3.469   3.647 -0.0136 -0.5756  0.2765
 1630SOL    HW1 4889   3.460   3.508   3.631 -0.6629 -0.1307 -2.6932
 1630SOL    HW2 4890   3.312   3.534   3.614 -1.2319 -2.9157 -2.4649
 1631SOL     OW 4891   2.448   1.801   3.437 -0.5125 -0.2836  0.5482
 1631SOL    HW1 4892   2.541   1.776   3.441 -0.7421 -1.2014  0.4563
 1631SOL    HW2 4893   2.446   1.891   3.469  0.1567 -0.9076  2.4832
 1632SOL     OW 4894   3.379   3.900   3.911  0.0600 -0.1398 -0.4691
 1632SOL    HW1 4895   3.376   3.820   3.964  1.7398 -0.7551 -1.2431
 1632SOL    HW2 4896   3.287   3.918   3.891 -0.5685 -0.2789  2.0239
 1633SOL     OW 4897   0.307   1.542   3.828  0.1023  0.3289  0.0745
 1633SOL    HW1 4898   0.277   1.549   3.919 -3.4577  2.5764 -1.0506
 1633SOL    HW2 4899   0.279   1.454   3.801 -0.0430  0.1575  0.7631
 1634SOL     OW 4900   1.464   2.024   1.070 -0.3986 -0.5288 -0.4235
 1634SOL    HW1 4901   1.401   2.030   0.998 -0.7876  2.2445  0.0597
 1634SOL    HW2 4902   1.506   2.110   1.072  4.8961 -2.6631 -1.9276
 1635SOL     OW 4903   1.672   1.469   1.119  0.1753  0.5402 -0.3058
 1635SOL    HW1 4904   1.673   1.530   1.192 -2.4470  1.8844 -1.2737
 1635SOL    HW2 4905   1.581   1.439   1.114  0.2161  0.6182 -3.0754
 1636SOL     OW 4906   1.393   1.025   0.532  0.5349  0.5481  0.1568
 1636SOL    HW1 4907   1.311   1.046   0.487  0.0194  0.4508  1.0069
 1636SOL    HW2 4908   1.366   0.962   0.600  1.3859  0.2033  0.1833
 1637SOL     OW 4909   3.740   0.393   3.779  0.7066  0.5512  0.0432
 1637SOL    HW1 4910   3.775   0.452   3.712  0.7903  0.5924  0.1221
 1637SOL    HW2 4911   3.818   0.365   3.829  0.7524 -0.1394 -0.4000
 1638SOL     OW 4912   1.369   2.413   2.181  0.7348 -0.1069  0.0506
 1638SOL    HW1 4913   1.305   2.395   2.250 -0.9112 -0.1482 -1.4401
 1638SOL    HW2 4914   1.382   2.330   2.137 -0.7263  0.5365 -1.7165
 1639SOL     OW 4915   2.411   1.086   1.679 -0.2256  0.2379  0.1688
 1639SOL    HW1 4916   2.397   1.176   1.648 -0.6684 -0.0427 -0.4765
 1639SOL    HW2 4917   2.417   1.034   1.599 -0.4719 -0.3797  0.5426
 1640SOL     OW 4918   1.281   4.007   1.648 -0.0484  0.0871  0.1374
 1640SOL    HW1 4919   1.345   3.965   1.705  0.9119  0.7429 -0.4341
 1640SOL    HW2 4920   1.320   4.003   1.561 -0.9248  0.2315 -0.2763
 1641SOL     OW 4921   0.652   0.844   1.448 -0.5179  0.5082  0.2064
 1641SOL    HW1 4922   0.692   0.926   1.420  0.3802  0.2495  0.6797
 1641SOL    HW2 4923   0.655   0.788   1.370 -1.5948  1.0823 -0.2600
 1642SOL     OW 4924   3.793   1.986   3.202 -0.8935 -0.5889  0.0960
 1642SOL    HW1 4925   3.711   1.950   3.167 -0.4826 -0.7264 -0.7449
 1642SOL    HW2 4926   3.842   1.909   3.232  0.8640 -1.0977 -3.5353
 1643SOL     OW 4927   2.556   3.239   3.779  1.5857 -0.0485  0.1322
 1643SOL    HW1 4928   2.554   3.202   3.868  2.3626  0.0751  0.2030
 1643SOL    HW2 4929   2.600   3.173   3.726  1.2722 -0.0477 -0.1311
 1644SOL     OW 4930   1.225   3.538   3.819 -0.5617 -0.0074 -0.3002
 1644SOL    HW1 4931   1.266   3.453   3.803 -1.5635 -0.4888 -0.3769
 1644SOL    HW2 4932   1.198   3.568   3.732 -2.9268 -1.0404 -0.0028
 1645SOL     OW 4933   2.483   2.027   3.083 -0.2895  0.3724  0.0778
 1645SOL    HW1 4934   2.435   1.973   3.145  1.7720  1.3521  2.6989
 1645SOL    HW2 4935   2.563   2.052   3.129  1.0929  1.6999 -2.7808
 1646SOL     OW 4936   3.437   2.294   0.567  0.1216 -0.0531  0.0598
 1646SOL    HW1 4937   3.350   2.270   0.599  0.6106  0.5311  1.9528
 1646SOL    HW2 4938   3.481   2.211   0.553 -0.7254 -0.3559 -0.9097
 1647SOL     OW 4939   2.986   3.597   3.008 -0.1357  0.0917  0.0023
 1647SOL    HW1 4940   2.982   3.690   3.031  2.1939  0.0887  0.6757
 1647SOL    HW2 4941   2.947   3.592   2.921  0.8949  1.9602 -0.6306
 1648SOL     OW 4942   2.984   1.062   3.527 -0.3147  0.0369 -0.4117
 1648SOL    HW1 4943   2.970   1.040   3.435  0.9684  1.1089 -0.8974
 1648SOL    HW2 4944   2.985   0.978   3.572  3.2669 -0.9868 -2.0226
 1649SOL     OW 4945   3.077   2.339   3.781 -0.1347 -1.1357 -0.3780
 1649SOL    HW1 4946   3.119   2.253   3.779  0.1302 -0.9886 -1.3868
 1649SOL    HW2 4947   2.995   2.325   3.827 -0.1966 -1.9723 -0.7401
 1650SOL     OW 4948   0.138   1.772   1.067  0.5052 -0.3962  0.2653
 1650SOL    HW1 4949   0.103   1.779   0.978  2.0261 -0.0742 -0.3368
 1650SOL    HW2 4950   0.171   1.860   1.087 -1.0132 -0.0945  1.7083
 1651SOL     OW 4951   2.391   3.225   1.121 -0.0703 -1.1773 -0.2455
 1651SOL    HW1 4952   2.341   3.167   1.064  0.1184 -1.1786 -0.4112
 1651SOL    HW2 4953   2.357   3.312   1.104 -2.1203 -1.4788  1.8232
 1652SOL     OW 4954   3.334   1.129   0.993 -0.4392 -0.1966  0.1668
 1652SOL    HW1 4955   3.298   1.153   0.908  1.0045  0.1484 -0.3698
 1652SOL    HW2 4956   3.368   1.210   1.030  1.5235 -0.7902 -0.2194
 1653SOL     OW 4957   2.663   1.540   2.058 -0.4386 -0.1044  0.7088
 1653SOL    HW1 4958   2.673   1.604   1.988 -0.5583  1.8291  2.3582
 1653SOL    HW2 4959   2.733   1.562   2.120 -0.8806 -1.1695  1.6133
 1654SOL     OW 4960   3.175   3.356   1.349 -0.1917  0.1586  0.2266
 1654SOL    HW1 4961   3.142   3.337   1.261  1.2945 -0.4502 -0.2395
 1654SOL    HW2 4962   3.097   3.379   1.399 -1.5357 -2.5753 -0.4151
 1655SOL     OW 4963   1.993   1.825   3.627  0.2360  0.4445  0.4461
 1655SOL    HW1 4964   1.974   1.764   3.698 -1.5929  1.9137  1.2816
 1655SOL    HW2 4965   2.046   1.893   3.667 -0.2270  0.9273  0.2430
 1656SOL     OW 4966   2.321   3.901   1.040 -0.5769  0.3956 -0.9606
 1656SOL    HW1 4967   2.382   3.974   1.047  0.6814 -0.6200 -0.8043
 1656SOL    HW2 4968   2.235   3.941   1.031  0.0019  1.8815 -0.1696
 1657SOL     OW 4969   3.305   0.471   3.320 -0.5088  0.5056 -0.1311
 1657SOL    HW1 4970   3.274   0.438   3.405  0.7459  1.2882  0.6698
 1657SOL    HW2 4971   3.230   0.515   3.282 -0.8130  1.0690  1.0712
 1658SOL     OW 4972   0.285   2.110   2.343 -0.0181  0.7889 -0.8133
 1658SOL    HW1 4973   0.276   2.144   2.253  0.7775 -0.4409 -1.3813
 1658SOL    HW2 4974   0.240   2.175   2.397 -0.9061  1.3334 -2.1438
 1659SOL     OW 4975   2.509   1.763   0.092 -0.4317  0.1867 -1.0489
 1659SOL    HW1 4976   2.562   1.797   0.020 -0.3628  0.8199 -0.7067
 1659SOL    HW2 4977   2.572   1.721   0.150 -0.5603 -0.8928 -1.6592
 1660SOL     OW 4978   0.237   0.640   1.525  0.2511 -0.1335 -0.5403
 1660SOL    HW1 4979   0.281   0.713   1.569 -1.4706  0.5356  0.1609
 1660SOL    HW2 4980   0.299   0.567   1.533  0.6966  0.4139  1.5462
 1661SOL     OW 4981   2.243   0.873   3.656  0.0024  0.2905  0.5471
 1661SOL    HW1 4982   2.217   0.897   3.567 -1.2993  0.2635  0.8984
 1661SOL    HW2 4983   2.198   0.789   3.672  1.2069 -0.3239  0.7993
 1662SOL     OW 4984   2.027   1.832   1.700  0.0328 -0.1592  0.4896
 1662SOL    HW1 4985   2.102   1.780   1.726  0.6086  0.3454 -0.1325
 1662SOL    HW2 4986   1.952   1.772   1.710  0.3270 -0.2666  2.3511
 1663SOL     OW 4987   2.020   3.007   2.886  0.3388 -0.4154  0.0474
 1663SOL    HW1 4988   1.974   3.055   2.817  0.6800  0.4102  0.3875
 1663SOL    HW2 4989   2.112   3.029   2.875  0.3041  0.5770  1.3875
 1664SOL     OW 4990   3.672   1.740   3.477  0.1041 -0.3169 -0.6753
 1664SOL    HW1 4991   3.751   1.691   3.454  1.3787  1.6293 -0.6974
 1664SOL    HW2 4992   3.660   1.723   3.570  2.5265  1.8607  0.1484
 1665SOL     OW 4993   2.491   1.593   2.455 -0.5431  0.2362 -0.9528
 1665SOL    HW1 4994   2.404   1.561   2.435 -0.3575 -1.0915  0.2110
 1665SOL    HW2 4995   2.546   1.515   2.462  0.5438  0.9783 -0.7837
 1666SOL     OW 4996   1.636   2.195   0.107  0.2426  0.1122  0.5776
 1666SOL    HW1 4997   1.695   2.120   0.095 -0.6810 -0.5507  0.1418
 1666SOL    HW2 4998   1.625   2.201   0.202  2.6246  1.5393  0.8679
 1667SOL     OW 4999   3.860   3.853   0.502 -0.2572  0.1487 -0.4279
 1667SOL    HW1 5000   3.779   3.897   0.525 -0.8640 -0.7419 -0.8069
 1667SOL    HW2 5001   3.900   3.831   0.586  0.8692  2.7926 -0.1886
 1668SOL     OW 5002   3.778   0.051   2.130  0.6908 -0.3468 -0.3593
 1668SOL    HW1 5003   3.850   0.072   2.189 -0.4602  0.2402  0.9104
 1668SOL    HW2 5004   3.744   0.137   2.103 -2.0582 -0.3657  2.3615
 1669SOL     OW 5005   1.414   1.803   3.604  0.3730  0.1852 -0.0170
 1669SOL    HW1 5006   1.337   1.791   3.547 -1.0354  1.0364  1.5954
 1669SOL    HW2 5007   1.479   1.844   3.548 -0.1411 -1.0261 -1.5759
 1670SOL     OW 5008   0.044   0.665   3.064  0.2060 -0.4894 -0.3940
 1670SOL    HW1 5009   0.075   0.708   2.984 -0.2669 -1.7258 -1.2731
 1670SOL    HW2 5010   0.055   0.571   3.047  0.7782 -0.7556  1.2879
 1671SOL     OW 5011   3.406   2.780   1.367 -0.1568 -0.1411 -0.1600
 1671SOL    HW1 5012   3.494   2.775   1.404 -0.7118 -2.9385  1.0085
 1671SOL    HW2 5013   3.385   2.874   1.367  3.1869  0.7268 -1.5139
 1672SOL     OW 5014   3.947   0.579   2.282  0.7653  0.7369 -0.3953
 1672SOL    HW1 5015   3.889   0.514   2.323  0.4928  1.7153  0.8689
 1672SOL    HW2 5016   3.902   0.604   2.201  1.0163 -0.8268 -1.0423
 1673SOL     OW 5017   2.188   1.221   1.895  0.6790  0.2619 -0.1299
 1673SOL    HW1 5018   2.148   1.307   1.885 -3.6207 -1.5429 -0.9288
 1673SOL    HW2 5019   2.154   1.170   1.821  2.6714 -2.2692  0.5463
 1674SOL     OW 5020   2.052   0.520   0.859  0.5637 -0.4257  0.4097
 1674SOL    HW1 5021   2.034   0.426   0.859  1.6194 -0.6399  1.2630
 1674SOL    HW2 5022   2.059   0.543   0.767 -1.8229 -0.7371  0.0799
 1675SOL     OW 5023   0.922   2.656   1.129 -0.1929  0.2548  0.3681
 1675SOL    HW1 5024   0.877   2.695   1.203 -1.0758 -1.1058  0.5884
 1675SOL    HW2 5025   0.890   2.705   1.053 -0.1049  0.9445  0.7686
 1676SOL     OW 5026   0.083   1.476   1.594  0.4483  0.0794  0.0431
 1676SOL    HW1 5027   0.071   1.548   1.656  1.8143 -0.8840  1.4959
 1676SOL    HW2 5028   0.172   1.444   1.610  0.0679 -1.6140 -0.9042
 1677SOL     OW 5029   0.302   1.950   1.992 -0.4708  0.1575 -0.4737
 1677SOL    HW1 5030   0.209   1.973   1.988 -0.6237 -0.5345 -1.2498
 1677SOL    HW2 5031   0.313   1.884   1.924 -0.3252 -2.8978  2.2528
 1678SOL     OW 5032   3.531   2.448   2.201 -0.4696 -0.8857 -0.3386
 1678SOL    HW1 5033   3.610   2.417   2.245 -0.1103 -0.0547 -0.3945
 1678SOL    HW2 5034   3.535   2.407   2.114 -0.7799 -1.8949  0.1117
 1679SOL     OW 5035   0.415   1.243   2.012 -0.2623 -0.0034  0.0739
 1679SOL    HW1 5036   0.486   1.181   1.998 -0.7685 -0.1281 -2.5598
 1679SOL    HW2 5037   0.432   1.314   1.950 -2.6815 -0.3610 -1.1679
 1680SOL     OW 5038   3.628   0.278   2.050 -0.0493 -1.0858 -0.2448
 1680SOL    HW1 5039   3.556   0.254   1.992  0.0727 -0.6733 -0.5792
 1680SOL    HW2 5040   3.599   0.252   2.137 -0.3648 -1.4354 -0.4520
 1681SOL     OW 5041   2.020   0.879   1.814 -0.5620  0.7193  0.1846
 1681SOL    HW1 5042   1.948   0.838   1.765  0.1941  0.5980 -0.8638
 1681SOL    HW2 5043   2.086   0.899   1.747 -0.6813  3.2051  0.7097
 1682SOL     OW 5044   0.830   3.740   2.117  0.0735  0.1828 -0.8609
 1682SOL    HW1 5045   0.775   3.736   2.195  0.4666  0.3304 -0.5700
 1682SOL    HW2 5046   0.833   3.833   2.094  0.8521  0.2852 -0.3942
 1683SOL     OW 5047   0.296   2.426   3.899  0.1081 -0.1195  1.2414
 1683SOL    HW1 5048   0.267   2.373   3.973  1.9481 -0.8625  1.4741
 1683SOL    HW2 5049   0.284   2.370   3.822 -0.0199 -0.0462  1.2071
 1684SOL     OW 5050   1.887   0.120   2.553  0.4792  0.3003  0.1658
 1684SOL    HW1 5051   1.845   0.205   2.541 -0.7923 -0.3138  0.0590
 1684SOL    HW2 5052   1.962   0.121   2.494 -0.2535  0.8821 -0.7874
 1685SOL     OW 5053   3.731   0.249   3.481 -0.5723 -0.0231 -0.3113
 1685SOL    HW1 5054   3.725   0.336   3.520 -0.0324 -0.0384 -0.1774
 1685SOL    HW2 5055   3.684   0.256   3.399 -0.2056  0.5069 -0.4820
 1686SOL     OW 5056   1.934   3.003   2.384 -0.4923 -0.4766  0.0547
 1686SOL    HW1 5057   1.843   2.974   2.373 -0.5667 -0.2195 -0.0090
 1686SOL    HW2 5058   1.984   2.948   2.323 -0.4121 -1.5721  1.0769
 1687SOL     OW 5059   3.727   1.311   0.722  0.0963  0.4970 -0.2183
 1687SOL    HW1 5060   3.798   1.248   0.709  0.7343  1.2182 -0.2896
 1687SOL    HW2 5061   3.689   1.322   0.635  2.0906  2.6456 -0.9219
 1688SOL     OW 5062   2.729   0.718   3.565  1.3107 -0.4224  0.1732
 1688SOL    HW1 5063   2.808   0.764   3.592  2.4570 -1.4196 -1.2811
 1688SOL    HW2 5064   2.761   0.634   3.532 -0.4922 -1.3826  0.7355
 1689SOL     OW 5065   2.627   1.386   1.777 -0.1857  0.8268 -0.3472
 1689SOL    HW1 5066   2.635   1.293   1.796  1.8336  0.8650 -0.7311
 1689SOL    HW2 5067   2.636   1.429   1.862  1.8881  0.7270 -0.4441
 1690SOL     OW 5068   1.005   3.684   1.370  0.6887 -0.1719 -0.1351
 1690SOL    HW1 5069   1.099   3.676   1.355  0.2734 -0.5138 -3.1790
 1690SOL    HW2 5070   0.981   3.769   1.333 -0.5707 -1.3275 -2.1993
 1691SOL     OW 5071   0.043   2.547   2.185  0.0503  0.2129 -0.3986
 1691SOL    HW1 5072   0.069   2.632   2.150 -1.2629  0.5682 -0.5848
 1691SOL    HW2 5073  -0.007   2.506   2.114 -0.8430  0.0500  0.3065
 1692SOL     OW 5074   2.762   2.820   2.687  0.2020  0.5853 -0.0207
 1692SOL    HW1 5075   2.763   2.894   2.748  2.2370  0.1233  0.6028
 1692SOL    HW2 5076   2.707   2.754   2.729  0.3537  0.8453  0.5906
 1693SOL     OW 5077   1.029   2.128   1.870  0.0727 -0.1218 -0.2293
 1693SOL    HW1 5078   0.965   2.179   1.919 -2.4280 -2.8461 -0.3940
 1693SOL    HW2 5079   1.113   2.171   1.888 -1.7244  3.7218 -0.1336
 1694SOL     OW 5080   4.015   0.916   1.106  0.1948 -0.1080  0.1417
 1694SOL    HW1 5081   4.049   0.992   1.057 -3.2935  1.1202 -0.6749
 1694SOL    HW2 5082   3.921   0.932   1.112 -0.3151 -3.1360  2.3105
 1695SOL     OW 5083   1.991   0.181   0.347 -1.2010  0.6228 -0.1702
 1695SOL    HW1 5084   2.011   0.262   0.301 -1.6371  1.5785  1.2511
 1695SOL    HW2 5085   1.910   0.199   0.395 -2.0445 -1.1015 -0.8486
 1696SOL     OW 5086   3.178   0.712   1.584 -0.3865  0.0381  0.8562
 1696SOL    HW1 5087   3.269   0.717   1.611 -0.7510  3.3470  2.0205
 1696SOL    HW2 5088   3.129   0.704   1.665 -1.1864 -0.9689  0.2967
 1697SOL     OW 5089   0.867   3.947   0.685  0.0835 -0.1972 -0.3824
 1697SOL    HW1 5090   0.946   3.990   0.653  0.2248 -0.6575 -0.6608
 1697SOL    HW2 5091   0.894   3.857   0.704 -0.3662 -0.3524 -0.4628
 1698SOL     OW 5092   1.915   3.141   2.691  0.4193 -0.5696  0.5597
 1698SOL    HW1 5093   1.892   3.233   2.696  3.2574  0.1333  3.4310
 1698SOL    HW2 5094   1.933   3.126   2.598 -0.3949  1.6735 -0.0112
 1699SOL     OW 5095   0.099   0.197   1.856  0.4987  0.4217  0.0336
 1699SOL    HW1 5096   0.093   0.292   1.869  2.7077  0.5902  0.2348
 1699SOL    HW2 5097   0.023   0.175   1.802  0.1736  2.3802 -0.3812
 1700SOL     OW 5098   1.468   3.079   3.489 -0.4243 -0.2858  0.0271
 1700SOL    HW1 5099   1.392   3.104   3.542  0.3805  1.7064  0.3313
 1700SOL    HW2 5100   1.514   3.014   3.542 -2.3352 -2.2442 -0.5552
 1701SOL     OW 5101   2.917   3.862   3.119  0.6050 -0.0763 -0.5394
 1701SOL    HW1 5102   2.826   3.879   3.143  0.7898 -0.1137  0.2184
 1701SOL    HW2 5103   2.959   3.948   3.122  0.3970  0.0943 -1.8312
 1702SOL     OW 5104   0.162   2.933   3.882 -0.4840 -0.3184 -0.4979
 1702SOL    HW1 5105   0.127   2.999   3.942 -1.6248 -1.8289  0.5934
 1702SOL    HW2 5106   0.163   2.852   3.934 -2.4405 -1.9325 -2.7463
 1703SOL     OW 5107   0.036   3.451   1.978 -0.2012  0.0203 -0.4436
 1703SOL    HW1 5108   0.111   3.468   1.920 -0.1085  0.0057 -0.3283
 1703SOL    HW2 5109   0.003   3.538   2.000  0.5062  0.0759  0.4499
 1704SOL     OW 5110   0.662   1.831   0.112  0.1356 -0.2967  0.1134
 1704SOL    HW1 5111   0.663   1.743   0.151  0.8408 -1.4498 -2.2844
 1704SOL    HW2 5112   0.580   1.834   0.063  0.1471  0.3641  0.1347
 1705SOL     OW 5113   2.453   1.922   1.223 -0.3803 -0.4793 -0.3923
 1705SOL    HW1 5114   2.422   1.870   1.149  0.3789 -1.0986 -0.2942
 1705SOL    HW2 5115   2.383   1.915   1.288 -1.5249  0.9173 -1.4081
 1706SOL     OW 5116   3.528   0.267   3.884 -0.1183  0.3392 -0.1527
 1706SOL    HW1 5117   3.593   0.334   3.863  0.1404 -0.1143 -0.8085
 1706SOL    HW2 5118   3.535   0.203   3.813  0.3686 -0.9217  0.9820
 1707SOL     OW 5119   0.548   3.506   2.956  0.1833  0.2659  0.2126
 1707SOL    HW1 5120   0.546   3.593   2.916 -1.9026  0.3432  0.3909
 1707SOL    HW2 5121   0.547   3.523   3.051 -0.4317  0.0590  0.2467
 1708SOL     OW 5122   3.875   3.756   2.463 -0.3193  0.1629 -0.0798
 1708SOL    HW1 5123   3.836   3.841   2.442 -0.8281  0.3954  1.6601
 1708SOL    HW2 5124   3.888   3.714   2.378 -1.4032  1.3859 -0.8898
 1709SOL     OW 5125   3.599   3.968   0.548  0.4475  0.3295  0.6372
 1709SOL    HW1 5126   3.597   4.064   0.552 -0.5155  0.3032  1.0122
 1709SOL    HW2 5127   3.569   3.947   0.460 -0.1917  0.3590  0.8422
 1710SOL     OW 5128   2.738   0.455   2.844  0.1365  0.3285  0.1008
 1710SOL    HW1 5129   2.659   0.409   2.816 -0.2821 -0.2269  2.0222
 1710SOL    HW2 5130   2.772   0.403   2.917  2.4984  0.3715 -0.8825
 1711SOL     OW 5131   3.241   1.964   0.665 -0.2799 -0.2872  0.3115
 1711SOL    HW1 5132   3.159   2.012   0.675 -0.1142 -0.4266  3.2002
 1711SOL    HW2 5133   3.214   1.872   0.660 -0.3409 -0.3846  1.8678
 1712SOL     OW 5134   2.004   2.631   0.055  0.9160  0.4993  0.9265
 1712SOL    HW1 5135   2.009   2.566   0.125 -1.3150  0.9088  1.5235
 1712SOL    HW2 5136   1.986   2.714   0.099  0.9064  1.0267 -0.0309
 1713SOL     OW 5137   2.171   0.363   2.169 -0.6858 -0.2290  0.4478
 1713SOL    HW1 5138   2.117   0.359   2.090  0.0630 -1.9029 -0.0409
 1713SOL    HW2 5139   2.249   0.412   2.142 -0.5814 -0.5086  0.2366
 1714SOL     OW 5140   1.522   3.644   2.215 -0.4155 -0.2405  0.1027
 1714SOL    HW1 5141   1.554   3.554   2.223  0.9078  0.3131  1.4565
 1714SOL    HW2 5142   1.551   3.672   2.128 -0.1901 -0.8612 -0.0297
 1715SOL     OW 5143   3.772   3.620   1.685 -0.0183  0.7165 -0.3316
 1715SOL    HW1 5144   3.728   3.703   1.668 -0.1505  0.4772 -1.2022
 1715SOL    HW2 5145   3.743   3.596   1.773  1.2270  2.3217  0.5721
 1716SOL     OW 5146   3.985   0.574   1.082 -0.0187  0.1869 -0.2962
 1716SOL    HW1 5147   4.056   0.614   1.132 -0.1202  0.5486 -0.4371
 1716SOL    HW2 5148   3.906   0.615   1.116 -0.1814 -0.3670  0.0058
 1717SOL     OW 5149   0.941   0.280   2.625  0.0010  0.5811  0.1823
 1717SOL    HW1 5150   1.011   0.280   2.690 -1.3058  1.0110  1.6515
 1717SOL    HW2 5151   0.861   0.289   2.676 -1.1757 -0.2959 -1.4122
 1718SOL     OW 5152   3.496   2.453   0.776 -0.0555  0.8362 -0.8801
 1718SOL    HW1 5153   3.564   2.474   0.713  0.8559  0.4766 -0.0349
 1718SOL    HW2 5154   3.542   2.444   0.860 -0.8385 -1.2908 -0.6099
 1719SOL     OW 5155   3.822   0.880   2.780 -0.6155 -0.1071  0.6711
 1719SOL    HW1 5156   3.878   0.815   2.737 -1.7411 -1.0544  0.5826
 1719SOL    HW2 5157   3.872   0.908   2.857  0.4889 -0.0069 -0.0445
 1720SOL     OW 5158   0.593   1.128   3.285 -0.5357 -0.2867  0.2746
 1720SOL    HW1 5159   0.567   1.106   3.374 -1.5596 -0.2899 -0.0140
 1720SOL    HW2 5160   0.605   1.043   3.242 -4.1152 -0.4229 -0.7305
 1721SOL     OW 5161   2.011   3.873   1.764 -0.1944  0.4201 -0.1883
 1721SOL    HW1 5162   2.098   3.910   1.751 -0.2325  0.3003 -0.7886
 1721SOL    HW2 5163   2.003   3.865   1.860  1.9804 -3.1080 -0.1290
 1722SOL     OW 5164   2.087   3.379   0.710 -0.3476  0.2049 -0.0993
 1722SOL    HW1 5165   2.026   3.341   0.773  0.3615 -1.3752 -0.3249
 1722SOL    HW2 5166   2.032   3.426   0.648 -1.5558 -2.4954 -1.2316
 1723SOL     OW 5167   3.950   2.087   0.565  0.6386 -1.2078  0.8989
 1723SOL    HW1 5168   3.894   2.159   0.595  0.7938 -0.7156  0.0598
 1723SOL    HW2 5169   3.892   2.029   0.516  1.0002 -0.1520 -0.8849
 1724SOL     OW 5170   3.832   1.914   0.064  1.2461  1.1639 -0.0563
 1724SOL    HW1 5171   3.759   1.856   0.089  1.6537 -0.0060 -1.4473
 1724SOL    HW2 5172   3.790   1.985   0.015  0.9556  0.8899 -0.2120
 1725SOL     OW 5173   1.505   1.118   1.649  0.1337  0.3041 -0.0681
 1725SOL    HW1 5174   1.425   1.071   1.673  1.3251 -1.5045  0.5732
 1725SOL    HW2 5175   1.544   1.143   1.733  0.4246  0.8893 -0.3711
 1726SOL     OW 5176   1.280   3.712   2.761 -0.3622  0.6392  0.7075
 1726SOL    HW1 5177   1.251   3.689   2.673  2.0440 -0.5458  0.1377
 1726SOL    HW2 5178   1.199   3.720   2.811 -2.0206  3.7781 -2.0630
 1727SOL     OW 5179   1.282   3.546   2.299 -0.3652  0.5361 -1.1944
 1727SOL    HW1 5180   1.365   3.580   2.266 -0.1144  0.8245 -0.2860
 1727SOL    HW2 5181   1.306   3.470   2.351 -0.5530  1.2137 -0.0819
 1728SOL     OW 5182   1.533   2.559   3.668 -0.7661 -0.6693  0.3774
 1728SOL    HW1 5183   1.470   2.606   3.724 -0.6339 -0.4166  0.3115
 1728SOL    HW2 5184   1.599   2.526   3.729 -0.1588  0.3345  0.2782
 1729SOL     OW 5185   3.378   0.787   3.029 -0.3686  0.2381 -0.3810
 1729SOL    HW1 5186   3.321   0.859   3.003  0.2931  0.5469 -1.0201
 1729SOL    HW2 5187   3.322   0.730   3.082 -2.6401 -1.6932 -4.3685
 1730SOL     OW 5188   1.474   2.762   0.097  0.1023  0.3828 -0.3557
 1730SOL    HW1 5189   1.406   2.829   0.106  0.4083  0.5749  0.7006
 1730SOL    HW2 5190   1.431   2.681   0.123 -0.6927 -0.1343 -3.0652
 1731SOL     OW 5191   3.019   3.524   1.497 -0.3392  1.0013 -0.5627
 1731SOL    HW1 5192   2.931   3.492   1.516 -0.2701  1.6370  0.9731
 1731SOL    HW2 5193   3.056   3.548   1.582  2.8576 -2.9349 -0.5273
 1732SOL     OW 5194   3.164   3.041   2.982 -0.4041 -0.8318 -0.9006
 1732SOL    HW1 5195   3.074   3.039   3.015 -0.7317 -0.1665 -1.6889
 1732SOL    HW2 5196   3.217   3.001   3.051 -1.6419 -3.8984 -1.5931
 1733SOL     OW 5197   3.979   2.850   2.277 -0.1782 -0.0205 -0.0067
 1733SOL    HW1 5198   3.926   2.782   2.319 -2.3927  0.0127 -2.5149
 1733SOL    HW2 5199   4.005   2.907   2.349 -3.9617  0.1873  1.4558
 1734SOL     OW 5200   1.193   0.832   3.289  0.0346 -0.5010 -0.4105
 1734SOL    HW1 5201   1.103   0.853   3.265 -0.7306  0.3187  2.8263
 1734SOL    HW2 5202   1.201   0.738   3.271 -1.7064 -0.7454 -0.0492
 1735SOL     OW 5203   3.962   0.008   3.157 -0.0363 -0.6229  0.4004
 1735SOL    HW1 5204   3.957   0.052   3.072  1.2036 -1.1059  0.0510
 1735SOL    HW2 5205   3.892  -0.057   3.154 -1.9816  1.3176  0.9744
 1736SOL     OW 5206   2.196   1.466   1.016  0.2612  0.1732 -0.2993
 1736SOL    HW1 5207   2.151   1.545   0.986 -0.2147  0.4310  1.0404
 1736SOL    HW2 5208   2.199   1.410   0.939 -2.4907  0.0823 -0.4184
 1737SOL     OW 5209   3.064   1.562   3.244  0.0697 -0.5734  0.0029
 1737SOL    HW1 5210   3.048   1.533   3.334 -0.9934  1.2046  0.4388
 1737SOL    HW2 5211   3.004   1.510   3.191  0.2090 -1.1432  0.3982
 1738SOL     OW 5212   0.277   0.644   3.889  0.4874 -0.0893  0.7494
 1738SOL    HW1 5213   0.187   0.636   3.920  1.3871 -2.2957  3.1691
 1738SOL    HW2 5214   0.269   0.662   3.796 -2.4549 -0.6073  0.8203
 1739SOL     OW 5215   2.480   2.205   2.713 -0.7525  0.8204 -0.5402
 1739SOL    HW1 5216   2.408   2.267   2.726  0.0755  1.4190  1.9065
 1739SOL    HW2 5217   2.555   2.260   2.690 -0.6189  0.4375 -1.0235
 1740SOL     OW 5218   2.940   0.894   2.642  0.0259 -0.0038  0.2110
 1740SOL    HW1 5219   2.879   0.900   2.569  0.8108 -0.6977 -0.5213
 1740SOL    HW2 5220   2.897   0.942   2.713 -0.9943  0.2126 -0.5290
 1741SOL     OW 5221   1.695   0.925   1.552 -0.0437  0.3812 -0.0841
 1741SOL    HW1 5222   1.648   0.844   1.531 -1.7163  1.7229 -1.9087
 1741SOL    HW2 5223   1.630   0.979   1.598  0.4523  1.3411 -0.4841
 1742SOL     OW 5224   3.807   3.053   0.904  0.3923  0.6351 -0.1386
 1742SOL    HW1 5225   3.773   3.142   0.906 -0.2601  0.6549 -4.0852
 1742SOL    HW2 5226   3.734   2.998   0.933  0.9236  1.2820  2.6959
 1743SOL     OW 5227   2.809   3.116   1.641 -0.5201 -0.1416  0.3494
 1743SOL    HW1 5228   2.745   3.148   1.705 -0.8556 -1.4743  0.7237
 1743SOL    HW2 5229   2.806   3.021   1.651  0.8888 -0.2649 -0.2601
 1744SOL     OW 5230   1.469   3.894   1.805  0.6040  0.1431  0.5157
 1744SOL    HW1 5231   1.554   3.854   1.821  1.9048  1.9676 -1.3592
 1744SOL    HW2 5232   1.484   3.988   1.814 -0.9017  0.5849 -1.0245
 1745SOL     OW 5233   3.410   2.799   0.046 -0.0275 -0.3900  0.2898
 1745SOL    HW1 5234   3.467   2.862   0.001 -1.5782  0.1396 -1.0188
 1745SOL    HW2 5235   3.428   2.715   0.003 -0.2681 -0.2142 -0.1555
 1746SOL     OW 5236   0.771   2.048   0.233 -0.4367  0.1609  0.1541
 1746SOL    HW1 5237   0.730   2.039   0.319  1.1827 -0.3396  0.9165
 1746SOL    HW2 5238   0.738   1.974   0.182 -2.1344  0.9806 -0.0097
 1747SOL     OW 5239   3.402   0.094   0.973 -0.1828  0.1925 -0.3425
 1747SOL    HW1 5240   3.373   0.010   1.009 -0.3538 -1.1509 -3.2855
 1747SOL    HW2 5241   3.409   0.152   1.048  0.6186 -2.6475  1.9388
 1748SOL     OW 5242   2.491   3.426   0.087  0.2220  0.3745 -0.6376
 1748SOL    HW1 5243   2.397   3.432   0.071  0.3101  1.2796 -0.8474
 1748SOL    HW2 5244   2.508   3.493   0.153  0.4863 -0.7813  0.5285
 1749SOL     OW 5245   2.400   3.837   1.982 -0.1226 -0.4861 -0.1024
 1749SOL    HW1 5246   2.492   3.828   1.956 -0.0271  0.9718 -0.4022
 1749SOL    HW2 5247   2.358   3.878   1.906 -0.9559 -0.8560  0.1507
 1750SOL     OW 5248   3.865   2.489   2.985  0.2885  0.2754 -0.0006
 1750SOL    HW1 5249   3.920   2.489   3.063  0.2323  0.4665  0.0397
 1750SOL    HW2 5250   3.926   2.495   2.911  0.3383  0.1527  0.0305
 1751SOL     OW 5251   3.776   3.366   0.334  0.0263 -0.3201  0.3667
 1751SOL    HW1 5252   3.781   3.417   0.253 -0.1521 -0.0344  0.5363
 1751SOL    HW2 5253   3.815   3.281   0.311 -1.4856 -0.8320 -0.4815
 1752SOL     OW 5254   1.792   1.850   2.466 -0.0271  0.0765  0.2186
 1752SOL    HW1 5255   1.797   1.802   2.383 -1.7453 -0.1380  0.2065
 1752SOL    HW2 5256   1.865   1.912   2.462 -1.5702  1.9366 -2.6529
 1753SOL     OW 5257   0.211   3.266   3.754  0.3079  0.3732  0.0402
 1753SOL    HW1 5258   0.299   3.249   3.721 -0.2179 -0.9953 -0.7782
 1753SOL    HW2 5259   0.154   3.216   3.695 -0.8317 -0.6115  1.8745
 1754SOL     OW 5260   1.157   3.560   0.782 -0.4252 -0.2556 -0.1232
 1754SOL    HW1 5261   1.102   3.490   0.816  1.5220 -1.2842  1.0680
 1754SOL    HW2 5262   1.243   3.520   0.770  0.3014  1.4935 -1.1271
 1755SOL     OW 5263   3.360   2.298   2.408  0.6029  0.2844  0.5159
 1755SOL    HW1 5264   3.386   2.296   2.316 -0.5496 -0.4389  0.1868
 1755SOL    HW2 5265   3.303   2.374   2.415 -0.8086 -0.6996  0.1774
 1756SOL     OW 5266   2.050   3.238   1.174  0.6162 -0.3087 -0.2452
 1756SOL    HW1 5267   1.978   3.271   1.227 -0.2180 -3.2853  0.6681
 1756SOL    HW2 5268   2.070   3.309   1.113  0.1154  2.4248  2.5284
 1757SOL     OW 5269   2.353   1.381   3.378 -0.0783  0.0912  0.5961
 1757SOL    HW1 5270   2.337   1.440   3.305 -0.9691  1.3431  1.7543
 1757SOL    HW2 5271   2.398   1.434   3.443 -1.3312 -0.3351  1.8674
 1758SOL     OW 5272   2.280   3.636   3.912  0.2513 -0.3023  0.1386
 1758SOL    HW1 5273   2.204   3.692   3.922  1.0121  0.4247  2.3874
 1758SOL    HW2 5274   2.348   3.693   3.875  1.8757  1.2958  4.8894
 1759SOL     OW 5275   1.121   2.604   0.895 -0.1337  0.1833  0.8531
 1759SOL    HW1 5276   1.089   2.577   0.808  2.1275 -0.3515  0.1286
 1759SOL    HW2 5277   1.136   2.698   0.887 -0.4197  0.2302  0.8453
 1760SOL     OW 5278   0.287   0.868   2.295  0.9586 -0.0150  0.0905
 1760SOL    HW1 5279   0.201   0.826   2.295  1.6897 -1.6378 -1.2898
 1760SOL    HW2 5280   0.269   0.959   2.271 -0.3622 -0.4011 -0.4950
 1761SOL     OW 5281   1.114   2.337   1.568  0.0562  0.5467 -0.0388
 1761SOL    HW1 5282   1.095   2.430   1.567 -0.3895  0.4606 -0.0914
 1761SOL    HW2 5283   1.193   2.328   1.621 -0.5416  0.8480  0.9205
 1762SOL     OW 5284   2.891   2.445   0.589 -0.4401 -0.5885  0.5133
 1762SOL    HW1 5285   2.908   2.483   0.675 -3.8135 -1.3706  1.7070
 1762SOL    HW2 5286   2.977   2.420   0.556  1.0743  0.5942  3.2087
 1763SOL     OW 5287   2.698   1.120   3.538 -0.4492 -0.1533  0.1805
 1763SOL    HW1 5288   2.664   1.098   3.452  1.5649  2.0057 -1.3173
 1763SOL    HW2 5289   2.764   1.053   3.556 -1.7170 -1.3132  0.6777
 1764SOL     OW 5290   1.975   2.643   1.733 -0.6614  0.3138 -0.3911
 1764SOL    HW1 5291   2.038   2.693   1.784 -1.3104 -0.1994  0.9538
 1764SOL    HW2 5292   1.915   2.605   1.798 -1.9499  0.2311 -1.5702
 1765SOL     OW 5293   2.290   2.009   0.035  0.0764 -0.9648  0.3048
 1765SOL    HW1 5294   2.325   2.096   0.017 -0.4241 -0.5230  1.4138
 1765SOL    HW2 5295   2.366   1.959   0.066  0.1658 -0.6343  0.6240
 1766SOL     OW 5296   1.405   0.403   3.895 -0.3155 -0.5408  0.4922
 1766SOL    HW1 5297   1.322   0.417   3.850  0.3097 -2.3257 -1.3852
 1766SOL    HW2 5298   1.412   0.308   3.903  0.1747 -0.3503  3.4320
 1767SOL     OW 5299   2.653   1.370   2.470 -0.3798 -0.7427  0.2740
 1767SOL    HW1 5300   2.640   1.316   2.549  0.0807 -2.4222 -0.7309
 1767SOL    HW2 5301   2.655   1.306   2.398 -1.3522  0.7956 -1.1734
 1768SOL     OW 5302   0.957   2.255   0.290 -0.0156  0.0419  0.0249
 1768SOL    HW1 5303   1.034   2.198   0.298  0.7236  0.2392 -3.6811
 1768SOL    HW2 5304   0.886   2.196   0.264 -1.3292 -0.1618  3.5597
 1769SOL     OW 5305   0.626   0.397   1.865  0.0685 -0.4310  0.0632
 1769SOL    HW1 5306   0.634   0.330   1.932  0.6431 -0.9724 -0.5312
 1769SOL    HW2 5307   0.611   0.349   1.784 -1.0160  0.2275 -0.1587
 1770SOL     OW 5308   2.934   0.812   2.017 -0.4343  0.7718  0.1349
 1770SOL    HW1 5309   2.951   0.720   2.037 -4.3433  0.0135  0.7836
 1770SOL    HW2 5310   2.947   0.858   2.101  0.0534  0.5877  0.1654
 1771SOL     OW 5311   1.135   3.032   1.329 -0.5796  0.6633  0.0883
 1771SOL    HW1 5312   1.141   3.024   1.424 -2.6661 -1.1434  0.1506
 1771SOL    HW2 5313   1.165   2.947   1.297 -3.0768 -0.0101 -0.6331
 1772SOL     OW 5314   3.510   1.547   1.618 -0.6628  0.6658 -0.5330
 1772SOL    HW1 5315   3.587   1.569   1.670 -2.5501  1.8120  1.9996
 1772SOL    HW2 5316   3.518   1.600   1.538  0.9761  1.0009 -0.1636
 1773SOL     OW 5317   1.100   0.986   1.223 -0.6643 -0.7019  0.0592
 1773SOL    HW1 5318   1.163   0.936   1.276  1.1403  0.1121 -1.2084
 1773SOL    HW2 5319   1.108   1.076   1.255 -2.9464 -0.9146  1.4439
 1774SOL     OW 5320   0.151   3.853   2.834  0.3804  0.8674 -0.3716
 1774SOL    HW1 5321   0.140   3.916   2.906  1.2476 -0.2376  0.7831
 1774SOL    HW2 5322   0.156   3.768   2.878  2.0304  0.2521 -1.6452
 1775SOL     OW 5323   1.513   0.128   0.087 -0.6106 -0.2579 -0.4268
 1775SOL    HW1 5324   1.532   0.151  -0.004 -0.9550  0.4513 -0.3241
 1775SOL    HW2 5325   1.481   0.038   0.082  1.0360 -0.8543 -0.8016
 1776SOL     OW 5326   1.377   3.737   3.497 -0.6392 -0.0121 -0.2438
 1776SOL    HW1 5327   1.304   3.680   3.520 -0.9215 -0.7546 -2.7162
 1776SOL    HW2 5328   1.389   3.725   3.403  1.5576  1.4111 -0.2341
 1777SOL     OW 5329   3.878   2.110   2.929  0.5252 -0.3792 -0.4263
 1777SOL    HW1 5330   3.877   2.064   3.013  0.8224  0.0634 -0.1741
 1777SOL    HW2 5331   3.788   2.140   2.917  0.2691 -1.2561 -0.7254
 1778SOL     OW 5332   0.032   1.059   0.054 -0.9099  0.6818 -0.4939
 1778SOL    HW1 5333  -0.061   1.034   0.058 -0.6072 -0.3186  1.1917
 1778SOL    HW2 5334   0.062   1.026  -0.031 -0.9316 -3.5280  0.8844
 1779SOL     OW 5335   1.417   3.430   0.844 -0.3551  0.5056  0.4665
 1779SOL    HW1 5336   1.359   3.436   0.919  0.2644  0.3368  0.9750
 1779SOL    HW2 5337   1.499   3.469   0.874  0.8049 -2.0293  0.8448
 1780SOL     OW 5338   2.073   1.142   1.658 -0.6393  0.4332  0.0537
 1780SOL    HW1 5339   2.106   1.221   1.616  2.6831 -1.7970 -2.0505
 1780SOL    HW2 5340   2.079   1.074   1.590 -0.2318 -2.2783  2.5792
 1781SOL     OW 5341   3.244   2.114   0.111 -0.2261 -0.2974 -0.8124
 1781SOL    HW1 5342   3.305   2.183   0.137 -0.1400 -0.2082 -1.2367
 1781SOL    HW2 5343   3.196   2.092   0.190  1.7498 -1.7860  0.0773
 1782SOL     OW 5344   3.014   2.439   1.114  1.0875 -0.6565  0.6433
 1782SOL    HW1 5345   2.991   2.506   1.179  0.0656  1.4497 -1.7131
 1782SOL    HW2 5346   3.109   2.443   1.108  0.9793  2.3825 -1.0406
 1783SOL     OW 5347   3.942   2.985   1.541  0.3691  0.5394  0.2551
 1783SOL    HW1 5348   3.980   2.923   1.478 -0.3750  0.5223 -0.1938
 1783SOL    HW2 5349   4.016   3.013   1.595  0.5892 -1.4368  1.0657
 1784SOL     OW 5350   3.847   1.533   2.285 -0.2394 -0.6439 -0.7880
 1784SOL    HW1 5351   3.836   1.557   2.377 -3.2197  2.7444 -1.8198
 1784SOL    HW2 5352   3.853   1.438   2.286 -0.8285 -0.7942  2.8338
 1785SOL     OW 5353   2.162   1.766   0.150  0.7074  0.4577  0.6137
 1785SOL    HW1 5354   2.165   1.785   0.244  2.8481 -0.9151  0.8879
 1785SOL    HW2 5355   2.200   1.844   0.109  1.8268  0.1879  1.0929
 1786SOL     OW 5356   2.335   2.215   3.564  0.4896 -0.9295  0.0347
 1786SOL    HW1 5357   2.382   2.158   3.624 -0.9019 -1.3348  0.7655
 1786SOL    HW2 5358   2.336   2.168   3.480 -1.0533 -2.2903  0.7396
 1787SOL     OW 5359   3.085   1.568   3.982  0.6826 -0.2647 -0.2501
 1787SOL    HW1 5360   3.052   1.489   3.939 -2.2640  0.4837  0.4783
 1787SOL    HW2 5361   3.108   1.627   3.910 -1.2888 -0.1788 -0.8582
 1788SOL     OW 5362   2.643   0.491   0.396  0.1715  0.4200 -0.0181
 1788SOL    HW1 5363   2.583   0.538   0.338 -0.3974  1.1639  1.1302
 1788SOL    HW2 5364   2.619   0.520   0.484  0.2665 -1.5154  0.6976
 1789SOL     OW 5365   1.099   2.163   1.183  0.3390 -0.5758 -0.5211
 1789SOL    HW1 5366   1.126   2.209   1.104  0.6635 -1.0315 -0.6835
 1789SOL    HW2 5367   1.154   2.200   1.252 -0.0146 -0.1066 -0.4899
 1790SOL     OW 5368   2.344   3.653   2.431  0.2068 -0.3064  0.4079
 1790SOL    HW1 5369   2.266   3.658   2.487 -0.4120 -0.8854 -0.3676
 1790SOL    HW2 5370   2.408   3.709   2.474 -0.3484 -0.5020  1.5292
 1791SOL     OW 5371   2.376   0.842   1.496  0.5376  0.0012 -0.6443
 1791SOL    HW1 5372   2.381   0.847   1.400  1.1974  0.4437 -0.5958
 1791SOL    HW2 5373   2.468   0.836   1.524  0.4832  1.8495  0.0524
 1792SOL     OW 5374   2.302   1.296   0.807  0.2537  0.2018  0.2993
 1792SOL    HW1 5375   2.350   1.314   0.726  0.0640 -0.0522  0.1304
 1792SOL    HW2 5376   2.357   1.233   0.854 -0.5155 -1.0867 -0.4785
 1793SOL     OW 5377   3.446   2.837   1.991 -0.4328 -0.1995 -0.8604
 1793SOL    HW1 5378   3.526   2.808   2.033  1.1842  2.5026 -1.8037
 1793SOL    HW2 5379   3.444   2.790   1.908  0.6400  0.2837 -1.1761
 1794SOL     OW 5380   3.768   3.897   3.487  0.3184 -0.3830  0.3100
 1794SOL    HW1 5381   3.711   3.858   3.554  0.2789 -0.3120  0.3179
 1794SOL    HW2 5382   3.852   3.908   3.532  0.1090  0.2750  0.5513
 1795SOL     OW 5383   3.256   1.848   1.265  0.4058  0.2421  0.3689
 1795SOL    HW1 5384   3.195   1.826   1.195  0.1612  1.2672  0.2341
 1795SOL    HW2 5385   3.215   1.815   1.344  1.1812 -1.8751 -0.0561
 1796SOL     OW 5386   1.817   0.246   1.965  0.1284  0.0896 -0.0779
 1796SOL    HW1 5387   1.833   0.319   1.906 -0.8729 -1.6002 -2.6305
 1796SOL    HW2 5388   1.903   0.205   1.977  1.2173  2.9306  3.4337
 1797SOL     OW 5389   3.415   0.170   3.315 -0.5813 -0.3304  0.1258
 1797SOL    HW1 5390   3.450   0.259   3.314  0.1197 -0.5907  0.7348
 1797SOL    HW2 5391   3.355   0.167   3.241 -0.9845  0.7996  0.3826
 1798SOL     OW 5392   1.661   0.800   1.250  0.1566  0.4255 -0.1975
 1798SOL    HW1 5393   1.645   0.887   1.286 -3.7684 -0.5889  0.9026
 1798SOL    HW2 5394   1.671   0.744   1.327 -1.5994 -0.7118 -0.7567
 1799SOL     OW 5395   1.360   3.860   0.125 -0.3211  0.4688  0.5814
 1799SOL    HW1 5396   1.421   3.802   0.079  0.2320  2.2024 -0.9933
 1799SOL    HW2 5397   1.294   3.801   0.162 -1.0628 -1.1069 -2.8257
 1800SOL     OW 5398   2.088   2.955   1.684  0.2531  0.9599  0.2675
 1800SOL    HW1 5399   2.156   3.021   1.701  0.4242  0.5777  1.1405
 1800SOL    HW2 5400   2.092   2.897   1.760  2.2321 -1.8933 -1.7753
 1801SOL     OW 5401   1.709   1.211   0.886  0.0782  0.0928 -0.3881
 1801SOL    HW1 5402   1.802   1.233   0.875  0.4319  0.4209  2.4940
 1801SOL    HW2 5403   1.710   1.126   0.929 -0.9510  0.2215 -0.0918
 1802SOL     OW 5404   3.427   3.489   1.766  0.4222  0.2325  0.0628
 1802SOL    HW1 5405   3.505   3.524   1.811 -0.0898 -0.0012  1.1607
 1802SOL    HW2 5406   3.458   3.469   1.677  1.9631 -1.0781  0.8446
 1803SOL     OW 5407   3.768   1.920   0.381 -0.2571  0.0567  0.3417
 1803SOL    HW1 5408   3.764   1.945   0.289  0.0332  0.8220  0.5286
 1803SOL    HW2 5409   3.821   1.840   0.381 -0.9813 -0.4403 -0.2379
 1804SOL     OW 5410   1.533   3.559   2.736 -0.0861  0.4975 -1.0224
 1804SOL    HW1 5411   1.467   3.625   2.715 -1.2719  0.7256  2.7941
 1804SOL    HW2 5412   1.488   3.497   2.792  2.6583  0.1052  0.9109
 1805SOL     OW 5413   0.159   1.869   3.041 -0.4888 -0.2421 -0.6583
 1805SOL    HW1 5414   0.139   1.962   3.044  0.2587  0.0006 -2.2784
 1805SOL    HW2 5415   0.074   1.826   3.031 -0.8998  0.1932  0.7947
 1806SOL     OW 5416   2.846   1.920   1.898 -0.0989  0.1011 -0.2037
 1806SOL    HW1 5417   2.885   1.880   1.977 -1.0301  0.3198  0.3785
 1806SOL    HW2 5418   2.826   2.010   1.924  0.3986  0.4430 -0.9783
 1807SOL     OW 5419   0.679   0.340   1.244  0.2775 -0.4693 -0.1038
 1807SOL    HW1 5420   0.645   0.329   1.155 -2.2120  0.4698  0.6474
 1807SOL    HW2 5421   0.737   0.265   1.257 -1.9044 -2.4974 -1.3540
 1808SOL     OW 5422   2.155   3.723   2.630 -0.5980  0.3202 -0.1996
 1808SOL    HW1 5423   2.136   3.801   2.579 -3.3170  0.3495  0.6810
 1808SOL    HW2 5424   2.069   3.692   2.659  0.6633 -0.2990  3.4277
 1809SOL     OW 5425   1.357   3.816   0.576 -0.2931  0.1099 -0.9744
 1809SOL    HW1 5426   1.377   3.906   0.553  1.2666  0.7329  2.3212
 1809SOL    HW2 5427   1.348   3.816   0.671  4.0786 -3.8097 -0.1788
 1810SOL     OW 5428   0.142   3.180   0.090  0.2138  0.1910  0.5357
 1810SOL    HW1 5429   0.204   3.137   0.149 -0.1510  0.3035  1.0022
 1810SOL    HW2 5430   0.198   3.225   0.026  0.6006 -1.3219 -0.2372
 1811SOL     OW 5431   0.256   0.285   2.856  0.6196 -0.0460  0.1944
 1811SOL    HW1 5432   0.196   0.331   2.797  0.3580  1.1494  1.3491
 1811SOL    HW2 5433   0.336   0.337   2.852  0.8450 -0.3867  0.3313
 1812SOL     OW 5434   0.056   0.135   1.217  0.4927  0.5561 -0.4463
 1812SOL    HW1 5435   0.069   0.141   1.312 -0.0640 -0.6107 -0.2706
 1812SOL    HW2 5436   0.023   0.046   1.204  1.9597  0.1829 -1.9002
 1813SOL     OW 5437   2.230   3.366   0.160 -0.1870 -0.0026 -1.2487
 1813SOL    HW1 5438   2.257   3.307   0.231 -0.6066 -0.6083 -1.5857
 1813SOL    HW2 5439   2.157   3.321   0.117  0.7349 -0.1383 -2.7309
 1814SOL     OW 5440   3.360   1.972   2.748 -0.0159  0.1132 -0.1515
 1814SOL    HW1 5441   3.390   1.909   2.814  0.0087 -0.4876 -0.7216
 1814SOL    HW2 5442   3.362   2.056   2.793  0.6103 -0.1928  0.4235
 1815SOL     OW 5443   1.954   1.244   3.027  0.2250  0.2372  0.2350
 1815SOL    HW1 5444   1.945   1.335   2.999 -0.4621  0.4463  1.1083
 1815SOL    HW2 5445   1.922   1.193   2.953  0.4299  0.7091 -0.1837
 1816SOL     OW 5446   0.717   0.675   0.424  0.4554  0.6517  0.5333
 1816SOL    HW1 5447   0.679   0.589   0.403 -0.7003  0.6527  2.4236
 1816SOL    HW2 5448   0.676   0.734   0.360 -0.4258  0.1417  0.6019
 1817SOL     OW 5449   3.021   0.120   0.559  0.0591 -0.7037  0.3084
 1817SOL    HW1 5450   2.952   0.064   0.595  0.3921 -0.8511  0.7252
 1817SOL    HW2 5451   2.974   0.187   0.510 -0.4852  0.3013  2.1083
 1818SOL     OW 5452   2.313   1.774   2.665  0.8276 -0.0717 -0.3668
 1818SOL    HW1 5453   2.218   1.783   2.665  0.8849  0.8147  1.0345
 1818SOL    HW2 5454   2.329   1.679   2.672  0.0267 -0.1581  0.4576
 1819SOL     OW 5455   0.586   0.657   1.939 -0.9665  0.1698  0.1745
 1819SOL    HW1 5456   0.624   0.665   1.852 -1.2675  0.6235  0.0853
 1819SOL    HW2 5457   0.595   0.564   1.961 -1.0572  0.0217 -0.4144
 1820SOL     OW 5458   2.124   0.031   1.250 -0.3253  0.2659 -0.0251
 1820SOL    HW1 5459   2.029   0.031   1.238 -0.3516 -0.0236  0.1461
 1820SOL    HW2 5460   2.151   0.121   1.234 -0.5289  0.1874 -0.8202
 1821SOL     OW 5461   0.533   3.606   3.240  0.0544  0.1092 -0.5792
 1821SOL    HW1 5462   0.518   3.630   3.331  1.0577 -3.9570  0.9012
 1821SOL    HW2 5463   0.621   3.568   3.239 -0.4359 -1.2228 -2.9098
 1822SOL     OW 5464   2.414   1.786   0.973 -0.4587  0.1240 -0.2252
 1822SOL    HW1 5465   2.391   1.693   0.978 -0.8552  0.2680  0.9269
 1822SOL    HW2 5466   2.491   1.789   0.915  1.0666 -1.2241  1.6209
 1823SOL     OW 5467   2.434   3.839   2.953  0.4525  0.3513 -0.0054
 1823SOL    HW1 5468   2.400   3.866   3.038 -0.4007  0.8762 -0.4923
 1823SOL    HW2 5469   2.387   3.759   2.932  2.4226 -1.1829  1.0834
 1824SOL     OW 5470   1.186   1.628   2.905  0.2573 -0.1030  0.4485
 1824SOL    HW1 5471   1.212   1.540   2.931  0.9007  0.4337  1.7225
 1824SOL    HW2 5472   1.090   1.625   2.902  0.2856 -0.9926 -0.1586
 1825SOL     OW 5473   1.980   2.947   3.565  0.4118  0.4171 -0.0584
 1825SOL    HW1 5474   2.064   2.983   3.593  0.6939  2.5874 -3.1387
 1825SOL    HW2 5475   1.992   2.852   3.567  1.8814  0.5728  2.2881
 1826SOL     OW 5476   0.077   3.338   3.106 -0.6655 -0.3332 -0.6820
 1826SOL    HW1 5477   0.129   3.341   3.026 -0.5878  2.1474 -0.6211
 1826SOL    HW2 5478  -0.000   3.286   3.083  0.0455 -0.8846 -1.9075
 1827SOL     OW 5479   2.953   0.897   0.421  0.3767  0.6252 -0.3990
 1827SOL    HW1 5480   3.020   0.837   0.451 -0.0282  0.2613 -0.2067
 1827SOL    HW2 5481   2.871   0.859   0.452  0.0508  0.8743 -0.9366
 1828SOL     OW 5482   1.576   0.419   2.136  0.3690  0.0755 -0.1037
 1828SOL    HW1 5483   1.612   0.331   2.145 -0.4911 -0.4192 -1.1626
 1828SOL    HW2 5484   1.652   0.474   2.114  0.8411 -0.4858  0.1026
 1829SOL     OW 5485   0.675   3.108   0.052  0.4675 -0.0792  0.2375
 1829SOL    HW1 5486   0.695   3.037  -0.008  1.1281 -1.0811  1.6011
 1829SOL    HW2 5487   0.754   3.119   0.105  0.7272  2.3122 -0.5405
 1830SOL     OW 5488   1.125   1.868   2.203 -0.1533  0.2803  0.5750
 1830SOL    HW1 5489   1.144   1.962   2.202 -0.9349  0.4651  1.3666
 1830SOL    HW2 5490   1.079   1.855   2.286 -0.1699 -0.7826  0.4030
 1831SOL     OW 5491   3.784   3.067   2.341 -0.2993 -0.0025  0.5122
 1831SOL    HW1 5492   3.849   3.027   2.284 -0.7489  1.3880 -1.0366
 1831SOL    HW2 5493   3.742   2.993   2.385  0.2341 -1.0964 -0.7552
 1832SOL     OW 5494   2.674   0.959   2.129 -0.3250 -0.0406  0.6532
 1832SOL    HW1 5495   2.764   0.940   2.155  0.1404  1.6553  0.3888
 1832SOL    HW2 5496   2.683   1.023   2.058 -1.7490  1.0962  1.4491
 1833SOL     OW 5497   2.721   3.530   1.558  0.5161 -0.3065  0.2002
 1833SOL    HW1 5498   2.637   3.547   1.514  0.8461 -1.7978 -1.0824
 1833SOL    HW2 5499   2.705   3.452   1.611  1.2175 -0.9518 -0.5092
 1834SOL     OW 5500   2.412   1.804   0.560  0.5997 -0.5157  0.2206
 1834SOL    HW1 5501   2.326   1.803   0.517 -0.2816 -1.7753  1.8999
 1834SOL    HW2 5502   2.455   1.724   0.529  1.3797  0.3279 -0.9496
 1835SOL     OW 5503   0.815   0.656   0.971  0.0097 -0.1156 -0.1422
 1835SOL    HW1 5504   0.907   0.678   0.988 -0.1744  0.0512  0.6339
 1835SOL    HW2 5505   0.765   0.720   1.021 -0.5451  0.1513 -1.0041
 1836SOL     OW 5506   0.038   1.049   3.213 -0.0007  0.5053 -0.6819
 1836SOL    HW1 5507   0.122   1.082   3.182  0.7540 -1.2782 -0.6404
 1836SOL    HW2 5508   0.058   1.005   3.295 -0.5748 -1.6308 -1.6029
 1837SOL     OW 5509   1.828   0.755   3.865  0.6905 -0.0395 -0.3166
 1837SOL    HW1 5510   1.825   0.807   3.784 -0.3811 -0.2297 -0.4117
 1837SOL    HW2 5511   1.916   0.771   3.899  2.0643 -1.7735 -2.6993
 1838SOL     OW 5512   0.372   1.162   0.542 -0.4577  0.8872 -0.2646
 1838SOL    HW1 5513   0.369   1.087   0.483  2.3854 -0.9864  1.7193
 1838SOL    HW2 5514   0.428   1.226   0.497 -2.2772  1.6072 -1.6258
 1839SOL     OW 5515   1.511   1.756   1.154  0.2383  0.2987 -0.0358
 1839SOL    HW1 5516   1.558   1.732   1.074  0.5535 -1.3573  0.6017
 1839SOL    HW2 5517   1.495   1.850   1.145 -2.0727 -0.2286 -3.2698
 1840SOL     OW 5518   0.765   2.877   0.426  1.0707  0.7450 -0.3706
 1840SOL    HW1 5519   0.800   2.916   0.346  2.2033 -1.3451 -0.9687
 1840SOL    HW2 5520   0.693   2.821   0.397 -0.9390  2.6992  0.5402
 1841SOL     OW 5521   3.899   0.120   0.358 -0.2210 -0.3260  0.1925
 1841SOL    HW1 5522   3.957   0.182   0.313 -0.2768 -0.5107 -0.1345
 1841SOL    HW2 5523   3.921   0.131   0.451 -1.0173  0.9964  0.2566
 1842SOL     OW 5524   1.786   0.572   0.890  0.4212  0.1125 -0.7169
 1842SOL    HW1 5525   1.700   0.577   0.848 -0.9896 -1.8197  1.6613
 1842SOL    HW2 5526   1.784   0.640   0.957  1.1911  0.7030 -1.2663
 1843SOL     OW 5527   1.609   0.146   3.795  0.2158  0.1163  0.4159
 1843SOL    HW1 5528   1.576   0.060   3.767  0.0869  0.4092 -0.3644
 1843SOL    HW2 5529   1.603   0.200   3.717  2.9463  0.0785  0.0873
 1844SOL     OW 5530   2.226   3.301   1.420  0.7351  0.6909  0.0609
 1844SOL    HW1 5531   2.197   3.290   1.330  1.2673  0.1961 -0.0629
 1844SOL    HW2 5532   2.174   3.238   1.470  1.5272 -0.1710 -0.1552
 1845SOL     OW 5533   0.892   0.103   1.476 -0.2013 -0.7401  0.4936
 1845SOL    HW1 5534   0.809   0.060   1.455 -1.0173  0.1405  1.8376
 1845SOL    HW2 5535   0.915   0.150   1.395 -1.6395 -0.0056  0.4836
 1846SOL     OW 5536   2.660   0.888   2.499  0.1976 -0.5198  0.0978
 1846SOL    HW1 5537   2.645   0.875   2.405 -1.2617  0.7757  0.1133
 1846SOL    HW2 5538   2.573   0.908   2.534  0.7930 -0.5643  1.6653
 1847SOL     OW 5539   3.701   0.532   1.371 -0.3144 -0.2103  0.2822
 1847SOL    HW1 5540   3.733   0.455   1.419  1.1220 -2.4625 -3.8669
 1847SOL    HW2 5541   3.767   0.600   1.387 -0.4087 -0.5046  2.1717
 1848SOL     OW 5542   1.723   2.440   2.733 -0.4848 -0.1989  1.0282
 1848SOL    HW1 5543   1.657   2.404   2.673  0.2764  2.3972 -1.5921
 1848SOL    HW2 5544   1.672   2.481   2.803 -1.5972 -0.0371  0.1593
 1849SOL     OW 5545   3.158   2.839   1.479  0.1024 -0.5615  0.3386
 1849SOL    HW1 5546   3.253   2.840   1.493  0.0366  0.9813  0.8728
 1849SOL    HW2 5547   3.139   2.923   1.436 -1.0816 -0.6298  0.6952
 1850SOL     OW 5548   3.700   0.692   1.007  0.4071  1.0211 -0.7174
 1850SOL    HW1 5549   3.649   0.616   1.035  0.9057  0.8742 -0.1811
 1850SOL    HW2 5550   3.678   0.760   1.072  2.9333  0.1482  1.2141
 1851SOL     OW 5551   0.105   2.486   3.203 -0.6568  0.2876  0.7079
 1851SOL    HW1 5552   0.087   2.400   3.164 -0.2001  0.8896 -0.8790
 1851SOL    HW2 5553   0.181   2.471   3.259  0.4075 -0.0472 -0.7645
 1852SOL     OW 5554   1.803   2.788   2.007 -0.2727  0.8752  0.3274
 1852SOL    HW1 5555   1.892   2.822   2.005  0.0636  0.0072 -0.6398
 1852SOL    HW2 5556   1.806   2.714   2.068  0.0259  0.0075 -0.6905
 1853SOL     OW 5557   3.660  -0.015   0.258  0.4880 -0.2545 -0.1768
 1853SOL    HW1 5558   3.581   0.039   0.254 -0.6445 -1.7781  0.9115
 1853SOL    HW2 5559   3.731   0.048   0.268 -0.4865  1.1943 -1.8524
 1854SOL     OW 5560   2.527   2.927   1.207 -0.3474 -0.4548 -0.3501
 1854SOL    HW1 5561   2.583   2.947   1.282  0.3857 -1.5407 -0.5819
 1854SOL    HW2 5562   2.439   2.921   1.245  0.0369 -1.1869  0.4799
 1855SOL     OW 5563   2.293   3.106   3.166  0.7237  0.0212  1.2558
 1855SOL    HW1 5564   2.301   3.117   3.261  0.3670  2.4851  1.0670
 1855SOL    HW2 5565   2.377   3.136   3.132  0.6005 -0.2104  0.7423
 1856SOL     OW 5566   2.511   2.782   3.439 -0.6249  0.0884 -0.3836
 1856SOL    HW1 5567   2.572   2.802   3.368  0.5653  1.6411  1.0201
 1856SOL    HW2 5568   2.566   2.768   3.516 -1.9487 -0.4043  0.5173
 1857SOL     OW 5569   0.737   0.855   1.136  0.7168  0.1260  0.1482
 1857SOL    HW1 5570   0.810   0.850   1.198  1.8729  1.4224 -1.0279
 1857SOL    HW2 5571   0.667   0.898   1.185 -0.0869 -2.9239  1.9545
 1858SOL     OW 5572   0.230   2.199   0.628 -0.2468 -0.3578 -0.1588
 1858SOL    HW1 5573   0.294   2.140   0.667 -1.3021 -0.8502  0.9168
 1858SOL    HW2 5574   0.173   2.224   0.702 -0.4527  1.1666 -0.7968
 1859SOL     OW 5575   0.482   3.750   0.064  0.3625  0.2748 -0.4443
 1859SOL    HW1 5576   0.506   3.678   0.006 -1.6564  0.0026 -1.0292
 1859SOL    HW2 5577   0.432   3.709   0.135 -1.8260  1.1109 -1.3781
 1860SOL     OW 5578   0.582   3.346   2.616 -0.4682 -0.2976  0.5363
 1860SOL    HW1 5579   0.560   3.254   2.608 -1.2858  0.0473 -2.6873
 1860SOL    HW2 5580   0.498   3.391   2.624 -0.2824  0.2905 -0.5536
 1861SOL     OW 5581   3.357   3.921   0.327  0.5440  0.4755 -0.0898
 1861SOL    HW1 5582   3.385   3.834   0.297 -0.6262 -0.2082  0.6968
 1861SOL    HW2 5583   3.369   3.978   0.251 -0.3761 -0.7527 -1.2004
 1862SOL     OW 5584   1.786   2.582   0.747 -0.0580 -0.3721  0.0861
 1862SOL    HW1 5585   1.696   2.598   0.718 -0.9169 -2.8423  1.0739
 1862SOL    HW2 5586   1.836   2.574   0.666 -0.8547  0.4054 -0.5013
 1863SOL     OW 5587   2.904   0.500   3.447  0.4898  1.2622  0.2592
 1863SOL    HW1 5588   2.989   0.495   3.490  0.5600  0.8617  0.0849
 1863SOL    HW2 5589   2.895   0.415   3.404 -0.7512  0.6423  1.6656
 1864SOL     OW 5590   3.907   1.105   0.754  0.4453  0.2562 -0.5293
 1864SOL    HW1 5591   3.866   1.018   0.753  2.1486 -0.5830  0.0004
 1864SOL    HW2 5592   3.983   1.097   0.697  0.0512  1.7412 -1.3378
 1865SOL     OW 5593   2.395   1.317   0.552  0.0109 -0.3105 -0.3316
 1865SOL    HW1 5594   2.339   1.352   0.483 -0.7823 -1.8484 -0.5171
 1865SOL    HW2 5595   2.427   1.233   0.517  3.3060  0.9250 -0.6639
 1866SOL     OW 5596   0.636   0.195   2.073  0.0916 -0.5824 -0.2920
 1866SOL    HW1 5597   0.627   0.109   2.115 -2.6611 -0.2251  0.0490
 1866SOL    HW2 5598   0.563   0.246   2.109  0.4901  1.2726 -1.9806
 1867SOL     OW 5599   1.891   1.243   0.254  0.0382 -0.3874 -0.7495
 1867SOL    HW1 5600   1.970   1.193   0.274  0.0574 -1.2937 -2.8306
 1867SOL    HW2 5601   1.922   1.319   0.206 -0.1607  0.7806  0.8694
 1868SOL     OW 5602   0.914   1.870   0.595 -0.3555 -0.0565 -0.3640
 1868SOL    HW1 5603   0.890   1.786   0.555 -3.4091  0.2060  0.7036
 1868SOL    HW2 5604   0.986   1.902   0.540 -1.5910 -1.6204 -3.1324
 1869SOL     OW 5605   3.270   0.817   0.275  0.2344  0.8322  0.2562
 1869SOL    HW1 5606   3.233   0.816   0.363 -0.0592  1.3060  0.1431
 1869SOL    HW2 5607   3.309   0.730   0.264  0.3762  0.8097  0.8924
 1870SOL     OW 5608   1.419   2.129   3.690  0.0097 -1.0926 -0.6778
 1870SOL    HW1 5609   1.514   2.137   3.688 -0.1335  1.8258 -0.4309
 1870SOL    HW2 5610   1.392   2.131   3.598  0.1545 -1.6937 -0.7371
 1871SOL     OW 5611   3.920   1.292   1.717  0.6426  0.1532  0.7967
 1871SOL    HW1 5612   3.997   1.240   1.739  0.6476 -0.7802 -1.2086
 1871SOL    HW2 5613   3.955   1.373   1.680  0.6994 -0.4344 -0.4799
 1872SOL     OW 5614   0.553   3.039   0.555 -0.5846  0.6500 -0.3059
 1872SOL    HW1 5615   0.553   2.962   0.498 -0.1829  0.7261 -0.4122
 1872SOL    HW2 5616   0.526   3.111   0.498 -0.6584  0.6404 -0.2827
 1873SOL     OW 5617   2.593   1.329   1.328 -0.0222 -0.3920 -0.6902
 1873SOL    HW1 5618   2.641   1.337   1.411  0.1821 -2.1226 -0.5921
 1873SOL    HW2 5619   2.640   1.384   1.267 -0.2661  1.0502  0.3658
 1874SOL     OW 5620   2.185   1.089   3.799  0.6633  0.4103 -0.1465
 1874SOL    HW1 5621   2.235   1.163   3.764  2.4945 -1.7877 -2.6630
 1874SOL    HW2 5622   2.230   1.012   3.764 -1.7185 -1.9015  1.5048
 1875SOL     OW 5623   0.227   0.102   3.130  0.1476  0.0363  0.2494
 1875SOL    HW1 5624   0.209   0.163   3.059  2.8925 -0.0732 -0.6907
 1875SOL    HW2 5625   0.141   0.075   3.162 -1.1594  1.5296 -1.7736
 1876SOL     OW 5626   2.571   1.210   0.862  0.7900 -0.2068  0.2099
 1876SOL    HW1 5627   2.661   1.187   0.883  0.2919 -1.1374  1.4151
 1876SOL    HW2 5628   2.567   1.208   0.766  2.5389  1.8516  0.0120
 1877SOL     OW 5629   0.705   3.927   0.460 -0.4142 -0.1315  0.1198
 1877SOL    HW1 5630   0.642   3.868   0.500 -1.0105  1.9445  2.4740
 1877SOL    HW2 5631   0.747   3.971   0.533 -0.0531  2.3780 -1.4681
 1878SOL     OW 5632   4.025   1.946   3.891  0.1572  0.3862 -0.4623
 1878SOL    HW1 5633   4.022   1.981   3.981 -1.4864 -1.1628  0.1472
 1878SOL    HW2 5634   3.950   1.887   3.886  1.6047 -1.4352 -2.0950
 1879SOL     OW 5635   1.025   2.200   2.551 -0.6388  0.2176 -0.1950
 1879SOL    HW1 5636   0.945   2.209   2.500 -1.2042  2.3231  0.9740
 1879SOL    HW2 5637   0.996   2.198   2.642  0.3736 -3.0209  0.1942
 1880SOL     OW 5638   0.752   1.580   3.161 -0.6739 -0.5771  1.1639
 1880SOL    HW1 5639   0.696   1.581   3.239  0.9207 -1.2148  2.3532
 1880SOL    HW2 5640   0.774   1.672   3.147  1.4283 -0.6321  3.3299
 1881SOL     OW 5641   1.348   2.114   3.424  0.7731 -0.2639 -0.2308
 1881SOL    HW1 5642   1.441   2.092   3.412  0.2665 -2.1935 -0.9385
 1881SOL    HW2 5643   1.301   2.035   3.396 -1.1609  1.3014 -1.6130
 1882SOL     OW 5644  -0.007   2.266   1.415  0.3015 -0.0196 -0.2122
 1882SOL    HW1 5645  -0.046   2.246   1.500  1.3579  1.9283  0.7942
 1882SOL    HW2 5646   0.083   2.290   1.435 -0.4732  4.5552 -1.2649
 1883SOL     OW 5647   2.544   3.260   2.178 -0.7133 -0.2865  0.3040
 1883SOL    HW1 5648   2.455   3.227   2.180 -0.8590 -0.1246  3.9391
 1883SOL    HW2 5649   2.535   3.353   2.158 -0.9491 -0.8310 -2.5611
 1884SOL     OW 5650   3.372   3.335   0.730  0.1343 -0.2817 -0.0518
 1884SOL    HW1 5651   3.378   3.293   0.816 -1.1587  1.1320  0.7613
 1884SOL    HW2 5652   3.459   3.323   0.692  0.7488 -0.8815  1.4571
 1885SOL     OW 5653   1.601   1.944   2.260 -0.0123  0.0665  0.4445
 1885SOL    HW1 5654   1.670   1.884   2.289  0.4566  0.8203  0.8945
 1885SOL    HW2 5655   1.620   1.959   2.167  2.2502  2.6192  1.2082
 1886SOL     OW 5656   0.264   0.987   2.010 -0.3225  0.0423 -0.1633
 1886SOL    HW1 5657   0.314   0.924   2.062 -1.2137  0.1405  0.8669
 1886SOL    HW2 5658   0.297   1.072   2.038 -0.2446  0.0793 -0.3645
 1887SOL     OW 5659   1.033   1.207   3.987  0.5278 -0.1538 -0.0228
 1887SOL    HW1 5660   1.056   1.287   4.035 -0.4123 -0.6355  1.3080
 1887SOL    HW2 5661   1.059   1.224   3.897  2.7588  0.6491  0.7098
 1888SOL     OW 5662   0.338   0.292   1.654  0.2901  0.3057 -0.2536
 1888SOL    HW1 5663   0.409   0.258   1.599 -1.6496  0.9545 -3.4362
 1888SOL    HW2 5664   0.328   0.227   1.723  1.7762 -1.5392 -1.6540
 1889SOL     OW 5665   2.640   3.419   2.901 -0.0196 -0.2274  0.2205
 1889SOL    HW1 5666   2.618   3.349   2.840 -0.6737 -0.0584  0.2479
 1889SOL    HW2 5667   2.703   3.474   2.855 -1.0308  0.2935 -0.5807
 1890SOL     OW 5668   3.569   0.500   1.142 -0.5131 -0.2733 -0.0267
 1890SOL    HW1 5669   3.515   0.424   1.163  0.9599 -1.2314  0.4361
 1890SOL    HW2 5670   3.635   0.504   1.211  2.3737 -1.4868 -2.4549
 1891SOL     OW 5671   3.187   1.222   0.772  0.0743 -0.3121  0.3944
 1891SOL    HW1 5672   3.221   1.277   0.702 -0.6052 -0.2255  0.1230
 1891SOL    HW2 5673   3.180   1.135   0.733  3.9415 -1.3725  1.6441
 1892SOL     OW 5674   2.166   0.588   2.608  0.1508  0.4026  0.7863
 1892SOL    HW1 5675   2.116   0.566   2.686 -0.6909  0.8660  0.3859
 1892SOL    HW2 5676   2.121   0.663   2.570  1.5444  1.2719  0.7839
 1893SOL     OW 5677   0.239   2.297   2.816  0.2767 -0.5981  0.8104
 1893SOL    HW1 5678   0.280   2.374   2.857 -0.2493  0.8890 -1.2926
 1893SOL    HW2 5679   0.156   2.329   2.782  1.1959 -1.3133 -2.5086
 1894SOL     OW 5680   2.851   3.209   3.870  0.3387 -0.4156  0.6197
 1894SOL    HW1 5681   2.858   3.267   3.794 -1.2422 -2.5502 -1.2800
 1894SOL    HW2 5682   2.928   3.152   3.864  0.6803 -0.0243  1.1669
 1895SOL     OW 5683   0.050   1.603   1.868 -0.9629 -0.3079  0.3651
 1895SOL    HW1 5684   0.079   1.566   1.952 -3.2577 -2.3767  0.3587
 1895SOL    HW2 5685   0.066   1.697   1.876  0.1729 -0.6235  2.5370
 1896SOL     OW 5686   1.336   0.861   0.734 -0.5779 -0.3559  0.6060
 1896SOL    HW1 5687   1.241   0.862   0.749 -0.5654 -0.1772  0.6743
 1896SOL    HW2 5688   1.375   0.878   0.819 -0.5004  0.2309  0.4590
 1897SOL     OW 5689   0.519   2.440   1.995  0.3067  0.3274  0.1917
 1897SOL    HW1 5690   0.487   2.526   1.969 -1.1776 -0.7834 -1.9556
 1897SOL    HW2 5691   0.615   2.446   1.986  0.4915  2.4114  2.4939
 1898SOL     OW 5692   3.388   2.349   0.213 -0.2808  0.2889 -0.5583
 1898SOL    HW1 5693   3.306   2.398   0.218 -0.2455  0.4382 -1.2759
 1898SOL    HW2 5694   3.446   2.404   0.159 -0.6813 -1.1200 -2.5621
 1899SOL     OW 5695   1.699   3.549   1.974 -0.1165  0.8247 -0.5460
 1899SOL    HW1 5696   1.676   3.457   1.983 -0.3060  0.7063 -2.0099
 1899SOL    HW2 5697   1.795   3.550   1.980 -0.1247  0.5539 -0.3691
 1900SOL     OW 5698   2.567   2.362   1.932  0.5170 -0.5342  0.2486
 1900SOL    HW1 5699   2.571   2.357   2.027 -0.4644 -0.7328  0.2851
 1900SOL    HW2 5700   2.604   2.279   1.902  2.4344  0.2014  0.3842
 1901SOL     OW 5701   2.320   2.266   0.258  0.6380 -0.0149  0.1694
 1901SOL    HW1 5702   2.285   2.330   0.196 -0.2445  1.8134  2.4107
 1901SOL    HW2 5703   2.244   2.218   0.289  0.7309  0.7299  1.5847
 1902SOL     OW 5704   2.909   3.535   3.924 -0.2153 -0.1407 -0.0631
 1902SOL    HW1 5705   2.821   3.514   3.891  0.3053  0.0077 -1.6700
 1902SOL    HW2 5706   2.934   3.458   3.975 -0.8770 -0.6428 -0.4719
 1903SOL     OW 5707   2.333   3.131   1.633  0.7633  0.3152  0.3176
 1903SOL    HW1 5708   2.306   3.223   1.641  0.6842  0.2751  0.5325
 1903SOL    HW2 5709   2.403   3.132   1.568 -0.9825  0.1727 -1.6958
 1904SOL     OW 5710   2.662   2.398   0.146  0.6245 -0.0416  0.9585
 1904SOL    HW1 5711   2.749   2.411   0.108  0.0220 -1.7847 -1.2127
 1904SOL    HW2 5712   2.658   2.304   0.164 -1.2827 -0.2463 -0.3033
 1905SOL     OW 5713   0.391   2.307   1.022 -0.3786  0.1662 -0.1778
 1905SOL    HW1 5714   0.455   2.236   1.014 -0.9656 -0.5240  0.9734
 1905SOL    HW2 5715   0.332   2.295   0.948  1.4349  1.5247 -1.9692
 1906SOL     OW 5716   2.543   0.295   1.723  0.0036  0.0058  0.1284
 1906SOL    HW1 5717   2.558   0.306   1.629 -3.3803  0.3975 -0.4936
 1906SOL    HW2 5718   2.539   0.384   1.757  3.0847 -0.1248  1.1291
 1907SOL     OW 5719   2.470   3.880   3.468  0.3781 -0.3190 -0.3985
 1907SOL    HW1 5720   2.531   3.821   3.513  1.0627  0.1333 -0.7210
 1907SOL    HW2 5721   2.397   3.889   3.530  2.6082  2.7180  2.1172
 1908SOL     OW 5722   1.448   3.298   3.736  0.4140 -0.1960 -0.2882
 1908SOL    HW1 5723   1.512   3.352   3.783  2.0668 -2.0666 -0.2569
 1908SOL    HW2 5724   1.451   3.331   3.646 -0.2691  1.1895  0.1683
 1909SOL     OW 5725   2.037   2.966   1.172 -0.2854  0.1359  0.0493
 1909SOL    HW1 5726   2.127   2.937   1.184 -0.3699  0.3193  1.3166
 1909SOL    HW2 5727   2.041   3.061   1.181 -0.9176 -0.0154  2.7500
 1910SOL     OW 5728   2.884   2.351   1.791 -0.5020 -0.5310  0.0022
 1910SOL    HW1 5729   2.897   2.417   1.860 -0.7430 -0.3195 -0.1531
 1910SOL    HW2 5730   2.812   2.385   1.739  0.2375 -0.2633 -0.8727
 1911SOL     OW 5731   3.944   3.563   0.524 -0.3551 -0.0515  0.9451
 1911SOL    HW1 5732   3.901   3.491   0.478  2.0152 -1.6558  1.0527
 1911SOL    HW2 5733   3.917   3.641   0.475  1.1826 -1.5404 -2.6535
 1912SOL     OW 5734   1.737   3.268   1.687 -0.2352 -0.5628 -0.6222
 1912SOL    HW1 5735   1.786   3.277   1.605  2.4597 -3.9201  0.3877
 1912SOL    HW2 5736   1.709   3.176   1.689 -2.9388  0.1665  0.9263
 1913SOL     OW 5737   0.736   3.047   2.625  0.3051  0.2026 -0.0437
 1913SOL    HW1 5738   0.725   3.113   2.694  3.9777 -0.6950  1.6953
 1913SOL    HW2 5739   0.699   2.968   2.663  0.1036  0.2542 -0.1347
 1914SOL     OW 5740   0.028   0.478   1.711  0.2940 -0.0542 -0.0670
 1914SOL    HW1 5741   0.088   0.541   1.671  0.0275 -0.6584 -1.4638
 1914SOL    HW2 5742   0.068   0.457   1.796 -0.3631  3.1060  1.1556
 1915SOL     OW 5743   1.769   1.056   0.037 -0.0065  0.6023 -0.2206
 1915SOL    HW1 5744   1.775   1.108   0.117 -1.3124  2.0239 -0.9873
 1915SOL    HW2 5745   1.721   1.113  -0.025  0.7519 -0.5360 -1.9257
 1916SOL     OW 5746   2.887   3.653   2.039 -0.9267  1.0150  0.1984
 1916SOL    HW1 5747   2.940   3.684   1.966 -0.5650 -0.8480 -0.3865
 1916SOL    HW2 5748   2.946   3.657   2.114 -0.4029  0.3279 -0.1649
 1917SOL     OW 5749   3.111   1.739   2.023 -0.3506 -0.2713  0.0172
 1917SOL    HW1 5750   3.066   1.655   2.023 -1.0313  0.0829 -0.6056
 1917SOL    HW2 5751   3.067   1.790   2.092 -2.6585  0.9522 -2.2032
 1918SOL     OW 5752   3.232   1.073   0.397 -0.9958  0.3664  0.2614
 1918SOL    HW1 5753   3.293   1.007   0.363 -1.6746 -0.1850  0.1054
 1918SOL    HW2 5754   3.245   1.149   0.340 -0.6496  0.1620  0.0651
 1919SOL     OW 5755   3.333   2.581   2.332  0.2490 -0.2149 -0.3100
 1919SOL    HW1 5756   3.268   2.587   2.262 -0.3454  0.9893  0.3073
 1919SOL    HW2 5757   3.410   2.545   2.290 -1.1452 -2.8249 -0.8007
 1920SOL     OW 5758   2.420   3.570   1.502  1.0017  0.4152  0.2933
 1920SOL    HW1 5759   2.374   3.499   1.457  0.0129 -0.0171  1.8911
 1920SOL    HW2 5760   2.425   3.641   1.438 -0.5807 -0.0742 -0.4177
 1921SOL     OW 5761   3.234   2.610   0.767  0.1034  0.3013 -0.1417
 1921SOL    HW1 5762   3.320   2.568   0.773  0.2926  0.8220  1.0427
 1921SOL    HW2 5763   3.220   2.621   0.673  0.7398 -0.9720 -0.4061
 1922SOL     OW 5764   1.901   0.338   3.573 -0.0129 -0.1609  0.1585
 1922SOL    HW1 5765   1.858   0.404   3.628  0.4317 -0.0075  0.3258
 1922SOL    HW2 5766   1.951   0.389   3.509 -1.4053 -0.3277 -1.1108
 1923SOL     OW 5767   2.341   0.700   1.721 -0.1222  0.0609 -0.4620
 1923SOL    HW1 5768   2.260   0.656   1.747  0.0192  0.5392  0.8496
 1923SOL    HW2 5769   2.315   0.758   1.649 -1.6642  2.5620  1.9215
 1924SOL     OW 5770   1.385   1.756   2.194 -0.0288  0.1599  0.3339
 1924SOL    HW1 5771   1.435   1.836   2.176  0.8453 -0.8375 -2.2489
 1924SOL    HW2 5772   1.293   1.781   2.183  0.1121  1.2117  1.4769
 1925SOL     OW 5773   0.818   1.044   0.098  0.7058 -0.6631  0.5131
 1925SOL    HW1 5774   0.856   1.066   0.183  0.2237  1.3958  0.2455
 1925SOL    HW2 5775   0.870   1.094   0.035  0.3574 -1.3076 -0.3104
 1926SOL     OW 5776   3.041   1.254   2.470 -0.2887  0.8197 -0.3613
 1926SOL    HW1 5777   3.051   1.344   2.500 -0.8806  0.7571  0.0548
 1926SOL    HW2 5778   3.011   1.262   2.380  1.1342  1.0140 -0.8415
 1927SOL     OW 5779   3.607   0.691   1.628 -0.2237 -0.2832  0.1996
 1927SOL    HW1 5780   3.629   0.665   1.717 -0.4092 -0.5443  0.1700
 1927SOL    HW2 5781   3.517   0.660   1.615  0.7735 -2.9603 -1.0809
 1928SOL     OW 5782   2.515   2.009   0.411  0.8488  0.2180  0.0051
 1928SOL    HW1 5783   2.480   1.930   0.452  0.2555  1.9789  3.1871
 1928SOL    HW2 5784   2.439   2.064   0.394  1.4565  1.3425  0.7422
 1929SOL     OW 5785   2.354   2.976   3.964 -0.0103 -0.2091 -0.5013
 1929SOL    HW1 5786   2.337   3.026   4.044  1.2855  1.0559 -0.9906
 1929SOL    HW2 5787   2.337   3.037   3.893 -0.0302 -0.9849 -1.1804
 1930SOL     OW 5788   0.946   0.596   0.565  0.2504  0.3232  0.2132
 1930SOL    HW1 5789   0.875   0.632   0.511  0.5809  0.6246 -0.0331
 1930SOL    HW2 5790   0.964   0.510   0.526 -0.2022  0.0996  0.4870
 1931SOL     OW 5791   3.431   2.991   1.627 -0.2683 -0.0191  0.6526
 1931SOL    HW1 5792   3.351   3.033   1.595 -0.3143 -0.3477  0.3310
 1931SOL    HW2 5793   3.455   3.041   1.705 -1.6870 -0.8983  1.7056
 1932SOL     OW 5794   1.508   1.224   1.114  0.7811  0.3671  0.4127
 1932SOL    HW1 5795   1.415   1.243   1.108  1.2505  3.0594  0.3021
 1932SOL    HW2 5796   1.544   1.252   1.030  1.8828  0.7743  1.0000
 1933SOL     OW 5797   0.144   3.624   2.964 -0.0809  0.3206 -0.4225
 1933SOL    HW1 5798   0.189   3.595   3.043  1.6962 -0.3140 -1.5820
 1933SOL    HW2 5799   0.063   3.664   2.995  0.8313  0.6308  1.7305
 1934SOL     OW 5800   2.367   0.884   2.989  0.8553 -0.9895 -0.3168
 1934SOL    HW1 5801   2.350   0.799   2.950 -0.7299 -0.5483 -0.6474
 1934SOL    HW2 5802   2.288   0.904   3.040  0.7307  0.7410 -1.1249
 1935SOL     OW 5803   2.726   2.890   1.387 -0.0596 -0.8249 -0.0248
 1935SOL    HW1 5804   2.811   2.869   1.427  0.0878  0.7410  0.5239
 1935SOL    HW2 5805   2.700   2.808   1.343  2.0190 -1.1566 -0.7489
 1936SOL     OW 5806   0.593   2.931   1.478 -0.6212  0.0033  0.7704
 1936SOL    HW1 5807   0.680   2.964   1.502  0.0766 -1.2873  0.1113
 1936SOL    HW2 5808   0.600   2.909   1.385 -0.7756 -2.6801  1.3167
 1937SOL     OW 5809   0.712   1.138   2.860 -0.3218 -0.3890 -0.0849
 1937SOL    HW1 5810   0.681   1.210   2.805 -2.9833 -1.4370 -0.0889
 1937SOL    HW2 5811   0.729   1.180   2.945  1.3620  0.7622 -0.9147
 1938SOL     OW 5812   2.058   3.924   0.449  0.5370 -0.3727  0.0528
 1938SOL    HW1 5813   2.142   3.914   0.403 -0.3419  2.0323 -2.3305
 1938SOL    HW2 5814   2.037   4.017   0.440 -2.2102 -0.8268  0.9231
 1939SOL     OW 5815   2.301   0.293   1.605 -0.1805  0.3366  0.4847
 1939SOL    HW1 5816   2.358   0.355   1.561 -1.7984  2.6635  1.4724
 1939SOL    HW2 5817   2.341   0.207   1.589  2.9478  1.7281  0.3006
 1940SOL     OW 5818   1.742   0.300   2.857  0.0937 -0.1524 -0.2295
 1940SOL    HW1 5819   1.802   0.349   2.913  2.8819 -1.8703 -1.5102
 1940SOL    HW2 5820   1.715   0.364   2.790  0.0868  0.7762  0.6383
 1941SOL     OW 5821   1.245   3.493   0.209  0.0982  0.1333 -0.0372
 1941SOL    HW1 5822   1.207   3.478   0.296  1.1792 -0.6312  0.3168
 1941SOL    HW2 5823   1.198   3.569   0.176  0.1245  0.8578  1.4929
 1942SOL     OW 5824   0.198   2.515   1.684  0.2857  0.1018 -0.2314
 1942SOL    HW1 5825   0.181   2.527   1.591 -1.0420  1.0898  0.1203
 1942SOL    HW2 5826   0.158   2.591   1.727  0.4156 -0.5890  1.1965
 1943SOL     OW 5827   1.712   3.656   3.272  0.4629  0.1095 -0.2608
 1943SOL    HW1 5828   1.758   3.736   3.246  0.4903  0.4288  0.7429
 1943SOL    HW2 5829   1.648   3.642   3.203  2.2491 -0.5259 -1.8946
 1944SOL     OW 5830   2.770   0.838   0.226  0.1327  0.2876  0.6913
 1944SOL    HW1 5831   2.847   0.866   0.275  0.8674  2.1618 -1.3445
 1944SOL    HW2 5832   2.696   0.879   0.273  0.8348  2.2799  0.1579
 1945SOL     OW 5833   2.143   0.572   1.225  0.4018 -0.1590 -0.5125
 1945SOL    HW1 5834   2.166   0.658   1.189  2.2003 -0.8270 -1.0397
 1945SOL    HW2 5835   2.048   0.568   1.217  0.1733  2.0886  0.2397
 1946SOL     OW 5836   2.679   0.783   1.120 -0.5596  0.2792  0.2796
 1946SOL    HW1 5837   2.703   0.818   1.034  1.1763  0.2136  0.6894
 1946SOL    HW2 5838   2.651   0.859   1.170  1.8316  0.9512  0.7264
 1947SOL     OW 5839   3.110   2.826   1.111 -1.0203  0.7506  0.1319
 1947SOL    HW1 5840   3.074   2.904   1.070 -5.0553 -0.4114  0.9434
 1947SOL    HW2 5841   3.093   2.839   1.205  2.6172  0.8140  0.9380
 1948SOL     OW 5842   3.462   3.661   1.162 -0.1135 -0.2231 -0.1380
 1948SOL    HW1 5843   3.529   3.702   1.107  0.7760  0.1573  1.1782
 1948SOL    HW2 5844   3.400   3.622   1.100  0.7240  0.3863 -1.3947
 1949SOL     OW 5845   2.924   2.887   1.866  0.0436  0.0241  0.1511
 1949SOL    HW1 5846   3.010   2.906   1.903 -0.6757  1.6450  1.1478
 1949SOL    HW2 5847   2.870   2.962   1.892 -1.2911 -0.2089 -1.7160
 1950SOL     OW 5848   0.277   1.279   3.769 -0.0550  0.6573  0.3268
 1950SOL    HW1 5849   0.263   1.264   3.676  2.6970  1.7418 -0.3773
 1950SOL    HW2 5850   0.307   1.195   3.803  1.2733  0.8100 -0.3726
 1951SOL     OW 5851   3.617   3.106   2.604 -0.6655  0.4354  0.1549
 1951SOL    HW1 5852   3.643   3.145   2.687 -2.1012 -1.1521  1.4321
 1951SOL    HW2 5853   3.667   3.025   2.599 -1.7433 -0.2617  0.2908
 1952SOL     OW 5854   3.242   3.532   2.377  0.1095  1.2912  0.5386
 1952SOL    HW1 5855   3.230   3.437   2.366  3.0869  0.8825 -0.1882
 1952SOL    HW2 5856   3.241   3.545   2.471 -2.8888  1.0254  0.6204
 1953SOL     OW 5857   2.239   3.669   3.504  0.5059  0.0641 -0.1462
 1953SOL    HW1 5858   2.156   3.706   3.532  1.1917  2.3239 -0.8760
 1953SOL    HW2 5859   2.250   3.590   3.557 -1.7394  0.0985  0.4530
 1954SOL     OW 5860   3.836   0.351   3.074  0.1075 -0.3530  0.1246
 1954SOL    HW1 5861   3.823   0.257   3.062 -2.5897 -0.0035 -0.4670
 1954SOL    HW2 5862   3.821   0.389   2.987  1.6336  0.6098  0.2530
 1955SOL     OW 5863   2.867   2.990   1.056  0.3929  0.9247 -0.1810
 1955SOL    HW1 5864   2.772   2.980   1.061  0.3611  1.0393 -0.5235
 1955SOL    HW2 5865   2.885   3.000   0.963  0.9065 -0.6578 -0.2702
 1956SOL     OW 5866   2.245   3.910   0.264 -0.0516 -0.3153 -0.5906
 1956SOL    HW1 5867   2.296   3.923   0.184  1.1386  3.1377  0.5496
 1956SOL    HW2 5868   2.311   3.893   0.332 -0.8382 -0.6601  0.1028
 1957SOL     OW 5869   2.691   1.490   1.076 -0.1219  0.2969  0.4747
 1957SOL    HW1 5870   2.715   1.560   1.137 -0.4188 -0.3905  1.3932
 1957SOL    HW2 5871   2.771   1.474   1.025 -0.1024  1.4077  0.1347
 1958SOL     OW 5872   3.596   3.549   0.069  0.5598 -0.2855 -0.6190
 1958SOL    HW1 5873   3.622   3.596   0.148  0.2252 -1.4931  0.2343
 1958SOL    HW2 5874   3.662   3.574   0.004  0.7154  0.8937 -0.0431
 1959SOL     OW 5875   1.478   1.593   1.643  0.0840  0.1919  0.1542
 1959SOL    HW1 5876   1.548   1.532   1.667 -0.6457 -0.4373  0.7541
 1959SOL    HW2 5877   1.397   1.544   1.660 -0.5086  1.0168 -0.2112
 1960SOL     OW 5878   0.843   0.655   2.916 -0.3977  0.8240 -0.0492
 1960SOL    HW1 5879   0.815   0.637   2.826 -1.0463 -0.1450  0.3386
 1960SOL    HW2 5880   0.889   0.740   2.910  1.9874 -0.4540 -1.7771
 1961SOL     OW 5881   2.053   1.857   2.856  0.1674 -0.1778  0.3523
 1961SOL    HW1 5882   2.057   1.763   2.872 -1.7615  0.1913  3.9285
 1961SOL    HW2 5883   1.971   1.870   2.809  0.1786 -0.2320  0.3175
 1962SOL     OW 5884   0.480   2.714   1.610  0.1154  0.8439  0.4343
 1962SOL    HW1 5885   0.504   2.624   1.588 -1.6876  0.3682  0.2897
 1962SOL    HW2 5886   0.525   2.767   1.545  1.6467  0.1201  0.8466
 1963SOL     OW 5887   3.625   2.661   3.534  0.4003  0.6426  0.0786
 1963SOL    HW1 5888   3.630   2.592   3.469  2.3718  1.6407 -0.9283
 1963SOL    HW2 5889   3.607   2.741   3.484  2.6157  1.5393  0.5964
 1964SOL     OW 5890   3.678   2.831   1.462  0.8802  0.6460  0.3211
 1964SOL    HW1 5891   3.766   2.830   1.424  0.0889 -0.2448 -1.5979
 1964SOL    HW2 5892   3.667   2.921   1.493  1.9185  1.1762 -0.7690
 1965SOL     OW 5893   3.539   0.667   3.489 -0.4039  0.0528  0.0883
 1965SOL    HW1 5894   3.493   0.740   3.448 -1.1930 -1.0980 -1.1582
 1965SOL    HW2 5895   3.543   0.600   3.421  2.0364 -0.3730  0.5539
 1966SOL     OW 5896   2.354   3.394   3.148 -0.3030  0.1413  0.2501
 1966SOL    HW1 5897   2.274   3.444   3.131 -0.3554  0.7629  2.1079
 1966SOL    HW2 5898   2.398   3.442   3.219  1.5478 -0.3779 -0.4784
 1967SOL     OW 5899   3.420   1.548   3.616  0.3112  0.1588  0.5952
 1967SOL    HW1 5900   3.422   1.453   3.617  1.4321  0.1031 -1.2692
 1967SOL    HW2 5901   3.506   1.574   3.650  0.1575  0.4835  0.7362
 1968SOL     OW 5902   2.340   3.032   0.580  0.7597 -0.4633 -0.0650
 1968SOL    HW1 5903   2.250   3.003   0.565  0.2078  1.4411 -0.7927
 1968SOL    HW2 5904   2.372   2.976   0.650 -0.5345 -2.0709 -0.6918
 1969SOL     OW 5905   1.034   2.945   1.849 -0.6011 -0.0483  0.0758
 1969SOL    HW1 5906   1.074   3.003   1.914  1.8811 -0.4639 -0.9918
 1969SOL    HW2 5907   1.015   2.865   1.896 -1.1573  0.5207  0.8406
 1970SOL     OW 5908   1.198   1.245   0.435 -0.7437 -0.0153  0.4100
 1970SOL    HW1 5909   1.163   1.313   0.493 -0.4834  0.3743  0.1162
 1970SOL    HW2 5910   1.241   1.293   0.365 -2.0560 -0.4576 -0.7416
 1971SOL     OW 5911   2.575   0.165   0.057  0.5890  0.2771  1.0268
 1971SOL    HW1 5912   2.662   0.193   0.086  0.5263 -0.4510  1.9613
 1971SOL    HW2 5913   2.516   0.234   0.087  0.7789  0.5229  0.8375
 1972SOL     OW 5914   1.243   3.170   0.183 -0.1700 -0.6367 -0.1883
 1972SOL    HW1 5915   1.238   3.262   0.207  0.3410 -0.1792 -1.6978
 1972SOL    HW2 5916   1.328   3.141   0.215  0.2383 -0.2092 -0.8524
 1973SOL     OW 5917   3.692   0.810   0.647 -0.1708 -0.6068 -0.3763
 1973SOL    HW1 5918   3.649   0.725   0.653  1.4382 -1.3769  3.7184
 1973SOL    HW2 5919   3.775   0.799   0.693 -0.6923  3.5444  2.1285
 1974SOL     OW 5920   0.757   0.384   2.820  0.0549  0.3080 -0.5157
 1974SOL    HW1 5921   0.680   0.360   2.873  1.7225  2.2006  3.1520
 1974SOL    HW2 5922   0.776   0.474   2.845  2.5243  0.4631 -2.5814
 1975SOL     OW 5923   3.250   3.640   2.651 -0.6102 -0.5300 -0.0211
 1975SOL    HW1 5924   3.264   3.691   2.731 -4.2677 -1.7569  1.5923
 1975SOL    HW2 5925   3.315   3.570   2.657 -1.9633 -1.6894  2.9665
 1976SOL     OW 5926   2.275   2.601   0.802 -0.3337  0.2309 -0.4673
 1976SOL    HW1 5927   2.206   2.648   0.850  0.0416 -0.7164  1.0804
 1976SOL    HW2 5928   2.355   2.652   0.819 -0.2188 -0.0441 -0.1802
 1977SOL     OW 5929   3.989   1.605   2.733  0.5812  0.0296 -0.4854
 1977SOL    HW1 5930   3.896   1.585   2.726  0.2957 -0.0621  2.2700
 1977SOL    HW2 5931   4.029   1.523   2.759  0.8869  0.7403  1.4701
 1978SOL     OW 5932   0.982   1.984   3.509 -0.5436  0.0223 -0.3379
 1978SOL    HW1 5933   1.017   2.073   3.517  0.6953 -0.3522 -1.1503
 1978SOL    HW2 5934   0.922   1.988   3.435  0.9294 -0.1837 -1.5946
 1979SOL     OW 5935   3.944   1.554   1.062  0.1376  0.0081  0.2724
 1979SOL    HW1 5936   4.023   1.608   1.070 -0.3032  0.7848 -0.4078
 1979SOL    HW2 5937   3.957   1.504   0.982  0.2030 -0.3295  0.4902
 1980SOL     OW 5938   3.572   2.844   2.808 -0.0060 -0.7270 -0.1904
 1980SOL    HW1 5939   3.646   2.886   2.765 -0.8269  0.7711 -0.1867
 1980SOL    HW2 5940   3.608   2.809   2.889  0.9330 -1.0484 -0.7304
 1981SOL     OW 5941   2.608   1.094   3.997  0.2805  0.2699 -0.5148
 1981SOL    HW1 5942   2.589   1.138   3.914 -0.1801  0.8758 -0.0960
 1981SOL    HW2 5943   2.558   1.013   3.993 -0.2430  0.5899 -0.5758
 1982SOL     OW 5944   0.557   2.726   2.852 -0.1825 -0.0500  0.2086
 1982SOL    HW1 5945   0.508   2.671   2.913 -0.8368 -0.7410 -0.9157
 1982SOL    HW2 5946   0.493   2.752   2.786 -0.1134  2.7107  1.0680
 1983SOL     OW 5947   0.823   0.636   2.650  0.3280  0.7268 -0.5592
 1983SOL    HW1 5948   0.805   0.584   2.572  0.4889 -2.7235  1.5043
 1983SOL    HW2 5949   0.916   0.656   2.644  0.9160 -1.6314 -0.1809
 1984SOL     OW 5950   1.957   2.006   1.938  0.2272 -0.6670  0.4758
 1984SOL    HW1 5951   1.987   1.955   1.862  1.8774 -1.0053  1.3087
 1984SOL    HW2 5952   2.012   2.084   1.938 -0.5008 -0.1390  0.7241
 1985SOL     OW 5953   3.318   1.387   0.575  0.0615  0.3182 -0.1736
 1985SOL    HW1 5954   3.376   1.365   0.502  2.2364 -2.2373  2.0808
 1985SOL    HW2 5955   3.352   1.471   0.607  2.0772 -0.6645  0.4940
 1986SOL     OW 5956   0.986  -0.019   0.319  0.3375  0.2458 -0.7404
 1986SOL    HW1 5957   0.983   0.072   0.290  0.2873  1.0232  1.5471
 1986SOL    HW2 5958   0.896  -0.039   0.345  0.5230 -0.1707 -0.4041
 1987SOL     OW 5959   1.776   2.905   0.600  0.4024  0.4114  0.4864
 1987SOL    HW1 5960   1.802   2.878   0.687 -1.4521 -1.9818  0.4296
 1987SOL    HW2 5961   1.774   2.824   0.549 -0.1438  1.4931 -1.3380
 1988SOL     OW 5962   3.211   3.563   3.897 -0.3951  0.2931 -0.9440
 1988SOL    HW1 5963   3.147   3.498   3.927 -1.1920  1.5333  0.1827
 1988SOL    HW2 5964   3.289   3.512   3.876 -0.4149 -0.8912  1.4995
 1989SOL     OW 5965   1.676   2.697   3.925 -0.0422  0.4687  0.3296
 1989SOL    HW1 5966   1.719   2.613   3.936 -0.9911  0.1641  2.0007
 1989SOL    HW2 5967   1.652   2.724   4.013 -2.0547  1.2397 -0.3907
 1990SOL     OW 5968   0.985   2.785   2.492 -0.2610 -0.2884 -0.1712
 1990SOL    HW1 5969   1.003   2.696   2.462 -0.4461 -0.0315 -1.0756
 1990SOL    HW2 5970   0.942   2.773   2.577 -1.5816 -1.1348 -0.9078
 1991SOL     OW 5971   2.718   0.424   0.078 -0.1706  0.4423 -0.1103
 1991SOL    HW1 5972   2.778   0.388   0.013  0.6616  2.9724 -0.8413
 1991SOL    HW2 5973   2.638   0.444   0.028 -0.3341  0.3616  0.1154
 1992SOL     OW 5974   1.634   0.415   1.320 -0.6024  0.4785  0.3372
 1992SOL    HW1 5975   1.620   0.427   1.414  1.1186 -2.0838  1.0299
 1992SOL    HW2 5976   1.557   0.365   1.291 -0.4642  0.0520  0.6963
 1993SOL     OW 5977   1.932   3.914   2.038  0.5102 -0.7417  0.7859
 1993SOL    HW1 5978   1.856   3.957   2.076  0.9747  0.4629  0.4024
 1993SOL    HW2 5979   1.939   3.832   2.086 -1.4436 -1.2255  0.3585
 1994SOL     OW 5980   1.662   0.907   2.744 -0.7382 -0.3567 -0.4931
 1994SOL    HW1 5981   1.704   0.839   2.691  1.5533 -1.9911  3.0213
 1994SOL    HW2 5982   1.578   0.869   2.770 -0.7891 -0.5668 -0.9562
 1995SOL     OW 5983   2.160   0.535   1.869 -1.1847 -0.4396 -0.6564
 1995SOL    HW1 5984   2.067   0.514   1.857 -1.8540  1.4233  0.7759
 1995SOL    HW2 5985   2.206   0.456   1.841 -3.2902 -2.2756  0.7091
 1996SOL     OW 5986   1.831   1.133   2.829 -0.0981  0.5779  0.3269
 1996SOL    HW1 5987   1.885   1.119   2.752  0.6695  0.6725  0.8358
 1996SOL    HW2 5988   1.769   1.060   2.828  2.0409 -1.4230  1.4133
 1997SOL     OW 5989   0.760   1.799   3.511  0.4584  0.2906  0.8473
 1997SOL    HW1 5990   0.759   1.816   3.416 -2.8516 -1.5431  0.3722
 1997SOL    HW2 5991   0.795   1.878   3.550  1.4183  1.3217 -1.8875
 1998SOL     OW 5992   2.262   0.968   2.349 -0.5465  0.2319 -0.2065
 1998SOL    HW1 5993   2.273   1.060   2.323 -0.3491  0.2918  0.0825
 1998SOL    HW2 5994   2.299   0.917   2.277 -3.4836  0.2622 -1.9349
 1999SOL     OW 5995   0.412   3.955   3.595  0.4143 -0.5618 -0.0061
 1999SOL    HW1 5996   0.446   3.921   3.678  1.1517  0.8533  0.3108
 1999SOL    HW2 5997   0.484   4.007   3.559 -0.8111  1.1175 -0.1547
 2000SOL     OW 5998   3.557   1.189   0.130  0.9585  1.0905 -0.7251
 2000SOL    HW1 5999   3.595   1.131   0.196 -1.0619 -0.6838 -1.0130
 2000SOL    HW2 6000   3.522   1.263   0.180 -1.6854 -0.8265  0.4696
 2001SOL     OW 6001   0.757   1.192   3.789  0.0306  0.0036  0.0529
 2001SOL    HW1 6002   0.851   1.204   3.778  0.7716 -3.0109  2.0240
 2001SOL    HW2 6003   0.739   1.224   3.877 -0.9426  1.0345 -0.4919
 2002SOL     OW 6004   1.464   3.053   0.256  0.2949  0.5159  0.7474
 2002SOL    HW1 6005   1.468   3.023   0.347  0.2539 -0.6247  0.3877
 2002SOL    HW2 6006   1.547   3.026   0.218 -0.2976 -0.4109  0.0493
 2003SOL     OW 6007   1.284   3.971   2.009 -0.4092  0.7013 -0.1639
 2003SOL    HW1 6008   1.274   3.885   2.050  1.3870  0.9518  0.9580
 2003SOL    HW2 6009   1.354   3.959   1.945 -0.3513  1.2353 -0.2082
 2004SOL     OW 6010   3.880   0.600   1.972 -0.6248  0.0506  0.4870
 2004SOL    HW1 6011   3.901   0.668   1.907  0.2713  0.3273  1.0412
 2004SOL    HW2 6012   3.787   0.583   1.959 -0.2681 -0.6653 -1.5824
 2005SOL     OW 6013   1.022   3.674   2.822 -0.0179  0.3274  0.4999
 2005SOL    HW1 6014   1.009   3.584   2.789  0.8936 -0.5104  2.2883
 2005SOL    HW2 6015   0.954   3.686   2.887  3.0594 -1.3127  4.4393
 2006SOL     OW 6016   3.095   1.174   2.935  0.1044 -0.0964 -0.2648
 2006SOL    HW1 6017   3.025   1.199   2.876  1.2226 -1.0355 -2.0820
 2006SOL    HW2 6018   3.093   1.078   2.936 -0.2878 -0.1178  1.7856
 2007SOL     OW 6019   2.926   3.063   0.791  0.3976 -0.1365 -0.0210
 2007SOL    HW1 6020   2.887   3.129   0.734 -1.6040 -1.4902 -0.3569
 2007SOL    HW2 6021   3.006   3.103   0.824  0.0600  1.8304 -1.4143
 2008SOL     OW 6022   2.671   3.967   3.215  0.3433 -0.7218 -0.2739
 2008SOL    HW1 6023   2.582   3.934   3.230  0.6801 -0.5067  2.7001
 2008SOL    HW2 6024   2.658   4.056   3.181 -0.5726 -0.8218 -0.2028
 2009SOL     OW 6025   0.118   1.286   3.978 -0.3351 -0.1090 -0.3024
 2009SOL    HW1 6026   0.178   1.283   3.903  0.3602  1.1492  0.1692
 2009SOL    HW2 6027   0.129   1.202   4.021 -0.8750 -0.9302 -1.6940
 2010SOL     OW 6028   1.272   1.435   1.802  0.2245  0.2384 -0.9760
 2010SOL    HW1 6029   1.257   1.357   1.856  3.5258  0.3337  0.2920
 2010SOL    HW2 6030   1.221   1.504   1.845  0.3791 -0.3696  0.2247
 2011SOL     OW 6031   0.976   1.750   2.395 -0.1872 -0.8105 -0.4851
 2011SOL    HW1 6032   0.883   1.728   2.401 -0.2157 -1.5421 -2.6800
 2011SOL    HW2 6033   1.017   1.701   2.466 -1.4403 -0.5274  0.4821
 2012SOL     OW 6034   3.269   3.349   2.700  0.4166  0.1498 -0.2135
 2012SOL    HW1 6035   3.244   3.258   2.714 -0.0820  0.3030 -0.0646
 2012SOL    HW2 6036   3.189   3.391   2.666  0.2681  0.7938  0.8728
 2013SOL     OW 6037   2.947   2.611   1.295  0.0881 -0.7866 -0.4705
 2013SOL    HW1 6038   2.860   2.650   1.290  0.1241 -0.4614  1.0079
 2013SOL    HW2 6039   2.939   2.544   1.363  1.1294 -0.3497  0.0994
 2014SOL     OW 6040   3.064   1.365   0.996  0.3811 -0.2780 -0.5170
 2014SOL    HW1 6041   3.118   1.322   0.929 -0.6621 -0.2644 -1.4056
 2014SOL    HW2 6042   3.018   1.434   0.948  0.3424  0.3759  0.4345
 2015SOL     OW 6043   2.759   1.737   0.465 -0.1762 -0.1589 -0.1221
 2015SOL    HW1 6044   2.714   1.733   0.380 -0.4804  0.1783  0.0207
 2015SOL    HW2 6045   2.811   1.816   0.461  1.0457 -0.9570 -0.5904
 2016SOL     OW 6046   3.552   0.911   3.735 -0.1303 -0.0547 -0.7054
 2016SOL    HW1 6047   3.567   0.997   3.772 -0.9980  0.1062 -0.6972
 2016SOL    HW2 6048   3.488   0.926   3.665 -2.5358 -1.0359  1.1403
 2017SOL     OW 6049   2.293   0.545   3.240 -0.4145 -0.2380  0.0047
 2017SOL    HW1 6050   2.244   0.467   3.214  0.7482 -1.9283  2.4193
 2017SOL    HW2 6051   2.260   0.615   3.184 -3.2680 -1.9291 -0.6120
 2018SOL     OW 6052   2.917   1.932   1.648 -0.2268 -0.2462 -0.0918
 2018SOL    HW1 6053   2.977   2.006   1.640  0.5331 -0.8519 -0.0956
 2018SOL    HW2 6054   2.908   1.918   1.742 -1.0000  0.3403 -0.0665
 2019SOL     OW 6055   0.287   1.662   0.505  0.4959  0.5083 -0.7917
 2019SOL    HW1 6056   0.267   1.751   0.532  0.5205  0.8134 -1.7545
 2019SOL    HW2 6057   0.268   1.660   0.411  0.2917 -0.5547 -0.7402
 2020SOL     OW 6058   3.472   1.603   2.868 -0.3231 -0.0718  0.3744
 2020SOL    HW1 6059   3.487   1.696   2.850  0.8141 -0.5977 -1.6795
 2020SOL    HW2 6060   3.554   1.572   2.905  0.2840 -0.7955 -1.4714
 2021SOL     OW 6061   3.928   1.553   3.396 -0.2886  0.2149 -0.2306
 2021SOL    HW1 6062   3.956   1.462   3.403  2.5032  0.9451 -0.6838
 2021SOL    HW2 6063   3.935   1.587   3.486  1.1157  0.5631 -0.4411
 2022SOL     OW 6064   0.771   3.192   1.056  0.2355  0.6035  0.3542
 2022SOL    HW1 6065   0.712   3.241   1.114  0.4741  1.4888 -0.1352
 2022SOL    HW2 6066   0.752   3.226   0.969  2.5734  2.1045  0.3373
 2023SOL     OW 6067   0.932   1.642   2.932 -0.1715  0.0736 -0.3101
 2023SOL    HW1 6068   0.914   1.577   3.000 -1.1743 -0.7239 -1.3056
 2023SOL    HW2 6069   0.885   1.720   2.961  1.5065  0.6037  1.1832
 2024SOL     OW 6070   0.618   3.489   1.598  0.0401 -0.3738 -0.1720
 2024SOL    HW1 6071   0.710   3.477   1.576 -0.1228 -0.8047 -0.6560
 2024SOL    HW2 6072   0.586   3.401   1.618 -0.7833 -0.5962 -2.1660
 2025SOL     OW 6073   2.627   0.860   1.560 -0.4267  0.0947 -0.6487
 2025SOL    HW1 6074   2.667   0.893   1.640 -1.5811  3.1241 -1.1698
 2025SOL    HW2 6075   2.700   0.827   1.508  0.4942 -0.7467  1.1032
 2026SOL     OW 6076   0.891   3.252   3.058 -0.0985 -0.4690 -0.0912
 2026SOL    HW1 6077   0.856   3.329   3.013 -1.7320 -0.4287  1.1212
 2026SOL    HW2 6078   0.963   3.222   3.003  0.4444  1.7832 -0.7122
 2027SOL     OW 6079   2.996   2.750   2.303 -0.3737 -0.6353  0.2662
 2027SOL    HW1 6080   2.946   2.669   2.312 -1.4820  0.0761  0.8210
 2027SOL    HW2 6081   2.929   2.819   2.302  0.3706  0.1736 -2.4535
 2028SOL     OW 6082   0.231   0.890   1.676  0.6258 -0.0371  0.5630
 2028SOL    HW1 6083   0.319   0.925   1.658  0.1776  1.2450  0.7934
 2028SOL    HW2 6084   0.229   0.878   1.771  0.1563  1.0867  0.7105
 2029SOL     OW 6085   0.243   2.514   2.589  0.6164  0.8836 -0.5182
 2029SOL    HW1 6086   0.338   2.512   2.578  0.5817 -0.9035 -0.7856
 2029SOL    HW2 6087   0.210   2.460   2.518 -0.5227  0.4475  0.3275
 2030SOL     OW 6088   0.955   1.045   3.441 -0.2498 -0.7663  0.4859
 2030SOL    HW1 6089   0.913   1.014   3.521 -2.1218 -1.5222 -0.7063
 2030SOL    HW2 6090   0.952   0.970   3.382  0.9116 -0.1704 -0.3736
 2031SOL     OW 6091   2.575   3.008   3.593  0.5319  0.5397  0.2731
 2031SOL    HW1 6092   2.491   2.969   3.617  0.5797  0.3703  0.1633
 2031SOL    HW2 6093   2.635   2.935   3.586  0.5796  0.6117 -0.1029
 2032SOL     OW 6094   0.777   3.777   1.527 -0.1820 -0.4461 -0.0353
 2032SOL    HW1 6095   0.753   3.686   1.546  1.3394 -1.0796 -0.9486
 2032SOL    HW2 6096   0.853   3.770   1.469  0.6863  1.4225  0.7983
 2033SOL     OW 6097   2.042   2.291   1.321  0.3886 -0.1429  0.4199
 2033SOL    HW1 6098   2.084   2.261   1.241  0.6621 -0.9071  0.8391
 2033SOL    HW2 6099   2.060   2.222   1.385 -1.4660 -0.5067  0.6281
 2034SOL     OW 6100   0.823   2.708   3.021  0.7833 -0.0386  0.3644
 2034SOL    HW1 6101   0.910   2.668   3.030  0.2387 -1.8093 -1.4230
 2034SOL    HW2 6102   0.809   2.715   2.926 -1.1594 -0.1581  0.5905
 2035SOL     OW 6103   2.436   2.490   3.647 -0.3286 -0.0288  0.0709
 2035SOL    HW1 6104   2.404   2.404   3.621 -0.1973  0.7981 -3.1574
 2035SOL    HW2 6105   2.394   2.506   3.732  1.7356 -4.3003  2.2277
 2036SOL     OW 6106   3.454   0.573   0.119 -0.3370  0.9276  0.3032
 2036SOL    HW1 6107   3.467   0.561   0.025 -0.4997 -1.4121  0.5155
 2036SOL    HW2 6108   3.375   0.522   0.139 -0.3259  1.4058  1.7052
 2037SOL     OW 6109   0.023   0.128   2.892  0.3743  0.6951 -0.0285
 2037SOL    HW1 6110   0.008   0.115   2.799 -0.0905  1.7902 -0.1278
 2037SOL    HW2 6111   0.102   0.183   2.896  0.7352  0.1595  0.2482
 2038SOL     OW 6112   0.367   3.789   1.344 -0.2678 -1.0116  0.0276
 2038SOL    HW1 6113   0.376   3.758   1.434 -0.6199  1.0937  0.8325
 2038SOL    HW2 6114   0.452   3.773   1.304  0.2654 -0.8668  1.0930
 2039SOL     OW 6115   1.363   0.099   1.387 -0.6912 -0.0211  0.6589
 2039SOL    HW1 6116   1.458   0.093   1.376 -0.6085 -1.2433  1.7772
 2039SOL    HW2 6117   1.334   0.008   1.390 -1.8086  0.3311  1.0185
 2040SOL     OW 6118   3.599   3.401   0.585 -0.3403  0.1025 -0.0691
 2040SOL    HW1 6119   3.664   3.425   0.650 -0.5130 -1.0402  0.5518
 2040SOL    HW2 6120   3.644   3.411   0.501  0.8483 -1.2143  0.3689
 2041SOL     OW 6121   3.883   2.508   2.560 -0.4681  0.7098 -0.8516
 2041SOL    HW1 6122   3.898   2.519   2.466  2.9363  4.5554 -0.2000
 2041SOL    HW2 6123   3.794   2.539   2.574 -0.4107  1.8727 -2.6809
 2042SOL     OW 6124   2.376   3.671   0.151  0.1561 -0.9077 -0.0871
 2042SOL    HW1 6125   2.401   3.760   0.127  0.6694 -1.1335 -0.4085
 2042SOL    HW2 6126   2.350   3.631   0.068  0.1759 -1.1391  0.0190
 2043SOL     OW 6127   2.545   2.396   2.240  0.2828  0.8610  0.6586
 2043SOL    HW1 6128   2.521   2.313   2.282 -0.9621 -0.0085 -1.5989
 2043SOL    HW2 6129   2.464   2.447   2.241 -0.0742  0.4152 -1.4812
 2044SOL     OW 6130   2.815   2.734   0.784  0.9605 -0.3337 -0.2806
 2044SOL    HW1 6131   2.828   2.764   0.695 -0.1402  0.8163 -0.0766
 2044SOL    HW2 6132   2.842   2.808   0.839  0.8197 -0.7136  0.3168
 2045SOL     OW 6133   1.918   2.876   0.146 -0.0579  0.4221  0.5703
 2045SOL    HW1 6134   1.883   2.897   0.233  1.1403  1.8401  0.7517
 2045SOL    HW2 6135   1.877   2.940   0.088  0.2797  0.4329  0.3420
 2046SOL     OW 6136   1.596   3.330   2.963  0.6748  0.2448 -0.8479
 2046SOL    HW1 6137   1.622   3.249   2.919 -0.7430 -0.2223 -0.8605
 2046SOL    HW2 6138   1.508   3.313   2.996  0.8784  1.3319  0.3197
 2047SOL     OW 6139   3.667   2.458   0.539 -0.1490  0.4910  0.5602
 2047SOL    HW1 6140   3.586   2.407   0.548 -1.5908  2.7046  1.0160
 2047SOL    HW2 6141   3.642   2.531   0.482  1.1552  1.9415  1.7652
 2048SOL     OW 6142   2.952   3.041   2.551  0.6196 -0.4507 -0.2697
 2048SOL    HW1 6143   2.910   3.074   2.472  0.2771  3.8440  1.3976
 2048SOL    HW2 6144   2.884   2.991   2.596 -0.8400  1.2224 -0.4934
 2049SOL     OW 6145   1.922   1.521   2.919  0.4061 -0.8242 -0.3069
 2049SOL    HW1 6146   1.838   1.501   2.877  0.1650 -0.5428  0.0363
 2049SOL    HW2 6147   1.978   1.550   2.847 -0.5462  1.4186 -0.2230
 2050SOL     OW 6148   1.486   0.655   2.381 -0.5079 -0.6053  0.0419
 2050SOL    HW1 6149   1.453   0.565   2.373 -1.2116 -0.4023  0.5978
 2050SOL    HW2 6150   1.453   0.685   2.465  1.8352 -0.6985  1.0810
 2051SOL     OW 6151   0.634   4.020   1.472 -0.2013  0.0546  0.9047
 2051SOL    HW1 6152   0.600   4.025   1.382 -1.3828 -0.8915  1.2721
 2051SOL    HW2 6153   0.650   3.926   1.485 -0.8148  0.0910  1.9588
 2052SOL     OW 6154   0.672   1.655   0.507 -0.2407 -0.0849  0.2581
 2052SOL    HW1 6155   0.718   1.656   0.591  0.0667  0.2204  0.0880
 2052SOL    HW2 6156   0.584   1.685   0.528 -0.5391 -1.2065  0.6822
 2053SOL     OW 6157   1.635   3.362   2.279  0.8722  0.2631 -1.0010
 2053SOL    HW1 6158   1.595   3.325   2.358  2.0321  2.4890  0.7326
 2053SOL    HW2 6159   1.564   3.361   2.214 -0.7345  0.1978  0.6593
 2054SOL     OW 6160   2.831   0.949   1.778  0.0772 -0.0649  0.1802
 2054SOL    HW1 6161   2.786   1.032   1.793  1.9602  0.7913  1.4837
 2054SOL    HW2 6162   2.857   0.920   1.865  0.7254 -1.2928 -0.3931
 2055SOL     OW 6163   1.050   2.385   2.115 -0.7640 -0.7777  0.6714
 2055SOL    HW1 6164   1.085   2.299   2.138 -1.2727 -0.6529  2.0508
 2055SOL    HW2 6165   0.959   2.368   2.089 -0.5602 -0.7665 -0.0676
 2056SOL     OW 6166   1.488   0.347   1.601  0.2583 -0.0811  0.6966
 2056SOL    HW1 6167   1.471   0.257   1.573 -0.9036 -0.1762  1.5906
 2056SOL    HW2 6168   1.406   0.374   1.643  0.3755  1.6052 -0.0951
 2057SOL     OW 6169   0.391   0.859   3.394  0.4107  0.0702  0.3635
 2057SOL    HW1 6170   0.299   0.884   3.403  0.4295  1.5081 -2.2468
 2057SOL    HW2 6171   0.395   0.811   3.312  2.0215  0.1737  0.3503
 2058SOL     OW 6172   3.012   3.677   2.280  0.0293  0.1745 -0.0178
 2058SOL    HW1 6173   3.005   3.726   2.362 -2.6479 -1.1542  0.6833
 2058SOL    HW2 6174   3.084   3.615   2.295 -1.5302 -1.2968  2.1671
 2059SOL     OW 6175   2.339   2.211   1.142 -0.7483 -0.3976 -0.0224
 2059SOL    HW1 6176   2.369   2.242   1.057  2.8696 -1.0997  0.8275
 2059SOL    HW2 6177   2.358   2.117   1.141 -3.1868 -0.9889  0.6758
 2060SOL     OW 6178   3.104   0.206   1.727  0.3977 -0.4873  0.4571
 2060SOL    HW1 6179   3.080   0.140   1.792  0.8615 -0.2267  0.9031
 2060SOL    HW2 6180   3.113   0.157   1.645 -3.0859 -0.4241 -0.1416
 2061SOL     OW 6181   0.516   2.747   2.213 -0.0322  0.4179  0.0545
 2061SOL    HW1 6182   0.574   2.710   2.280  1.3943  1.3816 -0.5962
 2061SOL    HW2 6183   0.427   2.730   2.246  0.6187  0.4796  1.9768
 2062SOL     OW 6184   1.193   0.174   0.078  0.2016 -0.1123 -0.2398
 2062SOL    HW1 6185   1.251   0.179   0.002  1.2148  0.9100  0.5519
 2062SOL    HW2 6186   1.212   0.089   0.118  0.9891  0.1001 -0.1420
 2063SOL     OW 6187   3.794   2.591   0.241  0.1709 -0.2425  0.3607
 2063SOL    HW1 6188   3.865   2.633   0.290 -0.6612  0.5812  0.8902
 2063SOL    HW2 6189   3.714   2.627   0.278 -0.5040  0.7352 -1.8329
 2064SOL     OW 6190   3.118   2.996   0.536 -0.3922  0.5400  0.0525
 2064SOL    HW1 6191   3.132   3.079   0.490 -0.3734  1.3183  1.3778
 2064SOL    HW2 6192   3.033   2.966   0.506 -0.7455  1.4461  0.1146
 2065SOL     OW 6193   3.759   2.826   3.042  0.2285  0.9794  0.3989
 2065SOL    HW1 6194   3.704   2.902   3.057 -0.0066  0.5272  2.0648
 2065SOL    HW2 6195   3.752   2.775   3.123 -0.8016 -1.5730 -1.1800
 2066SOL     OW 6196   2.794   2.348   2.869 -0.3826  0.7063  0.2518
 2066SOL    HW1 6197   2.815   2.332   2.777 -0.3812 -2.1971  0.6521
 2066SOL    HW2 6198   2.745   2.270   2.896  2.7019 -0.3825  3.6095
 2067SOL     OW 6199   3.806   1.670   0.727  0.2660 -0.4926  0.9669
 2067SOL    HW1 6200   3.724   1.717   0.738  0.6227  0.5479 -0.5618
 2067SOL    HW2 6201   3.811   1.612   0.803 -1.8093 -0.4939  1.1433
 2068SOL     OW 6202   3.649   1.149   3.137  0.1309  0.2746  0.0333
 2068SOL    HW1 6203   3.598   1.125   3.215  0.4946 -2.5864 -0.4898
 2068SOL    HW2 6204   3.582   1.171   3.071 -0.3644 -0.8644  0.1273
 2069SOL     OW 6205   0.742   0.125   3.469 -0.2167  0.0861 -0.6543
 2069SOL    HW1 6206   0.734   0.065   3.394  0.4145 -2.6361  1.2936
 2069SOL    HW2 6207   0.783   0.203   3.433 -0.1960 -0.9910 -3.2022
 2070SOL     OW 6208   0.197   0.664   1.249  0.1453 -1.3183 -0.3946
 2070SOL    HW1 6209   0.215   0.661   1.344 -0.2612  0.7489 -0.2091
 2070SOL    HW2 6210   0.177   0.756   1.232 -2.0771 -2.0409 -2.0957
 2071SOL     OW 6211   1.835   1.714   1.205  0.3726  0.6794 -0.1937
 2071SOL    HW1 6212   1.821   1.763   1.124 -0.4587  1.4979  0.4306
 2071SOL    HW2 6213   1.894   1.643   1.179  0.7478  1.3681 -1.3517
 2072SOL     OW 6214   0.831   2.243   2.011 -0.3712 -0.5239  0.3633
 2072SOL    HW1 6215   0.799   2.324   2.052  0.5264  0.6318 -1.0949
 2072SOL    HW2 6216   0.785   2.173   2.057 -0.2235  0.7214  2.5673
 2073SOL     OW 6217   2.983   1.566   1.269 -0.3103 -0.1570  0.8474
 2073SOL    HW1 6218   2.966   1.475   1.244  2.8177 -0.6890  0.1703
 2073SOL    HW2 6219   2.914   1.616   1.226  0.1013 -1.8775 -2.0743
 2074SOL     OW 6220   3.506   2.053   1.961 -0.1569  0.4581  0.2006
 2074SOL    HW1 6221   3.460   2.048   1.877 -0.4140  2.2681  0.1786
 2074SOL    HW2 6222   3.486   1.970   2.005  3.2999 -2.4404 -3.0672
 2075SOL     OW 6223   2.536   3.180   3.084  0.2429  0.0775  0.4276
 2075SOL    HW1 6224   2.560   3.271   3.066 -0.6977  0.3565  0.5127
 2075SOL    HW2 6225   2.541   3.172   3.179 -2.6776  0.9922  0.7849
 2076SOL     OW 6226   2.638   1.428   0.407  0.1781  0.5066  0.1243
 2076SOL    HW1 6227   2.642   1.360   0.473 -2.7677  1.1596  1.1169
 2076SOL    HW2 6228   2.716   1.414   0.353  2.1739 -0.6774  3.0618
 2077SOL     OW 6229   3.895   3.346   3.860  1.3955 -0.5246  0.1283
 2077SOL    HW1 6230   3.867   3.309   3.777  0.1160  2.0976 -0.7106
 2077SOL    HW2 6231   3.833   3.311   3.925  2.8184 -3.1405  0.2331
 2078SOL     OW 6232   2.824   2.129   1.349 -0.4294  0.8595 -0.6609
 2078SOL    HW1 6233   2.914   2.106   1.371 -0.6648 -0.7597 -1.1884
 2078SOL    HW2 6234   2.804   2.075   1.272 -2.7106 -1.0044  1.0531
 2079SOL     OW 6235   3.381   0.167   2.830 -0.3115 -0.0960  0.0558
 2079SOL    HW1 6236   3.419   0.196   2.912 -4.8692 -1.2427  2.9510
 2079SOL    HW2 6237   3.373   0.072   2.839 -0.9200 -0.2526 -1.7144
 2080SOL     OW 6238   1.612   1.253   2.207  0.0750 -0.1974 -0.5683
 2080SOL    HW1 6239   1.666   1.189   2.161  1.4334 -0.3450  1.1271
 2080SOL    HW2 6240   1.632   1.336   2.163  1.0106 -0.3969 -0.5513
 2081SOL     OW 6241   2.386   2.751   3.793 -0.7460  0.3250  0.3787
 2081SOL    HW1 6242   2.412   2.816   3.859  0.2256 -0.3534  0.7014
 2081SOL    HW2 6243   2.444   2.676   3.810  1.0606  0.8819 -2.5972
 2082SOL     OW 6244   3.386   1.646   0.153  0.8016 -0.0679 -1.1108
 2082SOL    HW1 6245   3.292   1.632   0.153  0.9979 -1.7050  0.2244
 2082SOL    HW2 6246   3.403   1.694   0.072 -1.7265  4.7623  0.8080
 2083SOL     OW 6247   0.094   1.596   2.410 -0.0924  0.3114  0.0162
 2083SOL    HW1 6248   0.028   1.660   2.436  1.0754  1.8684 -0.7575
 2083SOL    HW2 6249   0.071   1.517   2.460 -1.0615  1.5714  1.6553
 2084SOL     OW 6250   1.955   1.299   3.752  0.8058  0.2475 -0.0180
 2084SOL    HW1 6251   1.969   1.331   3.841 -4.3583  2.1625  0.4314
 2084SOL    HW2 6252   1.917   1.212   3.764  0.1134  0.5040 -0.3407
 2085SOL     OW 6253   3.543   1.955   3.444 -0.4977 -0.9044  0.9933
 2085SOL    HW1 6254   3.585   1.869   3.441 -1.4782 -1.3980 -1.3711
 2085SOL    HW2 6255   3.614   2.017   3.461  0.4577 -2.0693  1.3460
 2086SOL     OW 6256   3.304   1.182   2.524  0.1476  0.5816  0.1664
 2086SOL    HW1 6257   3.209   1.190   2.524  0.0315 -0.6675 -0.0513
 2086SOL    HW2 6258   3.330   1.201   2.434  0.0774  0.5317  0.1364
 2087SOL     OW 6259   3.197   0.853   2.323  0.4430  0.3070 -0.7273
 2087SOL    HW1 6260   3.254   0.921   2.359 -1.9604  2.1003 -0.0102
 2087SOL    HW2 6261   3.222   0.774   2.370  0.3940  1.6567  1.7501
 2088SOL     OW 6262   2.570   1.831   2.764 -0.0682 -0.0212 -0.4822
 2088SOL    HW1 6263   2.480   1.812   2.740  0.3031 -3.4995  0.4423
 2088SOL    HW2 6264   2.564   1.871   2.851 -0.6822 -1.8901  0.3676
 2089SOL     OW 6265   1.472   0.553   0.515  0.1138 -0.4039  0.6288
 2089SOL    HW1 6266   1.475   0.585   0.425 -0.0684  1.8859  1.3618
 2089SOL    HW2 6267   1.385   0.513   0.523 -0.3878  0.5398  0.1203
 2090SOL     OW 6268   0.180   1.207   1.816 -0.4015 -0.2450  0.3677
 2090SOL    HW1 6269   0.240   1.174   1.882  0.3969 -0.7792 -0.6093
 2090SOL    HW2 6270   0.232   1.212   1.736 -1.3990  0.2154 -0.2707
 2091SOL     OW 6271   3.748   0.198   2.807  0.4156  0.7869  0.6255
 2091SOL    HW1 6272   3.816   0.131   2.815 -0.4082 -0.0362  0.8278
 2091SOL    HW2 6273   3.689   0.182   2.880 -1.5165 -0.2646 -1.0655
 2092SOL     OW 6274   1.532   1.868   1.661 -0.1160  0.3286 -0.9928
 2092SOL    HW1 6275   1.513   1.774   1.665 -0.9562  0.4574 -1.5982
 2092SOL    HW2 6276   1.604   1.874   1.598 -0.0310  0.0900 -0.9231
 2093SOL     OW 6277   1.302   2.235   1.371  0.2717  0.1398  0.1638
 2093SOL    HW1 6278   1.380   2.256   1.319 -0.0218  2.0460  0.4332
 2093SOL    HW2 6279   1.285   2.314   1.421 -0.2560 -1.1909  2.1871
 2094SOL     OW 6280   2.010   2.441   0.225 -0.5460  0.0589 -0.6309
 2094SOL    HW1 6281   1.921   2.433   0.259 -1.7804  1.1921 -3.3331
 2094SOL    HW2 6282   2.061   2.478   0.298 -2.2277 -0.6624  0.9867
 2095SOL     OW 6283   2.139   3.612   3.063  0.1743 -0.1134 -0.0880
 2095SOL    HW1 6284   2.203   3.684   3.053  1.2147 -1.1165 -0.9047
 2095SOL    HW2 6285   2.143   3.565   2.980  0.5252 -1.9298  0.9152
 2096SOL     OW 6286   0.093   2.152   2.056 -1.0049  0.6303  0.2234
 2096SOL    HW1 6287  -0.002   2.154   2.063 -1.0041  0.1141  0.3988
 2096SOL    HW2 6288   0.121   2.238   2.087 -1.4246  0.8661 -0.0389
 2097SOL     OW 6289   1.626   2.704   1.016  0.0138 -0.8344 -0.8088
 2097SOL    HW1 6290   1.585   2.637   1.071 -0.6696  1.0564  1.1565
 2097SOL    HW2 6291   1.717   2.674   1.005  0.1434 -1.3685  1.3148
 2098SOL     OW 6292   3.286   1.304   3.320  0.2240 -0.0613  0.3483
 2098SOL    HW1 6293   3.194   1.301   3.297  0.2830  0.2597  0.0542
 2098SOL    HW2 6294   3.298   1.233   3.384  0.0073 -0.8356 -0.4502
 2099SOL     OW 6295   2.781   2.292   3.855  0.6103  0.3415 -0.7639
 2099SOL    HW1 6296   2.686   2.286   3.868  0.2803  2.2308 -1.9048
 2099SOL    HW2 6297   2.818   2.252   3.934 -1.0570 -2.2678 -1.1499
 2100SOL     OW 6298   4.025   0.404   2.747 -0.1441  0.3619 -0.3158
 2100SOL    HW1 6299   4.005   0.498   2.750  1.3199  0.6852  0.1507
 2100SOL    HW2 6300   3.952   0.363   2.793  0.4543  1.5300  1.8349
 2101SOL     OW 6301   3.406   3.450   2.172 -0.9527  0.0485  0.5136
 2101SOL    HW1 6302   3.372   3.510   2.239  1.1843  1.2949  0.6151
 2101SOL    HW2 6303   3.431   3.371   2.220  2.6867  1.7426  1.8438
 2102SOL     OW 6304   2.752   0.168   2.432 -0.8594  0.2726  0.7174
 2102SOL    HW1 6305   2.736   0.074   2.442  0.8217 -0.0813  0.3525
 2102SOL    HW2 6306   2.721   0.189   2.344  0.2795 -0.3120  0.1616
 2103SOL     OW 6307   0.350   1.048   3.919 -0.4557  0.3027 -0.0682
 2103SOL    HW1 6308   0.264   1.015   3.945  0.3724 -1.0765  1.0755
 2103SOL    HW2 6309   0.408   0.972   3.925  0.7628  1.0688 -1.3505
 2104SOL     OW 6310   4.012   3.226   1.348 -0.4085  0.8786 -0.2974
 2104SOL    HW1 6311   3.977   3.155   1.401 -1.3146  0.3729 -1.5155
 2104SOL    HW2 6312   3.957   3.301   1.369 -0.9543  0.6044 -0.7187
 2105SOL     OW 6313   2.984   0.263   2.298  0.1174 -0.6237  0.4324
 2105SOL    HW1 6314   2.989   0.228   2.209 -2.8621 -0.2690  0.0069
 2105SOL    HW2 6315   2.928   0.201   2.345  0.8049 -0.2501  1.7982
 2106SOL     OW 6316   0.118   1.383   2.817 -0.6097  0.1535  0.4123
 2106SOL    HW1 6317   0.199   1.394   2.867 -0.5378  0.9916  0.1314
 2106SOL    HW2 6318   0.135   1.307   2.761  0.1955  0.6278 -0.0227
 2107SOL     OW 6319   0.563   0.860   0.886  0.2616  0.1160 -0.3572
 2107SOL    HW1 6320   0.489   0.808   0.919  0.9136 -0.2445  0.5629
 2107SOL    HW2 6321   0.606   0.892   0.964  0.9685  0.4955 -0.8976
 2108SOL     OW 6322   2.616   1.709   1.850 -0.2023 -0.1420  0.2298
 2108SOL    HW1 6323   2.652   1.766   1.781  0.2306 -0.2066  0.3966
 2108SOL    HW2 6324   2.634   1.756   1.931  1.1982 -1.0311  0.4661
 2109SOL     OW 6325   1.993   3.438   2.556  1.0970 -0.0459 -0.0277
 2109SOL    HW1 6326   1.978   3.533   2.561 -0.6856 -0.2361 -0.9634
 2109SOL    HW2 6327   1.919   3.400   2.604  0.5705 -1.0038 -1.5360
 2110SOL     OW 6328   3.587   0.429   3.282  0.1107  0.2826  0.4876
 2110SOL    HW1 6329   3.655   0.457   3.222 -0.6728  2.9293  0.6858
 2110SOL    HW2 6330   3.506   0.467   3.247 -1.0461 -1.4892  1.0718
 2111SOL     OW 6331   3.955   3.571   2.286  0.0599  0.0762 -0.2530
 2111SOL    HW1 6332   4.006   3.500   2.326 -1.4355 -1.5472 -1.0726
 2111SOL    HW2 6333   3.872   3.530   2.262 -0.0532  1.5657 -2.7801
 2112SOL     OW 6334   0.945   1.689   0.211  0.6852  0.6643  1.1382
 2112SOL    HW1 6335   1.016   1.741   0.172  0.1631  0.8001  0.3409
 2112SOL    HW2 6336   0.868   1.709   0.157  0.3868 -0.6780  1.0244
 2113SOL     OW 6337   3.451   1.372   0.296  0.1499  0.0741 -0.2804
 2113SOL    HW1 6338   3.536   1.392   0.336  0.8798 -1.3260 -1.0629
 2113SOL    HW2 6339   3.399   1.452   0.308  1.9466  1.3749 -0.7954
 2114SOL     OW 6340   1.378   0.310   2.744  0.3849 -0.2935  0.4564
 2114SOL    HW1 6341   1.339   0.263   2.670 -2.5349  0.9957  1.0320
 2114SOL    HW2 6342   1.459   0.347   2.709  1.3377 -3.2837 -0.8007
 2115SOL     OW 6343   3.731   1.462   2.732  0.5077  0.3566  0.0587
 2115SOL    HW1 6344   3.715   1.440   2.824  0.4287 -2.2125 -0.4805
 2115SOL    HW2 6345   3.661   1.524   2.710  0.4049  0.8614  1.6527
 2116SOL     OW 6346   3.976   3.469   3.350  0.1427  0.0911  0.1688
 2116SOL    HW1 6347   4.048   3.455   3.288 -0.3209 -4.4245  0.3400
 2116SOL    HW2 6348   3.897   3.457   3.297 -0.2890 -1.5329  1.1291
 2117SOL     OW 6349   3.706   2.544   1.299  0.4414 -0.0544  0.5867
 2117SOL    HW1 6350   3.666   2.630   1.292  0.4431 -0.0851  0.1595
 2117SOL    HW2 6351   3.645   2.493   1.353  0.6534  0.3337  1.1982
 2118SOL     OW 6352   2.938   1.512   1.968 -0.1048 -0.1742  0.8653
 2118SOL    HW1 6353   2.966   1.495   1.878 -0.3087 -0.1764  0.8026
 2118SOL    HW2 6354   2.991   1.452   2.021 -0.3507 -0.5417  0.7007
 2119SOL     OW 6355   2.149   3.301   0.447  0.1332  0.4302 -0.5267
 2119SOL    HW1 6356   2.168   3.293   0.541  0.1714 -3.1088 -0.6908
 2119SOL    HW2 6357   2.067   3.253   0.435 -1.2005  2.9275 -2.0166
 2120SOL     OW 6358   2.415   0.521   3.929  0.6366 -0.4559  0.6502
 2120SOL    HW1 6359   2.481   0.577   3.888  0.3898 -1.4411 -1.2054
 2120SOL    HW2 6360   2.438   0.433   3.902 -1.0208 -0.8827  0.5393
 2121SOL     OW 6361   1.637   0.995   0.387 -0.6426 -0.3383 -0.3045
 2121SOL    HW1 6362   1.610   1.076   0.344 -0.0497 -0.4081 -0.8247
 2121SOL    HW2 6363   1.564   0.934   0.371 -2.1014  0.6740  1.9237
 2122SOL     OW 6364   1.597   3.645   0.920  0.0705  0.0121 -0.7082
 2122SOL    HW1 6365   1.648   3.636   0.840  0.7949 -0.7112 -0.1821
 2122SOL    HW2 6366   1.639   3.585   0.983 -0.1488  0.9629  0.3832
 2123SOL     OW 6367   3.270   0.765   0.793  1.2643  0.0134  1.0084
 2123SOL    HW1 6368   3.309   0.853   0.791 -0.8747  1.0362  1.3584
 2123SOL    HW2 6369   3.177   0.780   0.775  0.5660 -2.0082  2.5513
 2124SOL     OW 6370   3.617   0.865   1.264  0.5563  0.0548 -0.2735
 2124SOL    HW1 6371   3.532   0.822   1.269  1.6563 -2.3100 -0.4010
 2124SOL    HW2 6372   3.610   0.940   1.323 -1.1118 -1.0202  0.9910
 2125SOL     OW 6373   0.062   1.973   2.719  0.5294  0.2288  0.5572
 2125SOL    HW1 6374   0.003   2.042   2.748 -0.2679  0.3350 -1.1927
 2125SOL    HW2 6375   0.043   1.962   2.626 -0.1547 -3.1141  0.9538
 2126SOL     OW 6376   2.063   0.837   2.461 -0.8136 -0.4845  0.3168
 2126SOL    HW1 6377   2.142   0.886   2.437 -1.8699  1.3813  0.4036
 2126SOL    HW2 6378   2.029   0.803   2.378 -0.3475 -0.6120  0.1778
 2127SOL     OW 6379   1.103   2.019   1.592 -0.0568  0.1384 -0.3910
 2127SOL    HW1 6380   1.019   2.015   1.638  0.5162 -1.6608  0.6108
 2127SOL    HW2 6381   1.125   2.112   1.590 -1.5095  0.5288  0.3750
 2128SOL     OW 6382   0.631   0.285   0.983 -0.1696  0.9250 -0.0522
 2128SOL    HW1 6383   0.625   0.212   0.922  1.8954  0.5464  0.1308
 2128SOL    HW2 6384   0.675   0.354   0.933  0.7880  0.8983  0.7322
 2129SOL     OW 6385   3.327   1.831   0.412 -0.2822  0.4817  0.6160
 2129SOL    HW1 6386   3.414   1.796   0.393 -0.5213  0.3907 -0.3601
 2129SOL    HW2 6387   3.332   1.858   0.504  0.5694 -0.1288  0.7653
 2130SOL     OW 6388   2.637   2.656   2.431  0.6798 -0.3742  0.7476
 2130SOL    HW1 6389   2.562   2.709   2.402  1.0841 -1.5499 -3.0668
 2130SOL    HW2 6390   2.677   2.708   2.501 -0.1420  3.3813 -1.2502
 2131SOL     OW 6391   0.681   1.201   1.866  0.4971  0.0399  0.0089
 2131SOL    HW1 6392   0.725   1.170   1.945 -0.2013  0.4356  0.5712
 2131SOL    HW2 6393   0.724   1.284   1.845  1.1298 -0.3863 -0.4273
 2132SOL     OW 6394   0.680   2.573   0.579  1.0798 -0.1860  0.5418
 2132SOL    HW1 6395   0.652   2.501   0.635  0.3967  0.0676  0.5414
 2132SOL    HW2 6396   0.704   2.643   0.640  2.0206 -0.5086  0.5483
 2133SOL     OW 6397   1.906   3.500   2.229 -0.1611 -0.7933  0.1777
 2133SOL    HW1 6398   1.891   3.594   2.243 -0.1223 -0.6396 -0.7486
 2133SOL    HW2 6399   1.831   3.457   2.271  1.6070 -0.6259  3.9617
 2134SOL     OW 6400   1.858   2.166   2.308  0.2907 -0.2144 -0.2684
 2134SOL    HW1 6401   1.923   2.121   2.363 -0.0783 -2.1616 -1.3322
 2134SOL    HW2 6402   1.782   2.176   2.365  0.4987 -0.6675  0.1025
 2135SOL     OW 6403   1.337   0.627   4.002  0.0581  0.5706  0.4053
 2135SOL    HW1 6404   1.410   0.568   3.985  1.7427  2.0780  2.0623
 2135SOL    HW2 6405   1.348   0.699   3.939 -0.8497  0.1562 -0.2671
 2136SOL     OW 6406   2.244   2.919   3.605 -0.3898 -0.0532 -0.5941
 2136SOL    HW1 6407   2.286   2.847   3.652 -3.0592 -1.9083 -0.8445
 2136SOL    HW2 6408   2.266   2.997   3.657 -1.0714 -1.6388  2.3367
 2137SOL     OW 6409   3.037   1.814   2.459  0.2498 -0.4069 -0.1173
 2137SOL    HW1 6410   3.060   1.805   2.552  1.8666  2.0807 -0.1759
 2137SOL    HW2 6411   2.953   1.861   2.460  1.5282  2.0299  0.1817
 2138SOL     OW 6412   2.985   2.265   2.455  0.6400  0.3001 -0.1167
 2138SOL    HW1 6413   3.055   2.206   2.483  0.1318  0.0288  0.5811
 2138SOL    HW2 6414   3.031   2.334   2.406  1.3780  0.0220  0.1699
 2139SOL     OW 6415   3.434   2.325   1.193 -0.2568 -1.0335  0.2651
 2139SOL    HW1 6416   3.410   2.373   1.115  0.7825 -0.1588  0.4528
 2139SOL    HW2 6417   3.351   2.298   1.232 -0.7924 -1.0525 -0.8597
 2140SOL     OW 6418   2.253   0.728   0.550  0.1193  0.2942  0.0484
 2140SOL    HW1 6419   2.236   0.807   0.499  2.0824 -0.0870 -1.2959
 2140SOL    HW2 6420   2.182   0.668   0.526 -0.3862  0.9994 -0.2655
 2141SOL     OW 6421   3.077   3.809   3.767  0.6131  0.0140  0.6696
 2141SOL    HW1 6422   2.982   3.820   3.768  0.8642  3.2939  2.2711
 2141SOL    HW2 6423   3.091   3.722   3.731 -2.8510  0.5258 -2.4557
 2142SOL     OW 6424   3.279   1.683   3.024 -0.2172 -0.3745  0.2990
 2142SOL    HW1 6425   3.352   1.637   2.984  0.5154  0.4475  0.6704
 2142SOL    HW2 6426   3.228   1.614   3.068 -1.9867 -1.5904 -3.2806
 2143SOL     OW 6427   0.883   2.959   0.189 -0.3784  0.3046  0.2905
 2143SOL    HW1 6428   0.894   3.033   0.130 -3.5813 -0.6277 -1.6800
 2143SOL    HW2 6429   0.930   2.887   0.147 -1.5869 -0.0343 -0.5177
 2144SOL     OW 6430   3.914   3.613   0.153  0.1301  0.8963 -0.8368
 2144SOL    HW1 6431   3.933   3.560   0.076  0.9428 -0.8003  0.4631
 2144SOL    HW2 6432   3.981   3.681   0.153  0.1602  0.8739 -1.5865
 2145SOL     OW 6433   2.821   2.028   2.698  0.6274 -0.9758  0.4961
 2145SOL    HW1 6434   2.873   1.948   2.685  2.0051 -0.4401  2.3370
 2145SOL    HW2 6435   2.734   1.997   2.720  0.9108 -1.9521  0.2840
 2146SOL     OW 6436   0.107   0.874   3.451 -0.2220  0.7687  0.4643
 2146SOL    HW1 6437   0.109   0.880   3.547  0.2807  0.3304  0.4869
 2146SOL    HW2 6438   0.042   0.806   3.433  0.4949  0.0464  0.5446
 2147SOL     OW 6439   1.260   1.247   2.769  0.5495  0.3218 -0.3874
 2147SOL    HW1 6440   1.188   1.187   2.750  0.0043  0.4272  1.1752
 2147SOL    HW2 6441   1.220   1.334   2.763  0.8653  0.4354 -0.7991
 2148SOL     OW 6442   0.191   2.608   0.285  0.0705  0.0792  0.4064
 2148SOL    HW1 6443   0.159   2.523   0.313 -4.0211  1.1838 -0.2521
 2148SOL    HW2 6444   0.182   2.664   0.363  0.7480  0.3704  0.2822
 2149SOL     OW 6445   3.241   2.955   0.206 -1.3833 -0.0172 -0.2152
 2149SOL    HW1 6446   3.209   3.009   0.134  2.7613  2.2432 -0.6803
 2149SOL    HW2 6447   3.281   2.879   0.163  0.9872  1.2748 -0.4323
 2150SOL     OW 6448   2.560   3.192   3.389  0.0335 -0.8765 -0.2475
 2150SOL    HW1 6449   2.473   3.221   3.417  0.7583  0.0243  1.1279
 2150SOL    HW2 6450   2.582   3.119   3.447 -0.2340 -1.8493 -1.3157
 2151SOL     OW 6451   0.154   0.269   0.234  0.2779 -0.1516 -0.1385
 2151SOL    HW1 6452   0.141   0.329   0.161  2.1775 -0.7790 -1.0616
 2151SOL    HW2 6453   0.221   0.311   0.289 -0.8749  0.1521  1.0938
 2152SOL     OW 6454   1.810   3.356   0.824 -0.0753  0.1561 -0.7751
 2152SOL    HW1 6455   1.791   3.372   0.916 -1.2439  0.5259 -1.0669
 2152SOL    HW2 6456   1.819   3.443   0.785 -1.5907  0.0660 -1.3932
 2153SOL     OW 6457   3.696   3.690   0.294  0.2430 -0.6204 -0.5821
 2153SOL    HW1 6458   3.675   3.780   0.268 -0.7333 -0.3043  1.1522
 2153SOL    HW2 6459   3.785   3.676   0.263 -0.4074  0.0769 -3.0100
 2154SOL     OW 6460   0.189   1.568   2.132 -0.3423  0.0458 -0.1929
 2154SOL    HW1 6461   0.175   1.503   2.202  1.1978 -0.4281 -0.2768
 2154SOL    HW2 6462   0.165   1.652   2.172  0.1713 -0.2596  0.7935
 2155SOL     OW 6463   2.360   3.510   1.065  0.1148  0.1095 -0.5470
 2155SOL    HW1 6464   2.289   3.520   1.129 -0.5932  1.5286 -1.4838
 2155SOL    HW2 6465   2.323   3.543   0.983  0.9097 -1.8955 -1.7837
 2156SOL     OW 6466   2.275   2.958   1.308 -1.2431 -0.3682 -0.4433
 2156SOL    HW1 6467   2.278   3.052   1.327 -1.6168 -0.2655 -0.8682
 2156SOL    HW2 6468   2.316   2.917   1.384 -0.4728  0.1746 -0.5492
 2157SOL     OW 6469   2.636   1.799   3.857  0.6439  0.3220 -0.0716
 2157SOL    HW1 6470   2.719   1.847   3.862  0.6782  0.1803  0.8986
 2157SOL    HW2 6471   2.573   1.865   3.827  0.6945  1.0068  1.2353
 2158SOL     OW 6472   0.355   1.897   0.270  0.5977  0.2241  0.4367
 2158SOL    HW1 6473   0.427   1.914   0.329 -0.1553  1.8792  0.9231
 2158SOL    HW2 6474   0.276   1.907   0.324 -0.0457 -0.4051 -0.3445
 2159SOL     OW 6475   2.346   1.802   1.457 -0.0594 -0.1692 -0.1041
 2159SOL    HW1 6476   2.281   1.733   1.449 -0.5538 -0.1037  2.5308
 2159SOL    HW2 6477   2.417   1.762   1.509  0.0474  1.0002  0.6897
 2160SOL     OW 6478   3.446   1.388   1.049  0.1910  0.3820 -0.1441
 2160SOL    HW1 6479   3.392   1.441   1.106 -1.8181  0.2146 -1.7851
 2160SOL    HW2 6480   3.461   1.442   0.972 -0.3800 -0.7425 -1.0780
 2161SOL     OW 6481   0.475   2.772   3.469  0.1956 -0.1471 -0.6439
 2161SOL    HW1 6482   0.448   2.777   3.561 -1.3104 -0.5286 -1.0372
 2161SOL    HW2 6483   0.394   2.751   3.422  1.3419 -2.3532 -1.8063
 2162SOL     OW 6484   0.479   0.139   2.656 -0.4747 -0.1964  0.9838
 2162SOL    HW1 6485   0.515   0.192   2.585  0.6544  0.6925  2.1604
 2162SOL    HW2 6486   0.435   0.202   2.713 -0.4149 -0.7268  1.6361
 2163SOL     OW 6487   2.034   0.433   0.230 -0.1941 -0.6012 -0.2096
 2163SOL    HW1 6488   2.093   0.435   0.155 -1.5308  3.1604 -1.4162
 2163SOL    HW2 6489   1.956   0.481   0.200 -1.6229 -0.6895  2.9613
 2164SOL     OW 6490   2.646   1.561   2.866 -0.6278 -0.3928  0.6258
 2164SOL    HW1 6491   2.628   1.626   2.798  1.5385  0.3787  0.7240
 2164SOL    HW2 6492   2.731   1.586   2.901 -0.6680 -2.1172  2.0832
 2165SOL     OW 6493   3.186   2.098   2.541 -0.4153  0.3172 -0.6299
 2165SOL    HW1 6494   3.245   2.173   2.529  0.9829 -0.7585 -0.7476
 2165SOL    HW2 6495   3.239   2.033   2.587 -2.0547 -0.0830  0.7542
   4.00000   4.00000   4.00000
