Water Box for Fluid Dynamics Phase 2 in water
 6495
    1SOL     OW    1   2.167   3.804   3.611 -0.0188  0.5157 -0.8440
    1SOL    HW1    2   2.221   3.735   3.572 -0.7409 -0.4099 -0.2517
    1SOL    HW2    3   2.098   3.757   3.658  1.7406  1.4439  3.0255
    2SOL     OW    4   0.436   1.074   2.668  0.1957 -0.9604 -0.2148
    2SOL    HW1    5   0.436   1.072   2.572 -0.5037 -1.6103 -0.2134
    2SOL    HW2    6   0.478   0.992   2.694  1.1030 -0.4320  0.0525
    3SOL     OW    7   1.925   2.477   3.368 -0.9009 -0.2839 -0.4750
    3SOL    HW1    8   1.957   2.439   3.286 -1.2303 -0.8338 -0.3605
    3SOL    HW2    9   1.891   2.401   3.417  0.0506 -0.0846  0.5166
    4SOL     OW   10   0.118   1.638   3.059 -0.5256  0.3882 -0.0160
    4SOL    HW1   11   0.036   1.686   3.055 -1.6444 -1.5116 -2.1969
    4SOL    HW2   12   0.120   1.587   2.978  0.1122 -3.8911  2.3805
    5SOL     OW   13   0.817   3.445   3.550  0.7217 -0.3528  0.3995
    5SOL    HW1   14   0.865   3.526   3.562 -1.7514  1.1363  0.9805
    5SOL    HW2   15   0.868   3.379   3.597  3.8295  0.3273 -1.7160
    6SOL     OW   16   2.314   3.504   1.728 -0.8596  0.1058  0.3794
    6SOL    HW1   17   2.329   3.465   1.642 -0.9831  0.2091  0.3122
    6SOL    HW2   18   2.402   3.523   1.760 -0.4408 -3.5719  1.9844
    7SOL     OW   19   0.378   1.880   1.375 -1.2747  0.0260 -0.1464
    7SOL    HW1   20   0.341   1.939   1.441 -0.0434 -0.8455  1.4190
    7SOL    HW2   21   0.363   1.792   1.411  0.5710 -0.4162 -0.3402
    8SOL     OW   22   0.708   0.230   1.761  1.0149 -0.2199 -0.0431
    8SOL    HW1   23   0.715   0.312   1.711 -0.9152 -0.1200 -0.2042
    8SOL    HW2   24   0.780   0.234   1.823  0.8010  1.7409  0.1368
    9SOL     OW   25   0.744   0.638   2.221  0.1847 -0.1404 -0.4134
    9SOL    HW1   26   0.721   0.545   2.213 -0.3272  0.0435 -1.2455
    9SOL    HW2   27   0.838   0.638   2.239  0.3465 -0.8004 -1.1999
   10SOL     OW   28   3.890   3.218   2.619  0.9588 -0.2539  0.3570
   10SOL    HW1   29   3.898   3.313   2.608  1.5830 -0.0425  2.1774
   10SOL    HW2   30   3.811   3.195   2.572  1.1955  1.0508 -0.7450
   11SOL     OW   31   1.481   0.551   3.119  0.2156 -0.0740 -0.2136
   11SOL    HW1   32   1.542   0.524   3.188  0.6297  0.7605 -0.2434
   11SOL    HW2   33   1.536   0.597   3.055 -0.7357  2.8313  0.8877
   12SOL     OW   34   2.589   1.572   1.521  0.4702 -0.0905  0.9410
   12SOL    HW1   35   2.660   1.568   1.585  1.3371  0.7653  0.0721
   12SOL    HW2   36   2.561   1.481   1.510  2.0560 -0.5626  0.6243
   13SOL     OW   37   0.125   2.536   0.126  0.1834  0.6447  0.8180
   13SOL    HW1   38   0.163   2.511   0.042 -3.0515 -1.2365 -0.2500
   13SOL    HW2   39   0.148   2.463   0.185 -1.7182 -0.5889  0.1218
   14SOL     OW   40   1.024   0.727   3.944 -0.0268  0.0806 -0.6334
   14SOL    HW1   41   1.072   0.754   4.023 -0.6893  1.5851 -0.7004
   14SOL    HW2   42   0.940   0.694   3.978 -1.7675  3.8195 -0.6804
   15SOL     OW   43   0.395   0.654   2.355 -0.6227  0.1763  0.8596
   15SOL    HW1   44   0.379   0.579   2.412 -0.4825 -1.2707 -0.9220
   15SOL    HW2   45   0.359   0.628   2.270  2.2813  0.7686 -0.6985
   16SOL     OW   46   2.096   3.972   3.883  0.4951 -0.7080 -0.3509
   16SOL    HW1   47   2.021   4.021   3.915 -0.0746 -0.3781 -2.1047
   16SOL    HW2   48   2.170   4.007   3.932 -0.5150 -1.4053  1.7948
   17SOL     OW   49   1.821   3.380   2.660  0.2221 -0.4986 -0.3230
   17SOL    HW1   50   1.814   3.341   2.573  1.8545  0.2740 -0.8449
   17SOL    HW2   51   1.846   3.308   2.718  1.5731 -0.5812 -0.9707
   18SOL     OW   52   1.654   1.407   3.839 -0.3680 -0.1764  0.2189
   18SOL    HW1   53   1.737   1.365   3.817 -0.3492  0.2341 -0.5180
   18SOL    HW2   54   1.679   1.482   3.893  0.0033  1.4445 -2.0561
   19SOL     OW   55   0.972   0.637   2.554  0.2715 -0.5979 -0.4119
   19SOL    HW1   56   0.969   0.669   2.463  1.3848 -2.9616 -1.3833
   19SOL    HW2   57   1.018   0.706   2.602 -1.9898  1.5693 -1.1548
   20SOL     OW   58   0.944   3.756   3.681 -0.1546  0.4529 -0.0636
   20SOL    HW1   59   0.863   3.770   3.730  0.5371  4.4687  0.2701
   20SOL    HW2   60   0.916   3.757   3.589 -0.5902  1.4619  0.0612
   21SOL     OW   61   0.289   1.255   0.359 -1.3048 -0.0989 -0.5118
   21SOL    HW1   62   0.244   1.241   0.442 -1.7333 -0.9796 -0.8846
   21SOL    HW2   63   0.290   1.169   0.317  1.1549 -0.2479 -0.3133
   22SOL     OW   64   3.243   3.893   3.143 -0.1381  0.4626 -0.6521
   22SOL    HW1   65   3.241   3.869   3.051  1.0915  1.9737 -1.1116
   22SOL    HW2   66   3.264   3.811   3.189 -0.5200 -0.2448 -1.7173
   23SOL     OW   67   2.739   3.210   3.725 -0.3186 -0.6058 -0.1500
   23SOL    HW1   68   2.828   3.240   3.743 -0.1196 -0.7056 -0.9382
   23SOL    HW2   69   2.689   3.234   3.804  0.7269 -1.9840  0.9843
   24SOL     OW   70   0.035   1.538   0.436 -0.4082 -0.0316 -0.4189
   24SOL    HW1   71   0.052   1.505   0.348 -0.4902  0.9706 -0.8192
   24SOL    HW2   72  -0.025   1.612   0.423 -0.5659  0.0066  0.4912
   25SOL     OW   73   1.714   1.626   1.219  0.3918  0.0203  0.2747
   25SOL    HW1   74   1.751   1.641   1.306  2.1950 -0.2699 -0.3765
   25SOL    HW2   75   1.755   1.544   1.190 -0.4154 -0.0546 -0.7178
   26SOL     OW   76   1.828   1.290   1.942 -0.3744  1.4575 -0.0161
   26SOL    HW1   77   1.797   1.244   2.019 -0.1240 -0.5506 -1.0593
   26SOL    HW2   78   1.759   1.278   1.877  0.3873  1.1926 -0.7982
   27SOL     OW   79   0.703   2.515   1.762 -0.4300 -0.8255  0.2917
   27SOL    HW1   80   0.662   2.515   1.848 -0.8961 -1.0546  0.0731
   27SOL    HW2   81   0.785   2.563   1.774 -1.6063  1.2904  0.3260
   28SOL     OW   82   1.577   2.250   1.252  0.0229  0.5125  0.4099
   28SOL    HW1   83   1.542   2.161   1.256 -3.5703  1.7845  1.6099
   28SOL    HW2   84   1.571   2.274   1.160 -0.6350  0.0352  0.3129
   29SOL     OW   85   1.602   2.271   1.747 -0.0888 -0.0494  0.1996
   29SOL    HW1   86   1.641   2.263   1.834 -1.1137 -1.9701  0.5266
   29SOL    HW2   87   1.656   2.215   1.691 -0.3264  0.0118 -0.0956
   30SOL     OW   88   0.384   0.409   3.798 -0.2911  0.0480  0.3312
   30SOL    HW1   89   0.446   0.363   3.855  2.0326  2.5406  0.0453
   30SOL    HW2   90   0.429   0.413   3.713 -2.9033 -2.0201 -1.2897
   31SOL     OW   91   0.400   2.939   0.824 -0.0765  0.3987 -0.3353
   31SOL    HW1   92   0.450   2.872   0.778 -0.6520 -0.8716  0.8084
   31SOL    HW2   93   0.355   2.988   0.755  1.1471  0.2724 -1.2446
   32SOL     OW   94   3.178   1.527   3.587  0.3355  0.5943 -0.6032
   32SOL    HW1   95   3.175   1.554   3.495  1.2419 -1.6032 -1.3383
   32SOL    HW2   96   3.113   1.458   3.594  0.3108  0.7077  0.4125
   33SOL     OW   97   1.845   2.744   2.232  0.2534  0.2000 -0.1174
   33SOL    HW1   98   1.769   2.792   2.265 -0.6231 -0.0157 -1.7388
   33SOL    HW2   99   1.821   2.652   2.241 -0.6518  0.1241 -2.6494
   34SOL     OW  100   1.441   3.141   1.491 -0.0675  0.0104 -0.1068
   34SOL    HW1  101   1.483   3.219   1.527 -2.3723  1.6360 -0.6779
   34SOL    HW2  102   1.434   3.081   1.565 -2.3319  2.2329  1.6932
   35SOL     OW  103   0.135   3.968   2.649 -0.7015 -0.0465 -0.6067
   35SOL    HW1  104   0.149   4.037   2.714 -1.3976  1.2857 -1.8246
   35SOL    HW2  105   0.098   3.896   2.700  0.3692  0.3203  0.7569
   36SOL     OW  106   3.758   0.030   0.410  0.0609 -0.5809  0.0839
   36SOL    HW1  107   3.742   0.006   0.318 -0.8594 -0.6312  0.2535
   36SOL    HW2  108   3.674   0.020   0.453  0.4070 -0.2149  0.8717
   37SOL     OW  109   2.760   2.429   2.496 -0.3004  0.2132 -0.4729
   37SOL    HW1  110   2.704   2.415   2.572 -0.2882  0.0366 -0.4958
   37SOL    HW2  111   2.846   2.399   2.523 -0.0607  1.1192 -0.2124
   38SOL     OW  112   0.214   2.125   3.980 -0.0499 -0.3753  0.2881
   38SOL    HW1  113   0.126   2.090   3.965 -0.1859  0.2614 -0.4850
   38SOL    HW2  114   0.257   2.059   4.034 -0.9168 -0.8179  0.4628
   39SOL     OW  115   3.279   3.891   1.608 -0.5220  0.2156  0.3518
   39SOL    HW1  116   3.221   3.962   1.581  0.7748  0.6809 -1.4138
   39SOL    HW2  117   3.262   3.880   1.701 -2.5588  1.1276  0.1290
   40SOL     OW  118   3.239   3.417   1.138  0.3061  0.4540  0.5877
   40SOL    HW1  119   3.316   3.372   1.103  0.5488  0.6774  0.8258
   40SOL    HW2  120   3.257   3.510   1.123  0.0787  0.5059  0.6359
   41SOL     OW  121   0.211   3.380   3.361 -0.3577 -0.2318 -0.2927
   41SOL    HW1  122   0.264   3.397   3.439 -1.7378 -0.6138  0.7757
   41SOL    HW2  123   0.274   3.357   3.293  0.8463 -0.4343  0.8646
   42SOL     OW  124   3.829   2.620   2.173  0.0584 -0.4392 -0.6652
   42SOL    HW1  125   3.914   2.621   2.218  0.2133 -1.3642 -0.9196
   42SOL    HW2  126   3.839   2.554   2.105 -1.2535 -1.4413  0.0609
   43SOL     OW  127   2.000   1.435   3.115 -0.0451 -0.1668 -0.1942
   43SOL    HW1  128   1.957   1.519   3.133  1.7841  0.8127 -0.1753
   43SOL    HW2  129   2.075   1.434   3.174  0.4510 -1.4354 -0.8232
   44SOL     OW  130   0.193   2.614   0.804 -0.6919  0.1818  0.3582
   44SOL    HW1  131   0.157   2.703   0.801  0.1421  0.5076 -0.3705
   44SOL    HW2  132   0.283   2.623   0.773  0.6717 -0.3581  3.7262
   45SOL     OW  133   2.506   0.161   1.281  0.3257  0.6353  0.5735
   45SOL    HW1  134   2.420   0.166   1.324  0.0950  0.7735  0.1025
   45SOL    HW2  135   2.496   0.212   1.201  0.4939 -0.3017 -0.0582
   46SOL     OW  136   0.840   0.076   3.809 -0.4813  0.2292  0.5188
   46SOL    HW1  137   0.930   0.064   3.838 -0.0364  0.0954 -0.8967
   46SOL    HW2  138   0.788   0.023   3.870  0.6058 -1.6312 -0.1012
   47SOL     OW  139   3.771   1.557   3.171  0.2977 -0.1319 -0.2170
   47SOL    HW1  140   3.815   1.636   3.140 -0.6647  0.6014  0.2443
   47SOL    HW2  141   3.842   1.498   3.196  1.0411  1.3856  1.4297
   48SOL     OW  142   0.646   2.103   2.406  0.2697 -0.5036  0.5448
   48SOL    HW1  143   0.729   2.070   2.440  0.1822  1.2583  2.7146
   48SOL    HW2  144   0.669   2.186   2.364 -0.4639  0.5400  2.1112
   49SOL     OW  145   2.039   1.208   2.863  0.0574 -0.0112 -0.3252
   49SOL    HW1  146   2.059   1.276   2.928  1.1200 -0.9517  0.3822
   49SOL    HW2  147   2.030   1.255   2.781  0.0855  1.0624  0.2689
   50SOL     OW  148   2.379   3.037   2.627 -0.1066 -0.1339 -0.5676
   50SOL    HW1  149   2.473   3.050   2.615 -0.3957  1.3692 -1.4210
   50SOL    HW2  150   2.342   3.046   2.539 -1.1717  0.4949 -0.0739
   51SOL     OW  151   1.680   0.642   0.265 -0.3041  0.3492 -0.2837
   51SOL    HW1  152   1.671   0.720   0.210  0.4012 -0.5111 -1.6666
   51SOL    HW2  153   1.731   0.581   0.212 -1.1750 -1.2155  0.6132
   52SOL     OW  154   1.713   2.216   3.606  0.2408 -0.6292  0.0027
   52SOL    HW1  155   1.650   2.273   3.651  1.3038  1.5799 -1.1211
   52SOL    HW2  156   1.662   2.139   3.581 -1.0426 -0.6472  2.4311
   53SOL     OW  157   1.966   2.012   1.451 -0.8633 -0.3563  0.1178
   53SOL    HW1  158   2.025   1.941   1.474  1.2834  0.9786 -0.9339
   53SOL    HW2  159   1.944   1.996   1.359 -1.0700 -0.1136  0.1237
   54SOL     OW  160   0.059   0.840   0.883 -0.1358  0.4307 -0.1226
   54SOL    HW1  161   0.049   0.745   0.889  0.7307  0.2380 -1.4754
   54SOL    HW2  162   0.008   0.865   0.806 -0.4982  1.1098  0.3212
   55SOL     OW  163   1.002   3.539   0.944 -0.2037 -0.3872 -0.5465
   55SOL    HW1  164   0.997   3.578   0.857  0.0485 -0.8033 -0.7558
   55SOL    HW2  165   0.976   3.609   1.004 -0.0607  0.0004 -0.9312
   56SOL     OW  166   3.744   2.399   3.038  0.0949 -0.3993 -0.3923
   56SOL    HW1  167   3.778   2.431   2.954  1.1621 -1.4589 -0.4006
   56SOL    HW2  168   3.660   2.358   3.016  0.0856 -0.1397 -0.8475
   57SOL     OW  169   2.082   2.159   3.714 -0.3552 -0.3395  0.4209
   57SOL    HW1  170   2.045   2.243   3.687  0.8644  1.0568  2.7622
   57SOL    HW2  171   2.051   2.097   3.648 -0.1164  2.1536 -2.2502
   58SOL     OW  172   3.166   0.975   2.392 -0.3257  0.4159  0.5717
   58SOL    HW1  173   3.225   1.040   2.353 -0.8040  1.5918  1.7407
   58SOL    HW2  174   3.222   0.899   2.410  0.4159  0.7926 -0.0815
   59SOL     OW  175   0.866   0.950   3.792 -0.2005 -0.3017 -0.4021
   59SOL    HW1  176   0.775   0.938   3.820 -0.5374  0.8886 -0.9390
   59SOL    HW2  177   0.916   0.893   3.850 -1.4270 -2.3085 -1.1909
   60SOL     OW  178   2.663   2.118   3.909  0.9114  0.2835 -0.6265
   60SOL    HW1  179   2.713   2.042   3.879  1.1906 -0.3187  1.2396
   60SOL    HW2  180   2.635   2.162   3.829  0.0859 -2.2102 -1.7997
   61SOL     OW  181   3.502   3.340   3.266  0.0398  0.5959 -0.7530
   61SOL    HW1  182   3.563   3.267   3.279  0.0856  1.0884  2.9075
   61SOL    HW2  183   3.424   3.300   3.227  1.1371 -0.8165 -1.5891
   62SOL     OW  184   3.498   1.171   0.497 -0.1943 -0.3441 -0.1514
   62SOL    HW1  185   3.556   1.123   0.439  1.2534  0.0075  0.9204
   62SOL    HW2  186   3.518   1.263   0.480 -0.4472 -0.2156  0.2211
   63SOL     OW  187   2.430   3.300   2.724 -0.5448 -0.5713 -0.0560
   63SOL    HW1  188   2.400   3.305   2.815 -2.2538 -1.3278 -0.5237
   63SOL    HW2  189   2.482   3.379   2.712  0.4584 -0.8785  1.8122
   64SOL     OW  190   2.194   0.073   3.153  0.1832 -0.3762 -0.0161
   64SOL    HW1  191   2.171   0.145   3.096  0.4541 -0.8855 -0.7852
   64SOL    HW2  192   2.172  -0.006   3.103  3.3336 -0.9061 -0.7739
   65SOL     OW  193   3.490   1.435   0.895  0.0680  0.4480  0.0607
   65SOL    HW1  194   3.495   1.473   0.983 -0.3895 -1.1644  0.8017
   65SOL    HW2  195   3.555   1.365   0.896 -1.4336 -0.9737 -0.1676
   66SOL     OW  196   0.417   3.708   2.659  0.2939 -0.3718 -0.2112
   66SOL    HW1  197   0.329   3.670   2.667 -0.1978  0.4038 -1.5197
   66SOL    HW2  198   0.423   3.733   2.567  1.2055  1.2150  0.2413
   67SOL     OW  199   0.389   0.071   2.501  0.5671 -0.1751  0.5913
   67SOL    HW1  200   0.334   0.024   2.563  1.8856 -2.7002 -0.0080
   67SOL    HW2  201   0.346   0.061   2.417  0.7778 -0.1720  0.4816
   68SOL     OW  202   3.651   3.112   3.201 -0.4461 -0.3643 -0.7522
   68SOL    HW1  203   3.630   3.129   3.110 -1.6735 -2.7244 -0.9610
   68SOL    HW2  204   3.640   3.018   3.212  0.6225 -0.2918  1.6039
   69SOL     OW  205   3.397   3.095   2.710  0.2021  0.3352  0.7178
   69SOL    HW1  206   3.371   3.185   2.726 -1.2304  0.1528 -0.3181
   69SOL    HW2  207   3.334   3.042   2.760  0.8609 -0.0892  1.1058
   70SOL     OW  208   2.339   2.160   3.823 -0.0965 -0.4541  0.1002
   70SOL    HW1  209   2.251   2.127   3.803  0.2504 -2.7801  2.0514
   70SOL    HW2  210   2.356   2.133   3.913  2.3271  0.6518  0.0644
   71SOL     OW  211   0.514   0.044   2.115  0.5753  0.4429  0.7319
   71SOL    HW1  212   0.442  -0.006   2.153  0.5782  0.0148  0.1885
   71SOL    HW2  213   0.486   0.062   2.025 -0.4295  3.3782  1.5040
   72SOL     OW  214   0.244   1.878   0.550  0.2590 -1.6102 -0.0776
   72SOL    HW1  215   0.329   1.921   0.541  0.5998 -2.0815  0.8706
   72SOL    HW2  216   0.243   1.843   0.638 -1.0629 -1.3250  0.0489
   73SOL     OW  217   3.196   1.146   0.459  0.0083 -0.0178 -0.2745
   73SOL    HW1  218   3.150   1.187   0.532 -0.5293  2.3966 -1.8520
   73SOL    HW2  219   3.287   1.175   0.468  0.2363 -0.8545  0.1826
   74SOL     OW  220   2.509   1.933   2.715 -0.7488 -0.2778  0.2310
   74SOL    HW1  221   2.596   1.967   2.694 -0.8675  0.3415  0.7129
   74SOL    HW2  222   2.450   1.973   2.651 -0.2910 -3.2070 -2.2683
   75SOL     OW  223   3.317   2.109   1.457 -0.3571  0.1303 -0.2612
   75SOL    HW1  224   3.232   2.145   1.484  0.2439  1.2863  0.1248
   75SOL    HW2  225   3.296   2.059   1.377 -2.3248 -4.0972  2.5283
   76SOL     OW  226   2.025   2.299   2.684 -0.0842  0.0473 -0.0064
   76SOL    HW1  227   2.086   2.226   2.687  1.1339  0.9993 -0.5535
   76SOL    HW2  228   1.995   2.302   2.593 -0.8481 -0.3216  0.2251
   77SOL     OW  229   3.958   1.112   2.832  0.1826  0.2196  0.2090
   77SOL    HW1  230   4.010   1.034   2.851  0.0860  0.3007  0.8378
   77SOL    HW2  231   4.021   1.174   2.795  0.1376 -0.3653 -0.8713
   78SOL     OW  232   2.314   3.158   0.225  0.1189 -0.4776  0.4814
   78SOL    HW1  233   2.261   3.167   0.305 -0.2462 -0.1729  0.2096
   78SOL    HW2  234   2.283   3.078   0.184  0.0901 -0.4707  0.4895
   79SOL     OW  235   3.218   2.548   3.704  0.4774 -0.2923 -0.1520
   79SOL    HW1  236   3.189   2.491   3.633 -1.4045 -0.0751  0.3951
   79SOL    HW2  237   3.290   2.500   3.745  0.2464 -1.3398 -0.9403
   80SOL     OW  238   0.222   1.511   0.164  0.3471 -0.5529  0.3194
   80SOL    HW1  239   0.193   1.425   0.194  3.0130 -2.9816 -3.3077
   80SOL    HW2  240   0.182   1.521   0.078  0.9105  1.4041  0.2397
   81SOL     OW  241   2.514   0.056   0.728 -0.3584  0.5087  0.8553
   81SOL    HW1  242   2.532   0.038   0.820 -1.0791  0.4455  0.9894
   81SOL    HW2  243   2.430   0.013   0.711 -0.0593  0.2141  0.0754
   82SOL     OW  244   3.975   1.056   0.286  0.8136  0.7823  0.3212
   82SOL    HW1  245   3.888   1.063   0.325  1.2148  0.4259  1.3215
   82SOL    HW2  246   3.976   0.970   0.245  0.2882  1.2754 -0.7666
   83SOL     OW  247   2.028   0.077   0.495  0.2453  0.6197 -0.6683
   83SOL    HW1  248   2.072   0.161   0.482 -1.2790  1.7671  1.0851
   83SOL    HW2  249   1.993   0.082   0.584 -0.6673 -1.5213 -0.8481
   84SOL     OW  250   3.176   2.678   0.909 -0.5448  0.0780  0.0713
   84SOL    HW1  251   3.177   2.761   0.863 -0.2401 -0.4149 -0.8275
   84SOL    HW2  252   3.141   2.615   0.846  1.1127 -0.8560  0.0299
   85SOL     OW  253   3.112   0.119   0.234 -0.1315 -0.2822 -0.1424
   85SOL    HW1  254   3.066   0.084   0.159 -4.3699 -0.5463  2.2827
   85SOL    HW2  255   3.178   0.052   0.255  0.3817 -0.7223 -2.7963
   86SOL     OW  256   0.462   2.342   0.564 -0.4907 -0.4516  0.9036
   86SOL    HW1  257   0.380   2.387   0.582 -0.1590  0.1248  1.0067
   86SOL    HW2  258   0.465   2.271   0.628  0.1454  0.8946  2.4571
   87SOL     OW  259   0.143   2.733   1.635  0.0419  0.3432 -0.4139
   87SOL    HW1  260   0.078   2.677   1.592  0.3720 -1.7701  1.6843
   87SOL    HW2  261   0.161   2.801   1.570 -1.5718 -1.0435 -2.4717
   88SOL     OW  262   1.251   2.126   1.347 -0.0094 -0.5591  0.0516
   88SOL    HW1  263   1.244   2.205   1.294 -0.2015  0.1171  1.0591
   88SOL    HW2  264   1.333   2.086   1.320  0.8588  0.7972  0.5934
   89SOL     OW  265   1.468   1.938   2.848  0.4657  0.0393  0.1161
   89SOL    HW1  266   1.529   1.914   2.918  0.3405 -0.6911 -0.0147
   89SOL    HW2  267   1.498   1.890   2.771  1.2864  1.7217 -0.6659
   90SOL     OW  268   2.437   0.413   2.596  0.1133  0.2942  0.0017
   90SOL    HW1  269   2.411   0.374   2.680  0.3922  2.2073  1.0323
   90SOL    HW2  270   2.532   0.423   2.603  0.1006  0.7192 -0.4398
   91SOL     OW  271   2.636   0.114   4.014 -0.3713  0.0167 -1.0615
   91SOL    HW1  272   2.675   0.043   3.963  2.5802  0.9619 -0.3163
   91SOL    HW2  273   2.617   0.182   3.949  0.5301  0.0443 -1.3146
   92SOL     OW  274   1.912   3.841   0.691 -0.6615 -0.3895  0.0294
   92SOL    HW1  275   1.982   3.816   0.630  0.3769  2.2669 -0.0005
   92SOL    HW2  276   1.958   3.859   0.774 -1.0781  2.3046 -0.2399
   93SOL     OW  277   2.578   1.482   1.849 -0.0676 -0.1949  0.5125
   93SOL    HW1  278   2.593   1.572   1.879 -1.8085  0.2972 -0.0043
   93SOL    HW2  279   2.621   1.477   1.764  0.9704 -0.2202  1.0119
   94SOL     OW  280   2.259   3.313   3.555  0.2059 -0.0476  0.7663
   94SOL    HW1  281   2.178   3.353   3.588 -1.4576 -2.7391  0.2595
   94SOL    HW2  282   2.329   3.369   3.589 -1.8289  2.4044  1.2308
   95SOL     OW  283   2.354   1.954   0.366  0.6265  0.0373  0.7889
   95SOL    HW1  284   2.265   1.942   0.400  0.4046 -2.0798 -0.3574
   95SOL    HW2  285   2.386   1.865   0.350  1.9267  0.8119 -1.3919
   96SOL     OW  286   0.534   3.596   1.129 -0.3698 -0.5163 -0.1119
   96SOL    HW1  287   0.549   3.682   1.167  0.6690 -0.7797  0.0966
   96SOL    HW2  288   0.600   3.588   1.061 -3.3038  0.7436 -3.4653
   97SOL     OW  289   1.041   1.945   1.330 -0.3255  0.6141 -0.2897
   97SOL    HW1  290   0.991   1.987   1.259  0.2992  1.9754  0.0546
   97SOL    HW2  291   1.120   1.998   1.338  0.3621 -0.4802  0.3674
   98SOL     OW  292   0.707   1.477   2.238 -0.8106 -0.0585  0.5022
   98SOL    HW1  293   0.620   1.492   2.275 -0.8215  1.2589  0.0121
   98SOL    HW2  294   0.748   1.563   2.239 -0.3238 -0.2143 -1.2943
   99SOL     OW  295   2.434   3.430   2.957 -0.4128 -0.1775  0.6466
   99SOL    HW1  296   2.524   3.454   2.975 -0.5979  0.1257  1.2011
   99SOL    HW2  297   2.383   3.508   2.978 -0.5960  0.5214 -1.9662
  100SOL     OW  298   0.221   1.980   2.986  0.0487  0.4667 -0.3708
  100SOL    HW1  299   0.134   1.985   2.946 -0.6434 -2.1355  0.6176
  100SOL    HW2  300   0.277   1.946   2.916  0.1677  1.5559 -0.8243
  101SOL     OW  301   1.008   1.819   2.003  0.3912 -0.4167 -0.2796
  101SOL    HW1  302   1.101   1.840   2.014  0.5059 -0.3995 -1.2178
  101SOL    HW2  303   0.994   1.822   1.908 -1.0489  1.6683 -0.0788
  102SOL     OW  304   3.174   2.712   2.726 -0.3988 -0.2112 -0.1565
  102SOL    HW1  305   3.221   2.708   2.643  0.4595  0.8526  0.2522
  102SOL    HW2  306   3.125   2.794   2.723 -1.2914 -0.7222 -0.0725
  103SOL     OW  307   0.491   0.522   0.709  0.3723 -0.0065  0.6376
  103SOL    HW1  308   0.440   0.601   0.729 -2.2905 -1.4510  0.0293
  103SOL    HW2  309   0.472   0.462   0.781  0.6157 -0.8443  0.0235
  104SOL     OW  310   1.032   0.640   0.593 -0.2294  0.3890 -0.2427
  104SOL    HW1  311   1.077   0.617   0.674  0.0334 -1.4929 -0.8755
  104SOL    HW2  312   0.958   0.580   0.588 -0.1940  0.4132 -1.4239
  105SOL     OW  313   1.715   0.660   0.720 -0.1645  0.2337 -0.6133
  105SOL    HW1  314   1.772   0.631   0.648 -1.5748 -1.2240 -1.2076
  105SOL    HW2  315   1.660   0.727   0.680  0.2170  0.6882 -0.3924
  106SOL     OW  316   2.444   3.508   1.316 -0.0924 -0.1362 -0.9928
  106SOL    HW1  317   2.357   3.492   1.351  0.0566 -0.6925 -0.8570
  106SOL    HW2  318   2.499   3.522   1.393 -0.1929  0.9701 -1.1043
  107SOL     OW  319   0.738   0.771   1.975 -0.3242 -0.1049 -0.6942
  107SOL    HW1  320   0.736   0.691   2.027 -1.2519  0.7330  0.5995
  107SOL    HW2  321   0.646   0.795   1.964 -0.0475  0.9122 -0.8658
  108SOL     OW  322   2.127   2.979   3.669  0.1754 -0.7555  0.7848
  108SOL    HW1  323   2.214   3.018   3.681  0.2247  0.2134 -1.9019
  108SOL    HW2  324   2.073   3.015   3.739  1.5186 -0.0257  1.4680
  109SOL     OW  325   3.144   3.851   0.422  0.4042  0.2191 -0.1516
  109SOL    HW1  326   3.138   3.942   0.450 -0.1675  0.0717  0.2265
  109SOL    HW2  327   3.118   3.852   0.330  1.9335  0.6515 -0.6085
  110SOL     OW  328   2.438   0.554   0.147  0.4791  0.1667  0.7762
  110SOL    HW1  329   2.534   0.558   0.139  0.9150 -3.3104  2.3394
  110SOL    HW2  330   2.421   0.570   0.240 -0.6181  1.7142  0.3481
  111SOL     OW  331   0.755   3.329   1.594 -0.4725 -0.0668  0.2280
  111SOL    HW1  332   0.725   3.279   1.669 -0.0047 -0.2920  0.2690
  111SOL    HW2  333   0.715   3.415   1.605 -1.1314 -0.3707  0.2541
  112SOL     OW  334   0.415   3.340   2.209 -0.3272  0.0466 -0.1058
  112SOL    HW1  335   0.407   3.247   2.230  1.2599 -0.7451 -2.5458
  112SOL    HW2  336   0.510   3.355   2.203 -0.5817  1.5203 -0.9548
  113SOL     OW  337   1.849   2.550   0.030 -0.3342 -0.0952  0.2920
  113SOL    HW1  338   1.772   2.501   0.001  0.2207 -0.5016 -0.5770
  113SOL    HW2  339   1.904   2.484   0.072  1.6104 -0.9608 -3.1666
  114SOL     OW  340   2.124   0.761   2.262 -0.6078 -0.0953  0.6081
  114SOL    HW1  341   2.072   0.682   2.243  2.3419 -1.9934 -0.3384
  114SOL    HW2  342   2.181   0.734   2.334  1.5451  0.5811 -0.7688
  115SOL     OW  343   1.744   1.208   0.998 -0.7852 -0.4039 -0.2437
  115SOL    HW1  344   1.817   1.153   0.972 -1.1437 -0.6181 -0.8083
  115SOL    HW2  345   1.671   1.148   1.010 -0.7813 -0.2436  0.7202
  116SOL     OW  346   2.913   1.777   3.578 -0.0609  0.6385  0.0342
  116SOL    HW1  347   2.926   1.790   3.484  0.4834  0.3323  0.0666
  116SOL    HW2  348   2.826   1.737   3.585 -0.9147  2.3531 -0.2084
  117SOL     OW  349   0.648   2.702   2.258  0.2181  0.2499  0.7094
  117SOL    HW1  350   0.618   2.620   2.297  0.4456 -0.2906 -0.2209
  117SOL    HW2  351   0.677   2.677   2.170 -2.8419  1.8446 -0.8900
  118SOL     OW  352   1.196   2.296   1.596 -0.3662 -0.5878 -0.0319
  118SOL    HW1  353   1.183   2.389   1.576  0.9962 -0.2507  0.5642
  118SOL    HW2  354   1.184   2.252   1.512  1.3060  0.3849 -0.8294
  119SOL     OW  355   1.851   3.515   0.677  0.0636 -0.7517  0.4373
  119SOL    HW1  356   1.780   3.555   0.626  0.4574 -1.4400 -0.7110
  119SOL    HW2  357   1.840   3.421   0.662  1.7818 -0.8362 -0.6038
  120SOL     OW  358   0.767   3.919   0.069  0.0169  0.1282  0.0758
  120SOL    HW1  359   0.717   3.863   0.129 -1.5170  0.8741 -0.4622
  120SOL    HW2  360   0.857   3.889   0.079 -0.3573 -0.5336  1.8950
  121SOL     OW  361   3.761   0.623   1.850 -0.8615 -0.5673 -0.7848
  121SOL    HW1  362   3.769   0.704   1.800  0.0249  0.2724  0.6389
  121SOL    HW2  363   3.811   0.558   1.800 -0.5601  0.0692 -1.3147
  122SOL     OW  364   3.335   0.516   2.012 -0.7572 -0.1469  0.4240
  122SOL    HW1  365   3.244   0.537   2.036 -0.3131  1.0144  1.2049
  122SOL    HW2  366   3.367   0.594   1.968 -0.1632 -0.5978  0.0362
  123SOL     OW  367   1.389   3.279  -0.012  0.6349 -0.8427 -0.2305
  123SOL    HW1  368   1.345   3.315   0.065  0.3189 -0.2991 -0.6592
  123SOL    HW2  369   1.440   3.205   0.022  2.8095  1.0956  1.0333
  124SOL     OW  370   1.844   1.376   1.171  0.1435 -0.0901  0.1662
  124SOL    HW1  371   1.802   1.323   1.103  2.1534 -1.1911 -0.2953
  124SOL    HW2  372   1.918   1.323   1.201  2.1784  2.3508 -0.1877
  125SOL     OW  373   1.476   1.948   0.245 -0.1924 -0.0195 -0.0355
  125SOL    HW1  374   1.430   1.889   0.185 -0.6884  0.9073 -0.5985
  125SOL    HW2  375   1.410   1.971   0.310  0.2617 -0.7884  0.7137
  126SOL     OW  376   2.717   2.526   1.646 -0.1173  0.1353 -0.1993
  126SOL    HW1  377   2.651   2.457   1.649 -0.5812  0.5596 -0.3414
  126SOL    HW2  378   2.670   2.601   1.608  0.2055  0.7068  0.5147
  127SOL     OW  379   2.784   1.503   4.029 -0.3616 -0.4585 -0.1048
  127SOL    HW1  380   2.837   1.526   3.953 -1.5015  2.3741 -0.1823
  127SOL    HW2  381   2.740   1.422   4.004  0.3393 -0.3225 -1.9164
  128SOL     OW  382   0.953   3.172   0.496  0.1596 -0.1204  0.5889
  128SOL    HW1  383   1.020   3.106   0.477  0.6178  0.3539  0.5193
  128SOL    HW2  384   1.001   3.243   0.539 -0.6912 -0.7597  2.7314
  129SOL     OW  385   2.398   0.550   3.081 -0.3551  0.1283  0.7401
  129SOL    HW1  386   2.341   0.622   3.054 -0.5126 -0.2492  0.0621
  129SOL    HW2  387   2.338   0.484   3.116 -0.2907 -0.0760  0.4618
  130SOL     OW  388   3.688   3.060   1.172 -0.3684 -0.0173  0.2223
  130SOL    HW1  389   3.662   3.147   1.202 -1.3287 -0.2353  0.0637
  130SOL    HW2  390   3.606   3.012   1.165  0.1942 -1.1253  0.8787
  131SOL     OW  391   0.408   2.799   2.025 -0.4168  0.1814 -0.6958
  131SOL    HW1  392   0.425   2.886   2.062  0.7555 -0.0331 -0.6760
  131SOL    HW2  393   0.415   2.739   2.099  0.8554 -0.1330 -1.0411
  132SOL     OW  394   0.888   3.295   0.779 -0.0930  0.2173 -0.3276
  132SOL    HW1  395   0.943   3.363   0.739  0.1475 -0.3175 -0.9313
  132SOL    HW2  396   0.934   3.213   0.760 -2.3449 -0.5679 -3.1971
  133SOL     OW  397   2.931   0.605   0.955  0.1324  0.1696 -0.6402
  133SOL    HW1  398   2.973   0.674   0.903  0.8042  0.8519  0.7731
  133SOL    HW2  399   2.971   0.524   0.922  0.4603  0.5768 -1.2738
  134SOL     OW  400   0.395  -0.004   1.864 -0.2557 -0.5524 -0.5923
  134SOL    HW1  401   0.306  -0.040   1.863  0.1593 -1.6464 -2.4347
  134SOL    HW2  402   0.392   0.067   1.800  0.1494 -0.4284 -0.4738
  135SOL     OW  403   2.150   2.502   0.901 -0.3020 -0.0751  0.4319
  135SOL    HW1  404   2.078   2.473   0.845 -0.0303  0.7951 -0.4096
  135SOL    HW2  405   2.218   2.436   0.888  0.5416  1.1376 -1.9385
  136SOL     OW  406   0.894   0.798   2.825  0.0474  0.0698  0.2831
  136SOL    HW1  407   0.942   0.818   2.906 -2.3000 -1.5223  2.2182
  136SOL    HW2  408   0.900   0.703   2.817 -1.5598 -0.0102 -0.1881
  137SOL     OW  409   3.464   3.299   1.021 -0.4893  0.3263  0.3711
  137SOL    HW1  410   3.522   3.249   0.964 -1.7451 -0.3336 -0.3759
  137SOL    HW2  411   3.494   3.278   1.109  0.4737  0.0998  0.0086
  138SOL     OW  412   0.121   0.424   2.363 -0.2334 -0.0137  0.1946
  138SOL    HW1  413   0.118   0.443   2.269 -2.5248 -0.7269  0.0586
  138SOL    HW2  414   0.097   0.332   2.370 -0.9996  0.2620  1.5292
  139SOL     OW  415   3.697   3.812   0.720  0.2514 -0.0599 -0.4477
  139SOL    HW1  416   3.693   3.726   0.763 -0.5352  0.4688  0.5776
  139SOL    HW2  417   3.611   3.822   0.679 -0.9199  1.5710  2.1726
  140SOL     OW  418   0.257   3.612   1.063 -0.4248  0.4750  0.3355
  140SOL    HW1  419   0.346   3.619   1.099 -0.2861  1.9633 -0.2403
  140SOL    HW2  420   0.264   3.545   0.995 -0.1896 -0.7747  1.5483
  141SOL     OW  421  -0.016   1.605   0.706  0.3912  0.1994  0.2362
  141SOL    HW1  422   0.061   1.580   0.757 -0.6830 -1.1329  1.3214
  141SOL    HW2  423  -0.016   1.546   0.631 -0.5469 -1.1739  1.2489
  142SOL     OW  424   2.527   2.736   2.797 -0.2348  0.1710 -0.0409
  142SOL    HW1  425   2.470   2.790   2.852  0.2808 -1.1634  1.8966
  142SOL    HW2  426   2.580   2.799   2.749 -1.3831  1.4026  0.2268
  143SOL     OW  427   1.867   3.243   0.664 -0.1111  0.0291 -0.2712
  143SOL    HW1  428   1.868   3.213   0.755  0.6982  0.4313 -0.1413
  143SOL    HW2  429   1.935   3.191   0.621  2.0471  2.3068  0.1847
  144SOL     OW  430   1.225   2.215   0.120 -0.8313  0.1530  0.0932
  144SOL    HW1  431   1.155   2.279   0.107  1.6238  2.6861 -1.7215
  144SOL    HW2  432   1.209   2.181   0.208 -4.2884  0.5522 -0.2369
  145SOL     OW  433   0.128   1.117   0.510 -0.5383  0.0567  0.0181
  145SOL    HW1  434   0.057   1.080   0.458 -0.1392 -1.5983  0.5885
  145SOL    HW2  435   0.157   1.045   0.566 -0.0208  1.3721  1.5327
  146SOL     OW  436   2.233   2.661   2.736 -0.0349 -0.9540  0.9161
  146SOL    HW1  437   2.176   2.631   2.665 -0.3227 -1.1559  1.2286
  146SOL    HW2  438   2.290   2.587   2.755 -0.2346 -1.0446  1.1725
  147SOL     OW  439   2.002   1.667   3.476 -0.5668 -0.4486 -0.1376
  147SOL    HW1  440   2.085   1.620   3.464  0.0011  0.4175  0.2476
  147SOL    HW2  441   2.012   1.711   3.560 -1.4332 -0.3472 -0.0820
  148SOL     OW  442   2.080   3.168   2.400  0.7878 -0.3582 -0.0195
  148SOL    HW1  443   2.073   3.097   2.464  0.8212  0.5304  1.0019
  148SOL    HW2  444   2.149   3.225   2.435  1.2420 -0.1704 -1.1709
  149SOL     OW  445   3.544   2.191   3.540 -0.0012 -0.0047 -0.1794
  149SOL    HW1  446   3.469   2.150   3.498 -2.4568  1.8863  2.0190
  149SOL    HW2  447   3.552   2.277   3.498 -0.7963  0.8260  1.2638
  150SOL     OW  448   2.699   0.811   2.775 -0.0043  0.2351  0.1136
  150SOL    HW1  449   2.727   0.726   2.808  1.1349  1.2930  2.0070
  150SOL    HW2  450   2.770   0.838   2.716 -1.2000 -0.8414 -1.9680
  151SOL     OW  451   0.101   0.590   0.697  0.6504  0.1215 -0.0661
  151SOL    HW1  452   0.009   0.563   0.703  0.4014  1.0451  0.6047
  151SOL    HW2  453   0.122   0.584   0.604  0.1267 -0.7742 -0.1356
  152SOL     OW  454   1.103   2.626   2.870 -0.2364  0.1052  0.4894
  152SOL    HW1  455   1.102   2.553   2.808 -2.7274  0.4758 -0.0079
  152SOL    HW2  456   1.097   2.704   2.816 -0.3844  0.5419  1.1258
  153SOL     OW  457   1.312   1.331   0.739 -0.1253 -0.0340 -0.3508
  153SOL    HW1  458   1.309   1.239   0.766  0.8723  0.5670  2.0202
  153SOL    HW2  459   1.370   1.331   0.662  1.2513 -1.2078  0.6286
  154SOL     OW  460   2.588   0.768   3.074  0.2058  0.4652 -0.2074
  154SOL    HW1  461   2.563   0.683   3.109  2.7692  0.5888  2.2849
  154SOL    HW2  462   2.601   0.752   2.980  0.1142 -1.7485  0.1067
  155SOL     OW  463   0.617   1.203   3.436  0.4525  0.2961 -0.0607
  155SOL    HW1  464   0.642   1.207   3.343 -0.4531 -0.0377 -0.3261
  155SOL    HW2  465   0.540   1.260   3.442  0.8866  0.8289  0.6243
  156SOL     OW  466   0.097   2.376   0.693 -0.6731 -0.3775 -0.3215
  156SOL    HW1  467   0.155   2.436   0.739 -3.2508 -1.0657  4.4756
  156SOL    HW2  468   0.059   2.428   0.622  2.5808  1.2137 -1.1020
  157SOL     OW  469   2.459   1.168   0.890  1.0939 -0.0433 -0.1025
  157SOL    HW1  470   2.405   1.113   0.946 -1.0213  2.4856  0.5787
  157SOL    HW2  471   2.421   1.159   0.803 -0.1506  1.2732  0.2647
  158SOL     OW  472   1.562   3.664   1.240 -0.3217 -0.3497  0.4449
  158SOL    HW1  473   1.491   3.617   1.195 -0.2743 -1.2776  1.3141
  158SOL    HW2  474   1.535   3.756   1.238 -0.6735 -0.4599 -0.8214
  159SOL     OW  475   0.033   0.528   2.631 -0.1760 -0.0260 -0.4517
  159SOL    HW1  476   0.055   0.484   2.549  1.2159  0.2469 -0.2573
  159SOL    HW2  477  -0.060   0.547   2.625  0.2188  1.5711 -2.7338
  160SOL     OW  478   1.733   0.405   3.829  1.1247  0.1530 -0.0334
  160SOL    HW1  479   1.792   0.360   3.769  1.1097  0.1057 -0.0129
  160SOL    HW2  480   1.647   0.369   3.810  1.2587 -0.5832  0.6830
  161SOL     OW  481   1.023   3.658   2.548  0.0139 -0.2915 -0.7147
  161SOL    HW1  482   1.119   3.664   2.550  0.0341 -0.6896 -0.3413
  161SOL    HW2  483   1.002   3.591   2.612 -0.5613  0.2873 -0.2843
  162SOL     OW  484   1.840   2.627   2.544  0.1090 -0.3444 -0.6391
  162SOL    HW1  485   1.859   2.657   2.455  3.6907  0.8433  0.3682
  162SOL    HW2  486   1.926   2.607   2.582 -1.3467 -1.7865  2.2678
  163SOL     OW  487   1.953   1.394   1.525 -0.3968 -0.5225 -0.2023
  163SOL    HW1  488   1.954   1.376   1.619  2.8123  0.8098  0.1764
  163SOL    HW2  489   1.961   1.308   1.484  0.7851 -0.9729  0.8966
  164SOL     OW  490   1.901   0.958   0.285 -0.1205  0.3296 -0.4494
  164SOL    HW1  491   1.985   0.949   0.240 -1.2866  0.1476 -2.7893
  164SOL    HW2  492   1.845   0.891   0.245 -1.6025  0.9760  0.4306
  165SOL     OW  493   3.827   2.905   3.533 -0.1035  0.0597  0.2502
  165SOL    HW1  494   3.871   2.967   3.475  0.8032 -1.4535 -0.7597
  165SOL    HW2  495   3.734   2.913   3.512  0.1594 -0.0648 -1.0469
  166SOL     OW  496   1.929   3.438   1.288 -0.5949  0.1550 -0.4982
  166SOL    HW1  497   1.963   3.526   1.303 -2.7603  1.1507 -1.1282
  166SOL    HW2  498   1.852   3.432   1.344  0.7268 -2.2310  1.2864
  167SOL     OW  499   0.118   0.147   1.976 -0.1095  0.3365 -0.1256
  167SOL    HW1  500   0.184   0.104   1.922  0.5009  0.2147  0.6812
  167SOL    HW2  501   0.051   0.176   1.915  0.8713  0.7895 -1.0177
  168SOL     OW  502   1.635   1.099   3.563 -0.3380 -0.3154  0.7902
  168SOL    HW1  503   1.676   1.147   3.635  1.3823 -1.6752  0.7576
  168SOL    HW2  504   1.562   1.053   3.604 -0.3435  0.1663  1.3392
  169SOL     OW  505   1.329   2.152   2.764 -0.4141  0.1151  0.0916
  169SOL    HW1  506   1.377   2.071   2.781 -0.8892 -0.4448 -1.1373
  169SOL    HW2  507   1.397   2.220   2.759 -0.1763  0.4111  4.0559
  170SOL     OW  508   2.462   0.031   1.767 -0.0138  0.3496 -0.3285
  170SOL    HW1  509   2.518   0.038   1.690 -0.5222  1.5461 -0.6125
  170SOL    HW2  510   2.409  -0.047   1.751  0.7648 -0.1433 -0.5777
  171SOL     OW  511   0.515   3.276   0.177 -0.1873 -0.8013 -0.4636
  171SOL    HW1  512   0.586   3.271   0.113  1.5822  2.6842  0.9736
  171SOL    HW2  513   0.440   3.308   0.127  0.7121  0.3381 -1.1427
  172SOL     OW  514   0.743   3.526   3.286 -0.3445 -0.1293 -0.3869
  172SOL    HW1  515   0.784   3.440   3.297  0.0404  0.1603  0.5136
  172SOL    HW2  516   0.788   3.564   3.210  0.5264 -0.1333  0.1118
  173SOL     OW  517   3.834   0.659   1.411 -0.4402  0.2813 -0.3647
  173SOL    HW1  518   3.780   0.581   1.420 -0.0516 -0.0757 -1.0084
  173SOL    HW2  519   3.884   0.644   1.330  0.1302  0.8935 -0.1333
  174SOL     OW  520   2.220   1.003   3.139  0.2497 -0.1384 -0.4350
  174SOL    HW1  521   2.189   0.959   3.218 -1.3596  0.2026 -0.8493
  174SOL    HW2  522   2.313   1.020   3.156  0.0756 -0.6070  1.1184
  175SOL     OW  523   0.390   3.098   2.802 -0.9672  0.2027 -0.1929
  175SOL    HW1  524   0.355   3.040   2.735  0.5219 -0.5876 -0.3271
  175SOL    HW2  525   0.441   3.041   2.860 -0.4710  1.1824  0.3736
  176SOL     OW  526   1.842   3.437   0.928  0.0438 -0.0247  0.2405
  176SOL    HW1  527   1.749   3.420   0.943  0.1560 -1.6058 -0.6558
  176SOL    HW2  528   1.844   3.486   0.847  0.0237 -0.7741 -0.2228
  177SOL     OW  529   1.422   3.145   1.103  0.0853  0.1907  0.4304
  177SOL    HW1  530   1.429   3.146   1.007  1.7706  2.1047  0.5074
  177SOL    HW2  531   1.341   3.192   1.121  1.1458  2.3404 -0.0704
  178SOL     OW  532   1.286   3.973   2.406 -0.2397 -0.2896 -0.7690
  178SOL    HW1  533   1.258   4.064   2.417  0.5500 -0.0434 -0.7810
  178SOL    HW2  534   1.337   3.954   2.485 -1.4260 -1.1218 -0.1712
  179SOL     OW  535   1.202   3.779   0.987 -0.0101  0.1388 -0.5962
  179SOL    HW1  536   1.128   3.785   1.048 -1.2699  1.2998 -2.1465
  179SOL    HW2  537   1.232   3.869   0.977 -1.3707  0.3751 -3.4294
  180SOL     OW  538   3.255   3.641   1.398  0.1027  0.2129 -0.1137
  180SOL    HW1  539   3.217   3.566   1.352 -1.6504 -0.4096  2.1387
  180SOL    HW2  540   3.182   3.702   1.410  1.2790  1.9102 -1.0657
  181SOL     OW  541   0.724   2.622   1.479 -0.7066  0.3102 -0.3532
  181SOL    HW1  542   0.708   2.604   1.572 -0.5654  1.2352 -0.1367
  181SOL    HW2  543   0.693   2.544   1.434 -1.2189  0.0368  0.4394
  182SOL     OW  544   3.795   3.947   1.261 -0.0243  0.2532 -0.2868
  182SOL    HW1  545   3.883   3.946   1.223  0.4063  1.7537  0.6030
  182SOL    HW2  546   3.779   3.856   1.287  1.2435 -0.0435 -0.4981
  183SOL     OW  547   1.298   2.743   3.580 -0.1495  1.0204 -0.3786
  183SOL    HW1  548   1.204   2.749   3.594 -0.2710  0.2476 -0.7894
  183SOL    HW2  549   1.333   2.827   3.608 -0.6517  0.4623  2.1353
  184SOL     OW  550   2.913   2.073   0.226  0.4382  0.5673 -0.1008
  184SOL    HW1  551   2.990   2.016   0.229  0.8959  1.1018 -1.0895
  184SOL    HW2  552   2.903   2.094   0.133  0.4394  2.2796  0.2485
  185SOL     OW  553   0.525   2.365   3.242  0.0372  0.3140  0.1693
  185SOL    HW1  554   0.432   2.385   3.254  0.2043  1.4301 -0.3513
  185SOL    HW2  555   0.565   2.385   3.327 -0.0198  0.9133  0.0565
  186SOL     OW  556   0.265   2.301   0.955  0.0506  0.4825 -0.0058
  186SOL    HW1  557   0.356   2.300   0.985  0.0859  2.1340  0.0103
  186SOL    HW2  558   0.268   2.263   0.868  0.9397  1.5044 -0.4386
  187SOL     OW  559   3.833  -0.010   1.625 -0.5651  0.9278 -0.2116
  187SOL    HW1  560   3.894   0.041   1.572  1.1119 -1.0988 -0.3697
  187SOL    HW2  561   3.749  -0.005   1.579  0.7173 -0.4228 -2.9138
  188SOL     OW  562   0.034   1.282   3.911  0.0206  0.6511  0.4929
  188SOL    HW1  563   0.129   1.275   3.901 -0.2193 -1.1255 -1.4113
  188SOL    HW2  564   0.009   1.350   3.849  0.1292  2.1926  2.0646
  189SOL     OW  565   1.572   0.364   1.641 -0.3096  0.2076 -0.3521
  189SOL    HW1  566   1.597   0.357   1.733 -0.7647 -0.2466 -0.2599
  189SOL    HW2  567   1.538   0.278   1.618  0.3786  0.1276 -1.1226
  190SOL     OW  568   2.697   2.937   0.756  0.0231 -0.3273  0.5067
  190SOL    HW1  569   2.676   2.844   0.743 -0.7567 -0.8886  4.5673
  190SOL    HW2  570   2.625   2.971   0.809  0.6696  2.4884 -0.2415
  191SOL     OW  571   0.009   0.337   0.230 -0.6104 -0.6197 -0.4714
  191SOL    HW1  572  -0.001   0.269   0.164 -0.5820 -0.8609 -0.2322
  191SOL    HW2  573   0.073   0.300   0.292 -1.5344 -0.9094  0.3426
  192SOL     OW  574   0.849   2.909   2.518 -0.0715  0.0446  0.3579
  192SOL    HW1  575   0.828   2.820   2.544  1.3606 -0.0465  1.2519
  192SOL    HW2  576   0.781   2.931   2.453 -1.0743 -1.2855  0.9081
  193SOL     OW  577   1.763   3.607   1.684 -0.3122  0.6749  0.1405
  193SOL    HW1  578   1.692   3.577   1.742 -1.8322  1.6423 -1.1251
  193SOL    HW2  579   1.719   3.665   1.622  0.9463 -1.3222 -2.8256
  194SOL     OW  580   3.527   1.519   1.627 -0.2062 -0.1799 -0.7676
  194SOL    HW1  581   3.574   1.500   1.546 -1.2422  2.1669 -1.9908
  194SOL    HW2  582   3.451   1.569   1.600 -0.0368  1.6139  1.7502
  195SOL     OW  583   1.655   2.934   2.323  0.5199 -0.4376  0.1248
  195SOL    HW1  584   1.586   2.875   2.353  0.2240 -0.5188 -0.7015
  195SOL    HW2  585   1.693   2.969   2.403  2.1600 -3.4063  0.7851
  196SOL     OW  586   1.882   3.224   3.138  0.3453 -0.1293 -0.1349
  196SOL    HW1  587   1.940   3.168   3.189 -0.4847 -0.5448  0.3760
  196SOL    HW2  588   1.797   3.179   3.140 -0.1118  0.6888 -0.4874
  197SOL     OW  589   1.097   3.363   1.231 -0.3624  0.1478  0.4752
  197SOL    HW1  590   1.114   3.293   1.294 -1.6105  0.9935  1.8110
  197SOL    HW2  591   1.004   3.383   1.242 -0.5923  0.3780 -1.6198
  198SOL     OW  592   1.833   1.971   1.865  0.2248 -0.3584 -0.2845
  198SOL    HW1  593   1.758   1.954   1.807 -1.3347  0.4439  1.4252
  198SOL    HW2  594   1.811   2.052   1.910 -0.8346 -3.0340  4.7118
  199SOL     OW  595   3.972   2.247   2.926  0.6584  0.6604 -0.0650
  199SOL    HW1  596   3.936   2.160   2.940  0.8056  0.3483 -1.4850
  199SOL    HW2  597   3.939   2.299   3.000  0.4834 -0.5533  0.7403
  200SOL     OW  598   2.331   3.459   2.233 -0.5042  0.0850 -0.6627
  200SOL    HW1  599   2.274   3.530   2.264  0.1840  1.2985 -2.0534
  200SOL    HW2  600   2.291   3.429   2.152 -1.8876 -2.5600  0.8936
  201SOL     OW  601   3.841   1.747   0.087 -0.9679 -0.6507  0.0809
  201SOL    HW1  602   3.801   1.660   0.088 -1.0275 -0.6207  0.5818
  201SOL    HW2  603   3.932   1.732   0.113 -1.0817 -0.5189  0.5727
  202SOL     OW  604   1.116   2.000   3.288 -0.7737  0.4419 -0.0384
  202SOL    HW1  605   1.077   2.074   3.243 -0.8642  1.1226  1.1315
  202SOL    HW2  606   1.174   2.039   3.354  0.7199 -0.5243 -0.6981
  203SOL     OW  607   3.541   3.699   2.337  0.2859 -0.2278 -0.2208
  203SOL    HW1  608   3.598   3.623   2.334  1.5194  0.6997 -1.1684
  203SOL    HW2  609   3.455   3.664   2.363  1.3506 -1.5769  1.7004
  204SOL     OW  610   1.198   0.768   0.450  0.8781 -0.0092 -0.5932
  204SOL    HW1  611   1.116   0.752   0.497 -0.0493  3.5042 -0.7118
  204SOL    HW2  612   1.261   0.708   0.490 -1.7209 -3.1201 -0.7261
  205SOL     OW  613   3.657   1.718   2.809 -0.2255 -0.1720 -0.5177
  205SOL    HW1  614   3.619   1.678   2.887 -0.1398  1.5926  0.4754
  205SOL    HW2  615   3.730   1.661   2.785  0.4315 -0.1594  1.3503
  206SOL     OW  616   3.565   3.295   0.221  0.0911  0.1375 -0.4286
  206SOL    HW1  617   3.603   3.258   0.142 -0.9752 -0.6327 -0.5994
  206SOL    HW2  618   3.541   3.384   0.197 -1.7480 -0.6116 -1.5047
  207SOL     OW  619   2.544   2.617   0.867  0.6526 -0.2115 -0.1040
  207SOL    HW1  620   2.505   2.530   0.860 -0.7390  0.4033 -0.2925
  207SOL    HW2  621   2.470   2.678   0.860  1.7918  1.0721 -2.0026
  208SOL     OW  622   0.936   0.386   1.087  0.4434 -0.2198  0.3055
  208SOL    HW1  623   0.942   0.382   1.183 -1.1826 -0.6313  0.4233
  208SOL    HW2  624   0.847   0.356   1.068 -0.3304  2.6994 -1.1419
  209SOL     OW  625   1.774   3.087   1.743  0.4483 -0.1665  0.3734
  209SOL    HW1  626   1.732   3.006   1.710 -0.8816 -0.5430  2.7735
  209SOL    HW2  627   1.784   3.072   1.837  1.4231  1.9687  0.6512
  210SOL     OW  628   3.854   3.482   2.509  0.6892 -0.2500  0.0133
  210SOL    HW1  629   3.884   3.563   2.469  1.8587 -0.0153  1.2672
  210SOL    HW2  630   3.820   3.430   2.437  0.4868  1.0978 -0.8999
  211SOL     OW  631   3.513   1.570   2.149 -0.0326 -0.0278  0.0275
  211SOL    HW1  632   3.538   1.527   2.230 -0.1407 -0.9348 -0.4100
  211SOL    HW2  633   3.537   1.662   2.162  1.5047 -0.4589  0.4517
  212SOL     OW  634   2.113   1.490   2.736  0.1109 -0.4800  0.0412
  212SOL    HW1  635   2.075   1.467   2.651  0.1875  0.2258 -0.1906
  212SOL    HW2  636   2.191   1.541   2.714  0.4269 -0.7526  0.5301
  213SOL     OW  637   0.405   0.392   2.382 -0.7358  0.3929 -0.4873
  213SOL    HW1  638   0.324   0.343   2.392 -0.4874  0.2758  1.2545
  213SOL    HW2  639   0.428   0.382   2.290 -1.0963 -2.1454 -0.3632
  214SOL     OW  640   3.271   0.831   0.065 -0.6703 -0.3839 -0.2920
  214SOL    HW1  641   3.184   0.871   0.077  0.0932  1.2322  0.2859
  214SOL    HW2  642   3.292   0.794   0.151 -0.4589 -0.0417 -0.1931
  215SOL     OW  643   0.633   1.288   2.704 -0.7373  0.1840  0.3464
  215SOL    HW1  644   0.673   1.297   2.617  1.1238  1.4150  1.2717
  215SOL    HW2  645   0.575   1.212   2.696  0.8912 -0.9602 -1.4233
  216SOL     OW  646   3.834   0.479   0.385  0.2170 -0.1628 -0.0051
  216SOL    HW1  647   3.785   0.537   0.327  1.2204  0.9831  0.2356
  216SOL    HW2  648   3.873   0.413   0.327  0.4907  0.4529 -0.5389
  217SOL     OW  649   0.083   1.327   3.622 -0.4172  0.3339 -0.5722
  217SOL    HW1  650   0.102   1.403   3.567  4.3018  0.6087  0.9853
  217SOL    HW2  651   0.163   1.274   3.619 -1.3686 -1.6242  2.9100
  218SOL     OW  652   3.019   1.047   0.273  0.0349 -0.5914 -0.1125
  218SOL    HW1  653   3.046   1.010   0.189  2.1333 -3.2473  1.5669
  218SOL    HW2  654   3.101   1.061   0.320 -1.1627 -3.0212  2.9443
  219SOL     OW  655   1.294   3.004   2.015  0.5561  0.2655 -1.4032
  219SOL    HW1  656   1.349   3.048   1.950  1.3092  1.1352 -0.2306
  219SOL    HW2  657   1.293   3.064   2.090 -1.0097 -0.3038 -0.9368
  220SOL     OW  658   1.311   0.567   1.534  0.4038  0.6398  0.6565
  220SOL    HW1  659   1.250   0.635   1.504 -3.3811 -2.6118  0.1499
  220SOL    HW2  660   1.349   0.531   1.454  1.0318  0.9677  0.8011
  221SOL     OW  661   3.284   3.670   2.638 -0.3623  0.4754  0.0021
  221SOL    HW1  662   3.375   3.643   2.628 -0.7317 -0.9020  0.0253
  221SOL    HW2  663   3.277   3.751   2.588  0.6251  0.0289 -0.9086
  222SOL     OW  664   0.194   0.733   0.371  0.2237 -0.1012  0.7110
  222SOL    HW1  665   0.277   0.688   0.355  0.7594  1.1723 -0.2362
  222SOL    HW2  666   0.217   0.806   0.430  0.5874  2.4874 -2.3589
  223SOL     OW  667   3.115   0.586   0.067  0.0291 -0.1140 -0.5265
  223SOL    HW1  668   3.200   0.545   0.083  0.7511  1.4170 -0.2019
  223SOL    HW2  669   3.051   0.518   0.087  1.1467 -0.8803  0.6121
  224SOL     OW  670   2.968   2.033   3.950  0.8302  0.6911  0.0933
  224SOL    HW1  671   2.907   1.976   3.903 -2.1781  2.8032  1.1270
  224SOL    HW2  672   3.015   2.080   3.881 -0.2574  0.5357 -0.7795
  225SOL     OW  673   2.958  -0.019   2.693 -0.0380 -0.3966  0.2289
  225SOL    HW1  674   2.999   0.068   2.697  0.4675 -0.6168 -0.0481
  225SOL    HW2  675   2.895  -0.019   2.765 -0.2806  0.3199  0.0272
  226SOL     OW  676   0.188   0.165   2.847  0.4154 -0.1846  0.0820
  226SOL    HW1  677   0.117   0.212   2.889 -0.0643  0.4924 -1.4155
  226SOL    HW2  678   0.224   0.227   2.783  1.5052 -0.9516 -0.0888
  227SOL     OW  679   0.033   0.205   2.526  0.5621 -0.0708  0.3392
  227SOL    HW1  680  -0.011   0.192   2.610 -0.6258 -1.3150 -0.4365
  227SOL    HW2  681   0.005   0.131   2.473  1.2542  0.7185 -1.1718
  228SOL     OW  682   3.789   2.580   0.104 -0.1055 -0.3705 -0.1247
  228SOL    HW1  683   3.842   2.505   0.131 -0.4803 -0.4539  0.4002
  228SOL    HW2  684   3.711   2.541   0.065  0.4667 -0.2545 -1.4538
  229SOL     OW  685   1.725   2.595   3.627  0.0678 -0.4048 -0.2335
  229SOL    HW1  686   1.808   2.556   3.656 -0.1630 -0.9567 -0.3044
  229SOL    HW2  687   1.696   2.538   3.556  0.3808  0.6425 -1.2322
  230SOL     OW  688   3.189   2.321   3.080 -0.1775  0.0519  0.3811
  230SOL    HW1  689   3.277   2.288   3.097 -0.6165 -1.9703 -0.8601
  230SOL    HW2  690   3.201   2.387   3.012  0.4081  0.0387  0.4615
  231SOL     OW  691   0.267   2.220   2.773 -0.1091 -0.4105  0.2779
  231SOL    HW1  692   0.319   2.150   2.812  0.5131 -0.0681  0.0723
  231SOL    HW2  693   0.193   2.232   2.833 -0.1656 -1.1669  0.3680
  232SOL     OW  694   2.866   2.803   0.426  0.2229  0.6132 -0.1066
  232SOL    HW1  695   2.823   2.725   0.460 -0.5417  0.7548 -0.7240
  232SOL    HW2  696   2.803   2.873   0.438  0.2537  0.8191 -1.0469
  233SOL     OW  697   0.919   1.240   2.199 -0.2612 -0.3065  0.3219
  233SOL    HW1  698   0.947   1.293   2.124 -0.4562  1.2488  1.2956
  233SOL    HW2  699   0.859   1.175   2.162 -0.0288  0.1553 -0.9218
  234SOL     OW  700   3.508   3.542   0.139  0.8790  0.2926  0.8787
  234SOL    HW1  701   3.417   3.546   0.169  0.4028 -2.4156  0.0983
  234SOL    HW2  702   3.502   3.548   0.044  1.6545  1.3137  0.8875
  235SOL     OW  703   0.600   1.144   3.780  0.0165 -0.1918 -0.3725
  235SOL    HW1  704   0.652   1.210   3.826 -3.8512  1.8999  1.4281
  235SOL    HW2  705   0.570   1.084   3.848  0.9127 -2.0787 -1.5511
  236SOL     OW  706   3.860   2.141   0.778  0.2554  0.6035 -0.9289
  236SOL    HW1  707   3.918   2.216   0.762 -0.6751  1.6614  0.3940
  236SOL    HW2  708   3.911   2.065   0.751  0.9822  1.7301 -3.0281
  237SOL     OW  709   2.430   3.261   0.754  0.2570 -0.2523  0.0974
  237SOL    HW1  710   2.374   3.291   0.682  0.3711 -0.2601  0.0058
  237SOL    HW2  711   2.510   3.314   0.746  1.1156 -1.6467 -1.0066
  238SOL     OW  712   3.299   3.578   3.012 -0.5527  0.7334 -0.4073
  238SOL    HW1  713   3.262   3.576   2.924  0.3330 -0.4478 -0.7841
  238SOL    HW2  714   3.366   3.510   3.011  0.6286  1.8121  0.6710
  239SOL     OW  715   3.180   0.459   0.388 -0.7879 -0.1456 -0.3073
  239SOL    HW1  716   3.141   0.402   0.321  0.7392 -2.9578  1.0160
  239SOL    HW2  717   3.228   0.525   0.338  0.2645 -2.0910 -2.0612
  240SOL     OW  718   0.692   2.263   1.871  0.3752  0.3727 -0.2403
  240SOL    HW1  719   0.675   2.335   1.811 -0.3723  0.4308  0.0354
  240SOL    HW2  720   0.709   2.188   1.814 -0.3844  0.4136 -0.5330
  241SOL     OW  721   1.786   3.691   1.099 -0.4456  0.4919 -0.3046
  241SOL    HW1  722   1.830   3.607   1.086 -0.4328  0.5112 -0.3938
  241SOL    HW2  723   1.727   3.677   1.172 -0.0914  0.5420 -0.0047
  242SOL     OW  724   1.181   2.399   1.307  0.6509  0.9961 -0.1860
  242SOL    HW1  725   1.102   2.389   1.359 -0.4613  0.4688 -1.8845
  242SOL    HW2  726   1.152   2.444   1.228  1.9476  0.3452 -1.0769
  243SOL     OW  727   0.695   2.331   0.002 -0.1985  0.2722  0.4178
  243SOL    HW1  728   0.625   2.324   0.067 -1.0026  1.7950 -0.2408
  243SOL    HW2  729   0.699   2.244  -0.038 -1.1470 -0.0702  1.0279
  244SOL     OW  730   0.614   3.129   1.482 -0.7455  0.1688 -0.1163
  244SOL    HW1  731   0.651   3.213   1.509 -0.7750 -0.0575  0.6303
  244SOL    HW2  732   0.599   3.139   1.388  1.9230  0.0209 -0.6487
  245SOL     OW  733   1.581   0.612   1.397 -0.3202 -0.8996 -0.4944
  245SOL    HW1  734   1.626   0.562   1.465  0.4474 -0.3960 -0.6233
  245SOL    HW2  735   1.604   0.703   1.415  1.0407 -0.8411 -2.2252
  246SOL     OW  736   3.755   3.276   0.432 -0.0182 -0.3940  0.2199
  246SOL    HW1  737   3.694   3.314   0.368  0.9728 -1.1469 -1.2147
  246SOL    HW2  738   3.720   3.189   0.450  0.4424 -0.7114 -0.3760
  247SOL     OW  739   1.029   1.340   0.759  0.7814 -0.5079  0.1272
  247SOL    HW1  740   1.001   1.408   0.821 -1.7083 -1.8787  0.6594
  247SOL    HW2  741   1.124   1.336   0.768  0.7984  1.5296  1.4936
  248SOL     OW  742   0.834   2.813   2.917 -0.0619  0.6399  0.7544
  248SOL    HW1  743   0.830   2.903   2.883 -0.2077  0.4408  0.2417
  248SOL    HW2  744   0.908   2.773   2.872 -1.5381 -0.2896 -1.0011
  249SOL     OW  745   2.106   1.809   2.943 -0.0871  0.4175 -0.3996
  249SOL    HW1  746   2.180   1.763   2.983 -0.5832  0.5424  0.6997
  249SOL    HW2  747   2.106   1.779   2.852 -0.2487 -1.6154  0.2055
  250SOL     OW  748   2.439   2.106   2.015 -0.2447 -0.1262 -0.1077
  250SOL    HW1  749   2.484   2.159   2.080  0.0585  0.0173 -0.4375
  250SOL    HW2  750   2.426   2.164   1.940 -0.7627 -0.2356 -0.1093
  251SOL     OW  751   1.308   1.658   3.257 -0.1174  0.4083 -0.4019
  251SOL    HW1  752   1.300   1.627   3.167 -1.8958 -1.3004  0.2749
  251SOL    HW2  753   1.353   1.587   3.303 -1.8483 -0.0934  0.6200
  252SOL     OW  754   0.692   1.905   2.692 -0.3846  0.1695  0.3592
  252SOL    HW1  755   0.646   1.821   2.691 -2.6346  1.3071  1.3985
  252SOL    HW2  756   0.634   1.964   2.740  0.7185  2.5551 -1.0454
  253SOL     OW  757   1.532   0.307   2.776 -0.2487 -0.4038 -0.1177
  253SOL    HW1  758   1.538   0.318   2.871  0.0131 -1.8477  0.0459
  253SOL    HW2  759   1.438   0.319   2.756 -0.1984  0.6621  0.1903
  254SOL     OW  760   0.305   3.046   0.593 -0.2122 -0.3881  1.2097
  254SOL    HW1  761   0.262   3.111   0.537  0.3729 -0.5643  0.5366
  254SOL    HW2  762   0.255   2.966   0.581  0.1868 -0.5476  0.5629
  255SOL     OW  763   2.039   0.842   3.555  0.1022 -0.3292  0.0887
  255SOL    HW1  764   2.043   0.759   3.507 -0.1692  0.4064 -1.2441
  255SOL    HW2  765   1.975   0.894   3.507  2.2996  1.7110 -0.8237
  256SOL     OW  766   3.647   1.195   0.285  0.9612  0.6026  0.7346
  256SOL    HW1  767   3.703   1.242   0.222  1.1134  1.4786  1.5096
  256SOL    HW2  768   3.594   1.137   0.230 -0.4954  2.9313 -0.4761
  257SOL     OW  769   2.645   3.439   0.708 -0.3532 -0.5307  0.2164
  257SOL    HW1  770   2.718   3.492   0.677 -0.6086 -0.1592  0.2403
  257SOL    HW2  771   2.567   3.491   0.688 -0.4791  0.2266  2.4217
  258SOL     OW  772   1.350   3.097   2.578  0.0334  0.8838 -0.0103
  258SOL    HW1  773   1.412   3.146   2.523 -0.9212  0.9831 -1.0422
  258SOL    HW2  774   1.264   3.129   2.551 -0.6546 -1.5643 -0.9658
  259SOL     OW  775   2.107   2.021   1.736 -0.3327  0.6537 -0.6142
  259SOL    HW1  776   2.015   2.009   1.758 -0.5774  0.1984 -1.8433
  259SOL    HW2  777   2.131   1.943   1.686  1.1475  0.0181  0.9553
  260SOL     OW  778   0.076   3.603   0.718  0.0744  0.1478  0.3017
  260SOL    HW1  779   0.163   3.563   0.715 -0.1364 -0.5683  2.2252
  260SOL    HW2  780   0.026   3.546   0.777 -1.6784  0.6077 -0.6778
  261SOL     OW  781   3.024   1.884   1.214  0.3928  0.3045 -0.5856
  261SOL    HW1  782   3.050   1.895   1.123  0.4084 -1.9273 -0.8951
  261SOL    HW2  783   2.942   1.933   1.221  0.8790  1.3121 -1.5099
  262SOL     OW  784   0.185   2.941   0.298  0.1536 -0.0550  0.3741
  262SOL    HW1  785   0.101   2.952   0.254  0.5130 -0.1127 -0.3358
  262SOL    HW2  786   0.249   2.981   0.239  0.4984  1.0116  1.4262
  263SOL     OW  787   2.157   3.178   0.644  0.1183 -0.0959 -0.0509
  263SOL    HW1  788   2.149   3.142   0.556 -1.8506 -1.0442  0.4674
  263SOL    HW2  789   2.196   3.108   0.695  2.6790  0.9561 -0.3865
  264SOL     OW  790   0.995   1.777   3.361  0.2611 -0.8406  0.6867
  264SOL    HW1  791   1.071   1.718   3.355  1.7854  1.0695  0.0032
  264SOL    HW2  792   1.028   1.861   3.330 -1.6030  0.6113  2.3822
  265SOL     OW  793   0.890   1.216   1.875  0.0709  0.1826 -0.1719
  265SOL    HW1  794   0.798   1.188   1.875  0.4134 -1.0308  0.6678
  265SOL    HW2  795   0.896   1.276   1.801 -1.3975  0.2963 -0.2425
  266SOL     OW  796   0.463   3.014   3.698  0.0608 -0.3027  0.1659
  266SOL    HW1  797   0.447   3.084   3.634 -1.8898 -0.7457  0.0800
  266SOL    HW2  798   0.405   3.034   3.771  1.0765 -0.6794  1.1070
  267SOL     OW  799   1.244   2.208   3.862  0.6353  0.0584  0.1902
  267SOL    HW1  800   1.302   2.132   3.858  1.1510  0.3299  1.8257
  267SOL    HW2  801   1.236   2.228   3.955  0.2654  1.8113 -0.1694
  268SOL     OW  802   2.754   2.905   0.148 -0.2060 -0.2327  0.1088
  268SOL    HW1  803   2.826   2.843   0.157  1.3564  1.3932 -0.5327
  268SOL    HW2  804   2.770   2.971   0.215 -0.6601  0.5495 -0.5311
  269SOL     OW  805   1.265   0.904   1.952 -0.0242 -0.5222 -0.7110
  269SOL    HW1  806   1.242   0.996   1.941  2.0931 -0.0165 -1.3271
  269SOL    HW2  807   1.181   0.860   1.966 -1.4696  1.0446 -3.5398
  270SOL     OW  808   0.460   2.533   3.859 -0.6056 -0.3190 -0.4640
  270SOL    HW1  809   0.432   2.585   3.934  0.0723 -0.7213  0.0766
  270SOL    HW2  810   0.388   2.473   3.843  0.1882 -1.8592  1.3930
  271SOL     OW  811   3.862   0.787   2.025  0.3352  0.8566 -0.6384
  271SOL    HW1  812   3.908   0.801   1.942 -1.2032  2.0355 -1.3429
  271SOL    HW2  813   3.805   0.712   2.008  0.1800  0.9615 -0.5847
  272SOL     OW  814   1.556   3.954   1.200 -0.3389 -0.2907 -0.2637
  272SOL    HW1  815   1.536   4.047   1.196  1.3601  0.0850 -0.5733
  272SOL    HW2  816   1.619   3.939   1.130  2.3580 -0.8433  2.0930
  273SOL     OW  817   0.583   3.868   3.036  0.6336  0.3821 -0.5302
  273SOL    HW1  818   0.557   3.895   3.124  1.6843  2.0459 -0.6743
  273SOL    HW2  819   0.505   3.879   2.983  0.3584  0.7354 -0.0621
  274SOL     OW  820   1.022   0.919   2.389  0.1000 -0.2015  0.0035
  274SOL    HW1  821   1.106   0.964   2.377  0.0258 -0.3752 -1.3292
  274SOL    HW2  822   0.963   0.962   2.327 -0.3341 -1.2175 -0.3028
  275SOL     OW  823   2.846   1.367   2.487 -0.2357  0.4113 -0.4414
  275SOL    HW1  824   2.785   1.412   2.429 -1.9213 -2.0948 -0.8001
  275SOL    HW2  825   2.866   1.285   2.441  0.7558 -0.3049  1.1744
  276SOL     OW  826   2.713   2.971   3.537 -0.1317  0.1683  0.4942
  276SOL    HW1  827   2.728   3.050   3.590 -1.7273  0.8536 -0.0327
  276SOL    HW2  828   2.635   2.931   3.574  1.0842 -1.6356  1.2411
  277SOL     OW  829   2.251   2.580   2.061  0.0330 -0.6579  0.1683
  277SOL    HW1  830   2.321   2.567   1.996  1.7270 -0.1946  1.8072
  277SOL    HW2  831   2.244   2.675   2.069 -0.5408 -0.7068  0.2865
  278SOL     OW  832   3.896   3.489   0.074 -0.1986  0.0761 -0.0617
  278SOL    HW1  833   3.841   3.549   0.123 -2.9500 -1.2345 -1.3263
  278SOL    HW2  834   3.937   3.544   0.007  0.9471  1.2543  1.5204
  279SOL     OW  835   2.187   2.131   1.492 -0.1100 -0.5715 -0.2919
  279SOL    HW1  836   2.107   2.087   1.465 -0.0139 -1.2792  0.5165
  279SOL    HW2  837   2.205   2.096   1.580 -0.3423  1.4887  0.6345
  280SOL     OW  838   1.307   3.960   2.141 -0.5526 -0.0408 -0.6442
  280SOL    HW1  839   1.299   3.966   2.236 -1.6725  2.7835 -0.8019
  280SOL    HW2  840   1.401   3.962   2.124 -0.3617  0.2344  0.3830
  281SOL     OW  841   1.039   3.137   3.477 -0.3493 -0.1290  0.4989
  281SOL    HW1  842   1.058   3.197   3.549 -1.4181  1.3130 -0.3862
  281SOL    HW2  843   1.110   3.152   3.414 -1.2302  1.0692 -0.2333
  282SOL     OW  844   0.773   3.969   1.810 -0.4316 -0.2992  0.6512
  282SOL    HW1  845   0.740   3.951   1.898 -0.2117  0.9883  1.0067
  282SOL    HW2  846   0.752   4.060   1.794  1.9288  0.2891  0.4594
  283SOL     OW  847   2.420   1.065   2.340 -0.3832 -0.6737  0.1963
  283SOL    HW1  848   2.505   1.036   2.373 -0.7827 -0.9947  0.9732
  283SOL    HW2  849   2.432   1.159   2.326  0.3214 -0.8443 -0.4401
  284SOL     OW  850   0.157   2.712   1.911 -0.0752  0.5586 -0.2061
  284SOL    HW1  851   0.247   2.741   1.927 -0.1480  0.8770 -0.3711
  284SOL    HW2  852   0.152   2.698   1.816 -0.4205  1.2977 -0.3027
  285SOL     OW  853   3.554   1.510   2.604  0.0151  0.5110  0.9247
  285SOL    HW1  854   3.601   1.583   2.563 -0.1359 -0.3888 -0.9391
  285SOL    HW2  855   3.474   1.550   2.639  0.0734  1.2945  0.2047
  286SOL     OW  856   0.602   2.084   1.282 -0.8982 -0.0044  0.0220
  286SOL    HW1  857   0.535   2.060   1.346 -0.6315  1.2381  0.8183
  286SOL    HW2  858   0.555   2.137   1.217 -0.4213  2.7038  1.7063
  287SOL     OW  859   2.894   0.567   2.461 -0.2343  0.4255 -0.9483
  287SOL    HW1  860   2.946   0.639   2.425 -0.2138  2.1283  2.1237
  287SOL    HW2  861   2.929   0.489   2.417  2.7655  1.8137 -1.3371
  288SOL     OW  862   0.709   1.191   3.172  0.9669 -0.4799  0.4999
  288SOL    HW1  863   0.628   1.149   3.141 -0.2220  1.0908  1.3017
  288SOL    HW2  864   0.763   1.200   3.094 -0.8464  0.9861 -0.6922
  289SOL     OW  865   2.155   2.801   2.469  0.3175  0.1815  0.3478
  289SOL    HW1  866   2.244   2.821   2.497 -0.1540  1.1425  1.2442
  289SOL    HW2  867   2.156   2.708   2.449  1.2509 -0.0544  1.4158
  290SOL     OW  868   1.958   3.710   2.770  0.0438 -0.0200 -0.8672
  290SOL    HW1  869   1.946   3.673   2.682 -1.5792 -1.4263 -0.1041
  290SOL    HW2  870   2.002   3.640   2.819  1.4721  0.9664 -0.6625
  291SOL     OW  871   2.048   2.954   2.643  0.4712 -0.7404 -0.2287
  291SOL    HW1  872   2.092   2.913   2.568  2.5616  0.0533  0.4796
  291SOL    HW2  873   2.055   2.888   2.713 -2.3651 -1.8941 -0.9043
  292SOL     OW  874   0.453   1.337   3.004  0.8403 -0.0508  1.0954
  292SOL    HW1  875   0.531   1.289   3.029 -0.1456 -1.2424  2.0026
  292SOL    HW2  876   0.409   1.280   2.940  0.8095  0.7028  0.4271
  293SOL     OW  877   3.794   2.682   0.783  0.3689 -0.4532  0.5902
  293SOL    HW1  878   3.770   2.740   0.711  1.7146 -1.0806 -0.4078
  293SOL    HW2  879   3.712   2.667   0.831  0.0893  2.9148  1.4167
  294SOL     OW  880   1.682   0.807   3.311 -0.3362 -0.7123 -1.1041
  294SOL    HW1  881   1.684   0.712   3.315 -0.9711 -0.6883  0.7231
  294SOL    HW2  882   1.670   0.835   3.402 -3.0793  1.0105 -1.8500
  295SOL     OW  883   3.092   3.355   2.407  0.3564  0.1287  1.4859
  295SOL    HW1  884   3.155   3.284   2.396  0.9189  0.6715  1.1232
  295SOL    HW2  885   3.007   3.311   2.417  0.3298 -0.5466 -1.1220
  296SOL     OW  886   1.736   3.424   3.953  0.1139  0.5615 -0.1300
  296SOL    HW1  887   1.657   3.470   3.925  0.7332  1.4833 -0.4081
  296SOL    HW2  888   1.757   3.366   3.880 -0.1361  0.5304 -0.1783
  297SOL     OW  889   0.712   0.261   0.998  0.5093  0.5047  0.1259
  297SOL    HW1  890   0.694   0.194   1.064  1.0594  0.1063 -0.1212
  297SOL    HW2  891   0.684   0.222   0.915  1.8309  0.1444 -0.1665
  298SOL     OW  892   1.397   2.102   1.662  0.4119  0.0679 -0.3793
  298SOL    HW1  893   1.312   2.146   1.657  0.5530  0.4670  0.4711
  298SOL    HW2  894   1.461   2.173   1.669  0.7377 -0.2401 -0.1585
  299SOL     OW  895   2.765   0.096   3.253  0.3540  0.1660 -0.4771
  299SOL    HW1  896   2.826   0.039   3.205  0.4692  0.2017 -0.3727
  299SOL    HW2  897   2.713   0.036   3.307  0.5172  0.1658 -0.3204
  300SOL     OW  898   3.677   2.677   2.916  0.0860  0.3973 -0.1192
  300SOL    HW1  899   3.729   2.630   2.851 -0.9826 -2.5345  0.9726
  300SOL    HW2  900   3.734   2.681   2.993 -0.5989 -1.2911  0.5258
  301SOL     OW  901   3.571   0.392   1.793 -1.0174 -0.8333  0.4824
  301SOL    HW1  902   3.532   0.436   1.868  0.7111  0.4634  0.6766
  301SOL    HW2  903   3.520   0.422   1.718 -1.4879 -0.5305  0.9201
  302SOL     OW  904   1.554   3.966   3.047  0.0139  0.2183  0.6199
  302SOL    HW1  905   1.472   3.939   3.005  0.9777 -0.2287 -1.0186
  302SOL    HW2  906   1.598   3.884   3.068  1.7787  0.3869 -2.0438
  303SOL     OW  907   0.097   2.394   3.181 -0.1564 -0.3589 -0.7698
  303SOL    HW1  908   0.005   2.377   3.202  0.4133 -2.4558  0.2096
  303SOL    HW2  909   0.098   2.406   3.086 -1.2421 -1.8798 -1.0068
  304SOL     OW  910   0.365   0.126   1.065 -0.4017  0.3981  0.1486
  304SOL    HW1  911   0.305   0.074   1.011  2.4825 -1.4906 -1.4660
  304SOL    HW2  912   0.352   0.094   1.154 -2.9659  1.3197  0.2032
  305SOL     OW  913   0.656   2.697   3.068 -0.1664 -0.3267  0.1081
  305SOL    HW1  914   0.691   2.611   3.044  1.3235 -0.4063  2.2943
  305SOL    HW2  915   0.712   2.759   3.021  1.2919 -0.5234  1.4938
  306SOL     OW  916   1.477   0.877   2.143  0.0925  0.3169 -0.5845
  306SOL    HW1  917   1.456   0.889   2.236  0.8021 -2.4152  0.0071
  306SOL    HW2  918   1.395   0.896   2.098 -0.5960  0.5178  0.6966
  307SOL     OW  919   1.138   3.504   3.861 -0.4329  0.2685 -0.5969
  307SOL    HW1  920   1.212   3.447   3.842  0.0262  0.9908 -1.0023
  307SOL    HW2  921   1.136   3.567   3.789 -0.0733  1.6390  0.5408
  308SOL     OW  922   2.084   0.461   3.579  0.6040 -0.1166 -0.4450
  308SOL    HW1  923   2.114   0.371   3.596 -1.4070 -1.3482 -2.8296
  308SOL    HW2  924   2.165   0.510   3.564  1.7057 -1.9326 -0.7781
  309SOL     OW  925   1.794   3.791   2.287 -0.2682 -0.3500  0.2891
  309SOL    HW1  926   1.832   3.879   2.291  1.6708 -1.1905  1.8571
  309SOL    HW2  927   1.821   3.758   2.202 -0.6636  0.3991 -0.1438
  310SOL     OW  928   3.119   3.664   0.842  0.1382 -0.3743 -0.2276
  310SOL    HW1  929   3.052   3.605   0.875  0.2131  0.3845  1.4409
  310SOL    HW2  930   3.080   3.751   0.851  1.0796  0.0248  0.1448
  311SOL     OW  931   3.395   2.952   2.159 -0.2149 -0.6318  0.8383
  311SOL    HW1  932   3.488   2.931   2.170  0.2958  1.3106  0.6773
  311SOL    HW2  933   3.376   2.931   2.068 -0.0674 -1.4828  0.9987
  312SOL     OW  934   0.614   1.066   2.939  0.0745  0.8499 -0.0752
  312SOL    HW1  935   0.675   1.048   2.867  1.4521  1.2214  0.9494
  312SOL    HW2  936   0.528   1.041   2.905  0.6156  1.4387 -1.9895
  313SOL     OW  937   3.716   0.934   3.017  0.4338  0.3428 -1.0018
  313SOL    HW1  938   3.791   0.917   3.074  1.7005  0.1521 -2.6343
  313SOL    HW2  939   3.643   0.949   3.076  1.0770 -2.4524  0.6614
  314SOL     OW  940   2.586   2.296   0.950 -0.3651  0.0278  0.1043
  314SOL    HW1  941   2.567   2.360   1.019 -0.7161  0.8755 -0.7527
  314SOL    HW2  942   2.554   2.213   0.985  0.1558  0.2970  1.2655
  315SOL     OW  943   3.419   3.881   3.466  0.0303  0.1946  0.8104
  315SOL    HW1  944   3.349   3.865   3.403  0.8487  0.8864 -0.3135
  315SOL    HW2  945   3.499   3.856   3.420  0.4458 -2.3076  2.6737
  316SOL     OW  946   2.707   3.732   1.027  0.0860  0.0386  0.3360
  316SOL    HW1  947   2.717   3.770   0.939 -3.9678 -0.3751 -0.5228
  316SOL    HW2  948   2.780   3.671   1.035  0.4879 -0.1107 -2.8934
  317SOL     OW  949   0.464   0.159   3.441  0.4752 -0.1580 -0.5506
  317SOL    HW1  950   0.426   0.147   3.355  2.0654  0.9390 -1.4637
  317SOL    HW2  951   0.559   0.158   3.426  0.7874  1.0410  1.0072
  318SOL     OW  952   3.062   1.957   2.926 -0.1624 -0.0172 -0.1635
  318SOL    HW1  953   3.107   2.041   2.927 -0.0740 -0.0132 -2.0785
  318SOL    HW2  954   2.989   1.969   2.865 -0.9771 -0.9379  0.5884
  319SOL     OW  955   2.902   1.486   2.899 -0.4987 -0.3612 -0.2554
  319SOL    HW1  956   2.972   1.422   2.883 -1.8219 -2.4553  1.6893
  319SOL    HW2  957   2.829   1.454   2.846 -0.3406  1.3239 -1.5972
  320SOL     OW  958   0.442   0.097   2.856  0.4766 -0.1810 -0.1096
  320SOL    HW1  959   0.506   0.124   2.790  1.1723  0.5617  0.8449
  320SOL    HW2  960   0.360   0.136   2.827  0.2060 -1.8813 -1.8355
  321SOL     OW  961   3.432   2.461   0.832  0.0818  0.0561  0.5683
  321SOL    HW1  962   3.486   2.496   0.761  0.7296 -0.4086  0.8217
  321SOL    HW2  963   3.361   2.414   0.788 -1.3437  2.3853  0.1881
  322SOL     OW  964   0.573   0.773   3.061 -0.1687  0.4565  0.5832
  322SOL    HW1  965   0.581   0.869   3.060  0.2594  0.4478 -1.7318
  322SOL    HW2  966   0.514   0.755   3.134 -0.4912  2.4953  0.8929
  323SOL     OW  967   3.751   1.988   0.260  0.1932 -0.0588  0.0660
  323SOL    HW1  968   3.781   1.923   0.197 -1.0610  0.6619 -1.3506
  323SOL    HW2  969   3.754   1.943   0.344  1.6121 -1.1557 -0.5283
  324SOL     OW  970   3.822   1.591   1.055  0.2712 -0.2460  0.6523
  324SOL    HW1  971   3.833   1.518   0.994 -1.8301  0.5390 -0.7732
  324SOL    HW2  972   3.812   1.550   1.141 -1.8293 -1.7542 -0.2476
  325SOL     OW  973   0.042   1.925   2.801  0.4399  0.5565  0.4147
  325SOL    HW1  974   0.010   1.835   2.801  3.0776 -0.5594 -1.9990
  325SOL    HW2  975  -0.008   1.968   2.732  0.9361  0.1533 -0.2075
  326SOL     OW  976   3.593   1.711   2.430 -0.4915  0.6842 -0.0298
  326SOL    HW1  977   3.671   1.688   2.380  0.5520  0.0234  1.7766
  326SOL    HW2  978   3.566   1.796   2.395  0.9053  0.8191 -0.8773
  327SOL     OW  979   2.874   3.158   0.325 -0.5298  0.2827  0.1880
  327SOL    HW1  980   2.823   3.108   0.388 -1.1470  2.0280  1.1604
  327SOL    HW2  981   2.946   3.194   0.377  0.9081 -0.9818 -0.8635
  328SOL     OW  982   1.966   2.481   0.655  0.5470  0.4021 -0.4057
  328SOL    HW1  983   1.941   2.402   0.704 -0.9028  0.3513 -1.1756
  328SOL    HW2  984   2.052   2.460   0.619  1.7109  0.4929  2.1554
  329SOL     OW  985   2.672   3.102   1.077 -0.3317  0.2806  0.1412
  329SOL    HW1  986   2.673   3.196   1.097  0.0631  0.7866 -1.9086
  329SOL    HW2  987   2.579   3.081   1.067 -0.5880 -0.1650  2.9423
  330SOL     OW  988   1.895   1.012   2.994 -0.2763 -0.0494  0.4650
  330SOL    HW1  989   1.949   0.933   2.996 -2.3740 -1.5530  0.5125
  330SOL    HW2  990   1.953   1.080   2.959  1.2921 -1.8448 -0.5808
  331SOL     OW  991   0.758   1.853   2.272  0.3192 -0.2763 -0.2928
  331SOL    HW1  992   0.724   1.918   2.211 -1.9252 -0.6909  0.4098
  331SOL    HW2  993   0.779   1.903   2.351  0.1006 -0.1754 -0.2966
  332SOL     OW  994   3.289   1.111   1.006 -0.0848  0.3607  0.7686
  332SOL    HW1  995   3.360   1.094   0.943 -2.2497  0.1777 -1.7888
  332SOL    HW2  996   3.287   1.206   1.014  1.1643  0.3264  1.8095
  333SOL     OW  997   1.139   3.826   0.673  0.6504 -0.1269 -0.3501
  333SOL    HW1  998   1.132   3.739   0.633 -2.8012 -0.5344  0.8105
  333SOL    HW2  999   1.215   3.819   0.731  1.4004 -1.8376 -1.4402
  334SOL     OW 1000   3.655   0.827   3.630  0.3941 -0.0759 -0.6498
  334SOL    HW1 1001   3.571   0.867   3.604  0.9064  0.4094 -1.5839
  334SOL    HW2 1002   3.636   0.733   3.634 -0.9038  0.1866  1.8239
  335SOL     OW 1003   2.177   1.736   1.290  0.2338 -0.7840 -0.4652
  335SOL    HW1 1004   2.259   1.783   1.306  0.9058 -2.3897  1.0673
  335SOL    HW2 1005   2.164   1.682   1.368 -1.1583 -2.1970 -1.6046
  336SOL     OW 1006   2.528   1.806   0.789 -0.5340 -0.4764  0.1154
  336SOL    HW1 1007   2.517   1.726   0.737 -1.3226 -1.3000  1.4839
  336SOL    HW2 1008   2.571   1.776   0.870 -0.6507  0.5161  0.5589
  337SOL     OW 1009   0.670   0.170   2.328 -0.5713  0.7155 -0.7839
  337SOL    HW1 1010   0.605   0.226   2.369 -1.9242 -2.2595  1.4567
  337SOL    HW2 1011   0.621   0.120   2.263 -0.4814 -1.0885  0.4731
  338SOL     OW 1012   2.990   0.085   2.345 -0.5284 -0.0204  0.4866
  338SOL    HW1 1013   2.905   0.115   2.377 -2.6262 -1.2544 -3.3248
  338SOL    HW2 1014   2.977  -0.007   2.324  1.5754 -0.0959 -0.7743
  339SOL     OW 1015   2.351   3.368   0.494  0.5435  0.1279  0.3237
  339SOL    HW1 1016   2.297   3.436   0.454  0.2266 -1.1482 -1.5441
  339SOL    HW2 1017   2.441   3.393   0.472  0.5848  0.9645  1.3603
  340SOL     OW 1018   1.326   1.384   0.119 -0.2338  0.9392 -0.0050
  340SOL    HW1 1019   1.374   1.315   0.073  1.1504  0.1709  2.4402
  340SOL    HW2 1020   1.264   1.417   0.054  1.4433 -0.2069 -2.3228
  341SOL     OW 1021   2.888   2.281   0.802 -0.4465  0.3571  0.0801
  341SOL    HW1 1022   2.876   2.312   0.892  1.2342  1.2745  0.0393
  341SOL    HW2 1023   2.833   2.338   0.749 -2.0937 -0.7169  0.5703
  342SOL     OW 1024   3.522   1.005   0.171  0.0539 -0.1036  0.0184
  342SOL    HW1 1025   3.499   0.940   0.105  1.3900  0.0709 -0.6437
  342SOL    HW2 1026   3.559   0.954   0.243 -3.2781 -0.5223  1.6318
  343SOL     OW 1027   0.431   0.031   0.710 -0.1442  0.2246  0.1231
  343SOL    HW1 1028   0.417   0.019   0.616  0.8606 -1.2373  0.1286
  343SOL    HW2 1029   0.356  -0.012   0.751 -0.2097  0.2290  0.0083
  344SOL     OW 1030   3.543   3.191   2.965  0.4868 -0.9640  0.3558
  344SOL    HW1 1031   3.620   3.207   2.911  0.3574 -1.0415  0.1456
  344SOL    HW2 1032   3.484   3.141   2.908 -0.3583  0.4035 -0.0333
  345SOL     OW 1033   3.182   1.364   2.334 -0.2686  0.2797  0.2281
  345SOL    HW1 1034   3.228   1.281   2.347 -2.5476 -1.4267 -1.6763
  345SOL    HW2 1035   3.217   1.399   2.252 -0.7942  0.0511 -0.1056
  346SOL     OW 1036   2.291   2.278   0.899 -0.2847 -0.0400 -0.1586
  346SOL    HW1 1037   2.260   2.229   0.823 -0.5213 -0.8068  0.4216
  346SOL    HW2 1038   2.357   2.221   0.940 -3.0201 -1.5566  2.5432
  347SOL     OW 1039   2.107   3.621   3.194  0.0027  0.0971 -0.6487
  347SOL    HW1 1040   2.117   3.540   3.144 -0.7166  0.3632 -1.2295
  347SOL    HW2 1041   2.077   3.685   3.131  2.1025  1.2703 -0.5561
  348SOL     OW 1042   2.221   0.058   2.689  0.2903  0.0955 -0.2746
  348SOL    HW1 1043   2.158   0.112   2.735  0.2066  0.9947 -1.4286
  348SOL    HW2 1044   2.271   0.015   2.760 -3.7142 -3.3899  0.8331
  349SOL     OW 1045   0.070   2.064   2.317 -0.1311 -0.4472 -0.1330
  349SOL    HW1 1046   0.145   2.063   2.375  0.3726 -2.2711 -0.7556
  349SOL    HW2 1047   0.041   2.156   2.317  0.7255 -0.1285  1.8082
  350SOL     OW 1048   3.861   3.554   2.878 -0.1942 -0.3559 -0.2130
  350SOL    HW1 1049   3.919   3.481   2.900  0.7720  0.4089 -0.1516
  350SOL    HW2 1050   3.841   3.595   2.963  1.9672  1.4245 -0.4626
  351SOL     OW 1051   1.314   2.015   3.061 -0.6330 -0.1084  0.1832
  351SOL    HW1 1052   1.343   1.974   2.980 -0.2576 -0.4513  0.4869
  351SOL    HW2 1053   1.293   2.105   3.036 -2.4533 -0.7312 -0.7031
  352SOL     OW 1054   1.146   0.205   3.219  0.5547  0.0391 -0.3309
  352SOL    HW1 1055   1.133   0.112   3.234 -1.1550  0.6938  3.2606
  352SOL    HW2 1056   1.058   0.242   3.218  1.2442  1.8190  0.2284
  353SOL     OW 1057   3.156   3.661   3.916 -0.1838  0.6482 -0.2892
  353SOL    HW1 1058   3.109   3.741   3.891 -2.8921 -1.3407 -2.1958
  353SOL    HW2 1059   3.209   3.640   3.839 -0.1315  0.1535 -0.1181
  354SOL     OW 1060   1.068   0.779   3.067  0.6541 -0.3064 -0.0439
  354SOL    HW1 1061   1.137   0.816   3.122 -0.5446  0.9654  0.6932
  354SOL    HW2 1062   1.034   0.705   3.117 -0.8060  1.1796  1.2896
  355SOL     OW 1063   3.289   0.574   3.101 -0.2350  0.0060  0.6158
  355SOL    HW1 1064   3.270   0.584   3.194 -1.1683 -1.6533  0.6411
  355SOL    HW2 1065   3.385   0.569   3.096 -0.2248 -1.2335  1.6539
  356SOL     OW 1066   0.090   3.141   3.449  0.0222 -0.0679 -0.5533
  356SOL    HW1 1067   0.140   3.214   3.411  1.5911 -0.0318  1.3947
  356SOL    HW2 1068   0.122   3.064   3.403  2.4914 -0.1239  1.0692
  357SOL     OW 1069   2.786   1.552   0.306 -0.2620  0.9083 -0.1412
  357SOL    HW1 1070   2.871   1.594   0.324  0.0257  0.5836 -0.6972
  357SOL    HW2 1071   2.772   1.566   0.213 -0.6483  0.6389 -0.1247
  358SOL     OW 1072   0.489   3.614   4.006  0.4501  0.9729 -0.2549
  358SOL    HW1 1073   0.500   3.519   4.010 -0.3110  0.8790 -0.1061
  358SOL    HW2 1074   0.574   3.648   3.978  1.2961  0.3882  1.4899
  359SOL     OW 1075   1.568   3.675   0.853  0.7567 -0.2871 -0.0445
  359SOL    HW1 1076   1.634   3.642   0.915  1.4396 -0.9969 -1.1281
  359SOL    HW2 1077   1.606   3.756   0.819  0.5987 -0.1535  0.0942
  360SOL     OW 1078   2.343   3.190   1.413  0.1406  0.6484  0.0758
  360SOL    HW1 1079   2.333   3.214   1.321 -0.9946  0.0910  0.0396
  360SOL    HW2 1080   2.260   3.148   1.436  1.2712 -1.3555  0.6970
  361SOL     OW 1081   3.467   2.416   3.730  0.4559 -0.1121  0.0283
  361SOL    HW1 1082   3.498   2.436   3.642  1.0342 -0.3160  0.1777
  361SOL    HW2 1083   3.466   2.320   3.734  0.8221 -0.1050  0.3711
  362SOL     OW 1084   2.210   0.253   0.325  0.4777 -0.0546 -0.1313
  362SOL    HW1 1085   2.305   0.262   0.335  0.4342 -0.0796  0.3226
  362SOL    HW2 1086   2.199   0.174   0.273  0.6906 -0.3436  0.2554
  363SOL     OW 1087   1.059   2.351   1.060 -0.7584  0.2544  0.5123
  363SOL    HW1 1088   1.012   2.428   1.094 -0.1858  1.0701 -0.4752
  363SOL    HW2 1089   1.023   2.277   1.109 -0.6605  1.2521  2.2013
  364SOL     OW 1090   1.195   2.280   2.035 -0.3653  0.8298 -0.1610
  364SOL    HW1 1091   1.128   2.277   1.967  0.4640  0.8956 -0.9881
  364SOL    HW2 1092   1.264   2.334   1.998  1.0989 -0.9745 -0.1789
  365SOL     OW 1093   2.970   2.550   1.757 -0.7717 -0.2256  0.3837
  365SOL    HW1 1094   2.972   2.638   1.796 -1.3021 -0.4716  0.9766
  365SOL    HW2 1095   2.881   2.540   1.724 -1.6001 -1.5792  2.7945
  366SOL     OW 1096   1.026   1.346   3.262  0.6867  0.2815  0.0283
  366SOL    HW1 1097   0.974   1.267   3.277 -2.1708  2.1831  0.7834
  366SOL    HW2 1098   1.101   1.315   3.209 -0.0777 -2.9437  0.6064
  367SOL     OW 1099   3.617   2.370   0.050  0.7361  0.2276 -0.6764
  367SOL    HW1 1100   3.623   2.314  -0.028 -3.7453 -2.7177  0.7286
  367SOL    HW2 1101   3.655   2.317   0.120  0.0697  0.6245 -0.0006
  368SOL     OW 1102   2.672   3.564   1.841 -0.5635 -0.2106 -0.2439
  368SOL    HW1 1103   2.700   3.481   1.878  1.2271 -1.0183 -3.1233
  368SOL    HW2 1104   2.712   3.630   1.898  1.7053 -1.3766 -0.3481
  369SOL     OW 1105   2.202   0.736   2.534 -0.4379  0.3514 -0.3610
  369SOL    HW1 1106   2.221   0.679   2.609  2.0681 -0.4520 -1.4671
  369SOL    HW2 1107   2.205   0.824   2.569  1.0239  0.0001  0.4837
  370SOL     OW 1108   1.433   0.450   3.806  0.7071  0.0813 -0.5308
  370SOL    HW1 1109   1.422   0.477   3.715  0.8566  3.4113  0.2756
  370SOL    HW2 1110   1.349   0.471   3.847  0.9266 -0.5466  0.2494
  371SOL     OW 1111   1.197   1.997   0.802 -0.4433 -0.4225 -0.7375
  371SOL    HW1 1112   1.221   1.975   0.892 -0.5864  1.2208 -0.2741
  371SOL    HW2 1113   1.268   1.961   0.749  0.0395 -0.7233  0.0939
  372SOL     OW 1114   3.899   0.207   2.758 -1.0134 -0.0840  0.1777
  372SOL    HW1 1115   3.833   0.201   2.827  0.2095  0.8846  1.4731
  372SOL    HW2 1116   3.947   0.288   2.776 -0.9874  0.4898 -2.1398
  373SOL     OW 1117   0.579   1.335   0.791 -0.1793  0.0295 -0.1466
  373SOL    HW1 1118   0.544   1.423   0.777 -1.3830 -0.6656 -2.0881
  373SOL    HW2 1119   0.504   1.284   0.821  0.1706 -0.5951 -0.3056
  374SOL     OW 1120   1.266   1.833   0.434  0.3184 -0.8557 -0.8601
  374SOL    HW1 1121   1.240   1.799   0.348 -0.9294  0.8922 -1.2318
  374SOL    HW2 1122   1.228   1.772   0.497  0.8642 -1.9098 -1.5380
  375SOL     OW 1123   2.248   3.582   0.379  0.2600 -0.5305  0.5841
  375SOL    HW1 1124   2.187   3.586   0.452  2.7382 -2.4920  2.9641
  375SOL    HW2 1125   2.289   3.668   0.377 -2.2623  0.7510 -0.9344
  376SOL     OW 1126   3.163   1.462   0.855 -0.2033 -0.0927 -0.6742
  376SOL    HW1 1127   3.126   1.542   0.817 -2.1653  0.8608  2.7800
  376SOL    HW2 1128   3.224   1.493   0.922 -1.8346 -1.2915  1.5200
  377SOL     OW 1129   3.680   0.096   0.973  0.7737  0.0764 -0.0861
  377SOL    HW1 1130   3.625   0.137   0.906 -0.1299 -0.9894 -0.0223
  377SOL    HW2 1131   3.692   0.006   0.942  0.0495 -0.5392  1.3284
  378SOL     OW 1132   2.124   2.372   2.914 -0.0727 -0.6354  0.0073
  378SOL    HW1 1133   2.069   2.301   2.947  2.3295 -3.4319 -1.5223
  378SOL    HW2 1134   2.105   2.376   2.820  1.5660 -1.0221 -0.3693
  379SOL     OW 1135   2.576   0.920   0.882 -0.3308 -0.5976 -0.2764
  379SOL    HW1 1136   2.532   0.958   0.958 -2.0488 -0.6087 -1.2304
  379SOL    HW2 1137   2.576   0.989   0.817  2.0176 -0.2568  0.0072
  380SOL     OW 1138   3.171   0.041   1.353 -0.5809  0.7717  0.4707
  380SOL    HW1 1139   3.233  -0.029   1.331 -1.3560  0.7604 -2.0993
  380SOL    HW2 1140   3.224   0.108   1.395  0.7197 -0.2099  0.4700
  381SOL     OW 1141   0.301   0.895   1.667 -0.2174 -0.2396 -0.1208
  381SOL    HW1 1142   0.262   0.971   1.625  1.4181  2.6101  3.0543
  381SOL    HW2 1143   0.388   0.887   1.626  0.5914  1.2850  1.1853
  382SOL     OW 1144   3.670   1.422   0.555 -0.1228  0.5650  0.1097
  382SOL    HW1 1145   3.589   1.428   0.605  0.0672  1.2787  0.3515
  382SOL    HW2 1146   3.648   1.455   0.468 -0.5162 -0.9182 -0.3794
  383SOL     OW 1147   0.508   0.922   1.457  0.1382  0.1227  0.2802
  383SOL    HW1 1148   0.585   0.961   1.415  1.2263 -1.3604  0.7940
  383SOL    HW2 1149   0.434   0.960   1.411  1.2227  0.4436 -1.2884
  384SOL     OW 1150   2.944   2.564   2.822 -0.3632 -0.6011  0.3604
  384SOL    HW1 1151   3.031   2.591   2.794 -0.0877 -1.7944  0.0399
  384SOL    HW2 1152   2.923   2.624   2.894  0.3837  0.1984 -0.0587
  385SOL     OW 1153   2.811   2.326   2.216 -0.1786 -0.1188  0.2723
  385SOL    HW1 1154   2.795   2.412   2.254 -0.9200  0.0744 -0.4569
  385SOL    HW2 1155   2.905   2.326   2.195 -0.7227  1.8636 -2.8582
  386SOL     OW 1156   3.745   3.867   2.445  0.5340  0.1069  0.2260
  386SOL    HW1 1157   3.732   3.879   2.539 -0.8597 -2.5284  0.4569
  386SOL    HW2 1158   3.684   3.797   2.421  2.1566 -0.5691 -2.2800
  387SOL     OW 1159   2.507   0.979   0.546  0.0447  0.4242  0.2456
  387SOL    HW1 1160   2.588   0.928   0.545 -0.5988 -0.7823  2.4777
  387SOL    HW2 1161   2.438   0.914   0.534 -0.6675  1.3467 -0.9010
  388SOL     OW 1162   2.846   3.913   3.573  0.5115 -0.2912  0.1406
  388SOL    HW1 1163   2.935   3.936   3.547  0.3400 -1.9323 -2.2015
  388SOL    HW2 1164   2.843   3.817   3.565 -1.1061 -0.3920  1.4387
  389SOL     OW 1165   0.253   3.080   0.072  0.2014 -0.3870 -0.2634
  389SOL    HW1 1166   0.181   3.134   0.103  0.5887 -0.1848  0.2928
  389SOL    HW2 1167   0.266   3.107  -0.019 -0.1788 -0.1627 -0.2516
  390SOL     OW 1168   3.128   0.486   1.336  0.0216  0.1482  0.0524
  390SOL    HW1 1169   3.034   0.478   1.318  0.1271  1.3814 -1.2001
  390SOL    HW2 1170   3.133   0.548   1.410 -0.2140 -1.5823  1.5805
  391SOL     OW 1171   0.326   0.903   0.870  0.4122 -0.9561  0.4099
  391SOL    HW1 1172   0.235   0.897   0.899  0.0744 -1.5478 -0.7353
  391SOL    HW2 1173   0.350   0.994   0.888 -0.9454 -0.3264 -0.7929
  392SOL     OW 1174   3.515   0.208   0.047  0.1561 -0.6153  0.4566
  392SOL    HW1 1175   3.509   0.166  -0.039  0.2268 -0.8057  0.5439
  392SOL    HW2 1176   3.542   0.138   0.107  0.3633 -0.4274  0.5891
  393SOL     OW 1177   0.877   2.062   2.072 -0.3646 -0.5560  0.4736
  393SOL    HW1 1178   0.816   2.094   2.006 -1.1795 -1.5602  0.7124
  393SOL    HW2 1179   0.923   1.989   2.029  1.3980  0.7906 -0.0371
  394SOL     OW 1180   2.663   3.434   3.924  0.1934  0.1866 -0.5522
  394SOL    HW1 1181   2.683   3.387   4.005 -3.1587 -2.9791 -1.2945
  394SOL    HW2 1182   2.726   3.506   3.922  1.7851 -0.7752  3.7656
  395SOL     OW 1183   3.525   2.475   0.350 -0.1748  0.2145 -0.0165
  395SOL    HW1 1184   3.557   2.421   0.279  2.9800  1.7665  0.0307
  395SOL    HW2 1185   3.465   2.537   0.309 -4.2532 -3.2970  0.0075
  396SOL     OW 1186   0.767   0.410   0.239  0.1043  0.5875 -0.4573
  396SOL    HW1 1187   0.754   0.386   0.331  1.8142 -2.3811 -0.8400
  396SOL    HW2 1188   0.678   0.421   0.204 -0.5670  2.4774  1.6336
  397SOL     OW 1189   3.766   1.440   1.920  0.1228  0.0256 -0.2150
  397SOL    HW1 1190   3.731   1.447   2.009 -0.0145 -1.4694 -0.1161
  397SOL    HW2 1191   3.861   1.435   1.931  0.3162  2.4376 -0.3676
  398SOL     OW 1192   0.777   0.373   2.210 -0.5219 -0.1481 -0.2681
  398SOL    HW1 1193   0.758   0.294   2.261 -2.3151  0.1504 -0.4226
  398SOL    HW2 1194   0.779   0.343   2.119 -0.7023 -0.1126 -0.2848
  399SOL     OW 1195   1.809   3.917   2.666  0.0397  0.7128 -0.1198
  399SOL    HW1 1196   1.834   3.965   2.588  0.6469  0.5281 -0.0418
  399SOL    HW2 1197   1.891   3.902   2.713 -0.1526 -0.2853 -0.0827
  400SOL     OW 1198   0.802   0.636   1.552 -0.0875 -0.4794  0.1987
  400SOL    HW1 1199   0.707   0.631   1.548 -0.1605  0.6222  0.3979
  400SOL    HW2 1200   0.829   0.638   1.460 -0.3762  0.9912  0.1259
  401SOL     OW 1201   2.401   2.463   2.722  0.3000  0.1164  0.1886
  401SOL    HW1 1202   2.377   2.408   2.798  0.0227 -0.4565 -0.3011
  401SOL    HW2 1203   2.496   2.468   2.725  0.2593  0.6002  0.9194
  402SOL     OW 1204   1.195   0.184   3.755 -0.4975 -0.3193 -0.3098
  402SOL    HW1 1205   1.163   0.269   3.786  0.4808 -0.4416  1.1318
  402SOL    HW2 1206   1.207   0.196   3.661 -2.3089  0.4969 -0.4879
  403SOL     OW 1207   0.718   3.383   0.512  0.4417  0.0211  0.2763
  403SOL    HW1 1208   0.795   3.327   0.523 -0.1448 -0.3995  3.0269
  403SOL    HW2 1209   0.647   3.323   0.493  0.2191  0.0332  1.0304
  404SOL     OW 1210   2.258   3.970   0.729 -0.0948 -0.8652  0.0888
  404SOL    HW1 1211   2.215   3.971   0.644 -2.5856 -1.1427  1.2450
  404SOL    HW2 1212   2.288   3.880   0.741  1.8259 -0.4546 -1.1310
  405SOL     OW 1213   0.680   1.999   0.044 -0.4242  0.3751 -0.5927
  405SOL    HW1 1214   0.771   1.973   0.029 -0.0987  0.9721  0.2617
  405SOL    HW2 1215   0.629   1.934  -0.003  0.4791  1.6940 -3.6512
  406SOL     OW 1216   0.352   3.326   1.022  0.4173  0.2602 -0.3539
  406SOL    HW1 1217   0.288   3.282   0.965 -0.0492 -3.1473  2.4694
  406SOL    HW2 1218   0.436   3.292   0.992  0.3332 -0.1653 -0.1096
  407SOL     OW 1219   3.510   0.692   1.881 -0.1167 -0.1420 -0.1085
  407SOL    HW1 1220   3.501   0.784   1.856 -1.1036 -0.5160 -1.1364
  407SOL    HW2 1221   3.605   0.680   1.890  0.0046  1.1113  0.6244
  408SOL     OW 1222   1.514   2.602   2.103 -0.2749 -0.3676  0.3168
  408SOL    HW1 1223   1.569   2.525   2.120  0.1534 -0.0571  0.3711
  408SOL    HW2 1224   1.476   2.623   2.188  0.5104  0.1587  0.5474
  409SOL     OW 1225   2.650   0.167   0.514  0.7539  0.1291  0.3469
  409SOL    HW1 1226   2.573   0.221   0.498  0.7721 -0.6210 -3.2810
  409SOL    HW2 1227   2.623   0.105   0.582 -1.8171  0.0245 -0.6564
  410SOL     OW 1228   0.268   0.403   3.296  0.1925  0.0729  0.2222
  410SOL    HW1 1229   0.341   0.411   3.358  1.8828 -1.0264 -1.5164
  410SOL    HW2 1230   0.285   0.471   3.231 -0.2645 -0.2800 -0.2722
  411SOL     OW 1231   3.388   1.400   0.161  0.3238 -0.6791  0.2829
  411SOL    HW1 1232   3.445   1.428   0.233 -0.3326 -0.5744  0.7631
  411SOL    HW2 1233   3.445   1.403   0.083  1.2206 -1.4005  0.8825
  412SOL     OW 1234   3.230   3.062   1.855  0.5005  0.6961  0.2000
  412SOL    HW1 1235   3.307   3.117   1.840  0.3177  1.3335  1.4037
  412SOL    HW2 1236   3.249   2.981   1.809  1.1990  1.4226 -0.8390
  413SOL     OW 1237   1.350   2.789   0.292  0.0434  0.1215  0.7836
  413SOL    HW1 1238   1.375   2.761   0.380 -0.9008 -0.8666  0.7571
  413SOL    HW2 1239   1.279   2.729   0.267  0.3603  0.3288 -0.6835
  414SOL     OW 1240   1.036   1.248   1.353 -0.1122  0.4636  0.4280
  414SOL    HW1 1241   1.056   1.223   1.443 -1.8579 -2.3227  0.1574
  414SOL    HW2 1242   1.122   1.258   1.311  0.7159  0.2162  2.0137
  415SOL     OW 1243   2.164   1.071   3.617  0.1495  0.1392  0.3093
  415SOL    HW1 1244   2.158   1.126   3.539 -0.5120 -1.3763 -0.7503
  415SOL    HW2 1245   2.136   0.984   3.588  1.5609 -0.8799  1.8264
  416SOL     OW 1246   1.672   3.033   3.129 -0.0760  0.0778 -0.0309
  416SOL    HW1 1247   1.578   3.020   3.137  0.0032 -0.0740  0.7323
  416SOL    HW2 1248   1.699   2.972   3.061 -0.3381 -0.7737  0.6247
  417SOL     OW 1249   0.665   2.830   1.928 -0.1216  0.0711 -0.7083
  417SOL    HW1 1250   0.737   2.783   1.886  0.8258  0.2873  0.5982
  417SOL    HW2 1251   0.590   2.772   1.920  0.9417 -1.6069  0.6056
  418SOL     OW 1252   1.479   1.550   0.872 -0.1799 -0.2980  0.3677
  418SOL    HW1 1253   1.557   1.531   0.820  1.0866  0.4372  1.9218
  418SOL    HW2 1254   1.416   1.483   0.845 -0.2367  0.9586 -3.2687
  419SOL     OW 1255   1.150   3.628   1.725  0.1405  0.3875  0.8225
  419SOL    HW1 1256   1.144   3.595   1.636 -2.5842  1.7487  0.4004
  419SOL    HW2 1257   1.087   3.575   1.775  1.8974 -0.6138  2.0786
  420SOL     OW 1258   1.276   3.123   3.340  0.4642  0.8437 -0.1348
  420SOL    HW1 1259   1.372   3.128   3.341  0.5459  0.1340  2.2055
  420SOL    HW2 1260   1.257   3.049   3.283  1.3755  0.3840  0.1353
  421SOL     OW 1261   1.058   3.825   0.082 -0.4541 -0.1649  0.4697
  421SOL    HW1 1262   1.073   3.899   0.140 -0.7874  0.2555  0.0269
  421SOL    HW2 1263   1.114   3.843   0.006  0.6925 -1.1710  1.0438
  422SOL     OW 1264   2.656   1.921   0.556 -0.6508 -0.4044 -0.2544
  422SOL    HW1 1265   2.612   1.900   0.638 -1.8607 -2.0021 -1.2395
  422SOL    HW2 1266   2.750   1.916   0.577 -0.8362 -4.0231  0.4081
  423SOL     OW 1267   2.269   0.140   1.449  0.0501 -0.0719 -0.0479
  423SOL    HW1 1268   2.240   0.220   1.405 -1.5370 -0.3104  0.5132
  423SOL    HW2 1269   2.262   0.161   1.543  1.2405 -0.3212  0.1128
  424SOL     OW 1270   2.887   3.643   3.553 -0.3119  0.1665  0.3751
  424SOL    HW1 1271   2.902   3.563   3.503 -0.6867 -0.5659  1.4150
  424SOL    HW2 1272   2.892   3.616   3.645 -4.2112  0.4810  0.8616
  425SOL     OW 1273   1.058   0.670   2.264 -0.5333  0.2527 -0.1728
  425SOL    HW1 1274   1.068   0.649   2.171  0.7671 -1.0870  0.2149
  425SOL    HW2 1275   1.076   0.764   2.270 -1.2115  0.4664 -1.3426
  426SOL     OW 1276   1.012   3.992   3.323  0.1915  0.3137  0.3967
  426SOL    HW1 1277   1.011   4.047   3.401 -2.3269  0.4708  0.3552
  426SOL    HW2 1278   0.947   3.924   3.341  0.7693 -0.6227 -0.9079
  427SOL     OW 1279   3.935   1.056   1.107 -0.2792  0.2183  0.2528
  427SOL    HW1 1280   3.918   1.012   1.024 -0.8596 -0.7377  0.8601
  427SOL    HW2 1281   3.902   0.996   1.173 -0.3384  1.2104  1.1553
  428SOL     OW 1282   0.020   1.179   2.280 -0.6894 -0.1595  0.3245
  428SOL    HW1 1283  -0.034   1.099   2.285  1.5680 -1.8054 -0.0103
  428SOL    HW2 1284   0.057   1.177   2.192 -0.4716  1.2100  0.3676
  429SOL     OW 1285   3.637   0.838   2.781 -0.1860  0.3619 -0.1057
  429SOL    HW1 1286   3.544   0.818   2.789  0.6105 -3.6682  2.2376
  429SOL    HW2 1287   3.659   0.886   2.860 -0.2677  1.4234 -0.7180
  430SOL     OW 1288   0.993   3.394   2.675  0.3760  0.2737  0.2345
  430SOL    HW1 1289   0.906   3.367   2.646  0.5861  0.3084 -0.4576
  430SOL    HW2 1290   0.991   3.384   2.770 -1.1070  2.3795  0.4907
  431SOL     OW 1291   0.588   2.471   0.326  0.4610  1.0460  0.1146
  431SOL    HW1 1292   0.563   2.425   0.406  0.5721 -2.5014 -1.6843
  431SOL    HW2 1293   0.517   2.453   0.264 -0.1462  4.5839 -0.4146
  432SOL     OW 1294   0.554   1.464   3.364 -0.2025  0.1134 -0.6959
  432SOL    HW1 1295   0.603   1.476   3.283 -1.2005  1.9977 -1.0976
  432SOL    HW2 1296   0.543   1.553   3.399  1.2806 -0.7004  2.2244
  433SOL     OW 1297   3.026   1.679   0.373 -0.1899  0.2376  0.5016
  433SOL    HW1 1298   3.032   1.755   0.431 -0.7651  0.9734 -0.3680
  433SOL    HW2 1299   3.000   1.716   0.289  3.2767 -0.4026 -1.0291
  434SOL     OW 1300   2.684   1.359   0.892  0.1414 -0.0478  0.2846
  434SOL    HW1 1301   2.698   1.272   0.854 -0.8529 -0.6323  1.2030
  434SOL    HW2 1302   2.592   1.379   0.873  0.7788  1.5598 -1.3753
  435SOL     OW 1303   0.677   3.352   2.248 -0.3416 -0.1433  0.0616
  435SOL    HW1 1304   0.711   3.263   2.253  2.3028  0.7298 -0.4301
  435SOL    HW2 1305   0.725   3.400   2.317  1.2700  1.6606 -2.1319
  436SOL     OW 1306   2.782   0.015   0.245  0.5020 -0.4103  0.0384
  436SOL    HW1 1307   2.870   0.040   0.218  0.0340  2.9921  1.2222
  436SOL    HW2 1308   2.725   0.051   0.177 -0.1360  0.0665  0.8177
  437SOL     OW 1309   0.872   0.350   2.571  0.3680 -0.3013 -0.8244
  437SOL    HW1 1310   0.917   0.296   2.506 -0.6902  0.5496 -2.3355
  437SOL    HW2 1311   0.899   0.440   2.550 -2.1112  0.2805 -1.9861
  438SOL     OW 1312   1.473   0.950   2.721  0.1674  0.5588  0.2216
  438SOL    HW1 1313   1.402   1.014   2.707 -0.0342  0.7933  2.0458
  438SOL    HW2 1314   1.549   1.003   2.743  0.6133  0.2491 -0.5407
  439SOL     OW 1315   3.991   3.357   0.294  0.6450  0.3967  0.3388
  439SOL    HW1 1316   3.925   3.366   0.362 -0.4049 -1.9649 -0.2687
  439SOL    HW2 1317   3.948   3.387   0.214 -0.5637 -2.9951 -0.4459
  440SOL     OW 1318   2.308   0.917   2.840  0.1466  0.2851 -0.0221
  440SOL    HW1 1319   2.282   0.970   2.914 -0.0631 -1.2784  1.0783
  440SOL    HW2 1320   2.347   0.979   2.778 -1.2105  1.8655  0.6370
  441SOL     OW 1321   0.253   1.172   1.816  0.4924  0.4019  0.2874
  441SOL    HW1 1322   0.208   1.180   1.900  0.4669 -1.2269  0.4518
  441SOL    HW2 1323   0.270   1.079   1.806 -0.2924  0.4258 -1.9295
  442SOL     OW 1324   3.679   1.917   3.459  0.4085 -0.0061  0.1084
  442SOL    HW1 1325   3.595   1.872   3.453  0.8477 -0.8757  0.2972
  442SOL    HW2 1326   3.677   1.959   3.545  1.4235 -2.7242  1.5928
  443SOL     OW 1327   1.429   1.650   1.124  0.9254 -0.4757  0.4835
  443SOL    HW1 1328   1.507   1.616   1.167  0.7863  0.4790  1.5536
  443SOL    HW2 1329   1.438   1.623   1.033  2.2304 -0.8431  0.6980
  444SOL     OW 1330   0.881   3.053   2.790 -0.7796 -0.3215  0.5006
  444SOL    HW1 1331   0.855   3.019   2.704 -3.2072 -1.9357  1.7720
  444SOL    HW2 1332   0.889   3.147   2.777  2.5703 -0.7612 -2.3015
  445SOL     OW 1333   0.194   0.992   3.056  0.3162  0.3515 -0.3113
  445SOL    HW1 1334   0.209   1.070   3.002  2.7990  0.9553  1.1092
  445SOL    HW2 1335   0.169   0.924   2.993 -0.0642  1.8051 -1.7963
  446SOL     OW 1336   1.126   2.283   0.397 -0.0949  0.0185 -0.4454
  446SOL    HW1 1337   1.128   2.274   0.492  0.8910  0.6491 -0.3856
  446SOL    HW2 1338   1.034   2.283   0.374 -0.3350 -0.4193  0.4865
  447SOL     OW 1339   0.285   3.895   2.224 -0.4796  0.2853  0.8684
  447SOL    HW1 1340   0.329   3.835   2.285  0.5083 -2.1837 -2.0507
  447SOL    HW2 1341   0.203   3.851   2.202 -0.5238  0.8110 -0.0507
  448SOL     OW 1342   0.513   3.231   3.508 -0.0609 -0.3168  0.3156
  448SOL    HW1 1343   0.590   3.174   3.519 -0.4812 -1.3408 -1.6288
  448SOL    HW2 1344   0.550   3.316   3.485  0.5202 -0.4557  0.7064
  449SOL     OW 1345   0.208   3.847   3.625  0.0376  0.3287  0.8785
  449SOL    HW1 1346   0.205   3.846   3.530  0.1273 -0.6591  0.8699
  449SOL    HW2 1347   0.259   3.924   3.647 -1.1651  1.3528  0.1789
  450SOL     OW 1348   0.352   1.402   2.738 -0.4527  0.0994  0.6552
  450SOL    HW1 1349   0.431   1.404   2.791  1.0469 -0.3128 -1.4091
  450SOL    HW2 1350   0.383   1.415   2.648 -2.8358  0.8011 -0.1543
  451SOL     OW 1351   1.638   3.011   0.757  0.0292  0.2597 -0.6912
  451SOL    HW1 1352   1.579   2.998   0.683  1.6841  0.0232 -2.0473
  451SOL    HW2 1353   1.605   3.089   0.801 -1.8335 -0.4299 -0.7996
  452SOL     OW 1354   0.935   0.312   3.415  0.4515 -0.7708  0.7426
  452SOL    HW1 1355   0.998   0.383   3.404  0.9027 -1.3407 -0.6516
  452SOL    HW2 1356   0.907   0.290   3.326 -1.9326 -0.3893  1.3389
  453SOL     OW 1357   1.229   1.618   0.228 -0.6412 -0.0737 -0.3406
  453SOL    HW1 1358   1.138   1.636   0.205 -0.2757  0.9990 -1.0216
  453SOL    HW2 1359   1.241   1.526   0.206 -2.0871 -0.7965  1.5915
  454SOL     OW 1360   0.975   1.680   2.292 -0.0508 -0.2774  0.3089
  454SOL    HW1 1361   0.907   1.734   2.251  0.9002 -1.2302 -2.8191
  454SOL    HW2 1362   1.054   1.734   2.287  0.5656 -1.2554 -1.3858
  455SOL     OW 1363   0.043   0.399   2.870  0.5816 -0.6067  0.0553
  455SOL    HW1 1364   0.071   0.462   2.935 -1.2867  2.1172 -1.5665
  455SOL    HW2 1365   0.040   0.448   2.788 -0.6022 -2.9046 -1.4012
  456SOL     OW 1366   1.618   3.339   1.055 -0.1418  0.7249 -0.1214
  456SOL    HW1 1367   1.537   3.307   1.095 -0.3976  2.3044  0.7407
  456SOL    HW2 1368   1.667   3.377   1.129  0.0642  2.3666 -1.0509
  457SOL     OW 1369   2.096   3.684   1.283 -0.3515  0.4102  0.2584
  457SOL    HW1 1370   2.171   3.631   1.310  0.0049  1.3706  1.2135
  457SOL    HW2 1371   2.129   3.774   1.282 -1.1589  0.7172 -0.5763
  458SOL     OW 1372   1.387   0.286   0.899  0.4122 -0.5277 -0.1495
  458SOL    HW1 1373   1.474   0.246   0.904  1.3194  0.5444 -3.9164
  458SOL    HW2 1374   1.400   0.364   0.845 -2.7972  0.0012 -0.3571
  459SOL     OW 1375   2.824   0.855   0.363  0.1582 -0.1824  0.0560
  459SOL    HW1 1376   2.889   0.924   0.347  2.3556 -1.9286  0.8368
  459SOL    HW2 1377   2.806   0.860   0.457 -0.9715  0.3449 -0.1695
  460SOL     OW 1378   1.023   2.228   2.258 -0.3204 -0.1814 -0.5284
  460SOL    HW1 1379   1.056   2.288   2.191 -0.1416  0.3366  0.0163
  460SOL    HW2 1380   1.018   2.143   2.214  0.0894  0.0908 -1.1076
  461SOL     OW 1381   1.379   3.959   2.789  0.6164  0.1358  0.2111
  461SOL    HW1 1382   1.415   4.011   2.717  1.7437  1.4781  1.6869
  461SOL    HW2 1383   1.319   4.018   2.834  2.5635  0.5888  2.4383
  462SOL     OW 1384   1.289   3.597   0.522  0.2899 -0.5867  0.2643
  462SOL    HW1 1385   1.343   3.675   0.505 -0.7559 -0.0491 -0.7580
  462SOL    HW2 1386   1.297   3.583   0.616  1.9323 -0.3292  0.1904
  463SOL     OW 1387   1.184   1.675   1.271 -0.2120 -0.2135  0.5591
  463SOL    HW1 1388   1.273   1.695   1.241 -0.3474 -1.0673 -0.4453
  463SOL    HW2 1389   1.146   1.761   1.290 -0.0270  0.3845 -1.5084
  464SOL     OW 1390   2.140   1.251   2.406  0.5541  0.4923  0.5740
  464SOL    HW1 1391   2.175   1.303   2.334  0.9779 -1.9766 -1.1571
  464SOL    HW2 1392   2.055   1.220   2.375  1.0432 -1.1823  0.7937
  465SOL     OW 1393   3.289   3.167   0.695 -0.2484  0.6273  0.3677
  465SOL    HW1 1394   3.285   3.131   0.783 -0.1352  0.0180  0.1311
  465SOL    HW2 1395   3.272   3.092   0.638  1.4225  0.6418 -0.1983
  466SOL     OW 1396   3.704   2.485   1.126 -0.1439  0.0438  0.0136
  466SOL    HW1 1397   3.720   2.502   1.034  0.0349  0.1940  0.0716
  466SOL    HW2 1398   3.770   2.537   1.172 -0.4948  0.2900  0.2410
  467SOL     OW 1399   1.729   3.918   0.981  0.6148  0.2543 -0.2137
  467SOL    HW1 1400   1.762   3.835   1.016  1.4928  1.0874  1.0309
  467SOL    HW2 1401   1.805   3.956   0.937  0.1207  0.2580 -1.0843
  468SOL     OW 1402   1.445   2.780   1.323 -0.0312  0.4677  0.0164
  468SOL    HW1 1403   1.509   2.805   1.390 -1.2329  0.4289  1.2272
  468SOL    HW2 1404   1.448   2.685   1.321  0.3138  0.4840 -0.3041
  469SOL     OW 1405   3.478   1.863   3.652  0.2904  0.2483 -0.4291
  469SOL    HW1 1406   3.393   1.843   3.613  1.0303 -1.0710 -1.4603
  469SOL    HW2 1407   3.467   1.950   3.691 -1.0344  0.8734 -2.0445
  470SOL     OW 1408   3.657   1.282   3.608 -0.0662  0.3990 -0.6379
  470SOL    HW1 1409   3.575   1.249   3.571  0.0116  0.0530 -0.5011
  470SOL    HW2 1410   3.654   1.377   3.592 -1.1474  0.6053  0.5898
  471SOL     OW 1411   2.592   3.065  -0.003  0.2419 -0.7151 -0.2649
  471SOL    HW1 1412   2.632   3.144   0.035  1.0520 -1.1047 -0.2864
  471SOL    HW2 1413   2.659   2.998   0.004 -0.5866 -1.5235  0.1166
  472SOL     OW 1414   0.474   1.609   2.942 -0.1235 -0.0808 -0.1955
  472SOL    HW1 1415   0.455   1.684   2.998 -1.0820 -0.5500  0.1151
  472SOL    HW2 1416   0.434   1.534   2.986  4.6282 -1.7353  1.9764
  473SOL     OW 1417   2.840   1.225   0.135 -0.7653  0.2220  0.2838
  473SOL    HW1 1418   2.877   1.296   0.083 -1.0939  0.9591  1.0164
  473SOL    HW2 1419   2.914   1.191   0.185 -0.8978  1.2465  1.2421
  474SOL     OW 1420   0.836   3.860   3.136 -0.6317 -0.4631 -0.0447
  474SOL    HW1 1421   0.883   3.940   3.160 -0.2126 -0.5568 -0.5231
  474SOL    HW2 1422   0.744   3.887   3.132 -0.8738 -0.6411  2.5043
  475SOL     OW 1423   1.792   2.234   0.199 -0.2076 -0.2925  0.5863
  475SOL    HW1 1424   1.701   2.228   0.168  0.2217 -0.8053 -0.6435
  475SOL    HW2 1425   1.841   2.180   0.138  0.8053 -0.7772  1.8107
  476SOL     OW 1426   1.899   0.910   2.124  0.7071  0.3182  0.5110
  476SOL    HW1 1427   1.898   0.883   2.032  1.9942 -4.2070  1.5416
  476SOL    HW2 1428   1.810   0.894   2.154  0.9400 -0.9753  0.5950
  477SOL     OW 1429   0.217   0.940   3.665  0.1550  0.2607  0.7325
  477SOL    HW1 1430   0.224   1.034   3.681  1.2471  0.7697 -2.2448
  477SOL    HW2 1431   0.267   0.925   3.586 -2.0058 -2.4466 -0.2813
  478SOL     OW 1432   3.652   3.744   3.193  0.3409 -0.2852 -0.4533
  478SOL    HW1 1433   3.741   3.769   3.165  1.3239  0.7052  3.0487
  478SOL    HW2 1434   3.654   3.752   3.288 -4.1336  1.8029 -0.2958
  479SOL     OW 1435   0.781   1.779   1.287 -0.1515  0.5606 -0.7837
  479SOL    HW1 1436   0.865   1.807   1.322  0.3107 -1.8203  0.2138
  479SOL    HW2 1437   0.802   1.707   1.227 -1.4956 -1.4478  0.9830
  480SOL     OW 1438   2.068   3.134   0.365  0.3334  0.6923 -0.2773
  480SOL    HW1 1439   2.065   3.082   0.284  0.3946 -1.4232  1.0051
  480SOL    HW2 1440   1.994   3.195   0.358 -1.4123 -1.3633 -0.7369
  481SOL     OW 1441   1.194   2.864   1.771 -0.2015 -0.0277 -0.4527
  481SOL    HW1 1442   1.135   2.926   1.728  0.1412  1.3675  1.0045
  481SOL    HW2 1443   1.209   2.901   1.858  2.2656 -0.7019 -0.5168
  482SOL     OW 1444   2.720   0.569   2.903  0.2301  0.0001  0.5056
  482SOL    HW1 1445   2.675   0.484   2.907 -0.6341  0.4960  1.6230
  482SOL    HW2 1446   2.812   0.548   2.921 -0.3582 -0.4183  3.4645
  483SOL     OW 1447   1.941   1.960   3.439 -0.5394  0.5915 -0.3108
  483SOL    HW1 1448   1.935   1.916   3.354  0.3806  0.1559 -0.1670
  483SOL    HW2 1449   1.931   1.889   3.503  1.0027  0.5615 -0.0758
  484SOL     OW 1450   2.004   1.446   1.825 -0.3508 -0.0936 -0.1765
  484SOL    HW1 1451   1.943   1.388   1.870 -0.1541  0.2117  0.4840
  484SOL    HW2 1452   1.972   1.534   1.842  0.2333  0.0688  0.1183
  485SOL     OW 1453   1.850   1.150   3.732  0.5515  0.0767 -0.5479
  485SOL    HW1 1454   1.923   1.194   3.775  1.0557 -0.0723 -1.2399
  485SOL    HW2 1455   1.891   1.093   3.668 -0.0520 -1.8426  0.6868
  486SOL     OW 1456   0.072   3.424   1.671 -0.1742 -0.1486 -0.3413
  486SOL    HW1 1457   0.106   3.436   1.759  1.4050  0.8752 -1.0533
  486SOL    HW2 1458   0.147   3.392   1.620 -1.4769 -2.4441 -0.9839
  487SOL     OW 1459   1.926   2.316   1.270 -0.2721  0.2038 -0.5470
  487SOL    HW1 1460   1.984   2.392   1.268 -0.1359  0.0967 -1.3538
  487SOL    HW2 1461   1.855   2.341   1.328 -0.6721  1.2887 -1.4662
  488SOL     OW 1462   2.639   1.340   0.408  0.3022 -0.2305  0.2892
  488SOL    HW1 1463   2.706   1.396   0.369  0.6218 -0.5423  0.3859
  488SOL    HW2 1464   2.595   1.299   0.334  0.0559  0.1574  0.2169
  489SOL     OW 1465   2.200   0.321   3.928  0.3540  0.2187  0.1966
  489SOL    HW1 1466   2.261   0.254   3.959  0.8985  0.2482 -0.7762
  489SOL    HW2 1467   2.123   0.272   3.900 -0.6658  0.2792  2.7027
  490SOL     OW 1468   0.728   3.244   3.991 -0.1588 -0.3627  0.1268
  490SOL    HW1 1469   0.779   3.177   3.946 -0.3060 -1.3895  1.4080
  490SOL    HW2 1470   0.793   3.304   4.028  0.0500 -0.6759  0.2714
  491SOL     OW 1471   0.677   2.413   1.330 -0.3289 -0.6579 -0.3906
  491SOL    HW1 1472   0.648   2.351   1.263  1.0829  0.0324 -1.7095
  491SOL    HW2 1473   0.721   2.358   1.395 -0.1189 -1.1661 -0.9464
  492SOL     OW 1474   2.088   3.395   1.069  0.4428 -0.4228  0.2451
  492SOL    HW1 1475   2.056   3.432   1.151  0.0939 -0.7748  0.2709
  492SOL    HW2 1476   2.010   3.385   1.014  0.8598  1.2416 -0.7245
  493SOL     OW 1477   3.409   3.435   0.515 -0.3496 -0.1065 -0.6551
  493SOL    HW1 1478   3.338   3.499   0.526 -0.0048 -0.0788  1.9675
  493SOL    HW2 1479   3.381   3.359   0.567  1.6842  0.0738  0.8034
  494SOL     OW 1480   0.107   0.330   3.697  0.4552 -0.2277  0.0058
  494SOL    HW1 1481   0.068   0.400   3.749  1.1852  1.3741 -1.4936
  494SOL    HW2 1482   0.190   0.312   3.740  0.8020  0.6926 -0.2383
  495SOL     OW 1483   1.791   1.712   0.318  0.2832  0.5106 -0.3362
  495SOL    HW1 1484   1.734   1.637   0.307  0.2407  0.6210 -0.8739
  495SOL    HW2 1485   1.742   1.771   0.375 -0.0029  0.4597 -0.5262
  496SOL     OW 1486   1.023   1.029   3.276  0.2369 -0.1297  0.0048
  496SOL    HW1 1487   1.110   1.000   3.248  0.3482 -0.3663  0.5873
  496SOL    HW2 1488   1.036   1.059   3.366 -0.4979 -1.1416  0.4577
  497SOL     OW 1489   3.779   1.034   0.782 -0.4691 -0.2392 -0.0038
  497SOL    HW1 1490   3.785   0.946   0.746  0.8310 -0.2236  0.1226
  497SOL    HW2 1491   3.770   1.091   0.706  1.3044 -0.2893 -0.3142
  498SOL     OW 1492   1.487   0.108   2.590 -0.1885  0.4377 -0.4539
  498SOL    HW1 1493   1.539   0.163   2.649  0.7992 -0.5689 -0.3473
  498SOL    HW2 1494   1.494   0.151   2.505  0.3447  0.6181 -0.3217
  499SOL     OW 1495   3.295   3.683   2.084 -0.3858  0.1139 -0.1837
  499SOL    HW1 1496   3.231   3.623   2.046  0.6904 -0.7936 -0.6329
  499SOL    HW2 1497   3.301   3.755   2.021  1.7653 -1.6232 -2.1303
  500SOL     OW 1498   2.324   1.324   3.148  0.4152  0.3847  0.2587
  500SOL    HW1 1499   2.299   1.248   3.201  0.6711  0.1082 -0.0121
  500SOL    HW2 1500   2.394   1.292   3.092  0.8530  0.9426  0.4682
  501SOL     OW 1501   3.172   1.256   3.804 -0.1193 -0.2426 -0.8742
  501SOL    HW1 1502   3.235   1.242   3.875 -0.1509 -1.3945 -1.0526
  501SOL    HW2 1503   3.116   1.326   3.836  1.3381  0.9218 -0.7741
  502SOL     OW 1504   3.780   3.991   3.595  0.0301  0.0644 -0.1009
  502SOL    HW1 1505   3.792   3.905   3.634 -2.9072  0.0706  1.0357
  502SOL    HW2 1506   3.789   4.052   3.669  3.0032  0.9178 -1.0356
  503SOL     OW 1507   0.424   1.149   0.944  0.4150 -0.8822  0.7021
  503SOL    HW1 1508   0.357   1.159   1.012 -1.0945 -1.7181 -0.6164
  503SOL    HW2 1509   0.490   1.092   0.985 -0.8741 -2.0765  1.2199
  504SOL     OW 1510   1.726   2.302   0.439  0.1444  0.7877 -0.6075
  504SOL    HW1 1511   1.631   2.291   0.434  0.2309 -2.5478  1.8353
  504SOL    HW2 1512   1.758   2.271   0.355 -0.8538  0.4280 -0.8721
  505SOL     OW 1513   2.055   3.401   1.677 -0.0609  0.5611 -1.3200
  505SOL    HW1 1514   2.119   3.409   1.747 -2.8946 -0.8094  1.7183
  505SOL    HW2 1515   2.032   3.491   1.655  1.8418  1.0366 -1.4917
  506SOL     OW 1516   1.212   1.051   3.936  0.2096 -0.5511 -0.3244
  506SOL    HW1 1517   1.165   1.052   3.852  0.3439 -0.3575 -0.3993
  506SOL    HW2 1518   1.143   1.055   4.002  0.1553  1.6010 -0.4460
  507SOL     OW 1519   0.980   1.082   0.598 -0.1451  0.4037 -0.4898
  507SOL    HW1 1520   0.918   1.144   0.559 -2.2116  0.5683  2.6959
  507SOL    HW2 1521   1.055   1.135   0.624 -0.1678  0.8330 -1.2741
  508SOL     OW 1522   3.745   0.809   1.671 -0.2026  1.2674  0.1020
  508SOL    HW1 1523   3.681   0.764   1.616  2.1564 -1.0470 -0.9595
  508SOL    HW2 1524   3.813   0.837   1.610  1.7863 -0.0724  1.5760
  509SOL     OW 1525   3.020   2.561   0.659 -0.3161 -0.0946 -0.0376
  509SOL    HW1 1526   2.976   2.540   0.577 -0.4839  1.2309 -0.3122
  509SOL    HW2 1527   3.012   2.481   0.712  0.8538 -1.4066 -1.7225
  510SOL     OW 1528   0.523   1.022   0.447  0.2965 -0.1089  0.0572
  510SOL    HW1 1529   0.445   1.072   0.425 -0.8265 -0.7628  2.3171
  510SOL    HW2 1530   0.537   0.964   0.371 -0.8652  0.6448 -0.7563
  511SOL     OW 1531   0.501   1.959   0.532  0.1707  0.2942 -0.0106
  511SOL    HW1 1532   0.545   1.877   0.555  0.9562  1.0386  1.2524
  511SOL    HW2 1533   0.557   1.999   0.465 -0.0951 -0.0906 -0.4643
  512SOL     OW 1534   2.145   1.488  -0.008  0.1433 -0.5000  1.0400
  512SOL    HW1 1535   2.162   1.568   0.042  0.9712 -0.4110  0.6259
  512SOL    HW2 1536   2.201   1.422   0.033  1.3757 -0.2604 -0.1922
  513SOL     OW 1537   3.903   2.543   1.578  0.1326  0.1507 -0.1890
  513SOL    HW1 1538   3.812   2.519   1.595  0.7622 -1.0449  1.9665
  513SOL    HW2 1539   3.903   2.576   1.488 -2.5980  1.2698  0.1237
  514SOL     OW 1540   0.671   3.831   1.077  0.1220 -0.1185 -0.2453
  514SOL    HW1 1541   0.614   3.869   1.009  0.9417  1.3979 -0.1217
  514SOL    HW2 1542   0.664   3.892   1.150  1.4295 -0.2419 -0.0076
  515SOL     OW 1543   2.564   0.653   0.762  0.1883 -0.2458 -1.0814
  515SOL    HW1 1544   2.548   0.741   0.795  0.0018 -0.3327 -0.9356
  515SOL    HW2 1545   2.574   0.599   0.840 -0.7451 -0.5434 -1.1449
  516SOL     OW 1546   1.219   1.194   3.090 -0.0159  0.4433  0.6490
  516SOL    HW1 1547   1.302   1.148   3.087 -0.5193 -0.5293 -2.2773
  516SOL    HW2 1548   1.229   1.265   3.026 -1.7280 -0.3774 -0.6175
  517SOL     OW 1549   2.153   0.421   0.718  0.3779  0.4959  0.2514
  517SOL    HW1 1550   2.062   0.411   0.748  0.1826  4.2270  1.3309
  517SOL    HW2 1551   2.147   0.481   0.644  1.9913  1.2102  0.6628
  518SOL     OW 1552   1.151   3.498   3.575  0.4119 -0.1749  0.0348
  518SOL    HW1 1553   1.204   3.428   3.614  2.3534  1.6648  0.8665
  518SOL    HW2 1554   1.198   3.521   3.495 -1.8286 -1.7400 -1.8677
  519SOL     OW 1555   0.014   0.090   1.016  0.2963 -0.5354 -0.8090
  519SOL    HW1 1556   0.039   0.061   1.104 -1.4024 -0.1639 -0.1670
  519SOL    HW2 1557   0.049   0.022   0.958 -1.6857 -2.8190  0.4730
  520SOL     OW 1558   0.755   2.684   0.586  0.4485 -0.2894 -0.2156
  520SOL    HW1 1559   0.709   2.758   0.545 -0.2923 -1.1564 -0.9941
  520SOL    HW2 1560   0.844   2.716   0.598  0.2001  0.6625 -0.7408
  521SOL     OW 1561   1.312   2.682   3.992 -0.3240  0.4177  0.1144
  521SOL    HW1 1562   1.376   2.680   4.063  0.2193 -0.9699 -0.3903
  521SOL    HW2 1563   1.364   2.670   3.913 -1.1933 -0.7113 -0.3043
  522SOL     OW 1564   3.280   3.968   3.997 -0.2571 -0.1210 -0.2510
  522SOL    HW1 1565   3.332   3.979   3.918  0.3917  0.7557  0.2720
  522SOL    HW2 1566   3.336   4.002   4.067 -0.4841 -1.6206  0.7043
  523SOL     OW 1567   0.173   2.109   1.367 -0.2991  0.2910 -0.8465
  523SOL    HW1 1568   0.096   2.063   1.332  0.5338 -1.2051 -0.7916
  523SOL    HW2 1569   0.180   2.077   1.457  0.7156 -0.0364 -1.0355
  524SOL     OW 1570   3.807   3.698   0.235 -0.3695  0.3008  0.0875
  524SOL    HW1 1571   3.746   3.706   0.309  0.4622  1.7183  0.6748
  524SOL    HW2 1572   3.893   3.713   0.274  0.1854  0.0672 -1.0178
  525SOL     OW 1573   3.220   1.120   2.997 -0.6623  0.0123  0.1056
  525SOL    HW1 1574   3.167   1.131   3.076 -2.8056 -1.4165 -1.0338
  525SOL    HW2 1575   3.157   1.115   2.926  1.1551  0.3665 -1.6309
  526SOL     OW 1576   3.531   2.268   2.947  0.0739  0.0592 -0.4920
  526SOL    HW1 1577   3.559   2.183   2.981  0.6663  0.1249 -0.8168
  526SOL    HW2 1578   3.469   2.247   2.877 -1.3320 -0.0783  0.7397
  527SOL     OW 1579   2.734   2.774   1.244 -0.0463 -0.0540  0.3807
  527SOL    HW1 1580   2.698   2.686   1.253 -2.2274  0.3785 -2.6891
  527SOL    HW2 1581   2.763   2.779   1.153  2.2773  1.6881  1.1102
  528SOL     OW 1582   2.986   0.050   3.985  0.5175 -0.1224  0.4932
  528SOL    HW1 1583   2.894   0.040   3.962  0.5369  0.3927  0.1827
  528SOL    HW2 1584   3.032  -0.004   3.921  0.7266  2.8650 -2.1129
  529SOL     OW 1585   2.438   3.259   3.221 -0.0528 -0.1356  0.1731
  529SOL    HW1 1586   2.348   3.241   3.251 -1.0855  0.6070 -2.1802
  529SOL    HW2 1587   2.426   3.304   3.137  2.5536  0.0326 -0.1829
  530SOL     OW 1588   3.288   3.291   2.098 -0.7045  0.3520  0.3436
  530SOL    HW1 1589   3.210   3.324   2.054 -0.1525 -0.4066 -1.2772
  530SOL    HW2 1590   3.254   3.236   2.169 -1.6424  0.3557 -0.0908
  531SOL     OW 1591   2.700   2.607   0.519 -0.7457  0.0370  0.4575
  531SOL    HW1 1592   2.625   2.653   0.556  0.2386  0.2604  2.3116
  531SOL    HW2 1593   2.698   2.521   0.561  0.2646  0.2023  0.8636
  532SOL     OW 1594   2.156   3.986   2.233 -0.1800 -0.3668  0.1130
  532SOL    HW1 1595   2.128   3.973   2.142  0.8919 -1.0751 -0.1370
  532SOL    HW2 1596   2.151   3.900   2.273 -0.5094 -0.0818  0.6948
  533SOL     OW 1597   2.088   2.748   1.680  0.2505  0.2389 -0.0296
  533SOL    HW1 1598   2.063   2.670   1.630  0.4505 -0.1916  0.5285
  533SOL    HW2 1599   2.130   2.714   1.759  1.2437  0.9359 -0.2444
  534SOL     OW 1600   0.697   3.624   2.720 -0.2114  0.0957  0.0473
  534SOL    HW1 1601   0.687   3.719   2.727  2.4700  0.5635 -1.1886
  534SOL    HW2 1602   0.611   3.593   2.691 -0.8111  2.2942 -0.7557
  535SOL     OW 1603   0.580   0.510   0.971  0.2104 -0.0544 -0.5124
  535SOL    HW1 1604   0.646   0.572   0.943  0.7733 -0.7658 -0.7938
  535SOL    HW2 1605   0.603   0.428   0.927 -0.8685 -0.3085 -0.6319
  536SOL     OW 1606   3.904   3.609   0.489  0.4734  0.5204 -0.7305
  536SOL    HW1 1607   3.822   3.565   0.510  0.0192  1.4951 -0.3750
  536SOL    HW2 1608   3.957   3.600   0.569  1.1749 -1.0682 -1.3378
  537SOL     OW 1609   3.744   3.207   0.034 -0.3004  0.2672 -0.0672
  537SOL    HW1 1610   3.809   3.275   0.019 -1.3593  1.3846  0.1856
  537SOL    HW2 1611   3.709   3.187  -0.053 -2.3100  2.5096  0.0929
  538SOL     OW 1612   2.806   1.475   1.700 -0.1448  0.3076  0.4831
  538SOL    HW1 1613   2.856   1.401   1.735 -1.1763 -0.9462 -0.5662
  538SOL    HW2 1614   2.861   1.551   1.715  1.6971 -0.9078  0.1191
  539SOL     OW 1615   3.188   2.326   3.538  0.4934 -0.0357 -0.0951
  539SOL    HW1 1616   3.156   2.370   3.459 -0.4178  0.0302  0.3038
  539SOL    HW2 1617   3.236   2.250   3.505 -0.7115 -0.5584 -0.6960
  540SOL     OW 1618   2.455   1.853   2.128 -0.2709 -0.1233  0.4538
  540SOL    HW1 1619   2.457   1.938   2.085 -0.9361  0.6352  1.8762
  540SOL    HW2 1620   2.485   1.870   2.217 -3.0683 -0.8057  1.6353
  541SOL     OW 1621   2.405   3.851   3.196  0.3623 -0.5485 -0.1396
  541SOL    HW1 1622   2.400   3.795   3.273  0.8787 -2.5058 -1.4581
  541SOL    HW2 1623   2.327   3.906   3.201  1.6973  1.3344  3.1406
  542SOL     OW 1624   1.493   1.911   1.850 -0.1310  0.1249  0.1487
  542SOL    HW1 1625   1.509   1.821   1.823  2.4255  0.1171  1.3731
  542SOL    HW2 1626   1.470   1.957   1.769  2.2263 -0.9191 -1.2319
  543SOL     OW 1627   0.780   0.577   3.979  0.2914 -0.4996  0.4073
  543SOL    HW1 1628   0.813   0.512   4.042 -0.4149 -0.8211  0.4591
  543SOL    HW2 1629   0.714   0.529   3.928  0.1026  0.0493  0.1298
  544SOL     OW 1630   2.966   3.643   1.077 -0.0922 -0.4455 -0.2166
  544SOL    HW1 1631   3.005   3.730   1.064 -0.3017 -0.3997 -0.5454
  544SOL    HW2 1632   3.021   3.602   1.143  0.9534 -0.6612 -1.2015
  545SOL     OW 1633   0.779   2.984   0.656 -0.0107 -0.6080 -0.5080
  545SOL    HW1 1634   0.864   2.943   0.671 -0.1920 -1.0176 -0.5901
  545SOL    HW2 1635   0.800   3.069   0.618  0.4893  0.6054  2.2443
  546SOL     OW 1636   2.092   2.538   2.499  0.1071  0.0901 -0.2666
  546SOL    HW1 1637   2.130   2.508   2.416 -3.5285 -1.1040 -1.6941
  546SOL    HW2 1638   2.045   2.462   2.532 -0.8303  1.3580  1.4525
  547SOL     OW 1639   2.751   3.487   2.316 -0.1719 -0.4129 -0.1183
  547SOL    HW1 1640   2.768   3.563   2.261  2.4097 -0.1740  0.8536
  547SOL    HW2 1641   2.719   3.524   2.399  1.9526 -0.2181  0.6810
  548SOL     OW 1642   3.300   0.286   1.434  0.3548  0.5947 -0.7040
  548SOL    HW1 1643   3.225   0.332   1.397  0.2805  2.2041  1.2749
  548SOL    HW2 1644   3.336   0.347   1.499  3.1828 -0.2673 -1.3321
  549SOL     OW 1645   2.390   2.986   2.893  0.6029 -0.0668  0.1168
  549SOL    HW1 1646   2.299   2.973   2.918  0.8733  0.7919  1.6443
  549SOL    HW2 1647   2.386   3.020   2.804 -0.5645  0.0498  0.1988
  550SOL     OW 1648   3.923   0.737   0.439 -0.0143 -0.6271 -0.4360
  550SOL    HW1 1649   3.891   0.651   0.410  1.0107 -0.7075 -1.4047
  550SOL    HW2 1650   4.019   0.730   0.433  0.1864 -0.0765  1.4474
  551SOL     OW 1651   1.872   1.980   2.908  0.8918 -0.2481 -0.3431
  551SOL    HW1 1652   1.940   1.920   2.876  0.8295 -0.5282  0.0444
  551SOL    HW2 1653   1.921   2.055   2.941  0.9574  0.0475 -1.0803
  552SOL     OW 1654   2.865   2.836   2.181  0.0601  0.7682  0.3710
  552SOL    HW1 1655   2.807   2.786   2.124 -1.0253  1.2119  1.0583
  552SOL    HW2 1656   2.906   2.901   2.122 -0.7312  0.9594  0.0216
  553SOL     OW 1657   1.693   0.873   0.132  0.1459 -0.9373  0.3437
  553SOL    HW1 1658   1.634   0.945   0.154  2.1740  1.5511 -1.6864
  553SOL    HW2 1659   1.721   0.892   0.042  2.5512 -3.0280  0.5412
  554SOL     OW 1660   0.495   1.307   0.100  0.6829  0.7022 -0.3054
  554SOL    HW1 1661   0.417   1.286   0.151 -0.0121  1.7657 -0.8916
  554SOL    HW2 1662   0.470   1.287   0.010  2.4843 -2.9192 -0.1860
  555SOL     OW 1663   0.573   0.828   0.274 -0.4829 -0.5436 -0.2548
  555SOL    HW1 1664   0.576   0.815   0.179 -0.6001 -2.5877 -0.0213
  555SOL    HW2 1665   0.650   0.783   0.307 -1.2432 -1.1411  0.7441
  556SOL     OW 1666   3.173   2.807   1.389 -0.3288  0.2564 -0.3610
  556SOL    HW1 1667   3.210   2.895   1.379  1.7255 -0.4841  0.1583
  556SOL    HW2 1668   3.191   2.784   1.480 -1.7064 -0.3615 -0.2289
  557SOL     OW 1669   1.352   0.455   0.271 -0.0030  0.0508  0.2976
  557SOL    HW1 1670   1.339   0.471   0.365  2.5998 -2.8414  1.3254
  557SOL    HW2 1671   1.409   0.526   0.242 -0.8947  1.0153  0.8450
  558SOL     OW 1672   2.689   3.368   1.121  0.1588 -0.4195 -0.4047
  558SOL    HW1 1673   2.773   3.414   1.122  0.3263 -0.7351  0.0560
  558SOL    HW2 1674   2.658   3.372   1.212  0.5446 -1.8831 -0.1908
  559SOL     OW 1675   0.088   0.248   3.136  0.0630  0.2853 -0.5063
  559SOL    HW1 1676   0.170   0.278   3.174  0.3170  0.6466 -1.3315
  559SOL    HW2 1677   0.026   0.319   3.154 -0.8616 -1.1266  2.6104
  560SOL     OW 1678   0.391   1.362   1.566  0.0164 -0.2435 -0.3644
  560SOL    HW1 1679   0.371   1.432   1.504 -0.5398 -0.4439 -0.4142
  560SOL    HW2 1680   0.315   1.304   1.563 -0.6443  0.4364  1.4797
  561SOL     OW 1681   0.220   1.387   0.939  0.5531  0.2113  0.3188
  561SOL    HW1 1682   0.297   1.444   0.941  0.5369  0.2678 -0.4120
  561SOL    HW2 1683   0.147   1.446   0.958  0.6507  0.2063  0.7410
  562SOL     OW 1684   3.062   2.833   0.200 -0.2497 -0.3447 -0.7216
  562SOL    HW1 1685   3.012   2.795   0.128 -2.0217  1.6019 -0.6010
  562SOL    HW2 1686   3.028   2.789   0.278 -1.1045  0.2804 -0.7331
  563SOL     OW 1687   2.769   0.921   1.335 -0.3284 -0.6769  0.6437
  563SOL    HW1 1688   2.778   1.015   1.352  0.5665 -0.9089  1.6010
  563SOL    HW2 1689   2.820   0.907   1.255  0.1098 -0.4469  0.8739
  564SOL     OW 1690   1.714   2.218   2.791  0.2703 -0.0959 -0.1371
  564SOL    HW1 1691   1.807   2.231   2.810 -0.1366  0.4070  1.7700
  564SOL    HW2 1692   1.669   2.248   2.871 -1.4005 -2.5112 -0.0582
  565SOL     OW 1693   0.302   2.356   3.614 -0.1314 -0.3629  0.3512
  565SOL    HW1 1694   0.279   2.431   3.668  0.4987  0.3512 -0.3447
  565SOL    HW2 1695   0.318   2.393   3.527  1.7229 -1.0528  0.3491
  566SOL     OW 1696   0.598   0.785   0.012  0.3854 -0.5938 -0.5729
  566SOL    HW1 1697   0.518   0.733   0.007 -0.9620  1.1305  1.2228
  566SOL    HW2 1698   0.668   0.722  -0.003 -1.2578 -2.2498 -1.8357
  567SOL     OW 1699   0.960   1.617   0.099  0.6055  0.1789  0.4342
  567SOL    HW1 1700   0.913   1.687   0.052 -0.0812  0.4037  1.4193
  567SOL    HW2 1701   0.890   1.562   0.135  1.1029  0.2746  1.5743
  568SOL     OW 1702   0.530   3.451   1.366  0.2611 -0.3058 -0.2117
  568SOL    HW1 1703   0.535   3.537   1.407  2.9450 -1.1046  1.3695
  568SOL    HW2 1704   0.518   3.470   1.273  0.8248  1.7692  0.0905
  569SOL     OW 1705   1.593   1.623   2.878 -0.1638  0.4041  0.0723
  569SOL    HW1 1706   1.583   1.699   2.936  0.0041 -0.8518  1.8415
  569SOL    HW2 1707   1.681   1.590   2.897 -0.5161 -0.6689 -0.0736
  570SOL     OW 1708   3.429   1.045   3.182 -0.5499  0.3087  0.2048
  570SOL    HW1 1709   3.352   1.067   3.130 -0.9287  0.5991  0.8794
  570SOL    HW2 1710   3.397   0.986   3.250  0.5177 -2.8057 -1.7826
  571SOL     OW 1711   2.907   2.750   2.994  0.0739 -0.5479  0.5990
  571SOL    HW1 1712   2.972   2.790   3.051  1.3327 -0.3584 -0.8944
  571SOL    HW2 1713   2.825   2.751   3.045  0.6588  1.5021  1.5740
  572SOL     OW 1714   3.898   3.718   3.102 -0.7716 -0.5023 -0.4402
  572SOL    HW1 1715   3.902   3.813   3.092 -0.9720 -0.5248 -0.7734
  572SOL    HW2 1716   3.989   3.689   3.101 -0.7509 -0.4852 -2.1626
  573SOL     OW 1717   2.864   1.557   1.216 -0.3003 -1.0177  0.0567
  573SOL    HW1 1718   2.956   1.568   1.241 -0.1448  1.6935 -1.3678
  573SOL    HW2 1719   2.867   1.507   1.134  0.0206  0.1349 -0.6498
  574SOL     OW 1720   2.193   2.685   3.846 -0.1811 -0.2903  0.4663
  574SOL    HW1 1721   2.264   2.743   3.875  0.8606 -1.3222  0.0904
  574SOL    HW2 1722   2.114   2.738   3.852  0.9008  1.6873 -1.3263
  575SOL     OW 1723   2.318   0.467   2.007  0.1860  0.2321 -0.2313
  575SOL    HW1 1724   2.324   0.376   1.977 -0.7882  0.1419 -0.1665
  575SOL    HW2 1725   2.233   0.473   2.050 -0.4048  1.5356 -1.5048
  576SOL     OW 1726   3.475   1.657   3.404  0.6915 -0.2261  0.2737
  576SOL    HW1 1727   3.540   1.672   3.335  0.5243  1.2187  0.3967
  576SOL    HW2 1728   3.453   1.564   3.396  2.0884 -0.5339 -0.3631
  577SOL     OW 1729   1.901   1.587   2.191 -0.6288  1.3747  0.1824
  577SOL    HW1 1730   1.880   1.494   2.195  0.6632  1.0644  4.2072
  577SOL    HW2 1731   1.919   1.604   2.098 -1.0127 -2.3150 -0.7063
  578SOL     OW 1732   2.235   1.181   1.307  0.2355 -0.4078  0.0494
  578SOL    HW1 1733   2.298   1.235   1.260 -1.1754  1.4476  0.1642
  578SOL    HW2 1734   2.271   1.173   1.396 -0.2451  1.7832  0.5154
  579SOL     OW 1735   0.281   3.469   3.067  0.5075 -0.3560 -0.6374
  579SOL    HW1 1736   0.213   3.428   3.013  0.2867  1.6665 -1.9869
  579SOL    HW2 1737   0.322   3.533   3.010  1.7859  0.3250  0.9698
  580SOL     OW 1738   3.682   1.640   1.382  0.4565  1.0263  0.2860
  580SOL    HW1 1739   3.752   1.706   1.377  1.2676  0.1746 -0.0066
  580SOL    HW2 1740   3.720   1.563   1.340  0.2125 -0.2209  2.2293
  581SOL     OW 1741   1.643   3.530   1.904  0.2310 -0.2584  0.5304
  581SOL    HW1 1742   1.725   3.487   1.927 -0.6171 -2.9538 -1.0086
  581SOL    HW2 1743   1.577   3.486   1.957 -0.6166 -0.6376 -0.7721
  582SOL     OW 1744   3.339   2.688   1.156  0.2349 -0.3426 -0.0108
  582SOL    HW1 1745   3.276   2.706   1.226 -0.9101  0.2652 -1.1673
  582SOL    HW2 1746   3.286   2.672   1.079  1.4720 -1.2487 -0.7144
  583SOL     OW 1747   0.430   0.579   0.391  0.0704 -0.9307  0.3682
  583SOL    HW1 1748   0.462   0.489   0.394  1.3315 -0.5805 -1.0843
  583SOL    HW2 1749   0.466   0.620   0.470  0.7877 -1.3177  0.2516
  584SOL     OW 1750   3.531   2.453   3.464 -0.0851 -0.1780 -0.3520
  584SOL    HW1 1751   3.499   2.543   3.457  3.0830  1.3733  2.3434
  584SOL    HW2 1752   3.608   2.450   3.407  0.1224 -1.0403 -0.0396
  585SOL     OW 1753   0.284   1.647   1.593 -0.4410 -0.1523 -0.1010
  585SOL    HW1 1754   0.359   1.656   1.652  0.3985 -0.8675 -1.0278
  585SOL    HW2 1755   0.244   1.564   1.617  0.8995 -1.2893 -1.5879
  586SOL     OW 1756   1.433   3.393   0.306  0.1038  0.0629 -0.4013
  586SOL    HW1 1757   1.359   3.352   0.261 -0.5245 -1.6109  2.0108
  586SOL    HW2 1758   1.405   3.400   0.397  2.0505  1.5880  0.1480
  587SOL     OW 1759   0.031   2.032   0.239 -0.1914 -0.2968 -0.2599
  587SOL    HW1 1760   0.073   1.949   0.261  3.1986  1.2323 -0.3694
  587SOL    HW2 1761   0.008   2.024   0.147 -0.9985 -1.4938  0.0232
  588SOL     OW 1762   0.805   3.346   1.304  0.4295 -0.5956 -0.4313
  588SOL    HW1 1763   0.714   3.374   1.313  0.2391 -1.2504 -0.2827
  588SOL    HW2 1764   0.842   3.358   1.392  0.6800  0.2954 -0.6410
  589SOL     OW 1765   2.554   0.207   2.290 -0.1283 -0.6650 -0.5089
  589SOL    HW1 1766   2.508   0.251   2.218  0.9694 -0.9077 -1.3762
  589SOL    HW2 1767   2.490   0.206   2.361  0.1523  3.4278  0.0540
  590SOL     OW 1768   3.066   1.020   0.855  0.3479 -0.3724 -0.4705
  590SOL    HW1 1769   3.052   1.082   0.783  1.2974 -0.0647 -0.3905
  590SOL    HW2 1770   3.142   1.053   0.902  0.9880 -1.6825 -0.5293
  591SOL     OW 1771   3.271   2.402   2.265 -0.2635  0.4943  0.3248
  591SOL    HW1 1772   3.205   2.462   2.300 -1.5911 -0.4703 -0.4174
  591SOL    HW2 1773   3.305   2.357   2.343  0.0362  1.5019  0.7837
  592SOL     OW 1774   0.655   2.302   2.222  0.2439 -0.3210 -0.1589
  592SOL    HW1 1775   0.724   2.274   2.162 -0.4037  0.9736 -1.5790
  592SOL    HW2 1776   0.574   2.267   2.184 -0.0281 -0.7554  0.7997
  593SOL     OW 1777   2.068   3.977   1.985  0.0213  0.5268  0.2948
  593SOL    HW1 1778   1.980   4.006   1.960  0.6542 -0.5763 -3.9594
  593SOL    HW2 1779   2.125   4.010   1.915  2.4922 -1.3913  1.2598
  594SOL     OW 1780   1.800   0.981   1.786 -0.1115  0.1314 -0.1410
  594SOL    HW1 1781   1.709   0.989   1.757  0.5100 -1.4906 -2.9648
  594SOL    HW2 1782   1.816   0.887   1.789  1.8047  0.3754 -0.9850
  595SOL     OW 1783   3.759   1.489   0.066 -0.0277  0.2354  0.3872
  595SOL    HW1 1784   3.817   1.510  -0.008 -0.2511  0.3076  0.2287
  595SOL    HW2 1785   3.696   1.426   0.029  1.3172 -1.6410  1.1495
  596SOL     OW 1786   0.621   3.363   3.721 -0.3532 -0.0519  0.4284
  596SOL    HW1 1787   0.660   3.409   3.647 -0.3738 -1.6831 -0.6417
  596SOL    HW2 1788   0.544   3.319   3.685 -1.1766  0.2556  1.7379
  597SOL     OW 1789   2.980   2.149   1.336  0.3990 -0.1125 -0.5223
  597SOL    HW1 1790   2.907   2.210   1.347  0.3980 -0.0499 -0.8477
  597SOL    HW2 1791   3.055   2.206   1.318  0.1409 -0.2393 -2.1905
  598SOL     OW 1792   2.213   2.574   0.144  0.8622  0.1775  0.2401
  598SOL    HW1 1793   2.287   2.622   0.108  0.5787 -0.0405 -0.6434
  598SOL    HW2 1794   2.243   2.484   0.149  0.0016 -0.3109 -2.0882
  599SOL     OW 1795   3.695   2.392   0.669  0.0366  0.0501 -0.6160
  599SOL    HW1 1796   3.757   2.404   0.597 -0.0295  1.8497 -0.4106
  599SOL    HW2 1797   3.750   2.387   0.747 -0.0627  2.1063 -0.3836
  600SOL     OW 1798   2.093   1.916   2.216 -0.1160  0.5571  0.3313
  600SOL    HW1 1799   2.111   1.828   2.251  0.5423  0.1273 -1.0189
  600SOL    HW2 1800   2.122   1.912   2.125  1.4697  2.6592  0.6514
  601SOL     OW 1801   0.797   0.056   1.210  0.1729 -0.2974  0.2395
  601SOL    HW1 1802   0.839  -0.000   1.275 -0.9470 -0.0019  1.2528
  601SOL    HW2 1803   0.860   0.060   1.137  0.8181 -1.8140  0.6730
  602SOL     OW 1804   2.033   1.573   2.472  0.5090  0.3020  0.4543
  602SOL    HW1 1805   1.989   1.579   2.388 -1.2708  0.5886  1.3722
  602SOL    HW2 1806   2.122   1.546   2.450  0.8227  2.6827 -1.7104
  603SOL     OW 1807   2.985   3.004   1.565  0.2658 -0.6583 -0.1062
  603SOL    HW1 1808   3.075   3.037   1.555 -0.5759  1.3693 -1.7653
  603SOL    HW2 1809   2.965   2.962   1.481 -0.9031  0.4838 -0.4266
  604SOL     OW 1810   3.134   1.476   1.436 -0.3504  0.4538  0.7127
  604SOL    HW1 1811   3.162   1.564   1.411  0.3471  0.3324  1.0575
  604SOL    HW2 1812   3.174   1.461   1.522 -1.3445  0.2113  1.1474
  605SOL     OW 1813   2.564   3.138   2.077  0.1512 -0.1919 -0.1650
  605SOL    HW1 1814   2.531   3.088   2.003  0.9689 -1.8952  0.5806
  605SOL    HW2 1815   2.487   3.151   2.133  0.0099 -0.9944 -0.1656
  606SOL     OW 1816   0.325   2.756   3.460  0.4059  0.0069 -0.9109
  606SOL    HW1 1817   0.414   2.769   3.494  0.4167 -0.0650 -0.9120
  606SOL    HW2 1818   0.330   2.675   3.410  0.3579  0.0436 -0.9752
  607SOL     OW 1819   3.867   1.254   3.159 -0.6050  0.0902  0.2332
  607SOL    HW1 1820   3.778   1.250   3.195 -1.0759  0.2647 -0.8704
  607SOL    HW2 1821   3.858   1.303   3.077  0.8081  1.6638  0.9624
  608SOL     OW 1822   1.245   2.618   1.714  0.0792  0.6041  0.2782
  608SOL    HW1 1823   1.235   2.713   1.706 -0.1463  0.5149 -0.6690
  608SOL    HW2 1824   1.176   2.582   1.659  0.9236 -0.0957 -0.3539
  609SOL     OW 1825   0.529   0.505   0.148  0.1091 -0.3186 -0.8082
  609SOL    HW1 1826   0.492   0.563   0.214  0.5364 -1.6076  0.6080
  609SOL    HW2 1827   0.466   0.433   0.142  1.4586 -1.6501  0.3389
  610SOL     OW 1828   2.092   1.869   3.688 -0.7258 -0.5805  0.1334
  610SOL    HW1 1829   2.112   1.814   3.764  0.2009 -1.4457 -0.7085
  610SOL    HW2 1830   2.177   1.885   3.647 -1.2196 -0.1695 -0.7631
  611SOL     OW 1831   2.186   1.545   1.508  0.1496 -0.6201 -0.3278
  611SOL    HW1 1832   2.246   1.524   1.579 -0.4191  1.2541  0.7556
  611SOL    HW2 1833   2.112   1.486   1.521  0.1410 -0.4256  0.5228
  612SOL     OW 1834   1.345   1.163   3.578 -0.3441  0.0407 -0.2378
  612SOL    HW1 1835   1.342   1.240   3.520  1.3955  1.6525  1.6532
  612SOL    HW2 1836   1.256   1.154   3.611 -1.1375 -0.3200 -2.3514
  613SOL     OW 1837   0.607   3.476   0.755 -0.1444 -0.1713 -0.0009
  613SOL    HW1 1838   0.643   3.478   0.667 -0.7166  0.8664 -0.2328
  613SOL    HW2 1839   0.614   3.385   0.783  0.3464 -0.4403 -0.9901
  614SOL     OW 1840   0.631   0.867   2.757 -0.3383  0.2090 -0.3535
  614SOL    HW1 1841   0.640   0.827   2.670 -0.1292  1.2912 -0.8536
  614SOL    HW2 1842   0.704   0.833   2.807 -0.4433 -0.4086 -0.6094
  615SOL     OW 1843   1.871   3.386   1.922  0.3160  0.1738 -0.0945
  615SOL    HW1 1844   1.891   3.397   1.829  1.2690  1.5583  0.2495
  615SOL    HW2 1845   1.921   3.309   1.949 -1.7856 -1.7052 -1.2100
  616SOL     OW 1846   0.645   1.425   1.945 -0.0650  0.1272  0.5412
  616SOL    HW1 1847   0.617   1.334   1.933 -0.5962  0.2242  1.0271
  616SOL    HW2 1848   0.671   1.453   1.857 -0.3119 -0.3579  0.3082
  617SOL     OW 1849   0.127   1.447   1.653 -0.2616  0.8793  0.1643
  617SOL    HW1 1850   0.119   1.374   1.713 -1.8719  0.2351 -0.7781
  617SOL    HW2 1851   0.040   1.456   1.613  0.5994  1.5774 -1.6959
  618SOL     OW 1852   1.467   2.209   3.254 -0.3185 -0.4266 -0.1290
  618SOL    HW1 1853   1.453   2.274   3.185  1.2392 -0.4705 -0.5330
  618SOL    HW2 1854   1.443   2.126   3.214  1.3866 -0.5677 -0.9650
  619SOL     OW 1855   3.346   3.658   1.089 -0.3987  0.1316  0.2009
  619SOL    HW1 1856   3.389   3.650   1.003  0.5266 -1.7286  0.7924
  619SOL    HW2 1857   3.259   3.692   1.069 -0.4858 -1.0195 -1.5624
  620SOL     OW 1858   1.845   2.195   3.318 -0.1832 -0.2093  0.0055
  620SOL    HW1 1859   1.891   2.140   3.382  0.1704  1.1371  0.9405
  620SOL    HW2 1860   1.752   2.183   3.339 -0.1608 -1.1015 -0.3605
  621SOL     OW 1861   0.490   3.217   0.429  0.6418 -0.2896 -0.3675
  621SOL    HW1 1862   0.490   3.123   0.446  2.6101  0.0157  1.7683
  621SOL    HW2 1863   0.488   3.224   0.333 -2.0941 -2.3833 -0.5783
  622SOL     OW 1864   0.818   2.204   3.502  0.1368 -0.5129 -0.5413
  622SOL    HW1 1865   0.767   2.134   3.461  0.2771 -2.0626  1.7304
  622SOL    HW2 1866   0.764   2.282   3.493 -1.7958 -1.7042  0.1101
  623SOL     OW 1867   2.206   3.460   1.424  0.2847 -0.0884  0.0519
  623SOL    HW1 1868   2.145   3.390   1.404 -0.8374  0.9768 -0.3732
  623SOL    HW2 1869   2.174   3.498   1.506 -0.6946  1.5952 -1.0663
  624SOL     OW 1870   2.831   1.017   1.056 -1.0435  0.2932  0.1553
  624SOL    HW1 1871   2.859   1.029   0.965  1.5127  0.7978  0.9360
  624SOL    HW2 1872   2.783   1.097   1.077 -0.8221  0.5975 -0.4694
  625SOL     OW 1873   3.354   0.338   2.924  0.1773  0.5494  0.6221
  625SOL    HW1 1874   3.415   0.391   2.975  0.5859 -0.4500  1.1931
  625SOL    HW2 1875   3.405   0.261   2.897  0.0023  1.0873 -1.3884
  626SOL     OW 1876   0.184   3.878   0.493 -0.2187 -0.3897 -0.3545
  626SOL    HW1 1877   0.116   3.852   0.556  0.7434  0.5296  1.1441
  626SOL    HW2 1878   0.189   3.805   0.431 -2.7501 -0.3588 -0.7011
  627SOL     OW 1879   3.257   2.727   0.522  0.7998  0.4401  0.7124
  627SOL    HW1 1880   3.347   2.719   0.555 -0.0061  0.7222  3.1622
  627SOL    HW2 1881   3.218   2.796   0.575 -1.7763 -1.7635  1.8925
  628SOL     OW 1882   3.573   0.110   1.788 -0.3400  0.6813  0.4315
  628SOL    HW1 1883   3.620   0.188   1.818  1.1190 -0.3601  0.9341
  628SOL    HW2 1884   3.608   0.092   1.701 -0.0337  0.0857  0.6731
  629SOL     OW 1885   1.037   3.108   1.729  0.5642 -0.2471  0.1663
  629SOL    HW1 1886   1.033   3.107   1.824  3.4534 -2.9778  0.4254
  629SOL    HW2 1887   1.124   3.142   1.709  0.3335 -0.5284 -1.4557
  630SOL     OW 1888   3.356   2.066   3.376 -0.7010  0.7070  0.8548
  630SOL    HW1 1889   3.323   1.986   3.418  2.7917 -0.6904  1.2561
  630SOL    HW2 1890   3.340   2.053   3.283  0.8833 -1.0929  0.7859
  631SOL     OW 1891   3.122   1.710   3.081 -0.2345 -0.1684 -0.3105
  631SOL    HW1 1892   3.073   1.757   3.014  0.0166  0.9625  0.2735
  631SOL    HW2 1893   3.214   1.726   3.059 -0.1512  1.0190  0.8380
  632SOL     OW 1894   3.339   0.367   2.452 -0.3573  0.1430  0.3462
  632SOL    HW1 1895   3.382   0.452   2.456  0.9386 -0.4370 -0.6011
  632SOL    HW2 1896   3.350   0.338   2.361 -0.9078 -0.9652  0.6114
  633SOL     OW 1897   2.014   3.679   1.651 -0.1364  0.8056  0.1584
  633SOL    HW1 1898   1.925   3.691   1.682 -0.4802  0.6260 -0.7327
  633SOL    HW2 1899   2.062   3.755   1.685 -0.9956  1.7525 -0.6841
  634SOL     OW 1900   1.734   2.231   1.997  0.2165 -0.3777  0.4196
  634SOL    HW1 1901   1.795   2.193   2.060 -0.0771 -1.4835  0.0767
  634SOL    HW2 1902   1.648   2.212   2.034  0.0488  1.6475  1.1747
  635SOL     OW 1903   1.692   0.050   3.363 -0.4494 -0.3688 -0.7094
  635SOL    HW1 1904   1.645   0.040   3.280  0.0997 -0.7716 -0.9823
  635SOL    HW2 1905   1.658  -0.021   3.418 -0.4354 -0.4315 -0.7801
  636SOL     OW 1906   0.298   3.677   1.923 -0.2176  0.0404 -0.5576
  636SOL    HW1 1907   0.382   3.720   1.942 -1.1142  1.4247  0.4818
  636SOL    HW2 1908   0.233   3.746   1.934 -1.5278 -1.0824 -1.0472
  637SOL     OW 1909   2.032   0.806   1.464 -0.3342  0.2555 -0.6536
  637SOL    HW1 1910   2.025   0.720   1.423 -2.0845 -0.0329  0.1483
  637SOL    HW2 1911   2.065   0.787   1.552 -2.8952  0.0874  0.3380
  638SOL     OW 1912   1.645   1.849   1.099 -0.0546  0.3485  0.2399
  638SOL    HW1 1913   1.658   1.754   1.102 -1.8370  0.0607  0.3521
  638SOL    HW2 1914   1.647   1.871   1.005 -2.0133 -0.2296  0.0220
  639SOL     OW 1915   1.260   1.211   1.573  0.0768  0.3536  0.2831
  639SOL    HW1 1916   1.266   1.293   1.622 -1.0703 -0.0706  1.1868
  639SOL    HW2 1917   1.202   1.156   1.626  0.4177 -0.8605 -0.5625
  640SOL     OW 1918   0.771   0.627   1.242  0.1204 -0.0351  0.3236
  640SOL    HW1 1919   0.834   0.646   1.172 -2.2016 -0.5515 -2.1015
  640SOL    HW2 1920   0.724   0.549   1.211 -2.2969  0.8618  1.4888
  641SOL     OW 1921   0.015   3.664   2.343 -0.5106 -0.0581  0.0417
  641SOL    HW1 1922   0.016   3.705   2.429 -2.7834  1.3633 -0.5080
  641SOL    HW2 1923   0.070   3.587   2.352 -0.4328  0.2234  2.6777
  642SOL     OW 1924   2.213   1.569   3.295  0.5562 -0.3446  0.0318
  642SOL    HW1 1925   2.226   1.658   3.262  1.8424 -0.4199  0.2766
  642SOL    HW2 1926   2.284   1.518   3.255  1.0570 -0.8165  1.4552
  643SOL     OW 1927   0.967   0.673   1.072  0.3531  0.2070 -0.0170
  643SOL    HW1 1928   1.003   0.612   1.008 -2.5781  0.1934 -1.8295
  643SOL    HW2 1929   0.943   0.751   1.021 -0.0284  1.1015  1.4590
  644SOL     OW 1930   3.623   1.202   0.949  0.4563 -0.2286  0.1648
  644SOL    HW1 1931   3.631   1.173   1.040 -0.4855 -1.7100 -0.1913
  644SOL    HW2 1932   3.665   1.134   0.897 -1.7083 -1.0363 -0.6805
  645SOL     OW 1933   1.560   1.520   0.292 -0.0968 -0.4627 -0.0759
  645SOL    HW1 1934   1.488   1.463   0.266  0.1849 -0.9632  0.2128
  645SOL    HW2 1935   1.633   1.460   0.309  0.3788  0.0315 -0.3302
  646SOL     OW 1936   2.089   3.394   3.087  0.5124  0.0870  0.6103
  646SOL    HW1 1937   2.004   3.352   3.072  0.5944 -0.1483  0.7987
  646SOL    HW2 1938   2.124   3.350   3.164 -0.8677  2.7054  2.9033
  647SOL     OW 1939   3.241   1.812   1.871 -0.5385 -0.3568  0.2511
  647SOL    HW1 1940   3.189   1.732   1.881 -1.5366  0.4511  2.4322
  647SOL    HW2 1941   3.332   1.783   1.871 -0.9036 -1.6811 -1.9773
  648SOL     OW 1942   1.585   1.533   2.617  0.2019 -0.3753  0.4372
  648SOL    HW1 1943   1.583   1.598   2.547  0.0535 -0.4982  0.3272
  648SOL    HW2 1944   1.621   1.580   2.692  2.1717 -0.7191 -0.2246
  649SOL     OW 1945   0.953   0.358   2.931 -0.2468  0.4755  0.4473
  649SOL    HW1 1946   1.002   0.440   2.936 -1.7021  1.3525  1.1793
  649SOL    HW2 1947   0.932   0.348   2.838  1.0972  0.1772  0.1478
  650SOL     OW 1948   3.726   0.498   2.093 -0.1324 -0.1769  0.2451
  650SOL    HW1 1949   3.738   0.559   2.166 -0.9472  1.4854 -0.9643
  650SOL    HW2 1950   3.744   0.550   2.015 -2.1603 -1.0919 -0.9103
  651SOL     OW 1951   3.900   0.186   1.835 -0.4329  0.0219  1.0049
  651SOL    HW1 1952   3.855   0.133   1.769 -0.1292 -1.7684  2.1700
  651SOL    HW2 1953   3.846   0.177   1.913 -0.8126  2.1511  1.0468
  652SOL     OW 1954   0.241   2.347   1.242 -0.6795  0.2093  0.4418
  652SOL    HW1 1955   0.221   2.285   1.172 -0.2368 -0.0546  0.5463
  652SOL    HW2 1956   0.178   2.326   1.311 -0.9899  0.3421  0.2028
  653SOL     OW 1957   1.915   2.526   1.570 -0.6631  0.2501  0.2929
  653SOL    HW1 1958   1.969   2.503   1.494 -1.5694 -2.0410  0.2742
  653SOL    HW2 1959   1.827   2.500   1.545 -1.0723  0.0048  1.9084
  654SOL     OW 1960   3.949   0.632   1.178  0.3337 -0.5310  0.2608
  654SOL    HW1 1961   3.874   0.664   1.127  1.9305  2.9936 -0.1826
  654SOL    HW2 1962   3.987   0.563   1.123 -0.3571  0.3598 -1.4122
  655SOL     OW 1963   0.718   1.764   1.925  0.5475 -0.2045  0.5513
  655SOL    HW1 1964   0.789   1.705   1.950  0.9410  0.3157  0.6884
  655SOL    HW2 1965   0.762   1.836   1.880 -0.2495 -1.8057 -3.0731
  656SOL     OW 1966   2.465   2.737   2.517 -0.2728 -0.2256 -0.1571
  656SOL    HW1 1967   2.470   2.708   2.608 -1.2331  0.9432  0.2927
  656SOL    HW2 1968   2.553   2.770   2.498 -0.4358  0.8514  0.8339
  657SOL     OW 1969   2.186   1.890   1.964 -0.4437  0.0586  0.8363
  657SOL    HW1 1970   2.171   1.963   1.904 -1.6733 -0.4201  0.5351
  657SOL    HW2 1971   2.262   1.844   1.926 -0.4060  0.4924  0.3657
  658SOL     OW 1972   2.845   3.913   0.816 -0.0047 -0.0845 -0.0110
  658SOL    HW1 1973   2.919   3.972   0.831 -0.2604  0.1919  0.1805
  658SOL    HW2 1974   2.820   3.929   0.725  0.2780 -0.3002 -0.1261
  659SOL     OW 1975   2.685   0.464   0.062  0.1473  0.0192  0.6792
  659SOL    HW1 1976   2.772   0.495   0.039  0.2757  0.0522  1.1921
  659SOL    HW2 1977   2.659   0.407  -0.010  0.0822  0.9679 -0.0716
  660SOL     OW 1978   0.983   3.297   3.715  0.2047  0.3830 -0.1941
  660SOL    HW1 1979   1.033   3.352   3.775  1.6274 -2.0678  0.9990
  660SOL    HW2 1980   0.916   3.257   3.770  0.2160 -0.3252 -0.6877
  661SOL     OW 1981   0.518   1.723   1.752 -0.7674  0.0485 -0.2248
  661SOL    HW1 1982   0.578   1.710   1.826 -1.8678  2.6273  1.2808
  661SOL    HW2 1983   0.557   1.795   1.702 -1.9668  0.9762  0.1233
  662SOL     OW 1984   0.903   0.109   0.520  0.2845 -0.2483  0.1438
  662SOL    HW1 1985   0.946   0.159   0.590 -1.9717  0.4106  1.1330
  662SOL    HW2 1986   0.852   0.174   0.472  1.4075 -0.7764 -1.8944
  663SOL     OW 1987   0.649   2.137   0.692 -0.5339  0.6642 -0.1244
  663SOL    HW1 1988   0.662   2.127   0.597 -1.7147  0.6029 -0.2981
  663SOL    HW2 1989   0.729   2.180   0.723  0.6198 -0.8530 -0.8650
  664SOL     OW 1990   2.119   0.012   1.235 -0.0210  0.4020  0.1082
  664SOL    HW1 1991   2.152  -0.015   1.149  0.4146  2.0320 -0.2571
  664SOL    HW2 1992   2.120   0.107   1.232 -0.2782  0.4746  1.8301
  665SOL     OW 1993   0.960   0.038   2.621 -0.0729  0.1151  0.6278
  665SOL    HW1 1994   0.953  -0.053   2.593 -1.8558  0.7423 -1.1578
  665SOL    HW2 1995   0.869   0.066   2.632  0.4712  1.4866  1.8950
  666SOL     OW 1996   2.364   1.687   1.815  0.2899 -0.5255  0.2569
  666SOL    HW1 1997   2.447   1.660   1.776 -0.7470 -3.7036 -0.0124
  666SOL    HW2 1998   2.328   1.608   1.853 -2.2373  0.9304  1.1692
  667SOL     OW 1999   1.666   3.587   0.483  0.3201 -0.3833 -0.2053
  667SOL    HW1 2000   1.591   3.529   0.495 -0.3869  0.7813  1.4065
  667SOL    HW2 2001   1.678   3.592   0.388 -1.0495 -1.3282 -0.4524
  668SOL     OW 2002   1.932   3.631   2.513 -0.5436  0.1510 -0.1003
  668SOL    HW1 2003   1.912   3.541   2.536 -0.2844  0.2244  0.4372
  668SOL    HW2 2004   1.870   3.653   2.444 -0.6835 -0.3988 -0.1533
  669SOL     OW 2005   1.970   1.230   0.095 -0.1312 -0.5745 -0.5336
  669SOL    HW1 2006   1.974   1.271   0.009 -2.0103 -0.2853 -0.5322
  669SOL    HW2 2007   1.965   1.136   0.077  1.0801 -0.6338 -0.6499
  670SOL     OW 2008   0.901   2.367   2.619 -0.4262  0.7278  0.0381
  670SOL    HW1 2009   0.821   2.333   2.660  0.5799 -0.0697  1.3902
  670SOL    HW2 2010   0.893   2.341   2.527 -0.6743 -1.4051  0.6082
  671SOL     OW 2011   1.160   0.501   3.839  0.0302  0.1887 -0.2492
  671SOL    HW1 2012   1.129   0.509   3.749 -1.0708 -0.9675  0.0021
  671SOL    HW2 2013   1.097   0.551   3.891 -0.8547 -1.2809  0.1435
  672SOL     OW 2014   0.179   1.174   1.482 -0.2839  0.6886 -0.2754
  672SOL    HW1 2015   0.090   1.209   1.484 -0.6236 -0.1813  0.4626
  672SOL    HW2 2016   0.167   1.079   1.477  0.6141  0.6306 -1.8937
  673SOL     OW 2017   3.768   2.956   1.918 -0.6029 -0.3799 -0.3303
  673SOL    HW1 2018   3.748   2.966   2.011  2.6542 -1.3012  0.6165
  673SOL    HW2 2019   3.819   2.875   1.913 -2.0009 -1.2033 -3.2108
  674SOL     OW 2020   1.866   1.940   0.627  0.1373  0.1705 -0.4001
  674SOL    HW1 2021   1.802   1.920   0.558  0.6532  1.6789 -1.3582
  674SOL    HW2 2022   1.841   2.027   0.658  0.4694 -0.1182  0.7009
  675SOL     OW 2023   3.834   2.423   1.913  0.1223  0.1043  0.3266
  675SOL    HW1 2024   3.795   2.338   1.933  2.4724 -1.3483 -0.7836
  675SOL    HW2 2025   3.848   2.421   1.818  2.4709  0.6381  0.6018
  676SOL     OW 2026   1.798   2.079   2.583 -0.4791 -0.1797 -0.4645
  676SOL    HW1 2027   1.829   2.167   2.559 -0.1711 -0.4084 -0.9164
  676SOL    HW2 2028   1.770   2.088   2.674 -1.6703  0.7082 -0.8898
  677SOL     OW 2029   0.507   3.728   0.463  0.6583 -0.3553 -0.3780
  677SOL    HW1 2030   0.452   3.651   0.444  0.6136  0.1724 -2.7156
  677SOL    HW2 2031   0.541   3.712   0.551 -3.3716 -0.6126  1.3371
  678SOL     OW 2032   1.432   1.819   2.602 -0.0154 -0.0795  1.1096
  678SOL    HW1 2033   1.408   1.732   2.569  1.1674 -0.8064  2.0936
  678SOL    HW2 2034   1.486   1.857   2.532 -2.5663  0.9646 -0.4537
  679SOL     OW 2035   3.299   3.206   3.102 -0.0717  0.6078 -1.4257
  679SOL    HW1 2036   3.241   3.213   3.026  0.6653  3.0239 -1.8589
  679SOL    HW2 2037   3.387   3.215   3.065  0.3563  0.8502 -0.3811
  680SOL     OW 2038   0.480   0.852   1.982  0.3515 -0.3257  0.3402
  680SOL    HW1 2039   0.407   0.839   1.921 -0.4351 -0.2246  1.2479
  680SOL    HW2 2040   0.440   0.849   2.069  1.0240  2.1552  0.7982
  681SOL     OW 2041   1.116   0.514   3.415  0.7171 -0.0276  0.4433
  681SOL    HW1 2042   1.141   0.600   3.451  1.6004 -0.0994  0.0160
  681SOL    HW2 2043   1.140   0.519   3.323  0.5852 -0.6716  0.3749
  682SOL     OW 2044   0.308   2.502   3.347 -0.4196  0.4089 -0.1282
  682SOL    HW1 2045   0.225   2.457   3.328  0.8496 -1.0526 -2.7572
  682SOL    HW2 2046   0.321   2.560   3.271  0.6001  1.1979  0.6222
  683SOL     OW 2047   3.483   2.954   1.825  0.3033  0.4973  0.1476
  683SOL    HW1 2048   3.545   2.954   1.898 -0.2624  0.7319  0.6243
  683SOL    HW2 2049   3.444   2.866   1.826 -1.8855  1.4205  1.9872
  684SOL     OW 2050   2.759   3.399   0.390  0.7896  0.1356 -1.3384
  684SOL    HW1 2051   2.809   3.322   0.417  0.3515  0.8073  1.8930
  684SOL    HW2 2052   2.684   3.364   0.342 -1.5619 -2.1050  3.2382
  685SOL     OW 2053   3.477   1.141   2.479 -0.3690 -0.3339  0.2395
  685SOL    HW1 2054   3.438   1.060   2.447 -1.0789  0.4682 -1.0763
  685SOL    HW2 2055   3.522   1.117   2.560  0.7326 -2.3212 -0.8835
  686SOL     OW 2056   0.354   0.108   3.180  0.1527  0.4409 -0.4033
  686SOL    HW1 2057   0.289   0.046   3.147  0.2978  0.1086 -0.0715
  686SOL    HW2 2058   0.415   0.120   3.107 -0.8929  1.6400 -1.1328
  687SOL     OW 2059   2.767   0.795   3.850 -0.2101  0.1330 -0.1418
  687SOL    HW1 2060   2.767   0.807   3.945  0.4778 -1.0572  0.0188
  687SOL    HW2 2061   2.847   0.747   3.831  1.2390  2.9286 -1.7068
  688SOL     OW 2062   2.328   0.542   3.452  0.4517 -0.4091  0.2191
  688SOL    HW1 2063   2.361   0.470   3.505  0.9676 -0.7183 -0.4962
  688SOL    HW2 2064   2.270   0.500   3.388 -1.9241  0.1891  1.8507
  689SOL     OW 2065   2.785   0.717   2.179  0.1218 -0.0328  0.3350
  689SOL    HW1 2066   2.693   0.735   2.197 -0.6116 -0.5804 -2.4269
  689SOL    HW2 2067   2.828   0.722   2.265 -2.2219  1.5337  1.5175
  690SOL     OW 2068   3.293   1.671   2.549 -0.1218 -0.3279 -0.2889
  690SOL    HW1 2069   3.199   1.651   2.539 -0.4877  2.2682 -4.4068
  690SOL    HW2 2070   3.331   1.647   2.465  1.9881  2.6073 -0.3159
  691SOL     OW 2071   3.370   3.101   3.419  0.4085  0.1490  0.2242
  691SOL    HW1 2072   3.353   3.051   3.339 -0.1199  0.5814  0.0559
  691SOL    HW2 2073   3.301   3.168   3.420  0.4868  0.2259  0.9777
  692SOL     OW 2074   2.258   3.646   2.852 -0.3147 -0.0054  0.4125
  692SOL    HW1 2075   2.278   3.673   2.763  2.7433 -3.3958 -0.1792
  692SOL    HW2 2076   2.217   3.560   2.843  1.6058 -1.2289  2.1528
  693SOL     OW 2077   1.036   3.235   2.002  0.7544 -0.3074  0.1547
  693SOL    HW1 2078   0.965   3.294   1.976 -0.6527 -2.5685 -1.5463
  693SOL    HW2 2079   1.115   3.286   1.988 -0.4442  2.1634  1.6955
  694SOL     OW 2080   3.767   1.775   2.223  0.0305 -0.3817 -0.0030
  694SOL    HW1 2081   3.826   1.700   2.227 -0.0151 -0.3764  1.5952
  694SOL    HW2 2082   3.821   1.846   2.186  0.5243 -0.8067 -0.1076
  695SOL     OW 2083   2.064   0.475   2.081  0.1092 -0.1309 -0.4436
  695SOL    HW1 2084   2.009   0.428   2.144 -0.1426 -0.7989 -1.1507
  695SOL    HW2 2085   2.018   0.466   1.997  0.7665  0.1970 -0.8459
  696SOL     OW 2086   3.916   3.190   0.796  0.5190 -0.0037 -0.2452
  696SOL    HW1 2087   3.914   3.141   0.879  0.0641  0.6140  0.1208
  696SOL    HW2 2088   3.828   3.228   0.789  0.6247  0.1311 -0.9071
  697SOL     OW 2089   1.823   3.277   2.405 -0.2916  0.2115 -0.7558
  697SOL    HW1 2090   1.915   3.253   2.397 -0.1859 -0.2794  1.2735
  697SOL    HW2 2091   1.775   3.203   2.366  0.1214  1.3733 -3.7038
  698SOL     OW 2092   3.151   1.984   0.399  0.0626  0.1560 -0.4178
  698SOL    HW1 2093   3.211   1.965   0.327  0.6743  1.7862 -0.3908
  698SOL    HW2 2094   3.196   1.952   0.477 -0.2445 -0.8897 -0.6535
  699SOL     OW 2095   2.843   1.485   3.423  0.9064 -0.8621  0.7276
  699SOL    HW1 2096   2.847   1.455   3.514  1.5351  0.5663  1.2125
  699SOL    HW2 2097   2.751   1.509   3.410  0.6177 -1.9637  0.6631
  700SOL     OW 2098   3.137   0.657   1.793  0.1696 -0.3059  0.2615
  700SOL    HW1 2099   3.086   0.607   1.857 -0.5795  1.4308  1.0795
  700SOL    HW2 2100   3.175   0.729   1.844  1.0853  0.0775 -0.9112
  701SOL     OW 2101   3.076   1.537   3.324  0.2097 -0.3470  0.7090
  701SOL    HW1 2102   2.988   1.527   3.359  0.5027  0.7549  1.8655
  701SOL    HW2 2103   3.077   1.624   3.285 -0.5803 -2.1059 -3.7496
  702SOL     OW 2104   3.352   0.972   1.697 -0.8452  0.1772  0.0219
  702SOL    HW1 2105   3.438   0.987   1.657  0.2122 -2.9586  0.8948
  702SOL    HW2 2106   3.293   0.963   1.622  0.5335 -2.4575 -0.8711
  703SOL     OW 2107   0.908   2.260   0.775  0.3043 -0.2216 -0.1993
  703SOL    HW1 2108   0.849   2.331   0.751  0.1607 -0.5156 -0.7162
  703SOL    HW2 2109   0.985   2.274   0.720  1.5665  1.2955  1.7978
  704SOL     OW 2110   2.983   1.849   2.129 -0.0792  1.1961  0.0688
  704SOL    HW1 2111   2.891   1.864   2.148  0.0625  1.3842  0.6320
  704SOL    HW2 2112   3.001   1.903   2.053 -0.3924  1.2985  0.0663
  705SOL     OW 2113   0.088   2.808   2.339  0.4944  0.0878 -0.0668
  705SOL    HW1 2114   0.111   2.870   2.408  1.4859 -0.7300  0.3490
  705SOL    HW2 2115   0.131   2.726   2.363 -1.4352 -1.0275 -0.1825
  706SOL     OW 2116   2.103   2.978   1.197 -0.0629  0.1677  0.2485
  706SOL    HW1 2117   2.022   3.015   1.232 -0.7355 -1.4897  0.5778
  706SOL    HW2 2118   2.170   3.043   1.215 -1.0582  0.9176  1.3545
  707SOL     OW 2119   3.066   1.004   3.960  0.0011  0.7566 -0.2299
  707SOL    HW1 2120   3.046   1.023   3.868  0.1125  1.2292 -0.1625
  707SOL    HW2 2121   3.118   1.079   3.988  0.2638  0.4448  0.1225
  708SOL     OW 2122   0.953   3.593   0.668 -0.5913 -0.0127 -0.4888
  708SOL    HW1 2123   0.874   3.579   0.615 -0.7741 -0.3572 -0.1360
  708SOL    HW2 2124   1.022   3.546   0.621  0.4825  3.8288 -3.2131
  709SOL     OW 2125   3.328   0.430   3.587  0.0876  0.0249 -0.5057
  709SOL    HW1 2126   3.263   0.400   3.524  1.4311 -4.4828 -0.1457
  709SOL    HW2 2127   3.299   0.393   3.671  0.9820  1.5444  0.5252
  710SOL     OW 2128   0.569   2.514   0.924  0.2159 -0.3820  1.1132
  710SOL    HW1 2129   0.615   2.570   0.986  1.4611 -1.3465  1.0892
  710SOL    HW2 2130   0.626   2.512   0.847 -1.3819  0.9432 -0.1874
  711SOL     OW 2131   2.489   1.501   3.692  0.7605 -0.1210  0.4523
  711SOL    HW1 2132   2.422   1.454   3.743  0.8446 -1.5687 -0.7132
  711SOL    HW2 2133   2.532   1.433   3.641  1.7338  1.0870 -0.3870
  712SOL     OW 2134   3.761   2.805   3.964 -0.2325 -0.0772  0.0018
  712SOL    HW1 2135   3.795   2.747   4.032 -0.6435 -0.5017 -0.1560
  712SOL    HW2 2136   3.822   2.795   3.891  0.3864  0.6087  0.4016
  713SOL     OW 2137   2.808   0.106   2.872 -1.4344  0.1331 -0.2053
  713SOL    HW1 2138   2.871   0.176   2.894  0.8137 -1.3760 -1.4472
  713SOL    HW2 2139   2.762   0.090   2.954 -0.6440  1.7414  0.6156
  714SOL     OW 2140   1.930   0.212  -0.008  0.2667 -0.0198 -0.1838
  714SOL    HW1 2141   1.947   0.214   0.086  2.5686  0.2399 -0.5617
  714SOL    HW2 2142   1.835   0.220  -0.015 -0.1122 -1.5347  2.1537
  715SOL     OW 2143   3.480   3.705   1.548 -0.2596 -0.2780  0.0935
  715SOL    HW1 2144   3.395   3.678   1.513 -0.2624  2.3007 -2.3060
  715SOL    HW2 2145   3.465   3.794   1.580  0.4729 -1.4805  4.4128
  716SOL     OW 2146   1.447   2.817   2.621  0.1380 -0.0783  0.0876
  716SOL    HW1 2147   1.389   2.765   2.677  1.1066  1.1761  2.3990
  716SOL    HW2 2148   1.401   2.900   2.608  0.1761 -0.1478 -0.5376
  717SOL     OW 2149   3.827   3.424   3.188 -0.1848 -0.3449 -0.1354
  717SOL    HW1 2150   3.776   3.408   3.266  1.3926  0.8438  1.2122
  717SOL    HW2 2151   3.840   3.519   3.186  3.0662 -0.6678  0.4157
  718SOL     OW 2152   0.748   1.784   3.062  0.5847  0.1022  0.4205
  718SOL    HW1 2153   0.831   1.831   3.062  0.4486  0.3569  1.4373
  718SOL    HW2 2154   0.753   1.724   3.137 -0.2299  0.2785  0.6289
  719SOL     OW 2155   1.287   1.847   2.010 -0.0601  0.5355 -0.5089
  719SOL    HW1 2156   1.328   1.884   1.932 -1.4005  1.1747 -0.9324
  719SOL    HW2 2157   1.355   1.789   2.047  0.7939  0.6474 -1.8169
  720SOL     OW 2158   3.020   3.401   0.890  0.3075  0.0732  0.0865
  720SOL    HW1 2159   3.036   3.367   0.802 -0.5431 -1.4767  0.5088
  720SOL    HW2 2160   2.976   3.330   0.936  0.4722  0.9670  1.6885
  721SOL     OW 2161   2.257   2.760   0.930 -0.4045  0.4835  0.6296
  721SOL    HW1 2162   2.223   2.677   0.894  0.7315 -0.8201  2.3859
  721SOL    HW2 2163   2.211   2.828   0.881 -1.3671 -1.1842 -0.9029
  722SOL     OW 2164   3.948   3.147   3.065  0.8192 -0.2455 -0.3733
  722SOL    HW1 2165   3.918   3.212   3.129  0.6067 -2.2826  1.7386
  722SOL    HW2 2166   4.034   3.120   3.098  0.3701 -1.9019 -0.4692
  723SOL     OW 2167   3.061   2.271   2.112 -0.7272 -0.2373  0.2471
  723SOL    HW1 2168   3.089   2.196   2.060  1.7196 -0.4993  1.8051
  723SOL    HW2 2169   3.141   2.303   2.153 -1.8929  2.5139  0.6007
  724SOL     OW 2170   3.984   3.806   2.077 -0.4037  0.3706 -0.1722
  724SOL    HW1 2171   3.959   3.723   2.038  0.9968 -0.2578  0.1972
  724SOL    HW2 2172   3.995   3.787   2.170 -1.8857  1.4170  0.2518
  725SOL     OW 2173   3.755   0.944   0.478 -0.3097  0.6557 -0.1955
  725SOL    HW1 2174   3.828   0.882   0.480 -1.2524 -0.4605  1.0743
  725SOL    HW2 2175   3.793   1.026   0.511  1.3749  1.3447 -3.4210
  726SOL     OW 2176   3.772   2.761   0.472  0.7720 -0.8531 -0.3430
  726SOL    HW1 2177   3.782   2.855   0.452  2.4957 -0.7635  0.7373
  726SOL    HW2 2178   3.859   2.724   0.455  0.5728 -1.9280  0.8844
  727SOL     OW 2179   0.449   2.271   0.129 -0.0699 -0.6040 -0.5281
  727SOL    HW1 2180   0.448   2.201   0.064 -1.7844  2.0308 -3.5842
  727SOL    HW2 2181   0.357   2.292   0.144  0.4075  1.3706 -0.1422
  728SOL     OW 2182   1.675   3.571   0.204  0.8095 -0.2595  0.4315
  728SOL    HW1 2183   1.579   3.569   0.199  0.8054 -2.2444  0.5064
  728SOL    HW2 2184   1.702   3.482   0.180  2.5727 -0.0675  1.5347
  729SOL     OW 2185   2.014   2.731   1.073  0.3664 -0.5392 -0.5618
  729SOL    HW1 2186   2.058   2.664   1.021  0.8874  0.7438 -1.8326
  729SOL    HW2 2187   2.039   2.814   1.032  0.3842  0.4971  1.4473
  730SOL     OW 2188   1.876   1.398   3.429  0.2861 -0.1006  0.0161
  730SOL    HW1 2189   1.887   1.402   3.523  3.5054 -0.9947 -0.2286
  730SOL    HW2 2190   1.897   1.486   3.398 -0.4704  0.1095  0.0726
  731SOL     OW 2191   3.329   0.596   3.905  0.9908 -0.3459 -0.0512
  731SOL    HW1 2192   3.275   0.524   3.874  1.7968 -0.8419 -0.3260
  731SOL    HW2 2193   3.273   0.644   3.966  0.4682 -1.2428  0.1832
  732SOL     OW 2194   2.951   2.970   1.253 -0.2059  0.0328  0.0542
  732SOL    HW1 2195   3.017   2.981   1.185 -0.7425  2.4914 -0.1630
  732SOL    HW2 2196   2.868   2.966   1.206 -0.4481  0.1470  0.4651
  733SOL     OW 2197   1.423   3.703   0.135  0.2915  0.0666 -0.8738
  733SOL    HW1 2198   1.329   3.690   0.153  0.5151  0.6215  0.8993
  733SOL    HW2 2199   1.425   3.769   0.066 -0.6451  0.8289 -0.2064
  734SOL     OW 2200   2.198   2.231   0.171 -0.2693  0.2591 -0.1192
  734SOL    HW1 2201   2.291   2.215   0.155 -0.4803 -0.9090 -0.2529
  734SOL    HW2 2202   2.181   2.189   0.255 -0.9419 -0.6081 -0.6796
  735SOL     OW 2203   1.334   2.554   3.017 -0.5630  0.2484 -0.1989
  735SOL    HW1 2204   1.253   2.585   2.978 -0.2780  1.0150 -0.2013
  735SOL    HW2 2205   1.361   2.624   3.076 -1.8540 -1.5540  2.7534
  736SOL     OW 2206   3.383   3.875   1.889 -0.7156 -0.0274  0.6076
  736SOL    HW1 2207   3.432   3.884   1.807 -0.6315 -2.5657  0.2824
  736SOL    HW2 2208   3.449   3.883   1.957 -0.1406 -1.3776  0.2497
  737SOL     OW 2209   0.119   1.363   3.093 -0.0776 -0.0347  0.1227
  737SOL    HW1 2210   0.097   1.455   3.107 -0.8313 -0.2656  0.5191
  737SOL    HW2 2211   0.037   1.323   3.065 -0.0243 -0.8055  1.0200
  738SOL     OW 2212   1.503   1.237   3.349  0.6655  0.0799 -0.2190
  738SOL    HW1 2213   1.511   1.216   3.256  0.6876 -1.2945  0.0695
  738SOL    HW2 2214   1.549   1.166   3.394  0.5228  0.6374  0.8508
  739SOL     OW 2215   2.231   2.843   2.079  0.7309  0.1486 -0.6880
  739SOL    HW1 2216   2.295   2.892   2.028  1.4281  0.8083  0.7517
  739SOL    HW2 2217   2.195   2.908   2.140 -0.9216 -0.3397 -1.0979
  740SOL     OW 2218   3.846   3.525   1.047  0.2340  0.2590 -0.4034
  740SOL    HW1 2219   3.933   3.492   1.067  1.0721  2.1319 -0.6960
  740SOL    HW2 2220   3.800   3.526   1.131  1.3414  1.4905  0.2301
  741SOL     OW 2221   0.200   0.520   0.176  0.5859 -0.1016  0.1747
  741SOL    HW1 2222   0.120   0.468   0.184  0.1601  0.0974 -2.1075
  741SOL    HW2 2223   0.187   0.594   0.236 -0.0255 -1.1456  1.3547
  742SOL     OW 2224   0.221   2.040   2.561 -0.2254 -0.1083  0.2239
  742SOL    HW1 2225   0.203   1.969   2.623  1.2906 -0.8798 -0.1662
  742SOL    HW2 2226   0.214   2.120   2.613 -1.6996 -0.5294  0.7299
  743SOL     OW 2227   1.967   3.171   2.803 -0.1976  0.4465  0.0529
  743SOL    HW1 2228   2.007   3.093   2.766  0.1744  0.9390 -0.6013
  743SOL    HW2 2229   1.934   3.143   2.889  3.6878  0.5473  1.7938
  744SOL     OW 2230   2.317   2.890   0.316  0.3496  0.0387 -0.0609
  744SOL    HW1 2231   2.240   2.838   0.294  0.1558  0.8939 -1.5308
  744SOL    HW2 2232   2.389   2.827   0.316  0.1104 -0.2893 -1.7471
  745SOL     OW 2233   3.557   0.795   4.002 -0.4127  0.3892 -0.3828
  745SOL    HW1 2234   3.583   0.817   3.913 -0.3107 -0.2554 -0.5170
  745SOL    HW2 2235   3.464   0.772   3.995 -0.6101  1.1218 -0.1830
  746SOL     OW 2236   3.504   3.592   3.825 -0.6654 -0.0066  0.3427
  746SOL    HW1 2237   3.496   3.497   3.822 -0.5994 -0.0308  0.8844
  746SOL    HW2 2238   3.435   3.623   3.767 -1.3342 -0.3642  0.9213
  747SOL     OW 2239   0.655   3.611   1.738  0.1992  0.4639  0.6975
  747SOL    HW1 2240   0.654   3.533   1.793 -2.4605 -2.8748 -3.4133
  747SOL    HW2 2241   0.595   3.672   1.781 -0.1309 -1.0723  2.5400
  748SOL     OW 2242   2.388   2.561   3.629 -0.7376 -0.2053 -0.2595
  748SOL    HW1 2243   2.400   2.548   3.535  0.2780  0.7039 -0.2684
  748SOL    HW2 2244   2.449   2.631   3.652  0.0179 -1.3185  1.3276
  749SOL     OW 2245   1.132   1.890   2.367  0.1628  0.2756 -0.5385
  749SOL    HW1 2246   1.196   1.930   2.307  0.0752  1.9094  0.3840
  749SOL    HW2 2247   1.062   1.955   2.374  0.2176  0.1900  1.3687
  750SOL     OW 2248   2.816   3.589   0.581 -0.1985  0.1603  0.3416
  750SOL    HW1 2249   2.803   3.531   0.506  0.4779  0.9121 -0.3762
  750SOL    HW2 2250   2.895   3.639   0.559  0.2263  0.1356  1.7160
  751SOL     OW 2251   0.746   0.703   0.433  0.2363 -0.1674  0.2505
  751SOL    HW1 2252   0.799   0.760   0.489  0.3707  1.1102 -1.1023
  751SOL    HW2 2253   0.657   0.709   0.469  0.2814  0.8076  0.2144
  752SOL     OW 2254   3.349   2.098   0.938 -0.5565 -0.3888 -0.0821
  752SOL    HW1 2255   3.443   2.115   0.926 -0.3786 -1.3194 -0.0857
  752SOL    HW2 2256   3.310   2.122   0.854  0.1262 -2.9001 -1.2241
  753SOL     OW 2257   0.507   1.988   3.815 -0.8761 -0.1640 -0.0045
  753SOL    HW1 2258   0.487   1.906   3.859  0.4082 -0.4976  0.0123
  753SOL    HW2 2259   0.424   2.016   3.778 -1.2752 -1.6735 -0.3411
  754SOL     OW 2260   0.118   3.293   2.904 -0.0232  0.4641 -0.1432
  754SOL    HW1 2261   0.187   3.226   2.903 -0.5507 -0.0843 -1.3845
  754SOL    HW2 2262   0.049   3.256   2.959 -0.0967  0.2008 -0.4094
  755SOL     OW 2263   2.239   3.804   2.599  0.8018 -0.7780 -0.2451
  755SOL    HW1 2264   2.189   3.753   2.536 -0.6439 -0.1864  0.3864
  755SOL    HW2 2265   2.195   3.889   2.603  1.7242 -0.3073  0.5068
  756SOL     OW 2266   1.533   0.947   1.711 -0.7602 -0.2995  0.2380
  756SOL    HW1 2267   1.474   0.961   1.785  0.0586 -2.1492  1.2978
  756SOL    HW2 2268   1.520   0.855   1.687  0.0186 -0.1017 -1.0288
  757SOL     OW 2269   1.866   1.614   2.825 -0.1275 -0.8773  0.1744
  757SOL    HW1 2270   1.953   1.578   2.810  0.0572 -0.4387  0.1628
  757SOL    HW2 2271   1.841   1.651   2.740  0.0470 -0.2323  0.3964
  758SOL     OW 2272   0.150   3.905   1.856 -0.6919 -0.6817  0.2587
  758SOL    HW1 2273   0.089   3.862   1.916 -0.4757 -1.4633 -0.0585
  758SOL    HW2 2274   0.102   3.913   1.774 -1.1964  0.9379  0.6840
  759SOL     OW 2275   1.850   3.268   1.547  0.2763 -0.4531 -0.2065
  759SOL    HW1 2276   1.818   3.205   1.613  0.1013 -0.9584 -0.7623
  759SOL    HW2 2277   1.903   3.330   1.597 -1.6592  0.4994  0.8008
  760SOL     OW 2278   0.986   0.901   1.294  0.2324 -0.2084 -0.1314
  760SOL    HW1 2279   0.972   0.866   1.206 -0.1158 -1.3156  0.3446
  760SOL    HW2 2280   0.922   0.971   1.302  1.5034  1.1793 -1.4053
  761SOL     OW 2281   0.773   1.090   1.324  0.0795  0.7081 -0.1746
  761SOL    HW1 2282   0.859   1.130   1.335  0.8316 -0.6146 -1.0494
  761SOL    HW2 2283   0.717   1.137   1.387  1.3552  1.7613  0.2276
  762SOL     OW 2284   1.752   1.374   2.941 -0.3144 -0.5819  0.5314
  762SOL    HW1 2285   1.683   1.402   3.001 -0.0029 -0.5908  0.8977
  762SOL    HW2 2286   1.828   1.359   2.997 -0.5822 -2.6171  0.4278
  763SOL     OW 2287   3.554   0.495   3.113  0.0937  0.1259  0.0915
  763SOL    HW1 2288   3.647   0.495   3.092 -0.2057  1.4176 -1.5300
  763SOL    HW2 2289   3.546   0.437   3.189  2.4507  1.3012  1.3776
  764SOL     OW 2290   1.460   1.319   2.806  0.6394 -0.4752 -0.0894
  764SOL    HW1 2291   1.526   1.386   2.789  0.9397 -0.3925  1.3484
  764SOL    HW2 2292   1.377   1.360   2.779  1.0687 -0.3203 -1.2237
  765SOL     OW 2293   2.814   1.136   2.208  0.2062 -0.2464  0.6183
  765SOL    HW1 2294   2.854   1.107   2.126  0.4935  0.7635  0.3938
  765SOL    HW2 2295   2.768   1.058   2.241 -0.0207 -0.6322 -0.5602
  766SOL     OW 2296   3.477   0.404   1.282 -0.0244  0.0378 -0.7130
  766SOL    HW1 2297   3.523   0.337   1.232  0.0289  0.7292 -1.6225
  766SOL    HW2 2298   3.392   0.365   1.301  0.7656 -1.0848  0.6194
  767SOL     OW 2299   0.020   0.032   3.747 -0.1039  0.5799  0.2719
  767SOL    HW1 2300   0.065   0.113   3.721 -0.7263  0.5859 -0.8195
  767SOL    HW2 2301   0.035  -0.028   3.675 -2.1796  0.7132 -0.3348
  768SOL     OW 2302   2.507   1.666   0.042  0.6765  0.0671 -0.0985
  768SOL    HW1 2303   2.534   1.686   0.131 -2.7603  1.5996  0.7717
  768SOL    HW2 2304   2.585   1.683  -0.011  2.2019  1.3286  2.3583
  769SOL     OW 2305   1.987   3.536   0.013 -0.2176  0.7445  0.2354
  769SOL    HW1 2306   2.016   3.483   0.088  1.4624  0.2472 -0.7227
  769SOL    HW2 2307   1.906   3.493  -0.016  0.8455 -1.0484 -0.2217
  770SOL     OW 2308   2.630   2.137   1.335  0.9035  0.4608  0.4915
  770SOL    HW1 2309   2.584   2.220   1.328  2.0256  1.0287 -0.6818
  770SOL    HW2 2310   2.561   2.070   1.333 -0.0218  1.3572  1.6475
  771SOL     OW 2311   3.201   2.694   1.615 -0.2370  0.2291  0.6767
  771SOL    HW1 2312   3.203   2.600   1.632  0.5364 -0.2329 -1.6464
  771SOL    HW2 2313   3.122   2.724   1.660 -0.1122 -1.3647  2.0864
  772SOL     OW 2314   1.531   1.165   2.265  0.2677 -0.0626 -0.0183
  772SOL    HW1 2315   1.556   1.142   2.355 -1.3335  0.4424  0.6102
  772SOL    HW2 2316   1.453   1.221   2.276  0.2184  0.2586 -1.7175
  773SOL     OW 2317   1.417   0.863   1.118 -0.5999  0.7315 -0.2796
  773SOL    HW1 2318   1.441   0.952   1.143 -0.5408  0.4120  0.8442
  773SOL    HW2 2319   1.494   0.810   1.140 -0.8099  0.3349 -0.4940
  774SOL     OW 2320   1.267   1.004   0.545  0.4948 -0.0368 -0.4146
  774SOL    HW1 2321   1.233   1.053   0.620 -1.5292  0.6892 -1.7233
  774SOL    HW2 2322   1.198   0.940   0.525  1.4984 -0.9670 -0.9830
  775SOL     OW 2323   1.217   0.432   2.362 -0.4197  0.1839  0.8949
  775SOL    HW1 2324   1.188   0.512   2.407  1.1545  0.7140  1.0183
  775SOL    HW2 2325   1.308   0.421   2.389 -0.4542 -1.3855  0.4733
  776SOL     OW 2326   1.493   1.994   1.247  0.1724 -0.5562  0.6777
  776SOL    HW1 2327   1.529   1.937   1.315  0.1986 -1.8120 -0.3729
  776SOL    HW2 2328   1.532   1.964   1.166 -0.3686  0.5024 -0.0065
  777SOL     OW 2329   1.529   0.946   0.629  1.1754 -0.0651  0.3349
  777SOL    HW1 2330   1.460   0.991   0.581  2.3669  1.4796 -0.0291
  777SOL    HW2 2331   1.501   0.949   0.721  1.0528  1.1986  0.2859
  778SOL     OW 2332   0.595   0.727   3.330  0.3927 -0.5664 -0.4306
  778SOL    HW1 2333   0.542   0.699   3.404 -0.6259 -0.3008 -1.0405
  778SOL    HW2 2334   0.652   0.796   3.366  0.0435 -0.5720  0.1418
  779SOL     OW 2335   1.482   3.318   3.286 -0.4745 -0.3724  0.4457
  779SOL    HW1 2336   1.450   3.403   3.256  0.7380 -0.3767 -0.9560
  779SOL    HW2 2337   1.482   3.263   3.208  1.9691 -0.6354  0.5565
  780SOL     OW 2338   3.098   1.445   2.563 -0.0558  0.3898 -0.3450
  780SOL    HW1 2339   3.005   1.423   2.569  0.4719 -2.0723 -0.0989
  780SOL    HW2 2340   3.120   1.432   2.471  0.1734  0.3335 -0.2827
  781SOL     OW 2341   0.181   0.262   0.670 -1.2212  0.7294  0.1730
  781SOL    HW1 2342   0.127   0.184   0.680  0.8039 -0.6996  0.6557
  781SOL    HW2 2343   0.181   0.303   0.756 -2.3835  1.3693 -0.1104
  782SOL     OW 2344   0.047   2.115   3.523  0.1993 -0.1524  0.7294
  782SOL    HW1 2345   0.085   2.110   3.436 -0.1912 -1.6862  0.6114
  782SOL    HW2 2346   0.120   2.096   3.582  0.4606  0.8741  0.7561
  783SOL     OW 2347   1.120   3.220   1.489 -0.2258 -0.2151  0.2664
  783SOL    HW1 2348   1.112   3.140   1.437  0.1272 -1.1626  1.6166
  783SOL    HW2 2349   1.041   3.222   1.543 -0.9967  1.1971 -0.8326
  784SOL     OW 2350   3.110   0.631   2.770 -0.2981 -0.8239  0.5984
  784SOL    HW1 2351   3.198   0.600   2.748 -0.1455  0.3757 -0.5918
  784SOL    HW2 2352   3.051   0.565   2.731  0.0423 -0.1449 -1.1797
  785SOL     OW 2353   0.634   3.466   1.981  0.2217 -0.3499 -0.8649
  785SOL    HW1 2354   0.646   3.433   2.070 -1.4670 -0.5186 -0.6530
  785SOL    HW2 2355   0.606   3.556   1.992  3.3974  0.8280 -1.3993
  786SOL     OW 2356   1.734   2.110   1.580  0.5674 -0.6321 -0.2480
  786SOL    HW1 2357   1.678   2.033   1.569  0.1626 -0.1011 -2.4102
  786SOL    HW2 2358   1.817   2.085   1.541  0.4487 -0.0024 -0.9251
  787SOL     OW 2359   3.678   0.128   2.336  0.0556 -0.3077  0.3368
  787SOL    HW1 2360   3.592   0.088   2.346  0.8749 -1.7562  2.1611
  787SOL    HW2 2361   3.740   0.058   2.357  1.7557  0.3503 -2.0772
  788SOL     OW 2362   1.131   3.736   2.039 -0.1704  0.2289  0.6206
  788SOL    HW1 2363   1.106   3.736   1.946  0.1409 -0.6365  0.5245
  788SOL    HW2 2364   1.170   3.822   2.053 -0.4600  0.4711  0.0185
  789SOL     OW 2365   3.476   0.065   3.826  0.3039  0.1940 -0.7060
  789SOL    HW1 2366   3.428   0.063   3.743 -0.0002 -4.0379 -0.6493
  789SOL    HW2 2367   3.551   0.006   3.812 -0.6316 -1.9990  2.3648
  790SOL     OW 2368   2.189   3.978   0.203  0.1390  0.0781  0.0608
  790SOL    HW1 2369   2.132   3.910   0.239 -0.8219  0.9059  0.1519
  790SOL    HW2 2370   2.277   3.940   0.208 -0.5679 -2.1160 -2.0972
  791SOL     OW 2371   3.387   2.164   2.589  0.2023  0.0259 -0.0481
  791SOL    HW1 2372   3.298   2.159   2.555 -0.0750 -0.1091  0.6816
  791SOL    HW2 2373   3.412   2.074   2.607  1.1587 -0.1385 -1.8760
  792SOL     OW 2374   1.513   3.289   2.418  0.3812  0.2388  0.0554
  792SOL    HW1 2375   1.604   3.294   2.446  0.2352 -1.7471  1.1354
  792SOL    HW2 2376   1.465   3.339   2.484  0.4757 -0.8279  0.9688
  793SOL     OW 2377   0.430   3.134   2.439 -1.0916  0.9258 -1.6240
  793SOL    HW1 2378   0.508   3.087   2.470 -1.5316  1.4280  0.4312
  793SOL    HW2 2379   0.370   3.065   2.412 -0.6119  0.4388 -1.4608
  794SOL     OW 2380   1.770   0.103   1.403 -1.1351  0.1435  0.1922
  794SOL    HW1 2381   1.735   0.094   1.314  1.1208  1.1543 -0.8921
  794SOL    HW2 2382   1.786   0.013   1.432  0.1936 -0.1771 -1.3715
  795SOL     OW 2383   2.255   1.040   2.550 -0.2168 -0.1089 -0.4510
  795SOL    HW1 2384   2.241   1.119   2.498 -3.2430 -2.1168 -3.0315
  795SOL    HW2 2385   2.340   1.008   2.522  1.8468  2.8161  1.7839
  796SOL     OW 2386   2.350   1.883   3.622  0.4580  0.1012  0.3895
  796SOL    HW1 2387   2.378   1.816   3.684  0.3407 -0.3693 -0.0605
  796SOL    HW2 2388   2.432   1.925   3.594  0.5124  0.3214  0.8555
  797SOL     OW 2389   3.398   1.387   0.635  0.6975  0.2207  0.8651
  797SOL    HW1 2390   3.395   1.292   0.649 -0.4218  0.1896  0.5780
  797SOL    HW2 2391   3.383   1.424   0.722 -0.6109  0.0970  0.7141
  798SOL     OW 2392   3.563   0.240   0.360 -0.3772  0.1291 -0.8610
  798SOL    HW1 2393   3.624   0.202   0.297 -0.0962 -1.4138  0.2942
  798SOL    HW2 2394   3.608   0.317   0.394  0.6219 -0.5694 -0.5721
  799SOL     OW 2395   1.523   0.941   2.467  0.4977 -0.1140 -0.0651
  799SOL    HW1 2396   1.591   1.009   2.472  0.8673 -0.5477  1.0264
  799SOL    HW2 2397   1.478   0.946   2.551 -1.3490  0.6707 -1.0428
  800SOL     OW 2398   3.284   0.181   1.835  0.0887  0.2863  0.1766
  800SOL    HW1 2399   3.299   0.099   1.881  1.0815 -0.2314 -1.0395
  800SOL    HW2 2400   3.371   0.219   1.823 -0.4477  2.3846  2.2029
  801SOL     OW 2401   1.775   2.473   2.191  0.1414  0.1286  0.1129
  801SOL    HW1 2402   1.863   2.446   2.167  0.5216 -0.2113  1.7611
  801SOL    HW2 2403   1.730   2.391   2.214 -1.2944  0.0314 -2.6232
  802SOL     OW 2404   2.931   2.903   0.905  0.5062  0.4925  0.3451
  802SOL    HW1 2405   2.947   2.812   0.928 -0.5896  0.6989  2.0938
  802SOL    HW2 2406   2.839   2.905   0.878  0.4436  1.1166  0.5774
  803SOL     OW 2407   1.131   2.637   2.074  0.1894  0.4760  0.0617
  803SOL    HW1 2408   1.169   2.696   2.140 -2.0676  1.9087  0.1798
  803SOL    HW2 2409   1.203   2.577   2.052  1.9492  1.9097  1.5211
  804SOL     OW 2410   1.677   0.723   2.082  0.3729 -0.6775 -0.0904
  804SOL    HW1 2411   1.610   0.777   2.122 -1.8684 -1.7484 -2.1034
  804SOL    HW2 2412   1.696   0.655   2.147 -0.0237 -0.0041  0.7432
  805SOL     OW 2413   0.364   0.704   3.963  0.0843  0.0446  0.7178
  805SOL    HW1 2414   0.290   0.695   4.023 -0.4450 -0.7980 -0.0337
  805SOL    HW2 2415   0.371   0.619   3.920  0.4042  0.6383 -0.4594
  806SOL     OW 2416   0.774   2.790   1.014 -0.1398 -0.0392 -0.2068
  806SOL    HW1 2417   0.710   2.833   1.072  0.9021  1.8060 -0.3659
  806SOL    HW2 2418   0.826   2.861   0.978 -0.7439 -1.0885 -3.5016
  807SOL     OW 2419   1.677   3.895   0.614 -0.5488 -0.1717 -0.0044
  807SOL    HW1 2420   1.663   3.877   0.521  1.7365  0.2534 -0.5009
  807SOL    HW2 2421   1.756   3.846   0.637 -0.5416  0.4643  1.4738
  808SOL     OW 2422   2.130   2.858   2.944  0.5764  0.0314 -0.6208
  808SOL    HW1 2423   2.174   2.850   3.028  0.6125 -0.9188 -0.7142
  808SOL    HW2 2424   2.155   2.778   2.897 -0.8866 -0.3218 -0.8439
  809SOL     OW 2425   0.577   3.755   2.017 -0.7518  0.6650  0.2676
  809SOL    HW1 2426   0.570   3.849   2.006  1.5365  0.6982 -1.9632
  809SOL    HW2 2427   0.606   3.743   2.107 -0.9800  2.1120  0.5530
  810SOL     OW 2428   3.349   0.873   1.149 -0.2003  0.2932 -0.4895
  810SOL    HW1 2429   3.364   0.821   1.069  0.2126 -0.4630  0.0687
  810SOL    HW2 2430   3.319   0.958   1.116  2.3727  0.8890 -1.5941
  811SOL     OW 2431   3.871   1.502   3.835  0.5022 -0.2612  0.8832
  811SOL    HW1 2432   3.848   1.459   3.753  0.1228 -0.5361  1.1297
  811SOL    HW2 2433   3.931   1.572   3.809 -0.6703  0.5364  0.1851
  812SOL     OW 2434   1.319   2.519   3.352  0.2799  0.1078 -0.2875
  812SOL    HW1 2435   1.257   2.556   3.415  2.0572  2.5035  0.1901
  812SOL    HW2 2436   1.338   2.590   3.291  2.6714 -0.4366 -0.2966
  813SOL     OW 2437   3.168   2.288   3.895  0.4802 -0.2181  0.0097
  813SOL    HW1 2438   3.189   2.304   3.803  0.4440  0.5975  0.1401
  813SOL    HW2 2439   3.084   2.331   3.908  0.5130 -0.2803  0.4435
  814SOL     OW 2440   1.627   2.550   1.798 -0.0018 -0.0067  0.1968
  814SOL    HW1 2441   1.631   2.491   1.873 -3.6170 -0.4803  0.1974
  814SOL    HW2 2442   1.582   2.500   1.730  0.3080  1.4790 -1.1594
  815SOL     OW 2443   1.492   1.068   0.134 -0.1703  0.2861 -0.0104
  815SOL    HW1 2444   1.404   1.076   0.172  0.7762  2.2338  2.0790
  815SOL    HW2 2445   1.487   1.115   0.051 -0.9351  1.0640  0.4623
  816SOL     OW 2446   2.061   3.221   1.992 -0.1968 -0.4697  0.4779
  816SOL    HW1 2447   2.141   3.210   1.942  0.3787  0.2028  1.2298
  816SOL    HW2 2448   2.055   3.141   2.045 -0.1897 -0.6560  0.2001
  817SOL     OW 2449   1.554   0.680   3.842 -0.2561 -0.3471  0.2231
  817SOL    HW1 2450   1.514   0.593   3.843  1.9057 -1.3940  0.0418
  817SOL    HW2 2451   1.636   0.670   3.889  2.2032  0.4360 -3.4559
  818SOL     OW 2452   0.499   2.648   1.178 -0.1845  0.2423  0.5065
  818SOL    HW1 2453   0.556   2.706   1.228 -0.0436 -0.7057  1.4801
  818SOL    HW2 2454   0.459   2.591   1.244 -2.1628  0.7773 -0.1471
  819SOL     OW 2455   2.452   3.039   0.897 -0.6202 -0.1577  0.1042
  819SOL    HW1 2456   2.360   3.013   0.895 -0.8838  0.7160 -1.7479
  819SOL    HW2 2457   2.460   3.103   0.826  1.8940 -1.8657 -1.3200
  820SOL     OW 2458   2.061   3.010   1.759 -0.2212  0.3503  0.1332
  820SOL    HW1 2459   2.073   2.919   1.731  0.7762  0.6187 -0.4046
  820SOL    HW2 2460   1.982   3.039   1.714 -0.7637 -0.3561  0.6132
  821SOL     OW 2461   2.552   3.109   1.731  0.3738  0.3576  0.3138
  821SOL    HW1 2462   2.527   3.198   1.707  1.0175  0.9495  1.7614
  821SOL    HW2 2463   2.621   3.085   1.669  0.7795  1.1813  0.4420
  822SOL     OW 2464   1.256   0.101   1.402  0.0555 -0.6775 -0.3078
  822SOL    HW1 2465   1.287   0.162   1.335 -0.1583 -0.5595 -0.2995
  822SOL    HW2 2466   1.274   0.145   1.485  3.8345 -2.3605 -0.0420
  823SOL     OW 2467   3.219   1.842   0.993  0.4120 -1.2762 -0.2027
  823SOL    HW1 2468   3.210   1.930   0.957 -0.7454 -1.0126  0.6666
  823SOL    HW2 2469   3.174   1.785   0.930  4.0001 -1.8334 -2.5746
  824SOL     OW 2470   0.319   3.152   1.770  0.4661  0.5628 -0.5811
  824SOL    HW1 2471   0.316   3.058   1.754  2.5098  0.3719 -0.2293
  824SOL    HW2 2472   0.351   3.190   1.688  0.7361  0.8126 -0.3648
  825SOL     OW 2473   0.614   0.167   2.664  0.1490 -0.1128  0.2031
  825SOL    HW1 2474   0.575   0.139   2.582  0.0163 -2.1083  0.8939
  825SOL    HW2 2475   0.647   0.255   2.647 -1.6659  0.3017 -1.3714
  826SOL     OW 2476   2.813   3.289   0.098  0.9404 -0.8255  0.4678
  826SOL    HW1 2477   2.831   3.263   0.189  2.5668 -0.5801  0.2335
  826SOL    HW2 2478   2.899   3.310   0.061  0.7787 -3.8643 -2.0750
  827SOL     OW 2479   1.718   2.075   3.862  0.6009 -0.6022 -0.4581
  827SOL    HW1 2480   1.707   2.122   3.779 -0.3381 -0.6497 -0.3712
  827SOL    HW2 2481   1.812   2.077   3.878  0.5559  1.7441 -0.1582
  828SOL     OW 2482   3.377   2.720   0.223 -0.3638 -0.7216  0.5766
  828SOL    HW1 2483   3.356   2.810   0.198  1.0351 -0.6147 -0.3962
  828SOL    HW2 2484   3.471   2.712   0.203 -0.5736 -2.5420  0.1740
  829SOL     OW 2485   3.579   2.201   0.887  0.1878  0.4028 -0.4004
  829SOL    HW1 2486   3.514   2.269   0.903 -0.5413  0.4129 -3.0308
  829SOL    HW2 2487   3.659   2.249   0.865  0.1741  0.4058 -0.4440
  830SOL     OW 2488   1.585   3.889   0.310  0.1851 -0.0929  0.0945
  830SOL    HW1 2489   1.524   3.821   0.280 -0.9377  1.1090 -0.4236
  830SOL    HW2 2490   1.587   3.953   0.239  0.0938  1.1322  1.1707
  831SOL     OW 2491   1.011   2.078   1.601 -0.0758 -0.3655  0.1182
  831SOL    HW1 2492   1.087   2.135   1.615 -0.9726  0.7236  0.6319
  831SOL    HW2 2493   1.042   2.013   1.537  2.3702 -2.0392  2.7213
  832SOL     OW 2494   2.913   1.554   2.002  0.2358 -0.2419  0.1767
  832SOL    HW1 2495   2.899   1.628   1.943  1.8534  0.2516  0.3495
  832SOL    HW2 2496   2.848   1.566   2.072 -1.8121 -0.9185 -1.5122
  833SOL     OW 2497   0.346   1.489   3.588  0.2718  0.0241  0.4435
  833SOL    HW1 2498   0.336   1.402   3.549  1.0906 -0.4913  1.3540
  833SOL    HW2 2499   0.341   1.549   3.513 -1.7563 -0.6767 -0.0486
  834SOL     OW 2500   0.058   3.509   3.823 -0.1552  0.0336  0.3060
  834SOL    HW1 2501   0.141   3.554   3.842 -1.5046  2.3583  1.0657
  834SOL    HW2 2502   0.054   3.505   3.728  0.6119  0.3051  0.2561
  835SOL     OW 2503   3.772   0.346   2.502 -0.4538 -0.0997 -0.6648
  835SOL    HW1 2504   3.755   0.290   2.426 -2.7221 -1.2764  0.5784
  835SOL    HW2 2505   3.850   0.308   2.542 -1.4615 -1.9578 -0.3192
  836SOL     OW 2506   1.836   2.991   3.658  0.0002 -0.2991 -0.1537
  836SOL    HW1 2507   1.859   2.901   3.634 -1.2338 -0.3631 -1.1764
  836SOL    HW2 2508   1.775   2.981   3.731  1.5407 -0.1933  1.1966
  837SOL     OW 2509   2.529   3.552   2.617  0.5075  0.1420  0.0143
  837SOL    HW1 2510   2.479   3.570   2.537  1.5377 -0.4076 -0.7777
  837SOL    HW2 2511   2.552   3.639   2.650 -0.9277  0.4117  0.3945
  838SOL     OW 2512   2.145   2.108   3.427  0.1880  0.1824  0.5365
  838SOL    HW1 2513   2.170   2.117   3.335  1.2282  0.7295  0.8573
  838SOL    HW2 2514   2.063   2.058   3.425 -0.7478  1.6834 -0.7833
  839SOL     OW 2515   3.575   3.609   2.738  0.4328 -0.0644 -0.0316
  839SOL    HW1 2516   3.630   3.531   2.748 -0.1749 -0.5309 -0.2930
  839SOL    HW2 2517   3.637   3.682   2.744  0.8967 -0.5257  1.0610
  840SOL     OW 2518   3.422   0.323   2.204 -0.2415  0.2987 -0.0501
  840SOL    HW1 2519   3.505   0.356   2.170 -0.9667  3.4946  0.8907
  840SOL    HW2 2520   3.359   0.344   2.135 -0.5805 -0.2850  0.0767
  841SOL     OW 2521   3.050   3.643   1.657 -0.0965  0.0571 -0.8129
  841SOL    HW1 2522   3.124   3.595   1.693 -0.8482 -0.4472  0.1314
  841SOL    HW2 2523   3.046   3.723   1.709  1.3647  1.3727 -2.6115
  842SOL     OW 2524   1.557   3.341   3.566  0.4803 -0.1434  0.2425
  842SOL    HW1 2525   1.646   3.306   3.568  0.0196 -1.3301  0.9849
  842SOL    HW2 2526   1.529   3.329   3.476  2.0372  2.8985 -0.7903
  843SOL     OW 2527   3.497   1.835   0.312  0.6893 -0.6212  0.3406
  843SOL    HW1 2528   3.462   1.923   0.301 -1.5303 -1.4425  0.3801
  843SOL    HW2 2529   3.535   1.835   0.400 -0.4343 -0.0406  0.8477
  844SOL     OW 2530   3.571   2.171   0.516  0.4094 -0.1684  0.1362
  844SOL    HW1 2531   3.574   2.219   0.599 -1.1183 -0.4382  0.3921
  844SOL    HW2 2532   3.609   2.086   0.537 -1.3576 -0.8033  1.0306
  845SOL     OW 2533   1.554   3.873   2.271 -0.3851 -0.9385  0.2677
  845SOL    HW1 2534   1.619   3.942   2.281 -0.5248 -0.7927  0.1712
  845SOL    HW2 2535   1.606   3.793   2.263 -0.0783 -0.5595 -2.4420
  846SOL     OW 2536   0.239   0.813   3.295 -0.0207 -0.4979 -0.1465
  846SOL    HW1 2537   0.220   0.881   3.231  1.1720 -0.9743 -1.0277
  846SOL    HW2 2538   0.315   0.845   3.343 -0.0673 -0.7701  0.1143
  847SOL     OW 2539   0.993   3.122   2.272 -0.9673  0.8402  0.0508
  847SOL    HW1 2540   1.030   3.139   2.185 -0.7865 -0.1693 -0.0833
  847SOL    HW2 2541   0.984   3.027   2.276 -2.0496  0.9492  0.7060
  848SOL     OW 2542   2.846   0.374   1.580 -0.6379  0.5683 -0.3572
  848SOL    HW1 2543   2.845   0.317   1.656 -0.7768 -0.4033 -1.0706
  848SOL    HW2 2544   2.855   0.462   1.616 -2.4910  0.2953  0.8624
  849SOL     OW 2545   2.503   3.354   1.576 -0.7212  0.6502 -0.4963
  849SOL    HW1 2546   2.448   3.312   1.511 -1.4018  0.1283  0.3987
  849SOL    HW2 2547   2.591   3.320   1.559 -1.1470 -0.6436 -0.2036
  850SOL     OW 2548   1.991   1.572   0.612 -0.2219  0.4608  0.2257
  850SOL    HW1 2549   1.995   1.577   0.517 -1.2402  1.2162  0.2092
  850SOL    HW2 2550   2.033   1.653   0.642  0.7733 -0.1192  0.4542
  851SOL     OW 2551   0.234   0.015   0.242 -0.2240 -0.5945 -0.7061
  851SOL    HW1 2552   0.225   0.105   0.275 -1.5205 -0.4176 -1.5011
  851SOL    HW2 2553   0.177  -0.037   0.298  0.9222 -1.0370  0.0883
  852SOL     OW 2554   2.424   3.800   2.325  0.8242 -0.0553 -0.1570
  852SOL    HW1 2555   2.498   3.854   2.295  1.1736 -0.9317 -0.9302
  852SOL    HW2 2556   2.379   3.775   2.244  0.9248 -1.2589  0.1402
  853SOL     OW 2557   2.195   0.187   3.407  0.1169  0.0259  0.6508
  853SOL    HW1 2558   2.168   0.110   3.357 -0.1105  0.5797 -0.1105
  853SOL    HW2 2559   2.289   0.194   3.390  1.4448 -3.1894  5.0701
  854SOL     OW 2560   2.441   1.528   0.472  0.2529 -0.6363  0.4268
  854SOL    HW1 2561   2.514   1.476   0.438 -2.1074 -1.5958 -3.9202
  854SOL    HW2 2562   2.386   1.465   0.518 -0.9967 -1.5443 -2.0945
  855SOL     OW 2563   0.724   3.605   3.829  0.7314  0.0592  0.4530
  855SOL    HW1 2564   0.785   3.553   3.881 -0.5884 -0.5920  1.4241
  855SOL    HW2 2565   0.664   3.541   3.790 -0.2355  0.7539  0.7437
  856SOL     OW 2566   3.698   0.423   1.522 -0.6067 -0.2887  0.2236
  856SOL    HW1 2567   3.607   0.443   1.502 -0.9617  0.3638  2.3169
  856SOL    HW2 2568   3.706   0.329   1.508 -1.3407 -0.2202 -0.8129
  857SOL     OW 2569   1.953   0.858   1.044  0.0933  0.1760  0.2078
  857SOL    HW1 2570   1.990   0.785   1.093  2.0091 -1.0487 -2.7268
  857SOL    HW2 2571   2.020   0.927   1.050  0.7998 -0.3333 -1.3399
  858SOL     OW 2572   1.640   2.775   0.109 -0.5331 -0.4514 -0.2692
  858SOL    HW1 2573   1.674   2.688   0.086  0.1424  0.1280 -1.5777
  858SOL    HW2 2574   1.668   2.788   0.200 -1.4217 -1.9462  0.2628
  859SOL     OW 2575   0.473   2.909   2.970 -0.1995 -0.0898  0.4267
  859SOL    HW1 2576   0.480   2.837   2.907  0.6092  0.6989 -0.4298
  859SOL    HW2 2577   0.523   2.880   3.046  0.8637 -0.1207 -0.2542
  860SOL     OW 2578   2.276   0.964   2.133  0.1562 -0.3844  0.3436
  860SOL    HW1 2579   2.208   0.915   2.179 -1.9585  2.3951  0.4129
  860SOL    HW2 2580   2.325   1.009   2.202 -0.6360  0.8538  0.1346
  861SOL     OW 2581   0.421   2.699   2.514 -0.0300 -0.2244 -0.7640
  861SOL    HW1 2582   0.482   2.667   2.448 -0.1454  0.3807 -1.1682
  861SOL    HW2 2583   0.338   2.658   2.490 -0.1853  0.3823 -1.3033
  862SOL     OW 2584   3.840   2.053   1.074  0.2672 -0.0785 -0.0671
  862SOL    HW1 2585   3.883   2.138   1.084  1.0937 -0.3636 -1.0593
  862SOL    HW2 2586   3.819   2.047   0.981 -1.2216 -0.2991  0.2572
  863SOL     OW 2587   2.085   3.000   3.402 -0.1080  0.2916  0.1457
  863SOL    HW1 2588   2.077   3.009   3.497 -0.8901 -0.6686  0.1915
  863SOL    HW2 2589   2.015   2.939   3.378  0.4616  0.0525 -0.9714
  864SOL     OW 2590   2.980   3.498   0.233 -0.4034 -0.0369 -0.1464
  864SOL    HW1 2591   2.993   3.439   0.307  0.3068  0.2039 -0.0679
  864SOL    HW2 2592   2.885   3.509   0.227 -0.5744 -1.3997 -0.3365
  865SOL     OW 2593   2.596   0.314   3.837 -0.6362 -0.2478 -0.3234
  865SOL    HW1 2594   2.626   0.277   3.754  0.1026 -2.4137  0.8226
  865SOL    HW2 2595   2.530   0.379   3.812  0.5733  0.2147 -2.6447
  866SOL     OW 2596   0.981   2.766   1.283 -0.3473  0.3874 -0.2206
  866SOL    HW1 2597   0.988   2.815   1.365 -0.4817  1.1979 -0.6878
  866SOL    HW2 2598   0.959   2.831   1.217  3.9015  0.5858 -1.7657
  867SOL     OW 2599   3.523   3.787   2.952  0.4357  0.2954  0.6617
  867SOL    HW1 2600   3.557   3.783   3.041 -2.0658 -2.0080  1.6399
  867SOL    HW2 2601   3.530   3.697   2.919  0.4998  0.9185 -1.1586
  868SOL     OW 2602   3.929   3.137   3.691 -0.2294  0.1203 -0.0243
  868SOL    HW1 2603   4.010   3.159   3.644 -2.1960  2.9545 -2.4526
  868SOL    HW2 2604   3.900   3.055   3.650 -0.2025  0.7929 -1.4375
  869SOL     OW 2605   1.860   3.769   3.329  0.0183  0.4708 -0.1064
  869SOL    HW1 2606   1.924   3.835   3.358  0.7398 -0.0581 -0.4809
  869SOL    HW2 2607   1.787   3.779   3.391  0.5691  0.9018  0.4944
  870SOL     OW 2608   3.542   1.555   3.027 -0.2245  0.5055 -0.4678
  870SOL    HW1 2609   3.621   1.550   3.081  0.4850  3.4581 -1.0986
  870SOL    HW2 2610   3.485   1.486   3.062  1.9612 -0.6123  1.0798
  871SOL     OW 2611   3.656   1.179   3.306 -0.2332  0.3193 -0.1819
  871SOL    HW1 2612   3.585   1.120   3.280  0.5905 -0.6795 -0.2267
  871SOL    HW2 2613   3.616   1.266   3.305 -0.7511  0.1487 -2.9358
  872SOL     OW 2614   1.403   0.427   3.537  0.5326 -0.1632  0.0413
  872SOL    HW1 2615   1.432   0.338   3.557  1.1669 -1.2112 -4.5751
  872SOL    HW2 2616   1.310   0.418   3.513  1.2827 -0.2747 -3.2449
  873SOL     OW 2617   3.459   2.470   1.234 -0.0444 -0.0848  0.1705
  873SOL    HW1 2618   3.549   2.489   1.205 -0.0670  0.0861  0.2156
  873SOL    HW2 2619   3.408   2.544   1.203 -0.5689 -1.1606 -1.7451
  874SOL     OW 2620   1.196   1.811   2.818 -0.4422  0.5178  1.3964
  874SOL    HW1 2621   1.292   1.808   2.817 -0.3122  2.8529  0.8456
  874SOL    HW2 2622   1.173   1.877   2.752 -2.5491 -1.2789  0.1761
  875SOL     OW 2623   3.460   0.793   0.898  0.8677  0.0065 -0.4621
  875SOL    HW1 2624   3.439   0.885   0.884 -0.4353 -0.2476 -0.3015
  875SOL    HW2 2625   3.454   0.753   0.812 -1.9582 -0.5478 -0.0995
  876SOL     OW 2626   2.062   3.456   2.825  0.4657  0.4518 -0.2910
  876SOL    HW1 2627   2.012   3.382   2.792  1.9397 -0.3443 -0.8340
  876SOL    HW2 2628   2.092   3.430   2.911 -0.2302  1.0316  0.1438
  877SOL     OW 2629   0.510   0.443   1.859 -0.6209 -0.0647 -0.2822
  877SOL    HW1 2630   0.602   0.415   1.854 -1.0041 -1.1525 -2.0256
  877SOL    HW2 2631   0.501   0.506   1.788 -0.9156  1.0683  0.7381
  878SOL     OW 2632   0.178   1.575   3.895  0.3877  0.6094 -0.5346
  878SOL    HW1 2633   0.267   1.557   3.866 -0.1147  0.5737 -2.1689
  878SOL    HW2 2634   0.142   1.631   3.826 -0.2732  2.1828  1.0182
  879SOL     OW 2635   2.882   0.286   3.797  0.2462  0.0402 -0.6976
  879SOL    HW1 2636   2.813   0.249   3.742 -1.4332  1.6730  0.2001
  879SOL    HW2 2637   2.860   0.255   3.885  2.2136 -1.5539 -0.7016
  880SOL     OW 2638   0.307   1.909   1.110 -0.4209 -0.1805  1.5096
  880SOL    HW1 2639   0.345   1.884   1.194 -1.9038 -2.9597  1.4361
  880SOL    HW2 2640   0.214   1.923   1.129 -0.7244 -0.6176  0.3911
  881SOL     OW 2641   0.652   1.563   1.433  0.1197 -0.1409 -0.4266
  881SOL    HW1 2642   0.728   1.550   1.376 -0.2438 -1.8240 -0.5769
  881SOL    HW2 2643   0.606   1.638   1.395  0.7690 -0.1973 -1.3504
  882SOL     OW 2644   2.655   1.981   1.628  0.9897 -0.1641 -0.3356
  882SOL    HW1 2645   2.578   1.969   1.685  1.1529  0.0294 -0.0699
  882SOL    HW2 2646   2.618   1.992   1.541  0.7909 -1.5598 -0.4401
  883SOL     OW 2647   2.384   2.021   2.962 -0.1442  0.3830  0.2363
  883SOL    HW1 2648   2.395   2.021   2.867 -0.2314  1.8957  0.2021
  883SOL    HW2 2649   2.471   2.000   2.997 -0.5454 -2.3139 -0.1474
  884SOL     OW 2650   3.598   1.541   0.316 -0.5772 -0.4669 -1.4711
  884SOL    HW1 2651   3.655   1.535   0.240 -0.4702  0.6121 -1.4923
  884SOL    HW2 2652   3.577   1.634   0.324 -0.0606 -0.4486  0.2045
  885SOL     OW 2653   0.416   0.220   1.724 -0.1307 -0.4408 -0.2786
  885SOL    HW1 2654   0.339   0.257   1.682 -1.9054 -0.3251  2.8131
  885SOL    HW2 2655   0.470   0.295   1.747  0.4268 -0.4513 -1.4727
  886SOL     OW 2656   2.583   1.287   3.541 -0.2758  0.5630 -1.0390
  886SOL    HW1 2657   2.662   1.238   3.518  0.4455  1.7318 -1.1647
  886SOL    HW2 2658   2.512   1.225   3.530  0.7554 -1.0251  0.6107
  887SOL     OW 2659   3.351   0.269   0.563  0.0646 -0.2080  0.6254
  887SOL    HW1 2660   3.273   0.321   0.578  0.9774  1.5567 -0.3914
  887SOL    HW2 2661   3.365   0.274   0.468  1.9506  0.3951  0.8887
  888SOL     OW 2662   1.494   1.124   1.172 -0.6082 -0.6843 -0.0960
  888SOL    HW1 2663   1.557   1.172   1.226 -0.9990  0.4840 -0.6292
  888SOL    HW2 2664   1.416   1.118   1.227 -0.9959  0.4792 -0.4792
  889SOL     OW 2665   0.745   2.912   0.383 -0.5221  0.1245 -0.0471
  889SOL    HW1 2666   0.829   2.868   0.367 -1.1818 -0.9256 -0.7478
  889SOL    HW2 2667   0.769   2.992   0.430  1.0698  0.8561 -1.9457
  890SOL     OW 2668   1.606   1.982   2.425 -0.5425  0.6142  0.6847
  890SOL    HW1 2669   1.667   2.013   2.492 -0.8397  2.4621  0.1645
  890SOL    HW2 2670   1.586   2.060   2.373 -2.3257 -0.2186  0.0297
  891SOL     OW 2671   1.317   0.455   2.638 -0.9177  0.4196 -0.0374
  891SOL    HW1 2672   1.232   0.446   2.681  1.1618  0.3489  4.6582
  891SOL    HW2 2673   1.352   0.538   2.669  1.6893 -0.6524  0.1779
  892SOL     OW 2674   3.267   1.181   0.076 -0.3781 -0.7929  0.0552
  892SOL    HW1 2675   3.327   1.115   0.111  0.8417  0.4425  0.3864
  892SOL    HW2 2676   3.299   1.264   0.112 -1.7200  0.0163 -0.5411
  893SOL     OW 2677   2.162   3.848   2.976 -0.5734 -0.3292 -0.0915
  893SOL    HW1 2678   2.224   3.778   2.956 -1.6846 -0.9813 -1.4164
  893SOL    HW2 2679   2.094   3.840   2.909 -1.7039  0.8326  0.8627
  894SOL     OW 2680   2.345   0.364   3.655  0.0408  0.2215  0.6585
  894SOL    HW1 2681   2.286   0.289   3.666 -0.6836  0.8311  1.0213
  894SOL    HW2 2682   2.335   0.414   3.736  1.0734  0.3259  0.7263
  895SOL     OW 2683   0.424   0.654   2.765  0.2247  0.1090  0.2732
  895SOL    HW1 2684   0.482   0.580   2.747  1.7579  0.9896  1.4027
  895SOL    HW2 2685   0.479   0.718   2.810 -1.2594  1.6291  0.0380
  896SOL     OW 2686   1.164   1.622   0.586  0.1002 -0.0146  0.3604
  896SOL    HW1 2687   1.097   1.576   0.534 -1.9278  1.7581  1.2667
  896SOL    HW2 2688   1.197   1.555   0.646  0.7793 -1.4895 -1.5337
  897SOL     OW 2689   2.217   2.399   1.168 -0.1490  0.2160  0.3349
  897SOL    HW1 2690   2.189   2.433   1.082  0.1199  0.1012  0.2008
  897SOL    HW2 2691   2.203   2.305   1.162  4.3830 -0.6193 -1.4226
  898SOL     OW 2692   2.911   0.053   1.365 -0.2492  0.0674 -0.6500
  898SOL    HW1 2693   3.005   0.070   1.367 -0.3244  1.3072  4.0488
  898SOL    HW2 2694   2.903  -0.042   1.372  0.5102 -0.2083 -2.7384
  899SOL     OW 2695   0.784   0.917   3.371  0.1357  0.2582 -0.4524
  899SOL    HW1 2696   0.758   1.002   3.406 -1.3171 -0.0180 -0.8265
  899SOL    HW2 2697   0.869   0.934   3.329  1.2425  0.9084  1.8541
  900SOL     OW 2698   3.886   0.442   1.720  0.2558 -0.0272 -0.6843
  900SOL    HW1 2699   3.886   0.356   1.762  1.3831  1.1530  1.9392
  900SOL    HW2 2700   3.827   0.431   1.645 -3.7842 -1.7910  2.3320
  901SOL     OW 2701   0.601   2.111   0.302  0.5573 -0.1673  0.0553
  901SOL    HW1 2702   0.547   2.183   0.270  0.1404 -0.3535  0.3313
  901SOL    HW2 2703   0.612   2.054   0.225  1.6091  0.6121 -0.3930
  902SOL     OW 2704   1.596   0.125   0.494  0.6717 -0.5490 -0.1676
  902SOL    HW1 2705   1.542   0.061   0.448  1.2425 -0.9692 -0.2686
  902SOL    HW2 2706   1.632   0.078   0.569 -0.7998  0.3205  1.1368
  903SOL     OW 2707   1.890   0.558   3.975 -0.1119  0.6737 -0.0119
  903SOL    HW1 2708   1.941   0.487   4.013  1.3363  1.7105  0.0933
  903SOL    HW2 2709   1.818   0.515   3.929  0.6704 -0.8356  0.1315
  904SOL     OW 2710   0.800   0.288   1.367  0.0692 -0.1828  0.1806
  904SOL    HW1 2711   0.777   0.197   1.350  1.0193 -0.1649 -1.4161
  904SOL    HW2 2712   0.856   0.285   1.444  1.6786 -1.2198 -0.9618
  905SOL     OW 2713   0.061   2.331   2.271 -0.1451 -0.1775  0.4499
  905SOL    HW1 2714   0.016   2.397   2.324  0.6016 -0.7450  1.8567
  905SOL    HW2 2715   0.057   2.365   2.182 -1.4709  0.8075  0.8449
  906SOL     OW 2716   1.849   0.524   3.029 -0.1817  0.5332  0.7680
  906SOL    HW1 2717   1.859   0.475   3.110  2.1782  0.9936  0.8313
  906SOL    HW2 2718   1.866   0.460   2.960 -0.6588  0.4707  0.7117
  907SOL     OW 2719   1.036   2.757   3.959  0.1188 -0.5242 -0.0169
  907SOL    HW1 2720   1.122   2.722   3.982  0.6403  0.4087 -0.5352
  907SOL    HW2 2721   1.027   2.739   3.865  0.9807  1.8798 -0.6280
  908SOL     OW 2722   2.874   2.894   3.852  0.2553 -0.6178  0.0324
  908SOL    HW1 2723   2.881   2.822   3.914  2.6738 -0.7370 -0.2886
  908SOL    HW2 2724   2.843   2.853   3.771  1.2437 -1.2557 -0.0413
  909SOL     OW 2725   1.691   3.783   3.969  0.8599  0.3145  0.6237
  909SOL    HW1 2726   1.653   3.753   4.052  3.2840 -2.9248  0.7631
  909SOL    HW2 2727   1.652   3.724   3.904 -0.0961  2.0457 -0.4388
  910SOL     OW 2728   3.440   2.016   2.869 -0.1746 -0.0040  0.8429
  910SOL    HW1 2729   3.406   1.990   2.784 -2.3327  0.5400  1.4847
  910SOL    HW2 2730   3.419   1.943   2.927  1.7840 -0.6172  0.8403
  911SOL     OW 2731   3.632   2.714   1.730 -0.2597  0.1772 -0.5854
  911SOL    HW1 2732   3.716   2.721   1.775 -0.1362  1.3461 -0.9676
  911SOL    HW2 2733   3.628   2.622   1.702 -0.1194 -0.4503  1.3108
  912SOL     OW 2734   2.280   0.834   0.492 -0.1103 -1.0220  0.2943
  912SOL    HW1 2735   2.265   0.783   0.572 -0.4840 -1.4425 -0.0358
  912SOL    HW2 2736   2.226   0.790   0.426 -1.3134  0.4691  0.2461
  913SOL     OW 2737   1.788   1.283   2.690 -0.4689 -0.0852  0.0020
  913SOL    HW1 2738   1.799   1.352   2.755  0.5554 -1.2541  1.1291
  913SOL    HW2 2739   1.820   1.321   2.608 -1.7397  1.3926  0.1633
  914SOL     OW 2740   0.852   3.271   1.052 -0.9148  0.1185  0.3337
  914SOL    HW1 2741   0.829   3.301   1.141 -2.3028  1.1138 -0.3131
  914SOL    HW2 2742   0.841   3.349   0.998  1.6582 -0.0095 -0.4950
  915SOL     OW 2743   0.796   0.919   0.662 -0.0112 -0.3338  0.4180
  915SOL    HW1 2744   0.886   0.952   0.652 -0.4039  0.8697  0.6884
  915SOL    HW2 2745   0.743   0.998   0.674 -0.9921 -1.0797  1.1286
  916SOL     OW 2746   3.387   3.233   2.444  0.0627  0.1388  0.1152
  916SOL    HW1 2747   3.477   3.219   2.472  0.1890  2.3409  0.9549
  916SOL    HW2 2748   3.363   3.152   2.399  2.4484 -0.4911 -0.1306
  917SOL     OW 2749   0.057   2.893   2.076 -0.0103  0.4091  0.0788
  917SOL    HW1 2750   0.084   2.817   2.025  0.1583  0.2375  0.4223
  917SOL    HW2 2751   0.064   2.865   2.167  0.0091  0.8207  0.2069
  918SOL     OW 2752   3.443   1.404   3.317 -0.9353  0.0901  0.1733
  918SOL    HW1 2753   3.373   1.414   3.252 -0.1085  0.1116 -0.7376
  918SOL    HW2 2754   3.408   1.341   3.380 -1.1031 -1.3723 -1.2910
  919SOL     OW 2755   0.425   1.581   0.736 -0.2742  0.0378 -0.8196
  919SOL    HW1 2756   0.396   1.546   0.652 -1.0355 -0.7031 -0.2587
  919SOL    HW2 2757   0.406   1.675   0.732 -1.4008 -0.1924 -1.0272
  920SOL     OW 2758   3.882   1.164   1.810 -0.1038  0.5239  0.1063
  920SOL    HW1 2759   3.793   1.144   1.837 -0.9456  3.3475 -0.2075
  920SOL    HW2 2760   3.936   1.099   1.855 -2.3079 -1.4875  0.0194
  921SOL     OW 2761   2.563   0.800   3.664 -0.2246  0.2756  0.3214
  921SOL    HW1 2762   2.637   0.785   3.723 -0.7450  2.1953  1.5607
  921SOL    HW2 2763   2.486   0.797   3.721 -0.7994  1.6206 -0.3301
  922SOL     OW 2764   1.065   3.074   2.545 -0.1646  0.0201  0.3949
  922SOL    HW1 2765   0.985   3.021   2.544  0.7787 -1.4671 -1.0897
  922SOL    HW2 2766   1.053   3.137   2.475  0.0459 -0.3657  0.0053
  923SOL     OW 2767   0.363   3.076   1.320 -0.3669 -0.2731  0.0701
  923SOL    HW1 2768   0.391   2.986   1.305  0.0133  0.1090 -1.6867
  923SOL    HW2 2769   0.291   3.090   1.258  0.3233  0.9817 -0.4768
  924SOL     OW 2770   3.108   1.703   0.768  0.0681 -0.9073 -0.2921
  924SOL    HW1 2771   3.127   1.772   0.705  0.2930  1.5013  2.2281
  924SOL    HW2 2772   3.012   1.696   0.768  0.0639 -0.8616 -0.8114
  925SOL     OW 2773   1.645   1.889   3.054  0.0128  0.2117 -0.2698
  925SOL    HW1 2774   1.685   1.843   3.127 -0.7475  0.0667  0.0634
  925SOL    HW2 2775   1.717   1.940   3.016  0.3068  0.6801  0.8693
  926SOL     OW 2776   1.607   0.342   0.288  0.3473 -0.1500  0.0083
  926SOL    HW1 2777   1.540   0.410   0.287 -0.7873 -1.2286 -0.9164
  926SOL    HW2 2778   1.577   0.280   0.355  1.3061  0.1694  0.7611
  927SOL     OW 2779   2.673   1.162   1.806  0.4577 -0.8785 -0.5012
  927SOL    HW1 2780   2.621   1.110   1.867 -2.8469  2.4726 -0.0992
  927SOL    HW2 2781   2.746   1.194   1.858 -1.2967  0.4138  1.3017
  928SOL     OW 2782   2.782   0.174   2.468 -0.6572  0.2102  0.3183
  928SOL    HW1 2783   2.745   0.261   2.478 -0.5142  0.4267 -0.8060
  928SOL    HW2 2784   2.730   0.118   2.525 -1.5564  0.8132  0.1072
  929SOL     OW 2785   3.667   2.841   2.209 -0.2117  0.1591  0.5490
  929SOL    HW1 2786   3.720   2.900   2.262 -1.2280  1.1317  0.5317
  929SOL    HW2 2787   3.702   2.753   2.227 -0.4309  0.4614  2.7501
  930SOL     OW 2788   1.133   1.458   3.947  0.0067 -1.0488 -0.1786
  930SOL    HW1 2789   1.087   1.527   3.996  1.4517  0.2850 -0.5912
  930SOL    HW2 2790   1.088   1.454   3.863 -0.6263 -1.2196  0.1673
  931SOL     OW 2791   2.579   2.779   3.703  0.1822 -0.4709  0.0155
  931SOL    HW1 2792   2.634   2.709   3.738  0.9287  1.5409  3.2988
  931SOL    HW2 2793   2.525   2.806   3.777 -1.4255  1.1925 -1.6599
  932SOL     OW 2794   3.872   1.893   3.735  0.2765  0.5107 -0.2435
  932SOL    HW1 2795   3.902   1.808   3.702  3.5725  0.6975  1.7621
  932SOL    HW2 2796   3.857   1.946   3.656 -0.7802 -1.5591 -1.4944
  933SOL     OW 2797   1.828   0.362   2.789  0.2582  0.5153 -0.6743
  933SOL    HW1 2798   1.778   0.443   2.778 -0.8012 -0.2649 -2.0867
  933SOL    HW2 2799   1.768   0.303   2.836  1.1343  0.6256  0.6235
  934SOL     OW 2800   2.674   2.345   0.618 -0.2966  0.6114  0.1704
  934SOL    HW1 2801   2.705   2.273   0.563 -0.1958  2.8818 -3.0750
  934SOL    HW2 2802   2.595   2.313   0.659 -0.1651 -1.4042 -1.0332
  935SOL     OW 2803   2.612   0.427   2.099  0.8800  0.1238 -0.9053
  935SOL    HW1 2804   2.534   0.482   2.096  0.2558 -0.6895 -0.1190
  935SOL    HW2 2805   2.631   0.417   2.192  1.5138 -0.2406 -1.0694
  936SOL     OW 2806   3.882   1.547   2.491  0.4757 -0.6770 -0.2287
  936SOL    HW1 2807   3.853   1.491   2.564  0.0973 -0.5862 -0.3032
  936SOL    HW2 2808   3.864   1.495   2.413 -2.6351  0.5891 -0.5315
  937SOL     OW 2809   2.135   1.768   2.675 -0.1770  0.1749  0.0141
  937SOL    HW1 2810   2.178   1.786   2.592 -0.0309 -0.6400 -0.1012
  937SOL    HW2 2811   2.057   1.718   2.652  0.8609 -1.7520  0.4565
  938SOL     OW 2812   3.921   3.026   0.470 -0.4260 -0.0290 -0.1576
  938SOL    HW1 2813   3.876   3.090   0.525 -1.8250  0.5284 -1.8482
  938SOL    HW2 2814   3.908   3.057   0.381 -0.5193 -2.2628 -1.0028
  939SOL     OW 2815   3.688   0.821   2.486  0.4251  0.6123  0.6923
  939SOL    HW1 2816   3.738   0.894   2.523 -0.2187  1.3496  0.1752
  939SOL    HW2 2817   3.599   0.856   2.479  0.1547 -0.1535  0.2260
  940SOL     OW 2818   0.190   3.559   2.633  0.2507  0.8145 -0.5991
  940SOL    HW1 2819   0.119   3.622   2.646  0.1190  0.4371  0.5991
  940SOL    HW2 2820   0.150   3.474   2.653  0.8985  0.5403 -0.4652
  941SOL     OW 2821   1.912   3.728   0.376 -0.2070  0.4643  0.0643
  941SOL    HW1 2822   1.918   3.753   0.284  2.5669  0.3446  0.1287
  941SOL    HW2 2823   1.826   3.761   0.405 -0.9480  0.8932 -2.4090
  942SOL     OW 2824   3.634   1.575   3.624  0.3083  0.0747  0.9551
  942SOL    HW1 2825   3.588   1.634   3.563  1.0810 -1.8478 -1.6551
  942SOL    HW2 2826   3.568   1.552   3.689 -1.3245  0.3656 -0.5124
  943SOL     OW 2827   0.045   1.930   1.204 -0.2028  0.7417  0.0410
  943SOL    HW1 2828  -0.029   1.947   1.145 -0.7561  1.0432  0.7994
  943SOL    HW2 2829   0.011   1.867   1.267 -0.1094  1.5710  0.9413
  944SOL     OW 2830   2.385   2.535   0.374  0.0741  0.4689 -0.3263
  944SOL    HW1 2831   2.465   2.527   0.426 -0.2776  2.9167  0.7292
  944SOL    HW2 2832   2.407   2.597   0.305 -1.2622  2.3529  0.8620
  945SOL     OW 2833   1.221   0.048   0.881  0.2165 -0.2400  0.5836
  945SOL    HW1 2834   1.279   0.124   0.885 -0.4775  0.4618 -1.2166
  945SOL    HW2 2835   1.261  -0.008   0.815 -0.2633 -0.5394  0.5456
  946SOL     OW 2836   3.948   2.711   0.278  0.5742 -0.0328 -0.0007
  946SOL    HW1 2837   3.864   2.706   0.232  0.6077  0.0509 -0.0710
  946SOL    HW2 2838   4.007   2.657   0.225  0.5263 -0.2148  0.1321
  947SOL     OW 2839   0.881   1.317   1.576  0.0624  0.3906 -0.2622
  947SOL    HW1 2840   0.792   1.352   1.567 -0.3064 -0.7656 -1.5341
  947SOL    HW2 2841   0.938   1.390   1.553 -0.5833  0.9449 -0.1287
  948SOL     OW 2842   0.941   2.256   3.231  0.4444 -0.5701 -0.0774
  948SOL    HW1 2843   0.948   2.340   3.186 -0.8731 -0.3742  0.0289
  948SOL    HW2 2844   0.960   2.276   3.323 -0.4165 -0.2696  0.0418
  949SOL     OW 2845  -0.024   3.169   1.747  0.4602  0.0849 -0.1957
  949SOL    HW1 2846  -0.008   3.262   1.728 -1.3231  1.1544  2.8908
  949SOL    HW2 2847   0.062   3.135   1.772  1.0130  1.0722 -0.6630
  950SOL     OW 2848   1.476   0.614   0.919 -0.2026  0.2134 -0.3233
  950SOL    HW1 2849   1.481   0.546   0.985 -1.9348  0.5091  0.1648
  950SOL    HW2 2850   1.565   0.650   0.914 -0.0407  0.2688  1.9410
  951SOL     OW 2851   1.027   2.893   1.515 -0.3873  0.0893  0.0859
  951SOL    HW1 2852   0.962   2.961   1.531 -0.4535 -0.0150  0.2660
  951SOL    HW2 2853   1.085   2.930   1.449 -0.9612 -0.0335 -0.5008
  952SOL     OW 2854   1.815   1.751   2.575 -0.1121  0.3556  0.5610
  952SOL    HW1 2855   1.822   1.835   2.621 -2.1739  1.3217 -0.7581
  952SOL    HW2 2856   1.863   1.764   2.493 -0.0026  0.0581  0.5759
  953SOL     OW 2857   0.333   0.593   3.043 -0.0057  0.3626 -0.0559
  953SOL    HW1 2858   0.375   0.513   3.013  2.5220  1.6170 -0.0770
  953SOL    HW2 2859   0.353   0.658   2.976  1.1552  1.8885  1.6725
  954SOL     OW 2860   1.058   3.645   3.189 -0.5435 -0.3691 -0.2326
  954SOL    HW1 2861   1.043   3.551   3.184  0.0655 -0.5887  1.3054
  954SOL    HW2 2862   0.981   3.684   3.148 -1.8415 -1.5208  0.9839
  955SOL     OW 2863   2.745   2.193   3.267 -0.2572 -0.1568  0.4102
  955SOL    HW1 2864   2.757   2.236   3.351 -1.5613  0.2356  0.4214
  955SOL    HW2 2865   2.776   2.256   3.202  1.8665 -0.9165  0.6137
  956SOL     OW 2866   0.589   3.031   2.086  0.1632  0.3213  0.1670
  956SOL    HW1 2867   0.618   2.970   2.018 -1.4814 -0.7905  0.4136
  956SOL    HW2 2868   0.498   3.048   2.066  0.1377  1.3645  1.1015
  957SOL     OW 2869   2.852   0.636   1.647 -0.4737 -0.0794  0.3018
  957SOL    HW1 2870   2.783   0.640   1.580  0.9327  1.4678 -1.1515
  957SOL    HW2 2871   2.818   0.687   1.720 -1.6730 -1.0532  0.4640
  958SOL     OW 2872   2.315   0.890   3.803 -0.0121 -0.3738 -0.0077
  958SOL    HW1 2873   2.240   0.846   3.842  2.3463 -4.0546  0.9532
  958SOL    HW2 2874   2.304   0.878   3.709 -0.6552 -0.8351  0.1224
  959SOL     OW 2875   3.393   2.105   0.320  0.5689 -0.2698 -0.1599
  959SOL    HW1 2876   3.435   2.140   0.398  3.9142  0.2274 -1.9966
  959SOL    HW2 2877   3.328   2.172   0.296  0.3349  0.1286  1.4821
  960SOL     OW 2878   1.780   1.427   2.430 -0.2970  0.3890 -0.6818
  960SOL    HW1 2879   1.838   1.476   2.488  2.6042 -2.7824 -0.6159
  960SOL    HW2 2880   1.705   1.404   2.486  0.7752  0.3430  0.7884
  961SOL     OW 2881   0.548   0.028   1.585 -0.3700  0.0383  0.4921
  961SOL    HW1 2882   0.635   0.007   1.618  0.7603  0.4893 -2.0020
  961SOL    HW2 2883   0.525   0.111   1.628  0.5554  0.0778  0.9234
  962SOL     OW 2884   2.511   2.982   3.147 -0.6293 -0.2532 -0.0590
  962SOL    HW1 2885   2.496   2.996   3.053  2.5311 -1.1073 -0.8126
  962SOL    HW2 2886   2.480   3.062   3.188 -2.9580 -0.2069 -1.6416
  963SOL     OW 2887   0.125   1.817   2.205 -0.0886 -0.5842  0.4410
  963SOL    HW1 2888   0.102   1.892   2.260 -0.5213 -0.9640  0.7765
  963SOL    HW2 2889   0.126   1.743   2.265  1.6009 -0.6625  0.3703
  964SOL     OW 2890   2.726   3.067   2.272  0.2050  0.0444 -0.4858
  964SOL    HW1 2891   2.763   2.980   2.254 -1.1198 -0.3004 -1.7688
  964SOL    HW2 2892   2.679   3.089   2.191 -2.0131  0.6122  0.8991
  965SOL     OW 2893   0.796   2.495   3.799  0.1482  0.5557  0.3847
  965SOL    HW1 2894   0.817   2.403   3.784 -1.9723  0.2001 -0.8245
  965SOL    HW2 2895   0.711   2.493   3.842  0.5661  1.9511  1.3421
  966SOL     OW 2896   2.659   2.699   3.078  1.0238  0.2352  0.6126
  966SOL    HW1 2897   2.621   2.670   2.995  2.1026 -0.4104  0.3098
  966SOL    HW2 2898   2.587   2.738   3.126  0.1232 -0.4311 -0.1616
  967SOL     OW 2899   3.050   3.896   2.083 -0.0741  0.5002 -0.5100
  967SOL    HW1 2900   2.993   3.962   2.043 -1.2025  1.1327  1.9124
  967SOL    HW2 2901   3.116   3.947   2.131 -0.3089 -0.1113  0.4968
  968SOL     OW 2902   1.001   2.554   1.507 -0.8207 -0.3279 -0.3363
  968SOL    HW1 2903   1.042   2.633   1.472  0.3221 -0.1519  1.3059
  968SOL    HW2 2904   0.907   2.572   1.507 -0.5408  1.2281  0.4655
  969SOL     OW 2905   0.875   0.726   3.525 -0.7472  0.1340 -0.0590
  969SOL    HW1 2906   0.832   0.810   3.507  0.3966  0.6269 -0.5852
  969SOL    HW2 2907   0.968   0.748   3.531 -0.5044 -1.0009  0.4525
  970SOL     OW 2908   3.669   3.814   3.869  0.1953 -0.0955  0.8806
  970SOL    HW1 2909   3.622   3.735   3.841  0.0932 -0.8431  2.9609
  970SOL    HW2 2910   3.759   3.785   3.884  0.2310  0.2383  1.3475
  971SOL     OW 2911   1.128   0.958   1.693 -0.5373  0.0129  0.3540
  971SOL    HW1 2912   1.147   0.939   1.785 -0.4865  1.9072  0.7787
  971SOL    HW2 2913   1.041   0.922   1.679 -0.5062 -0.3862  1.1005
  972SOL     OW 2914   0.248   0.863   0.604 -0.0689  0.0361  0.8676
  972SOL    HW1 2915   0.259   0.860   0.699  1.0234 -0.6056  0.7405
  972SOL    HW2 2916   0.333   0.836   0.569 -0.5513 -0.0499 -0.2968
  973SOL     OW 2917   2.740   0.042   1.913 -0.1090 -0.0188  0.1897
  973SOL    HW1 2918   2.648   0.040   1.885  0.0682  2.1640 -0.6966
  973SOL    HW2 2919   2.777   0.119   1.870  2.0690 -0.6511  0.8114
  974SOL     OW 2920   3.370   1.749   0.052  0.2397 -0.6578 -0.5878
  974SOL    HW1 2921   3.403   1.748   0.142 -0.8187 -0.0130 -0.1743
  974SOL    HW2 2922   3.315   1.827   0.047 -0.4985 -1.2086 -1.5065
  975SOL     OW 2923   2.938   3.254   1.963  0.3547  0.6876  0.2117
  975SOL    HW1 2924   2.858   3.298   1.992  0.7565  1.4414  0.2094
  975SOL    HW2 2925   2.935   3.259   1.867  0.5533  0.9991  0.2198
  976SOL     OW 2926   2.363   2.981   1.895 -0.9165 -0.6239 -0.1799
  976SOL    HW1 2927   2.290   3.028   1.856 -0.9967 -0.8358 -0.2887
  976SOL    HW2 2928   2.439   3.006   1.843 -0.6053  0.8784  0.9321
  977SOL     OW 2929   3.053   0.898   1.648 -0.1750 -0.7352 -0.4047
  977SOL    HW1 2930   2.965   0.867   1.671  0.4782 -1.2901  1.5198
  977SOL    HW2 2931   3.109   0.822   1.661  0.6573 -0.2942 -1.2965
  978SOL     OW 2932   0.848   2.564   3.413  0.1794  0.1517 -0.3778
  978SOL    HW1 2933   0.870   2.657   3.417  0.5481  0.0309  0.8730
  978SOL    HW2 2934   0.911   2.527   3.352 -0.1477  0.7632 -1.1018
  979SOL     OW 2935   2.375   1.209   0.570 -0.1516  0.4432 -0.7028
  979SOL    HW1 2936   2.427   1.143   0.524 -0.8402  1.6516 -3.3945
  979SOL    HW2 2937   2.284   1.184   0.553 -0.4179  1.5346 -0.9654
  980SOL     OW 2938   0.112   3.484   1.284  0.8199 -0.8203  0.5031
  980SOL    HW1 2939   0.149   3.398   1.302 -1.6820 -2.2801 -0.7521
  980SOL    HW2 2940   0.170   3.522   1.218  2.2285 -1.3089  1.4219
  981SOL     OW 2941   2.750   1.338   1.431 -0.4171 -0.3174 -0.7445
  981SOL    HW1 2942   2.766   1.409   1.369 -2.5770  0.3690 -0.5999
  981SOL    HW2 2943   2.810   1.354   1.503 -1.7868  2.2622 -0.0600
  982SOL     OW 2944   0.930   3.495  -0.008 -0.2451  0.6176  0.5443
  982SOL    HW1 2945   1.006   3.510  -0.063 -1.0567  0.2704 -0.7012
  982SOL    HW2 2946   0.951   3.540   0.074  1.1492  0.8080  0.1106
  983SOL     OW 2947   0.259   1.940   1.987 -0.2136  0.0620 -0.0032
  983SOL    HW1 2948   0.234   1.876   2.055  0.9596  0.8173  1.1892
  983SOL    HW2 2949   0.180   1.951   1.935 -0.5558 -2.1089 -0.0545
  984SOL     OW 2950   2.338   0.067   3.957  0.7120  0.2351  0.3321
  984SOL    HW1 2951   2.403   0.046   4.024  0.3976 -1.1396  0.2385
  984SOL    HW2 2952   2.367   0.018   3.879  1.4066  2.2636 -0.7717
  985SOL     OW 2953   0.788   3.679   1.503  0.2980  0.2441  0.1827
  985SOL    HW1 2954   0.737   3.752   1.470  1.8975  1.1857 -0.3376
  985SOL    HW2 2955   0.740   3.648   1.579 -1.7376  0.1755 -1.0513
  986SOL     OW 2956   1.840   0.287   1.081  0.4504 -0.1673  0.5824
  986SOL    HW1 2957   1.778   0.246   1.141 -0.6530  0.4043 -0.1299
  986SOL    HW2 2958   1.925   0.277   1.124 -0.1547 -0.7630  1.6944
  987SOL     OW 2959   2.831   3.241   0.653 -0.6124 -0.2828 -0.0152
  987SOL    HW1 2960   2.764   3.300   0.687 -0.5604  0.1584 -0.6604
  987SOL    HW2 2961   2.848   3.181   0.725 -1.6074 -0.3229  0.2024
  988SOL     OW 2962   1.999   1.062   1.607 -0.0211 -0.3579  0.1680
  988SOL    HW1 2963   1.927   1.050   1.669  1.2716 -1.3258  1.5483
  988SOL    HW2 2964   2.032   0.974   1.590 -0.3468 -0.1350 -1.9781
  989SOL     OW 2965   1.146   1.069   1.082  0.0219 -0.1405 -0.1324
  989SOL    HW1 2966   1.144   1.024   1.166  2.4549 -0.5750 -0.2275
  989SOL    HW2 2967   1.176   1.158   1.104  1.4673 -0.4896 -0.5667
  990SOL     OW 2968   0.328   0.999   1.289 -0.6071 -0.3832 -0.3078
  990SOL    HW1 2969   0.308   0.914   1.250 -1.2567 -0.1208 -0.5507
  990SOL    HW2 2970   0.285   1.063   1.231 -2.6459 -0.0367  1.4816
  991SOL     OW 2971   0.481   1.421   2.473  0.5932  0.7266  0.4719
  991SOL    HW1 2972   0.575   1.399   2.478  0.6846  1.3757  1.8049
  991SOL    HW2 2973   0.443   1.346   2.427  2.0026  1.2295 -1.6755
  992SOL     OW 2974   2.537   0.435   1.802 -0.0651 -0.5160 -0.0135
  992SOL    HW1 2975   2.625   0.439   1.840 -0.3731  1.4989  0.6236
  992SOL    HW2 2976   2.488   0.378   1.861  0.3123 -0.0036  0.8295
  993SOL     OW 2977   0.559   0.651   1.433  0.3416 -0.3187 -0.4230
  993SOL    HW1 2978   0.538   0.744   1.438 -1.3779 -0.5695 -1.8855
  993SOL    HW2 2979   0.604   0.640   1.350  2.0919 -0.5901  0.4980
  994SOL     OW 2980   3.192   2.295   1.048  0.0558 -0.4407 -0.6153
  994SOL    HW1 2981   3.265   2.353   1.027 -0.3758 -0.1301 -1.2949
  994SOL    HW2 2982   3.217   2.210   1.013  0.7044 -0.6871  0.4110
  995SOL     OW 2983   2.371   0.977   1.056  0.6258 -0.1859  0.1540
  995SOL    HW1 2984   2.413   0.922   1.122  1.9823 -0.8753 -1.2196
  995SOL    HW2 2985   2.298   0.925   1.023  1.9261 -1.2455 -1.1647
  996SOL     OW 2986   3.502   1.249   3.003 -0.0302  0.0197 -0.0750
  996SOL    HW1 2987   3.484   1.165   3.045  1.1530 -0.2490 -0.0675
  996SOL    HW2 2988   3.418   1.296   3.006 -0.3147 -0.5363  1.3150
  997SOL     OW 2989   0.437   2.692   2.788  0.1807 -0.5310 -0.5701
  997SOL    HW1 2990   0.426   2.725   2.699 -0.0091  2.1557  0.3461
  997SOL    HW2 2991   0.450   2.598   2.778 -3.3110 -0.9537 -3.2056
  998SOL     OW 2992   3.934   0.168   4.024  0.3150  0.8513  0.1454
  998SOL    HW1 2993   3.856   0.213   3.991 -0.7076 -1.4330 -0.7046
  998SOL    HW2 2994   3.957   0.105   3.956  1.3734 -0.2792  1.4892
  999SOL     OW 2995   0.182   0.300   1.582  0.1443 -0.6431  0.2812
  999SOL    HW1 2996   0.107   0.326   1.634 -0.2028  0.5577 -0.7714
  999SOL    HW2 2997   0.188   0.366   1.513  1.6132 -1.2269 -0.1974
 1000SOL     OW 2998   1.417   1.873   0.655 -0.0980 -0.1553  0.7908
 1000SOL    HW1 2999   1.378   1.895   0.571 -1.3816  0.2569  1.4615
 1000SOL    HW2 3000   1.465   1.791   0.639  0.0753  0.1644 -0.4269
 1001SOL     OW 3001   0.592   1.519   1.117 -0.4511 -0.4168 -0.7161
 1001SOL    HW1 3002   0.684   1.497   1.135 -1.3560 -3.4316  0.8269
 1001SOL    HW2 3003   0.596   1.570   1.036  2.6838  1.1282  0.2459
 1002SOL     OW 3004   0.260   0.717   1.860 -0.3815  0.0501  0.2402
 1002SOL    HW1 3005   0.260   0.649   1.792 -0.9252 -1.2374  1.4820
 1002SOL    HW2 3006   0.276   0.798   1.812  0.0956 -0.9157 -1.3172
 1003SOL     OW 3007   2.863   0.600   0.580  0.7188  0.1990 -0.3333
 1003SOL    HW1 3008   2.833   0.546   0.653 -0.6074  0.8457 -0.3723
 1003SOL    HW2 3009   2.785   0.647   0.551  2.0670  3.4655  0.8099
 1004SOL     OW 3010   2.534   3.733   3.767 -0.8089  0.2560  0.5692
 1004SOL    HW1 3011   2.572   3.674   3.702 -0.7149 -1.0352  1.7660
 1004SOL    HW2 3012   2.513   3.677   3.841 -0.1569  1.8207  1.9955
 1005SOL     OW 3013   0.046   1.279   0.723 -0.0757 -0.1157  0.1987
 1005SOL    HW1 3014   0.098   1.234   0.656 -1.1574  0.5815 -1.1656
 1005SOL    HW2 3015   0.110   1.310   0.786  0.9273 -1.3673 -0.1518
 1006SOL     OW 3016   1.946   0.970   2.386 -0.3468 -0.4048  0.8453
 1006SOL    HW1 3017   2.031   0.933   2.411 -0.5811 -0.3698  1.7443
 1006SOL    HW2 3018   1.938   0.951   2.292  0.6082 -0.4863  0.7720
 1007SOL     OW 3019   3.548   2.032   2.293  0.5313 -0.4324  0.1926
 1007SOL    HW1 3020   3.477   2.084   2.331 -0.7726 -1.6027 -0.5728
 1007SOL    HW2 3021   3.623   2.049   2.351 -0.3914  0.7060  1.1109
 1008SOL     OW 3022   2.028   2.152   0.427 -0.8202 -0.0807  0.1216
 1008SOL    HW1 3023   1.935   2.171   0.412 -0.9656 -1.0902 -0.3524
 1008SOL    HW2 3024   2.033   2.056   0.428  0.1485 -0.0379  0.6171
 1009SOL     OW 3025   3.499   2.574   2.029 -0.2027  0.0283 -0.0534
 1009SOL    HW1 3026   3.482   2.596   2.121  1.4648 -3.0760  1.1351
 1009SOL    HW2 3027   3.588   2.604   2.013 -0.0536 -0.5162 -0.2630
 1010SOL     OW 3028   2.848   1.172   3.864  0.0916  0.0669 -0.3545
 1010SOL    HW1 3029   2.820   1.169   3.955  1.9752 -0.8038  0.2287
 1010SOL    HW2 3030   2.817   1.090   3.827 -0.7371  0.4520 -0.5531
 1011SOL     OW 3031   1.158   0.227   1.101  0.3333 -0.0837 -0.1414
 1011SOL    HW1 3032   1.240   0.262   1.066  0.5036 -0.9091 -0.5869
 1011SOL    HW2 3033   1.093   0.295   1.081  1.0368  0.9752  0.9855
 1012SOL     OW 3034   0.494   1.719   2.259  0.5025 -0.7186 -0.6953
 1012SOL    HW1 3035   0.479   1.792   2.319  2.2652 -0.9222  0.0363
 1012SOL    HW2 3036   0.561   1.750   2.198  1.7440 -1.9184  0.0172
 1013SOL     OW 3037   2.735   1.842   1.347 -0.3597  0.1968 -0.0700
 1013SOL    HW1 3038   2.735   1.902   1.422 -0.6051  0.2678 -0.1250
 1013SOL    HW2 3039   2.809   1.783   1.363 -2.0482 -1.5725  1.6679
 1014SOL     OW 3040   3.486   0.664   0.669  1.0005  0.0225  0.2622
 1014SOL    HW1 3041   3.505   0.710   0.588  0.2458  0.5691  0.3841
 1014SOL    HW2 3042   3.392   0.647   0.666  1.1605 -0.9890  0.4980
 1015SOL     OW 3043   1.516   2.387   3.525 -0.0124  0.1381  0.0240
 1015SOL    HW1 3044   1.556   2.359   3.443 -0.5826  1.0345 -0.5720
 1015SOL    HW2 3045   1.436   2.432   3.500  0.3740  1.4441  0.9758
 1016SOL     OW 3046   2.410   0.660   1.695 -0.0562  0.1329  0.1237
 1016SOL    HW1 3047   2.388   0.683   1.786  0.4040  0.0751  0.2484
 1016SOL    HW2 3048   2.447   0.573   1.701 -1.5550 -0.5730 -0.3215
 1017SOL     OW 3049   3.074   0.177   2.920 -0.7523  0.0471  0.4814
 1017SOL    HW1 3050   3.158   0.218   2.900 -0.6525 -0.3827  0.0203
 1017SOL    HW2 3051   3.086   0.085   2.897 -2.2341  0.4566 -2.3574
 1018SOL     OW 3052   0.440   3.362   2.774  0.5910  0.0825 -0.7756
 1018SOL    HW1 3053   0.379   3.391   2.841 -0.8129 -1.5496 -1.3112
 1018SOL    HW2 3054   0.428   3.268   2.768  0.7767  0.1564 -3.2124
 1019SOL     OW 3055   1.563   0.251   1.255 -0.6476 -0.3931  0.0926
 1019SOL    HW1 3056   1.563   0.247   1.351  4.5849  2.5906  0.6124
 1019SOL    HW2 3057   1.518   0.332   1.234 -0.3831 -0.2233  0.1780
 1020SOL     OW 3058   1.580   3.262   0.610  0.2051  0.2391 -0.3669
 1020SOL    HW1 3059   1.675   3.272   0.610  0.0813  1.6322  0.3151
 1020SOL    HW2 3060   1.564   3.184   0.557  1.6993  0.2030 -0.8023
 1021SOL     OW 3061   2.691   2.057   2.542 -0.3894 -0.0929  0.1067
 1021SOL    HW1 3062   2.758   2.045   2.609  1.5734  1.8856 -1.3649
 1021SOL    HW2 3063   2.740   2.080   2.463 -2.7768  2.0296 -0.9031
 1022SOL     OW 3064   1.772   1.651   3.764  0.0293 -0.2501 -0.2141
 1022SOL    HW1 3065   1.770   1.648   3.859  0.1264  0.4340 -0.1846
 1022SOL    HW2 3066   1.844   1.593   3.739 -0.1180 -0.5781  0.1149
 1023SOL     OW 3067   1.310   0.168   0.334  0.4090 -0.1872 -0.1731
 1023SOL    HW1 3068   1.298   0.243   0.275 -0.0980 -0.7868 -0.8382
 1023SOL    HW2 3069   1.271   0.197   0.417 -0.3148  0.0780 -0.5956
 1024SOL     OW 3070   1.105   3.109   0.766  0.5432 -0.1838  0.2119
 1024SOL    HW1 3071   1.131   3.174   0.830  0.3277  0.6458 -0.5201
 1024SOL    HW2 3072   1.185   3.061   0.745  1.0215  0.8250 -0.3280
 1025SOL     OW 3073   3.966   1.890   0.635  0.4751 -0.3025  0.3259
 1025SOL    HW1 3074   3.974   1.797   0.657 -0.9675 -0.8085 -1.1373
 1025SOL    HW2 3075   4.044   1.908   0.582 -0.8185 -1.5797 -2.1647
 1026SOL     OW 3076   1.570   0.423   2.156  0.2698  0.1884  0.9943
 1026SOL    HW1 3077   1.662   0.435   2.181 -0.0683 -0.7963  2.9021
 1026SOL    HW2 3078   1.532   0.372   2.228 -1.9815  1.2537  0.6491
 1027SOL     OW 3079   2.761   2.022   1.109 -0.1190  0.6385  0.1564
 1027SOL    HW1 3080   2.750   2.033   1.203  0.3021 -2.0163  0.5868
 1027SOL    HW2 3081   2.698   2.083   1.070  0.3814  2.4910  2.0809
 1028SOL     OW 3082   1.726   1.729   3.247 -0.6599  0.8258  0.1947
 1028SOL    HW1 3083   1.670   1.742   3.324 -0.2665  1.4962  0.3759
 1028SOL    HW2 3084   1.708   1.640   3.219 -0.4855  0.4140  1.3376
 1029SOL     OW 3085   1.293   1.435   1.727  0.0128 -0.4550 -0.4746
 1029SOL    HW1 3086   1.376   1.430   1.774 -0.3272 -0.9941  0.0928
 1029SOL    HW2 3087   1.228   1.451   1.796 -0.5972 -2.0554 -0.6277
 1030SOL     OW 3088   1.538   3.536   2.262 -0.5225 -0.3062  0.2183
 1030SOL    HW1 3089   1.516   3.482   2.186 -1.5441 -1.7143  1.4437
 1030SOL    HW2 3090   1.559   3.472   2.331 -4.5738  0.5900  2.6108
 1031SOL     OW 3091   1.742   0.856   1.417  0.3059 -0.9936  0.3386
 1031SOL    HW1 3092   1.813   0.910   1.453  0.5083 -0.4044 -0.8983
 1031SOL    HW2 3093   1.787   0.782   1.376  0.4857  0.5778 -2.5810
 1032SOL     OW 3094   3.901   2.082   2.101  0.2036 -0.2868 -0.1688
 1032SOL    HW1 3095   3.972   2.060   2.162  0.4829  1.3940  0.1461
 1032SOL    HW2 3096   3.933   2.052   2.016  2.5683  2.7744 -0.5400
 1033SOL     OW 3097   2.514   1.436   2.363 -0.1639 -0.3261 -0.0714
 1033SOL    HW1 3098   2.543   1.356   2.406 -0.3082 -0.3833 -0.0780
 1033SOL    HW2 3099   2.422   1.419   2.340 -0.8190  0.5752  1.6971
 1034SOL     OW 3100   2.662   1.703   3.600  0.5851 -0.3697  0.0645
 1034SOL    HW1 3101   2.612   1.759   3.541  0.0877 -0.2597  0.5778
 1034SOL    HW2 3102   2.600   1.635   3.626  0.6888 -0.2128  0.7361
 1035SOL     OW 3103   2.703   3.017   0.481  0.0681  0.9483 -0.2538
 1035SOL    HW1 3104   2.712   3.005   0.575 -0.0581 -1.3576 -0.4945
 1035SOL    HW2 3105   2.609   3.028   0.468 -0.1900 -1.0405 -0.3005
 1036SOL     OW 3106   2.187   2.083   0.738  0.5545 -0.4145 -0.5230
 1036SOL    HW1 3107   2.250   2.042   0.678  2.5282  0.2181  0.9975
 1036SOL    HW2 3108   2.126   2.013   0.761  1.9181 -1.6375 -0.4984
 1037SOL     OW 3109   2.217   2.323   0.578  0.4543  0.2711  0.4915
 1037SOL    HW1 3110   2.282   2.298   0.513  2.3935 -0.0676  2.4187
 1037SOL    HW2 3111   2.157   2.248   0.582  1.3442 -0.4730  0.3167
 1038SOL     OW 3112   0.192   2.400   3.896  0.2509 -0.1438  0.3086
 1038SOL    HW1 3113   0.103   2.396   3.862 -0.0063  1.0335  0.7718
 1038SOL    HW2 3114   0.197   2.330   3.961 -0.4008 -0.0875  0.4216
 1039SOL     OW 3115   3.980  -0.008   3.136  0.7145 -0.5763 -0.1363
 1039SOL    HW1 3116   3.991  -0.043   3.224  1.2118 -1.0810 -0.3919
 1039SOL    HW2 3117   3.979   0.087   3.148  2.3616 -0.5826  0.2554
 1040SOL     OW 3118   3.311   1.284   1.612 -0.1591 -0.0570  0.8040
 1040SOL    HW1 3119   3.277   1.252   1.695  1.8131 -2.6684  0.7372
 1040SOL    HW2 3120   3.272   1.227   1.545  0.7473 -0.1257  0.3058
 1041SOL     OW 3121   3.382   2.966   0.860  0.1366 -0.3858  0.6416
 1041SOL    HW1 3122   3.394   2.894   0.799 -1.6463 -0.8544  0.7849
 1041SOL    HW2 3123   3.427   2.938   0.940  3.4390  0.6941 -0.6796
 1042SOL     OW 3124   0.411   2.481   1.407 -0.3465  0.3426  0.0381
 1042SOL    HW1 3125   0.401   2.402   1.354 -2.6241  0.3458  0.3532
 1042SOL    HW2 3126   0.441   2.450   1.492  1.3681  0.1385 -0.5948
 1043SOL     OW 3127   0.946   3.023   1.010  0.1919 -0.0533  0.1075
 1043SOL    HW1 3128   1.007   3.024   0.936  2.1229  1.5673  1.6326
 1043SOL    HW2 3129   0.925   3.115   1.025 -0.7475 -0.4154  1.1584
 1044SOL     OW 3130   2.871   1.424   0.563  0.0976  0.3799 -0.5520
 1044SOL    HW1 3131   2.936   1.465   0.506  0.9686  0.6916  0.6280
 1044SOL    HW2 3132   2.792   1.418   0.510  1.2881 -0.7168 -2.3083
 1045SOL     OW 3133   0.340   0.345   2.701 -0.3058  0.0005  0.0388
 1045SOL    HW1 3134   0.292   0.417   2.660 -0.7153 -0.7657 -0.8455
 1045SOL    HW2 3135   0.421   0.338   2.649 -0.1883 -0.0724  0.2297
 1046SOL     OW 3136   0.280   0.521   1.396 -0.1225 -0.2032  0.4645
 1046SOL    HW1 3137   0.286   0.615   1.379  1.3959 -0.1818  0.9659
 1046SOL    HW2 3138   0.269   0.482   1.309  0.9019  0.3350  0.0742
 1047SOL     OW 3139   0.203   0.295   0.401  0.3006  0.4153 -0.4280
 1047SOL    HW1 3140   0.296   0.316   0.395  0.3793  0.4332  0.7215
 1047SOL    HW2 3141   0.186   0.284   0.494  0.3540 -4.9141 -0.7255
 1048SOL     OW 3142   3.195   2.352   1.371 -0.1525 -0.0613 -0.8136
 1048SOL    HW1 3143   3.171   2.443   1.354 -1.2151 -0.4570 -1.4926
 1048SOL    HW2 3144   3.257   2.330   1.302  1.9007  0.7959  0.6358
 1049SOL     OW 3145   1.002   2.324   1.804 -0.1436  0.4752  0.3631
 1049SOL    HW1 3146   1.056   2.357   1.733  0.5429  0.8156  1.0262
 1049SOL    HW2 3147   0.929   2.279   1.761  0.1372  0.8785 -0.5408
 1050SOL     OW 3148   3.021   0.966   2.822 -0.7520 -0.1520  0.0907
 1050SOL    HW1 3149   2.963   1.012   2.882  1.5976 -0.0423  2.4971
 1050SOL    HW2 3150   3.002   0.873   2.837 -1.5310 -0.0934 -0.4943
 1051SOL     OW 3151   1.215   2.224   3.421 -0.0057 -0.8014 -0.0115
 1051SOL    HW1 3152   1.306   2.217   3.392  0.3551 -2.4780  1.3437
 1051SOL    HW2 3153   1.212   2.305   3.472  0.6775 -0.6195 -0.2519
 1052SOL     OW 3154   1.608   0.275   1.896 -0.3384 -0.5247  0.7802
 1052SOL    HW1 3155   1.578   0.337   1.963 -1.7425 -0.3321  0.0136
 1052SOL    HW2 3156   1.550   0.199   1.906 -2.2181  0.4390 -1.6782
 1053SOL     OW 3157   2.495   1.057   3.931 -0.0205 -0.5952  0.1566
 1053SOL    HW1 3158   2.522   1.037   4.021 -1.0171  1.3161  0.9268
 1053SOL    HW2 3159   2.423   0.997   3.913  0.0890 -0.8863  0.6851
 1054SOL     OW 3160   0.123   0.019   1.483  0.1438  0.4967  0.0337
 1054SOL    HW1 3161   0.110   0.112   1.498  1.1109  0.4003  1.7104
 1054SOL    HW2 3162   0.215   0.011   1.458  0.3065 -0.0874  0.7866
 1055SOL     OW 3163   1.598   0.523   3.389  0.1947  0.5486  0.2990
 1055SOL    HW1 3164   1.517   0.517   3.440 -0.0912  1.5057 -0.0290
 1055SOL    HW2 3165   1.621   0.432   3.370  0.0614  0.1794  1.7390
 1056SOL     OW 3166   3.701   3.708   1.370  0.6058  0.2693  0.3226
 1056SOL    HW1 3167   3.771   3.652   1.403  1.5494  0.5928 -1.0590
 1056SOL    HW2 3168   3.625   3.687   1.426  1.0880 -1.9375  0.2315
 1057SOL     OW 3169   0.652   0.408   3.791  0.6272  0.4939  0.0445
 1057SOL    HW1 3170   0.659   0.325   3.838 -0.1386  0.2820 -0.2072
 1057SOL    HW2 3171   0.727   0.408   3.732  0.4350 -0.1862 -0.2080
 1058SOL     OW 3172   3.264   1.371   1.171 -0.0022 -0.4359 -0.0529
 1058SOL    HW1 3173   3.262   1.339   1.260  3.3195 -2.1212 -0.4547
 1058SOL    HW2 3174   3.345   1.422   1.165 -0.3917  0.0554 -1.9855
 1059SOL     OW 3175   2.629   0.388   1.109 -1.1430 -0.2888  0.3381
 1059SOL    HW1 3176   2.643   0.368   1.201 -0.6109  0.1865  0.3662
 1059SOL    HW2 3177   2.593   0.477   1.110  1.8869  1.0422 -0.0490
 1060SOL     OW 3178   0.747   1.405   2.924 -0.0115  0.3153 -0.1092
 1060SOL    HW1 3179   0.714   1.358   2.847  0.1145  1.0596 -0.6260
 1060SOL    HW2 3180   0.747   1.497   2.898 -0.6612  0.6615  1.0406
 1061SOL     OW 3181   2.384   1.071   0.286  0.0114 -0.1407 -0.6383
 1061SOL    HW1 3182   2.478   1.074   0.268 -0.1281  3.2808 -1.4960
 1061SOL    HW2 3183   2.373   0.995   0.342  2.9765 -1.7729 -2.0173
 1062SOL     OW 3184   0.680   3.213   2.933  0.0387  0.1719 -0.5083
 1062SOL    HW1 3185   0.705   3.131   2.975 -0.9322  0.1706  0.1224
 1062SOL    HW2 3186   0.591   3.230   2.966  0.5294  1.9006  0.0469
 1063SOL     OW 3187   2.782   2.067   2.278  0.0484 -0.0041 -0.1999
 1063SOL    HW1 3188   2.873   2.048   2.254  0.7370  1.3543  1.1495
 1063SOL    HW2 3189   2.766   2.154   2.241 -1.6288 -1.2600 -2.6836
 1064SOL     OW 3190   1.424   2.723   3.198 -0.3786  0.5457 -0.0205
 1064SOL    HW1 3191   1.385   2.796   3.150  0.2917  0.1701 -1.1600
 1064SOL    HW2 3192   1.460   2.764   3.277  0.3316  1.5279 -0.8270
 1065SOL     OW 3193   0.842   2.022   0.438  0.1469  0.5286  0.3326
 1065SOL    HW1 3194   0.912   2.021   0.372 -0.5230  0.7141 -0.3913
 1065SOL    HW2 3195   0.771   2.072   0.398 -1.8456 -2.6076 -0.4870
 1066SOL     OW 3196   2.299   0.691   1.352 -0.0070  0.1290 -0.1432
 1066SOL    HW1 3197   2.356   0.729   1.285  0.8710  0.1714  0.6154
 1066SOL    HW2 3198   2.307   0.751   1.426 -1.5502  0.4913 -0.2366
 1067SOL     OW 3199   3.985   2.689   2.752  0.3585 -0.6036  0.1568
 1067SOL    HW1 3200   4.006   2.782   2.743  1.3406 -0.9480 -1.6275
 1067SOL    HW2 3201   3.917   2.674   2.687 -0.8403 -0.8800  1.4214
 1068SOL     OW 3202   2.285   1.460   1.012 -0.2776  0.4801  0.2635
 1068SOL    HW1 3203   2.338   1.396   1.060  0.7223  1.4740  0.5299
 1068SOL    HW2 3204   2.195   1.430   1.023  0.2342 -1.4656 -0.5158
 1069SOL     OW 3205   2.355   2.451   3.916 -0.1110  0.3501  0.1473
 1069SOL    HW1 3206   2.309   2.527   3.880 -0.4833  0.5302  0.9698
 1069SOL    HW2 3207   2.315   2.376   3.872 -0.0829  0.5946 -0.3089
 1070SOL     OW 3208   1.510   2.532   1.030 -0.3168  0.1792  0.3458
 1070SOL    HW1 3209   1.587   2.481   1.055  0.0764  0.4602 -0.2564
 1070SOL    HW2 3210   1.539   2.623   1.034 -0.6380  0.2910  0.1981
 1071SOL     OW 3211   3.034   3.071   3.973 -0.0092 -0.7628  0.0666
 1071SOL    HW1 3212   2.978   3.134   4.019 -0.5907 -1.7775  0.7648
 1071SOL    HW2 3213   2.973   3.015   3.925  0.5335 -0.4866 -0.9796
 1072SOL     OW 3214   0.421   3.660   2.925 -0.3238 -0.2110  0.4574
 1072SOL    HW1 3215   0.458   3.677   2.838 -0.5973 -0.2997  0.3231
 1072SOL    HW2 3216   0.374   3.741   2.947  2.4341  1.1218  1.9398
 1073SOL     OW 3217   2.281   1.077   1.642  0.7083  0.4233  0.3067
 1073SOL    HW1 3218   2.186   1.089   1.649  0.6630  0.3739 -0.2043
 1073SOL    HW2 3219   2.307   1.045   1.728  0.3463  1.0131  0.6422
 1074SOL     OW 3220   3.093   3.882   1.048  0.2123  0.0033 -0.4277
 1074SOL    HW1 3221   3.157   3.927   0.992  0.6377 -0.4902 -0.3441
 1074SOL    HW2 3222   3.121   3.903   1.137  1.9599 -2.4455 -0.2987
 1075SOL     OW 3223   3.899   1.227   1.551 -0.1664  0.0918  0.3264
 1075SOL    HW1 3224   3.876   1.316   1.578  1.3183  0.9182 -0.9807
 1075SOL    HW2 3225   3.915   1.180   1.634  0.3418  1.4205  1.0055
 1076SOL     OW 3226   1.306   1.933   1.045 -0.0036 -0.0419 -0.9185
 1076SOL    HW1 3227   1.306   2.028   1.053  1.7430  0.0748 -1.8206
 1076SOL    HW2 3228   1.370   1.903   1.108 -0.7500 -0.6628 -0.4399
 1077SOL     OW 3229   1.358   3.020   3.673  0.2983 -0.9943 -0.2506
 1077SOL    HW1 3230   1.314   3.102   3.648  0.1866 -1.1712 -0.6446
 1077SOL    HW2 3231   1.426   3.047   3.735  1.3251 -0.3994 -1.5924
 1078SOL     OW 3232   3.342   3.982   2.837 -0.4250  0.8190 -0.1486
 1078SOL    HW1 3233   3.408   4.004   2.772  0.9697 -0.7428  0.6629
 1078SOL    HW2 3234   3.362   3.891   2.862 -3.2249  0.0444 -0.2914
 1079SOL     OW 3235   1.404   2.675   2.363  0.3582 -0.2524  0.1018
 1079SOL    HW1 3236   1.437   2.721   2.440  2.4694 -1.9465  0.3008
 1079SOL    HW2 3237   1.313   2.655   2.384  0.4157  0.7610  1.4308
 1080SOL     OW 3238   2.350   0.806   3.336  0.1832  0.5534 -0.8685
 1080SOL    HW1 3239   2.382   0.728   3.382  1.9118  2.2480  0.9986
 1080SOL    HW2 3240   2.368   0.788   3.244  4.9203  0.4703 -0.2025
 1081SOL     OW 3241   0.023   0.145   2.237 -0.3296 -0.6839 -0.5025
 1081SOL    HW1 3242  -0.010   0.057   2.254 -1.1007 -0.3738 -0.3618
 1081SOL    HW2 3243   0.074   0.136   2.157  0.8970 -1.5631  0.3304
 1082SOL     OW 3244   0.762   1.345   0.190  0.6251 -0.7305  0.5207
 1082SOL    HW1 3245   0.666   1.351   0.193  0.5753 -1.4902  0.6392
 1082SOL    HW2 3246   0.782   1.321   0.099  0.6102 -1.9584  0.8320
 1083SOL     OW 3247   0.502   1.703   3.892  0.3808  0.5384  0.7217
 1083SOL    HW1 3248   0.592   1.671   3.884  0.1582  0.0154  0.2029
 1083SOL    HW2 3249   0.464   1.651   3.963 -0.2051 -0.9548 -0.6019
 1084SOL     OW 3250   2.266   3.659   1.977 -0.1847 -0.4950  0.4121
 1084SOL    HW1 3251   2.270   3.606   1.898 -2.5796  0.1895 -0.2562
 1084SOL    HW2 3252   2.335   3.725   1.966 -0.0758 -0.7946 -0.8021
 1085SOL     OW 3253   2.337   2.339   1.423  0.6800  0.4716 -1.0860
 1085SOL    HW1 3254   2.306   2.253   1.454  2.4316 -0.7606 -2.5199
 1085SOL    HW2 3255   2.264   2.374   1.373  0.2867 -0.6554 -1.3248
 1086SOL     OW 3256   1.576   3.765   2.721  0.1815 -0.1872 -0.3557
 1086SOL    HW1 3257   1.656   3.818   2.718 -0.1870  0.4026  0.2197
 1086SOL    HW2 3258   1.524   3.796   2.647  0.6455 -0.8551 -0.9853
 1087SOL     OW 3259   2.483   3.363   0.243  0.2236 -0.0388  0.0338
 1087SOL    HW1 3260   2.429   3.285   0.231 -0.0610 -0.1345  1.7804
 1087SOL    HW2 3261   2.428   3.435   0.212  0.1550 -0.4252 -0.7683
 1088SOL     OW 3262   3.793   3.347   2.283 -0.1975 -0.1911 -0.2255
 1088SOL    HW1 3263   3.856   3.325   2.215 -1.2765 -0.4626 -1.1783
 1088SOL    HW2 3264   3.712   3.364   2.235 -0.7526  0.5263  0.9284
 1089SOL     OW 3265   0.786   2.617   0.069  0.2866  0.2150  0.6792
 1089SOL    HW1 3266   0.876   2.601   0.043  1.7231  1.7145  4.0471
 1089SOL    HW2 3267   0.734   2.553   0.020  3.0472 -0.3023 -1.8146
 1090SOL     OW 3268   3.505   1.686   1.883  0.3397  0.5697 -0.0186
 1090SOL    HW1 3269   3.494   1.602   1.837  0.3408  0.2504  0.5513
 1090SOL    HW2 3270   3.540   1.661   1.969 -0.4479  1.0801  0.4657
 1091SOL     OW 3271   2.674   1.086   2.863  0.3346 -0.8660 -0.0099
 1091SOL    HW1 3272   2.677   1.011   2.805  2.8760  1.5189 -3.3235
 1091SOL    HW2 3273   2.759   1.086   2.907  1.5650  1.3445 -2.1277
 1092SOL     OW 3274   3.728   2.044   2.888  0.0921  0.7444 -0.3819
 1092SOL    HW1 3275   3.643   2.006   2.868  0.8794 -0.5783 -1.3326
 1092SOL    HW2 3276   3.771   2.055   2.803  2.0821 -1.5780  0.1939
 1093SOL     OW 3277   3.020   0.137   1.720  0.3669 -0.2270  0.3104
 1093SOL    HW1 3278   3.016   0.133   1.624  0.2053 -1.3401  0.3530
 1093SOL    HW2 3279   3.096   0.194   1.738  1.0458 -0.8543 -0.4773
 1094SOL     OW 3280   1.962   3.759   2.081 -0.6543  0.2185 -0.2611
 1094SOL    HW1 3281   2.003   3.826   2.026 -1.3085 -0.0042 -1.0441
 1094SOL    HW2 3282   2.032   3.731   2.141 -0.1757  1.0885 -0.3928
 1095SOL     OW 3283   2.968   1.707   1.681 -0.2740  0.0647  0.6976
 1095SOL    HW1 3284   2.948   1.793   1.644  0.1894  0.1539  0.6442
 1095SOL    HW2 3285   3.064   1.706   1.687 -0.3152 -0.1849  1.3366
 1096SOL     OW 3286   2.775   0.937   0.623  0.3117  0.3251  0.2494
 1096SOL    HW1 3287   2.828   0.915   0.700  3.0930  0.3507 -1.5325
 1096SOL    HW2 3288   2.745   1.026   0.639  0.6744  0.2568  1.3996
 1097SOL     OW 3289   2.761   2.522   3.724 -0.0345  0.5928 -0.0997
 1097SOL    HW1 3290   2.787   2.433   3.698 -1.6038 -0.2807  1.1320
 1097SOL    HW2 3291   2.842   2.572   3.719  0.3415 -0.0920 -3.7989
 1098SOL     OW 3292   3.293   3.074   1.392 -1.1760 -0.2094  0.5451
 1098SOL    HW1 3293   3.374   3.053   1.439 -2.4630 -1.0931  2.5291
 1098SOL    HW2 3294   3.274   3.165   1.415 -0.4121  0.2344 -0.5067
 1099SOL     OW 3295   1.350   3.713   3.739  0.2841 -0.9569  0.8634
 1099SOL    HW1 3296   1.311   3.783   3.791  0.5640 -0.6305  0.6418
 1099SOL    HW2 3297   1.293   3.705   3.662  0.4506 -0.7227  0.7131
 1100SOL     OW 3298   0.914   3.370   2.942 -0.2285 -0.2141 -0.5068
 1100SOL    HW1 3299   0.836   3.315   2.934 -0.2709 -0.1129 -0.7913
 1100SOL    HW2 3300   0.880   3.458   2.952 -0.1718 -0.3077  0.5606
 1101SOL     OW 3301   1.324   0.836   3.789 -0.4717 -0.8452  0.6785
 1101SOL    HW1 3302   1.400   0.791   3.825  0.0634  0.4581  1.2515
 1101SOL    HW2 3303   1.305   0.906   3.852 -0.7130  0.2738 -0.5825
 1102SOL     OW 3304   3.471   1.519   1.203  0.6518  1.0274  0.5869
 1102SOL    HW1 3305   3.549   1.570   1.225 -0.0846  1.4427  2.4354
 1102SOL    HW2 3306   3.453   1.468   1.281 -0.5210  0.3968 -0.0689
 1103SOL     OW 3307   0.277   2.110   3.686 -0.2413  0.0238  0.6210
 1103SOL    HW1 3308   0.230   2.117   3.769  0.7362  1.7268  1.0827
 1103SOL    HW2 3309   0.307   2.199   3.668  2.0353 -0.8221 -0.0957
 1104SOL     OW 3310   3.203   2.024   2.235 -0.0970  0.1941  0.6219
 1104SOL    HW1 3311   3.198   1.983   2.148  1.0351 -1.3275  1.2316
 1104SOL    HW2 3312   3.145   1.970   2.289 -0.8399  1.1723  0.8198
 1105SOL     OW 3313   0.645   1.547   3.641  0.0914 -0.4326 -0.2852
 1105SOL    HW1 3314   0.679   1.467   3.600  2.9670 -0.2919  1.5901
 1105SOL    HW2 3315   0.671   1.618   3.583  0.5137 -0.5834 -0.2798
 1106SOL     OW 3316   3.862   0.307   0.984 -0.0737  0.6323  0.2791
 1106SOL    HW1 3317   3.903   0.223   1.005 -0.5019  0.6013  1.0424
 1106SOL    HW2 3318   3.768   0.287   0.983 -0.0866  0.5240 -2.2191
 1107SOL     OW 3319   0.924   3.545   1.858  0.1288 -0.2386 -0.3994
 1107SOL    HW1 3320   0.863   3.543   1.784 -0.0103  2.0370 -0.4408
 1107SOL    HW2 3321   0.869   3.555   1.935  0.2815  4.2730 -0.6065
 1108SOL     OW 3322   3.989   0.902   0.040  0.7323 -0.0475  0.4822
 1108SOL    HW1 3323   3.969   0.996   0.045  1.1529  0.0721 -0.0042
 1108SOL    HW2 3324   3.980   0.880  -0.052 -1.1434 -0.9063  0.8232
 1109SOL     OW 3325   1.548   1.794   2.217 -0.0066  0.2579  0.1375
 1109SOL    HW1 3326   1.550   1.705   2.254  2.7283  0.1105 -0.1819
 1109SOL    HW2 3327   1.549   1.851   2.293 -0.5676  0.0099  0.3356
 1110SOL     OW 3328   3.178   1.689   2.249 -0.1465  0.6467  0.4497
 1110SOL    HW1 3329   3.114   1.718   2.184  0.6950 -0.1251 -0.7783
 1110SOL    HW2 3330   3.255   1.744   2.233  0.5983 -0.5484 -0.2757
 1111SOL     OW 3331   0.424   2.420   2.809 -0.6395  0.0814 -0.1340
 1111SOL    HW1 3332   0.491   2.406   2.742 -1.0522  0.4249 -0.6319
 1111SOL    HW2 3333   0.375   2.338   2.811  0.4936 -0.5946  1.0537
 1112SOL     OW 3334   1.140   1.154   1.956  0.2705 -0.6633 -0.5460
 1112SOL    HW1 3335   1.064   1.183   1.907  2.2419  1.9717 -2.3601
 1112SOL    HW2 3336   1.110   1.148   2.047 -1.7675  1.7646 -0.9599
 1113SOL     OW 3337   3.592   2.928   0.181  0.0763  0.4443 -0.0599
 1113SOL    HW1 3338   3.515   2.977   0.151  0.4603  0.7183 -0.6169
 1113SOL    HW2 3339   3.648   2.922   0.104  0.1697 -0.6407  0.0743
 1114SOL     OW 3340   0.751   1.655   3.419 -0.3508 -0.5831  0.4503
 1114SOL    HW1 3341   0.817   1.724   3.426 -0.0035 -1.0814  2.6385
 1114SOL    HW2 3342   0.778   1.604   3.343 -0.3700  1.3795 -0.9570
 1115SOL     OW 3343   3.529   1.981   0.042  0.6939  0.1155  0.5968
 1115SOL    HW1 3344   3.541   1.895   0.084 -0.3074  0.5794  1.9253
 1115SOL    HW2 3345   3.553   2.044   0.110  2.6146  0.9340 -0.7551
 1116SOL     OW 3346   0.694   1.889   1.554  0.0437  0.3646  0.1021
 1116SOL    HW1 3347   0.660   1.932   1.476 -0.8510  0.1875  0.3709
 1116SOL    HW2 3348   0.764   1.832   1.522  1.7942  2.5300 -0.1666
 1117SOL     OW 3349   2.906   3.783   1.361 -0.4058 -0.0307  0.0897
 1117SOL    HW1 3350   2.905   3.762   1.454 -2.8143  4.0025  1.2304
 1117SOL    HW2 3351   2.887   3.701   1.317 -1.2143 -1.6856  3.2862
 1118SOL     OW 3352   0.753   0.144   3.558 -0.6329  0.4809  0.3582
 1118SOL    HW1 3353   0.800   0.221   3.527 -0.9944  0.4697 -0.2247
 1118SOL    HW2 3354   0.789   0.128   3.646 -1.1649  1.8360  0.8490
 1119SOL     OW 3355   1.765   2.493   2.818 -0.3288  0.0484 -0.7990
 1119SOL    HW1 3356   1.805   2.489   2.731 -0.2060 -0.8580 -0.7134
 1119SOL    HW2 3357   1.747   2.586   2.832  4.2275  0.9962  0.2939
 1120SOL     OW 3358   3.959   1.396   3.378 -0.3373 -0.5340  0.0136
 1120SOL    HW1 3359   3.992   1.341   3.307  0.6748  0.0446  0.0269
 1120SOL    HW2 3360   3.983   1.348   3.458 -2.1705 -1.5834 -0.0065
 1121SOL     OW 3361   2.269   1.445   1.863 -0.4207  0.3824 -0.2951
 1121SOL    HW1 3362   2.298   1.382   1.797 -2.2703  0.1777 -0.9613
 1121SOL    HW2 3363   2.174   1.443   1.859 -0.7345 -0.9164  3.5883
 1122SOL     OW 3364   0.121   2.873   0.596  0.2829  0.1215 -0.1435
 1122SOL    HW1 3365   0.138   2.784   0.564  0.1253  0.1132 -0.2073
 1122SOL    HW2 3366   0.056   2.908   0.535 -2.1293 -0.8745  1.6837
 1123SOL     OW 3367   2.646   0.675   1.442  0.4687  0.8948  0.6346
 1123SOL    HW1 3368   2.563   0.713   1.414  1.0455  1.6541 -0.1071
 1123SOL    HW2 3369   2.709   0.747   1.432  0.9440  0.8153  2.6828
 1124SOL     OW 3370   1.464   3.059   0.169  0.2288  0.0947  0.7657
 1124SOL    HW1 3371   1.379   3.037   0.205 -0.8140 -0.6240 -1.8691
 1124SOL    HW2 3372   1.487   2.983   0.115  2.2777  0.5285  0.9571
 1125SOL     OW 3373   2.530   0.680   2.294 -0.0026  0.6993 -0.1031
 1125SOL    HW1 3374   2.480   0.599   2.283  1.1997 -0.0550 -0.1597
 1125SOL    HW2 3375   2.520   0.701   2.387 -1.5692  1.3441 -0.3949
 1126SOL     OW 3376   1.829   0.727   1.848 -0.2019  0.5315  0.3085
 1126SOL    HW1 3377   1.867   0.640   1.865 -2.3908 -1.6304 -4.2642
 1126SOL    HW2 3378   1.751   0.730   1.903 -0.6177 -0.8810 -0.1672
 1127SOL     OW 3379   1.796   0.046   1.916 -0.3639  0.6330 -0.0639
 1127SOL    HW1 3380   1.747  -0.036   1.924 -2.5000  1.3408 -3.6422
 1127SOL    HW2 3381   1.730   0.114   1.919  0.8944  1.9565 -0.9088
 1128SOL     OW 3382   2.970   0.385   0.146  0.7439 -0.0321  0.2841
 1128SOL    HW1 3383   3.017   0.302   0.158  1.1964  0.1775 -0.0280
 1128SOL    HW2 3384   2.906   0.386   0.217  1.4777 -0.1371  0.9657
 1129SOL     OW 3385   2.125   2.970   0.819  0.2126 -0.4881 -0.3721
 1129SOL    HW1 3386   2.036   2.990   0.848  0.7804  1.1055  0.4111
 1129SOL    HW2 3387   2.114   2.923   0.737 -1.3444  0.4394 -0.7375
 1130SOL     OW 3388   3.176   2.836   3.459  0.0953  0.2226  0.8280
 1130SOL    HW1 3389   3.086   2.855   3.483 -0.0726  1.2713 -0.4562
 1130SOL    HW2 3390   3.226   2.912   3.491  0.0554  1.0109 -0.8452
 1131SOL     OW 3391   2.310   2.602   1.550 -0.0506  0.2454 -0.1677
 1131SOL    HW1 3392   2.260   2.682   1.538  0.3460  0.5398  0.0846
 1131SOL    HW2 3393   2.268   2.538   1.493  0.5607  1.0361 -1.5691
 1132SOL     OW 3394   1.584   0.199   3.581  0.5812 -0.0016 -1.0905
 1132SOL    HW1 3395   1.576   0.160   3.494  2.7984 -1.3554 -0.7669
 1132SOL    HW2 3396   1.673   0.235   3.583  1.8433 -2.8092  1.5996
 1133SOL     OW 3397   1.045   2.095   3.585 -0.2647 -0.6699  0.2435
 1133SOL    HW1 3398   1.124   2.146   3.572  0.7899 -2.3629 -0.3874
 1133SOL    HW2 3399   0.975   2.147   3.545  0.6110  0.5985  0.3230
 1134SOL     OW 3400   1.706   1.615   0.663  0.1490  0.3929  0.8214
 1134SOL    HW1 3401   1.719   1.634   0.756  2.0498  0.8963  0.4987
 1134SOL    HW2 3402   1.779   1.557   0.640  0.0600  0.7628 -0.4921
 1135SOL     OW 3403   3.457   0.086   3.067 -0.6184  0.1305 -0.0113
 1135SOL    HW1 3404   3.394   0.121   3.130  0.1144 -0.6317  1.1686
 1135SOL    HW2 3405   3.403   0.060   2.992 -1.4198  1.7271 -0.0408
 1136SOL     OW 3406   0.023   2.087   1.624 -0.0504  0.0589 -0.4592
 1136SOL    HW1 3407  -0.035   2.128   1.559 -1.0300 -0.4677  0.0605
 1136SOL    HW2 3408   0.044   2.157   1.685 -1.5914 -0.1362  0.3362
 1137SOL     OW 3409   3.922   2.304   0.060  0.1114  0.7440 -0.0446
 1137SOL    HW1 3410   3.851   2.250   0.026 -0.1657 -1.0810  3.0723
 1137SOL    HW2 3411   3.923   2.381   0.002 -1.2485 -1.3041 -3.0398
 1138SOL     OW 3412   3.039   3.526   2.650 -0.5083 -0.2508 -0.1993
 1138SOL    HW1 3413   3.120   3.577   2.646 -1.2512  0.8741 -2.0474
 1138SOL    HW2 3414   3.043   3.467   2.575 -1.2582 -0.3914 -0.1434
 1139SOL     OW 3415   0.585   1.144   2.131  0.7757  0.1912 -0.3169
 1139SOL    HW1 3416   0.565   1.144   2.037  0.3943 -0.6600 -0.2415
 1139SOL    HW2 3417   0.592   1.237   2.154  0.0304  0.4303 -1.0071
 1140SOL     OW 3418   2.457   0.178   3.260 -0.3300  0.2640 -0.3511
 1140SOL    HW1 3419   2.428   0.094   3.225 -1.3901 -0.3543  1.8344
 1140SOL    HW2 3420   2.550   0.165   3.280 -0.3787 -0.2389 -0.4399
 1141SOL     OW 3421   1.977   0.749   2.950 -0.0803 -0.2142  0.6185
 1141SOL    HW1 3422   1.939   0.681   3.005 -1.0190  0.5705  0.9716
 1141SOL    HW2 3423   2.064   0.764   2.987 -0.6997  0.3173  1.9470
 1142SOL     OW 3424   1.311   3.340   3.715  0.4111 -0.2084 -0.4310
 1142SOL    HW1 3425   1.339   3.301   3.798  0.1267 -0.5792 -0.5046
 1142SOL    HW2 3426   1.391   3.368   3.672  0.6681 -1.2193 -0.6275
 1143SOL     OW 3427   1.005   2.186   2.966  0.5589  0.3008 -1.2058
 1143SOL    HW1 3428   0.967   2.176   3.053  1.1666  0.3118 -0.9357
 1143SOL    HW2 3429   1.097   2.207   2.982  0.6718  0.3178 -1.8496
 1144SOL     OW 3430   2.793   2.210   1.664 -0.0735  0.7908  0.0384
 1144SOL    HW1 3431   2.735   2.248   1.598  0.9725 -0.6358 -1.8421
 1144SOL    HW2 3432   2.773   2.116   1.662  1.4806  0.4260  0.1521
 1145SOL     OW 3433   2.407   3.360   3.894  0.1547  0.3420 -0.0769
 1145SOL    HW1 3434   2.358   3.406   3.962 -0.9683 -0.8773 -0.0201
 1145SOL    HW2 3435   2.497   3.390   3.904 -0.1604  0.8656  1.3469
 1146SOL     OW 3436   2.075   1.174   3.865  0.0010  0.3366  0.2064
 1146SOL    HW1 3437   2.141   1.242   3.877  2.1894 -1.5053 -0.7891
 1146SOL    HW2 3438   2.119   1.106   3.814 -2.4862 -1.2831  0.0528
 1147SOL     OW 3439   0.325   3.072   2.050 -0.0018  0.2421 -0.5261
 1147SOL    HW1 3440   0.243   3.027   2.028  0.4048 -1.3636  1.0034
 1147SOL    HW2 3441   0.326   3.149   1.993 -2.7233  0.4918 -0.3909
 1148SOL     OW 3442   1.643   0.693   2.968  0.2504  0.1861  0.0039
 1148SOL    HW1 3443   1.675   0.777   2.935 -0.2653  1.1827  1.9378
 1148SOL    HW2 3444   1.722   0.641   2.981  0.7208  0.9841  0.4009
 1149SOL     OW 3445   1.335   3.679   3.430 -0.2303  0.0571 -0.2798
 1149SOL    HW1 3446   1.351   3.619   3.357  1.4562  0.7115 -0.4933
 1149SOL    HW2 3447   1.422   3.710   3.455 -0.9535  1.4411  0.6481
 1150SOL     OW 3448   0.438   0.289   0.865  0.5423 -0.5153 -0.1738
 1150SOL    HW1 3449   0.423   0.235   0.787 -1.2849 -1.3986  0.7156
 1150SOL    HW2 3450   0.443   0.226   0.937 -0.1619  0.3935  0.7030
 1151SOL     OW 3451   3.949   3.882   3.398  0.5049  0.0655 -0.3061
 1151SOL    HW1 3452   3.903   3.798   3.401  1.3112 -0.4108 -0.7281
 1151SOL    HW2 3453   3.921   3.928   3.477 -1.4115  0.2109 -1.0342
 1152SOL     OW 3454   0.409   2.166   2.316 -0.0849  0.2524 -0.8978
 1152SOL    HW1 3455   0.495   2.135   2.344  0.7572  1.5775 -1.9154
 1152SOL    HW2 3456   0.383   2.105   2.247 -0.5156 -0.8344  0.1832
 1153SOL     OW 3457   0.031   0.633   1.617 -0.0061 -0.1899 -0.2454
 1153SOL    HW1 3458  -0.006   0.550   1.646  1.4531 -0.7211  0.1701
 1153SOL    HW2 3459   0.007   0.640   1.525 -1.4652 -0.3041  0.1017
 1154SOL     OW 3460   2.661   2.184   2.926  0.0290  0.4279 -0.1866
 1154SOL    HW1 3461   2.585   2.240   2.945 -1.1471 -0.3199 -2.4044
 1154SOL    HW2 3462   2.643   2.103   2.974 -0.6197  0.2305 -0.7523
 1155SOL     OW 3463   2.853   3.755   3.289 -0.3349  0.0665 -0.4522
 1155SOL    HW1 3464   2.891   3.673   3.321 -1.4199 -0.3365 -0.1374
 1155SOL    HW2 3465   2.909   3.781   3.216 -0.1905 -1.1698 -0.8023
 1156SOL     OW 3466   2.755   0.723   1.104  0.0667  0.7279 -0.3161
 1156SOL    HW1 3467   2.809   0.658   1.060 -2.5923  0.4703 -3.5554
 1156SOL    HW2 3468   2.793   0.807   1.080 -0.0759  0.5181 -1.2892
 1157SOL     OW 3469   0.437   1.413   3.824  0.0755  0.5089  0.2400
 1157SOL    HW1 3470   0.389   1.444   3.748 -0.1309  1.1232  0.6170
 1157SOL    HW2 3471   0.529   1.428   3.801 -0.0441  2.5178  0.8604
 1158SOL     OW 3472   1.777   2.804   1.783 -0.1838  0.3535 -0.1967
 1158SOL    HW1 3473   1.745   2.718   1.754 -0.4145  0.7906 -1.2795
 1158SOL    HW2 3474   1.838   2.784   1.854  0.8148 -0.8058 -1.3378
 1159SOL     OW 3475   0.933   3.749   1.086  0.3210  0.1596 -0.0875
 1159SOL    HW1 3476   0.838   3.756   1.078  0.2692 -0.5342 -0.1696
 1159SOL    HW2 3477   0.964   3.839   1.097 -0.2488  0.4792 -1.0354
 1160SOL     OW 3478   0.750   2.121   3.776  0.5950 -0.2564  0.2299
 1160SOL    HW1 3479   0.669   2.071   3.782  1.7748 -2.4770 -1.1786
 1160SOL    HW2 3480   0.754   2.150   3.685 -0.4621  3.3269  1.1530
 1161SOL     OW 3481   1.675   1.072   2.843  0.0419 -0.0128 -0.2750
 1161SOL    HW1 3482   1.736   1.046   2.912 -0.3603  0.7190  0.3737
 1161SOL    HW2 3483   1.720   1.142   2.796  0.0123  0.0108 -0.2684
 1162SOL     OW 3484   0.092   3.945   1.220 -0.0028  0.1782  0.1112
 1162SOL    HW1 3485   0.112   3.958   1.313 -0.0488  0.7504  0.0455
 1162SOL    HW2 3486   0.107   3.852   1.205  2.1214  0.4390  0.2045
 1163SOL     OW 3487   2.677   0.816   3.422 -0.3717 -0.0149  0.3635
 1163SOL    HW1 3488   2.632   0.808   3.507 -0.8057 -0.8524  0.0572
 1163SOL    HW2 3489   2.758   0.766   3.433 -1.2266 -1.5981 -0.2537
 1164SOL     OW 3490   1.958   2.732   3.490  0.3814  0.3746  0.6463
 1164SOL    HW1 3491   2.051   2.749   3.476  0.3273 -0.0708 -0.3673
 1164SOL    HW2 3492   1.947   2.640   3.467 -0.5737  0.7994 -0.7354
 1165SOL     OW 3493   0.945   0.908   0.975 -0.1110  0.1986  0.4452
 1165SOL    HW1 3494   0.883   0.957   0.920  0.2322 -0.2477 -0.3378
 1165SOL    HW2 3495   1.017   0.970   0.990 -0.8577  0.8284  1.6090
 1166SOL     OW 3496   2.194   1.469   3.537 -0.7660  0.4177  0.6375
 1166SOL    HW1 3497   2.201   1.492   3.444  0.5098 -0.7535  0.4085
 1166SOL    HW2 3498   2.284   1.473   3.569 -0.8861 -1.2288  1.2917
 1167SOL     OW 3499   2.688   2.344   1.888  0.5516 -0.4212 -0.0622
 1167SOL    HW1 3500   2.757   2.342   1.954 -0.7202 -1.7377  1.2942
 1167SOL    HW2 3501   2.718   2.285   1.819  1.9772  1.1138 -0.8349
 1168SOL     OW 3502   1.719   1.100   2.497 -0.1351 -0.5571  0.5023
 1168SOL    HW1 3503   1.798   1.061   2.460  1.0777 -0.1398  2.4996
 1168SOL    HW2 3504   1.748   1.140   2.579 -2.1807  0.7398  0.6761
 1169SOL     OW 3505   0.111   1.011   2.073  0.0588  0.4137 -0.2338
 1169SOL    HW1 3506   0.181   0.961   2.114  0.7688  0.1337 -1.6947
 1169SOL    HW2 3507   0.034   0.953   2.077  0.7293 -0.6064 -1.4139
 1170SOL     OW 3508   0.194   3.048   3.115  0.8606  0.6046 -0.2475
 1170SOL    HW1 3509   0.286   3.056   3.141  0.9070  0.3099 -0.3172
 1170SOL    HW2 3510   0.157   2.983   3.176  1.0198 -0.2438 -1.0270
 1171SOL     OW 3511   2.864   3.622   3.903  0.4886 -0.0501  0.0682
 1171SOL    HW1 3512   2.846   3.663   3.987  0.2031 -0.5812  0.2754
 1171SOL    HW2 3513   2.959   3.626   3.894  0.3466  2.8655 -1.0870
 1172SOL     OW 3514   1.231   3.450   1.958 -0.3889  0.2026  0.2780
 1172SOL    HW1 3515   1.323   3.476   1.948 -0.6367  0.4549 -1.9414
 1172SOL    HW2 3516   1.186   3.532   1.981 -0.3169  0.5490 -0.7320
 1173SOL     OW 3517   1.653   2.569   3.164 -0.5738 -0.6429  0.1971
 1173SOL    HW1 3518   1.574   2.623   3.171  0.5259  0.8805  1.8768
 1173SOL    HW2 3519   1.706   2.595   3.239  1.3971 -1.8595 -0.6969
 1174SOL     OW 3520   1.026   3.871   2.380 -0.3896 -0.1412 -0.1564
 1174SOL    HW1 3521   1.115   3.882   2.348 -0.6257 -1.0309 -1.1762
 1174SOL    HW2 3522   1.033   3.803   2.448  0.0535  1.4953  1.5316
 1175SOL     OW 3523   1.791   1.586   0.921  0.7592  0.3536  0.3035
 1175SOL    HW1 3524   1.866   1.637   0.952  0.9125  1.4229 -1.6301
 1175SOL    HW2 3525   1.799   1.501   0.964  1.1904  1.5335  2.6855
 1176SOL     OW 3526   2.115   3.505   0.595  0.4277 -0.3628 -0.3130
 1176SOL    HW1 3527   2.028   3.518   0.633  1.2812  1.7433  1.0817
 1176SOL    HW2 3528   2.142   3.419   0.626 -1.2459 -1.1931 -1.0217
 1177SOL     OW 3529   3.482   2.618   3.081 -0.6589 -0.2909 -0.1356
 1177SOL    HW1 3530   3.524   2.580   3.004  2.6566 -0.7789  1.7369
 1177SOL    HW2 3531   3.402   2.565   3.093 -0.7183 -0.8824 -2.5429
 1178SOL     OW 3532   1.887   1.938   1.226 -0.2865 -0.1519 -0.5395
 1178SOL    HW1 3533   1.797   1.922   1.199  0.0213 -0.7599 -1.2364
 1178SOL    HW2 3534   1.940   1.893   1.160  0.5083 -1.3899  0.8807
 1179SOL     OW 3535   0.800   2.824   3.492 -0.7302  0.3129  0.2294
 1179SOL    HW1 3536   0.722   2.788   3.535 -1.6969  1.0957 -0.7996
 1179SOL    HW2 3537   0.807   2.913   3.527 -0.4555  0.3275  0.1357
 1180SOL     OW 3538   2.085   1.256   0.944  0.1082 -0.0148  0.4540
 1180SOL    HW1 3539   2.113   1.171   0.912 -0.3591 -0.4038  1.0538
 1180SOL    HW2 3540   2.047   1.300   0.867  1.1149 -0.0036 -0.0496
 1181SOL     OW 3541   2.319   0.266   1.835 -0.1399 -0.8325 -0.1314
 1181SOL    HW1 3542   2.363   0.199   1.783 -0.6382  0.0163 -1.7054
 1181SOL    HW2 3543   2.226   0.250   1.820 -0.2761 -0.2004  0.0112
 1182SOL     OW 3544   3.282   0.636   2.299 -0.3025 -0.4490  0.8733
 1182SOL    HW1 3545   3.349   0.627   2.367 -1.8147 -3.9531  2.1875
 1182SOL    HW2 3546   3.312   0.580   2.228 -0.1494  0.8850 -0.1533
 1183SOL     OW 3547   3.713   2.268   2.251 -1.0689 -0.2343  0.4629
 1183SOL    HW1 3548   3.627   2.264   2.209 -1.5035 -0.1521  1.3176
 1183SOL    HW2 3549   3.773   2.231   2.186 -1.4523  1.3099 -0.8474
 1184SOL     OW 3550   3.071   3.098   3.324  0.1322  0.3180 -0.0751
 1184SOL    HW1 3551   3.088   3.009   3.294  0.1567  0.4428 -0.4317
 1184SOL    HW2 3552   3.030   3.141   3.249  2.3228  1.3269 -0.7642
 1185SOL     OW 3553   2.307   2.315   2.515 -0.6936  1.0602 -0.3210
 1185SOL    HW1 3554   2.365   2.370   2.567  0.2550  1.5507 -1.8137
 1185SOL    HW2 3555   2.295   2.364   2.433  1.0903 -1.3600 -2.1810
 1186SOL     OW 3556   3.096   2.822   3.184  0.1315  0.1078 -0.1893
 1186SOL    HW1 3557   3.072   2.805   3.275  1.6132  1.2507  0.4577
 1186SOL    HW2 3558   3.186   2.790   3.176  0.5366  1.3310 -0.8359
 1187SOL     OW 3559   3.113   2.869   0.703  0.2475 -0.3910  0.1085
 1187SOL    HW1 3560   3.048   2.931   0.736  0.9212  0.5232 -0.2304
 1187SOL    HW2 3561   3.062   2.798   0.666 -0.6666  1.1776 -1.8651
 1188SOL     OW 3562   1.077   2.055   2.709  0.0759 -0.1344 -0.3887
 1188SOL    HW1 3563   1.035   2.082   2.790 -1.9125 -0.3289 -1.3137
 1188SOL    HW2 3564   1.165   2.094   2.714 -0.3906  0.8023  1.3224
 1189SOL     OW 3565   1.871   0.663   0.493  0.1333  0.8060 -0.3265
 1189SOL    HW1 3566   1.944   0.603   0.478  0.0039 -0.0022  1.8615
 1189SOL    HW2 3567   1.803   0.634   0.432  0.2539 -1.0361  0.3254
 1190SOL     OW 3568   2.750   3.340   2.679  0.0475 -0.6817  0.1228
 1190SOL    HW1 3569   2.821   3.403   2.671  0.6204 -1.1877  0.9770
 1190SOL    HW2 3570   2.679   3.376   2.626  0.3606  0.6671  0.5847
 1191SOL     OW 3571   1.087   1.272   2.389 -0.2121 -0.1941 -0.3822
 1191SOL    HW1 3572   1.061   1.297   2.477 -0.7420 -2.6044  0.2155
 1191SOL    HW2 3573   1.005   1.261   2.341 -0.0621 -1.3103 -0.4236
 1192SOL     OW 3574   1.414   2.498   0.264 -0.1278 -0.1745 -0.5287
 1192SOL    HW1 3575   1.500   2.505   0.224  1.2848 -1.1991  2.0414
 1192SOL    HW2 3576   1.410   2.571   0.325 -1.3887  0.2522 -1.1013
 1193SOL     OW 3577   1.713   0.948   1.127 -0.7247 -0.3367  0.2604
 1193SOL    HW1 3578   1.709   0.959   1.222 -0.8846  1.2395  0.0883
 1193SOL    HW2 3579   1.805   0.928   1.110 -0.9397 -2.0394  0.8483
 1194SOL     OW 3580   1.413   3.225   3.039  0.3306  0.1608 -0.3571
 1194SOL    HW1 3581   1.462   3.284   2.982  0.6244  1.9534  1.6547
 1194SOL    HW2 3582   1.324   3.261   3.040  0.5791  0.7802  1.1036
 1195SOL     OW 3583   0.892   3.929   0.759 -0.5065  0.7554  0.2633
 1195SOL    HW1 3584   0.933   3.987   0.824 -0.5913 -0.4103  1.3901
 1195SOL    HW2 3585   0.964   3.902   0.703  0.1160 -0.3557  1.5334
 1196SOL     OW 3586   0.803   0.481   1.797  0.1503 -0.0940  0.3263
 1196SOL    HW1 3587   0.892   0.457   1.820 -0.8889 -1.8065  3.0673
 1196SOL    HW2 3588   0.812   0.535   1.718  3.6950  1.3137  1.4920
 1197SOL     OW 3589   3.936   2.668   3.380  0.2959  0.5123  0.0858
 1197SOL    HW1 3590   3.946   2.700   3.470  1.5821  0.1983  0.0747
 1197SOL    HW2 3591   3.942   2.572   3.389 -0.5792  0.4236 -0.2212
 1198SOL     OW 3592   1.811   0.044   2.893 -0.4987  0.2934 -0.3813
 1198SOL    HW1 3593   1.737   0.041   2.954  1.0726 -0.2662  1.6206
 1198SOL    HW2 3594   1.781  -0.002   2.815 -1.7659 -1.2777  0.9733
 1199SOL     OW 3595   1.156   1.496   2.187 -0.2631  0.8984 -0.0837
 1199SOL    HW1 3596   1.078   1.440   2.182 -0.1281  0.6919  0.0945
 1199SOL    HW2 3597   1.145   1.545   2.268  1.0130 -0.9928  1.3279
 1200SOL     OW 3598   2.063   1.083   1.134  0.8991 -0.0347  0.2455
 1200SOL    HW1 3599   2.063   1.163   1.082 -0.3939  1.1237  1.9221
 1200SOL    HW2 3600   2.137   1.093   1.194 -0.3979  0.8720  1.7673
 1201SOL     OW 3601   3.733   3.275   1.556  0.6366  0.6493  0.0739
 1201SOL    HW1 3602   3.661   3.221   1.589 -0.3972  1.7066 -0.3900
 1201SOL    HW2 3603   3.808   3.215   1.552 -0.2351 -0.5021  0.4744
 1202SOL     OW 3604   1.636   0.190   0.897  0.0276  0.1492  0.0562
 1202SOL    HW1 3605   1.643   0.107   0.946  1.6223  0.0751 -0.2214
 1202SOL    HW2 3606   1.684   0.253   0.951  0.1296  0.5295 -0.4761
 1203SOL     OW 3607   0.402   1.653   2.552  0.5921 -0.4128 -0.6847
 1203SOL    HW1 3608   0.434   1.577   2.503 -2.8677 -0.4470 -3.3075
 1203SOL    HW2 3609   0.432   1.728   2.501  0.9506 -0.1902 -0.1501
 1204SOL     OW 3610   1.197   0.812   1.425  0.1223  0.1770 -0.4637
 1204SOL    HW1 3611   1.107   0.819   1.393  0.1279 -0.0974 -0.5427
 1204SOL    HW2 3612   1.195   0.850   1.513 -0.6022 -2.0859  0.5512
 1205SOL     OW 3613   2.349   2.528   2.354  0.5068  0.3812  0.0239
 1205SOL    HW1 3614   2.399   2.587   2.410  0.7271 -0.7628  1.0750
 1205SOL    HW2 3615   2.337   2.576   2.272 -1.1990  2.7604  1.5400
 1206SOL     OW 3616   2.928   1.240   2.754  0.7634 -0.3929 -0.3200
 1206SOL    HW1 3617   2.857   1.245   2.689  1.3167  0.7979 -0.8465
 1206SOL    HW2 3618   2.998   1.193   2.709  1.7305  1.7493 -1.1901
 1207SOL     OW 3619   0.373   1.450   1.276 -0.3508  0.2499 -0.1324
 1207SOL    HW1 3620   0.444   1.401   1.234 -1.2759 -0.7891 -0.5496
 1207SOL    HW2 3621   0.385   1.540   1.246  0.4141 -0.0285 -0.6968
 1208SOL     OW 3622   2.063   3.943   1.532 -0.9020  0.9366 -0.3932
 1208SOL    HW1 3623   2.085   3.999   1.457 -2.0723  1.4396 -0.3810
 1208SOL    HW2 3624   1.997   3.882   1.497 -0.2034  0.0556 -0.2049
 1209SOL     OW 3625   1.008   0.235   1.537  0.3948 -0.6003 -0.5405
 1209SOL    HW1 3626   1.101   0.254   1.542  0.4853 -1.3359  2.6026
 1209SOL    HW2 3627   1.002   0.140   1.536 -0.2853 -0.5986  0.5761
 1210SOL     OW 3628   0.224   1.835   0.832  0.1975  0.0116  0.0522
 1210SOL    HW1 3629   0.180   1.754   0.857 -1.9030  1.2370  0.5548
 1210SOL    HW2 3630   0.241   1.880   0.914  1.2562  0.1461 -0.2281
 1211SOL     OW 3631   3.021   2.317   2.828 -0.3369  0.0559  0.1622
 1211SOL    HW1 3632   3.104   2.348   2.791 -0.4095 -0.6207 -0.6060
 1211SOL    HW2 3633   2.978   2.395   2.861 -0.4088  0.7524 -1.5009
 1212SOL     OW 3634   3.452   2.937   1.148  0.0223 -0.6460 -0.0963
 1212SOL    HW1 3635   3.417   2.849   1.164 -2.2920  0.3275  0.6854
 1212SOL    HW2 3636   3.395   2.994   1.199  1.9265  1.2725  0.0147
 1213SOL     OW 3637   3.520   0.110   2.660  0.3103 -0.5730 -0.6540
 1213SOL    HW1 3638   3.558   0.045   2.601 -2.7599 -1.2869 -2.0373
 1213SOL    HW2 3639   3.472   0.170   2.603  1.9595  2.2670  0.7014
 1214SOL     OW 3640   2.517   2.546   1.927 -0.1869  0.3805 -0.4013
 1214SOL    HW1 3641   2.580   2.475   1.939  0.1387  0.7560  0.1395
 1214SOL    HW2 3642   2.488   2.537   1.836 -0.2676 -0.5339 -0.2936
 1215SOL     OW 3643   2.735   3.830   2.446  1.2111 -0.3677 -0.8606
 1215SOL    HW1 3644   2.710   3.887   2.373  0.9506  2.3809  1.2401
 1215SOL    HW2 3645   2.722   3.884   2.524  0.2548 -3.5828  1.3838
 1216SOL     OW 3646   0.861   1.214   3.594 -0.0060  0.0500 -0.0675
 1216SOL    HW1 3647   0.780   1.205   3.544 -0.8010  0.0353  1.1719
 1216SOL    HW2 3648   0.844   1.168   3.676  0.1415  2.5262  1.4561
 1217SOL     OW 3649   1.864   2.919   1.532 -0.3479 -0.2173  0.1336
 1217SOL    HW1 3650   1.902   2.849   1.585 -0.5845  1.2996  2.4505
 1217SOL    HW2 3651   1.775   2.889   1.512 -1.8652  0.8039  4.3255
 1218SOL     OW 3652   1.948   1.697   1.958  0.4080  0.2566  0.4730
 1218SOL    HW1 3653   1.881   1.764   1.949  0.7332  0.6494  0.9693
 1218SOL    HW2 3654   2.029   1.746   1.973  1.2246 -0.0803 -2.1998
 1219SOL     OW 3655   2.997   3.353   3.759 -0.0020  0.5333  0.0088
 1219SOL    HW1 3656   3.085   3.336   3.725  0.4667  0.9162  1.0094
 1219SOL    HW2 3657   3.008   3.359   3.854 -0.7991  2.3981  0.0203
 1220SOL     OW 3658   0.565   3.816   0.224 -0.9039 -0.1685 -0.5679
 1220SOL    HW1 3659   0.513   3.774   0.156 -0.8361 -0.9726 -0.1275
 1220SOL    HW2 3660   0.528   3.785   0.306  0.1362 -0.6044 -0.2465
 1221SOL     OW 3661   2.297   2.751   1.211  0.0650  0.6361  0.3011
 1221SOL    HW1 3662   2.318   2.707   1.129  2.0820 -1.0304  1.6091
 1221SOL    HW2 3663   2.251   2.831   1.185  0.6202  0.1460 -2.4139
 1222SOL     OW 3664   2.926   1.940   0.619  0.5259 -0.4122  0.5243
 1222SOL    HW1 3665   2.927   1.961   0.712 -1.7374  0.5303  0.4154
 1222SOL    HW2 3666   2.985   2.003   0.579  0.4046  0.1191  1.1720
 1223SOL     OW 3667   3.890   0.191   1.428  0.4128 -0.1460 -0.1384
 1223SOL    HW1 3668   3.874   0.119   1.367  0.5614  0.6954 -1.2052
 1223SOL    HW2 3669   3.921   0.263   1.372  1.0208  0.4975  0.9965
 1224SOL     OW 3670   1.673   0.129   0.065  0.8309 -0.2280 -0.2856
 1224SOL    HW1 3671   1.676   0.203   0.125  0.0388 -0.7510  0.4220
 1224SOL    HW2 3672   1.597   0.146   0.009  1.6208  0.3053 -1.2293
 1225SOL     OW 3673   0.147   2.560   1.087 -0.2482 -0.2271 -0.2070
 1225SOL    HW1 3674   0.212   2.494   1.110 -1.9083 -1.7232  0.4469
 1225SOL    HW2 3675   0.146   2.561   0.992  0.8631 -0.0277 -0.2282
 1226SOL     OW 3676   0.436   2.949   1.591  0.1953  0.1302  0.1977
 1226SOL    HW1 3677   0.376   2.920   1.522 -0.2841  2.2495 -0.3733
 1226SOL    HW2 3678   0.503   3.000   1.544  1.4799 -0.7655  1.0183
 1227SOL     OW 3679   2.943   0.184   1.130 -0.5608  0.0879  0.1022
 1227SOL    HW1 3680   2.911   0.098   1.158 -0.7271  0.1502  0.1033
 1227SOL    HW2 3681   2.889   0.246   1.178 -0.7551  0.1963 -0.2524
 1228SOL     OW 3682   3.040   0.794   0.542  0.6676 -0.0809  0.2176
 1228SOL    HW1 3683   2.982   0.720   0.526  1.6258 -0.7216 -0.3659
 1228SOL    HW2 3684   2.983   0.870   0.541 -0.3171 -0.7963  0.7148
 1229SOL     OW 3685   3.008   1.082   1.835 -0.1446  0.0490  0.4355
 1229SOL    HW1 3686   2.990   1.030   1.913  1.7641 -0.9989  0.2353
 1229SOL    HW2 3687   3.025   1.017   1.766  0.7592  0.9227 -0.2029
 1230SOL     OW 3688   2.558   3.796   1.502  0.2997  0.1729 -0.4664
 1230SOL    HW1 3689   2.485   3.790   1.440  0.2091 -0.2920 -0.3226
 1230SOL    HW2 3690   2.602   3.878   1.480 -1.3149  1.3947  0.6053
 1231SOL     OW 3691   2.329   3.115   2.254 -0.1568 -0.3157  0.1656
 1231SOL    HW1 3692   2.326   3.205   2.286 -0.6763  0.0287 -0.7880
 1231SOL    HW2 3693   2.238   3.085   2.256 -0.2542 -0.1741 -1.2284
 1232SOL     OW 3694   3.644   0.354   2.752  0.0664  0.2002 -0.4486
 1232SOL    HW1 3695   3.621   0.262   2.767  1.1635 -0.2320 -1.2522
 1232SOL    HW2 3696   3.674   0.356   2.661  0.9450  1.1615 -0.1528
 1233SOL     OW 3697   3.276   2.914   2.524  0.7396  0.1735  0.3667
 1233SOL    HW1 3698   3.208   2.918   2.457  0.2499 -1.6258  0.6988
 1233SOL    HW2 3699   3.245   2.972   2.594 -1.6042 -2.1743  1.4383
 1234SOL     OW 3700   1.140   3.427   2.324 -0.8667 -0.0301  0.1411
 1234SOL    HW1 3701   1.175   3.505   2.281 -1.2277 -0.9832 -2.0310
 1234SOL    HW2 3702   1.045   3.440   2.324 -1.0194 -0.8975 -1.2593
 1235SOL     OW 3703   0.977   0.308   0.703  0.0512 -0.1258 -0.0167
 1235SOL    HW1 3704   0.893   0.309   0.749 -0.0112  0.6119 -0.1262
 1235SOL    HW2 3705   1.032   0.368   0.754  0.5781 -0.7542  0.1661
 1236SOL     OW 3706   1.679   3.075   1.355  0.7547  0.2833  0.1435
 1236SOL    HW1 3707   1.721   3.064   1.440  1.0410  2.4119  0.3132
 1236SOL    HW2 3708   1.588   3.094   1.375  0.7813  0.6051 -0.0359
 1237SOL     OW 3709   0.082   3.668   0.298 -0.3682 -0.0739 -0.7715
 1237SOL    HW1 3710   0.088   3.584   0.252 -0.0632 -1.1382  1.1126
 1237SOL    HW2 3711   0.053   3.645   0.386 -0.6618  1.8557 -0.3255
 1238SOL     OW 3712   1.159   0.829   2.665 -0.8182  0.1837 -0.6498
 1238SOL    HW1 3713   1.109   0.901   2.626 -1.8677 -0.6656 -0.9192
 1238SOL    HW2 3714   1.198   0.867   2.744  0.3877  1.6040 -1.8753
 1239SOL     OW 3715   3.541   3.874   2.113 -0.5153  0.6830 -0.1169
 1239SOL    HW1 3716   3.535   3.803   2.177  0.5362 -1.0001 -1.7675
 1239SOL    HW2 3717   3.629   3.910   2.127 -1.6700  3.0233  1.9453
 1240SOL     OW 3718   0.633   1.615   2.741 -0.0233  0.1759  0.8566
 1240SOL    HW1 3719   0.578   1.622   2.818 -1.8219 -1.7423 -0.1679
 1240SOL    HW2 3720   0.572   1.595   2.670  1.8865 -0.9933 -0.5341
 1241SOL     OW 3721   1.750   2.724   1.169 -0.0148 -0.2351 -0.0849
 1241SOL    HW1 3722   1.835   2.713   1.128 -0.5593 -1.0615 -1.0314
 1241SOL    HW2 3723   1.713   2.801   1.128  0.6603  0.7308  1.0486
 1242SOL     OW 3724   2.077   2.605   1.325  0.6611  0.3758 -0.1857
 1242SOL    HW1 3725   2.032   2.670   1.271  1.8315  0.8844 -0.5893
 1242SOL    HW2 3726   2.167   2.606   1.293  0.4296 -2.4508 -1.1358
 1243SOL     OW 3727   3.221   1.217   2.612  0.0554  0.5171  0.3571
 1243SOL    HW1 3728   3.174   1.299   2.627 -0.2897  0.3824  0.0081
 1243SOL    HW2 3729   3.313   1.243   2.603 -0.3428  1.2287 -2.6739
 1244SOL     OW 3730   1.387   1.466   3.454  0.0167  0.0628  0.3200
 1244SOL    HW1 3731   1.433   1.394   3.412  1.5009  1.7135 -1.0184
 1244SOL    HW2 3732   1.428   1.474   3.540  2.7143  1.7310 -0.9648
 1245SOL     OW 3733   3.873   0.974   2.284 -0.7725 -0.6406 -0.8966
 1245SOL    HW1 3734   3.848   0.900   2.229  1.2968 -2.1542  0.0421
 1245SOL    HW2 3735   3.839   0.951   2.371 -0.6148 -0.2084 -0.7215
 1246SOL     OW 3736   2.836   1.581   0.798  0.5319  0.0472 -0.5961
 1246SOL    HW1 3737   2.783   1.518   0.847 -0.0788 -0.7889 -2.2271
 1246SOL    HW2 3738   2.837   1.546   0.709  0.7320  2.0222 -1.4225
 1247SOL     OW 3739   1.533   1.410   1.492 -0.1055 -0.6143  0.1019
 1247SOL    HW1 3740   1.554   1.316   1.495 -1.7907 -1.0137  0.7057
 1247SOL    HW2 3741   1.452   1.415   1.443 -0.5147  0.4340  0.8521
 1248SOL     OW 3742   0.365   3.469   0.465  0.1260  0.2322  0.5525
 1248SOL    HW1 3743   0.345   3.466   0.558 -1.6658 -2.2266  0.1713
 1248SOL    HW2 3744   0.389   3.379   0.442  2.1769  1.0904 -1.0840
 1249SOL     OW 3745   2.506   2.773   1.697 -0.1240  0.2780  0.0167
 1249SOL    HW1 3746   2.427   2.726   1.671  0.5653 -1.5775  1.0581
 1249SOL    HW2 3747   2.513   2.846   1.634 -2.4868  0.3567 -0.2412
 1250SOL     OW 3748   0.993   2.313   3.793  0.4513 -0.4726  0.8155
 1250SOL    HW1 3749   0.966   2.221   3.797 -0.7783 -0.2765 -1.3685
 1250SOL    HW2 3750   1.089   2.310   3.799  0.3480 -1.6173  3.4637
 1251SOL     OW 3751   2.150   1.913   0.130 -0.0727  0.5938  0.1590
 1251SOL    HW1 3752   2.154   1.993   0.079  1.2977 -0.8170 -2.1382
 1251SOL    HW2 3753   2.061   1.880   0.116  0.1827  0.3979 -1.0994
 1252SOL     OW 3754   1.736   2.172   0.700 -0.1504  0.0306 -0.0757
 1252SOL    HW1 3755   1.649   2.161   0.739 -0.7334  0.5923 -1.1543
 1252SOL    HW2 3756   1.724   2.242   0.636  1.3066  0.6973  0.3465
 1253SOL     OW 3757   0.559   3.786   3.606 -0.5391  0.7961 -0.2983
 1253SOL    HW1 3758   0.551   3.882   3.608 -0.6492  0.9580 -3.3314
 1253SOL    HW2 3759   0.626   3.766   3.671  0.1376  3.0313 -0.2222
 1254SOL     OW 3760   1.988   2.157   3.055 -0.0286 -0.3215  0.1769
 1254SOL    HW1 3761   2.069   2.133   3.100 -0.1619 -1.5587 -0.1962
 1254SOL    HW2 3762   1.929   2.184   3.126 -0.1477 -1.9840  0.7601
 1255SOL     OW 3763   1.738   2.358   1.049  0.1710  0.3321 -0.0087
 1255SOL    HW1 3764   1.785   2.316   0.977 -2.0472 -1.9126 -0.3212
 1255SOL    HW2 3765   1.781   2.327   1.128  1.7123  1.6435 -0.2858
 1256SOL     OW 3766   1.276   2.059   2.200 -0.1278 -0.2288 -1.0472
 1256SOL    HW1 3767   1.220   2.131   2.172 -0.5688  0.1814  0.7234
 1256SOL    HW2 3768   1.274   1.997   2.128 -2.8910 -0.2231 -1.0706
 1257SOL     OW 3769   1.699   2.712   1.425 -0.1158  0.1803 -0.0064
 1257SOL    HW1 3770   1.735   2.717   1.336 -1.4535 -1.5218 -0.6892
 1257SOL    HW2 3771   1.653   2.629   1.428 -0.3147  0.3085  2.2407
 1258SOL     OW 3772   2.673   1.539   2.168 -0.3595  0.1683 -0.6449
 1258SOL    HW1 3773   2.662   1.459   2.118 -0.9803  1.2337 -2.3026
 1258SOL    HW2 3774   2.611   1.531   2.240 -0.2835 -0.8958 -0.6811
 1259SOL     OW 3775   2.544   2.604   1.399  0.2071  0.5938  0.2596
 1259SOL    HW1 3776   2.476   2.584   1.463  0.0576  3.2385  1.0591
 1259SOL    HW2 3777   2.509   2.679   1.351  1.5176  0.4018 -1.0437
 1260SOL     OW 3778   1.605   3.104   2.040  0.1866 -1.0205 -0.1245
 1260SOL    HW1 3779   1.670   3.097   2.110  0.3016 -0.8630 -0.2142
 1260SOL    HW2 3780   1.588   3.014   2.014 -0.1469 -1.1052  0.3733
 1261SOL     OW 3781   3.012   2.152   2.542 -0.3548 -0.2512 -0.0203
 1261SOL    HW1 3782   3.016   2.058   2.561  0.8257 -0.1760  0.2077
 1261SOL    HW2 3783   3.020   2.157   2.447 -1.2995 -0.4092 -0.1179
 1262SOL     OW 3784   2.408   3.102   3.785 -0.8069 -0.1732  0.2396
 1262SOL    HW1 3785   2.406   3.192   3.817  0.1688  0.5532 -1.5961
 1262SOL    HW2 3786   2.478   3.060   3.837  0.0714  0.6959 -0.2098
 1263SOL     OW 3787   2.441   3.618   1.054 -0.3180 -0.1925 -0.3935
 1263SOL    HW1 3788   2.433   3.546   1.116  0.7819  0.1806  0.2176
 1263SOL    HW2 3789   2.534   3.642   1.056 -0.9168  2.4306  0.7822
 1264SOL     OW 3790   3.430   1.631   3.826  0.1030 -0.0921  0.3015
 1264SOL    HW1 3791   3.474   1.700   3.774  0.5058  1.5001  2.6184
 1264SOL    HW2 3792   3.395   1.677   3.902 -2.5409 -1.9486  0.3310
 1265SOL     OW 3793   1.706   1.043   3.187  0.0040  0.3658  0.6285
 1265SOL    HW1 3794   1.700   0.953   3.220 -0.7111 -0.0544 -0.6027
 1265SOL    HW2 3795   1.786   1.043   3.134  2.1220  1.4897  3.5440
 1266SOL     OW 3796   0.413   2.672   3.155  0.0930  0.5173  0.1590
 1266SOL    HW1 3797   0.370   2.650   3.072  0.1147 -1.0026  0.5213
 1266SOL    HW2 3798   0.506   2.681   3.133 -0.0400  1.1712 -0.1557
 1267SOL     OW 3799   2.860   0.277   0.675 -0.0290 -0.2728  0.4414
 1267SOL    HW1 3800   2.799   0.237   0.612 -0.0289 -3.7295  2.3905
 1267SOL    HW2 3801   2.809   0.285   0.755  0.4712  2.4819  0.5964
 1268SOL     OW 3802   1.213   2.275   0.686  0.4943  0.2088  0.2879
 1268SOL    HW1 3803   1.193   2.196   0.736 -0.5712 -0.1648 -0.6873
 1268SOL    HW2 3804   1.260   2.332   0.747  2.3657 -1.6385  0.6841
 1269SOL     OW 3805   0.051   1.410   1.946 -0.1802  0.1913  0.1742
 1269SOL    HW1 3806   0.115   1.466   1.902  1.3743 -0.5384  1.3855
 1269SOL    HW2 3807   0.102   1.364   2.013 -0.8310 -4.0732 -1.8596
 1270SOL     OW 3808   0.798   2.225   1.509 -0.6326 -0.7981  0.4575
 1270SOL    HW1 3809   0.886   2.200   1.539 -0.1142 -0.9255 -1.0558
 1270SOL    HW2 3810   0.741   2.156   1.542 -0.2461 -0.4476  1.8888
 1271SOL     OW 3811   0.125   3.147   1.198 -0.0726  0.0999 -0.4847
 1271SOL    HW1 3812   0.033   3.170   1.181 -0.2062 -1.0844 -1.4346
 1271SOL    HW2 3813   0.141   3.070   1.145  1.3684  0.0348  0.0070
 1272SOL     OW 3814   3.480   2.887   2.961 -0.1769  0.0318  0.1606
 1272SOL    HW1 3815   3.495   2.792   2.955  2.4977  0.2986  1.3004
 1272SOL    HW2 3816   3.530   2.924   2.889 -2.8236  0.5716 -1.5519
 1273SOL     OW 3817   3.963   2.353   2.662 -0.2663  0.4433 -0.1740
 1273SOL    HW1 3818   3.976   2.371   2.755  0.6108 -0.0151 -0.2057
 1273SOL    HW2 3819   3.965   2.258   2.655 -1.4878  0.4157 -0.5065
 1274SOL     OW 3820   1.363   0.752   0.204  0.9050 -0.2537 -0.3589
 1274SOL    HW1 3821   1.291   0.742   0.265 -0.8414  1.0443 -2.0745
 1274SOL    HW2 3822   1.374   0.847   0.195  2.9670 -0.4160 -0.0093
 1275SOL     OW 3823   3.093   2.632   2.323 -0.6482 -0.2316  0.2506
 1275SOL    HW1 3824   3.100   2.625   2.227 -1.4158 -0.0158  0.1674
 1275SOL    HW2 3825   3.018   2.690   2.337  0.7334  1.4343  0.9856
 1276SOL     OW 3826   0.950   3.673   2.222 -0.6259 -0.0977 -0.1213
 1276SOL    HW1 3827   0.986   3.722   2.295 -2.2011  2.8079 -1.1353
 1276SOL    HW2 3828   1.015   3.681   2.152 -1.1081  1.1327 -0.4589
 1277SOL     OW 3829   3.981   1.653   2.740 -0.4763 -0.1186 -0.4003
 1277SOL    HW1 3830   3.952   1.676   2.651 -0.9829 -1.8139 -0.6968
 1277SOL    HW2 3831   4.048   1.586   2.727 -0.9154 -0.7557  0.5076
 1278SOL     OW 3832   1.339   0.523   0.637  0.2038  0.2350 -0.0106
 1278SOL    HW1 3833   1.407   0.550   0.576  0.4622 -0.2518  0.0659
 1278SOL    HW2 3834   1.361   0.567   0.719 -0.6308  1.6140 -0.4743
 1279SOL     OW 3835   1.757   2.365   2.552  0.2081  0.0898  0.2807
 1279SOL    HW1 3836   1.675   2.353   2.601  0.1300  1.1334  0.4346
 1279SOL    HW2 3837   1.757   2.458   2.529  1.8850  0.3755  1.2670
 1280SOL     OW 3838   2.545   2.840   2.182 -0.4149 -0.1704 -0.0009
 1280SOL    HW1 3839   2.520   2.869   2.094  2.2099  2.1499 -0.1114
 1280SOL    HW2 3840   2.517   2.910   2.240  0.9326 -0.0135  0.5135
 1281SOL     OW 3841   0.294   1.179   3.826 -0.2380 -0.0969 -0.7386
 1281SOL    HW1 3842   0.351   1.116   3.870  0.2036 -1.0184 -2.5256
 1281SOL    HW2 3843   0.354   1.242   3.786 -0.5712  0.1900 -0.7968
 1282SOL     OW 3844   0.104   0.484   0.948 -0.2778 -0.7815 -0.4455
 1282SOL    HW1 3845   0.135   0.538   0.875  1.1822 -0.3602  0.4424
 1282SOL    HW2 3846   0.010   0.476   0.934 -0.8924  3.2612  0.1554
 1283SOL     OW 3847   3.935   2.421   3.790 -0.1543 -0.7534 -0.1488
 1283SOL    HW1 3848   3.873   2.489   3.818  0.6774  0.0220 -0.1444
 1283SOL    HW2 3849   3.896   2.384   3.711 -0.7773 -0.5025  0.0315
 1284SOL     OW 3850   1.850   1.641   1.445  0.1820  1.1910  0.4207
 1284SOL    HW1 3851   1.941   1.627   1.418  0.7465  2.4585  1.5519
 1284SOL    HW2 3852   1.827   1.562   1.493  0.1289  0.1752 -1.1919
 1285SOL     OW 3853   2.597   0.078   1.510  0.0378 -0.2051 -0.5512
 1285SOL    HW1 3854   2.684   0.119   1.513 -0.7412  1.5014  1.7020
 1285SOL    HW2 3855   2.565   0.097   1.422  1.3354  0.4428 -0.9183
 1286SOL     OW 3856   1.494   2.907   1.671 -0.4847  0.1781  0.5239
 1286SOL    HW1 3857   1.575   2.857   1.666  0.5399  1.8406 -0.5292
 1286SOL    HW2 3858   1.449   2.872   1.748  0.5426 -1.7610  0.2942
 1287SOL     OW 3859   3.100   3.906   3.769  0.2253 -0.0585 -0.6881
 1287SOL    HW1 3860   3.143   3.847   3.708 -2.2675 -2.0403 -0.7250
 1287SOL    HW2 3861   3.050   3.966   3.713 -0.2673 -0.4293 -0.6610
 1288SOL     OW 3862   0.440   0.550   1.632  0.2556  1.1045  0.4901
 1288SOL    HW1 3863   0.493   0.585   1.560  0.2668  2.2066  1.0228
 1288SOL    HW2 3864   0.359   0.521   1.590  0.5943  0.9685 -0.0830
 1289SOL     OW 3865   1.850   0.247   3.587 -0.0954  0.0403  0.2411
 1289SOL    HW1 3866   1.930   0.300   3.589 -1.1656  1.8445 -1.3317
 1289SOL    HW2 3867   1.882   0.156   3.585  1.9716  0.7180 -1.2412
 1290SOL     OW 3868   3.654   3.543   1.670  0.1438  0.3584  0.2211
 1290SOL    HW1 3869   3.595   3.598   1.618 -1.2962 -0.5046  0.8936
 1290SOL    HW2 3870   3.705   3.495   1.604  0.1245  1.1288 -0.3727
 1291SOL     OW 3871   0.032   0.419   3.435  0.6457  0.2396 -0.0118
 1291SOL    HW1 3872   0.103   0.407   3.372 -0.9240 -3.4989 -1.3349
 1291SOL    HW2 3873   0.063   0.374   3.514 -0.2598 -1.7266 -0.7123
 1292SOL     OW 3874   0.837   1.269   3.933 -0.2461 -0.1859  0.4363
 1292SOL    HW1 3875   0.906   1.204   3.948  1.2353  1.3211  0.3326
 1292SOL    HW2 3876   0.864   1.314   3.853 -1.4858  0.2791  0.2631
 1293SOL     OW 3877   2.824   2.450   3.192 -0.2599 -0.2586  0.8775
 1293SOL    HW1 3878   2.911   2.431   3.158 -1.2090  1.3589 -3.0110
 1293SOL    HW2 3879   2.796   2.529   3.145 -4.7357 -2.0581 -0.0810
 1294SOL     OW 3880   3.465   3.960   2.381 -0.0125  0.1605 -0.1249
 1294SOL    HW1 3881   3.373   3.948   2.404 -0.7727 -0.1794 -2.9751
 1294SOL    HW2 3882   3.498   3.871   2.365  0.4179  0.3743 -0.4492
 1295SOL     OW 3883   3.194   3.478   3.309 -0.2856 -0.3023 -0.0931
 1295SOL    HW1 3884   3.101   3.462   3.324 -0.1555 -0.5872  0.4300
 1295SOL    HW2 3885   3.223   3.404   3.255  0.0063 -1.1314  1.1640
 1296SOL     OW 3886   0.393   0.692   1.066 -0.2670  0.0678  0.5247
 1296SOL    HW1 3887   0.445   0.613   1.050 -0.7418 -0.2515  0.5383
 1296SOL    HW2 3888   0.407   0.746   0.988  2.5372  1.3764  1.8094
 1297SOL     OW 3889   0.622   0.819   2.488  0.7590 -0.2175  0.2103
 1297SOL    HW1 3890   0.546   0.800   2.434  0.3315 -1.2353  1.1362
 1297SOL    HW2 3891   0.697   0.803   2.431  0.2994  0.2684 -0.5435
 1298SOL     OW 3892   3.649   2.072   1.992 -0.3391 -0.8238 -0.6235
 1298SOL    HW1 3893   3.620   2.080   2.083 -1.6709 -0.2444 -1.0838
 1298SOL    HW2 3894   3.743   2.091   1.996 -0.4861 -0.2125  0.5455
 1299SOL     OW 3895   0.150   2.556   1.418  0.5523  0.3330  0.1691
 1299SOL    HW1 3896   0.131   2.496   1.345  0.8050  1.3381 -0.7539
 1299SOL    HW2 3897   0.237   2.530   1.448  1.3472  1.2113 -1.2692
 1300SOL     OW 3898   2.666   3.815   3.062 -0.2998 -0.2620  0.6291
 1300SOL    HW1 3899   2.580   3.826   3.102 -1.1914  1.6833 -1.6273
 1300SOL    HW2 3900   2.726   3.808   3.137 -2.2463 -0.4412  2.2536
 1301SOL     OW 3901   0.812   1.509   3.174 -0.6384  0.2610 -0.0217
 1301SOL    HW1 3902   0.889   1.452   3.184 -0.0452  1.1180  0.3758
 1301SOL    HW2 3903   0.788   1.501   3.082  1.2087  1.5877 -0.6770
 1302SOL     OW 3904   2.203   0.713   0.137  0.4989  1.0343 -0.2024
 1302SOL    HW1 3905   2.296   0.696   0.123  0.4386 -0.1800  0.7062
 1302SOL    HW2 3906   2.165   0.627   0.159 -1.0610  1.2973 -1.6523
 1303SOL     OW 3907   2.886   2.380   0.054  0.2724  0.3220 -0.6268
 1303SOL    HW1 3908   2.819   2.361  -0.012 -0.2425  0.0979 -0.0435
 1303SOL    HW2 3909   2.837   2.392   0.135  0.9186  0.4275 -0.2472
 1304SOL     OW 3910   2.587   1.534   1.177  0.2346  0.1060  0.1456
 1304SOL    HW1 3911   2.660   1.568   1.228 -0.8778  0.9947  1.2054
 1304SOL    HW2 3912   2.575   1.598   1.107 -0.9234  1.1846  1.2841
 1305SOL     OW 3913   0.151   3.681   3.129 -0.2714 -0.1743  0.6586
 1305SOL    HW1 3914   0.200   3.739   3.071 -0.3927 -1.2731 -0.5975
 1305SOL    HW2 3915   0.199   3.599   3.128  0.9262  0.3226  3.8425
 1306SOL     OW 3916   1.234   2.291   3.083  0.0187  0.0449 -0.6893
 1306SOL    HW1 3917   1.272   2.376   3.064 -1.2524  0.8696  0.3129
 1306SOL    HW2 3918   1.226   2.289   3.178 -0.2668 -1.0732 -0.7184
 1307SOL     OW 3919   3.433   1.149   0.763  0.5369 -0.1396 -0.0952
 1307SOL    HW1 3920   3.498   1.189   0.820  0.7677  0.6345 -0.8708
 1307SOL    HW2 3921   3.470   1.156   0.675 -0.1540 -0.5938 -0.4345
 1308SOL     OW 3922   2.104   0.302   1.194  1.0800  0.0752  0.2118
 1308SOL    HW1 3923   2.122   0.277   1.103 -0.4723  2.5115 -0.8737
 1308SOL    HW2 3924   2.185   0.342   1.224  1.8830 -1.4937  0.2252
 1309SOL     OW 3925   0.076   1.130   3.365  0.6377  0.2436 -0.1304
 1309SOL    HW1 3926   0.080   1.154   3.272  2.9004 -1.1278 -0.4652
 1309SOL    HW2 3927   0.016   1.055   3.368  0.6883  0.1865 -0.5094
 1310SOL     OW 3928   3.328   1.998   1.209 -0.1495 -0.0207  0.1211
 1310SOL    HW1 3929   3.294   1.946   1.136 -2.0127 -2.3215  2.4085
 1310SOL    HW2 3930   3.401   2.047   1.172 -1.5184 -0.3645 -3.4518
 1311SOL     OW 3931   1.049   3.601   0.229  0.3262  0.3461  0.7412
 1311SOL    HW1 3932   1.000   3.632   0.306  1.0615  1.1026  0.9148
 1311SOL    HW2 3933   1.047   3.675   0.168 -0.2116 -0.2343  0.0414
 1312SOL     OW 3934   2.680  -0.024   2.220  0.0951 -0.0412  0.0026
 1312SOL    HW1 3935   2.631  -0.040   2.139 -0.3612 -0.7256  0.4012
 1312SOL    HW2 3936   2.658   0.066   2.244  0.1238  0.1181 -0.5637
 1313SOL     OW 3937   2.189   3.578   3.440 -0.6461 -0.7272 -0.3182
 1313SOL    HW1 3938   2.163   3.603   3.351 -1.0084 -0.0952 -0.0480
 1313SOL    HW2 3939   2.108   3.547   3.481 -0.6748 -0.1884  0.0547
 1314SOL     OW 3940   0.909   1.036   2.723 -0.9944  0.4562 -0.0231
 1314SOL    HW1 3941   0.883   0.948   2.752  3.1674 -1.2014 -0.6243
 1314SOL    HW2 3942   0.949   1.076   2.800  0.7920  0.1213 -0.7242
 1315SOL     OW 3943   0.851   2.301   0.332  0.2552  0.2460  0.1611
 1315SOL    HW1 3944   0.758   2.285   0.312  1.0084 -2.0272 -2.0502
 1315SOL    HW2 3945   0.861   2.395   0.325 -1.4721  0.3613 -1.8442
 1316SOL     OW 3946   3.094   1.290   3.250 -0.1566  0.1766  0.2011
 1316SOL    HW1 3947   3.092   1.378   3.287  0.4761  0.2762  0.0165
 1316SOL    HW2 3948   3.097   1.232   3.326 -0.3825  0.3199  0.3202
 1317SOL     OW 3949   3.263   0.047   2.182 -0.6758  0.1221 -0.2368
 1317SOL    HW1 3950   3.293   0.044   2.273 -0.0605  4.0600 -0.1446
 1317SOL    HW2 3951   3.339   0.017   2.131  0.5579  1.9240  0.4265
 1318SOL     OW 3952   0.876   0.180   1.974  0.2134 -0.0832 -0.2859
 1318SOL    HW1 3953   0.849   0.126   2.048 -0.2210  1.1502  0.4892
 1318SOL    HW2 3954   0.971   0.165   1.967  0.1620 -0.6490  0.1528
 1319SOL     OW 3955   0.550   3.553   3.482  0.6922  0.2033  0.2069
 1319SOL    HW1 3956   0.546   3.646   3.504 -1.0034  0.2146 -0.0019
 1319SOL    HW2 3957   0.637   3.541   3.444  0.4094  2.0393 -1.1653
 1320SOL     OW 3958   1.287   3.943   0.455  0.1711 -0.9131 -0.1939
 1320SOL    HW1 3959   1.313   4.026   0.415 -1.7620 -0.0915  0.1411
 1320SOL    HW2 3960   1.192   3.940   0.445 -0.0135 -2.2092  1.4288
 1321SOL     OW 3961   0.789   3.601   0.399  0.2247 -0.4992  0.3599
 1321SOL    HW1 3962   0.761   3.513   0.425 -0.0144  0.1101  2.3232
 1321SOL    HW2 3963   0.708   3.651   0.394  0.5331  0.0871  1.2005
 1322SOL     OW 3964   2.539   1.001   1.995  0.1798 -0.1730 -0.4488
 1322SOL    HW1 3965   2.567   0.916   2.029 -0.3208 -1.0908 -2.2131
 1322SOL    HW2 3966   2.447   1.008   2.024  0.2339 -0.2062 -0.2656
 1323SOL     OW 3967   3.057   1.439   0.052  0.2875  0.6704 -0.0350
 1323SOL    HW1 3968   3.097   1.526   0.042  0.6800  0.6326  1.0709
 1323SOL    HW2 3969   3.078   1.414   0.142  0.8023 -0.8863 -0.5660
 1324SOL     OW 3970   1.880   1.838   0.026  0.0354  0.0699  0.6371
 1324SOL    HW1 3971   1.809   1.898   0.052  0.6858  1.0408  0.2291
 1324SOL    HW2 3972   1.873   1.832  -0.069  0.4085  0.0493  0.6108
 1325SOL     OW 3973   3.661   3.112   3.766  0.2752 -1.1147 -0.8322
 1325SOL    HW1 3974   3.630   3.057   3.695  0.4946 -0.0673 -1.7754
 1325SOL    HW2 3975   3.756   3.110   3.758  0.3851 -2.3150  0.4880
 1326SOL     OW 3976   2.820   2.675   0.996  0.4722 -0.1799 -0.0758
 1326SOL    HW1 3977   2.746   2.637   0.949 -0.3501  0.8065  0.3892
 1326SOL    HW2 3978   2.871   2.599   1.026 -0.7586 -0.9127  0.2522
 1327SOL     OW 3979   0.676   3.765   0.697 -0.0035 -0.2709 -0.1416
 1327SOL    HW1 3980   0.762   3.805   0.707 -0.0041  0.0004 -1.0697
 1327SOL    HW2 3981   0.675   3.691   0.758 -0.2155  1.4695  2.1196
 1328SOL     OW 3982   3.999   1.964   1.879 -1.0550 -0.1736 -0.1598
 1328SOL    HW1 3983   3.979   1.870   1.883 -1.7361 -0.0488 -0.4442
 1328SOL    HW2 3984   3.940   1.998   1.811 -3.3454  1.0592  2.2323
 1329SOL     OW 3985   1.512   0.352   2.459 -0.5414  0.3043  0.0382
 1329SOL    HW1 3986   1.450   0.384   2.525 -1.9850  1.8133 -1.9430
 1329SOL    HW2 3987   1.592   0.401   2.477 -0.8046  0.4446  0.8784
 1330SOL     OW 3988   1.059   3.112   0.120 -0.4169  0.1114  0.0924
 1330SOL    HW1 3989   0.994   3.052   0.157  0.6286 -0.6289  0.7813
 1330SOL    HW2 3990   1.036   3.116   0.027 -1.0970 -0.5950  0.2082
 1331SOL     OW 3991   1.863   0.969   0.784 -0.3493  0.0055 -0.0398
 1331SOL    HW1 3992   1.908   0.956   0.867 -0.8351 -0.0030  0.2256
 1331SOL    HW2 3993   1.914   0.919   0.720  1.1139  1.5120 -0.1165
 1332SOL     OW 3994   2.368   0.564   3.854 -0.2710 -0.0089 -0.7694
 1332SOL    HW1 3995   2.282   0.606   3.865  0.1566  1.1068 -1.5592
 1332SOL    HW2 3996   2.406   0.566   3.942 -0.7095  0.2637 -0.5804
 1333SOL     OW 3997   0.049   0.857   2.848  0.0798  0.3454  0.2426
 1333SOL    HW1 3998   0.095   0.839   2.766  1.1325 -2.2730  1.3130
 1333SOL    HW2 3999  -0.043   0.839   2.828  0.3916 -0.7867 -0.2515
 1334SOL     OW 4000   2.613   1.975   3.084  0.0484  0.1863  0.5834
 1334SOL    HW1 4001   2.607   2.019   3.169  1.0587  0.2398  0.6407
 1334SOL    HW2 4002   2.672   1.901   3.099 -0.2316 -0.1462  0.0633
 1335SOL     OW 4003   2.996   0.393   2.703 -0.1928 -0.0761 -0.1109
 1335SOL    HW1 4004   3.060   0.332   2.666  0.0876 -0.2053  0.5595
 1335SOL    HW2 4005   2.989   0.366   2.795 -0.2579  0.7500  0.1304
 1336SOL     OW 4006   3.026   0.146   0.834 -0.4584 -0.7277  0.2351
 1336SOL    HW1 4007   3.026   0.179   0.924  3.8479 -1.1675  0.5771
 1336SOL    HW2 4008   2.958   0.198   0.790 -0.0575  2.2852  2.8197
 1337SOL     OW 4009   3.626   3.987   0.145 -0.3662 -0.1524  0.0887
 1337SOL    HW1 4010   3.553   3.929   0.164  0.1457 -0.6115  0.6709
 1337SOL    HW2 4011   3.674   3.943   0.074 -1.2172  0.6486 -1.0219
 1338SOL     OW 4012   2.605   1.950   0.156  0.6116  0.5947  0.3482
 1338SOL    HW1 4013   2.701   1.954   0.157  0.6290  0.4781 -0.2157
 1338SOL    HW2 4014   2.584   1.876   0.213  0.8399  0.8420  0.7585
 1339SOL     OW 4015   1.673   2.912   3.873  0.0972  0.3794 -0.2255
 1339SOL    HW1 4016   1.662   2.867   3.956  0.3555  0.6344 -0.0514
 1339SOL    HW2 4017   1.614   2.867   3.813 -0.7710  0.7682  0.3219
 1340SOL     OW 4018   2.179   0.659   1.090 -0.2957  0.3953  0.3682
 1340SOL    HW1 4019   2.246   0.653   1.159 -0.4254  0.3670  0.4911
 1340SOL    HW2 4020   2.099   0.626   1.130 -0.2979  0.0673  0.1036
 1341SOL     OW 4021   1.316   2.223   1.026 -0.6973  0.0180 -0.3961
 1341SOL    HW1 4022   1.233   2.259   0.997 -0.8442  0.5663  0.6384
 1341SOL    HW2 4023   1.380   2.292   1.005 -0.5236 -0.3210 -1.0110
 1342SOL     OW 4024   3.253   2.802   3.835  0.4182  0.1213 -0.1995
 1342SOL    HW1 4025   3.249   2.710   3.807  0.5899 -0.2671  0.9885
 1342SOL    HW2 4026   3.343   2.829   3.814  0.8923 -0.5020  0.9219
 1343SOL     OW 4027   3.183   1.894   3.489  0.1075  0.3097 -0.5643
 1343SOL    HW1 4028   3.155   1.808   3.521 -0.3322  0.3766 -0.7640
 1343SOL    HW2 4029   3.110   1.924   3.434  1.2265 -0.2061 -2.3911
 1344SOL     OW 4030   1.977   0.531   3.346  0.4379 -0.2987 -0.2739
 1344SOL    HW1 4031   1.884   0.511   3.343  0.1848  0.9292 -1.3019
 1344SOL    HW2 4032   2.006   0.499   3.432 -1.4129  1.3748  1.0459
 1345SOL     OW 4033   3.088   1.048   1.211  0.6946  1.1442  0.1923
 1345SOL    HW1 4034   2.999   1.052   1.174  0.9507 -1.2756 -0.8351
 1345SOL    HW2 4035   3.145   1.057   1.135  1.2719 -0.0962  0.4564
 1346SOL     OW 4036   2.457   1.057   3.527 -0.3637  0.4293  0.2211
 1346SOL    HW1 4037   2.453   1.000   3.450 -0.2306  0.3662  0.2603
 1346SOL    HW2 4038   2.445   0.998   3.602 -0.0457  0.4260  0.2707
 1347SOL     OW 4039   0.170   2.112   3.276  0.7144 -0.4038 -0.1892
 1347SOL    HW1 4040   0.219   2.077   3.202  2.4355  0.6218  0.4092
 1347SOL    HW2 4041   0.142   2.199   3.247 -1.2163 -1.1475 -0.6935
 1348SOL     OW 4042   2.593   3.537   3.587  0.3790  0.3665 -0.4588
 1348SOL    HW1 4043   2.587   3.446   3.558  0.0707  0.1636  0.2227
 1348SOL    HW2 4044   2.682   3.564   3.565 -0.5053  1.0090 -3.7964
 1349SOL     OW 4045   2.999   3.322   1.224 -0.6367 -0.2581 -0.3564
 1349SOL    HW1 4046   3.085   3.361   1.205 -0.6575  0.2239  0.5039
 1349SOL    HW2 4047   2.993   3.248   1.163  0.2171 -0.0582 -0.7064
 1350SOL     OW 4048   3.960   0.106   0.570  0.2704  0.2310 -0.2342
 1350SOL    HW1 4049   4.028   0.066   0.516  0.9708  1.7947 -0.5891
 1350SOL    HW2 4050   3.878   0.086   0.525  0.2625 -2.8426  0.9102
 1351SOL     OW 4051   2.150   2.123   1.168  0.5287  0.5032  0.0547
 1351SOL    HW1 4052   2.059   2.148   1.177  0.5966  1.9427 -2.2789
 1351SOL    HW2 4053   2.148   2.031   1.141 -0.2017  0.3844  0.5236
 1352SOL     OW 4054   3.322   1.891   0.608 -0.8702  0.3836  0.3255
 1352SOL    HW1 4055   3.389   1.926   0.666  0.1344  0.1679 -0.6597
 1352SOL    HW2 4056   3.343   1.797   0.601 -1.4778  0.2468  0.2658
 1353SOL     OW 4057   0.944   2.023   0.921 -0.3190 -0.2157 -0.5026
 1353SOL    HW1 4058   0.916   2.101   0.874  0.1275  0.7230  0.7586
 1353SOL    HW2 4059   1.025   1.996   0.877  0.2091  0.7720 -0.1488
 1354SOL     OW 4060   2.427   1.300   1.611 -0.2773  0.3277  0.0033
 1354SOL    HW1 4061   2.390   1.214   1.591 -0.3014  0.5343 -0.8732
 1354SOL    HW2 4062   2.475   1.287   1.694 -1.0425 -0.2957  0.3560
 1355SOL     OW 4063   3.784   1.919   1.348 -0.0193  0.2568 -0.4599
 1355SOL    HW1 4064   3.844   1.985   1.313 -0.2729  0.6828 -0.0946
 1355SOL    HW2 4065   3.705   1.968   1.372  0.4234  0.1091  1.4096
 1356SOL     OW 4066   0.514   0.801   0.607 -0.4252  0.1186  0.0720
 1356SOL    HW1 4067   0.564   0.810   0.688 -0.2621  0.1929 -0.0372
 1356SOL    HW2 4068   0.499   0.891   0.577 -0.3819  0.0870 -0.0446
 1357SOL     OW 4069   0.210   3.212   0.805 -0.0157 -0.7361  0.2934
 1357SOL    HW1 4070   0.235   3.191   0.715 -0.8059 -0.5735  0.0228
 1357SOL    HW2 4071   0.115   3.199   0.806 -0.6106  2.7838  0.1130
 1358SOL     OW 4072   0.982   2.540   3.094  0.0505  0.2688 -0.4263
 1358SOL    HW1 4073   1.038   2.594   3.038 -0.2958 -0.4964 -1.5594
 1358SOL    HW2 4074   0.911   2.512   3.036  0.1413 -1.2764  0.1606
 1359SOL     OW 4075   3.524   2.763   0.597  0.3106  0.0437  0.1732
 1359SOL    HW1 4076   3.555   2.812   0.674  2.2114 -0.3449 -0.2965
 1359SOL    HW2 4077   3.604   2.745   0.547 -0.8201 -0.2839 -1.5690
 1360SOL     OW 4078   2.938   3.143   1.023  0.3316 -0.0789 -0.4740
 1360SOL    HW1 4079   2.941   3.068   0.964  0.6614 -0.4142 -0.0460
 1360SOL    HW2 4080   2.845   3.158   1.039  0.2553 -0.2412 -0.7604
 1361SOL     OW 4081   0.679   0.146   0.731 -0.3442  0.2057 -0.0290
 1361SOL    HW1 4082   0.754   0.087   0.732 -0.4320  0.0617 -0.9009
 1361SOL    HW2 4083   0.603   0.088   0.723 -0.3143  0.4196 -3.8153
 1362SOL     OW 4084   1.117   1.044   3.693  0.3848  0.0733  0.0219
 1362SOL    HW1 4085   1.030   1.024   3.727  0.8424 -0.6807  0.7984
 1362SOL    HW2 4086   1.139   0.970   3.636  0.7973 -0.0906  0.3854
 1363SOL     OW 4087   0.352   0.890   2.240 -0.8988  0.3737 -0.3874
 1363SOL    HW1 4088   0.330   0.799   2.259 -1.5710  0.5851 -0.1349
 1363SOL    HW2 4089   0.319   0.940   2.315 -0.1736  0.7889 -0.3265
 1364SOL     OW 4090   3.072   3.872   1.787 -0.0870 -0.1474 -0.0883
 1364SOL    HW1 4091   3.054   3.964   1.771  0.4996 -0.0751 -0.3505
 1364SOL    HW2 4092   3.075   3.865   1.883 -1.3083 -0.1364 -0.0298
 1365SOL     OW 4093   2.887   3.725   2.721 -0.1957  0.2387  0.0772
 1365SOL    HW1 4094   2.944   3.669   2.668 -0.2684 -2.3593  2.5493
 1365SOL    HW2 4095   2.904   3.814   2.687  0.2231 -1.1126 -3.7533
 1366SOL     OW 4096   0.788   3.617   2.999 -0.2441  0.2132 -0.2688
 1366SOL    HW1 4097   0.717   3.623   2.934 -2.2219 -0.4591  1.7000
 1366SOL    HW2 4098   0.820   3.706   3.007 -1.1426  0.6186 -0.9221
 1367SOL     OW 4099   2.734   3.863   0.505  0.1456 -0.2673 -0.3625
 1367SOL    HW1 4100   2.661   3.823   0.457 -0.2993 -1.8780  1.4989
 1367SOL    HW2 4101   2.741   3.952   0.469 -0.1697 -1.3137 -3.2781
 1368SOL     OW 4102   2.088   0.169   0.944 -0.9419  0.1979  0.1230
 1368SOL    HW1 4103   2.122   0.084   0.914 -0.0013 -0.1527  1.9815
 1368SOL    HW2 4104   2.031   0.199   0.874 -0.6541 -1.5990 -0.9363
 1369SOL     OW 4105   0.200   3.224   0.392 -0.3740  0.4485 -0.1056
 1369SOL    HW1 4106   0.114   3.257   0.367  0.9977  2.4421 -2.6387
 1369SOL    HW2 4107   0.223   3.161   0.324  0.1931 -0.0774  0.5483
 1370SOL     OW 4108   0.780   3.102   3.584  0.1729 -0.2158  0.2805
 1370SOL    HW1 4109   0.819   3.129   3.667  2.7414 -1.1137 -0.5215
 1370SOL    HW2 4110   0.838   3.138   3.517 -1.6121  0.1573 -1.1575
 1371SOL     OW 4111   1.043   1.516   1.522 -0.0089  0.0708 -0.2994
 1371SOL    HW1 4112   1.064   1.580   1.453  1.2657 -0.0562 -0.0416
 1371SOL    HW2 4113   1.127   1.483   1.551 -0.6536 -2.1076 -0.7498
 1372SOL     OW 4114   2.506   1.081   3.113 -0.5375 -0.3856  0.7305
 1372SOL    HW1 4115   2.573   1.019   3.140 -2.7958 -3.4026  0.0502
 1372SOL    HW2 4116   2.533   1.110   3.026  0.7985 -0.0207  1.2512
 1373SOL     OW 4117   3.133   3.286   2.909  0.0716 -0.1018  0.2470
 1373SOL    HW1 4118   3.048   3.311   2.945 -0.2090  0.0553 -0.4929
 1373SOL    HW2 4119   3.133   3.323   2.821  1.0423  0.1725  0.3536
 1374SOL     OW 4120   2.785   3.173   3.193 -0.7697 -0.6770  0.5893
 1374SOL    HW1 4121   2.699   3.204   3.163  0.0754  1.5356  0.2932
 1374SOL    HW2 4122   2.765   3.095   3.246 -2.9856 -0.0637  0.7624
 1375SOL     OW 4123   2.269   1.272   0.106 -0.1399  0.8088  1.2370
 1375SOL    HW1 4124   2.182   1.260   0.143  0.1646  0.6224  1.9100
 1375SOL    HW2 4125   2.318   1.195   0.134 -1.1710 -2.0630 -3.6639
 1376SOL     OW 4126   3.909   1.639   3.575  0.3918 -0.2706 -0.2921
 1376SOL    HW1 4127   3.950   1.568   3.526 -0.4209  1.0957 -3.1535
 1376SOL    HW2 4128   3.815   1.629   3.559  0.2038  0.9378 -0.0207
 1377SOL     OW 4129   0.981   3.866   0.427  0.1745  0.0030  0.1312
 1377SOL    HW1 4130   0.927   3.799   0.469 -0.2840  0.8772  0.9503
 1377SOL    HW2 4131   0.946   3.949   0.458  0.2525  0.6729 -1.4446
 1378SOL     OW 4132   0.517   3.875   3.308  0.4945  0.4249 -0.3461
 1378SOL    HW1 4133   0.463   3.811   3.354 -0.0306  0.9546 -0.2018
 1378SOL    HW2 4134   0.473   3.959   3.324  0.5863  0.6871 -1.3897
 1379SOL     OW 4135   2.344   1.399   2.875 -0.3651 -0.1905 -0.4462
 1379SOL    HW1 4136   2.254   1.376   2.852 -1.6601  0.5279  3.2217
 1379SOL    HW2 4137   2.336   1.471   2.938  2.5792 -1.5921  1.8186
 1380SOL     OW 4138   3.953   3.406   3.477  0.0171  0.4392  0.2698
 1380SOL    HW1 4139   4.042   3.388   3.448 -0.5506  0.8624 -1.8711
 1380SOL    HW2 4140   3.909   3.321   3.474  0.6299 -0.0513  2.6794
 1381SOL     OW 4141   3.607   0.148   1.218 -0.0461  0.1024  0.2264
 1381SOL    HW1 4142   3.605   0.150   1.122 -3.2484  1.5064  0.2010
 1381SOL    HW2 4143   3.662   0.073   1.239 -0.6715 -1.3453 -2.7562
 1382SOL     OW 4144   3.331   3.374   2.697  0.0708 -0.2746 -0.1774
 1382SOL    HW1 4145   3.317   3.469   2.694  0.0500 -0.1861  1.6985
 1382SOL    HW2 4146   3.318   3.345   2.606 -1.4224  1.3038 -0.5256
 1383SOL     OW 4147   2.111   3.220   3.865 -0.6465 -0.1533  0.4639
 1383SOL    HW1 4148   2.207   3.218   3.874 -0.6007  0.5909  0.2154
 1383SOL    HW2 4149   2.091   3.311   3.848 -1.2208 -0.6005 -1.4611
 1384SOL     OW 4150   0.493   1.581   0.192  0.3826  0.7748 -0.3269
 1384SOL    HW1 4151   0.406   1.572   0.233  0.5178  2.0924  0.2895
 1384SOL    HW2 4152   0.516   1.492   0.166 -0.8535  0.2945  0.1401
 1385SOL     OW 4153   0.908   1.533   2.067 -0.0596 -0.1350  0.1182
 1385SOL    HW1 4154   0.928   1.586   2.144  1.3541 -1.3301  0.6090
 1385SOL    HW2 4155   0.826   1.489   2.088 -0.9586  1.3792 -0.0702
 1386SOL     OW 4156   0.234   1.605   3.351  0.0331 -0.3986 -0.4658
 1386SOL    HW1 4157   0.301   1.550   3.311  2.9780  1.7962  1.0296
 1386SOL    HW2 4158   0.239   1.688   3.304 -0.9533  0.1502  0.3412
 1387SOL     OW 4159   3.174   0.055   0.617  0.0464  0.0608  0.3379
 1387SOL    HW1 4160   3.125   0.092   0.690  0.6234 -2.0668  1.8911
 1387SOL    HW2 4161   3.251   0.112   0.608  0.5720 -0.2639  2.2222
 1388SOL     OW 4162   3.511   3.835   0.435 -0.1040 -0.0850  0.7270
 1388SOL    HW1 4163   3.567   3.759   0.449  0.9724  0.9842  2.6999
 1388SOL    HW2 4164   3.437   3.823   0.495  0.1409  0.4566  1.1510
 1389SOL     OW 4165   1.934   2.780   3.914  0.5428  0.4329  0.0148
 1389SOL    HW1 4166   1.886   2.707   3.952  1.6435 -0.6953 -0.7058
 1389SOL    HW2 4167   1.868   2.831   3.867 -0.6140  1.1185  2.2582
 1390SOL     OW 4168   0.429   3.673   2.357 -0.5566  0.7032 -0.1549
 1390SOL    HW1 4169   0.444   3.583   2.388 -0.8871  0.9635  0.8130
 1390SOL    HW2 4170   0.513   3.699   2.319 -0.8350 -0.4520 -1.6389
 1391SOL     OW 4171   3.353   0.495   1.641 -0.2750  0.0677  0.0862
 1391SOL    HW1 4172   3.407   0.566   1.606  0.4031 -0.2068  0.5568
 1391SOL    HW2 4173   3.289   0.539   1.697 -0.5571  0.3967 -0.4791
 1392SOL     OW 4174   3.057   3.507   2.027 -0.5793  0.6846  0.2854
 1392SOL    HW1 4175   3.009   3.432   2.061  1.8503 -0.6754  0.9957
 1392SOL    HW2 4176   3.006   3.536   1.952 -0.8695 -2.7377 -1.0534
 1393SOL     OW 4177   3.558   2.713   0.913  0.0538  0.1922  0.2132
 1393SOL    HW1 4178   3.501   2.636   0.912  0.6781 -0.2823 -0.6532
 1393SOL    HW2 4179   3.548   2.750   1.001 -3.1774  1.3599 -0.5226
 1394SOL     OW 4180   1.525   0.675   1.708 -0.1662 -0.8332 -0.1222
 1394SOL    HW1 4181   1.488   0.626   1.634  1.0696 -1.3614 -0.4096
 1394SOL    HW2 4182   1.500   0.625   1.785  0.5760 -1.6100 -0.3711
 1395SOL     OW 4183   3.736   0.214   3.014  0.4202  0.2004  0.6846
 1395SOL    HW1 4184   3.651   0.182   3.045  0.1322 -0.4189 -0.6539
 1395SOL    HW2 4185   3.761   0.280   3.078 -0.2318 -0.8360  2.0823
 1396SOL     OW 4186   3.971   1.980   3.975 -0.1585  0.4515 -0.7350
 1396SOL    HW1 4187   3.932   1.900   4.010  2.7596 -1.6745 -1.9099
 1396SOL    HW2 4188   3.950   1.978   3.881  0.7606  0.5018 -0.9522
 1397SOL     OW 4189   0.194   3.890   0.801 -0.5211 -0.0912 -0.6876
 1397SOL    HW1 4190   0.105   3.901   0.769 -2.6149 -1.1548  3.8907
 1397SOL    HW2 4191   0.206   3.795   0.807 -0.5499 -0.0100  1.8735
 1398SOL     OW 4192   2.492   1.570   3.325  0.1192  0.4635 -0.7224
 1398SOL    HW1 4193   2.551   1.640   3.353  0.4333  0.1778 -0.6730
 1398SOL    HW2 4194   2.534   1.532   3.249 -0.0312  0.2970 -0.7218
 1399SOL     OW 4195   1.273   1.072   1.339  0.1555  0.0298 -0.4607
 1399SOL    HW1 4196   1.274   1.129   1.415  1.0591 -0.2020 -0.2891
 1399SOL    HW2 4197   1.280   0.983   1.374  0.1241 -0.1071 -0.7901
 1400SOL     OW 4198   1.977   2.504   3.779  0.2022 -0.1295 -0.7916
 1400SOL    HW1 4199   1.934   2.527   3.861  0.1239  0.2198 -0.9305
 1400SOL    HW2 4200   2.048   2.568   3.770  1.3478 -1.2373 -0.1106
 1401SOL     OW 4201   3.938   2.525   2.432  0.4443  0.8650 -0.1180
 1401SOL    HW1 4202   3.890   2.601   2.466  0.7834  0.3085  1.7332
 1401SOL    HW2 4203   3.947   2.467   2.508 -0.6289 -1.4887 -1.6889
 1402SOL     OW 4204   2.540   2.140   3.634 -0.1489  0.1666  0.0973
 1402SOL    HW1 4205   2.522   2.219   3.584 -0.5535  0.7870  1.1876
 1402SOL    HW2 4206   2.463   2.129   3.690 -0.9322 -1.9939 -1.2422
 1403SOL     OW 4207   2.885   0.513   3.579 -0.0866 -0.2899  0.0897
 1403SOL    HW1 4208   2.821   0.528   3.648 -1.1231 -0.5818 -0.7802
 1403SOL    HW2 4209   2.849   0.441   3.528  0.4067  0.2442 -1.0480
 1404SOL     OW 4210   0.214   0.727   1.268 -0.2385 -0.0954 -0.1139
 1404SOL    HW1 4211   0.262   0.710   1.187  1.8564  0.1869  1.0147
 1404SOL    HW2 4212   0.124   0.703   1.247  0.4833 -1.3416 -2.1154
 1405SOL     OW 4213   0.150   1.603   2.380 -0.5553 -0.2092  0.2403
 1405SOL    HW1 4214   0.100   1.526   2.410 -0.8614 -0.0904  0.0442
 1405SOL    HW2 4215   0.233   1.597   2.426 -0.5442 -0.7090  0.1579
 1406SOL     OW 4216   1.353   3.732   2.960 -0.1920  1.0764 -0.0226
 1406SOL    HW1 4217   1.359   3.795   2.889  0.2022  1.1318  0.0532
 1406SOL    HW2 4218   1.371   3.783   3.039  1.7086  0.6073 -0.1002
 1407SOL     OW 4219   0.198   1.161   1.086 -0.3276 -0.1210 -0.4251
 1407SOL    HW1 4220   0.194   1.249   1.049 -3.2993  0.3094  0.6741
 1407SOL    HW2 4221   0.107   1.131   1.088  0.4946 -2.9489 -0.0590
 1408SOL     OW 4222   3.089   3.840   0.161 -0.0549 -0.0964  0.1112
 1408SOL    HW1 4223   3.134   3.885   0.090 -0.1342  0.3701  0.3576
 1408SOL    HW2 4224   3.041   3.769   0.117  0.9555 -0.6439 -0.1504
 1409SOL     OW 4225   0.615   1.284   1.429  0.0174  0.0596 -0.8650
 1409SOL    HW1 4226   0.605   1.378   1.414 -4.3293 -0.1300 -0.2865
 1409SOL    HW2 4227   0.572   1.268   1.513  1.9446 -2.3237 -0.2152
 1410SOL     OW 4228   3.624   0.949   1.851 -0.4167 -0.2010  0.5679
 1410SOL    HW1 4229   3.665   0.925   1.768 -2.1104 -2.1229  0.1844
 1410SOL    HW2 4230   3.549   1.003   1.825 -0.0784  0.4667  0.9765
 1411SOL     OW 4231   2.222   0.748   3.035 -0.1089 -0.8391 -0.4276
 1411SOL    HW1 4232   2.232   0.773   2.943 -0.2285 -0.4544 -0.3378
 1411SOL    HW2 4233   2.223   0.831   3.082 -0.1866 -1.0277 -0.0936
 1412SOL     OW 4234   1.582   0.714   2.349 -0.2686 -0.7382 -0.5256
 1412SOL    HW1 4235   1.488   0.697   2.350 -0.0770 -1.9153 -0.0496
 1412SOL    HW2 4236   1.592   0.802   2.386 -1.2768  0.1069 -2.1584
 1413SOL     OW 4237   2.370   1.749   3.089  0.2487 -0.3849  0.5473
 1413SOL    HW1 4238   2.443   1.765   3.148  1.4328 -0.8538 -0.7357
 1413SOL    HW2 4239   2.336   1.836   3.068  1.1193 -0.0835  0.3519
 1414SOL     OW 4240   0.390   0.071   1.333  1.1310 -0.4685 -0.4262
 1414SOL    HW1 4241   0.429   0.158   1.321  2.0755 -0.9718 -1.1428
 1414SOL    HW2 4242   0.438   0.032   1.405 -0.0044 -0.0205  0.6080
 1415SOL     OW 4243   1.574   2.857   1.971 -0.2359 -0.1497 -0.0968
 1415SOL    HW1 4244   1.657   2.846   1.923  0.6566 -0.8707  1.5389
 1415SOL    HW2 4245   1.549   2.769   1.997 -0.5415  0.2466  1.0030
 1416SOL     OW 4246   1.339  -0.022   0.068 -0.5321  0.3305  0.6782
 1416SOL    HW1 4247   1.356   0.019   0.153 -2.4934  0.7824  0.8942
 1416SOL    HW2 4248   1.312   0.051   0.012  1.7900  0.2144 -0.6947
 1417SOL     OW 4249   0.593   1.838   0.773 -0.4737  0.5064  0.2142
 1417SOL    HW1 4250   0.559   1.926   0.759  0.9178  0.9422 -0.7240
 1417SOL    HW2 4251   0.611   1.833   0.867 -0.7968  1.1394  0.3120
 1418SOL     OW 4252   0.235   0.602   2.120 -0.3945  0.2694  0.2524
 1418SOL    HW1 4253   0.146   0.567   2.127 -0.7048  1.0200  0.1333
 1418SOL    HW2 4254   0.237   0.650   2.037 -0.2467  1.2558  0.8028
 1419SOL     OW 4255   2.115   0.343   2.336 -0.7904  0.0310 -0.4943
 1419SOL    HW1 4256   2.174   0.277   2.372 -0.0002  0.0881 -1.6249
 1419SOL    HW2 4257   2.096   0.401   2.410 -0.7659 -0.9391  0.2877
 1420SOL     OW 4258   2.530   2.733   0.198  0.2249 -0.1303 -0.0659
 1420SOL    HW1 4259   2.571   2.684   0.127  1.3616  1.0812 -0.2818
 1420SOL    HW2 4260   2.591   2.805   0.216 -0.9811  0.7105  0.8155
 1421SOL     OW 4261   2.159   2.995   0.066  0.3314 -0.3089  0.4637
 1421SOL    HW1 4262   2.140   3.080   0.027  5.0258 -0.2110 -2.2865
 1421SOL    HW2 4263   2.129   2.932   0.001 -0.0671 -0.6414  0.9611
 1422SOL     OW 4264   1.011   0.024   1.049  0.2883  0.0080  0.2952
 1422SOL    HW1 4265   1.064   0.023   0.970 -0.2622 -0.9082 -0.0881
 1422SOL    HW2 4266   1.052   0.089   1.105  1.6366 -0.4773 -0.0941
 1423SOL     OW 4267   4.023   2.845   0.844  0.3092 -0.1003 -0.0471
 1423SOL    HW1 4268   3.936   2.806   0.837  0.8492 -1.6083  1.0184
 1423SOL    HW2 4269   4.035   2.892   0.762 -1.3667 -0.1479 -0.3545
 1424SOL     OW 4270   3.295   2.955   0.103 -0.0978  0.2669 -0.4856
 1424SOL    HW1 4271   3.286   2.931   0.011  0.5085 -0.7804 -0.2772
 1424SOL    HW2 4272   3.211   2.932   0.142 -0.1370  0.1339 -0.6487
 1425SOL     OW 4273   3.054   3.637   3.131 -0.5894  0.1069 -0.1718
 1425SOL    HW1 4274   2.985   3.596   3.079 -2.1834  0.7852  1.3103
 1425SOL    HW2 4275   3.134   3.592   3.105 -1.6796 -1.1821 -1.4484
 1426SOL     OW 4276   3.250   3.625   2.334 -0.2751 -0.3223  0.1481
 1426SOL    HW1 4277   3.192   3.550   2.327 -1.6616  0.5920  1.1431
 1426SOL    HW2 4278   3.289   3.634   2.247  1.4373 -3.2863  0.4771
 1427SOL     OW 4279   3.886   2.449   0.871  0.4849 -0.2695 -0.4358
 1427SOL    HW1 4280   3.968   2.418   0.834 -0.5927 -0.3107 -3.0014
 1427SOL    HW2 4281   3.881   2.541   0.845 -0.0806 -0.1489  0.0626
 1428SOL     OW 4282   0.698   2.862   3.921  0.0994  0.3884  0.0108
 1428SOL    HW1 4283   0.616   2.848   3.968 -0.2081  1.4268 -0.1832
 1428SOL    HW2 4284   0.759   2.798   3.958 -1.1851 -1.4529 -0.8616
 1429SOL     OW 4285   1.145   0.750   3.577  0.9826 -0.2459  0.2887
 1429SOL    HW1 4286   1.192   0.735   3.659  0.3241  2.3110  1.2481
 1429SOL    HW2 4287   1.208   0.799   3.523 -0.1941  2.6397  1.3406
 1430SOL     OW 4288   0.205   1.359   2.156 -0.0058 -0.3998  0.1342
 1430SOL    HW1 4289   0.164   1.428   2.207 -0.2200 -0.4853  0.0799
 1430SOL    HW2 4290   0.293   1.392   2.136 -0.4192  0.2512 -0.6703
 1431SOL     OW 4291   1.986   1.445   3.739 -0.0223 -0.1079  0.0283
 1431SOL    HW1 4292   2.063   1.434   3.683  0.9529  1.1673  1.0697
 1431SOL    HW2 4293   2.020   1.474   3.823 -1.5201 -1.2557  1.1027
 1432SOL     OW 4294   3.916   2.607   1.237  0.1772  0.7102 -0.2887
 1432SOL    HW1 4295   3.930   2.695   1.272  0.4802  0.6779 -0.3324
 1432SOL    HW2 4296   3.996   2.587   1.189  0.2799  0.2462  0.0716
 1433SOL     OW 4297   2.333   2.311   3.489  0.0503  0.2246  0.0882
 1433SOL    HW1 4298   2.273   2.242   3.517 -0.1721  0.6378  0.6635
 1433SOL    HW2 4299   2.323   2.380   3.555  1.5236  0.1008  0.4848
 1434SOL     OW 4300   1.439   0.926   3.040 -0.2667 -0.0485 -0.3950
 1434SOL    HW1 4301   1.479   0.969   2.963  1.9357  1.2459  1.3367
 1434SOL    HW2 4302   1.458   0.833   3.028 -0.5313  0.0386 -1.7023
 1435SOL     OW 4303   0.299   3.602   1.528 -0.1633  0.5263 -0.0274
 1435SOL    HW1 4304   0.272   3.592   1.619  1.5937  1.1074  0.5890
 1435SOL    HW2 4305   0.225   3.567   1.478  0.0692 -2.7374  1.6380
 1436SOL     OW 4306   3.138   2.070   1.938 -0.3747  0.2585  0.5273
 1436SOL    HW1 4307   3.170   2.126   1.867  0.6074  0.5002  1.1345
 1436SOL    HW2 4308   3.178   1.985   1.921 -1.3926 -0.1159 -0.0651
 1437SOL     OW 4309   0.132   1.323   2.469 -0.1779 -0.1497  0.0649
 1437SOL    HW1 4310   0.211   1.269   2.482  0.2497  0.0837 -1.3613
 1437SOL    HW2 4311   0.091   1.287   2.391 -1.0279  0.2897  0.2948
 1438SOL     OW 4312   3.699   3.834   1.847  0.0811 -0.3679  0.2295
 1438SOL    HW1 4313   3.642   3.903   1.882  1.0431  0.3294  0.4553
 1438SOL    HW2 4314   3.759   3.880   1.789  2.0040 -0.6917  1.8770
 1439SOL     OW 4315   1.270   2.831   0.681 -0.3011 -0.0677 -0.4546
 1439SOL    HW1 4316   1.341   2.799   0.735 -0.3047 -2.0329 -1.5382
 1439SOL    HW2 4317   1.313   2.867   0.603 -0.4362 -0.9589 -0.9609
 1440SOL     OW 4318   0.325   3.294   1.527  0.1574  0.0168 -0.0554
 1440SOL    HW1 4319   0.313   3.229   1.458 -2.3369  2.9708 -2.6584
 1440SOL    HW2 4320   0.395   3.351   1.495 -1.5734  1.8966 -0.6832
 1441SOL     OW 4321   3.366   0.032   0.288 -0.0080 -0.3023  0.8613
 1441SOL    HW1 4322   3.384  -0.042   0.346  0.8485  1.5183  3.0697
 1441SOL    HW2 4323   3.423   0.101   0.319 -0.9595  1.4125 -0.9584
 1442SOL     OW 4324   3.348   3.881   1.274 -0.2602  0.0895 -0.2551
 1442SOL    HW1 4325   3.357   3.799   1.323  0.5770  1.8528  2.8353
 1442SOL    HW2 4326   3.403   3.870   1.197  2.8673 -1.0297  1.9567
 1443SOL     OW 4327   1.053   0.161   2.374 -0.5240 -0.7576 -0.7682
 1443SOL    HW1 4328   1.010   0.096   2.318 -3.2274 -0.8382  1.1653
 1443SOL    HW2 4329   1.035   0.130   2.463 -0.5846  1.8167  0.1893
 1444SOL     OW 4330   3.885   1.393   2.916 -0.4320 -0.1564  0.3727
 1444SOL    HW1 4331   3.967   1.380   2.868  0.1282  2.9484  0.2668
 1444SOL    HW2 4332   3.818   1.398   2.847 -0.5929 -1.5994  0.3900
 1445SOL     OW 4333   2.130   0.611   1.713  0.4326 -0.0245 -0.1760
 1445SOL    HW1 4334   2.129   0.611   1.809 -0.3230 -2.3866 -0.1312
 1445SOL    HW2 4335   2.224   0.610   1.691  0.6812 -2.5669  0.6639
 1446SOL     OW 4336   1.294   0.702   2.468 -0.5078  0.2407  0.2085
 1446SOL    HW1 4337   1.333   0.694   2.555  1.3473  1.8563 -0.4055
 1446SOL    HW2 4338   1.229   0.772   2.478  2.0118  2.8126 -0.3440
 1447SOL     OW 4339   1.877   0.574   1.572  0.1853 -0.0762  0.2778
 1447SOL    HW1 4340   1.816   0.630   1.621  0.8717 -0.3106  1.4526
 1447SOL    HW2 4341   1.954   0.568   1.629  0.6275 -1.1600 -0.4140
 1448SOL     OW 4342   3.518   1.852   1.458  0.1959  0.2593 -0.7136
 1448SOL    HW1 4343   3.583   1.787   1.430  0.9692  0.7233 -0.0384
 1448SOL    HW2 4344   3.483   1.887   1.377  1.0178  0.2241 -1.0933
 1449SOL     OW 4345   2.528   1.883   2.395  0.5874 -0.3866 -0.3752
 1449SOL    HW1 4346   2.590   1.919   2.457  0.4576 -0.9914  0.1223
 1449SOL    HW2 4347   2.444   1.924   2.417  0.6563 -0.1659 -0.5279
 1450SOL     OW 4348   2.015   3.841   0.953 -0.0071 -0.8805  0.6077
 1450SOL    HW1 4349   1.943   3.806   1.006  0.7762 -2.2302  0.8349
 1450SOL    HW2 4350   2.080   3.771   0.952  1.5817  0.5379  0.9060
 1451SOL     OW 4351   3.133   0.746   0.804 -1.0608 -0.4072 -0.1900
 1451SOL    HW1 4352   3.102   0.721   0.717 -1.7152 -1.1483  0.2418
 1451SOL    HW2 4353   3.113   0.839   0.810 -0.7962 -0.2914 -0.9151
 1452SOL     OW 4354   2.571   0.226   3.566 -0.1381 -0.8344 -0.1445
 1452SOL    HW1 4355   2.495   0.278   3.591 -0.1585 -0.8254 -0.2242
 1452SOL    HW2 4356   2.534   0.144   3.532 -0.1772 -0.2962 -1.4693
 1453SOL     OW 4357   0.681   3.755   2.278 -0.2022 -0.0118  0.0144
 1453SOL    HW1 4358   0.758   3.700   2.290  1.4550  1.6057 -2.1897
 1453SOL    HW2 4359   0.709   3.842   2.306 -1.7382  0.3148  0.5910
 1454SOL     OW 4360   1.370   4.025   3.360 -0.6537  0.7723  0.1946
 1454SOL    HW1 4361   1.333   3.964   3.296 -0.9559  1.0771  0.0784
 1454SOL    HW2 4362   1.392   3.970   3.436 -1.5229  0.6156  0.3455
 1455SOL     OW 4363   1.762   1.373   0.369  0.4459 -0.3248 -0.1510
 1455SOL    HW1 4364   1.792   1.339   0.285  2.0134 -0.2623  0.3441
 1455SOL    HW2 4365   1.753   1.296   0.425 -2.7226 -0.6338 -0.9175
 1456SOL     OW 4366   3.211   3.911   2.458  0.2013 -0.4422  0.1388
 1456SOL    HW1 4367   3.164   3.840   2.503  0.9139 -0.2296  1.2656
 1456SOL    HW2 4368   3.143   3.959   2.411 -0.6444 -0.4792  1.2796
 1457SOL     OW 4369   3.034   1.327   1.719  0.0451 -0.1847 -0.3632
 1457SOL    HW1 4370   3.028   1.266   1.793  2.3563 -0.7291 -0.5495
 1457SOL    HW2 4371   3.031   1.271   1.641 -1.4137  0.3053 -0.7017
 1458SOL     OW 4372   3.941   1.822   2.498 -0.6303 -0.0307 -0.2161
 1458SOL    HW1 4373   4.011   1.770   2.459 -0.9948 -0.6996 -0.0062
 1458SOL    HW2 4374   3.862   1.770   2.483 -1.5053  1.8237 -2.6153
 1459SOL     OW 4375   0.979   2.400   0.043  0.5920 -0.6815 -0.1909
 1459SOL    HW1 4376   0.955   2.400  -0.050 -0.0580 -0.8944 -0.0256
 1459SOL    HW2 4377   0.900   2.372   0.089 -0.0174  2.2236  0.6948
 1460SOL     OW 4378   3.110   2.297   1.680  0.0481  0.1946 -0.1066
 1460SOL    HW1 4379   3.056   2.369   1.715 -1.9854 -1.0815 -0.4655
 1460SOL    HW2 4380   3.127   2.322   1.589  0.5860  0.8877  0.1752
 1461SOL     OW 4381   1.880   0.427   0.864  0.4274  0.0029 -0.5776
 1461SOL    HW1 4382   1.804   0.478   0.834  0.8300 -0.0417 -1.7378
 1461SOL    HW2 4383   1.862   0.409   0.956 -1.1102 -0.2551 -0.8966
 1462SOL     OW 4384   2.765   3.742   2.041  0.2042 -0.1989 -0.2295
 1462SOL    HW1 4385   2.748   3.835   2.025  2.3526  0.5170  1.0585
 1462SOL    HW2 4386   2.856   3.740   2.071  0.7078 -2.9221 -1.6402
 1463SOL     OW 4387   2.809   3.720   0.128  0.7447 -0.6135 -0.6456
 1463SOL    HW1 4388   2.728   3.713   0.178  0.6729 -0.4980 -0.7427
 1463SOL    HW2 4389   2.856   3.792   0.169  0.7926 -0.6722 -0.5972
 1464SOL     OW 4390   2.458   3.964   0.253 -0.2505  0.6837  0.9304
 1464SOL    HW1 4391   2.550   3.939   0.257  0.0246  0.6935 -2.5615
 1464SOL    HW2 4392   2.459   4.059   0.264 -0.2582  0.4215  3.9649
 1465SOL     OW 4393   0.237   1.011   0.237  1.2129  0.3176  0.2110
 1465SOL    HW1 4394   0.200   0.929   0.203  1.2803 -0.0058  0.9115
 1465SOL    HW2 4395   0.164   1.054   0.281  1.7559 -0.5690  2.0611
 1466SOL     OW 4396   2.162   1.056   0.746 -0.0514  0.4013  0.2012
 1466SOL    HW1 4397   2.114   1.059   0.664  1.0089 -1.2634 -0.5513
 1466SOL    HW2 4398   2.203   0.969   0.746  2.0856  1.3236  1.2506
 1467SOL     OW 4399   0.823   2.652   2.558 -0.5887 -0.4713  1.0813
 1467SOL    HW1 4400   0.847   2.609   2.476 -1.7346 -0.0275  0.4870
 1467SOL    HW2 4401   0.779   2.584   2.609 -0.4108 -0.5938  1.0706
 1468SOL     OW 4402   0.886   0.457   3.637  1.2743 -0.3237  0.4007
 1468SOL    HW1 4403   0.897   0.424   3.547 -1.1785 -0.2415  0.0123
 1468SOL    HW2 4404   0.906   0.550   3.631  1.7960 -0.4493  0.1038
 1469SOL     OW 4405   1.201   0.676   0.908  0.0391 -0.2400  0.4508
 1469SOL    HW1 4406   1.208   0.772   0.906 -2.2446  0.0852  2.6808
 1469SOL    HW2 4407   1.289   0.646   0.932  0.6675  1.3213  0.2470
 1470SOL     OW 4408   1.688   0.576   2.580 -0.3345  0.2495 -0.5302
 1470SOL    HW1 4409   1.777   0.609   2.595 -0.7609  1.5121 -0.6555
 1470SOL    HW2 4410   1.664   0.611   2.494 -0.3724 -1.4190 -1.2262
 1471SOL     OW 4411   0.393   1.924   3.490 -0.0622 -0.0280 -0.5930
 1471SOL    HW1 4412   0.334   1.851   3.471 -1.0169 -0.0487  2.0373
 1471SOL    HW2 4413   0.353   1.968   3.564  1.6102  1.9279 -0.7751
 1472SOL     OW 4414   1.692   2.002   0.399  0.6616  0.1111 -0.6008
 1472SOL    HW1 4415   1.624   1.992   0.332 -1.0335 -3.7076  1.3337
 1472SOL    HW2 4416   1.647   2.044   0.472  1.0853 -0.1574 -0.1804
 1473SOL     OW 4417   3.616   3.036   0.445 -0.0948  0.3752  0.3859
 1473SOL    HW1 4418   3.527   3.034   0.479  0.1956 -0.4329  1.1264
 1473SOL    HW2 4419   3.615   2.973   0.373 -0.0311  0.0963  0.6285
 1474SOL     OW 4420   2.119   0.953   0.156 -0.3153  0.0544 -0.1416
 1474SOL    HW1 4421   2.204   0.996   0.169 -0.4916  0.0593  1.0962
 1474SOL    HW2 4422   2.141   0.861   0.143 -0.2084 -0.4014  2.7020
 1475SOL     OW 4423   2.605   2.390   3.477 -0.0241 -0.0047 -0.0258
 1475SOL    HW1 4424   2.527   2.418   3.428  1.0209  0.6653 -1.3716
 1475SOL    HW2 4425   2.602   2.442   3.558 -0.4845  0.6995 -0.4884
 1476SOL     OW 4426   3.248   2.542   2.916  0.1944 -0.2145  0.3118
 1476SOL    HW1 4427   3.310   2.519   2.846  2.4656  0.0758  2.1023
 1476SOL    HW2 4428   3.206   2.622   2.884 -0.5541 -1.3149 -1.6685
 1477SOL     OW 4429   3.021   2.996   2.012 -0.2707  0.2843  0.3724
 1477SOL    HW1 4430   3.101   3.014   1.963 -0.2508  1.7343  0.8948
 1477SOL    HW2 4431   2.979   3.082   2.022 -2.0551 -0.4747 -0.1545
 1478SOL     OW 4432   0.987   2.804   0.712  0.2299 -0.0590 -0.0522
 1478SOL    HW1 4433   1.080   2.828   0.716  0.0843  0.5304  3.9027
 1478SOL    HW2 4434   0.979   2.728   0.770 -1.4886 -1.5553 -2.0808
 1479SOL     OW 4435   0.486   0.398   2.944  0.7330 -0.4931 -0.5294
 1479SOL    HW1 4436   0.577   0.375   2.926  0.5879 -0.7407 -0.9866
 1479SOL    HW2 4437   0.436   0.343   2.883  0.2549 -0.7329  0.0732
 1480SOL     OW 4438   2.760   3.906   3.879  1.1237 -0.1469 -0.0043
 1480SOL    HW1 4439   2.780   3.834   3.938  0.3524 -1.0232 -0.7870
 1480SOL    HW2 4440   2.716   3.865   3.804  0.3554  1.1644 -0.3092
 1481SOL     OW 4441   2.387   2.008   1.283 -0.5844  0.1051 -0.3571
 1481SOL    HW1 4442   2.381   1.932   1.340 -1.5302 -0.7074 -1.4749
 1481SOL    HW2 4443   2.308   2.058   1.300 -0.2010  0.5922  0.0234
 1482SOL     OW 4444   3.085   0.646   1.538  0.0722 -0.1865 -0.6503
 1482SOL    HW1 4445   2.990   0.651   1.548  0.1757 -0.6677  0.7850
 1482SOL    HW2 4446   3.117   0.623   1.625  1.6495  1.6559 -0.6792
 1483SOL     OW 4447   1.959   3.451   0.288 -0.2027 -1.4824 -1.5529
 1483SOL    HW1 4448   1.963   3.541   0.318  0.1393 -1.1281 -2.6164
 1483SOL    HW2 4449   1.885   3.413   0.336  1.8301 -1.7292  1.6793
 1484SOL     OW 4450   1.007   1.092   2.971  0.7766 -0.1592 -0.6113
 1484SOL    HW1 4451   0.986   1.023   3.034  0.8600 -0.2716 -0.7059
 1484SOL    HW2 4452   1.074   1.144   3.014 -2.0145  2.2969  1.1934
 1485SOL     OW 4453   1.284   3.703   2.334 -0.0537  0.3430  0.2177
 1485SOL    HW1 4454   1.298   3.795   2.312 -1.4646  0.2730 -1.1333
 1485SOL    HW2 4455   1.368   3.661   2.316  1.1573  1.5775  2.4695
 1486SOL     OW 4456   3.534   3.465   2.167  0.4068 -0.4083  0.5170
 1486SOL    HW1 4457   3.467   3.397   2.167  1.3709 -1.3965  1.8035
 1486SOL    HW2 4458   3.509   3.523   2.095 -1.6835 -0.8715  0.8103
 1487SOL     OW 4459   2.491   3.720   0.539  0.2289  0.1016  0.6387
 1487SOL    HW1 4460   2.454   3.739   0.625  1.5404  1.0285  1.0399
 1487SOL    HW2 4461   2.580   3.688   0.557  0.3699 -0.1130 -0.3453
 1488SOL     OW 4462   1.475   2.416   2.706 -0.6592  0.1389 -0.5245
 1488SOL    HW1 4463   1.402   2.443   2.762 -1.7808 -1.5994 -1.0583
 1488SOL    HW2 4464   1.552   2.423   2.761 -1.5386 -0.1257  0.7773
 1489SOL     OW 4465   1.049   0.378   0.224 -0.1848  0.0255 -0.3693
 1489SOL    HW1 4466   0.962   0.408   0.200 -0.0183 -0.6454 -1.9387
 1489SOL    HW2 4467   1.100   0.458   0.238 -1.1222  0.4248  1.0146
 1490SOL     OW 4468   3.895   3.274   1.291  0.6024  0.0477  0.3330
 1490SOL    HW1 4469   3.868   3.358   1.329  1.7626  0.0996  1.0948
 1490SOL    HW2 4470   3.836   3.210   1.331 -0.0949  0.4575 -0.0255
 1491SOL     OW 4471   2.502   1.300   2.054  0.1038 -0.4584  0.1343
 1491SOL    HW1 4472   2.510   1.371   1.990 -0.0588  0.2468  0.8793
 1491SOL    HW2 4473   2.537   1.223   2.009 -0.5038 -0.1007 -0.9914
 1492SOL     OW 4474   3.992   2.962   2.797  0.5737  0.2732  0.1166
 1492SOL    HW1 4475   3.936   3.022   2.749 -1.0441 -0.4377  1.0186
 1492SOL    HW2 4476   4.014   3.009   2.878  0.7030  0.2914  0.0707
 1493SOL     OW 4477   2.954   2.436   1.085  0.5252  0.3478  0.4330
 1493SOL    HW1 4478   2.910   2.398   1.161 -2.0202 -1.4543 -1.7582
 1493SOL    HW2 4479   3.027   2.376   1.067 -0.9748 -1.2877 -0.5270
 1494SOL     OW 4480   3.561   0.470   0.860  0.1608 -0.8228  0.2834
 1494SOL    HW1 4481   3.469   0.470   0.886 -0.3835 -3.2336 -1.3431
 1494SOL    HW2 4482   3.568   0.541   0.796  0.0154  0.8240  2.0069
 1495SOL     OW 4483   2.812   0.306   3.438 -0.1758  0.4403  1.2061
 1495SOL    HW1 4484   2.797   0.256   3.357 -1.8486  2.4211  0.1987
 1495SOL    HW2 4485   2.735   0.288   3.492  1.2056 -1.3485  2.7218
 1496SOL     OW 4486   3.399   2.677   3.414 -0.5997 -0.0247 -0.1785
 1496SOL    HW1 4487   3.411   2.737   3.340  0.3472 -0.8292 -0.6992
 1496SOL    HW2 4488   3.307   2.690   3.440 -0.5415  1.3293 -0.5369
 1497SOL     OW 4489   2.568   0.414   1.411 -0.3342 -0.6491  0.4334
 1497SOL    HW1 4490   2.613   0.483   1.459 -2.7259  0.0702  1.8591
 1497SOL    HW2 4491   2.561   0.342   1.473 -0.4356 -1.0374 -0.0197
 1498SOL     OW 4492   3.016   0.481   2.984  0.3444  0.0464  0.5637
 1498SOL    HW1 4493   3.066   0.465   3.064  0.1400 -1.2755  0.4568
 1498SOL    HW2 4494   3.075   0.532   2.928  0.9740 -0.1375  1.0474
 1499SOL     OW 4495   1.793   3.078   3.377  0.1456 -0.1925 -0.0924
 1499SOL    HW1 4496   1.738   3.060   3.301 -1.8315 -0.0194  1.2058
 1499SOL    HW2 4497   1.771   3.009   3.440  1.4301 -0.1069  0.4828
 1500SOL     OW 4498   3.032   0.254   2.129 -0.2375 -0.8508  0.4260
 1500SOL    HW1 4499   3.116   0.213   2.110  2.2666  3.3871  0.9696
 1500SOL    HW2 4500   3.009   0.222   2.216  2.1990 -0.3575  1.3486
 1501SOL     OW 4501   0.903   2.481   2.036 -0.3578 -0.3261  0.0918
 1501SOL    HW1 4502   0.896   2.412   1.970 -1.7175 -0.4758  0.3612
 1501SOL    HW2 4503   0.953   2.550   1.993 -4.3882  1.2884 -2.6922
 1502SOL     OW 4504   2.687   1.739   0.997  0.1340 -0.0848  0.6960
 1502SOL    HW1 4505   2.746   1.709   0.928 -0.3288 -0.6913  0.5578
 1502SOL    HW2 4506   2.728   1.820   1.029 -0.1876  0.7935 -0.9861
 1503SOL     OW 4507   3.971   1.368   0.197 -0.3004  0.4083  0.9163
 1503SOL    HW1 4508   3.903   1.355   0.130  0.4657  1.2687 -0.0722
 1503SOL    HW2 4509   3.972   1.286   0.246 -1.4161  0.0359  0.3543
 1504SOL     OW 4510   0.457   1.911   2.442  0.4013  0.3028  0.0615
 1504SOL    HW1 4511   0.529   1.974   2.447  0.8916 -0.2669  0.4115
 1504SOL    HW2 4512   0.379   1.962   2.461  0.9711  0.4696  2.1323
 1505SOL     OW 4513   1.527   1.216   3.089  0.2780 -0.6569 -0.0532
 1505SOL    HW1 4514   1.579   1.140   3.117  1.1633 -0.3508 -0.8322
 1505SOL    HW2 4515   1.558   1.235   3.001 -0.8011 -0.1312 -0.3331
 1506SOL     OW 4516   2.973   3.944   3.128 -0.4425 -0.3921 -0.1370
 1506SOL    HW1 4517   2.967   3.899   3.044 -1.4812 -1.3852  0.4317
 1506SOL    HW2 4518   3.067   3.951   3.145 -0.0241  2.7119 -2.8117
 1507SOL     OW 4519   3.436   3.320   3.842 -0.8165 -0.9012  0.4540
 1507SOL    HW1 4520   3.510   3.260   3.843  0.9309  1.0967  2.4388
 1507SOL    HW2 4521   3.393   3.306   3.927 -1.4860 -0.5860  0.1763
 1508SOL     OW 4522   2.519   2.387   1.182  0.1521  0.3631  0.2188
 1508SOL    HW1 4523   2.424   2.380   1.195  0.2692 -2.1558  0.2579
 1508SOL    HW2 4524   2.544   2.465   1.230 -1.9713  1.4764 -0.3285
 1509SOL     OW 4525   3.350   3.853   0.685 -0.6418 -0.5230  0.1508
 1509SOL    HW1 4526   3.287   3.805   0.737 -0.8340 -0.2163  0.2023
 1509SOL    HW2 4527   3.299   3.923   0.643 -0.1550  0.3668  1.0133
 1510SOL     OW 4528   0.400   0.335   2.114  0.0468  1.1322  0.2342
 1510SOL    HW1 4529   0.453   0.394   2.061  1.0641 -0.8199 -1.0663
 1510SOL    HW2 4530   0.352   0.283   2.050 -0.0827 -0.0639  1.2711
 1511SOL     OW 4531   3.223   2.155   0.698 -0.0299  0.5806  0.2100
 1511SOL    HW1 4532   3.268   2.094   0.639  1.2295  2.0763 -0.4516
 1511SOL    HW2 4533   3.175   2.213   0.639  0.5619  1.5758  0.6866
 1512SOL     OW 4534   2.453   3.070   0.477  0.7292 -0.4517  0.0379
 1512SOL    HW1 4535   2.408   3.036   0.399  1.6643  0.8555 -1.1232
 1512SOL    HW2 4536   2.420   3.159   0.486  0.5421 -0.6359  1.2271
 1513SOL     OW 4537   3.331   2.751   1.951  0.5409 -1.0257 -0.7290
 1513SOL    HW1 4538   3.254   2.706   1.985  0.6177 -1.0337 -0.5641
 1513SOL    HW2 4539   3.394   2.680   1.933  1.4876 -0.8614  1.5945
 1514SOL     OW 4540   2.027   0.428   0.455  0.0587 -0.5411  0.5908
 1514SOL    HW1 4541   2.087   0.408   0.384  1.4343 -3.0903  2.2937
 1514SOL    HW2 4542   1.956   0.364   0.445 -0.3964 -0.0682  0.7769
 1515SOL     OW 4543   2.256   2.797   3.506 -0.1696 -0.4963  0.5243
 1515SOL    HW1 4544   2.226   2.861   3.570  2.4659  0.8730  0.5311
 1515SOL    HW2 4545   2.284   2.722   3.559 -1.3570 -0.8639  0.6615
 1516SOL     OW 4546   1.335   1.322   2.079 -0.1596 -0.2109 -0.5193
 1516SOL    HW1 4547   1.277   1.268   2.025  0.9606 -0.9254 -1.0564
 1516SOL    HW2 4548   1.284   1.400   2.099 -0.8245 -0.1865 -2.1523
 1517SOL     OW 4549   0.532   1.962   1.990 -0.1863  0.0885  0.4571
 1517SOL    HW1 4550   0.438   1.957   1.978  0.0164 -0.5738 -1.1329
 1517SOL    HW2 4551   0.567   1.892   1.934  1.2158 -0.0216  1.4183
 1518SOL     OW 4552   0.354   2.404   2.151  0.8594 -0.2081 -0.2542
 1518SOL    HW1 4553   0.279   2.418   2.093  1.6604  1.5010 -0.9600
 1518SOL    HW2 4554   0.333   2.325   2.200 -0.6476 -0.7032 -1.6229
 1519SOL     OW 4555   2.332   0.746   1.926 -0.9263 -0.7015 -1.1608
 1519SOL    HW1 4556   2.339   0.666   1.978 -2.6053 -0.7248 -0.8840
 1519SOL    HW2 4557   2.277   0.804   1.980  2.0558  1.5718 -0.2931
 1520SOL     OW 4558   2.008   3.112   1.407 -0.2002 -0.7150 -0.1852
 1520SOL    HW1 4559   1.955   3.182   1.447  0.6560 -0.1526 -0.0229
 1520SOL    HW2 4560   1.972   3.032   1.443 -1.9947 -0.4668 -1.2811
 1521SOL     OW 4561   2.744   3.593   2.915  0.5097  0.2770  0.0537
 1521SOL    HW1 4562   2.799   3.628   2.845  1.7555 -0.8966  0.3926
 1521SOL    HW2 4563   2.708   3.670   2.958  1.0963  1.0612 -0.8189
 1522SOL     OW 4564   2.026   3.479   3.662  0.3946  0.2224 -0.3684
 1522SOL    HW1 4565   1.958   3.420   3.631 -2.1230  2.4358  0.5695
 1522SOL    HW2 4566   1.990   3.519   3.741  3.4048  0.4885  1.0158
 1523SOL     OW 4567   1.147   0.593   1.765 -0.4428  0.2967 -0.0006
 1523SOL    HW1 4568   1.194   0.577   1.683 -0.4309 -1.1064  0.2661
 1523SOL    HW2 4569   1.214   0.587   1.833 -0.5078  1.1612  0.1569
 1524SOL     OW 4570   2.381   3.952   3.682 -0.7971 -0.3060  0.0461
 1524SOL    HW1 4571   2.330   3.888   3.633  0.7848 -0.3932 -1.6023
 1524SOL    HW2 4572   2.463   3.907   3.703 -0.5250  0.4899  0.7528
 1525SOL     OW 4573   2.665   1.475   3.080  0.2470  0.0096 -0.3867
 1525SOL    HW1 4574   2.743   1.426   3.104 -0.6821 -1.2419  0.1982
 1525SOL    HW2 4575   2.656   1.462   2.985  0.7593  0.1799 -0.4584
 1526SOL     OW 4576   1.621   1.264   0.763  0.0125 -0.3545 -0.9400
 1526SOL    HW1 4577   1.659   1.191   0.714  1.8721  0.9436 -1.5142
 1526SOL    HW2 4578   1.658   1.256   0.850  0.4133  0.0296 -1.0720
 1527SOL     OW 4579   3.613   1.765   0.920  0.0203  0.0517  0.4610
 1527SOL    HW1 4580   3.541   1.724   0.968 -0.0047 -0.6450 -0.1423
 1527SOL    HW2 4581   3.691   1.723   0.955  0.0270 -0.1919  0.1631
 1528SOL     OW 4582   3.375   0.838   2.516 -0.6008 -0.4065  0.4593
 1528SOL    HW1 4583   3.351   0.882   2.598 -3.8684  0.9561 -1.0297
 1528SOL    HW2 4584   3.408   0.753   2.542  0.7594  0.8543  3.2501
 1529SOL     OW 4585   2.114   2.789   0.611 -0.1190 -0.4689  0.0969
 1529SOL    HW1 4586   2.097   2.778   0.517 -0.8032 -1.6453  0.3436
 1529SOL    HW2 4587   2.156   2.707   0.637  0.5149  0.0442  0.7377
 1530SOL     OW 4588   1.295   2.463   0.859 -0.3508  0.0126 -0.6794
 1530SOL    HW1 4589   1.227   2.514   0.903  0.4528  0.6111 -0.1137
 1530SOL    HW2 4590   1.373   2.477   0.912  0.8953  1.4897 -2.7768
 1531SOL     OW 4591   1.295   3.239   1.772 -0.1365  0.2600 -0.5372
 1531SOL    HW1 4592   1.352   3.272   1.703  0.0090 -1.1784 -1.1361
 1531SOL    HW2 4593   1.253   3.318   1.808  0.6451  1.1377 -1.4797
 1532SOL     OW 4594   2.226   2.127   3.156  0.5998  0.2963  0.3233
 1532SOL    HW1 4595   2.298   2.108   3.216 -0.3265 -0.5922  1.1959
 1532SOL    HW2 4596   2.261   2.106   3.069  1.1567 -0.8739  0.8099
 1533SOL     OW 4597   3.182   2.567   0.317  0.7708  0.1564  0.0471
 1533SOL    HW1 4598   3.243   2.607   0.255  1.9999 -0.8710  0.5587
 1533SOL    HW2 4599   3.210   2.600   0.403  2.9586 -3.0109  0.7035
 1534SOL     OW 4600   1.885   3.864   0.163  0.9356  0.5957  0.8183
 1534SOL    HW1 4601   1.805   3.915   0.176  0.8121  0.5193  0.3809
 1534SOL    HW2 4602   1.882   3.838   0.071  0.2434 -1.4869  1.3794
 1535SOL     OW 4603   1.213   0.305   0.559  0.6793  0.5097  0.7385
 1535SOL    HW1 4604   1.244   0.390   0.592  0.0618  0.4306  1.5432
 1535SOL    HW2 4605   1.124   0.297   0.593 -0.3437  0.8067 -1.6533
 1536SOL     OW 4606   3.333   0.740   3.635  0.4609  0.2587  0.4744
 1536SOL    HW1 4607   3.334   0.707   3.725  0.4101 -2.7958 -0.5391
 1536SOL    HW2 4608   3.294   0.670   3.584  0.7068  1.7997 -2.0057
 1537SOL     OW 4609   3.810   2.229   3.620  0.1856  0.3571  1.2537
 1537SOL    HW1 4610   3.742   2.181   3.573  0.6283  1.0737 -0.1799
 1537SOL    HW2 4611   3.891   2.184   3.597  0.7277  2.2204 -0.8701
 1538SOL     OW 4612   2.561   2.237   2.218 -0.4672  0.4876  0.2119
 1538SOL    HW1 4613   2.558   2.244   2.314  1.4079 -2.4798  0.6052
 1538SOL    HW2 4614   2.633   2.294   2.192  2.8604 -2.8166  1.3401
 1539SOL     OW 4615   0.970   1.472   0.384  0.3728 -0.0724 -0.4429
 1539SOL    HW1 4616   0.918   1.553   0.390  0.3060 -0.0021 -1.6613
 1539SOL    HW2 4617   0.905   1.402   0.382  0.3922 -0.0945 -0.2767
 1540SOL     OW 4618   0.107   2.470   2.036 -0.1265 -0.6495 -0.0474
 1540SOL    HW1 4619   0.055   2.419   1.974 -2.1982  0.8775  0.3362
 1540SOL    HW2 4620   0.152   2.534   1.982  1.1250 -1.7268 -0.3374
 1541SOL     OW 4621   1.182   2.580   2.507 -1.5789  0.3105  0.2458
 1541SOL    HW1 4622   1.107   2.546   2.457 -1.4515 -0.7172  0.7262
 1541SOL    HW2 4623   1.211   2.506   2.560 -0.6717  0.9096  0.6125
 1542SOL     OW 4624   2.018   1.942   2.482 -0.2379  0.0902 -1.0941
 1542SOL    HW1 4625   2.011   1.935   2.387 -0.8705 -0.2684 -1.0285
 1542SOL    HW2 4626   1.933   1.978   2.509  0.8474  2.7625 -0.8865
 1543SOL     OW 4627   1.124   2.634   0.209 -0.4365 -0.3379  0.2995
 1543SOL    HW1 4628   1.176   2.610   0.132 -1.3938 -0.8662 -0.1921
 1543SOL    HW2 4629   1.093   2.551   0.244  0.9336 -0.2123  1.9743
 1544SOL     OW 4630   3.760   0.972   3.859 -0.4223  0.1149  0.0459
 1544SOL    HW1 4631   3.795   0.985   3.771 -1.7416  0.4070 -0.4562
 1544SOL    HW2 4632   3.759   0.877   3.870  2.2742  0.0976  0.8348
 1545SOL     OW 4633   2.306   2.230   1.803 -0.1231  0.3457  0.4255
 1545SOL    HW1 4634   2.248   2.303   1.783 -0.6507 -0.3565 -0.6858
 1545SOL    HW2 4635   2.252   2.152   1.795  0.8330 -0.2927 -0.0668
 1546SOL     OW 4636   1.681   1.416   3.213 -0.4763 -0.0834  0.2238
 1546SOL    HW1 4637   1.722   1.371   3.287  0.9536  0.9327  0.0653
 1546SOL    HW2 4638   1.596   1.372   3.204 -0.1015 -1.1675  1.5608
 1547SOL     OW 4639   0.314   2.150   0.685 -0.9628 -0.3034 -0.3748
 1547SOL    HW1 4640   0.249   2.201   0.637 -0.5615  0.0793 -0.5188
 1547SOL    HW2 4641   0.310   2.063   0.646 -0.2845  0.1344 -1.4611
 1548SOL     OW 4642   1.847   3.792   1.384 -0.7310 -0.3781 -0.4307
 1548SOL    HW1 4643   1.847   3.703   1.419  0.1108 -0.2916 -0.1936
 1548SOL    HW2 4644   1.906   3.788   1.309 -1.0347 -0.1168 -0.6882
 1549SOL     OW 4645   0.493   0.317   1.324  1.5969 -0.4833  0.0915
 1549SOL    HW1 4646   0.441   0.378   1.376  0.9507 -0.9332 -0.0091
 1549SOL    HW2 4647   0.583   0.350   1.330  1.6519 -0.8809  2.0093
 1550SOL     OW 4648   0.687   2.861   1.294 -0.2481  0.1299 -0.0780
 1550SOL    HW1 4649   0.735   2.792   1.340  1.3092  0.3055 -1.3689
 1550SOL    HW2 4650   0.737   2.941   1.311 -1.1382  0.6705  0.0760
 1551SOL     OW 4651   2.584   3.302   3.453 -0.5978 -0.1909 -0.2470
 1551SOL    HW1 4652   2.596   3.226   3.510  0.9188  0.0915 -0.1537
 1551SOL    HW2 4653   2.522   3.272   3.386 -0.5979 -1.2680  0.2148
 1552SOL     OW 4654   1.326   2.986   3.060 -0.3557 -1.0966  0.3204
 1552SOL    HW1 4655   1.236   2.990   3.029  0.0901 -0.8047 -1.0669
 1552SOL    HW2 4656   1.357   3.077   3.053 -0.3795 -0.9113  2.2201
 1553SOL     OW 4657   3.651   1.861   1.716  0.9025  0.3413  0.4836
 1553SOL    HW1 4658   3.583   1.819   1.768 -0.2671 -0.3720 -1.4949
 1553SOL    HW2 4659   3.604   1.896   1.639  2.8843 -1.2972 -1.6195
 1554SOL     OW 4660   3.697   1.174   1.361 -0.1945  0.0518  0.0695
 1554SOL    HW1 4661   3.718   1.083   1.339  0.5035  0.3167 -0.3697
 1554SOL    HW2 4662   3.774   1.205   1.409  0.5374  1.0782 -1.6721
 1555SOL     OW 4663   3.988   0.773   3.784  0.2624  0.8400 -0.5932
 1555SOL    HW1 4664   4.047   0.834   3.740 -0.3919  0.8016 -1.5356
 1555SOL    HW2 4665   3.952   0.719   3.714 -1.9805  1.7837 -0.2536
 1556SOL     OW 4666   1.179   1.284   0.370 -0.2284  0.3360 -0.0209
 1556SOL    HW1 4667   1.256   1.314   0.419 -0.5243  1.3868 -0.1777
 1556SOL    HW2 4668   1.125   1.362   0.361 -0.7800 -0.1421 -0.9119
 1557SOL     OW 4669   0.916   2.531   1.172  0.2759  0.0215  0.6920
 1557SOL    HW1 4670   0.833   2.503   1.212 -0.2364 -0.1089 -0.4418
 1557SOL    HW2 4671   0.938   2.613   1.218 -1.0682  0.6655  0.2339
 1558SOL     OW 4672   0.986   1.320   2.658 -0.0637  0.5997  0.1927
 1558SOL    HW1 4673   0.951   1.232   2.673  0.7502  0.4279  1.2616
 1558SOL    HW2 4674   0.935   1.376   2.716  0.5098  0.5509  0.7669
 1559SOL     OW 4675   0.965   2.610   0.887  0.0532  0.1578  0.6911
 1559SOL    HW1 4676   0.932   2.660   0.962  0.2033  1.4856 -0.1009
 1559SOL    HW2 4677   0.939   2.520   0.906 -1.1412  0.6714  1.6773
 1560SOL     OW 4678   0.961   1.667   0.803  0.5649  0.3256  0.0706
 1560SOL    HW1 4679   1.003   1.634   0.724 -1.3549 -1.0834 -0.4202
 1560SOL    HW2 4680   0.926   1.753   0.778 -0.2961 -0.2404 -0.7396
 1561SOL     OW 4681   1.759   3.664   3.571  0.2985 -0.1501 -0.6629
 1561SOL    HW1 4682   1.813   3.659   3.650 -0.6791 -1.6098 -0.0373
 1561SOL    HW2 4683   1.764   3.576   3.533 -1.5184 -0.3109 -0.6352
 1562SOL     OW 4684   2.130   0.192   3.691  0.5904  0.1429  0.9024
 1562SOL    HW1 4685   2.123   0.129   3.763 -0.9140 -0.2656  0.4450
 1562SOL    HW2 4686   2.180   0.146   3.624  1.3223  0.2338  1.3837
 1563SOL     OW 4687   3.868   2.949   1.641 -0.3271 -0.2164 -0.3673
 1563SOL    HW1 4688   3.919   3.023   1.674  0.9883 -0.0855 -2.4436
 1563SOL    HW2 4689   3.797   2.938   1.704  0.8980  1.1685  1.3591
 1564SOL     OW 4690   1.590   3.299   1.640 -0.1139  0.5837 -0.0505
 1564SOL    HW1 4691   1.680   3.328   1.627  0.5015 -1.0488  0.2900
 1564SOL    HW2 4692   1.594   3.243   1.717 -1.4484  0.5674  0.0302
 1565SOL     OW 4693   1.926   0.177   2.573 -0.7800  0.0512 -0.0440
 1565SOL    HW1 4694   2.020   0.183   2.589 -0.7827 -1.4997  0.7471
 1565SOL    HW2 4695   1.886   0.224   2.646 -0.6496 -1.9122  1.3710
 1566SOL     OW 4696   0.637   2.524   2.029  0.2552 -0.1798 -0.7933
 1566SOL    HW1 4697   0.715   2.484   2.067 -1.2357 -2.0155  0.5257
 1566SOL    HW2 4698   0.569   2.457   2.036 -1.0712  0.7343 -3.4336
 1567SOL     OW 4699   2.859   2.084   2.751 -0.1573 -0.2828  0.1253
 1567SOL    HW1 4700   2.904   2.163   2.719 -1.8312  0.1511 -1.3280
 1567SOL    HW2 4701   2.804   2.116   2.823  0.3175 -0.4271  0.5556
 1568SOL     OW 4702   0.102   1.364   2.757 -0.3322 -0.9670 -0.0127
 1568SOL    HW1 4703   0.194   1.388   2.762 -0.4490 -0.3622 -0.6339
 1568SOL    HW2 4704   0.086   1.347   2.665 -0.5232 -2.4132  0.2723
 1569SOL     OW 4705   2.890   1.091   3.049 -0.3485 -0.1022  0.2901
 1569SOL    HW1 4706   2.889   1.185   3.067  1.5537 -0.0789  0.4360
 1569SOL    HW2 4707   2.845   1.052   3.124 -0.9144  0.6648  0.3598
 1570SOL     OW 4708   3.110   0.783   3.445  0.6378  0.9686 -0.2788
 1570SOL    HW1 4709   3.164   0.714   3.408  1.3830  0.9276  0.8352
 1570SOL    HW2 4710   3.048   0.805   3.375  0.0392 -1.1564 -0.4984
 1571SOL     OW 4711   0.517   0.874   3.771  0.1489 -0.6575  0.0795
 1571SOL    HW1 4712   0.424   0.857   3.763 -0.2508  0.9268  1.0185
 1571SOL    HW2 4713   0.539   0.847   3.860  0.3651 -0.0820  0.2060
 1572SOL     OW 4714   2.390   0.454   2.334 -0.2821 -0.6312 -0.3148
 1572SOL    HW1 4715   2.394   0.439   2.429  0.3659  0.2556 -0.1881
 1572SOL    HW2 4716   2.300   0.431   2.310 -1.2589  1.4668  0.9721
 1573SOL     OW 4717   1.224   1.073   2.298 -0.1375 -0.9005 -0.3652
 1573SOL    HW1 4718   1.174   1.154   2.308  0.6317 -0.6651  2.0945
 1573SOL    HW2 4719   1.305   1.089   2.345 -0.4740 -3.5120  1.2749
 1574SOL     OW 4720   1.473   2.828   1.058  0.3549  0.8403  0.1125
 1574SOL    HW1 4721   1.473   2.924   1.055 -0.7748  0.8818  0.7394
 1574SOL    HW2 4722   1.464   2.807   1.151 -2.1440  0.1899 -0.2106
 1575SOL     OW 4723   1.502   4.023   1.935  0.2718 -0.0045  0.6631
 1575SOL    HW1 4724   1.434   3.993   1.874  2.0081 -0.5690 -1.0713
 1575SOL    HW2 4725   1.544   3.942   1.966  1.0754  0.3860  0.6106
 1576SOL     OW 4726   0.603   0.563   3.541  0.0745 -0.5039  0.0314
 1576SOL    HW1 4727   0.696   0.585   3.540 -0.0677  0.1114 -0.5812
 1576SOL    HW2 4728   0.570   0.600   3.623 -0.0346  1.0822 -0.6972
 1577SOL     OW 4729   1.705   3.809   1.987  0.1008  0.0401 -0.5839
 1577SOL    HW1 4730   1.662   3.729   1.956 -0.3478  0.3954 -0.8967
 1577SOL    HW2 4731   1.784   3.779   2.031 -1.7198 -0.9096  2.3720
 1578SOL     OW 4732   1.552   2.026   0.853  0.1595  0.0415 -0.8077
 1578SOL    HW1 4733   1.546   1.967   0.778  1.0090 -3.6989  1.7696
 1578SOL    HW2 4734   1.461   2.036   0.883  0.1483 -1.8048 -0.0902
 1579SOL     OW 4735   0.542   0.185   3.948 -0.1579 -0.4056  0.2193
 1579SOL    HW1 4736   0.487   0.211   4.022 -0.5317  0.6309 -0.3925
 1579SOL    HW2 4737   0.517   0.094   3.930 -0.5686 -0.4370  0.9179
 1580SOL     OW 4738   0.167   2.829   3.696  0.2573 -1.2158  0.8186
 1580SOL    HW1 4739   0.201   2.771   3.629  0.6864 -0.4806  0.3789
 1580SOL    HW2 4740   0.224   2.906   3.692  2.2960 -2.3709  4.1212
 1581SOL     OW 4741   0.952   3.972   1.460 -0.0976  0.7673 -0.0516
 1581SOL    HW1 4742   1.021   3.982   1.394 -0.3894  0.0396 -0.4753
 1581SOL    HW2 4743   0.988   3.910   1.524  0.6800  2.3959  1.1771
 1582SOL     OW 4744   1.253   0.904   3.244  0.5165 -0.0067  0.2460
 1582SOL    HW1 4745   1.284   0.885   3.332 -0.9268 -2.9412  0.2365
 1582SOL    HW2 4746   1.332   0.924   3.194  1.6499 -0.8402  1.6446
 1583SOL     OW 4747   2.477   0.885   1.444  0.4189 -0.3489  0.2522
 1583SOL    HW1 4748   2.545   0.951   1.458 -0.7701  1.3397 -1.4859
 1583SOL    HW2 4749   2.411   0.905   1.511  1.4795 -1.8996  1.8469
 1584SOL     OW 4750   3.644   3.572   0.802  0.3029 -0.1531 -0.5601
 1584SOL    HW1 4751   3.694   3.540   0.877 -2.1129  1.7684  2.0536
 1584SOL    HW2 4752   3.556   3.537   0.814 -0.0764 -0.1913 -2.8462
 1585SOL     OW 4753   2.850   3.526   1.328 -0.3657  0.6975 -0.0496
 1585SOL    HW1 4754   2.889   3.439   1.319 -0.5187  0.7815 -1.7895
 1585SOL    HW2 4755   2.810   3.525   1.416  1.8590 -0.0361  1.0139
 1586SOL     OW 4756   0.624   1.707   0.523  0.7197 -0.0590  0.3023
 1586SOL    HW1 4757   0.702   1.652   0.512  0.1803 -0.3343 -3.2577
 1586SOL    HW2 4758   0.616   1.717   0.618  4.0818 -1.4025  0.8972
 1587SOL     OW 4759   0.771   0.982   2.266 -0.3561  0.1741  0.8268
 1587SOL    HW1 4760   0.739   0.913   2.208  0.0168  0.9365 -0.3176
 1587SOL    HW2 4761   0.705   1.051   2.260  0.8085  1.2422 -0.5922
 1588SOL     OW 4762   2.738   3.093   2.546  0.7629  0.4684 -0.5184
 1588SOL    HW1 4763   2.709   3.096   2.455  0.3762 -0.3539 -0.4322
 1588SOL    HW2 4764   2.720   3.181   2.580 -0.7236  0.2874 -0.7601
 1589SOL     OW 4765   1.568   3.578   3.814  0.1254  0.3879 -0.0507
 1589SOL    HW1 4766   1.487   3.628   3.807 -0.5523 -0.6308  0.2243
 1589SOL    HW2 4767   1.594   3.560   3.724  0.2591  1.0338 -0.1464
 1590SOL     OW 4768   3.323   2.408   0.528 -0.6821  0.0643  0.7006
 1590SOL    HW1 4769   3.399   2.400   0.470 -1.1236 -0.5248  0.2030
 1590SOL    HW2 4770   3.262   2.463   0.480 -0.9255 -0.1779  0.7343
 1591SOL     OW 4771   0.342   1.834   2.752  0.4682  0.0812  0.6285
 1591SOL    HW1 4772   0.413   1.810   2.810  0.8110 -1.8551 -0.5215
 1591SOL    HW2 4773   0.324   1.756   2.700 -0.0982  1.5531 -1.5878
 1592SOL     OW 4774   3.408   2.058   3.815  0.0639 -0.3337  0.7443
 1592SOL    HW1 4775   3.434   2.013   3.896 -0.0192  0.4466  1.2201
 1592SOL    HW2 4776   3.429   2.150   3.832 -0.8158 -0.0273  0.2335
 1593SOL     OW 4777   3.903   3.530   1.448  0.4448 -0.0747 -0.2001
 1593SOL    HW1 4778   3.967   3.530   1.376 -0.6773  2.2314 -1.2904
 1593SOL    HW2 4779   3.957   3.517   1.526  1.9188 -0.8660 -1.2792
 1594SOL     OW 4780   1.520   1.557   2.319 -0.4235 -0.6303  0.1551
 1594SOL    HW1 4781   1.597   1.513   2.285 -0.4839 -0.4183 -0.2603
 1594SOL    HW2 4782   1.461   1.486   2.345 -1.6141 -0.9016 -2.8992
 1595SOL     OW 4783   3.586   1.284   1.740  0.1001  0.4475  0.0851
 1595SOL    HW1 4784   3.538   1.364   1.718 -1.3254 -0.1827  0.7356
 1595SOL    HW2 4785   3.544   1.252   1.820  0.2006 -1.2779 -0.5031
 1596SOL     OW 4786   1.625   1.072   2.024 -0.4165 -0.3126  0.2515
 1596SOL    HW1 4787   1.602   1.115   2.106 -1.8794 -0.9202  0.1854
 1596SOL    HW2 4788   1.616   0.979   2.041 -2.0070 -0.4171 -0.9131
 1597SOL     OW 4789   0.473   2.139   1.041  0.0627 -0.2758 -0.2250
 1597SOL    HW1 4790   0.560   2.127   1.004  0.0712 -0.5210 -0.1312
 1597SOL    HW2 4791   0.439   2.050   1.050 -0.9894 -0.1118 -2.1680
 1598SOL     OW 4792   1.126   1.623   2.536 -0.1531 -0.0891 -0.3776
 1598SOL    HW1 4793   1.151   1.711   2.507 -0.7219 -0.3607 -1.7890
 1598SOL    HW2 4794   1.034   1.631   2.559 -0.2381 -0.3384 -0.6267
 1599SOL     OW 4795   2.461   0.276   0.215  0.6687  0.5031 -0.3001
 1599SOL    HW1 4796   2.549   0.289   0.180  1.2445  1.9024  1.5129
 1599SOL    HW2 4797   2.416   0.359   0.200  0.4574  0.6273  0.8878
 1600SOL     OW 4798   3.941   2.455   0.429  0.8495 -0.2295  0.1016
 1600SOL    HW1 4799   3.884   2.413   0.364 -1.6685  2.9709  0.0131
 1600SOL    HW2 4800   3.961   2.541   0.391  2.2359  0.3803  2.0699
 1601SOL     OW 4801   0.335   3.443   3.597  0.3188  0.1409 -0.2662
 1601SOL    HW1 4802   0.321   3.505   3.669  0.7833 -1.5295  1.3519
 1601SOL    HW2 4803   0.411   3.478   3.550 -0.7379  1.9208 -0.7514
 1602SOL     OW 4804   0.571   2.781   3.632 -0.2453  0.7893 -0.0054
 1602SOL    HW1 4805   0.581   2.731   3.712  0.9428  0.7378 -0.1732
 1602SOL    HW2 4806   0.529   2.863   3.659 -0.3450  0.5438  0.5791
 1603SOL     OW 4807   3.041   0.910   3.203  0.6100 -0.2553 -0.0840
 1603SOL    HW1 4808   3.085   0.860   3.134 -0.8100  1.0101 -2.0013
 1603SOL    HW2 4809   2.978   0.965   3.157 -2.3049 -1.2351  2.4295
 1604SOL     OW 4810   1.257   1.081   0.825 -0.0337  0.0551  0.0926
 1604SOL    HW1 4811   1.190   1.056   0.887  0.1010  1.1985  0.7230
 1604SOL    HW2 4812   1.340   1.056   0.867  0.0604  0.8857  0.4113
 1605SOL     OW 4813   3.493   2.832   1.453  0.0464 -0.1277  0.0976
 1605SOL    HW1 4814   3.453   2.756   1.496 -0.3622 -0.9459 -1.6575
 1605SOL    HW2 4815   3.587   2.819   1.463  0.0068 -1.3603 -0.9755
 1606SOL     OW 4816   3.515   0.688   1.272  0.3689 -0.0151 -0.4923
 1606SOL    HW1 4817   3.516   0.592   1.270 -0.2718 -0.0220 -0.5998
 1606SOL    HW2 4818   3.435   0.712   1.225 -0.4568  0.5245  1.1298
 1607SOL     OW 4819   0.870   2.585   0.332 -0.5764 -0.3051 -0.0207
 1607SOL    HW1 4820   0.809   2.605   0.261 -0.0571 -1.0406 -0.6890
 1607SOL    HW2 4821   0.821   2.604   0.412 -1.0622  0.8441 -0.5682
 1608SOL     OW 4822   2.896   1.777   0.133  0.6403  0.1723  0.0144
 1608SOL    HW1 4823   2.894   1.709   0.066 -1.7773  1.4369 -1.3073
 1608SOL    HW2 4824   2.913   1.858   0.085  1.5683  0.7853  1.3148
 1609SOL     OW 4825   2.272   0.756   0.807  1.2333 -0.2272  0.0454
 1609SOL    HW1 4826   2.226   0.740   0.889 -1.0988 -2.0053 -1.4670
 1609SOL    HW2 4827   2.350   0.700   0.813  0.4420 -1.3238  0.5900
 1610SOL     OW 4828   2.297   0.637   2.767 -0.6552  0.6408 -0.8393
 1610SOL    HW1 4829   2.349   0.557   2.765 -1.3921  0.1316 -0.1688
 1610SOL    HW2 4830   2.346   0.696   2.825 -3.0345 -1.5075  3.8857
 1611SOL     OW 4831   3.562   2.498   2.529  0.3784  0.0416 -0.0910
 1611SOL    HW1 4832   3.528   2.587   2.534  4.6816  1.9922 -0.6359
 1611SOL    HW2 4833   3.636   2.504   2.468  0.5609 -4.0763 -0.5822
 1612SOL     OW 4834   3.563   3.605   1.914  0.8263 -0.7199  0.5786
 1612SOL    HW1 4835   3.605   3.566   1.837 -0.1287 -1.0490  0.2015
 1612SOL    HW2 4836   3.570   3.699   1.901  0.6572 -0.7743  0.0662
 1613SOL     OW 4837   0.217   3.842   3.355  0.3253 -0.3649  0.2985
 1613SOL    HW1 4838   0.139   3.889   3.383  1.1792  1.1986  0.1743
 1613SOL    HW2 4839   0.184   3.768   3.304 -1.0675  1.8782 -2.3021
 1614SOL     OW 4840   1.891   0.074   2.342  0.1169 -0.2795  1.1458
 1614SOL    HW1 4841   1.895   0.099   2.435  0.4387  0.8162  0.8576
 1614SOL    HW2 4842   1.975   0.102   2.306 -0.6394  0.8700  0.1754
 1615SOL     OW 4843   2.426   1.945   1.756 -0.0920 -1.0400 -0.6781
 1615SOL    HW1 4844   2.406   1.852   1.761 -0.5600 -0.8823  0.9249
 1615SOL    HW2 4845   2.413   1.977   1.846  1.5466  0.2649 -0.8719
 1616SOL     OW 4846   3.853   1.204   0.530 -0.2678  0.4745 -0.4611
 1616SOL    HW1 4847   3.891   1.258   0.599 -0.2714  0.4926 -0.4733
 1616SOL    HW2 4848   3.784   1.258   0.492 -0.8157  0.1593  0.0631
 1617SOL     OW 4849   1.741   2.813   0.358  0.4805  0.1877  0.4252
 1617SOL    HW1 4850   1.833   2.815   0.385  0.6549  0.9055 -0.1749
 1617SOL    HW2 4851   1.704   2.738   0.404  0.7363  1.3511  2.6912
 1618SOL     OW 4852   2.926   3.383   3.054 -0.6261  0.9023  0.0930
 1618SOL    HW1 4853   2.867   3.447   3.015 -1.8123  0.2526  0.7767
 1618SOL    HW2 4854   2.869   3.312   3.083  0.2519  1.0823  2.4664
 1619SOL     OW 4855   3.301  -0.013   0.925 -0.1597  0.0907 -0.5381
 1619SOL    HW1 4856   3.329   0.076   0.948 -1.9948  0.8064 -0.9338
 1619SOL    HW2 4857   3.356  -0.036   0.850  1.0612  0.4423  0.2055
 1620SOL     OW 4858   3.262   0.819   2.033  0.7483 -0.5061 -0.3517
 1620SOL    HW1 4859   3.313   0.892   1.997  0.2503  0.2983  0.5180
 1620SOL    HW2 4860   3.295   0.809   2.122 -0.0865 -0.4764 -0.0333
 1621SOL     OW 4861   3.842   0.468   0.703 -0.4159  0.0193 -0.0281
 1621SOL    HW1 4862   3.837   0.415   0.623 -2.9374  0.4145 -0.2204
 1621SOL    HW2 4863   3.792   0.419   0.768  1.2211 -0.0719  1.2433
 1622SOL     OW 4864   2.056   2.679   0.340  0.5492 -0.8058  0.5040
 1622SOL    HW1 4865   2.112   2.661   0.264 -1.9738 -1.4260 -1.3425
 1622SOL    HW2 4866   2.010   2.597   0.355 -0.8489  0.0564  1.0885
 1623SOL     OW 4867   0.522   1.204   1.874 -0.2144 -0.1627  0.5890
 1623SOL    HW1 4868   0.434   1.219   1.839  0.8213  1.9960 -1.4383
 1623SOL    HW2 4869   0.568   1.158   1.804  0.0749 -2.1579  2.0124
 1624SOL     OW 4870   3.190   1.526   1.800 -0.4131 -1.0640  1.4575
 1624SOL    HW1 4871   3.190   1.590   1.728  1.3055 -1.5952  0.9419
 1624SOL    HW2 4872   3.158   1.445   1.760  2.3148 -1.8699  0.7304
 1625SOL     OW 4873   2.200   3.645   0.961 -0.4735 -0.3250 -0.3864
 1625SOL    HW1 4874   2.164   3.583   1.025  0.6278  0.4155  1.0043
 1625SOL    HW2 4875   2.295   3.633   0.967 -0.1354  2.4686  0.9929
 1626SOL     OW 4876   3.234   3.074   0.404  0.4263  0.0999  0.4195
 1626SOL    HW1 4877   3.300   3.049   0.339 -0.4884 -1.2033 -0.0751
 1626SOL    HW2 4878   3.151   3.063   0.358 -0.1800  0.9272  1.2728
 1627SOL     OW 4879   1.410   3.549   3.184 -0.2876  0.3759  0.8148
 1627SOL    HW1 4880   1.482   3.531   3.123  0.8293  3.6781  0.9203
 1627SOL    HW2 4881   1.332   3.548   3.129  0.2126 -0.4173  0.0966
 1628SOL     OW 4882   2.359   0.447   0.889 -0.3845 -0.1151 -0.1496
 1628SOL    HW1 4883   2.293   0.429   0.821 -1.3433 -1.2098  1.0247
 1628SOL    HW2 4884   2.308   0.452   0.970  0.7628  1.0256  0.5358
 1629SOL     OW 4885   3.956   3.024   0.143  0.6736  0.6848 -0.2930
 1629SOL    HW1 4886   3.904   3.078   0.084  2.1986 -0.7801 -3.2106
 1629SOL    HW2 4887   3.901   2.947   0.160  0.0265  1.3451  0.6750
 1630SOL     OW 4888   0.799   1.164   0.878  0.0597  0.6735  0.7735
 1630SOL    HW1 4889   0.870   1.228   0.874 -1.0162  1.9553  1.3460
 1630SOL    HW2 4890   0.722   1.211   0.846 -0.6949 -0.4502  0.8742
 1631SOL     OW 4891   1.199   3.208   2.833 -0.4876 -0.1330  0.0595
 1631SOL    HW1 4892   1.165   3.124   2.864  1.1471 -1.2631 -1.0748
 1631SOL    HW2 4893   1.202   3.199   2.738 -2.1158  1.9768 -0.2697
 1632SOL     OW 4894   3.195   3.160   3.779 -0.1823 -0.2291  0.0236
 1632SOL    HW1 4895   3.151   3.129   3.858 -0.2828  2.1637  0.9715
 1632SOL    HW2 4896   3.131   3.148   3.709 -2.0467  2.1969  1.1922
 1633SOL     OW 4897   2.647   3.930   3.416 -0.4817 -0.0106 -0.7134
 1633SOL    HW1 4898   2.695   3.921   3.499 -1.5453  0.0741 -0.0681
 1633SOL    HW2 4899   2.679   3.859   3.361  0.7942  0.3885 -0.5165
 1634SOL     OW 4900   2.059   3.933   3.413  0.1922  0.5813 -0.4585
 1634SOL    HW1 4901   2.003   3.974   3.479 -0.4364  0.8212 -1.1292
 1634SOL    HW2 4902   2.125   3.886   3.463 -0.4586  0.5093  0.3450
 1635SOL     OW 4903   0.395   1.212   2.323 -0.7618 -0.2247  0.3169
 1635SOL    HW1 4904   0.307   1.210   2.287  0.0416  1.8933 -2.0564
 1635SOL    HW2 4905   0.446   1.157   2.264 -0.8736 -4.0790  3.4196
 1636SOL     OW 4906   3.994   3.265   3.922  0.0492  0.7279  0.4430
 1636SOL    HW1 4907   3.944   3.228   3.850  0.1174 -0.3841  0.9490
 1636SOL    HW2 4908   3.992   3.359   3.907 -0.7573  0.5758 -0.4660
 1637SOL     OW 4909   1.471   0.231   3.073  0.8667  0.1262  0.0527
 1637SOL    HW1 4910   1.376   0.238   3.086  0.8941  0.5408  0.0403
 1637SOL    HW2 4911   1.490   0.138   3.085 -0.1543 -0.7949 -3.9583
 1638SOL     OW 4912   0.714   2.405   3.023  0.8350  0.5016 -0.4104
 1638SOL    HW1 4913   0.641   2.405   2.960  1.1897  1.9194 -0.8621
 1638SOL    HW2 4914   0.673   2.384   3.107 -0.3465  2.4264 -0.4418
 1639SOL     OW 4915   1.246   1.455   2.742  0.1962  0.1161  0.1524
 1639SOL    HW1 4916   1.157   1.470   2.776 -0.0028  0.6942 -0.6062
 1639SOL    HW2 4917   1.240   1.478   2.649  0.7333 -1.4069 -0.2915
 1640SOL     OW 4918   3.524   0.452   3.779 -0.4383 -0.2555 -0.5424
 1640SOL    HW1 4919   3.457   0.497   3.831  0.0601 -0.6788  0.4853
 1640SOL    HW2 4920   3.487   0.449   3.690 -0.3675  2.4591 -0.7450
 1641SOL     OW 4921   1.580   1.996   3.532  0.0485  0.8181  0.0240
 1641SOL    HW1 4922   1.561   1.929   3.598  0.8406  0.6259  0.0591
 1641SOL    HW2 4923   1.539   1.963   3.452  2.9353 -1.2261 -0.7432
 1642SOL     OW 4924   3.881   2.701   1.897  0.4340 -0.1582 -0.4507
 1642SOL    HW1 4925   3.977   2.709   1.891  0.3680 -0.0196 -1.4840
 1642SOL    HW2 4926   3.866   2.608   1.914  0.7952  0.0306  0.9739
 1643SOL     OW 4927   1.539   2.358   3.004  0.1405  0.1963  0.2960
 1643SOL    HW1 4928   1.625   2.377   3.041 -0.5686  0.8805  1.6550
 1643SOL    HW2 4929   1.482   2.429   3.036 -1.4757 -1.5097  1.4540
 1644SOL     OW 4930   3.423   3.276   1.828 -0.8666  0.3061  0.1173
 1644SOL    HW1 4931   3.370   3.314   1.898 -0.0451  1.7877 -0.0403
 1644SOL    HW2 4932   3.514   3.296   1.853 -0.4793 -0.4038 -0.6596
 1645SOL     OW 4933   1.882   3.485   3.338 -0.2888  0.3299 -0.6549
 1645SOL    HW1 4934   1.898   3.436   3.257 -0.3853 -0.6557 -0.0912
 1645SOL    HW2 4935   1.946   3.556   3.336  1.5112 -1.2125 -0.3610
 1646SOL     OW 4936   2.790   1.768   3.063  0.2041 -0.1245 -0.7888
 1646SOL    HW1 4937   2.760   1.703   3.126  3.5332  0.9492  2.1562
 1646SOL    HW2 4938   2.864   1.726   3.019 -0.9722 -0.1825 -2.8419
 1647SOL     OW 4939   3.334   0.872   2.780 -0.2474  0.0075 -1.4613
 1647SOL    HW1 4940   3.265   0.939   2.782 -0.2838 -0.0519 -0.4659
 1647SOL    HW2 4941   3.326   0.827   2.864 -0.6254 -1.6742 -2.3627
 1648SOL     OW 4942   1.688   3.035   1.089 -0.5832 -0.0981  0.0958
 1648SOL    HW1 4943   1.701   3.129   1.076  0.1481 -0.4539 -2.1181
 1648SOL    HW2 4944   1.694   3.023   1.184  0.9590  1.8522  0.3068
 1649SOL     OW 4945   1.246   3.005   1.363 -0.2456 -0.4062  0.7621
 1649SOL    HW1 4946   1.280   2.944   1.298 -0.8599  1.0728 -1.0111
 1649SOL    HW2 4947   1.324   3.044   1.403  0.2094  0.6510 -1.0461
 1650SOL     OW 4948   2.691   2.396   2.745 -0.5125  0.0430 -0.2429
 1650SOL    HW1 4949   2.771   2.441   2.773 -2.0419  1.5214  2.0897
 1650SOL    HW2 4950   2.682   2.323   2.806  0.1070 -1.4137 -1.8284
 1651SOL     OW 4951   0.720   2.447   0.660  1.3622 -0.0087 -0.4676
 1651SOL    HW1 4952   0.629   2.434   0.634 -0.2667  0.9500  3.8957
 1651SOL    HW2 4953   0.741   2.536   0.629  0.9500 -0.2879 -1.6227
 1652SOL     OW 4954   0.881   3.065   3.866 -0.2492  0.4221  0.7510
 1652SOL    HW1 4955   0.950   3.013   3.907  0.8645 -0.3614 -1.9375
 1652SOL    HW2 4956   0.808   3.004   3.853  0.2501  0.0530 -0.4330
 1653SOL     OW 4957   3.008   1.608   3.811 -0.1265  0.0544 -0.4310
 1653SOL    HW1 4958   2.936   1.596   3.749  0.1477  1.2037 -1.0031
 1653SOL    HW2 4959   3.085   1.619   3.755 -0.3071  4.4510 -0.1375
 1654SOL     OW 4960   0.593   0.487   2.597 -0.6765  0.7825 -0.0478
 1654SOL    HW1 4961   0.681   0.461   2.570 -1.1360 -0.4499 -0.4377
 1654SOL    HW2 4962   0.557   0.531   2.520 -1.5330 -1.6134 -1.1268
 1655SOL     OW 4963   3.023   3.080   3.585  0.4232  0.6133  1.2735
 1655SOL    HW1 4964   2.940   3.124   3.604  0.6481  1.6036  0.1111
 1655SOL    HW2 4965   3.029   3.080   3.490  0.6918 -1.5243  1.2496
 1656SOL     OW 4966   2.689   0.314   0.856  0.5835  0.4103 -1.2340
 1656SOL    HW1 4967   2.603   0.317   0.813 -0.4036 -0.2710  0.5664
 1656SOL    HW2 4968   2.669   0.323   0.949  2.4143 -0.4244 -0.7130
 1657SOL     OW 4969   0.998   0.783   0.239 -1.1189 -0.4409 -0.1887
 1657SOL    HW1 4970   1.073   0.770   0.298 -1.7527  2.7626  1.5745
 1657SOL    HW2 4971   0.923   0.756   0.291 -1.3915 -1.3249 -1.0358
 1658SOL     OW 4972   0.241   2.685   0.366 -0.3604  0.3362 -0.1142
 1658SOL    HW1 4973   0.328   2.723   0.355 -0.4741  1.3173  1.8964
 1658SOL    HW2 4974   0.181   2.758   0.355 -0.8221 -0.0130  0.0423
 1659SOL     OW 4975   2.181   0.419   3.189 -0.2085 -0.3671  0.2703
 1659SOL    HW1 4976   2.095   0.448   3.156  0.1179  0.0838 -0.2079
 1659SOL    HW2 4977   2.161   0.353   3.255 -1.0622  1.8406  2.3530
 1660SOL     OW 4978   0.695   3.160   1.867 -0.0147 -0.6466  0.2250
 1660SOL    HW1 4979   0.637   3.155   1.943 -0.8637 -1.4394 -0.4401
 1660SOL    HW2 4980   0.654   3.102   1.803  0.3395  0.4863 -1.0680
 1661SOL     OW 4981   2.572   2.601   3.966 -0.1238 -0.4421  0.2805
 1661SOL    HW1 4982   2.498   2.552   3.930 -0.2300  0.0512 -0.1765
 1661SOL    HW2 4983   2.648   2.566   3.919 -0.1072 -0.6852  0.4837
 1662SOL     OW 4984   1.231   3.486   2.852 -0.0582 -0.1526  0.4850
 1662SOL    HW1 4985   1.206   3.401   2.889 -0.8451 -0.1078  0.0659
 1662SOL    HW2 4986   1.174   3.549   2.896  0.7553  0.2101  1.0437
 1663SOL     OW 4987   2.302   0.414   1.354  0.3677  0.1837 -0.5991
 1663SOL    HW1 4988   2.397   0.408   1.366  0.2139  1.2921  1.8078
 1663SOL    HW2 4989   2.288   0.501   1.318  0.2099  0.6367  0.5057
 1664SOL     OW 4990   2.779   1.744   2.429  0.1019 -0.5837  0.0048
 1664SOL    HW1 4991   2.770   1.648   2.432 -1.3203 -0.5676 -1.7292
 1664SOL    HW2 4992   2.708   1.772   2.371  2.7952  1.1503 -2.7530
 1665SOL     OW 4993   2.954   2.501   3.457  0.3077 -0.2964 -0.6277
 1665SOL    HW1 4994   2.882   2.482   3.395 -0.9075  1.4043  0.1855
 1665SOL    HW2 4995   2.934   2.447   3.534 -0.6784  0.8726 -0.0316
 1666SOL     OW 4996   1.505   1.148   3.819 -0.4542 -0.1178 -0.2578
 1666SOL    HW1 4997   1.438   1.171   3.755 -0.9607 -0.4754  0.1398
 1666SOL    HW2 4998   1.554   1.229   3.833 -1.3839  0.3836  0.1395
 1667SOL     OW 4999   1.720   3.279   0.352  0.0384 -0.1218  0.2316
 1667SOL    HW1 5000   1.631   3.314   0.349  0.1974  0.5172  1.9413
 1667SOL    HW2 5001   1.722   3.212   0.284 -1.8873 -0.4669  0.4593
 1668SOL     OW 5002   1.924   3.725   3.804  0.0235  0.0867 -0.2824
 1668SOL    HW1 5003   1.984   3.690   3.870  1.4459  1.1198 -0.9898
 1668SOL    HW2 5004   1.857   3.771   3.855  1.0082  0.7182  0.4632
 1669SOL     OW 5005   2.985   0.670   3.810  0.7719  0.0895  0.2864
 1669SOL    HW1 5006   3.065   0.651   3.860  0.7071 -1.2456 -0.1100
 1669SOL    HW2 5007   2.970   0.593   3.756 -1.0509  0.1085  0.6893
 1670SOL     OW 5008   1.843   3.287   3.581  0.3297 -0.8843  0.0695
 1670SOL    HW1 5009   1.810   3.291   3.491 -2.2598 -2.2604  0.8668
 1670SOL    HW2 5010   1.881   3.200   3.590  0.3137 -0.8597  0.4067
 1671SOL     OW 5011   1.180   0.171   2.818  0.1293  0.0261  1.1607
 1671SOL    HW1 5012   1.093   0.155   2.783  0.8769 -2.9342  0.3647
 1671SOL    HW2 5013   1.179   0.263   2.844 -1.6256  1.5167 -3.3063
 1672SOL     OW 5014   0.939   2.533   2.314 -0.2102 -0.2071  0.0860
 1672SOL    HW1 5015   0.907   2.529   2.224  0.9446  2.6231 -0.5721
 1672SOL    HW2 5016   0.964   2.443   2.335  1.2007 -0.7027 -3.1131
 1673SOL     OW 5017   1.257   1.813   1.668 -0.4070  0.8034  0.9509
 1673SOL    HW1 5018   1.336   1.788   1.620 -0.7614  2.2789 -0.5119
 1673SOL    HW2 5019   1.276   1.902   1.700 -1.1576  0.8451  1.3042
 1674SOL     OW 5020   0.197   3.775   0.035  0.5808 -0.1517 -0.8163
 1674SOL    HW1 5021   0.241   3.690   0.040  0.4597 -0.1471  1.0233
 1674SOL    HW2 5022   0.156   3.785   0.121 -0.8285  1.0183 -1.5823
 1675SOL     OW 5023   0.072   2.381   1.714 -0.0629  0.5845  0.7557
 1675SOL    HW1 5024   0.159   2.416   1.695 -0.6450  1.4162 -0.5149
 1675SOL    HW2 5025   0.013   2.427   1.653 -1.5708  0.8844  2.3455
 1676SOL     OW 5026   0.316   1.241   3.487  0.1263  0.0656 -0.5012
 1676SOL    HW1 5027   0.313   1.263   3.394 -0.1129  1.2912 -0.2177
 1676SOL    HW2 5028   0.299   1.147   3.490  2.7537 -0.5522 -1.8860
 1677SOL     OW 5029   1.168   3.324   0.966  0.1830 -0.4047 -0.1663
 1677SOL    HW1 5030   1.101   3.389   0.945 -0.0278 -0.8556 -0.9046
 1677SOL    HW2 5031   1.159   3.309   1.060 -0.7267 -0.4411 -0.2586
 1678SOL     OW 5032   3.316   1.689   1.580  0.0435  0.3543  0.4828
 1678SOL    HW1 5033   3.396   1.742   1.575 -0.7689  2.1299  3.5563
 1678SOL    HW2 5034   3.273   1.702   1.495  2.8187 -0.4950 -1.1793
 1679SOL     OW 5035   0.857   1.867   0.679 -0.1799 -0.0299 -0.3339
 1679SOL    HW1 5036   0.894   1.929   0.616  0.4660 -2.4990 -2.6040
 1679SOL    HW2 5037   0.773   1.905   0.704  1.7245  3.5333  1.4438
 1680SOL     OW 5038   3.382   2.326   1.707  0.5441 -0.1485  0.1024
 1680SOL    HW1 5039   3.416   2.242   1.735  0.4553 -0.1158  0.3086
 1680SOL    HW2 5040   3.295   2.307   1.672  1.0063 -0.3268 -1.0026
 1681SOL     OW 5041   3.360   2.417   2.699  0.7410 -0.0973  0.0745
 1681SOL    HW1 5042   3.422   2.474   2.654  1.5546 -1.1190 -0.1386
 1681SOL    HW2 5043   3.383   2.329   2.670  1.8516 -0.9261  3.0670
 1682SOL     OW 5044   0.992   2.022   0.219  0.2418  0.4487  0.1424
 1682SOL    HW1 5045   1.017   2.108   0.186 -2.3159  1.3735  0.3482
 1682SOL    HW2 5046   0.992   1.966   0.141 -0.2598  1.2142 -0.4192
 1683SOL     OW 5047   0.985   1.904   3.065  0.0759 -0.2788 -0.3437
 1683SOL    HW1 5048   1.053   1.899   2.998  0.2720 -0.2414 -0.1507
 1683SOL    HW2 5049   1.033   1.924   3.146 -0.3684  2.1103 -0.5843
 1684SOL     OW 5050   1.064   0.354   2.142  0.3398 -0.4561  0.1956
 1684SOL    HW1 5051   0.975   0.361   2.176  0.6977  0.0093  1.0571
 1684SOL    HW2 5052   1.120   0.374   2.216  1.2186 -2.2159  0.0449
 1685SOL     OW 5053   1.442   2.220   0.445  0.4853  0.2880  0.7665
 1685SOL    HW1 5054   1.375   2.215   0.514 -1.0355  0.4848 -0.6432
 1685SOL    HW2 5055   1.407   2.284   0.383  1.3463 -0.6134 -0.6887
 1686SOL     OW 5056   2.305   3.298   2.470  0.0367 -0.0090  0.5048
 1686SOL    HW1 5057   2.348   3.300   2.555  0.9821 -0.0771  0.0377
 1686SOL    HW2 5058   2.320   3.386   2.434 -0.6072  0.1135  0.5211
 1687SOL     OW 5059   3.545   1.394   3.931  0.2305  0.2765  0.1060
 1687SOL    HW1 5060   3.495   1.471   3.906  0.3294  0.4020  0.2859
 1687SOL    HW2 5061   3.593   1.369   3.852  0.6028  0.7149  0.1890
 1688SOL     OW 5062   2.774   1.859   3.832 -0.0803 -0.5506 -0.3612
 1688SOL    HW1 5063   2.839   1.813   3.779  0.5283  1.2743 -1.2794
 1688SOL    HW2 5064   2.694   1.858   3.779 -0.3916 -1.4793  0.1072
 1689SOL     OW 5065   2.490   2.027   1.025 -0.3431  0.4754 -0.1333
 1689SOL    HW1 5066   2.485   1.950   0.967  2.2496  0.6495 -0.7445
 1689SOL    HW2 5067   2.427   2.009   1.094 -2.0300 -0.7516 -1.8751
 1690SOL     OW 5068   1.204   0.220   0.030  0.3051  0.6790 -0.1349
 1690SOL    HW1 5069   1.210   0.300   0.082 -1.9363  1.8021 -1.4414
 1690SOL    HW2 5070   1.115   0.188   0.045  0.4251 -0.3174 -1.3654
 1691SOL     OW 5071   2.877   1.365   3.665  0.6780  0.2662  0.0812
 1691SOL    HW1 5072   2.912   1.308   3.734 -0.7485 -0.1645  0.4862
 1691SOL    HW2 5073   2.785   1.338   3.656 -0.1705  2.7310  0.5238
 1692SOL     OW 5074   3.287   1.422   3.088  0.6603 -0.3479  0.0790
 1692SOL    HW1 5075   3.247   1.462   3.011 -0.7807  0.8621  1.3758
 1692SOL    HW2 5076   3.213   1.401   3.145  1.7359  1.0360  2.1574
 1693SOL     OW 5077   3.963   3.718   2.692 -0.3015  0.7068 -0.1521
 1693SOL    HW1 5078   3.916   3.642   2.728 -1.4370  0.4770 -1.9898
 1693SOL    HW2 5079   3.913   3.793   2.723  0.2548  0.6906  0.8535
 1694SOL     OW 5080   2.358   2.874   1.460 -0.5117 -1.1548  0.1787
 1694SOL    HW1 5081   2.320   2.865   1.373 -2.0062  1.5254  0.4280
 1694SOL    HW2 5082   2.426   2.940   1.450 -0.1261 -1.4264  0.9084
 1695SOL     OW 5083   0.714   3.916   2.764 -0.0736 -0.2452 -0.2204
 1695SOL    HW1 5084   0.626   3.952   2.778  0.3037  0.7648 -0.4315
 1695SOL    HW2 5085   0.746   3.896   2.852 -0.3365 -0.1957 -0.1116
 1696SOL     OW 5086   2.536   1.858   3.423 -0.7703 -0.0121 -0.1525
 1696SOL    HW1 5087   2.547   1.953   3.419 -1.9555  0.2884  2.1969
 1696SOL    HW2 5088   2.448   1.842   3.391 -0.6991 -0.2905 -0.2139
 1697SOL     OW 5089   3.102   0.396   3.412 -0.2796  0.4437  0.4402
 1697SOL    HW1 5090   3.066   0.367   3.329  1.2027 -2.2875  0.6347
 1697SOL    HW2 5091   3.026   0.413   3.467 -1.2755  1.7423 -1.2362
 1698SOL     OW 5092   3.183   0.343   1.087  0.0477 -0.4346 -0.3275
 1698SOL    HW1 5093   3.169   0.413   1.150 -1.5433  1.4108 -2.5612
 1698SOL    HW2 5094   3.110   0.282   1.103  0.2480 -0.5203  0.2719
 1699SOL     OW 5095   0.145   3.432   2.270 -0.0156 -0.1855  0.1693
 1699SOL    HW1 5096   0.230   3.471   2.287 -1.4022  2.4100  1.7575
 1699SOL    HW2 5097   0.138   3.428   2.174  2.4238 -1.9509 -0.0206
 1700SOL     OW 5098   3.568   3.584   1.189  0.0999  0.0380  0.2676
 1700SOL    HW1 5099   3.491   3.619   1.146  1.5469  0.6019 -2.0289
 1700SOL    HW2 5100   3.609   3.659   1.231 -1.3009 -0.5078  2.8022
 1701SOL     OW 5101   1.802   2.996   2.541 -0.1912  0.1511  0.3437
 1701SOL    HW1 5102   1.888   2.976   2.579 -0.4826 -0.0394  0.9175
 1701SOL    HW2 5103   1.747   3.018   2.616 -0.6388  0.2983 -0.0229
 1702SOL     OW 5104   2.317   1.774   3.888  0.6812 -0.8332 -0.0237
 1702SOL    HW1 5105   2.293   1.843   3.950  2.1944 -0.1190 -0.1931
 1702SOL    HW2 5106   2.379   1.719   3.937  1.5309 -0.5328 -0.7528
 1703SOL     OW 5107   1.719   2.375   1.426 -0.9578  0.0212  0.5743
 1703SOL    HW1 5108   1.700   2.331   1.508 -3.9363 -0.1848 -0.0978
 1703SOL    HW2 5109   1.663   2.331   1.362 -0.3196  1.5593 -1.1300
 1704SOL     OW 5110   2.953   1.365   1.011 -0.0385  0.5168  0.4128
 1704SOL    HW1 5111   3.025   1.363   0.948  1.0685  0.7315  1.6273
 1704SOL    HW2 5112   2.875   1.383   0.958  0.9983  1.7562 -0.7746
 1705SOL     OW 5113   0.203   0.760   2.628 -0.5948 -1.0455 -1.0991
 1705SOL    HW1 5114   0.282   0.725   2.669 -0.0811  0.4440 -0.7539
 1705SOL    HW2 5115   0.162   0.684   2.587  0.1640 -2.1398  0.0808
 1706SOL     OW 5116   2.259   1.702   0.854 -0.2091 -0.4129  0.2452
 1706SOL    HW1 5117   2.298   1.628   0.900  0.0257 -0.7617 -0.4963
 1706SOL    HW2 5118   2.333   1.757   0.829 -0.3415 -0.1833  0.3492
 1707SOL     OW 5119   2.874   2.778   3.385 -0.3390  0.7815  0.0066
 1707SOL    HW1 5120   2.901   2.715   3.451 -0.9008  0.6397  0.1055
 1707SOL    HW2 5121   2.815   2.837   3.432 -2.6343 -0.6848 -0.8751
 1708SOL     OW 5122   2.854   1.963   1.899  0.6919  0.2303 -0.0662
 1708SOL    HW1 5123   2.885   1.968   1.809 -0.7489  1.3701 -0.5268
 1708SOL    HW2 5124   2.849   2.054   1.928 -2.6121  0.1987 -0.2008
 1709SOL     OW 5125   1.288   3.379   2.577  0.4960  0.0416  0.1362
 1709SOL    HW1 5126   1.270   3.452   2.637  2.1627  1.0329 -0.4993
 1709SOL    HW2 5127   1.213   3.379   2.516  0.5574  1.3420  0.0392
 1710SOL     OW 5128   3.678   1.136   2.815  0.4523  0.1857 -1.2541
 1710SOL    HW1 5129   3.740   1.100   2.878 -1.4513 -0.7085  0.2128
 1710SOL    HW2 5130   3.601   1.159   2.867 -0.7543  0.5264 -3.0851
 1711SOL     OW 5131   3.835   1.504   1.647 -0.5108  0.1147  0.1854
 1711SOL    HW1 5132   3.805   1.459   1.726 -0.4759  0.7827  0.5845
 1711SOL    HW2 5133   3.781   1.583   1.642  2.1969  2.2762  1.8885
 1712SOL     OW 5134   3.632   2.452   1.645  0.2760 -0.1735 -0.1961
 1712SOL    HW1 5135   3.549   2.436   1.689  0.2174  3.0869  1.1809
 1712SOL    HW2 5136   3.620   2.417   1.557 -1.5522 -2.0800  0.7114
 1713SOL     OW 5137  -0.007   2.269   1.072  0.0300  0.3560  0.5948
 1713SOL    HW1 5138  -0.031   2.361   1.077  2.2682  1.0311  0.2105
 1713SOL    HW2 5139   0.084   2.269   1.042  1.3493 -1.8065  3.9080
 1714SOL     OW 5140   3.597   3.314   1.253  0.4724 -0.6269  0.3633
 1714SOL    HW1 5141   3.621   3.313   1.345 -0.5775  0.2131  0.6701
 1714SOL    HW2 5142   3.591   3.407   1.230  2.5153 -0.7791 -1.0725
 1715SOL     OW 5143   0.282   1.162   2.867 -0.4349  0.1445 -0.5556
 1715SOL    HW1 5144   0.331   1.148   2.786 -1.6760  0.3931 -1.3811
 1715SOL    HW2 5145   0.260   1.255   2.866 -0.8963  0.0435 -0.1974
 1716SOL     OW 5146   1.298   3.910   1.766  0.0942  0.3392 -0.1024
 1716SOL    HW1 5147   1.222   3.960   1.797  1.3657  1.6292  1.0991
 1716SOL    HW2 5148   1.260   3.836   1.717 -2.0061 -0.5323  2.6012
 1717SOL     OW 5149   1.592   2.500   3.996 -0.4217  0.2254 -0.1117
 1717SOL    HW1 5150   1.546   2.517   3.914 -0.0507  0.7669 -0.2142
 1717SOL    HW2 5151   1.568   2.411   4.020 -1.6966  0.5661 -0.0473
 1718SOL     OW 5152   3.196   3.099   2.272 -0.3316 -0.4906  0.4080
 1718SOL    HW1 5153   3.255   3.037   2.229  0.6065  1.7312 -1.7067
 1718SOL    HW2 5154   3.109   3.060   2.262 -0.5985  0.7841 -5.8787
 1719SOL     OW 5155   0.093   3.196   2.439  0.2383  0.2312  0.4704
 1719SOL    HW1 5156   0.116   3.267   2.379  2.0664 -0.4777  0.2792
 1719SOL    HW2 5157   0.024   3.233   2.495 -1.5432  0.9321 -1.9922
 1720SOL     OW 5158   3.897   1.794   3.059 -0.5836  0.5435 -0.2828
 1720SOL    HW1 5159   3.874   1.833   3.144 -1.1809  0.8826 -0.5919
 1720SOL    HW2 5160   3.873   1.861   2.995 -0.3507  0.1967 -0.7374
 1721SOL     OW 5161   2.446   2.118   0.060  0.6081  0.0322 -0.2396
 1721SOL    HW1 5162   2.472   2.049   0.121 -2.2008 -0.5367  0.4504
 1721SOL    HW2 5163   2.523   2.132   0.005  1.7186 -2.7157  0.4486
 1722SOL     OW 5164   0.311   1.797   3.192 -0.2919 -0.6542  0.7077
 1722SOL    HW1 5165   0.236   1.785   3.133 -1.5515 -0.0776  2.1294
 1722SOL    HW2 5166   0.357   1.873   3.157 -0.7059 -0.6580  0.1430
 1723SOL     OW 5167   3.140   3.016   2.710 -1.0235 -0.1045  0.1868
 1723SOL    HW1 5168   3.104   3.008   2.798 -2.9809 -1.8830 -0.6775
 1723SOL    HW2 5169   3.066   3.047   2.657 -0.7337 -1.7918 -1.2914
 1724SOL     OW 5170   3.803   1.196   0.033 -0.5938 -0.9129  0.1875
 1724SOL    HW1 5171   3.882   1.228  -0.011 -0.3500 -1.3565  0.2919
 1724SOL    HW2 5172   3.785   1.112  -0.008 -0.5005 -1.2219  0.7661
 1725SOL     OW 5173   3.866   2.997   2.354 -0.7797  0.2485  0.8361
 1725SOL    HW1 5174   3.896   3.084   2.329 -1.0360 -0.2869 -1.4899
 1725SOL    HW2 5175   3.940   2.939   2.335 -0.4226 -0.0350  2.8370
 1726SOL     OW 5176   2.419   3.719   3.451 -0.6680 -0.1601  0.2326
 1726SOL    HW1 5177   2.487   3.685   3.508 -0.6279  0.6077  0.6620
 1726SOL    HW2 5178   2.344   3.661   3.465 -0.7305  0.1461  1.2422
 1727SOL     OW 5179   1.775   0.675   0.975 -0.0896  0.5823 -0.7503
 1727SOL    HW1 5180   1.782   0.663   0.880  2.8460 -0.3432 -0.5406
 1727SOL    HW2 5181   1.823   0.757   0.992  0.2948  0.2069  0.0111
 1728SOL     OW 5182   1.002   2.864   0.205 -0.4014  0.5026 -0.3903
 1728SOL    HW1 5183   0.943   2.828   0.138 -0.8085 -0.2993  0.3770
 1728SOL    HW2 5184   1.058   2.791   0.230  0.2698  1.0024 -0.3982
 1729SOL     OW 5185   1.433   1.356   2.469  0.5818  0.3251 -0.1062
 1729SOL    HW1 5186   1.479   1.389   2.546  1.3871 -0.9129 -0.0215
 1729SOL    HW2 5187   1.341   1.353   2.495  1.1287 -3.1220  2.0564
 1730SOL     OW 5188   1.311   3.570   1.194 -0.2615  0.6738  0.7936
 1730SOL    HW1 5189   1.274   3.584   1.106  1.3534 -0.5791 -0.1391
 1730SOL    HW2 5190   1.254   3.505   1.234  0.2859 -0.4718 -0.2347
 1731SOL     OW 5191   1.996   2.141   3.995 -0.8667  0.4198 -0.3154
 1731SOL    HW1 5192   2.035   2.191   4.067 -0.4005 -0.3746 -0.0050
 1731SOL    HW2 5193   2.033   2.180   3.916 -0.0231  0.1877 -0.0528
 1732SOL     OW 5194   2.166   2.049   2.796 -0.0576 -0.3562  0.1113
 1732SOL    HW1 5195   2.154   2.005   2.880 -1.5505 -0.6858 -0.2503
 1732SOL    HW2 5196   2.182   1.978   2.734  2.3668 -0.0486  0.2645
 1733SOL     OW 5197   3.239   1.428   2.047  0.0613 -0.3576 -0.2691
 1733SOL    HW1 5198   3.229   1.510   2.097  0.9862 -1.0058  1.0369
 1733SOL    HW2 5199   3.227   1.454   1.956 -1.2781  0.9489  0.2349
 1734SOL     OW 5200   0.250   3.437   0.132 -0.2302  0.0141  0.1309
 1734SOL    HW1 5201   0.255   3.432   0.228  1.0715 -1.0281  0.0381
 1734SOL    HW2 5202   0.178   3.377   0.109  0.7721 -1.3268  0.3662
 1735SOL     OW 5203   0.315   3.454   0.761 -0.2153  0.2004 -0.3022
 1735SOL    HW1 5204   0.282   3.370   0.792  0.6664  0.3838  1.2613
 1735SOL    HW2 5205   0.409   3.450   0.777  0.0728  0.8658 -1.7371
 1736SOL     OW 5206   3.061   3.337   0.449  0.5493 -0.1278 -0.2063
 1736SOL    HW1 5207   3.113   3.279   0.506 -2.0945 -0.3180  2.2221
 1736SOL    HW2 5208   3.055   3.419   0.497 -3.4245 -0.9120  1.0312
 1737SOL     OW 5209   3.086   2.682   2.048  0.2741 -0.9012  0.0689
 1737SOL    HW1 5210   3.037   2.607   2.015  1.5738 -1.6895 -0.1412
 1737SOL    HW2 5211   3.043   2.758   2.009 -2.2815 -1.3340  1.7778
 1738SOL     OW 5212   3.728   0.572   3.451 -0.1966 -0.4330 -0.2316
 1738SOL    HW1 5213   3.737   0.491   3.501  0.9203  0.2261  0.6771
 1738SOL    HW2 5214   3.815   0.613   3.455 -0.3914  0.1917 -1.7700
 1739SOL     OW 5215   2.867   3.424   3.355  0.3202 -0.2555  1.0372
 1739SOL    HW1 5216   2.796   3.361   3.365  1.5309 -1.6097  1.4939
 1739SOL    HW2 5217   2.879   3.433   3.261 -1.3100  1.0314  0.9114
 1740SOL     OW 5218   2.344   0.260   0.594  0.9223 -0.0392  0.2103
 1740SOL    HW1 5219   2.274   0.312   0.635  1.3416  1.2812 -0.6839
 1740SOL    HW2 5220   2.341   0.176   0.640 -0.2762  0.5063  1.2007
 1741SOL     OW 5221   2.292   3.832   1.674  0.3427  0.4335 -0.3547
 1741SOL    HW1 5222   2.370   3.796   1.630 -1.1798 -1.7771 -1.4609
 1741SOL    HW2 5223   2.229   3.843   1.603 -1.0936 -0.0084  0.8241
 1742SOL     OW 5224   0.542   2.055   3.185  0.1580  0.3247 -0.1013
 1742SOL    HW1 5225   0.609   2.033   3.250  1.2007  0.8213 -0.9649
 1742SOL    HW2 5226   0.521   2.147   3.203 -1.1839 -0.1489  0.9084
 1743SOL     OW 5227   1.180   2.366   2.720  0.6595 -0.0824  0.7551
 1743SOL    HW1 5228   1.237   2.298   2.756  0.7116 -1.8503 -2.3591
 1743SOL    HW2 5229   1.102   2.319   2.692  0.1259  1.3756 -0.3063
 1744SOL     OW 5230   3.067   3.339   0.038  0.5978  0.0908 -0.2815
 1744SOL    HW1 5231   3.047   3.422   0.080 -0.1089  0.7527 -1.8392
 1744SOL    HW2 5232   3.158   3.321   0.061  1.0122  1.7028 -0.5656
 1745SOL     OW 5233   3.800   1.444   1.294  0.4133  0.4803  0.1167
 1745SOL    HW1 5234   3.758   1.360   1.311 -0.6676  1.3438  1.8766
 1745SOL    HW2 5235   3.894   1.423   1.295  0.1959 -1.2127 -2.5418
 1746SOL     OW 5236   3.293   0.438   0.838 -0.4186 -0.0594 -0.4805
 1746SOL    HW1 5237   3.239   0.416   0.913 -0.4936 -2.1285 -1.0878
 1746SOL    HW2 5238   3.248   0.399   0.763  1.8599 -1.9137 -1.0002
 1747SOL     OW 5239   2.508   1.682   2.847  0.7055 -1.1439 -0.6173
 1747SOL    HW1 5240   2.489   1.762   2.797 -1.5261 -0.6060  0.9462
 1747SOL    HW2 5241   2.572   1.709   2.913  0.3132 -0.7514 -0.3942
 1748SOL     OW 5242   0.685   1.965   3.414 -0.1049  0.6531  0.3702
 1748SOL    HW1 5243   0.724   1.879   3.397  0.4180  1.2056 -1.4831
 1748SOL    HW2 5244   0.604   1.946   3.460  2.9711 -0.4898  6.2741
 1749SOL     OW 5245   2.065   1.729   1.020  0.0583  0.4122  0.4699
 1749SOL    HW1 5246   2.100   1.694   1.102 -1.8508 -4.1758 -0.3286
 1749SOL    HW2 5247   2.140   1.731   0.961  0.4227 -3.0426  0.5763
 1750SOL     OW 5248   1.814   1.822   2.244 -0.3688  0.6187 -0.5151
 1750SOL    HW1 5249   1.844   1.735   2.215 -1.0462 -1.4237  4.0134
 1750SOL    HW2 5250   1.725   1.830   2.209 -0.0067 -0.0681 -1.6700
 1751SOL     OW 5251   0.703   1.879   1.024 -0.0142 -0.4692 -0.1336
 1751SOL    HW1 5252   0.703   1.881   1.120 -0.4317 -3.0386  0.0072
 1751SOL    HW2 5253   0.793   1.855   1.001 -0.3114 -1.4836 -0.2735
 1752SOL     OW 5254   1.833   0.411   2.253  0.5767  0.3265 -0.5578
 1752SOL    HW1 5255   1.845   0.316   2.248 -0.1437  0.2576 -1.2656
 1752SOL    HW2 5256   1.868   0.435   2.339  1.8914 -0.3942 -0.8529
 1753SOL     OW 5257   2.260   2.494   3.113 -0.2485 -0.0360 -0.1244
 1753SOL    HW1 5258   2.235   2.586   3.108  0.3695  0.1247 -0.4111
 1753SOL    HW2 5259   2.219   2.454   3.036  1.6892  0.5666 -1.5512
 1754SOL     OW 5260   2.793   1.085   3.528  0.6524  0.1630  0.0485
 1754SOL    HW1 5261   2.744   1.004   3.520 -1.1937  0.7753  3.3172
 1754SOL    HW2 5262   2.853   1.070   3.601  3.6403  0.3307 -2.2006
 1755SOL     OW 5263   0.430   2.856   0.043  1.2037  0.0632 -0.3177
 1755SOL    HW1 5264   0.391   2.943   0.049  1.5230  0.2309 -0.6270
 1755SOL    HW2 5265   0.454   2.834   0.133 -2.4963 -1.4198  0.4854
 1756SOL     OW 5266   2.654   1.455   2.771  0.0517  0.1210 -0.3205
 1756SOL    HW1 5267   2.612   1.536   2.800  0.6527 -0.0779  1.2161
 1756SOL    HW2 5268   2.584   1.406   2.727 -2.0736 -1.1076  3.8933
 1757SOL     OW 5269   0.913   2.724   1.836  0.2249 -0.1123 -0.1164
 1757SOL    HW1 5270   0.898   2.817   1.818 -2.5299 -0.0829  1.6548
 1757SOL    HW2 5271   1.007   2.717   1.851  0.4588  2.4788  0.0758
 1758SOL     OW 5272   2.305   2.029   2.508  0.0823 -0.5353 -0.1537
 1758SOL    HW1 5273   2.294   2.124   2.510  1.1495 -0.2818 -2.6363
 1758SOL    HW2 5274   2.231   1.997   2.457 -1.5718 -1.3837  2.5650
 1759SOL     OW 5275   1.216   0.628   1.189 -0.0149 -0.1120 -0.1669
 1759SOL    HW1 5276   1.239   0.704   1.242 -0.6596 -0.5585  0.7925
 1759SOL    HW2 5277   1.123   0.642   1.167 -0.5016 -1.1858  1.0677
 1760SOL     OW 5278   2.373   0.517   0.418 -0.5762  0.0996 -0.0579
 1760SOL    HW1 5279   2.466   0.510   0.440 -0.5526 -0.9300 -0.4190
 1760SOL    HW2 5280   2.334   0.436   0.451 -1.3223  0.4491 -0.0515
 1761SOL     OW 5281   1.476   1.467   0.547 -0.7938  0.4882 -0.5343
 1761SOL    HW1 5282   1.475   1.517   0.465  0.6901  1.0410 -0.2361
 1761SOL    HW2 5283   1.548   1.504   0.598  0.5553 -2.0657 -0.3808
 1762SOL     OW 5284   0.586   3.144   1.197 -0.5414 -0.5938  0.0984
 1762SOL    HW1 5285   0.556   3.068   1.147  0.8665 -1.1057 -0.0345
 1762SOL    HW2 5286   0.507   3.183   1.232 -1.2774 -2.4751  0.6692
 1763SOL     OW 5287   1.307   3.184   2.215  0.3401 -0.2395  0.1676
 1763SOL    HW1 5288   1.257   3.265   2.216  0.3630 -0.1460 -1.9489
 1763SOL    HW2 5289   1.393   3.208   2.251 -0.1125  0.3334  0.8770
 1764SOL     OW 5290   1.861   2.924   0.899 -0.1918 -0.2417 -0.3775
 1764SOL    HW1 5291   1.818   2.956   0.979 -0.3962 -1.5520  0.0560
 1764SOL    HW2 5292   1.794   2.932   0.831 -0.4864 -0.4494 -0.1138
 1765SOL     OW 5293   3.621   2.957   2.672 -0.4583  0.5131  0.3420
 1765SOL    HW1 5294   3.546   3.016   2.681 -0.9899 -0.2468  1.0768
 1765SOL    HW2 5295   3.610   2.916   2.587  0.7267  2.5370 -0.8587
 1766SOL     OW 5296   3.723   0.350   3.935  0.1725  0.0905  0.2971
 1766SOL    HW1 5297   3.650   0.377   3.878  0.3942 -0.0610 -0.0636
 1766SOL    HW2 5298   3.681   0.298   4.004 -0.2087  1.0204  0.7764
 1767SOL     OW 5299   0.202   2.842   1.387  0.0562  0.4110  0.4296
 1767SOL    HW1 5300   0.181   2.751   1.364 -2.3638  0.6157  1.5812
 1767SOL    HW2 5301   0.183   2.892   1.308 -1.3253  0.2273  0.6218
 1768SOL     OW 5302   0.817   3.780   3.413 -0.1536  0.0898  0.1299
 1768SOL    HW1 5303   0.747   3.845   3.408  0.4890  0.7458 -1.3948
 1768SOL    HW2 5304   0.802   3.723   3.338  2.3694  1.8746 -1.9511
 1769SOL     OW 5305   3.544   0.557   2.487 -0.6596  0.2732 -0.1779
 1769SOL    HW1 5306   3.605   0.487   2.464 -3.0743 -1.1783 -2.7043
 1769SOL    HW2 5307   3.600   0.634   2.499  1.7335 -1.1688 -1.4069
 1770SOL     OW 5308   0.715   2.214   2.823 -0.1873 -0.0436  0.0504
 1770SOL    HW1 5309   0.757   2.130   2.842 -1.9167 -0.6477  1.4189
 1770SOL    HW2 5310   0.751   2.273   2.888  0.8594  0.2552 -0.7700
 1771SOL     OW 5311   0.851   1.638   2.573 -0.2212 -0.8031  0.3362
 1771SOL    HW1 5312   0.852   1.730   2.547  1.2209 -0.3514  1.8229
 1771SOL    HW2 5313   0.772   1.628   2.625  0.1638 -0.1175  1.0675
 1772SOL     OW 5314   3.560   1.423   2.362 -0.7828  0.1110 -0.0191
 1772SOL    HW1 5315   3.580   1.490   2.427  0.1106 -0.5917  0.4561
 1772SOL    HW2 5316   3.550   1.342   2.413 -3.7678  0.1522 -0.3397
 1773SOL     OW 5317   2.865   1.311   1.946  0.5146 -0.6548 -0.5269
 1773SOL    HW1 5318   2.891   1.403   1.940 -1.6880 -0.0220 -1.2367
 1773SOL    HW2 5319   2.875   1.289   2.038  0.5793  0.4478 -0.2544
 1774SOL     OW 5320   2.271   3.197   1.077 -0.3787  0.0888  0.0543
 1774SOL    HW1 5321   2.328   3.213   1.002  1.7584  3.3962  2.0725
 1774SOL    HW2 5322   2.202   3.263   1.069 -1.5495 -1.1430 -0.2034
 1775SOL     OW 5323   0.309   3.640   3.784 -0.1740 -0.1574  0.8538
 1775SOL    HW1 5324   0.386   3.658   3.837  0.5997 -1.1243  0.0905
 1775SOL    HW2 5325   0.284   3.726   3.749  1.0525  0.0601  0.4610
 1776SOL     OW 5326   1.514   0.107   1.573  0.2106  0.5133 -0.8268
 1776SOL    HW1 5327   1.436   0.062   1.606  0.8931  0.5470  0.9162
 1776SOL    HW2 5328   1.536   0.061   1.492 -0.2357 -1.0471 -0.0974
 1777SOL     OW 5329   3.931   0.498   3.823  0.1858  0.3631 -0.0246
 1777SOL    HW1 5330   3.848   0.474   3.864  0.2786 -0.0044 -0.0436
 1777SOL    HW2 5331   3.969   0.563   3.882 -0.6890  1.4700 -0.6629
 1778SOL     OW 5332   0.060   1.640   1.360  0.6385 -0.2444 -0.6973
 1778SOL    HW1 5333   0.048   1.548   1.334 -1.7180 -0.2359  0.1496
 1778SOL    HW2 5334   0.108   1.635   1.442  0.8081 -0.6956 -0.8161
 1779SOL     OW 5335   2.931   2.638   0.003 -0.0676  0.0735  0.0139
 1779SOL    HW1 5336   2.939   2.560   0.057 -1.1975  0.1063  0.2714
 1779SOL    HW2 5337   3.015   2.647  -0.041  0.0470 -1.3210 -0.0761
 1780SOL     OW 5338   3.500   1.851   2.113 -0.1924  0.3135 -0.3683
 1780SOL    HW1 5339   3.531   1.892   2.032  3.5748  0.2333  0.8635
 1780SOL    HW2 5340   3.490   1.923   2.175 -1.7103  0.2079 -0.4395
 1781SOL     OW 5341   3.825   2.190   1.420 -0.2157 -0.6773 -0.1745
 1781SOL    HW1 5342   3.736   2.220   1.400  0.6520  2.2675 -0.1604
 1781SOL    HW2 5343   3.881   2.259   1.385  2.1015 -2.5443 -0.3373
 1782SOL     OW 5344   0.082   1.355   1.295  0.2134  0.1925  0.2943
 1782SOL    HW1 5345   0.165   1.401   1.303  1.2905 -1.3118 -1.4126
 1782SOL    HW2 5346   0.104   1.263   1.309 -0.8943 -0.3862 -1.3941
 1783SOL     OW 5347   1.955   0.546   2.475 -0.0235  0.5915  0.2572
 1783SOL    HW1 5348   1.979   0.623   2.424  0.7883  0.0805 -0.1653
 1783SOL    HW2 5349   1.981   0.567   2.564  0.2197  0.7926  0.1398
 1784SOL     OW 5350   2.315   0.128   2.419 -0.5295  0.7372  0.7390
 1784SOL    HW1 5351   2.309   0.129   2.515 -2.1071  1.3805  0.6637
 1784SOL    HW2 5352   2.269   0.049   2.393  0.1674  0.4021  0.5180
 1785SOL     OW 5353   2.116   0.321   2.755  0.2011  0.2161  0.2496
 1785SOL    HW1 5354   2.182   0.355   2.814  0.8713  0.8686 -0.8481
 1785SOL    HW2 5355   2.035   0.366   2.780  0.2679 -0.2310  1.2830
 1786SOL     OW 5356   2.853   2.396   1.363  0.5052 -0.1068 -0.2766
 1786SOL    HW1 5357   2.898   2.480   1.369  1.2487 -0.4780 -0.5170
 1786SOL    HW2 5358   2.773   2.408   1.414  1.9318 -0.1391  2.1211
 1787SOL     OW 5359   0.450   0.294   0.443  0.3452 -0.8283 -0.9219
 1787SOL    HW1 5360   0.472   0.249   0.524 -2.3671 -0.4962  0.1120
 1787SOL    HW2 5361   0.479   0.235   0.373  4.4024 -0.3201  0.1149
 1788SOL     OW 5362   0.830   0.889   1.658  0.3622 -0.1293  0.3434
 1788SOL    HW1 5363   0.822   0.803   1.616 -0.5196  0.6706 -1.2483
 1788SOL    HW2 5364   0.806   0.874   1.749 -1.6854 -1.2483 -0.3160
 1789SOL     OW 5365   3.871   2.065   2.598 -0.7188 -0.5245 -0.3387
 1789SOL    HW1 5366   3.904   1.989   2.551  2.0064 -0.0022  0.5148
 1789SOL    HW2 5367   3.821   2.115   2.533  3.8865  0.8271 -3.3233
 1790SOL     OW 5368   2.465   1.775   1.390  0.3266  0.1775  0.1193
 1790SOL    HW1 5369   2.491   1.704   1.449 -0.0031 -0.5453 -0.5912
 1790SOL    HW2 5370   2.545   1.798   1.343  0.3407 -0.0162  0.0485
 1791SOL     OW 5371   1.660   0.019   3.784  0.4992  1.0974 -0.2766
 1791SOL    HW1 5372   1.643  -0.022   3.869 -0.4930  1.8082 -0.1221
 1791SOL    HW2 5373   1.605   0.097   3.783 -0.4979  0.4386 -2.0889
 1792SOL     OW 5374   2.571   3.699   0.282  0.3702 -0.7591 -0.1253
 1792SOL    HW1 5375   2.568   3.605   0.262  1.1492 -0.8229  0.0545
 1792SOL    HW2 5376   2.526   3.706   0.366  1.6699 -1.1949  0.6392
 1793SOL     OW 5377   0.070   0.906   1.479 -0.2343 -0.2405 -0.8608
 1793SOL    HW1 5378   0.082   0.833   1.540  0.8891  0.0210 -0.7383
 1793SOL    HW2 5379   0.122   0.882   1.402 -1.2210 -0.3289 -1.5138
 1794SOL     OW 5380   0.215   0.970   2.458 -0.4012  0.6111  0.0283
 1794SOL    HW1 5381   0.121   0.956   2.444 -1.1923  3.9589  1.0051
 1794SOL    HW2 5382   0.239   0.905   2.524 -2.1128 -0.1227 -0.0080
 1795SOL     OW 5383   0.748   1.206   0.512 -0.2198 -0.1953  0.0384
 1795SOL    HW1 5384   0.725   1.278   0.454  0.1453 -0.2963 -0.2327
 1795SOL    HW2 5385   0.683   1.138   0.492 -0.0421 -0.2648 -0.3212
 1796SOL     OW 5386   1.091   3.406   0.520  0.9635  0.1050  0.0419
 1796SOL    HW1 5387   1.075   3.429   0.428  2.4357 -0.6990 -0.4499
 1796SOL    HW2 5388   1.185   3.423   0.533  1.4100 -2.3737  0.5797
 1797SOL     OW 5389   3.131   2.021   3.724  0.3989  0.4845 -0.3293
 1797SOL    HW1 5390   3.210   2.052   3.768  1.4826 -2.1674 -0.2194
 1797SOL    HW2 5391   3.161   1.985   3.641 -0.6000 -0.7679 -0.1985
 1798SOL     OW 5392   3.470   2.290   2.079 -0.3421 -0.2059 -0.0830
 1798SOL    HW1 5393   3.486   2.275   1.986 -2.7319  0.3603 -0.6472
 1798SOL    HW2 5394   3.469   2.385   2.088  2.2955 -0.1937  1.0659
 1799SOL     OW 5395   3.382   3.491   0.847 -0.3427  0.2913  0.8027
 1799SOL    HW1 5396   3.412   3.415   0.897 -1.3577 -0.2237  0.6455
 1799SOL    HW2 5397   3.289   3.474   0.831 -0.0189  0.3204 -1.4590
 1800SOL     OW 5398   1.071   2.809   2.295 -0.2015  0.1095 -0.1883
 1800SOL    HW1 5399   1.032   2.723   2.286  0.7259 -0.1296 -3.4765
 1800SOL    HW2 5400   1.016   2.855   2.359 -1.3423 -2.5130  0.8458
 1801SOL     OW 5401   0.497   4.011   0.445  0.6538 -0.7073  0.2446
 1801SOL    HW1 5402   0.555   3.940   0.416  1.0322  0.1866 -1.2765
 1801SOL    HW2 5403   0.414   3.994   0.400  0.9309  0.1234 -0.6147
 1802SOL     OW 5404   3.609   3.589   0.393  0.9043  0.0951  0.1097
 1802SOL    HW1 5405   3.574   3.561   0.308  0.5906 -2.4492  0.9819
 1802SOL    HW2 5406   3.570   3.529   0.456  2.2770  0.9577  1.8836
 1803SOL     OW 5407   2.127   3.669   2.312 -0.4895  0.5614  0.1065
 1803SOL    HW1 5408   2.114   3.618   2.232 -2.0253  2.5526 -1.0367
 1803SOL    HW2 5409   2.055   3.642   2.369 -0.8939  0.9103 -0.2245
 1804SOL     OW 5410   2.039   2.430   2.168  0.5251  0.1601 -0.1680
 1804SOL    HW1 5411   2.087   2.505   2.132  0.8523 -0.6780 -1.5656
 1804SOL    HW2 5412   2.075   2.354   2.122 -1.0571 -0.6570 -0.1356
 1805SOL     OW 5413   3.376   1.758   2.965  0.8020  0.2392 -0.4095
 1805SOL    HW1 5414   3.433   1.702   3.018  0.3462  0.7345  0.6087
 1805SOL    HW2 5415   3.358   1.705   2.887  0.0163 -1.2461  0.7169
 1806SOL     OW 5416   3.340   1.639   0.551 -0.7250 -0.1345 -0.0870
 1806SOL    HW1 5417   3.337   1.643   0.456  2.0273 -0.6955 -0.2641
 1806SOL    HW2 5418   3.359   1.547   0.571 -1.5186 -0.0770  1.0365
 1807SOL     OW 5419   2.412   3.740   0.794 -0.1921  0.5073  0.2312
 1807SOL    HW1 5420   2.335   3.684   0.795  1.1250 -1.4836 -1.2314
 1807SOL    HW2 5421   2.469   3.705   0.862 -0.4871  1.9005  1.2376
 1808SOL     OW 5422   3.363   0.695   3.331 -0.2303 -0.1875 -0.2005
 1808SOL    HW1 5423   3.449   0.660   3.355 -0.8087 -1.2035  0.4958
 1808SOL    HW2 5424   3.365   0.786   3.358 -0.2880 -0.8723  2.3712
 1809SOL     OW 5425   2.520   2.353   1.626  0.1608  0.2494  0.1396
 1809SOL    HW1 5426   2.451   2.302   1.669 -0.0032  0.3113 -0.0470
 1809SOL    HW2 5427   2.487   2.368   1.537  1.9998 -2.9325 -1.2727
 1810SOL     OW 5428   3.091   1.136   1.524 -0.8318  0.1172 -0.2625
 1810SOL    HW1 5429   3.073   1.110   1.434  1.0559 -1.2140 -0.3256
 1810SOL    HW2 5430   3.087   1.054   1.574 -2.2021  0.8770  0.9498
 1811SOL     OW 5431   2.933   0.969   2.572  0.6142 -0.4483  0.3493
 1811SOL    HW1 5432   2.969   1.000   2.655  0.0276  1.5197 -0.0875
 1811SOL    HW2 5433   3.011   0.953   2.518  0.9577 -0.7712  0.9170
 1812SOL     OW 5434   3.731   3.228   3.446 -0.2055  0.4719  0.2182
 1812SOL    HW1 5435   3.732   3.203   3.353  0.5179  0.2229  0.2843
 1812SOL    HW2 5436   3.700   3.151   3.492 -1.1716  0.8003  0.1359
 1813SOL     OW 5437   1.657   3.719   3.111  0.7395  0.4558 -0.1836
 1813SOL    HW1 5438   1.732   3.690   3.163  1.3215  1.5497 -0.3908
 1813SOL    HW2 5439   1.660   3.663   3.033  0.5267 -0.4243  0.4262
 1814SOL     OW 5440   2.114   0.456   0.152 -0.5790  0.3389 -0.0227
 1814SOL    HW1 5441   2.154   0.429   0.069  1.6847  4.1365 -0.3802
 1814SOL    HW2 5442   2.158   0.403   0.218  0.1611 -0.2660 -0.9735
 1815SOL     OW 5443   0.732   3.157   3.193 -0.0935  0.1563  0.3509
 1815SOL    HW1 5444   0.662   3.222   3.188 -0.5243 -0.4005 -2.7100
 1815SOL    HW2 5445   0.687   3.075   3.213  0.0107  0.2008  0.7772
 1816SOL     OW 5446   2.720   2.482   0.249  0.4256  0.5139 -0.4302
 1816SOL    HW1 5447   2.673   2.422   0.306  0.8391 -0.2811 -0.9094
 1816SOL    HW2 5448   2.726   2.564   0.299 -0.0816  0.1355  0.2547
 1817SOL     OW 5449   3.639   2.823   3.213  0.5133  0.2002 -0.0181
 1817SOL    HW1 5450   3.727   2.787   3.225  0.1866 -0.6058  0.0477
 1817SOL    HW2 5451   3.601   2.770   3.142  0.6465  1.6115 -1.1940
 1818SOL     OW 5452   0.965   3.354   3.299 -0.8092 -0.0978  0.5127
 1818SOL    HW1 5453   1.000   3.421   3.358 -1.2602 -0.4756  1.2159
 1818SOL    HW2 5454   0.973   3.272   3.348  0.5211 -0.7223 -0.6456
 1819SOL     OW 5455   0.147   1.789   0.304  0.3550  0.4569 -0.3219
 1819SOL    HW1 5456   0.183   1.791   0.392  0.7602 -1.2160 -0.4228
 1819SOL    HW2 5457   0.194   1.718   0.260 -0.8511  0.3022 -1.4246
 1820SOL     OW 5458   2.846   0.751   0.098 -0.3002  0.1402 -0.1105
 1820SOL    HW1 5459   2.879   0.815   0.161  0.7131  0.2624 -0.7303
 1820SOL    HW2 5460   2.924   0.705   0.067 -0.7356  0.1966 -1.3826
 1821SOL     OW 5461   1.293   3.419   1.568 -0.2498 -0.2419  0.2579
 1821SOL    HW1 5462   1.243   3.498   1.548 -0.7814 -0.6262  0.0517
 1821SOL    HW2 5463   1.228   3.349   1.572  0.3277 -0.8575 -0.6047
 1822SOL     OW 5464   2.654   0.580   0.365  0.2043 -0.6827 -0.0224
 1822SOL    HW1 5465   2.726   0.519   0.378 -0.4157 -0.8764  3.4199
 1822SOL    HW2 5466   2.694   0.657   0.324  2.6741 -0.3677  2.6745
 1823SOL     OW 5467   3.763   1.321   2.670 -0.3010  0.3623 -0.2077
 1823SOL    HW1 5468   3.732   1.240   2.710 -2.3303 -0.0860 -2.4777
 1823SOL    HW2 5469   3.684   1.372   2.654  0.6285  1.4491 -1.5832
 1824SOL     OW 5470   3.908   2.743   3.765  0.3740  0.4114 -0.2915
 1824SOL    HW1 5471   3.995   2.779   3.781  0.9017  0.7754 -3.3506
 1824SOL    HW2 5472   3.883   2.779   3.680 -1.2273 -2.5458 -1.1894
 1825SOL     OW 5473   0.330   1.325   3.242 -0.0953  0.3683 -0.4702
 1825SOL    HW1 5474   0.236   1.329   3.224 -0.1540 -3.1914 -1.7303
 1825SOL    HW2 5475   0.371   1.346   3.158  0.1310 -0.5385 -0.5945
 1826SOL     OW 5476   3.966   0.680   3.450 -0.0873 -0.6188 -0.0705
 1826SOL    HW1 5477   3.979   0.595   3.408  0.9430  0.2627 -1.6491
 1826SOL    HW2 5478   4.038   0.734   3.418 -0.0292  0.5239  1.8444
 1827SOL     OW 5479   3.203   1.723   1.350 -0.1306  0.2684  0.4310
 1827SOL    HW1 5480   3.140   1.786   1.317  0.0984 -0.5823 -1.8655
 1827SOL    HW2 5481   3.261   1.706   1.275 -0.9676 -3.6067  0.4222
 1828SOL     OW 5482   1.693   2.811   3.344 -0.0001 -0.4743 -0.2077
 1828SOL    HW1 5483   1.770   2.839   3.294 -1.9137  2.5584 -1.7835
 1828SOL    HW2 5484   1.725   2.800   3.433  2.4195 -0.2080 -0.9647
 1829SOL     OW 5485   2.564   1.328   3.998  0.4886 -0.2282 -0.0386
 1829SOL    HW1 5486   2.494   1.386   3.968  1.7787  0.7488 -1.3092
 1829SOL    HW2 5487   2.559   1.253   3.939 -0.1795 -0.6845  0.5890
 1830SOL     OW 5488   1.114   1.539   1.913 -0.5170 -0.0931  0.5197
 1830SOL    HW1 5489   1.168   1.552   1.991 -0.2261  1.1599  0.1270
 1830SOL    HW2 5490   1.024   1.548   1.944 -0.4265 -0.2235  0.8240
 1831SOL     OW 5491   2.552   1.728   0.301 -0.3782 -0.5174  0.2476
 1831SOL    HW1 5492   2.511   1.689   0.378 -0.5714  1.1513  1.0190
 1831SOL    HW2 5493   2.646   1.715   0.315 -0.3557  0.5918  1.2429
 1832SOL     OW 5494   2.904   3.008   2.859 -0.0017 -0.0729 -0.2129
 1832SOL    HW1 5495   2.940   2.949   2.925  1.8260  0.5497 -0.5899
 1832SOL    HW2 5496   2.813   2.981   2.849  0.5461 -2.2644  0.2452
 1833SOL     OW 5497   2.457   2.169   3.289 -0.1466 -0.2940  0.0877
 1833SOL    HW1 5498   2.410   2.237   3.337  0.1220 -2.1593  3.2834
 1833SOL    HW2 5499   2.548   2.199   3.287 -0.3076  0.1878  0.0224
 1834SOL     OW 5500   2.326   1.673   2.418 -0.5833  0.1709 -0.2271
 1834SOL    HW1 5501   2.340   1.634   2.331  0.1319 -1.4976  0.5871
 1834SOL    HW2 5502   2.406   1.723   2.434 -0.5909  0.2466 -0.4246
 1835SOL     OW 5503   2.742   2.704   2.473 -0.3140  0.5368 -0.3851
 1835SOL    HW1 5504   2.751   2.614   2.502  0.5983  0.9222  0.5987
 1835SOL    HW2 5505   2.707   2.698   2.384  1.4482 -0.8472 -1.0404
 1836SOL     OW 5506   2.182   3.241   3.317 -0.0494 -0.5201 -0.0686
 1836SOL    HW1 5507   2.234   3.279   3.388  1.3231 -1.8165 -0.3093
 1836SOL    HW2 5508   2.138   3.166   3.357 -1.3027  0.2139 -0.0165
 1837SOL     OW 5509   0.412   1.493   0.488 -0.6027 -0.4842 -0.3235
 1837SOL    HW1 5510   0.475   1.532   0.427 -0.1366  1.3813  1.2454
 1837SOL    HW2 5511   0.394   1.406   0.452  2.3604 -0.8327 -1.1915
 1838SOL     OW 5512   2.034   0.820   3.254 -0.3445 -0.1131  0.6166
 1838SOL    HW1 5513   1.956   0.871   3.277 -1.3003 -1.8236  1.3210
 1838SOL    HW2 5514   2.008   0.729   3.267  1.1346 -0.8473 -1.1098
 1839SOL     OW 5515   0.934   1.841   3.648  0.2317  0.1202  0.2522
 1839SOL    HW1 5516   0.975   1.794   3.575  2.3008  0.3060  1.2198
 1839SOL    HW2 5517   0.925   1.931   3.616 -2.7519 -0.5436 -1.2083
 1840SOL     OW 5518   3.089   3.623   0.557 -0.2200  0.1457  0.5009
 1840SOL    HW1 5519   3.086   3.691   0.490 -0.9298  0.9374  1.3100
 1840SOL    HW2 5520   3.149   3.657   0.623  0.3868 -0.5784  0.3397
 1841SOL     OW 5521   3.693   1.192   2.169  0.3258  0.0265  0.5030
 1841SOL    HW1 5522   3.708   1.103   2.137 -0.1473 -0.0628  0.5182
 1841SOL    HW2 5523   3.611   1.219   2.127  0.5761  0.5321  0.3386
 1842SOL     OW 5524   3.565   3.526   3.464  0.3650 -0.2711 -0.6925
 1842SOL    HW1 5525   3.603   3.440   3.482 -0.9683 -0.4125  1.9758
 1842SOL    HW2 5526   3.515   3.513   3.384  1.6203 -1.4734 -1.3299
 1843SOL     OW 5527   3.496   3.150   1.620 -0.3758 -0.0798 -0.1304
 1843SOL    HW1 5528   3.489   3.061   1.656 -3.2873 -0.8533 -2.2543
 1843SOL    HW2 5529   3.468   3.207   1.692 -2.0392 -1.2369  0.2031
 1844SOL     OW 5530   1.104   1.511   3.463  0.0536  0.6897 -0.0650
 1844SOL    HW1 5531   1.184   1.562   3.458 -0.6938  1.8609 -0.3918
 1844SOL    HW2 5532   1.097   1.469   3.377  0.7527 -0.1393  0.2602
 1845SOL     OW 5533   1.497   2.665   0.525 -0.2436 -0.0936 -0.5011
 1845SOL    HW1 5534   1.580   2.617   0.519  0.5176  1.2967 -1.6016
 1845SOL    HW2 5535   1.489   2.687   0.618 -0.9362 -2.8060  0.1726
 1846SOL     OW 5536   3.665   3.240   0.709  0.3459 -0.1558  0.0074
 1846SOL    HW1 5537   3.584   3.281   0.679 -0.1502 -0.7945  0.4582
 1846SOL    HW2 5538   3.730   3.264   0.642 -0.2009  0.3888 -0.3373
 1847SOL     OW 5539   3.439   2.050   1.698  0.0433  0.0078 -0.4378
 1847SOL    HW1 5540   3.401   2.069   1.612 -1.9023  0.6616  0.5010
 1847SOL    HW2 5541   3.393   1.972   1.728  0.3793  0.0445  0.1984
 1848SOL     OW 5542   3.477   1.302   2.048 -0.3700 -0.3844  0.3141
 1848SOL    HW1 5543   3.384   1.305   2.027 -0.5959  0.6367  1.3736
 1848SOL    HW2 5544   3.507   1.392   2.036  0.1587 -0.4163  1.3207
 1849SOL     OW 5545   0.462   0.940   3.527 -0.0190  0.1830  0.0223
 1849SOL    HW1 5546   0.493   0.909   3.612  0.3229  1.3594  0.3481
 1849SOL    HW2 5547   0.504   1.026   3.516 -3.0063  1.8303  0.4396
 1850SOL     OW 5548   0.737   1.303   2.441 -0.1206  0.4032  0.5287
 1850SOL    HW1 5549   0.793   1.226   2.429  0.7422  0.6935  2.3294
 1850SOL    HW2 5550   0.779   1.371   2.388  0.5196  0.2762  0.8604
 1851SOL     OW 5551   0.247   1.934   1.616 -0.0015 -0.1989 -0.1088
 1851SOL    HW1 5552   0.173   1.990   1.636 -0.1359 -0.0783 -0.9013
 1851SOL    HW2 5553   0.218   1.846   1.641 -0.2471 -0.0892 -0.0046
 1852SOL     OW 5554   1.521   1.762   3.701 -0.3984  0.4010  0.4745
 1852SOL    HW1 5555   1.602   1.718   3.676  0.3073  1.8842  0.0337
 1852SOL    HW2 5556   1.459   1.691   3.718  1.3113 -0.8091  2.0116
 1853SOL     OW 5557   1.263   1.381   1.186  0.0526 -0.1076 -0.3193
 1853SOL    HW1 5558   1.214   1.462   1.198  0.0870 -0.2640  1.0214
 1853SOL    HW2 5559   1.346   1.408   1.148 -0.3116  0.3688 -0.8005
 1854SOL     OW 5560   1.867   0.427   1.850 -0.6555 -0.4791  0.4041
 1854SOL    HW1 5561   1.880   0.396   1.760 -0.1700  1.0933 -0.1088
 1854SOL    HW2 5562   1.783   0.391   1.876 -1.6002  0.3812 -1.3140
 1855SOL     OW 5563   0.906   3.080   1.339  0.1605  0.3306  0.3593
 1855SOL    HW1 5564   0.843   3.147   1.313  0.8879  0.9212  0.0649
 1855SOL    HW2 5565   0.962   3.070   1.261 -0.4292 -1.2063  0.1108
 1856SOL     OW 5566   3.790   0.642   2.314  0.6013  0.1267  0.0428
 1856SOL    HW1 5567   3.817   0.578   2.379  0.5282  0.1772  0.1220
 1856SOL    HW2 5568   3.742   0.709   2.363 -0.2554 -0.2978 -0.1938
 1857SOL     OW 5569   3.368   0.096   3.588 -0.4042 -0.8594  0.4878
 1857SOL    HW1 5570   3.443   0.152   3.568 -1.4125  0.2553 -0.2699
 1857SOL    HW2 5571   3.388   0.013   3.544  0.1924 -0.4267 -0.0776
 1858SOL     OW 5572   1.419   0.475   1.242  0.4280  0.2670  0.5794
 1858SOL    HW1 5573   1.344   0.529   1.219  0.3165 -0.2793 -0.3865
 1858SOL    HW2 5574   1.471   0.531   1.300  0.3573  1.4583 -0.4483
 1859SOL     OW 5575   3.568   1.074   1.578 -0.4537 -0.0679 -0.2088
 1859SOL    HW1 5576   3.603   1.146   1.629 -0.8690  1.4656 -1.9794
 1859SOL    HW2 5577   3.610   1.083   1.492 -1.5316 -1.1291 -0.8760
 1860SOL     OW 5578   0.370   1.973   0.157  0.1082  0.2314  0.5678
 1860SOL    HW1 5579   0.452   1.927   0.173  0.4973  0.4844 -0.6239
 1860SOL    HW2 5580   0.344   2.006   0.243  0.1734 -1.5936  1.3344
 1861SOL     OW 5581   3.860   1.077   3.615  0.2094  0.2084 -0.6340
 1861SOL    HW1 5582   3.944   1.110   3.647 -0.4431 -0.3797  1.9155
 1861SOL    HW2 5583   3.811   1.155   3.591  0.1503  0.8915  1.4965
 1862SOL     OW 5584   3.923   3.752   3.842 -0.2492  0.6559 -0.0354
 1862SOL    HW1 5585   3.978   3.830   3.831 -1.8659  1.8744  0.0275
 1862SOL    HW2 5586   3.981   3.678   3.826  1.1196  1.9103 -1.0849
 1863SOL     OW 5587   2.503   2.782   0.603 -0.0136 -0.3027 -0.3636
 1863SOL    HW1 5588   2.431   2.725   0.630  0.4278 -1.3032 -1.2246
 1863SOL    HW2 5589   2.460   2.861   0.570 -0.7616 -1.1052 -1.3768
 1864SOL     OW 5590   1.590   3.861   3.521 -0.0594  0.6830 -0.1455
 1864SOL    HW1 5591   1.592   3.909   3.604  0.8587 -0.8161  0.7668
 1864SOL    HW2 5592   1.631   3.776   3.542  0.4081  0.3437 -2.1952
 1865SOL     OW 5593   1.985   1.839   3.189  0.8197 -0.4837 -0.7150
 1865SOL    HW1 5594   1.911   1.780   3.197  0.4867 -0.2919 -2.1499
 1865SOL    HW2 5595   1.985   1.866   3.097  0.6704  2.1035 -0.0404
 1866SOL     OW 5596   3.262   3.690   3.633  0.0044  0.1339  0.0532
 1866SOL    HW1 5597   3.251   3.608   3.585  2.6110 -0.0672 -0.3312
 1866SOL    HW2 5598   3.328   3.739   3.583  1.0277  0.9771  2.1005
 1867SOL     OW 5599   3.865   1.727   1.864 -0.5191 -0.5373 -0.0233
 1867SOL    HW1 5600   3.835   1.638   1.846 -4.1857  0.4543  0.4080
 1867SOL    HW2 5601   3.806   1.783   1.814 -2.5263  1.7936  4.4007
 1868SOL     OW 5602   2.740   0.936   3.206 -0.1278  0.0500 -0.2206
 1868SOL    HW1 5603   2.730   0.907   3.297  2.7970  0.7756  0.4310
 1868SOL    HW2 5604   2.697   0.867   3.154 -0.2039 -1.3554  1.6111
 1869SOL     OW 5605   1.566   1.450   1.995  0.0840  0.1755 -0.2549
 1869SOL    HW1 5606   1.606   1.382   1.941  0.7680 -0.1777  0.6737
 1869SOL    HW2 5607   1.485   1.410   2.028 -0.6660  0.6095 -1.4807
 1870SOL     OW 5608   2.769   0.741   1.864 -0.2025 -0.0644 -0.0871
 1870SOL    HW1 5609   2.777   0.752   1.959  0.3070 -0.0138 -0.1379
 1870SOL    HW2 5610   2.678   0.712   1.852 -1.5578  3.5832  0.0915
 1871SOL     OW 5611   1.699   3.530   1.422  0.2265 -0.3120  0.0848
 1871SOL    HW1 5612   1.648   3.474   1.481 -0.6218 -0.2970 -0.6232
 1871SOL    HW2 5613   1.637   3.555   1.354  1.7083 -2.1590 -2.0876
 1872SOL     OW 5614   1.037   1.419   3.702  0.3856  0.3271  0.6751
 1872SOL    HW1 5615   0.983   1.352   3.662  1.4257 -0.0784 -0.0980
 1872SOL    HW2 5616   1.067   1.473   3.629  0.2467  1.1364  1.1971
 1873SOL     OW 5617   2.907   3.389   1.664 -0.4046  0.0401  0.1470
 1873SOL    HW1 5618   2.972   3.458   1.646  0.9031 -1.6435 -2.0323
 1873SOL    HW2 5619   2.826   3.422   1.624  0.0805  0.5365 -0.4488
 1874SOL     OW 5620   0.008   1.821   3.351  0.5791  0.4120  0.7451
 1874SOL    HW1 5621  -0.024   1.806   3.440  1.1236  0.4843  0.9573
 1874SOL    HW2 5622   0.080   1.760   3.340  1.2652  1.1921  0.7683
 1875SOL     OW 5623   1.694   1.830   1.563 -0.6529 -0.3737  0.1339
 1875SOL    HW1 5624   1.667   1.755   1.616 -0.2982 -0.9337 -0.4617
 1875SOL    HW2 5625   1.768   1.798   1.512 -1.7006 -0.2059 -1.5621
 1876SOL     OW 5626   3.024   0.748   2.317 -0.5243  0.3364 -0.1389
 1876SOL    HW1 5627   3.103   0.697   2.301 -0.5405  0.8155 -2.0272
 1876SOL    HW2 5628   3.056   0.835   2.344 -0.4642  0.0588  0.7287
 1877SOL     OW 5629   2.088   2.401   1.791  0.0631  0.1712  0.0689
 1877SOL    HW1 5630   2.033   2.377   1.716  1.4633  3.4893 -2.2097
 1877SOL    HW2 5631   2.053   2.485   1.821 -0.3114 -0.9456  3.1200
 1878SOL     OW 5632   1.337   1.805   0.042  0.2661  0.2324  0.1450
 1878SOL    HW1 5633   1.299   1.805  -0.046  0.3385 -0.6726  0.1075
 1878SOL    HW2 5634   1.298   1.729   0.086  1.1642 -0.0470  0.4822
 1879SOL     OW 5635   2.067   1.219   3.361 -0.2976  0.2222  0.8410
 1879SOL    HW1 5636   2.007   1.282   3.401 -1.5318 -0.6669  0.4305
 1879SOL    HW2 5637   2.070   1.244   3.269 -1.5310 -0.8534  0.4828
 1880SOL     OW 5638   0.413   2.658   1.687 -0.5372  0.2368 -0.1002
 1880SOL    HW1 5639   0.350   2.697   1.626  1.3373 -1.0748 -3.1106
 1880SOL    HW2 5640   0.490   2.714   1.679  0.2749 -0.8670 -0.1622
 1881SOL     OW 5641   1.411   3.212   0.829 -0.0854  0.6328 -0.3413
 1881SOL    HW1 5642   1.356   3.287   0.851 -0.1578 -0.0903  2.2306
 1881SOL    HW2 5643   1.479   3.249   0.773  0.1320  2.7624  1.1837
 1882SOL     OW 5644   1.501   3.018   0.498 -0.0687  0.1066 -0.0261
 1882SOL    HW1 5645   1.525   2.970   0.419 -1.7975  1.5146 -1.4851
 1882SOL    HW2 5646   1.407   3.030   0.492 -0.3067  0.0158  2.4346
 1883SOL     OW 5647   2.249   1.847   3.347 -0.6866  0.0094 -0.1932
 1883SOL    HW1 5648   2.236   1.890   3.432 -1.1878 -1.9641  0.7765
 1883SOL    HW2 5649   2.163   1.851   3.305 -0.6704  0.1481 -0.2159
 1884SOL     OW 5650   0.121   2.885   3.312  0.7396  0.0090 -0.0162
 1884SOL    HW1 5651   0.064   2.809   3.322 -0.1037  0.6308 -0.0379
 1884SOL    HW2 5652   0.203   2.858   3.353  0.3874 -0.8390  0.1629
 1885SOL     OW 5653   1.907   0.720   2.692  0.2601  0.3725 -0.4482
 1885SOL    HW1 5654   1.909   0.802   2.644  0.2990  0.8687  0.3820
 1885SOL    HW2 5655   1.952   0.739   2.775  1.0386 -0.7134 -0.5964
 1886SOL     OW 5656   1.453   2.525   1.317  0.1119 -0.1765 -0.1123
 1886SOL    HW1 5657   1.377   2.468   1.307 -0.3068 -0.1943  2.5788
 1886SOL    HW2 5658   1.528   2.465   1.314 -0.1340 -0.4816 -0.1952
 1887SOL     OW 5659   1.030   3.912   1.837  0.1634 -0.4960  0.0474
 1887SOL    HW1 5660   0.949   3.963   1.833  0.4201 -0.1599 -0.9343
 1887SOL    HW2 5661   1.016   3.841   1.775  1.5398  0.9251 -2.0051
 1888SOL     OW 5662   0.249   0.384   1.154 -0.8126 -0.4080  0.7154
 1888SOL    HW1 5663   0.333   0.338   1.148  0.8244  2.2073  2.0579
 1888SOL    HW2 5664   0.227   0.406   1.063 -0.9079 -2.4278  0.1938
 1889SOL     OW 5665   0.773   1.477   0.606  0.4496 -0.3634 -0.2578
 1889SOL    HW1 5666   0.692   1.452   0.651 -0.1300  0.1560 -1.0016
 1889SOL    HW2 5667   0.843   1.438   0.660 -0.3376 -2.1076 -0.4230
 1890SOL     OW 5668   0.347   0.308   0.127  0.8676  0.2443  0.0219
 1890SOL    HW1 5669   0.284   0.379   0.140  1.8589  1.0505  0.5826
 1890SOL    HW2 5670   0.294   0.234   0.099 -0.3133  0.9265  0.3764
 1891SOL     OW 5671   0.837   1.701   0.355 -0.1313 -0.4812  0.2086
 1891SOL    HW1 5672   0.827   1.773   0.292  0.0677  1.2340  2.0609
 1891SOL    HW2 5673   0.896   1.736   0.422 -1.3696 -1.7534  2.0391
 1892SOL     OW 5674   2.626   3.023   1.434 -0.1460  0.6360 -0.3079
 1892SOL    HW1 5675   2.660   2.940   1.400 -0.9769  0.9240 -1.9273
 1892SOL    HW2 5676   2.691   3.088   1.408 -0.7638  0.8510 -1.3769
 1893SOL     OW 5677   3.848   1.412   2.275 -0.5928 -0.2501  1.0802
 1893SOL    HW1 5678   3.765   1.386   2.235 -0.5114  0.1907  0.6183
 1893SOL    HW2 5679   3.905   1.336   2.263 -0.6660 -0.2379  0.6375
 1894SOL     OW 5680   0.723   0.328   0.533 -0.1302 -0.5553 -0.8251
 1894SOL    HW1 5681   0.645   0.383   0.537  0.1489 -0.2055  0.5234
 1894SOL    HW2 5682   0.709   0.262   0.601  1.4663  0.5483  0.6496
 1895SOL     OW 5683   2.256   1.628   2.125 -0.5089 -0.3771  0.0584
 1895SOL    HW1 5684   2.273   1.584   2.042  0.5282  0.5552 -0.2585
 1895SOL    HW2 5685   2.315   1.704   2.124 -0.8738 -0.0472  1.4061
 1896SOL     OW 5686   1.844   2.923   2.935 -0.9213 -0.4854 -0.1511
 1896SOL    HW1 5687   1.935   2.893   2.943  0.1443  1.4621 -3.0551
 1896SOL    HW2 5688   1.808   2.870   2.864 -1.2413  0.3554 -0.6363
 1897SOL     OW 5689   1.921   1.128   1.357 -0.3255 -0.1839  0.6085
 1897SOL    HW1 5690   1.966   1.088   1.283 -1.9488 -0.5671 -0.2136
 1897SOL    HW2 5691   1.964   1.092   1.434  1.4232  0.2602 -0.1287
 1898SOL     OW 5692   3.010   0.933   3.665 -0.5118 -0.2217 -0.2452
 1898SOL    HW1 5693   3.031   0.890   3.582  0.9840 -0.0996  0.0525
 1898SOL    HW2 5694   3.013   0.863   3.730 -1.5777 -0.2978 -0.2572
 1899SOL     OW 5695   1.964   2.556   3.071 -0.5336  0.2509 -0.3101
 1899SOL    HW1 5696   2.024   2.489   3.039  1.8649  2.4730 -0.7978
 1899SOL    HW2 5697   1.879   2.531   3.035  0.8765 -0.7446 -3.2634
 1900SOL     OW 5698  -0.007   0.843   1.820  0.3260  0.2915 -0.1261
 1900SOL    HW1 5699  -0.050   0.772   1.773  1.5049  1.2760 -2.8788
 1900SOL    HW2 5700   0.087   0.826   1.808  0.6541  1.2545  0.8831
 1901SOL     OW 5701   3.646   2.181   2.510 -0.3351 -0.3448 -0.0467
 1901SOL    HW1 5702   3.651   2.248   2.442  0.3759 -0.0841  0.2564
 1901SOL    HW2 5703   3.554   2.180   2.535 -0.4742  0.0581 -0.5088
 1902SOL     OW 5704   0.693   1.112   1.656 -0.1533  0.6028 -0.9981
 1902SOL    HW1 5705   0.755   1.179   1.626 -1.2290  1.4867 -1.3483
 1902SOL    HW2 5706   0.742   1.030   1.651  0.7309  1.1592 -2.0534
 1903SOL     OW 5707   0.522   3.779   1.480 -0.3549  1.0043 -0.5256
 1903SOL    HW1 5708   0.498   3.857   1.530  0.1231  0.8121  0.0126
 1903SOL    HW2 5709   0.444   3.723   1.485 -0.5233  1.2411 -0.4974
 1904SOL     OW 5710   2.436   2.323   2.999 -0.0181  0.2008  0.6252
 1904SOL    HW1 5711   2.389   2.373   3.066  0.5357 -0.2911  1.4074
 1904SOL    HW2 5712   2.415   2.232   3.018 -1.0989  0.1161 -0.8525
 1905SOL     OW 5713   1.933   2.273   0.857 -0.1077 -0.6312 -0.4514
 1905SOL    HW1 5714   1.850   2.257   0.812  0.3094  0.8089 -1.8373
 1905SOL    HW2 5715   1.978   2.189   0.858 -0.6888 -0.9695 -1.6184
 1906SOL     OW 5716   3.057   0.269   3.195  0.3403  0.0954 -0.4193
 1906SOL    HW1 5717   3.043   0.175   3.199  2.7832 -0.3782 -1.2769
 1906SOL    HW2 5718   3.039   0.292   3.104  0.1252  0.3824 -0.3052
 1907SOL     OW 5719   2.729   0.414   2.628 -0.6246  0.3407  0.0149
 1907SOL    HW1 5720   2.750   0.507   2.619 -1.0453  0.7268  2.4016
 1907SOL    HW2 5721   2.810   0.373   2.658 -0.8190  0.1746  0.3142
 1908SOL     OW 5722   0.165   2.981   2.565 -0.3963 -0.0222 -0.0798
 1908SOL    HW1 5723   0.150   3.063   2.518 -0.2815  1.1390  1.8242
 1908SOL    HW2 5724   0.129   2.996   2.652  0.5801 -1.6428  0.6466
 1909SOL     OW 5725   0.513   2.774   0.298  0.6187  0.0582  0.5827
 1909SOL    HW1 5726   0.599   2.815   0.306  0.4666  0.6203 -0.4364
 1909SOL    HW2 5727   0.532   2.681   0.288  1.1068  0.1752  0.3834
 1910SOL     OW 5728   2.574   0.011   0.995  0.2997  0.2624 -0.2058
 1910SOL    HW1 5729   2.641   0.078   0.986 -0.3859  1.1048  0.7016
 1910SOL    HW2 5730   2.612  -0.054   1.055 -0.8657  2.4412  3.1626
 1911SOL     OW 5731   2.364   1.254   3.732 -0.3575  0.0924 -0.1023
 1911SOL    HW1 5732   2.446   1.212   3.707 -0.9749 -2.6808  2.0405
 1911SOL    HW2 5733   2.298   1.185   3.721 -1.3939  0.1851  4.0461
 1912SOL     OW 5734   0.535   1.915   2.943 -0.1522 -0.5423  0.3944
 1912SOL    HW1 5735   0.518   1.967   3.021  1.4880  0.4690  0.1231
 1912SOL    HW2 5736   0.609   1.859   2.967 -1.6584 -2.6073  0.5731
 1913SOL     OW 5737   2.251   3.501   0.117 -0.2763  0.2598 -0.1331
 1913SOL    HW1 5738   2.208   3.490   0.201 -0.1837  1.3222  0.0684
 1913SOL    HW2 5739   2.183   3.535   0.059  0.1877  1.6386  0.1024
 1914SOL     OW 5740   3.804   0.744   0.730 -0.0159 -0.1654 -0.8215
 1914SOL    HW1 5741   3.805   0.648   0.723 -1.0521 -0.1157 -1.8849
 1914SOL    HW2 5742   3.717   0.769   0.700  0.9694  1.2761 -2.6136
 1915SOL     OW 5743   1.236   1.011   0.276 -0.4132  0.0725 -0.6453
 1915SOL    HW1 5744   1.261   0.983   0.364 -0.0831 -0.2894 -0.8542
 1915SOL    HW2 5745   1.207   1.102   0.288 -1.1180 -0.2198 -0.0302
 1916SOL     OW 5746   3.599   0.213   3.503  0.1011 -0.5136 -0.6358
 1916SOL    HW1 5747   3.654   0.229   3.579 -0.5832 -0.0297 -0.2315
 1916SOL    HW2 5748   3.652   0.158   3.446  0.8909 -0.2880 -0.1303
 1917SOL     OW 5749   2.259   2.802   3.171  0.6410 -0.9593  1.1254
 1917SOL    HW1 5750   2.350   2.810   3.198  0.8820 -1.6794  0.5581
 1917SOL    HW2 5751   2.208   2.826   3.248  1.2804  2.0783  0.7090
 1918SOL     OW 5752   2.511   3.846   2.612 -0.1960  0.9952 -0.4201
 1918SOL    HW1 5753   2.418   3.835   2.589  0.2026 -1.9663 -0.9660
 1918SOL    HW2 5754   2.547   3.900   2.541 -0.7142 -1.2174 -2.4949
 1919SOL     OW 5755   2.135   1.127   1.955  0.0170  0.4212 -0.6700
 1919SOL    HW1 5756   2.125   1.200   2.016 -1.4615  0.4513 -0.9050
 1919SOL    HW2 5757   2.167   1.055   2.009 -1.1334  0.4857  0.1397
 1920SOL     OW 5758   0.787   3.513   2.442  0.1570 -0.5286 -0.2971
 1920SOL    HW1 5759   0.856   3.577   2.459 -0.1944 -0.1398 -0.3215
 1920SOL    HW2 5760   0.710   3.550   2.485  0.3606 -1.8223  1.2988
 1921SOL     OW 5761   0.888   3.980   2.167  0.3219 -0.2392  0.0164
 1921SOL    HW1 5762   0.905   3.962   2.260  0.1395  0.6772  0.2364
 1921SOL    HW2 5763   0.932   3.909   2.121  0.1765 -0.8667  0.8167
 1922SOL     OW 5764   3.555   2.803   3.781  0.0560 -0.1544 -0.1753
 1922SOL    HW1 5765   3.564   2.714   3.747  2.5507  0.2381 -0.7066
 1922SOL    HW2 5766   3.610   2.804   3.860 -2.0133  0.2553  1.3615
 1923SOL     OW 5767   3.291   3.557   1.780 -0.3896  0.0765 -0.5810
 1923SOL    HW1 5768   3.341   3.478   1.759 -0.3791 -0.9529  2.6653
 1923SOL    HW2 5769   3.353   3.613   1.826 -0.2322  2.4060 -3.3636
 1924SOL     OW 5770   1.955   0.239   3.057 -0.0614 -0.8860  0.3020
 1924SOL    HW1 5771   1.925   0.163   3.007  1.7931 -1.6473  0.2938
 1924SOL    HW2 5772   1.937   0.216   3.148 -3.3001  0.4381  0.1334
 1925SOL     OW 5773   3.002   2.709   3.697 -0.1673 -0.3634 -0.0159
 1925SOL    HW1 5774   3.078   2.651   3.695  0.3407  0.2183  1.6108
 1925SOL    HW2 5775   3.037   2.795   3.719 -1.2803 -0.0907  0.7860
 1926SOL     OW 5776   3.821   0.350   3.613  0.0029  0.2296  0.3572
 1926SOL    HW1 5777   3.888   0.363   3.545 -0.3089  0.3724  0.0774
 1926SOL    HW2 5778   3.863   0.383   3.693 -0.4329  2.2144 -0.1658
 1927SOL     OW 5779   3.224   1.149   1.987 -0.0219 -0.3958 -0.2263
 1927SOL    HW1 5780   3.137   1.122   1.959 -0.6180 -1.2231  2.1866
 1927SOL    HW2 5781   3.208   1.227   2.041  0.8170 -0.2291 -0.2102
 1928SOL     OW 5782   2.008   1.928   0.853  0.2185  0.1468 -0.3762
 1928SOL    HW1 5783   1.945   1.932   0.781  0.5466 -1.2802 -0.7746
 1928SOL    HW2 5784   1.983   1.851   0.904  1.1917 -0.0189 -0.1191
 1929SOL     OW 5785   3.832   2.012   3.232 -0.2305  0.0320  0.1713
 1929SOL    HW1 5786   3.776   1.981   3.302 -0.1417 -2.6395 -0.8398
 1929SOL    HW2 5787   3.921   2.007   3.268 -0.2879 -0.0418  0.3026
 1930SOL     OW 5788   1.943   2.819   3.202  0.2244  0.7026  0.0288
 1930SOL    HW1 5789   1.928   2.890   3.139 -0.4532  1.1080  0.6225
 1930SOL    HW2 5790   1.918   2.740   3.155 -0.1512  0.9893 -0.2631
 1931SOL     OW 5791   2.061   2.404   0.335  0.2658 -0.0977 -0.1636
 1931SOL    HW1 5792   2.106   2.362   0.262 -0.0037 -2.5645  0.9838
 1931SOL    HW2 5793   2.066   2.340   0.406 -1.7938  1.0816  1.1520
 1932SOL     OW 5794   3.032   0.521   2.032  0.6157  0.2147 -0.3444
 1932SOL    HW1 5795   3.032   0.426   2.022  1.5433  0.3738 -2.3784
 1932SOL    HW2 5796   2.952   0.540   2.082  0.8428 -1.6666  0.8278
 1933SOL     OW 5797   2.997   0.891   2.058 -0.7500 -0.3709  0.2617
 1933SOL    HW1 5798   2.958   0.807   2.082  0.0710 -0.6211  0.7505
 1933SOL    HW2 5799   3.090   0.880   2.075 -0.4393  0.1909 -0.9686
 1934SOL     OW 5800   1.723   1.582   0.028 -0.1204  0.0650 -0.2368
 1934SOL    HW1 5801   1.650   1.570   0.089  2.1516 -0.0831  2.7251
 1934SOL    HW2 5802   1.777   1.650   0.069  2.1840 -0.9398 -1.4284
 1935SOL     OW 5803   1.459   0.202   3.897  0.0776 -0.4273  0.2814
 1935SOL    HW1 5804   1.366   0.182   3.908 -0.1133 -0.6499 -1.4048
 1935SOL    HW2 5805   1.461   0.281   3.843  0.8106 -1.7028 -1.6813
 1936SOL     OW 5806   2.506   0.783   1.184  0.1163  0.1962  0.3533
 1936SOL    HW1 5807   2.530   0.825   1.267  3.0192 -0.5234  0.0017
 1936SOL    HW2 5808   2.589   0.751   1.149 -1.1038 -0.0992 -2.5461
 1937SOL     OW 5809   1.011   0.763   1.956 -0.3991 -0.2076 -1.3770
 1937SOL    HW1 5810   1.033   0.702   1.886  0.0535  0.1933 -1.5854
 1937SOL    HW2 5811   0.916   0.773   1.949 -0.9408 -2.9732  0.3659
 1938SOL     OW 5812   3.035   2.153   3.230 -0.0865  0.4239  0.4024
 1938SOL    HW1 5813   3.112   2.200   3.198  0.4321  0.0759  1.1003
 1938SOL    HW2 5814   2.968   2.168   3.163  1.0158 -0.4845 -0.9510
 1939SOL     OW 5815   0.127   2.165   0.466  0.1782  0.3481 -0.2149
 1939SOL    HW1 5816   0.069   2.123   0.402 -0.7154  2.7821 -1.1393
 1939SOL    HW2 5817   0.072   2.228   0.511  1.3182  0.2069  1.4890
 1940SOL     OW 5818   2.791   3.233   1.447 -0.1591  0.3091  0.0585
 1940SOL    HW1 5819   2.863   3.228   1.384 -0.1612 -0.3394  0.1055
 1940SOL    HW2 5820   2.833   3.249   1.531 -0.1415  0.9419 -0.0616
 1941SOL     OW 5821   3.904   3.961   2.872  0.0021 -0.3716  0.6002
 1941SOL    HW1 5822   3.923   4.047   2.836  0.2080 -0.7024 -0.1001
 1941SOL    HW2 5823   3.934   3.966   2.963  0.0816  0.2696  0.5428
 1942SOL     OW 5824   0.211   2.562   2.395 -0.1657 -0.3619  0.3087
 1942SOL    HW1 5825   0.128   2.514   2.401 -1.1523  1.4236  1.9150
 1942SOL    HW2 5826   0.265   2.508   2.337 -1.8772 -2.3789  0.4507
 1943SOL     OW 5827   3.764   0.895   1.291  0.1062  0.0089  0.1475
 1943SOL    HW1 5828   3.810   0.820   1.329  0.7485 -0.4164 -1.3720
 1943SOL    HW2 5829   3.678   0.861   1.267 -0.1658  0.1822  0.8481
 1944SOL     OW 5830   2.443   0.045   2.874  0.3404 -0.8630  0.1153
 1944SOL    HW1 5831   2.469  -0.017   2.806  1.7518 -0.4168  0.2282
 1944SOL    HW2 5832   2.465   0.001   2.956  0.3504 -0.6440  0.2307
 1945SOL     OW 5833   0.990   0.093   0.164 -0.7481  0.1632 -0.4517
 1945SOL    HW1 5834   0.927   0.085   0.093 -0.2265  2.4400 -1.2496
 1945SOL    HW2 5835   0.959   0.169   0.215  0.9005  0.8797 -0.4486
 1946SOL     OW 5836   1.988   2.718   1.984 -0.0122  0.3839 -0.0093
 1946SOL    HW1 5837   2.078   2.749   1.993 -0.4338  1.7718 -0.2571
 1946SOL    HW2 5838   1.947   2.737   2.069 -0.8738  2.7057 -0.8496
 1947SOL     OW 5839   2.029   2.300   2.389  0.4586  0.9423 -0.7000
 1947SOL    HW1 5840   2.023   2.358   2.313  2.2212 -0.4432 -1.9590
 1947SOL    HW2 5841   1.988   2.218   2.360  1.6445  0.2129 -0.3648
 1948SOL     OW 5842   3.827   0.940   3.311  0.5593 -0.3049  0.0015
 1948SOL    HW1 5843   3.824   0.931   3.406 -1.1584 -0.6308 -0.0502
 1948SOL    HW2 5844   3.786   1.024   3.294  0.3432 -0.5030 -0.4732
 1949SOL     OW 5845   3.245   0.853   1.388  0.4376 -0.2454  0.2780
 1949SOL    HW1 5846   3.152   0.869   1.372  0.4734 -0.7453 -0.4476
 1949SOL    HW2 5847   3.285   0.854   1.302  0.6103 -3.1286  0.2473
 1950SOL     OW 5848   2.387   3.853   1.286 -0.5684  0.7757 -0.3300
 1950SOL    HW1 5849   2.365   3.930   1.233 -0.2819  0.5834 -0.7351
 1950SOL    HW2 5850   2.421   3.789   1.223  0.3948  0.7806  0.1597
 1951SOL     OW 5851   1.853   0.255   0.354  1.2708  0.0463 -0.4773
 1951SOL    HW1 5852   1.848   0.162   0.374 -0.3351  0.2934  0.4357
 1951SOL    HW2 5853   1.761   0.284   0.354  1.7288  1.5589 -1.0472
 1952SOL     OW 5854   3.404   2.687   2.252 -0.1012 -0.2870 -0.9551
 1952SOL    HW1 5855   3.369   2.769   2.218  1.6671  0.4656 -1.0423
 1952SOL    HW2 5856   3.335   2.622   2.233 -2.1229  1.3590  0.3220
 1953SOL     OW 5857   3.703   2.251   0.274 -0.1923 -0.0109 -0.4694
 1953SOL    HW1 5858   3.685   2.263   0.368  1.2297 -0.5896 -0.1015
 1953SOL    HW2 5859   3.722   2.158   0.265  0.8732  0.2512 -1.1104
 1954SOL     OW 5860   1.402   1.910   3.317 -0.7030 -0.0292  0.3640
 1954SOL    HW1 5861   1.408   1.921   3.222  1.4662 -1.2203  0.3104
 1954SOL    HW2 5862   1.325   1.854   3.329 -0.9954  0.1215 -0.7000
 1955SOL     OW 5863   0.988   1.760   1.683  0.1345  0.0512  0.4376
 1955SOL    HW1 5864   1.080   1.778   1.661 -0.0891  0.8900  0.1376
 1955SOL    HW2 5865   0.978   1.666   1.667  1.4325 -0.4775  2.3327
 1956SOL     OW 5866   0.640   2.429   3.480 -0.1399 -0.0814 -0.4117
 1956SOL    HW1 5867   0.601   2.483   3.549 -0.5503  1.5167 -1.8167
 1956SOL    HW2 5868   0.722   2.474   3.459  0.8755 -1.5655  0.2358
 1957SOL     OW 5869   3.603   2.122   1.183 -0.6952 -0.4530 -0.7788
 1957SOL    HW1 5870   3.674   2.064   1.157 -1.5933 -1.4438 -1.1015
 1957SOL    HW2 5871   3.613   2.198   1.126  1.0515  0.1794  0.2853
 1958SOL     OW 5872   0.414   0.064   3.702  0.0402  0.2013 -0.4091
 1958SOL    HW1 5873   0.426   0.111   3.620  0.4843  1.6841  0.4556
 1958SOL    HW2 5874   0.492   0.085   3.753 -0.3252 -0.5200  0.4803
 1959SOL     OW 5875   1.294   0.467   1.959 -0.8073  0.0848  0.4582
 1959SOL    HW1 5876   1.253   0.398   2.011  0.5862 -1.3263 -0.2404
 1959SOL    HW2 5877   1.342   0.520   2.022 -2.3117  0.8078  1.0700
 1960SOL     OW 5878   1.000   1.107   0.118  0.8717  0.1249 -0.4562
 1960SOL    HW1 5879   1.008   1.157   0.200  0.1057 -0.5387  0.0387
 1960SOL    HW2 5880   0.965   1.022   0.145 -1.5895  0.6701 -1.6928
 1961SOL     OW 5881   1.037   3.044   3.058  0.3216 -0.0764 -0.6549
 1961SOL    HW1 5882   0.964   3.101   3.081  0.1686 -1.1247  1.7461
 1961SOL    HW2 5883   1.000   2.956   3.057  1.6595 -0.7442  1.5153
 1962SOL     OW 5884   0.573   1.812   0.264  0.1051  0.2718  0.0925
 1962SOL    HW1 5885   0.550   1.725   0.230  0.5937 -0.0512  0.5890
 1962SOL    HW2 5886   0.580   1.800   0.358  2.3473  0.3395 -0.0157
 1963SOL     OW 5887   3.357   3.677   3.274  0.8448  0.4273  0.2087
 1963SOL    HW1 5888   3.408   3.637   3.203  0.1166  0.4849 -0.3604
 1963SOL    HW2 5889   3.283   3.618   3.287  1.3349  0.0541  1.4179
 1964SOL     OW 5890   2.657   1.016   0.162 -0.1113 -0.3131  0.2586
 1964SOL    HW1 5891   2.692   0.945   0.215  0.1295 -0.1222  0.3588
 1964SOL    HW2 5892   2.733   1.052   0.116 -0.3959 -0.8478 -0.6707
 1965SOL     OW 5893   3.669   1.911   0.526  0.4262 -0.7088 -0.0545
 1965SOL    HW1 5894   3.763   1.903   0.541  0.5999  0.3473 -0.4602
 1965SOL    HW2 5895   3.630   1.915   0.613  0.8896  0.0339  0.1319
 1966SOL     OW 5896   1.157   2.994   0.424  0.2501 -0.1603 -0.7301
 1966SOL    HW1 5897   1.115   2.930   0.480 -1.4605  2.0123  0.6150
 1966SOL    HW2 5898   1.120   2.978   0.337 -0.6581 -0.5341 -0.2790
 1967SOL     OW 5899   1.966   3.019   2.178  0.2993 -0.3562  0.3024
 1967SOL    HW1 5900   1.916   2.946   2.214  0.7195 -0.5647  0.4784
 1967SOL    HW2 5901   1.991   3.070   2.255 -0.4732  0.2940  0.1345
 1968SOL     OW 5902   1.743   1.129   0.475  0.0919  0.1178 -0.4247
 1968SOL    HW1 5903   1.665   1.080   0.500  1.0040 -0.0035  2.6751
 1968SOL    HW2 5904   1.792   1.070   0.420 -0.3861 -1.2048  0.5131
 1969SOL     OW 5905   2.703   3.571   1.563 -0.6023 -0.5787 -0.0878
 1969SOL    HW1 5906   2.637   3.624   1.518 -1.0431 -0.7106  0.3897
 1969SOL    HW2 5907   2.694   3.594   1.656  1.7814  1.3412 -0.2370
 1970SOL     OW 5908   3.561   0.076   1.486  0.6915  0.1964 -0.3909
 1970SOL    HW1 5909   3.465   0.075   1.489  0.7126  0.2601  1.1624
 1970SOL    HW2 5910   3.582   0.107   1.398 -0.7202  1.0952 -0.4445
 1971SOL     OW 5911   3.559   0.755   0.414 -0.0077 -0.2824 -0.1021
 1971SOL    HW1 5912   3.616   0.833   0.420  0.8355 -0.9751  1.2516
 1971SOL    HW2 5913   3.604   0.698   0.351 -0.9702  0.5582 -1.6194
 1972SOL     OW 5914   0.472   2.666   0.707  0.3986  0.2509 -0.3539
 1972SOL    HW1 5915   0.552   2.668   0.654  0.2828  0.8377 -0.5214
 1972SOL    HW2 5916   0.488   2.598   0.772  0.2993 -0.8935 -1.5008
 1973SOL     OW 5917   2.735   2.879   2.695  0.7327  0.1897 -0.1814
 1973SOL    HW1 5918   2.759   2.803   2.641  1.4464  0.2479  0.0487
 1973SOL    HW2 5919   2.735   2.953   2.633 -0.7307 -0.0951 -0.5745
 1974SOL     OW 5920   1.376   1.514   3.732 -0.0174 -0.7438 -0.2939
 1974SOL    HW1 5921   1.419   1.495   3.815 -1.2996  1.0982  0.8947
 1974SOL    HW2 5922   1.289   1.475   3.740 -0.5467  0.3845 -0.2636
 1975SOL     OW 5923   3.246   0.816   0.338  0.5240 -0.3740  0.1888
 1975SOL    HW1 5924   3.172   0.827   0.398  1.6733 -0.0368  1.6114
 1975SOL    HW2 5925   3.318   0.864   0.380  2.0562 -2.2068 -0.1837
 1976SOL     OW 5926   3.944   3.285   1.997  0.3453 -0.1650 -0.0147
 1976SOL    HW1 5927   4.036   3.309   2.007  0.6017 -1.6386  1.5666
 1976SOL    HW2 5928   3.945   3.199   1.955 -0.3434 -0.0406 -0.3137
 1977SOL     OW 5929   1.862   0.278   1.582 -0.6460 -0.1493  0.1183
 1977SOL    HW1 5930   1.829   0.213   1.520  0.3743 -0.4079 -0.1724
 1977SOL    HW2 5931   1.794   0.345   1.585 -2.4361 -1.9108  1.5642
 1978SOL     OW 5932   1.878   1.027   3.436 -0.8505 -0.6950 -0.4470
 1978SOL    HW1 5933   1.793   1.064   3.461  0.0979  0.6505  0.9607
 1978SOL    HW2 5934   1.927   1.101   3.399  0.1009 -1.1840 -0.1984
 1979SOL     OW 5935   3.684   3.300   1.897 -0.5443  0.0973  0.1103
 1979SOL    HW1 5936   3.719   3.227   1.846 -2.9116  0.4977 -2.3458
 1979SOL    HW2 5937   3.746   3.311   1.970  1.1547 -2.7839 -0.7309
 1980SOL     OW 5938   3.516   1.091   3.832 -0.3217 -0.1094 -0.4905
 1980SOL    HW1 5939   3.601   1.084   3.790  0.0483  0.3242  0.1647
 1980SOL    HW2 5940   3.536   1.106   3.925 -1.0860  1.8292 -0.5970
 1981SOL     OW 5941   0.718   3.310   2.670  0.5533  0.8423 -0.2532
 1981SOL    HW1 5942   0.649   3.355   2.621 -0.1104  0.4056  0.2625
 1981SOL    HW2 5943   0.679   3.290   2.755  1.4834  1.0381  0.2435
 1982SOL     OW 5944   2.016   0.888   0.541  0.1040  0.1778 -0.4752
 1982SOL    HW1 5945   2.004   0.939   0.461 -1.4987 -0.4110 -0.6367
 1982SOL    HW2 5946   1.991   0.799   0.517  2.6541 -0.7266 -0.1459
 1983SOL     OW 5947   1.247   1.163   2.698 -0.6896 -0.1040  0.3078
 1983SOL    HW1 5948   1.163   1.206   2.681 -0.4504  0.9492  1.6371
 1983SOL    HW2 5949   1.292   1.222   2.759  0.9182 -0.7711 -0.1910
 1984SOL     OW 5950   3.715   0.631   1.070  0.3176  0.4768 -0.5158
 1984SOL    HW1 5951   3.649   0.684   1.024  0.9191  1.4184 -0.3317
 1984SOL    HW2 5952   3.707   0.544   1.032 -1.8013  0.2711  0.2853
 1985SOL     OW 5953   2.534   2.798   3.348 -0.3038  0.0836 -0.2255
 1985SOL    HW1 5954   2.507   2.869   3.291  0.8113  2.0460  1.5599
 1985SOL    HW2 5955   2.630   2.803   3.348 -0.1335 -2.0458 -0.7483
 1986SOL     OW 5956   3.241   3.385   3.614 -1.0049  0.9654  0.0557
 1986SOL    HW1 5957   3.290   3.340   3.682 -0.9185  2.0941  0.7764
 1986SOL    HW2 5958   3.255   3.332   3.535 -0.8766 -0.2052  0.8419
 1987SOL     OW 5959   3.694   3.872   2.737 -0.5322 -0.0663 -0.4221
 1987SOL    HW1 5960   3.771   3.909   2.779 -0.7815 -0.5770  0.5051
 1987SOL    HW2 5961   3.621   3.895   2.795 -0.8227 -1.1310 -0.3351
 1988SOL     OW 5962   2.943   2.643   1.374 -0.4193  0.1879  0.3103
 1988SOL    HW1 5963   3.017   2.703   1.385  0.4508 -1.0271  1.4517
 1988SOL    HW2 5964   2.886   2.686   1.311  2.6457 -0.1044 -2.9236
 1989SOL     OW 5965   0.561   2.483   2.407 -0.1248 -0.0827 -0.1423
 1989SOL    HW1 5966   0.584   2.410   2.348  1.8549 -0.6627  1.2569
 1989SOL    HW2 5967   0.475   2.460   2.440 -0.9646 -0.1195 -2.1843
 1990SOL     OW 5968   3.511   0.716   1.550 -0.5135 -0.1647 -0.0346
 1990SOL    HW1 5969   3.459   0.795   1.538  1.4475  1.7491  2.9054
 1990SOL    HW2 5970   3.527   0.684   1.461 -2.9588  1.6110 -1.2108
 1991SOL     OW 5971   2.312   3.963   1.040  0.1113  0.7003  0.0398
 1991SOL    HW1 5972   2.297   3.880   0.994  0.9959  0.2323  0.5712
 1991SOL    HW2 5973   2.394   3.995   1.004  0.1220  1.0031  0.3349
 1992SOL     OW 5974   0.008   0.370   1.229  0.0093  0.1768 -0.1313
 1992SOL    HW1 5975  -0.032   0.356   1.144 -0.2283 -1.2879  0.1902
 1992SOL    HW2 5976   0.099   0.345   1.217 -1.0919 -6.2666  1.3241
 1993SOL     OW 5977   1.715   2.767   2.743 -0.2149  0.2664 -0.2083
 1993SOL    HW1 5978   1.630   2.798   2.712 -0.6911 -0.8901 -0.0977
 1993SOL    HW2 5979   1.757   2.731   2.664 -0.2821 -0.1727 -0.0407
 1994SOL     OW 5980   3.955   2.417   3.462  0.1903 -0.4033  0.3282
 1994SOL    HW1 5981   4.007   2.354   3.511  0.0794 -1.7509 -1.2024
 1994SOL    HW2 5982   3.898   2.363   3.407  0.0290  1.0307 -0.9613
 1995SOL     OW 5983   1.626   1.172   1.502  0.9226  0.6155  0.2025
 1995SOL    HW1 5984   1.721   1.176   1.515  0.9382 -1.2307  1.0063
 1995SOL    HW2 5985   1.604   1.079   1.515 -1.3565  1.3956  2.6444
 1996SOL     OW 5986   2.703   2.160   0.401 -0.3323 -0.1467  0.0060
 1996SOL    HW1 5987   2.759   2.144   0.324 -0.1460  2.2871 -0.4162
 1996SOL    HW2 5988   2.682   2.072   0.433  1.8325 -1.1893 -1.2006
 1997SOL     OW 5989   2.653   2.564   2.177 -0.4662 -0.5070 -0.0422
 1997SOL    HW1 5990   2.658   2.659   2.192  2.7358 -0.3570 -1.2234
 1997SOL    HW2 5991   2.572   2.552   2.127 -1.1005  1.5460  0.3932
 1998SOL     OW 5992   3.040   1.855   2.414  0.3352 -0.0210 -0.4442
 1998SOL    HW1 5993   3.065   1.789   2.349 -0.0124  1.0528 -1.7143
 1998SOL    HW2 5994   2.950   1.833   2.437  0.2850 -0.1061 -0.7195
 1999SOL     OW 5995   1.011   1.616   2.845 -0.5637  0.9167  0.3119
 1999SOL    HW1 5996   0.941   1.655   2.897 -0.9260  0.0976  0.4394
 1999SOL    HW2 5997   1.069   1.690   2.824 -1.2418  1.5222  0.5504
 2000SOL     OW 5998   3.151   0.761   2.998  0.0953  0.0627 -0.1778
 2000SOL    HW1 5999   3.148   0.713   2.915  1.3140 -0.1043 -0.1443
 2000SOL    HW2 6000   3.218   0.716   3.049  0.2465  0.9429  0.4108
 2001SOL     OW 6001   1.946   0.566   1.232 -0.8958 -0.0962  0.4600
 2001SOL    HW1 6002   1.958   0.481   1.275  1.0819 -0.7811 -1.2991
 2001SOL    HW2 6003   1.878   0.550   1.166 -0.3662 -0.3726 -0.0190
 2002SOL     OW 6004   0.958   1.975   3.928  0.0071  0.7375 -0.0356
 2002SOL    HW1 6005   1.036   1.939   3.885  0.8583  1.9685  0.4321
 2002SOL    HW2 6006   0.922   2.037   3.865 -1.2373 -0.5731 -0.6811
 2003SOL     OW 6007   1.524   3.335   2.819  0.3271  0.1170 -0.1405
 2003SOL    HW1 6008   1.460   3.351   2.750  1.9790 -1.6709 -2.2471
 2003SOL    HW2 6009   1.575   3.416   2.824 -0.6943  0.7637  0.0232
 2004SOL     OW 6010   1.214   1.882   3.781  0.5252  0.5408  0.7446
 2004SOL    HW1 6011   1.164   1.893   3.701 -2.4227 -0.6584  2.2503
 2004SOL    HW2 6012   1.305   1.896   3.755 -0.1908 -0.5871 -2.9360
 2005SOL     OW 6013   0.657   0.480   3.183  0.1241 -0.3980  0.1801
 2005SOL    HW1 6014   0.585   0.492   3.121 -0.1375 -1.6519  0.2072
 2005SOL    HW2 6015   0.650   0.554   3.243 -1.4229 -0.7050  0.4337
 2006SOL     OW 6016   1.491   3.357   2.039 -0.1501 -0.6852  0.0001
 2006SOL    HW1 6017   1.531   3.270   2.050  0.1895 -0.4783  0.4293
 2006SOL    HW2 6018   1.397   3.339   2.036 -0.4106 -0.7956  3.7928
 2007SOL     OW 6019   1.350   0.893   3.493 -0.0626 -0.1925 -0.1087
 2007SOL    HW1 6020   1.417   0.842   3.539  0.8585 -0.5365 -1.7523
 2007SOL    HW2 6021   1.355   0.980   3.532  0.1571 -0.6678  0.9578
 2008SOL     OW 6022   1.080   3.604   1.448  0.1599 -0.4175  0.4758
 2008SOL    HW1 6023   1.112   3.686   1.411  1.1532 -1.6898 -1.6336
 2008SOL    HW2 6024   0.987   3.601   1.424 -0.2054  0.5751  1.6025
 2009SOL     OW 6025   1.219   3.815   1.346 -0.0477 -0.4845  0.3834
 2009SOL    HW1 6026   1.295   3.767   1.315 -0.1848 -0.2805 -0.2913
 2009SOL    HW2 6027   1.245   3.907   1.343 -0.8316 -0.2689 -1.4397
 2010SOL     OW 6028   3.000   1.951   1.536 -0.3823 -0.3076  0.1541
 2010SOL    HW1 6029   3.037   1.973   1.450 -1.3326  0.5329 -0.0668
 2010SOL    HW2 6030   2.939   2.022   1.554  0.0838 -0.2704  1.7180
 2011SOL     OW 6031   1.278   1.566   3.005  0.2450  0.0037 -0.0660
 2011SOL    HW1 6032   1.284   1.533   2.915  0.3826  0.4877 -0.2348
 2011SOL    HW2 6033   1.201   1.624   3.004 -0.8143 -1.3223  0.5574
 2012SOL     OW 6034   0.222   3.403   1.988 -0.5930 -0.8479  0.0531
 2012SOL    HW1 6035   0.257   3.480   1.944 -1.2626  0.6037  1.9602
 2012SOL    HW2 6036   0.293   3.373   2.045 -1.4747  0.5613  1.9897
 2013SOL     OW 6037   3.904   3.050   1.022  0.8358 -0.2793  0.3369
 2013SOL    HW1 6038   3.930   2.957   1.017 -1.9226 -1.0561 -1.4052
 2013SOL    HW2 6039   3.818   3.048   1.065  0.4001  1.3972 -0.4153
 2014SOL     OW 6040   2.945   1.914   3.351 -0.2439 -0.4814 -0.4145
 2014SOL    HW1 6041   2.960   2.008   3.341  0.4291 -0.2781  1.9081
 2014SOL    HW2 6042   2.924   1.884   3.263  1.6514  1.4614 -1.6428
 2015SOL     OW 6043   0.582   3.242   0.893 -0.4532 -0.2428  0.2471
 2015SOL    HW1 6044   0.614   3.171   0.838 -0.1843  1.0809 -1.3587
 2015SOL    HW2 6045   0.630   3.231   0.976 -2.0673 -3.2487  0.9435
 2016SOL     OW 6046   3.379   0.551   2.741 -0.5828 -0.1188  0.0759
 2016SOL    HW1 6047   3.447   0.505   2.692  0.6414  0.5079  1.0980
 2016SOL    HW2 6048   3.345   0.485   2.802 -0.0275 -0.1230  0.3867
 2017SOL     OW 6049   1.488   2.416   2.385  0.0588 -0.0137  0.4339
 2017SOL    HW1 6050   1.458   2.505   2.402 -0.8502  0.3151 -2.4076
 2017SOL    HW2 6051   1.442   2.362   2.450  0.1828  1.4710  1.8262
 2018SOL     OW 6052   2.984   3.034   2.456  0.1939  0.5968  0.1108
 2018SOL    HW1 6053   2.910   3.062   2.511 -1.1777  0.7531 -1.7325
 2018SOL    HW2 6054   2.955   2.952   2.417  1.9619 -0.5723  1.1331
 2019SOL     OW 6055   1.315   3.571   0.781 -0.7969 -0.7875 -0.2050
 2019SOL    HW1 6056   1.270   3.569   0.865 -2.9740  0.7690 -1.2231
 2019SOL    HW2 6057   1.406   3.593   0.802 -1.3166 -0.3298  1.7024
 2020SOL     OW 6058   2.695   1.230   1.195 -0.2440  0.3978 -0.0478
 2020SOL    HW1 6059   2.720   1.312   1.152  3.0584  0.5095  1.7455
 2020SOL    HW2 6060   2.740   1.233   1.280 -1.8794 -2.2890  1.0364
 2021SOL     OW 6061   3.157   0.370   3.817  0.0631 -0.3875  0.2547
 2021SOL    HW1 6062   3.177   0.293   3.870  1.5025  1.0447  1.9376
 2021SOL    HW2 6063   3.063   0.384   3.829 -0.0304 -1.3207  0.6934
 2022SOL     OW 6064   1.399   3.934   0.695 -0.4096  0.1876 -0.1772
 2022SOL    HW1 6065   1.350   3.951   0.615 -0.2247  0.8202 -0.1651
 2022SOL    HW2 6066   1.480   3.891   0.666 -0.8868 -0.7028 -0.2126
 2023SOL     OW 6067   0.440   2.104   1.750  0.5736  0.4819 -0.3997
 2023SOL    HW1 6068   0.392   2.032   1.710  0.7666 -0.8729  1.6470
 2023SOL    HW2 6069   0.486   2.064   1.823  1.5199  2.5249  0.1992
 2024SOL     OW 6070   2.000   0.976   2.680  0.3570  0.1047 -0.2456
 2024SOL    HW1 6071   1.962   1.052   2.723 -0.7114 -0.6400  0.1822
 2024SOL    HW2 6072   2.091   1.001   2.661  1.3457  0.1041  3.5635
 2025SOL     OW 6073   1.145   3.364   3.083 -0.2741  0.2280  0.4052
 2025SOL    HW1 6074   1.124   3.337   3.173 -0.9825  2.6142  1.0508
 2025SOL    HW2 6075   1.062   3.356   3.036 -1.5274  4.2093  1.5000
 2026SOL     OW 6076   3.882   0.430   3.169 -0.6993  0.6024  1.2573
 2026SOL    HW1 6077   3.850   0.460   3.254  1.8580  2.1110  1.8021
 2026SOL    HW2 6078   3.918   0.508   3.128 -0.1183 -0.4640 -0.3648
 2027SOL     OW 6079   0.422   1.495   2.098 -0.4183 -0.1789  0.2371
 2027SOL    HW1 6080   0.415   1.588   2.121 -0.8685 -0.1533  0.0016
 2027SOL    HW2 6081   0.499   1.490   2.042 -2.4428  0.6962 -2.8715
 2028SOL     OW 6082   1.503   2.677   3.777  0.0067  0.0352  0.6208
 2028SOL    HW1 6083   1.438   2.695   3.709  0.1393 -1.1791  0.1501
 2028SOL    HW2 6084   1.579   2.644   3.730 -0.5810 -2.7156  1.4387
 2029SOL     OW 6085   2.633   1.091   1.542  0.0254  0.0364  0.0681
 2029SOL    HW1 6086   2.647   1.176   1.501  1.5624  0.6464  1.7002
 2029SOL    HW2 6087   2.668   1.101   1.631  1.9731 -2.8170 -0.2274
 2030SOL     OW 6088   1.679   3.575   2.875  0.1835 -0.1325 -0.2092
 2030SOL    HW1 6089   1.633   3.644   2.827  2.4713  2.7764  1.4126
 2030SOL    HW2 6090   1.771   3.596   2.864  0.9040 -1.5622  2.3165
 2031SOL     OW 6091   1.864   0.173   0.751  0.0997  0.0219 -0.0712
 2031SOL    HW1 6092   1.890   0.250   0.800  1.2290 -0.6101  0.3510
 2031SOL    HW2 6093   1.773   0.157   0.778  0.8018 -0.5480  2.1760
 2032SOL     OW 6094   1.934   1.344   0.742 -0.1482 -0.3210  0.7051
 2032SOL    HW1 6095   1.880   1.298   0.677 -0.2352 -0.8494  1.1431
 2032SOL    HW2 6096   1.941   1.434   0.708  0.5732 -0.8062 -0.4987
 2033SOL     OW 6097   1.756   2.570   0.495 -0.0189 -0.1907 -0.2301
 2033SOL    HW1 6098   1.828   2.586   0.556 -1.0726 -0.1084  1.0115
 2033SOL    HW2 6099   1.774   2.482   0.460  0.5276 -0.2922  0.2901
 2034SOL     OW 6100   1.274   0.264   1.667 -0.4279  0.2480  0.3176
 2034SOL    HW1 6101   1.244   0.225   1.749 -1.8281  1.0011  0.2024
 2034SOL    HW2 6102   1.286   0.357   1.688 -1.8121  0.6667 -0.5267
 2035SOL     OW 6103   2.441   1.169   2.751  0.1062 -0.3542 -0.3104
 2035SOL    HW1 6104   2.533   1.156   2.776  1.0607 -0.1959 -3.2574
 2035SOL    HW2 6105   2.420   1.257   2.780  0.4432 -0.8082  1.4446
 2036SOL     OW 6106   0.512   2.915   1.055  0.8553 -0.1284 -0.7456
 2036SOL    HW1 6107   0.498   2.820   1.064  0.6984 -0.0225  0.1950
 2036SOL    HW2 6108   0.474   2.937   0.970 -0.9955 -0.5499 -0.0626
 2037SOL     OW 6109   2.695   1.746   1.916  0.2906  0.5245  0.2480
 2037SOL    HW1 6110   2.626   1.787   1.967 -1.1614 -0.2913 -0.9818
 2037SOL    HW2 6111   2.757   1.817   1.897  0.0980  1.1493  1.8240
 2038SOL     OW 6112   2.378   0.356   2.864 -0.8198 -0.3411 -0.3941
 2038SOL    HW1 6113   2.387   0.261   2.862 -0.8174 -0.3380 -1.1509
 2038SOL    HW2 6114   2.427   0.384   2.941 -2.5339 -1.1130  1.0187
 2039SOL     OW 6115   0.964   1.724   1.072  0.1674  0.2998  0.9946
 2039SOL    HW1 6116   1.046   1.693   1.110  0.8529 -0.2974 -0.8531
 2039SOL    HW2 6117   0.979   1.723   0.977 -1.7513  0.8198  0.6297
 2040SOL     OW 6118   0.071   0.628   3.058 -0.4704  0.0577 -0.2317
 2040SOL    HW1 6119   0.142   0.620   3.122 -0.7458 -1.0736 -0.0522
 2040SOL    HW2 6120   0.090   0.710   3.011  0.7542 -0.0510  0.0462
 2041SOL     OW 6121   3.783   0.684   3.204 -0.4024 -0.5291  0.0877
 2041SOL    HW1 6122   3.729   0.675   3.283  0.3149  0.3920  0.7065
 2041SOL    HW2 6123   3.838   0.761   3.221  0.3141 -0.7784 -0.9903
 2042SOL     OW 6124   3.864   1.342   0.937  0.2857  0.1609  0.6211
 2042SOL    HW1 6125   3.894   1.304   0.854 -0.6094 -1.0171  0.8104
 2042SOL    HW2 6126   3.856   1.267   0.996  1.5924  1.0728  2.0078
 2043SOL     OW 6127   3.844   1.047   2.588  0.0721  0.1120  0.1341
 2043SOL    HW1 6128   3.820   1.139   2.576 -2.8190 -0.3221  1.6487
 2043SOL    HW2 6129   3.889   1.045   2.672  0.4134  0.1642 -0.0447
 2044SOL     OW 6130   3.247   3.555   0.163 -0.0870  0.1678 -0.2609
 2044SOL    HW1 6131   3.215   3.596   0.083 -0.6243  0.0213 -0.1264
 2044SOL    HW2 6132   3.168   3.533   0.212  0.2387  0.6446  0.5035
 2045SOL     OW 6133   2.798   0.312   1.891 -0.0893 -0.5621 -0.5503
 2045SOL    HW1 6134   2.772   0.360   1.970  0.9346  1.4231 -1.3478
 2045SOL    HW2 6135   2.875   0.261   1.919  0.2650  0.1230 -0.2504
 2046SOL     OW 6136   2.410   3.032   3.467  1.3963  0.3655  0.2135
 2046SOL    HW1 6137   2.414   2.936   3.467 -2.2735  0.0681  1.1954
 2046SOL    HW2 6138   2.400   3.055   3.559  0.3971  1.5307 -0.1663
 2047SOL     OW 6139   1.146   0.546   2.847 -0.7036  0.2692  0.2180
 2047SOL    HW1 6140   1.184   0.622   2.804 -0.3886 -0.1305 -0.2194
 2047SOL    HW2 6141   1.192   0.540   2.931 -1.2917  1.0273  0.6086
 2048SOL     OW 6142   1.243   2.467   3.618  0.1527  0.1468  0.7149
 2048SOL    HW1 6143   1.172   2.513   3.663 -1.1236  0.9441 -1.9675
 2048SOL    HW2 6144   1.298   2.434   3.690 -2.1347  0.6828  2.8693
 2049SOL     OW 6145   4.021   0.434   2.072  0.4052 -0.2940  0.3208
 2049SOL    HW1 6146   3.926   0.434   2.063  0.4732  1.3276 -0.8256
 2049SOL    HW2 6147   4.045   0.342   2.077 -1.5124 -0.8069  4.6066
 2050SOL     OW 6148   1.576   0.975   0.880 -0.4975  0.3613 -0.3161
 2050SOL    HW1 6149   1.655   0.934   0.845 -0.7673 -0.9251  0.4922
 2050SOL    HW2 6150   1.570   0.942   0.970 -0.1711  3.0378  0.7697
 2051SOL     OW 6151   1.499   2.720   0.776 -0.2567  0.6424 -0.5854
 2051SOL    HW1 6152   1.527   2.788   0.838  3.7337  0.3292 -1.7443
 2051SOL    HW2 6153   1.488   2.642   0.830 -0.4359  1.1735  0.1685
 2052SOL     OW 6154   0.898   0.609   3.199  0.3890  0.1047  0.0504
 2052SOL    HW1 6155   0.842   0.536   3.172  2.3163 -1.6734  0.5795
 2052SOL    HW2 6156   0.840   0.684   3.201 -1.5175 -1.2311 -1.3731
 2053SOL     OW 6157   2.404   3.936   2.045  0.5112 -0.5103 -0.1543
 2053SOL    HW1 6158   2.353   4.000   2.095  2.0076  1.4386 -0.9512
 2053SOL    HW2 6159   2.404   3.972   1.956  2.1894 -1.1164 -0.4232
 2054SOL     OW 6160   2.535   0.726   2.579  0.6580 -0.3657  0.0677
 2054SOL    HW1 6161   2.445   0.696   2.587 -0.3467  2.3735  0.1003
 2054SOL    HW2 6162   2.559   0.753   2.668  0.4167  1.5782 -0.4033
 2055SOL     OW 6163   3.742   0.229   2.046 -0.3461 -0.3227  0.3843
 2055SOL    HW1 6164   3.727   0.324   2.045  0.0253 -0.2577  0.5774
 2055SOL    HW2 6165   3.727   0.203   2.137  1.3236 -0.1362  0.7527
 2056SOL     OW 6166   0.254   3.194   3.800  0.3554 -0.0805 -0.6002
 2056SOL    HW1 6167   0.179   3.219   3.854 -1.0057 -2.4229 -1.2580
 2056SOL    HW2 6168   0.251   3.256   3.727 -1.9649 -1.0416 -1.4327
 2057SOL     OW 6169   0.266   0.071   3.992  0.7025  0.1440  0.4951
 2057SOL    HW1 6170   0.245   0.017   3.917  2.5707 -0.9691  0.7075
 2057SOL    HW2 6171   0.248   0.015   4.068  0.9121  0.4776  0.7942
 2058SOL     OW 6172   2.101   1.867   0.490  0.1424  0.5206  0.1728
 2058SOL    HW1 6173   2.094   1.788   0.436 -2.1812  2.5144 -2.8391
 2058SOL    HW2 6174   2.016   1.873   0.534 -1.2783  2.9703 -2.5024
 2059SOL     OW 6175   3.571   1.967   0.756  0.5041 -0.0973 -0.0210
 2059SOL    HW1 6176   3.577   1.889   0.810  0.9548  0.1275  0.2645
 2059SOL    HW2 6177   3.600   2.038   0.813  0.4653  0.2255 -0.3929
 2060SOL     OW 6178   2.862   0.379   1.320  0.2346 -0.1345 -0.2375
 2060SOL    HW1 6179   2.799   0.451   1.327 -1.7555 -1.8505  0.6917
 2060SOL    HW2 6180   2.879   0.353   1.411  0.1999 -1.3756 -0.5596
 2061SOL     OW 6181   0.647   0.790   0.842  0.5756 -0.0403 -0.2723
 2061SOL    HW1 6182   0.633   0.842   0.922 -1.5006  1.3224 -1.4355
 2061SOL    HW2 6183   0.712   0.839   0.792  1.2547 -0.4535  0.1966
 2062SOL     OW 6184   1.447   2.038   3.873 -0.0807 -0.0940 -0.2088
 2062SOL    HW1 6185   1.440   1.971   3.941  1.4891 -1.6927 -1.5266
 2062SOL    HW2 6186   1.539   2.038   3.847 -0.3543  1.4698 -1.3702
 2063SOL     OW 6187   3.575   2.267   1.450 -0.3546 -0.4199  0.2151
 2063SOL    HW1 6188   3.514   2.195   1.464 -0.1157 -0.6807 -0.0720
 2063SOL    HW2 6189   3.531   2.324   1.387 -0.3875 -0.5039  0.1622
 2064SOL     OW 6190   3.393   1.202   3.578  0.2395 -0.0953  0.3706
 2064SOL    HW1 6191   3.299   1.220   3.581  0.2187 -0.2598  0.6770
 2064SOL    HW2 6192   3.417   1.183   3.668  0.6396  0.2933  0.3515
 2065SOL     OW 6193   0.772   1.691   3.857 -0.5161  0.1228 -0.4638
 2065SOL    HW1 6194   0.841   1.736   3.807 -0.7935  0.0786 -0.8895
 2065SOL    HW2 6195   0.748   1.616   3.802 -1.3676  0.5095 -0.6229
 2066SOL     OW 6196   3.896   2.854   1.373  0.7444 -0.6229  0.5669
 2066SOL    HW1 6197   3.889   2.877   1.465  1.5335 -0.1960  0.5339
 2066SOL    HW2 6198   3.829   2.907   1.329  0.8335 -0.3032  0.8136
 2067SOL     OW 6199   3.831   3.647   3.471  0.5056 -0.0452 -0.2668
 2067SOL    HW1 6200   3.746   3.607   3.491  0.7410 -0.8990 -0.9257
 2067SOL    HW2 6201   3.892   3.573   3.467  1.1190  0.4737 -0.6205
 2068SOL     OW 6202   0.808   2.002   1.769  0.3115  0.0675 -0.3166
 2068SOL    HW1 6203   0.900   2.016   1.747 -0.3143 -0.0067 -3.4789
 2068SOL    HW2 6204   0.771   1.957   1.693 -2.1946 -0.6352  1.1836
 2069SOL     OW 6205   3.484   2.759   2.491 -0.5508 -0.4659 -0.1218
 2069SOL    HW1 6206   3.474   2.729   2.400 -1.0959  2.5473 -1.1546
 2069SOL    HW2 6207   3.406   2.812   2.507  0.6458  0.9355  1.3231
 2070SOL     OW 6208   2.744   2.731   1.943 -0.5673  0.1324  0.2775
 2070SOL    HW1 6209   2.684   2.768   1.877  0.1383 -0.1141 -0.5220
 2070SOL    HW2 6210   2.732   2.637   1.937  0.6241  0.0087 -0.6334
 2071SOL     OW 6211   2.640   0.959   2.438 -0.5709  0.0154 -0.3465
 2071SOL    HW1 6212   2.615   0.879   2.485 -0.4064  0.0734 -0.1589
 2071SOL    HW2 6213   2.735   0.965   2.451 -0.6838  0.6051  0.2033
 2072SOL     OW 6214   0.073   2.522   2.927  0.8632 -0.3654 -0.1197
 2072SOL    HW1 6215   0.056   2.580   2.853 -0.4834 -0.2454  0.2525
 2072SOL    HW2 6216   0.135   2.571   2.982  0.3705  0.3792 -0.2137
 2073SOL     OW 6217   3.794   2.738   2.539  0.3386 -0.4766 -0.0170
 2073SOL    HW1 6218   3.754   2.785   2.612 -0.0690 -0.7745 -0.0470
 2073SOL    HW2 6219   3.816   2.807   2.476  1.9969 -0.0511  0.9752
 2074SOL     OW 6220   3.900   3.590   1.897 -0.0569 -0.3622  0.3883
 2074SOL    HW1 6221   3.897   3.497   1.872 -1.3283 -0.3189  0.2845
 2074SOL    HW2 6222   3.809   3.620   1.887 -0.1226  0.3318  2.5319
 2075SOL     OW 6223   3.221   2.258   0.160  0.9756 -0.3224 -0.1195
 2075SOL    HW1 6224   3.174   2.324   0.210 -0.4024 -0.9447 -0.5370
 2075SOL    HW2 6225   3.216   2.288   0.069  2.7748  0.3985 -0.0117
 2076SOL     OW 6226   1.168   3.890   3.808 -0.3329 -1.0397 -0.5859
 2076SOL    HW1 6227   1.173   3.969   3.754  0.4004 -1.0735 -0.5666
 2076SOL    HW2 6228   1.091   3.844   3.774 -1.8938  0.5613  0.6170
 2077SOL     OW 6229   0.887   2.124   1.194 -0.3426  0.0969 -0.4894
 2077SOL    HW1 6230   0.803   2.162   1.222 -0.5482 -0.6642 -0.0391
 2077SOL    HW2 6231   0.870   2.088   1.107 -0.1071  1.1381 -0.9841
 2078SOL     OW 6232   3.687   2.173   3.854 -0.0016  0.6124  0.4799
 2078SOL    HW1 6233   3.756   2.181   3.789  0.5327  0.3017  0.9948
 2078SOL    HW2 6234   3.666   2.080   3.858  2.6072 -0.0187  3.3494
 2079SOL     OW 6235   1.185   3.353   0.209  0.7836  0.3987 -0.4522
 2079SOL    HW1 6236   1.145   3.439   0.219 -0.4722 -0.2240  0.0482
 2079SOL    HW2 6237   1.111   3.294   0.191  1.6693 -0.4982 -1.2641
 2080SOL     OW 6238   1.632   1.240   1.790  0.3742  0.1741  0.3904
 2080SOL    HW1 6239   1.628   1.174   1.858 -0.4471 -0.3444 -0.1460
 2080SOL    HW2 6240   1.602   1.195   1.711  5.5089 -0.6511 -1.4863
 2081SOL     OW 6241   1.448   0.672   2.705 -0.7021  0.2549  0.2194
 2081SOL    HW1 6242   1.535   0.648   2.674 -0.3873  0.1142  1.1826
 2081SOL    HW2 6243   1.450   0.767   2.714 -0.8128  0.3034 -0.2020
 2082SOL     OW 6244   2.438   2.553   3.336 -0.6771  0.1490  0.0887
 2082SOL    HW1 6245   2.489   2.631   3.359 -0.9765  0.6375 -0.8415
 2082SOL    HW2 6246   2.412   2.568   3.245  2.9558 -3.0412 -1.7386
 2083SOL     OW 6247   0.189   3.900   2.973 -0.4502  0.1441  0.9439
 2083SOL    HW1 6248   0.205   3.984   2.930 -0.8634 -0.4287 -0.3605
 2083SOL    HW2 6249   0.133   3.922   3.048 -0.3057  1.0585  0.7985
 2084SOL     OW 6250   3.026   1.259   0.696  0.0123 -0.6478  0.6004
 2084SOL    HW1 6251   3.069   1.330   0.742 -0.7092 -0.3429  0.8249
 2084SOL    HW2 6252   2.963   1.303   0.638 -1.6258 -1.1102  1.9345
 2085SOL     OW 6253   1.201   0.207   3.506 -0.1252  0.3187 -0.1404
 2085SOL    HW1 6254   1.238   0.135   3.454  0.0476 -2.2755  3.2580
 2085SOL    HW2 6255   1.134   0.245   3.449  0.4762 -1.8087 -2.4844
 2086SOL     OW 6256   3.716   2.466   2.746  0.1020 -0.2819 -0.6507
 2086SOL    HW1 6257   3.663   2.456   2.667  1.5430 -0.4882 -1.6339
 2086SOL    HW2 6258   3.801   2.430   2.722  0.9693  0.8546  0.5803
 2087SOL     OW 6259   2.825   0.343   0.381 -0.2210  0.1806  0.0932
 2087SOL    HW1 6260   2.891   0.336   0.450  0.7059  0.2745 -0.7564
 2087SOL    HW2 6261   2.760   0.277   0.403 -1.4163  2.0306  2.5769
 2088SOL     OW 6262   3.334   1.132   2.230 -0.2163  0.0885 -0.0440
 2088SOL    HW1 6263   3.324   1.102   2.140 -1.6112 -1.1918  0.4996
 2088SOL    HW2 6264   3.396   1.205   2.224 -1.0342  0.6806 -2.1619
 2089SOL     OW 6265   3.390   0.960   3.440  0.2715 -0.5654  0.2435
 2089SOL    HW1 6266   3.337   0.906   3.499 -0.2530 -0.1404  0.1690
 2089SOL    HW2 6267   3.414   1.036   3.491 -2.1318  0.9639 -0.7119
 2090SOL     OW 6268   0.185   2.887   1.100 -0.3568  0.1776 -0.2761
 2090SOL    HW1 6269   0.137   2.906   1.019 -2.0459 -1.9580  0.1104
 2090SOL    HW2 6270   0.228   2.803   1.083 -2.2236 -1.2717  1.5295
 2091SOL     OW 6271   3.859   2.275   3.246 -0.4517 -0.1998 -0.0983
 2091SOL    HW1 6272   3.845   2.182   3.227 -0.7919  0.0450 -1.0754
 2091SOL    HW2 6273   3.822   2.321   3.171 -0.2306  0.7291  0.3499
 2092SOL     OW 6274   2.321   2.583   0.664  0.8947  0.3409  0.2602
 2092SOL    HW1 6275   2.299   2.612   0.576 -2.0130  1.7346  1.3055
 2092SOL    HW2 6276   2.278   2.497   0.673  0.5382  0.5443  0.5394
 2093SOL     OW 6277   2.265   1.662   0.219  0.6780 -0.2703 -0.3451
 2093SOL    HW1 6278   2.265   1.758   0.226 -0.6198 -0.1827 -1.2177
 2093SOL    HW2 6279   2.352   1.641   0.186  1.0623  0.5899  0.0884
 2094SOL     OW 6280   2.033   1.577   0.354  0.3335 -0.3124 -0.4000
 2094SOL    HW1 6281   2.110   1.590   0.298  0.3223  0.2315 -0.2982
 2094SOL    HW2 6282   1.958   1.583   0.294  0.3082  0.5434 -0.2922
 2095SOL     OW 6283   1.225   0.507   3.141 -0.1245 -0.5874 -0.2659
 2095SOL    HW1 6284   1.307   0.555   3.131 -0.1514 -0.6737 -0.9643
 2095SOL    HW2 6285   1.252   0.417   3.162 -0.0736 -0.3123  0.9348
 2096SOL     OW 6286   3.944   3.922   0.741  0.6727 -0.3717 -0.4090
 2096SOL    HW1 6287   3.859   3.878   0.739  1.0540 -1.1997  0.4639
 2096SOL    HW2 6288   3.931   4.002   0.692 -0.2645 -1.1016 -1.3985
 2097SOL     OW 6289   3.143   0.214   2.576 -0.2438  0.0450  0.2995
 2097SOL    HW1 6290   3.203   0.279   2.542  0.2612 -0.3736  0.3834
 2097SOL    HW2 6291   3.122   0.159   2.501 -1.0965  0.6141  0.1006
 2098SOL     OW 6292   2.424   2.818   3.910  0.1727  0.2378 -0.2767
 2098SOL    HW1 6293   2.465   2.785   3.989 -0.6504 -0.9779 -0.3212
 2098SOL    HW2 6294   2.374   2.895   3.939 -1.7165 -1.3181  0.8196
 2099SOL     OW 6295   1.181   0.170   1.917  0.0057  0.0515  0.1664
 2099SOL    HW1 6296   1.173   0.240   1.982 -1.3113  0.5437 -0.4780
 2099SOL    HW2 6297   1.207   0.093   1.967  0.3746  0.7413  1.0632
 2100SOL     OW 6298   3.553   3.487   3.007  0.1654 -0.2543 -0.1808
 2100SOL    HW1 6299   3.579   3.396   2.988  0.0921 -0.4352  0.5431
 2100SOL    HW2 6300   3.590   3.504   3.094 -0.7743  0.0283  0.1733
 2101SOL     OW 6301   3.660   2.951   0.756  0.1779  0.4707 -0.7665
 2101SOL    HW1 6302   3.592   2.959   0.823 -1.5410 -0.9776 -2.2130
 2101SOL    HW2 6303   3.674   3.040   0.725 -3.4100  0.6318 -2.5168
 2102SOL     OW 6304   1.625   1.628   1.749 -0.0852  0.0801  0.5284
 2102SOL    HW1 6305   1.627   1.560   1.681 -1.9775  0.9176 -0.4370
 2102SOL    HW2 6306   1.601   1.581   1.829  1.1576 -0.7599  0.4343
 2103SOL     OW 6307   1.311   3.661   2.681  0.4268  0.1020 -1.0088
 2103SOL    HW1 6308   1.276   3.601   2.747  0.3808 -1.8184 -2.6835
 2103SOL    HW2 6309   1.400   3.680   2.710  0.3204 -0.5166 -0.2610
 2104SOL     OW 6310   1.884   2.102   2.234 -0.3523  0.7766  0.2754
 2104SOL    HW1 6311   1.960   2.051   2.206 -0.4525  1.6463 -1.7989
 2104SOL    HW2 6312   1.820   2.036   2.261  0.5375 -0.0472  0.4262
 2105SOL     OW 6313   0.517   3.352   3.142 -0.0680  0.1510  0.0432
 2105SOL    HW1 6314   0.589   3.416   3.144 -0.7319  0.9168  0.9413
 2105SOL    HW2 6315   0.443   3.401   3.107 -0.8843  0.2495  1.7724
 2106SOL     OW 6316   3.026   2.817   1.783 -0.3265 -0.0691  0.1124
 2106SOL    HW1 6317   3.004   2.881   1.851 -0.2297 -0.3579  0.4205
 2106SOL    HW2 6318   2.988   2.852   1.703 -0.9100  0.0127  0.4185
 2107SOL     OW 6319   0.859   0.253   3.178 -0.5971 -0.9454  0.3496
 2107SOL    HW1 6320   0.906   0.267   3.096  0.6306  0.9245  1.3100
 2107SOL    HW2 6321   0.768   0.274   3.157 -0.1201  0.5896 -0.2903
 2108SOL     OW 6322   2.890   2.305   3.640 -0.3529 -0.3619 -0.9602
 2108SOL    HW1 6323   2.971   2.266   3.607  1.2217  0.6389  1.4622
 2108SOL    HW2 6324   2.821   2.244   3.613  1.3032 -1.7081 -2.3293
 2109SOL     OW 6325   1.573   0.717   3.576  0.5642 -0.1166  0.2586
 2109SOL    HW1 6326   1.620   0.638   3.548  2.4775  0.1916  2.3321
 2109SOL    HW2 6327   1.560   0.705   3.670 -0.7439  1.2794  0.2943
 2110SOL     OW 6328   2.154   2.170   2.057 -0.3523 -0.0746 -0.4624
 2110SOL    HW1 6329   2.211   2.238   2.021  0.1141  0.1335  0.6071
 2110SOL    HW2 6330   2.210   2.091   2.059  0.3305  0.4011  1.6556
 2111SOL     OW 6331   3.426   0.342   3.303 -0.1478  0.4458  0.1843
 2111SOL    HW1 6332   3.451   0.311   3.390 -1.6452  0.9591  0.8349
 2111SOL    HW2 6333   3.331   0.354   3.309 -0.3296  0.0810 -1.6586
 2112SOL     OW 6334   3.094   0.093   3.573 -0.2613 -0.7862 -0.1624
 2112SOL    HW1 6335   3.081   0.178   3.530 -1.6330 -0.4794  0.8082
 2112SOL    HW2 6336   3.189   0.087   3.585  0.1971 -0.9378 -3.2586
 2113SOL     OW 6337   1.617   3.129   2.689  0.0471 -0.0408  0.0562
 2113SOL    HW1 6338   1.528   3.098   2.672 -0.2599  0.4290  0.7581
 2113SOL    HW2 6339   1.605   3.205   2.746  0.8898  0.1569 -0.0227
 2114SOL     OW 6340   3.211   1.967   0.076  0.8895  0.0539 -0.2689
 2114SOL    HW1 6341   3.149   1.988   0.006 -2.8377  1.3938  2.9974
 2114SOL    HW2 6342   3.264   2.046   0.085  1.2931 -0.0724 -1.4210
 2115SOL     OW 6343   1.889   1.237   2.256 -0.4818  0.6242 -0.0333
 2115SOL    HW1 6344   1.861   1.170   2.193 -0.1366  0.3687  0.0839
 2115SOL    HW2 6345   1.813   1.249   2.313  0.0908 -1.1351  1.1963
 2116SOL     OW 6346   3.738   2.165   1.713 -0.3104 -0.1933  0.2105
 2116SOL    HW1 6347   3.667   2.116   1.754  0.2385 -1.5212 -0.3485
 2116SOL    HW2 6348   3.736   2.137   1.621  0.3602  0.4427 -0.0074
 2117SOL     OW 6349   3.001   2.355   0.471  0.4764  0.2681  0.3829
 2117SOL    HW1 6350   2.928   2.381   0.416 -0.8229  1.3736  2.5023
 2117SOL    HW2 6351   3.079   2.368   0.416 -0.8745 -2.3525 -2.4589
 2118SOL     OW 6352   2.119   1.188   0.433 -0.1377  0.1796  0.0918
 2118SOL    HW1 6353   2.024   1.180   0.429 -0.1337 -0.3845  0.8881
 2118SOL    HW2 6354   2.139   1.263   0.377 -1.0276  0.1658 -0.2608
 2119SOL     OW 6355   3.424   1.872   2.656 -0.2895 -0.3355  0.0205
 2119SOL    HW1 6356   3.362   1.801   2.637 -1.1694 -0.8384  3.8258
 2119SOL    HW2 6357   3.505   1.827   2.681 -0.1716  0.0774  0.3931
 2120SOL     OW 6358   1.338   2.452   1.903  0.7319 -0.4901 -0.2750
 2120SOL    HW1 6359   1.298   2.492   1.826  1.1288  0.6317  0.0761
 2120SOL    HW2 6360   1.394   2.521   1.939 -0.0808 -0.6895  1.4908
 2121SOL     OW 6361   0.684   2.967   2.333 -0.8007 -0.2891 -1.1125
 2121SOL    HW1 6362   0.653   2.877   2.323 -2.7633  0.2181 -0.0734
 2121SOL    HW2 6363   0.646   3.014   2.259 -2.8273  0.3859  0.2905
 2122SOL     OW 6364   2.312   1.360   2.216 -0.3064  0.4295  0.4985
 2122SOL    HW1 6365   2.262   1.412   2.153 -1.8117 -1.3622  0.1490
 2122SOL    HW2 6366   2.379   1.317   2.163 -0.4932  0.2519  0.4052
 2123SOL     OW 6367   0.635   2.909   3.281  0.4939  0.7836  0.0326
 2123SOL    HW1 6368   0.579   2.832   3.269  0.8519  0.9020 -3.3751
 2123SOL    HW2 6369   0.684   2.891   3.361 -0.7297 -1.6897  0.3056
 2124SOL     OW 6370   3.782   0.609   2.666  0.4833  0.0524  0.9033
 2124SOL    HW1 6371   3.718   0.672   2.698 -0.4116 -0.9528  1.1384
 2124SOL    HW2 6372   3.772   0.533   2.724  0.2826 -0.9977 -0.4570
 2125SOL     OW 6373   0.651   1.505   1.682  0.5658  0.1561 -0.1506
 2125SOL    HW1 6374   0.588   1.570   1.712  0.8720  0.1791  0.4724
 2125SOL    HW2 6375   0.641   1.502   1.587 -0.3031  0.2231 -0.0641
 2126SOL     OW 6376   0.089   1.644   0.985  0.1265  0.3116 -0.6280
 2126SOL    HW1 6377   0.102   1.658   1.078  1.4326 -2.6720 -0.2585
 2126SOL    HW2 6378  -0.006   1.645   0.973 -0.0375  1.3028  0.5744
 2127SOL     OW 6379   2.064   0.161   1.716 -0.3701  0.5603  0.3874
 2127SOL    HW1 6380   2.060   0.080   1.665  0.5275  0.6246  0.1946
 2127SOL    HW2 6381   1.986   0.209   1.691 -1.9005 -1.0314  1.8634
 2128SOL     OW 6382   3.337   0.437   0.136  0.1987  0.0803  0.4407
 2128SOL    HW1 6383   3.412   0.399   0.183  1.1523  0.8455 -0.4185
 2128SOL    HW2 6384   3.362   0.433   0.044 -0.4042  1.2032  0.2075
 2129SOL     OW 6385   1.505   2.261   0.099  0.7533 -0.1622 -0.7346
 2129SOL    HW1 6386   1.433   2.319   0.122  0.5054 -0.1162 -1.5997
 2129SOL    HW2 6387   1.463   2.179   0.073  1.1307 -1.1121  1.4222
 2130SOL     OW 6388   3.573   2.971   3.532  0.3720  0.3443  0.3128
 2130SOL    HW1 6389   3.494   3.005   3.489  1.8621  1.1235 -2.0064
 2130SOL    HW2 6390   3.541   2.934   3.615 -2.7013 -1.2253 -1.3907
 2131SOL     OW 6391   1.908   3.969   3.614  0.7163  0.1928 -0.2493
 2131SOL    HW1 6392   1.815   3.949   3.630  0.4834  0.1637 -1.5793
 2131SOL    HW2 6393   1.955   3.915   3.678 -0.0479 -2.1725 -1.5764
 2132SOL     OW 6394   3.499   1.350   1.411  0.2407  0.7598  0.1502
 2132SOL    HW1 6395   3.561   1.277   1.422  0.8620  1.4727  1.6232
 2132SOL    HW2 6396   3.437   1.340   1.482  1.1874  2.4573  1.2903
 2133SOL     OW 6397   1.673   0.300   3.246 -0.4360  0.3822 -0.2557
 2133SOL    HW1 6398   1.590   0.270   3.210 -1.1713 -0.1007  1.7373
 2133SOL    HW2 6399   1.720   0.219   3.269  1.0278  0.6081 -2.1698
 2134SOL     OW 6400   0.438   3.426   2.493 -0.2020  0.3827  0.5545
 2134SOL    HW1 6401   0.439   3.339   2.451  0.4376  1.2340 -1.2913
 2134SOL    HW2 6402   0.407   3.409   2.582 -1.1423 -1.5956 -0.0875
 2135SOL     OW 6403   1.777   3.057   0.175  0.8619  0.1398 -0.2331
 2135SOL    HW1 6404   1.755   3.008   0.096 -0.3620  1.4844 -0.7818
 2135SOL    HW2 6405   1.747   3.003   0.247  0.1084 -0.1950 -0.7905
 2136SOL     OW 6406   0.406   2.346   1.663 -0.7400  0.3815  0.1939
 2136SOL    HW1 6407   0.430   2.419   1.721 -0.3841  0.5655 -0.1826
 2136SOL    HW2 6408   0.435   2.268   1.711  1.3675  0.6263 -0.5672
 2137SOL     OW 6409   0.635   0.985   1.038  0.1362  0.1998  0.4380
 2137SOL    HW1 6410   0.642   0.962   1.131  0.5679  0.4839  0.4800
 2137SOL    HW2 6411   0.712   1.039   1.021  1.7428 -2.3076 -0.8414
 2138SOL     OW 6412   2.697   1.207   0.652  0.3839 -0.1214  0.1729
 2138SOL    HW1 6413   2.615   1.229   0.609  0.7005  1.2150  0.2093
 2138SOL    HW2 6414   2.761   1.267   0.615  1.2039 -0.6661  0.6584
 2139SOL     OW 6415   2.970   1.993   0.903  0.3777 -0.4559 -0.2271
 2139SOL    HW1 6416   2.889   1.982   0.953  1.2162 -0.1645  1.2504
 2139SOL    HW2 6417   2.970   2.085   0.876  0.6380 -0.2300  0.5369
 2140SOL     OW 6418   2.051   3.492   2.119 -0.6380  0.2070  0.9260
 2140SOL    HW1 6419   1.957   3.473   2.123 -0.2299 -1.9674  1.8751
 2140SOL    HW2 6420   2.074   3.480   2.027 -1.1528  0.0290  0.8169
 2141SOL     OW 6421   3.222   1.562   2.840  0.5168  0.6377  0.4042
 2141SOL    HW1 6422   3.206   1.553   2.746 -1.8574  0.7980  0.7289
 2141SOL    HW2 6423   3.136   1.551   2.880  1.4980  0.4371  2.5889
 2142SOL     OW 6424   0.960   2.690   3.683  0.1393 -0.1065  0.5906
 2142SOL    HW1 6425   0.886   2.727   3.635 -0.3756 -0.1706  1.3083
 2142SOL    HW2 6426   0.924   2.611   3.724  0.1544  0.6898  2.2252
 2143SOL     OW 6427   3.347   2.926   3.196 -0.0691 -0.2927 -0.0433
 2143SOL    HW1 6428   3.409   2.901   3.128 -1.9568 -0.4063 -1.8120
 2143SOL    HW2 6429   3.320   3.015   3.173 -1.0257 -0.4760  0.3057
 2144SOL     OW 6430   1.474   0.671   0.459  0.6086  0.3410 -0.3709
 2144SOL    HW1 6431   1.502   0.755   0.495  2.8646 -0.6431  0.3433
 2144SOL    HW2 6432   1.542   0.647   0.397 -0.6518 -0.4134 -1.5183
 2145SOL     OW 6433   1.233   3.888   3.155 -0.1272  0.1379 -0.2455
 2145SOL    HW1 6434   1.198   3.806   3.190  0.1795  0.3258  0.5356
 2145SOL    HW2 6435   1.160   3.950   3.162  0.4045  0.6241  1.7213
 2146SOL     OW 6436   0.881   1.971   2.499  0.7614 -0.2585 -0.2360
 2146SOL    HW1 6437   0.970   1.982   2.531  0.3464  2.0540  0.3004
 2146SOL    HW2 6438   0.827   1.969   2.577  0.1289  1.1149 -0.6043
 2147SOL     OW 6439   0.182   2.287   0.222 -0.1345 -0.6796  0.7954
 2147SOL    HW1 6440   0.105   2.245   0.184 -0.2614 -0.2515  0.5680
 2147SOL    HW2 6441   0.191   2.248   0.309 -1.7801  0.6603  1.6280
 2148SOL     OW 6442   1.520   2.315   3.803  0.4345  0.0041  0.7347
 2148SOL    HW1 6443   1.462   2.311   3.726 -0.8195 -0.4268  1.6594
 2148SOL    HW2 6444   1.500   2.235   3.851  1.3135  0.2006  1.4375
 2149SOL     OW 6445   0.373   2.332   2.561 -0.3081  0.1002  0.2205
 2149SOL    HW1 6446   0.323   2.306   2.638 -0.2952  1.1993  0.6242
 2149SOL    HW2 6447   0.330   2.287   2.488 -1.1610  0.1039  0.7114
 2150SOL     OW 6448   3.688   0.641   0.204  0.5954  0.7228  0.5409
 2150SOL    HW1 6449   3.751   0.631   0.133  2.1431 -1.5915  2.1004
 2150SOL    HW2 6450   3.605   0.661   0.160  1.2280 -1.6975 -2.0405
 2151SOL     OW 6451   2.182   1.812   1.571 -0.1305  0.8077  0.0491
 2151SOL    HW1 6452   2.173   1.718   1.562 -1.7218  0.7710  1.4438
 2151SOL    HW2 6453   2.276   1.829   1.563  0.1481 -0.8588 -0.4147
 2152SOL     OW 6454   3.488   0.195   0.812  0.1223 -0.1131  0.1190
 2152SOL    HW1 6455   3.471   0.167   0.722  1.1909  0.9755 -0.4665
 2152SOL    HW2 6456   3.465   0.288   0.813 -0.7344 -0.3181  1.2328
 2153SOL     OW 6457   2.444   2.204   0.462  0.6625 -0.9081 -0.4560
 2153SOL    HW1 6458   2.423   2.114   0.439  1.0876 -1.2053  0.2682
 2153SOL    HW2 6459   2.535   2.215   0.438  0.5259 -0.5695 -0.8288
 2154SOL     OW 6460   2.427   1.334   1.232 -0.0197 -0.2635 -0.0325
 2154SOL    HW1 6461   2.469   1.418   1.211  1.0167 -0.4125  1.2654
 2154SOL    HW2 6462   2.486   1.268   1.198  0.6895 -0.4727  1.5023
 2155SOL     OW 6463   0.434   1.021   0.031  0.7637 -0.3012 -0.0948
 2155SOL    HW1 6464   0.491   0.948   0.054  2.2744  0.7864 -0.2252
 2155SOL    HW2 6465   0.374   1.029   0.105  1.9339 -0.3715  0.8955
 2156SOL     OW 6466   3.097   1.218   3.538 -0.1433  0.8769 -0.3209
 2156SOL    HW1 6467   3.113   1.217   3.633 -1.2104 -1.4382 -0.0995
 2156SOL    HW2 6468   3.001   1.220   3.530 -0.0792  0.4653 -1.3245
 2157SOL     OW 6469   1.128   2.809   2.669  0.3736 -0.1565  0.7159
 2157SOL    HW1 6470   1.163   2.767   2.590  0.9958 -0.2435  1.0347
 2157SOL    HW2 6471   1.078   2.884   2.635 -0.0115 -0.6364  0.1984
 2158SOL     OW 6472   1.513   2.223   2.169 -0.2131  0.0952  0.1385
 2158SOL    HW1 6473   1.496   2.276   2.247 -1.2895 -1.4175  1.0087
 2158SOL    HW2 6474   1.428   2.185   2.147 -0.0343  0.8761 -2.1188
 2159SOL     OW 6475   3.333   3.233   0.085  0.2090  0.0338 -0.0870
 2159SOL    HW1 6476   3.339   3.140   0.062  1.6129  0.1463 -0.2617
 2159SOL    HW2 6477   3.397   3.244   0.156  1.2029  1.1666 -1.1143
 2160SOL     OW 6478   2.714   3.353   2.093 -0.4236 -0.4137  0.5955
 2160SOL    HW1 6479   2.667   3.270   2.099  0.0794 -0.7756 -0.3146
 2160SOL    HW2 6480   2.718   3.385   2.183  1.1731 -2.3896  1.2832
 2161SOL     OW 6481   2.103   0.687   3.798 -0.5323  0.3346 -0.0256
 2161SOL    HW1 6482   2.029   0.662   3.853  0.1974 -1.5057  0.2040
 2161SOL    HW2 6483   2.064   0.712   3.714 -1.4089 -1.8636 -0.3548
 2162SOL     OW 6484   0.878   1.491   1.255 -0.4957  0.8164  0.0886
 2162SOL    HW1 6485   0.929   1.421   1.294 -0.6539 -1.5829 -3.5895
 2162SOL    HW2 6486   0.941   1.562   1.241  0.8514 -0.4768 -0.5710
 2163SOL     OW 6487   2.133   3.835   0.523  0.0715  0.0442 -0.1769
 2163SOL    HW1 6488   2.135   3.926   0.493 -1.8424  1.3420  3.1600
 2163SOL    HW2 6489   2.074   3.790   0.462  1.9828  0.5930 -2.6076
 2164SOL     OW 6490   0.387   3.098   3.325  0.3421  0.2647 -0.6029
 2164SOL    HW1 6491   0.410   3.163   3.391  0.0769 -0.5811  0.3463
 2164SOL    HW2 6492   0.459   3.035   3.327 -0.7200 -0.9732  0.5014
 2165SOL     OW 6493   2.401   1.438   0.728 -0.2107 -0.7064 -0.0460
 2165SOL    HW1 6494   2.376   1.352   0.696 -0.9656  0.1596 -1.9428
 2165SOL    HW2 6495   2.337   1.458   0.797 -1.8063 -0.5414 -1.5214
   4.00000   4.00000   4.00000
