Water Box for Fluid Dynamics Phase 2 in water
 6495
    1SOL     OW    1   1.094   3.314   0.880  0.5173 -0.1060 -0.0434
    1SOL    HW1    2   1.133   3.376   0.942  1.0640  0.0436 -0.5369
    1SOL    HW2    3   1.149   3.319   0.802 -0.0465 -0.4480 -0.4714
    2SOL     OW    4   0.248   3.494   2.018 -0.0901  0.6615 -0.2629
    2SOL    HW1    5   0.321   3.468   2.075  1.1706  1.4985 -1.4148
    2SOL    HW2    6   0.220   3.579   2.051 -0.9119  0.1142  0.4897
    3SOL     OW    7   0.615   0.360   0.764  0.1458  0.0949  0.0247
    3SOL    HW1    8   0.579   0.344   0.851  0.7453 -3.0447 -0.2000
    3SOL    HW2    9   0.708   0.378   0.780 -0.0145  0.8940  0.0989
    4SOL     OW   10   1.678   0.660   1.121 -0.3045  0.4516  0.8899
    4SOL    HW1   11   1.739   0.601   1.166  1.1514  0.1080 -1.3362
    4SOL    HW2   12   1.706   0.656   1.029 -2.3606  1.9882  0.1371
    5SOL     OW   13   2.149   2.107   3.725  1.0271  0.0023 -0.0618
    5SOL    HW1   14   2.205   2.174   3.765 -0.5349  1.2586  0.1652
    5SOL    HW2   15   2.092   2.157   3.666  1.6609 -1.5181 -2.0645
    6SOL     OW   16   0.752   1.546   3.002 -0.2595  0.4886  0.7604
    6SOL    HW1   17   0.844   1.542   3.027  0.5169  0.9944 -1.6729
    6SOL    HW2   18   0.726   1.636   3.022 -0.8167 -0.1258  3.0793
    7SOL     OW   19   0.248   0.059   3.006  0.2216  0.1766  0.0181
    7SOL    HW1   20   0.302  -0.008   3.048  0.4300  1.2030  1.4856
    7SOL    HW2   21   0.177   0.011   2.964  1.2377 -1.0589 -0.3264
    8SOL     OW   22   2.952   1.108   2.588  0.1063 -0.6675  0.1221
    8SOL    HW1   23   2.949   1.199   2.617 -1.4507 -0.8161  0.5283
    8SOL    HW2   24   2.979   1.114   2.496 -0.5675  0.2605 -0.0317
    9SOL     OW   25   2.736   0.775   4.017  0.2436  0.0680  0.0036
    9SOL    HW1   26   2.727   0.867   3.991 -2.0242  0.3400  1.5476
    9SOL    HW2   27   2.770   0.732   3.938 -0.7100  1.8512 -1.4592
   10SOL     OW   28   0.624   0.141   3.293  0.4792  0.1091  0.0670
   10SOL    HW1   29   0.613   0.077   3.363  0.6820  0.7529  0.7015
   10SOL    HW2   30   0.545   0.195   3.297  1.1878  1.1326  0.8500
   11SOL     OW   31   1.921   3.072   1.415  0.0542 -0.3595  0.2179
   11SOL    HW1   32   1.968   2.989   1.413  0.5071 -0.1023 -0.2380
   11SOL    HW2   33   1.987   3.136   1.441  0.5349  0.3316 -2.3802
   12SOL     OW   34   2.395   1.013   3.232 -0.4270 -0.1651 -0.3191
   12SOL    HW1   35   2.374   0.993   3.323  0.1366  1.3230  0.1641
   12SOL    HW2   36   2.336   0.957   3.181  0.8101 -2.7187  0.8961
   13SOL     OW   37   0.958   2.454   3.957  0.8342 -0.0174  0.0326
   13SOL    HW1   38   0.930   2.373   3.914  1.1708  0.2925 -0.7828
   13SOL    HW2   39   0.877   2.490   3.994  0.3305  0.2213 -1.2188
   14SOL     OW   40   3.103   1.620   3.001 -0.6102  1.2615 -0.5359
   14SOL    HW1   41   3.111   1.701   3.052  0.1437  0.6613  0.3259
   14SOL    HW2   42   3.172   1.626   2.935 -0.3894  1.2082 -0.3102
   15SOL     OW   43   1.681   1.879   3.940 -0.0433 -0.1327 -0.4471
   15SOL    HW1   44   1.719   1.858   4.026  1.2515  0.6100 -0.8094
   15SOL    HW2   45   1.596   1.919   3.961  0.9253  1.4828  0.6007
   16SOL     OW   46   0.170   2.642   3.490 -0.2790  0.1944 -0.3414
   16SOL    HW1   47   0.109   2.612   3.557 -0.3434  1.6565  0.2906
   16SOL    HW2   48   0.129   2.617   3.407 -1.5960  0.8683  0.0829
   17SOL     OW   49   0.514   3.576   1.775 -0.0918 -0.5648 -0.1034
   17SOL    HW1   50   0.479   3.550   1.860 -2.8274 -1.3742 -1.3853
   17SOL    HW2   51   0.585   3.514   1.758 -0.9078 -1.7519  0.6771
   18SOL     OW   52   2.138   2.788   1.825  0.7544  0.5801 -0.5475
   18SOL    HW1   53   2.218   2.736   1.815  0.6916  0.3086  0.2978
   18SOL    HW2   54   2.148   2.831   1.910 -0.1514  0.2766 -0.2831
   19SOL     OW   55   3.866   0.139   1.917  0.7223  0.4086 -0.4654
   19SOL    HW1   56   3.886   0.048   1.934  2.0699  0.6031 -0.9013
   19SOL    HW2   57   3.920   0.189   1.979  0.9378  0.9265 -1.0497
   20SOL     OW   58   3.034   3.330   3.354  0.3852 -0.1394 -0.2684
   20SOL    HW1   59   2.972   3.382   3.406  1.0523 -0.3044  0.7329
   20SOL    HW2   60   3.003   3.339   3.264 -1.4124 -0.6550  0.2429
   21SOL     OW   61   3.540   1.717   0.029  0.6138 -0.8805 -0.5159
   21SOL    HW1   62   3.510   1.712   0.120 -1.4281 -0.3071 -1.1085
   21SOL    HW2   63   3.634   1.728   0.035  0.3377  0.8595  1.5887
   22SOL     OW   64   3.270   3.689   3.199 -0.4947 -0.2030 -0.2669
   22SOL    HW1   65   3.203   3.745   3.237  0.6028  0.8369  0.2020
   22SOL    HW2   66   3.302   3.738   3.123  0.5642 -0.1139  0.2229
   23SOL     OW   67   1.018   3.038   1.109  0.1617 -0.5873  0.3090
   23SOL    HW1   68   1.008   2.962   1.166  1.7856 -1.0224  0.0670
   23SOL    HW2   69   1.098   3.020   1.059  1.4610  1.9492  1.3151
   24SOL     OW   70   2.967   0.171   1.165  0.4603  0.5328  0.3381
   24SOL    HW1   71   2.965   0.132   1.078  1.1230  1.3719 -0.0689
   24SOL    HW2   72   3.025   0.115   1.216  1.9040  1.2931 -0.4153
   25SOL     OW   73   1.630   1.822   0.997 -0.4524  0.0482 -0.1447
   25SOL    HW1   74   1.708   1.845   0.947 -1.1996 -1.7430 -2.2748
   25SOL    HW2   75   1.565   1.888   0.971 -0.1502  0.5722  0.3916
   26SOL     OW   76   1.535   0.456   2.471  0.3936 -0.3822  0.6607
   26SOL    HW1   77   1.565   0.370   2.443  0.2446 -0.5190  0.9111
   26SOL    HW2   78   1.585   0.518   2.418 -0.9142 -0.6450 -0.9199
   27SOL     OW   79   0.582   3.496   0.531 -0.7099 -0.0246  0.6523
   27SOL    HW1   80   0.557   3.587   0.517  1.3627  0.8537  2.0722
   27SOL    HW2   81   0.512   3.459   0.584 -1.8761  0.5393 -0.4685
   28SOL     OW   82   2.922   1.976   0.643  0.1811  0.0485 -0.6541
   28SOL    HW1   83   2.990   1.978   0.576  0.5936  3.7369 -0.3194
   28SOL    HW2   84   2.868   2.053   0.625 -0.9842 -0.0461  2.0010
   29SOL     OW   85   2.050   0.346   0.620  0.7320 -0.5364  0.2658
   29SOL    HW1   86   2.144   0.360   0.611  0.6195 -0.6041 -1.1578
   29SOL    HW2   87   2.024   0.303   0.540 -0.5788 -0.2378  0.5037
   30SOL     OW   88   1.882   2.097   1.022  0.2058  0.3463 -0.0281
   30SOL    HW1   89   1.843   2.045   0.952 -1.7135 -0.2801  1.4153
   30SOL    HW2   90   1.809   2.145   1.061  1.4126  1.6494  0.7619
   31SOL     OW   91   3.482   2.727   1.449 -0.0760 -0.1122  0.5910
   31SOL    HW1   92   3.430   2.707   1.527 -1.1610  1.0179  0.1927
   31SOL    HW2   93   3.430   2.694   1.376  1.1156 -1.5269  0.3314
   32SOL     OW   94   1.678   2.028   3.065 -0.0093  0.8521  0.2923
   32SOL    HW1   95   1.655   1.958   3.127  2.5406 -0.5257 -0.1555
   32SOL    HW2   96   1.734   2.087   3.116 -2.4965  2.9235  0.7865
   33SOL     OW   97   1.544   3.117   2.715 -0.3147  0.2505  0.2820
   33SOL    HW1   98   1.484   3.048   2.687  0.4415 -0.1614 -0.3398
   33SOL    HW2   99   1.505   3.198   2.682  0.9421 -0.2633 -2.8144
   34SOL     OW  100   1.403   2.972   3.247  0.2590  0.5790  0.1484
   34SOL    HW1  101   1.400   2.889   3.199  0.3919  0.0438  1.0314
   34SOL    HW2  102   1.434   3.036   3.183  1.1544 -0.2589 -0.2863
   35SOL     OW  103   2.602   3.660   3.586 -0.9682  0.5999 -0.0872
   35SOL    HW1  104   2.579   3.633   3.675 -0.6086 -0.8193 -0.4038
   35SOL    HW2  105   2.520   3.693   3.549 -1.2251  0.7596  0.6136
   36SOL     OW  106   1.742   1.209   2.899 -0.4388  0.6826 -0.0588
   36SOL    HW1  107   1.801   1.137   2.875 -1.1321  0.5906 -1.6279
   36SOL    HW2  108   1.786   1.252   2.972  0.6146 -0.5599  0.0882
   37SOL     OW  109   3.072   1.812   2.496 -0.0100  0.5020  0.4741
   37SOL    HW1  110   3.056   1.774   2.583  0.6323 -1.6619 -0.3042
   37SOL    HW2  111   2.989   1.803   2.450  0.6098 -1.7249 -0.3066
   38SOL     OW  112   0.777   1.228   3.452 -0.2569 -0.1285  0.6253
   38SOL    HW1  113   0.731   1.305   3.419 -0.5448 -1.2089 -1.7177
   38SOL    HW2  114   0.812   1.255   3.537  1.1739  3.1637 -0.8450
   39SOL     OW  115   3.396   2.570   3.917 -0.2793  0.0461  0.0861
   39SOL    HW1  116   3.365   2.641   3.861 -0.9527  0.8961  1.4693
   39SOL    HW2  117   3.338   2.573   3.993 -1.0957 -2.7655 -0.3092
   40SOL     OW  118   3.554   2.688   2.550 -0.6152 -0.2295  0.2521
   40SOL    HW1  119   3.570   2.601   2.587 -1.3215 -0.2102  0.6225
   40SOL    HW2  120   3.588   2.748   2.616  0.8900 -0.2081 -0.4831
   41SOL     OW  121   3.487   1.832   1.948  0.2345 -0.2951 -0.7614
   41SOL    HW1  122   3.506   1.790   1.864 -2.7036 -0.1363 -1.6080
   41SOL    HW2  123   3.457   1.920   1.925  0.7340  0.2535  0.5801
   42SOL     OW  124   1.351   1.882   0.811  0.1675 -0.4130 -0.2648
   42SOL    HW1  125   1.351   1.877   0.716 -0.9669 -2.3551 -0.2240
   42SOL    HW2  126   1.297   1.808   0.839  0.8625 -0.1847  1.9040
   43SOL     OW  127   2.987   2.114   3.102 -0.2187 -0.1704  0.0841
   43SOL    HW1  128   3.023   2.030   3.075  1.2788 -0.0005  1.4387
   43SOL    HW2  129   2.944   2.096   3.186 -1.6430  0.0473 -0.5573
   44SOL     OW  130   3.827   3.354   3.582 -0.0273 -0.1291 -0.3351
   44SOL    HW1  131   3.836   3.380   3.491  0.0723 -1.2418 -0.6616
   44SOL    HW2  132   3.910   3.380   3.623  0.5640 -1.0145 -0.9329
   45SOL     OW  133   2.140   1.994   1.070 -0.1880 -0.1999  0.2685
   45SOL    HW1  134   2.044   2.002   1.070 -0.2481 -0.7430  1.4767
   45SOL    HW2  135   2.169   2.061   1.008 -1.3210  0.4373  0.3936
   46SOL     OW  136   1.236   2.645   1.972 -0.3062  0.2050 -0.5734
   46SOL    HW1  137   1.192   2.683   2.048  1.1483  1.6069 -0.3905
   46SOL    HW2  138   1.312   2.600   2.008 -0.9427 -1.2595 -0.9909
   47SOL     OW  139   1.219   0.890   0.581 -0.3935  0.2975 -0.2981
   47SOL    HW1  140   1.294   0.831   0.567  0.8760  0.5719  3.8529
   47SOL    HW2  141   1.259   0.976   0.597 -1.5629  0.6062  1.2651
   48SOL     OW  142   2.125   1.699   2.910 -0.1658 -0.2928 -0.5130
   48SOL    HW1  143   2.146   1.649   2.989  1.3931 -2.3474 -2.0945
   48SOL    HW2  144   2.139   1.790   2.934 -0.2088 -0.8285  1.6894
   49SOL     OW  145   2.149   0.972   3.027 -0.1026  0.3751 -0.7335
   49SOL    HW1  146   2.224   0.925   2.992 -0.2810 -0.0420 -0.5525
   49SOL    HW2  147   2.172   1.065   3.017  0.4571  0.2484 -0.6207
   50SOL     OW  148   3.652   0.697   1.285 -0.1216 -0.2640  0.0153
   50SOL    HW1  149   3.591   0.769   1.265  0.7268  0.3449 -0.4693
   50SOL    HW2  150   3.738   0.731   1.258  0.5198 -0.8795  1.2295
   51SOL     OW  151   0.085   3.678   2.650  0.1986 -0.4018  0.1978
   51SOL    HW1  152   0.176   3.656   2.627 -0.5713 -0.7429 -2.9242
   51SOL    HW2  153   0.035   3.662   2.570 -2.2790  2.0448  1.0915
   52SOL     OW  154   1.488   2.501   1.675  0.1232  0.5823  0.4965
   52SOL    HW1  155   1.454   2.423   1.633  2.2683  0.2458 -0.7537
   52SOL    HW2  156   1.468   2.572   1.615 -0.0180  0.6840  0.6609
   53SOL     OW  157   0.641   0.923   0.833  0.0469  0.2808 -0.6578
   53SOL    HW1  158   0.571   0.923   0.769 -0.4957  0.6599 -0.0741
   53SOL    HW2  159   0.596   0.920   0.918  0.7276  0.5763 -0.2770
   54SOL     OW  160   1.056   1.719   0.333 -0.0775 -0.7273 -0.2842
   54SOL    HW1  161   1.121   1.650   0.333  0.1744 -0.4934 -0.8163
   54SOL    HW2  162   0.983   1.683   0.384  0.1943 -1.2398 -0.2508
   55SOL     OW  163   3.195   3.277   3.996  0.2329 -0.3782  0.7482
   55SOL    HW1  164   3.268   3.297   3.938 -0.7604 -1.1785 -0.8545
   55SOL    HW2  165   3.193   3.349   4.058  1.3596  0.4953 -0.1831
   56SOL     OW  166   1.224   2.321   0.825  0.8040 -0.5084  0.3440
   56SOL    HW1  167   1.155   2.292   0.765  0.9944  0.6975 -0.4922
   56SOL    HW2  168   1.178   2.342   0.906  0.0794  0.7019 -0.3414
   57SOL     OW  169   3.863   1.062   1.017  0.8034 -0.1751  0.2042
   57SOL    HW1  170   3.833   1.077   1.106  0.4549  1.7414 -0.1811
   57SOL    HW2  171   3.810   0.989   0.985  0.2311 -0.2264  1.2325
   58SOL     OW  172   1.739   2.795   3.157 -0.1853  0.6543 -0.2438
   58SOL    HW1  173   1.695   2.835   3.232 -0.4528  0.1622 -0.1394
   58SOL    HW2  174   1.831   2.792   3.183 -0.6819 -3.0882  1.7585
   59SOL     OW  175   2.384   2.552   1.452  0.2918  0.5714 -0.3418
   59SOL    HW1  176   2.433   2.477   1.416  0.3766  0.5141 -0.1116
   59SOL    HW2  177   2.452   2.616   1.473  0.1167  1.2874 -1.8451
   60SOL     OW  178   3.622   3.489   1.479  0.2657 -0.0787 -0.5318
   60SOL    HW1  179   3.575   3.405   1.482  0.6980 -0.3218 -0.4196
   60SOL    HW2  180   3.664   3.495   1.564  0.1281  0.3211 -0.4910
   61SOL     OW  181   0.005   0.413   3.203 -0.5729 -0.2274 -1.0925
   61SOL    HW1  182   0.009   0.405   3.108 -4.0579 -0.7686 -1.3334
   61SOL    HW2  183   0.021   0.324   3.235  1.2320  0.0727 -1.0751
   62SOL     OW  184   1.060   2.610   1.381  0.6761 -0.2719  0.1314
   62SOL    HW1  185   0.998   2.581   1.448  1.9810 -0.9544  1.0753
   62SOL    HW2  186   1.045   2.704   1.373 -2.4663 -0.7709 -1.7686
   63SOL     OW  187   2.106   2.415   1.005 -0.3384 -0.6594  1.1185
   63SOL    HW1  188   2.077   2.488   1.060 -0.3031 -0.2005  0.5357
   63SOL    HW2  189   2.110   2.451   0.917  0.7603 -1.0668  0.9864
   64SOL     OW  190   2.376   0.631   1.557 -0.3594  0.3417  0.2189
   64SOL    HW1  191   2.439   0.703   1.562  0.2401 -0.1254 -0.3079
   64SOL    HW2  192   2.312   0.649   1.625 -0.8219  1.9477 -0.5980
   65SOL     OW  193   1.083   0.191   0.467  0.0137  0.6357  0.0973
   65SOL    HW1  194   1.030   0.169   0.390  0.8813  0.4332 -0.4553
   65SOL    HW2  195   1.064   0.283   0.484 -1.5675  0.2271  0.7690
   66SOL     OW  196   2.753   0.838   3.373 -0.0352 -0.8741 -0.1000
   66SOL    HW1  197   2.779   0.918   3.327 -0.2175 -0.0606  1.1421
   66SOL    HW2  198   2.687   0.798   3.317 -0.2403  0.0765 -0.5578
   67SOL     OW  199   3.106   2.464   1.242 -0.3310 -0.4777 -0.1784
   67SOL    HW1  200   3.110   2.535   1.178 -0.7686  0.1155  0.4355
   67SOL    HW2  201   3.013   2.455   1.263 -0.1099  0.0006  1.0792
   68SOL     OW  202   2.582   1.283   1.239 -0.0095  0.4607  0.1575
   68SOL    HW1  203   2.660   1.298   1.292 -0.0329  0.5492  0.1667
   68SOL    HW2  204   2.615   1.237   1.162 -0.0656 -0.2131  0.5307
   69SOL     OW  205   2.560   0.504   0.336 -0.1106 -0.1203 -0.7002
   69SOL    HW1  206   2.529   0.533   0.421 -0.7474  0.8982 -1.2635
   69SOL    HW2  207   2.618   0.574   0.306  0.8515 -0.8914 -0.7248
   70SOL     OW  208   1.401   1.258   0.215 -0.4480  0.7087  0.2053
   70SOL    HW1  209   1.324   1.262   0.158 -0.0725  0.7295 -0.3092
   70SOL    HW2  210   1.397   1.338   0.267 -0.9257  0.5713  0.3797
   71SOL     OW  211   1.384   3.388   2.818 -0.0504 -0.3684 -0.6226
   71SOL    HW1  212   1.357   3.473   2.784 -1.8881 -0.4741  0.4815
   71SOL    HW2  213   1.339   3.324   2.762 -1.8842 -0.5471  0.9607
   72SOL     OW  214   0.434   0.723   0.218 -0.0250  0.0433 -0.2819
   72SOL    HW1  215   0.412   0.813   0.193  1.0632  0.3270 -0.2788
   72SOL    HW2  216   0.492   0.693   0.148  0.2747 -0.3692  0.1384
   73SOL     OW  217   3.629   0.282   0.953  0.6560  0.6046  0.5140
   73SOL    HW1  218   3.617   0.216   1.021 -0.0992  0.3928  0.1887
   73SOL    HW2  219   3.566   0.257   0.884  0.9236  1.2039  0.0416
   74SOL     OW  220   2.557   3.182   1.074  0.1986 -0.3256  0.0417
   74SOL    HW1  221   2.494   3.182   1.146  1.9425 -2.0370  1.7030
   74SOL    HW2  222   2.615   3.256   1.091  1.4229 -1.4950  1.2793
   75SOL     OW  223   1.682   2.516   3.152 -0.4707 -0.0405  0.0610
   75SOL    HW1  224   1.739   2.593   3.157  1.6342 -1.5522  1.7416
   75SOL    HW2  225   1.720   2.462   3.083  0.0102 -0.9152  0.9705
   76SOL     OW  226   1.045   2.068   1.019 -0.3439  0.3761 -0.0665
   76SOL    HW1  227   0.961   2.024   1.033 -0.6307  1.3820  1.5985
   76SOL    HW2  228   1.043   2.092   0.926 -2.0283  0.5985 -0.0226
   77SOL     OW  229   2.804   1.821   0.311  0.1642  0.1813 -0.8406
   77SOL    HW1  230   2.878   1.865   0.268  0.2480  1.6188  0.7077
   77SOL    HW2  231   2.759   1.890   0.359 -0.4347 -1.2034  0.6690
   78SOL     OW  232   0.782   0.425   0.217  0.4053 -0.2525 -0.2830
   78SOL    HW1  233   0.780   0.345   0.269 -0.0648 -0.6355 -0.8797
   78SOL    HW2  234   0.776   0.496   0.281 -2.3745 -0.7314  0.0886
   79SOL     OW  235   0.169   3.903   0.342 -0.1758  0.3427  0.0139
   79SOL    HW1  236   0.209   3.975   0.392 -0.2141 -0.1534  0.7606
   79SOL    HW2  237   0.235   3.882   0.276  0.7781 -0.3850  1.1603
   80SOL     OW  238   3.490   2.703   3.510 -0.3981  0.5544 -0.1340
   80SOL    HW1  239   3.533   2.620   3.530 -1.6879 -0.3693 -1.0660
   80SOL    HW2  240   3.529   2.765   3.571  4.5633  0.5604 -2.8140
   81SOL     OW  241   2.626   3.864   0.533  0.4795 -0.9588  0.1158
   81SOL    HW1  242   2.647   3.832   0.621 -0.2466 -2.6455 -0.2980
   81SOL    HW2  243   2.542   3.824   0.512  0.1881  0.1573 -1.0072
   82SOL     OW  244   1.019   1.526   0.056  0.9278  0.0914  0.6435
   82SOL    HW1  245   1.055   1.548  -0.030  4.1180 -2.2046  1.1975
   82SOL    HW2  246   1.034   1.604   0.109 -1.5755  1.7438 -0.9011
   83SOL     OW  247   3.359   2.667   1.199 -0.6775  0.0310  0.0209
   83SOL    HW1  248   3.272   2.650   1.163 -0.3544  1.1969 -1.3967
   83SOL    HW2  249   3.389   2.581   1.230 -1.2809 -0.8974 -1.8468
   84SOL     OW  250   0.292   3.510   3.389 -0.1320  0.4599  0.5554
   84SOL    HW1  251   0.211   3.513   3.339 -0.9279  2.1676  1.8542
   84SOL    HW2  252   0.286   3.428   3.438 -0.3355 -0.1692 -0.4877
   85SOL     OW  253   0.030   2.987   1.311 -0.2570 -0.4224 -0.0892
   85SOL    HW1  254  -0.002   2.924   1.246  3.1364 -0.3459 -2.0516
   85SOL    HW2  255   0.044   3.068   1.262 -3.0255  1.5469  2.0718
   86SOL     OW  256   3.563   3.231   2.129  0.3527 -0.1575 -0.7199
   86SOL    HW1  257   3.504   3.213   2.055  0.6359 -0.3054 -0.9110
   86SOL    HW2  258   3.641   3.178   2.110  0.5913  0.1261 -0.5241
   87SOL     OW  259   0.342   2.517   1.827 -0.3705  0.3200 -0.0343
   87SOL    HW1  260   0.267   2.499   1.771 -0.3223 -2.4969  0.6544
   87SOL    HW2  261   0.350   2.439   1.882  2.2453  1.1175  0.8629
   88SOL     OW  262   3.483   0.539   3.508  0.2559 -1.2745  0.3771
   88SOL    HW1  263   3.510   0.511   3.596  1.5207 -0.3320  0.3170
   88SOL    HW2  264   3.407   0.596   3.523  1.8107  0.7250  1.1130
   89SOL     OW  265   3.842   0.981   3.442  0.0828  0.5131 -0.1144
   89SOL    HW1  266   3.851   0.931   3.361 -0.9759 -0.6104  0.4161
   89SOL    HW2  267   3.748   0.978   3.461  0.0070  2.6042  0.0285
   90SOL     OW  268   3.163   0.960   0.386  0.1097 -0.6366 -0.7722
   90SOL    HW1  269   3.102   0.983   0.456 -0.5884 -2.0364 -0.8834
   90SOL    HW2  270   3.135   1.013   0.312  0.1041 -0.0250 -0.3396
   91SOL     OW  271   0.345   1.507   3.699  0.1940 -0.2887 -0.6769
   91SOL    HW1  272   0.370   1.572   3.765 -1.3809 -0.3169  0.0037
   91SOL    HW2  273   0.287   1.554   3.640 -0.8428 -1.0082 -0.2648
   92SOL     OW  274   0.084   2.328   2.072 -0.1747  0.5773 -0.2617
   92SOL    HW1  275   0.043   2.258   2.021  1.1452 -1.9298  1.9080
   92SOL    HW2  276   0.028   2.404   2.056 -2.4086 -1.2407 -1.7878
   93SOL     OW  277   0.680   3.693   0.127  0.2800  0.5749  0.2260
   93SOL    HW1  278   0.737   3.767   0.106  0.4787  0.7522  1.3552
   93SOL    HW2  279   0.738   3.629   0.168  0.0616 -0.1110 -0.5196
   94SOL     OW  280   0.635   3.434   3.489  0.1821 -0.5956  0.1622
   94SOL    HW1  281   0.656   3.521   3.522 -1.4295 -0.1070  0.0037
   94SOL    HW2  282   0.541   3.424   3.505 -0.2477 -1.2035 -2.2385
   95SOL     OW  283   1.540   2.160   2.834  0.2086  0.0973 -0.1379
   95SOL    HW1  284   1.586   2.149   2.918 -0.2881 -1.1299 -0.0013
   95SOL    HW2  285   1.607   2.147   2.768  0.3451 -0.2878  0.0718
   96SOL     OW  286   3.593   2.471   3.546  0.3874 -0.2648  0.1957
   96SOL    HW1  287   3.610   2.444   3.455 -0.2790  1.9339 -0.6605
   96SOL    HW2  288   3.516   2.420   3.572 -2.3850  2.2610 -2.2321
   97SOL     OW  289   0.761   0.641   1.030  0.3183  0.0620  0.0654
   97SOL    HW1  290   0.685   0.679   1.075  0.1441  1.5295 -1.3748
   97SOL    HW2  291   0.836   0.685   1.069  0.2937  0.0111  0.1700
   98SOL     OW  292   1.543   3.923   3.576 -0.3872  0.0321 -0.0441
   98SOL    HW1  293   1.607   3.862   3.539 -2.0001 -2.1166  0.4997
   98SOL    HW2  294   1.590   3.965   3.649  1.2626  0.7351 -1.4203
   99SOL     OW  295   1.978   0.422   3.602  0.1648  0.0188 -0.0058
   99SOL    HW1  296   1.974   0.372   3.520 -1.5443 -0.3844  0.2744
   99SOL    HW2  297   1.997   0.511   3.575  0.3329 -0.2426 -0.7859
  100SOL     OW  298   2.560   0.703   3.215 -0.4860 -0.0516  0.2226
  100SOL    HW1  299   2.525   0.619   3.242 -0.4907 -0.4425 -0.9223
  100SOL    HW2  300   2.496   0.736   3.151 -0.8014  1.1103  1.1026
  101SOL     OW  301   2.464   2.266   1.341 -0.4601  0.2324  0.5665
  101SOL    HW1  302   2.503   2.181   1.324 -0.3577  0.3203  0.3590
  101SOL    HW2  303   2.447   2.304   1.255 -0.5825  0.3871  0.6560
  102SOL     OW  304   2.893   3.479   3.644 -0.1886  0.1197 -0.2444
  102SOL    HW1  305   2.837   3.449   3.716 -0.0059  1.3816  0.4437
  102SOL    HW2  306   2.837   3.472   3.567 -0.4290 -1.1271  0.0207
  103SOL     OW  307   2.374   2.705   1.753 -0.5803 -0.1799  0.0205
  103SOL    HW1  308   2.396   2.782   1.700  0.8782 -1.6426 -1.6411
  103SOL    HW2  309   2.459   2.665   1.773 -1.2113 -0.6344  2.0752
  104SOL     OW  310   1.062   2.708   1.676 -0.6757 -0.3588 -0.2173
  104SOL    HW1  311   1.033   2.778   1.617 -1.5221 -0.0254  0.5594
  104SOL    HW2  312   1.111   2.753   1.744 -1.6668 -0.4383  0.5699
  105SOL     OW  313   1.241   3.990   2.585  0.4703 -0.5166 -0.0488
  105SOL    HW1  314   1.334   3.969   2.592  0.9068 -0.4848 -3.9746
  105SOL    HW2  315   1.197   3.910   2.616  1.7917 -1.1487  0.2962
  106SOL     OW  316   0.199   2.983   2.670 -0.0923  0.4739  0.1413
  106SOL    HW1  317   0.123   2.952   2.720 -1.0085  1.9906 -0.2416
  106SOL    HW2  318   0.241   2.903   2.640 -0.7951 -0.4358  1.4407
  107SOL     OW  319   1.314   3.613   2.719 -0.6476 -0.0318  0.0235
  107SOL    HW1  320   1.221   3.635   2.708 -0.4997  0.4201 -0.3390
  107SOL    HW2  321   1.352   3.690   2.762 -0.1415  0.4252 -1.2006
  108SOL     OW  322   0.018   2.879   3.759  0.2525  0.3886 -0.2252
  108SOL    HW1  323  -0.004   2.791   3.728  4.7065 -0.5863 -1.3173
  108SOL    HW2  324   0.067   2.865   3.840 -0.5608  2.0680  0.6192
  109SOL     OW  325   1.435   1.463   3.158  0.1128  0.5698 -0.1010
  109SOL    HW1  326   1.368   1.395   3.171 -0.2112  0.7801 -0.6081
  109SOL    HW2  327   1.385   1.538   3.127  0.3893  1.2480  1.0414
  110SOL     OW  328   0.301   0.653   1.838  0.0148 -0.0226 -0.6041
  110SOL    HW1  329   0.329   0.599   1.911  0.2047 -1.0355 -1.4009
  110SOL    HW2  330   0.379   0.664   1.785  0.1292  1.5839 -0.1387
  111SOL     OW  331   2.375   2.978   3.297 -0.0205  0.2454 -0.0741
  111SOL    HW1  332   2.446   2.934   3.250  0.8875  0.2252  1.2456
  111SOL    HW2  333   2.318   3.013   3.229 -1.2260 -3.5825 -1.2890
  112SOL     OW  334   2.546   3.628   2.351  0.7013 -0.6216  0.3303
  112SOL    HW1  335   2.611   3.697   2.338 -0.5928  0.3812 -1.1505
  112SOL    HW2  336   2.532   3.592   2.263 -2.1810  0.5533  0.2158
  113SOL     OW  337   0.149   3.717   3.985  0.2675 -0.2604 -0.5428
  113SOL    HW1  338   0.119   3.807   3.983 -0.5265 -0.5168 -0.5899
  113SOL    HW2  339   0.070   3.665   3.966  0.7978 -0.9401 -0.9479
  114SOL     OW  340   2.769   1.544   3.646 -0.1182 -0.4166 -0.8532
  114SOL    HW1  341   2.850   1.532   3.596  0.5493  0.8776 -0.1527
  114SOL    HW2  342   2.778   1.487   3.722 -0.3547 -1.0803 -1.3182
  115SOL     OW  343   2.851   0.614   3.828  0.4776 -0.1064 -0.5603
  115SOL    HW1  344   2.883   0.546   3.887  1.7142  1.2424  0.3904
  115SOL    HW2  345   2.917   0.684   3.833 -1.3470  1.7149 -0.5359
  116SOL     OW  346   3.069   1.890   2.002  0.3776 -0.1080 -0.2578
  116SOL    HW1  347   3.067   1.983   2.026  0.1237  0.0821 -0.9711
  116SOL    HW2  348   2.981   1.858   2.022 -0.1428  0.2904 -1.7857
  117SOL     OW  349   1.138   2.766   2.320 -0.2039  0.3139  0.0188
  117SOL    HW1  350   1.201   2.793   2.386 -1.7147  0.0550  1.6555
  117SOL    HW2  351   1.092   2.846   2.296  0.5904  0.4768 -1.0611
  118SOL     OW  352   3.300   0.473   1.718 -0.2363  0.1694 -0.0499
  118SOL    HW1  353   3.275   0.504   1.631 -0.7529  4.1316  1.3121
  118SOL    HW2  354   3.223   0.488   1.772  1.1407  1.1282  1.7466
  119SOL     OW  355   3.462   2.685   0.230  1.0802  0.5298 -0.1733
  119SOL    HW1  356   3.427   2.760   0.279  2.5619  0.4888  1.0324
  119SOL    HW2  357   3.387   2.626   0.220  0.2059  1.5628  0.0207
  120SOL     OW  358   2.427   2.678   1.098  0.4737  0.1839  0.0386
  120SOL    HW1  359   2.333   2.668   1.113  0.3159  2.2695  0.7629
  120SOL    HW2  360   2.468   2.624   1.167 -0.2291  1.3782  1.4462
  121SOL     OW  361   2.352   1.948   1.838 -0.5409 -0.1924  0.5615
  121SOL    HW1  362   2.441   1.921   1.817 -0.4779 -1.5202  2.3061
  121SOL    HW2  363   2.346   1.940   1.933 -1.8893  1.9497  0.7380
  122SOL     OW  364   3.175   0.763   2.171  0.2397 -0.0342  0.3506
  122SOL    HW1  365   3.107   0.829   2.169  2.8093  2.8852  0.8883
  122SOL    HW2  366   3.247   0.801   2.121  2.9358 -1.0599  3.1041
  123SOL     OW  367   0.145   2.674   2.250 -0.6310  0.0580 -0.5672
  123SOL    HW1  368   0.152   2.692   2.156 -2.1238  0.6300 -0.6035
  123SOL    HW2  369   0.137   2.761   2.290 -2.2159 -0.2456 -0.1504
  124SOL     OW  370   0.856   0.347   2.073 -0.0055 -0.0500 -0.5803
  124SOL    HW1  371   0.792   0.386   2.133  0.4137  1.2581 -0.9384
  124SOL    HW2  372   0.862   0.409   2.001  0.0793 -1.2236 -1.6065
  125SOL     OW  373   3.892   0.835   1.227 -0.4129 -0.2431  0.5242
  125SOL    HW1  374   3.971   0.823   1.279 -0.2913  1.5232  0.7780
  125SOL    HW2  375   3.924   0.844   1.137 -0.5857 -2.7021  0.1385
  126SOL     OW  376   0.685   2.203   0.603 -0.2409 -0.2292  0.1788
  126SOL    HW1  377   0.704   2.291   0.635 -0.0717 -0.0837 -0.2997
  126SOL    HW2  378   0.639   2.160   0.675 -2.9825  1.1909 -0.5643
  127SOL     OW  379   1.051   3.320   1.193  0.3505  0.3887 -0.1326
  127SOL    HW1  380   1.050   3.229   1.164 -1.1806  0.8691 -1.7005
  127SOL    HW2  381   1.143   3.347   1.183  0.5796 -0.5964 -0.8738
  128SOL     OW  382   0.059   0.635   1.670 -0.0141  0.6238  0.5382
  128SOL    HW1  383   0.149   0.649   1.700  0.1101 -1.3035  1.2014
  128SOL    HW2  384   0.046   0.540   1.677 -2.4423  0.9455  1.4833
  129SOL     OW  385   3.251   3.669   3.544  0.4971 -0.1266 -0.2095
  129SOL    HW1  386   3.302   3.615   3.484  0.8823  1.7603 -1.6601
  129SOL    HW2  387   3.233   3.611   3.618 -0.3759 -2.7100 -2.2637
  130SOL     OW  388   3.241   1.756   0.663  0.0211  0.3380  0.3420
  130SOL    HW1  389   3.177   1.769   0.733 -1.2773 -1.7666 -0.3592
  130SOL    HW2  390   3.237   1.838   0.612 -2.5196  0.1228  0.0403
  131SOL     OW  391   3.002   1.087   3.275  0.9405  0.2949 -0.7063
  131SOL    HW1  392   2.908   1.099   3.288  1.0222  1.3418 -1.0257
  131SOL    HW2  393   3.042   1.124   3.354  1.1210  0.6698 -0.9693
  132SOL     OW  394   1.739   0.669   0.129 -0.1936 -0.1340 -0.3192
  132SOL    HW1  395   1.821   0.701   0.165  0.7819 -1.1558 -1.5325
  132SOL    HW2  396   1.678   0.670   0.202  0.2582  2.7331  0.1001
  133SOL     OW  397   3.263   0.080   0.087  0.3231  0.1514  0.4038
  133SOL    HW1  398   3.209   0.093   0.009  1.7469 -0.3272 -0.7272
  133SOL    HW2  399   3.302   0.165   0.105 -2.1847  0.9895  2.3913
  134SOL     OW  400   2.866   2.052   1.714  0.2856 -0.5288 -0.4786
  134SOL    HW1  401   2.830   2.047   1.803  3.2658  0.6440  0.9307
  134SOL    HW2  402   2.865   1.961   1.684 -0.3212 -1.0404  0.9627
  135SOL     OW  403   3.864   1.249   3.407  0.0145 -0.2774 -0.0251
  135SOL    HW1  404   3.948   1.270   3.366  0.4359  0.3905  1.1217
  135SOL    HW2  405   3.864   1.154   3.417  1.3511 -0.1795  1.3618
  136SOL     OW  406   3.291   0.206   1.489  0.4605  0.0920 -0.1233
  136SOL    HW1  407   3.351   0.280   1.497 -0.1309  0.5501  0.1828
  136SOL    HW2  408   3.213   0.244   1.447 -1.0913  0.4071  2.7958
  137SOL     OW  409   2.399   2.678   3.884 -0.4267 -0.1744 -0.3595
  137SOL    HW1  410   2.475   2.622   3.866 -0.6094 -0.1600 -1.2278
  137SOL    HW2  411   2.341   2.623   3.937 -0.3289 -0.6018 -0.6876
  138SOL     OW  412   2.339   0.370   0.355 -0.1781  0.1883  0.1442
  138SOL    HW1  413   2.312   0.394   0.267  1.6336 -1.8052 -1.0350
  138SOL    HW2  414   2.410   0.430   0.376 -0.4466  0.5043  0.1538
  139SOL     OW  415   3.099   0.895   2.743 -0.4660 -0.1085 -0.2088
  139SOL    HW1  416   3.057   0.973   2.708  0.9515  0.7580 -0.0947
  139SOL    HW2  417   3.090   0.904   2.838 -1.1668 -0.6117 -0.2193
  140SOL     OW  418   3.413   3.880   1.812  0.1772 -0.5668  0.2300
  140SOL    HW1  419   3.457   3.963   1.828  0.2463 -0.1776 -1.7490
  140SOL    HW2  420   3.473   3.814   1.845  0.0417  0.1443  1.9859
  141SOL     OW  421   2.153   3.265   1.402  0.5655  0.1486  0.2654
  141SOL    HW1  422   2.179   3.292   1.490  0.0839 -1.9613  1.1040
  141SOL    HW2  423   2.101   3.339   1.369 -1.6776 -0.1056  2.8840
  142SOL     OW  424   3.655   2.052   2.632 -0.0152 -0.1797 -0.6053
  142SOL    HW1  425   3.707   2.129   2.654 -1.0358 -0.4027  3.4341
  142SOL    HW2  426   3.613   2.074   2.549 -0.2395  3.6577  0.3205
  143SOL     OW  427   2.079   1.967   3.409  0.4461 -0.1202 -0.3295
  143SOL    HW1  428   2.155   2.024   3.397  0.7295 -0.0263  1.5887
  143SOL    HW2  429   2.111   1.897   3.467 -0.6795 -0.5941 -0.2572
  144SOL     OW  430   2.904   0.916   1.063 -0.3207  0.3276  0.8713
  144SOL    HW1  431   2.979   0.919   1.003  0.1337  2.6159  1.4426
  144SOL    HW2  432   2.856   0.837   1.038  0.4155  0.6237 -1.7946
  145SOL     OW  433   2.982   3.324   1.869  0.1233  0.3363  0.1249
  145SOL    HW1  434   2.965   3.362   1.955 -3.3021  1.0799 -0.7569
  145SOL    HW2  435   2.977   3.397   1.808  2.0534 -0.2546 -0.8335
  146SOL     OW  436   2.432   1.786   3.511  0.0909 -0.1240 -0.0281
  146SOL    HW1  437   2.516   1.821   3.539 -0.2066 -0.8526  1.9214
  146SOL    HW2  438   2.373   1.801   3.585 -0.7111 -2.3189 -0.1201
  147SOL     OW  439   2.667   2.320   3.211 -0.4554 -0.1144  0.1248
  147SOL    HW1  440   2.687   2.331   3.304 -0.9396  1.8128  0.0404
  147SOL    HW2  441   2.751   2.304   3.170  0.1113  1.5588  0.5815
  148SOL     OW  442   2.338   0.945   0.862 -0.5272  0.1695 -0.4191
  148SOL    HW1  443   2.273   1.014   0.875  0.1945  0.3316  3.3203
  148SOL    HW2  444   2.292   0.864   0.885  0.4646  0.2941  2.3412
  149SOL     OW  445   0.720   1.568   0.055 -0.1162  0.0785  0.0473
  149SOL    HW1  446   0.813   1.544   0.053 -0.8506 -3.3610 -1.4309
  149SOL    HW2  447   0.699   1.576   0.148  2.1206  3.6890  0.4001
  150SOL     OW  448   1.504   3.160   3.613 -0.1824 -0.3326  0.1249
  150SOL    HW1  449   1.439   3.170   3.544  0.5768  0.9673 -0.4225
  150SOL    HW2  450   1.494   3.239   3.667  2.2397  0.9318 -1.1178
  151SOL     OW  451   2.036   3.677   1.561  0.5623  0.2208 -0.1905
  151SOL    HW1  452   1.946   3.665   1.592  0.9561  2.0730  1.9808
  151SOL    HW2  453   2.041   3.770   1.537  1.9150  0.1800 -0.1464
  152SOL     OW  454   1.659   1.243   2.230  0.2435 -0.3377  0.0995
  152SOL    HW1  455   1.624   1.317   2.180  0.6069  0.0642  0.4417
  152SOL    HW2  456   1.658   1.170   2.168  0.4142  0.0891 -0.4110
  153SOL     OW  457   3.118   1.900   3.967 -0.0875  0.5131  0.0190
  153SOL    HW1  458   3.202   1.902   3.922  0.4497  0.8123  0.9984
  153SOL    HW2  459   3.136   1.856   4.050 -0.5821  1.7186  0.8036
  154SOL     OW  460   0.638   3.163   3.730  0.3818 -0.0056  0.1567
  154SOL    HW1  461   0.607   3.245   3.768 -0.7708 -0.3050 -0.0741
  154SOL    HW2  462   0.582   3.096   3.770  0.2835 -0.5026 -0.7960
  155SOL     OW  463   0.534   0.431   0.099 -0.3501 -0.0185 -0.4533
  155SOL    HW1  464   0.467   0.369   0.127 -0.4555  0.2635 -0.0637
  155SOL    HW2  465   0.597   0.433   0.171 -1.1437  1.4681  0.2514
  156SOL     OW  466   0.651   0.642   3.172 -0.1227 -0.1894 -0.3826
  156SOL    HW1  467   0.670   0.578   3.240 -0.5416 -1.3597 -1.3360
  156SOL    HW2  468   0.692   0.723   3.203  3.0291 -1.5936 -0.5010
  157SOL     OW  469   0.440   0.839   2.795  0.2165 -0.8974 -0.0375
  157SOL    HW1  470   0.502   0.769   2.810 -1.2952 -1.8014  2.6143
  157SOL    HW2  471   0.488   0.919   2.815  0.9117 -1.4662  0.6091
  158SOL     OW  472   0.765   1.850   0.533  0.4768  0.0897  0.9542
  158SOL    HW1  473   0.707   1.871   0.460 -0.3962  0.1204  1.6455
  158SOL    HW2  474   0.792   1.759   0.516 -0.1633 -0.0913  0.8800
  159SOL     OW  475   2.588   1.557   3.442  0.5392  0.0111 -0.4703
  159SOL    HW1  476   2.552   1.646   3.448 -0.1381 -0.0864 -2.2312
  159SOL    HW2  477   2.644   1.548   3.518 -0.9310  1.2341  0.8299
  160SOL     OW  478   2.270   0.732   2.039 -0.0384  0.6570 -0.0664
  160SOL    HW1  479   2.313   0.667   2.095 -0.3774 -0.2736 -0.8728
  160SOL    HW2  480   2.198   0.765   2.092 -0.1232  0.0625  0.1979
  161SOL     OW  481   0.066   2.430   2.330  0.0385 -0.7303 -0.3887
  161SOL    HW1  482   0.108   2.513   2.310 -1.0546 -0.4266 -1.5725
  161SOL    HW2  483   0.088   2.373   2.256  0.9543 -1.5969  0.5067
  162SOL     OW  484   2.489   1.108   0.131  0.1336  0.4867 -0.1334
  162SOL    HW1  485   2.503   1.053   0.208 -0.5581 -0.5813 -0.7465
  162SOL    HW2  486   2.549   1.072   0.065 -2.1170 -1.2782 -1.3657
  163SOL     OW  487   1.191   1.679   1.720  0.2613 -0.5519  0.1897
  163SOL    HW1  488   1.221   1.743   1.784  0.3869 -0.6386  0.2177
  163SOL    HW2  489   1.244   1.695   1.642  0.0385 -0.3785  0.0717
  164SOL     OW  490   2.928   3.209   2.881  0.2783 -0.8692 -0.4236
  164SOL    HW1  491   2.993   3.193   2.813  0.5824 -1.3098 -0.0394
  164SOL    HW2  492   2.853   3.246   2.835  0.3423 -1.4895 -1.0480
  165SOL     OW  493   1.483   1.939   0.429 -0.0317 -0.6388  0.0759
  165SOL    HW1  494   1.393   1.914   0.407 -1.3014  2.6218  0.8821
  165SOL    HW2  495   1.506   2.004   0.363  1.2763 -0.5971  0.5535
  166SOL     OW  496   1.991   0.387   1.008 -0.3966 -0.1066  0.2188
  166SOL    HW1  497   2.008   0.348   1.094 -1.2426 -2.4685 -0.6066
  166SOL    HW2  498   2.054   0.346   0.950  0.0917  1.3858 -0.3650
  167SOL     OW  499   2.913   2.502   2.596 -0.2318 -0.2776  0.0772
  167SOL    HW1  500   2.962   2.420   2.604  2.7170  1.0348 -2.7874
  167SOL    HW2  501   2.978   2.570   2.610 -1.8330  1.5897 -1.1937
  168SOL     OW  502   2.417   3.196   1.603  0.2256 -0.5631 -0.8130
  168SOL    HW1  503   2.414   3.279   1.554 -3.9081  0.1162  0.2120
  168SOL    HW2  504   2.424   3.223   1.694  0.1235 -1.4226 -0.5480
  169SOL     OW  505   3.417   2.292   0.387  0.4635  1.0557 -0.0152
  169SOL    HW1  506   3.473   2.297   0.310  0.0215  1.3620 -0.3242
  169SOL    HW2  507   3.405   2.383   0.414 -0.3965  1.0451 -0.3347
  170SOL     OW  508   1.223   3.504   1.019 -0.5748  0.3702  0.0367
  170SOL    HW1  509   1.317   3.522   1.030 -0.5945  0.4684  0.0395
  170SOL    HW2  510   1.182   3.590   1.020 -0.7278  0.2990  0.6229
  171SOL     OW  511   3.348   0.138   2.761  0.7791  0.3762  0.2448
  171SOL    HW1  512   3.426   0.086   2.743  1.3672  0.9416  1.1108
  171SOL    HW2  513   3.283   0.075   2.792  0.1525 -0.4439 -2.4253
  172SOL     OW  514   2.857   1.314   0.969 -0.1113  0.0637  0.0950
  172SOL    HW1  515   2.852   1.329   0.874 -0.1715  0.9027  0.2191
  172SOL    HW2  516   2.792   1.246   0.986 -0.1539 -0.0391 -0.4553
  173SOL     OW  517   1.207   2.675   0.326  0.3762  0.3540  0.2169
  173SOL    HW1  518   1.167   2.597   0.362  0.9286  0.5589  1.3316
  173SOL    HW2  519   1.294   2.678   0.365  0.8495  0.8336 -0.8157
  174SOL     OW  520   3.938   3.123   0.959  0.3581  0.4611 -0.0172
  174SOL    HW1  521   3.879   3.197   0.970  0.5386  0.8681 -1.5671
  174SOL    HW2  522   3.881   3.046   0.966  0.2574  0.6871  2.1444
  175SOL     OW  523   1.414   0.804   2.467  0.3613  0.6907 -0.4362
  175SOL    HW1  524   1.380   0.874   2.412  0.8117  2.6685  1.6117
  175SOL    HW2  525   1.349   0.794   2.536  1.1850  0.4191  0.3289
  176SOL     OW  526   1.952   3.782   0.538  0.3630  0.0252  0.2989
  176SOL    HW1  527   1.910   3.781   0.624  1.9005  1.9448  1.1357
  176SOL    HW2  528   2.026   3.723   0.546  1.3882  1.3360  0.8201
  177SOL     OW  529   2.643   0.064   3.794 -0.0977  0.6240  0.1396
  177SOL    HW1  530   2.721   0.117   3.778  0.0138 -0.1587 -2.3847
  177SOL    HW2  531   2.572   0.127   3.801  0.4227  1.2348  0.0332
  178SOL     OW  532   3.746   3.859   0.775 -0.2137 -0.7002 -0.0453
  178SOL    HW1  533   3.763   3.919   0.703 -0.6282 -1.0036 -0.4002
  178SOL    HW2  534   3.651   3.860   0.786 -0.3024 -1.8025 -0.5140
  179SOL     OW  535   0.988   2.033   1.963  0.0388 -0.1396  0.2014
  179SOL    HW1  536   1.043   2.066   1.892 -0.6044  0.5585  0.0074
  179SOL    HW2  537   1.007   2.091   2.037 -1.3331  0.9182 -0.2343
  180SOL     OW  538   3.954   2.868   1.863  0.3513  0.0089  0.5192
  180SOL    HW1  539   4.047   2.885   1.870  0.3568  1.1082 -1.5553
  180SOL    HW2  540   3.913   2.934   1.918  0.7117  1.7653 -1.2168
  181SOL     OW  541   1.803   2.836   1.213  0.1026  0.4827 -0.0450
  181SOL    HW1  542   1.783   2.785   1.134  0.4911  0.2511  0.0005
  181SOL    HW2  543   1.858   2.777   1.265 -0.2739  0.5813  0.4632
  182SOL     OW  544   1.788   2.085   3.579 -0.6335  0.2713  0.0680
  182SOL    HW1  545   1.799   2.068   3.486  2.4950  0.7849  0.2112
  182SOL    HW2  546   1.807   2.000   3.621  1.2344  0.7288  0.2695
  183SOL     OW  547   0.193   2.071   3.581  0.0277 -0.7236  1.0330
  183SOL    HW1  548   0.147   2.140   3.533 -0.7089 -2.2215 -0.5036
  183SOL    HW2  549   0.285   2.083   3.557  0.3212  1.2406  2.7990
  184SOL     OW  550   0.664   2.542   1.325 -0.2972 -0.2547  0.5454
  184SOL    HW1  551   0.728   2.487   1.370  1.0997  1.3847  0.6664
  184SOL    HW2  552   0.690   2.539   1.233 -0.4426 -0.0780  0.4978
  185SOL     OW  553   3.101   2.325   3.543  0.2998 -0.2181 -0.7935
  185SOL    HW1  554   3.064   2.407   3.508  0.7469  0.5704  0.5050
  185SOL    HW2  555   3.167   2.354   3.606  0.7792 -1.5977 -0.6352
  186SOL     OW  556   0.119   3.231   2.038 -0.2429 -0.1676  0.0402
  186SOL    HW1  557   0.169   3.311   2.053  0.9279 -0.9052  0.2248
  186SOL    HW2  558   0.094   3.235   1.946 -1.7352  1.2342  0.4637
  187SOL     OW  559   1.193   1.389   1.371 -0.3629  0.1840  0.0016
  187SOL    HW1  560   1.155   1.473   1.397  1.3693  2.1369 -3.1258
  187SOL    HW2  561   1.153   1.325   1.430 -2.8310  2.9819  1.6336
  188SOL     OW  562   0.824   3.277   2.886  0.2384 -0.3055  0.2004
  188SOL    HW1  563   0.891   3.250   2.949 -0.3976  0.1236  1.0805
  188SOL    HW2  564   0.873   3.319   2.816  1.0597 -1.7609 -0.1493
  189SOL     OW  565   1.856   3.374   1.166 -0.0192 -0.5449  0.0262
  189SOL    HW1  566   1.800   3.334   1.233  0.6044 -1.2486  0.1348
  189SOL    HW2  567   1.907   3.439   1.214  1.9618 -2.4943  0.7086
  190SOL     OW  568   3.530   1.149   2.267  0.4976 -1.0649  0.1515
  190SOL    HW1  569   3.585   1.073   2.288  0.7192 -1.4656 -1.7096
  190SOL    HW2  570   3.494   1.129   2.180  2.1624  1.8191 -1.3405
  191SOL     OW  571   1.805   3.772   1.710  0.2060 -0.3666 -0.2893
  191SOL    HW1  572   1.744   3.784   1.638 -0.1351  1.2570  0.2156
  191SOL    HW2  573   1.750   3.751   1.785  0.1499  1.5744  0.2761
  192SOL     OW  574   1.360   3.806   3.758  0.7176  0.3939  0.0938
  192SOL    HW1  575   1.360   3.830   3.850  2.5336 -1.6177  0.7179
  192SOL    HW2  576   1.423   3.865   3.717  1.9157 -0.4055  0.7265
  193SOL     OW  577   0.737   2.160   0.329 -0.4899 -0.3043  0.0633
  193SOL    HW1  578   0.741   2.251   0.299 -0.9755 -0.2073  0.3008
  193SOL    HW2  579   0.724   2.166   0.423  1.6211 -0.6015  0.4362
  194SOL     OW  580   3.430   1.582   1.045 -0.1053  0.2907 -0.0529
  194SOL    HW1  581   3.403   1.578   0.953 -1.2603 -0.5261  0.2874
  194SOL    HW2  582   3.349   1.565   1.094  1.0262 -2.4827  1.0596
  195SOL     OW  583   3.935   1.599   3.485 -0.2754 -0.4927  0.5938
  195SOL    HW1  584   3.982   1.536   3.431 -1.2566 -0.4060 -0.3939
  195SOL    HW2  585   4.004   1.656   3.520  0.6643 -2.3106  1.8299
  196SOL     OW  586   2.358   2.693   0.255 -0.5004 -0.0362  0.2144
  196SOL    HW1  587   2.341   2.766   0.195  0.7118  0.1188  0.0382
  196SOL    HW2  588   2.453   2.693   0.267 -0.6318 -0.6726  1.3819
  197SOL     OW  589   1.645   3.427   0.983 -0.1591  0.6736 -0.0648
  197SOL    HW1  590   1.725   3.407   1.031 -0.9122 -0.6408  0.7287
  197SOL    HW2  591   1.600   3.342   0.975 -0.4737  0.9785 -2.3928
  198SOL     OW  592   3.887   3.581   2.844  0.4118  0.0271  0.4692
  198SOL    HW1  593   3.925   3.497   2.866 -0.9013 -0.4822  0.9039
  198SOL    HW2  594   3.960   3.633   2.812  1.2366 -1.2805  0.1614
  199SOL     OW  595   1.971   3.079   3.041  0.6081  0.1874 -0.0935
  199SOL    HW1  596   1.979   3.004   3.100 -0.3643 -0.1356 -0.3435
  199SOL    HW2  597   1.879   3.105   3.049 -0.4675 -1.7860 -3.7031
  200SOL     OW  598   2.728   0.225   3.056  0.2649  0.4112  0.1980
  200SOL    HW1  599   2.799   0.257   3.111  1.5244  0.8132 -1.5857
  200SOL    HW2  600   2.711   0.296   2.994 -0.2435 -0.4829 -0.7253
  201SOL     OW  601   1.107   3.756   0.979  0.3592 -0.6229  0.1577
  201SOL    HW1  602   1.104   3.795   1.066 -0.1585  0.0563 -0.1584
  201SOL    HW2  603   1.073   3.824   0.920  1.7754 -0.6510 -0.7324
  202SOL     OW  604   1.037   3.697   2.685 -0.1055  0.5624 -0.2024
  202SOL    HW1  605   1.021   3.757   2.759 -1.8436  0.3886 -0.3988
  202SOL    HW2  606   1.037   3.754   2.608  3.1314  0.9608 -0.0475
  203SOL     OW  607   1.046   2.191   3.027  0.3219  0.5033 -0.5031
  203SOL    HW1  608   1.029   2.098   3.016  2.1781 -0.2019  1.8127
  203SOL    HW2  609   0.959   2.230   3.037 -0.4311 -1.3500  0.8163
  204SOL     OW  610   2.086   2.358   0.571  0.0139  0.1221 -0.2075
  204SOL    HW1  611   2.171   2.387   0.603  0.9762 -1.4903 -1.1955
  204SOL    HW2  612   2.070   2.412   0.493  0.9151 -0.6637 -0.9573
  205SOL     OW  613   3.723   3.284   3.809 -0.2040 -0.2368 -0.0122
  205SOL    HW1  614   3.753   3.292   3.718 -0.6102 -0.7664 -0.1950
  205SOL    HW2  615   3.709   3.374   3.837 -0.2150 -0.0739 -0.5250
  206SOL     OW  616   2.219   3.226   2.480 -0.1172 -0.3412  0.4238
  206SOL    HW1  617   2.214   3.158   2.413  1.1985 -0.0462 -0.0053
  206SOL    HW2  618   2.246   3.305   2.432 -2.0200  0.6252  0.8318
  207SOL     OW  619   0.550   2.856   0.917 -0.0712 -0.2575 -0.0510
  207SOL    HW1  620   0.467   2.861   0.965 -2.1914 -2.5865 -3.0306
  207SOL    HW2  621   0.601   2.931   0.948 -3.1774  1.1870  2.0808
  208SOL     OW  622   0.345   0.422   0.493 -0.2162  0.0126 -0.0059
  208SOL    HW1  623   0.275   0.427   0.428  0.2294  0.8326 -0.4266
  208SOL    HW2  624   0.304   0.451   0.574 -1.1247 -2.2075  0.4158
  209SOL     OW  625   2.071   0.270   2.399  0.3609 -0.8284  0.7115
  209SOL    HW1  626   2.004   0.223   2.349  0.9885 -1.6655  0.6361
  209SOL    HW2  627   2.131   0.303   2.332  0.1901 -0.3424  0.7982
  210SOL     OW  628   1.490   1.264   1.432 -0.5314 -0.2716  0.6200
  210SOL    HW1  629   1.544   1.185   1.425  0.5054  0.2600  1.9963
  210SOL    HW2  630   1.400   1.233   1.428 -0.2084 -1.0937 -2.7070
  211SOL     OW  631   0.999   3.563   3.009  0.0781  0.2320  0.5637
  211SOL    HW1  632   0.906   3.549   2.991  0.4975 -1.4028 -0.4825
  211SOL    HW2  633   1.036   3.589   2.925  0.2254  3.2799  1.4313
  212SOL     OW  634   0.967   0.846   2.441 -0.1666 -0.2277 -0.8072
  212SOL    HW1  635   1.056   0.818   2.463  1.4203  1.9942 -3.6769
  212SOL    HW2  636   0.914   0.768   2.455  2.3928 -1.9663  0.0666
  213SOL     OW  637   2.583   1.373   0.701 -0.2717 -0.7609 -0.6014
  213SOL    HW1  638   2.555   1.374   0.792 -0.6718  0.2157 -0.7233
  213SOL    HW2  639   2.505   1.399   0.652  0.9500  2.8648 -0.9109
  214SOL     OW  640   1.251   4.010   1.606 -0.7630 -0.0889  0.2266
  214SOL    HW1  641   1.196   3.985   1.532 -2.1115 -1.7770  1.7140
  214SOL    HW2  642   1.279   3.927   1.644  0.8471  0.7476  0.9570
  215SOL     OW  643   1.169   0.764   2.614 -0.3194 -0.8324  0.0054
  215SOL    HW1  644   1.142   0.841   2.663  3.2797  0.1202  0.7783
  215SOL    HW2  645   1.130   0.691   2.661 -2.2198  0.3460  0.3870
  216SOL     OW  646   1.727   1.447   0.901  0.0757 -0.2319  0.3970
  216SOL    HW1  647   1.725   1.483   0.990 -0.7308 -1.2060  0.7833
  216SOL    HW2  648   1.688   1.360   0.909  0.6213 -0.6011 -0.7960
  217SOL     OW  649   0.178   0.450   2.196 -0.5431  0.0485  0.6759
  217SOL    HW1  650   0.221   0.391   2.259 -1.6377 -0.6660  0.7869
  217SOL    HW2  651   0.186   0.537   2.236  0.2988 -0.1462  0.9547
  218SOL     OW  652   0.856   3.516   1.095  0.3948  0.4557 -0.5493
  218SOL    HW1  653   0.912   3.571   1.040  0.6633  0.4192 -0.3093
  218SOL    HW2  654   0.914   3.447   1.127 -0.1062 -0.4490 -1.5007
  219SOL     OW  655   1.619   3.601   2.523 -0.1693  0.3652 -0.2653
  219SOL    HW1  656   1.614   3.525   2.465  1.7913  0.6290 -0.8504
  219SOL    HW2  657   1.628   3.564   2.611 -0.3927 -0.0661 -0.4216
  220SOL     OW  658   0.851   0.131   2.880 -0.2015 -0.3769  0.0118
  220SOL    HW1  659   0.917   0.194   2.851  0.0325 -0.9742 -0.7993
  220SOL    HW2  660   0.853   0.137   2.976  2.3740 -1.7093  0.1282
  221SOL     OW  661   2.621   1.617   1.341 -0.3665  0.0072  0.1359
  221SOL    HW1  662   2.668   1.535   1.324  0.4467  0.4704  0.1242
  221SOL    HW2  663   2.670   1.683   1.292 -0.1745  0.7427  1.2971
  222SOL     OW  664   2.060   0.914   3.892 -0.4934 -0.2152 -0.7039
  222SOL    HW1  665   2.032   0.823   3.878 -0.7805 -0.1733 -0.4137
  222SOL    HW2  666   1.997   0.949   3.954  0.8762 -0.5037  0.9423
  223SOL     OW  667   2.079   2.882   0.257  0.1771 -0.7302  0.1158
  223SOL    HW1  668   2.173   2.889   0.277  0.1121 -1.2176  0.6039
  223SOL    HW2  669   2.041   2.841   0.335 -0.4418 -0.5500 -0.0878
  224SOL     OW  670   0.125   0.772   3.276 -0.3280  0.1518 -0.0666
  224SOL    HW1  671   0.196   0.720   3.314 -0.5735  0.2593  0.5508
  224SOL    HW2  672   0.108   0.731   3.192  1.6076  1.1161 -1.0115
  225SOL     OW  673   2.592   2.071   2.502 -0.5108  0.1109 -0.0043
  225SOL    HW1  674   2.621   2.140   2.561  0.8676 -1.8364  1.7668
  225SOL    HW2  675   2.512   2.037   2.542  0.4903 -1.2935  0.8956
  226SOL     OW  676   3.470   0.663   2.707  0.1021 -0.1939 -0.5263
  226SOL    HW1  677   3.442   0.654   2.616 -1.1360  0.3629 -0.2207
  226SOL    HW2  678   3.563   0.640   2.706  0.4909  1.1899 -2.1897
  227SOL     OW  679   3.185   3.470   1.759 -0.2668 -0.0313  0.5081
  227SOL    HW1  680   3.181   3.375   1.748 -2.4923 -0.1120  1.3902
  227SOL    HW2  681   3.257   3.498   1.704  0.3040 -2.2093  0.0542
  228SOL     OW  682   2.061   3.311   3.995  0.4041  0.3967  0.6425
  228SOL    HW1  683   1.998   3.259   3.946  0.4463  0.5676  0.4046
  228SOL    HW2  684   2.017   3.394   4.010  0.6311  0.5770  0.3311
  229SOL     OW  685   1.679   2.621   1.816 -0.0691  0.3989  0.3930
  229SOL    HW1  686   1.623   2.557   1.772  0.6433  0.4262 -0.5928
  229SOL    HW2  687   1.625   2.656   1.887 -0.6145 -0.9708  0.6759
  230SOL     OW  688   0.663   1.901   0.260  0.0512  0.4336  0.5414
  230SOL    HW1  689   0.700   1.988   0.276 -1.1504  1.0268  0.2177
  230SOL    HW2  690   0.585   1.918   0.207 -0.7605 -0.7583  1.3213
  231SOL     OW  691   4.013   0.665   0.555 -0.0153 -0.2656 -0.0958
  231SOL    HW1  692   4.048   0.655   0.644 -0.0184 -3.5348 -0.3473
  231SOL    HW2  693   3.929   0.709   0.567  0.8500  1.1616  1.2506
  232SOL     OW  694   0.651   2.108   3.300 -0.9252 -0.2522 -0.3471
  232SOL    HW1  695   0.647   2.202   3.316 -0.1270 -0.3556  0.5298
  232SOL    HW2  696   0.675   2.101   3.207 -1.7843  0.3960 -0.6255
  233SOL     OW  697   0.680   0.577   2.161 -0.2280  0.0034 -0.2672
  233SOL    HW1  698   0.727   0.652   2.124  0.7976  0.1860  1.2873
  233SOL    HW2  699   0.704   0.578   2.254 -1.4736 -1.3197  0.0999
  234SOL     OW  700   3.863   2.447   0.858  0.1492  0.1245 -0.4114
  234SOL    HW1  701   3.837   2.531   0.895  0.6816  0.2279 -0.2566
  234SOL    HW2  702   3.923   2.469   0.787  0.7483 -0.1282 -0.0046
  235SOL     OW  703   0.704   0.474   3.374 -0.3725  0.3730 -0.7899
  235SOL    HW1  704   0.756   0.417   3.431 -0.2823 -0.1229 -1.3622
  235SOL    HW2  705   0.619   0.480   3.417  0.2374  1.4524  0.3261
  236SOL     OW  706   2.169   0.066   2.809  0.0789  0.8029 -0.3005
  236SOL    HW1  707   2.158  -0.028   2.797  2.3007  0.4303  0.1754
  236SOL    HW2  708   2.264   0.080   2.810 -0.0150  2.4941  3.3579
  237SOL     OW  709   3.915   3.301   3.029 -0.2836 -0.1231  0.0818
  237SOL    HW1  710   3.940   3.227   3.085 -0.3149  0.9265  1.5562
  237SOL    HW2  711   3.821   3.289   3.015 -0.1395 -0.7785 -0.3437
  238SOL     OW  712   1.598   1.020   1.386  0.9197  0.0057  0.5176
  238SOL    HW1  713   1.561   0.966   1.456  1.3582  0.4162  1.0731
  238SOL    HW2  714   1.690   1.029   1.409  1.2224 -0.4202 -0.4821
  239SOL     OW  715   3.448   0.041   1.366 -0.4017 -0.0934 -0.5794
  239SOL    HW1  716   3.426   0.106   1.432  1.2468 -0.8377  0.7993
  239SOL    HW2  717   3.524   0.078   1.320 -0.5572 -0.2816 -0.9972
  240SOL     OW  718   2.962   2.107   3.408 -0.1316 -0.0884  0.0062
  240SOL    HW1  719   2.987   2.179   3.465 -3.2059  0.7732  0.4281
  240SOL    HW2  720   2.930   2.039   3.467 -0.3901 -0.4610 -0.5484
  241SOL     OW  721   1.137   1.299   0.535 -0.2821  0.4709  0.1859
  241SOL    HW1  722   1.043   1.282   0.536 -0.1426 -0.9553 -2.4036
  241SOL    HW2  723   1.174   1.236   0.596 -0.8892  0.0049  0.0813
  242SOL     OW  724   1.435   2.601   3.888 -0.2053 -0.1515 -0.2353
  242SOL    HW1  725   1.350   2.625   3.925 -0.1389  0.4983 -0.4893
  242SOL    HW2  726   1.419   2.599   3.793 -0.5410 -2.4251 -0.1848
  243SOL     OW  727   1.103   0.496   0.185 -0.4981  0.2707  0.0609
  243SOL    HW1  728   1.021   0.524   0.145  0.9250  3.0703 -1.2237
  243SOL    HW2  729   1.123   0.564   0.249  0.3249 -0.9336  1.1360
  244SOL     OW  730   3.770   3.183   1.408 -0.2419 -0.4912  1.0063
  244SOL    HW1  731   3.734   3.224   1.487 -0.8522 -1.4243  1.2209
  244SOL    HW2  732   3.723   3.101   1.400  0.3225 -0.7328  0.0585
  245SOL     OW  733   3.958   3.224   1.817 -0.1186 -0.3122 -0.4077
  245SOL    HW1  734   3.993   3.160   1.755 -1.3974  0.9237 -2.5232
  245SOL    HW2  735   3.863   3.215   1.810 -0.4220  2.7333 -1.9416
  246SOL     OW  736   1.785   0.773   2.774 -0.0756 -0.2082 -0.0628
  246SOL    HW1  737   1.781   0.690   2.822  0.0623  1.3354  2.8500
  246SOL    HW2  738   1.709   0.822   2.803  0.0608  0.8788 -1.4143
  247SOL     OW  739   3.191   3.015   0.060 -0.1717  0.2736  0.3069
  247SOL    HW1  740   3.276   2.972   0.073  0.1286  0.6698 -0.3183
  247SOL    HW2  741   3.213   3.107   0.042 -0.7014  0.2707 -0.3893
  248SOL     OW  742   2.939   0.219   0.591 -0.1075  0.3278 -0.2265
  248SOL    HW1  743   2.857   0.257   0.623 -1.0260 -1.3478 -0.4690
  248SOL    HW2  744   2.994   0.210   0.669 -0.3910  0.9064  0.0421
  249SOL     OW  745   2.970   3.975   1.481 -0.0321 -0.3364  0.1349
  249SOL    HW1  746   2.905   4.045   1.478 -1.0168 -1.2493 -1.2397
  249SOL    HW2  747   2.988   3.963   1.575 -1.1604  0.5745  0.4877
  250SOL     OW  748   3.408   0.357   3.285 -0.0949 -0.1704  0.4193
  250SOL    HW1  749   3.364   0.396   3.209  2.0303  0.0120 -0.8151
  250SOL    HW2  750   3.447   0.431   3.331  1.2304 -0.4956 -0.1154
  251SOL     OW  751   1.838   1.067   1.507 -0.7684  0.3875  0.2475
  251SOL    HW1  752   1.912   1.019   1.544  0.0068  0.4829 -1.1221
  251SOL    HW2  753   1.870   1.157   1.497 -0.6297  0.1836 -1.4527
  252SOL     OW  754   3.796   0.702   2.928 -0.5653  0.3341 -0.1926
  252SOL    HW1  755   3.808   0.792   2.956  2.1136  0.4059 -1.2758
  252SOL    HW2  756   3.742   0.662   2.997  0.3155  2.1109  1.6258
  253SOL     OW  757   3.508   2.224   1.964 -0.4092  0.4960  0.6781
  253SOL    HW1  758   3.493   2.202   1.872 -0.7420  0.7264  0.6750
  253SOL    HW2  759   3.595   2.263   1.965 -0.3805  0.4401  0.4698
  254SOL     OW  760   2.124   1.127   3.501  0.1686 -0.5113 -0.0280
  254SOL    HW1  761   2.189   1.064   3.471 -1.5042 -1.5467 -1.6576
  254SOL    HW2  762   2.044   1.104   3.455 -0.8395  2.0937  0.2133
  255SOL     OW  763   2.604   3.654   1.286  0.2637  0.2336 -0.5670
  255SOL    HW1  764   2.641   3.670   1.373 -1.0079 -1.1649  0.2768
  255SOL    HW2  765   2.599   3.741   1.245  1.0185  0.8902  0.6745
  256SOL     OW  766   2.415   2.923   1.585 -0.3866 -0.0610 -0.4437
  256SOL    HW1  767   2.404   3.018   1.586 -1.5753 -0.1442 -2.1564
  256SOL    HW2  768   2.476   2.906   1.513 -2.2281 -0.7245 -1.9322
  257SOL     OW  769   1.678   1.909   2.494  0.0520  0.5590  0.5178
  257SOL    HW1  770   1.640   1.868   2.572 -0.4800 -0.2403 -0.1429
  257SOL    HW2  771   1.608   1.906   2.429  1.3385 -1.3526 -0.8814
  258SOL     OW  772   3.302   2.812   2.540 -0.2694  0.3105 -0.6952
  258SOL    HW1  773   3.394   2.787   2.546 -0.3476  0.0203 -0.7266
  258SOL    HW2  774   3.271   2.770   2.460 -0.2804  0.8745 -0.9931
  259SOL     OW  775   3.580   0.991   2.496  0.2303 -0.1898 -0.1750
  259SOL    HW1  776   3.591   0.896   2.487  0.3094 -0.2722  0.7198
  259SOL    HW2  777   3.491   1.008   2.465  0.7042 -0.3481 -1.7008
  260SOL     OW  778   3.833   2.279   2.691 -0.0604  0.5332 -0.1314
  260SOL    HW1  779   3.876   2.360   2.664 -0.8573  0.3250 -2.2132
  260SOL    HW2  780   3.902   2.227   2.730  0.5163  2.1120  1.0402
  261SOL     OW  781   1.729   1.432   1.467  0.0844  0.0251  0.4292
  261SOL    HW1  782   1.741   1.423   1.561 -1.1693  0.5848  0.6557
  261SOL    HW2  783   1.637   1.410   1.451  0.3338 -0.2802 -0.6939
  262SOL     OW  784   3.344   3.702   1.136 -0.6247 -0.2966 -0.0846
  262SOL    HW1  785   3.292   3.736   1.209 -0.3118  2.2066 -0.9175
  262SOL    HW2  786   3.425   3.672   1.177 -1.3127 -0.9736  0.8209
  263SOL     OW  787   2.664   2.409   0.904  0.3175 -0.9167  0.1780
  263SOL    HW1  788   2.592   2.466   0.877  0.3396 -0.3891  1.1769
  263SOL    HW2  789   2.623   2.325   0.924 -0.3547 -0.1299  2.4678
  264SOL     OW  790   0.370   2.426   1.024  0.3386 -0.1921  0.0905
  264SOL    HW1  791   0.367   2.514   0.985  3.0824 -0.0620 -0.0116
  264SOL    HW2  792   0.302   2.378   0.977 -0.2402  1.4791 -0.8959
  265SOL     OW  793   0.267   0.542   1.319  0.5201 -0.0322  0.0155
  265SOL    HW1  794   0.264   0.632   1.350 -0.8288  0.0042 -0.1839
  265SOL    HW2  795   0.354   0.534   1.279 -0.0526  1.8018 -1.7710
  266SOL     OW  796   0.180   3.340  -0.028  0.0935 -0.8189  0.1591
  266SOL    HW1  797   0.134   3.376   0.048 -1.4214 -0.3407 -0.9427
  266SOL    HW2  798   0.271   3.331   0.001  0.0055  1.4330  1.3199
  267SOL     OW  799   1.842   3.799   0.842  0.3543  0.3170  0.0735
  267SOL    HW1  800   1.830   3.707   0.818 -0.2883  0.4509 -0.1205
  267SOL    HW2  801   1.755   3.837   0.839  0.8031  1.3075 -1.4067
  268SOL     OW  802   1.994   1.538   0.551 -0.0059  0.4824 -0.2526
  268SOL    HW1  803   2.003   1.606   0.484 -2.2165 -0.0714 -1.1923
  268SOL    HW2  804   1.976   1.587   0.632  0.0893  1.0765 -0.5882
  269SOL     OW  805   2.814   2.772   3.240  0.3227 -0.1174 -0.5804
  269SOL    HW1  806   2.752   2.825   3.290  0.8018 -1.0262  1.0598
  269SOL    HW2  807   2.760   2.725   3.176 -0.7952 -1.1972  1.0731
  270SOL     OW  808   0.346   1.433   1.602 -0.6805 -0.4126  0.4207
  270SOL    HW1  809   0.393   1.388   1.532 -1.6451  0.9445 -1.1712
  270SOL    HW2  810   0.406   1.430   1.677  1.0591 -0.5385 -0.9056
  271SOL     OW  811   3.412   2.836   3.023  0.1113  0.0614 -0.6371
  271SOL    HW1  812   3.480   2.903   3.032  2.2093 -1.6533 -2.4458
  271SOL    HW2  813   3.377   2.824   3.111  2.2723  0.9570  0.4087
  272SOL     OW  814   2.897   1.591   0.422  0.0176 -0.4101 -0.4381
  272SOL    HW1  815   2.902   1.643   0.503  0.3693  0.5027 -1.0197
  272SOL    HW2  816   2.865   1.653   0.356  0.7367 -0.8417 -1.2192
  273SOL     OW  817   3.665   2.262   3.837 -0.5783  0.5143  0.2366
  273SOL    HW1  818   3.735   2.282   3.774 -0.3372  0.5004  0.4956
  273SOL    HW2  819   3.646   2.170   3.822 -1.5842  0.8749 -0.8537
  274SOL     OW  820   3.779   2.638   0.337 -0.0663  0.5618 -0.5127
  274SOL    HW1  821   3.741   2.637   0.249 -0.2757 -1.6636 -0.4558
  274SOL    HW2  822   3.790   2.731   0.357 -0.7363  1.1459 -2.5655
  275SOL     OW  823   1.563   2.268   2.167 -0.4178  0.3747 -0.1573
  275SOL    HW1  824   1.547   2.358   2.139 -0.4011  0.4853  0.1875
  275SOL    HW2  825   1.630   2.236   2.106 -0.1752  0.7090 -0.0726
  276SOL     OW  826   2.401   0.970   2.126  0.6692 -0.3446  0.6443
  276SOL    HW1  827   2.338   0.915   2.080  1.5456 -0.8608  0.0187
  276SOL    HW2  828   2.361   0.988   2.211 -0.8130  0.2856 -0.1430
  277SOL     OW  829   2.660   3.636   2.617 -0.1170  0.3189 -0.2504
  277SOL    HW1  830   2.736   3.585   2.589 -0.6815  0.0855 -1.4427
  277SOL    HW2  831   2.607   3.645   2.537 -2.1644 -0.9353  0.8840
  278SOL     OW  832   3.417   3.933   3.426  0.6302  0.0072  0.5009
  278SOL    HW1  833   3.371   3.851   3.406  2.6223 -0.7759 -1.1211
  278SOL    HW2  834   3.382   3.996   3.364 -2.1560  0.9930  2.8297
  279SOL     OW  835   1.675   2.962   3.976  0.0252  0.4908  0.3424
  279SOL    HW1  836   1.584   2.965   4.002  0.4006 -1.0378  1.9841
  279SOL    HW2  837   1.672   2.955   3.880 -1.5250  0.9967  0.3245
  280SOL     OW  838   1.607   0.946   1.083  0.4236  0.3253 -0.0669
  280SOL    HW1  839   1.598   0.852   1.101 -0.3923  0.4085  0.0046
  280SOL    HW2  840   1.566   0.989   1.158 -0.0052  0.7255 -0.5225
  281SOL     OW  841   3.537   3.607   0.533  0.2069  0.2099  0.3746
  281SOL    HW1  842   3.625   3.582   0.558 -0.5416 -1.2113  1.7528
  281SOL    HW2  843   3.541   3.621   0.438  1.8960  0.2276  0.4306
  282SOL     OW  844   3.698   2.431   1.270 -0.0404 -0.1407  0.0673
  282SOL    HW1  845   3.769   2.495   1.269 -0.5366  0.4591  1.3444
  282SOL    HW2  846   3.629   2.470   1.217 -0.8435  1.0282  1.8878
  283SOL     OW  847   1.578   3.706   2.268 -0.9468  0.1632  0.1876
  283SOL    HW1  848   1.543   3.795   2.265 -0.5662  0.3198  0.3113
  283SOL    HW2  849   1.559   3.676   2.357 -1.8414 -0.2006 -0.1123
  284SOL     OW  850   3.547   3.451   1.804 -0.4607 -0.0398 -0.0889
  284SOL    HW1  851   3.488   3.507   1.754  0.6417  0.1522 -1.2426
  284SOL    HW2  852   3.629   3.501   1.809 -0.7419  0.3234  2.6782
  285SOL     OW  853   2.013   0.963   2.473 -0.0178 -0.7499 -0.2938
  285SOL    HW1  854   1.958   1.014   2.413 -0.5062  0.8975  1.4561
  285SOL    HW2  855   2.074   1.026   2.510  0.9434 -1.9214  0.2042
  286SOL     OW  856   2.729   0.377   2.571  1.0462 -0.1177  0.4731
  286SOL    HW1  857   2.794   0.312   2.595  0.2613 -1.7400 -1.5554
  286SOL    HW2  858   2.715   0.365   2.477 -1.6051  0.6642  0.6679
  287SOL     OW  859   3.337   2.093   3.761  0.1092  0.0602  0.5634
  287SOL    HW1  860   3.342   2.016   3.706 -0.4592  0.7954 -0.5538
  287SOL    HW2  861   3.418   2.091   3.812  0.8458 -0.4347 -0.5826
  288SOL     OW  862   3.552   1.486   3.878  0.9316 -0.6833 -0.1472
  288SOL    HW1  863   3.611   1.532   3.817  2.7198 -0.4008  1.6950
  288SOL    HW2  864   3.504   1.557   3.922  2.0515 -0.6595  1.0852
  289SOL     OW  865   1.723   3.140   0.176  0.3601 -0.6132  0.5144
  289SOL    HW1  866   1.739   3.076   0.106 -2.2924 -0.8876  0.0455
  289SOL    HW2  867   1.657   3.200   0.139  1.3698  1.2620  1.6336
  290SOL     OW  868   1.134   1.337   0.956 -0.3264 -0.4456  0.1538
  290SOL    HW1  869   1.114   1.420   0.998  1.3148  0.1075 -0.1262
  290SOL    HW2  870   1.184   1.288   1.021 -0.1202 -0.6676 -0.1673
  291SOL     OW  871   3.330   2.777   3.315 -0.2425  0.1882 -0.0415
  291SOL    HW1  872   3.378   2.732   3.384  0.3166 -0.2642 -0.7098
  291SOL    HW2  873   3.324   2.868   3.344 -1.3156 -0.2836  1.2913
  292SOL     OW  874   2.213   3.673   0.175  0.2655  0.2097 -0.3696
  292SOL    HW1  875   2.152   3.649   0.105  2.6975 -0.5213 -2.3612
  292SOL    HW2  876   2.191   3.764   0.195 -0.2134  0.6062 -2.4557
  293SOL     OW  877   2.907   3.100   0.102  1.2471 -0.0798  0.2350
  293SOL    HW1  878   3.000   3.085   0.090  1.3595  1.6557 -1.6855
  293SOL    HW2  879   2.866   3.055   0.028  0.7417  0.6908  0.0320
  294SOL     OW  880   2.762   3.103   3.639 -0.3807  0.3189  0.1347
  294SOL    HW1  881   2.855   3.100   3.661  0.2656  0.1305 -2.3676
  294SOL    HW2  882   2.754   3.176   3.577 -1.5562 -0.7676 -1.0469
  295SOL     OW  883  -0.001   2.835   0.852  1.2265 -0.2898  0.2237
  295SOL    HW1  884  -0.059   2.887   0.796 -0.7672 -1.3659  1.1993
  295SOL    HW2  885   0.085   2.845   0.811  0.2793  0.8490 -1.6776
  296SOL     OW  886   1.909   0.195   3.778 -0.1099 -0.1647 -0.2627
  296SOL    HW1  887   1.907   0.227   3.868  1.6847 -0.8006  0.0368
  296SOL    HW2  888   1.925   0.274   3.725  0.6024 -0.0283  0.1467
  297SOL     OW  889   1.242   0.077   1.881  0.1477 -0.2332 -0.1899
  297SOL    HW1  890   1.332   0.099   1.855 -0.0390  0.5919 -0.1529
  297SOL    HW2  891   1.252   0.004   1.943  0.9602  1.2655  1.5340
  298SOL     OW  892   0.255   3.687   2.319 -0.6486 -0.7600 -0.4881
  298SOL    HW1  893   0.270   3.615   2.381  0.7961  0.9562  1.2879
  298SOL    HW2  894   0.161   3.703   2.323 -0.7605 -1.5387  0.2777
  299SOL     OW  895   2.757   3.401   2.763 -0.0549 -0.1439  0.0571
  299SOL    HW1  896   2.672   3.391   2.721  0.7481 -0.6148 -1.5049
  299SOL    HW2  897   2.746   3.476   2.822 -1.7407 -0.6413  0.4258
  300SOL     OW  898   3.578   1.420   0.354 -0.1102  0.6582  0.6095
  300SOL    HW1  899   3.643   1.391   0.289  0.0453  0.7638  0.7161
  300SOL    HW2  900   3.618   1.398   0.438 -0.0963  0.9674  0.6828
  301SOL     OW  901   0.132   3.369   2.310  0.0574  0.1187 -0.2277
  301SOL    HW1  902   0.039   3.391   2.296 -0.1461  0.2719  1.2283
  301SOL    HW2  903   0.136   3.341   2.401  1.8682  2.5831  0.5560
  302SOL     OW  904   3.677   0.336   2.159  0.6050 -0.0678 -0.0611
  302SOL    HW1  905   3.654   0.385   2.238  0.5676  1.3061 -0.8857
  302SOL    HW2  906   3.593   0.312   2.120  0.5974 -2.2276  1.1425
  303SOL     OW  907   1.944   0.333   1.624 -0.5083  0.1068 -0.1335
  303SOL    HW1  908   1.999   0.312   1.699 -1.1613  0.4066  0.4441
  303SOL    HW2  909   1.901   0.251   1.602  0.9110 -0.3833 -1.2414
  304SOL     OW  910   3.398   2.685   1.716 -0.1453 -0.1258 -0.0168
  304SOL    HW1  911   3.351   2.635   1.783  1.2239 -0.0167  1.0474
  304SOL    HW2  912   3.490   2.681   1.742  0.3233  0.5724 -1.4720
  305SOL     OW  913   3.484   0.842   2.000  0.5783 -0.3014 -0.2931
  305SOL    HW1  914   3.516   0.801   2.080 -0.5959 -3.1536 -1.1511
  305SOL    HW2  915   3.547   0.814   1.933 -0.2194 -0.7141 -0.8914
  306SOL     OW  916   2.369   3.776   0.478  0.0288  0.4980 -0.0986
  306SOL    HW1  917   2.295   3.836   0.490 -1.7732 -1.4495 -0.6863
  306SOL    HW2  918   2.328   3.690   0.467  2.2158 -0.3451 -3.1424
  307SOL     OW  919   3.873   2.496   0.047 -0.6065  0.3312 -0.2369
  307SOL    HW1  920   3.861   2.451  -0.036 -1.4894  2.3818 -1.2858
  307SOL    HW2  921   3.785   2.524   0.072 -0.2377  0.4826  0.9650
  308SOL     OW  922   0.851   3.943   0.982  0.1942  0.1916 -0.2447
  308SOL    HW1  923   0.899   3.940   1.065  2.2932  1.0730 -1.3563
  308SOL    HW2  924   0.780   3.880   0.994  0.7021 -0.0472  2.0499
  309SOL     OW  925   1.851   1.555   2.251  0.1471  0.0148 -0.0140
  309SOL    HW1  926   1.828   1.648   2.256 -0.8173 -0.2485  0.6700
  309SOL    HW2  927   1.878   1.542   2.160 -0.2500  0.8382 -0.2603
  310SOL     OW  928   3.324   3.011   3.782 -0.4197  0.2546  0.3358
  310SOL    HW1  929   3.262   3.006   3.855  0.5375  0.0619  1.1559
  310SOL    HW2  930   3.351   3.102   3.780  0.9529 -0.0978  1.4414
  311SOL     OW  931   0.398   1.745   0.819  0.6569  0.8452  0.1756
  311SOL    HW1  932   0.344   1.823   0.835  1.4599  1.2992  0.7599
  311SOL    HW2  933   0.488   1.779   0.815  1.5784 -0.4621  4.4729
  312SOL     OW  934   0.239   0.973   2.332  0.1902  0.4107  0.3030
  312SOL    HW1  935   0.302   0.967   2.405  0.2304 -3.2164  0.1860
  312SOL    HW2  936   0.182   1.046   2.355  0.8884  0.1121  3.4362
  313SOL     OW  937   2.377   1.960   2.189  0.0141 -0.9364  0.0627
  313SOL    HW1  938   2.374   1.890   2.255  1.8204 -0.2789  0.9244
  313SOL    HW2  939   2.297   2.009   2.202  0.4095 -0.7117  1.9552
  314SOL     OW  940   1.855   2.658   2.799 -0.0182  0.2476  0.1996
  314SOL    HW1  941   1.923   2.627   2.858 -0.5458 -0.3697  0.4847
  314SOL    HW2  942   1.830   2.581   2.748 -0.0279  0.6270 -0.3832
  315SOL     OW  943   3.131   3.461   2.996  0.1401  0.0127  0.2577
  315SOL    HW1  944   3.121   3.439   3.088 -1.1236 -0.4413  0.0403
  315SOL    HW2  945   3.043   3.450   2.959 -0.1336  3.2469 -0.3538
  316SOL     OW  946   1.834   3.913   2.059  0.1933  0.2367  0.3298
  316SOL    HW1  947   1.837   3.824   2.092  0.7798 -0.5960 -1.8244
  316SOL    HW2  948   1.756   3.916   2.003  1.6517  0.1932 -1.8097
  317SOL     OW  949   3.273   1.028   2.507  0.4754  0.3171 -0.7215
  317SOL    HW1  950   3.186   1.011   2.472  1.0249 -2.5914 -0.8798
  317SOL    HW2  951   3.271   0.994   2.596  1.6042 -0.3714 -0.9300
  318SOL     OW  952   1.518   1.587   2.890  0.1432 -0.1983  0.5516
  318SOL    HW1  953   1.573   1.526   2.939 -0.2450  1.0011  2.6134
  318SOL    HW2  954   1.485   1.648   2.957 -1.0297  1.0897 -1.1242
  319SOL     OW  955   2.154   1.655   3.475  0.1813 -0.1115  0.0270
  319SOL    HW1  956   2.246   1.679   3.481 -0.2559  1.4048  1.3965
  319SOL    HW2  957   2.135   1.611   3.558  0.2352 -2.7484 -1.2623
  320SOL     OW  958   3.452   2.013   3.092 -0.0764 -0.1800  0.7750
  320SOL    HW1  959   3.541   2.012   3.057 -0.2117  0.4014  0.4002
  320SOL    HW2  960   3.456   2.074   3.166  0.3436 -1.8346  2.1730
  321SOL     OW  961   3.997   2.743   0.200  0.3986 -0.2894 -0.3311
  321SOL    HW1  962   3.937   2.675   0.169  0.1673 -0.5901  0.7551
  321SOL    HW2  963   3.950   2.825   0.186 -1.0086 -0.6095  2.0304
  322SOL     OW  964   3.461   1.216   1.148 -0.1649  0.1016 -0.1034
  322SOL    HW1  965   3.513   1.248   1.074  0.3716 -2.8276 -1.1387
  322SOL    HW2  966   3.525   1.197   1.216 -0.3130 -0.0426 -0.0043
  323SOL     OW  967   0.965   3.402   2.685 -0.5727 -0.8061 -0.1516
  323SOL    HW1  968   0.936   3.479   2.636  0.3107 -0.6986 -0.5227
  323SOL    HW2  969   0.978   3.335   2.618 -3.4941 -2.0332  0.3492
  324SOL     OW  970   3.895   1.224   1.602 -0.0467  0.2794  0.5641
  324SOL    HW1  971   3.924   1.145   1.649 -0.4553  0.4479  1.1090
  324SOL    HW2  972   3.974   1.255   1.557  0.5403  0.5127  1.7091
  325SOL     OW  973   3.116   0.577   1.878 -0.4739  0.2398 -0.0901
  325SOL    HW1  974   3.054   0.534   1.937 -1.5033  1.0308 -0.5614
  325SOL    HW2  975   3.061   0.630   1.821  0.6902  1.4028 -0.1603
  326SOL     OW  976   1.003   0.407   3.884  0.2905  0.0879  0.1981
  326SOL    HW1  977   1.081   0.352   3.894  0.0552  0.0328  2.1204
  326SOL    HW2  978   0.932   0.355   3.923 -0.4428  0.7288 -0.2440
  327SOL     OW  979   0.904   2.427   2.564  0.0559 -0.2084 -0.4041
  327SOL    HW1  980   0.925   2.421   2.657 -2.3937  0.4015  0.2698
  327SOL    HW2  981   0.883   2.337   2.538  0.3815 -0.3220 -0.2752
  328SOL     OW  982   1.682   3.475   3.420 -0.4213  0.1124  0.1831
  328SOL    HW1  983   1.761   3.458   3.367  0.5972 -1.5855  2.0891
  328SOL    HW2  984   1.712   3.468   3.510 -2.7766 -0.5168  0.9845
  329SOL     OW  985   1.511   1.933   1.626  0.3784  0.1105 -0.1545
  329SOL    HW1  986   1.580   1.947   1.561  0.7690 -2.8441 -0.4780
  329SOL    HW2  987   1.449   1.875   1.583 -1.1064  0.7856  0.9945
  330SOL     OW  988   2.574   0.961   0.353 -0.1644  0.4224  0.4798
  330SOL    HW1  989   2.645   0.896   0.351  0.6111  1.2663 -0.6782
  330SOL    HW2  990   2.599   1.020   0.424 -0.5344 -0.1624  1.1061
  331SOL     OW  991   0.216   1.565   3.084  0.4895  0.1244 -0.3454
  331SOL    HW1  992   0.122   1.549   3.095  0.1871  1.9699  0.0776
  331SOL    HW2  993   0.229   1.571   2.990 -0.1810  1.5793 -0.3832
  332SOL     OW  994   2.718   0.433   2.882  0.4196  0.3667  0.2192
  332SOL    HW1  995   2.737   0.387   2.800 -0.6344  0.5323 -0.1231
  332SOL    HW2  996   2.652   0.497   2.860  1.7424  1.9847  0.7312
  333SOL     OW  997   3.108   0.508   2.226 -0.7455 -0.0638  0.8146
  333SOL    HW1  998   3.033   0.537   2.278 -1.6527 -0.7940 -0.0579
  333SOL    HW2  999   3.155   0.589   2.204 -1.7332  0.4823  0.6783
  334SOL     OW 1000   3.182   0.177   3.366 -0.9365 -0.3312  0.3507
  334SOL    HW1 1001   3.266   0.211   3.335 -0.3877 -0.7567  1.3034
  334SOL    HW2 1002   3.173   0.214   3.454 -0.0558 -2.9550  1.6680
  335SOL     OW 1003   2.073   3.361   3.699  0.6056 -0.9260 -0.8143
  335SOL    HW1 1004   2.138   3.428   3.722 -1.0592  0.1010  1.1744
  335SOL    HW2 1005   2.118   3.278   3.715  1.5138 -0.2388  0.3441
  336SOL     OW 1006   3.830   2.442   2.979 -0.4690 -0.4280  0.6420
  336SOL    HW1 1007   3.755   2.387   3.002  0.4072 -0.9799  2.3899
  336SOL    HW2 1008   3.899   2.380   2.956 -0.2154  0.0418  0.0972
  337SOL     OW 1009   1.954   1.250   1.899 -0.5873 -0.1674 -0.0737
  337SOL    HW1 1010   1.875   1.201   1.920 -0.5908  0.4467  1.4697
  337SOL    HW2 1011   2.017   1.184   1.871 -0.3583 -1.2456  2.6441
  338SOL     OW 1012   0.456   3.019   0.707  0.7726  0.0665  0.4438
  338SOL    HW1 1013   0.464   3.099   0.759 -1.9104 -0.3413  1.6324
  338SOL    HW2 1014   0.486   2.949   0.765 -1.9525 -0.3540  1.4740
  339SOL     OW 1015   1.623   3.539   1.515  0.0118 -0.3374  0.1769
  339SOL    HW1 1016   1.557   3.512   1.450 -0.2788  0.2489  0.2173
  339SOL    HW2 1017   1.670   3.610   1.472 -0.8434  0.7384  0.9633
  340SOL     OW 1018   1.223   0.844   1.290 -0.0685 -0.2309  0.0814
  340SOL    HW1 1019   1.295   0.784   1.275 -0.2744 -0.3925 -0.2959
  340SOL    HW2 1020   1.170   0.803   1.358 -1.0418 -1.2572 -1.2269
  341SOL     OW 1021   0.295   3.518   2.574 -0.1338  0.5367 -0.2447
  341SOL    HW1 1022   0.270   3.428   2.595  0.5321  0.5433  0.6741
  341SOL    HW2 1023   0.388   3.512   2.553  0.8429  1.4153  3.1378
  342SOL     OW 1024   1.073   2.364   1.068 -0.0270 -0.2361  0.2769
  342SOL    HW1 1025   1.013   2.290   1.082 -0.7493  0.4061  0.6033
  342SOL    HW2 1026   1.019   2.442   1.078  0.4189  0.3456 -1.4301
  343SOL     OW 1027   1.912   0.849   0.266  0.6171  0.1496 -0.8859
  343SOL    HW1 1028   1.910   0.937   0.304 -1.1010 -0.3947  0.4174
  343SOL    HW2 1029   1.992   0.810   0.301  0.7988  0.8043 -0.5465
  344SOL     OW 1030   1.150   0.551   3.651 -0.1918  0.1270 -0.0681
  344SOL    HW1 1031   1.147   0.463   3.687 -0.1441 -0.2644 -0.9969
  344SOL    HW2 1032   1.189   0.604   3.720 -0.1106 -0.6041  0.4531
  345SOL     OW 1033   2.478   0.465   2.637  0.1955  0.3156  0.3548
  345SOL    HW1 1034   2.572   0.452   2.626  0.3227  0.5499  1.0676
  345SOL    HW2 1035   2.458   0.541   2.583  0.3216 -0.0199 -0.1719
  346SOL     OW 1036   3.732   2.174   1.219 -0.3687  0.5606  0.4927
  346SOL    HW1 1037   3.699   2.197   1.132  1.4200 -0.7562 -0.6010
  346SOL    HW2 1038   3.766   2.256   1.254  1.2029  0.7013 -1.1649
  347SOL     OW 1039   1.167   2.549   2.959  0.1257  0.0126 -0.1902
  347SOL    HW1 1040   1.261   2.567   2.969  0.1443 -1.2740  2.8233
  347SOL    HW2 1041   1.125   2.629   2.990  0.1762  0.2676 -0.7484
  348SOL     OW 1042   0.158   2.353   3.693 -0.1123 -0.3802 -0.0637
  348SOL    HW1 1043   0.248   2.319   3.690 -1.0134 -2.9903 -0.0803
  348SOL    HW2 1044   0.152   2.395   3.778  1.5820  1.3644 -0.7277
  349SOL     OW 1045   1.360   3.253   1.820 -0.1270  0.0982  0.6588
  349SOL    HW1 1046   1.358   3.344   1.852  1.3005  0.4766 -0.2265
  349SOL    HW2 1047   1.407   3.205   1.889 -0.3726  0.1438  0.8606
  350SOL     OW 1048   1.903   1.656   0.774 -0.3606 -0.8854  0.2752
  350SOL    HW1 1049   1.840   1.709   0.725 -0.1548 -0.9609 -0.0789
  350SOL    HW2 1050   1.860   1.571   0.786  0.2244 -1.4453 -1.2679
  351SOL     OW 1051   2.145   0.652   2.885 -0.5112  0.7066  1.0634
  351SOL    HW1 1052   2.050   0.638   2.886 -0.3501 -0.5082  2.3286
  351SOL    HW2 1053   2.182   0.568   2.911  1.0083  0.7186 -0.8678
  352SOL     OW 1054   2.132   1.499   2.192 -0.2078  0.3302 -0.4122
  352SOL    HW1 1055   2.207   1.451   2.156  1.6535  3.4370 -1.0506
  352SOL    HW2 1056   2.062   1.487   2.128  0.5985 -0.4674 -1.1730
  353SOL     OW 1057   3.503   3.169   0.118  0.2844 -0.1269  0.0909
  353SOL    HW1 1058   3.508   3.168   0.214 -0.2662 -1.1591  0.1224
  353SOL    HW2 1059   3.467   3.083   0.095 -4.1821  1.6988 -0.7664
  354SOL     OW 1060   3.392   1.590   2.102  0.5943 -0.2479  0.3354
  354SOL    HW1 1061   3.420   1.680   2.090 -1.0478  0.8428  3.4347
  354SOL    HW2 1062   3.311   1.596   2.153  0.2438 -3.4701  0.4158
  355SOL     OW 1063   3.637   0.535   3.717  0.2427  0.3123  0.0378
  355SOL    HW1 1064   3.683   0.495   3.790 -0.6200 -0.1114  0.3592
  355SOL    HW2 1065   3.706   0.569   3.661  1.1954 -3.4274 -1.3615
  356SOL     OW 1066   0.627   3.843   2.686  0.0917  0.4164  0.2862
  356SOL    HW1 1067   0.571   3.908   2.728 -1.5497  0.4368 -1.7491
  356SOL    HW2 1068   0.607   3.852   2.592  2.1837 -0.8600 -0.3430
  357SOL     OW 1069   1.805   2.287   3.258 -0.2390  0.4867  0.4078
  357SOL    HW1 1070   1.767   2.365   3.218  0.3600  0.5255 -0.1077
  357SOL    HW2 1071   1.780   2.292   3.350  0.9863  2.0419  0.6983
  358SOL     OW 1072   3.400   3.479   2.928 -0.2573 -0.5928 -0.0916
  358SOL    HW1 1073   3.441   3.563   2.912 -1.7579 -0.2215 -2.4606
  358SOL    HW2 1074   3.308   3.499   2.944 -0.6377 -1.7439 -0.6666
  359SOL     OW 1075   2.225   0.317   1.176  0.4847 -0.4169 -0.5890
  359SOL    HW1 1076   2.267   0.265   1.108  0.6651 -1.0642  0.0042
  359SOL    HW2 1077   2.292   0.379   1.204  0.3436 -0.0123 -1.1385
  360SOL     OW 1078   3.167   2.503   2.372 -0.6572 -0.8912 -0.1023
  360SOL    HW1 1079   3.174   2.440   2.444 -0.4094 -0.7732 -0.0254
  360SOL    HW2 1080   3.257   2.515   2.342 -0.5355  0.4463  0.7505
  361SOL     OW 1081   1.656   1.158   3.249 -0.5948 -0.1432  0.2360
  361SOL    HW1 1082   1.578   1.203   3.281 -0.4391  1.7485 -1.7912
  361SOL    HW2 1083   1.630   1.123   3.163  0.2475 -1.1825  0.3837
  362SOL     OW 1084   2.720   3.657   0.201  0.7260  0.2684  0.5232
  362SOL    HW1 1085   2.783   3.588   0.222 -0.3114 -0.8184  0.1624
  362SOL    HW2 1086   2.635   3.620   0.223  0.1933  1.7140  1.0132
  363SOL     OW 1087   0.445   3.835   0.233  0.4847  0.0760  0.2529
  363SOL    HW1 1088   0.479   3.897   0.297 -0.3429  4.7018 -3.2565
  363SOL    HW2 1089   0.521   3.781   0.209  1.9682  1.4189  1.6971
  364SOL     OW 1090   1.394   1.367   1.656 -0.3980 -0.5654  0.5506
  364SOL    HW1 1091   1.454   1.377   1.730  0.9436  0.5996 -0.6321
  364SOL    HW2 1092   1.434   1.300   1.601  0.3310  0.8127 -0.6692
  365SOL     OW 1093   2.026   0.253   2.947 -0.4706  0.2804 -0.2514
  365SOL    HW1 1094   2.071   0.197   2.884  0.0626  0.7769 -0.3126
  365SOL    HW2 1095   1.995   0.192   3.014 -1.1681 -0.2699 -1.0523
  366SOL     OW 1096   1.546   3.969   2.335 -0.0886 -0.2674  0.0209
  366SOL    HW1 1097   1.545   3.945   2.428 -2.5895  0.3603  0.2253
  366SOL    HW2 1098   1.591   4.054   2.333 -2.1241  0.9000  1.0540
  367SOL     OW 1099   3.485   1.883   3.555  0.3862 -0.3159  0.0209
  367SOL    HW1 1100   3.410   1.899   3.498  0.1827  0.2158  0.4294
  367SOL    HW2 1101   3.503   1.789   3.546 -0.5272 -0.5113  0.1648
  368SOL     OW 1102   3.595   1.919   1.213  0.6121  0.7180 -0.2819
  368SOL    HW1 1103   3.646   1.999   1.219  0.7351  0.5207  1.9867
  368SOL    HW2 1104   3.519   1.943   1.159 -0.3143  2.9468  1.8174
  369SOL     OW 1105   2.409   1.580   2.841  0.6059 -0.5807 -0.4522
  369SOL    HW1 1106   2.332   1.525   2.853  1.1622 -1.1831  0.5216
  369SOL    HW2 1107   2.375   1.664   2.810 -0.2508 -1.5085 -2.1311
  370SOL     OW 1108   0.866   1.412   3.632  0.8051 -0.8807 -0.1741
  370SOL    HW1 1109   0.929   1.366   3.687  2.7580  0.1757 -1.3888
  370SOL    HW2 1110   0.906   1.497   3.617  0.0555 -0.8918 -2.6454
  371SOL     OW 1111   1.550   2.417   0.187  0.1506 -0.2552 -0.1136
  371SOL    HW1 1112   1.574   2.501   0.148  2.0968 -1.1750 -1.0896
  371SOL    HW2 1113   1.514   2.439   0.273  0.3529  1.5746 -0.4608
  372SOL     OW 1114   2.544   1.178   3.754 -0.9334 -0.2453 -0.0695
  372SOL    HW1 1115   2.451   1.201   3.763 -1.3056 -1.7947  0.3060
  372SOL    HW2 1116   2.590   1.262   3.757 -2.4225  0.7096 -1.8966
  373SOL     OW 1117   1.683   0.428   3.698  0.3077 -0.5248  0.1476
  373SOL    HW1 1118   1.767   0.443   3.655  0.1089  0.4236  0.0815
  373SOL    HW2 1119   1.660   0.512   3.737  0.5500 -1.3825  2.2648
  374SOL     OW 1120   3.521   1.960   0.764 -0.1185 -0.3174 -0.2422
  374SOL    HW1 1121   3.509   1.895   0.695 -0.0730 -1.4246  0.7459
  374SOL    HW2 1122   3.432   1.980   0.794 -0.0559 -1.5091  0.8311
  375SOL     OW 1123   2.997   2.922   2.476  0.1213  0.9060  0.4845
  375SOL    HW1 1124   2.981   2.996   2.417  0.8477  2.9096  2.6593
  375SOL    HW2 1125   3.049   2.861   2.423 -2.4372  0.7547 -2.1273
  376SOL     OW 1126   3.191   2.941   2.737  0.1998  0.1881  0.5440
  376SOL    HW1 1127   3.215   2.896   2.656 -1.6551 -0.5431  0.3491
  376SOL    HW2 1128   3.235   3.026   2.731  2.4413 -0.9367  0.1579
  377SOL     OW 1129   3.457   3.264   1.538 -0.0478 -0.5503 -0.1008
  377SOL    HW1 1130   3.368   3.276   1.570 -0.0417  1.5472 -0.6811
  377SOL    HW2 1131   3.489   3.186   1.583 -1.9628 -0.9976  0.5672
  378SOL     OW 1132   1.273   0.459   2.404  0.0068 -0.4088 -0.4392
  378SOL    HW1 1133   1.248   0.421   2.488 -0.1871  1.6755  0.5196
  378SOL    HW2 1134   1.366   0.481   2.415  0.1993 -0.8643 -1.0842
  379SOL     OW 1135   1.983   1.898   1.964 -0.6121 -0.2693  0.3916
  379SOL    HW1 1136   1.993   1.857   2.050 -1.5285 -0.8555  0.2321
  379SOL    HW2 1137   1.889   1.902   1.950 -0.4761 -1.4238 -1.1586
  380SOL     OW 1138   3.007   0.942   1.518  0.1227  0.8029 -0.2292
  380SOL    HW1 1139   2.985   0.879   1.448 -0.9550 -0.2867  1.0231
  380SOL    HW2 1140   3.097   0.920   1.542  0.4176  1.0205 -1.0868
  381SOL     OW 1141   0.221   3.773   0.966 -0.5289 -0.6611 -0.0343
  381SOL    HW1 1142   0.142   3.826   0.979 -0.5016 -0.6226 -0.0286
  381SOL    HW2 1143   0.260   3.766   1.053 -0.4181 -0.5141 -0.0723
  382SOL     OW 1144   1.383   2.333   1.480  0.5915  0.7486 -0.6720
  382SOL    HW1 1145   1.444   2.278   1.432 -1.2636 -3.0967  0.9682
  382SOL    HW2 1146   1.302   2.329   1.430 -0.2936 -0.2240  0.7672
  383SOL     OW 1147   2.745   0.672   1.943 -0.4679 -0.5781  0.1557
  383SOL    HW1 1148   2.696   0.754   1.946 -1.3709 -1.0407 -1.0959
  383SOL    HW2 1149   2.806   0.683   1.871  0.8666 -0.2532  1.2987
  384SOL     OW 1150   0.477   0.739   1.652  0.0335 -0.0565  0.4789
  384SOL    HW1 1151   0.558   0.785   1.674  0.5223 -0.1489 -1.0318
  384SOL    HW2 1152   0.502   0.675   1.585 -1.4272  0.5818 -0.7597
  385SOL     OW 1153   1.771   2.093   0.562  0.6095 -0.1118 -0.1965
  385SOL    HW1 1154   1.798   2.110   0.472 -1.9744  1.2901 -0.8071
  385SOL    HW2 1155   1.678   2.069   0.555 -0.2190  1.9259  2.1944
  386SOL     OW 1156   2.478   1.367   2.409  0.2212  0.4805 -0.6186
  386SOL    HW1 1157   2.538   1.366   2.483  0.3897  2.5147 -0.6540
  386SOL    HW2 1158   2.391   1.353   2.448  0.5415 -1.0171 -0.3911
  387SOL     OW 1159   2.165   3.643   2.176 -0.2937  0.3929  0.2047
  387SOL    HW1 1160   2.161   3.667   2.269 -3.0892 -0.7404  0.4964
  387SOL    HW2 1161   2.188   3.724   2.131 -0.3016  1.3246  1.8023
  388SOL     OW 1162   1.711   0.440   0.386 -0.0328  0.1687 -1.1458
  388SOL    HW1 1163   1.801   0.469   0.374 -0.2597  1.3087 -0.2598
  388SOL    HW2 1164   1.711   0.395   0.471 -0.4222  0.8016 -0.7987
  389SOL     OW 1165   2.723   3.039   3.889  0.4795  0.0828  0.5775
  389SOL    HW1 1166   2.637   3.024   3.929  1.4258 -0.4944  2.5078
  389SOL    HW2 1167   2.703   3.065   3.799 -1.6329 -2.8189  0.0532
  390SOL     OW 1168   1.072   3.922   3.190  0.3585  0.0143  0.4343
  390SOL    HW1 1169   0.989   3.969   3.200 -0.2651 -0.9609 -0.0867
  390SOL    HW2 1170   1.117   3.937   3.273 -1.2361 -1.1865  1.5735
  391SOL     OW 1171   1.895   3.745   2.497 -0.0678 -0.1711 -0.2276
  391SOL    HW1 1172   1.858   3.680   2.437  1.2078 -2.0270  0.9028
  391SOL    HW2 1173   1.920   3.695   2.574  1.1306  1.6471  0.6231
  392SOL     OW 1174   1.039   0.760   2.081 -0.0060 -0.3184  0.5583
  392SOL    HW1 1175   1.090   0.705   2.022 -2.0424 -0.4856 -1.1694
  392SOL    HW2 1176   0.986   0.698   2.132 -1.6306 -0.0638 -0.7442
  393SOL     OW 1177   2.948   0.707   1.698  0.0764 -0.2352  0.6968
  393SOL    HW1 1178   2.955   0.627   1.647 -0.4182  0.1449  0.0211
  393SOL    HW2 1179   2.888   0.763   1.648 -1.7306 -0.4713  2.4551
  394SOL     OW 1180   2.763   1.682   0.058 -0.3148 -0.2786  0.1735
  394SOL    HW1 1181   2.718   1.598   0.064  2.5642 -1.9869 -0.3460
  394SOL    HW2 1182   2.766   1.715   0.148  0.5199 -1.8887  0.7653
  395SOL     OW 1183   1.871   1.777   3.044 -0.3338 -1.0257 -0.2285
  395SOL    HW1 1184   1.951   1.782   3.096 -0.6105 -2.5588  0.3781
  395SOL    HW2 1185   1.808   1.731   3.099 -1.0820 -1.4413 -1.3855
  396SOL     OW 1186   2.816   1.726   0.653  0.1711  0.1660  0.5607
  396SOL    HW1 1187   2.727   1.736   0.687  0.0757 -0.2633  0.4324
  396SOL    HW2 1188   2.855   1.813   0.664 -0.2692  0.3604  0.5999
  397SOL     OW 1189   1.721   3.735   1.357 -0.3942 -0.2722  0.7248
  397SOL    HW1 1190   1.729   3.826   1.385 -0.2965  0.3138 -1.1089
  397SOL    HW2 1191   1.728   3.738   1.262 -1.9743 -2.0158  0.4923
  398SOL     OW 1192   0.945   1.400   2.690  0.0739  0.0721 -0.5951
  398SOL    HW1 1193   0.850   1.406   2.694 -0.1265 -2.0511 -1.0176
  398SOL    HW2 1194   0.971   1.363   2.774  0.5197  0.5725 -0.5066
  399SOL     OW 1195   2.237   2.636   3.120 -0.8320  0.0550 -0.3124
  399SOL    HW1 1196   2.305   2.691   3.159 -0.7146 -0.9245  0.8870
  399SOL    HW2 1197   2.285   2.569   3.071 -0.7294 -2.4062  2.8610
  400SOL     OW 1198   1.580   3.879   1.544  0.3867  0.7979 -0.6639
  400SOL    HW1 1199   1.552   3.966   1.573 -0.8376  0.8796 -2.0112
  400SOL    HW2 1200   1.534   3.865   1.461 -0.0236 -1.4489 -0.1214
  401SOL     OW 1201   0.445   2.336   3.724 -0.0222  0.4818 -0.2675
  401SOL    HW1 1202   0.517   2.385   3.685  1.2197  0.0541  1.3516
  401SOL    HW2 1203   0.442   2.254   3.675  1.8595 -0.2784  0.7811
  402SOL     OW 1204   0.857   0.354   3.553 -0.6352  0.1883  0.7329
  402SOL    HW1 1205   0.800   0.388   3.622 -0.0480  0.0298  1.3154
  402SOL    HW2 1206   0.928   0.310   3.601 -1.0915 -1.3967  0.0207
  403SOL     OW 1207   0.329   3.737   1.208 -0.3121  0.0543  0.1305
  403SOL    HW1 1208   0.417   3.725   1.171 -0.1195  2.1376 -0.2054
  403SOL    HW2 1209   0.309   3.652   1.248  1.0688 -1.0754 -1.3901
  404SOL     OW 1210   0.540   2.739   2.952 -0.7118 -0.0252 -0.3851
  404SOL    HW1 1211   0.583   2.767   2.872 -2.0829 -0.5992 -1.3578
  404SOL    HW2 1212   0.611   2.728   3.015  0.5012 -0.4275 -1.7761
  405SOL     OW 1213   0.405   1.519   2.247 -0.1468  0.6228 -0.3310
  405SOL    HW1 1214   0.347   1.506   2.172 -1.5901  0.0110  0.8345
  405SOL    HW2 1215   0.493   1.523   2.210 -0.6533 -1.3164 -1.9237
  406SOL     OW 1216   0.891   2.174   3.898 -0.0460 -0.3336 -0.2839
  406SOL    HW1 1217   0.853   2.109   3.957  0.7992 -0.3934  0.2160
  406SOL    HW2 1218   0.873   2.140   3.810  2.7295 -2.7392 -0.0842
  407SOL     OW 1219   3.152   2.412   1.845 -0.2426  0.1531 -0.0635
  407SOL    HW1 1220   3.099   2.483   1.810 -0.7170 -0.9620 -1.7228
  407SOL    HW2 1221   3.095   2.367   1.908 -0.6046  0.1004 -0.4290
  408SOL     OW 1222   0.370   0.976   0.286  0.6030 -0.0467  0.0849
  408SOL    HW1 1223   0.446   1.027   0.316 -0.4026  0.4525  1.9105
  408SOL    HW2 1224   0.344   0.925   0.363 -0.6142 -0.5759 -0.6554
  409SOL     OW 1225   2.218   2.657   2.765 -0.3332  0.3098  0.6256
  409SOL    HW1 1226   2.308   2.668   2.794  0.0485 -1.2780  0.1174
  409SOL    HW2 1227   2.193   2.570   2.796 -1.0572 -0.0191 -0.7923
  410SOL     OW 1228   2.612   1.070   3.517  0.2500 -0.4671  0.1535
  410SOL    HW1 1229   2.586   1.104   3.603 -0.4301  0.4303 -0.3838
  410SOL    HW2 1230   2.593   0.977   3.521 -2.6734  0.0048  0.0029
  411SOL     OW 1231   2.650   3.446   3.092 -0.2376  0.7451 -0.5278
  411SOL    HW1 1232   2.650   3.482   3.003  0.7519 -0.1761 -0.9180
  411SOL    HW2 1233   2.588   3.374   3.088 -1.6789  1.9124  0.0669
  412SOL     OW 1234   0.418   0.512   2.034  0.3822  1.0091 -0.5635
  412SOL    HW1 1235   0.478   0.568   2.083  3.8847 -2.0671 -0.8844
  412SOL    HW2 1236   0.379   0.454   2.100  0.3877  0.8429 -0.7028
  413SOL     OW 1237   2.383   3.868   3.497 -0.2174  0.0792  0.0236
  413SOL    HW1 1238   2.321   3.820   3.442 -0.5805  0.5076  0.0581
  413SOL    HW2 1239   2.339   3.950   3.519  0.2488  0.2701  0.2807
  414SOL     OW 1240   2.958   3.526   1.109 -0.1440  0.3804  0.6544
  414SOL    HW1 1241   2.971   3.598   1.170  1.0876  0.2006  0.6247
  414SOL    HW2 1242   2.947   3.449   1.164 -2.3649  0.6896  0.7127
  415SOL     OW 1243   1.624   1.807   0.620  0.4465 -0.3756  0.6382
  415SOL    HW1 1244   1.626   1.854   0.537 -3.8105 -0.5779  0.1878
  415SOL    HW2 1245   1.535   1.771   0.624 -0.0864  0.8301  5.9299
  416SOL     OW 1246   0.690   4.002   3.715  0.2513  0.1202 -0.4755
  416SOL    HW1 1247   0.703   3.924   3.660  1.1059  0.5168 -0.8514
  416SOL    HW2 1248   0.734   4.072   3.667  1.7102  0.3249  1.1102
  417SOL     OW 1249   3.507   0.696   1.520 -0.1419  0.3111 -0.1741
  417SOL    HW1 1250   3.562   0.686   1.442 -0.7014 -1.2581 -0.4053
  417SOL    HW2 1251   3.420   0.668   1.492 -0.5332  0.5266  0.7972
  418SOL     OW 1252   1.187   3.385   3.966  0.3000 -0.0039  0.6601
  418SOL    HW1 1253   1.208   3.300   4.004  2.5409  0.7550  1.2550
  418SOL    HW2 1254   1.223   3.382   3.878  0.2821  0.2883  0.6391
  419SOL     OW 1255   3.117   0.559   3.446  0.2272  0.7797 -0.5486
  419SOL    HW1 1256   3.168   0.553   3.527  0.3199  0.3818 -0.6381
  419SOL    HW2 1257   3.088   0.651   3.443 -1.0409  0.4569  0.7049
  420SOL     OW 1258   2.891   1.178   1.648 -0.6064  0.2650  0.1870
  420SOL    HW1 1259   2.947   1.116   1.601 -0.6350  1.0192 -0.8859
  420SOL    HW2 1260   2.802   1.159   1.616 -0.8782 -0.3540  1.2434
  421SOL     OW 1261   2.179   2.474   2.209  0.0023 -0.2177  0.0389
  421SOL    HW1 1262   2.137   2.479   2.123 -1.8292 -1.9324  0.7444
  421SOL    HW2 1263   2.266   2.437   2.192 -0.4210 -0.7298 -1.0654
  422SOL     OW 1264   3.634   2.080   0.321 -0.7985  0.1047 -0.3160
  422SOL    HW1 1265   3.672   2.166   0.303 -0.9961 -0.2501 -2.7171
  422SOL    HW2 1266   3.708   2.026   0.348 -0.2439  0.4188 -1.1682
  423SOL     OW 1267   0.407   2.721   0.261  0.1136 -0.6537  0.1319
  423SOL    HW1 1268   0.501   2.743   0.258  0.1505  0.0909  3.2496
  423SOL    HW2 1269   0.363   2.803   0.244  0.1753  0.1928  3.4473
  424SOL     OW 1270   0.277   2.653   0.926 -0.6581 -0.5326 -0.3769
  424SOL    HW1 1271   0.272   2.738   0.882 -0.6126  0.0365  0.6823
  424SOL    HW2 1272   0.238   2.669   1.012  0.2998 -1.3226  0.2236
  425SOL     OW 1273   0.125   2.327   2.573 -0.6772  0.1264 -0.1198
  425SOL    HW1 1274   0.091   2.378   2.499  1.8939  0.3755 -1.2457
  425SOL    HW2 1275   0.156   2.245   2.533  0.2675  0.0453  0.7348
  426SOL     OW 1276   0.946   1.826   3.856  0.4075 -0.5726  0.1702
  426SOL    HW1 1277   0.923   1.847   3.947  0.4539  0.6078 -0.0821
  426SOL    HW2 1278   0.882   1.873   3.803  1.3362  0.0186 -0.4502
  427SOL     OW 1279   1.856   0.455   0.779 -0.1312 -0.2049 -0.0359
  427SOL    HW1 1280   1.883   0.443   0.870 -1.4874  1.5831  0.6644
  427SOL    HW2 1281   1.930   0.424   0.727  0.0071 -2.9599  1.5906
  428SOL     OW 1282   0.974   3.166   3.082 -0.2089  0.4405  0.1598
  428SOL    HW1 1283   1.032   3.215   3.139  1.4773 -1.0931 -0.1416
  428SOL    HW2 1284   0.906   3.132   3.140  0.3994  0.4917  0.9158
  429SOL     OW 1285   3.860   1.674   0.049  0.5733  0.4038  0.0359
  429SOL    HW1 1286   3.930   1.698  -0.011  1.3631  0.2931  0.8945
  429SOL    HW2 1287   3.892   1.700   0.135 -0.4624  0.3886  0.4399
  430SOL     OW 1288   3.684   0.511   2.395 -0.2963  0.6429 -0.4296
  430SOL    HW1 1289   3.734   0.538   2.472  1.0651 -1.6666 -0.4124
  430SOL    HW2 1290   3.597   0.548   2.408  0.1262  0.9674  1.8126
  431SOL     OW 1291   0.980   0.533   2.227 -1.4568 -0.5535  0.4228
  431SOL    HW1 1292   0.973   0.442   2.199  2.0620 -1.0480  0.7536
  431SOL    HW2 1293   1.064   0.538   2.272 -2.0661  2.6350  1.4388
  432SOL     OW 1294   0.529   0.084   1.195 -0.7769  0.5809  0.0525
  432SOL    HW1 1295   0.533   0.115   1.104 -0.9859 -2.7606 -1.2156
  432SOL    HW2 1296   0.438   0.058   1.208  0.2157 -4.0835 -0.8082
  433SOL     OW 1297   0.170   2.295   3.334  0.1423 -0.6521  0.2023
  433SOL    HW1 1298   0.099   2.358   3.327 -0.0764 -0.7155  1.4768
  433SOL    HW2 1299   0.249   2.346   3.319 -0.0528 -0.1157  0.9014
  434SOL     OW 1300   3.597   2.173   0.966 -0.1795 -0.0705 -0.0316
  434SOL    HW1 1301   3.580   2.221   0.885  0.8225  1.0121  0.3603
  434SOL    HW2 1302   3.578   2.082   0.945 -0.9519  0.3333 -1.1649
  435SOL     OW 1303   0.364   3.672   2.825  0.6004  0.0322 -0.1395
  435SOL    HW1 1304   0.453   3.706   2.812  1.7441 -1.9371  1.8714
  435SOL    HW2 1305   0.365   3.587   2.782 -0.0787 -0.3388  0.5714
  436SOL     OW 1306   2.488   3.042   1.860  0.7034  0.3541  0.1288
  436SOL    HW1 1307   2.506   2.963   1.910  0.4163 -1.2813 -2.1620
  436SOL    HW2 1308   2.392   3.051   1.863  0.3847 -1.3365 -2.1880
  437SOL     OW 1309   3.275   0.457   1.126 -0.2024 -0.1719 -0.3641
  437SOL    HW1 1310   3.357   0.502   1.147 -0.0624 -0.6094  0.0464
  437SOL    HW2 1311   3.295   0.404   1.049  1.0305 -3.2412  1.8863
  438SOL     OW 1312   0.472   1.881   2.788 -0.2709 -0.0447 -0.4228
  438SOL    HW1 1313   0.442   1.966   2.822  1.3021  0.1578  0.5169
  438SOL    HW2 1314   0.552   1.902   2.740  0.0633 -0.9778 -0.2851
  439SOL     OW 1315   1.945   3.167   1.853 -0.7857 -0.0745 -0.4111
  439SOL    HW1 1316   1.975   3.167   1.762 -0.8335 -0.5631 -0.4294
  439SOL    HW2 1317   2.008   3.112   1.899 -0.2260  0.9183  0.0388
  440SOL     OW 1318   3.878   3.088   2.644 -0.1108  0.1116  0.6449
  440SOL    HW1 1319   3.827   3.159   2.607  1.6279  1.5281  0.8099
  440SOL    HW2 1320   3.914   3.042   2.568  0.6107  0.8504  0.5270
  441SOL     OW 1321   1.273   2.280   3.164 -0.2816  0.0320 -1.0230
  441SOL    HW1 1322   1.201   2.277   3.101  0.1909  1.3538 -1.6679
  441SOL    HW2 1323   1.314   2.365   3.149 -0.2375  0.4586  1.1803
  442SOL     OW 1324   0.087   0.737   1.969 -0.5898 -0.2592  0.4225
  442SOL    HW1 1325   0.157   0.705   1.912 -0.2760 -0.4387  0.8975
  442SOL    HW2 1326   0.131   0.754   2.052 -0.5059  2.4958 -0.1052
  443SOL     OW 1327   3.551   3.969   2.758 -0.4190  0.0373 -0.4858
  443SOL    HW1 1328   3.640   3.965   2.724 -0.7154  0.4008 -1.3546
  443SOL    HW2 1329   3.539   3.887   2.805  0.7290  0.4546  0.5796
  444SOL     OW 1330   1.375   3.149   2.097 -0.1639 -0.2021  0.0832
  444SOL    HW1 1331   1.284   3.132   2.074 -0.2700  0.8014 -0.2560
  444SOL    HW2 1332   1.403   3.069   2.142 -1.6402  0.0333  1.5182
  445SOL     OW 1333   3.329   3.054   3.341 -0.3117  0.1603  0.0316
  445SOL    HW1 1334   3.413   3.017   3.369 -0.1578  0.9987  0.7532
  445SOL    HW2 1335   3.342   3.149   3.347 -1.8967  0.3359  2.1069
  446SOL     OW 1336   1.498   1.548   3.473  0.2440  0.3217  0.4412
  446SOL    HW1 1337   1.575   1.535   3.418 -0.2541  1.7864 -0.6542
  446SOL    HW2 1338   1.493   1.642   3.488 -0.5518  0.1141  1.6656
  447SOL     OW 1339   0.098   0.328   1.955 -0.0851 -0.4859  0.1984
  447SOL    HW1 1340   0.130   0.371   2.035  1.0177 -0.2463 -0.3418
  447SOL    HW2 1341   0.159   0.256   1.941 -0.4114 -0.6657 -0.3065
  448SOL     OW 1342   2.613   0.460   0.029 -0.0684 -0.0744  0.2311
  448SOL    HW1 1343   2.611   0.447   0.124  2.6602 -1.3880  0.2055
  448SOL    HW2 1344   2.701   0.431   0.002 -0.8649 -0.0890 -2.7545
  449SOL     OW 1345   2.272   2.566   0.495 -0.5314 -0.5542  0.4200
  449SOL    HW1 1346   2.285   2.611   0.412  3.0205 -1.1594  0.5146
  449SOL    HW2 1347   2.289   2.633   0.561  1.4448 -1.1562  0.5711
  450SOL     OW 1348   2.873   3.474   2.468  0.5312  0.5574  0.0955
  450SOL    HW1 1349   2.956   3.427   2.473  0.2242  0.0972  0.9857
  450SOL    HW2 1350   2.811   3.410   2.434  0.4665  0.8171 -0.2909
  451SOL     OW 1351   3.204   2.033   3.293 -0.3940 -0.2468 -0.1411
  451SOL    HW1 1352   3.270   2.069   3.352  0.3321 -1.5819 -0.1020
  451SOL    HW2 1353   3.120   2.057   3.333 -0.0170  2.5808 -0.8439
  452SOL     OW 1354   1.000   3.171   0.101  0.1024 -0.4568  0.0649
  452SOL    HW1 1355   1.081   3.125   0.123  0.1392 -0.4630 -0.0805
  452SOL    HW2 1356   0.989   3.156   0.007  0.1025 -0.1876  0.0218
  453SOL     OW 1357   3.325   1.784   3.837 -0.6382 -0.1573  0.1716
  453SOL    HW1 1358   3.394   1.741   3.887  1.1432  1.5397 -0.7040
  453SOL    HW2 1359   3.286   1.714   3.786  0.1936 -1.2205  0.9396
  454SOL     OW 1360   3.329   3.744   0.253  0.1623 -0.1873  0.0675
  454SOL    HW1 1361   3.272   3.790   0.316 -0.5326  0.0768 -0.7427
  454SOL    HW2 1362   3.294   3.768   0.167 -0.3420 -2.3707 -0.3967
  455SOL     OW 1363   0.136   3.329   2.866  0.3917  0.5672 -0.1860
  455SOL    HW1 1364   0.196   3.294   2.931  0.4336  0.1949 -0.4209
  455SOL    HW2 1365   0.049   3.299   2.894 -0.0004  2.8885  1.3664
  456SOL     OW 1366   0.321   3.609   1.589  0.3811  0.3357  0.3240
  456SOL    HW1 1367   0.266   3.682   1.618 -0.0321 -0.0550  0.5588
  456SOL    HW2 1368   0.389   3.602   1.657  1.2299  1.3455 -0.3964
  457SOL     OW 1369   1.385   2.566   2.194 -1.1076 -1.0872 -0.2112
  457SOL    HW1 1370   1.479   2.582   2.202 -0.7893 -2.1291 -1.4368
  457SOL    HW2 1371   1.344   2.630   2.252  0.2610  0.7140 -1.1244
  458SOL     OW 1372   0.619   0.775   1.237 -0.1047  0.2002  0.5995
  458SOL    HW1 1373   0.625   0.724   1.317  1.4133 -1.6287 -0.6014
  458SOL    HW2 1374   0.630   0.866   1.265 -1.1882 -0.2225  2.6019
  459SOL     OW 1375   2.216   1.187   2.044 -0.1527  0.3558  0.1863
  459SOL    HW1 1376   2.240   1.095   2.052 -0.0655  0.3517 -0.1201
  459SOL    HW2 1377   2.179   1.210   2.129 -1.4553 -0.3414 -0.1643
  460SOL     OW 1378   1.876   1.848   3.749 -0.3542 -0.1027  0.0013
  460SOL    HW1 1379   1.799   1.846   3.806  0.7339 -0.6203  1.5194
  460SOL    HW2 1380   1.951   1.845   3.809  0.8879  1.2449 -1.3738
  461SOL     OW 1381   0.684   2.812   3.290 -0.0176  0.2132 -0.2532
  461SOL    HW1 1382   0.598   2.774   3.305 -0.4954  0.8479 -1.2645
  461SOL    HW2 1383   0.738   2.740   3.257 -1.1254  0.4934 -2.9454
  462SOL     OW 1384   0.940   2.344   3.624 -0.4070  0.5146 -0.5395
  462SOL    HW1 1385   1.012   2.312   3.678 -1.5777 -1.2320  0.0781
  462SOL    HW2 1386   0.935   2.282   3.552 -0.8192  1.0648 -0.9936
  463SOL     OW 1387   2.088   1.038   1.593  0.0167  0.0188 -0.1589
  463SOL    HW1 1388   2.116   0.955   1.631 -0.2651  0.4729  1.1032
  463SOL    HW2 1389   2.085   1.098   1.667 -0.8747  0.8685 -0.8561
  464SOL     OW 1390   3.446   3.532   3.300 -0.2386  0.6964 -0.2221
  464SOL    HW1 1391   3.368   3.583   3.274 -1.6345 -1.4899 -0.5765
  464SOL    HW2 1392   3.440   3.452   3.249  2.3378  0.4731 -0.2810
  465SOL     OW 1393   3.543   1.041   0.599  0.7567  0.2763 -0.4550
  465SOL    HW1 1394   3.578   1.120   0.642 -1.0181 -0.1993  2.1432
  465SOL    HW2 1395   3.616   0.980   0.598  1.8918  1.5844 -1.6190
  466SOL     OW 1396   0.642   3.512   2.117  0.2018  0.2098  0.4069
  466SOL    HW1 1397   0.615   3.457   2.191 -0.1671 -1.5408 -0.9786
  466SOL    HW2 1398   0.562   3.556   2.090  0.4314  1.2253  1.3132
  467SOL     OW 1399   2.952   2.609   2.966  0.4814 -0.6949 -0.3998
  467SOL    HW1 1400   2.982   2.607   2.875  1.4832 -0.2090 -0.0879
  467SOL    HW2 1401   2.907   2.693   2.974  0.0416 -0.9131 -0.5493
  468SOL     OW 1402   0.877   0.627   1.319  0.5564  0.1456  0.3412
  468SOL    HW1 1403   0.898   0.694   1.253  0.7293 -0.2800 -0.0460
  468SOL    HW2 1404   0.803   0.579   1.281  1.5772 -1.0433 -0.2411
  469SOL     OW 1405   1.650   2.348   2.441 -0.4747  0.1775  0.6203
  469SOL    HW1 1406   1.632   2.352   2.347  0.7711 -0.2163  0.3504
  469SOL    HW2 1407   1.704   2.425   2.458 -0.0718 -0.1578  0.8633
  470SOL     OW 1408   3.148   2.893   2.227  0.3298  0.3558 -0.1596
  470SOL    HW1 1409   3.127   2.885   2.134 -1.9676  1.1738  0.2403
  470SOL    HW2 1410   3.152   2.987   2.243  0.8159  0.2227  0.5628
  471SOL     OW 1411   3.603   3.298   3.016  0.7838  0.2953  0.3451
  471SOL    HW1 1412   3.554   3.216   3.010  0.6459  0.4723 -2.6236
  471SOL    HW2 1413   3.553   3.359   2.962  1.4200  2.0892  1.6891
  472SOL     OW 1414   0.580   3.539   3.207 -0.0067  0.4322 -0.5201
  472SOL    HW1 1415   0.608   3.582   3.288 -3.3167  1.2294  0.3719
  472SOL    HW2 1416   0.504   3.486   3.233  1.9500 -3.6468 -2.1763
  473SOL     OW 1417   0.830   0.315   1.241 -0.1265  0.3254 -0.2917
  473SOL    HW1 1418   0.843   0.221   1.230  2.4818  0.1812  2.6583
  473SOL    HW2 1419   0.895   0.355   1.183  1.3838  0.1350  1.2162
  474SOL     OW 1420   0.072   3.268   1.312  0.0104 -0.4835 -0.2364
  474SOL    HW1 1421   0.014   3.228   1.377  1.7187 -1.8810  0.5074
  474SOL    HW2 1422   0.044   3.359   1.308 -0.6971 -0.5568  1.8403
  475SOL     OW 1423   0.811   2.243   1.178 -0.6802 -0.5066  0.3716
  475SOL    HW1 1424   0.834   2.172   1.238 -0.0848  0.9540  1.9330
  475SOL    HW2 1425   0.716   2.250   1.184 -0.7946 -1.3765 -0.0928
  476SOL     OW 1426   3.557   0.477   1.122 -0.4543 -0.0898 -0.4709
  476SOL    HW1 1427   3.611   0.505   1.196 -0.8310  0.8098 -0.5302
  476SOL    HW2 1428   3.602   0.399   1.089  0.5279  0.3383 -0.1999
  477SOL     OW 1429   3.750   1.612   2.104 -0.3635 -0.6836  0.0591
  477SOL    HW1 1430   3.680   1.587   2.165 -0.5021  0.9897  0.6409
  477SOL    HW2 1431   3.722   1.576   2.020 -0.7018 -2.1137  0.7648
  478SOL     OW 1432   1.579   0.281   1.484 -0.5202 -0.6438 -0.2593
  478SOL    HW1 1433   1.617   0.207   1.436  4.5997  1.2993  0.1829
  478SOL    HW2 1434   1.561   0.347   1.418  0.2777 -0.3106 -0.1503
  479SOL     OW 1435   1.904   0.698   3.848  0.4597  0.1621  0.0703
  479SOL    HW1 1436   1.826   0.674   3.897  1.4572 -2.2936  0.5650
  479SOL    HW2 1437   1.965   0.626   3.861  1.8402  0.7297 -2.4920
  480SOL     OW 1438   0.080   3.447   0.766  0.6603  0.1118  0.1770
  480SOL    HW1 1439   0.085   3.528   0.715  0.6870 -1.0545 -1.7702
  480SOL    HW2 1440   0.071   3.477   0.856 -0.6145  2.3042 -0.5826
  481SOL     OW 1441   3.674   3.656   2.447 -0.5550 -0.4458  0.5990
  481SOL    HW1 1442   3.628   3.730   2.407  0.5302  1.2621  2.3488
  481SOL    HW2 1443   3.605   3.605   2.489 -1.1208  1.0264  1.5562
  482SOL     OW 1444   2.041   0.076   0.142 -0.2481 -0.7972 -0.0242
  482SOL    HW1 1445   2.104   0.031   0.198  1.3667  0.9157 -0.3570
  482SOL    HW2 1446   2.013   0.010   0.079  2.4570 -1.2396 -0.8563
  483SOL     OW 1447   3.929   3.579   3.934  0.5287  0.4339 -0.0376
  483SOL    HW1 1448   3.955   3.559   3.844  0.1311 -2.6695  0.4560
  483SOL    HW2 1449   3.834   3.585   3.931  0.2719 -2.1732  0.5010
  484SOL     OW 1450   3.706   2.347   3.300  0.1008  0.8715 -0.0484
  484SOL    HW1 1451   3.706   2.356   3.204  1.7085  1.1846 -0.0387
  484SOL    HW2 1452   3.655   2.268   3.316  1.5380 -0.3816 -1.3077
  485SOL     OW 1453   0.825   0.946   3.119 -0.1125  0.1071 -0.3571
  485SOL    HW1 1454   0.887   1.017   3.103  2.4007 -1.9749 -0.4789
  485SOL    HW2 1455   0.828   0.932   3.213 -2.5936  1.7368  0.0664
  486SOL     OW 1456   2.362   3.453   1.532 -0.5802 -0.3135  0.3888
  486SOL    HW1 1457   2.293   3.506   1.573  0.7260  1.2046  0.7429
  486SOL    HW2 1458   2.388   3.502   1.455  0.8555 -0.2579  0.8711
  487SOL     OW 1459   0.064   2.967   3.315 -0.0988 -0.2984 -0.7820
  487SOL    HW1 1460   0.019   3.007   3.390 -0.6483  1.6674 -2.0889
  487SOL    HW2 1461   0.152   3.002   3.319  0.4772 -1.7405  0.0097
  488SOL     OW 1462   0.725   3.032   1.062  0.0382 -0.2756 -0.3370
  488SOL    HW1 1463   0.680   3.114   1.083  0.7767  0.1157 -0.2446
  488SOL    HW2 1464   0.806   3.060   1.018  0.9826 -0.8887  0.9382
  489SOL     OW 1465   0.295   1.234   3.760  0.2886 -0.1525  0.1630
  489SOL    HW1 1466   0.363   1.223   3.827  0.3785  2.5101  0.6002
  489SOL    HW2 1467   0.283   1.329   3.753 -1.5886 -0.4605 -1.7484
  490SOL     OW 1468   3.163   3.770   4.013  0.2898 -0.4694  0.0400
  490SOL    HW1 1469   3.102   3.729   3.952  0.9635 -1.0218 -0.2791
  490SOL    HW2 1470   3.182   3.855   3.974  0.7613 -0.8413 -0.5710
  491SOL     OW 1471   3.022   2.938   3.260 -0.1235 -0.4217  0.6204
  491SOL    HW1 1472   2.968   2.860   3.268  0.4006 -0.7957  0.6296
  491SOL    HW2 1473   3.056   2.935   3.170  0.1185 -0.3573  0.7069
  492SOL     OW 1474   2.873   0.847   3.672 -0.3696 -0.3950  0.3267
  492SOL    HW1 1475   2.841   0.800   3.595 -0.3027 -2.8887  1.7060
  492SOL    HW2 1476   2.968   0.835   3.670 -0.1302  1.3273 -0.2531
  493SOL     OW 1477   3.937   1.653   0.835 -0.3564  0.0819  0.4147
  493SOL    HW1 1478   3.908   1.664   0.926 -1.1113  1.3673  0.0389
  493SOL    HW2 1479   3.888   1.719   0.786 -0.7625 -1.2868 -1.1139
  494SOL     OW 1480   3.874   1.929   3.926  0.2611  0.7741  0.1652
  494SOL    HW1 1481   3.879   1.858   3.991 -0.2565  0.1214 -0.4953
  494SOL    HW2 1482   3.876   2.009   3.979 -0.5914  0.2526  1.0275
  495SOL     OW 1483   2.665   0.770   0.739 -0.1010 -0.1192 -0.2655
  495SOL    HW1 1484   2.705   0.857   0.739 -0.6098  0.1205  0.3922
  495SOL    HW2 1485   2.633   0.758   0.829  1.0148 -1.4675 -0.0085
  496SOL     OW 1486   3.666   3.175   0.740 -0.1655  0.0900 -0.4399
  496SOL    HW1 1487   3.735   3.235   0.769 -0.7131  1.0128 -0.9951
  496SOL    HW2 1488   3.671   3.176   0.645 -1.5836  0.9636 -0.5315
  497SOL     OW 1489   0.604   2.152   1.797  0.3193  0.0578 -0.1860
  497SOL    HW1 1490   0.509   2.153   1.803  0.2559 -1.7161 -0.4748
  497SOL    HW2 1491   0.631   2.238   1.829 -1.3028  0.1721  0.9719
  498SOL     OW 1492   1.346   0.733   3.472  0.9879 -0.4790 -0.2641
  498SOL    HW1 1493   1.427   0.767   3.508  1.8594 -2.8571  0.2440
  498SOL    HW2 1494   1.316   0.669   3.537 -0.6560 -0.5291 -1.0060
  499SOL     OW 1495   1.567   3.776   3.981 -0.2154  0.0526  0.2615
  499SOL    HW1 1496   1.524   3.832   4.046  0.4353  1.4854 -0.4781
  499SOL    HW2 1497   1.506   3.704   3.966 -0.4731 -0.2020  2.2804
  500SOL     OW 1498   0.381   3.947   0.686  0.1619  0.3245  0.4796
  500SOL    HW1 1499   0.409   4.035   0.662 -0.6734  0.9520  1.6774
  500SOL    HW2 1500   0.447   3.889   0.649 -0.2921  1.2934 -2.0227
  501SOL     OW 1501   1.866   1.659   1.768  0.6250  0.4621  0.0049
  501SOL    HW1 1502   1.923   1.736   1.770 -0.0783  0.9855  1.1691
  501SOL    HW2 1503   1.826   1.660   1.681 -0.1711  2.0446  0.3497
  502SOL     OW 1504   3.880   2.323   3.669 -0.4975 -0.3463  0.6968
  502SOL    HW1 1505   3.848   2.382   3.601 -0.8201  0.1697  1.2828
  502SOL    HW2 1506   3.974   2.318   3.654 -0.6068 -0.4880  0.0276
  503SOL     OW 1507   1.396   2.774   3.014  0.2993 -0.2943 -0.0491
  503SOL    HW1 1508   1.492   2.780   3.005  0.3349 -1.3152 -0.4250
  503SOL    HW2 1509   1.362   2.824   2.940  0.5160  0.8960  0.6210
  504SOL     OW 1510   3.375   0.978   3.805 -0.4926 -0.0909 -0.6607
  504SOL    HW1 1511   3.423   0.897   3.819  2.5660  1.1295 -2.9899
  504SOL    HW2 1512   3.418   1.042   3.862 -1.7952  0.3054 -0.0752
  505SOL     OW 1513   0.885   3.157   0.854  0.3957 -0.3834  0.3728
  505SOL    HW1 1514   0.914   3.096   0.786  0.9932  0.1446  0.1440
  505SOL    HW2 1515   0.966   3.197   0.887 -0.0670  1.9967 -1.0917
  506SOL     OW 1516   3.135   3.417   2.433 -0.2678 -0.5045 -0.1876
  506SOL    HW1 1517   3.187   3.487   2.394 -0.0080 -0.5412  0.0904
  506SOL    HW2 1518   3.199   3.356   2.469 -0.4263 -1.8845 -2.1100
  507SOL     OW 1519   1.871   3.704   3.770  0.7998  0.2718  0.3515
  507SOL    HW1 1520   1.798   3.754   3.807  0.5063 -0.1629  0.3686
  507SOL    HW2 1521   1.884   3.741   3.683 -2.1584 -2.2711 -1.3726
  508SOL     OW 1522   2.838   1.760   2.105 -0.1960  0.3339 -0.4671
  508SOL    HW1 1523   2.854   1.744   2.198 -0.8030  0.3891 -0.3509
  508SOL    HW2 1524   2.865   1.679   2.061 -0.8151 -0.0537 -0.1419
  509SOL     OW 1525   2.444   2.313   2.160  0.1115  0.6526  0.4176
  509SOL    HW1 1526   2.372   2.289   2.100 -1.8473  1.4972  2.2845
  509SOL    HW2 1527   2.522   2.274   2.121 -1.5982 -1.7055 -0.9193
  510SOL     OW 1528   2.708   1.836   3.519  0.9305 -0.7046 -0.1610
  510SOL    HW1 1529   2.718   1.791   3.435  0.6584 -0.9654 -0.0549
  510SOL    HW2 1530   2.781   1.803   3.572  1.9126  0.4749 -0.7285
  511SOL     OW 1531   3.782   3.555   1.703  0.0453  0.1902  0.1131
  511SOL    HW1 1532   3.859   3.511   1.738 -1.0993 -2.2866 -0.3096
  511SOL    HW2 1533   3.785   3.643   1.742  2.6096 -0.0939  0.7217
  512SOL     OW 1534   2.951   2.594   1.728 -0.2451 -0.4374  0.1469
  512SOL    HW1 1535   2.908   2.508   1.735 -0.2437 -0.4445  0.0661
  512SOL    HW2 1536   2.974   2.602   1.636 -1.9053  0.4546 -0.2129
  513SOL     OW 1537   1.482   0.430   1.920 -0.0060  0.2171 -0.5245
  513SOL    HW1 1538   1.395   0.431   1.961  0.2524  0.5293  0.0257
  513SOL    HW2 1539   1.467   0.389   1.834 -0.3609 -1.4575  0.2939
  514SOL     OW 1540   2.896   1.424   2.360  0.8979  0.5965 -0.1571
  514SOL    HW1 1541   2.915   1.375   2.440 -1.0317 -0.2570 -0.1584
  514SOL    HW2 1542   2.825   1.484   2.385  0.3283  0.3726 -1.1894
  515SOL     OW 1543   3.906   1.729   3.155 -0.3158  0.7232  0.2196
  515SOL    HW1 1544   3.903   1.634   3.172  1.0452  0.9106  1.7300
  515SOL    HW2 1545   3.839   1.766   3.213  1.7049  0.9887  2.5317
  516SOL     OW 1546   1.342   0.921   3.277 -0.4472 -0.3593  0.2463
  516SOL    HW1 1547   1.416   0.966   3.236 -0.9306  1.8234  1.5706
  516SOL    HW2 1548   1.381   0.853   3.330  0.7706  1.2870  1.5828
  517SOL     OW 1549   2.343   1.116   0.574 -0.0570  0.3111  0.0728
  517SOL    HW1 1550   2.402   1.047   0.543  0.7976  1.2028 -0.3288
  517SOL    HW2 1551   2.361   1.191   0.517 -1.5611  0.6271 -0.0320
  518SOL     OW 1552   1.817   0.869   2.245 -0.4291 -0.1101 -0.0860
  518SOL    HW1 1553   1.785   0.785   2.277 -1.1070  0.9002  2.0916
  518SOL    HW2 1554   1.762   0.934   2.290  1.9280  1.5918  0.5557
  519SOL     OW 1555   3.561   1.414   1.433 -0.1391  0.0406 -0.8746
  519SOL    HW1 1556   3.567   1.499   1.390 -1.2178 -0.0057 -1.1300
  519SOL    HW2 1557   3.550   1.351   1.362 -3.5448  0.1080 -0.5734
  520SOL     OW 1558   3.136   2.143   1.321 -0.2719 -0.2593 -0.1673
  520SOL    HW1 1559   3.070   2.118   1.386 -1.3597 -0.1518 -1.2003
  520SOL    HW2 1560   3.088   2.196   1.257  0.5195 -1.2864 -1.6570
  521SOL     OW 1561   0.191   2.855   0.059  0.3968  0.4184 -0.1128
  521SOL    HW1 1562   0.207   2.934   0.110 -0.2987  0.9947 -0.7632
  521SOL    HW2 1563   0.140   2.799   0.117 -0.5361  1.1400 -0.2116
  522SOL     OW 1564   3.458   3.241   3.861  0.1156  0.1652 -0.3186
  522SOL    HW1 1565   3.541   3.272   3.824  0.9815 -1.4958  0.1314
  522SOL    HW2 1566   3.482   3.206   3.947 -0.3320 -3.4195 -1.4627
  523SOL     OW 1567   2.632   1.259   2.195  0.4732 -0.6563  0.1684
  523SOL    HW1 1568   2.650   1.173   2.233  0.8230 -0.1208  1.2502
  523SOL    HW2 1569   2.617   1.316   2.271  0.4462  0.2823 -0.5294
  524SOL     OW 1570   1.721   1.465   0.228  0.1945 -0.1992 -0.4420
  524SOL    HW1 1571   1.788   1.401   0.253  2.0288  1.3146 -1.2085
  524SOL    HW2 1572   1.770   1.546   0.216 -2.2668  2.0514  2.8177
  525SOL     OW 1573   2.076   1.312   0.265  0.5444  0.4397  0.0303
  525SOL    HW1 1574   2.084   1.289   0.172 -0.7449  0.6728 -0.1533
  525SOL    HW2 1575   2.050   1.231   0.308  0.8277  0.4073  0.1419
  526SOL     OW 1576   0.787   1.967   1.800 -0.0770 -0.1350  0.1024
  526SOL    HW1 1577   0.859   2.001   1.853 -0.9678  1.1434  0.5219
  526SOL    HW2 1578   0.722   2.037   1.799 -0.2525 -0.2505 -2.3784
  527SOL     OW 1579   0.044   1.153   2.375 -0.5237 -0.1439  0.1220
  527SOL    HW1 1580   0.089   1.225   2.418 -0.5142  0.3063 -0.6137
  527SOL    HW2 1581  -0.034   1.139   2.428 -0.7324  0.6886  0.0607
  528SOL     OW 1582   1.639   2.897   3.398  0.5878 -0.3101 -0.5622
  528SOL    HW1 1583   1.645   2.803   3.415 -1.6630 -0.9364 -2.6368
  528SOL    HW2 1584   1.547   2.912   3.376  0.6019  2.6319  0.7956
  529SOL     OW 1585   2.628   0.940   1.930 -0.1869 -0.2555  0.3742
  529SOL    HW1 1586   2.662   1.029   1.927 -3.4665  1.1262 -2.3808
  529SOL    HW2 1587   2.547   0.948   1.981 -1.2026 -1.3097 -1.0082
  530SOL     OW 1588   3.806   1.808   0.638 -0.1022 -0.4731  0.3402
  530SOL    HW1 1589   3.816   1.898   0.669  0.8888 -0.0738 -1.0257
  530SOL    HW2 1590   3.712   1.791   0.646 -0.1196  0.1735  1.9029
  531SOL     OW 1591   2.492   1.365   0.971  0.1068 -0.1967  0.2490
  531SOL    HW1 1592   2.415   1.421   0.969  0.0760 -0.2539 -0.1417
  531SOL    HW2 1593   2.516   1.361   1.064 -0.9571 -1.0133  0.4956
  532SOL     OW 1594   2.883   2.059   1.412  0.2658 -0.6022 -0.2548
  532SOL    HW1 1595   2.881   2.070   1.507  0.7742 -0.0298 -0.3048
  532SOL    HW2 1596   2.810   1.999   1.394 -1.5630  1.3675  0.2205
  533SOL     OW 1597   0.977   2.340   0.201  0.0606 -0.2090  0.2297
  533SOL    HW1 1598   0.903   2.370   0.253  0.5582  0.7424  0.4074
  533SOL    HW2 1599   0.975   2.394   0.122  0.2027 -0.6078 -0.0534
  534SOL     OW 1600   0.104   1.406   3.387  0.6523 -0.1177  0.0568
  534SOL    HW1 1601   0.099   1.354   3.467 -0.9608 -1.9393 -1.1304
  534SOL    HW2 1602   0.192   1.444   3.388  0.9559 -0.7583  2.2654
  535SOL     OW 1603   3.339   0.291   3.601 -0.0120  0.1696  0.3174
  535SOL    HW1 1604   3.419   0.240   3.612 -0.4270 -0.0149  3.5353
  535SOL    HW2 1605   3.364   0.362   3.541  1.0643 -2.6230 -2.8222
  536SOL     OW 1606   1.403   2.978   2.520 -0.5743  0.2164 -0.2596
  536SOL    HW1 1607   1.406   3.074   2.526 -1.0652  0.1954  0.3301
  536SOL    HW2 1608   1.390   2.961   2.427 -0.6641  0.7251 -0.3446
  537SOL     OW 1609   1.412   0.080   3.371 -0.2153  0.2473  0.1996
  537SOL    HW1 1610   1.327   0.037   3.384  0.2210 -0.0586  2.3401
  537SOL    HW2 1611   1.469   0.042   3.437  0.3928  3.5863  1.8409
  538SOL     OW 1612   3.506   1.119   1.414 -1.4940 -0.1160  0.1700
  538SOL    HW1 1613   3.451   1.134   1.490  0.0973 -1.0967  1.5907
  538SOL    HW2 1614   3.570   1.053   1.443  0.5625  1.1155 -1.2845
  539SOL     OW 1615   3.826   1.768   0.338 -0.3087  0.6900 -0.0611
  539SOL    HW1 1616   3.850   1.851   0.377  0.0289  1.0224 -0.9428
  539SOL    HW2 1617   3.745   1.743   0.381 -0.3618  1.4309  0.2783
  540SOL     OW 1618   3.037   3.174   3.788  0.2488  0.0924 -0.0307
  540SOL    HW1 1619   3.093   3.195   3.713  0.2725  0.9172  0.2021
  540SOL    HW2 1620   3.097   3.169   3.862  0.3321 -1.4988 -0.1745
  541SOL     OW 1621   1.767   2.185   1.967 -0.4077  0.0805 -0.4835
  541SOL    HW1 1622   1.802   2.107   1.925 -0.1813 -0.3178  0.4281
  541SOL    HW2 1623   1.838   2.217   2.022 -1.4613 -0.8499  1.5613
  542SOL     OW 1624   0.421   0.402   0.958  0.2490 -0.2612  0.2350
  542SOL    HW1 1625   0.402   0.313   0.990 -0.3833 -0.1279  0.2458
  542SOL    HW2 1626   0.353   0.419   0.893 -0.6222  0.8075  1.3722
  543SOL     OW 1627   2.012   2.799   3.186  0.1397 -0.1697  0.1807
  543SOL    HW1 1628   2.094   2.749   3.181 -0.3603 -1.2478  1.9241
  543SOL    HW2 1629   2.001   2.817   3.279  0.2076  3.1667 -0.3278
  544SOL     OW 1630   2.138   2.458   1.362 -0.4283  0.1828  0.7181
  544SOL    HW1 1631   2.217   2.502   1.393 -0.3992 -0.2263  1.2472
  544SOL    HW2 1632   2.170   2.389   1.304 -0.2759 -0.9410  2.0769
  545SOL     OW 1633   1.678   0.038   0.080  0.9058  0.3253 -0.2883
  545SOL    HW1 1634   1.730  -0.042   0.088  1.2041  0.6339  1.1559
  545SOL    HW2 1635   1.651   0.059   0.169 -1.3932  0.4036 -0.9339
  546SOL     OW 1636   0.289   2.913   2.358 -1.2311  0.4498  0.0997
  546SOL    HW1 1637   0.309   2.824   2.387 -2.6810  0.0567 -0.0400
  546SOL    HW2 1638   0.286   2.964   2.439 -1.7443  0.0867  0.3117
  547SOL     OW 1639   2.138   0.458   3.225  0.4476  0.5389 -0.2669
  547SOL    HW1 1640   2.076   0.413   3.281  0.6414  0.7866  0.1548
  547SOL    HW2 1641   2.115   0.551   3.233  0.6756  0.6038 -0.3415
  548SOL     OW 1642   2.139   3.372   2.111  0.6807  0.2988  0.4720
  548SOL    HW1 1643   2.051   3.339   2.129  1.5476 -0.6568  3.5924
  548SOL    HW2 1644   2.134   3.465   2.134  0.5389  0.1669  1.0053
  549SOL     OW 1645   3.431   0.743   2.416 -0.0619 -0.1818  0.2295
  549SOL    HW1 1646   3.349   0.700   2.439  0.0384 -0.1727  0.6077
  549SOL    HW2 1647   3.405   0.811   2.354 -0.7092  1.4521  2.1507
  550SOL     OW 1648   3.458   2.775   0.532 -0.7671  0.5158  0.3894
  550SOL    HW1 1649   3.418   2.831   0.599 -1.8727  1.9650 -1.4099
  550SOL    HW2 1650   3.519   2.832   0.486 -0.4715 -0.2916 -0.2323
  551SOL     OW 1651   3.841   2.735   2.279 -0.0704  0.4335 -0.7053
  551SOL    HW1 1652   3.774   2.734   2.210 -0.7161 -0.6869 -0.0810
  551SOL    HW2 1653   3.884   2.650   2.271  0.3471  0.5954 -0.1917
  552SOL     OW 1654   1.998   0.215   0.377  0.0163  0.6490 -0.2786
  552SOL    HW1 1655   2.010   0.301   0.337 -0.9403  0.3328 -1.3140
  552SOL    HW2 1656   2.014   0.153   0.306 -1.0410  0.0429 -0.0086
  553SOL     OW 1657   3.759   0.428   3.927 -0.1828 -0.0082  0.0796
  553SOL    HW1 1658   3.791   0.476   4.003 -1.0261  1.4988 -0.4694
  553SOL    HW2 1659   3.736   0.342   3.961  0.4776  0.2781  1.3020
  554SOL     OW 1660   2.923   0.271   2.734 -0.0131 -0.3108 -0.1126
  554SOL    HW1 1661   3.010   0.276   2.696  0.0923  1.2036  0.2377
  554SOL    HW2 1662   2.938   0.278   2.829 -0.5311  0.5302 -0.0830
  555SOL     OW 1663   2.866   2.028   2.729  0.2455 -0.0345  0.1835
  555SOL    HW1 1664   2.820   2.112   2.737 -1.9050 -0.8691 -2.1115
  555SOL    HW2 1665   2.820   1.970   2.789  0.9896  0.1028  0.9066
  556SOL     OW 1666   0.284   2.728   2.560 -0.6187 -0.3647 -0.4537
  556SOL    HW1 1667   0.193   2.700   2.556 -1.1689  1.2394 -0.0655
  556SOL    HW2 1668   0.329   2.657   2.606 -2.1373 -0.1926  1.4439
  557SOL     OW 1669   3.925   2.029   0.387  0.1614 -0.3560  0.2404
  557SOL    HW1 1670   3.965   2.080   0.316 -0.7146 -0.5246 -0.3970
  557SOL    HW2 1671   3.998   2.005   0.443  1.0000 -0.8804 -1.0248
  558SOL     OW 1672   3.851   0.790   2.388 -0.1248 -0.5389  0.5406
  558SOL    HW1 1673   3.921   0.824   2.445 -0.0149  0.6217 -0.2454
  558SOL    HW2 1674   3.812   0.719   2.438 -0.5102  0.9137  2.3976
  559SOL     OW 1675   3.122   1.833   1.475 -1.0619 -0.2778 -0.2571
  559SOL    HW1 1676   3.031   1.851   1.500 -0.8877 -0.2910  0.4122
  559SOL    HW2 1677   3.140   1.747   1.513  0.2740  1.1235  2.5737
  560SOL     OW 1678   3.287   1.302   2.313  0.0327  0.3497  0.0660
  560SOL    HW1 1679   3.270   1.269   2.225  0.7851 -0.5847  0.2557
  560SOL    HW2 1680   3.345   1.237   2.352  0.5980  1.3138  0.8742
  561SOL     OW 1681   2.724   0.291   0.349  0.3472 -0.2266  0.2664
  561SOL    HW1 1682   2.714   0.245   0.433 -0.6031 -1.1588 -0.3327
  561SOL    HW2 1683   2.660   0.363   0.355 -0.3288 -0.7956  0.0216
  562SOL     OW 1684   2.269   2.470   3.623  0.2796 -0.0821 -0.0367
  562SOL    HW1 1685   2.176   2.453   3.604 -0.0893  0.1121  1.4474
  562SOL    HW2 1686   2.308   2.383   3.627  0.0192 -0.2004 -0.0151
  563SOL     OW 1687   0.544   1.972   3.652 -0.1809  0.7523  0.6153
  563SOL    HW1 1688   0.626   1.934   3.621 -0.1243  1.3125  0.0694
  563SOL    HW2 1689   0.541   1.948   3.745  0.6230  0.7737  0.6572
  564SOL     OW 1690   2.244   3.096   0.017  0.2854 -0.1139  0.4402
  564SOL    HW1 1691   2.238   3.192   0.015 -0.7263 -0.1612  0.7311
  564SOL    HW2 1692   2.153   3.066   0.017  0.5876 -1.0690  0.7148
  565SOL     OW 1693   0.968   3.866   2.910 -0.2766  0.2567  0.6232
  565SOL    HW1 1694   0.955   3.845   3.003  2.0318  3.2267  1.7829
  565SOL    HW2 1695   0.957   3.961   2.905 -1.0470  0.0943 -2.3428
  566SOL     OW 1696   0.653   2.814   2.613  0.4781  0.0928  0.3128
  566SOL    HW1 1697   0.651   2.808   2.517 -0.3844 -0.2169  0.3419
  566SOL    HW2 1698   0.580   2.872   2.635 -0.1427 -0.8582  0.8435
  567SOL     OW 1699   3.171   0.338   3.821  0.5854  0.0890 -0.3937
  567SOL    HW1 1700   3.219   0.327   3.738 -0.5629  1.8163 -1.3429
  567SOL    HW2 1701   3.104   0.269   3.819 -0.0566  0.7156 -1.4001
  568SOL     OW 1702   3.109   0.508   0.053  0.2818 -0.5695  0.5537
  568SOL    HW1 1703   3.144   0.446   0.117  0.6520 -0.6449  0.2841
  568SOL    HW2 1704   3.133   0.470  -0.032 -0.6237 -0.7177  0.3602
  569SOL     OW 1705   1.777   3.528   2.898 -0.4876 -0.0585 -0.3913
  569SOL    HW1 1706   1.854   3.570   2.938 -0.0040 -1.9101  0.7518
  569SOL    HW2 1707   1.809   3.496   2.814  0.3842 -1.7873  0.5371
  570SOL     OW 1708   1.293   0.306   3.747  0.3577 -0.4862  0.1183
  570SOL    HW1 1709   1.286   0.380   3.808  1.9082  0.6861 -1.0613
  570SOL    HW2 1710   1.375   0.263   3.771  1.1832  0.2109 -1.3358
  571SOL     OW 1711   2.101   3.779   2.848  0.2826  0.0022  0.5912
  571SOL    HW1 1712   2.085   3.725   2.771  1.1709 -1.5133  1.4231
  571SOL    HW2 1713   2.053   3.736   2.918 -0.8127  1.5653  0.8498
  572SOL     OW 1714   0.489   0.234   2.192 -0.4155  0.0281  0.3349
  572SOL    HW1 1715   0.530   0.246   2.278  0.7339  0.4462 -0.2539
  572SOL    HW2 1716   0.550   0.274   2.131 -0.2952 -1.8994 -0.8896
  573SOL     OW 1717   3.653   0.746   0.394  0.5802  0.6420  0.1691
  573SOL    HW1 1718   3.559   0.740   0.377  0.8671  0.1965 -1.5135
  573SOL    HW2 1719   3.683   0.817   0.336  1.4391  0.0112 -0.1918
  574SOL     OW 1720   3.861   2.054   3.689 -0.4323 -0.0860  0.1395
  574SOL    HW1 1721   3.890   2.134   3.735  0.6218  0.0403 -0.6940
  574SOL    HW2 1722   3.872   1.985   3.754 -1.2681  0.4154  0.8458
  575SOL     OW 1723   2.674   3.335   2.372  0.6694  0.2889  0.6386
  575SOL    HW1 1724   2.673   3.394   2.297  2.0932  0.7170  0.9226
  575SOL    HW2 1725   2.698   3.250   2.336  2.5520  0.7396  0.7186
  576SOL     OW 1726   3.622   2.296   3.038  0.3668  0.0157 -0.3578
  576SOL    HW1 1727   3.659   2.210   3.019  0.6847  0.0720 -0.0062
  576SOL    HW2 1728   3.540   2.298   2.989 -0.7214 -1.3095  1.3073
  577SOL     OW 1729   0.442   2.201   2.313  0.3787  0.2576  0.0627
  577SOL    HW1 1730   0.532   2.199   2.280  0.5817 -0.7937  0.6521
  577SOL    HW2 1731   0.443   2.146   2.391 -1.1211 -1.1100 -0.8049
  578SOL     OW 1732   2.138   3.062   0.720  0.3852  0.4005  0.6195
  578SOL    HW1 1733   2.081   2.995   0.756  0.4578  0.1964  0.3625
  578SOL    HW2 1734   2.168   3.112   0.796 -1.7024  1.7854  0.6151
  579SOL     OW 1735   2.493   3.895   2.719  0.0036  0.5199 -0.5145
  579SOL    HW1 1736   2.573   3.890   2.668  1.6245 -0.8005  1.9584
  579SOL    HW2 1737   2.498   3.979   2.764  0.7497 -0.1222  0.6678
  580SOL     OW 1738   0.951   0.661   3.990 -0.4361  0.1568 -0.3181
  580SOL    HW1 1739   0.971   0.585   3.936  0.3663  1.3441 -1.7424
  580SOL    HW2 1740   1.033   0.710   3.994 -1.1026  1.2722  0.0778
  581SOL     OW 1741   1.494   2.173   1.278 -0.5037 -0.2676 -0.0904
  581SOL    HW1 1742   1.568   2.221   1.241 -1.5279  0.4866 -1.1961
  581SOL    HW2 1743   1.427   2.175   1.210 -1.1887 -1.8298  0.4928
  582SOL     OW 1744   2.639   0.530   3.672 -0.2920  0.5719 -0.1299
  582SOL    HW1 1745   2.684   0.494   3.596  1.3227  0.1019  1.0059
  582SOL    HW2 1746   2.709   0.559   3.730 -1.4199 -0.3732  1.7987
  583SOL     OW 1747   0.069   0.330   0.864  0.2210 -0.0079  0.1667
  583SOL    HW1 1748   0.015   0.257   0.833  0.8481 -0.1283 -0.6538
  583SOL    HW2 1749   0.148   0.289   0.898 -0.8085  0.0345  2.8772
  584SOL     OW 1750   2.579   1.241   1.906 -0.3360 -0.1938  0.0084
  584SOL    HW1 1751   2.574   1.265   1.999  1.3767  1.9683 -0.3761
  584SOL    HW2 1752   2.518   1.300   1.862  0.2069  0.0593 -0.4191
  585SOL     OW 1753   1.719   2.321   1.744 -0.6195  0.1532 -0.2690
  585SOL    HW1 1754   1.804   2.363   1.738 -0.8737  0.5401 -1.3124
  585SOL    HW2 1755   1.724   2.269   1.824  0.0378  1.4042  0.5412
  586SOL     OW 1756   3.950   0.515   1.019 -0.6523 -0.1897 -0.4175
  586SOL    HW1 1757   4.002   0.439   0.993  0.5564 -0.4630  2.3980
  586SOL    HW2 1758   3.859   0.487   1.011 -0.2404 -1.6282 -0.2360
  587SOL     OW 1759   0.269   2.507   2.720  0.2123 -0.0800 -0.1023
  587SOL    HW1 1760   0.265   2.451   2.643  0.7851 -2.5479  1.5505
  587SOL    HW2 1761   0.177   2.516   2.749  0.0376  0.5518 -0.8177
  588SOL     OW 1762   3.563   3.203   2.452  0.0758 -0.0508  0.3685
  588SOL    HW1 1763   3.579   3.182   2.360  0.2250 -1.2679  0.6645
  588SOL    HW2 1764   3.638   3.256   2.478 -1.0891  2.3710 -0.8258
  589SOL     OW 1765   1.698   0.315   0.616  0.2949 -0.3554  0.0841
  589SOL    HW1 1766   1.618   0.274   0.649  0.4209  0.3595  1.3198
  589SOL    HW2 1767   1.729   0.370   0.688  0.2588  1.7608 -1.4361
  590SOL     OW 1768   0.146   3.714   3.010 -0.2363 -0.2341  0.7421
  590SOL    HW1 1769   0.221   3.659   2.985 -0.7509 -2.2350  3.1583
  590SOL    HW2 1770   0.139   3.779   2.940  2.7370 -0.9652 -0.3859
  591SOL     OW 1771   2.627   3.522   2.113  0.0488  0.9505  0.5273
  591SOL    HW1 1772   2.630   3.454   2.046  1.8401 -0.5378  2.0059
  591SOL    HW2 1773   2.690   3.587   2.084 -0.7562  1.3957 -0.2703
  592SOL     OW 1774   0.608   3.954   0.462  0.2287  0.1374 -0.1985
  592SOL    HW1 1775   0.585   4.026   0.520 -2.9185 -0.6875 -0.2480
  592SOL    HW2 1776   0.619   3.879   0.519 -2.4187 -0.5738 -0.5057
  593SOL     OW 1777   3.514   0.095   3.668 -0.0065 -0.5730 -0.4407
  593SOL    HW1 1778   3.565   0.135   3.598 -1.2245  1.2866 -0.3465
  593SOL    HW2 1779   3.463   0.027   3.625  2.8868 -2.9296 -0.4292
  594SOL     OW 1780   0.159   3.826   1.694  0.4101  0.1662  0.3274
  594SOL    HW1 1781   0.233   3.853   1.748  0.6248  1.2083 -0.4652
  594SOL    HW2 1782   0.101   3.902   1.693 -0.0637 -0.1946 -0.1125
  595SOL     OW 1783   0.282   1.710   2.828 -0.1396  0.1212 -0.4395
  595SOL    HW1 1784   0.371   1.745   2.830 -0.1012 -0.0055  0.3182
  595SOL    HW2 1785   0.226   1.784   2.852  0.0609 -0.6277  2.8032
  596SOL     OW 1786   0.275   0.069   2.231  0.0591  0.6130  0.4937
  596SOL    HW1 1787   0.283   0.045   2.323 -3.3263  1.6223  1.1997
  596SOL    HW2 1788   0.305   0.159   2.226  1.7923  0.0488  0.2194
  597SOL     OW 1789   0.038   3.684   0.640  0.0817 -0.1601  0.1308
  597SOL    HW1 1790   0.028   3.690   0.545  1.1960  0.0856  0.0095
  597SOL    HW2 1791   0.024   3.773   0.672 -1.8951 -0.5137  0.4061
  598SOL     OW 1792   2.979   3.135   1.602 -0.6721 -0.1117  0.1260
  598SOL    HW1 1793   2.901   3.098   1.643 -0.7923  0.1813  0.1673
  598SOL    HW2 1794   2.985   3.091   1.517 -0.1084 -1.1198  0.6779
  599SOL     OW 1795   2.096   2.112   1.848  1.1331  0.0506 -0.4106
  599SOL    HW1 1796   2.046   2.045   1.894 -0.0939  0.7926 -0.6103
  599SOL    HW2 1797   2.183   2.074   1.836 -0.0213 -2.2812 -2.1696
  600SOL     OW 1798   3.491   1.765   0.553 -0.0547  1.0222 -0.2451
  600SOL    HW1 1799   3.408   1.732   0.586  1.2542 -0.0948  2.2122
  600SOL    HW2 1800   3.495   1.734   0.462 -1.4477 -0.5789  0.1996
  601SOL     OW 1801   0.869   3.495   2.345 -0.6194 -0.1158 -0.1674
  601SOL    HW1 1802   0.854   3.584   2.377  0.6190 -0.3992  1.3091
  601SOL    HW2 1803   0.781   3.456   2.340 -0.9919  0.3760  1.7075
  602SOL     OW 1804   2.263   3.548   3.798 -0.3098 -0.2398  0.2963
  602SOL    HW1 1805   2.236   3.630   3.838 -1.5943 -0.8585  0.7594
  602SOL    HW2 1806   2.357   3.558   3.783 -0.1761  0.7703  1.6409
  603SOL     OW 1807   0.322   0.542   2.945 -0.3119  0.1913 -0.0012
  603SOL    HW1 1808   0.311   0.450   2.968  0.2041  0.5009  1.5946
  603SOL    HW2 1809   0.322   0.589   3.028  1.2977  1.4307 -0.6238
  604SOL     OW 1810   0.300   0.143   0.953 -0.1777 -0.0009 -0.2723
  604SOL    HW1 1811   0.279   0.091   1.030 -3.0484  1.1837 -0.1241
  604SOL    HW2 1812   0.335   0.080   0.890  1.6326 -1.0985  1.6949
  605SOL     OW 1813   1.376   1.961   3.249  0.0433  0.6420  0.2458
  605SOL    HW1 1814   1.394   2.042   3.202 -1.4108  0.1033 -1.3322
  605SOL    HW2 1815   1.346   1.990   3.336 -1.3646  1.8541 -0.6052
  606SOL     OW 1816   3.674   2.564   1.780 -0.8042 -0.4708 -0.0053
  606SOL    HW1 1817   3.753   2.569   1.727 -1.7297 -1.3989 -1.5547
  606SOL    HW2 1818   3.615   2.507   1.730 -2.8623  1.0427  0.5576
  607SOL     OW 1819   0.934   0.125   0.246  0.2236 -0.5831  0.6651
  607SOL    HW1 1820   0.842   0.126   0.273 -0.0836  1.3209 -0.2645
  607SOL    HW2 1821   0.953   0.032   0.230 -1.1348 -1.1636  2.0755
  608SOL     OW 1822   3.910   3.029   3.085  0.3269 -0.6470  0.0910
  608SOL    HW1 1823   3.971   3.007   3.155 -0.9103 -1.3002  1.0227
  608SOL    HW2 1824   3.959   3.016   3.004  1.0620 -2.3372  0.7633
  609SOL     OW 1825   1.819   3.455   3.669  0.4926  0.5707 -0.0370
  609SOL    HW1 1826   1.894   3.403   3.697  0.3766  0.4160 -0.0132
  609SOL    HW2 1827   1.845   3.546   3.686  0.2024  0.4532  1.1266
  610SOL     OW 1828   3.533   3.495   2.147  0.4040 -0.0028 -0.2596
  610SOL    HW1 1829   3.622   3.517   2.176  0.3831  0.2125 -0.3531
  610SOL    HW2 1830   3.519   3.406   2.177  1.1707 -0.5354 -1.4406
  611SOL     OW 1831   2.991   2.217   0.904  0.2069  0.2995  1.0565
  611SOL    HW1 1832   2.951   2.213   0.992  0.4985  0.2944  1.1893
  611SOL    HW2 1833   3.057   2.148   0.905 -1.1760 -1.1110  0.1215
  612SOL     OW 1834   1.299   0.270   2.682 -0.4573  0.1824 -0.1822
  612SOL    HW1 1835   1.306   0.178   2.657 -1.9997  0.0560 -0.2753
  612SOL    HW2 1836   1.317   0.271   2.776  0.9404  0.0059 -0.4321
  613SOL     OW 1837   0.401   1.801   3.201 -0.0306 -0.6288 -0.1468
  613SOL    HW1 1838   0.344   1.749   3.144 -2.8039  1.1895  0.7675
  613SOL    HW2 1839   0.345   1.827   3.274  2.1391  0.9386  1.0742
  614SOL     OW 1840   1.021   3.489   1.553  0.0143 -0.7094 -0.2039
  614SOL    HW1 1841   0.954   3.558   1.550  0.8445  0.0773 -2.1095
  614SOL    HW2 1842   0.989   3.421   1.495  1.5062  0.3630 -2.4101
  615SOL     OW 1843   2.876   3.826   3.386 -0.0729  0.4704  0.1121
  615SOL    HW1 1844   2.857   3.849   3.477 -0.3667 -0.2090  0.2291
  615SOL    HW2 1845   2.854   3.733   3.380 -0.9468  0.7308 -0.8889
  616SOL     OW 1846   1.954   3.917   3.942  0.1478  0.0003  0.2782
  616SOL    HW1 1847   2.026   3.904   3.880 -0.2146  0.3542 -0.2245
  616SOL    HW2 1848   1.876   3.917   3.888 -0.3053 -1.1559  0.9102
  617SOL     OW 1849   0.501   2.718   1.599 -0.2336 -0.1396 -0.0794
  617SOL    HW1 1850   0.477   2.729   1.507 -1.7515  0.0434  0.3103
  617SOL    HW2 1851   0.423   2.744   1.647  0.6902  0.2305  1.2894
  618SOL     OW 1852   2.801   3.030   0.710  0.1264  0.7731 -0.0690
  618SOL    HW1 1853   2.822   2.964   0.776 -1.4541  0.9841  0.6950
  618SOL    HW2 1854   2.809   3.114   0.756 -1.8237  0.8847  0.1517
  619SOL     OW 1855   0.418   2.161   3.498  0.0546  0.2550 -0.4773
  619SOL    HW1 1856   0.476   2.095   3.535  2.1317  2.2548  0.0331
  619SOL    HW2 1857   0.472   2.208   3.435 -1.3090  1.5553 -0.7419
  620SOL     OW 1858   2.592   2.594   2.171 -0.5259  0.2188  0.1348
  620SOL    HW1 1859   2.548   2.511   2.154 -3.2970  1.3989  1.0131
  620SOL    HW2 1860   2.681   2.569   2.197 -0.8864 -2.3633 -0.8407
  621SOL     OW 1861   3.442   1.362   3.658 -0.3167  0.4045  0.6794
  621SOL    HW1 1862   3.528   1.326   3.636 -1.1771 -1.9908  0.9633
  621SOL    HW2 1863   3.447   1.381   3.751 -0.0378  0.5179  0.6436
  622SOL     OW 1864   1.985   3.136   1.081  0.2065 -0.4529 -0.0202
  622SOL    HW1 1865   1.987   3.229   1.060  1.0241 -0.4935 -0.1446
  622SOL    HW2 1866   1.901   3.123   1.125  0.0052  0.3036 -0.1736
  623SOL     OW 1867   2.511   0.331   2.227 -0.6903 -0.6722 -0.1796
  623SOL    HW1 1868   2.526   0.282   2.145  1.6917 -1.0190  0.3755
  623SOL    HW2 1869   2.486   0.263   2.290 -3.4643 -0.2901 -0.7405
  624SOL     OW 1870   0.070   0.241   0.105 -0.4126 -0.6102 -0.5692
  624SOL    HW1 1871   0.165   0.244   0.116 -0.2887 -0.5788 -1.5056
  624SOL    HW2 1872   0.038   0.321   0.147  0.0180 -0.4296 -0.5807
  625SOL     OW 1873   0.442   0.400   1.762  0.7836 -0.2918 -0.1264
  625SOL    HW1 1874   0.388   0.427   1.836 -0.3491  0.2111 -1.1052
  625SOL    HW2 1875   0.384   0.407   1.686  1.9534 -0.6635 -1.0839
  626SOL     OW 1876   1.424   1.570   2.341  0.1302  0.8817 -0.1596
  626SOL    HW1 1877   1.467   1.497   2.386 -1.1154 -0.0774 -0.4774
  626SOL    HW2 1878   1.453   1.562   2.250 -1.2661 -0.2324 -0.5362
  627SOL     OW 1879   1.323   2.862   2.763 -0.1706 -0.5671 -0.1403
  627SOL    HW1 1880   1.291   2.775   2.739 -0.2576 -0.6088  0.1283
  627SOL    HW2 1881   1.367   2.893   2.684 -0.5019 -0.6824 -0.3748
  628SOL     OW 1882   0.486   1.152   2.032 -0.1875 -0.5127 -0.1771
  628SOL    HW1 1883   0.399   1.167   2.068 -0.1746 -1.2956  0.1968
  628SOL    HW2 1884   0.496   1.057   2.031  1.0964 -0.4242  0.8533
  629SOL     OW 1885   3.791   3.490   0.630 -0.6734  1.1294  0.6193
  629SOL    HW1 1886   3.870   3.543   0.620  0.0340  0.2722  1.3629
  629SOL    HW2 1887   3.803   3.447   0.715 -1.5023  0.2747  0.3175
  630SOL     OW 1888   1.079   2.954   0.738 -0.7785  0.2102 -0.6414
  630SOL    HW1 1889   1.044   2.937   0.651  1.8413  0.6718 -1.8629
  630SOL    HW2 1890   1.157   3.007   0.724 -0.6288  0.8824  2.0583
  631SOL     OW 1891   2.634   1.600   2.984  0.2403 -0.4709  0.2232
  631SOL    HW1 1892   2.698   1.535   2.952 -0.5199 -0.6219 -1.0518
  631SOL    HW2 1893   2.553   1.578   2.938 -0.9847 -0.7749  2.3924
  632SOL     OW 1894   0.473   1.742   1.388  0.1084 -0.0090  0.1141
  632SOL    HW1 1895   0.531   1.792   1.445  0.5792 -1.0708  0.6006
  632SOL    HW2 1896   0.395   1.797   1.379  1.1687  1.4322 -0.5525
  633SOL     OW 1897   1.830   1.030   0.079 -0.0326 -0.1502  0.0995
  633SOL    HW1 1898   1.755   1.057   0.132 -1.9162 -0.2184 -2.3419
  633SOL    HW2 1899   1.862   0.951   0.122 -0.3905  0.6930  2.0258
  634SOL     OW 1900   3.878   3.914   3.388  0.2868  0.4894 -0.4083
  634SOL    HW1 1901   3.827   3.839   3.420  2.9044 -0.5578  1.7363
  634SOL    HW2 1902   3.848   3.988   3.441  0.2173  0.1186  0.0818
  635SOL     OW 1903   2.613   1.404   3.229  0.0375 -0.2709  0.0634
  635SOL    HW1 1904   2.561   1.465   3.176 -0.9994 -1.2781 -0.1080
  635SOL    HW2 1905   2.629   1.452   3.310 -0.6993  0.2749 -0.0930
  636SOL     OW 1906   1.995   1.011   3.239  0.3050  0.3485  0.0408
  636SOL    HW1 1907   1.987   0.946   3.170  0.7188  0.0043  0.3144
  636SOL    HW2 1908   2.066   1.069   3.211  0.7292 -0.0158  0.3548
  637SOL     OW 1909   1.151   2.675   2.638 -0.7041  0.2476  0.0752
  637SOL    HW1 1910   1.224   2.626   2.601 -1.1364 -0.1014 -0.3191
  637SOL    HW2 1911   1.127   2.626   2.717  1.0712  1.7055  1.6127
  638SOL     OW 1912   2.339   2.285   1.086 -0.9041  0.1338  0.1049
  638SOL    HW1 1913   2.350   2.207   1.031 -1.4617 -0.4509  0.8024
  638SOL    HW2 1914   2.257   2.325   1.054 -2.8686 -1.8114  2.3394
  639SOL     OW 1915   0.707   3.600   3.747  0.5012  0.5246  0.0625
  639SOL    HW1 1916   0.691   3.540   3.820  0.6251 -0.5189 -0.7457
  639SOL    HW2 1917   0.786   3.566   3.705  1.4292  2.1153  0.4455
  640SOL     OW 1918   1.090   0.626   0.658  0.1164 -0.0647  0.5814
  640SOL    HW1 1919   1.007   0.673   0.647  0.9692  1.0623 -1.5193
  640SOL    HW2 1920   1.134   0.672   0.730  0.2497  1.3669 -0.3903
  641SOL     OW 1921   3.629   2.677   1.092 -0.3625 -0.7347  0.0591
  641SOL    HW1 1922   3.645   2.676   0.997  0.5244 -3.4168  0.1702
  641SOL    HW2 1923   3.533   2.677   1.100 -0.4827  0.9911 -0.7539
  642SOL     OW 1924   1.409   0.687   1.521  0.1050  0.6014 -0.1948
  642SOL    HW1 1925   1.322   0.721   1.543 -0.6561 -0.7068 -1.0450
  642SOL    HW2 1926   1.406   0.673   1.427  0.7039 -0.9098 -0.0096
  643SOL     OW 1927   0.035   0.735   0.117  0.0505 -0.6895  0.0994
  643SOL    HW1 1928   0.010   0.719   0.026  0.1261 -0.4777  0.0418
  643SOL    HW2 1929   0.095   0.809   0.113 -0.6946 -0.0612  0.4206
  644SOL     OW 1930   2.827   1.026   0.743 -0.0209  0.1516 -0.5312
  644SOL    HW1 1931   2.756   1.090   0.746  0.3801  0.5748  1.8443
  644SOL    HW2 1932   2.889   1.061   0.680 -1.8015 -0.1568 -2.5510
  645SOL     OW 1933   3.342   3.239   2.848  0.2600 -0.4394 -0.1875
  645SOL    HW1 1934   3.316   3.203   2.932  1.1137  0.9799  0.7159
  645SOL    HW2 1935   3.363   3.330   2.866  0.0455  0.0106 -2.0260
  646SOL     OW 1936   1.178   0.985   1.068 -0.4931  0.2673 -0.2992
  646SOL    HW1 1937   1.176   0.954   1.158 -0.2376  0.7274 -0.1375
  646SOL    HW2 1938   1.217   1.072   1.072  0.0869  0.0498 -0.9208
  647SOL     OW 1939   1.139   0.661   0.400  0.3627  0.1647 -0.1425
  647SOL    HW1 1940   1.078   0.733   0.390 -1.0531 -1.1004 -1.1220
  647SOL    HW2 1941   1.140   0.643   0.494 -0.6828  0.3034 -0.0907
  648SOL     OW 1942   0.794   1.256   0.232  0.8250  0.0683 -0.2257
  648SOL    HW1 1943   0.792   1.254   0.137 -0.8952  1.9901 -0.3155
  648SOL    HW2 1944   0.733   1.326   0.255 -1.1411 -2.2762  2.3784
  649SOL     OW 1945   2.641   1.491   0.242  0.8493  0.6660  0.0888
  649SOL    HW1 1946   2.699   1.499   0.318  1.0928 -0.7760  0.0784
  649SOL    HW2 1947   2.589   1.413   0.260  1.0656  0.1774 -1.3250
  650SOL     OW 1948   1.665   0.969   0.477  0.0433 -0.7461  0.3566
  650SOL    HW1 1949   1.581   1.001   0.509  1.3276  2.3348  1.0203
  650SOL    HW2 1950   1.689   0.899   0.537 -1.5012 -0.8556  0.8716
  651SOL     OW 1951   3.039   1.391   2.633  0.8543  0.2954 -0.2790
  651SOL    HW1 1952   3.127   1.427   2.644  1.2392 -0.7494  0.1687
  651SOL    HW2 1953   2.993   1.416   2.713  1.1272 -0.2053  0.0397
  652SOL     OW 1954   1.042   3.041   2.354 -0.2459 -0.0864 -0.0901
  652SOL    HW1 1955   1.061   2.998   2.437  0.6615 -0.8830 -0.6857
  652SOL    HW2 1956   0.952   3.017   2.334  0.3593 -2.1184 -0.6074
  653SOL     OW 1957   1.271   3.955   0.749  1.0382  0.0777 -0.2768
  653SOL    HW1 1958   1.177   3.967   0.758  1.2143  1.9310 -0.3572
  653SOL    HW2 1959   1.283   3.861   0.738 -0.3803 -0.8362  4.2522
  654SOL     OW 1960   1.828   2.264   0.317  0.3271  0.2132  0.0101
  654SOL    HW1 1961   1.745   2.311   0.326  0.7046  0.8496  0.1964
  654SOL    HW2 1962   1.857   2.284   0.228  0.0739 -0.3644 -0.2097
  655SOL     OW 1963   0.139   0.989   0.133  0.5129  0.0402 -0.4635
  655SOL    HW1 1964   0.096   1.072   0.114 -0.5162 -0.6110 -1.0647
  655SOL    HW2 1965   0.227   1.014   0.162 -0.2466  1.4150  0.8177
  656SOL     OW 1966   1.401   3.631   3.493 -0.3592 -0.4203 -0.2157
  656SOL    HW1 1967   1.370   3.699   3.554 -0.5927 -1.4914  0.8872
  656SOL    HW2 1968   1.487   3.607   3.527 -0.6114 -1.2272 -0.1459
  657SOL     OW 1969   2.066   3.841   3.246 -0.6881 -0.1560 -0.1231
  657SOL    HW1 1970   2.070   3.779   3.173 -1.6375 -0.2881 -0.0725
  657SOL    HW2 1971   2.118   3.800   3.315  0.3537  0.0386 -0.7588
  658SOL     OW 1972   2.776   0.534   3.419 -0.0630 -0.8714 -0.0358
  658SOL    HW1 1973   2.807   0.623   3.400  0.2549 -1.3211 -1.8607
  658SOL    HW2 1974   2.745   0.502   3.334  0.9507 -2.9311  0.3239
  659SOL     OW 1975   1.179   0.583   1.881 -0.6673  1.0035 -0.3021
  659SOL    HW1 1976   1.179   0.520   1.953  0.2226  1.0635 -0.2404
  659SOL    HW2 1977   1.160   0.529   1.803 -0.0296  0.6698 -0.2334
  660SOL     OW 1978   3.219   2.571   0.127  0.2974 -0.3567 -0.1206
  660SOL    HW1 1979   3.151   2.631   0.156  0.9115  0.3996 -0.2021
  660SOL    HW2 1980   3.172   2.500   0.083 -0.4547 -0.0651  0.2045
  661SOL     OW 1981   2.464   2.635   3.313  0.4328  0.0489  0.3945
  661SOL    HW1 1982   2.493   2.709   3.366  0.5320  0.0586  0.3279
  661SOL    HW2 1983   2.410   2.583   3.372 -1.4282  1.2901 -0.1367
  662SOL     OW 1984   2.532   2.615   2.815 -0.2849  0.6113 -0.3637
  662SOL    HW1 1985   2.577   2.608   2.899  0.6294  1.1023 -0.7910
  662SOL    HW2 1986   2.599   2.596   2.750 -1.2944 -1.1009 -0.9647
  663SOL     OW 1987   1.548   3.493   3.076 -0.4602 -0.4124  0.2765
  663SOL    HW1 1988   1.637   3.491   3.044  0.1668  1.7556  1.6338
  663SOL    HW2 1989   1.493   3.485   2.998  0.9443  0.6208 -0.8540
  664SOL     OW 1990   2.362   0.082   1.913  0.2135 -0.6810 -0.0729
  664SOL    HW1 1991   2.446   0.039   1.929  0.1325 -0.6990  0.3016
  664SOL    HW2 1992   2.301   0.041   1.975 -0.3644 -1.5412 -1.1610
  665SOL     OW 1993   3.997   3.520   1.024 -0.4998 -0.3324 -0.5445
  665SOL    HW1 1994   3.999   3.496   1.117  4.5830  2.3801  0.4152
  665SOL    HW2 1995   3.938   3.595   1.020 -0.4842 -0.2455  0.6137
  666SOL     OW 1996   3.673   2.689   2.019  0.7627 -1.0191 -0.7679
  666SOL    HW1 1997   3.594   2.742   2.029  0.4630 -1.2334 -1.8698
  666SOL    HW2 1998   3.655   2.632   1.944  0.3009 -4.0961  1.5117
  667SOL     OW 1999   1.832   1.411   1.179 -0.1446 -0.5924 -0.1124
  667SOL    HW1 2000   1.737   1.417   1.175 -0.0834  0.0671 -1.2637
  667SOL    HW2 2001   1.850   1.317   1.179 -0.8015 -0.7216  0.4430
  668SOL     OW 2002   1.350   0.211   0.393  0.1291 -0.6571  0.1386
  668SOL    HW1 2003   1.352   0.158   0.313 -1.4274 -0.8727  0.2116
  668SOL    HW2 2004   1.261   0.200   0.426  0.8788 -0.9613  2.1678
  669SOL     OW 2005   3.419   0.202   1.806 -0.1643  0.0061 -0.0070
  669SOL    HW1 2006   3.335   0.155   1.812 -0.3562  0.5017  2.1065
  669SOL    HW2 2007   3.395   0.290   1.777 -0.3673  0.1001  0.4359
  670SOL     OW 2008   0.167   2.533   3.937 -0.2032 -0.2676  0.6359
  670SOL    HW1 2009   0.214   2.611   3.907  0.2457 -0.1711  1.5457
  670SOL    HW2 2010   0.101   2.567   3.997 -0.9760 -0.4736 -0.0753
  671SOL     OW 2011   3.188   3.444   1.403 -0.0523  0.1914  0.6344
  671SOL    HW1 2012   3.161   3.390   1.329 -0.1457 -0.7518  1.3468
  671SOL    HW2 2013   3.117   3.436   1.467  0.2274  0.6430  1.0151
  672SOL     OW 2014   2.164   1.083   2.695  1.0408 -0.3968  0.4214
  672SOL    HW1 2015   2.236   1.137   2.725  1.9860 -0.3034 -1.7814
  672SOL    HW2 2016   2.089   1.142   2.690  1.3366  0.0055  0.7896
  673SOL     OW 2017   0.880   2.878   2.930 -0.4031  0.1730  0.1848
  673SOL    HW1 2018   0.825   2.934   2.876 -1.3488 -0.3830  0.5552
  673SOL    HW2 2019   0.889   2.797   2.880  0.5536  0.4542 -0.1260
  674SOL     OW 2020   1.929   3.278   0.301  0.4841  0.5396  0.3367
  674SOL    HW1 2021   1.860   3.216   0.279  1.2893 -0.3207  0.1628
  674SOL    HW2 2022   1.995   3.225   0.347  1.3870  1.1574 -0.2118
  675SOL     OW 2023   1.806   3.028   2.637  0.1303  0.2011  0.1593
  675SOL    HW1 2024   1.868   3.036   2.710 -0.5221 -0.8665  0.8594
  675SOL    HW2 2025   1.720   3.041   2.677 -0.2166 -0.0803 -0.4816
  676SOL     OW 2026   1.590   0.234   3.895  0.5456  0.4302 -0.1766
  676SOL    HW1 2027   1.614   0.297   3.828 -0.1615  2.7342  1.5735
  676SOL    HW2 2028   1.661   0.238   3.959 -0.6051  1.2830  1.1025
  677SOL     OW 2029   3.035   0.609   1.138 -0.4139 -0.3921  0.0482
  677SOL    HW1 2030   2.974   0.602   1.064  0.0199  0.5494 -0.4122
  677SOL    HW2 2031   3.100   0.541   1.122 -0.9132 -0.9020  0.1416
  678SOL     OW 2032   2.124   3.364   3.426  0.1467 -0.3262  0.9323
  678SOL    HW1 2033   2.092   3.347   3.515  0.3757 -0.9029  0.9079
  678SOL    HW2 2034   2.217   3.384   3.437  0.5938 -2.0771  0.6758
  679SOL     OW 2035   2.702   2.078   0.215  0.2906 -0.4671  0.2102
  679SOL    HW1 2036   2.730   2.142   0.280  0.3236 -0.0010 -0.2549
  679SOL    HW2 2037   2.772   2.077   0.151 -0.6523  0.6354 -0.9145
  680SOL     OW 2038   3.888   2.971   0.116 -0.2878  0.4254  0.1397
  680SOL    HW1 2039   3.841   2.976   0.033 -0.8178 -0.1185  0.4011
  680SOL    HW2 2040   3.877   3.058   0.154 -0.4890  0.5162 -0.1204
  681SOL     OW 2041   2.488   2.290   0.647  0.0156  0.1322 -0.3143
  681SOL    HW1 2042   2.486   2.377   0.688  0.3899 -0.2117  0.4500
  681SOL    HW2 2043   2.471   2.307   0.554 -0.3372  0.9788 -0.1035
  682SOL     OW 2044   2.482   2.683   3.600 -0.0682 -1.1313 -0.4792
  682SOL    HW1 2045   2.565   2.655   3.639 -0.4330  0.2011  1.3647
  682SOL    HW2 2046   2.419   2.616   3.626 -0.2948 -0.2877  1.2754
  683SOL     OW 2047   1.293   3.168   3.439 -0.0182 -0.5193  0.1659
  683SOL    HW1 2048   1.284   3.095   3.378 -0.9697  0.1990 -0.5844
  683SOL    HW2 2049   1.353   3.228   3.397 -1.2489  0.3270 -0.4515
  684SOL     OW 2050   0.871   2.004   3.591 -0.1300 -1.4535  0.8000
  684SOL    HW1 2051   0.809   1.953   3.539  0.3060 -1.1064 -0.0866
  684SOL    HW2 2052   0.929   2.044   3.526 -0.6747  0.4549  1.4280
  685SOL     OW 2053   0.650   2.394   3.372  0.1626 -0.3736  0.2951
  685SOL    HW1 2054   0.733   2.406   3.326 -0.3293  1.3236 -0.2013
  685SOL    HW2 2055   0.675   2.356   3.456  1.6334  1.6753  0.8464
  686SOL     OW 2056   0.431   3.223   0.916 -0.1662 -0.5250 -0.2251
  686SOL    HW1 2057   0.353   3.232   0.971  0.7772  0.9732  0.9566
  686SOL    HW2 2058   0.502   3.256   0.971  0.9825  0.0955 -2.0085
  687SOL     OW 2059   0.131   1.329   1.729 -0.3968 -0.9562  0.1140
  687SOL    HW1 2060   0.181   1.359   1.652 -0.1265 -1.0466  0.2518
  687SOL    HW2 2061   0.159   1.238   1.740 -2.3498 -1.7797 -1.2323
  688SOL     OW 2062   0.611   0.130   0.934  0.4119 -0.7534 -0.2787
  688SOL    HW1 2063   0.623   0.045   0.977  0.8101 -1.3408 -1.4886
  688SOL    HW2 2064   0.673   0.127   0.861 -0.8834 -0.1641 -1.4223
  689SOL     OW 2065   1.704   0.395   2.228  0.2733  0.2405 -0.5504
  689SOL    HW1 2066   1.733   0.360   2.144  1.4534  0.1373 -0.1177
  689SOL    HW2 2067   1.691   0.488   2.213  0.7959  0.2761 -0.7668
  690SOL     OW 2068   3.769   2.316   1.867  0.0973 -0.5165  0.3777
  690SOL    HW1 2069   3.819   2.272   1.798 -0.3461 -1.2639  0.5223
  690SOL    HW2 2070   3.783   2.410   1.852  0.0195 -0.6769 -0.7099
  691SOL     OW 2071   2.452   1.758   1.023  0.0168  0.1518  0.5344
  691SOL    HW1 2072   2.366   1.782   0.989  0.3022  0.7851  0.2432
  691SOL    HW2 2073   2.439   1.672   1.062 -0.7027  0.1529  0.3130
  692SOL     OW 2074   2.362   0.814   0.443 -0.0751 -0.1632  0.3792
  692SOL    HW1 2075   2.421   0.759   0.495 -0.6959 -0.6797  0.5488
  692SOL    HW2 2076   2.420   0.860   0.382  0.4169 -1.5155 -0.2231
  693SOL     OW 2077   1.069   1.713   2.748  0.3295 -0.0542  0.0989
  693SOL    HW1 2078   1.116   1.653   2.805  1.8361  1.8668  0.9972
  693SOL    HW2 2079   1.123   1.719   2.669 -0.3447 -0.6148 -0.4247
  694SOL     OW 2080   0.838   1.768   2.622  0.2860  0.4422  0.1843
  694SOL    HW1 2081   0.819   1.762   2.529 -2.8075 -2.0567  0.7979
  694SOL    HW2 2082   0.924   1.728   2.632 -0.1008 -0.9204 -1.4540
  695SOL     OW 2083   2.877   2.466   0.377 -0.3091  0.2035 -0.6430
  695SOL    HW1 2084   2.841   2.406   0.312 -0.7889 -0.7189  0.4252
  695SOL    HW2 2085   2.799   2.505   0.419 -0.0802 -0.7106  0.6993
  696SOL     OW 2086   0.795   0.465   2.988  0.3145  0.6941 -0.5343
  696SOL    HW1 2087   0.757   0.541   3.033  0.7855  0.8565 -0.3978
  696SOL    HW2 2088   0.882   0.455   3.028 -0.0148 -0.3524 -0.0591
  697SOL     OW 2089   0.658   3.765   0.626  0.1251  0.4263 -0.8152
  697SOL    HW1 2090   0.708   3.694   0.585 -1.7317 -0.3429 -1.8947
  697SOL    HW2 2091   0.627   3.728   0.709 -0.5582  0.0754 -1.2200
  698SOL     OW 2092   1.629   0.656   1.990 -0.3812 -0.3917 -0.3174
  698SOL    HW1 2093   1.682   0.701   1.924  0.8067  0.1553  0.9645
  698SOL    HW2 2094   1.630   0.564   1.963  1.1701 -0.3735 -0.3587
  699SOL     OW 2095   1.651   4.002   1.807  0.3056 -0.5753  0.2412
  699SOL    HW1 2096   1.629   3.912   1.830  0.7114 -0.2897  1.8856
  699SOL    HW2 2097   1.609   4.055   1.875  3.3723  0.1798  1.7238
  700SOL     OW 2098   2.237   3.959   1.084  0.5054 -0.1435 -0.7708
  700SOL    HW1 2099   2.262   3.950   1.176  1.1696 -2.3113 -1.0920
  700SOL    HW2 2100   2.296   4.026   1.050 -0.3551  1.3369  0.5530
  701SOL     OW 2101   1.848   2.658   0.071 -0.4494  0.6891 -0.7742
  701SOL    HW1 2102   1.893   2.688   0.149  0.4478 -1.1065 -0.5499
  701SOL    HW2 2103   1.759   2.640   0.100  0.1107 -0.8388  0.0933
  702SOL     OW 2104   2.055   1.210   1.010  0.0514  0.2224  0.2108
  702SOL    HW1 2105   1.982   1.171   1.057 -1.2643  1.1000 -1.0122
  702SOL    HW2 2106   2.032   1.202   0.917  1.3199  0.8591 -0.1969
  703SOL     OW 2107   1.456   3.130   1.217 -0.6556 -0.1706 -0.4351
  703SOL    HW1 2108   1.400   3.057   1.190 -0.0308 -0.7607 -0.1404
  703SOL    HW2 2109   1.420   3.158   1.301 -1.6993  0.7204 -1.1497
  704SOL     OW 2110   2.340   0.462   0.826  0.2675  0.6152  0.1591
  704SOL    HW1 2111   2.278   0.528   0.856 -0.2095  0.3168 -0.1406
  704SOL    HW2 2112   2.298   0.378   0.848  1.0310  0.4098  0.8727
  705SOL     OW 2113   3.093   2.657   2.716 -0.1729 -0.0983  0.7184
  705SOL    HW1 2114   3.122   2.738   2.674  1.5889 -1.5159 -1.0243
  705SOL    HW2 2115   3.174   2.609   2.733 -1.1924 -1.7051  1.2398
  706SOL     OW 2116   1.151   1.866   3.636  0.2098 -0.3786 -0.2716
  706SOL    HW1 2117   1.063   1.877   3.672  0.2389  0.6282 -0.4741
  706SOL    HW2 2118   1.138   1.835   3.547  0.0530 -0.1676 -0.3224
  707SOL     OW 2119   2.253   3.395   0.439 -0.1045  0.7098 -1.0786
  707SOL    HW1 2120   2.313   3.372   0.368  0.1686  1.6982 -1.1836
  707SOL    HW2 2121   2.181   3.333   0.430  1.1990 -0.9632 -0.5144
  708SOL     OW 2122   2.689   1.028   3.945  0.5238  0.4023 -0.1149
  708SOL    HW1 2123   2.772   1.071   3.922  0.7543 -0.2744 -0.5711
  708SOL    HW2 2124   2.630   1.051   3.873  0.9766 -0.9536 -0.9514
  709SOL     OW 2125   1.940   3.121   3.833  0.4962  0.5859  0.5881
  709SOL    HW1 2126   1.957   3.138   3.740  1.9353  1.3447  0.9644
  709SOL    HW2 2127   1.895   3.037   3.834  2.5130 -0.5987 -0.6726
  710SOL     OW 2128   0.049   3.454   3.677  0.5196  0.2839  0.0307
  710SOL    HW1 2129   0.108   3.382   3.653 -0.8761 -0.7538 -0.3648
  710SOL    HW2 2130   0.107   3.517   3.721  1.7289 -1.2224  0.7292
  711SOL     OW 2131   1.292   2.928   1.114 -0.1254  0.0462  0.2441
  711SOL    HW1 2132   1.238   2.874   1.056  0.0564 -0.4039  0.4917
  711SOL    HW2 2133   1.321   2.868   1.183 -1.2392  0.8027  1.4188
  712SOL     OW 2134   3.188   1.375   3.240  0.3072  0.3659 -0.2560
  712SOL    HW1 2135   3.104   1.331   3.252 -0.7060  2.1376 -0.4694
  712SOL    HW2 2136   3.197   1.384   3.145  0.4473  0.7173 -0.2111
  713SOL     OW 2137   0.632   3.646   1.169  0.0838 -0.5752  0.0592
  713SOL    HW1 2138   0.600   3.622   1.256 -0.8578 -2.3512 -0.7178
  713SOL    HW2 2139   0.710   3.592   1.157  0.1255 -0.4458 -0.2459
  714SOL     OW 2140   1.274   1.039  -0.017  0.0815 -0.2023  0.6177
  714SOL    HW1 2141   1.210   1.109  -0.004  0.9621  0.7278 -0.0029
  714SOL    HW2 2142   1.315   1.028   0.069 -0.5077 -0.4154  0.8767
  715SOL     OW 2143   0.400   1.056   2.545  0.1510 -0.8338 -0.1060
  715SOL    HW1 2144   0.365   1.066   2.634 -0.1596 -0.7108 -0.2416
  715SOL    HW2 2145   0.413   1.146   2.514 -1.1177 -0.8520 -0.7263
  716SOL     OW 2146   1.003   0.045   1.735 -0.5904 -0.8360  0.0424
  716SOL    HW1 2147   1.094   0.040   1.763 -1.1939  0.4096  2.5410
  716SOL    HW2 2148   1.001   0.114   1.670  0.2600 -0.8984 -0.0549
  717SOL     OW 2149   3.231   3.300   3.585  0.4119  0.1725  0.4483
  717SOL    HW1 2150   3.196   3.291   3.496 -0.2002  2.8026  0.3324
  717SOL    HW2 2151   3.326   3.303   3.573  0.3337  0.5016 -0.1248
  718SOL     OW 2152   3.218   1.153   2.080 -0.0861  0.0924 -0.0972
  718SOL    HW1 2153   3.299   1.159   2.030  0.5828 -3.5111  0.2646
  718SOL    HW2 2154   3.160   1.101   2.024 -0.1105 -2.0905  1.7866
  719SOL     OW 2155   1.246   1.206   3.145 -0.0813  0.1206 -0.3897
  719SOL    HW1 2156   1.290   1.137   3.195 -1.9171 -0.9098 -0.0826
  719SOL    HW2 2157   1.167   1.224   3.195 -0.0628  1.8577 -0.9365
  720SOL     OW 2158   3.008   2.764   0.165  0.8137  0.7605  0.2915
  720SOL    HW1 2159   2.955   2.813   0.228 -0.2350  1.6846 -1.2492
  720SOL    HW2 2160   2.975   2.791   0.080 -1.0334 -3.9057 -0.7700
  721SOL     OW 2161   0.202   2.146   1.517  0.1241  0.0558 -0.0698
  721SOL    HW1 2162   0.232   2.059   1.492  0.1192  0.0916 -0.1994
  721SOL    HW2 2163   0.230   2.203   1.445  2.1200  0.5598  1.0097
  722SOL     OW 2164   3.959   3.651   2.393  0.0625  0.3002 -0.3621
  722SOL    HW1 2165   3.874   3.694   2.395  0.0952  0.5530 -2.2909
  722SOL    HW2 2166   3.951   3.584   2.325  0.3945 -2.0032  1.7205
  723SOL     OW 2167   2.131   2.056   0.497 -0.4369 -0.2350 -0.6150
  723SOL    HW1 2168   2.114   2.148   0.519  0.9975 -0.1338  0.2007
  723SOL    HW2 2169   2.047   2.013   0.509 -2.2634  1.5556 -4.7887
  724SOL     OW 2170   3.686   3.246   3.254  0.3761 -0.4185 -0.1115
  724SOL    HW1 2171   3.655   3.275   3.168  0.8609 -2.4531 -1.0418
  724SOL    HW2 2172   3.745   3.315   3.283  0.7588  0.0024 -1.7653
  725SOL     OW 2173   1.348   2.508   2.562 -0.6205 -0.4402 -0.5783
  725SOL    HW1 2174   1.356   2.416   2.586  1.7249 -0.4072 -0.9476
  725SOL    HW2 2175   1.438   2.535   2.544 -1.2981  1.8490 -0.7816
  726SOL     OW 2176   0.088   2.973   1.596  0.0487 -0.2521 -0.1507
  726SOL    HW1 2177   0.122   2.886   1.618  0.5940  0.0069  0.0579
  726SOL    HW2 2178   0.083   2.973   1.500 -2.5722 -1.4743 -0.1111
  727SOL     OW 2179   1.278   2.713   0.637  0.5290 -0.1719 -0.1662
  727SOL    HW1 2180   1.253   2.796   0.596  0.3120 -0.5615 -0.8376
  727SOL    HW2 2181   1.373   2.709   0.628  0.5415  0.0091 -0.1154
  728SOL     OW 2182   2.961   3.877   0.692  0.0910 -0.2503  0.6870
  728SOL    HW1 2183   3.019   3.801   0.686  0.2182 -0.0965 -0.2666
  728SOL    HW2 2184   2.953   3.907   0.602 -0.2619  0.6429  1.0108
  729SOL     OW 2185   0.180   2.713   1.586 -0.0315  0.3815  0.1435
  729SOL    HW1 2186   0.147   2.664   1.510  1.5035  1.6804 -1.4580
  729SOL    HW2 2187   0.167   2.654   1.660 -0.0604 -1.6547 -1.3874
  730SOL     OW 2188   2.262   3.139   3.070  0.0515 -0.3122  0.0883
  730SOL    HW1 2189   2.167   3.142   3.074  0.0498 -0.8135  0.4577
  730SOL    HW2 2190   2.281   3.064   3.013  0.2322 -0.8765  0.8764
  731SOL     OW 2191   0.383   2.133   2.848  0.0683  0.0190  0.2222
  731SOL    HW1 2192   0.437   2.196   2.801  0.4684 -0.0722  0.5531
  731SOL    HW2 2193   0.307   2.183   2.877 -0.4386 -0.0361 -0.9442
  732SOL     OW 2194   1.841   1.552   2.888  0.0740 -0.2549 -0.0359
  732SOL    HW1 2195   1.795   1.562   2.971  1.0350  0.6985  0.4027
  732SOL    HW2 2196   1.884   1.636   2.875 -1.1816  0.1257 -2.2072
  733SOL     OW 2197   3.322   1.253   0.747  0.7637 -0.4863 -0.6361
  733SOL    HW1 2198   3.417   1.256   0.760  0.5753 -2.2706  1.9348
  733SOL    HW2 2199   3.286   1.249   0.836 -1.7089 -0.4566 -1.5617
  734SOL     OW 2200   0.355   3.238   3.014  0.7975  0.1892  0.3464
  734SOL    HW1 2201   0.437   3.271   2.977  0.4224  0.3685 -0.3404
  734SOL    HW2 2202   0.361   3.143   3.004  0.1350  0.2954 -1.4448
  735SOL     OW 2203   2.514   0.622   2.840 -0.4793  0.1689 -0.0111
  735SOL    HW1 2204   2.457   0.566   2.787  0.1747  1.0525 -1.7321
  735SOL    HW2 2205   2.537   0.694   2.781  1.5519  0.3928  0.9819
  736SOL     OW 2206   3.108   1.397   0.239 -0.1665  0.1031  0.7808
  736SOL    HW1 2207   3.095   1.309   0.204 -1.0784 -0.0573  1.4950
  736SOL    HW2 2208   3.188   1.391   0.291  1.1930  0.3330 -1.1826
  737SOL     OW 2209   2.294   0.457   0.093  0.3488 -0.0196 -0.3003
  737SOL    HW1 2210   2.355   0.388   0.065  1.2772  0.6250  0.0848
  737SOL    HW2 2211   2.338   0.539   0.069 -1.0959  0.4544 -1.4768
  738SOL     OW 2212   1.403   0.205   2.305  0.1079  0.4205 -0.1179
  738SOL    HW1 2213   1.314   0.233   2.282 -0.4412 -0.4839  0.7898
  738SOL    HW2 2214   1.404   0.206   2.401  1.8794  2.7554 -0.0903
  739SOL     OW 2215   0.533   3.827   2.415 -0.6950 -0.3494  0.5250
  739SOL    HW1 2216   0.532   3.826   2.320 -0.8835  0.9990  0.4868
  739SOL    HW2 2217   0.444   3.803   2.441 -0.4503 -1.4458  0.3967
  740SOL     OW 2218   0.661   3.321   1.714  0.1490 -0.4614 -0.3560
  740SOL    HW1 2219   0.745   3.328   1.760 -0.4663 -1.6206  1.0291
  740SOL    HW2 2220   0.664   3.235   1.673 -1.4675 -1.8313  2.1619
  741SOL     OW 2221   0.536   0.544   1.469 -0.1250 -0.1086  0.5342
  741SOL    HW1 2222   0.522   0.526   1.376  2.2597  0.5789 -0.0467
  741SOL    HW2 2223   0.559   0.459   1.507 -0.5968 -0.3031  0.3847
  742SOL     OW 2224   2.240   1.491   0.759 -0.0281 -0.0708 -0.5231
  742SOL    HW1 2225   2.178   1.418   0.759  0.5066 -0.5252 -0.8337
  742SOL    HW2 2226   2.288   1.482   0.677  0.2981  0.4165 -0.3889
  743SOL     OW 2227   0.651   2.517   0.992  0.0686 -0.1471  0.2371
  743SOL    HW1 2228   0.634   2.587   0.930  1.7884  0.7171  0.7027
  743SOL    HW2 2229   0.566   2.502   1.035  0.0041  2.9761  1.4501
  744SOL     OW 2230   0.391   3.329   2.209 -0.0323  0.3998 -0.9941
  744SOL    HW1 2231   0.455   3.316   2.279  0.8813  2.1262 -1.4374
  744SOL    HW2 2232   0.308   3.346   2.255  0.6164  1.8462 -0.2767
  745SOL     OW 2233   1.264   0.461   2.112  0.7695 -1.1461  0.5607
  745SOL    HW1 2234   1.319   0.485   2.186  1.5948 -2.3745  0.3834
  745SOL    HW2 2235   1.205   0.394   2.146  1.8398 -2.4798 -0.0840
  746SOL     OW 2236   1.708   2.154   2.613  0.1103  0.1343  0.2938
  746SOL    HW1 2237   1.693   2.066   2.577  0.5908 -0.1013  0.6579
  746SOL    HW2 2238   1.685   2.213   2.542  0.8867 -0.3179 -0.3407
  747SOL     OW 2239   1.516   0.283   0.892  0.7972  0.1823 -0.0743
  747SOL    HW1 2240   1.463   0.219   0.843 -0.1383  0.8937 -0.0293
  747SOL    HW2 2241   1.478   0.283   0.980 -0.2987  1.9605 -0.5075
  748SOL     OW 2242   0.220   2.000   0.810 -0.0882 -0.4026 -0.0086
  748SOL    HW1 2243   0.311   2.030   0.813  0.1297 -0.9345 -0.9154
  748SOL    HW2 2244   0.174   2.056   0.873  0.6633  0.5647 -0.2990
  749SOL     OW 2245   2.199   2.160   1.476  0.1086 -0.4326  0.9293
  749SOL    HW1 2246   2.200   2.065   1.473 -1.0160 -0.5589 -3.9408
  749SOL    HW2 2247   2.291   2.185   1.465  0.0594 -1.2286 -2.3329
  750SOL     OW 2248   1.709   1.368   2.692 -0.1495  0.4343 -0.3257
  750SOL    HW1 2249   1.740   1.448   2.734  2.7490 -1.1181  0.8145
  750SOL    HW2 2250   1.681   1.312   2.765  1.9239 -1.1018 -0.5962
  751SOL     OW 2251   2.330   0.824   3.750  0.0080 -0.8232  0.1722
  751SOL    HW1 2252   2.253   0.878   3.766 -0.7675 -1.4463 -1.2318
  751SOL    HW2 2253   2.300   0.734   3.767  0.4776 -1.0505 -0.1768
  752SOL     OW 2254   2.539   1.117   0.788 -0.3960  0.3185  0.3344
  752SOL    HW1 2255   2.478   1.045   0.801 -1.0502  0.5698 -1.1659
  752SOL    HW2 2256   2.526   1.174   0.864 -1.1271 -0.2545  0.6441
  753SOL     OW 2257   1.761   1.386   1.731 -0.5089  0.0363 -0.3909
  753SOL    HW1 2258   1.834   1.376   1.791 -1.1544 -1.2782  0.2177
  753SOL    HW2 2259   1.701   1.446   1.775 -1.2867 -1.4375  0.6138
  754SOL     OW 2260   3.907   0.173   0.367  0.7049 -0.3336 -0.1849
  754SOL    HW1 2261   3.833   0.176   0.306  0.2829 -1.0694  0.2733
  754SOL    HW2 2262   3.978   0.134   0.317  0.4735 -0.5813 -0.3217
  755SOL     OW 2263   1.558   2.689   0.122  0.0355  0.4016 -0.0156
  755SOL    HW1 2264   1.619   2.757   0.095 -1.7970  1.3277 -2.1715
  755SOL    HW2 2265   1.513   2.664   0.041 -1.2701 -1.4103  1.1960
  756SOL     OW 2266   2.416   0.769   1.803 -0.6970  0.2289 -0.3522
  756SOL    HW1 2267   2.345   0.758   1.866 -0.6576  0.1714 -0.3180
  756SOL    HW2 2268   2.404   0.858   1.769 -0.5106  0.3867 -0.0096
  757SOL     OW 2269   3.223   4.009   0.988 -0.2522 -0.0415 -0.4213
  757SOL    HW1 2270   3.226   3.916   0.965  1.7349 -0.0795 -0.1745
  757SOL    HW2 2271   3.218   4.010   1.084  2.1642  0.0403 -0.2386
  758SOL     OW 2272   3.368   0.463   2.498 -0.3241 -0.3479 -0.2371
  758SOL    HW1 2273   3.441   0.401   2.497  1.2420  1.1459  3.5364
  758SOL    HW2 2274   3.298   0.416   2.545  0.8845  0.5130  2.6779
  759SOL     OW 2275   2.608   3.267   1.941 -0.2335 -0.2588 -0.4286
  759SOL    HW1 2276   2.573   3.244   2.026  1.5588  0.0329  0.4479
  759SOL    HW2 2277   2.580   3.197   1.883  0.3565 -1.6548  0.9070
  760SOL     OW 2278   0.434   2.299   1.589 -0.0825 -0.2623  0.3340
  760SOL    HW1 2279   0.348   2.336   1.605  0.8271  1.6811  0.9597
  760SOL    HW2 2280   0.495   2.358   1.633  1.5296 -2.0654  0.6686
  761SOL     OW 2281   1.566   0.594   0.827 -0.1905  0.0872  0.0648
  761SOL    HW1 2282   1.477   0.564   0.809 -0.2861  1.3923 -1.9411
  761SOL    HW2 2283   1.609   0.519   0.868 -2.1683 -0.5921  1.0118
  762SOL     OW 2284   2.839   2.330   1.787  0.1626  0.2311 -0.3669
  762SOL    HW1 2285   2.876   2.251   1.827  0.0734 -0.2689 -1.2324
  762SOL    HW2 2286   2.780   2.296   1.720 -0.1985  1.0414 -0.4611
  763SOL     OW 2287   0.628   1.338   1.442 -0.4761 -1.3278  0.0248
  763SOL    HW1 2288   0.723   1.337   1.433 -0.3191  1.9907 -0.0810
  763SOL    HW2 2289   0.597   1.372   1.358 -1.5395 -0.3417  0.7809
  764SOL     OW 2290   0.349   3.254   1.438 -0.5014  0.1769  0.2399
  764SOL    HW1 2291   0.370   3.163   1.415  3.7873  1.2263 -1.0099
  764SOL    HW2 2292   0.261   3.267   1.404  0.3737 -2.3435 -3.7204
  765SOL     OW 2293   0.248   0.511   0.255 -0.4574  0.6334 -0.2518
  765SOL    HW1 2294   0.171   0.568   0.255 -1.2551 -0.4087  0.5501
  765SOL    HW2 2295   0.319   0.567   0.288 -1.6768  0.6581  2.6457
  766SOL     OW 2296   1.686   2.314   0.876 -0.8549  0.3063 -0.1265
  766SOL    HW1 2297   1.608   2.367   0.860 -0.7969  0.2789 -0.5062
  766SOL    HW2 2298   1.729   2.308   0.791 -2.5916 -3.1762 -0.9534
  767SOL     OW 2299   0.019   0.221   3.805 -0.3138  0.4550 -0.0864
  767SOL    HW1 2300   0.015   0.306   3.761  2.2291  0.9356  0.4702
  767SOL    HW2 2301   0.020   0.243   3.898  1.2184 -0.0846  0.0488
  768SOL     OW 2302   3.040   1.409   1.617  0.5679  0.5148  0.4313
  768SOL    HW1 2303   3.092   1.419   1.696  1.1585 -0.8702  0.2305
  768SOL    HW2 2304   2.975   1.343   1.639  0.4002  0.5063 -0.0850
  769SOL     OW 2305   0.373   0.748   2.537 -0.0475 -0.3660 -0.1655
  769SOL    HW1 2306   0.371   0.675   2.599  2.7459  0.2229  0.7902
  769SOL    HW2 2307   0.404   0.822   2.589  1.3796  0.4031 -2.0130
  770SOL     OW 2308   3.565   3.881   2.319 -0.2977  0.2532 -0.7057
  770SOL    HW1 2309   3.610   3.965   2.313 -0.0710  0.3729  1.8232
  770SOL    HW2 2310   3.476   3.904   2.346 -0.7142 -0.2548 -1.5999
  771SOL     OW 2311   0.193   1.786   3.584 -0.1875 -0.3005 -0.3979
  771SOL    HW1 2312   0.184   1.881   3.587  1.2737 -0.0636 -1.9070
  771SOL    HW2 2313   0.285   1.771   3.564 -0.1887 -2.0820  0.7234
  772SOL     OW 2314   2.896   1.795   3.850 -0.1764 -0.1317  0.4908
  772SOL    HW1 2315   2.977   1.815   3.897 -1.6442  2.4763  2.1115
  772SOL    HW2 2316   2.844   1.744   3.912 -0.7491  0.3317  0.4013
  773SOL     OW 2317   1.695   0.565   1.590  0.0679  0.5755  0.2741
  773SOL    HW1 2318   1.683   0.470   1.587  0.0800  0.5932 -0.3465
  773SOL    HW2 2319   1.615   0.600   1.551 -0.0633  0.8334  0.7642
  774SOL     OW 2320   1.680   2.523   0.522  0.2373 -0.0010  0.3179
  774SOL    HW1 2321   1.592   2.485   0.514  0.2376  0.1729 -0.6840
  774SOL    HW2 2322   1.732   2.455   0.564 -0.4882  0.0772  1.3564
  775SOL     OW 2323   2.660   1.172   0.523 -0.0011 -0.0585 -0.6040
  775SOL    HW1 2324   2.733   1.234   0.519  1.6410 -1.8604 -0.4574
  775SOL    HW2 2325   2.607   1.201   0.597  0.4350  1.4024 -0.8247
  776SOL     OW 2326   0.870   3.321   1.398  0.1665  0.5962 -0.3219
  776SOL    HW1 2327   0.826   3.236   1.407  1.1987  0.1095  0.3584
  776SOL    HW2 2328   0.916   3.316   1.314  0.8488  0.1672  0.0665
  777SOL     OW 2329   1.949   0.680   2.535 -0.0154  0.0625  0.9202
  777SOL    HW1 2330   1.917   0.729   2.611 -1.0681  1.3678 -0.3074
  777SOL    HW2 2331   1.978   0.747   2.474 -1.6996 -0.8012 -0.9226
  778SOL     OW 2332   3.756   0.654   2.659  0.3404  0.2215 -0.7484
  778SOL    HW1 2333   3.833   0.616   2.617 -0.0735  0.4206 -1.7240
  778SOL    HW2 2334   3.785   0.679   2.746  1.2768 -0.0445 -0.9772
  779SOL     OW 2335   3.905   2.737   3.324  0.8280 -0.2253  0.4421
  779SOL    HW1 2336   3.865   2.725   3.238 -0.2066 -1.1064  1.0205
  779SOL    HW2 2337   3.968   2.808   3.312 -0.3622  0.6672 -0.6806
  780SOL     OW 2338   1.850   3.193   2.386  0.2810 -0.1908 -1.0068
  780SOL    HW1 2339   1.770   3.140   2.394 -0.3406  0.9068  0.7194
  780SOL    HW2 2340   1.918   3.139   2.427  0.5234 -1.2378 -2.7044
  781SOL     OW 2341   1.411   2.137   2.327  0.1412 -0.6989 -0.2947
  781SOL    HW1 2342   1.406   2.200   2.399 -0.1838  1.3355 -1.9759
  781SOL    HW2 2343   1.456   2.185   2.257 -0.5395 -2.1820 -1.8084
  782SOL     OW 2344   1.198   0.941   3.602 -0.2640 -0.4696 -0.1549
  782SOL    HW1 2345   1.235   0.864   3.559  0.3765 -0.7831  0.9140
  782SOL    HW2 2346   1.154   0.907   3.680 -0.8758  0.1392 -0.2211
  783SOL     OW 2347   3.588   0.265   2.619 -0.0857  0.1390 -0.1995
  783SOL    HW1 2348   3.681   0.277   2.638  0.0106 -0.2968 -0.3825
  783SOL    HW2 2349   3.566   0.182   2.661 -0.4250  0.3047 -0.0464
  784SOL     OW 2350   0.121   1.029   3.810  0.1961 -0.5857  0.3662
  784SOL    HW1 2351   0.118   1.016   3.715 -0.9687 -0.1655  0.3301
  784SOL    HW2 2352   0.213   1.050   3.829  0.5611 -1.2903 -0.5743
  785SOL     OW 2353   1.126   1.398   1.764 -1.1006  0.2034  0.1397
  785SOL    HW1 2354   1.150   1.490   1.767 -0.0004  0.2892 -4.4025
  785SOL    HW2 2355   1.207   1.352   1.741 -2.5173 -1.1305 -2.7973
  786SOL     OW 2356   0.338   3.011   0.248 -0.3768 -0.0681  0.2098
  786SOL    HW1 2357   0.265   3.022   0.309 -0.6942 -1.5989  0.1442
  786SOL    HW2 2358   0.409   3.063   0.285 -1.0627  0.3020  1.0248
  787SOL     OW 2359   3.094   1.894   0.231 -0.0142  0.1021 -0.6408
  787SOL    HW1 2360   3.128   1.833   0.296 -0.5626  1.4559  0.9792
  787SOL    HW2 2361   3.121   1.980   0.261 -0.6287  0.8072 -1.9937
  788SOL     OW 2362   3.655   3.858   3.038 -0.6534 -0.0611 -0.4000
  788SOL    HW1 2363   3.664   3.770   3.002 -2.4611 -1.6881  2.6063
  788SOL    HW2 2364   3.562   3.878   3.029 -0.6160  0.6904  0.6600
  789SOL     OW 2365   0.232   2.859   0.727 -0.2537  0.0476  0.2249
  789SOL    HW1 2366   0.295   2.930   0.713  0.0866 -0.2838  0.0442
  789SOL    HW2 2367   0.186   2.850   0.644 -0.3220  0.0802  0.2590
  790SOL     OW 2368   3.844   2.693   1.410  0.8916  0.2058 -0.2790
  790SOL    HW1 2369   3.811   2.723   1.494  2.4602  1.5452 -0.1013
  790SOL    HW2 2370   3.805   2.753   1.346  3.3850  2.2631 -0.0013
  791SOL     OW 2371   0.091   2.476   1.750  0.3856 -0.6887 -0.2571
  791SOL    HW1 2372   0.057   2.392   1.718 -1.0509 -0.4052  0.4287
  791SOL    HW2 2373   0.020   2.512   1.803  2.7289 -1.3201  3.6823
  792SOL     OW 2374   2.682   0.152   0.802 -0.4928 -0.5028  0.1011
  792SOL    HW1 2375   2.751   0.217   0.816 -1.5186  0.7105 -0.2685
  792SOL    HW2 2376   2.639   0.179   0.720  0.5159 -3.0185 -1.3606
  793SOL     OW 2377   3.355   3.029   0.581  1.0443 -0.9591  0.2412
  793SOL    HW1 2378   3.381   3.094   0.645 -0.9613 -0.2436  0.3905
  793SOL    HW2 2379   3.276   2.989   0.617  0.2898 -1.0549 -1.4087
  794SOL     OW 2380   2.521   0.805   3.558 -0.1782 -0.5409 -0.1626
  794SOL    HW1 2381   2.561   0.718   3.565 -2.1443 -1.4854 -0.2562
  794SOL    HW2 2382   2.471   0.814   3.639  0.4136  0.7375  0.0762
  795SOL     OW 2383   2.540   0.508   1.849 -0.3472 -0.2973 -0.1418
  795SOL    HW1 2384   2.487   0.582   1.820 -0.5336 -0.0945  0.6865
  795SOL    HW2 2385   2.609   0.548   1.903 -0.6021 -0.7453  0.5243
  796SOL     OW 2386   1.784   1.689   1.486  0.0581 -0.5461 -0.0077
  796SOL    HW1 2387   1.739   1.724   1.410 -0.3726  0.2255  0.5930
  796SOL    HW2 2388   1.767   1.595   1.483  0.5638 -0.6179 -1.1986
  797SOL     OW 2389   0.613   3.166   2.508 -0.2313 -0.3323 -0.0311
  797SOL    HW1 2390   0.698   3.125   2.527 -0.6808 -1.2517  0.0739
  797SOL    HW2 2391   0.554   3.129   2.573 -0.8640 -0.2554 -0.5523
  798SOL     OW 2392   0.664   2.469   3.661 -0.5400 -0.2164 -0.5452
  798SOL    HW1 2393   0.667   2.538   3.595 -1.6277 -0.4706 -0.8866
  798SOL    HW2 2394   0.755   2.449   3.680 -0.1998  1.1955 -0.5642
  799SOL     OW 2395   3.621   3.746   1.996 -0.2442 -0.1371  0.1253
  799SOL    HW1 2396   3.622   3.808   2.069 -1.1522 -0.3418  0.3266
  799SOL    HW2 2397   3.576   3.669   2.031  0.1858 -0.6207 -0.3583
  800SOL     OW 2398   3.794   0.435   3.386  0.1023  0.4240 -0.5894
  800SOL    HW1 2399   3.753   0.522   3.381  0.0675  0.4111 -0.5234
  800SOL    HW2 2400   3.871   0.442   3.329  0.2003  0.5538 -0.4404
  801SOL     OW 2401   1.837   2.328   0.639  0.0878 -0.1734 -0.0131
  801SOL    HW1 2402   1.808   2.239   0.621  1.2750 -0.6643  0.4510
  801SOL    HW2 2403   1.931   2.327   0.624  0.8391 -0.0471  3.7705
  802SOL     OW 2404   0.850   3.596   0.478 -0.3687 -0.1103 -0.3288
  802SOL    HW1 2405   0.837   3.529   0.545 -0.0737  0.6302  0.4921
  802SOL    HW2 2406   0.820   3.555   0.397 -1.3073 -0.8155  0.3511
  803SOL     OW 2407   1.623   2.355   3.747  0.5919 -0.3646 -0.2334
  803SOL    HW1 2408   1.589   2.394   3.828  1.0459  0.4028 -0.4061
  803SOL    HW2 2409   1.673   2.279   3.777 -0.4452 -0.9429  0.0933
  804SOL     OW 2410   2.530   0.256   1.706 -0.0740 -0.0415 -0.2915
  804SOL    HW1 2411   2.539   0.338   1.755  0.8665  0.9840 -2.0836
  804SOL    HW2 2412   2.444   0.262   1.664  0.2408  0.3145 -0.8960
  805SOL     OW 2413   3.259   3.108   3.071  0.2663 -0.3108  0.2382
  805SOL    HW1 2414   3.213   3.042   3.019  0.2069  1.4009 -2.0144
  805SOL    HW2 2415   3.290   3.060   3.148 -0.4830 -2.7554 -0.8810
  806SOL     OW 2416   0.023   1.013   0.392 -0.4919  0.2905  0.7882
  806SOL    HW1 2417  -0.016   1.021   0.305  0.0933  1.3290  0.5952
  806SOL    HW2 2418   0.114   0.989   0.375  0.1278  2.2890  0.9788
  807SOL     OW 2419   0.843   0.389   1.699 -0.5286  0.1412  0.1289
  807SOL    HW1 2420   0.933   0.385   1.732  0.0052 -0.9013 -1.2987
  807SOL    HW2 2421   0.802   0.460   1.747  0.0677 -1.4278  3.1734
  808SOL     OW 2422   1.112   2.461   1.770 -0.5486  0.2879  0.4887
  808SOL    HW1 2423   1.142   2.505   1.850  0.5744  0.0064  0.2370
  808SOL    HW2 2424   1.100   2.532   1.707 -0.8606  0.4467  0.7197
  809SOL     OW 2425   0.088   1.116   0.849 -0.6519  0.4992 -0.4666
  809SOL    HW1 2426   0.105   1.187   0.911 -0.8160 -0.1945  0.3999
  809SOL    HW2 2427   0.005   1.078   0.879  0.4317 -1.3431  0.3500
  810SOL     OW 2428   3.205   3.842   1.644  0.3664 -0.5555  0.1929
  810SOL    HW1 2429   3.282   3.839   1.702  0.2790 -0.4921  0.3132
  810SOL    HW2 2430   3.161   3.923   1.669 -0.2251 -1.0384  0.7458
  811SOL     OW 2431   0.130   2.967   2.141  0.3330  0.2759 -0.7801
  811SOL    HW1 2432   0.199   2.974   2.207 -0.7718 -1.0639  0.5516
  811SOL    HW2 2433   0.142   3.045   2.086  1.9038  0.8873  0.3730
  812SOL     OW 2434   2.399   2.243   3.546  0.2997  0.1738  0.0101
  812SOL    HW1 2435   2.448   2.186   3.605  1.0010  1.8272  1.0929
  812SOL    HW2 2436   2.387   2.191   3.467  0.7125 -1.5351  1.0263
  813SOL     OW 2437   3.344   1.554   1.631  0.3470  0.1275 -0.7979
  813SOL    HW1 2438   3.269   1.585   1.682 -0.0959  2.9955 -2.9565
  813SOL    HW2 2439   3.418   1.555   1.692 -1.0046 -1.4148  0.9959
  814SOL     OW 2440   1.924   3.478   3.254  0.5578 -0.2026 -1.3771
  814SOL    HW1 2441   1.881   3.400   3.217  0.0215  0.2749 -1.7943
  814SOL    HW2 2442   2.002   3.444   3.298 -1.0483 -1.3011  0.7816
  815SOL     OW 2443   1.648   0.195   3.226 -0.0883  0.0058  0.0960
  815SOL    HW1 2444   1.581   0.148   3.277 -0.0224  0.2721  0.4260
  815SOL    HW2 2445   1.681   0.129   3.165 -1.0287  0.0118 -0.4336
  816SOL     OW 2446   0.728   1.257   1.105 -0.4979 -0.0388 -0.5875
  816SOL    HW1 2447   0.639   1.272   1.139  0.1825  4.5650 -0.2541
  816SOL    HW2 2448   0.723   1.285   1.014  0.5346 -0.2431 -0.7106
  817SOL     OW 2449   3.449   2.144   3.366  0.1410  0.2154  0.2847
  817SOL    HW1 2450   3.400   2.226   3.361  0.4452  0.3571 -0.4956
  817SOL    HW2 2451   3.495   2.149   3.450  0.7559  1.1965 -0.0887
  818SOL     OW 2452   1.262   3.208   2.670  0.5890  0.4959  0.2788
  818SOL    HW1 2453   1.203   3.174   2.737  1.4397 -1.6933 -0.0308
  818SOL    HW2 2454   1.204   3.229   2.596  0.1719 -2.1444 -0.2319
  819SOL     OW 2455   1.547   3.334   0.429  0.4615 -0.2099 -0.7766
  819SOL    HW1 2456   1.641   3.322   0.445  1.3650  2.3535 -3.3176
  819SOL    HW2 2457   1.543   3.403   0.363 -3.3415  2.6567  1.9688
  820SOL     OW 2458   1.058   2.103   3.359 -0.2017  0.1313 -0.3012
  820SOL    HW1 2459   1.030   2.052   3.283 -0.8621  3.1027 -2.2507
  820SOL    HW2 2460   1.148   2.129   3.339 -0.4498  1.1053 -0.2099
  821SOL     OW 2461   1.053   0.281   0.828 -0.3632  0.3761 -0.4521
  821SOL    HW1 2462   0.979   0.232   0.793 -1.9537  3.1894 -1.3607
  821SOL    HW2 2463   1.016   0.336   0.897  0.6017  2.5209 -1.5413
  822SOL     OW 2464   4.000   0.296   2.756  0.6485  0.2009  0.0970
  822SOL    HW1 2465   3.943   0.246   2.815  0.5418  1.0613  0.7349
  822SOL    HW2 2466   4.020   0.376   2.804  1.9071  0.1886 -0.3625
  823SOL     OW 2467   3.502   0.526   0.743  0.3151  0.4791  0.8077
  823SOL    HW1 2468   3.480   0.462   0.811  0.2544  1.6668  1.9616
  823SOL    HW2 2469   3.417   0.562   0.716  0.1079 -1.4693 -1.5226
  824SOL     OW 2470   1.147   0.230   0.121 -0.1551 -0.1902  0.1670
  824SOL    HW1 2471   1.181   0.311   0.159  1.2142 -0.6062 -0.1062
  824SOL    HW2 2472   1.069   0.210   0.173 -0.3292  1.1187  0.4394
  825SOL     OW 2473   2.962   1.731   2.745 -0.1594 -0.5212  0.0498
  825SOL    HW1 2474   2.974   1.816   2.787  0.9049  0.6470 -2.4171
  825SOL    HW2 2475   2.901   1.684   2.802 -2.1760  2.5192  0.6256
  826SOL     OW 2476   2.388   1.263   2.787  0.2792  0.1365 -0.0910
  826SOL    HW1 2477   2.419   1.210   2.860  0.0067  0.7374  0.4609
  826SOL    HW2 2478   2.443   1.341   2.787 -1.4631  1.4472  1.1948
  827SOL     OW 2479   0.289   1.468   1.976  0.1067 -0.0650  0.4538
  827SOL    HW1 2480   0.316   1.413   1.903 -1.5908 -1.8224  1.0703
  827SOL    HW2 2481   0.262   1.550   1.935 -0.0072 -0.7109 -0.8049
  828SOL     OW 2482   2.839   2.811   2.696  0.3553 -0.3683  0.2582
  828SOL    HW1 2483   2.878   2.897   2.680  0.2266 -0.3135  0.2449
  828SOL    HW2 2484   2.897   2.750   2.649 -0.2359 -0.1673 -0.7477
  829SOL     OW 2485   3.546   1.872   2.825  0.2140  0.1225 -0.8653
  829SOL    HW1 2486   3.549   1.967   2.811  0.1236 -0.0822 -2.4412
  829SOL    HW2 2487   3.626   1.839   2.783  0.5237 -0.4616  0.1491
  830SOL     OW 2488   2.957   3.424   1.557 -0.3541 -0.4354 -0.0053
  830SOL    HW1 2489   2.966   3.331   1.574  1.1231 -0.1262  1.1442
  830SOL    HW2 2490   2.867   3.445   1.582 -1.1915 -1.7828 -1.6813
  831SOL     OW 2491   0.791   0.613   0.412  0.0435  0.1747  0.2016
  831SOL    HW1 2492   0.833   0.692   0.447  1.2807 -0.4080  0.0751
  831SOL    HW2 2493   0.710   0.605   0.461  0.7929  0.4928  1.5373
  832SOL     OW 2494   3.918   0.787   0.932 -0.2328 -0.3762 -0.2238
  832SOL    HW1 2495   3.864   0.709   0.947  0.7169 -1.2311 -1.0937
  832SOL    HW2 2496   3.904   0.808   0.839  0.5348 -0.3023 -0.3267
  833SOL     OW 2497   2.963   3.656   3.866 -0.1855 -0.3944  0.2415
  833SOL    HW1 2498   2.908   3.581   3.888 -0.5872 -0.3569 -0.6099
  833SOL    HW2 2499   2.909   3.710   3.808  0.3260  0.2334  0.3346
  834SOL     OW 2500   0.404   0.209   3.697  0.8163  0.3156 -0.5796
  834SOL    HW1 2501   0.348   0.143   3.658 -0.7332  1.4954 -0.4548
  834SOL    HW2 2502   0.468   0.159   3.748 -0.6231 -1.0877 -0.0465
  835SOL     OW 2503   1.983   2.133   2.740  0.4965  0.4531 -0.2192
  835SOL    HW1 2504   1.931   2.053   2.730  0.6532  0.3584 -0.2730
  835SOL    HW2 2505   2.052   2.124   2.674  1.0334  0.2276  0.3721
  836SOL     OW 2506   0.660   1.664   1.176  0.2944  0.6818  0.4215
  836SOL    HW1 2507   0.603   1.740   1.188  1.3268  1.7863 -1.2125
  836SOL    HW2 2508   0.704   1.653   1.260 -1.1598  0.7526  1.2297
  837SOL     OW 2509   2.191   0.312   2.653  0.0041 -0.1881 -0.0218
  837SOL    HW1 2510   2.158   0.288   2.566 -1.4203  0.8011  0.2101
  837SOL    HW2 2511   2.221   0.402   2.644 -2.0728  0.6680  0.9395
  838SOL     OW 2512   1.434   2.267   1.014 -0.4452 -0.1575 -0.2992
  838SOL    HW1 2513   1.375   2.312   0.954  0.4142  0.3208 -0.8055
  838SOL    HW2 2514   1.434   2.176   0.983  0.1305  0.1225 -1.1463
  839SOL     OW 2515   3.390   0.371   2.172 -0.0431  0.5729 -0.7663
  839SOL    HW1 2516   3.336   0.417   2.237  0.1297  0.6989 -0.7102
  839SOL    HW2 2517   3.405   0.436   2.103 -0.0209  0.5173 -0.8138
  840SOL     OW 2518   1.851   1.788   3.484 -0.2100 -0.1553  0.2481
  840SOL    HW1 2519   1.855   1.757   3.574 -0.3885  2.0242  1.0498
  840SOL    HW2 2520   1.925   1.848   3.475 -0.8610  0.5473 -0.6845
  841SOL     OW 2521   3.950   3.675   1.499 -0.7655  0.5803  0.2835
  841SOL    HW1 2522   4.022   3.710   1.552 -1.4358  0.6887  1.1593
  841SOL    HW2 2523   3.886   3.644   1.564 -1.5469  0.5869 -0.4672
  842SOL     OW 2524   0.425   1.753   1.759 -0.3307 -0.3688 -0.1268
  842SOL    HW1 2525   0.468   1.790   1.682 -0.0669  0.7310  0.5200
  842SOL    HW2 2526   0.331   1.765   1.742 -0.2459  0.9291  0.2007
  843SOL     OW 2527   3.439   3.639   3.881  0.6122  0.3149  0.3461
  843SOL    HW1 2528   3.368   3.576   3.870  1.5577 -0.6132 -0.7824
  843SOL    HW2 2529   3.411   3.695   3.954 -0.1283 -1.6161  1.6366
  844SOL     OW 2530   2.492   3.566   0.323  0.3673  0.8528 -0.3101
  844SOL    HW1 2531   2.429   3.540   0.256 -0.1604  2.1392 -0.3599
  844SOL    HW2 2532   2.472   3.659   0.339  1.0436  0.7949  1.0112
  845SOL     OW 2533   0.303   1.090   3.516  0.1111  0.1942  0.1978
  845SOL    HW1 2534   0.307   1.147   3.592  0.1960 -0.3680  0.6222
  845SOL    HW2 2535   0.391   1.095   3.478  0.0010  0.6565 -0.0008
  846SOL     OW 2536   1.034   2.945   0.466  0.1686 -0.1515 -0.1069
  846SOL    HW1 2537   1.072   2.930   0.379 -1.1390  0.7461 -0.8752
  846SOL    HW2 2538   0.946   2.906   0.459  1.2201 -3.2560  1.9827
  847SOL     OW 2539   1.906   1.006   2.868 -0.1008 -0.0722  0.0114
  847SOL    HW1 2540   1.997   1.025   2.890  0.3062  1.4363 -2.6007
  847SOL    HW2 2541   1.911   0.931   2.809 -0.8975 -2.0033  2.2326
  848SOL     OW 2542   1.692   2.651   3.753  0.2940  0.2033  0.0372
  848SOL    HW1 2543   1.702   2.744   3.735  3.3807 -0.0427 -0.0298
  848SOL    HW2 2544   1.604   2.629   3.721 -0.0923  2.8351 -0.9135
  849SOL     OW 2545   0.212   2.230   3.975 -0.0976 -0.3857 -0.3501
  849SOL    HW1 2546   0.289   2.287   3.975  0.5450 -1.2325 -0.8697
  849SOL    HW2 2547   0.143   2.283   4.015  1.0647 -0.0352  1.2598
  850SOL     OW 2548   3.517   1.411   2.991  0.3417 -0.2264  0.0663
  850SOL    HW1 2549   3.483   1.490   2.950  1.6046  0.5554  0.4445
  850SOL    HW2 2550   3.491   1.340   2.933  1.7699  0.7954 -1.9285
  851SOL     OW 2551   0.664   2.784   0.259 -0.2016  0.1475  0.3716
  851SOL    HW1 2552   0.716   2.764   0.337  0.8939  0.9783 -0.1313
  851SOL    HW2 2553   0.691   2.872   0.233 -2.1782  0.7958  0.3388
  852SOL     OW 2554   0.448   2.703   3.338  0.4281 -0.2593  0.3019
  852SOL    HW1 2555   0.442   2.608   3.343  1.1288 -0.3911 -0.8689
  852SOL    HW2 2556   0.367   2.730   3.294 -0.7348 -0.0849  2.4096
  853SOL     OW 2557   0.787   1.225   2.875  0.0529 -0.4069  0.1034
  853SOL    HW1 2558   0.852   1.209   2.943 -1.4163  1.0850  1.9905
  853SOL    HW2 2559   0.746   1.307   2.901 -1.0087 -0.0962 -2.2976
  854SOL     OW 2560   2.092   1.837   3.175 -0.1753 -0.1559 -0.5941
  854SOL    HW1 2561   2.084   1.870   3.265 -1.8526 -0.0550 -0.7463
  854SOL    HW2 2562   2.108   1.915   3.122  2.3830 -0.3606 -0.2832
  855SOL     OW 2563   1.096   2.795   3.094  0.1105 -0.2112  0.4580
  855SOL    HW1 2564   1.007   2.830   3.087 -0.1255 -0.6688  1.0567
  855SOL    HW2 2565   1.150   2.872   3.112 -0.2331  0.0141  0.5500
  856SOL     OW 2566   3.690   1.439   3.180  0.3040  0.6340  0.0231
  856SOL    HW1 2567   3.653   1.404   3.261 -0.8162 -0.6929 -1.0097
  856SOL    HW2 2568   3.622   1.424   3.114  1.9030 -0.0948 -1.5552
  857SOL     OW 2569   1.034   0.975   0.235 -0.0346 -0.0391 -0.2235
  857SOL    HW1 2570   1.116   0.925   0.229  0.2190  0.3733 -0.1837
  857SOL    HW2 2571   1.008   0.966   0.327 -0.1761 -0.3876 -0.2932
  858SOL     OW 2572   2.372   1.935   2.580 -0.1899 -0.1042  0.0441
  858SOL    HW1 2573   2.317   1.887   2.643 -2.2413 -0.9036 -2.2042
  858SOL    HW2 2574   2.384   1.873   2.508  0.6155  1.3692 -1.1264
  859SOL     OW 2575   0.128   1.898   3.293  0.5620  0.5531 -0.2800
  859SOL    HW1 2576   0.048   1.905   3.345  0.0143 -1.0528 -0.8125
  859SOL    HW2 2577   0.103   1.841   3.220  1.7305  1.4673 -1.4360
  860SOL     OW 2578   3.180   1.963   3.010  0.3699 -0.5654 -0.1748
  860SOL    HW1 2579   3.214   1.979   2.921  1.3305 -0.8453  0.1359
  860SOL    HW2 2580   3.256   1.973   3.067 -0.4805  0.9080  0.7780
  861SOL     OW 2581   3.628   3.095   1.004  0.0906 -0.3300 -0.5813
  861SOL    HW1 2582   3.562   3.026   1.013 -1.1445  0.6056 -1.8503
  861SOL    HW2 2583   3.632   3.110   0.909  2.5985 -0.7491 -0.5989
  862SOL     OW 2584   1.580   2.850   1.978  0.4324 -0.4832 -0.5069
  862SOL    HW1 2585   1.624   2.931   1.949  0.6936 -0.4817 -0.1075
  862SOL    HW2 2586   1.525   2.826   1.903  0.8508 -0.2969 -0.8862
  863SOL     OW 2587   0.091   1.700   0.325  0.2696  0.5941  0.2823
  863SOL    HW1 2588   0.076   1.623   0.380 -0.8173  0.5179 -0.0913
  863SOL    HW2 2589   0.013   1.755   0.339 -1.0858 -0.3669 -2.6668
  864SOL     OW 2590   0.214   3.248   2.610  0.0909 -0.2108 -0.3078
  864SOL    HW1 2591   0.215   3.154   2.632  3.3931 -0.1640  0.3179
  864SOL    HW2 2592   0.185   3.290   2.691  0.3266 -0.6129 -0.0085
  865SOL     OW 2593   0.584   0.658   3.987  0.8694 -0.4794  0.7911
  865SOL    HW1 2594   0.574   0.568   4.019  0.2246 -0.8715 -0.4701
  865SOL    HW2 2595   0.577   0.650   3.892 -1.4145  1.1861  0.7566
  866SOL     OW 2596   1.217   1.730   0.633  0.5033  0.4678  0.7771
  866SOL    HW1 2597   1.238   1.685   0.552  0.8128  1.5182  0.2639
  866SOL    HW2 2598   1.183   1.661   0.691 -0.0249 -0.2282 -0.3401
  867SOL     OW 2599   2.492   0.903   1.532 -0.4445  0.0490 -0.4737
  867SOL    HW1 2600   2.423   0.945   1.583 -1.4114 -2.0444  0.0939
  867SOL    HW2 2601   2.573   0.940   1.566 -1.2324  2.9861 -1.5404
  868SOL     OW 2602   1.464   3.314   3.307  0.4616 -0.2005  0.1163
  868SOL    HW1 2603   1.485   3.328   3.215 -0.4151 -1.8207 -0.3801
  868SOL    HW2 2604   1.539   3.351   3.355  1.2435  0.0751 -1.2615
  869SOL     OW 2605   1.145   2.771   0.938  0.1873  0.3100 -0.2648
  869SOL    HW1 2606   1.071   2.712   0.953  0.6719 -0.2836 -0.1965
  869SOL    HW2 2607   1.118   2.824   0.863 -0.5185  0.4539  0.0783
  870SOL     OW 2608   0.558   1.993   1.102 -0.1558 -0.2048  0.2244
  870SOL    HW1 2609   0.490   1.926   1.103 -0.5762  0.1929 -0.6369
  870SOL    HW2 2610   0.539   2.049   1.177 -0.7127 -0.1770  0.0680
  871SOL     OW 2611   0.961   3.771   1.783  0.8700  0.0003 -0.3089
  871SOL    HW1 2612   1.004   3.767   1.868  0.5624  0.7566 -0.1100
  871SOL    HW2 2613   0.956   3.864   1.763 -1.5434  0.0346  0.1532
  872SOL     OW 2614   1.439   2.467   0.759 -0.0657  0.2145  0.0960
  872SOL    HW1 2615   1.424   2.514   0.841 -1.4382 -0.2002  0.1187
  872SOL    HW2 2616   1.380   2.391   0.764  0.7437 -0.4909 -0.7341
  873SOL     OW 2617   1.059   3.781   2.409 -0.8145  1.1977  0.0676
  873SOL    HW1 2618   1.113   3.829   2.346  0.2822 -0.5811 -0.3941
  873SOL    HW2 2619   1.115   3.711   2.441 -2.2340  0.4543  1.0364
  874SOL     OW 2620   0.423   3.306   3.574 -0.3906 -0.4908  0.4747
  874SOL    HW1 2621   0.400   3.358   3.651 -1.8467  0.1403 -0.3381
  874SOL    HW2 2622   0.412   3.215   3.602  1.7704 -0.4244  1.7857
  875SOL     OW 2623   0.318   2.912   1.103  0.5166  0.0462  0.0444
  875SOL    HW1 2624   0.264   2.991   1.094  0.7446  0.3782  1.4037
  875SOL    HW2 2625   0.257   2.844   1.132  0.4427 -0.1270 -0.5010
  876SOL     OW 2626   2.789   1.849   2.518 -0.1140  0.0174  0.3014
  876SOL    HW1 2627   2.861   1.886   2.570  0.6796  0.7507 -1.2425
  876SOL    HW2 2628   2.740   1.925   2.486  0.8994 -0.1992 -2.0267
  877SOL     OW 2629   1.588   3.132   2.996 -0.4183  0.2335 -0.3574
  877SOL    HW1 2630   1.494   3.136   3.016 -0.6779  2.5181 -1.6305
  877SOL    HW2 2631   1.593   3.089   2.911 -0.0361 -2.0747  0.7635
  878SOL     OW 2632   1.283   3.119   1.427 -0.0491 -0.0586  0.9330
  878SOL    HW1 2633   1.254   3.197   1.475 -0.5748 -0.7654  1.8122
  878SOL    HW2 2634   1.284   3.050   1.494  0.6498 -0.7482  0.2260
  879SOL     OW 2635   0.553   1.092   0.469  0.4196  0.5674  0.3509
  879SOL    HW1 2636   0.531   1.159   0.533 -3.9699 -0.3855  0.1597
  879SOL    HW2 2637   0.545   1.009   0.517 -0.6605 -0.0533 -0.8386
  880SOL     OW 2638   1.481   0.085   0.614  0.1333 -0.3236 -0.7098
  880SOL    HW1 2639   1.408   0.062   0.671  0.8785  0.5562  0.6357
  880SOL    HW2 2640   1.440   0.113   0.532 -0.9873 -0.5987 -0.2527
  881SOL     OW 2641   1.075   1.641   0.831  0.5465 -0.6474  0.0426
  881SOL    HW1 2642   1.015   1.715   0.828  2.2255  0.7554 -1.4620
  881SOL    HW2 2643   1.097   1.631   0.924 -1.3347 -0.6803  0.5117
  882SOL     OW 2644   2.288   2.758   2.171 -0.3377 -0.0761 -0.4352
  882SOL    HW1 2645   2.305   2.704   2.248  0.4015  0.0135 -0.5295
  882SOL    HW2 2646   2.205   2.726   2.137  0.7064 -2.0460 -1.2474
  883SOL     OW 2647   0.039   3.489   1.786 -0.5849  0.2544 -0.0015
  883SOL    HW1 2648   0.011   3.400   1.807  2.1749 -1.4874 -2.7022
  883SOL    HW2 2649   0.101   3.511   1.855 -1.5239  0.2309  0.8627
  884SOL     OW 2650   0.117   1.854   0.097 -0.3121 -0.0709  0.1938
  884SOL    HW1 2651   0.163   1.938   0.107 -1.5434  0.5058  1.3651
  884SOL    HW2 2652   0.134   1.808   0.179 -0.8039 -0.3693  0.1323
  885SOL     OW 2653   2.387   1.477   0.527  0.0668 -0.7423 -0.1432
  885SOL    HW1 2654   2.406   1.568   0.506  0.5313 -0.9898 -0.8214
  885SOL    HW2 2655   2.364   1.438   0.443  0.7871 -1.4738 -0.0040
  886SOL     OW 2656   3.221   3.504   3.791  0.2397 -0.0367  0.6171
  886SOL    HW1 2657   3.138   3.538   3.823  0.3859 -0.9533  2.0825
  886SOL    HW2 2658   3.199   3.420   3.751  0.2555  0.4689 -0.4855
  887SOL     OW 2659   1.523   0.769   2.856 -0.7643  0.2629 -0.2381
  887SOL    HW1 2660   1.562   0.682   2.844 -1.2004  0.0798 -0.3698
  887SOL    HW2 2661   1.440   0.751   2.901 -1.4493  0.4931 -1.3818
  888SOL     OW 2662   1.426   1.621   0.957  0.1560 -0.0894 -0.0098
  888SOL    HW1 2663   1.392   1.609   1.046  0.5335  1.9946  0.4604
  888SOL    HW2 2664   1.490   1.691   0.965  1.1005 -0.6897 -1.7406
  889SOL     OW 2665   3.985   2.967   2.838 -0.1871  0.3805 -0.1412
  889SOL    HW1 2666   3.948   3.021   2.768 -2.2046  1.1030  1.3901
  889SOL    HW2 2667   3.944   2.881   2.826  0.0774  0.2798 -0.3203
  890SOL     OW 2668   2.475   0.084   0.248  0.3899  0.0085  0.5384
  890SOL    HW1 2669   2.562   0.064   0.213  0.7300  0.5090  1.0751
  890SOL    HW2 2670   2.492   0.132   0.329 -0.3903 -0.6044  1.0822
  891SOL     OW 2671   0.935   1.473   1.979 -0.5608 -0.1067  0.4847
  891SOL    HW1 2672   0.972   1.541   2.035 -1.2743 -0.2044  1.0945
  891SOL    HW2 2673   1.004   1.453   1.916 -0.0047  0.5156  0.8856
  892SOL     OW 2674   1.296   2.158   0.571  0.1542 -0.2569 -0.0560
  892SOL    HW1 2675   1.322   2.118   0.654 -0.0973 -0.4265 -0.0597
  892SOL    HW2 2676   1.248   2.089   0.525 -0.3993  0.0912 -0.0025
  893SOL     OW 2677   2.787   2.938   0.289  0.2890 -0.1521  0.1671
  893SOL    HW1 2678   2.814   3.009   0.230  0.7294 -1.2109 -0.9428
  893SOL    HW2 2679   2.750   2.983   0.365 -0.2541  1.2662 -0.8925
  894SOL     OW 2680   2.689   2.401   2.674 -0.2524 -0.2201 -0.2682
  894SOL    HW1 2681   2.765   2.436   2.628 -1.3781  2.4541 -0.2435
  894SOL    HW2 2682   2.722   2.380   2.762  1.0722 -2.0069 -1.1044
  895SOL     OW 2683   3.787   0.362   1.270 -0.6510 -0.4241 -0.0247
  895SOL    HW1 2684   3.882   0.372   1.276 -0.3657 -2.7073 -0.0173
  895SOL    HW2 2685   3.755   0.399   1.352 -0.1460  3.2692 -1.2903
  896SOL     OW 2686   3.640   3.721   3.544 -0.3992  0.2578  0.0534
  896SOL    HW1 2687   3.637   3.686   3.455  0.6001 -0.3400  0.2414
  896SOL    HW2 2688   3.561   3.776   3.551  0.5336  1.9583 -1.8769
  897SOL     OW 2689   3.325   3.257   2.577  0.1807  0.4252 -0.2767
  897SOL    HW1 2690   3.329   3.229   2.668  1.7110 -1.0128 -0.7432
  897SOL    HW2 2691   3.406   3.224   2.538 -0.5699  0.7655 -2.2214
  898SOL     OW 2692   2.146   0.975   1.334 -0.4977 -0.2301  0.4958
  898SOL    HW1 2693   2.145   1.052   1.279 -2.8672 -1.9165 -2.1137
  898SOL    HW2 2694   2.109   1.004   1.417 -3.6692  1.0839 -1.2037
  899SOL     OW 2695   1.566   0.680   2.302 -0.2207 -0.2059 -0.0010
  899SOL    HW1 2696   1.500   0.723   2.356 -1.0636 -1.2853 -0.1339
  899SOL    HW2 2697   1.549   0.712   2.213  1.5209  2.0061  0.3731
  900SOL     OW 2698   0.750   2.575   0.080  0.3211  0.1653 -0.1117
  900SOL    HW1 2699   0.672   2.556   0.028  1.0870  0.0819 -1.2588
  900SOL    HW2 2700   0.719   2.635   0.148 -0.4844  1.2744 -1.4088
  901SOL     OW 2701   1.711   3.948   2.577 -0.3830  0.6306  0.4835
  901SOL    HW1 2702   1.749   4.011   2.516 -1.4316  0.4467 -0.3897
  901SOL    HW2 2703   1.759   3.867   2.561  0.0352  0.8423  0.6407
  902SOL     OW 2704   1.912   0.165   2.599  0.0571 -0.3468  0.0500
  902SOL    HW1 2705   1.960   0.191   2.520 -0.8126  0.8480 -0.1162
  902SOL    HW2 2706   1.964   0.200   2.671 -0.1615  0.2828 -0.0930
  903SOL     OW 2707   0.294   0.377   1.543  0.1151  0.1362  0.1251
  903SOL    HW1 2708   0.289   0.428   1.462  1.0446 -0.4548 -0.3215
  903SOL    HW2 2709   0.334   0.294   1.517  0.5329 -0.0219  1.2109
  904SOL     OW 2710   2.850   0.017   0.432  0.5180  0.0084  0.0123
  904SOL    HW1 2711   2.875   0.075   0.504  2.0379 -2.4008  1.6086
  904SOL    HW2 2712   2.773  -0.030   0.465  0.3547 -0.0941 -0.5139
  905SOL     OW 2713   3.387   0.577   0.201  0.0172 -0.8459 -0.5202
  905SOL    HW1 2714   3.359   0.622   0.121  1.0818 -0.7840 -0.8785
  905SOL    HW2 2715   3.418   0.648   0.257  0.2193 -0.9800 -0.4616
  906SOL     OW 2716   1.426   3.835   2.817 -0.0050  0.6889 -0.2597
  906SOL    HW1 2717   1.387   3.864   2.900  1.9812 -0.7814  1.2801
  906SOL    HW2 2718   1.517   3.862   2.823  0.7635 -1.5987 -0.8583
  907SOL     OW 2719   3.491   2.368   2.367 -0.2586  0.0837  0.0951
  907SOL    HW1 2720   3.470   2.274   2.371 -1.9184  0.4742  2.3109
  907SOL    HW2 2721   3.586   2.370   2.360 -0.1423 -1.7849  0.5223
  908SOL     OW 2722   1.996   2.272   1.620  0.2099 -0.1455 -0.0183
  908SOL    HW1 2723   2.044   2.236   1.695  1.9620  1.1854 -0.4479
  908SOL    HW2 2724   2.049   2.247   1.544 -0.4453  0.2864 -0.6239
  909SOL     OW 2725   1.456   0.753   0.529 -0.4128  0.1235 -0.1550
  909SOL    HW1 2726   1.491   0.664   0.539  0.0240  0.5407  2.8522
  909SOL    HW2 2727   1.533   0.809   0.531 -0.8559  0.7283  1.2581
  910SOL     OW 2728   3.042   1.304   1.225 -0.2812  0.2350 -0.1078
  910SOL    HW1 2729   2.990   1.254   1.163 -1.1797  1.2464 -0.2181
  910SOL    HW2 2730   3.105   1.242   1.261 -2.9363 -1.6616  1.6353
  911SOL     OW 2731   2.613   2.744   0.756  0.8606 -0.3921 -0.3671
  911SOL    HW1 2732   2.561   2.804   0.808  2.4162  0.2076  0.5707
  911SOL    HW2 2733   2.704   2.770   0.773  1.4985 -1.7311 -1.5074
  912SOL     OW 2734   0.697   1.869   3.452  0.9626  0.5062 -0.0011
  912SOL    HW1 2735   0.716   1.808   3.381 -0.9534 -0.9405  0.6303
  912SOL    HW2 2736   0.657   1.944   3.409  0.7416  0.0785 -0.5535
  913SOL     OW 2737   0.563   1.083   2.839  0.1153 -0.1141 -0.7994
  913SOL    HW1 2738   0.547   1.051   2.927  2.1964 -0.0815 -0.3692
  913SOL    HW2 2739   0.651   1.119   2.842  0.0202  0.3924 -2.7627
  914SOL     OW 2740   0.062   1.824   2.905  0.5829  0.3474 -0.3839
  914SOL    HW1 2741  -0.006   1.842   2.969 -0.2715  1.2139 -1.4948
  914SOL    HW2 2742   0.038   1.739   2.868  2.7708 -1.7252  2.5033
  915SOL     OW 2743   1.667   2.644   0.990  0.2651  0.7668  0.1362
  915SOL    HW1 2744   1.623   2.686   0.916 -2.3104  1.1199  1.7413
  915SOL    HW2 2745   1.600   2.589   1.030  2.5709 -2.2293  0.1846
  916SOL     OW 2746   3.654   1.098   3.904  0.0296  0.1265 -0.8315
  916SOL    HW1 2747   3.716   1.035   3.868  0.9814  0.3793  0.2855
  916SOL    HW2 2748   3.700   1.182   3.898  0.0002  0.2595  0.3805
  917SOL     OW 2749   1.333   3.075   0.731 -0.2015 -0.1473 -0.4230
  917SOL    HW1 2750   1.404   3.078   0.795  1.6634 -2.7378 -2.1814
  917SOL    HW2 2751   1.338   3.158   0.685  0.1133  0.6709  1.0105
  918SOL     OW 2752   2.961   3.718   2.519 -0.3295  0.3710  0.3789
  918SOL    HW1 2753   2.910   3.638   2.507 -0.6057  0.7094 -0.8466
  918SOL    HW2 2754   2.897   3.789   2.511  0.0739  0.7461  0.4567
  919SOL     OW 2755   1.125   2.264   3.787 -0.2183  0.0238  0.3695
  919SOL    HW1 2756   1.061   2.221   3.844 -1.1674 -2.4578 -2.3550
  919SOL    HW2 2757   1.202   2.277   3.843  0.3838 -5.8804  1.4996
  920SOL     OW 2758   2.355   3.546   0.758  0.1919  0.3048 -0.4144
  920SOL    HW1 2759   2.327   3.548   0.850 -1.6431 -0.3320 -0.9132
  920SOL    HW2 2760   2.405   3.465   0.750  1.1328  0.8109  0.2130
  921SOL     OW 2761   3.379   2.277   2.916  0.0205  0.9098  0.0775
  921SOL    HW1 2762   3.330   2.273   2.998  1.6159 -0.6478  1.0364
  921SOL    HW2 2763   3.397   2.370   2.904 -2.4846  1.4535  0.0419
  922SOL     OW 2764   1.201   1.309   2.353 -0.5591  0.5164  0.6671
  922SOL    HW1 2765   1.118   1.261   2.360  1.3557 -3.2689  0.1754
  922SOL    HW2 2766   1.231   1.316   2.444 -0.0040 -1.0111  0.6285
  923SOL     OW 2767   1.041   1.251   3.336 -0.2027 -0.9256 -0.1294
  923SOL    HW1 2768   0.948   1.250   3.358  0.0022 -0.6325  0.7900
  923SOL    HW2 2769   1.085   1.216   3.413  0.3034 -3.5917 -1.5054
  924SOL     OW 2770   0.812   0.718   3.751 -0.8319 -0.4848  0.5137
  924SOL    HW1 2771   0.799   0.625   3.733  1.0524 -0.8018  0.5531
  924SOL    HW2 2772   0.848   0.720   3.840 -1.3972  0.3299  0.7252
  925SOL     OW 2773   1.506   1.288   3.456  0.3718 -0.4057  0.2415
  925SOL    HW1 2774   1.495   1.381   3.475 -2.1892 -0.4321 -0.7557
  925SOL    HW2 2775   1.459   1.243   3.526  0.5040 -0.8988  0.0209
  926SOL     OW 2776   3.376   3.877   3.005 -0.9774  0.2635  0.2352
  926SOL    HW1 2777   3.347   3.964   3.032 -1.2293  0.6798 -1.3139
  926SOL    HW2 2778   3.331   3.861   2.922 -2.1028 -1.9788  1.2030
  927SOL     OW 2779   1.447   2.731   1.528 -0.1836 -0.2068 -0.0917
  927SOL    HW1 2780   1.378   2.798   1.522  0.3032  0.3939  0.8099
  927SOL    HW2 2781   1.528   2.779   1.512  0.2477 -0.3976  1.3612
  928SOL     OW 2782   1.404   0.788   2.020  0.6872 -0.0866  0.0158
  928SOL    HW1 2783   1.489   0.744   2.011  0.6183 -0.9296  2.7296
  928SOL    HW2 2784   1.340   0.718   2.017 -0.0219  0.5637 -2.1936
  929SOL     OW 2785   3.164   1.565   1.416 -0.2108  0.0672  0.4352
  929SOL    HW1 2786   3.108   1.514   1.475  0.0960  0.1152  0.7695
  929SOL    HW2 2787   3.251   1.559   1.455 -0.1110  0.5594  0.2864
  930SOL     OW 2788   2.345   0.558   1.295 -0.1353 -0.2773 -0.0338
  930SOL    HW1 2789   2.350   0.574   1.390  0.7081 -0.0286 -0.1050
  930SOL    HW2 2790   2.296   0.632   1.261 -1.4803 -0.9742  0.3365
  931SOL     OW 2791   1.605   0.122   2.755  0.2337  0.4188 -0.2842
  931SOL    HW1 2792   1.641   0.083   2.675 -1.6379  1.3103 -1.6344
  931SOL    HW2 2793   1.629   0.215   2.750  0.4949  0.4002  0.4415
  932SOL     OW 2794   1.917   1.800   0.426  0.4202  0.3554  0.6128
  932SOL    HW1 2795   1.889   1.876   0.375 -0.9596 -0.2423  0.4479
  932SOL    HW2 2796   1.980   1.756   0.369 -2.0588 -1.0331 -1.2558
  933SOL     OW 2797   3.144   0.967   0.919 -0.1779  0.1500  0.2034
  933SOL    HW1 2798   3.170   1.056   0.941  0.9254 -0.0946 -0.0188
  933SOL    HW2 2799   3.195   0.946   0.840 -0.7953 -0.4974 -0.0388
  934SOL     OW 2800   0.669   2.078   2.499  0.1084  0.0395 -0.3062
  934SOL    HW1 2801   0.654   1.985   2.481  0.5321 -0.1969  0.5153
  934SOL    HW2 2802   0.732   2.105   2.432 -0.5732 -0.0673 -1.0065
  935SOL     OW 2803   2.611   1.213   1.556 -0.4841  0.0822  0.2931
  935SOL    HW1 2804   2.610   1.289   1.614  2.3029 -0.4921  1.2532
  935SOL    HW2 2805   2.524   1.212   1.516 -0.5932  3.8422  0.0917
  936SOL     OW 2806   3.845   2.197   0.047  0.0884  0.1036 -0.5952
  936SOL    HW1 2807   3.755   2.230   0.046 -0.3031 -0.7864  0.9101
  936SOL    HW2 2808   3.898   2.272   0.073 -0.8597 -0.3816  3.5303
  937SOL     OW 2809   3.051   3.090   0.607 -0.2460  0.2066 -0.1972
  937SOL    HW1 2810   3.044   3.135   0.523 -2.4761  0.4696  0.0686
  937SOL    HW2 2811   2.964   3.052   0.621  0.2551 -0.3294  1.7122
  938SOL     OW 2812   2.867   1.589   1.067 -0.8673 -0.5663  0.1618
  938SOL    HW1 2813   2.875   1.493   1.073 -1.7255 -0.6022  1.2363
  938SOL    HW2 2814   2.837   1.605   0.978  0.4125 -1.1891 -0.4167
  939SOL     OW 2815   1.970   1.326   1.422 -0.7333 -0.0140  0.1288
  939SOL    HW1 2816   1.986   1.335   1.328 -0.6311  0.2761  0.1746
  939SOL    HW2 2817   1.877   1.348   1.433 -1.2100 -1.7246 -0.1400
  940SOL     OW 2818   0.498   1.372   1.190 -0.0851 -0.1886  0.0258
  940SOL    HW1 2819   0.408   1.340   1.203  0.8258 -2.5180  1.2283
  940SOL    HW2 2820   0.489   1.467   1.187 -2.9716 -0.3680 -3.2809
  941SOL     OW 2821   3.262   3.759   2.764  0.1162  0.2583  0.2794
  941SOL    HW1 2822   3.180   3.715   2.784 -0.1149 -0.7466 -2.4287
  941SOL    HW2 2823   3.249   3.795   2.676  2.8231 -0.6802 -0.5983
  942SOL     OW 2824   2.809   1.827   1.582  0.0576  0.6603  0.0282
  942SOL    HW1 2825   2.750   1.819   1.506 -0.9630  1.0507  0.7580
  942SOL    HW2 2826   2.820   1.736   1.612 -0.8753  0.6564  0.3949
  943SOL     OW 2827   1.370   2.589   1.009  0.4247 -0.0000  0.2948
  943SOL    HW1 2828   1.350   2.617   1.098 -1.9270 -1.8495  0.4374
  943SOL    HW2 2829   1.291   2.609   0.959  1.9535  1.7061 -1.6322
  944SOL     OW 2830   2.528   1.701   0.482  0.0289  0.1551 -0.0472
  944SOL    HW1 2831   2.531   1.776   0.423 -1.0205  0.3200  0.0825
  944SOL    HW2 2832   2.584   1.727   0.556  1.2417 -0.0061 -0.8974
  945SOL     OW 2833   2.024   1.858   0.000 -0.0540  0.1752 -0.5354
  945SOL    HW1 2834   2.110   1.816  -0.001  0.8358  1.8821 -0.6230
  945SOL    HW2 2835   2.035   1.931   0.061 -1.1707  0.9324 -1.2067
  946SOL     OW 2836   0.040   0.826   3.582 -0.5499  0.6013  0.2263
  946SOL    HW1 2837  -0.040   0.873   3.560  0.0240  1.6665  0.3612
  946SOL    HW2 2838   0.065   0.782   3.500 -1.4447 -0.0207  0.2756
  947SOL     OW 2839   1.419   1.989   3.884  0.2085 -0.4422 -0.5001
  947SOL    HW1 2840   1.402   1.902   3.847  1.8136 -0.4837 -1.2335
  947SOL    HW2 2841   1.446   2.041   3.808  2.5564 -0.2375  0.4012
  948SOL     OW 2842   2.775   3.272   3.378 -0.2968  1.0753  0.0545
  948SOL    HW1 2843   2.868   3.252   3.363 -0.4410  0.7584 -0.4183
  948SOL    HW2 2844   2.730   3.189   3.364 -0.8753  1.6425 -1.6412
  949SOL     OW 2845   0.525   2.178   0.074 -0.0556  0.1940  0.8989
  949SOL    HW1 2846   0.496   2.187   0.164  2.3134  0.1026  1.7445
  949SOL    HW2 2847   0.484   2.097   0.044  0.0377 -0.3971  2.2881
  950SOL     OW 2848   3.672   2.399   1.545 -0.2646  0.5793  0.2816
  950SOL    HW1 2849   3.581   2.378   1.567 -0.1258  0.1370  0.4576
  950SOL    HW2 2850   3.673   2.408   1.450 -0.0223 -1.9355 -0.0386
  951SOL     OW 2851   2.329   3.961   2.324  0.0003 -0.4752  0.1461
  951SOL    HW1 2852   2.263   3.925   2.383  1.1595 -0.3248  1.5959
  951SOL    HW2 2853   2.356   4.044   2.365  1.1602 -0.5867 -0.3478
  952SOL     OW 2854   3.165   1.541   2.302 -0.0245  0.0931  0.1457
  952SOL    HW1 2855   3.217   1.461   2.298 -3.6323 -2.4866 -2.5905
  952SOL    HW2 2856   3.077   1.510   2.323 -1.0602  3.8211  2.0189
  953SOL     OW 2857   0.309   2.268   1.225  0.5754  0.8719  0.8866
  953SOL    HW1 2858   0.326   2.345   1.171  1.2803  0.1248  0.0156
  953SOL    HW2 2859   0.393   2.251   1.268  0.7819 -0.1353  0.1066
  954SOL     OW 2860   1.169   2.643   3.947 -0.5202  0.4542 -1.0343
  954SOL    HW1 2861   1.119   2.724   3.939 -0.0281  0.7789 -0.8433
  954SOL    HW2 2862   1.102   2.575   3.952 -0.9615  0.9099 -0.4595
  955SOL     OW 2863   0.385   1.657   0.418  0.0417  0.2082 -0.2987
  955SOL    HW1 2864   0.367   1.688   0.506 -0.6730  0.1433 -0.4219
  955SOL    HW2 2865   0.333   1.714   0.361 -1.9250 -1.6442 -0.4943
  956SOL     OW 2866   3.136   3.185   2.183 -0.3024  0.2365 -0.0994
  956SOL    HW1 2867   3.215   3.223   2.145 -0.6746  0.3493 -0.7656
  956SOL    HW2 2868   3.083   3.159   2.108 -0.6756 -0.3096  0.3452
  957SOL     OW 2869   3.189   2.316   3.110  0.4737 -0.2243  0.1118
  957SOL    HW1 2870   3.121   2.376   3.080  0.7362  1.7060  2.9420
  957SOL    HW2 2871   3.142   2.233   3.127 -0.2913 -0.2501 -1.9186
  958SOL     OW 2872   0.969   0.856   0.492  0.4370  0.1082  0.6650
  958SOL    HW1 2873   1.051   0.881   0.535  1.0571  0.7914 -0.8526
  958SOL    HW2 2874   0.918   0.937   0.489  0.5275  0.1422 -0.1325
  959SOL     OW 2875   2.408   2.401   2.606  0.2376  0.1116  0.0920
  959SOL    HW1 2876   2.387   2.454   2.529 -0.2610  0.5520  0.5197
  959SOL    HW2 2877   2.503   2.409   2.615  0.1912  0.8039  0.0500
  960SOL     OW 2878   2.451   1.984   3.841 -0.0454  0.0197 -0.6551
  960SOL    HW1 2879   2.545   1.968   3.836 -0.2862 -1.2404 -1.5988
  960SOL    HW2 2880   2.443   2.077   3.862  1.4367 -0.3863  2.1911
  961SOL     OW 2881   3.377   3.564   1.618  0.3426  0.3598 -0.2742
  961SOL    HW1 2882   3.393   3.652   1.584  0.9742  0.3629  0.0230
  961SOL    HW2 2883   3.347   3.514   1.542 -2.8838  1.5176  0.0910
  962SOL     OW 2884   2.454   0.168   2.796  0.6846  0.6312 -0.1586
  962SOL    HW1 2885   2.470   0.146   2.888 -1.2288 -0.5879 -0.0413
  962SOL    HW2 2886   2.415   0.255   2.798  1.8909  1.1835  0.0352
  963SOL     OW 2887   2.486   2.905   0.934 -0.1352  0.1492 -0.5349
  963SOL    HW1 2888   2.480   2.975   0.998 -1.5244  0.5941 -1.0962
  963SOL    HW2 2889   2.495   2.825   0.986 -0.3126  0.5815  0.1750
  964SOL     OW 2890   1.101   3.275   1.689  0.4871  0.3789  1.1782
  964SOL    HW1 2891   1.095   3.365   1.658  0.4576 -0.0833 -0.2354
  964SOL    HW2 2892   1.184   3.272   1.736  0.2373  1.2708  1.6931
  965SOL     OW 2893   2.101   1.482   1.678 -0.1621 -0.5217 -0.1871
  965SOL    HW1 2894   2.039   1.457   1.609 -0.7329  0.9490 -0.2551
  965SOL    HW2 2895   2.077   1.572   1.699  1.8052  0.0018 -0.0215
  966SOL     OW 2896   0.477   0.705   0.913  0.2053  0.0450 -0.7155
  966SOL    HW1 2897   0.418   0.653   0.967  1.1218 -0.4766 -0.1955
  966SOL    HW2 2898   0.535   0.641   0.872  1.3161  0.6282 -0.1062
  967SOL     OW 2899   2.410   0.591   2.258  0.0532 -0.3415 -0.1264
  967SOL    HW1 2900   2.428   0.618   2.348 -0.6411 -3.4925  1.0981
  967SOL    HW2 2901   2.476   0.524   2.240 -0.0579 -0.0150 -1.8317
  968SOL     OW 2902   2.812   3.412   3.935 -0.3616  0.7892 -0.2535
  968SOL    HW1 2903   2.874   3.340   3.940  1.3824  2.1649 -0.8236
  968SOL    HW2 2904   2.742   3.388   3.996  0.3088 -1.2073 -0.2023
  969SOL     OW 2905   3.260   0.611   1.390 -0.2921  0.0840 -0.0998
  969SOL    HW1 2906   3.236   0.638   1.302  0.5009  1.4807  0.0933
  969SOL    HW2 2907   3.181   0.567   1.424 -1.7177  2.2671 -0.4116
  970SOL     OW 2908   1.390   3.782   2.501  0.0450  0.1018  0.7137
  970SOL    HW1 2909   1.340   3.701   2.489  0.3390  0.1950 -1.6655
  970SOL    HW2 2910   1.476   3.754   2.531  1.5690 -1.0361 -3.9391
  971SOL     OW 2911   0.622   0.238   2.465  0.2856 -0.3916 -0.5188
  971SOL    HW1 2912   0.621   0.304   2.534  0.6055  0.8269 -1.6317
  971SOL    HW2 2913   0.685   0.172   2.495  0.0478 -0.1434  0.5609
  972SOL     OW 2914   3.830   0.632   2.037  0.3279  0.2719 -0.0370
  972SOL    HW1 2915   3.869   0.658   1.954 -0.5364  1.3568 -0.1441
  972SOL    HW2 2916   3.778   0.555   2.016  1.3121 -0.3695 -0.1689
  973SOL     OW 2917   0.986   1.165   2.448 -0.0646 -0.0276  0.3326
  973SOL    HW1 2918   0.906   1.213   2.424  0.2059  0.5419  0.5541
  973SOL    HW2 2919   0.961   1.073   2.442  0.2399 -0.0314 -3.1793
  974SOL     OW 2920   2.086   0.798   0.446 -0.0266  0.5490 -0.1885
  974SOL    HW1 2921   2.181   0.795   0.433 -0.0173  1.1186 -0.2566
  974SOL    HW2 2922   2.074   0.848   0.527 -0.2899  0.9209 -0.4564
  975SOL     OW 2923   2.445   2.226   3.068 -0.0883 -0.3001 -0.3026
  975SOL    HW1 2924   2.505   2.281   3.118 -1.2756  0.4543  0.3470
  975SOL    HW2 2925   2.424   2.277   2.990 -0.5079 -0.2052 -0.1314
  976SOL     OW 2926   2.574   2.382   1.878  0.3537  0.2462  0.0639
  976SOL    HW1 2927   2.497   2.369   1.823  1.1655  1.5718 -1.4673
  976SOL    HW2 2928   2.642   2.326   1.839  0.6499  0.3799  0.3756
  977SOL     OW 2929   3.816   0.961   3.707  0.3190  0.0931 -0.5292
  977SOL    HW1 2930   3.891   0.997   3.753  1.9277 -1.5099 -1.7622
  977SOL    HW2 2931   3.830   0.986   3.615 -1.4742  1.0349 -0.6014
  978SOL     OW 2932   3.265   2.903   1.340 -0.1575  0.1644 -0.5025
  978SOL    HW1 2933   3.334   2.850   1.299 -0.6442  0.4147 -1.7093
  978SOL    HW2 2934   3.293   2.993   1.327 -0.2782  0.2467 -0.1945
  979SOL     OW 2935   1.361   3.163   0.317  0.3651  0.4244 -0.6167
  979SOL    HW1 2936   1.406   3.230   0.367 -0.4745  0.7326 -0.2576
  979SOL    HW2 2937   1.278   3.150   0.363 -0.1472  0.2599 -1.5672
  980SOL     OW 2938   3.117   0.329   1.303 -1.0479  0.4180 -0.0001
  980SOL    HW1 2939   3.049   0.276   1.262  1.0045 -0.4886 -2.4810
  980SOL    HW2 2940   3.172   0.358   1.231  0.6595  1.9426  1.7867
  981SOL     OW 2941   0.362   2.435   2.971  0.4693  0.4116  0.3615
  981SOL    HW1 2942   0.341   2.477   2.887  1.9055  0.0144 -0.2353
  981SOL    HW2 2943   0.295   2.368   2.981  0.2500  0.4887 -0.4659
  982SOL     OW 2944   3.614   2.968   1.475  0.0839  0.4704 -0.2453
  982SOL    HW1 2945   3.657   2.944   1.557 -2.3623  0.3917  1.1206
  982SOL    HW2 2946   3.553   2.896   1.458 -0.6996  1.3180 -1.1839
  983SOL     OW 2947   2.927   0.785   1.306 -0.0211 -0.4105  0.0509
  983SOL    HW1 2948   2.954   0.712   1.250 -2.4647  0.1084 -1.9932
  983SOL    HW2 2949   2.929   0.861   1.249 -1.6886  0.3242  0.8849
  984SOL     OW 2950   0.248   0.920   2.995  0.2504  0.5938  0.2819
  984SOL    HW1 2951   0.300   0.879   2.926  0.7122 -0.7048  1.3457
  984SOL    HW2 2952   0.302   0.910   3.074 -0.4961  1.5457  0.9349
  985SOL     OW 2953   3.199   3.703   1.363  0.7657  0.1017  0.3105
  985SOL    HW1 2954   3.254   3.766   1.409  0.1860  0.6340  0.2871
  985SOL    HW2 2955   3.202   3.624   1.418  2.8754 -0.4747 -0.5408
  986SOL     OW 2956   3.499   3.867   0.974 -0.8170  0.3116 -0.1553
  986SOL    HW1 2957   3.459   3.797   1.026 -0.5973  0.4943  0.2662
  986SOL    HW2 2958   3.443   3.943   0.991 -2.4924 -0.2884 -2.4788
  987SOL     OW 2959   0.144   1.593   1.492 -0.3349 -0.1581  0.2392
  987SOL    HW1 2960   0.225   1.550   1.521 -0.4497 -0.4938  0.0605
  987SOL    HW2 2961   0.100   1.616   1.573  0.7402  1.5805  0.3851
  988SOL     OW 2962   0.198   1.156   1.470 -0.5362 -0.5622 -0.2228
  988SOL    HW1 2963   0.180   1.066   1.444  1.3950 -0.6489 -1.5146
  988SOL    HW2 2964   0.285   1.153   1.510  0.0728  0.8327 -1.3074
  989SOL     OW 2965   0.348   1.228   3.218 -0.1802 -0.4184  0.1240
  989SOL    HW1 2966   0.280   1.170   3.252 -0.9316  0.1439 -0.3599
  989SOL    HW2 2967   0.329   1.313   3.258 -0.3132 -0.0506 -0.6843
  990SOL     OW 2968   0.563   3.528   2.639  0.5895 -0.5824  0.1178
  990SOL    HW1 2969   0.624   3.602   2.629 -0.3013  0.3792  1.4308
  990SOL    HW2 2970   0.564   3.510   2.733 -0.2139 -1.3844 -0.0217
  991SOL     OW 2971   0.251   2.307   0.787 -0.0913  0.2619 -0.4031
  991SOL    HW1 2972   0.220   2.397   0.774 -2.8314 -0.7312 -1.3872
  991SOL    HW2 2973   0.310   2.291   0.713  1.4786  1.6008  0.4819
  992SOL     OW 2974   3.591   0.731   1.770 -0.2180 -0.2210  0.2559
  992SOL    HW1 2975   3.549   0.733   1.685  0.3298  1.7806 -0.0309
  992SOL    HW2 2976   3.684   0.744   1.751 -0.1370  0.7068  1.1441
  993SOL     OW 2977   1.947   2.064   3.011  0.4553 -0.8028  0.2452
  993SOL    HW1 2978   1.879   1.997   3.011  0.3298 -0.7492  2.5310
  993SOL    HW2 2979   1.953   2.092   2.919 -0.1438 -3.2301 -0.6178
  994SOL     OW 2980   1.545   2.760   0.528  0.6625  0.2672 -0.3962
  994SOL    HW1 2981   1.607   2.687   0.527  0.2455 -0.0865 -0.5516
  994SOL    HW2 2982   1.574   2.817   0.457  0.5422 -0.1244 -0.7634
  995SOL     OW 2983   0.829   3.646   1.468 -0.3861  0.5127  0.6418
  995SOL    HW1 2984   0.771   3.570   1.470  0.7960 -0.4703 -0.5687
  995SOL    HW2 2985   0.792   3.703   1.401 -0.0399 -0.0873 -0.0883
  996SOL     OW 2986   2.441   3.252   2.152 -0.2199  0.2456 -0.6822
  996SOL    HW1 2987   2.359   3.203   2.151 -0.0300 -0.1331  0.6623
  996SOL    HW2 2988   2.438   3.303   2.233  1.2861 -0.5279 -0.0909
  997SOL     OW 2989   3.490   2.070   0.070  0.2048  0.4717 -0.0619
  997SOL    HW1 2990   3.516   2.042   0.158  1.4510 -0.3195 -0.6670
  997SOL    HW2 2991   3.509   1.995   0.014 -0.1840  1.1182 -1.0807
  998SOL     OW 2992   3.045   1.115   0.215 -0.2127 -0.1353 -0.4966
  998SOL    HW1 2993   3.088   1.109   0.129 -0.2117  1.7225 -0.6745
  998SOL    HW2 2994   2.966   1.063   0.206 -1.3326  1.7276 -2.4188
  999SOL     OW 2995   1.103   0.304   1.782 -0.3082 -0.2951  0.4879
  999SOL    HW1 2996   1.155   0.317   1.703 -1.3730 -0.3607 -0.2349
  999SOL    HW2 2997   1.139   0.224   1.821  0.5503  0.0134  0.3527
 1000SOL     OW 2998   1.540   3.492   1.768 -0.3257 -0.1821  0.3456
 1000SOL    HW1 2999   1.516   3.401   1.755  0.9393 -0.3708 -0.9590
 1000SOL    HW2 3000   1.574   3.520   1.683  1.8501  0.6869  1.4215
 1001SOL     OW 3001   0.813   3.952   2.260 -0.4532  0.0011 -0.1040
 1001SOL    HW1 3002   0.868   4.013   2.310 -0.2496 -0.7867  0.6394
 1001SOL    HW2 3003   0.831   3.975   2.168  4.2012 -2.7148 -0.1614
 1002SOL     OW 3004   0.835   1.365   0.865  0.1497 -0.5441 -0.4200
 1002SOL    HW1 3005   0.930   1.376   0.858  0.7287 -3.5823  1.1111
 1002SOL    HW2 3006   0.807   1.341   0.777  1.0387 -0.8522 -0.6322
 1003SOL     OW 3007   1.797   3.427   0.547  0.3893 -0.2475  0.1660
 1003SOL    HW1 3008   1.847   3.356   0.588  0.2890 -0.8263 -0.6771
 1003SOL    HW2 3009   1.821   3.423   0.455 -0.2293  0.3062 -0.0271
 1004SOL     OW 3010   3.843   0.993   1.936 -0.9276  0.3191 -0.1016
 1004SOL    HW1 3011   3.805   0.965   2.020  1.4429  0.0016  0.9685
 1004SOL    HW2 3012   3.892   1.072   1.958  1.0814 -0.6766 -0.7647
 1005SOL     OW 3013   2.451   2.885   3.019  0.1914  0.2496 -0.2087
 1005SOL    HW1 3014   2.410   2.829   2.953 -2.0266  1.2106  0.2700
 1005SOL    HW2 3015   2.544   2.885   2.996 -0.0597 -1.8716 -1.4878
 1006SOL     OW 3016   3.786   2.836   1.661  0.0838 -1.0114 -0.0062
 1006SOL    HW1 3017   3.870   2.839   1.709 -0.5825  0.7917  1.1391
 1006SOL    HW2 3018   3.720   2.827   1.730 -0.7017 -2.6471 -0.9097
 1007SOL     OW 3019   0.627   0.947   2.374 -0.1628 -0.5681  0.5655
 1007SOL    HW1 3020   0.536   0.961   2.398 -0.8843  1.0696 -2.6634
 1007SOL    HW2 3021   0.675   1.015   2.421 -1.0820  0.6218 -0.1690
 1008SOL     OW 3022   0.521   2.066   0.781  0.4166 -0.8722  0.5905
 1008SOL    HW1 3023   0.549   2.109   0.861  1.2030 -0.1962 -0.0365
 1008SOL    HW2 3024   0.565   1.981   0.783 -1.3905 -1.8463  1.9853
 1009SOL     OW 3025   2.809   2.240   0.682  0.4916  0.2138  0.2836
 1009SOL    HW1 3026   2.856   2.255   0.764  0.5888  1.2638  0.0493
 1009SOL    HW2 3027   2.723   2.281   0.695  0.6197  0.6648 -0.2414
 1010SOL     OW 3028   3.389   0.113   0.649  0.1935  0.0046 -0.5774
 1010SOL    HW1 3029   3.377   0.124   0.555 -1.4152 -1.9392 -0.6689
 1010SOL    HW2 3030   3.387   0.018   0.663  1.3026  0.2108  1.3234
 1011SOL     OW 3031   0.578   0.905   1.880 -0.6104  0.6543  0.8219
 1011SOL    HW1 3032   0.652   0.923   1.937  0.3335  0.1183 -0.1952
 1011SOL    HW2 3033   0.506   0.884   1.940  0.3424  0.0955  1.8164
 1012SOL     OW 3034   2.323   1.254   1.521 -0.3512  0.0190  1.0256
 1012SOL    HW1 3035   2.304   1.233   1.430  0.0858 -0.6716  1.0829
 1012SOL    HW2 3036   2.305   1.347   1.529 -0.9820 -0.0427  0.3905
 1013SOL     OW 3037   3.669   3.546   3.801  0.3743  0.7482 -0.8095
 1013SOL    HW1 3038   3.587   3.576   3.841 -0.0383 -1.7802  0.4756
 1013SOL    HW2 3039   3.675   3.595   3.719 -0.7586  3.3099  0.5132
 1014SOL     OW 3040   2.577   3.345   0.109 -0.3483 -0.9358 -0.0817
 1014SOL    HW1 3041   2.482   3.348   0.105 -0.6832  1.9279  4.0228
 1014SOL    HW2 3042   2.597   3.298   0.190  1.7825 -1.4302 -0.8033
 1015SOL     OW 3043   2.207   1.795   1.259 -0.1590  0.3643  0.3569
 1015SOL    HW1 3044   2.189   1.879   1.217 -1.0928  0.8694  1.6867
 1015SOL    HW2 3045   2.148   1.733   1.215  0.5188  0.3894 -0.6127
 1016SOL     OW 3046   2.403   3.422   3.507  0.0894  0.2786  0.3079
 1016SOL    HW1 3047   2.437   3.337   3.481  0.8570  0.6937 -0.0700
 1016SOL    HW2 3048   2.435   3.434   3.597 -2.0739 -0.8960  1.2983
 1017SOL     OW 3049   1.223   3.955   0.387 -0.4557 -0.5484  0.2980
 1017SOL    HW1 3050   1.162   3.883   0.374 -1.0574  0.0455 -0.2036
 1017SOL    HW2 3051   1.168   4.030   0.408  0.2128 -0.4606  1.9369
 1018SOL     OW 3052   3.794   0.062   0.581  0.3611  0.3212 -0.5971
 1018SOL    HW1 3053   3.707   0.094   0.558  0.0337  0.7420  1.1063
 1018SOL    HW2 3054   3.851   0.098   0.513 -0.7478  0.1930 -1.6391
 1019SOL     OW 3055   3.427   0.323   0.060  0.2676  0.2948 -0.2426
 1019SOL    HW1 3056   3.447   0.360  -0.026  3.9750  0.1066  0.3591
 1019SOL    HW2 3057   3.416   0.399   0.117  0.7072  0.4512 -0.3622
 1020SOL     OW 3058   1.205   1.431   2.617 -0.3991  0.6225 -0.2941
 1020SOL    HW1 3059   1.110   1.433   2.602 -0.0897  0.4599 -2.6536
 1020SOL    HW2 3060   1.236   1.513   2.580  0.4587  0.3073 -0.2843
 1021SOL     OW 3061   1.027   1.903   0.773  0.5470 -0.0558 -0.0274
 1021SOL    HW1 3062   0.987   1.969   0.717  1.9910  0.5869 -0.3402
 1021SOL    HW2 3063   1.082   1.851   0.715  0.8678 -0.3574  0.5336
 1022SOL     OW 3064   2.694   3.766   0.786  0.0154 -0.5805 -0.0595
 1022SOL    HW1 3065   2.678   3.707   0.860 -1.8697 -0.2886 -0.1778
 1022SOL    HW2 3066   2.780   3.804   0.804  1.4157 -3.4747 -0.0938
 1023SOL     OW 3067   3.783   3.077   2.020 -0.7486  0.8075  0.2169
 1023SOL    HW1 3068   3.763   3.126   1.940  0.8166  0.7066 -0.2663
 1023SOL    HW2 3069   3.865   3.115   2.051  1.1961 -2.2326 -0.8298
 1024SOL     OW 3070   0.949   2.973   3.362  0.0019 -0.5083  0.1192
 1024SOL    HW1 3071   0.909   2.954   3.447 -0.2348  0.0347  0.1341
 1024SOL    HW2 3072   0.881   2.952   3.298 -0.3558  0.4828  0.1476
 1025SOL     OW 3073   3.434   1.737   3.119 -0.4788  0.0416 -0.0517
 1025SOL    HW1 3074   3.431   1.832   3.119 -0.1578  0.0724  1.4066
 1025SOL    HW2 3075   3.482   1.714   3.039  1.5851  1.2077  0.7730
 1026SOL     OW 3076   1.727   1.930   1.862 -0.3614 -0.5786  0.0766
 1026SOL    HW1 3077   1.678   1.950   1.783  0.4778 -2.0612 -0.8591
 1026SOL    HW2 3078   1.672   1.868   1.910  0.6248 -2.4287 -1.0883
 1027SOL     OW 3079   0.126   2.088   2.247 -0.1097  0.1487 -0.1833
 1027SOL    HW1 3080   0.094   2.075   2.157  0.0939  1.5326 -0.4766
 1027SOL    HW2 3081   0.198   2.151   2.238  0.4264 -0.2853  0.8703
 1028SOL     OW 3082   3.633   1.300   1.669 -0.1392 -0.0348 -0.2641
 1028SOL    HW1 3083   3.600   1.354   1.597  0.2624 -1.0647 -1.2562
 1028SOL    HW2 3084   3.721   1.275   1.641 -0.7267 -2.1306 -0.4024
 1029SOL     OW 3085   2.769   2.792   2.396 -0.4238 -0.4272 -0.8557
 1029SOL    HW1 3086   2.831   2.841   2.450  0.5618 -0.6321 -1.7603
 1029SOL    HW2 3087   2.768   2.840   2.313 -1.2916 -0.5798 -0.9386
 1030SOL     OW 3088   1.955   2.036   1.397 -0.2995  0.4844  0.4152
 1030SOL    HW1 3089   1.897   2.006   1.327 -1.8698  1.3097  1.3178
 1030SOL    HW2 3090   2.006   2.107   1.358 -2.1706  1.9127  0.4517
 1031SOL     OW 3091   2.000   2.690   2.098  0.4561 -0.5315  0.3052
 1031SOL    HW1 3092   1.957   2.768   2.064  2.5131  1.0347  1.0920
 1031SOL    HW2 3093   2.010   2.632   2.023 -0.7593  0.1041 -0.3694
 1032SOL     OW 3094   0.443   0.864   2.106  0.0268 -0.3876  0.1495
 1032SOL    HW1 3095   0.368   0.869   2.165 -0.7368 -0.7349 -0.7747
 1032SOL    HW2 3096   0.518   0.851   2.165 -0.4858  0.9312  1.1548
 1033SOL     OW 3097   3.279   0.659   0.674 -0.9558 -0.2290  0.3364
 1033SOL    HW1 3098   3.199   0.612   0.698 -2.0375  1.6283  0.6109
 1033SOL    HW2 3099   3.273   0.742   0.723  0.6715  0.3516 -0.3900
 1034SOL     OW 3100   2.768   1.613   1.729  0.4724  0.4025  0.1377
 1034SOL    HW1 3101   2.694   1.557   1.705  1.3415 -0.4132 -0.7165
 1034SOL    HW2 3102   2.825   1.557   1.782  1.1651  0.5849 -0.3979
 1035SOL     OW 3103   1.096   1.007   2.198 -0.1081 -0.4527  0.4335
 1035SOL    HW1 3104   1.093   0.917   2.164  1.7762 -0.7914  1.0226
 1035SOL    HW2 3105   1.072   0.998   2.290 -1.3877 -0.0985  0.1578
 1036SOL     OW 3106   1.836   1.866   2.791  0.0240  0.1407  0.3881
 1036SOL    HW1 3107   1.859   1.849   2.883 -1.5854 -0.7133  0.6608
 1036SOL    HW2 3108   1.742   1.883   2.793  0.0130  0.3148 -1.0966
 1037SOL     OW 3109   2.930   3.883   0.977  0.1773  0.0320 -0.4802
 1037SOL    HW1 3110   2.897   3.908   0.891  0.4941  1.2059 -0.2882
 1037SOL    HW2 3111   3.001   3.822   0.959 -0.2374 -0.3003 -1.0155
 1038SOL     OW 3112   1.632   3.306   2.124  0.1468 -0.1427  0.1402
 1038SOL    HW1 3113   1.688   3.322   2.048 -1.0552  0.9798 -0.5383
 1038SOL    HW2 3114   1.561   3.251   2.092  1.2633 -2.3178  1.2044
 1039SOL     OW 3115   0.790   1.106   1.528 -0.1361 -0.0118 -0.1382
 1039SOL    HW1 3116   0.719   1.169   1.542 -0.4388  0.1744 -2.2128
 1039SOL    HW2 3117   0.745   1.022   1.520  0.2291 -0.4989  2.1064
 1040SOL     OW 3118   3.733   3.245   0.487 -0.1741  0.2952 -0.3794
 1040SOL    HW1 3119   3.795   3.246   0.413 -2.8539  1.3096 -2.8210
 1040SOL    HW2 3120   3.732   3.335   0.519 -1.8822  0.8956 -1.8837
 1041SOL     OW 3121   2.421   2.987   0.686  0.5917 -0.2261  0.7929
 1041SOL    HW1 3122   2.328   3.003   0.702  0.7255  0.3673  1.0004
 1041SOL    HW2 3123   2.456   2.963   0.771  0.7592  0.2150  0.8502
 1042SOL     OW 3124   3.464   0.341   0.365 -0.2601  0.2915  0.2006
 1042SOL    HW1 3125   3.420   0.406   0.309 -0.0798  1.3441  1.2299
 1042SOL    HW2 3126   3.409   0.263   0.360  0.1889  0.0730 -2.0742
 1043SOL     OW 3127   3.162   0.303   0.263  1.0998  0.0560  0.7035
 1043SOL    HW1 3128   3.094   0.244   0.231 -0.0583  2.3966 -1.5499
 1043SOL    HW2 3129   3.138   0.320   0.354 -1.7891  1.2255 -0.1449
 1044SOL     OW 3130   0.884   1.938   0.084  0.3408 -0.2799  0.2650
 1044SOL    HW1 3131   0.950   1.967   0.147  0.5186 -0.6483  0.2455
 1044SOL    HW2 3132   0.808   1.917   0.138  0.0649  0.6130  0.2488
 1045SOL     OW 3133   3.265   0.403   0.551 -0.1741 -0.2442  0.6538
 1045SOL    HW1 3134   3.297   0.480   0.598  0.6262  0.5678 -1.1278
 1045SOL    HW2 3135   3.341   0.372   0.502 -0.6033 -1.9266  0.9984
 1046SOL     OW 3136   1.121   2.073   1.371 -0.1953  0.7675 -0.1615
 1046SOL    HW1 3137   1.119   2.031   1.285  1.3028  0.0639  0.1187
 1046SOL    HW2 3138   1.103   2.165   1.353  0.0901  0.6285 -1.2310
 1047SOL     OW 3139   2.759   3.943   0.178 -0.2855  0.0085 -0.3231
 1047SOL    HW1 3140   2.716   3.861   0.206  0.5233 -0.3131 -0.0089
 1047SOL    HW2 3141   2.789   3.983   0.259 -1.6742  1.2116 -0.3553
 1048SOL     OW 3142   0.282   3.951   3.633 -0.0940 -0.0585  0.2040
 1048SOL    HW1 3143   0.317   3.883   3.691 -0.9940  0.0806  0.9305
 1048SOL    HW2 3144   0.187   3.934   3.630 -0.3374  1.1693  0.4099
 1049SOL     OW 3145   3.350   2.528   0.486  0.2602  0.2414 -0.5910
 1049SOL    HW1 3146   3.381   2.618   0.477  0.0895  0.2952 -0.6431
 1049SOL    HW2 3147   3.306   2.526   0.571  0.0450  0.2715 -0.7017
 1050SOL     OW 3148   3.468   1.140   3.293 -0.6193  0.1794 -0.6271
 1050SOL    HW1 3149   3.485   1.229   3.323  1.0637 -0.4638  0.4512
 1050SOL    HW2 3150   3.390   1.113   3.341 -0.2185  0.5199  0.2261
 1051SOL     OW 3151   1.718   2.926   2.401 -0.8381 -0.4271 -0.2588
 1051SOL    HW1 3152   1.769   2.846   2.405  0.0531  0.0050 -2.0120
 1051SOL    HW2 3153   1.744   2.975   2.479  0.5436 -0.7467 -0.5008
 1052SOL     OW 3154   3.946   2.583   1.937  0.1710 -0.2830 -0.4543
 1052SOL    HW1 3155   4.001   2.660   1.945 -1.1471  0.7486 -1.0050
 1052SOL    HW2 3156   3.861   2.610   1.970  0.0084 -1.9016  0.5817
 1053SOL     OW 3157   3.418   1.624   2.849 -0.4110 -0.7146 -0.1700
 1053SOL    HW1 3158   3.347   1.636   2.787 -0.8016  0.3581  0.4739
 1053SOL    HW2 3159   3.462   1.708   2.853  0.4257 -1.1461  0.0252
 1054SOL     OW 3160   1.043   3.676   0.016  0.1666 -0.6296 -0.1333
 1054SOL    HW1 3161   1.009   3.599  -0.029  1.3024  0.2908 -2.7117
 1054SOL    HW2 3162   0.969   3.736   0.021 -0.1741 -1.0532  0.0008
 1055SOL     OW 3163   3.071   0.552   3.168 -0.4690  0.5408  0.0173
 1055SOL    HW1 3164   2.976   0.543   3.160 -0.2708 -1.1777 -0.7466
 1055SOL    HW2 3165   3.088   0.546   3.262 -0.9666 -0.9626  0.0308
 1056SOL     OW 3166   2.827   1.912   0.936 -0.0792 -0.0435  0.6258
 1056SOL    HW1 3167   2.758   1.975   0.914 -1.4621 -1.9815 -0.9318
 1056SOL    HW2 3168   2.890   1.919   0.865 -0.4089 -0.6244  0.2680
 1057SOL     OW 3169   3.458   1.674   0.305  0.2896  0.7723  0.0331
 1057SOL    HW1 3170   3.497   1.586   0.301  0.8275  1.0274 -0.7696
 1057SOL    HW2 3171   3.367   1.659   0.328 -0.0118 -0.1414 -1.6025
 1058SOL     OW 3172   1.219   1.957   2.475  0.3714  0.6980  0.2028
 1058SOL    HW1 3173   1.268   2.001   2.406  1.1869  1.5743  1.2950
 1058SOL    HW2 3174   1.129   1.951   2.441  1.3198 -1.7923 -2.2450
 1059SOL     OW 3175   0.106   3.992   0.690 -0.0067  0.5325 -0.6430
 1059SOL    HW1 3176   0.181   3.938   0.716 -1.4984 -2.5048 -2.0747
 1059SOL    HW2 3177   0.048   3.992   0.766  0.5649  1.2009 -0.2052
 1060SOL     OW 3178   1.245   0.118   0.996  0.3257  0.0823 -0.4580
 1060SOL    HW1 3179   1.256   0.033   0.954 -0.3700  1.1579 -2.9842
 1060SOL    HW2 3180   1.194   0.169   0.934 -0.3150  1.9900  1.5223
 1061SOL     OW 3181   1.345   0.518   3.943 -0.4100 -0.0618 -0.5810
 1061SOL    HW1 3182   1.287   0.488   4.013  0.6373  0.9743  0.8113
 1061SOL    HW2 3183   1.342   0.614   3.949 -0.0569  0.0377 -1.7724
 1062SOL     OW 3184   1.218   1.508   3.354  0.1598 -0.0324 -0.6937
 1062SOL    HW1 3185   1.182   1.420   3.369 -1.4760  0.6797 -0.2154
 1062SOL    HW2 3186   1.296   1.512   3.409 -0.4116 -0.7930  0.1984
 1063SOL     OW 3187   2.236   3.676   3.385  0.2088  0.1154  0.0227
 1063SOL    HW1 3188   2.243   3.610   3.454 -0.9867 -1.6447 -1.4309
 1063SOL    HW2 3189   2.288   3.640   3.313 -0.5504  0.7040 -0.8397
 1064SOL     OW 3190   0.719   3.169   3.460  0.0074 -0.0125  0.3563
 1064SOL    HW1 3191   0.701   3.133   3.547 -0.6304 -2.6658 -0.7736
 1064SOL    HW2 3192   0.683   3.257   3.463 -0.2493 -0.1220  2.6760
 1065SOL     OW 3193   0.150   1.365   1.024  0.6723  0.0688 -0.4808
 1065SOL    HW1 3194   0.190   1.440   1.068 -0.8580  0.1516  0.8304
 1065SOL    HW2 3195   0.167   1.380   0.931 -0.9840  2.9325 -0.4222
 1066SOL     OW 3196   3.019   1.525   0.011  0.0085 -0.3032 -0.6585
 1066SOL    HW1 3197   2.936   1.565   0.035  0.0089 -0.6650 -0.0230
 1066SOL    HW2 3198   3.052   1.488   0.093  1.9166  1.8088 -0.3789
 1067SOL     OW 3199   3.238   2.855   0.289 -0.9304 -0.3183  0.2545
 1067SOL    HW1 3200   3.196   2.818   0.366  0.0138  2.6673  2.3903
 1067SOL    HW2 3201   3.166   2.888   0.235 -1.6763 -3.5511 -0.9148
 1068SOL     OW 3202   3.938   2.991   2.352  0.0893  0.2345  0.3725
 1068SOL    HW1 3203   4.018   2.986   2.300  0.6746  3.0852  0.8636
 1068SOL    HW2 3204   3.881   2.924   2.313  1.9978 -0.5679 -1.2222
 1069SOL     OW 3205   0.581   0.938   3.863 -0.6069  0.2476  0.2137
 1069SOL    HW1 3206   0.658   0.891   3.894 -0.7375 -1.2143 -1.5182
 1069SOL    HW2 3207   0.507   0.883   3.890 -0.9363  0.7944  0.4326
 1070SOL     OW 3208   2.336   1.305   0.326  0.3959 -0.4711 -0.4049
 1070SOL    HW1 3209   2.382   1.250   0.263  0.1446  0.6132 -1.5780
 1070SOL    HW2 3210   2.244   1.300   0.301  0.1592 -0.7875  0.4823
 1071SOL     OW 3211   2.416   3.592   3.207 -0.4734 -0.4301  0.0438
 1071SOL    HW1 3212   2.422   3.642   3.126  0.5736  0.4789  0.6625
 1071SOL    HW2 3213   2.499   3.546   3.213 -0.1425  0.2766  1.0787
 1072SOL     OW 3214   0.485   0.608   3.517 -0.2591  0.6095 -0.2913
 1072SOL    HW1 3215   0.438   0.688   3.493 -0.2478  0.6378 -0.2176
 1072SOL    HW2 3216   0.443   0.579   3.598 -3.4726 -2.0163 -2.6368
 1073SOL     OW 3217   2.833   1.456   0.712 -0.0083  0.1445  0.2911
 1073SOL    HW1 3218   2.830   1.547   0.684 -2.0680 -0.6751 -2.5696
 1073SOL    HW2 3219   2.741   1.429   0.717  0.5654 -1.9502  0.4331
 1074SOL     OW 3220   2.988   1.789   3.272 -0.0644 -0.4400 -0.4694
 1074SOL    HW1 3221   2.993   1.840   3.353  0.6473 -1.7944  0.3881
 1074SOL    HW2 3222   3.059   1.725   3.280 -2.1440 -2.9315 -0.4826
 1075SOL     OW 3223   0.803   0.071   1.512 -0.1156  0.4626  1.0257
 1075SOL    HW1 3224   0.795   0.167   1.513  1.2308  0.5968  1.6573
 1075SOL    HW2 3225   0.725   0.040   1.558 -1.0368  1.1965  0.0191
 1076SOL     OW 3226   0.867   0.800   2.722 -0.5939 -0.2535 -0.1691
 1076SOL    HW1 3227   0.918   0.878   2.701 -0.3266 -0.1736  0.7442
 1076SOL    HW2 3228   0.795   0.832   2.776  0.3613 -0.8088  1.5099
 1077SOL     OW 3229   3.877   2.758   2.607  0.0069  1.0183 -0.1076
 1077SOL    HW1 3230   3.836   2.741   2.522 -0.7634 -0.0653  0.4555
 1077SOL    HW2 3231   3.850   2.847   2.630  1.0064  1.6929 -1.4161
 1078SOL     OW 3232   1.039   2.583   0.614 -0.7771  0.1204  0.2149
 1078SOL    HW1 3233   1.038   2.508   0.555  0.0657  1.0005 -0.9757
 1078SOL    HW2 3234   1.131   2.594   0.638 -0.4802  2.1779 -1.5675
 1079SOL     OW 3235   1.241   2.041   2.130  0.3400  0.1209 -0.0413
 1079SOL    HW1 3236   1.241   2.133   2.104 -1.0132  0.4792  1.0728
 1079SOL    HW2 3237   1.317   2.032   2.188 -0.7951  1.1655  1.7150
 1080SOL     OW 3238   0.158   2.008   0.558 -0.4165 -0.3870  0.1473
 1080SOL    HW1 3239   0.195   1.991   0.644 -1.0444 -1.2681  0.2507
 1080SOL    HW2 3240   0.230   1.992   0.497 -0.2319 -0.6638  0.4390
 1081SOL     OW 3241   0.280   1.538   1.237 -0.2722 -0.7223  0.0828
 1081SOL    HW1 3242   0.202   1.553   1.291  0.4962  1.5184  0.6742
 1081SOL    HW2 3243   0.352   1.534   1.299  0.2195 -1.7653 -0.5359
 1082SOL     OW 3244   1.385   1.378   2.048 -0.3394 -0.0393 -0.3673
 1082SOL    HW1 3245   1.424   1.291   2.050 -0.6005 -0.1546 -0.1860
 1082SOL    HW2 3246   1.295   1.364   2.079 -0.9083  0.0273 -1.9167
 1083SOL     OW 3247   1.237   2.097   0.074  0.4864 -0.2018  0.3608
 1083SOL    HW1 3248   1.244   2.188   0.044 -2.5649 -0.8581 -3.0607
 1083SOL    HW2 3249   1.284   2.046   0.008  0.3896 -1.2635  1.0895
 1084SOL     OW 3250   0.990   2.219   0.741 -0.4200 -0.3414 -0.8593
 1084SOL    HW1 3251   0.909   2.220   0.791  0.0458  2.3348  0.0276
 1084SOL    HW2 3252   0.964   2.192   0.653 -2.1884 -0.0496 -0.4651
 1085SOL     OW 3253   3.492   2.059   2.404 -0.6791 -0.1347 -0.3844
 1085SOL    HW1 3254   3.404   2.045   2.440 -1.0730 -1.0987 -1.6820
 1085SOL    HW2 3255   3.516   1.975   2.365  1.7050 -0.5780  1.7269
 1086SOL     OW 3256   2.774   0.425   0.703  0.4469 -0.0353 -0.0316
 1086SOL    HW1 3257   2.695   0.477   0.715  1.3815  1.0965  1.7384
 1086SOL    HW2 3258   2.825   0.475   0.639  1.0545  0.9643  1.1763
 1087SOL     OW 3259   3.627   2.116   3.575  0.6087 -0.3711 -0.4800
 1087SOL    HW1 3260   3.715   2.107   3.612  0.1297  0.6716  1.0428
 1087SOL    HW2 3261   3.596   2.027   3.563  0.0854 -0.9077  3.5642
 1088SOL     OW 3262   0.974   3.378   2.095 -0.0143 -0.5303  0.4420
 1088SOL    HW1 3263   0.985   3.410   2.185 -0.3370 -2.8642  1.3950
 1088SOL    HW2 3264   0.977   3.456   2.041  1.1558  0.8647  2.3990
 1089SOL     OW 3265   0.430   2.623   2.280 -0.5176 -0.1112  0.5468
 1089SOL    HW1 3266   0.477   2.634   2.197 -1.7481  1.0482 -0.0436
 1089SOL    HW2 3267   0.337   2.633   2.256 -0.8475  1.1833  2.2005
 1090SOL     OW 3268   0.988   3.930   0.731  0.2246  0.2519  0.0662
 1090SOL    HW1 3269   1.007   3.839   0.708  1.0226  0.4547 -0.1335
 1090SOL    HW2 3270   0.917   3.925   0.794  1.1088 -0.5903  1.0293
 1091SOL     OW 3271   2.377   3.823   3.009 -0.1116  0.0534  0.1940
 1091SOL    HW1 3272   2.288   3.843   2.980  0.4840  2.2018 -0.3414
 1091SOL    HW2 3273   2.424   3.906   2.999  1.9633 -1.0430  0.4326
 1092SOL     OW 3274   1.682   0.969   2.636  0.0812 -0.3812 -0.9327
 1092SOL    HW1 3275   1.717   0.881   2.641  1.5869  0.2634  1.0150
 1092SOL    HW2 3276   1.756   1.026   2.655 -1.2544  1.2207 -0.2491
 1093SOL     OW 3277   1.309   3.533   1.529  0.2596  0.0424 -0.2776
 1093SOL    HW1 3278   1.223   3.546   1.490 -0.2239 -0.6156  0.5176
 1093SOL    HW2 3279   1.360   3.487   1.462  0.6241  2.0747 -1.4637
 1094SOL     OW 3280   2.629   3.957   1.896  0.2922 -0.1656 -0.1602
 1094SOL    HW1 3281   2.584   3.880   1.932 -0.8541  1.9328  3.3829
 1094SOL    HW2 3282   2.719   3.948   1.926  0.5251 -0.7841 -1.0042
 1095SOL     OW 3283   0.059   0.391   0.453  0.4531  0.2406  0.5837
 1095SOL    HW1 3284  -0.021   0.340   0.439  1.1342 -2.1528  4.0262
 1095SOL    HW2 3285   0.028   0.476   0.486 -0.7258 -0.5332  1.5750
 1096SOL     OW 3286   0.181   2.667   3.192 -0.4704 -0.0303  0.5028
 1096SOL    HW1 3287   0.197   2.580   3.154 -0.4464  0.7105 -1.2520
 1096SOL    HW2 3288   0.109   2.703   3.140  0.2992  1.4594  0.4240
 1097SOL     OW 3289   2.082   1.413   3.349  0.6522 -0.1988  0.6552
 1097SOL    HW1 3290   2.129   1.333   3.375  0.9855 -0.2667 -0.1177
 1097SOL    HW2 3291   2.118   1.481   3.405  0.4645 -0.5670  1.2291
 1098SOL     OW 3292   2.640   2.285   1.598 -0.4398  0.2946 -1.3447
 1098SOL    HW1 3293   2.645   2.316   1.508  0.5670  0.3120 -1.2944
 1098SOL    HW2 3294   2.575   2.215   1.596  1.1753 -1.2811 -2.5834
 1099SOL     OW 3295   0.227   2.971   1.850  0.1151 -0.3799 -0.1899
 1099SOL    HW1 3296   0.231   3.033   1.777  1.3531 -0.0363  0.1459
 1099SOL    HW2 3297   0.318   2.944   1.864  0.0408  0.1718  1.7208
 1100SOL     OW 3298   1.373   0.353   3.482 -0.1040 -0.2085 -0.6504
 1100SOL    HW1 3299   1.394   0.260   3.473 -0.9565 -0.4442 -0.3254
 1100SOL    HW2 3300   1.321   0.358   3.562  0.9190  0.7270 -0.0134
 1101SOL     OW 3301   1.362   1.036   0.805 -0.6179  0.2536  0.0442
 1101SOL    HW1 3302   1.326   1.027   0.893 -2.7246  0.8704 -0.6762
 1101SOL    HW2 3303   1.313   1.109   0.767  1.6359  1.3277 -1.0020
 1102SOL     OW 3304   2.276   2.741   0.713  0.5344 -0.2950  0.3845
 1102SOL    HW1 3305   2.191   2.776   0.739  1.3653  1.4984  0.8307
 1102SOL    HW2 3306   2.325   2.818   0.683  1.4082 -1.5380 -1.5615
 1103SOL     OW 3307   1.534   1.005   3.052 -0.6593  0.1552 -0.2662
 1103SOL    HW1 3308   1.570   0.916   3.043 -2.0400 -0.6789  1.6803
 1103SOL    HW2 3309   1.514   1.032   2.962 -1.1777 -1.9568 -0.8534
 1104SOL     OW 3310   1.448   3.150   0.954 -0.0644 -0.1611 -0.4247
 1104SOL    HW1 3311   1.478   3.135   1.044  1.1996 -1.6584 -1.0457
 1104SOL    HW2 3312   1.363   3.106   0.950  1.1611 -2.6831 -0.6873
 1105SOL     OW 3313   1.039   1.229   1.541 -0.0338 -0.1094 -0.3679
 1105SOL    HW1 3314   1.041   1.286   1.618  1.1629 -1.3946  0.6110
 1105SOL    HW2 3315   0.948   1.202   1.533  0.3128 -2.8345  2.8805
 1106SOL     OW 3316   3.210   1.263   3.733 -0.2076 -0.1575 -0.2452
 1106SOL    HW1 3317   3.282   1.293   3.677  1.9495 -1.4903  1.6233
 1106SOL    HW2 3318   3.163   1.343   3.756  1.1602  0.8838 -0.8847
 1107SOL     OW 3319   1.987   3.545   0.303  0.4112 -0.0124  0.2256
 1107SOL    HW1 3320   1.963   3.452   0.296 -0.8558  0.4130 -2.5236
 1107SOL    HW2 3321   2.056   3.556   0.237  1.4482  0.7828  1.4055
 1108SOL     OW 3322   3.574   0.892   0.087 -0.4701  0.1257  0.3339
 1108SOL    HW1 3323   3.616   0.937   0.160 -0.5287 -0.0567  0.4837
 1108SOL    HW2 3324   3.598   0.942   0.010 -1.6503  1.2223  0.6403
 1109SOL     OW 3325   2.038   0.693   3.341 -0.1874  0.0619 -0.0651
 1109SOL    HW1 3326   1.967   0.748   3.307 -0.8501  0.3640  1.7048
 1109SOL    HW2 3327   2.109   0.755   3.359  0.3771 -0.1738 -1.3572
 1110SOL     OW 3328   0.991   2.582   2.136 -0.0267  0.4160 -0.5241
 1110SOL    HW1 3329   0.919   2.546   2.188  0.5019  1.1687  0.7732
 1110SOL    HW2 3330   1.059   2.604   2.200  1.2153  0.0941 -1.6761
 1111SOL     OW 3331   2.209   0.591   2.620  0.5569 -0.1439  0.2384
 1111SOL    HW1 3332   2.193   0.613   2.712 -2.2162 -0.2836 -0.1245
 1111SOL    HW2 3333   2.127   0.612   2.576  2.0327  0.5621 -2.3724
 1112SOL     OW 3334   1.544   0.909   3.577  0.0785 -0.5443  0.7421
 1112SOL    HW1 3335   1.556   0.979   3.642 -0.9207 -0.4025  0.7905
 1112SOL    HW2 3336   1.633   0.890   3.546  0.2938  1.8121 -0.3785
 1113SOL     OW 3337   1.299   3.828   2.037 -0.0364 -0.0109 -0.1339
 1113SOL    HW1 3338   1.236   3.758   2.021  2.7321 -2.5448 -0.9640
 1113SOL    HW2 3339   1.268   3.870   2.117 -2.2082 -1.7643  0.0534
 1114SOL     OW 3340   3.659   2.713   0.037 -0.4377  0.2462  0.2113
 1114SOL    HW1 3341   3.689   2.682  -0.049 -1.2325  4.2542 -1.7768
 1114SOL    HW2 3342   3.567   2.686   0.041 -0.0199 -1.1914  0.5122
 1115SOL     OW 3343   2.731   3.393   1.734 -0.3894 -0.5131  0.4566
 1115SOL    HW1 3344   2.651   3.446   1.743 -2.0225 -2.5086 -1.2617
 1115SOL    HW2 3345   2.733   3.339   1.813  1.7246  2.4310  2.6242
 1116SOL     OW 3346   2.257   3.743   1.714 -0.3941 -0.0536  0.1602
 1116SOL    HW1 3347   2.188   3.683   1.684 -0.1457 -0.1700 -0.1842
 1116SOL    HW2 3348   2.219   3.787   1.790  0.5689 -3.0614  2.5755
 1117SOL     OW 3349   3.128   3.923   3.277 -0.6380  0.0376 -0.3639
 1117SOL    HW1 3350   3.166   4.010   3.293  0.9744 -0.8298  0.8077
 1117SOL    HW2 3351   3.074   3.907   3.354 -0.0434 -0.4455 -0.0426
 1118SOL     OW 3352   0.338   0.872   1.143  0.1187  0.1495 -0.5104
 1118SOL    HW1 3353   0.428   0.845   1.162 -0.4314 -0.0747  2.1564
 1118SOL    HW2 3354   0.300   0.796   1.098  1.3150  0.3965 -2.0461
 1119SOL     OW 3355   0.836   1.032   1.200  0.1380  1.4733  0.1894
 1119SOL    HW1 3356   0.795   1.088   1.134 -0.1464  1.2230  0.1495
 1119SOL    HW2 3357   0.848   1.089   1.276 -2.3397  1.0395  1.0015
 1120SOL     OW 3358   0.759   3.066   0.181 -0.3695  0.2084 -0.2858
 1120SOL    HW1 3359   0.688   3.128   0.167  0.9029  2.0216  0.8528
 1120SOL    HW2 3360   0.839   3.117   0.167  0.7330 -1.4129 -0.2023
 1121SOL     OW 3361   3.845   1.205   2.812  0.4230  0.4391 -0.4102
 1121SOL    HW1 3362   3.900   1.278   2.786 -0.3393  1.0740 -0.2896
 1121SOL    HW2 3363   3.814   1.167   2.730  0.9689  0.1364 -0.4755
 1122SOL     OW 3364   1.307   2.073   3.473  0.5123 -0.7553 -0.6018
 1122SOL    HW1 3365   1.369   2.100   3.541  0.3450 -2.4206  0.2820
 1122SOL    HW2 3366   1.221   2.077   3.517  0.0831  0.5421 -1.5009
 1123SOL     OW 3367   3.929   2.513   2.722  0.0161  0.1212 -0.2684
 1123SOL    HW1 3368   3.868   2.499   2.794 -0.3591 -0.2107 -0.6484
 1123SOL    HW2 3369   3.902   2.597   2.684  1.3205  1.2058  1.0638
 1124SOL     OW 3370   1.810   3.415   1.884 -0.0716 -0.0355 -0.2798
 1124SOL    HW1 3371   1.789   3.465   1.806 -0.0638  0.6811  0.1686
 1124SOL    HW2 3372   1.874   3.350   1.855  1.0177  1.1385 -0.6012
 1125SOL     OW 3373   2.459   0.708   0.037  0.0187  0.3471 -0.1687
 1125SOL    HW1 3374   2.549   0.683   0.018  0.3129  0.7833  0.6116
 1125SOL    HW2 3375   2.421   0.729  -0.049  0.4640 -0.4588 -0.5651
 1126SOL     OW 3376   1.782   3.248   3.126 -0.0564 -0.3202  0.7559
 1126SOL    HW1 3377   1.788   3.305   3.049  1.6044 -0.5772  0.6655
 1126SOL    HW2 3378   1.704   3.195   3.110  0.1077 -0.1827 -0.6400
 1127SOL     OW 3379   2.706   0.193   1.188 -0.2510 -0.2019 -0.2230
 1127SOL    HW1 3380   2.660   0.240   1.258 -1.9537  0.5763 -1.7654
 1127SOL    HW2 3381   2.799   0.204   1.209 -0.6692  1.5144  0.9573
 1128SOL     OW 3382   2.940   0.515   0.517  0.7908 -0.2791 -0.0488
 1128SOL    HW1 3383   2.996   0.438   0.513  2.2571  0.7996 -1.0975
 1128SOL    HW2 3384   2.947   0.555   0.431 -0.6965  0.5418  0.1651
 1129SOL     OW 3385   1.130   1.137   0.744  0.1908 -0.3865 -0.0421
 1129SOL    HW1 3386   1.114   1.188   0.824  0.3172 -1.4008  0.6410
 1129SOL    HW2 3387   1.066   1.066   0.747  0.1734 -0.4138 -0.8708
 1130SOL     OW 3388   0.992   0.596   3.403  0.5298  0.2278 -0.1711
 1130SOL    HW1 3389   1.061   0.591   3.468  0.5508 -1.1832 -0.2648
 1130SOL    HW2 3390   0.920   0.544   3.439  0.5203 -0.5403 -1.2275
 1131SOL     OW 3391   1.840   3.765   0.300 -0.0372 -0.2125 -0.0064
 1131SOL    HW1 3392   1.879   3.786   0.385 -0.2229  0.3291 -0.0543
 1131SOL    HW2 3393   1.884   3.685   0.273 -1.1742 -1.3966  1.4148
 1132SOL     OW 3394   1.930   1.506   2.012 -0.1676 -0.4355 -0.4493
 1132SOL    HW1 3395   1.893   1.576   1.957 -0.6090 -0.2091  0.1271
 1132SOL    HW2 3396   1.955   1.438   1.950  1.7203  0.8410 -1.1949
 1133SOL     OW 3397   2.424   3.814   1.492 -0.0526  0.1716 -0.1162
 1133SOL    HW1 3398   2.512   3.841   1.518  0.7134 -1.9974 -0.2440
 1133SOL    HW2 3399   2.379   3.795   1.574  0.5342 -1.3207 -0.1054
 1134SOL     OW 3400   3.650   0.139   1.164  0.1631  0.7176 -0.1994
 1134SOL    HW1 3401   3.701   0.210   1.202 -1.4453  0.8586  1.9083
 1134SOL    HW2 3402   3.706   0.062   1.173  1.1478  1.3634 -0.6792
 1135SOL     OW 3403   3.974   1.725   1.966  0.4987 -0.4041  0.1033
 1135SOL    HW1 3404   3.902   1.778   1.998  0.1504 -1.2686  0.7938
 1135SOL    HW2 3405   3.962   1.640   2.008  1.4786 -0.7983 -0.3754
 1136SOL     OW 3406   1.520   0.876   1.690 -0.3026 -0.0311 -0.7108
 1136SOL    HW1 3407   1.431   0.900   1.716 -0.1842  0.5089 -0.7932
 1136SOL    HW2 3408   1.511   0.790   1.649 -0.4561 -1.1258  1.4368
 1137SOL     OW 3409   2.644   3.080   1.384 -0.5004  0.2063  0.8484
 1137SOL    HW1 3410   2.558   3.124   1.384 -1.1540 -1.0113  0.2944
 1137SOL    HW2 3411   2.626   2.993   1.348  1.0565  0.0827  0.2804
 1138SOL     OW 3412   0.860   2.630   2.816  0.4251 -0.1224  0.1521
 1138SOL    HW1 3413   0.830   2.540   2.826  1.3890 -0.7406 -2.0580
 1138SOL    HW2 3414   0.820   2.660   2.735  0.0848  1.4977  0.8679
 1139SOL     OW 3415   3.906   3.488   1.296  0.0485 -0.4546 -0.4911
 1139SOL    HW1 3416   3.816   3.502   1.266  0.3695  1.0927 -0.8653
 1139SOL    HW2 3417   3.926   3.566   1.347  0.3341 -1.9687  1.8466
 1140SOL     OW 3418   3.707   2.587   3.790  0.7266 -0.3476 -0.1092
 1140SOL    HW1 3419   3.658   2.508   3.770  2.6118 -1.6979  0.3174
 1140SOL    HW2 3420   3.652   2.659   3.758 -2.3515 -1.5762  1.9746
 1141SOL     OW 3421   2.552   3.202   0.343 -0.2934 -0.3126  0.1218
 1141SOL    HW1 3422   2.561   3.125   0.400  2.5456 -0.3311 -0.2041
 1141SOL    HW2 3423   2.567   3.277   0.400 -0.0260 -0.1858 -0.1118
 1142SOL     OW 3424   3.166   3.502   0.146  0.2696  0.1627  0.1639
 1142SOL    HW1 3425   3.159   3.585   0.098  4.5191  0.7046  0.0831
 1142SOL    HW2 3426   3.079   3.488   0.183 -1.6015  2.7421 -2.8038
 1143SOL     OW 3427   1.910   1.275   2.346 -0.3319 -0.2363 -0.6958
 1143SOL    HW1 3428   1.892   1.366   2.321 -0.2135 -0.0107  0.0131
 1143SOL    HW2 3429   1.833   1.226   2.318 -1.3685  0.4421  0.8399
 1144SOL     OW 3430   0.562   2.259   2.675 -0.1192 -0.0971  0.1104
 1144SOL    HW1 3431   0.561   2.346   2.634 -1.5438 -0.6590 -1.1109
 1144SOL    HW2 3432   0.600   2.202   2.609 -1.7773 -0.8841 -0.2056
 1145SOL     OW 3433   0.533   3.374   3.850  0.6650  0.1402  0.8678
 1145SOL    HW1 3434   0.497   3.310   3.911 -0.7109  1.3906  1.4359
 1145SOL    HW2 3435   0.500   3.458   3.881 -0.6573  0.7799 -1.9295
 1146SOL     OW 3436   2.515   1.482   1.671 -0.4045 -0.4885 -0.0792
 1146SOL    HW1 3437   2.448   1.498   1.738 -0.3825 -0.2127 -0.1246
 1146SOL    HW2 3438   2.477   1.519   1.591  0.1975  0.5129  0.0835
 1147SOL     OW 3439   0.905   2.581   1.059  0.1045  0.1777 -0.1824
 1147SOL    HW1 3440   0.899   2.657   1.117  0.0390  0.4088 -0.4842
 1147SOL    HW2 3441   0.816   2.568   1.027 -0.3556 -1.4262  1.5878
 1148SOL     OW 3442   1.853   0.102   0.581 -0.7838 -0.2734  0.4490
 1148SOL    HW1 3443   1.910   0.155   0.526 -0.0372 -0.1115  1.3645
 1148SOL    HW2 3444   1.793   0.164   0.621 -0.3476 -0.1961  0.9915
 1149SOL     OW 3445   0.107   2.177   0.295  0.3101 -0.2484 -0.1356
 1149SOL    HW1 3446   0.196   2.177   0.331  0.1960 -1.0355  0.1524
 1149SOL    HW2 3447   0.072   2.263   0.320  0.3534 -0.6319  1.3665
 1150SOL     OW 3448   3.946   1.196   0.164  0.5908 -0.1748  0.3829
 1150SOL    HW1 3449   3.995   1.274   0.190  1.1182  0.3424 -1.9242
 1150SOL    HW2 3450   3.866   1.230   0.124 -0.6244 -0.9584  2.0305
 1151SOL     OW 3451   0.818   0.671   0.750 -0.3958  0.4732  0.3992
 1151SOL    HW1 3452   0.823   0.633   0.838  0.3285 -0.0791  0.1328
 1151SOL    HW2 3453   0.732   0.713   0.747 -1.5886 -1.7992  0.4514
 1152SOL     OW 3454   1.405   2.334   3.965  0.1296  0.2057  0.1738
 1152SOL    HW1 3455   1.395   2.419   3.921  2.0050  0.4935  0.2026
 1152SOL    HW2 3456   1.439   2.356   4.051 -0.5299 -0.5343  0.6332
 1153SOL     OW 3457   3.772   2.122   1.517 -0.4047  0.3249 -0.0404
 1153SOL    HW1 3458   3.791   2.155   1.429 -2.0139  0.9066 -0.1958
 1153SOL    HW2 3459   3.707   2.182   1.552 -1.7760 -1.3991  0.5158
 1154SOL     OW 3460   0.320   0.064   3.393  0.7853 -0.3050 -0.7199
 1154SOL    HW1 3461   0.297   0.035   3.481 -0.6652  1.4512 -0.4567
 1154SOL    HW2 3462   0.285  -0.003   3.335 -0.3615 -0.3001 -0.0515
 1155SOL     OW 3463   0.581   1.478   0.286 -0.1191  0.3140  0.4948
 1155SOL    HW1 3464   0.501   1.446   0.243 -1.0256  4.2848 -1.1951
 1155SOL    HW2 3465   0.550   1.513   0.370  0.0000  0.8435  0.3231
 1156SOL     OW 3466   1.283   0.540   0.930  1.0531  0.1699  0.2179
 1156SOL    HW1 3467   1.272   0.634   0.920  0.1691  0.0339 -0.1221
 1156SOL    HW2 3468   1.310   0.509   0.844  0.9542  0.0574  0.2260
 1157SOL     OW 3469   1.643   0.644   3.883 -0.4373  0.3495  0.0903
 1157SOL    HW1 3470   1.555   0.611   3.899 -0.5025 -0.2465 -1.3238
 1157SOL    HW2 3471   1.685   0.645   3.969 -2.1140  1.5647  0.9331
 1158SOL     OW 3472   0.697   2.157   2.162  0.5735  0.6903 -0.2486
 1158SOL    HW1 3473   0.662   2.086   2.108  0.2099 -0.1365  1.0209
 1158SOL    HW2 3474   0.791   2.140   2.167  0.7768  1.3773 -1.4646
 1159SOL     OW 3475   0.044   1.312   1.282 -0.0564 -0.5077  0.1059
 1159SOL    HW1 3476   0.122   1.277   1.325  0.6391 -0.4642 -1.1064
 1159SOL    HW2 3477   0.063   1.309   1.189 -0.4877  1.8936 -0.1294
 1160SOL     OW 3478   1.759   0.379   1.183 -0.3377 -0.1264  0.6375
 1160SOL    HW1 3479   1.718   0.328   1.113 -0.9345 -1.8819  2.1989
 1160SOL    HW2 3480   1.837   0.330   1.207  1.4427  1.9211 -0.6238
 1161SOL     OW 3481   0.716   0.606   1.830 -0.4949 -0.1485 -0.2673
 1161SOL    HW1 3482   0.645   0.661   1.796 -0.7133 -0.8182 -0.9114
 1161SOL    HW2 3483   0.671   0.533   1.872 -0.1908 -1.0062 -1.3947
 1162SOL     OW 3484   1.412   1.093   0.465  0.1026  0.4356  0.2980
 1162SOL    HW1 3485   1.441   1.143   0.542  0.6153  1.3183 -0.4490
 1162SOL    HW2 3486   1.387   1.159   0.402  0.5768 -0.2540 -0.6396
 1163SOL     OW 3487   1.916   2.713   2.538 -0.4297 -0.3986 -0.2514
 1163SOL    HW1 3488   1.930   2.748   2.626 -1.4574 -1.4344  0.3559
 1163SOL    HW2 3489   1.987   2.650   2.526 -1.6262 -2.0282  0.8382
 1164SOL     OW 3490   3.791   1.285   0.464  0.6814  0.9736  0.0273
 1164SOL    HW1 3491   3.753   1.333   0.537  1.5430  1.5625  0.1042
 1164SOL    HW2 3492   3.859   1.230   0.503 -0.0860 -0.0886 -0.1021
 1165SOL     OW 3493   3.752   2.986   3.852  0.1261 -0.2586 -0.2036
 1165SOL    HW1 3494   3.823   2.937   3.810  1.5620  2.0271 -0.6126
 1165SOL    HW2 3495   3.745   3.067   3.801  1.3004  2.2413  3.1814
 1166SOL     OW 3496   0.507   1.930   2.099  0.0782 -0.3574  0.0146
 1166SOL    HW1 3497   0.434   1.930   2.161  1.0740 -2.0458  1.2546
 1166SOL    HW2 3498   0.478   1.988   2.028 -2.7462 -1.4620  0.1313
 1167SOL     OW 3499   2.802   1.804   1.233  1.1449 -0.1039  0.3068
 1167SOL    HW1 3500   2.852   1.725   1.212  2.2368  0.7676 -0.5313
 1167SOL    HW2 3501   2.829   1.867   1.166 -0.3861  0.7047  0.4131
 1168SOL     OW 3502   3.063   3.018   3.505 -0.0195 -0.4368 -0.2100
 1168SOL    HW1 3503   3.048   2.985   3.416 -1.2254  1.3639 -0.7344
 1168SOL    HW2 3504   3.157   3.035   3.510  0.1416 -1.0628 -0.9412
 1169SOL     OW 3505   1.665   2.884   1.514 -0.5144 -0.2125  0.1602
 1169SOL    HW1 3506   1.732   2.841   1.567  0.3831  0.4525 -0.4075
 1169SOL    HW2 3507   1.714   2.941   1.456 -1.6466  1.3770  0.7005
 1170SOL     OW 3508   3.148   1.273   2.971 -0.3099  0.0357  0.4167
 1170SOL    HW1 3509   3.228   1.284   2.920 -0.0294  1.2020  1.0666
 1170SOL    HW2 3510   3.150   1.182   2.999 -0.1238 -0.4349 -1.0513
 1171SOL     OW 3511   3.666   3.188   1.817  0.1419 -0.1961 -0.1887
 1171SOL    HW1 3512   3.629   3.276   1.818 -0.2327 -0.3171 -1.4602
 1171SOL    HW2 3513   3.590   3.129   1.816  0.3761 -0.5036 -0.2660
 1172SOL     OW 3514   2.068   3.747   1.123 -0.2070  0.2433  0.4941
 1172SOL    HW1 3515   2.080   3.722   1.031 -1.0507  2.7837 -0.3815
 1172SOL    HW2 3516   2.108   3.833   1.130 -0.4458  0.2354  2.4627
 1173SOL     OW 3517   0.847   1.576   0.517  0.5597  0.2261  0.3528
 1173SOL    HW1 3518   0.774   1.515   0.518  0.6465  0.0347 -1.4455
 1173SOL    HW2 3519   0.918   1.529   0.562  0.3712 -0.6784 -0.2674
 1174SOL     OW 3520   1.468   3.472   1.292 -0.2669  0.4968  0.2641
 1174SOL    HW1 3521   1.457   3.539   1.225  0.6007 -0.2756 -0.6720
 1174SOL    HW2 3522   1.498   3.395   1.245  2.7898  0.6169  1.7808
 1175SOL     OW 3523   1.450   1.112   3.799  0.2261 -0.8478 -0.0647
 1175SOL    HW1 3524   1.539   1.101   3.831  0.3412  0.9221  0.3378
 1175SOL    HW2 3525   1.396   1.118   3.878  0.0815  0.3304 -0.2289
 1176SOL     OW 3526   2.904   3.272   1.296 -0.0040  0.0763 -0.2697
 1176SOL    HW1 3527   2.908   3.181   1.328  0.6470  0.1851 -0.0359
 1176SOL    HW2 3528   2.812   3.296   1.305 -0.9819 -1.7376 -3.6217
 1177SOL     OW 3529   3.195   1.538   3.813 -0.5962 -0.5238  0.1873
 1177SOL    HW1 3530   3.176   1.578   3.728 -0.1858 -0.5916  0.0611
 1177SOL    HW2 3531   3.117   1.555   3.865 -0.8434 -0.4607 -0.1957
 1178SOL     OW 3532   3.049   2.145   2.093  0.0519  0.0820  0.2022
 1178SOL    HW1 3533   3.002   2.228   2.089  1.2952  0.7649 -2.3699
 1178SOL    HW2 3534   3.135   2.168   2.128 -0.0785 -0.3979  0.8493
 1179SOL     OW 3535   3.159   2.007   0.503 -0.2525  0.1054  0.4300
 1179SOL    HW1 3536   3.128   2.078   0.446 -0.8483  0.4187  1.1392
 1179SOL    HW2 3537   3.239   2.041   0.542 -1.9115  1.5363  2.8733
 1180SOL     OW 3538   0.502   0.186   0.593 -0.5290  0.1215  0.3902
 1180SOL    HW1 3539   0.566   0.230   0.650  0.1976 -1.5610  0.9299
 1180SOL    HW2 3540   0.468   0.256   0.538  2.4765  0.9824 -0.5913
 1181SOL     OW 3541   0.281   0.760   3.876  0.3615  0.1898 -0.6383
 1181SOL    HW1 3542   0.204   0.809   3.848  1.5373  2.1362 -0.6775
 1181SOL    HW2 3543   0.308   0.710   3.800  0.1213  0.8578 -1.1710
 1182SOL     OW 3544   1.595   2.672   2.559 -0.1158  0.4619 -0.0510
 1182SOL    HW1 3545   1.680   2.646   2.523  0.2861  0.7532  0.6576
 1182SOL    HW2 3546   1.617   2.729   2.633 -0.9321  0.5441  0.1391
 1183SOL     OW 3547   2.076   2.706   1.077 -0.0636  0.2146 -0.5384
 1183SOL    HW1 3548   2.109   2.779   1.129 -0.9555 -0.2992  0.7947
 1183SOL    HW2 3549   2.010   2.664   1.133  0.3849 -1.5755 -1.2715
 1184SOL     OW 3550   0.657   1.818   0.773  0.2649 -0.4168  0.2085
 1184SOL    HW1 3551   0.716   1.812   0.697  1.6094  1.6285  1.0111
 1184SOL    HW2 3552   0.696   1.759   0.838  1.3382  0.7234  0.6381
 1185SOL     OW 3553   0.961   2.833   2.550 -0.2373  0.0468  0.5004
 1185SOL    HW1 3554   0.908   2.766   2.506 -0.6425  0.0898  0.9104
 1185SOL    HW2 3555   1.036   2.784   2.586 -0.0975 -0.0468  0.0877
 1186SOL     OW 3556   1.121   0.015   3.907  0.3816  0.2329 -1.0370
 1186SOL    HW1 3557   1.107   0.085   3.971 -1.0675 -0.3063 -0.7311
 1186SOL    HW2 3558   1.172  -0.051   3.954 -1.1144 -0.3960 -0.2201
 1187SOL     OW 3559   2.260   2.821   3.485 -0.3435 -0.0435  0.4460
 1187SOL    HW1 3560   2.328   2.774   3.532  0.1669  1.2878  1.0777
 1187SOL    HW2 3561   2.308   2.875   3.422 -0.9644 -0.9911 -0.9017
 1188SOL     OW 3562   2.091   3.441   1.758 -0.2610  0.1518 -0.0702
 1188SOL    HW1 3563   2.014   3.434   1.701  0.0465  1.1338 -0.6319
 1188SOL    HW2 3564   2.056   3.475   1.840 -0.3982  0.8901 -0.4223
 1189SOL     OW 3565   3.829   3.923   2.622  0.5454  0.2546  0.5847
 1189SOL    HW1 3566   3.868   4.004   2.589  1.0183 -0.3623 -0.3860
 1189SOL    HW2 3567   3.831   3.863   2.548  0.4958 -0.7607  1.3904
 1190SOL     OW 3568   3.103   1.819   0.922  0.2173 -0.2683 -0.5476
 1190SOL    HW1 3569   3.118   1.816   1.016 -0.8095 -2.0960 -0.3840
 1190SOL    HW2 3570   3.024   1.766   0.909  1.2735 -1.4688 -2.5802
 1191SOL     OW 3571   2.055   3.534   1.293  0.3808 -0.0460  0.0704
 1191SOL    HW1 3572   2.074   3.595   1.222  0.2253  2.3902  1.9740
 1191SOL    HW2 3573   2.103   3.569   1.368 -1.4406 -1.0252  1.7921
 1192SOL     OW 3574   3.985   0.708   3.852  0.0023  0.1204  0.3226
 1192SOL    HW1 3575   3.933   0.629   3.838 -0.2882  0.5616 -1.2446
 1192SOL    HW2 3576   4.005   0.739   3.764  0.8582  1.3096  0.9194
 1193SOL     OW 3577   2.184   0.220   0.848  0.3338  0.2067  0.2268
 1193SOL    HW1 3578   2.096   0.188   0.827 -0.9028  2.0049  2.1732
 1193SOL    HW2 3579   2.243   0.155   0.810 -1.6665  0.3541 -3.6844
 1194SOL     OW 3580   0.530   1.377   0.568  0.2121  0.2512  0.0668
 1194SOL    HW1 3581   0.521   1.403   0.659 -0.9302 -0.2591  0.1252
 1194SOL    HW2 3582   0.440   1.358   0.540  0.8010 -2.1626 -0.3839
 1195SOL     OW 3583   1.115   1.305   3.825 -0.3113 -0.5862 -0.2680
 1195SOL    HW1 3584   1.128   1.400   3.824 -0.9885 -0.4907 -0.1431
 1195SOL    HW2 3585   1.144   1.279   3.912 -0.6590 -0.4193 -0.1028
 1196SOL     OW 3586   2.907   1.363   3.268 -0.3393 -0.0291 -0.9970
 1196SOL    HW1 3587   2.870   1.279   3.241 -0.0525 -0.3105 -0.5283
 1196SOL    HW2 3588   2.834   1.425   3.262 -0.9609 -0.6119  0.1114
 1197SOL     OW 3589   1.565   2.818   0.795 -0.3129 -0.1889  0.1568
 1197SOL    HW1 3590   1.552   2.826   0.701  1.0407  2.1295  0.0792
 1197SOL    HW2 3591   1.478   2.831   0.833 -0.5499  0.8946 -0.7161
 1198SOL     OW 3592   0.362   1.282   2.933 -0.0548  0.4336  0.6550
 1198SOL    HW1 3593   0.356   1.275   3.028 -1.0635 -0.8758  0.5247
 1198SOL    HW2 3594   0.439   1.230   2.910  0.9587  1.7950  0.8232
 1199SOL     OW 3595   0.624   3.089   2.942  0.1489 -0.5724 -0.2597
 1199SOL    HW1 3596   0.636   3.090   3.037 -0.9349  0.9485 -0.1140
 1199SOL    HW2 3597   0.685   3.155   2.909  0.7147 -1.2783 -0.6741
 1200SOL     OW 3598   2.405   2.585   2.375  0.5459 -0.2868  0.0842
 1200SOL    HW1 3599   2.437   2.659   2.427  0.3977  0.2573 -0.5804
 1200SOL    HW2 3600   2.453   2.592   2.292 -0.9543  0.2990 -0.7777
 1201SOL     OW 3601   1.131   2.412   2.372 -0.3345  0.7242  0.0080
 1201SOL    HW1 3602   1.091   2.397   2.457  0.3606  0.7437  0.3450
 1201SOL    HW2 3603   1.214   2.456   2.391  0.2510 -0.0673 -0.6041
 1202SOL     OW 3604   0.944   0.985   1.896  0.1147  0.1095 -0.4322
 1202SOL    HW1 3605   0.916   0.905   1.941  0.4971 -0.3240 -0.9469
 1202SOL    HW2 3606   0.931   1.055   1.960 -0.3910 -0.3372 -0.0331
 1203SOL     OW 3607   3.720   2.701   0.845  0.3095  0.2521 -0.3305
 1203SOL    HW1 3608   3.678   2.632   0.793 -1.1561  0.1653  0.8974
 1203SOL    HW2 3609   3.717   2.779   0.789  0.6396 -0.3334 -1.1650
 1204SOL     OW 3610   2.797   3.555   3.382  0.4715 -0.2864 -0.6408
 1204SOL    HW1 3611   2.776   3.487   3.318  0.0865 -1.1615  0.3752
 1204SOL    HW2 3612   2.714   3.572   3.428  0.7810  0.1658 -0.2300
 1205SOL     OW 3613   0.215   0.482   3.964  0.5520 -0.6199 -0.0305
 1205SOL    HW1 3614   0.250   0.464   4.051  0.9535 -4.2767 -0.7713
 1205SOL    HW2 3615   0.203   0.577   3.962  0.8036 -0.3358  3.8552
 1206SOL     OW 3616   2.736   3.905   1.174 -0.5875 -0.4067  0.3730
 1206SOL    HW1 3617   2.708   3.996   1.188 -0.9224 -0.4942  0.2859
 1206SOL    HW2 3618   2.798   3.909   1.101 -1.9886 -0.4746 -0.8606
 1207SOL     OW 3619   2.941   2.417   3.186  0.2621 -0.4612 -0.5172
 1207SOL    HW1 3620   2.932   2.502   3.142 -3.3233  0.6136  1.8170
 1207SOL    HW2 3621   2.994   2.436   3.263  0.3571 -0.5786 -0.5543
 1208SOL     OW 3622   2.959   3.482   0.328 -0.3813  0.1191 -0.0554
 1208SOL    HW1 3623   2.931   3.408   0.382 -1.1786  0.6396  0.2667
 1208SOL    HW2 3624   2.946   3.558   0.383  0.7527  0.4876 -0.2659
 1209SOL     OW 3625   0.093   1.867   1.188 -0.1918  0.5998  0.5629
 1209SOL    HW1 3626   0.069   1.954   1.156  0.3527  0.5770  0.0875
 1209SOL    HW2 3627   0.065   1.807   1.120  0.9141  0.5476  0.1276
 1210SOL     OW 3628   3.851   1.070   2.569 -0.3667  0.3885 -0.4565
 1210SOL    HW1 3629   3.905   0.996   2.541 -0.6325 -0.7111  1.6937
 1210SOL    HW2 3630   3.762   1.044   2.546 -0.4566  0.0169  0.2711
 1211SOL     OW 3631   2.563   0.140   0.531 -0.0294 -0.4447 -0.3275
 1211SOL    HW1 3632   2.472   0.162   0.551  0.5359  0.5502  1.3755
 1211SOL    HW2 3633   2.568   0.045   0.538 -0.6041 -0.3830  1.2578
 1212SOL     OW 3634   1.798   0.648   3.556  0.5473  0.1004 -0.5238
 1212SOL    HW1 3635   1.817   0.685   3.643 -0.5325  1.1097 -0.6760
 1212SOL    HW2 3636   1.806   0.723   3.496 -0.0374 -0.2840 -1.0921
 1213SOL     OW 3637   3.920   3.553   2.131 -0.1879  0.0341 -0.3757
 1213SOL    HW1 3638   3.976   3.598   2.068  1.0510 -1.4879 -0.4305
 1213SOL    HW2 3639   3.851   3.514   2.077  0.7056 -1.0188 -0.8035
 1214SOL     OW 3640   1.671   3.959   3.811  0.2828  0.0640  0.1879
 1214SOL    HW1 3641   1.642   3.893   3.875  2.9883 -0.5201  0.9418
 1214SOL    HW2 3642   1.658   4.043   3.855 -0.1337 -0.1755  0.5258
 1215SOL     OW 3643   2.427   0.909   1.214 -0.9345 -0.1664 -1.3320
 1215SOL    HW1 3644   2.470   0.979   1.262  0.2257 -0.8389 -1.3657
 1215SOL    HW2 3645   2.345   0.895   1.261 -2.0034  2.2978 -2.2641
 1216SOL     OW 3646   1.185   2.819   3.434 -0.7603 -0.2117 -0.0685
 1216SOL    HW1 3647   1.138   2.885   3.384 -0.9596 -0.3021  0.0020
 1216SOL    HW2 3648   1.277   2.834   3.412 -0.8232 -0.0542 -0.2244
 1217SOL     OW 3649   1.798   3.746   1.094  0.7457 -0.6588 -0.2759
 1217SOL    HW1 3650   1.802   3.747   0.999  0.3698  0.1497 -0.2930
 1217SOL    HW2 3651   1.889   3.754   1.123  0.7144  1.2947 -0.5846
 1218SOL     OW 3652   3.179   1.358   1.840 -0.4978 -0.9204  0.0249
 1218SOL    HW1 3653   3.260   1.393   1.877 -1.3523 -0.5128  1.5881
 1218SOL    HW2 3654   3.205   1.272   1.806  0.5245 -0.9719  0.8547
 1219SOL     OW 3655   1.759   2.983   0.601 -0.3971 -0.1272  0.2128
 1219SOL    HW1 3656   1.703   2.986   0.524 -0.7528  0.6714  0.4878
 1219SOL    HW2 3657   1.699   2.980   0.675 -0.0574 -1.6950  0.4593
 1220SOL     OW 3658   0.937   1.882   2.924 -0.0058  0.0563  0.2963
 1220SOL    HW1 3659   0.972   1.813   2.868  0.9996  1.3208 -0.6840
 1220SOL    HW2 3660   0.854   1.907   2.882  0.2478  0.3072 -0.0539
 1221SOL     OW 3661  -0.000   1.434   1.945 -0.6946 -0.0546 -1.2128
 1221SOL    HW1 3662   0.036   1.396   1.865  1.7440  2.3458 -1.3824
 1221SOL    HW2 3663   0.070   1.426   2.010 -1.3983  1.0021 -0.2750
 1222SOL     OW 3664   0.582   0.556   0.582  0.2103  0.1827 -0.0901
 1222SOL    HW1 3665   0.590   0.499   0.659  0.4881  1.3617  0.7839
 1222SOL    HW2 3666   0.526   0.507   0.522  3.5744 -2.8050 -1.1111
 1223SOL     OW 3667   1.446   3.231   0.075  0.4178  0.1243  0.0831
 1223SOL    HW1 3668   1.433   3.149   0.026  0.8011 -0.3639  0.7831
 1223SOL    HW2 3669   1.420   3.209   0.165 -1.8693  1.4610 -0.1870
 1224SOL     OW 3670   2.799   3.606   0.572  0.0661 -0.1197  0.2322
 1224SOL    HW1 3671   2.767   3.661   0.643 -0.2193  3.5174 -2.4248
 1224SOL    HW2 3672   2.742   3.529   0.573 -0.2665  0.0388  3.4709
 1225SOL     OW 3673   1.456   0.175   1.158  0.2294 -0.6649  0.1233
 1225SOL    HW1 3674   1.512   0.101   1.181  0.4412 -0.4351  0.3394
 1225SOL    HW2 3675   1.372   0.135   1.135  0.1317 -0.9260  0.9052
 1226SOL     OW 3676   0.425   3.670   2.107 -0.8361 -0.2340  0.1368
 1226SOL    HW1 3677   0.441   3.756   2.068 -2.7321 -0.5040 -1.3455
 1226SOL    HW2 3678   0.367   3.688   2.182 -2.0966 -0.2828 -0.7978
 1227SOL     OW 3679   1.096   1.881   3.152 -0.3209 -1.0003 -0.0365
 1227SOL    HW1 3680   1.188   1.903   3.135 -0.1814 -0.1787  1.5417
 1227SOL    HW2 3681   1.055   1.879   3.066  0.3350  2.5889 -0.6024
 1228SOL     OW 3682   0.057   2.564   0.698 -0.4967 -0.2082 -0.2052
 1228SOL    HW1 3683   0.082   2.632   0.761 -0.8052 -0.0020 -0.3088
 1228SOL    HW2 3684   0.059   2.607   0.613  1.6868 -0.9153 -0.5787
 1229SOL     OW 3685   3.158   2.624   3.169  0.2825  0.0835 -0.0435
 1229SOL    HW1 3686   3.224   2.666   3.225  0.3699 -1.8066  1.4116
 1229SOL    HW2 3687   3.166   2.668   3.085  3.5175 -0.1158  0.0178
 1230SOL     OW 3688   1.025   2.911   3.926  0.6721 -0.5108 -0.5703
 1230SOL    HW1 3689   1.026   2.997   3.884  0.2826  0.3075  1.0184
 1230SOL    HW2 3690   0.937   2.877   3.908  0.7363 -0.4805 -0.9674
 1231SOL     OW 3691   2.569   1.995   1.243 -0.3717 -0.1299 -0.3821
 1231SOL    HW1 3692   2.486   1.950   1.255  0.5677 -1.8018  0.2478
 1231SOL    HW2 3693   2.634   1.924   1.240  0.8544  0.9619 -2.7283
 1232SOL     OW 3694   2.968   2.861   1.740 -0.3873 -0.5564  0.2930
 1232SOL    HW1 3695   2.973   2.765   1.732 -0.0713 -0.6281  1.2294
 1232SOL    HW2 3696   2.878   2.882   1.716 -0.3583 -1.0468 -0.2843
 1233SOL     OW 3697   0.691   0.797   2.943 -0.6888 -0.0085  0.6345
 1233SOL    HW1 3698   0.643   0.749   3.010 -1.5068  0.5759  0.4875
 1233SOL    HW2 3699   0.748   0.856   2.993 -0.6023 -0.2415  0.8124
 1234SOL     OW 3700   0.553   2.419   3.961  0.5073  0.2822 -0.3350
 1234SOL    HW1 3701   0.556   2.334   4.006 -2.7855  0.4530  0.4595
 1234SOL    HW2 3702   0.507   2.401   3.879  1.1763  1.0586 -0.8957
 1235SOL     OW 3703   3.069   2.935   2.968  0.1536  0.1718 -0.2779
 1235SOL    HW1 3704   2.983   2.977   2.957 -0.0577 -0.3580 -0.7175
 1235SOL    HW2 3705   3.103   2.928   2.879 -0.5112 -1.9914 -0.4246
 1236SOL     OW 3706   3.477   2.924   0.804  0.8565 -0.0856  0.2591
 1236SOL    HW1 3707   3.448   3.014   0.813  2.8424  0.6630 -0.2700
 1236SOL    HW2 3708   3.397   2.874   0.789 -0.4543  1.3329  2.1118
 1237SOL     OW 3709   0.197   1.783   2.546  0.9158 -0.1190 -0.0634
 1237SOL    HW1 3710   0.181   1.702   2.497  1.4843  0.2359 -0.8676
 1237SOL    HW2 3711   0.231   1.754   2.630  0.5702 -0.7355 -0.1339
 1238SOL     OW 3712   2.905   3.919   3.953 -0.7007 -0.2051 -0.0490
 1238SOL    HW1 3713   2.932   3.829   3.933 -1.3855 -0.3881 -0.1658
 1238SOL    HW2 3714   2.863   3.913   4.038 -2.9895 -0.4548 -1.1363
 1239SOL     OW 3715   0.618   0.278   2.851  0.6004  0.0742 -0.1700
 1239SOL    HW1 3716   0.677   0.345   2.884  0.0552  0.6270 -0.2918
 1239SOL    HW2 3717   0.670   0.197   2.851  1.1865  0.4472  0.2062
 1240SOL     OW 3718   2.940   1.476   1.902  0.4819  0.0789 -1.0865
 1240SOL    HW1 3719   2.936   1.391   1.945 -2.6506  0.0061 -1.2806
 1240SOL    HW2 3720   3.033   1.490   1.884  1.4446 -1.8275  1.7790
 1241SOL     OW 3721   0.948   0.429   0.523 -0.0990 -0.4631  0.8672
 1241SOL    HW1 3722   1.012   0.485   0.567  1.8450 -1.2434 -0.8458
 1241SOL    HW2 3723   0.893   0.489   0.473  1.8485  0.0056 -0.8090
 1242SOL     OW 3724   3.088   3.876   3.643 -0.0124 -0.5214  0.1948
 1242SOL    HW1 3725   3.138   3.810   3.595 -0.9185 -0.5730 -0.6972
 1242SOL    HW2 3726   3.001   3.837   3.655 -0.1636 -0.0164  0.8093
 1243SOL     OW 3727   3.161   0.001   1.276  0.0156 -0.6868  0.1142
 1243SOL    HW1 3728   3.103  -0.012   1.352  0.5955  0.2636  0.7393
 1243SOL    HW2 3729   3.245   0.026   1.314 -1.0789  6.1169 -0.6907
 1244SOL     OW 3730   2.631   2.524   3.847  0.4611  0.3993 -0.2728
 1244SOL    HW1 3731   2.671   2.477   3.774  0.0245 -1.3754  0.5649
 1244SOL    HW2 3732   2.704   2.544   3.905  0.5877  0.2486 -0.3775
 1245SOL     OW 3733   2.421   2.039   0.496 -0.1417  0.0327  0.1408
 1245SOL    HW1 3734   2.446   2.038   0.589  0.1943  0.6735  0.0606
 1245SOL    HW2 3735   2.372   2.120   0.485  0.3989  0.2928 -0.3884
 1246SOL     OW 3736   3.638   1.390   1.026  0.0858 -0.5736 -0.1015
 1246SOL    HW1 3737   3.655   1.393   1.120  0.1920 -0.5369 -0.1222
 1246SOL    HW2 3738   3.576   1.462   1.011  0.2334 -0.4462 -0.0942
 1247SOL     OW 3739   3.205   2.532   0.719 -0.0950  0.4724  0.1591
 1247SOL    HW1 3740   3.147   2.467   0.679 -0.2636  0.4334  0.4613
 1247SOL    HW2 3741   3.243   2.487   0.794  0.4956  0.4298 -0.1609
 1248SOL     OW 3742   0.786   1.727   3.222 -0.6564  0.4147 -0.3366
 1248SOL    HW1 3743   0.785   1.777   3.141  1.9315  0.2964 -0.5093
 1248SOL    HW2 3744   0.878   1.725   3.249 -0.1281 -5.5807 -1.2385
 1249SOL     OW 3745   0.462   2.958   3.787  0.8991  0.5292 -0.4044
 1249SOL    HW1 3746   0.456   2.885   3.848 -0.3467  0.2619 -0.8311
 1249SOL    HW2 3747   0.487   2.919   3.704  1.6299  0.7781 -0.3151
 1250SOL     OW 3748   0.699   1.491   2.730  0.3122 -0.4304  0.3221
 1250SOL    HW1 3749   0.731   1.517   2.816  1.3625 -0.2012 -0.1233
 1250SOL    HW2 3750   0.620   1.441   2.748 -0.9191  1.7263  1.3164
 1251SOL     OW 3751   2.305   0.194   0.563 -0.0859  0.0927  0.1640
 1251SOL    HW1 3752   2.243   0.125   0.538 -1.5230  0.8207  1.5730
 1251SOL    HW2 3753   2.293   0.262   0.497 -1.4138  0.5719  0.8665
 1252SOL     OW 3754   2.121   1.586   3.732  0.1093 -0.4068  0.4088
 1252SOL    HW1 3755   2.110   1.564   3.824  0.8542  1.5671  1.0168
 1252SOL    HW2 3756   2.143   1.679   3.732  0.6753 -0.4937 -1.7353
 1253SOL     OW 3757   1.113   1.254   0.098 -0.1190  0.4885 -0.3273
 1253SOL    HW1 3758   1.070   1.186   0.149  0.0504 -0.2801 -1.1963
 1253SOL    HW2 3759   1.047   1.323   0.090 -1.1054 -0.5436 -1.3787
 1254SOL     OW 3760   1.649   0.508   2.877 -0.2689  0.2188 -0.2145
 1254SOL    HW1 3761   1.622   0.458   2.953 -1.0160 -0.3015 -0.8058
 1254SOL    HW2 3762   1.583   0.489   2.810  0.5726  0.3607 -1.1194
 1255SOL     OW 3763   2.190   3.426   3.094 -0.2027  0.3067 -0.2003
 1255SOL    HW1 3764   2.260   3.482   3.125 -1.5499  1.3090  1.2023
 1255SOL    HW2 3765   2.219   3.337   3.114  0.2094  0.7664  1.4199
 1256SOL     OW 3766   2.496   2.767   2.556  0.5421 -0.0394 -0.3727
 1256SOL    HW1 3767   2.481   2.818   2.635  1.4852  0.8653 -0.7468
 1256SOL    HW2 3768   2.588   2.785   2.534  0.1329  0.2127 -1.9946
 1257SOL     OW 3769   3.763   0.977   1.407  0.1950 -0.4539 -0.1122
 1257SOL    HW1 3770   3.837   0.963   1.467  0.3927 -0.7082 -0.4085
 1257SOL    HW2 3771   3.790   0.932   1.327 -0.0397 -0.0614 -0.4087
 1258SOL     OW 3772   0.820   1.163   3.981 -0.1782 -0.3791  0.1740
 1258SOL    HW1 3773   0.803   1.069   3.984 -0.4907 -0.3243  0.2438
 1258SOL    HW2 3774   0.881   1.175   3.909 -0.1652 -0.6328  0.1426
 1259SOL     OW 3775   1.812   0.889   3.447 -0.7958  0.1915  0.3349
 1259SOL    HW1 3776   1.802   0.981   3.471  1.2725  0.3549  0.7674
 1259SOL    HW2 3777   1.811   0.890   3.351  0.0024  0.7790  0.3257
 1260SOL     OW 3778   1.408   2.518   3.103 -0.3167  0.2919 -0.9307
 1260SOL    HW1 3779   1.394   2.607   3.071 -0.8247  0.2678 -0.7916
 1260SOL    HW2 3780   1.502   2.514   3.123 -0.4914  1.2010  0.2299
 1261SOL     OW 3781   2.188   1.707   0.900 -0.0500 -0.1176  0.0110
 1261SOL    HW1 3782   2.100   1.736   0.875  0.1540 -0.1497 -0.7630
 1261SOL    HW2 3783   2.202   1.626   0.850  0.5936  0.1314 -0.2198
 1262SOL     OW 3784   3.166   1.662   3.574  0.5475  0.4811  0.5009
 1262SOL    HW1 3785   3.227   1.682   3.503  0.1698  0.3884  0.1473
 1262SOL    HW2 3786   3.135   1.573   3.554 -0.7562  1.0567 -0.0858
 1263SOL     OW 3787   0.836   1.079   0.420  0.2664 -0.4708 -0.7351
 1263SOL    HW1 3788   0.856   1.120   0.336 -0.4599 -1.0740 -1.2301
 1263SOL    HW2 3789   0.741   1.064   0.417 -0.1558  1.4233  1.0900
 1264SOL     OW 3790   1.804   2.122   3.877 -0.0030 -0.3268  0.1805
 1264SOL    HW1 3791   1.773   2.057   3.940  0.7150 -0.0277  0.8673
 1264SOL    HW2 3792   1.832   2.071   3.801 -0.6977 -0.7074  0.1730
 1265SOL     OW 3793   3.634   1.401   2.659 -0.1903 -0.0923  0.6549
 1265SOL    HW1 3794   3.545   1.427   2.681 -0.3235 -2.2033  2.9970
 1265SOL    HW2 3795   3.684   1.416   2.739  0.6635 -2.5391  0.6663
 1266SOL     OW 3796   3.592   3.665   0.292 -0.2413  0.5126  0.2016
 1266SOL    HW1 3797   3.508   3.703   0.266 -0.2781 -0.3182 -0.9168
 1266SOL    HW2 3798   3.657   3.725   0.256 -0.3244  1.3182  1.3166
 1267SOL     OW 3799   3.382   1.203   2.807  0.2548  0.0867  0.0319
 1267SOL    HW1 3800   3.368   1.261   2.732 -0.0111  0.8798  0.6687
 1267SOL    HW2 3801   3.408   1.120   2.769  1.5298  0.8707 -0.8989
 1268SOL     OW 3802   1.839   3.403   1.586 -0.1251  0.0445  0.1350
 1268SOL    HW1 3803   1.801   3.317   1.566  1.1501 -1.0301  1.9824
 1268SOL    HW2 3804   1.777   3.466   1.548 -2.3588 -1.6306  0.7490
 1269SOL     OW 3805   3.449   1.426   1.906  0.0307  0.2864 -0.1374
 1269SOL    HW1 3806   3.545   1.423   1.913 -0.0360 -2.8403  0.8018
 1269SOL    HW2 3807   3.420   1.472   1.984  0.7489  0.5641 -0.0309
 1270SOL     OW 3808   0.006   2.010   2.484  0.1020 -0.6495  0.3855
 1270SOL    HW1 3809   0.032   2.030   2.394 -1.8189 -1.2465 -0.3554
 1270SOL    HW2 3810   0.021   1.916   2.494 -0.6397 -0.7827  0.3231
 1271SOL     OW 3811   3.221   2.811   0.703  0.3232  0.2448 -0.9243
 1271SOL    HW1 3812   3.176   2.798   0.620  1.3286 -1.8566 -1.2050
 1271SOL    HW2 3813   3.228   2.723   0.741  0.8201  1.0161  0.8890
 1272SOL     OW 3814   2.063   2.247   3.184 -0.2031 -0.5466  0.4451
 1272SOL    HW1 3815   1.975   2.252   3.221 -0.6816 -1.7096 -0.4930
 1272SOL    HW2 3816   2.053   2.198   3.103  0.9412  1.2928 -0.8876
 1273SOL     OW 3817   1.953   3.557   2.680 -0.1505 -0.1605 -0.3685
 1273SOL    HW1 3818   2.023   3.500   2.712 -1.1367 -1.2693 -0.1231
 1273SOL    HW2 3819   1.883   3.497   2.655 -2.1084  0.9476  1.9924
 1274SOL     OW 3820   3.252   0.861   1.578 -0.1323  0.1745 -0.4364
 1274SOL    HW1 3821   3.330   0.813   1.551 -0.5128 -0.7648  0.1212
 1274SOL    HW2 3822   3.232   0.829   1.665  0.3213  2.2369  0.4906
 1275SOL     OW 3823   3.328   2.417   3.317 -0.3854  0.3249  0.6000
 1275SOL    HW1 3824   3.270   2.411   3.240  0.7721 -0.5570 -0.2413
 1275SOL    HW2 3825   3.364   2.506   3.313  0.9914 -0.2487 -0.9203
 1276SOL     OW 3826   3.151   1.543   1.161  0.4548 -0.1902 -0.1915
 1276SOL    HW1 3827   3.167   1.558   1.254 -0.1249 -0.2621 -0.0744
 1276SOL    HW2 3828   3.073   1.488   1.159 -1.3156  2.1421 -0.7665
 1277SOL     OW 3829   0.099   1.703   3.872 -0.1193 -0.1630 -0.5945
 1277SOL    HW1 3830   0.132   1.768   3.934  1.0919 -0.3260 -1.0444
 1277SOL    HW2 3831   0.116   1.740   3.786 -0.6822 -0.4673 -0.8379
 1278SOL     OW 3832   1.878   1.141   1.205  0.0898  0.1378 -0.0802
 1278SOL    HW1 3833   1.924   1.138   1.289  0.5924 -1.9630 -0.3610
 1278SOL    HW2 3834   1.819   1.066   1.208  0.0564  0.0711 -1.5659
 1279SOL     OW 3835   3.106   0.859   3.492  0.1282  0.0232  0.0873
 1279SOL    HW1 3836   3.058   0.934   3.455  1.0643 -0.4303 -2.2811
 1279SOL    HW2 3837   3.195   0.869   3.457  1.1248 -0.5388  2.3004
 1280SOL     OW 3838   1.139   2.091   2.681 -0.0956  0.2544 -0.4523
 1280SOL    HW1 3839   1.185   2.047   2.610  1.9630  0.9485  0.3720
 1280SOL    HW2 3840   1.092   2.021   2.727 -0.3270 -0.3980 -1.6473
 1281SOL     OW 3841   0.174   3.205   3.726 -0.3883 -0.5226  0.0161
 1281SOL    HW1 3842   0.235   3.275   3.751 -0.4322 -0.0701 -1.1148
 1281SOL    HW2 3843   0.113   3.199   3.800  0.0994  0.0762  0.4784
 1282SOL     OW 3844   1.174   3.445   3.409  0.2411 -0.1504  0.1120
 1282SOL    HW1 3845   1.182   3.374   3.472  0.0182 -0.8461 -0.6155
 1282SOL    HW2 3846   1.263   3.479   3.399  0.3773 -0.4300  0.3649
 1283SOL     OW 3847   1.296   2.039   2.950 -0.0151 -0.5014  0.1198
 1283SOL    HW1 3848   1.265   2.117   2.997  1.8079 -0.5334  1.4689
 1283SOL    HW2 3849   1.376   2.068   2.906 -2.1474 -0.1512 -4.0815
 1284SOL     OW 3850   1.477   0.415   0.252  0.1143 -0.6266  1.1204
 1284SOL    HW1 3851   1.547   0.449   0.309  0.9031 -0.4868  0.0895
 1284SOL    HW2 3852   1.451   0.333   0.293  1.8931 -1.4113  0.7649
 1285SOL     OW 3853   2.495   3.291   2.597  0.3051  0.0154 -0.2383
 1285SOL    HW1 3854   2.403   3.318   2.601 -0.3655 -2.0750 -0.6424
 1285SOL    HW2 3855   2.520   3.306   2.506 -0.5073 -1.9529 -0.8312
 1286SOL     OW 3856   1.279   0.532   3.280 -0.5524  0.1877  0.7282
 1286SOL    HW1 3857   1.303   0.476   3.355 -1.8417 -0.6857  0.5158
 1286SOL    HW2 3858   1.270   0.620   3.318 -0.4715 -0.1084  1.4547
 1287SOL     OW 3859   2.409   3.150   3.508 -0.3879  0.0379  0.4822
 1287SOL    HW1 3860   2.318   3.133   3.531 -0.0401 -0.4759  1.5039
 1287SOL    HW2 3861   2.420   3.105   3.424 -1.3514  0.9836 -0.1763
 1288SOL     OW 3862   1.367   1.063   2.318 -0.5696 -0.2656  0.4915
 1288SOL    HW1 3863   1.416   1.090   2.240 -0.2468 -2.8933 -0.3188
 1288SOL    HW2 3864   1.291   1.122   2.320 -0.6781 -0.2039 -1.9465
 1289SOL     OW 3865   0.792   0.286  -0.019  0.0673 -0.2699  0.2072
 1289SOL    HW1 3866   0.797   0.338   0.061  0.9675 -1.6625  1.1049
 1289SOL    HW2 3867   0.711   0.235  -0.009  0.9113 -1.5370  0.9901
 1290SOL     OW 3868   2.897   1.175   3.562 -0.1102  0.0482  0.1385
 1290SOL    HW1 3869   2.880   1.130   3.645  0.5004 -1.4835 -0.5239
 1290SOL    HW2 3870   2.833   1.140   3.501 -0.5417  1.1483 -0.0654
 1291SOL     OW 3871   1.474   1.764   3.079  0.8319  0.0247  0.2819
 1291SOL    HW1 3872   1.447   1.830   3.142 -0.5218  0.5904 -0.8316
 1291SOL    HW2 3873   1.564   1.743   3.104  0.2508 -0.0182  2.5561
 1292SOL     OW 3874   3.756   3.285   0.077 -0.6883  0.5231 -0.0708
 1292SOL    HW1 3875   3.764   3.266  -0.017  0.2458  0.3365  0.0344
 1292SOL    HW2 3876   3.663   3.276   0.095 -0.8975  0.6664 -1.0047
 1293SOL     OW 3877   3.791   3.368   0.909 -0.8357 -0.1936 -0.5699
 1293SOL    HW1 3878   3.848   3.443   0.926 -1.1318 -0.0038 -0.4177
 1293SOL    HW2 3879   3.713   3.384   0.961 -1.0020 -0.4903 -0.7226
 1294SOL     OW 3880   3.444   2.979   1.825  0.4534  0.1146  0.2927
 1294SOL    HW1 3881   3.387   2.934   1.763  1.5903 -1.8905  0.6329
 1294SOL    HW2 3882   3.446   2.922   1.902  1.0960  1.2906  1.1872
 1295SOL     OW 3883   1.879   3.893   3.557  0.2246  0.3109 -0.3382
 1295SOL    HW1 3884   1.912   3.981   3.538 -0.2199  0.4684 -0.3940
 1295SOL    HW2 3885   1.839   3.864   3.474  0.2605  0.1070 -0.2856
 1296SOL     OW 3886   2.413   0.498   3.303 -0.1354  0.9261 -0.2976
 1296SOL    HW1 3887   2.320   0.475   3.307 -0.1418  0.8305 -1.0193
 1296SOL    HW2 3888   2.458   0.414   3.297 -0.0154  0.9841 -0.2157
 1297SOL     OW 3889   2.768   0.765   0.296  0.5264  0.3534  0.3369
 1297SOL    HW1 3890   2.855   0.730   0.314  0.6608 -0.4633 -1.6088
 1297SOL    HW2 3891   2.765   0.775   0.200 -0.7523  2.4825  0.5280
 1298SOL     OW 3892   1.432   1.406   3.750  0.2973 -0.2525  0.3824
 1298SOL    HW1 3893   1.519   1.381   3.717  1.4159 -0.1555  2.9866
 1298SOL    HW2 3894   1.400   1.327   3.794  0.2364  0.4688  1.6674
 1299SOL     OW 3895   2.657   3.792   3.930  0.0568 -0.0096 -0.1152
 1299SOL    HW1 3896   2.671   3.879   3.893 -3.5848  0.7327 -0.1756
 1299SOL    HW2 3897   2.659   3.805   4.024 -1.1384  0.3611 -0.1165
 1300SOL     OW 3898   2.930   0.113   2.051 -0.5590  0.0835 -0.3105
 1300SOL    HW1 3899   2.979   0.032   2.039  0.7107  0.7195  0.2854
 1300SOL    HW2 3900   2.995   0.182   2.035 -0.5439  0.9772  2.9135
 1301SOL     OW 3901   0.378   3.423   0.314 -0.2182 -0.0806  0.4932
 1301SOL    HW1 3902   0.369   3.495   0.376  0.9690  0.8293 -0.3554
 1301SOL    HW2 3903   0.392   3.346   0.370 -3.2346 -0.0490  1.4958
 1302SOL     OW 3904   3.187   0.380   2.694  0.2134  0.2180  0.2791
 1302SOL    HW1 3905   3.204   0.302   2.747 -2.2128  0.0018  0.8860
 1302SOL    HW2 3906   3.177   0.451   2.758 -3.4925 -0.1785  0.3934
 1303SOL     OW 3907   1.277   1.680   2.541 -0.0615  0.0841 -0.0518
 1303SOL    HW1 3908   1.277   1.773   2.519 -1.9411  0.0759 -0.1983
 1303SOL    HW2 3909   1.318   1.638   2.466  1.7528  0.8339  0.4417
 1304SOL     OW 3910   1.240   1.535   2.914  0.0135 -0.2721  0.0619
 1304SOL    HW1 3911   1.242   1.450   2.870  0.4107 -0.0003 -0.4614
 1304SOL    HW2 3912   1.319   1.580   2.883 -1.4423  1.2595 -1.6190
 1305SOL     OW 3913   2.988   3.193   0.375  0.5336 -0.3008  0.3198
 1305SOL    HW1 3914   3.063   3.226   0.327 -0.2922  0.4583 -0.4841
 1305SOL    HW2 3915   2.926   3.164   0.307 -1.9690  3.5924  0.6266
 1306SOL     OW 3916   0.112   3.042   0.424  0.4843 -0.2112 -0.4043
 1306SOL    HW1 3917   0.067   3.084   0.497 -0.7260 -1.0907 -0.6175
 1306SOL    HW2 3918   0.065   3.072   0.346  0.1684 -1.2339 -0.6214
 1307SOL     OW 3919   1.985   0.573   1.481 -0.3190  0.4756  0.4555
 1307SOL    HW1 3920   1.895   0.603   1.467 -0.3477 -0.4298 -1.5457
 1307SOL    HW2 3921   1.976   0.484   1.513 -0.1404  0.2817 -0.0270
 1308SOL     OW 3922   1.544   1.389   1.171  0.1236 -0.3049 -0.0682
 1308SOL    HW1 3923   1.475   1.455   1.155 -1.4569 -2.1449 -1.3122
 1308SOL    HW2 3924   1.537   1.369   1.264 -1.5523 -0.9345 -0.2869
 1309SOL     OW 3925   0.463   1.326   2.504 -0.1778 -0.0300 -0.3529
 1309SOL    HW1 3926   0.434   1.380   2.577 -0.8164  0.5932 -1.0520
 1309SOL    HW2 3927   0.441   1.377   2.426  1.5024 -0.1698 -0.9594
 1310SOL     OW 3928   2.821   0.575   0.961  0.5336  0.9243  0.3924
 1310SOL    HW1 3929   2.743   0.629   0.978  0.8571  1.7959 -0.8251
 1310SOL    HW2 3930   2.802   0.531   0.879  0.6473 -0.1678  0.9374
 1311SOL     OW 3931   3.685   2.843   2.884  0.3691 -0.2758  0.6708
 1311SOL    HW1 3932   3.742   2.898   2.938  0.4132  0.7709 -0.3804
 1311SOL    HW2 3933   3.602   2.891   2.881  0.1960 -0.5924  0.2650
 1312SOL     OW 3934   0.411   3.166   3.990  0.7916 -0.1758  0.3190
 1312SOL    HW1 3935   0.401   3.099   3.922 -3.9919  0.6027 -0.0669
 1312SOL    HW2 3936   0.394   3.119   4.072  0.5362 -0.0097  0.3607
 1313SOL     OW 3937   2.214   0.410   2.221  0.0415  0.3092 -0.5267
 1313SOL    HW1 3938   2.285   0.469   2.246  1.7217 -2.1676  0.9274
 1313SOL    HW2 3939   2.242   0.374   2.137 -0.6620  1.0189 -1.0839
 1314SOL     OW 3940   1.038   1.520   2.396  0.2053  0.1339  0.0902
 1314SOL    HW1 3941   1.097   1.446   2.385  0.2132  0.3965 -1.9004
 1314SOL    HW2 3942   0.966   1.486   2.449  0.4040 -1.1844 -0.4628
 1315SOL     OW 3943   1.069   0.444   1.098  0.0731 -0.3926  1.0691
 1315SOL    HW1 3944   1.077   0.496   1.179  1.2318 -0.2943  0.9030
 1315SOL    HW2 3945   1.144   0.471   1.045  0.6380 -2.1551  0.9239
 1316SOL     OW 3946   2.399   1.673   0.203  0.6533  0.3330 -0.3558
 1316SOL    HW1 3947   2.428   1.753   0.249  0.2981 -0.1607  0.7568
 1316SOL    HW2 3948   2.455   1.604   0.238 -0.5271 -0.2919  0.3520
 1317SOL     OW 3949   3.012   0.483   1.517  0.0531  0.1941  0.5772
 1317SOL    HW1 3950   2.921   0.473   1.544 -0.0062 -0.7691  0.0638
 1317SOL    HW2 3951   3.021   0.425   1.441  1.3249 -0.4220  1.1758
 1318SOL     OW 3952   0.870   1.733   1.705  0.2859  0.3013  0.1356
 1318SOL    HW1 3953   0.962   1.758   1.698  0.2951 -0.1596 -3.2979
 1318SOL    HW2 3954   0.825   1.813   1.732  1.4725  1.1917 -0.4354
 1319SOL     OW 3955   3.336   1.386   2.627  0.0520  0.3921 -0.5723
 1319SOL    HW1 3956   3.314   1.323   2.558  2.9825 -0.3819 -0.9019
 1319SOL    HW2 3957   3.329   1.472   2.584  1.6335 -0.0692 -1.8148
 1320SOL     OW 3958   1.397   2.780   1.806 -0.0378  0.6061  0.0527
 1320SOL    HW1 3959   1.412   2.728   1.726  1.2852  1.1009 -0.0527
 1320SOL    HW2 3960   1.357   2.719   1.867  0.8003 -0.3574 -0.3246
 1321SOL     OW 3961   2.132   1.587   0.276  0.1147 -0.1499 -0.0713
 1321SOL    HW1 3962   2.223   1.594   0.246 -0.4117  0.2982 -1.6497
 1321SOL    HW2 3963   2.125   1.497   0.309  1.4246  0.1637  1.1958
 1322SOL     OW 3964   2.504   1.910   0.274  0.0998 -0.0390 -0.2261
 1322SOL    HW1 3965   2.569   1.957   0.221 -2.3797  1.4978 -2.1573
 1322SOL    HW2 3966   2.489   1.967   0.349 -0.3193  0.5500 -0.7408
 1323SOL     OW 3967   0.497   1.298   1.802  0.6075  0.1041  0.6878
 1323SOL    HW1 3968   0.497   1.249   1.884  0.1024 -0.9725  0.0580
 1323SOL    HW2 3969   0.576   1.352   1.806  0.3161  0.4553  2.1031
 1324SOL     OW 3970   2.248   2.315   1.978  0.1086 -0.4746  0.4187
 1324SOL    HW1 3971   2.289   2.352   1.900 -0.3059  0.7095  0.7393
 1324SOL    HW2 3972   2.184   2.253   1.945  0.0820 -0.1383 -0.1822
 1325SOL     OW 3973   2.142   1.775   1.764  0.2560 -0.4257  0.4837
 1325SOL    HW1 3974   2.090   1.779   1.845 -0.8732 -2.9957 -0.0091
 1325SOL    HW2 3975   2.204   1.847   1.772 -1.3482  0.8504  2.5568
 1326SOL     OW 3976   3.430   0.934   2.743  0.8838  0.1867 -0.4314
 1326SOL    HW1 3977   3.479   0.947   2.662  3.5756 -0.7124  0.9239
 1326SOL    HW2 3978   3.446   0.843   2.767 -0.0955  0.3452  0.9798
 1327SOL     OW 3979   2.848   0.349   3.957 -0.3122 -0.0205 -0.1143
 1327SOL    HW1 3980   2.878   0.302   3.879  2.4658  1.2681  0.0262
 1327SOL    HW2 3981   2.868   0.290   4.030 -1.0960 -0.4426 -0.2376
 1328SOL     OW 3982   3.395   2.094   0.575  0.3757 -0.4719  0.2500
 1328SOL    HW1 3983   3.407   2.143   0.494  0.6079  0.8054  1.0337
 1328SOL    HW2 3984   3.484   2.075   0.606  0.3121  0.2566  0.9071
 1329SOL     OW 3985   1.662   0.210   2.436 -0.0866  0.3271  0.5446
 1329SOL    HW1 3986   1.683   0.271   2.365  0.1391  2.8693  2.6545
 1329SOL    HW2 3987   1.736   0.218   2.497 -0.6912 -1.0873  1.5196
 1330SOL     OW 3988   3.042   2.795   3.691  0.5791  0.2348  0.4559
 1330SOL    HW1 3989   3.046   2.855   3.616  0.5801  0.6018  0.7451
 1330SOL    HW2 3990   3.117   2.737   3.679  1.5986  1.3847  1.0740
 1331SOL     OW 3991   0.351   1.497   3.347 -0.0532 -0.1296  0.3340
 1331SOL    HW1 3992   0.310   1.540   3.272  0.5578  1.3867  0.8154
 1331SOL    HW2 3993   0.381   1.569   3.402 -0.5067 -1.2056  2.0673
 1332SOL     OW 3994   1.027   0.302   2.793 -0.2803 -0.1984 -0.3813
 1332SOL    HW1 3995   1.085   0.267   2.725  0.3032 -0.2261  0.1227
 1332SOL    HW2 3996   1.057   0.392   2.805  1.5688 -1.0128  1.8621
 1333SOL     OW 3997   2.044   2.890   2.361 -0.2902 -0.3348  0.7000
 1333SOL    HW1 3998   2.011   2.820   2.418  1.1782 -2.0144 -0.3914
 1333SOL    HW2 3999   1.991   2.883   2.282  0.7016 -1.1290  0.0782
 1334SOL     OW 4000   1.696   2.366   3.481 -0.0672 -0.1508 -0.2537
 1334SOL    HW1 4001   1.691   2.378   3.576  0.1530  1.3852 -0.4223
 1334SOL    HW2 4002   1.605   2.348   3.455  0.0068 -1.5698  0.3342
 1335SOL     OW 4003   1.903   3.424   2.252  0.0402  0.1517  0.1009
 1335SOL    HW1 4004   1.919   3.368   2.328  1.3290 -1.4291 -1.2688
 1335SOL    HW2 4005   1.812   3.405   2.227 -0.0603 -0.0812  0.6286
 1336SOL     OW 4006   3.416   2.785   2.033  0.4774 -0.2829  0.0537
 1336SOL    HW1 4007   3.390   2.758   2.121 -0.0739 -1.5191 -0.4589
 1336SOL    HW2 4008   3.431   2.702   1.986 -1.3613  0.2726 -1.6362
 1337SOL     OW 4009   1.898   3.070   2.133 -0.5210 -0.3760 -0.5023
 1337SOL    HW1 4010   1.879   3.127   2.207 -0.8261 -1.3642  0.2007
 1337SOL    HW2 4011   1.818   3.074   2.079 -0.6179 -0.2953 -0.3529
 1338SOL     OW 4012   3.682   1.688   3.438  0.1112 -0.7931 -0.7579
 1338SOL    HW1 4013   3.638   1.614   3.397  0.3871 -1.3498 -0.0646
 1338SOL    HW2 4014   3.775   1.665   3.436  0.3764  0.2829 -2.0304
 1339SOL     OW 4015   2.338   1.394   1.852 -0.4458 -0.2834  0.1741
 1339SOL    HW1 4016   2.307   1.335   1.921 -1.1097 -0.4320 -0.2382
 1339SOL    HW2 4017   2.259   1.417   1.803 -1.1696  4.8003  3.0798
 1340SOL     OW 4018   3.106   2.674   1.088 -0.1867  0.0157  0.3298
 1340SOL    HW1 4019   3.062   2.666   1.004 -0.5033 -1.4122  0.6017
 1340SOL    HW2 4020   3.126   2.768   1.097 -0.0526  0.1701 -1.3600
 1341SOL     OW 4021   0.109   3.462   0.232  0.0240 -0.2150  0.3815
 1341SOL    HW1 4022   0.205   3.462   0.235  0.1821  1.4025 -1.8676
 1341SOL    HW2 4023   0.084   3.541   0.280  0.1006  1.3462 -1.9867
 1342SOL     OW 4024   1.447   2.392   0.493  0.4710 -0.5957  0.2631
 1342SOL    HW1 4025   1.380   2.324   0.486 -1.8342  1.6285 -0.8406
 1342SOL    HW2 4026   1.442   2.420   0.585 -0.7448  0.1221 -0.0079
 1343SOL     OW 4027   2.156   3.964   0.531 -0.2710 -0.6561  0.1306
 1343SOL    HW1 4028   2.072   3.920   0.521 -0.0941 -0.9074 -0.2820
 1343SOL    HW2 4029   2.180   3.949   0.623 -0.5238 -0.8582  0.1632
 1344SOL     OW 4030   0.423   0.469   3.780 -0.3364 -0.2519 -0.2377
 1344SOL    HW1 4031   0.408   0.386   3.735  0.1913 -1.1999  1.2435
 1344SOL    HW2 4032   0.362   0.467   3.854 -1.0507  1.1752 -0.7498
 1345SOL     OW 4033   2.178   0.679   0.909 -0.2387 -0.0087 -0.0572
 1345SOL    HW1 4034   2.186   0.692   1.003  2.3437  0.2811 -0.2500
 1345SOL    HW2 4035   2.086   0.657   0.896 -1.1125  1.8156  2.2874
 1346SOL     OW 4036   3.996   0.108   1.279  0.6354 -0.1732 -0.0633
 1346SOL    HW1 4037   3.935   0.112   1.353  0.1819  1.0599 -0.4822
 1346SOL    HW2 4038   4.043   0.192   1.283  1.0298 -0.3530 -0.8250
 1347SOL     OW 4039   2.590   0.434   1.303  0.1480  0.5717 -0.0284
 1347SOL    HW1 4040   2.503   0.469   1.286  0.0330  0.8157  1.0393
 1347SOL    HW2 4041   2.642   0.510   1.329  0.2286  0.1596  1.0448
 1348SOL     OW 4042   0.599   3.395   2.386  0.3507 -0.0333 -0.4782
 1348SOL    HW1 4043   0.615   3.304   2.411 -1.9072 -0.6951 -1.1748
 1348SOL    HW2 4044   0.592   3.442   2.469 -1.9973 -1.2285  0.0845
 1349SOL     OW 4045   3.034   2.705   0.536  0.0012  0.2422  0.3602
 1349SOL    HW1 4046   2.940   2.693   0.552 -0.1306  1.5856  0.7422
 1349SOL    HW2 4047   3.069   2.616   0.532 -1.6235 -0.4026 -1.9564
 1350SOL     OW 4048   0.069   3.949   2.124 -0.4290  0.3022 -0.3952
 1350SOL    HW1 4049   0.152   3.978   2.163 -0.4800  2.6482 -1.8307
 1350SOL    HW2 4050   0.003   4.002   2.168 -0.6227  1.9359 -2.4725
 1351SOL     OW 4051   1.492   1.095   2.059 -0.6414 -0.5300 -0.1667
 1351SOL    HW1 4052   1.413   1.060   2.018 -1.3271 -0.9639  1.4698
 1351SOL    HW2 4053   1.560   1.032   2.036 -0.5879  0.1526 -2.0872
 1352SOL     OW 4054   1.013   1.532   3.050 -0.0368  0.4872 -0.2280
 1352SOL    HW1 4055   1.076   1.516   2.980 -0.9723  2.1378 -1.5557
 1352SOL    HW2 4056   1.066   1.550   3.127  1.1176  1.0245 -1.1162
 1353SOL     OW 4057   0.631   1.823   3.858 -0.0653  0.0562 -0.2033
 1353SOL    HW1 4058   0.636   1.747   3.800 -0.0045  0.6507 -0.9996
 1353SOL    HW2 4059   0.633   1.787   3.947 -1.5472 -0.9660 -0.5571
 1354SOL     OW 4060   2.334   3.402   1.878 -0.1619 -0.4531 -0.6984
 1354SOL    HW1 4061   2.262   3.440   1.828 -0.2095 -0.3699 -0.5655
 1354SOL    HW2 4062   2.293   3.373   1.960  0.0232 -0.0912 -0.4773
 1355SOL     OW 4063   0.682   3.777   1.800 -0.2607  0.4883  0.3558
 1355SOL    HW1 4064   0.645   3.688   1.798 -0.2932  0.5221 -0.8669
 1355SOL    HW2 4065   0.774   3.764   1.823  0.2636 -0.0682 -1.8923
 1356SOL     OW 4066   1.275   1.231   1.152  0.2166 -0.1582  0.2034
 1356SOL    HW1 4067   1.253   1.268   1.238  0.2174  0.6632 -0.1397
 1356SOL    HW2 4068   1.370   1.220   1.153 -0.0212 -3.0521  1.4275
 1357SOL     OW 4069   3.238   2.929   1.612  0.4270 -0.0198  0.4585
 1357SOL    HW1 4070   3.248   2.903   1.521 -1.9995  1.7398 -0.4063
 1357SOL    HW2 4071   3.162   2.880   1.643  0.7094  0.0443  1.2839
 1358SOL     OW 4072   3.380   0.895   3.376 -0.0854  0.2275  0.1658
 1358SOL    HW1 4073   3.445   0.898   3.306 -0.0806 -3.0457 -0.1439
 1358SOL    HW2 4074   3.426   0.929   3.453  1.1117  0.4607 -0.6187
 1359SOL     OW 4075   0.065   2.544   1.393  0.3127  0.1394 -0.0976
 1359SOL    HW1 4076   0.056   2.461   1.346  1.1944  0.4534 -0.8444
 1359SOL    HW2 4077  -0.020   2.587   1.384  0.1379 -0.2839 -0.4789
 1360SOL     OW 4078   1.457   3.860   0.312  0.4400  0.1373  0.1778
 1360SOL    HW1 4079   1.525   3.926   0.325 -0.1810  0.6215  1.0664
 1360SOL    HW2 4080   1.379   3.898   0.352 -0.2367 -0.6183 -0.3947
 1361SOL     OW 4081   3.065   3.857   0.343 -0.0662  0.3464 -0.1327
 1361SOL    HW1 4082   3.049   3.851   0.248 -2.3682 -0.9102  0.2729
 1361SOL    HW2 4083   2.998   3.918   0.375 -1.4569 -1.7058  1.0735
 1362SOL     OW 4084   0.806   1.767   2.083 -0.7335 -0.6661 -0.3304
 1362SOL    HW1 4085   0.720   1.744   2.048 -1.4104  1.1786 -0.0152
 1362SOL    HW2 4086   0.848   1.818   2.014 -1.1652  1.0670  0.6436
 1363SOL     OW 4087   1.215   1.916   0.442  0.4771  0.1933 -0.1171
 1363SOL    HW1 4088   1.198   1.878   0.528  0.0037  0.0480 -0.2709
 1363SOL    HW2 4089   1.151   1.874   0.384 -0.3437  1.5231 -0.2083
 1364SOL     OW 4090   3.697   2.047   3.016  0.4198 -0.2588  0.0905
 1364SOL    HW1 4091   3.712   1.988   2.942 -1.6480 -1.4325  0.5382
 1364SOL    HW2 4092   3.730   1.999   3.092 -2.1859 -1.3992  0.6023
 1365SOL     OW 4093   2.655   0.241   1.996 -0.4036 -0.3506 -0.5454
 1365SOL    HW1 4094   2.750   0.231   1.995 -0.6145 -3.1364 -0.1787
 1365SOL    HW2 4095   2.621   0.155   1.973 -2.8653  0.1904  0.6642
 1366SOL     OW 4096   0.185   0.532   3.427 -0.6754 -0.2330 -0.0381
 1366SOL    HW1 4097   0.122   0.519   3.356 -0.8946 -1.9418  0.4211
 1366SOL    HW2 4098   0.246   0.458   3.418 -1.6741 -1.4880  2.5154
 1367SOL     OW 4099   2.998   3.963   3.037  0.3471  0.0237 -0.6890
 1367SOL    HW1 4100   3.057   3.935   3.107  0.3700  0.8348 -0.3735
 1367SOL    HW2 4101   2.915   3.919   3.055 -0.4375  2.1457  1.3248
 1368SOL     OW 4102   0.801   2.083   1.415  0.2668  0.0291  0.3089
 1368SOL    HW1 4103   0.877   2.051   1.464 -0.5780 -0.7503  1.1709
 1368SOL    HW2 4104   0.733   2.018   1.433 -0.2178 -0.0261 -1.5613
 1369SOL     OW 4105   0.430   1.629   0.060 -0.9798 -0.5315 -0.0903
 1369SOL    HW1 4106   0.515   1.587   0.054 -0.7516  0.1176 -2.2158
 1369SOL    HW2 4107   0.367   1.556   0.058 -0.5570 -0.9382 -2.6734
 1370SOL     OW 4108   0.672   2.462   2.235  0.6867  0.6049  0.0061
 1370SOL    HW1 4109   0.693   2.372   2.211 -1.7856 -0.8406  2.5898
 1370SOL    HW2 4110   0.586   2.456   2.277 -0.5815  4.5250 -1.5738
 1371SOL     OW 4111   0.574   0.442   2.642  0.0792  0.1942 -0.0451
 1371SOL    HW1 4112   0.642   0.510   2.640  0.8140 -0.5533 -1.2958
 1371SOL    HW2 4113   0.595   0.389   2.719 -1.1106  1.9161  1.5976
 1372SOL     OW 4114   0.509   1.026   3.107  0.8053  0.1440 -1.0001
 1372SOL    HW1 4115   0.449   1.098   3.128  0.5746  0.1763 -1.7594
 1372SOL    HW2 4116   0.564   1.018   3.185  0.3269  0.6311 -0.6035
 1373SOL     OW 4117   2.444   2.510   0.814 -0.2907 -0.0657 -0.3449
 1373SOL    HW1 4118   2.352   2.537   0.823  0.1810  1.8269 -0.7566
 1373SOL    HW2 4119   2.490   2.589   0.788  1.8775 -0.3889  2.0524
 1374SOL     OW 4120   0.375   2.584   0.597  0.4769 -0.4913 -0.2802
 1374SOL    HW1 4121   0.332   2.533   0.529 -0.6459  0.8610 -0.6142
 1374SOL    HW2 4122   0.318   2.660   0.611  2.2013  0.8100  0.0446
 1375SOL     OW 4123   2.216   1.840   3.699 -0.2953 -0.0514  0.3872
 1375SOL    HW1 4124   2.192   1.931   3.681  2.3069  1.0117  1.6851
 1375SOL    HW2 4125   2.240   1.840   3.791  0.2379 -1.9593  0.2787
 1376SOL     OW 4126   3.505   3.933   3.965  0.2266  0.2803  0.0267
 1376SOL    HW1 4127   3.529   3.987   3.889  0.6887  0.5458  0.3598
 1376SOL    HW2 4128   3.424   3.971   3.997  0.3837  0.5792  0.0690
 1377SOL     OW 4129   1.709   2.307   1.134  0.4989  0.4558  0.2640
 1377SOL    HW1 4130   1.775   2.367   1.099  1.8297 -1.6218 -0.9672
 1377SOL    HW2 4131   1.647   2.294   1.062  1.1193 -0.8511 -0.0667
 1378SOL     OW 4132   2.020   1.586   1.240 -0.2092 -0.8687  0.5266
 1378SOL    HW1 4133   1.956   1.532   1.193  0.2147 -1.2288  0.3595
 1378SOL    HW2 4134   1.979   1.603   1.325 -1.3634  0.5167 -0.2605
 1379SOL     OW 4135   2.262   1.923   0.704  0.6716 -0.6760  0.3420
 1379SOL    HW1 4136   2.214   1.945   0.625 -0.8001  1.1836  1.6456
 1379SOL    HW2 4137   2.219   1.845   0.738  0.8764 -1.0828 -0.3166
 1380SOL     OW 4138   2.823   0.264   1.632  0.2515  0.1782  0.0199
 1380SOL    HW1 4139   2.758   0.228   1.694  0.1884 -0.6182 -0.4973
 1380SOL    HW2 4140   2.776   0.334   1.588 -0.5745 -0.9431 -0.9608
 1381SOL     OW 4141   2.238   2.000   0.244 -0.2500  0.8326  0.7988
 1381SOL    HW1 4142   2.311   1.939   0.232 -0.5633  0.5023  0.5440
 1381SOL    HW2 4143   2.218   1.996   0.337 -0.3363  0.4687  0.7658
 1382SOL     OW 4144   2.913   3.136   2.342 -0.3149 -0.0074  0.3012
 1382SOL    HW1 4145   2.992   3.190   2.338 -2.0004  2.7934  1.9715
 1382SOL    HW2 4146   2.889   3.123   2.250  1.6960 -0.4180 -0.2221
 1383SOL     OW 4147   1.961   0.034   0.885  0.1902  0.8551 -0.1153
 1383SOL    HW1 4148   1.913   0.074   0.812 -1.2358  1.4024  1.0693
 1383SOL    HW2 4149   1.929  -0.056   0.887 -0.4575  1.0874  0.3730
 1384SOL     OW 4150   1.865   2.343   0.061 -0.2134 -0.4568 -0.4549
 1384SOL    HW1 4151   1.858   2.280  -0.010 -2.3634  0.3690 -1.0659
 1384SOL    HW2 4152   1.851   2.428   0.019  0.5251  0.2409  0.6566
 1385SOL     OW 4153   2.103   2.825   1.437 -0.0412 -0.2807  0.3647
 1385SOL    HW1 4154   2.180   2.775   1.410 -1.7459 -1.9768 -1.6956
 1385SOL    HW2 4155   2.073   2.781   1.517  1.3295  0.7050  1.4763
 1386SOL     OW 4156   2.084   1.586   2.450 -0.4539 -0.1230 -0.1391
 1386SOL    HW1 4157   1.996   1.625   2.451 -0.6459 -0.5508 -0.1372
 1386SOL    HW2 4158   2.091   1.547   2.363  0.4113  1.4206 -0.7923
 1387SOL     OW 4159   1.793   0.303   1.971  0.4369  0.1998 -0.2959
 1387SOL    HW1 4160   1.744   0.280   1.892  0.5046  0.4870 -0.4242
 1387SOL    HW2 4161   1.837   0.385   1.948  0.9847 -0.0606 -0.1867
 1388SOL     OW 4162   2.091   2.942   2.830  0.0459 -0.1872  0.3923
 1388SOL    HW1 4163   2.021   2.972   2.888  1.4531 -0.2194  2.2017
 1388SOL    HW2 4164   2.116   2.856   2.864 -1.3149 -1.8562 -2.3825
 1389SOL     OW 4165   1.695   3.249   1.361 -0.1759 -0.0550  0.0891
 1389SOL    HW1 4166   1.608   3.226   1.328 -0.1833 -0.4121  0.3562
 1389SOL    HW2 4167   1.745   3.168   1.355  0.3346  0.3027 -0.6718
 1390SOL     OW 4168   3.822   0.095   1.500  0.5658 -0.0674 -0.3699
 1390SOL    HW1 4169   3.805   0.013   1.454 -0.6808 -0.4505  0.7296
 1390SOL    HW2 4170   3.753   0.101   1.565  2.2422  0.4420  1.4767
 1391SOL     OW 4171   3.192   2.088   2.751 -0.1167  0.2436 -0.1453
 1391SOL    HW1 4172   3.103   2.089   2.786  0.1039  0.1055  0.4403
 1391SOL    HW2 4173   3.241   2.148   2.806 -0.0329  0.9883 -1.0097
 1392SOL     OW 4174   0.153   0.731   2.246 -0.1701  0.2811 -0.9078
 1392SOL    HW1 4175   0.172   0.820   2.276  0.1083  0.0257 -0.3149
 1392SOL    HW2 4176   0.057   0.725   2.251 -0.1274  0.2321 -0.0198
 1393SOL     OW 4177   0.863   0.178   0.656  0.1016  0.0428 -0.0871
 1393SOL    HW1 4178   0.910   0.096   0.668 -2.0224 -1.2395 -0.1672
 1393SOL    HW2 4179   0.910   0.222   0.584  2.7424  0.1178  1.5407
 1394SOL     OW 4180   3.395   2.519   1.952  0.0516  0.1712  0.1810
 1394SOL    HW1 4181   3.422   2.429   1.969 -1.2239 -0.6278 -1.6647
 1394SOL    HW2 4182   3.307   2.524   1.989  1.1950  1.6696  3.0006
 1395SOL     OW 4183   2.011   0.109   1.949  0.0843 -0.1091 -0.3604
 1395SOL    HW1 4184   1.952   0.033   1.951  0.3841 -0.3391  0.6587
 1395SOL    HW2 4185   1.989   0.157   2.029 -0.2687  1.0194 -1.1147
 1396SOL     OW 4186   1.381   2.387   1.918 -0.7418  0.4900 -0.0274
 1396SOL    HW1 4187   1.372   2.431   1.834  1.1275 -1.1333 -1.1583
 1396SOL    HW2 4188   1.434   2.310   1.899 -0.6120 -0.1516  2.5835
 1397SOL     OW 4189   1.435   0.527   2.715  0.3402  0.3072 -0.4162
 1397SOL    HW1 4190   1.445   0.451   2.658  1.4768  0.5906 -0.6243
 1397SOL    HW2 4191   1.448   0.602   2.657  4.0531  0.6060  0.5125
 1398SOL     OW 4192   0.265   2.872   3.555 -0.4619 -0.2444  0.5586
 1398SOL    HW1 4193   0.212   2.793   3.542  0.0498 -0.2749 -1.8531
 1398SOL    HW2 4194   0.296   2.866   3.645  2.3613 -4.6572 -0.3936
 1399SOL     OW 4195   2.698   1.572   2.467 -0.9615 -0.4351  0.1646
 1399SOL    HW1 4196   2.728   1.662   2.480 -2.0564  0.0178 -0.2952
 1399SOL    HW2 4197   2.603   1.577   2.476 -1.1638 -1.3022 -1.1278
 1400SOL     OW 4198   1.898   1.165   0.764  0.0621  0.1493  0.8200
 1400SOL    HW1 4199   1.841   1.109   0.817 -0.4255  0.6433  0.8381
 1400SOL    HW2 4200   1.844   1.242   0.746  0.2387  0.0111 -0.3612
 1401SOL     OW 4201   2.645   2.878   3.427 -0.0752 -0.4592 -0.0794
 1401SOL    HW1 4202   2.669   2.812   3.492 -0.8210 -0.0079  0.6829
 1401SOL    HW2 4203   2.625   2.957   3.479  0.7090  0.3431 -0.9607
 1402SOL     OW 4204   1.015   3.695   3.475 -0.2749 -0.0050  0.3664
 1402SOL    HW1 4205   1.029   3.601   3.469  2.1557  0.3469 -1.6436
 1402SOL    HW2 4206   0.940   3.712   3.418 -0.6872 -0.6893  0.6926
 1403SOL     OW 4207   1.290   3.401   3.710  0.1368  0.1071  0.1613
 1403SOL    HW1 4208   1.240   3.478   3.684 -0.5830 -0.8939 -1.5707
 1403SOL    HW2 4209   1.373   3.436   3.741 -0.1279  1.5676 -0.6799
 1404SOL     OW 4210   0.512   0.473   1.213 -0.5294 -0.1781  0.0034
 1404SOL    HW1 4211   0.586   0.413   1.204 -0.7362 -0.2007 -1.9315
 1404SOL    HW2 4212   0.484   0.491   1.123 -0.1789  3.1841  0.4337
 1405SOL     OW 4213   0.943   0.804   1.149  0.0980  0.2658  0.1539
 1405SOL    HW1 4214   1.034   0.834   1.150  0.3084 -0.3419  0.9749
 1405SOL    HW2 4215   0.891   0.884   1.152  0.5638  0.6835 -1.8563
 1406SOL     OW 4216   2.635   0.763   1.066 -0.4866  0.2390 -0.2386
 1406SOL    HW1 4217   2.666   0.719   1.145 -1.3048 -0.9232 -0.5271
 1406SOL    HW2 4218   2.565   0.820   1.097 -0.3706  0.2720 -0.0364
 1407SOL     OW 4219   3.535   0.375   1.543  0.1749  0.1671  0.1984
 1407SOL    HW1 4220   3.620   0.418   1.540  0.3236 -0.1658 -0.6506
 1407SOL    HW2 4221   3.494   0.407   1.624  0.8286  0.8454  0.2662
 1408SOL     OW 4222   0.823   3.493   0.224  0.3107  0.0807  0.1243
 1408SOL    HW1 4223   0.769   3.418   0.201 -0.5368  0.5569  0.4971
 1408SOL    HW2 4224   0.913   3.462   0.214 -0.0121 -1.1136  0.6613
 1409SOL     OW 4225   3.896   2.780   1.110 -0.0368  0.0250 -0.0105
 1409SOL    HW1 4226   3.916   2.789   1.017  0.5478 -0.1717  0.0880
 1409SOL    HW2 4227   3.806   2.749   1.114  0.2226 -0.8281 -0.5398
 1410SOL     OW 4228   1.546   3.468   0.028  0.1246 -0.2001  0.5086
 1410SOL    HW1 4229   1.503   3.383   0.019 -0.8674  0.2986  0.4478
 1410SOL    HW2 4230   1.541   3.488   0.121 -1.5745  0.7566  0.2468
 1411SOL     OW 4231   3.077   1.129   0.620  0.6993  0.6882  0.0396
 1411SOL    HW1 4232   3.135   1.171   0.684 -2.5972  0.0165  3.7751
 1411SOL    HW2 4233   3.046   1.201   0.565  0.6074  1.9959  1.7454
 1412SOL     OW 4234   1.034   1.552   1.095  0.4361  0.5638 -0.1651
 1412SOL    HW1 4235   0.969   1.551   1.165 -0.9137  0.7763 -1.3724
 1412SOL    HW2 4236   1.109   1.598   1.133 -0.3402  0.8671  1.0630
 1413SOL     OW 4237   3.278   3.460   0.404 -0.0598 -0.0868 -0.4908
 1413SOL    HW1 4238   3.370   3.453   0.379  0.1287 -0.3118  0.2564
 1413SOL    HW2 4239   3.234   3.485   0.323  0.7259  0.5302 -0.7484
 1414SOL     OW 4240   1.515   2.146   0.219 -0.0846 -0.6810 -0.1110
 1414SOL    HW1 4241   1.534   2.239   0.207  2.1579 -0.7445  1.9371
 1414SOL    HW2 4242   1.462   2.121   0.144  0.0022  2.0439 -1.1649
 1415SOL     OW 4243   2.888   2.117   2.319 -0.4408  0.2307  0.1013
 1415SOL    HW1 4244   2.800   2.098   2.284 -0.6716 -0.7948  1.1895
 1415SOL    HW2 4245   2.947   2.084   2.251 -0.8884 -1.0145  0.2839
 1416SOL     OW 4246   2.796   2.035   1.971  0.0140 -0.0410 -0.2592
 1416SOL    HW1 4247   2.763   2.113   2.015  1.5303 -0.3894  1.6434
 1416SOL    HW2 4248   2.801   1.969   2.040 -0.2936 -1.5415 -1.6134
 1417SOL     OW 4249   0.355   2.982   1.383  0.1226  0.5262 -0.4327
 1417SOL    HW1 4250   0.268   2.956   1.415  0.6200  1.2708  1.7187
 1417SOL    HW2 4251   0.406   2.902   1.385 -0.1285  0.3681 -0.3163
 1418SOL     OW 4252   2.726   1.108   3.287  0.0422 -0.4634  0.1414
 1418SOL    HW1 4253   2.672   1.181   3.257 -0.5859 -0.7936  0.4527
 1418SOL    HW2 4254   2.686   1.080   3.369  1.4226  0.0859  1.0475
 1419SOL     OW 4255   1.136   3.631   1.310  0.2530  0.7632 -0.5019
 1419SOL    HW1 4256   1.142   3.726   1.320  0.0061  0.6439  1.2473
 1419SOL    HW2 4257   1.051   3.609   1.348  0.4310 -0.1860 -0.6373
 1420SOL     OW 4258   1.066   1.662   2.141 -0.1160 -0.0689 -0.4500
 1420SOL    HW1 4259   0.976   1.682   2.116 -0.2633 -0.7755 -0.5068
 1420SOL    HW2 4260   1.058   1.621   2.228  0.2024  0.3686 -0.2077
 1421SOL     OW 4261   3.711   1.648   3.720  0.2114  0.8119  0.1042
 1421SOL    HW1 4262   3.791   1.697   3.736  0.1353  0.9791 -0.0278
 1421SOL    HW2 4263   3.698   1.653   3.625  0.0298  0.8105  0.1285
 1422SOL     OW 4264   3.971   2.256   1.037 -0.4607 -0.2633 -0.2263
 1422SOL    HW1 4265   3.921   2.316   0.981  1.1146  1.0007 -0.3256
 1422SOL    HW2 4266   3.957   2.170   0.997 -1.8844  0.1575 -0.7105
 1423SOL     OW 4267   2.069   2.475   0.246  0.2721 -0.0011  0.2794
 1423SOL    HW1 4268   2.027   2.437   0.169  0.4248 -1.9418  1.1206
 1423SOL    HW2 4269   2.003   2.535   0.282 -0.9407 -1.3066  0.3061
 1424SOL     OW 4270   2.914   0.179   0.162  0.2671 -0.0958 -0.3804
 1424SOL    HW1 4271   2.848   0.212   0.223  1.1573 -0.6144  0.9287
 1424SOL    HW2 4272   2.880   0.094   0.134 -0.8639  0.7962 -1.8345
 1425SOL     OW 4273   2.725   0.705   2.219  0.2437  0.0809 -0.8174
 1425SOL    HW1 4274   2.784   0.635   2.247  1.8191  1.0136 -1.6490
 1425SOL    HW2 4275   2.710   0.689   2.126 -0.8009 -0.1181 -0.6256
 1426SOL     OW 4276   0.073   2.002   1.973  0.1377  0.2357  0.1835
 1426SOL    HW1 4277   0.094   1.909   1.963 -1.0288 -0.3763  2.5900
 1426SOL    HW2 4278  -0.020   2.007   1.954 -0.2584  0.4854  1.9911
 1427SOL     OW 4279   3.208   3.856   2.497 -0.1815  0.5735  0.3616
 1427SOL    HW1 4280   3.156   3.928   2.461 -0.0282  0.0177 -1.0394
 1427SOL    HW2 4281   3.149   3.781   2.498  0.0340  0.4048  0.6032
 1428SOL     OW 4282   2.656   0.683   1.374 -0.8821  0.7958 -0.0118
 1428SOL    HW1 4283   2.589   0.749   1.394 -2.1680 -0.0649 -1.2385
 1428SOL    HW2 4284   2.737   0.733   1.363 -1.6726  2.0916 -0.1570
 1429SOL     OW 4285   3.839   0.763   1.752  0.1350 -0.3101  0.7047
 1429SOL    HW1 4286   3.923   0.724   1.727  0.1931  1.1120 -1.6403
 1429SOL    HW2 4287   3.862   0.835   1.810  0.2109 -2.0092  2.9028
 1430SOL     OW 4288   2.002   3.625   3.040 -0.1227 -0.5531  0.3433
 1430SOL    HW1 4289   2.071   3.560   3.027  0.7343  0.5332 -0.7885
 1430SOL    HW2 4290   1.948   3.589   3.111  0.9518 -1.9543  0.4934
 1431SOL     OW 4291   3.117   2.942   0.975 -0.0948 -0.8116  0.5545
 1431SOL    HW1 4292   3.159   2.926   0.890  0.7512 -0.9774  0.9972
 1431SOL    HW2 4293   3.119   3.037   0.985 -2.3326 -0.5663 -0.6647
 1432SOL     OW 4294   0.039   0.148   3.266  0.2105  0.0053 -0.7731
 1432SOL    HW1 4295   0.124   0.131   3.307 -0.3377  0.9514  0.9028
 1432SOL    HW2 4296  -0.004   0.063   3.262  0.2301 -0.1160  0.8613
 1433SOL     OW 4297   3.393   1.126   0.374  0.7078  0.6806  0.1929
 1433SOL    HW1 4298   3.304   1.094   0.392 -0.2953  2.1031 -1.8597
 1433SOL    HW2 4299   3.446   1.089   0.445 -1.3485 -0.8752  1.0395
 1434SOL     OW 4300   0.286   0.313   2.383 -0.5577  0.2930 -0.0300
 1434SOL    HW1 4301   0.250   0.241   2.435  0.5443 -0.3165 -0.0802
 1434SOL    HW2 4302   0.295   0.386   2.444 -0.7480  0.0766  0.2555
 1435SOL     OW 4303   1.363   3.355   0.682  0.2175  0.5392  0.1718
 1435SOL    HW1 4304   1.304   3.389   0.614  1.0166  1.3370 -0.1488
 1435SOL    HW2 4305   1.451   3.377   0.650  0.9121 -2.7544 -0.5590
 1436SOL     OW 4306   3.710   3.805   1.728  0.1177  0.2008 -0.1654
 1436SOL    HW1 4307   3.688   3.897   1.712 -1.7676 -0.1818  0.0127
 1436SOL    HW2 4308   3.733   3.802   1.821 -0.2881  0.3964 -0.0581
 1437SOL     OW 4309   2.087   2.509   3.327 -0.7039 -0.2239 -0.5263
 1437SOL    HW1 4310   2.088   2.416   3.305 -1.9436  0.0512 -1.9262
 1437SOL    HW2 4311   2.104   2.554   3.244  0.0741  0.8115  0.1638
 1438SOL     OW 4312   0.229   1.149   2.101  0.1360  0.5590 -0.1993
 1438SOL    HW1 4313   0.134   1.150   2.096  0.1222 -0.6840 -0.4128
 1438SOL    HW2 4314   0.249   1.086   2.171  0.8046  0.3932 -0.5291
 1439SOL     OW 4315   1.039   2.087   0.271  0.9500  0.8020  0.5525
 1439SOL    HW1 4316   1.007   2.174   0.249  1.3017  0.6070 -0.8469
 1439SOL    HW2 4317   1.118   2.077   0.219  0.3642 -0.7277 -0.1148
 1440SOL     OW 4318   2.103   0.995   0.629 -0.8452 -0.0047 -0.1242
 1440SOL    HW1 4319   2.044   1.049   0.681 -0.6272 -0.3611  0.5001
 1440SOL    HW2 4320   2.175   1.054   0.606 -1.3725  0.3977 -0.7880
 1441SOL     OW 4321   2.588   2.551   3.072  0.2379 -0.0802  0.2610
 1441SOL    HW1 4322   2.611   2.459   3.086  0.4171 -0.4233 -1.9068
 1441SOL    HW2 4323   2.555   2.581   3.157  0.9395 -1.9036  1.2286
 1442SOL     OW 4324   1.358   0.126   2.910 -0.5459 -0.1956  0.0450
 1442SOL    HW1 4325   1.332   0.052   2.964  1.5262 -0.4490  0.7514
 1442SOL    HW2 4326   1.439   0.098   2.867 -0.7016  1.0011 -1.1093
 1443SOL     OW 4327   3.021   2.996   1.382  0.2333 -0.4173  0.0500
 1443SOL    HW1 4328   3.102   2.945   1.369  0.6293 -0.1274  1.2618
 1443SOL    HW2 4329   2.951   2.933   1.370  0.7216 -1.3079  1.6134
 1444SOL     OW 4330   3.695   1.280   3.612  0.8935  0.3096 -0.2566
 1444SOL    HW1 4331   3.758   1.266   3.683  0.4193 -0.6084  0.0000
 1444SOL    HW2 4332   3.748   1.274   3.532  1.4318  1.3599  0.0013
 1445SOL     OW 4333   2.135   1.548  -0.004  0.4361  0.0813  1.0854
 1445SOL    HW1 4334   2.198   1.621  -0.003  0.8398 -0.2492  2.5834
 1445SOL    HW2 4335   2.094   1.551   0.083  0.4216 -1.4474  1.1488
 1446SOL     OW 4336   1.549   3.353   2.402  0.0533  0.0484 -0.6361
 1446SOL    HW1 4337   1.574   3.343   2.311 -0.5123 -2.0501 -0.6184
 1446SOL    HW2 4338   1.453   3.353   2.401  0.0382  0.5400 -0.0731
 1447SOL     OW 4339   3.370   3.164   0.830  0.1751 -0.1618 -0.6807
 1447SOL    HW1 4340   3.334   3.183   0.917  0.9232  0.5765 -0.5213
 1447SOL    HW2 4341   3.411   3.246   0.802 -0.3911 -0.2701 -1.9064
 1448SOL     OW 4342   2.537   2.835   2.041 -0.0114  0.0516 -0.9394
 1448SOL    HW1 4343   2.444   2.837   2.065  0.5770 -1.3400  1.8349
 1448SOL    HW2 4344   2.570   2.756   2.081  2.2013 -0.0751 -2.8328
 1449SOL     OW 4345   3.383   0.773   0.421  0.0555 -0.8132  0.1382
 1449SOL    HW1 4346   3.367   0.750   0.513  0.9330  2.6320  1.2874
 1449SOL    HW2 4347   3.297   0.802   0.389  0.0114 -0.7583  0.3002
 1450SOL     OW 4348   2.350   2.982   0.255 -0.2003 -0.2380  0.0788
 1450SOL    HW1 4349   2.305   3.007   0.174  0.1842  1.1180  0.2612
 1450SOL    HW2 4350   2.423   3.044   0.261 -1.0011  0.5724  2.1585
 1451SOL     OW 4351   2.636   0.977   2.264  0.2335 -0.1549 -0.1047
 1451SOL    HW1 4352   2.645   0.886   2.293  0.6366 -0.5499 -1.4013
 1451SOL    HW2 4353   2.557   0.978   2.210  0.3390  0.2215 -0.2562
 1452SOL     OW 4354   0.488   3.708   3.437  0.5903 -0.5630 -0.4500
 1452SOL    HW1 4355   0.452   3.746   3.517  0.1903 -1.9312  0.0683
 1452SOL    HW2 4356   0.425   3.639   3.414  1.2783 -0.9156 -1.3151
 1453SOL     OW 4357   3.514   2.582   3.202 -0.1731 -0.0067 -0.2231
 1453SOL    HW1 4358   3.467   2.659   3.233 -1.1007  0.2967 -2.2503
 1453SOL    HW2 4359   3.482   2.568   3.113  2.2995 -0.8391 -1.0753
 1454SOL     OW 4360   2.887   3.307   3.118  0.4600 -0.5981  0.6960
 1454SOL    HW1 4361   2.802   3.344   3.093  0.8940  0.8488  1.2409
 1454SOL    HW2 4362   2.915   3.258   3.042 -0.3369 -0.1175  0.0702
 1455SOL     OW 4363   0.847   3.703   3.256  0.1169  0.0958 -0.2072
 1455SOL    HW1 4364   0.918   3.655   3.212  0.4602 -2.0024  2.4115
 1455SOL    HW2 4365   0.772   3.693   3.197  1.3218  0.2250 -1.8489
 1456SOL     OW 4366   2.247   1.240   1.256 -0.4427  0.0206  0.0682
 1456SOL    HW1 4367   2.318   1.200   1.205 -0.3729 -0.9569  0.9040
 1456SOL    HW2 4368   2.207   1.302   1.195 -0.1495 -0.8634 -1.0885
 1457SOL     OW 4369   0.312   1.344   0.096 -0.3952  0.3160  0.1178
 1457SOL    HW1 4370   0.261   1.329   0.017  1.5288 -0.4303 -1.0611
 1457SOL    HW2 4371   0.375   1.272   0.097 -0.7358 -0.0300  2.6772
 1458SOL     OW 4372   1.414   0.263   1.711  0.4075 -0.4120 -0.8221
 1458SOL    HW1 4373   1.343   0.209   1.676  0.2309 -0.7570  0.0382
 1458SOL    HW2 4374   1.483   0.258   1.644 -0.0203 -0.8262 -1.2416
 1459SOL     OW 4375   1.832   3.650   2.075 -0.1839  0.1387 -0.3460
 1459SOL    HW1 4376   1.769   3.588   2.040 -1.7645 -0.0181  2.5070
 1459SOL    HW2 4377   1.876   3.603   2.145 -0.1700  1.6708  0.7226
 1460SOL     OW 4378   0.184   1.112   2.744  0.1258  0.4301  0.1673
 1460SOL    HW1 4379   0.210   1.102   2.836  2.0907 -0.8507 -0.4654
 1460SOL    HW2 4380   0.119   1.182   2.745  0.2359  0.5815  2.5061
 1461SOL     OW 4381   3.025   3.044   1.941  0.0659  0.0707  0.4882
 1461SOL    HW1 4382   3.045   3.115   1.881  0.2745  0.4817  1.0370
 1461SOL    HW2 4383   3.039   2.964   1.890  2.7094  0.3212  0.6918
 1462SOL     OW 4384   3.727   1.505   1.823  0.1247 -0.0024 -0.2634
 1462SOL    HW1 4385   3.712   1.433   1.762  1.1198 -0.4102 -0.0556
 1462SOL    HW2 4386   3.819   1.495   1.849 -0.3666 -0.0413  1.5670
 1463SOL     OW 4387   3.015   1.103   2.333 -0.2591  0.2742  0.9360
 1463SOL    HW1 4388   3.052   1.171   2.277  0.4916 -0.0562  1.0076
 1463SOL    HW2 4389   3.008   1.026   2.277  0.9932 -0.2110  1.3919
 1464SOL     OW 4390   3.312   0.353   0.861  0.1528 -0.1025  0.0562
 1464SOL    HW1 4391   3.310   0.261   0.836 -1.5777 -0.0694  0.0129
 1464SOL    HW2 4392   3.235   0.391   0.820  0.7041  1.3295  0.2848
 1465SOL     OW 4393   0.374   2.339   2.072 -0.3847  0.4545 -0.1098
 1465SOL    HW1 4394   0.278   2.341   2.074 -0.4175 -0.6279 -0.2017
 1465SOL    HW2 4395   0.399   2.303   2.157 -0.1586 -1.4343 -0.9272
 1466SOL     OW 4396   2.574   0.276   3.320  0.1681 -0.6299 -0.0537
 1466SOL    HW1 4397   2.612   0.259   3.406  1.2439  0.8404 -0.2042
 1466SOL    HW2 4398   2.579   0.192   3.274 -2.1271 -1.9585  1.8913
 1467SOL     OW 4399   1.723   3.769   3.367  0.4531 -0.1059 -0.2007
 1467SOL    HW1 4400   1.633   3.741   3.351 -0.3639  1.3505  1.5769
 1467SOL    HW2 4401   1.776   3.689   3.355 -0.7646 -0.5971 -3.1949
 1468SOL     OW 4402   3.844   2.080   0.716  0.7243 -0.5237  0.2128
 1468SOL    HW1 4403   3.914   2.076   0.651  0.6864  0.1952  0.1205
 1468SOL    HW2 4404   3.777   2.136   0.676  0.4956 -0.4612  0.6756
 1469SOL     OW 4405   1.656   0.050   0.351 -0.3874 -0.4815  0.0459
 1469SOL    HW1 4406   1.677   0.112   0.421 -0.4910 -1.7510  1.2249
 1469SOL    HW2 4407   1.718  -0.022   0.362 -0.9822 -1.1152 -0.6136
 1470SOL     OW 4408   2.029   0.564   0.058  0.0692  0.0811  0.4382
 1470SOL    HW1 4409   2.086   0.487   0.060  0.0566 -0.0343 -1.5161
 1470SOL    HW2 4410   2.083   0.634   0.094  0.7634 -0.4390  0.4449
 1471SOL     OW 4411   3.801   2.854   3.516 -0.3470 -0.1933  0.0026
 1471SOL    HW1 4412   3.858   2.930   3.526  0.4115 -0.8616  0.8506
 1471SOL    HW2 4413   3.837   2.806   3.441 -1.4308  0.7701 -1.2006
 1472SOL     OW 4414   3.139   3.211   1.058  0.0401  0.0196 -0.4510
 1472SOL    HW1 4415   3.167   3.298   1.031 -2.2765  0.7681 -0.6928
 1472SOL    HW2 4416   3.148   3.211   1.153 -0.7913  0.8792 -0.3596
 1473SOL     OW 4417   1.152   3.554   0.206  0.6208  0.5635  0.1758
 1473SOL    HW1 4418   1.184   3.477   0.158  1.4603  1.0718 -0.0987
 1473SOL    HW2 4419   1.103   3.604   0.142 -2.1067 -0.9420  0.9368
 1474SOL     OW 4420   2.876   2.815   0.892 -0.2761  0.0198 -0.0762
 1474SOL    HW1 4421   2.962   2.855   0.909 -0.6094  1.0617 -0.7846
 1474SOL    HW2 4422   2.897   2.730   0.854  0.4736  0.6559 -1.1623
 1475SOL     OW 4423   2.227   1.565   3.138  0.5519 -0.5624 -0.3908
 1475SOL    HW1 4424   2.292   1.633   3.158  0.2481  0.2692 -2.0593
 1475SOL    HW2 4425   2.164   1.571   3.209  2.5772 -1.8454  1.6623
 1476SOL     OW 4426   0.822   1.937   1.095  0.4856  0.0534  0.0099
 1476SOL    HW1 4427   0.727   1.945   1.088  0.3939  0.4141  1.3991
 1476SOL    HW2 4428   0.836   1.881   1.171  1.3799 -0.8589 -0.8136
 1477SOL     OW 4429   3.962   1.443   3.075  0.2595  0.4012 -0.0842
 1477SOL    HW1 4430   3.883   1.446   3.127 -0.4570  2.5905 -1.1662
 1477SOL    HW2 4431   3.996   1.354   3.088 -1.9671 -0.3809  0.9472
 1478SOL     OW 4432   2.624   2.078   2.200  0.0361  0.4603 -0.1924
 1478SOL    HW1 4433   2.603   2.145   2.265 -1.2258  1.8288 -1.8920
 1478SOL    HW2 4434   2.539   2.041   2.177  0.7283 -1.8634  0.7850
 1479SOL     OW 4435   3.527   3.553   0.952 -0.3911 -0.4812  0.0384
 1479SOL    HW1 4436   3.508   3.512   0.868  0.5155 -1.9942  0.5347
 1479SOL    HW2 4437   3.617   3.583   0.944 -0.2811 -0.6873  0.4961
 1480SOL     OW 4438   1.553   3.044   1.713 -0.1122  0.5231 -0.5162
 1480SOL    HW1 4439   1.457   3.040   1.706 -0.0642 -0.2126 -0.8512
 1480SOL    HW2 4440   1.584   2.986   1.644  0.5740  0.4094 -0.1142
 1481SOL     OW 4441   0.078   2.264   2.935  0.5293 -0.3580  0.0385
 1481SOL    HW1 4442   0.086   2.212   3.015  3.4400 -0.4394 -0.1801
 1481SOL    HW2 4443   0.077   2.199   2.865  1.3637 -0.2363 -0.1022
 1482SOL     OW 4444   1.925   1.080   0.431  0.6653  0.3904  0.4157
 1482SOL    HW1 4445   1.968   1.061   0.515  0.2160 -0.3725  0.4809
 1482SOL    HW2 4446   1.833   1.059   0.446  0.5580  0.3875 -0.2342
 1483SOL     OW 4447   0.587   3.451   2.923  0.0523  0.0987 -0.5206
 1483SOL    HW1 4448   0.597   3.508   2.999 -1.4006 -0.4271  0.0985
 1483SOL    HW2 4449   0.663   3.393   2.926  0.5058  0.7033 -0.0280
 1484SOL     OW 4450   1.398   2.972   4.006 -0.2558 -0.0297  0.4894
 1484SOL    HW1 4451   1.327   2.945   4.064 -0.5771 -0.7296 -0.2265
 1484SOL    HW2 4452   1.367   2.953   3.918  0.4489  0.5216  0.1063
 1485SOL     OW 4453   1.442   1.888   1.290  0.3875  0.0833 -0.5854
 1485SOL    HW1 4454   1.413   1.915   1.203 -1.1125 -0.1571 -0.1915
 1485SOL    HW2 4455   1.454   1.970   1.338 -1.5523  0.1893 -0.1981
 1486SOL     OW 4456   1.150   3.632   3.696 -0.0667  0.8214 -0.2005
 1486SOL    HW1 4457   1.096   3.671   3.627  0.3131  0.1295 -0.9069
 1486SOL    HW2 4458   1.216   3.699   3.715 -0.8194  1.4448  0.2640
 1487SOL     OW 4459   1.414   0.756   3.766 -0.1584  0.1906 -0.2281
 1487SOL    HW1 4460   1.428   0.842   3.726 -1.9883  1.2591  1.2976
 1487SOL    HW2 4461   1.501   0.731   3.797  0.3991  1.5458 -0.5844
 1488SOL     OW 4462   0.298   3.520   3.753  0.0615  0.7930 -0.4205
 1488SOL    HW1 4463   0.327   3.523   3.844  2.2511  1.2877 -1.0833
 1488SOL    HW2 4464   0.314   3.609   3.720 -0.5577  0.5771 -1.3490
 1489SOL     OW 4465   2.826   1.359   3.850 -0.0893  0.1237 -0.1438
 1489SOL    HW1 4466   2.880   1.284   3.825  0.0947 -0.1572  1.0141
 1489SOL    HW2 4467   2.881   1.409   3.910 -0.9137  0.1081  0.6557
 1490SOL     OW 4468   3.169   3.727   0.936  0.1647  0.0283  0.0011
 1490SOL    HW1 4469   3.210   3.691   1.015  1.1643  1.7028  0.2868
 1490SOL    HW2 4470   3.231   3.707   0.866  0.3810  0.5311  0.0431
 1491SOL     OW 4471   1.440   2.184   1.734 -0.1248  0.2286 -0.4160
 1491SOL    HW1 4472   1.465   2.243   1.662  0.0247  0.7968  0.0939
 1491SOL    HW2 4473   1.491   2.105   1.719 -0.5055  0.1297 -1.2445
 1492SOL     OW 4474   0.600   1.830   2.418 -0.2375  0.0193 -0.8988
 1492SOL    HW1 4475   0.537   1.820   2.347 -0.1023 -1.0347 -0.8806
 1492SOL    HW2 4476   0.622   1.740   2.444  1.5474  0.3547 -1.1472
 1493SOL     OW 4477   3.516   3.392   3.536  0.2658 -0.0161  1.1220
 1493SOL    HW1 4478   3.605   3.406   3.568  0.6355 -0.3473  0.2793
 1493SOL    HW2 4479   3.514   3.436   3.451 -0.4041  0.0720  1.1794
 1494SOL     OW 4480   3.901   0.171   2.526  0.4548 -0.1461  0.3414
 1494SOL    HW1 4481   3.905   0.236   2.455  1.1674  0.1702  0.6625
 1494SOL    HW2 4482   3.944   0.214   2.600  1.3060 -1.1418  0.4418
 1495SOL     OW 4483   0.194   1.544   0.790  0.1213  0.0997  0.7113
 1495SOL    HW1 4484   0.251   1.621   0.788 -1.2669  1.1430 -0.4565
 1495SOL    HW2 4485   0.105   1.580   0.794 -0.6792 -1.3731 -1.8760
 1496SOL     OW 4486   3.223   0.609   2.833 -0.3140  0.0012  0.5334
 1496SOL    HW1 4487   3.162   0.660   2.779 -0.2809 -0.2231  0.2772
 1496SOL    HW2 4488   3.306   0.657   2.828 -0.0435 -0.5337 -0.4321
 1497SOL     OW 4489   1.792   1.049   2.007 -0.0080 -0.2514 -0.0630
 1497SOL    HW1 4490   1.789   0.987   2.080 -1.7224 -0.2732 -0.1261
 1497SOL    HW2 4491   1.772   0.996   1.930 -2.1619  0.4473 -0.0381
 1498SOL     OW 4492   1.899   2.432   2.620  0.2156 -0.0594  0.2260
 1498SOL    HW1 4493   1.923   2.340   2.604 -0.1222  0.1445 -1.6731
 1498SOL    HW2 4494   1.983   2.477   2.627  0.4196 -0.1727 -1.1793
 1499SOL     OW 4495   4.015   0.051   1.682 -0.2710 -0.6683  0.7371
 1499SOL    HW1 4496   4.027   0.128   1.737 -1.2672 -1.2766  1.8602
 1499SOL    HW2 4497   3.941   0.072   1.626  0.3878 -0.2646 -0.0002
 1500SOL     OW 4498   2.569   3.903   2.223  0.0962 -0.3586 -0.1932
 1500SOL    HW1 4499   2.488   3.920   2.272 -0.3801 -1.1641 -0.6704
 1500SOL    HW2 4500   2.540   3.849   2.149  1.0267 -0.3748 -0.5468
 1501SOL     OW 4501   1.805   1.341   0.562  0.2325 -0.6208  0.1269
 1501SOL    HW1 4502   1.835   1.264   0.513  0.0335  0.5619 -1.9738
 1501SOL    HW2 4503   1.880   1.400   0.560  0.0033 -0.3050  0.7549
 1502SOL     OW 4504   3.678   2.274   0.579  0.2085 -0.5238 -0.4256
 1502SOL    HW1 4505   3.650   2.344   0.639 -0.5465 -1.4216  0.2858
 1502SOL    HW2 4506   3.676   2.315   0.493  1.6473  0.8988  0.1660
 1503SOL     OW 4507   1.311   2.927   3.750 -0.0744 -0.0375 -0.5668
 1503SOL    HW1 4508   1.299   3.017   3.719 -0.1165 -0.0329 -0.5378
 1503SOL    HW2 4509   1.261   2.874   3.688  0.8939 -0.1547 -1.2652
 1504SOL     OW 4510   3.602   0.924   0.946 -0.6163  0.1497  0.1828
 1504SOL    HW1 4511   3.604   0.830   0.929  0.5555 -0.0690  1.3929
 1504SOL    HW2 4512   3.563   0.932   1.033 -2.1505  0.9251 -0.5282
 1505SOL     OW 4513   0.649   1.563   3.751  0.6688  0.0831 -0.7007
 1505SOL    HW1 4514   0.683   1.503   3.817  2.1778  0.4543 -1.1149
 1505SOL    HW2 4515   0.694   1.538   3.670 -0.5514  0.1614 -1.4323
 1506SOL     OW 4516   3.276   2.033   0.863 -0.5825  0.3699  0.1952
 1506SOL    HW1 4517   3.308   2.052   0.951  0.4192 -3.0276  0.7415
 1506SOL    HW2 4518   3.228   1.950   0.874 -1.4796  0.5045 -2.2708
 1507SOL     OW 4519   3.190   1.050   1.844  0.0265 -0.0042  0.3824
 1507SOL    HW1 4520   3.200   1.064   1.750  0.4194 -1.0171  0.2566
 1507SOL    HW2 4521   3.219   0.960   1.858 -0.8624 -0.1580  1.3489
 1508SOL     OW 4522   1.303   0.366   1.254  0.0337  0.0766 -0.2050
 1508SOL    HW1 4523   1.227   0.353   1.197  0.7911  1.4077 -1.5922
 1508SOL    HW2 4524   1.369   0.306   1.220  0.1909  0.2295 -0.1722
 1509SOL     OW 4525   3.144   3.658   0.617  0.6386 -0.2054  0.2947
 1509SOL    HW1 4526   3.116   3.567   0.627 -0.1885  0.0282  0.2108
 1509SOL    HW2 4527   3.199   3.658   0.539  0.6185 -0.6336  0.2777
 1510SOL     OW 4528   0.523   2.494   2.522  0.4509 -0.2142 -1.1253
 1510SOL    HW1 4529   0.597   2.555   2.530 -0.3960  0.6640  0.7746
 1510SOL    HW2 4530   0.459   2.541   2.469  0.2156  0.1479 -0.5341
 1511SOL     OW 4531   3.475   2.164   1.422  0.0570 -0.3646  0.0566
 1511SOL    HW1 4532   3.406   2.106   1.391 -0.9494  0.8374 -0.0359
 1511SOL    HW2 4533   3.535   2.173   1.348  0.1571 -1.1769  0.0347
 1512SOL     OW 4534   0.863   2.810   1.213 -0.4856 -0.6049 -0.4166
 1512SOL    HW1 4535   0.843   2.813   1.307 -0.6718 -3.2291 -0.3072
 1512SOL    HW2 4536   0.805   2.876   1.174 -2.8841 -1.7720  0.9502
 1513SOL     OW 4537   1.003   3.903   1.478 -0.1505 -1.0622  0.3270
 1513SOL    HW1 4538   0.930   3.963   1.491  0.1178 -0.1484 -1.9236
 1513SOL    HW2 4539   0.999   3.844   1.553 -0.5182  1.6273  2.6075
 1514SOL     OW 4540   1.993   2.315   3.652 -0.1855  0.1083  0.4106
 1514SOL    HW1 4541   1.926   2.258   3.614  0.5596  0.9224 -2.3540
 1514SOL    HW2 4542   1.945   2.373   3.710 -1.5425 -0.7577  0.1935
 1515SOL     OW 4543   1.550   1.513   0.428  1.0875  0.7280  0.8316
 1515SOL    HW1 4544   1.582   1.488   0.341  1.7018 -0.3706  1.3439
 1515SOL    HW2 4545   1.617   1.481   0.488  0.3341  0.8437  1.7592
 1516SOL     OW 4546   1.784   1.158   3.502 -0.1241  0.1195  0.1402
 1516SOL    HW1 4547   1.748   1.177   3.416  0.6174  1.8180  0.1546
 1516SOL    HW2 4548   1.715   1.183   3.564 -0.2131  0.0407  0.0720
 1517SOL     OW 4549   0.261   3.221   1.715 -0.4191  0.3205 -0.4586
 1517SOL    HW1 4550   0.325   3.246   1.648  1.8970  0.6159  1.7213
 1517SOL    HW2 4551   0.181   3.269   1.690  0.5226  0.9012 -2.6235
 1518SOL     OW 4552   1.865   2.495   2.265 -0.2514 -0.3122  0.2965
 1518SOL    HW1 4553   1.906   2.409   2.278 -1.2801 -0.8412  0.1581
 1518SOL    HW2 4554   1.939   2.556   2.257  0.4933 -0.9442  1.9269
 1519SOL     OW 4555   1.032   2.365   2.817 -0.5308 -0.7671  0.1842
 1519SOL    HW1 4556   1.060   2.441   2.868 -2.9061  0.8952 -0.8403
 1519SOL    HW2 4557   1.049   2.291   2.875  0.8053  0.6264  1.6816
 1520SOL     OW 4558   2.220   1.707   2.641 -0.7337  0.7332 -0.6576
 1520SOL    HW1 4559   2.168   1.692   2.719  1.1155 -2.0950  0.1665
 1520SOL    HW2 4560   2.179   1.652   2.574  0.5513 -0.8300 -0.2323
 1521SOL     OW 4561   0.235   1.869   1.422 -0.3460  0.3630  0.4859
 1521SOL    HW1 4562   0.180   1.879   1.344  0.4060  1.9600  0.1088
 1521SOL    HW2 4563   0.175   1.842   1.491 -1.2220 -0.0030 -0.3979
 1522SOL     OW 4564   1.761   2.432   1.454 -0.3345 -0.3815  0.3721
 1522SOL    HW1 4565   1.731   2.359   1.399 -1.3299  0.2059  0.1105
 1522SOL    HW2 4566   1.710   2.423   1.534 -0.7299  0.2384  0.1916
 1523SOL     OW 4567   1.261   3.944   2.296 -0.5002  0.1868  0.2006
 1523SOL    HW1 4568   1.292   3.901   2.375 -0.0989 -2.7073 -1.3941
 1523SOL    HW2 4569   1.324   4.014   2.280 -0.8931  1.2117  2.6341
 1524SOL     OW 4570   0.476   3.961   2.083 -0.2994  0.3317  0.1315
 1524SOL    HW1 4571   0.542   4.026   2.107  2.0071 -1.4570 -0.9506
 1524SOL    HW2 4572   0.396   3.990   2.127  1.1057  2.7764  1.2689
 1525SOL     OW 4573   3.369   3.149   1.294 -0.0059 -0.4574  0.2513
 1525SOL    HW1 4574   3.395   3.199   1.371 -1.1188  0.2218  0.2135
 1525SOL    HW2 4575   3.397   3.202   1.220 -0.0714 -0.4976  0.1975
 1526SOL     OW 4576   2.124   0.718   1.199  0.2221  0.2342  0.3635
 1526SOL    HW1 4577   2.117   0.810   1.225  0.5083  0.2856  0.2668
 1526SOL    HW2 4578   2.088   0.669   1.273 -1.8903  0.4916 -0.4051
 1527SOL     OW 4579   3.708   0.180   0.135  0.0515  0.2533 -0.2085
 1527SOL    HW1 4580   3.622   0.184   0.177 -0.3187  1.1535 -1.0212
 1527SOL    HW2 4581   3.701   0.109   0.071  0.3894 -0.6434  0.7295
 1528SOL     OW 4582   3.848   3.465   3.328  0.2132 -0.6005 -1.0349
 1528SOL    HW1 4583   3.916   3.462   3.261 -0.3253  0.7578 -1.6848
 1528SOL    HW2 4584   3.805   3.549   3.315 -0.3060 -0.5693  0.6458
 1529SOL     OW 4585   3.135   1.822   1.204 -0.1124 -0.1180  0.1003
 1529SOL    HW1 4586   3.123   1.727   1.201 -1.1446 -0.0926  1.9669
 1529SOL    HW2 4587   3.168   1.839   1.293 -0.1855  1.2922 -0.1221
 1530SOL     OW 4588   1.691   1.552   3.134  0.3428 -0.1578  0.5797
 1530SOL    HW1 4589   1.604   1.525   3.163  1.0929 -0.4355  2.7118
 1530SOL    HW2 4590   1.747   1.478   3.155  1.2703  0.3908  0.0912
 1531SOL     OW 4591   2.672   2.911   2.902  0.5475  0.2108 -0.5749
 1531SOL    HW1 4592   2.750   2.903   2.847  2.3211  0.8831  1.6797
 1531SOL    HW2 4593   2.612   2.964   2.850  2.1974  0.9676 -1.8227
 1532SOL     OW 4594   3.031   0.660   0.265  0.6538 -0.7511  0.6983
 1532SOL    HW1 4595   3.070   0.615   0.191  2.9965 -0.5560  1.7234
 1532SOL    HW2 4596   3.094   0.729   0.287 -1.1727  0.8173  1.3325
 1533SOL     OW 4597   2.569   1.778   0.740 -0.1766  0.2335  1.0421
 1533SOL    HW1 4598   2.475   1.791   0.729 -0.3288 -1.0143  0.7119
 1533SOL    HW2 4599   2.586   1.799   0.832 -1.2129 -1.8204  1.7518
 1534SOL     OW 4600   3.286   1.957   2.541 -0.3998 -0.0047  0.2805
 1534SOL    HW1 4601   3.260   1.992   2.627 -0.9613 -0.8922  0.4864
 1534SOL    HW2 4602   3.212   1.903   2.515 -0.4455  0.6430 -1.0057
 1535SOL     OW 4603   0.069   3.733   1.959 -0.7063 -0.4812 -0.0800
 1535SOL    HW1 4604   0.105   3.765   1.877  1.1748 -1.2627  0.3726
 1535SOL    HW2 4605   0.078   3.807   2.020 -0.4733 -0.4544 -0.1456
 1536SOL     OW 4606   1.640   1.124   0.245 -0.1837 -0.0686 -0.0986
 1536SOL    HW1 4607   1.632   1.085   0.332  0.5723 -0.1056 -0.0361
 1536SOL    HW2 4608   1.569   1.188   0.241  0.2619  0.5158  0.8606
 1537SOL     OW 4609   0.915   0.086   2.002  0.2827  0.2779  0.3157
 1537SOL    HW1 4610   0.939   0.093   1.910  1.4294 -1.2374  0.4470
 1537SOL    HW2 4611   0.874   0.169   2.023 -0.1115  0.6062 -1.5909
 1538SOL     OW 4612   3.565   1.004   3.553  0.1857  0.2571  0.1808
 1538SOL    HW1 4613   3.549   0.950   3.630  0.4177  1.3586  1.0231
 1538SOL    HW2 4614   3.600   1.086   3.588  0.8373  0.5644 -1.1366
 1539SOL     OW 4615   1.561   1.528   1.855 -0.5375 -0.7955 -0.4239
 1539SOL    HW1 4616   1.568   1.616   1.893  0.3795 -1.2379  0.4437
 1539SOL    HW2 4617   1.512   1.478   1.920  0.1636 -1.2926 -0.2763
 1540SOL     OW 4618   2.760   2.774   3.662  0.3686 -0.2007  0.1369
 1540SOL    HW1 4619   2.852   2.775   3.690  0.5594  0.0921 -0.4835
 1540SOL    HW2 4620   2.728   2.862   3.679 -0.4910 -0.9060  2.5264
 1541SOL     OW 4621   3.865   0.143   0.827 -0.0197  0.4440  0.3689
 1541SOL    HW1 4622   3.846   0.124   0.735  0.4601 -0.6749  0.4857
 1541SOL    HW2 4623   3.805   0.214   0.850 -0.3093  0.5735 -0.7367
 1542SOL     OW 4624   3.700   1.354   0.093 -0.2109 -0.8472  0.7775
 1542SOL    HW1 4625   3.625   1.373   0.037 -0.6813  2.2531  2.2415
 1542SOL    HW2 4626   3.759   1.428   0.080 -0.5285  0.2732  4.5350
 1543SOL     OW 4627   2.622   3.015   0.518  0.4405  0.5416 -0.5420
 1543SOL    HW1 4628   2.547   3.003   0.577 -1.4991 -0.7607 -3.0224
 1543SOL    HW2 4629   2.699   3.004   0.574 -1.2382 -1.6250  1.5847
 1544SOL     OW 4630   3.229   1.787   2.201 -0.1049  0.3914  0.1972
 1544SOL    HW1 4631   3.182   1.717   2.246  0.6973 -0.0074  0.4341
 1544SOL    HW2 4632   3.163   1.829   2.146 -1.4490  1.7369  2.6684
 1545SOL     OW 4633   3.477   0.902   1.227  0.1028 -0.1557 -0.1940
 1545SOL    HW1 4634   3.390   0.871   1.205  0.6823 -2.2236  0.2286
 1545SOL    HW2 4635   3.463   0.989   1.264 -1.8543 -0.7538  0.5946
 1546SOL     OW 4636   2.007   3.646   0.035 -0.4961  0.9186  0.0357
 1546SOL    HW1 4637   1.945   3.709   0.073  0.4014  0.6647  2.0465
 1546SOL    HW2 4638   1.965   3.617  -0.045 -2.3000  1.8595  0.5794
 1547SOL     OW 4639   1.149   3.284   2.458  0.5533 -0.1600  0.7842
 1547SOL    HW1 4640   1.198   3.319   2.383  2.0250 -1.1365  1.2518
 1547SOL    HW2 4641   1.094   3.215   2.421  0.1103  0.3959  0.3832
 1548SOL     OW 4642   3.129   0.153   0.777  0.0602  0.2744 -0.0939
 1548SOL    HW1 4643   3.140   0.098   0.855  1.5833 -0.5905 -0.8672
 1548SOL    HW2 4644   3.194   0.120   0.716 -1.6424  0.3788 -2.0653
 1549SOL     OW 4645   3.658   3.332   1.157 -0.0500 -0.9098  0.2297
 1549SOL    HW1 4646   3.688   3.298   1.241 -1.0636 -0.3765  0.8158
 1549SOL    HW2 4647   3.648   3.254   1.102  1.0901 -1.2177  0.4330
 1550SOL     OW 4648   1.654   2.935   3.681  1.1092  0.2111 -0.8184
 1550SOL    HW1 4649   1.726   2.932   3.619  2.3098  0.5358  0.5203
 1550SOL    HW2 4650   1.594   3.001   3.646  1.6367  0.2014 -1.7562
 1551SOL     OW 4651   3.311   0.938   0.696  0.7590  0.5657  0.0060
 1551SOL    HW1 4652   3.244   0.995   0.659 -0.2714  0.7486  1.9877
 1551SOL    HW2 4653   3.394   0.971   0.662 -0.1213  0.4212 -2.4069
 1552SOL     OW 4654   1.266   1.803   1.958 -0.2075 -0.4264 -0.2177
 1552SOL    HW1 4655   1.236   1.736   2.020 -0.3688  0.7626  1.0269
 1552SOL    HW2 4656   1.200   1.872   1.963  0.8605  0.6278 -0.1045
 1553SOL     OW 4657   2.168   2.947   1.188  0.0279  0.0324  0.3151
 1553SOL    HW1 4658   2.103   2.998   1.140  1.5582  2.1134  0.3170
 1553SOL    HW2 4659   2.128   2.930   1.273 -0.5143  1.3316  0.3439
 1554SOL     OW 4660   1.221   3.467   0.458 -0.7290  0.1766 -0.0993
 1554SOL    HW1 4661   1.166   3.390   0.440 -2.6273  1.2430  0.9100
 1554SOL    HW2 4662   1.201   3.528   0.387 -0.8285  0.5698  0.2671
 1555SOL     OW 4663   3.793   0.571   0.185  0.6312  0.1054 -0.1354
 1555SOL    HW1 4664   3.868   0.627   0.163  0.5633  0.2713  0.0568
 1555SOL    HW2 4665   3.758   0.608   0.266 -0.1192  0.4908 -0.6257
 1556SOL     OW 4666   0.575   2.229   1.358  0.3416 -0.0252 -0.6165
 1556SOL    HW1 4667   0.530   2.267   1.433 -0.8170 -0.6550 -0.9748
 1556SOL    HW2 4668   0.654   2.190   1.395 -1.0835 -1.9180  0.6057
 1557SOL     OW 4669   0.329   3.636   0.461  0.4559 -0.0928  0.3119
 1557SOL    HW1 4670   0.344   3.691   0.385  1.9325  0.7563  1.1826
 1557SOL    HW2 4671   0.275   3.690   0.519 -0.0766 -0.4717  0.1770
 1558SOL     OW 4672   2.606   3.405   0.516  0.9124 -0.3270 -0.3231
 1558SOL    HW1 4673   2.518   3.430   0.489  0.9323 -0.7518 -0.7988
 1558SOL    HW2 4674   2.593   3.355   0.597  0.7866  0.2447  0.0192
 1559SOL     OW 4675   1.418   2.336   3.414  0.7980  0.2181 -0.0089
 1559SOL    HW1 4676   1.350   2.370   3.356  2.1090  1.4725 -0.8703
 1559SOL    HW2 4677   1.409   2.241   3.407 -0.9485  0.3362  0.0393
 1560SOL     OW 4678   3.771   0.734   0.649  0.1116  0.0887  0.0258
 1560SOL    HW1 4679   3.717   0.684   0.709 -1.5860  1.5873 -0.1448
 1560SOL    HW2 4680   3.739   0.709   0.562  0.0255  0.6156 -0.0976
 1561SOL     OW 4681   1.045   1.725   3.386 -0.6744  0.1500  0.5131
 1561SOL    HW1 4682   1.089   1.642   3.368 -0.0783  0.4075  0.7760
 1561SOL    HW2 4683   1.069   1.782   3.314 -1.0344  0.1161  0.3645
 1562SOL     OW 4684   2.473   1.200   3.056 -0.2955 -0.4668 -0.2929
 1562SOL    HW1 4685   2.416   1.149   3.113  0.0437 -0.4980  0.0229
 1562SOL    HW2 4686   2.510   1.268   3.112  0.4127 -0.7907 -0.3514
 1563SOL     OW 4687   0.525   1.017   1.322 -0.1625 -0.3673 -0.1635
 1563SOL    HW1 4688   0.583   1.089   1.349  0.4066 -0.7187 -0.4368
 1563SOL    HW2 4689   0.446   1.061   1.289 -0.0284  0.1160  0.1504
 1564SOL     OW 4690   0.900   3.100   2.605  0.0269  0.6816 -0.0152
 1564SOL    HW1 4691   0.956   3.090   2.682  2.3920 -0.7491 -1.7692
 1564SOL    HW2 4692   0.898   3.013   2.565 -1.0578  1.3847 -1.6090
 1565SOL     OW 4693   0.480   1.180   0.769 -0.0502 -0.3163 -0.1866
 1565SOL    HW1 4694   0.572   1.198   0.751 -1.0869  3.5849 -3.0271
 1565SOL    HW2 4695   0.446   1.261   0.807 -2.2590 -1.8821  1.4620
 1566SOL     OW 4696   2.825   3.822   3.668 -0.3898  0.1987  0.1897
 1566SOL    HW1 4697   2.745   3.771   3.657  0.1015 -0.4934 -0.2220
 1566SOL    HW2 4698   2.805   3.881   3.741 -1.0192 -0.4740  0.5803
 1567SOL     OW 4699   3.946   2.637   3.657  0.9768 -0.3119 -0.9701
 1567SOL    HW1 4700   3.886   2.658   3.586  0.3435  0.2233 -0.2988
 1567SOL    HW2 4701   3.888   2.612   3.730  1.5759 -0.0657 -0.3990
 1568SOL     OW 4702   3.782   2.925   0.693  0.4617  0.2641 -0.9265
 1568SOL    HW1 4703   3.717   2.992   0.713  0.2196 -0.4061  0.6654
 1568SOL    HW2 4704   3.781   2.918   0.597  1.1909  3.1853 -1.2206
 1569SOL     OW 4705   0.256   3.208   3.266 -0.5220  0.6993  0.1117
 1569SOL    HW1 4706   0.323   3.224   3.200 -1.3080  0.8474 -0.6687
 1569SOL    HW2 4707   0.301   3.158   3.334  0.4388  1.0232 -0.2729
 1570SOL     OW 4708   0.094   2.774   0.488 -0.2253  0.3598  0.6025
 1570SOL    HW1 4709   0.094   2.710   0.416 -0.8101  1.6632 -0.5987
 1570SOL    HW2 4710   0.088   2.859   0.445 -0.6390  1.1886  2.2149
 1571SOL     OW 4711   3.609   2.588   2.820  0.1957 -0.4941  0.4259
 1571SOL    HW1 4712   3.631   2.680   2.832 -0.7271 -0.3326  1.0089
 1571SOL    HW2 4713   3.677   2.540   2.867  0.3868 -0.0961  0.5558
 1572SOL     OW 4714   2.331   3.448   1.111  0.6675 -0.2945  0.6971
 1572SOL    HW1 4715   2.424   3.427   1.104  0.8509  0.7497 -0.3927
 1572SOL    HW2 4716   2.323   3.493   1.195  1.4362  0.8353  0.2007
 1573SOL     OW 4717   2.598   3.933   3.286  0.0180 -0.0623 -0.4837
 1573SOL    HW1 4718   2.682   3.903   3.322 -0.5921 -0.8617  0.3220
 1573SOL    HW2 4719   2.532   3.896   3.345 -0.9008  0.6808 -1.0189
 1574SOL     OW 4720   3.660   1.728   2.483 -0.7209 -0.3971  0.3840
 1574SOL    HW1 4721   3.749   1.735   2.449 -0.4506  2.6775  1.4535
 1574SOL    HW2 4722   3.604   1.759   2.412 -0.7966 -0.5654  0.3682
 1575SOL     OW 4723   3.269   1.944   1.698  0.0096  0.2083  0.4772
 1575SOL    HW1 4724   3.241   1.905   1.615  0.0583 -0.0896  0.6010
 1575SOL    HW2 4725   3.236   1.884   1.765 -0.4357  0.6941  0.6956
 1576SOL     OW 4726   0.082   1.413   2.473 -0.2046 -0.3456  0.2478
 1576SOL    HW1 4727  -0.010   1.426   2.449 -0.2173  1.0419  0.9958
 1576SOL    HW2 4728   0.082   1.410   2.568  0.5763  0.0535  0.2679
 1577SOL     OW 4729   2.075   0.985   1.881 -0.2385  0.2383 -0.7189
 1577SOL    HW1 4730   2.023   0.914   1.844 -0.8225  0.0296  0.4527
 1577SOL    HW2 4731   2.083   0.963   1.974 -1.6407  2.3925  0.0033
 1578SOL     OW 4732   1.996   2.555   1.569 -0.3377 -0.0244  0.4166
 1578SOL    HW1 4733   1.945   2.474   1.570  0.1834 -0.3783 -0.4907
 1578SOL    HW2 4734   2.063   2.540   1.502  0.4928  0.7147  1.0689
 1579SOL     OW 4735   0.284   2.022   3.835 -0.0604 -0.1799 -0.5556
 1579SOL    HW1 4736   0.266   2.082   3.907 -0.3938 -2.2612  1.1880
 1579SOL    HW2 4737   0.241   2.062   3.759  2.1029  3.1750 -0.2184
 1580SOL     OW 4738   2.468   2.932   3.958  0.2842  0.0524 -0.2367
 1580SOL    HW1 4739   2.388   2.983   3.969  0.4591  0.5102 -1.0542
 1580SOL    HW2 4740   2.439   2.851   3.917  0.4953  1.1604 -2.7446
 1581SOL     OW 4741   2.259   1.894   1.518 -0.5037  0.4027  0.1456
 1581SOL    HW1 4742   2.173   1.862   1.548 -0.6725  0.0393 -0.6991
 1581SOL    HW2 4743   2.281   1.836   1.445  1.8062 -1.4050  2.1089
 1582SOL     OW 4744   0.511   3.034   2.279  0.9701  0.9541 -0.3335
 1582SOL    HW1 4745   0.513   3.088   2.358 -0.5320  0.2023  0.2667
 1582SOL    HW2 4746   0.419   3.009   2.270  1.3746 -0.2450 -1.4653
 1583SOL     OW 4747   1.412   3.908   1.303 -0.4682 -0.6090  1.0685
 1583SOL    HW1 4748   1.492   3.920   1.250  0.3186 -0.8941  2.1535
 1583SOL    HW2 4749   1.373   3.828   1.268  0.9883 -1.7972  2.0049
 1584SOL     OW 4750   2.366   3.118   1.282 -0.1724  0.1165  0.3667
 1584SOL    HW1 4751   2.300   3.070   1.232  1.6005 -0.8088 -1.2332
 1584SOL    HW2 4752   2.316   3.166   1.348 -2.4603 -0.2028 -1.0088
 1585SOL     OW 4753   1.927   0.557   1.999 -0.0282 -0.2189  0.4593
 1585SOL    HW1 4754   1.947   0.539   2.090  3.2056 -0.7013 -0.2288
 1585SOL    HW2 4755   1.952   0.649   1.987  1.1303 -0.6024 -0.2567
 1586SOL     OW 4756   2.226   1.055   0.176 -0.1612  0.5580  0.0479
 1586SOL    HW1 4757   2.201   1.000   0.101 -0.0220 -0.9929  1.0851
 1586SOL    HW2 4758   2.317   1.080   0.158  0.1777 -0.5629  0.0976
 1587SOL     OW 4759   1.103   2.379   0.446  0.4657  0.1535 -0.6474
 1587SOL    HW1 4760   1.123   2.285   0.446  1.4500  0.3539 -0.1544
 1587SOL    HW2 4761   1.062   2.394   0.361 -3.6593 -1.4974  0.7750
 1588SOL     OW 4762   1.655   0.477   3.406 -0.0137  0.4315 -0.4335
 1588SOL    HW1 4763   1.572   0.450   3.444  0.5466  0.1779  0.6605
 1588SOL    HW2 4764   1.695   0.532   3.472  0.2396  1.4094 -1.3787
 1589SOL     OW 4765   0.936   1.905   2.299  0.3134 -0.0179  0.0612
 1589SOL    HW1 4766   0.887   1.825   2.281  1.4236 -1.0765  1.5512
 1589SOL    HW2 4767   0.969   1.932   2.213 -0.0302 -1.1716 -0.4566
 1590SOL     OW 4768   4.005   3.698   0.339 -0.0109  0.1564 -0.3269
 1590SOL    HW1 4769   4.059   3.777   0.350 -1.1598  1.1679 -1.7162
 1590SOL    HW2 4770   3.919   3.731   0.312 -1.2045 -1.4522  1.2969
 1591SOL     OW 4771   0.618   2.500   0.605 -0.0200 -0.0603  0.4627
 1591SOL    HW1 4772   0.665   2.560   0.663  2.2115 -1.0593 -0.2226
 1591SOL    HW2 4773   0.526   2.526   0.614  0.8546  4.4487 -0.9135
 1592SOL     OW 4774   1.288   0.716   3.029 -0.1258 -0.1665  0.7810
 1592SOL    HW1 4775   1.365   0.697   3.082  0.7381  0.4614 -0.2287
 1592SOL    HW2 4776   1.248   0.792   3.071  1.8755  1.8514 -0.7217
 1593SOL     OW 4777   0.750   2.440   0.339 -0.5473 -0.4172  0.5992
 1593SOL    HW1 4778   0.755   2.463   0.431 -1.1859 -1.7345  1.0007
 1593SOL    HW2 4779   0.661   2.465   0.312 -0.2664  0.2298  0.2561
 1594SOL     OW 4780   2.753   0.542   1.576 -0.4904  0.5969 -0.3775
 1594SOL    HW1 4781   2.672   0.520   1.623 -0.7157  0.5386 -0.7930
 1594SOL    HW2 4782   2.725   0.600   1.506 -0.1162  0.8851 -0.2910
 1595SOL     OW 4783   2.999   2.330   1.559 -0.4801  0.5499 -0.0284
 1595SOL    HW1 4784   2.981   2.315   1.652 -1.5652  1.5761 -0.0544
 1595SOL    HW2 4785   3.091   2.305   1.549 -0.2508  0.7122  1.3860
 1596SOL     OW 4786   3.435   1.436   3.394 -0.0191  0.2791 -0.5526
 1596SOL    HW1 4787   3.424   1.427   3.488 -0.2650  0.9623 -0.5084
 1596SOL    HW2 4788   3.346   1.445   3.360  0.0718  0.1036 -0.8435
 1597SOL     OW 4789   0.138   1.069   3.305 -0.6138  0.3413 -0.4808
 1597SOL    HW1 4790   0.127   0.975   3.289  0.1402  0.1494  0.0705
 1597SOL    HW2 4791   0.172   1.074   3.394 -1.1748  1.1774 -0.3025
 1598SOL     OW 4792   0.021   1.287   0.632  0.2762 -0.3864  0.0008
 1598SOL    HW1 4793   0.110   1.255   0.620  0.7346 -0.4222  2.8024
 1598SOL    HW2 4794  -0.012   1.240   0.709 -1.5048  0.9043  0.0956
 1599SOL     OW 4795   0.858   3.983   2.643  0.5055  0.3278  0.3533
 1599SOL    HW1 4796   0.816   3.903   2.675 -0.2658  0.6797  0.2451
 1599SOL    HW2 4797   0.863   4.041   2.719  3.6427 -0.8048  1.1731
 1600SOL     OW 4798   3.387   1.534   0.745  0.6331  0.3662 -0.2871
 1600SOL    HW1 4799   3.339   1.616   0.741  0.5076  0.4052  1.4904
 1600SOL    HW2 4800   3.335   1.473   0.692 -1.0568  0.5874  1.0282
 1601SOL     OW 4801   0.428   2.007   0.517  0.4333 -0.1744 -0.2090
 1601SOL    HW1 4802   0.459   2.025   0.605  2.2808  0.2904 -0.9083
 1601SOL    HW2 4803   0.481   2.063   0.461  0.6908 -1.8751 -1.7748
 1602SOL     OW 4804   2.972   3.683   1.708 -0.3443  0.8077  0.2766
 1602SOL    HW1 4805   2.932   3.602   1.674 -0.6595  0.9310  0.3471
 1602SOL    HW2 4806   3.036   3.707   1.641 -1.2684  1.2846 -0.4575
 1603SOL     OW 4807   2.090   1.418   2.789  0.2750 -0.4024 -0.2896
 1603SOL    HW1 4808   2.036   1.471   2.847 -0.0267 -1.4830  0.4533
 1603SOL    HW2 4809   2.035   1.343   2.767  0.7006 -0.4435 -1.2889
 1604SOL     OW 4810   2.927   0.898   2.186 -0.0884 -0.1378  0.3855
 1604SOL    HW1 4811   2.910   0.949   2.107 -0.4081  0.5238  0.8740
 1604SOL    HW2 4812   2.843   0.855   2.205 -0.4337  0.8493  1.1700
 1605SOL     OW 4813   2.255   3.049   2.269  0.0560  0.2476 -0.1807
 1605SOL    HW1 4814   2.326   2.984   2.273  0.8775  1.1476  0.1797
 1605SOL    HW2 4815   2.178   3.002   2.301  0.0671 -1.2787 -2.2053
 1606SOL     OW 4816   1.494   1.664   3.866 -0.1791 -0.0544  0.3426
 1606SOL    HW1 4817   1.501   1.575   3.833  0.2382  0.0441  0.1510
 1606SOL    HW2 4818   1.565   1.672   3.930 -0.5030 -0.0020  0.7033
 1607SOL     OW 4819   2.799   3.977   2.348 -0.3536  0.5620  0.2820
 1607SOL    HW1 4820   2.725   3.932   2.307 -0.7774  2.1622 -0.7842
 1607SOL    HW2 4821   2.762   4.016   2.427 -0.1948 -0.1989  0.7375
 1608SOL     OW 4822   2.369   2.320   0.419 -0.3594 -0.2949 -0.6594
 1608SOL    HW1 4823   2.367   2.322   0.323  1.7536  0.8111 -0.7287
 1608SOL    HW2 4824   2.323   2.399   0.446 -1.2307 -0.7661 -0.7285
 1609SOL     OW 4825   3.677   2.375   0.304 -0.0186 -0.2534  0.6729
 1609SOL    HW1 4826   3.650   2.393   0.214  1.5024 -2.2742 -0.2841
 1609SOL    HW2 4827   3.679   2.461   0.347 -0.0474  0.8592 -1.4490
 1610SOL     OW 4828   2.288   2.516   0.073  0.5961 -0.1577 -0.8906
 1610SOL    HW1 4829   2.225   2.464   0.122  0.4923  0.5200 -0.2846
 1610SOL    HW2 4830   2.324   2.577   0.137  0.3364  0.8586 -1.6901
 1611SOL     OW 4831   0.410   2.440   3.266  0.2965  0.2832 -0.3285
 1611SOL    HW1 4832   0.426   2.461   3.174  0.6736  0.5051 -0.2164
 1611SOL    HW2 4833   0.497   2.427   3.303  0.1385  0.0146 -0.0446
 1612SOL     OW 4834   2.779   0.270   2.284 -0.7272  0.3495 -0.8175
 1612SOL    HW1 4835   2.808   0.202   2.223  0.2114  2.5591 -2.9872
 1612SOL    HW2 4836   2.698   0.304   2.245 -0.4044  1.4427 -0.5605
 1613SOL     OW 4837   0.109   0.002   3.966  0.3656  0.1132 -0.3951
 1613SOL    HW1 4838   0.094   0.035   3.877  2.3163  0.4024 -0.6794
 1613SOL    HW2 4839   0.078   0.072   4.023 -0.4995  0.1178 -0.8582
 1614SOL     OW 4840   0.812   3.731   2.447  0.1207 -0.2891 -0.1507
 1614SOL    HW1 4841   0.756   3.801   2.416 -0.4616  0.1143  1.6594
 1614SOL    HW2 4842   0.901   3.764   2.435 -0.1380  1.5279  2.0960
 1615SOL     OW 4843   1.744   2.363   2.939 -0.2647  0.2651 -0.1865
 1615SOL    HW1 4844   1.809   2.337   2.875  0.6161  2.7988 -0.4364
 1615SOL    HW2 4845   1.662   2.369   2.890 -0.0940 -0.1892 -0.5257
 1616SOL     OW 4846   2.189   3.946   2.084  0.4845  0.2842 -0.1776
 1616SOL    HW1 4847   2.113   3.978   2.036  1.1280  1.0727 -0.7001
 1616SOL    HW2 4848   2.169   3.964   2.176 -0.8478 -1.4240 -0.0798
 1617SOL     OW 4849   3.991   0.505   2.905  0.2186 -0.1447  0.2662
 1617SOL    HW1 4850   3.909   0.549   2.881 -0.6003 -2.2148 -1.0436
 1617SOL    HW2 4851   4.060   0.562   2.869 -0.7477  0.4580 -0.7004
 1618SOL     OW 4852   0.554   2.631   2.065 -0.2601  0.4621 -0.0493
 1618SOL    HW1 4853   0.604   2.549   2.071 -3.9369 -1.9709  0.8195
 1618SOL    HW2 4854   0.521   2.632   1.976 -1.2717  0.2589  0.3084
 1619SOL     OW 4855   1.888   2.648   0.385 -0.6927  0.2165 -0.2923
 1619SOL    HW1 4856   1.900   2.730   0.433 -1.4789  0.1612  0.0089
 1619SOL    HW2 4857   1.813   2.607   0.427  0.3566 -1.1878  0.2847
 1620SOL     OW 4858   0.932   1.105   3.701  0.1527  0.5880 -0.4222
 1620SOL    HW1 4859   1.001   1.093   3.636  0.4089  0.2227 -0.0855
 1620SOL    HW2 4860   0.879   1.025   3.694  0.6780  0.1525  0.4043
 1621SOL     OW 4861   0.472   0.825   0.588 -0.7430  0.0208  0.0610
 1621SOL    HW1 4862   0.397   0.812   0.530  0.1787 -2.4640 -0.7084
 1621SOL    HW2 4863   0.483   0.741   0.632  1.1666  0.5358  0.6631
 1622SOL     OW 4864   2.622   0.996   2.947  0.1118  0.2209 -0.2479
 1622SOL    HW1 4865   2.636   0.942   3.024  0.3106  0.1607 -0.3251
 1622SOL    HW2 4866   2.553   1.058   2.973  1.5185  1.4846  0.6319
 1623SOL     OW 4867   1.190   0.772   3.927  0.2282 -0.3863  0.3106
 1623SOL    HW1 4868   1.217   0.849   3.978 -0.7050  0.7008 -0.7699
 1623SOL    HW2 4869   1.259   0.761   3.862  0.0605 -0.0590  0.0712
 1624SOL     OW 4870   2.711   1.123   1.054 -0.3229 -0.0088 -1.1829
 1624SOL    HW1 4871   2.651   1.076   0.995 -2.2545 -1.0209  1.4047
 1624SOL    HW2 4872   2.785   1.063   1.066  0.5967  0.6142 -3.2152
 1625SOL     OW 4873   3.246   2.623   3.647  0.2886 -0.0363  0.3933
 1625SOL    HW1 4874   3.284   2.537   3.664 -2.1495 -1.8140 -2.2606
 1625SOL    HW2 4875   3.285   2.651   3.565 -0.6216  0.2912  0.0631
 1626SOL     OW 4876   2.726   2.953   1.108 -0.6392  0.2539  0.3693
 1626SOL    HW1 4877   2.768   2.927   1.026 -2.3977 -1.2429 -0.1162
 1626SOL    HW2 4878   2.698   3.043   1.093 -1.4579 -0.1862 -0.9414
 1627SOL     OW 4879   3.267   0.721   3.143 -0.6743 -0.3110 -0.3791
 1627SOL    HW1 4880   3.299   0.716   3.233 -1.3175  0.5561 -0.0934
 1627SOL    HW2 4881   3.196   0.657   3.139 -1.0012  0.0321 -0.1123
 1628SOL     OW 4882   0.374   3.931   3.959  0.6593  0.6220 -0.2366
 1628SOL    HW1 4883   0.371   3.894   4.047  0.0787  1.4147  0.0820
 1628SOL    HW2 4884   0.290   3.975   3.948  1.3375  1.9022 -0.5794
 1629SOL     OW 4885   3.138   2.623   2.118 -0.0136  0.1444 -0.1638
 1629SOL    HW1 4886   3.146   2.707   2.163  2.2078  0.3223 -0.7887
 1629SOL    HW2 4887   3.133   2.558   2.189  1.8404  0.5438  0.3892
 1630SOL     OW 4888   1.727   3.807   2.867  0.2642 -0.0438 -0.2229
 1630SOL    HW1 4889   1.727   3.713   2.884  0.5826 -0.1813 -0.9521
 1630SOL    HW2 4890   1.787   3.818   2.794 -1.1126  0.5049 -1.3168
 1631SOL     OW 4891   1.195   2.311   2.110 -0.1939  0.1251 -0.7410
 1631SOL    HW1 4892   1.224   2.367   2.183  1.1597 -1.3275 -0.0882
 1631SOL    HW2 4893   1.249   2.339   2.036  0.3401 -0.1598 -0.4681
 1632SOL     OW 4894   1.126   1.615   3.784  1.1390 -0.0333  0.0437
 1632SOL    HW1 4895   1.085   1.700   3.802  1.0939  0.2169 -1.2080
 1632SOL    HW2 4896   1.182   1.630   3.708 -0.5291 -1.5950 -1.5990
 1633SOL     OW 4897   3.780   3.851   1.368 -0.0082 -0.3657  1.0579
 1633SOL    HW1 4898   3.767   3.808   1.283 -0.2666  0.2906  0.7640
 1633SOL    HW2 4899   3.841   3.793   1.415 -0.5261 -1.1708  0.7539
 1634SOL     OW 4900   3.502   3.479   2.673 -0.0256  0.7046 -0.3938
 1634SOL    HW1 4901   3.513   3.395   2.628  2.4616  0.8847 -0.2901
 1634SOL    HW2 4902   3.440   3.527   2.619  2.6101  0.8120 -3.6858
 1635SOL     OW 4903   2.586   2.103   0.991  0.4197  0.5809 -0.2465
 1635SOL    HW1 4904   2.588   2.097   1.087 -0.0373  0.7407 -0.2257
 1635SOL    HW2 4905   2.493   2.107   0.969  0.5049  0.1511 -0.7241
 1636SOL     OW 4906   1.732   1.837   1.262 -0.1660  0.7247  0.4603
 1636SOL    HW1 4907   1.719   1.799   1.175  0.8640  0.8353  0.2504
 1636SOL    HW2 4908   1.650   1.883   1.280 -1.3412 -1.3212  0.5945
 1637SOL     OW 4909   1.285   1.561   0.434  0.6211  0.0992  0.6695
 1637SOL    HW1 4910   1.250   1.488   0.486  1.9850 -0.4901  0.7896
 1637SOL    HW2 4911   1.379   1.559   0.450  0.7661  1.4551  0.1047
 1638SOL     OW 4912   2.741   1.722   3.270 -0.4122 -0.0035  0.5774
 1638SOL    HW1 4913   2.707   1.670   3.198 -0.4119  2.5372 -1.4024
 1638SOL    HW2 4914   2.828   1.750   3.241 -0.5008  1.2681  1.4576
 1639SOL     OW 4915   0.941   2.169   2.466  0.1828 -0.5433 -0.0226
 1639SOL    HW1 4916   0.998   2.144   2.539 -0.0018 -0.1710  0.2519
 1639SOL    HW2 4917   0.926   2.088   2.418  0.7229 -0.6935  0.0613
 1640SOL     OW 4918   1.131   1.654   1.421  0.1187  0.2102 -0.5128
 1640SOL    HW1 4919   1.045   1.677   1.386 -0.5340 -0.9699  0.2261
 1640SOL    HW2 4920   1.154   1.727   1.478 -1.3497 -0.3460  0.8699
 1641SOL     OW 4921   3.898   2.080   3.428 -0.1828  0.3722  0.3268
 1641SOL    HW1 4922   3.934   2.169   3.424  0.0162  0.3019  0.5710
 1641SOL    HW2 4923   3.906   2.055   3.520 -0.2440  0.1021  0.2584
 1642SOL     OW 4924   1.389   3.690   0.800  0.6411 -0.6457 -0.1309
 1642SOL    HW1 4925   1.414   3.651   0.716 -1.7967 -0.2261 -1.1502
 1642SOL    HW2 4926   1.299   3.661   0.813  0.0502  1.4969  0.9795
 1643SOL     OW 4927   2.882   1.296   2.117 -0.2279 -0.2474  0.3499
 1643SOL    HW1 4928   2.907   1.346   2.195 -0.1340  0.4631 -0.1316
 1643SOL    HW2 4929   2.787   1.293   2.119 -0.2218 -0.3473  0.5578
 1644SOL     OW 4930   1.889   2.494   3.825  0.5251  0.1869  0.1037
 1644SOL    HW1 4931   1.957   2.559   3.807  1.5560 -0.6105  0.9619
 1644SOL    HW2 4932   1.807   2.538   3.803  1.3004  1.1946 -0.9218
 1645SOL     OW 4933   3.317   2.366   1.653  0.3261  0.0846  0.6890
 1645SOL    HW1 4934   3.361   2.283   1.672 -0.5837 -0.5514  0.1362
 1645SOL    HW2 4935   3.265   2.384   1.731  0.5673  0.1675  0.8323
 1646SOL     OW 4936   2.370   2.417   2.892 -0.3709 -0.0745 -0.2967
 1646SOL    HW1 4937   2.348   2.415   2.798 -0.2598  0.3642 -0.3370
 1646SOL    HW2 4938   2.450   2.469   2.897 -0.8588  0.6593  0.1243
 1647SOL     OW 4939   0.015   1.414  -0.007 -0.3945  0.2902 -1.1445
 1647SOL    HW1 4940   0.020   1.500  -0.050  1.7368  0.4117 -0.7707
 1647SOL    HW2 4941   0.017   1.434   0.087  2.1599 -0.1564 -1.0301
 1648SOL     OW 4942   1.823   0.106   1.605 -0.2261 -0.1401 -0.2168
 1648SOL    HW1 4943   1.876   0.026   1.604 -0.5504 -0.3916  0.8208
 1648SOL    HW2 4944   1.760   0.092   1.676 -0.6009  0.8444 -0.3349
 1649SOL     OW 4945   0.934   0.945   0.830 -0.2978 -0.3582 -0.3165
 1649SOL    HW1 4946   0.844   0.926   0.806 -0.6635 -0.2218  0.8664
 1649SOL    HW2 4947   0.972   0.861   0.855  0.6167 -0.8039 -2.8908
 1650SOL     OW 4948   1.280   3.815   0.043  0.7705  0.5838 -0.0587
 1650SOL    HW1 4949   1.234   3.731   0.034  0.4484  0.6454  0.9325
 1650SOL    HW2 4950   1.309   3.817   0.134  2.7427  0.5569 -0.6290
 1651SOL     OW 4951   0.647   1.549   2.468 -0.5347 -0.5807 -0.6446
 1651SOL    HW1 4952   0.660   1.550   2.562 -0.4483 -3.3680 -0.5287
 1651SOL    HW2 4953   0.668   1.459   2.442 -1.0169 -0.0308 -3.2572
 1652SOL     OW 4954   0.796   2.973   2.253  0.1107 -0.2744 -0.1069
 1652SOL    HW1 4955   0.802   3.002   2.162  0.0833  1.9307  0.5199
 1652SOL    HW2 4956   0.702   2.957   2.267  0.1202 -0.6710 -0.4576
 1653SOL     OW 4957   3.687   1.044   0.286 -0.1938  0.4333  0.1838
 1653SOL    HW1 4958   3.699   1.077   0.374  0.2225  0.9303 -0.0579
 1653SOL    HW2 4959   3.770   1.061   0.241 -1.3359  2.9640 -1.1833
 1654SOL     OW 4960   2.528   1.988   2.933 -0.0281 -0.0754  0.6135
 1654SOL    HW1 4961   2.520   1.915   2.994 -1.2120  1.4221  2.3782
 1654SOL    HW2 4962   2.522   2.066   2.989  1.5647  1.3842 -1.1305
 1655SOL     OW 4963   1.395   3.501   2.055 -0.0146 -1.1879 -0.6720
 1655SOL    HW1 4964   1.482   3.536   2.040  0.0315 -0.6365  0.7660
 1655SOL    HW2 4965   1.348   3.518   1.973  0.8287 -0.3076 -0.9914
 1656SOL     OW 4966   0.803   1.449   1.706  0.2825  0.2271 -0.1612
 1656SOL    HW1 4967   0.835   1.434   1.795  0.4705 -0.0241 -0.2684
 1656SOL    HW2 4968   0.823   1.541   1.688 -0.4157  0.4839  0.3195
 1657SOL     OW 4969   3.589   3.675   1.264 -0.3366 -0.4808  0.0717
 1657SOL    HW1 4970   3.597   3.591   1.308  1.8318 -1.5448 -2.1018
 1657SOL    HW2 4971   3.592   3.740   1.334  0.9439 -2.1365  1.6429
 1658SOL     OW 4972   3.797   1.971   1.932  0.2881 -0.1898  0.2490
 1658SOL    HW1 4973   3.754   2.018   1.860  0.9875 -1.4061 -1.0016
 1658SOL    HW2 4974   3.762   2.012   2.011 -2.5141 -0.5373 -0.7107
 1659SOL     OW 4975   3.366   0.066   2.152  0.2654 -0.0019 -1.2168
 1659SOL    HW1 4976   3.399   0.056   2.241 -2.5425 -0.8494 -0.1513
 1659SOL    HW2 4977   3.361   0.161   2.139  2.2017  0.1468 -1.1418
 1660SOL     OW 4978   0.182   0.656   1.070 -0.4471 -0.2526  0.1051
 1660SOL    HW1 4979   0.095   0.635   1.036 -0.7944  1.9039 -0.5064
 1660SOL    HW2 4980   0.201   0.587   1.134 -2.1812 -1.2883 -0.4500
 1661SOL     OW 4981   3.608   3.642   2.854 -0.2645 -0.5691  0.5428
 1661SOL    HW1 4982   3.696   3.607   2.845 -0.0862 -0.0307  0.1271
 1661SOL    HW2 4983   3.557   3.599   2.785 -0.0142  0.0702 -0.0557
 1662SOL     OW 4984   0.443   0.164   1.464 -0.2547 -0.1671 -0.0575
 1662SOL    HW1 4985   0.456   0.107   1.388 -0.2001  0.3935 -0.4690
 1662SOL    HW2 4986   0.531   0.186   1.493 -0.2196  1.8342 -1.5039
 1663SOL     OW 4987   3.707   0.105   3.861  0.0381  0.5703 -0.0666
 1663SOL    HW1 4988   3.640   0.110   3.793  2.1642 -1.0579 -2.4724
 1663SOL    HW2 4989   3.778   0.159   3.829  0.5606  0.9568  1.6377
 1664SOL     OW 4990   1.686   1.961   2.151 -0.1413 -0.3085 -0.4684
 1664SOL    HW1 4991   1.755   2.011   2.196 -0.2077 -0.3725 -0.2950
 1664SOL    HW2 4992   1.676   2.005   2.067  1.0953 -1.1450 -1.0847
 1665SOL     OW 4993   3.731   0.386   1.900 -0.0513 -0.4335 -0.7496
 1665SOL    HW1 4994   3.816   0.346   1.877 -0.9543 -1.5899 -2.3066
 1665SOL    HW2 4995   3.714   0.355   1.989  1.0833 -0.2918 -0.4575
 1666SOL     OW 4996   1.102   3.905   1.209  0.2946 -0.2551 -0.5216
 1666SOL    HW1 4997   1.036   3.919   1.277 -1.9217 -2.1503 -2.1140
 1666SOL    HW2 4998   1.119   3.992   1.174 -0.2025  0.4649  0.9371
 1667SOL     OW 4999   2.835   0.767   2.558 -0.4581 -0.4946 -0.1430
 1667SOL    HW1 5000   2.917   0.814   2.572 -0.4404 -0.4158 -0.5102
 1667SOL    HW2 5001   2.774   0.808   2.619 -0.6166  0.4618 -0.9090
 1668SOL     OW 5002   1.737   2.073   1.551 -0.2624 -0.0501  0.4674
 1668SOL    HW1 5003   1.756   2.151   1.603 -0.4944  0.9814 -0.9422
 1668SOL    HW2 5004   1.815   2.059   1.498 -0.2177 -0.7969  0.7201
 1669SOL     OW 5005   1.221   3.565   2.449 -0.3267 -0.3809  0.6446
 1669SOL    HW1 5006   1.174   3.500   2.397  0.7108 -0.3297 -0.4015
 1669SOL    HW2 5007   1.225   3.528   2.536 -2.3467 -0.3551  0.8008
 1670SOL     OW 5008   3.624   1.203   0.844 -0.2274  0.1410  0.1304
 1670SOL    HW1 5009   3.641   1.112   0.867  1.3535  0.9262  2.4327
 1670SOL    HW2 5010   3.659   1.253   0.918 -0.3501  2.6526 -1.4062
 1671SOL     OW 5011   3.942   3.089   3.527 -0.2167  0.2059 -0.3803
 1671SOL    HW1 5012   3.912   3.178   3.510  0.0226  0.2574 -0.5324
 1671SOL    HW2 5013   4.004   3.097   3.599  0.7287  0.3254 -1.1939
 1672SOL     OW 5014   3.548   2.481   0.713  0.0754 -0.0594  0.1387
 1672SOL    HW1 5015   3.477   2.430   0.751 -0.2019 -0.0538 -0.3650
 1672SOL    HW2 5016   3.511   2.520   0.634  0.6823 -0.1998 -0.2278
 1673SOL     OW 5017   4.031   2.476   0.310 -0.1317  0.0678 -0.4057
 1673SOL    HW1 5018   3.944   2.514   0.297 -0.5089 -0.0288  1.4635
 1673SOL    HW2 5019   4.026   2.435   0.396  0.9341 -2.3733 -1.4260
 1674SOL     OW 5020   0.727   0.664   2.439 -0.0827 -0.1334 -0.3287
 1674SOL    HW1 5021   0.747   0.693   2.528  1.1336  0.1110 -0.6702
 1674SOL    HW2 5022   0.695   0.743   2.395 -0.1560 -0.1285 -0.2671
 1675SOL     OW 5023   2.462   2.266   3.874  0.2713 -0.1359  0.1715
 1675SOL    HW1 5024   2.444   2.271   3.968  0.9824  1.2453  0.2703
 1675SOL    HW2 5025   2.486   2.356   3.850  1.6471 -0.7793 -1.0052
 1676SOL     OW 5026   0.031   2.316   1.289  0.0384 -0.4873 -0.0402
 1676SOL    HW1 5027   0.115   2.270   1.288  0.1756 -0.2509  0.3781
 1676SOL    HW2 5028  -0.003   2.305   1.201  0.8309 -0.0031 -0.4276
 1677SOL     OW 5029   1.092   3.071   2.855  0.7649 -0.3028 -0.2060
 1677SOL    HW1 5030   1.027   3.002   2.864  0.5117  0.0252  0.5981
 1677SOL    HW2 5031   1.098   3.110   2.942  2.4758 -0.7036 -0.0979
 1678SOL     OW 5032   1.996   1.809   2.227  0.4512 -0.1389 -0.5647
 1678SOL    HW1 5033   1.964   1.835   2.313 -1.2844 -1.5977 -0.7236
 1678SOL    HW2 5034   2.075   1.758   2.246  0.0302 -0.5370  0.1678
 1679SOL     OW 5035   0.558   0.184   1.887 -0.2648  0.2516 -0.4767
 1679SOL    HW1 5036   0.526   0.253   1.830  0.4149  1.5134  0.5988
 1679SOL    HW2 5037   0.624   0.138   1.835  0.4591  1.4721 -0.6790
 1680SOL     OW 5038   0.210   0.149   0.470 -0.4639  0.1337 -0.6575
 1680SOL    HW1 5039   0.162   0.229   0.451  0.1007  0.5187 -0.4955
 1680SOL    HW2 5040   0.180   0.123   0.558 -0.7345  0.0983 -0.7602
 1681SOL     OW 5041   2.719   2.010   3.860 -0.5074 -0.1273 -0.1153
 1681SOL    HW1 5042   2.770   2.071   3.913 -0.3245 -1.1994  0.9848
 1681SOL    HW2 5043   2.777   1.935   3.847 -1.8249 -1.4829  1.3714
 1682SOL     OW 5044   3.443   0.538   1.960 -0.7225 -0.5844  0.0432
 1682SOL    HW1 5045   3.390   0.509   1.885 -0.1292 -0.3277 -0.4785
 1682SOL    HW2 5046   3.528   0.559   1.923 -1.0044  1.4830  0.4649
 1683SOL     OW 5047   0.358   2.611   3.703  0.4922 -0.8954  0.4886
 1683SOL    HW1 5048   0.326   2.529   3.739 -3.8914  0.3590  0.0911
 1683SOL    HW2 5049   0.311   2.620   3.619  0.0781  2.2967  0.9152
 1684SOL     OW 5050   1.995   0.144   1.196 -0.3003  0.9869  0.5337
 1684SOL    HW1 5051   2.014   0.108   1.109  0.9368 -1.2901  1.6652
 1684SOL    HW2 5052   2.081   0.166   1.232 -0.6113  0.0463  1.9085
 1685SOL     OW 5053   1.768   0.849   1.813 -0.4409  0.6686  0.4648
 1685SOL    HW1 5054   1.836   0.808   1.759 -1.8138 -0.8990 -0.1651
 1685SOL    HW2 5055   1.693   0.859   1.754 -1.4788  0.3138  1.6680
 1686SOL     OW 5056   3.664   3.703   3.281 -0.1856  0.3253  0.5374
 1686SOL    HW1 5057   3.676   3.745   3.196 -0.9488 -1.0805 -0.3040
 1686SOL    HW2 5058   3.577   3.663   3.276 -0.2640  0.2519  1.9994
 1687SOL     OW 5059   3.967   1.434   0.299 -0.2241 -0.8813 -0.3431
 1687SOL    HW1 5060   3.951   1.505   0.361  0.5874 -0.1969 -0.9000
 1687SOL    HW2 5061   3.926   1.358   0.339  3.8711 -1.5939  3.3556
 1688SOL     OW 5062   1.555   1.831   2.750 -0.1772  0.3949  0.1086
 1688SOL    HW1 5063   1.566   1.737   2.765  0.3323  0.1502 -1.5958
 1688SOL    HW2 5064   1.484   1.857   2.810  0.3469 -0.8464  1.3221
 1689SOL     OW 5065   0.538   1.692   1.995 -0.4685 -0.2152 -0.6403
 1689SOL    HW1 5066   0.529   1.775   2.043  1.3604  1.0457 -2.3101
 1689SOL    HW2 5067   0.510   1.714   1.906  1.4763 -0.9569 -1.4745
 1690SOL     OW 5068   2.907   0.194   3.757  0.5293 -0.5245  0.1080
 1690SOL    HW1 5069   2.961   0.116   3.745 -3.0026 -3.1570 -0.1140
 1690SOL    HW2 5070   2.912   0.240   3.673  0.1059 -2.3341 -0.9544
 1691SOL     OW 5071   2.334   3.639   1.312 -0.2605 -0.1979 -0.0380
 1691SOL    HW1 5072   2.345   3.708   1.377 -0.4511 -0.1454 -0.0609
 1691SOL    HW2 5073   2.399   3.660   1.244  1.1767 -1.2379  0.9545
 1692SOL     OW 5074   2.872   1.065   1.988 -0.4244  0.8567 -0.3121
 1692SOL    HW1 5075   2.909   1.093   1.904 -1.1038  1.2269 -0.4942
 1692SOL    HW2 5076   2.863   1.146   2.038 -1.6934  0.8757 -0.5560
 1693SOL     OW 5077   0.960   2.197   2.191  0.0907  0.0757 -0.0377
 1693SOL    HW1 5078   1.034   2.245   2.154 -0.6387  0.8577 -0.4926
 1693SOL    HW2 5079   0.967   2.211   2.285  0.1242  0.7309 -0.1346
 1694SOL     OW 5080   0.187   3.218   1.051  0.2778  0.2263 -0.0884
 1694SOL    HW1 5081   0.151   3.250   1.133 -1.2189 -0.4506 -0.4403
 1694SOL    HW2 5082   0.110   3.192   0.999  1.2492 -0.7816 -1.1011
 1695SOL     OW 5083   1.368   2.249   2.635 -0.0266 -0.7378  0.1019
 1695SOL    HW1 5084   1.281   2.213   2.652 -0.3070 -0.1534 -0.0486
 1695SOL    HW2 5085   1.422   2.217   2.707 -0.3363 -1.2009  0.1343
 1696SOL     OW 5086   3.295   3.308   3.259  0.1320  0.1834 -0.1720
 1696SOL    HW1 5087   3.288   3.273   3.171 -0.0386  0.3190 -0.2114
 1696SOL    HW2 5088   3.206   3.310   3.292  0.3906 -2.0314  0.8486
 1697SOL     OW 5089   3.768   3.685   1.028  0.4733 -0.0406 -0.0422
 1697SOL    HW1 5090   3.756   3.755   0.964  0.9347 -0.2867 -0.4034
 1697SOL    HW2 5091   3.685   3.683   1.076  0.7091  1.2169  0.4497
 1698SOL     OW 5092   1.854   2.750   1.655  0.2374 -0.5099  0.4904
 1698SOL    HW1 5093   1.810   2.719   1.734  0.9663 -0.7102  0.8227
 1698SOL    HW2 5094   1.910   2.677   1.629 -0.3724 -0.6408 -0.5051
 1699SOL     OW 5095   2.920   0.171   3.274 -0.3760 -0.2460 -0.5868
 1699SOL    HW1 5096   2.881   0.087   3.299 -0.0693 -1.0717 -2.6636
 1699SOL    HW2 5097   2.978   0.193   3.346 -0.7594 -1.6226  0.1827
 1700SOL     OW 5098   0.372   0.620   3.237  0.2926  0.0451 -0.2465
 1700SOL    HW1 5099   0.359   0.577   3.321 -1.2358  1.7362  0.4408
 1700SOL    HW2 5100   0.467   0.618   3.224  0.5522 -0.4055  1.4292
 1701SOL     OW 5101   1.239   3.554   1.805 -0.5242  0.1032 -0.3446
 1701SOL    HW1 5102   1.202   3.536   1.718 -0.5079 -0.0809 -0.3126
 1701SOL    HW2 5103   1.276   3.642   1.797  0.6582 -0.4192 -0.9141
 1702SOL     OW 5104   3.738   1.246   1.264 -0.3363  0.6991  1.0278
 1702SOL    HW1 5105   3.728   1.172   1.325 -0.6398  0.0503  0.2217
 1702SOL    HW2 5106   3.818   1.290   1.293  0.4508 -0.5853  0.8799
 1703SOL     OW 5107   0.879   1.207   2.066 -0.8119  0.2201 -0.0806
 1703SOL    HW1 5108   0.891   1.298   2.040 -0.0402  0.1442 -0.0193
 1703SOL    HW2 5109   0.787   1.188   2.048 -0.4588  0.3358 -2.2338
 1704SOL     OW 5110   2.907   2.521   3.459  0.1640 -0.1976 -0.0645
 1704SOL    HW1 5111   2.876   2.593   3.403 -0.2100  0.0620  0.4686
 1704SOL    HW2 5112   2.831   2.498   3.512  0.8572  0.4380  1.2504
 1705SOL     OW 5113   0.920   3.142   3.830 -0.2104  0.1435 -0.1012
 1705SOL    HW1 5114   0.852   3.117   3.768  0.4058  1.2578 -1.2696
 1705SOL    HW2 5115   1.000   3.149   3.777  0.5330  0.1760  0.9922
 1706SOL     OW 5116   1.844   2.157   2.252 -0.1704  0.9867  0.0612
 1706SOL    HW1 5117   1.933   2.172   2.283 -0.8401 -0.0007  2.7404
 1706SOL    HW2 5118   1.789   2.211   2.308 -1.3314  1.0151 -1.0498
 1707SOL     OW 5119   1.702   3.099   1.934  0.1304 -0.3303  0.5055
 1707SOL    HW1 5120   1.661   3.086   1.849 -0.4544 -2.2489  1.0239
 1707SOL    HW2 5121   1.786   3.142   1.914 -1.0064  1.4197 -0.7836
 1708SOL     OW 5122   2.915   1.304   0.502  0.0558  0.7706  0.4105
 1708SOL    HW1 5123   2.891   1.372   0.565  1.2656  0.0187  1.7301
 1708SOL    HW2 5124   2.989   1.341   0.454  2.1794 -0.3106  2.6048
 1709SOL     OW 5125   0.293   1.149   1.168 -0.6855  0.4541 -0.4693
 1709SOL    HW1 5126   0.306   1.056   1.150  0.0314  0.8764 -2.4212
 1709SOL    HW2 5127   0.213   1.171   1.120 -0.1679  1.0823 -1.0657
 1710SOL     OW 5128   1.165   2.182   1.788 -0.0222  0.3110 -0.1302
 1710SOL    HW1 5129   1.145   2.275   1.787 -2.7486 -0.1926  0.1009
 1710SOL    HW2 5130   1.260   2.178   1.794  0.2809  3.0553 -1.5360
 1711SOL     OW 5131   1.803   3.548   0.796  0.2822 -0.0929  0.1538
 1711SOL    HW1 5132   1.801   3.519   0.705  1.3910 -0.0138  0.0857
 1711SOL    HW2 5133   1.729   3.503   0.837 -0.3952  0.0743 -0.8323
 1712SOL     OW 5134   0.031   0.395   1.345 -0.5138  0.1253  0.0770
 1712SOL    HW1 5135   0.006   0.395   1.437  0.5967 -0.6247  0.3983
 1712SOL    HW2 5136   0.115   0.439   1.343 -0.1762 -0.5180 -0.4598
 1713SOL     OW 5137   1.010   3.791   0.340  0.1792 -0.1086  0.6612
 1713SOL    HW1 5138   0.949   3.789   0.413  0.8525  0.2810  1.2440
 1713SOL    HW2 5139   0.998   3.707   0.296  1.3841 -1.3494  2.5763
 1714SOL     OW 5140   1.706   1.380   3.686  0.2635 -0.4393 -0.3494
 1714SOL    HW1 5141   1.755   1.387   3.768 -1.2359  1.2513  0.4873
 1714SOL    HW2 5142   1.758   1.430   3.623  0.8143 -0.7105 -0.1152
 1715SOL     OW 5143   0.448   2.230   0.337  0.3010  0.3261  0.2961
 1715SOL    HW1 5144   0.405   2.312   0.314  0.6161  0.5089  0.3543
 1715SOL    HW2 5145   0.513   2.254   0.403  0.1141 -0.0338  0.6235
 1716SOL     OW 5146   3.457   3.820   0.704  0.5847  0.1761 -0.2556
 1716SOL    HW1 5147   3.448   3.793   0.795 -0.3597  0.2570 -0.3178
 1716SOL    HW2 5148   3.501   3.747   0.661  1.8663  0.5074  0.4362
 1717SOL     OW 5149   0.413   3.567  -0.004 -0.5651 -0.4414  0.1193
 1717SOL    HW1 5150   0.473   3.624   0.043 -0.4242 -1.4002  1.1702
 1717SOL    HW2 5151   0.326   3.597   0.022 -0.5272  0.3484 -0.6560
 1718SOL     OW 5152   2.265   3.851   0.754 -0.4320  0.3987 -0.0892
 1718SOL    HW1 5153   2.257   3.841   0.849  0.0080  1.6067  0.0996
 1718SOL    HW2 5154   2.316   3.776   0.726 -0.4267  0.1147  0.6574
 1719SOL     OW 5155   3.123   0.041   3.847  0.8661 -0.2190 -0.0187
 1719SOL    HW1 5156   3.123  -0.018   3.771  1.8289 -0.3434  0.0603
 1719SOL    HW2 5157   3.035   0.034   3.884  0.1685  0.3244 -1.4912
 1720SOL     OW 5158   3.005   2.414   0.600  0.4792 -0.0861  0.2746
 1720SOL    HW1 5159   2.983   2.424   0.508  0.6162  0.9426  0.3482
 1720SOL    HW2 5160   2.951   2.340   0.629 -0.4224  0.3052 -0.3530
 1721SOL     OW 5161   0.557   1.032   3.398  0.1777  0.3479  0.1084
 1721SOL    HW1 5162   0.606   1.110   3.426  0.1529  0.0443  1.0017
 1721SOL    HW2 5163   0.603   0.959   3.439 -0.6286  0.0067  0.4126
 1722SOL     OW 5164   3.516   1.815   2.246 -0.5481 -0.4462  0.1609
 1722SOL    HW1 5165   3.422   1.832   2.240 -0.8888 -2.1300  0.1427
 1722SOL    HW2 5166   3.549   1.832   2.158 -0.9127 -0.2908  0.0521
 1723SOL     OW 5167   1.813   0.526   3.135  0.1684  0.1923 -0.1939
 1723SOL    HW1 5168   1.766   0.448   3.106  0.0854  0.5440 -1.0396
 1723SOL    HW2 5169   1.794   0.532   3.228  0.5407 -1.0379 -0.0262
 1724SOL     OW 5170   2.897   3.939   2.773 -0.5449  1.0818  0.2430
 1724SOL    HW1 5171   2.940   3.992   2.840 -0.0415  0.8268  0.1267
 1724SOL    HW2 5172   2.935   3.852   2.783 -1.9993  0.5077  1.0015
 1725SOL     OW 5173   0.046   0.373   1.679 -0.8546 -0.3679  0.0640
 1725SOL    HW1 5174   0.131   0.359   1.636 -1.0357 -0.4880 -0.2630
 1725SOL    HW2 5175   0.063   0.359   1.772 -0.2398  0.8194  0.1610
 1726SOL     OW 5176   0.057   2.306   0.530  0.3571  0.3625  0.9780
 1726SOL    HW1 5177  -0.001   2.230   0.524  0.1352  0.5818  0.2317
 1726SOL    HW2 5178   0.057   2.329   0.623  0.9662 -0.9640  1.3201
 1727SOL     OW 5179   2.894   2.855   3.936  1.0752  0.4520 -0.2157
 1727SOL    HW1 5180   2.956   2.869   3.865  0.3003  0.3507 -0.9236
 1727SOL    HW2 5181   2.815   2.900   3.908 -0.1115 -1.7465 -0.6404
 1728SOL     OW 5182   0.447   3.503   1.357  0.1329 -0.0962  0.0731
 1728SOL    HW1 5183   0.415   3.530   1.443 -0.5368 -0.4252 -0.0595
 1728SOL    HW2 5184   0.436   3.408   1.357 -0.5021 -0.0365 -0.6069
 1729SOL     OW 5185   2.142   0.129   1.720 -0.1534  0.4975  0.2458
 1729SOL    HW1 5186   2.091   0.135   1.801  0.2637  2.0095  0.4305
 1729SOL    HW2 5187   2.226   0.093   1.748  0.4271  2.1512  0.7301
 1730SOL     OW 5188   1.262   2.954   1.650 -0.2337 -0.1675 -0.1456
 1730SOL    HW1 5189   1.293   2.888   1.713  0.2938 -2.0002 -2.1943
 1730SOL    HW2 5190   1.188   2.996   1.693  0.8081 -0.5319  2.1325
 1731SOL     OW 5191   3.661   0.076   1.733 -0.4858 -0.3197  0.0643
 1731SOL    HW1 5192   3.713   0.111   1.806  1.8764 -1.0903 -1.1456
 1731SOL    HW2 5193   3.584   0.133   1.729 -0.0246  0.5607  2.2883
 1732SOL     OW 5194   2.288   3.219   0.888 -0.7204  0.2564 -0.3376
 1732SOL    HW1 5195   2.284   3.195   0.980  1.5770 -0.4302 -0.3679
 1732SOL    HW2 5196   2.300   3.314   0.889 -0.0977  0.1795  0.1061
 1733SOL     OW 5197   3.612   1.965   3.838  0.4454  0.4725 -0.4388
 1733SOL    HW1 5198   3.699   1.936   3.868 -0.2041  0.4527  1.6053
 1733SOL    HW2 5199   3.576   1.889   3.793  1.1825  0.2360 -0.6534
 1734SOL     OW 5200   2.816   3.493   0.879 -0.2479  0.3225 -0.1132
 1734SOL    HW1 5201   2.861   3.491   0.795  0.1654 -2.4090  0.0909
 1734SOL    HW2 5202   2.886   3.496   0.944 -0.5201  0.7734  0.1698
 1735SOL     OW 5203   0.995   0.762   1.677  0.1782 -0.9314 -0.1360
 1735SOL    HW1 5204   0.930   0.731   1.741  1.2569 -0.9353  0.9909
 1735SOL    HW2 5205   1.017   0.850   1.707 -0.5971 -0.2355 -1.5463
 1736SOL     OW 5206   1.149   2.357   1.321 -0.2232 -0.4144  0.2827
 1736SOL    HW1 5207   1.146   2.367   1.226 -0.9070 -3.4379 -0.1301
 1736SOL    HW2 5208   1.096   2.429   1.355 -1.5597 -0.3646 -1.7553
 1737SOL     OW 5209   3.367   2.440   1.360 -0.1822  0.4465 -0.3815
 1737SOL    HW1 5210   3.276   2.420   1.334  0.1661 -0.8852 -0.6375
 1737SOL    HW2 5211   3.383   2.385   1.435  0.6254  0.2137 -0.7183
 1738SOL     OW 5212   0.785   3.132   1.993  0.4529  0.0301 -0.3527
 1738SOL    HW1 5213   0.859   3.191   2.005 -0.0719  0.7395 -0.5800
 1738SOL    HW2 5214   0.708   3.186   2.008 -0.0190 -1.0721  1.5910
 1739SOL     OW 5215   1.183   3.918   3.436 -0.6219  0.8640  0.2957
 1739SOL    HW1 5216   1.169   3.969   3.516  0.6497 -1.3965  2.0751
 1739SOL    HW2 5217   1.144   3.833   3.454  1.9087 -0.5543 -0.4568
 1740SOL     OW 5218   1.695   0.834   0.760  0.5503 -0.5658 -0.4371
 1740SOL    HW1 5219   1.634   0.762   0.777  1.2094 -1.6467 -2.3516
 1740SOL    HW2 5220   1.751   0.802   0.690  1.1727  1.6756 -1.0451
 1741SOL     OW 5221   0.134   1.782   1.733 -0.2891  0.5889  0.4714
 1741SOL    HW1 5222   0.078   1.744   1.800 -1.5180  0.8327 -0.3835
 1741SOL    HW2 5223   0.075   1.834   1.678  0.5868  0.0444 -1.0572
 1742SOL     OW 5224   3.759   2.933   0.354  0.0433 -0.0589  0.2219
 1742SOL    HW1 5225   3.678   2.983   0.364  0.7518  1.3335 -0.6591
 1742SOL    HW2 5226   3.773   2.927   0.260  1.0695 -0.0688  0.3544
 1743SOL     OW 5227   3.347   1.200   1.618 -0.4914 -0.4283 -0.6515
 1743SOL    HW1 5228   3.382   1.288   1.600 -0.4988 -0.7103 -2.2003
 1743SOL    HW2 5229   3.383   1.178   1.704  2.1095 -0.1591 -1.5558
 1744SOL     OW 5230   2.788   2.365   3.688 -0.3847  0.3858 -0.0431
 1744SOL    HW1 5231   2.733   2.287   3.676  0.0069 -0.6465  3.6053
 1744SOL    HW2 5232   2.877   2.331   3.686 -0.2207  0.6204  1.8925
 1745SOL     OW 5233   0.680   0.181   0.304 -0.2455 -0.3126 -0.3992
 1745SOL    HW1 5234   0.599   0.141   0.271 -0.1023 -1.9521  1.1044
 1745SOL    HW2 5235   0.676   0.170   0.399  0.5381  1.9798 -0.0282
 1746SOL     OW 5236   0.742   2.814   1.492  0.2923  0.4684  0.3324
 1746SOL    HW1 5237   0.747   2.831   1.586 -0.8330  0.4637  0.4069
 1746SOL    HW2 5238   0.679   2.742   1.484  0.6300  0.2449 -0.4010
 1747SOL     OW 5239   2.398   3.820   2.001  0.2191  0.2086 -0.0384
 1747SOL    HW1 5240   2.371   3.761   1.931  0.6551 -0.4636  0.3544
 1747SOL    HW2 5241   2.315   3.855   2.035 -0.2446 -1.9644  1.2632
 1748SOL     OW 5242   2.359   2.125   0.843 -0.1035 -0.2622  0.0703
 1748SOL    HW1 5243   2.406   2.163   0.769  0.2215 -0.2189  0.3023
 1748SOL    HW2 5244   2.314   2.049   0.805  2.7161 -2.2740  0.4602
 1749SOL     OW 5245   1.631   2.615   2.252  0.0843 -0.0775  0.1298
 1749SOL    HW1 5246   1.634   2.699   2.297 -0.3248 -0.1172  0.2309
 1749SOL    HW2 5247   1.723   2.587   2.248  0.4162  1.0918 -1.2792
 1750SOL     OW 5248   3.587   1.721   1.731 -0.3426 -0.4116  0.5775
 1750SOL    HW1 5249   3.605   1.731   1.638  0.1540  0.7863  0.7786
 1750SOL    HW2 5250   3.653   1.658   1.762 -0.6383 -0.9648  0.0985
 1751SOL     OW 5251   0.612   1.956   1.551  0.0033  0.0265 -0.4875
 1751SOL    HW1 5252   0.668   1.910   1.613 -0.4543 -0.4913 -0.4487
 1751SOL    HW2 5253   0.568   2.023   1.604 -1.6217 -1.4511  0.1479
 1752SOL     OW 5254   2.866   2.353   2.092  0.7058 -0.4826 -0.4646
 1752SOL    HW1 5255   2.851   2.421   2.157  0.3229 -0.7204 -0.2998
 1752SOL    HW2 5256   2.828   2.388   2.011 -0.1060 -0.7714 -0.2219
 1753SOL     OW 5257   2.020   0.109   3.180  0.2009 -0.6778  0.1874
 1753SOL    HW1 5258   1.993   0.020   3.203  0.5598 -0.8665 -0.1215
 1753SOL    HW2 5259   2.115   0.109   3.191  0.2897 -0.5468 -0.5421
 1754SOL     OW 5260   1.945   2.018   0.248  0.8684  0.2636 -0.3829
 1754SOL    HW1 5261   2.038   2.040   0.252  0.5687  1.4942  0.3064
 1754SOL    HW2 5262   1.901   2.103   0.247 -0.3228 -0.2887  1.2441
 1755SOL     OW 5263   1.299   3.893   3.065 -0.4265  0.4987  0.1591
 1755SOL    HW1 5264   1.208   3.895   3.095 -0.6092 -0.3973 -0.2970
 1755SOL    HW2 5265   1.343   3.832   3.125  0.5160  2.8125  1.9970
 1756SOL     OW 5266   0.456   3.749   3.720 -0.1116  0.8416 -0.3270
 1756SOL    HW1 5267   0.530   3.690   3.712 -0.7050 -0.7242  3.2980
 1756SOL    HW2 5268   0.484   3.815   3.784 -0.8161  2.1969 -1.3464
 1757SOL     OW 5269   3.578   1.645   1.292 -0.1154 -0.2316 -0.2696
 1757SOL    HW1 5270   3.583   1.741   1.301 -1.2237 -0.2994  2.0295
 1757SOL    HW2 5271   3.521   1.631   1.216  3.3975  0.7801 -3.3406
 1758SOL     OW 5272   3.782   1.807   2.726 -0.2571  0.5421  0.0983
 1758SOL    HW1 5273   3.824   1.884   2.688  0.0437  0.3588  0.0573
 1758SOL    HW2 5274   3.726   1.773   2.656 -0.9861  1.1577  0.3573
 1759SOL     OW 5275   0.149   0.695   2.787 -0.8425  0.5267  0.2514
 1759SOL    HW1 5276   0.242   0.687   2.811 -0.0429  1.3256 -2.2041
 1759SOL    HW2 5277   0.126   0.784   2.815 -0.2885  1.0052 -0.7493
 1760SOL     OW 5278   0.689   1.440   2.099  0.6901 -0.0256  0.1598
 1760SOL    HW1 5279   0.634   1.506   2.056 -1.0528 -1.4852  0.0305
 1760SOL    HW2 5280   0.777   1.455   2.063 -0.2668  0.2371 -2.3012
 1761SOL     OW 5281   0.848   3.512   1.881 -0.1279 -0.3224  0.5320
 1761SOL    HW1 5282   0.896   3.584   1.840  0.1732 -1.0170 -0.3737
 1761SOL    HW2 5283   0.826   3.544   1.968  4.5624 -0.9809  2.2577
 1762SOL     OW 5284   2.350   3.416   2.345 -0.1781 -0.0095 -0.0177
 1762SOL    HW1 5285   2.298   3.443   2.270 -2.2908  1.4900  1.8765
 1762SOL    HW2 5286   2.379   3.498   2.385  1.8656 -0.7883  0.2452
 1763SOL     OW 5287   3.002   3.461   2.117 -0.3109  0.4058 -0.0085
 1763SOL    HW1 5288   3.005   3.471   2.212 -0.0450  0.1063  0.0187
 1763SOL    HW2 5289   3.068   3.522   2.084  0.8230 -0.7115  0.1141
 1764SOL     OW 5290   1.054   3.035   1.825 -0.1208 -0.4105 -0.0374
 1764SOL    HW1 5291   1.088   3.048   1.913 -0.7785 -3.4596  0.7718
 1764SOL    HW2 5292   1.011   3.118   1.803 -1.5302 -0.1145  3.2658
 1765SOL     OW 5293   0.795   2.917   1.748 -0.1472 -0.0856  0.2732
 1765SOL    HW1 5294   0.890   2.913   1.736 -0.2342  0.0189 -0.4745
 1765SOL    HW2 5295   0.784   2.956   1.834  0.5120 -1.8842  1.2264
 1766SOL     OW 5296   3.647   0.357   0.582  0.4586 -0.3948  0.1619
 1766SOL    HW1 5297   3.621   0.387   0.495 -0.3372  0.0804  0.5531
 1766SOL    HW2 5298   3.597   0.412   0.643  2.9942  1.1643  0.9929
 1767SOL     OW 5299   1.861   1.328   3.160 -0.0381 -0.1472 -0.5545
 1767SOL    HW1 5300   1.932   1.333   3.224 -1.0281  1.9973  0.4571
 1767SOL    HW2 5301   1.807   1.255   3.190  1.9534 -2.2154 -1.6800
 1768SOL     OW 5302   3.166   2.182   0.288  0.3825  0.3431 -0.8341
 1768SOL    HW1 5303   3.166   2.214   0.198  0.1114  0.5491 -0.7615
 1768SOL    HW2 5304   3.215   2.248   0.337  1.0378 -0.0642 -0.9325
 1769SOL     OW 5305   1.990   0.559   2.285  0.2107 -0.4769 -0.3831
 1769SOL    HW1 5306   2.073   0.512   2.281 -0.8130 -2.4482  0.4184
 1769SOL    HW2 5307   1.964   0.554   2.377 -1.1241 -0.5158 -0.7378
 1770SOL     OW 5308   0.332   2.478   0.319 -0.1305  0.2375  0.1622
 1770SOL    HW1 5309   0.360   2.564   0.284 -0.3568 -0.8403 -3.0248
 1770SOL    HW2 5310   0.237   2.482   0.319 -0.1319  0.3336  1.0511
 1771SOL     OW 5311   0.491   2.895   1.854  0.2505  0.4828  0.1271
 1771SOL    HW1 5312   0.511   2.971   1.909  0.6295  0.1680  0.4262
 1771SOL    HW2 5313   0.571   2.877   1.806  0.2489  0.1110  0.2555
 1772SOL     OW 5314   3.981   1.914   1.536  0.1770  0.1918 -0.1393
 1772SOL    HW1 5315   3.886   1.902   1.536  0.0706  0.9671 -0.7027
 1772SOL    HW2 5316   3.995   1.996   1.489  1.1891 -0.4076 -0.9220
 1773SOL     OW 5317   0.400   1.915   0.050 -0.1390 -0.2365 -0.0562
 1773SOL    HW1 5318   0.344   1.939  -0.024  0.3708  0.0199 -0.3689
 1773SOL    HW2 5319   0.405   1.820   0.048 -1.2746 -0.3245  0.5117
 1774SOL     OW 5320   3.634   0.214   3.429 -0.3833 -0.3256  0.1490
 1774SOL    HW1 5321   3.570   0.231   3.359 -1.9223 -0.7317  1.3822
 1774SOL    HW2 5322   3.690   0.291   3.430 -1.4605  0.4979 -0.3661
 1775SOL     OW 5323   1.834   1.501   3.482 -0.3149  0.2181 -0.2891
 1775SOL    HW1 5324   1.903   1.446   3.445  0.9136  0.4948  1.4438
 1775SOL    HW2 5325   1.854   1.589   3.450 -0.2958  0.1782 -0.3861
 1776SOL     OW 5326   3.422   2.609   2.294 -0.3284 -0.3122  0.4407
 1776SOL    HW1 5327   3.469   2.526   2.290  0.1745 -0.0100 -0.0738
 1776SOL    HW2 5328   3.471   2.661   2.359  1.0429  0.5765 -1.1964
 1777SOL     OW 5329   0.467   1.679   3.508  0.4596  0.5884  0.3892
 1777SOL    HW1 5330   0.540   1.740   3.511  0.4992  0.5361  0.5293
 1777SOL    HW2 5331   0.501   1.599   3.550  0.9161 -0.0706 -1.1638
 1778SOL     OW 5332   3.735   1.903   3.269 -0.2369 -0.6489  0.3952
 1778SOL    HW1 5333   3.789   1.969   3.314 -0.4338 -0.5573  0.5004
 1778SOL    HW2 5334   3.693   1.854   3.340 -0.3713 -0.6527  0.3130
 1779SOL     OW 5335   2.826   2.282   2.931  0.2500 -0.8626 -0.6857
 1779SOL    HW1 5336   2.876   2.220   2.985 -1.5592 -0.4824  1.5177
 1779SOL    HW2 5337   2.843   2.367   2.969 -1.7200 -0.6787 -0.1138
 1780SOL     OW 5338   1.356   1.591   1.268 -0.3912  0.3353  0.0934
 1780SOL    HW1 5339   1.364   1.683   1.294  0.9651  0.2945 -0.0876
 1780SOL    HW2 5340   1.321   1.547   1.346  0.5778  0.7319  0.7749
 1781SOL     OW 5341   1.027   0.496   3.143 -0.2695  0.4213  0.4092
 1781SOL    HW1 5342   1.017   0.516   3.236  0.8415 -1.5074  1.0032
 1781SOL    HW2 5343   1.114   0.529   3.121  0.3898 -1.0596  0.6669
 1782SOL     OW 5344   3.416   1.171   0.110 -0.0937  0.1895  0.0904
 1782SOL    HW1 5345   3.506   1.168   0.076  0.2468 -0.2206  1.0057
 1782SOL    HW2 5346   3.426   1.167   0.205 -0.9761  2.6083  0.3479
 1783SOL     OW 5347   0.774   2.286   0.908  0.3072  0.3193  0.7018
 1783SOL    HW1 5348   0.738   2.374   0.916  1.1250  0.7199  0.0506
 1783SOL    HW2 5349   0.786   2.257   0.998 -3.0307 -0.4424  1.0371
 1784SOL     OW 5350   3.737   2.046   2.212  1.0343  0.6760  0.0482
 1784SOL    HW1 5351   3.675   2.101   2.261 -0.9959  0.4191 -2.0399
 1784SOL    HW2 5352   3.784   1.997   2.280 -1.8432  0.0779  1.8108
 1785SOL     OW 5353   3.588   2.410   0.038 -0.0298  0.1422  0.3655
 1785SOL    HW1 5354   3.520   2.459  -0.008 -0.4842 -0.4342  0.4081
 1785SOL    HW2 5355   3.592   2.326  -0.008  0.6195  0.1515  0.3960
 1786SOL     OW 5356   2.052   0.741   1.722 -0.0782 -0.0701  0.1216
 1786SOL    HW1 5357   2.031   0.712   1.634 -0.2392  1.1798 -0.2752
 1786SOL    HW2 5358   2.092   0.665   1.764 -0.4668 -0.8326 -0.8561
 1787SOL     OW 5359   2.780   3.689   1.961  0.1500 -1.0541 -0.1610
 1787SOL    HW1 5360   2.867   3.728   1.948 -0.3770  0.5427  0.7922
 1787SOL    HW2 5361   2.745   3.681   1.872 -0.2564  2.0746 -0.3847
 1788SOL     OW 5362   2.535   3.569   1.773  0.0810  0.4815 -0.2112
 1788SOL    HW1 5363   2.456   3.521   1.798 -0.8316  2.2297  0.4642
 1788SOL    HW2 5364   2.502   3.643   1.721  1.4238  0.3823 -1.2268
 1789SOL     OW 5365   1.338   3.224   3.034 -0.0490  0.5622  0.0261
 1789SOL    HW1 5366   1.360   3.292   2.970 -1.4392  0.3689 -0.6976
 1789SOL    HW2 5367   1.267   3.262   3.086  2.1224  1.3770  2.6373
 1790SOL     OW 5368   0.974   2.031   0.532  0.4034 -0.0925  0.3530
 1790SOL    HW1 5369   0.983   2.050   0.439 -0.8841  1.9991  0.5973
 1790SOL    HW2 5370   0.903   1.968   0.538  0.3784 -0.1044 -0.0779
 1791SOL     OW 5371   3.902   1.567   2.827 -0.6589 -0.5044 -0.3825
 1791SOL    HW1 5372   3.849   1.646   2.818  0.1548  0.1982  0.6831
 1791SOL    HW2 5373   3.864   1.522   2.903  0.6516  0.3732  0.8539
 1792SOL     OW 5374   3.172   1.150   3.977  0.6214  0.7736  0.0596
 1792SOL    HW1 5375   3.166   1.183   3.888 -2.8360  0.8582  0.1547
 1792SOL    HW2 5376   3.265   1.147   3.996  1.6884 -1.4565 -4.3250
 1793SOL     OW 5377   0.414   1.097   1.624 -0.0951 -0.0256  0.2029
 1793SOL    HW1 5378   0.439   1.157   1.694 -1.2609  0.9839 -0.2154
 1793SOL    HW2 5379   0.425   1.009   1.662  1.0422  0.4541  1.0231
 1794SOL     OW 5380   1.445   1.375   0.815  0.0394  0.4733 -0.1348
 1794SOL    HW1 5381   1.351   1.391   0.827  0.0949  0.7165  0.0033
 1794SOL    HW2 5382   1.487   1.448   0.862  0.2809  1.2970 -1.5682
 1795SOL     OW 5383   3.730   0.133   2.295 -0.0774 -0.0247  0.3799
 1795SOL    HW1 5384   3.726   0.215   2.246 -2.5469  0.2940  0.9829
 1795SOL    HW2 5385   3.764   0.158   2.381  0.2476  0.1545  0.2012
 1796SOL     OW 5386   2.673   1.337   2.879  0.0303  0.5389  0.4715
 1796SOL    HW1 5387   2.643   1.249   2.899 -1.6530  1.1793  0.9404
 1796SOL    HW2 5388   2.769   1.331   2.882 -0.0422 -1.3246  0.1383
 1797SOL     OW 5389   4.012   3.951   1.013 -0.0302  0.2026  0.1355
 1797SOL    HW1 5390   3.945   3.998   0.963  0.0057  0.8507  0.6652
 1797SOL    HW2 5391   4.007   3.990   1.101  0.2929 -0.5068  0.4730
 1798SOL     OW 5392   0.887   0.202   3.160 -0.1906  0.3712 -0.2596
 1798SOL    HW1 5393   0.959   0.259   3.188  0.6035 -0.9414  0.5250
 1798SOL    HW2 5394   0.808   0.244   3.193  0.4985  0.2752  1.6536
 1799SOL     OW 5395   1.346   2.696   1.265  0.6175  0.2970  0.6790
 1799SOL    HW1 5396   1.288   2.628   1.299 -0.0058  0.0809 -0.7345
 1799SOL    HW2 5397   1.412   2.708   1.333  1.2717 -2.3412  0.6201
 1800SOL     OW 5398   1.078   3.236   0.400 -0.1246 -0.0310  0.6927
 1800SOL    HW1 5399   1.041   3.213   0.315  0.0372 -0.1571  0.6559
 1800SOL    HW2 5400   1.003   3.263   0.453 -0.4221 -1.2974  0.9537
 1801SOL     OW 5401   2.891   2.540   0.859 -0.1301 -0.0000  0.5232
 1801SOL    HW1 5402   2.935   2.489   0.791 -1.0964 -1.9496  1.2885
 1801SOL    HW2 5403   2.808   2.495   0.873 -0.6129  1.2359  1.9462
 1802SOL     OW 5404   1.653   0.018   3.006 -0.1246 -0.5599  0.1597
 1802SOL    HW1 5405   1.630   0.082   2.940  1.2243 -0.5879 -0.3645
 1802SOL    HW2 5406   1.663  -0.064   2.958 -1.0922 -1.0191  0.7116
 1803SOL     OW 5407   0.692   0.322   1.475 -0.4522  0.8453 -0.4244
 1803SOL    HW1 5408   0.757   0.358   1.415  0.9152  0.0217  0.5032
 1803SOL    HW2 5409   0.728   0.339   1.562 -0.8626 -0.6758  0.0846
 1804SOL     OW 5410   1.022   2.617   3.311 -0.8133 -0.5107 -0.8437
 1804SOL    HW1 5411   1.014   2.657   3.224 -2.6902  1.9366  0.3171
 1804SOL    HW2 5412   1.080   2.676   3.360 -1.6244 -0.5548  0.2101
 1805SOL     OW 5413   3.809   0.952   3.007 -0.4257  0.2336 -0.7807
 1805SOL    HW1 5414   3.720   0.981   3.026 -1.0130 -0.3574 -2.3896
 1805SOL    HW2 5415   3.839   1.011   2.938  0.7961  0.9957  0.3591
 1806SOL     OW 5416   2.245   1.368   2.539  0.2687 -0.3687  0.2168
 1806SOL    HW1 5417   2.221   1.315   2.615  0.3644 -1.7011 -0.6494
 1806SOL    HW2 5418   2.179   1.437   2.537  0.6403  0.0823  1.8708
 1807SOL     OW 5419   2.784   1.394   1.367  0.3135  0.2928  0.0144
 1807SOL    HW1 5420   2.797   1.355   1.453  1.7799 -0.7569 -0.6352
 1807SOL    HW2 5421   2.870   1.388   1.325 -0.7369 -0.8511 -2.1570
 1808SOL     OW 5422   0.004   0.571   2.581 -0.3974 -0.3027  0.1468
 1808SOL    HW1 5423   0.073   0.612   2.634 -0.5637  3.4560 -2.1816
 1808SOL    HW2 5424   0.051   0.525   2.512 -0.2163  0.1751 -0.0484
 1809SOL     OW 5425   3.111   0.105   1.682  0.1342 -0.3224 -0.1872
 1809SOL    HW1 5426   3.026   0.146   1.668 -0.1153 -0.4817  0.8167
 1809SOL    HW2 5427   3.169   0.148   1.618  0.1420  2.4145  1.5030
 1810SOL     OW 5428   0.802   2.626   3.497  0.7916  0.2304 -0.3554
 1810SOL    HW1 5429   0.758   2.710   3.488 -0.1509 -0.2295 -0.1101
 1810SOL    HW2 5430   0.885   2.637   3.451  1.0309  1.5543  0.3584
 1811SOL     OW 5431   1.546   1.748   2.041  0.4227 -0.8242 -0.0352
 1811SOL    HW1 5432   1.596   1.814   2.088  0.9366  0.2874 -2.0252
 1811SOL    HW2 5433   1.464   1.793   2.017  0.9239 -0.7181 -1.7121
 1812SOL     OW 5434   1.594   3.005   0.387 -0.3545 -0.2381  0.3566
 1812SOL    HW1 5435   1.657   3.054   0.334  0.0938  0.4509  1.4654
 1812SOL    HW2 5436   1.508   3.038   0.361 -0.1689 -0.2332 -0.2510
 1813SOL     OW 5437   0.683   3.904   3.445 -0.3618  0.3521  0.6990
 1813SOL    HW1 5438   0.604   3.852   3.429 -0.2914 -0.0515  1.5946
 1813SOL    HW2 5439   0.755   3.850   3.413 -0.4627  0.8825 -0.4726
 1814SOL     OW 5440   2.640   0.897   2.697  0.4362  0.9715  0.7070
 1814SOL    HW1 5441   2.612   0.971   2.642 -1.8807  0.2821  0.8542
 1814SOL    HW2 5442   2.648   0.934   2.785 -0.4083  1.1390  0.7243
 1815SOL     OW 5443   3.319   0.073   0.358  0.3491  0.9091 -0.0418
 1815SOL    HW1 5444   3.237   0.028   0.376  1.1397  0.1075  1.7634
 1815SOL    HW2 5445   3.329   0.067   0.263 -0.5396 -1.0354 -0.0600
 1816SOL     OW 5446   0.716   3.694   2.974  0.2307 -0.5055 -0.2266
 1816SOL    HW1 5447   0.686   3.778   3.009  1.2906 -0.9085  1.7848
 1816SOL    HW2 5448   0.743   3.714   2.884 -1.0205  0.9350 -0.3255
 1817SOL     OW 5449   0.485   2.736   3.966  0.5034 -0.5847 -0.3282
 1817SOL    HW1 5450   0.450   2.655   3.930 -0.7783 -0.6167  0.9253
 1817SOL    HW2 5451   0.476   2.727   4.061 -0.9137  1.5154 -0.1846
 1818SOL     OW 5452   1.921   2.561   1.264 -0.2775 -0.1574 -0.8256
 1818SOL    HW1 5453   1.857   2.525   1.325 -0.3379 -2.0856 -1.9359
 1818SOL    HW2 5454   2.004   2.519   1.289  1.1496  3.6250  1.7739
 1819SOL     OW 5455   2.305   1.775   3.962  0.2178  0.4956 -0.2272
 1819SOL    HW1 5456   2.365   1.843   3.931 -0.2193  1.4276  0.8766
 1819SOL    HW2 5457   2.346   1.741   4.042  0.1865 -0.1925 -0.4993
 1820SOL     OW 5458   3.211   1.639   0.389  0.0353  0.2321  0.0347
 1820SOL    HW1 5459   3.238   1.561   0.438 -1.3948  0.4131  1.1748
 1820SOL    HW2 5460   3.128   1.614   0.349  0.7546  0.3846 -1.6562
 1821SOL     OW 5461   3.884   1.602   1.296  0.1362 -0.0668  0.0019
 1821SOL    HW1 5462   3.915   1.514   1.317  1.6630  0.9871  2.7244
 1821SOL    HW2 5463   3.825   1.624   1.368 -0.5426  1.0018 -0.8562
 1822SOL     OW 5464   2.669   2.643   1.480 -0.0752  0.0746 -0.5052
 1822SOL    HW1 5465   2.665   2.635   1.576  0.5293  0.6380 -0.4303
 1822SOL    HW2 5466   2.704   2.730   1.464  1.6933 -0.7118 -1.2091
 1823SOL     OW 5467   0.900   3.451   3.909 -0.1040  0.1851 -0.0162
 1823SOL    HW1 5468   0.984   3.408   3.924  0.6267  1.7235  0.5336
 1823SOL    HW2 5469   0.855   3.395   3.846  0.4448 -1.7851  1.2666
 1824SOL     OW 5470   0.606   3.836   0.987  0.1483 -0.3632  0.1636
 1824SOL    HW1 5471   0.612   3.771   1.058 -0.1093  1.9574  2.4876
 1824SOL    HW2 5472   0.543   3.798   0.926 -1.3592 -1.5835  2.2962
 1825SOL     OW 5473   2.307   1.521   1.145  0.4264 -0.1929 -0.1746
 1825SOL    HW1 5474   2.218   1.554   1.161  0.9192  1.1226  0.0328
 1825SOL    HW2 5475   2.324   1.461   1.217 -0.2903 -0.4462 -0.2118
 1826SOL     OW 5476   1.428   1.032   2.777  0.0762  0.2415 -0.4143
 1826SOL    HW1 5477   1.513   1.044   2.733 -0.4955 -0.4821 -1.7773
 1826SOL    HW2 5478   1.417   0.937   2.783 -1.1213  0.3080 -1.2498
 1827SOL     OW 5479   3.956   2.453   3.334 -0.0182  0.0965  0.1594
 1827SOL    HW1 5480   3.943   2.548   3.336  0.6711  0.1888  0.3833
 1827SOL    HW2 5481   3.867   2.417   3.326 -0.2842  0.7557  0.0961
 1828SOL     OW 5482   1.924   0.499   2.853  0.1888  0.8224 -0.0998
 1828SOL    HW1 5483   1.830   0.514   2.863  0.1846  0.0979  1.1756
 1828SOL    HW2 5484   1.938   0.411   2.888  0.6212 -1.1876 -4.5838
 1829SOL     OW 5485   2.538   3.304   0.779  0.1379  0.0286  0.1581
 1829SOL    HW1 5486   2.586   3.262   0.850  0.0759 -0.8554 -0.3044
 1829SOL    HW2 5487   2.465   3.245   0.762 -0.0856  0.4457 -0.3604
 1830SOL     OW 5488   2.807   2.650   1.967 -0.0122 -0.5135  0.0246
 1830SOL    HW1 5489   2.784   2.707   2.040  0.7391  0.3468 -0.3905
 1830SOL    HW2 5490   2.902   2.658   1.959 -0.0938 -0.4448 -1.1516
 1831SOL     OW 5491   1.774   3.389   2.615 -0.5010  0.4283  0.1977
 1831SOL    HW1 5492   1.794   3.351   2.530  0.4262 -0.8016  0.9314
 1831SOL    HW2 5493   1.688   3.354   2.638 -1.1485  1.4383 -0.5734
 1832SOL     OW 5494   0.760   1.275   2.330 -0.1543  0.4448  0.3012
 1832SOL    HW1 5495   0.671   1.278   2.295  0.4956  0.7321 -1.3989
 1832SOL    HW2 5496   0.816   1.297   2.256  1.4620 -1.3062  0.9308
 1833SOL     OW 5497   2.925   2.089   0.078 -0.5373  0.0823 -0.1340
 1833SOL    HW1 5498   2.946   1.998   0.059 -2.6832 -0.7085  0.9881
 1833SOL    HW2 5499   3.006   2.137   0.059  0.9546 -2.1709  0.1991
 1834SOL     OW 5500   0.734   1.998   2.758 -0.1903 -0.0158 -0.2178
 1834SOL    HW1 5501   0.707   2.060   2.691 -3.6618 -1.0982 -0.0238
 1834SOL    HW2 5502   0.765   1.921   2.710 -2.1371 -0.5711 -0.6879
 1835SOL     OW 5503   3.221   1.709   1.868  0.2120  0.2272  0.1004
 1835SOL    HW1 5504   3.174   1.768   1.925 -0.3098  0.3237 -0.4199
 1835SOL    HW2 5505   3.287   1.668   1.924 -1.3409 -0.9215  1.1695
 1836SOL     OW 5506   3.633   0.846   3.215 -0.6529  0.2469  0.0023
 1836SOL    HW1 5507   3.609   0.930   3.177 -1.7944 -0.8186 -1.7999
 1836SOL    HW2 5508   3.638   0.786   3.140  2.7274 -0.7694  0.8761
 1837SOL     OW 5509   2.673   2.069   3.594 -0.3911 -0.2800 -0.3623
 1837SOL    HW1 5510   2.684   2.067   3.689  2.7781  0.7093 -0.5948
 1837SOL    HW2 5511   2.693   1.980   3.565 -2.5982 -0.9255 -0.0943
 1838SOL     OW 5512   2.481   0.179   1.043  0.0110 -0.1150  0.3081
 1838SOL    HW1 5513   2.559   0.192   1.098  0.7442  0.3652 -0.7999
 1838SOL    HW2 5514   2.513   0.191   0.953 -1.5719  1.1730 -0.1167
 1839SOL     OW 5515   3.958  -0.006   3.689  0.0366  0.4176  0.3295
 1839SOL    HW1 5516   3.865  -0.012   3.713 -0.3770  1.8697 -0.6974
 1839SOL    HW2 5517   3.983   0.083   3.714  0.7581  0.4985 -0.6231
 1840SOL     OW 5518   1.575   3.759   2.024 -0.5742 -0.2871 -0.2049
 1840SOL    HW1 5519   1.583   3.707   2.104  0.3743 -0.3957 -0.3557
 1840SOL    HW2 5520   1.496   3.812   2.038  0.1719  0.5090  1.2778
 1841SOL     OW 5521   1.664   1.846   3.269  0.1616 -0.4241  0.0159
 1841SOL    HW1 5522   1.710   1.819   3.349 -0.0069 -0.0834  0.2273
 1841SOL    HW2 5523   1.588   1.894   3.300 -0.6412 -1.4255 -0.3247
 1842SOL     OW 5524   1.919   0.130   2.222 -0.3608  0.3231 -0.7870
 1842SOL    HW1 5525   1.861   0.055   2.212  1.0664 -0.9485  0.0423
 1842SOL    HW2 5526   1.866   0.206   2.196 -1.4082 -1.0941 -2.9818
 1843SOL     OW 5527   3.558   2.816   3.779 -1.1468 -0.2827 -0.7474
 1843SOL    HW1 5528   3.496   2.881   3.744 -2.3237 -1.6162 -1.2497
 1843SOL    HW2 5529   3.624   2.868   3.825 -1.6401  1.3022 -1.7521
 1844SOL     OW 5530   1.937   2.663   3.546  0.3335  0.6023 -0.5279
 1844SOL    HW1 5531   2.005   2.659   3.613 -0.5401  0.5107  0.3779
 1844SOL    HW2 5532   1.966   2.602   3.478  0.8925  0.1704  0.0923
 1845SOL     OW 5533   0.731   3.073   3.216 -0.3089  0.0394 -0.0033
 1845SOL    HW1 5534   0.711   2.984   3.243  0.6078 -0.5957 -1.3417
 1845SOL    HW2 5535   0.735   3.122   3.299  1.1983 -1.5683  0.9619
 1846SOL     OW 5536   3.222   3.188   1.692 -0.5474 -0.2584  0.5717
 1846SOL    HW1 5537   3.269   3.109   1.665  0.0883  0.4496 -0.4792
 1846SOL    HW2 5538   3.130   3.168   1.675 -0.2406 -0.1296 -1.4790
 1847SOL     OW 5539   2.758   1.841   2.960  0.0530  0.4681  0.1227
 1847SOL    HW1 5540   2.700   1.765   2.973 -1.1054  1.5310  1.4067
 1847SOL    HW2 5541   2.700   1.911   2.932  1.3239  0.5594 -2.5563
 1848SOL     OW 5542   1.459   3.606   1.051  0.2253  0.7779  0.0744
 1848SOL    HW1 5543   1.551   3.579   1.049 -0.0808 -0.3388 -0.1395
 1848SOL    HW2 5544   1.444   3.647   0.967  1.2997  3.8648  1.2636
 1849SOL     OW 5545   2.588   3.546   3.835 -0.2878 -0.0709  0.0821
 1849SOL    HW1 5546   2.667   3.491   3.842 -0.0960  0.2631  0.6498
 1849SOL    HW2 5547   2.606   3.620   3.893 -1.2297 -0.2391  0.5944
 1850SOL     OW 5548   0.297   0.815   1.442 -0.3518 -0.1205 -0.1045
 1850SOL    HW1 5549   0.338   0.898   1.418  0.2930 -0.6724 -0.9442
 1850SOL    HW2 5550   0.348   0.784   1.517  1.0348 -0.9606 -1.3373
 1851SOL     OW 5551   2.509   0.079   3.052  0.4010 -0.5760 -0.3099
 1851SOL    HW1 5552   2.520   0.034   3.136  2.8804  2.7783  1.4087
 1851SOL    HW2 5553   2.599   0.095   3.022 -0.4026 -1.3692 -3.5461
 1852SOL     OW 5554   2.147   3.044   2.026 -0.3774  1.1831 -0.6088
 1852SOL    HW1 5555   2.078   3.092   2.070 -1.2942  0.5285 -1.2898
 1852SOL    HW2 5556   2.214   3.031   2.093 -2.8218 -2.1172  1.5125
 1853SOL     OW 5557   3.517   3.076   0.373  0.2048  0.2592  0.9508
 1853SOL    HW1 5558   3.551   3.149   0.424  0.5222  0.8533 -0.0796
 1853SOL    HW2 5559   3.440   3.046   0.422 -0.1231  1.4892  1.2391
 1854SOL     OW 5560   3.155   2.603   1.490 -0.2608  0.4695 -0.0689
 1854SOL    HW1 5561   3.247   2.577   1.495 -0.1640  1.0033  2.0546
 1854SOL    HW2 5562   3.123   2.564   1.409  1.8145  0.2385 -0.8384
 1855SOL     OW 5563   2.276   1.256   3.786 -0.1366  0.2222  0.0433
 1855SOL    HW1 5564   2.266   1.339   3.738 -0.4575  1.0611  1.4924
 1855SOL    HW2 5565   2.204   1.257   3.849 -0.1427 -1.1790  0.0830
 1856SOL     OW 5566   1.144   0.212   2.203  0.1157 -0.1335  0.9027
 1856SOL    HW1 5567   1.085   0.162   2.259 -1.5579 -0.0538 -0.6755
 1856SOL    HW2 5568   1.136   0.170   2.117  0.8142  1.1410  0.1821
 1857SOL     OW 5569   3.363   2.382   3.708  0.0077  0.1725  0.0758
 1857SOL    HW1 5570   3.366   2.287   3.712 -3.0833  0.0016  0.3720
 1857SOL    HW2 5571   3.364   2.411   3.799  2.6760  0.6243 -0.0060
 1858SOL     OW 5572   1.156   0.113   3.620 -0.3799 -0.1517 -0.3053
 1858SOL    HW1 5573   1.198   0.198   3.608 -1.1302  0.0641 -1.6666
 1858SOL    HW2 5574   1.157   0.098   3.714 -1.3291  1.9379  0.0879
 1859SOL     OW 5575   1.982   2.845   0.541  0.3499  0.0543  0.1414
 1859SOL    HW1 5576   1.946   2.930   0.564  1.9159  0.9680 -0.6486
 1859SOL    HW2 5577   2.023   2.813   0.621  0.9809  0.7016  0.0825
 1860SOL     OW 5578   3.477   0.754   3.864  0.2632 -0.4701 -0.2359
 1860SOL    HW1 5579   3.525   0.684   3.819  0.9325 -0.3889  0.3326
 1860SOL    HW2 5580   3.537   0.783   3.932  0.1637  0.9572 -0.7327
 1861SOL     OW 5581   3.886   3.240   2.218 -0.1932 -0.4612  0.2156
 1861SOL    HW1 5582   3.874   3.164   2.274  1.8902  1.2887  3.3206
 1861SOL    HW2 5583   3.976   3.232   2.186  0.4143  1.0949  1.3982
 1862SOL     OW 5584   2.855   2.558  -0.011  0.1666 -0.4639  0.2141
 1862SOL    HW1 5585   2.869   2.527   0.079  0.2325 -0.4403  0.2113
 1862SOL    HW2 5586   2.874   2.652  -0.007 -0.3661 -0.3549  0.2998
 1863SOL     OW 5587   2.652   2.445   0.212 -0.1353  0.2434  0.1151
 1863SOL    HW1 5588   2.592   2.391   0.161 -0.3359  1.5116 -1.0511
 1863SOL    HW2 5589   2.645   2.533   0.174  2.1668  0.5319  0.1819
 1864SOL     OW 5590   3.340   2.611   2.839 -0.3035  0.3208  0.0224
 1864SOL    HW1 5591   3.434   2.602   2.821 -0.2689  1.2281 -0.3166
 1864SOL    HW2 5592   3.332   2.692   2.888 -0.9154  0.2276  0.0922
 1865SOL     OW 5593   1.866   2.588   0.785  0.2892 -0.0080  0.6981
 1865SOL    HW1 5594   1.793   2.571   0.845 -0.3918  0.1288 -0.0738
 1865SOL    HW2 5595   1.849   2.532   0.710  1.9983 -1.4088  1.2828
 1866SOL     OW 5596   4.006   1.549   0.534 -0.3975  0.3612  0.4879
 1866SOL    HW1 5597   3.941   1.578   0.599 -1.0724 -2.2382  1.0903
 1866SOL    HW2 5598   4.027   1.460   0.560  2.6801  0.7398 -0.3429
 1867SOL     OW 5599   0.931   0.148   2.392  0.3250 -0.0963  0.2167
 1867SOL    HW1 5600   0.956   0.107   2.475  0.1615  2.3102  1.5441
 1867SOL    HW2 5601   0.907   0.238   2.416 -1.6411  0.1255 -2.1600
 1868SOL     OW 5602   0.421   3.033   3.402  0.1273 -0.2058  0.7957
 1868SOL    HW1 5603   0.506   2.996   3.376  0.5375  1.0440  0.2481
 1868SOL    HW2 5604   0.386   2.972   3.467  1.4343 -0.7551  1.0079
 1869SOL     OW 5605   3.578   0.576   3.078  0.0157 -0.1231 -0.1714
 1869SOL    HW1 5606   3.482   0.574   3.072 -0.0206 -1.3151  0.4966
 1869SOL    HW2 5607   3.607   0.502   3.025  0.4943 -0.5350  0.6450
 1870SOL     OW 5608   1.877   0.258   0.028  0.4290 -0.4785 -0.2905
 1870SOL    HW1 5609   1.945   0.208   0.072  0.4238  1.0195  1.5796
 1870SOL    HW2 5610   1.818   0.286   0.099  0.0060  1.4651 -1.3268
 1871SOL     OW 5611   1.561   3.599   0.266 -0.0110 -0.0128  0.5243
 1871SOL    HW1 5612   1.646   3.634   0.239 -0.2424 -0.6727 -1.1480
 1871SOL    HW2 5613   1.501   3.674   0.261 -0.2286 -0.2869 -1.7369
 1872SOL     OW 5614   1.436   2.913   2.230 -0.2194  0.4963  0.3064
 1872SOL    HW1 5615   1.511   2.919   2.288  0.4858 -0.5459 -0.4747
 1872SOL    HW2 5616   1.470   2.872   2.150 -0.9848  2.5265 -1.1532
 1873SOL     OW 5617   3.898   1.773   2.280 -0.2111 -0.0830  0.0035
 1873SOL    HW1 5618   3.857   1.740   2.200 -0.1770 -1.2905  0.4733
 1873SOL    HW2 5619   3.959   1.704   2.306 -1.8050 -0.7341  2.2756
 1874SOL     OW 5620   2.441   2.226   0.154 -0.3507 -0.2555 -0.1638
 1874SOL    HW1 5621   2.368   2.165   0.145  0.2924 -0.7481 -2.8639
 1874SOL    HW2 5622   2.502   2.182   0.214 -1.4507 -0.6176  0.7269
 1875SOL     OW 5623   2.379   1.055   1.723 -0.0584  0.5496  0.0509
 1875SOL    HW1 5624   2.337   1.121   1.668  0.4527 -0.0767 -1.1147
 1875SOL    HW2 5625   2.436   1.105   1.781  0.6984  1.1117 -1.1450
 1876SOL     OW 5626   2.802   0.563   3.127  0.1667  0.4362  0.3527
 1876SOL    HW1 5627   2.743   0.638   3.124 -1.9205 -1.0669  1.2839
 1876SOL    HW2 5628   2.799   0.526   3.039 -1.3151 -0.3315  0.6978
 1877SOL     OW 5629   0.607   0.091   3.985 -0.5405  0.0024  0.4699
 1877SOL    HW1 5630   0.524   0.044   4.000 -0.8048  0.6375  1.0718
 1877SOL    HW2 5631   0.638   0.059   3.901 -1.7667  0.2634 -0.1080
 1878SOL     OW 5632   3.315   1.643   2.508  0.3411 -0.5557  0.1460
 1878SOL    HW1 5633   3.241   1.652   2.448 -0.4902  0.7114  1.2998
 1878SOL    HW2 5634   3.376   1.712   2.482  0.5228 -0.7475  0.0509
 1879SOL     OW 5635   0.515   3.168   0.383 -0.6145  0.3035  0.2123
 1879SOL    HW1 5636   0.604   3.197   0.361 -0.5158 -0.7327 -0.8816
 1879SOL    HW2 5637   0.527   3.113   0.461 -0.2961  0.2106  0.1027
 1880SOL     OW 5638   0.216   2.699   1.980  0.0710 -0.2197 -0.6360
 1880SOL    HW1 5639   0.283   2.658   1.926  0.3598  0.9284 -1.1960
 1880SOL    HW2 5640   0.252   2.785   2.001 -0.1192 -0.5594  1.2505
 1881SOL     OW 5641   2.166   0.771   0.161  0.6332  0.1094  0.2755
 1881SOL    HW1 5642   2.150   0.865   0.170  1.5392  0.6279 -2.4404
 1881SOL    HW2 5643   2.261   0.762   0.167  0.6490 -0.4431 -0.5729
 1882SOL     OW 5644   2.904   0.554   2.396 -0.6596 -0.7595  0.3321
 1882SOL    HW1 5645   2.865   0.481   2.445 -1.6668 -0.5222 -0.0872
 1882SOL    HW2 5646   2.874   0.632   2.443 -0.8232 -0.5635 -0.1002
 1883SOL     OW 5647   3.429   3.450   0.731  0.4211 -0.5977 -0.3950
 1883SOL    HW1 5648   3.335   3.438   0.719  0.2071  0.0039  0.5630
 1883SOL    HW2 5649   3.456   3.507   0.659 -0.4820  1.5079  0.8485
 1884SOL     OW 5650   1.993   1.144   3.752 -0.2995  0.1180  0.1825
 1884SOL    HW1 5651   2.023   1.057   3.776 -0.8432 -0.4356 -1.0361
 1884SOL    HW2 5652   2.029   1.159   3.664 -1.1098  0.6531 -0.0769
 1885SOL     OW 5653   3.193   0.842   1.162 -0.8292  0.3795 -0.2544
 1885SOL    HW1 5654   3.198   0.894   1.082 -1.1967  3.1225  1.3945
 1885SOL    HW2 5655   3.129   0.774   1.142  0.9431 -0.6427 -3.0719
 1886SOL     OW 5656   0.483   2.743   1.338 -0.1643  0.0225 -0.1301
 1886SOL    HW1 5657   0.526   2.658   1.332 -2.6931 -1.3013 -0.9123
 1886SOL    HW2 5658   0.446   2.758   1.251 -0.9092  1.2768  0.3698
 1887SOL     OW 5659   1.648   2.793   2.898 -0.0280  0.6324  0.4658
 1887SOL    HW1 5660   1.680   2.794   2.988 -0.9169  1.5463  0.7974
 1887SOL    HW2 5661   1.724   2.768   2.846  0.2104 -1.0704  1.5560
 1888SOL     OW 5662   1.870   0.933   0.939  0.0331  0.0392 -0.5932
 1888SOL    HW1 5663   1.802   0.952   1.004 -0.5072  0.6373 -1.3243
 1888SOL    HW2 5664   1.824   0.892   0.867  0.4826  0.2476 -1.0038
 1889SOL     OW 5665   2.233   3.807   3.846  0.2455 -0.3605  0.5046
 1889SOL    HW1 5666   2.205   3.871   3.910 -0.8604  0.9334 -1.1850
 1889SOL    HW2 5667   2.304   3.850   3.798 -0.3835 -0.4347 -0.5233
 1890SOL     OW 5668   2.820   2.805   1.315 -0.1414 -0.2903 -0.0694
 1890SOL    HW1 5669   2.773   2.725   1.290  0.3467  0.1401 -2.7019
 1890SOL    HW2 5670   2.796   2.869   1.247  1.1074  1.1491  0.7855
 1891SOL     OW 5671   3.270   0.797   1.839  1.1562 -0.0115  0.8769
 1891SOL    HW1 5672   3.221   0.725   1.877 -0.4456  0.1704 -0.7295
 1891SOL    HW2 5673   3.348   0.804   1.894  0.6880 -2.0407  1.8987
 1892SOL     OW 5674   3.368   0.108   2.415 -0.3543 -0.5114  0.1834
 1892SOL    HW1 5675   3.417   0.163   2.476  0.5743 -1.6665  0.5150
 1892SOL    HW2 5676   3.281   0.100   2.455 -1.0242  1.9296 -0.6420
 1893SOL     OW 5677   2.942   1.415   2.894 -0.0948  0.2300 -0.1975
 1893SOL    HW1 5678   2.971   1.496   2.937 -0.5595  0.9570 -1.2060
 1893SOL    HW2 5679   3.009   1.351   2.917 -0.1022  0.6888  1.2325
 1894SOL     OW 5680   2.255   0.584   3.804  0.6471 -0.2321 -0.3518
 1894SOL    HW1 5681   2.184   0.545   3.856 -1.1712  0.8040 -1.9454
 1894SOL    HW2 5682   2.287   0.513   3.749  0.8510 -0.6975  0.3553
 1895SOL     OW 5683   3.631   0.665   0.918  0.1471  0.2853  0.6864
 1895SOL    HW1 5684   3.624   0.600   0.988 -0.5442 -0.1345  0.2403
 1895SOL    HW2 5685   3.579   0.629   0.847  1.6456  0.2118 -0.4328
 1896SOL     OW 5686   0.321   0.336   3.304 -0.0083  0.0788 -0.3994
 1896SOL    HW1 5687   0.332   0.313   3.211  0.5048  1.7366 -0.7713
 1896SOL    HW2 5688   0.308   0.252   3.347 -0.3506 -0.7293 -1.9866
 1897SOL     OW 5689   3.797   0.446   1.528 -0.2763  0.3100  0.2437
 1897SOL    HW1 5690   3.817   0.377   1.591 -0.9562  1.7045  2.0747
 1897SOL    HW2 5691   3.863   0.513   1.544 -0.2689  0.5592 -0.7591
 1898SOL     OW 5692   0.811   1.656   0.956 -0.1505 -0.1228 -0.2294
 1898SOL    HW1 5693   0.865   1.578   0.941 -1.5082 -0.6954 -2.6845
 1898SOL    HW2 5694   0.743   1.627   1.016 -1.0076 -1.0845 -1.5976
 1899SOL     OW 5695   1.625   1.008   2.378  0.0822 -0.4806 -0.1628
 1899SOL    HW1 5696   1.533   1.026   2.359  0.2325  1.6665  0.9082
 1899SOL    HW2 5697   1.632   1.014   2.473  1.7218  1.7453 -0.3444
 1900SOL     OW 5698   1.649   1.177   0.919 -0.0374 -0.1563  0.3466
 1900SOL    HW1 5699   1.624   1.095   0.961  1.4851 -0.5264  0.5893
 1900SOL    HW2 5700   1.590   1.185   0.844  0.6983 -2.2087 -0.5076
 1901SOL     OW 5701   0.765   0.864   2.134  0.2580  0.8897 -0.0953
 1901SOL    HW1 5702   0.729   0.898   2.216 -1.4794 -4.9948  2.1463
 1901SOL    HW2 5703   0.859   0.859   2.148  0.0969  1.0234  1.1169
 1902SOL     OW 5704   2.139   0.500   1.840 -0.2144 -0.0961  0.0196
 1902SOL    HW1 5705   2.199   0.440   1.884 -1.3090 -1.0659  0.2348
 1902SOL    HW2 5706   2.058   0.495   1.891 -1.1760 -0.4523 -1.4549
 1903SOL     OW 5707   3.449   0.404   2.855 -0.1487 -0.3359 -0.0549
 1903SOL    HW1 5708   3.445   0.325   2.801 -1.4439  0.1438 -0.7178
 1903SOL    HW2 5709   3.456   0.476   2.791 -0.1875  0.1482  0.4793
 1904SOL     OW 5710   0.789   3.249   0.491  0.5615  0.1099 -0.0883
 1904SOL    HW1 5711   0.803   3.199   0.572 -0.5494  1.6357  1.1185
 1904SOL    HW2 5712   0.731   3.321   0.517  1.2903  1.4586 -1.9616
 1905SOL     OW 5713   1.370   3.759   1.661 -0.4579  0.3572 -0.2319
 1905SOL    HW1 5714   1.355   3.672   1.624  1.2965 -0.6480  1.2410
 1905SOL    HW2 5715   1.454   3.787   1.624 -1.1306  1.5750 -0.8976
 1906SOL     OW 5716   0.801   0.820   3.374  0.1861 -0.0787 -0.1690
 1906SOL    HW1 5717   0.742   0.832   3.449 -0.6463  1.1414 -0.9898
 1906SOL    HW2 5718   0.874   0.768   3.409 -0.6541 -0.3555  1.2383
 1907SOL     OW 5719   1.512   2.142   3.643 -0.3369  0.9459 -0.0855
 1907SOL    HW1 5720   1.520   2.229   3.682  1.7846  0.8411 -0.1664
 1907SOL    HW2 5721   1.601   2.119   3.617 -0.9837 -0.9026 -0.8470
 1908SOL     OW 5722   0.428   3.693   0.802  0.1900  0.2162 -0.2753
 1908SOL    HW1 5723   0.405   3.600   0.799 -0.7563  0.3049  1.9064
 1908SOL    HW2 5724   0.347   3.737   0.828  1.0135  1.4361  0.3442
 1909SOL     OW 5725   2.224   2.171   2.594  0.5222 -0.3119  0.0782
 1909SOL    HW1 5726   2.273   2.089   2.598 -0.0733 -0.6507  0.8198
 1909SOL    HW2 5727   2.290   2.239   2.609  1.0149 -0.6536 -0.5025
 1910SOL     OW 5728   0.872   1.356   1.319  0.7962 -0.0176  0.1941
 1910SOL    HW1 5729   0.839   1.319   1.236  0.0922 -2.3232  1.4148
 1910SOL    HW2 5730   0.966   1.339   1.317  0.5575 -1.5563  0.5070
 1911SOL     OW 5731   1.544   0.387   3.104  0.1081  0.1595 -0.2740
 1911SOL    HW1 5732   1.584   0.314   3.151 -0.6249 -1.9481 -2.6646
 1911SOL    HW2 5733   1.450   0.372   3.113 -0.0577  0.7728 -0.9063
 1912SOL     OW 5734   1.811   1.955   0.831 -0.8381 -0.3219 -0.1185
 1912SOL    HW1 5735   1.903   1.954   0.802 -1.3947 -0.8039 -2.0205
 1912SOL    HW2 5736   1.761   1.950   0.750 -2.5677  0.1163  0.8814
 1913SOL     OW 5737   2.177   0.087   3.811  0.4488 -0.0232 -0.4651
 1913SOL    HW1 5738   2.087   0.104   3.785 -0.0569 -2.5554 -0.6719
 1913SOL    HW2 5739   2.230   0.111   3.735 -0.0721  1.0216 -0.5119
 1914SOL     OW 5740   0.689   3.926   3.085 -0.6010  0.0066 -0.6458
 1914SOL    HW1 5741   0.594   3.926   3.097 -0.5623 -1.6280 -0.0341
 1914SOL    HW2 5742   0.720   3.994   3.145 -1.1885 -1.5630  1.5966
 1915SOL     OW 5743   2.026   3.783   1.869 -0.1289 -0.4685 -0.5986
 1915SOL    HW1 5744   1.976   3.751   1.944 -0.3292  0.3893 -0.3578
 1915SOL    HW2 5745   1.960   3.808   1.804 -0.0089  0.2258 -0.4620
 1916SOL     OW 5746   3.811   1.715   1.074  0.2533 -0.4286  0.3001
 1916SOL    HW1 5747   3.857   1.667   1.143  0.9339  0.4702  0.4906
 1916SOL    HW2 5748   3.745   1.767   1.121  0.4373 -0.1389  0.2449
 1917SOL     OW 5749   2.360   0.411   3.615  0.0499 -0.0259  0.3024
 1917SOL    HW1 5750   2.392   0.481   3.558 -2.0710  0.7851  0.0245
 1917SOL    HW2 5751   2.439   0.371   3.651  1.3847  0.8096 -1.5572
 1918SOL     OW 5752   2.229   3.952   0.271 -0.0284 -0.0327  0.1769
 1918SOL    HW1 5753   2.317   3.984   0.254 -1.3989  4.2198 -0.0537
 1918SOL    HW2 5754   2.223   3.950   0.367  0.4589 -0.9222  0.1980
 1919SOL     OW 5755   0.667   2.407   2.996  0.4656  0.1194  0.6755
 1919SOL    HW1 5756   0.662   2.314   3.018  0.8138 -0.7561 -2.4773
 1919SOL    HW2 5757   0.580   2.429   2.964  0.5380  0.7437  0.8952
 1920SOL     OW 5758   2.336   2.072   3.326 -0.5709  0.2853 -0.0463
 1920SOL    HW1 5759   2.414   2.030   3.289 -1.6281 -1.0883 -0.8084
 1920SOL    HW2 5760   2.295   2.115   3.251 -1.1158  0.0799  0.1320
 1921SOL     OW 5761   1.402   1.635   1.575 -0.4748 -0.5048 -0.0672
 1921SOL    HW1 5762   1.473   1.669   1.630 -0.8997 -0.7543  0.6472
 1921SOL    HW2 5763   1.405   1.540   1.589 -0.1121 -0.6498 -1.0596
 1922SOL     OW 5764   1.370   2.542   3.585 -0.0088  0.2524 -0.1988
 1922SOL    HW1 5765   1.405   2.464   3.543  1.0704  0.0178  1.0807
 1922SOL    HW2 5766   1.283   2.516   3.616 -0.5528  0.2380 -1.6520
 1923SOL     OW 5767   3.693   1.850   1.472 -0.4455  0.1008 -0.2202
 1923SOL    HW1 5768   3.703   1.935   1.516 -0.6132 -1.2336  2.6148
 1923SOL    HW2 5769   3.628   1.866   1.404 -1.8955  1.8668  1.4656
 1924SOL     OW 5770   2.840   2.460   1.366 -0.4603  0.0336  0.1151
 1924SOL    HW1 5771   2.905   2.433   1.431  0.5036  0.2365 -0.7528
 1924SOL    HW2 5772   2.787   2.526   1.411  0.6538  0.7039  0.4630
 1925SOL     OW 5773   1.565   3.396   3.780 -0.4012 -0.4145  0.3823
 1925SOL    HW1 5774   1.550   3.408   3.873 -2.3506  1.2961 -0.0662
 1925SOL    HW2 5775   1.648   3.440   3.763 -0.9511  0.9475  1.0560
 1926SOL     OW 5776   0.981   1.181   3.062  0.0063 -0.0465 -0.2216
 1926SOL    HW1 5777   0.982   1.218   3.150 -0.6907 -0.6337  0.0431
 1926SOL    HW2 5778   1.073   1.175   3.038  0.3358 -1.4899  1.1754
 1927SOL     OW 5779   2.984   3.915   1.835  0.3413  0.3591  0.6038
 1927SOL    HW1 5780   2.993   3.830   1.793  0.8120  0.6172  0.1779
 1927SOL    HW2 5781   3.066   3.929   1.881  0.4795  0.8174  0.2310
 1928SOL     OW 5782   0.274   0.116   1.914  0.3778  0.0592 -0.5892
 1928SOL    HW1 5783   0.266   0.031   1.957  0.5005  0.2326 -0.2200
 1928SOL    HW2 5784   0.368   0.130   1.905  0.3462 -0.1056 -1.1747
 1929SOL     OW 5785   2.595   1.837   1.842 -0.6284  0.5217  0.5074
 1929SOL    HW1 5786   2.667   1.880   1.888 -1.5288  1.9081  0.7008
 1929SOL    HW2 5787   2.636   1.765   1.794  1.4314  2.9561 -1.7164
 1930SOL     OW 5788   0.795   3.920   1.262  0.5540  0.4092  0.1870
 1930SOL    HW1 5789   0.824   3.969   1.340 -0.3344  0.5701  0.4300
 1930SOL    HW2 5790   0.708   3.955   1.243 -0.0237 -0.9264  0.2383
 1931SOL     OW 5791   3.073   0.224   2.974 -0.4647  0.2955 -0.0977
 1931SOL    HW1 5792   3.006   0.167   3.012 -1.7221  1.1570 -0.9363
 1931SOL    HW2 5793   3.137   0.235   3.044 -0.8973 -1.0147  0.5375
 1932SOL     OW 5794   3.096   0.485   0.786 -0.3999 -0.5786  0.4844
 1932SOL    HW1 5795   3.060   0.460   0.701  0.0642 -1.9500  0.6713
 1932SOL    HW2 5796   3.022   0.479   0.847 -0.9170  1.1534  0.0708
 1933SOL     OW 5797   3.149   3.920   2.094 -0.1381  0.2436  0.1251
 1933SOL    HW1 5798   3.236   3.960   2.103 -0.1790  0.0983  1.4494
 1933SOL    HW2 5799   3.109   3.931   2.180 -0.4948 -1.8466  0.2863
 1934SOL     OW 5800   0.455   3.182   1.932 -0.4608 -1.0533 -0.5870
 1934SOL    HW1 5801   0.404   3.230   1.867 -0.1889  0.1968  0.1072
 1934SOL    HW2 5802   0.421   3.210   2.016  1.4110 -0.1040 -0.0957
 1935SOL     OW 5803   3.809   1.477   2.466 -0.3849  0.2972  0.4292
 1935SOL    HW1 5804   3.745   1.477   2.394 -0.1457 -2.1375  0.1450
 1935SOL    HW2 5805   3.761   1.441   2.541  0.3314 -0.4818  0.5248
 1936SOL     OW 5806   1.539   0.121   2.049  0.0586 -0.3502  0.0613
 1936SOL    HW1 5807   1.583   0.088   2.126  1.0669  0.9216  0.0799
 1936SOL    HW2 5808   1.487   0.195   2.081  1.2429  0.8083 -0.5636
 1937SOL     OW 5809   0.071   0.893   2.582  0.1738  0.3691  0.0251
 1937SOL    HW1 5810   0.148   0.839   2.564  0.0584  0.5925 -1.2500
 1937SOL    HW2 5811   0.102   0.958   2.645  0.5451 -0.6287  0.9057
 1938SOL     OW 5812   2.174   3.617   0.581 -0.1674  0.2791  0.2214
 1938SOL    HW1 5813   2.169   3.541   0.523 -1.9228  0.8215 -0.4161
 1938SOL    HW2 5814   2.242   3.594   0.644 -1.3211 -2.2792  0.6817
 1939SOL     OW 5815   2.946   1.089   3.837  0.9036  0.3863 -0.4190
 1939SOL    HW1 5816   2.946   1.015   3.776  0.4365  0.5971 -0.6768
 1939SOL    HW2 5817   3.032   1.084   3.880  0.6511 -0.6591 -0.0038
 1940SOL     OW 5818   3.329   3.278   1.973  0.1698  0.1863 -0.6241
 1940SOL    HW1 5819   3.274   3.247   1.901  1.9382 -1.2938 -1.4363
 1940SOL    HW2 5820   3.351   3.368   1.949 -1.6322  0.7344 -0.3932
 1941SOL     OW 5821   2.288   2.452   1.740  0.1316 -0.4338 -0.5721
 1941SOL    HW1 5822   2.223   2.446   1.671 -0.2075  1.1413 -0.4338
 1941SOL    HW2 5823   2.321   2.542   1.734  0.6390 -0.5009  0.8166
 1942SOL     OW 5824   3.685   0.848   2.193 -0.2442  0.0548  0.4266
 1942SOL    HW1 5825   3.716   0.778   2.136 -2.2847 -1.1735  0.7455
 1942SOL    HW2 5826   3.741   0.842   2.270  1.3249  0.5342 -0.6269
 1943SOL     OW 5827   2.345   0.362   1.969 -0.4176 -0.1199  1.6805
 1943SOL    HW1 5828   2.355   0.269   1.950 -0.2388 -0.1949  2.1139
 1943SOL    HW2 5829   2.425   0.403   1.936  0.0630 -0.3030  2.5830
 1944SOL     OW 5830   1.949   1.245   2.624  0.7063  0.3092 -0.0803
 1944SOL    HW1 5831   1.868   1.282   2.659 -0.8892 -2.6261 -0.3496
 1944SOL    HW2 5832   1.947   1.267   2.531  0.7033  1.0239  0.0812
 1945SOL     OW 5833   3.459   2.921   0.070 -0.6380 -0.8682 -0.3188
 1945SOL    HW1 5834   3.538   2.903   0.019 -0.5106  0.4019 -0.6250
 1945SOL    HW2 5835   3.440   2.840   0.116 -0.2184 -1.7587 -1.6759
 1946SOL     OW 5836   0.634   1.821   3.016 -0.4483 -0.0558 -0.1419
 1946SOL    HW1 5837   0.602   1.796   2.929 -0.4706 -2.7873  0.5595
 1946SOL    HW2 5838   0.561   1.800   3.075  0.2820 -0.1031  0.7597
 1947SOL     OW 5839   0.698   0.449   3.755  0.3513 -0.1480  0.3699
 1947SOL    HW1 5840   0.603   0.450   3.765  0.4483 -1.4168  1.7682
 1947SOL    HW2 5841   0.729   0.395   3.828  2.3214  1.9396  1.1861
 1948SOL     OW 5842   2.481   2.870   1.311 -0.0728  0.0416 -0.4901
 1948SOL    HW1 5843   2.452   2.959   1.288 -2.0771 -1.0306 -2.6165
 1948SOL    HW2 5844   2.486   2.825   1.227  2.7077 -1.4454  0.3423
 1949SOL     OW 5845   2.720   0.894   1.678  0.5268 -0.6174 -0.2543
 1949SOL    HW1 5846   2.767   0.975   1.698 -1.1520  0.6466 -1.2126
 1949SOL    HW2 5847   2.660   0.883   1.752 -0.4493 -0.0150 -0.9340
 1950SOL     OW 5848   1.960   2.540   1.839 -0.0939 -0.3795 -0.4914
 1950SOL    HW1 5849   2.002   2.563   1.756  0.3200  0.4883 -0.0568
 1950SOL    HW2 5850   1.867   2.559   1.825  0.2039  1.4138 -0.2262
 1951SOL     OW 5851   1.806   0.708   0.540  0.2842  0.4807  0.0080
 1951SOL    HW1 5852   1.895   0.696   0.508  0.1429  0.9779 -0.5860
 1951SOL    HW2 5853   1.777   0.619   0.564  0.7187  0.2344 -0.3695
 1952SOL     OW 5854   2.086   3.950   1.517 -0.3918  0.3124  0.1160
 1952SOL    HW1 5855   2.093   4.024   1.578 -1.3093 -0.1279  0.7923
 1952SOL    HW2 5856   2.150   3.969   1.449  1.4556  0.2926  1.7587
 1953SOL     OW 5857   2.654   1.083   2.524 -0.1686  0.0418  0.6639
 1953SOL    HW1 5858   2.747   1.088   2.547 -0.1949  1.2642  0.5674
 1953SOL    HW2 5859   2.654   1.047   2.435  0.0108 -3.0866  1.8172
 1954SOL     OW 5860   3.812   0.157   2.871 -0.1217 -0.1973 -0.1630
 1954SOL    HW1 5861   3.795   0.064   2.886 -0.0461 -0.3154 -0.7789
 1954SOL    HW2 5862   3.774   0.201   2.948 -1.7564 -0.5818 -0.7063
 1955SOL     OW 5863   2.282   0.127   3.494 -0.1632  0.4272  0.4901
 1955SOL    HW1 5864   2.255   0.159   3.408 -0.8283 -0.1997  0.4568
 1955SOL    HW2 5865   2.290   0.207   3.547 -0.1697  0.7814 -0.0327
 1956SOL     OW 5866   2.892   2.193   1.162 -0.2872 -0.3525 -0.2927
 1956SOL    HW1 5867   2.891   2.098   1.155 -1.9824 -0.3193 -1.0187
 1956SOL    HW2 5868   2.837   2.213   1.238  0.8057  0.0378  0.4202
 1957SOL     OW 5869   3.324   0.856   0.148 -0.0434  0.7335  0.4750
 1957SOL    HW1 5870   3.419   0.862   0.133  0.3401  0.3433  2.4367
 1957SOL    HW2 5871   3.295   0.947   0.155 -0.5103  1.0575 -3.4087
 1958SOL     OW 5872   3.672   0.120   3.140  0.0096  0.2020 -0.3672
 1958SOL    HW1 5873   3.693   0.122   3.233  1.0198 -0.5451 -0.5607
 1958SOL    HW2 5874   3.707   0.036   3.109 -1.9209 -0.4024 -1.0615
 1959SOL     OW 5875   1.182   0.542   2.819  0.1186  0.8278 -0.1491
 1959SOL    HW1 5876   1.257   0.505   2.772  0.7134  0.2551  1.1852
 1959SOL    HW2 5877   1.221   0.582   2.897 -1.0115 -0.0728  0.9138
 1960SOL     OW 5878   1.338   0.465   0.682 -0.2116  0.1970  0.3105
 1960SOL    HW1 5879   1.340   0.378   0.641  0.6229  0.0398  0.6626
 1960SOL    HW2 5880   1.247   0.493   0.675 -0.0918  0.2072 -1.7190
 1961SOL     OW 5881   3.194   1.170   3.472  0.2062 -0.9180  0.1657
 1961SOL    HW1 5882   3.210   1.148   3.564 -0.2923  0.2332  0.5522
 1961SOL    HW2 5883   3.178   1.265   3.473  2.1562 -0.5155 -1.3620
 1962SOL     OW 5884   2.496   0.566   0.596  0.4538 -0.0785 -0.1352
 1962SOL    HW1 5885   2.441   0.548   0.672  2.6226 -1.9349  1.1203
 1962SOL    HW2 5886   2.544   0.645   0.620  0.8126 -0.4083  0.2324
 1963SOL     OW 5887   1.703   1.053   3.845  0.5356  0.3943  0.4043
 1963SOL    HW1 5888   1.789   1.077   3.809  0.7425 -0.3797  0.3790
 1963SOL    HW2 5889   1.718   1.046   3.939  0.7051 -0.6045  0.3054
 1964SOL     OW 5890   2.172   3.058   1.724 -0.1223  0.1186  0.1844
 1964SOL    HW1 5891   2.154   2.968   1.750  0.5583  0.6860  2.9580
 1964SOL    HW2 5892   2.256   3.054   1.680 -0.6674 -0.7226 -0.8356
 1965SOL     OW 5893   0.873   3.394   3.591 -0.7681  0.3761 -0.5802
 1965SOL    HW1 5894   0.792   3.364   3.550 -1.0186 -0.5626  0.5536
 1965SOL    HW2 5895   0.942   3.363   3.533 -1.0831 -1.5048 -0.0155
 1966SOL     OW 5896   0.924   0.393   2.510 -0.7520 -0.6515  0.0296
 1966SOL    HW1 5897   0.889   0.427   2.593  2.7285  1.9729  0.6565
 1966SOL    HW2 5898   0.892   0.454   2.444 -2.4333 -1.9885 -0.4756
 1967SOL     OW 5899   3.284   3.563   2.260  0.0096  0.4987 -0.3390
 1967SOL    HW1 5900   3.348   3.513   2.210 -1.6467 -2.6419  0.3592
 1967SOL    HW2 5901   3.233   3.611   2.195 -0.5150 -1.5362 -1.5067
 1968SOL     OW 5902   2.371   1.606   1.459 -0.3948  0.1002  0.0947
 1968SOL    HW1 5903   2.321   1.628   1.381  0.9196  0.8315 -0.5889
 1968SOL    HW2 5904   2.462   1.622   1.434 -0.0041  1.6310  2.1701
 1969SOL     OW 5905   3.493   3.815   1.495  0.1689  0.9808  0.7494
 1969SOL    HW1 5906   3.577   3.823   1.539  1.0085  1.9266 -0.9237
 1969SOL    HW2 5907   3.483   3.896   1.446  0.0771 -0.6143 -2.0656
 1970SOL     OW 5908   3.800   0.968   0.539  0.1672 -0.3581 -0.3187
 1970SOL    HW1 5909   3.816   0.888   0.590  0.2566 -0.2886 -0.2353
 1970SOL    HW2 5910   3.884   0.986   0.497  0.0275 -0.5423 -0.6715
 1971SOL     OW 5911   2.307   0.029   1.365  0.2533  0.7042  0.2383
 1971SOL    HW1 5912   2.364  -0.010   1.432  0.7442  1.2254  0.1307
 1971SOL    HW2 5913   2.321   0.123   1.374  1.6121  0.7288 -1.7280
 1972SOL     OW 5914   2.116   3.068   3.530 -0.0830  0.0084  0.3479
 1972SOL    HW1 5915   2.155   2.987   3.563  0.2484 -0.9753 -2.2744
 1972SOL    HW2 5916   2.044   3.039   3.474  0.1302  1.5236 -0.7492
 1973SOL     OW 5917   3.885   2.004   0.984 -0.1985  0.2173  0.0116
 1973SOL    HW1 5918   3.859   2.026   0.894  1.7521  0.3570 -0.5464
 1973SOL    HW2 5919   3.856   1.913   0.995 -0.1385  0.0781 -0.8763
 1974SOL     OW 5920   2.573   3.607   2.870 -0.1586  0.1457 -0.2242
 1974SOL    HW1 5921   2.525   3.676   2.917  1.0778  0.2858  0.8973
 1974SOL    HW2 5922   2.604   3.651   2.790 -1.5548  0.1455 -0.7956
 1975SOL     OW 5923   2.851   3.131   2.621 -0.5793 -0.0571  0.2447
 1975SOL    HW1 5924   2.903   3.113   2.543  1.1116  1.6026  0.9288
 1975SOL    HW2 5925   2.788   3.198   2.594 -2.1275 -1.7140 -0.4515
 1976SOL     OW 5926   0.863   2.425   1.529  0.1875  0.5219 -0.4781
 1976SOL    HW1 5927   0.895   2.367   1.599 -1.3583 -0.2586 -0.3646
 1976SOL    HW2 5928   0.781   2.461   1.564 -0.6665  0.0507 -1.8894
 1977SOL     OW 5929   1.434   3.605   0.562 -0.9307 -0.1457 -0.0284
 1977SOL    HW1 5930   1.523   3.589   0.530 -0.3962 -1.9867  2.1408
 1977SOL    HW2 5931   1.379   3.547   0.509 -0.4877 -0.8038  0.2161
 1978SOL     OW 5932   0.908   2.390   3.286  0.2206 -0.1084  0.5436
 1978SOL    HW1 5933   0.941   2.479   3.297 -0.2777  0.1616 -0.1094
 1978SOL    HW2 5934   0.984   2.334   3.299  0.0772  0.2266  3.7287
 1979SOL     OW 5935   0.164   2.694   1.172 -0.1943 -0.3670 -0.0875
 1979SOL    HW1 5936   0.171   2.647   1.255  1.8525  2.3222  1.4532
 1979SOL    HW2 5937   0.071   2.713   1.162 -0.5828 -1.5224  1.1146
 1980SOL     OW 5938   3.319   2.027   1.162  0.5437  0.5311  0.1497
 1980SOL    HW1 5939   3.255   2.089   1.197  0.9561  1.1198 -0.1213
 1980SOL    HW2 5940   3.276   1.942   1.167 -0.1123  0.8716  0.3255
 1981SOL     OW 5941   2.864   2.534   2.300  0.4192 -0.4375  0.1332
 1981SOL    HW1 5942   2.837   2.594   2.370 -0.8575  1.1686 -1.6424
 1981SOL    HW2 5943   2.917   2.468   2.344 -1.2954 -0.1724  2.8286
 1982SOL     OW 5944   2.241   3.129   2.731 -0.8615  0.4662  0.3175
 1982SOL    HW1 5945   2.235   3.144   2.637 -1.6057 -1.5143 -0.0043
 1982SOL    HW2 5946   2.174   3.062   2.749 -0.1270  0.1445  2.0954
 1983SOL     OW 5947   0.822   2.914   3.629 -0.0079 -0.1027 -0.0359
 1983SOL    HW1 5948   0.851   2.840   3.683  1.0035  1.0630  1.0861
 1983SOL    HW2 5949   0.728   2.900   3.617  0.0984 -1.3814  0.4512
 1984SOL     OW 5950   0.616   4.013   1.675 -0.3019  0.2858 -0.0518
 1984SOL    HW1 5951   0.664   3.938   1.710 -0.3659 -0.3104 -1.2158
 1984SOL    HW2 5952   0.524   3.991   1.690 -0.2761  1.2948  1.9070
 1985SOL     OW 5953   1.064   3.690   0.635  0.7252 -0.0947 -0.0839
 1985SOL    HW1 5954   0.984   3.670   0.586  1.6795  0.3269 -1.9040
 1985SOL    HW2 5955   1.134   3.657   0.580  1.8533  0.1718  1.1503
 1986SOL     OW 5956   1.126   0.649   1.464 -0.0308 -0.0617 -1.2722
 1986SOL    HW1 5957   1.100   0.709   1.533  0.3944 -0.5476 -0.6717
 1986SOL    HW2 5958   1.050   0.592   1.451 -0.1052  0.0194 -1.1924
 1987SOL     OW 5959   0.616   2.468   1.707  0.4873  0.6752  0.2266
 1987SOL    HW1 5960   0.568   2.550   1.701 -3.4170 -1.2349  1.8579
 1987SOL    HW2 5961   0.676   2.480   1.780 -0.3323  1.9453  0.7245
 1988SOL     OW 5962   0.041   2.075   2.754 -0.2639  0.3005  0.1225
 1988SOL    HW1 5963   0.057   1.985   2.783 -1.3224 -0.1021 -0.4790
 1988SOL    HW2 5964   0.064   2.075   2.662 -0.2228  0.6588  0.1310
 1989SOL     OW 5965   0.234   0.844   0.482  0.6683 -0.4586  0.0496
 1989SOL    HW1 5966   0.155   0.793   0.499 -2.4829  3.3025 -1.7098
 1989SOL    HW2 5967   0.243   0.901   0.558  2.6606 -1.7237  0.8564
 1990SOL     OW 5968   2.153   1.264   3.036 -0.3625 -0.1762  0.5788
 1990SOL    HW1 5969   2.176   1.343   3.085 -0.0989  0.1284 -0.0225
 1990SOL    HW2 5970   2.175   1.285   2.946 -0.8261 -0.7392  0.3310
 1991SOL     OW 5971   3.636   1.403   0.660  0.1305  0.0522 -0.3585
 1991SOL    HW1 5972   3.636   1.340   0.732  0.3462 -0.8674 -1.1409
 1991SOL    HW2 5973   3.584   1.476   0.692 -1.8273 -1.3651 -0.1507
 1992SOL     OW 5974   3.391   3.651   2.496  0.5397 -0.2321  0.5320
 1992SOL    HW1 5975   3.358   3.616   2.413 -0.3609  1.4276  0.1492
 1992SOL    HW2 5976   3.378   3.746   2.489  3.6871  0.3713  1.1569
 1993SOL     OW 5977   3.034   2.254   2.592  0.5472  0.0200 -0.3394
 1993SOL    HW1 5978   3.104   2.195   2.619 -1.1874 -1.6484  0.7402
 1993SOL    HW2 5979   2.981   2.203   2.531 -0.3028  0.8802 -0.3490
 1994SOL     OW 5980   0.787   2.629   3.131  0.0631  0.4197  0.2558
 1994SOL    HW1 5981   0.766   2.547   3.086 -2.3042  1.9956 -1.7716
 1994SOL    HW2 5982   0.842   2.677   3.070  0.4239  0.8406  0.9043
 1995SOL     OW 5983   3.325   3.404   1.081  0.1757 -0.1841 -0.0081
 1995SOL    HW1 5984   3.292   3.469   1.144 -0.3482  1.1078 -1.5589
 1995SOL    HW2 5985   3.402   3.446   1.043 -1.0879  0.2974 -2.2060
 1996SOL     OW 5986   0.082   2.122   3.161 -0.3363  0.3512 -0.0692
 1996SOL    HW1 5987   0.116   2.184   3.226 -1.8388 -0.6296  1.7522
 1996SOL    HW2 5988   0.087   2.037   3.204 -1.3089 -0.3561 -1.2786
 1997SOL     OW 5989   2.263   0.280   1.516  0.0646 -0.5353 -0.0717
 1997SOL    HW1 5990   2.256   0.342   1.444  0.4664 -0.1133  0.2475
 1997SOL    HW2 5991   2.175   0.280   1.556  0.4317  0.9149  0.7990
 1998SOL     OW 5992   0.370   2.079   1.903 -0.1559  0.0116 -0.3098
 1998SOL    HW1 5993   0.378   2.158   1.957  3.6152 -0.8834  0.7379
 1998SOL    HW2 5994   0.287   2.040   1.930 -0.4107  1.7951  1.8154
 1999SOL     OW 5995   0.842   2.681   3.820 -0.0011 -1.2050 -0.1310
 1999SOL    HW1 5996   0.836   2.599   3.772  0.1811 -1.3774  0.1424
 1999SOL    HW2 5997   0.832   2.657   3.912  1.7617 -1.1448  0.1041
 2000SOL     OW 5998   2.851   3.735   1.387  0.3834 -0.3181  0.4052
 2000SOL    HW1 5999   2.820   3.779   1.308 -0.3373 -0.1956  0.7454
 2000SOL    HW2 6000   2.935   3.776   1.406 -0.4180  1.2159  0.9121
 2001SOL     OW 6001   1.592   3.951   1.094 -0.5348  0.0470 -0.6605
 2001SOL    HW1 6002   1.643   3.870   1.100  0.7700  0.9446  0.8910
 2001SOL    HW2 6003   1.592   3.972   1.001 -1.1055 -1.8256 -1.1454
 2002SOL     OW 6004   0.768   1.260   0.629 -1.0369 -0.6352  0.2495
 2002SOL    HW1 6005   0.686   1.296   0.596 -1.6916 -1.9215  0.4448
 2002SOL    HW2 6006   0.790   1.189   0.569  2.1330  2.1441 -2.3178
 2003SOL     OW 6007   2.597   1.979   3.254  0.1182 -0.2857 -0.7812
 2003SOL    HW1 6008   2.583   1.978   3.348 -0.0739 -0.2850 -0.8089
 2003SOL    HW2 6009   2.680   1.933   3.241  1.1676  1.4650 -0.4544
 2004SOL     OW 6010   0.808   2.472   1.925 -0.0158  0.1641 -0.4265
 2004SOL    HW1 6011   0.876   2.458   1.859 -0.7322 -0.6311 -1.0228
 2004SOL    HW2 6012   0.851   2.522   1.994  0.9872  0.2559 -1.0977
 2005SOL     OW 6013   0.767   0.797   1.502  0.0773  0.3021  0.9145
 2005SOL    HW1 6014   0.811   0.740   1.439  0.3911  1.0259  0.4671
 2005SOL    HW2 6015   0.798   0.767   1.587 -0.8001 -1.0736  0.7860
 2006SOL     OW 6016   3.962   0.450   3.633 -0.1103  0.5252  0.1570
 2006SOL    HW1 6017   4.022   0.502   3.580 -0.3951  1.1690  0.4487
 2006SOL    HW2 6018   3.886   0.436   3.577 -0.6385  1.6627  0.5519
 2007SOL     OW 6019   2.266   0.210   3.210 -0.7668 -0.3786  0.1104
 2007SOL    HW1 6020   2.341   0.211   3.151  0.3481  0.1126  1.4839
 2007SOL    HW2 6021   2.224   0.295   3.198  0.8459  0.7035  1.6802
 2008SOL     OW 6022   1.287   3.352   2.243 -0.4028 -0.2689 -0.1143
 2008SOL    HW1 6023   1.324   3.420   2.187  0.0497 -0.1295  0.3442
 2008SOL    HW2 6024   1.331   3.271   2.214  1.3125  0.0978  1.3263
 2009SOL     OW 6025   1.303   0.928   0.228  0.2150 -0.0155  0.0657
 2009SOL    HW1 6026   1.331   0.839   0.209  0.1397  0.1102 -0.6897
 2009SOL    HW2 6027   1.374   0.966   0.278  0.5184 -0.3157 -0.1330
 2010SOL     OW 6028   0.828   3.702   2.134  0.1852  0.6461 -0.8054
 2010SOL    HW1 6029   0.818   3.772   2.200  0.5017 -0.2879  0.2659
 2010SOL    HW2 6030   0.748   3.651   2.140 -0.2940  1.2211 -1.9899
 2011SOL     OW 6031   3.455   2.149   1.704 -0.1214  0.1619  0.2452
 2011SOL    HW1 6032   3.478   2.153   1.612 -1.6604 -1.6733 -0.2833
 2011SOL    HW2 6033   3.373   2.099   1.707 -3.3869  4.8211  2.0531
 2012SOL     OW 6034   1.942   1.867   2.523  0.0162 -0.1396 -0.1321
 2012SOL    HW1 6035   1.858   1.909   2.508 -0.2370  0.1995  1.8793
 2012SOL    HW2 6036   1.940   1.842   2.616  1.8668 -0.7223 -0.1967
 2013SOL     OW 6037   2.718   0.055   2.594  0.3955 -0.1359 -0.0498
 2013SOL    HW1 6038   2.722   0.134   2.648  0.1090 -0.6998  0.8116
 2013SOL    HW2 6039   2.778  -0.007   2.636 -1.0344 -1.1508  0.6076
 2014SOL     OW 6040   2.011   2.803   0.824  0.1924 -0.3200  0.3807
 2014SOL    HW1 6041   1.954   2.733   0.794 -1.0962  0.3936  1.0377
 2014SOL    HW2 6042   2.043   2.773   0.910 -1.3800  0.3882  1.2565
 2015SOL     OW 6043   2.065   2.231   2.376  0.2713 -0.1875  0.4135
 2015SOL    HW1 6044   2.126   2.291   2.334  0.0329 -0.2633 -0.0441
 2015SOL    HW2 6045   2.116   2.191   2.447  0.0314  1.5900  1.6628
 2016SOL     OW 6046   1.536   1.262   0.609  0.4890  0.3662  0.1864
 2016SOL    HW1 6047   1.497   1.305   0.685  0.6989  1.9193 -0.5582
 2016SOL    HW2 6048   1.622   1.303   0.601  1.2376 -1.1430  0.2285
 2017SOL     OW 6049   1.688   2.654   3.454 -0.1378 -0.0865  0.4556
 2017SOL    HW1 6050   1.770   2.652   3.504  0.7416  2.2912 -0.7858
 2017SOL    HW2 6051   1.670   2.562   3.435  1.8109 -0.7200  1.4055
 2018SOL     OW 6052   0.169   1.609   2.339  0.0032  0.2152 -0.7763
 2018SOL    HW1 6053   0.151   1.521   2.373 -0.9509  0.6526 -0.0981
 2018SOL    HW2 6054   0.254   1.601   2.295  0.6314 -0.6985  0.5407
 2019SOL     OW 6055   0.625   1.426   3.348 -0.0271 -0.0612  0.2492
 2019SOL    HW1 6056   0.645   1.504   3.295  0.7535 -0.6874 -0.4047
 2019SOL    HW2 6057   0.529   1.425   3.354 -0.0595  0.8086  0.0608
 2020SOL     OW 6058   0.328   1.871   2.283  0.1325 -0.2548  0.3789
 2020SOL    HW1 6059   0.244   1.911   2.262  0.0363 -0.5099  0.2835
 2020SOL    HW2 6060   0.312   1.819   2.361  0.9909  2.5116  2.5679
 2021SOL     OW 6061   0.403   3.389   0.696  0.8686 -0.1174 -0.6073
 2021SOL    HW1 6062   0.308   3.396   0.687  0.8973  0.5619 -0.4462
 2021SOL    HW2 6063   0.417   3.308   0.746  0.2153  1.0613  1.6308
 2022SOL     OW 6064   2.819   3.156   2.090  0.2128 -0.8816 -0.0587
 2022SOL    HW1 6065   2.759   3.203   2.032  0.6433  1.6521  1.3946
 2022SOL    HW2 6066   2.889   3.125   2.033 -1.0219 -1.3611 -1.3491
 2023SOL     OW 6067   0.618   3.329   0.157  0.4128  0.3416  0.0231
 2023SOL    HW1 6068   0.527   3.344   0.184  0.6238  1.5095  0.1132
 2023SOL    HW2 6069   0.633   3.393   0.088  1.0513 -0.1192 -0.2732
 2024SOL     OW 6070   1.624   1.801   0.197  0.4372  0.3540  0.4487
 2024SOL    HW1 6071   1.657   1.766   0.280 -3.1837 -2.3037  1.0079
 2024SOL    HW2 6072   1.557   1.864   0.222 -0.1853  0.0691 -0.4316
 2025SOL     OW 6073   3.609   3.015   3.095 -0.7183  0.4578  0.4015
 2025SOL    HW1 6074   3.601   2.987   3.186 -0.1938  2.9069  1.2888
 2025SOL    HW2 6075   3.699   3.044   3.087 -0.2358 -1.3749 -1.4816
 2026SOL     OW 6076   0.043   0.837   1.458  0.1259 -0.5691  0.0462
 2026SOL    HW1 6077   0.022   0.781   1.533  2.4598 -0.9348  0.5012
 2026SOL    HW2 6078   0.137   0.825   1.445  0.4513  2.1481 -0.7335
 2027SOL     OW 6079   3.590   1.098   3.059  0.4509 -0.6462 -0.0149
 2027SOL    HW1 6080   3.523   1.128   3.121 -0.1443 -1.9167  0.0005
 2027SOL    HW2 6081   3.579   1.155   2.983  0.1600 -0.0542  0.4607
 2028SOL     OW 6082   3.156   1.064   1.321 -0.9288 -0.0474  0.0030
 2028SOL    HW1 6083   3.171   0.979   1.281 -1.3602  0.5065 -1.4181
 2028SOL    HW2 6084   3.173   1.051   1.414  0.9585 -1.2074 -0.4538
 2029SOL     OW 6085   1.570   1.378   2.462 -0.6390 -0.1568 -0.0828
 2029SOL    HW1 6086   1.616   1.310   2.412 -1.2874 -0.8628  0.2509
 2029SOL    HW2 6087   1.620   1.385   2.544 -1.3170 -1.2161  0.4551
 2030SOL     OW 6088   1.196   1.933   1.604  0.1945  0.0698 -0.5675
 2030SOL    HW1 6089   1.188   1.963   1.514  2.1330 -1.1281 -1.2169
 2030SOL    HW2 6090   1.235   2.006   1.651 -0.4698  0.5635 -0.7729
 2031SOL     OW 6091   3.145   3.388   0.649  0.8064  0.0255  0.4505
 2031SOL    HW1 6092   3.187   3.398   0.564  1.5034  0.8803  0.8790
 2031SOL    HW2 6093   3.091   3.309   0.641  0.0773  0.6555 -1.0867
 2032SOL     OW 6094   1.918   0.323   3.364  0.0672 -0.1878 -0.2078
 2032SOL    HW1 6095   1.935   0.251   3.303  1.1974  0.8706 -1.2118
 2032SOL    HW2 6096   1.823   0.334   3.362  0.0962  0.2479 -2.3622
 2033SOL     OW 6097   1.134   2.915   0.182 -0.2385 -0.3060  0.1878
 2033SOL    HW1 6098   1.097   2.906   0.094 -1.4459  0.3924  0.6109
 2033SOL    HW2 6099   1.144   2.825   0.213  0.4875 -0.5650 -0.7774
 2034SOL     OW 6100   0.844   2.761   0.492 -0.0163 -0.4784  0.1459
 2034SOL    HW1 6101   0.913   2.697   0.505 -0.1917 -0.3135  2.1419
 2034SOL    HW2 6102   0.777   2.738   0.556 -0.2279  1.4837  0.6919
 2035SOL     OW 6103   0.381   0.288   3.045 -0.5196  0.0006  0.7060
 2035SOL    HW1 6104   0.333   0.207   3.029 -0.1963 -0.3839  1.6438
 2035SOL    HW2 6105   0.472   0.267   3.023 -0.3401 -0.0627  1.4947
 2036SOL     OW 6106   2.130   3.124   0.419  0.0381  0.0390 -0.0450
 2036SOL    HW1 6107   2.189   3.089   0.352  0.4246  1.9157 -0.7491
 2036SOL    HW2 6108   2.152   3.074   0.498  0.5970 -1.2115 -0.9585
 2037SOL     OW 6109   1.496   1.833   3.571 -0.0106 -0.2065 -0.0014
 2037SOL    HW1 6110   1.468   1.918   3.606  3.3998  1.4340 -0.8619
 2037SOL    HW2 6111   1.527   1.784   3.647  1.1903  0.7205  0.1314
 2038SOL     OW 6112   0.279   1.006   0.703  0.1140 -0.8801 -0.3095
 2038SOL    HW1 6113   0.210   1.051   0.751  0.4606  0.7344 -1.2547
 2038SOL    HW2 6114   0.359   1.049   0.730  0.4766 -1.0253 -1.1340
 2039SOL     OW 6115   0.316   0.462   2.637 -1.1513  0.1299  0.4504
 2039SOL    HW1 6116   0.317   0.489   2.729  0.9667  3.1668 -0.3057
 2039SOL    HW2 6117   0.407   0.437   2.619 -0.7556  2.6132 -1.5055
 2040SOL     OW 6118   2.629   2.751   0.169 -0.0182 -0.0776 -0.0286
 2040SOL    HW1 6119   2.684   2.822   0.203  1.4568 -0.8377 -0.7478
 2040SOL    HW2 6120   2.611   2.776   0.078 -1.5560  0.5425  0.4123
 2041SOL     OW 6121   1.387   0.661   0.226 -0.3528 -0.0637  0.7225
 2041SOL    HW1 6122   1.411   0.569   0.229 -2.7083 -1.0095 -2.7426
 2041SOL    HW2 6123   1.299   0.664   0.264 -1.3804  0.1649 -1.5148
 2042SOL     OW 6124   1.198   0.805   0.859 -0.0473  0.4759  0.3331
 2042SOL    HW1 6125   1.212   0.866   0.931  0.3147 -0.1013  0.7615
 2042SOL    HW2 6126   1.225   0.854   0.781 -1.9027  1.6458  0.3629
 2043SOL     OW 6127   2.162   1.231   2.320  0.5190 -0.6638  0.1031
 2043SOL    HW1 6128   2.075   1.270   2.323  0.4673 -0.8500  1.9789
 2043SOL    HW2 6129   2.213   1.281   2.383  0.6723 -3.0118  1.9711
 2044SOL     OW 6130   2.692   2.583   1.175  0.2775  0.0088 -0.1958
 2044SOL    HW1 6131   2.680   2.541   1.089  2.8083  0.9696 -1.0916
 2044SOL    HW2 6132   2.757   2.529   1.220 -0.2612  0.1061  0.7293
 2045SOL     OW 6133   2.371   0.788   3.009  0.4491  0.6357  0.2728
 2045SOL    HW1 6134   2.296   0.751   2.962  1.5083  2.6456 -3.3972
 2045SOL    HW2 6135   2.446   0.768   2.954  1.9549  2.4736  1.5169
 2046SOL     OW 6136   3.053   1.423   3.521  1.0155 -0.2032 -0.0209
 2046SOL    HW1 6137   3.010   1.438   3.437  1.9088  1.0020 -0.2840
 2046SOL    HW2 6138   3.028   1.333   3.544  0.7185 -0.5468 -1.5436
 2047SOL     OW 6139   3.708   0.690   3.439  0.0467  0.0294  0.3985
 2047SOL    HW1 6140   3.622   0.658   3.466 -0.0006 -1.7905 -1.6714
 2047SOL    HW2 6141   3.691   0.740   3.359  0.9295 -0.9803 -0.4644
 2048SOL     OW 6142   2.133   2.677   3.780 -0.0497 -0.2323 -0.1578
 2048SOL    HW1 6143   2.227   2.663   3.785 -0.1087 -0.4705  4.2504
 2048SOL    HW2 6144   2.121   2.769   3.803 -0.9258 -0.3401 -0.1247
 2049SOL     OW 6145   0.185   1.045   1.818  0.3099  0.0427 -0.0234
 2049SOL    HW1 6146   0.104   0.992   1.817  0.1890  0.1422  1.6556
 2049SOL    HW2 6147   0.176   1.100   1.895 -0.5443  4.1868 -2.7904
 2050SOL     OW 6148   2.283   0.891   3.444 -0.5813 -0.3583  0.4166
 2050SOL    HW1 6149   2.357   0.832   3.437  1.3461  2.0558 -1.0056
 2050SOL    HW2 6150   2.268   0.900   3.538  0.7465 -1.0981  0.7119
 2051SOL     OW 6151   2.617   3.449   1.114 -0.3754 -0.4276  0.0812
 2051SOL    HW1 6152   2.622   3.515   1.183 -1.4103 -1.2462  0.9641
 2051SOL    HW2 6153   2.676   3.482   1.046  0.9230  0.2405  1.4642
 2052SOL     OW 6154   2.042   2.450   2.951 -0.3974  0.3149 -0.2819
 2052SOL    HW1 6155   2.027   2.356   2.937  0.8165 -0.4480  2.8186
 2052SOL    HW2 6156   2.043   2.460   3.046  1.1127  3.1933 -0.5071
 2053SOL     OW 6157   1.427   0.622   1.273 -0.1637  0.4395  0.3742
 2053SOL    HW1 6158   1.405   0.530   1.267 -1.1202  0.7300 -1.6257
 2053SOL    HW2 6159   1.509   0.631   1.224 -1.2574  0.9466 -1.4522
 2054SOL     OW 6160   0.620   3.299   1.089  0.6838  0.0738  0.0135
 2054SOL    HW1 6161   0.701   3.347   1.071  0.0506  0.9897 -0.4565
 2054SOL    HW2 6162   0.606   3.312   1.183  1.1796 -0.2783  0.1472
 2055SOL     OW 6163   0.710   3.098   1.421 -0.1976 -0.7223 -0.4329
 2055SOL    HW1 6164   0.729   3.015   1.465 -1.0789  0.3936  2.2470
 2055SOL    HW2 6165   0.619   3.088   1.391 -1.0702 -0.0686  1.7741
 2056SOL     OW 6166   2.809   3.222   0.917  0.0346  0.3783 -0.1595
 2056SOL    HW1 6167   2.860   3.207   0.996 -2.1511 -1.1607  1.0581
 2056SOL    HW2 6168   2.789   3.316   0.919  2.0101  0.8564 -0.2531
 2057SOL     OW 6169   3.918   3.249   0.266  0.0571  0.4666  0.1046
 2057SOL    HW1 6170   3.972   3.328   0.267  1.6117 -0.5454 -0.5970
 2057SOL    HW2 6171   3.858   3.262   0.192 -1.2838  1.9521  1.3807
 2058SOL     OW 6172   1.531   0.674   3.190  0.2033  0.4352  0.2269
 2058SOL    HW1 6173   1.509   0.635   3.275  2.3829  1.1757  1.2132
 2058SOL    HW2 6174   1.584   0.609   3.146 -1.9461 -0.4722 -1.2119
 2059SOL     OW 6175   2.979   1.860   3.601 -0.0962 -0.0248  0.1417
 2059SOL    HW1 6176   2.960   1.849   3.694  1.8615  0.5373  0.6615
 2059SOL    HW2 6177   3.059   1.809   3.587 -0.6657 -0.5606 -1.3807
 2060SOL     OW 6178   3.311   2.132   2.148  0.4448 -0.0428  0.0039
 2060SOL    HW1 6179   3.362   2.186   2.087 -0.2058  0.3430 -0.2064
 2060SOL    HW2 6180   3.375   2.070   2.184  0.8873 -0.1023 -0.8650
 2061SOL     OW 6181   2.373   1.798   3.198  0.1583 -0.2677  0.1345
 2061SOL    HW1 6182   2.463   1.821   3.223  0.1277 -2.0207  2.1084
 2061SOL    HW2 6183   2.321   1.821   3.275 -0.9792 -0.0546 -0.6833
 2062SOL     OW 6184   3.776   3.397   2.535 -0.0473  0.4377  0.2419
 2062SOL    HW1 6185   3.830   3.457   2.485  2.8019 -1.3519  0.9112
 2062SOL    HW2 6186   3.731   3.452   2.600  2.3378  1.9010  0.7681
 2063SOL     OW 6187   0.023   3.205   0.649  0.1144  0.1050  0.5313
 2063SOL    HW1 6188   0.052   3.295   0.668  1.8495 -0.4203  0.5238
 2063SOL    HW2 6189  -0.004   3.171   0.734 -1.8016  1.0242  0.3369
 2064SOL     OW 6190   2.324   1.702   2.372  0.0569 -0.4041  0.4623
 2064SOL    HW1 6191   2.242   1.672   2.411  0.4090 -1.4867  0.4081
 2064SOL    HW2 6192   2.368   1.622   2.344  1.3573  0.1161  0.9363
 2065SOL     OW 6193   2.271   0.389   2.905  0.1063  0.2566 -0.5304
 2065SOL    HW1 6194   2.214   0.381   2.981 -0.0633  0.5213 -0.6283
 2065SOL    HW2 6195   2.220   0.354   2.832 -0.1436  0.9856 -0.7183
 2066SOL     OW 6196   0.348   0.266   0.214  0.6052  0.1694 -0.0718
 2066SOL    HW1 6197   0.349   0.352   0.255  2.2051  0.2404 -0.1747
 2066SOL    HW2 6198   0.307   0.209   0.278  1.4108  0.6276  0.8689
 2067SOL     OW 6199   1.931   3.208   0.625  0.3899  0.3910  0.1670
 2067SOL    HW1 6200   1.875   3.132   0.610  0.1331  0.5490  0.3015
 2067SOL    HW2 6201   2.016   3.172   0.648 -0.1849  0.1014  2.0331
 2068SOL     OW 6202   2.113   3.354   2.811 -0.4934  0.0800  0.4074
 2068SOL    HW1 6203   2.144   3.353   2.901  0.2140 -0.4237  0.1632
 2068SOL    HW2 6204   2.159   3.282   2.768 -1.4555 -0.2282 -0.1480
 2069SOL     OW 6205   1.152   3.156   3.666 -0.0270  0.6355 -0.3047
 2069SOL    HW1 6206   1.194   3.130   3.584  3.2046 -2.8140  2.0426
 2069SOL    HW2 6207   1.194   3.238   3.690 -0.9952  1.6711 -1.9746
 2070SOL     OW 6208   0.070   1.369   2.752 -0.4744  0.0033 -0.2726
 2070SOL    HW1 6209   0.016   1.447   2.766 -0.4651 -0.0507  0.0769
 2070SOL    HW2 6210   0.097   1.343   2.840  1.5168  1.0077 -0.5437
 2071SOL     OW 6211   2.334   0.851   2.615 -0.0370 -0.5613  0.1340
 2071SOL    HW1 6212   2.311   0.758   2.612  0.4055 -0.7160  1.0950
 2071SOL    HW2 6213   2.250   0.895   2.630 -0.0263 -0.9714  1.6134
 2072SOL     OW 6214   0.683   0.912   3.617 -0.1141 -0.2933  0.0946
 2072SOL    HW1 6215   0.648   0.961   3.692 -0.1175  0.2095 -0.2256
 2072SOL    HW2 6216   0.723   0.835   3.655 -0.6961 -0.3764  0.5612
 2073SOL     OW 6217   2.524   0.698   2.502  0.3279 -0.3664 -0.1561
 2073SOL    HW1 6218   2.610   0.738   2.497  0.5503 -0.6502  1.0511
 2073SOL    HW2 6219   2.475   0.754   2.562  0.7670 -2.0282  1.8827
 2074SOL     OW 6220   0.799   2.627   0.776  0.0710 -0.1825  0.3280
 2074SOL    HW1 6221   0.871   2.565   0.761 -0.2193 -1.0045  2.0718
 2074SOL    HW2 6222   0.840   2.713   0.768  1.2785 -0.6375  1.2908
 2075SOL     OW 6223   0.804   0.531   2.729  0.2944 -0.4127  0.0023
 2075SOL    HW1 6224   0.806   0.509   2.822  0.6466  0.0947  0.1163
 2075SOL    HW2 6225   0.844   0.617   2.724  0.6148 -0.5991 -0.6708
 2076SOL     OW 6226   2.501   3.262   2.958  0.4817  0.1216 -0.2105
 2076SOL    HW1 6227   2.430   3.211   2.998 -1.6618  2.9011 -0.1381
 2076SOL    HW2 6228   2.538   3.203   2.892 -1.2958 -1.7891  0.3755
 2077SOL     OW 6229   0.430   0.070   2.763 -0.4493 -0.3146 -0.6003
 2077SOL    HW1 6230   0.465   0.137   2.822  0.9750 -1.0614 -0.5606
 2077SOL    HW2 6231   0.360   0.028   2.814 -0.1500 -0.0526  0.0403
 2078SOL     OW 6232   3.395   0.105   3.125  0.5449  0.0648  0.4664
 2078SOL    HW1 6233   3.386   0.198   3.146 -0.7688 -0.0570  0.5573
 2078SOL    HW2 6234   3.486   0.094   3.099  0.7038  1.3832  0.4298
 2079SOL     OW 6235   0.491   3.031   2.711  0.0289 -0.6270 -0.0178
 2079SOL    HW1 6236   0.538   3.014   2.793  0.3631  0.0807 -0.0593
 2079SOL    HW2 6237   0.407   3.067   2.737  0.1252 -0.4261  0.0144
 2080SOL     OW 6238   2.063   2.132   0.786 -0.1205 -0.6422 -0.3142
 2080SOL    HW1 6239   2.001   2.166   0.851 -1.2373 -0.5457 -1.4004
 2080SOL    HW2 6240   2.148   2.163   0.817 -0.6954 -0.0787  0.7761
 2081SOL     OW 6241   3.943   0.349   2.320 -0.3566  0.0897  0.1171
 2081SOL    HW1 6242   4.013   0.381   2.263 -0.2611 -1.8041 -0.9033
 2081SOL    HW2 6243   3.863   0.384   2.281 -0.0515  2.5349  1.4733
 2082SOL     OW 6244   0.841   3.911   0.035 -0.3765  0.1857 -0.4207
 2082SOL    HW1 6245   0.865   3.898  -0.057 -2.2248 -1.3464 -0.7595
 2082SOL    HW2 6246   0.800   3.997   0.037 -0.8875 -0.0320 -1.1648
 2083SOL     OW 6247   3.348   2.286   0.750 -0.5701  0.0871 -0.1764
 2083SOL    HW1 6248   3.341   2.243   0.665 -1.5860 -0.3090  0.0923
 2083SOL    HW2 6249   3.340   2.215   0.814  4.8907 -0.4269  0.4063
 2084SOL     OW 6250   1.301   1.965   1.045 -0.2596 -0.3654 -0.0085
 2084SOL    HW1 6251   1.319   1.940   0.954 -0.6994 -1.3104  0.1420
 2084SOL    HW2 6252   1.210   1.996   1.044 -0.2800 -0.4194  0.1088
 2085SOL     OW 6253   0.410   1.462   2.752 -0.2102  0.0945 -0.2837
 2085SOL    HW1 6254   0.395   1.403   2.825 -1.0665  0.8293  0.1453
 2085SOL    HW2 6255   0.339   1.526   2.756 -0.1684  0.2671 -1.6418
 2086SOL     OW 6256   0.427   3.876   1.835 -0.4016  0.7978  0.4355
 2086SOL    HW1 6257   0.457   3.917   1.916  0.6881  0.3425  0.2839
 2086SOL    HW2 6258   0.500   3.819   1.808 -1.2415 -0.0286 -0.1886
 2087SOL     OW 6259   2.629   2.627   1.764  0.6936  0.1654 -0.3993
 2087SOL    HW1 6260   2.647   2.538   1.794  0.0706  0.2116  0.1285
 2087SOL    HW2 6261   2.667   2.684   1.831  1.2232  0.3072 -0.8099
 2088SOL     OW 6262   3.624   2.999   3.372  0.3827 -0.1570 -0.8010
 2088SOL    HW1 6263   3.644   3.088   3.345  0.4728 -0.6654 -2.5870
 2088SOL    HW2 6264   3.696   2.974   3.430  1.5938  0.1992 -2.0888
 2089SOL     OW 6265   1.969   0.518   0.350  0.0524 -0.2843 -0.5256
 2089SOL    HW1 6266   1.939   0.550   0.265  0.3287  0.4334 -0.3604
 2089SOL    HW2 6267   2.039   0.578   0.374 -0.4781 -0.0754  0.5248
 2090SOL     OW 6268   1.247   1.279   2.825  0.2922  0.3321 -0.0838
 2090SOL    HW1 6269   1.335   1.241   2.834 -0.3282 -1.0719  0.3336
 2090SOL    HW2 6270   1.247   1.319   2.738  1.4708  0.7138  0.0675
 2091SOL     OW 6271   0.087   3.503   3.199 -0.0214 -0.1417 -0.2011
 2091SOL    HW1 6272   0.117   3.580   3.150 -3.2451  1.2145 -0.2837
 2091SOL    HW2 6273   0.091   3.432   3.134  0.9725  0.3924 -0.7623
 2092SOL     OW 6274   2.317   0.964   2.372 -0.5180 -0.6162 -0.4237
 2092SOL    HW1 6275   2.296   1.051   2.405 -3.2778 -1.3666  0.0084
 2092SOL    HW2 6276   2.343   0.915   2.449 -1.2239 -0.7783 -0.2824
 2093SOL     OW 6277   3.220   1.217   1.011  0.1115 -0.1479 -0.0390
 2093SOL    HW1 6278   3.280   1.242   1.082 -0.0486  3.1296 -0.8614
 2093SOL    HW2 6279   3.136   1.256   1.037  0.2204  1.7516 -2.2177
 2094SOL     OW 6280   2.469   0.163   2.478 -0.1297 -0.2420 -0.3264
 2094SOL    HW1 6281   2.405   0.168   2.549 -1.8339  2.3054 -1.9030
 2094SOL    HW2 6282   2.552   0.144   2.522 -1.7089 -2.7720  1.8916
 2095SOL     OW 6283   0.078   1.194   3.037  0.1360  0.1650 -0.4062
 2095SOL    HW1 6284   0.102   1.175   3.127 -0.7354  1.5855  0.1584
 2095SOL    HW2 6285   0.099   1.114   2.989  4.0838  0.5509  0.3347
 2096SOL     OW 6286   1.569   3.896   0.833  0.9362  0.2255 -0.9307
 2096SOL    HW1 6287   1.563   3.941   0.749 -0.5359 -0.8024 -1.4093
 2096SOL    HW2 6288   1.491   3.841   0.837  0.8555  0.3842  1.2026
 2097SOL     OW 6289   3.960   1.173   2.110 -0.4844  0.0757  0.3201
 2097SOL    HW1 6290   3.962   1.179   2.205  0.2180 -0.3888  0.3376
 2097SOL    HW2 6291   3.900   1.243   2.083  0.8436  1.5566  0.9926
 2098SOL     OW 6292   3.765   3.848   0.133  0.1766 -0.1736  0.3782
 2098SOL    HW1 6293   3.714   3.866   0.055 -0.9408 -3.0264  0.3252
 2098SOL    HW2 6294   3.849   3.814   0.100  2.0918  3.9081  0.4748
 2099SOL     OW 6295   3.208   2.255   4.007 -0.7418 -0.8421 -0.6383
 2099SOL    HW1 6296   3.257   2.179   3.975 -0.1165 -1.1658  1.0071
 2099SOL    HW2 6297   3.169   2.293   3.928  1.6273 -0.9406 -1.9535
 2100SOL     OW 6298   3.279   1.775   3.351 -0.2050 -0.5716  0.3766
 2100SOL    HW1 6299   3.344   1.729   3.299  0.8033  0.1119  1.0070
 2100SOL    HW2 6300   3.277   1.863   3.314  1.5682  0.3665  2.3186
 2101SOL     OW 6301   1.184   0.371   1.525  0.1497  0.4774 -0.1488
 2101SOL    HW1 6302   1.184   0.462   1.493  1.6124  0.5019 -0.1245
 2101SOL    HW2 6303   1.249   0.326   1.472  0.3789 -0.2434  0.7100
 2102SOL     OW 6304   1.273   1.106   1.431  0.3502  0.5912  0.4326
 2102SOL    HW1 6305   1.189   1.121   1.473 -1.3673 -0.3104 -2.3982
 2102SOL    HW2 6306   1.275   1.013   1.412  0.2335  1.1383 -2.7892
 2103SOL     OW 6307   1.785   0.791   3.171 -0.3556 -0.1368  0.2374
 2103SOL    HW1 6308   1.819   0.711   3.130  0.2665  2.2288 -4.5695
 2103SOL    HW2 6309   1.693   0.771   3.190 -0.2277 -1.9684 -0.8603
 2104SOL     OW 6310   1.994   1.249   4.000  0.1945  0.4470  0.3648
 2104SOL    HW1 6311   1.922   1.200   4.039  1.3561 -0.2527  1.7437
 2104SOL    HW2 6312   2.006   1.209   3.914 -0.1981 -0.3289  0.6576
 2105SOL     OW 6313   2.518   3.026   2.698  0.4324 -0.1630  0.0421
 2105SOL    HW1 6314   2.429   3.023   2.662  0.2918  1.1529  0.2381
 2105SOL    HW2 6315   2.548   3.115   2.680  1.8840 -0.7209 -0.3967
 2106SOL     OW 6316   3.284   1.396   0.499 -0.0680 -0.0411 -0.0976
 2106SOL    HW1 6317   3.283   1.323   0.561 -1.5933 -0.5907 -0.7308
 2106SOL    HW2 6318   3.356   1.375   0.439 -0.2625 -0.8556 -0.0620
 2107SOL     OW 6319   2.073   0.917   2.148  0.2909  0.0122 -0.1933
 2107SOL    HW1 6320   1.984   0.901   2.180  0.5681 -3.4095 -0.7945
 2107SOL    HW2 6321   2.121   0.947   2.225 -1.2847  1.8131  0.1677
 2108SOL     OW 6322   3.100   0.742   3.901 -0.7826 -0.6429 -0.0800
 2108SOL    HW1 6323   3.088   0.684   3.977  0.2292 -0.1742  0.4533
 2108SOL    HW2 6324   3.176   0.796   3.924 -1.1009  0.2161 -0.9893
 2109SOL     OW 6325   3.778   2.394   2.415  0.8095 -0.2133  0.4971
 2109SOL    HW1 6326   3.763   2.365   2.506  0.5951  1.1551  0.9237
 2109SOL    HW2 6327   3.872   2.388   2.403  1.0138  0.9677  1.3268
 2110SOL     OW 6328   1.075   2.885   1.425  0.4770 -0.0842  0.9365
 2110SOL    HW1 6329   1.006   2.944   1.396 -0.2493 -0.8153  1.1262
 2110SOL    HW2 6330   1.156   2.935   1.414  0.1100  0.1395 -1.0379
 2111SOL     OW 6331  -0.005   2.217   1.719 -0.5224  0.2882 -0.3921
 2111SOL    HW1 6332  -0.068   2.169   1.665  0.0909  1.1424 -1.9446
 2111SOL    HW2 6333   0.078   2.172   1.704 -0.4740  0.0861  0.4480
 2112SOL     OW 6334   2.528   2.022   1.629 -0.8096 -0.7227  0.1646
 2112SOL    HW1 6335   2.583   1.964   1.681 -1.0012 -2.7031 -1.6797
 2112SOL    HW2 6336   2.438   2.004   1.658 -0.8022 -0.5810  0.2801
 2113SOL     OW 6337   2.496   0.299   3.863 -0.1805 -0.3590  0.3706
 2113SOL    HW1 6338   2.532   0.378   3.904  1.1872 -0.9245  0.3371
 2113SOL    HW2 6339   2.449   0.255   3.933  2.1107 -1.3033  1.4405
 2114SOL     OW 6340   0.183   2.755   2.866 -0.5408 -0.1955 -0.1702
 2114SOL    HW1 6341   0.212   2.839   2.902  0.4579 -1.1213  1.2750
 2114SOL    HW2 6342   0.263   2.703   2.859 -1.2695 -1.3461 -0.1723
 2115SOL     OW 6343   0.807   2.635   2.419  0.8254  0.4997 -0.2432
 2115SOL    HW1 6344   0.853   2.560   2.456 -2.0329 -0.2713  2.1201
 2115SOL    HW2 6345   0.747   2.596   2.355 -1.3041  0.5020  1.6241
 2116SOL     OW 6346   3.152   3.662   2.028 -0.2282  0.2051 -0.2856
 2116SOL    HW1 6347   3.149   3.639   1.935  0.3699 -1.2058  0.0203
 2116SOL    HW2 6348   3.143   3.757   2.029  0.6576  0.3482 -1.8549
 2117SOL     OW 6349   2.057   2.853  -0.013  0.3119  0.7236 -0.0476
 2117SOL    HW1 6350   2.060   2.855   0.083  1.0634  1.0333 -0.0758
 2117SOL    HW2 6351   1.984   2.794  -0.033  0.1422  0.6640  0.7129
 2118SOL     OW 6352   3.914   1.248   3.817  0.0497 -0.2817 -0.0066
 2118SOL    HW1 6353   3.966   1.167   3.816  0.1259 -0.2448 -1.4623
 2118SOL    HW2 6354   3.966   1.309   3.868  1.4625 -0.2624 -1.3890
 2119SOL     OW 6355   0.342   1.797   1.127 -0.1068  0.6369  0.1944
 2119SOL    HW1 6356   0.264   1.837   1.166  0.3188  0.0821  1.6861
 2119SOL    HW2 6357   0.324   1.703   1.128  0.2909  0.5539 -0.1086
 2120SOL     OW 6358   1.443   3.695   3.219 -0.0708 -0.0881  0.1370
 2120SOL    HW1 6359   1.437   3.665   3.310  1.0321  0.7158  0.5050
 2120SOL    HW2 6360   1.484   3.622   3.172  1.3469  0.2807  0.7478
 2121SOL     OW 6361   2.295   3.664   2.642 -0.1687  0.2191 -0.0783
 2121SOL    HW1 6362   2.331   3.587   2.687 -3.7219 -0.3029  2.2537
 2121SOL    HW2 6363   2.334   3.739   2.688 -0.4672 -0.2808  1.0149
 2122SOL     OW 6364   1.165   3.373   3.167 -0.0192  0.2525 -0.1195
 2122SOL    HW1 6365   1.133   3.453   3.124 -0.8667 -0.3779 -0.7112
 2122SOL    HW2 6366   1.160   3.391   3.260 -0.6599  0.7301 -0.2427
 2123SOL     OW 6367   2.982   0.330   3.521 -0.0941  0.2502  0.4805
 2123SOL    HW1 6368   3.061   0.369   3.482  0.5125  1.3010  2.5976
 2123SOL    HW2 6369   2.914   0.395   3.505  0.1179  0.6044  0.9572
 2124SOL     OW 6370   3.106   0.991   3.040  0.6643  0.0361  0.0803
 2124SOL    HW1 6371   3.160   0.920   3.076  0.6896 -0.7449 -1.4080
 2124SOL    HW2 6372   3.049   1.017   3.113  1.6660 -0.4910  1.0947
 2125SOL     OW 6373   1.100   3.110   2.109 -0.1156 -0.2310  0.3078
 2125SOL    HW1 6374   1.071   3.085   2.197 -1.5134  1.7053  0.4348
 2125SOL    HW2 6375   1.057   3.193   2.091  1.2227  0.1106 -1.6850
 2126SOL     OW 6376   0.777   0.909   0.070  0.1029 -0.8985 -0.3107
 2126SOL    HW1 6377   0.823   0.928   0.152 -1.3721  0.8954  0.1677
 2126SOL    HW2 6378   0.732   0.826   0.087 -0.8886 -0.1198  1.0570
 2127SOL     OW 6379   0.546   2.779   3.590  0.4089  0.1469  0.9051
 2127SOL    HW1 6380   0.483   2.737   3.648 -1.2467  1.3616  0.0832
 2127SOL    HW2 6381   0.518   2.755   3.502 -0.0801  2.1705  0.4414
 2128SOL     OW 6382   0.335   0.065   2.506 -0.3479  0.3682  0.1271
 2128SOL    HW1 6383   0.352   0.068   2.600 -1.1766  1.7732  0.2574
 2128SOL    HW2 6384   0.422   0.065   2.467  0.0058 -0.0601  0.8863
 2129SOL     OW 6385   3.014   3.639   2.768 -0.0206  0.3051  0.3620
 2129SOL    HW1 6386   3.017   3.543   2.769  2.3468  0.3368  1.4713
 2129SOL    HW2 6387   2.982   3.660   2.680  0.3217 -1.4873 -0.2390
 2130SOL     OW 6388   0.859   1.599   1.390  0.5322  0.6708  0.4880
 2130SOL    HW1 6389   0.851   1.617   1.483 -3.0597 -1.5515  0.7966
 2130SOL    HW2 6390   0.875   1.505   1.384  0.2536  0.6842 -1.1496
 2131SOL     OW 6391   1.251   0.920   1.784 -0.4699 -0.0327  0.2024
 2131SOL    HW1 6392   1.253   0.842   1.839  0.2774  0.3018  0.6650
 2131SOL    HW2 6393   1.213   0.988   1.840  1.8555  0.7456  0.9237
 2132SOL     OW 6394   3.298   0.429   3.062 -0.2886 -0.0536  0.3314
 2132SOL    HW1 6395   3.348   0.408   2.983 -0.5269 -0.9706  0.4088
 2132SOL    HW2 6396   3.235   0.494   3.035 -2.3693 -2.4410 -1.0014
 2133SOL     OW 6397   0.072   3.926   2.836  0.9110  0.8048 -0.1188
 2133SOL    HW1 6398   0.001   3.988   2.823 -1.3167 -1.1711  1.6506
 2133SOL    HW2 6399   0.065   3.865   2.763  2.6839  2.1440 -1.4962
 2134SOL     OW 6400   2.300   3.418   0.113 -0.5605 -0.2527  0.6642
 2134SOL    HW1 6401   2.230   3.383   0.058 -0.1902  0.0836 -0.0367
 2134SOL    HW2 6402   2.264   3.500   0.148  0.7492  1.9475 -2.7213
 2135SOL     OW 6403   1.169   1.196   3.568 -0.6808  0.6373  0.1860
 2135SOL    HW1 6404   1.172   1.221   3.660  1.1294 -0.2467  0.4092
 2135SOL    HW2 6405   1.191   1.103   3.568 -1.1117  0.5220 -1.1097
 2136SOL     OW 6406   3.076   0.312   2.022  0.0562 -0.1581 -0.1590
 2136SOL    HW1 6407   3.065   0.367   2.099  0.0758 -1.4992  0.8321
 2136SOL    HW2 6408   3.167   0.328   1.994 -0.2935  1.1623 -0.5900
 2137SOL     OW 6409   2.613   0.005   1.631  0.1119  0.1151  0.2304
 2137SOL    HW1 6410   2.610  -0.023   1.722 -2.6093 -0.0545  0.1881
 2137SOL    HW2 6411   2.581   0.096   1.633 -0.8502 -0.1799 -0.5871
 2138SOL     OW 6412   3.047   2.403   3.828 -0.5903 -0.2404 -0.3646
 2138SOL    HW1 6413   3.060   2.444   3.743 -0.0697  0.3971  0.0189
 2138SOL    HW2 6414   2.959   2.429   3.854 -0.5296  0.0431 -0.4428
 2139SOL     OW 6415   0.715   1.127   2.572 -0.0723 -1.0433  0.4565
 2139SOL    HW1 6416   0.641   1.142   2.631 -0.4821  0.6892 -0.4189
 2139SOL    HW2 6417   0.762   1.210   2.572  1.0544 -1.6625 -0.1250
 2140SOL     OW 6418   3.071   0.038   2.348 -0.0175 -0.2052  0.4615
 2140SOL    HW1 6419   3.063   0.126   2.311  1.8782 -0.6475 -1.1666
 2140SOL    HW2 6420   2.984  -0.001   2.337 -0.6005  1.0994  0.2783
 2141SOL     OW 6421   2.730   2.922   1.634 -0.1370  0.0441 -0.5131
 2141SOL    HW1 6422   2.726   2.973   1.553  0.5320  0.5503 -0.2329
 2141SOL    HW2 6423   2.648   2.940   1.678 -1.6986 -2.2370 -2.2434
 2142SOL     OW 6424   2.332   0.174   0.017  0.4485  0.3527 -0.6527
 2142SOL    HW1 6425   2.336   0.135   0.104  0.0409  0.4540 -0.5871
 2142SOL    HW2 6426   2.251   0.140  -0.021 -0.8887  2.4887  0.0721
 2143SOL     OW 6427   2.673   2.672   0.487  0.0991  0.4475 -0.3487
 2143SOL    HW1 6428   2.677   2.750   0.431 -2.2041  0.1067 -1.0988
 2143SOL    HW2 6429   2.646   2.706   0.573  0.1750  0.5863 -0.3795
 2144SOL     OW 6430   1.076   3.682   2.026 -0.1086  0.3757  0.5239
 2144SOL    HW1 6431   1.124   3.629   2.089 -0.5545 -2.4310 -1.3296
 2144SOL    HW2 6432   0.989   3.694   2.065 -0.0027 -0.3082  0.9754
 2145SOL     OW 6433   2.129   2.547   2.500 -0.2888 -0.4735  0.1923
 2145SOL    HW1 6434   2.165   2.540   2.412 -0.3724 -0.9891  0.1947
 2145SOL    HW2 6435   2.195   2.595   2.549 -2.3726  4.5791 -1.3209
 2146SOL     OW 6436   0.240   1.367   0.461 -0.0913 -0.5368 -0.2588
 2146SOL    HW1 6437   0.213   1.438   0.519  1.4891  0.9503 -1.2344
 2146SOL    HW2 6438   0.183   1.375   0.384  1.6326  1.3341 -1.4466
 2147SOL     OW 6439   1.073   0.999   2.702 -0.4576  0.4849  0.6541
 2147SOL    HW1 6440   1.012   1.034   2.637  3.0574  2.7269 -1.8402
 2147SOL    HW2 6441   1.126   1.074   2.728  1.8032 -1.3948  1.9152
 2148SOL     OW 6442   1.199   1.109   1.986 -0.1576 -0.1107  0.5341
 2148SOL    HW1 6443   1.148   1.189   1.979  0.9710  0.8138  2.1912
 2148SOL    HW2 6444   1.165   1.065   2.064 -0.2892 -0.8945  0.0477
 2149SOL     OW 6445   0.253   4.004   1.176  0.0252 -0.2984 -0.0105
 2149SOL    HW1 6446   0.270   3.911   1.191 -1.3748 -0.4333  0.8310
 2149SOL    HW2 6447   0.185   4.027   1.238  0.6015  1.3981  0.0484
 2150SOL     OW 6448   3.254   0.580   3.669  0.2619  0.0982  0.2748
 2150SOL    HW1 6449   3.196   0.558   3.742  1.4104 -0.5003  1.0211
 2150SOL    HW2 6450   3.264   0.675   3.674  1.8309 -0.1194  2.0731
 2151SOL     OW 6451   1.764   0.030   1.336 -0.2731 -0.4023  1.0272
 2151SOL    HW1 6452   1.813   0.034   1.418  2.2995  0.1019 -0.4274
 2151SOL    HW2 6453   1.828   0.052   1.269 -2.0131 -1.8166 -1.2512
 2152SOL     OW 6454   0.193   0.754   0.775  0.5603 -0.5483  0.2109
 2152SOL    HW1 6455   0.230   0.833   0.737 -4.0072  1.3256 -1.1335
 2152SOL    HW2 6456   0.190   0.771   0.869 -0.2275  0.9412 -0.0468
 2153SOL     OW 6457   0.691   2.134   3.012 -0.1942  0.2444  0.0666
 2153SOL    HW1 6458   0.602   2.112   2.984  0.2400  0.4001 -1.5465
 2153SOL    HW2 6459   0.747   2.076   2.960  0.7623  2.2690 -1.2902
 2154SOL     OW 6460   0.150   3.872   3.269 -0.5059 -0.3226 -0.6092
 2154SOL    HW1 6461   0.147   3.832   3.182 -2.0009  1.4738 -1.4528
 2154SOL    HW2 6462   0.068   3.847   3.310  1.3620 -3.6478  1.6167
 2155SOL     OW 6463   0.828   3.424   0.740  0.6152  0.0703 -0.0406
 2155SOL    HW1 6464   0.891   3.375   0.792  0.7645 -1.8559 -1.8870
 2155SOL    HW2 6465   0.744   3.412   0.785  1.0784  0.3195  0.9167
 2156SOL     OW 6466   2.175   3.748   2.428  0.3732 -0.6446  0.5672
 2156SOL    HW1 6467   2.090   3.781   2.457  0.1090  0.2594 -1.0875
 2156SOL    HW2 6468   2.214   3.709   2.506  0.5744  3.3027  2.7196
 2157SOL     OW 6469   3.960   2.710   3.041 -0.3728 -0.2549  0.4303
 2157SOL    HW1 6470   4.019   2.742   2.973 -0.1877 -0.6542  0.4004
 2157SOL    HW2 6471   3.928   2.626   3.008 -2.3740  0.7582 -0.3776
 2158SOL     OW 6472   0.395   3.846   3.088 -0.0066 -0.3341  0.0013
 2158SOL    HW1 6473   0.369   3.805   3.171  1.7918  0.5985  1.0769
 2158SOL    HW2 6474   0.395   3.774   3.025 -0.2774 -1.3019  1.0606
 2159SOL     OW 6475   3.594   1.445   2.294  0.1016  0.2438  0.0294
 2159SOL    HW1 6476   3.509   1.488   2.289 -0.6816 -1.1826  0.6283
 2159SOL    HW2 6477   3.575   1.352   2.293  1.8347 -0.1881 -2.5639
 2160SOL     OW 6478   1.903   2.896   3.423  0.6731  0.4340  0.0740
 2160SOL    HW1 6479   1.920   2.810   3.461  0.9726 -0.9213 -2.8479
 2160SOL    HW2 6480   1.810   2.910   3.435  0.7446  0.0175  1.1768
 2161SOL     OW 6481   3.467   1.131   1.977  0.0650  0.1096 -0.2194
 2161SOL    HW1 6482   3.484   1.037   1.983  3.3461  0.7110  2.2805
 2161SOL    HW2 6483   3.508   1.158   1.895 -2.2331 -0.7462 -1.7560
 2162SOL     OW 6484   0.261   0.492   0.752  0.3069  0.4972 -0.3290
 2162SOL    HW1 6485   0.227   0.581   0.760  0.1182  0.4290 -0.3647
 2162SOL    HW2 6486   0.184   0.435   0.760  0.1925  0.3924 -1.7804
 2163SOL     OW 6487   0.346   2.967   3.015  0.4131  0.2470  0.3756
 2163SOL    HW1 6488   0.330   2.959   3.109  0.9737  0.9278  0.5375
 2163SOL    HW2 6489   0.405   2.894   2.994 -0.9074 -0.8151  0.2422
 2164SOL     OW 6490   0.509   1.183   3.957  0.1025  0.3557  0.1333
 2164SOL    HW1 6491   0.595   1.224   3.971  0.3806  0.1180 -0.8274
 2164SOL    HW2 6492   0.528   1.092   3.936 -0.2752  0.6245 -1.5246
 2165SOL     OW 6493   0.441   1.439   0.820  0.7351 -0.0535 -0.6818
 2165SOL    HW1 6494   0.455   1.470   0.909  1.1963 -2.0133 -0.0296
 2165SOL    HW2 6495   0.355   1.474   0.796  0.7919  0.8531  0.3444
   4.00000   4.00000   4.00000
